G4Pncore-PETIM in water
90688
    1aaa     N1    1   0.176   9.632   1.187 -0.0872  0.5557 -0.2454
    1aaa     C1    2   0.039   9.617   1.127  0.1499 -0.1444  0.8424
    1aaa     H1    3   0.041   9.582   1.023  0.6925  1.7907  0.1545
    1aaa     H2    4  -0.012   9.544   1.190 -0.9721  0.2964  0.4672
    1aaa     C2    5   0.179   9.681   1.337 -0.3739 -0.5225  0.5299
    1aaa     H3    6   0.283   9.679   1.371  0.2521  0.6746 -1.1591
    1aaa     H4    7   0.144   9.784   1.350 -0.3623 -0.5324  0.6366
    1aaa     C3    8   0.267   9.514   1.159 -0.1852 -0.0525  0.2493
    1aaa     H5    9   0.358   9.531   1.218  1.3107 -1.7032 -1.4701
    1aaa     H6   10   0.219   9.422   1.195  0.3947 -0.9573 -1.2119
    1aaa     C4   11   0.301   9.488   1.013 -0.2105 -0.1683  0.6502
    1aaa     H7   12   0.212   9.457   0.957 -0.3062  3.1579 -1.3479
    1aaa     H8   13   0.333   9.582   0.965 -0.1333 -0.7992 -0.5677
    1aaa     C5   14  -0.050   9.742   1.151 -0.3327 -0.0599 -0.1671
    1aaa     H9   15  -0.152   9.720   1.117 -0.0054 -0.1890 -1.1018
    1aaa    H10   16  -0.054   9.769   1.257  0.9141  0.1829 -0.1772
    1aaa     C6   17   0.099   9.591   1.437  0.3072 -0.0546 -0.5096
    1aaa    H11   18  -0.007   9.589   1.409  0.0524  0.5505  0.3608
    1aaa    H12   19   0.136   9.488   1.439  1.8539  0.4847 -0.1329
    1aaa     C7   20   0.100   9.644   1.577  0.7513 -0.0189  0.1812
    1aaa    H13   21   0.019   9.591   1.629 -0.1115  0.9546 -0.1125
    1aaa    H14   22   0.195   9.630   1.630 -1.2421 -1.7351  3.7028
    1aaa     C8   23   0.415   9.385   0.992  0.4196 -0.3239 -0.0531
    1aaa    H15   24   0.459   9.384   0.891 -0.7690 -0.3637 -0.5975
    1aaa    H16   25   0.494   9.418   1.060  0.6551  1.4210 -1.1047
    1aaa     C9   26  -0.003   9.866   1.072  0.3007 -0.2058  0.5917
    1aaa    H17   27   0.104   9.886   1.084 -0.0162  1.1545  1.3835
    1aaa    H18   28  -0.022   9.852   0.965  1.4371 -1.9774  0.5823
    2bbb     N1   29   0.199  10.124   1.502  0.0881  0.1430 -0.5189
    2bbb     C1   30   0.185  10.256   1.440 -0.3785  0.6436  0.1037
    2bbb     H1   31   0.137  10.246   1.342  1.9687  0.5219 -1.1153
    2bbb     H2   32   0.284  10.294   1.412 -0.5873  2.2714  1.4677
    2bbb     C2   33   0.289  10.025   1.431  0.1374  0.6536 -0.2429
    2bbb     H3   34   0.271  10.025   1.322 -1.2566 -0.5748 -0.0453
    2bbb     H4   35   0.268   9.924   1.467 -0.0202  0.8244  0.1461
    2bbb     C3   36   0.064  10.070   1.513 -0.3447  0.1223  0.5348
    2bbb     H5   37   0.041   9.997   1.434 -1.4067  0.4863  0.4943
    2bbb     H6   38  -0.007  10.153   1.509  1.1388  1.4429  0.2535
    2bbb     C4   39   0.041  10.000   1.644 -0.1275 -0.5841  0.6044
    2bbb     H7   40  -0.067   9.979   1.649  0.0292 -1.3488  0.8912
    2bbb     H8   41   0.068  10.065   1.728 -1.5882  1.1615 -0.1996
    2bbb     C5   42   0.113  10.364   1.522  0.9090 -0.7667 -0.2609
    2bbb     H9   43   0.135  10.349   1.629  1.1617  0.8590 -0.0573
    2bbb    H10   44   0.005  10.353   1.508  0.7827  1.6258 -1.8359
    2bbb     C6   45   0.436  10.065   1.459 -0.0368  0.9824 -0.8037
    2bbb    H11   46   0.443  10.091   1.566 -1.7435  0.4225 -0.5178
    2bbb    H12   47   0.463  10.154   1.401  2.3156  0.4432 -0.6671
    2bbb     C7   48   0.114   9.867   1.661 -0.6611 -0.0636  0.0503
    2bbb    H13   49   0.104   9.823   1.761  0.2417  1.5691  0.9072
    2bbb    H14   50   0.222   9.886   1.660 -0.8203  0.9020 -1.0555
    2bbb     C8   51   0.527   9.942   1.420  0.4888 -0.9460 -0.4655
    2bbb    H15   52   0.631   9.963   1.449 -0.1498  1.8457  0.0305
    2bbb    H16   53   0.520   9.933   1.311 -0.6681  2.8052 -0.8184
    2bbb     C9   54   0.151  10.512   1.472 -0.5511 -0.0374 -0.3180
    2bbb    H17   55   0.128  10.521   1.365 -2.2038  1.0946  0.0877
    2bbb    H18   56   0.257  10.539   1.483 -0.5236 -0.5924  1.0549
    2bbb     O1   57   0.066   9.781   1.566 -0.2119 -1.0037 -0.0908
    3bbb     N1   58   0.548   8.913   1.213  0.1712 -0.0311  0.4140
    3bbb     C1   59   0.518   8.916   1.359  0.3481 -0.0980  0.7191
    3bbb     H1   60   0.497   8.813   1.391  0.0620  0.2971  1.8236
    3bbb     H2   61   0.432   8.976   1.392  3.3179  3.7293  2.2215
    3bbb     C2   62   0.652   8.808   1.174  0.0597  0.4524  0.5465
    3bbb     H3   63   0.620   8.704   1.156  0.4198  0.7005 -1.8782
    3bbb     H4   64   0.728   8.807   1.253  2.9337  2.4727 -1.9970
    3bbb     C3   65   0.428   8.914   1.131  0.7765  0.7591 -0.3349
    3bbb     H5   66   0.349   8.848   1.168 -0.1967  2.0249 -0.0933
    3bbb     H6   67   0.452   8.882   1.029 -3.8096 -1.8342 -0.8819
    3bbb     C4   68   0.364   9.053   1.127 -0.2442 -0.2063  0.4242
    3bbb     H7   69   0.326   9.089   1.223  1.5598 -0.0277  1.1053
    3bbb     H8   70   0.286   9.043   1.050 -1.1445 -1.8018  1.4771
    3bbb     C5   71   0.630   8.980   1.445  0.4610 -0.0234  0.2714
    3bbb     H9   72   0.725   8.939   1.408 -0.6805 -1.9389 -0.7104
    3bbb    H10   73   0.627   8.942   1.548  0.2762  3.2552  1.5827
    3bbb     C6   74   0.730   8.840   1.041 -0.0692 -0.4761 -0.0782
    3bbb    H11   75   0.781   8.936   1.046 -0.3177 -0.2069 -2.1375
    3bbb    H12   76   0.662   8.847   0.956 -1.3126 -1.5833  0.7719
    3bbb     C7   77   0.456   9.164   1.066 -0.1276 -0.0868 -0.6820
    3bbb    H13   78   0.524   9.127   0.988  1.4277 -2.6677  1.7321
    3bbb    H14   79   0.521   9.206   1.144  1.4951 -3.0518 -0.2906
    3bbb     C8   80   0.833   8.725   1.008  0.7528  0.1973 -0.2619
    3bbb    H15   81   0.765   8.639   0.996 -0.7373  1.5143 -1.7539
    3bbb    H16   82   0.912   8.710   1.083  1.1508 -2.7234 -1.1177
    3bbb     C9   83   0.628   9.138   1.459 -0.3070  0.1765 -1.0273
    3bbb    H17   84   0.612   9.180   1.359  0.5179 -1.6878 -1.9861
    3bbb    H18   85   0.717   9.178   1.509 -0.9512 -1.8004  1.9838
    3bbb     O1   86   0.359   9.260   1.022 -0.5634  0.1605 -0.6995
    4bbb     N1   87  -0.265  10.339   1.261  0.1028 -0.1345 -0.3152
    4bbb     C1   88  -0.369  10.312   1.362 -0.4020 -0.3296 -0.5101
    4bbb     H1   89  -0.420  10.219   1.336 -0.2037 -0.7781  0.6609
    4bbb     H2   90  -0.446  10.389   1.350 -1.0100 -1.1457 -2.3079
    4bbb     C2   91  -0.207  10.476   1.260  0.0726 -0.7734  0.2335
    4bbb     H3   92  -0.124  10.486   1.189 -0.3401 -0.9027 -0.2641
    4bbb     H4   93  -0.167  10.502   1.360 -1.0963  0.5371  0.3890
    4bbb     C3   94  -0.179  10.223   1.241 -0.4991  0.4280 -0.6013
    4bbb     H5   95  -0.231  10.133   1.274  0.6874 -0.1429 -0.2505
    4bbb     H6   96  -0.083  10.236   1.293 -0.1322  0.0344 -1.1661
    4bbb     C4   97  -0.130  10.215   1.094 -0.2755 -0.2427 -0.0538
    4bbb     H7   98  -0.085  10.311   1.065  2.3585 -1.3305  0.1109
    4bbb     H8   99  -0.221  10.194   1.037 -0.4961  2.3897 -0.8089
    4bbb     C5  100  -0.323  10.308   1.517 -0.1159 -0.0040 -0.2127
    4bbb     H9  101  -0.240  10.237   1.523 -0.7482 -0.6217  2.2441
    4bbb    H10  102  -0.409  10.260   1.565 -0.6976  1.0585 -0.1617
    4bbb     C6  103  -0.315  10.590   1.230  0.4737 -0.2108  0.4508
    4bbb    H11  104  -0.381  10.612   1.314 -0.8744  0.0016 -0.6292
    4bbb    H12  105  -0.385  10.553   1.154  1.7791 -0.5162 -0.6501
    4bbb     C7  106  -0.028  10.103   1.066 -0.0536 -0.1664 -0.0746
    4bbb    H13  107   0.076  10.124   1.096  0.2167  0.4931 -1.4070
    4bbb    H14  108  -0.029  10.100   0.957 -2.1728  0.7219 -0.1343
    4bbb     C8  109  -0.255  10.724   1.181 -0.2028 -0.6276 -0.1742
    4bbb    H15  110  -0.212  10.704   1.082  0.1385 -2.2940  0.2840
    4bbb    H16  111  -0.174  10.750   1.251 -0.8205  3.9402 -0.7975
    4bbb     C9  112  -0.282  10.446   1.580  0.4990  0.6324  0.1831
    4bbb    H17  113  -0.350  10.528   1.554  1.9018  1.5941 -0.5688
    4bbb    H18  114  -0.183  10.475   1.543  0.6681  0.5697  0.5756
    4bbb     O1  115  -0.078   9.980   1.116 -0.7415  0.9108 -0.0538
    5bbb     N1  116   0.503   9.799   1.932 -0.3782  0.5810  0.1769
    5bbb     C1  117   0.358   9.835   1.955 -0.0579  0.0659 -0.2757
    5bbb     H1  118   0.318   9.776   2.038 -0.7134 -1.1221 -1.3991
    5bbb     H2  119   0.291   9.815   1.871  1.0342  1.0484 -1.4402
    5bbb     C2  120   0.590   9.799   2.055  0.6169 -0.3955  1.0775
    5bbb     H3  121   0.565   9.894   2.104 -2.9807  1.2931 -3.3410
    5bbb     H4  122   0.694   9.809   2.021  0.8057 -0.0919  1.7349
    5bbb     C3  123   0.526   9.681   1.842  0.3524  0.9079  0.6354
    5bbb     H5  124   0.465   9.596   1.876  0.0760  1.9490  2.9610
    5bbb     H6  125   0.631   9.653   1.830  0.5798  0.6138  2.8503
    5bbb     C4  126   0.484   9.706   1.704  0.1641  0.2680  0.7183
    5bbb     H7  127   0.375   9.710   1.693 -0.3188 -0.0417  4.1713
    5bbb     H8  128   0.499   9.615   1.645  0.1385 -0.4582  1.8097
    5bbb     C5  129   0.334   9.988   1.983 -0.4752  0.3127 -0.1077
    5bbb     H9  130   0.387  10.025   2.071  0.9794 -2.8892  0.5161
    5bbb    H10  131   0.227  10.007   2.000 -0.2135  1.6981  0.0560
    5bbb     C6  132   0.570   9.690   2.163 -0.1624 -0.5560 -0.1648
    5bbb    H11  133   0.578   9.594   2.110 -2.8080 -0.5763 -0.6864
    5bbb    H12  134   0.470   9.689   2.210 -0.0137 -0.3048  0.1622
    5bbb     C7  135   0.543   9.836   1.631 -0.1571 -0.6521 -0.2275
    5bbb    H13  136   0.652   9.826   1.631 -0.2697 -2.2254  1.1745
    5bbb    H14  137   0.506   9.926   1.682 -0.9378 -2.2127  2.0691
    5bbb     C8  138   0.681   9.697   2.271 -0.4053 -0.2458 -0.7218
    5bbb    H15  139   0.778   9.691   2.219 -0.4911 -2.3364 -0.7265
    5bbb    H16  140   0.683   9.613   2.341 -2.6355  0.9484  0.9019
    5bbb     C9  141   0.386  10.083   1.868 -0.1660  0.3610  0.4893
    5bbb    H17  142   0.336  10.043   1.779 -0.0666 -2.0210  1.4044
    5bbb    H18  143   0.491  10.061   1.843 -0.5357 -1.4926  0.3557
    5bbb     O1  144   0.496   9.822   1.495  0.3490  0.3325 -0.0406
    6bbb     N1  145  -0.097  11.072   1.607  1.0381 -0.5790 -0.5813
    6bbb     C1  146  -0.039  11.111   1.734 -0.7636  1.3127  0.2185
    6bbb     H1  147  -0.023  11.028   1.805  5.3451  1.3977 -0.4759
    6bbb     H2  148  -0.113  11.176   1.782  0.3856  3.0585 -0.2734
    6bbb     C2  149  -0.249  11.068   1.623 -0.2167  0.6438 -0.5179
    6bbb     H3  150  -0.293  11.167   1.637  2.0750  1.7411 -0.5843
    6bbb     H4  151  -0.279  10.999   1.702 -1.0896  0.5605 -0.9162
    6bbb     C3  152  -0.023  10.972   1.523 -0.0235  0.1081 -0.0696
    6bbb     H5  153   0.079  11.013   1.514 -0.0073 -0.3553 -2.4769
    6bbb     H6  154  -0.060  10.981   1.420  2.1415 -1.0302 -1.0079
    6bbb     C4  155  -0.022  10.824   1.577 -0.7030 -1.0276 -0.2853
    6bbb     H7  156  -0.126  10.789   1.585 -0.6825 -1.1159 -0.4056
    6bbb     H8  157   0.023  10.833   1.676  1.3255 -0.4473 -1.2213
    6bbb     C5  158   0.096  11.185   1.735  0.0621 -0.1042 -0.4745
    6bbb     H9  159   0.076  11.285   1.694  0.8728  0.4546  0.4669
    6bbb    H10  160   0.167  11.137   1.667 -2.2973 -2.5050 -1.4241
    6bbb     C6  161  -0.318  11.009   1.502  0.2188 -0.1314 -0.5284
    6bbb    H11  162  -0.281  10.913   1.464 -0.8896 -1.1662  0.9219
    6bbb    H12  163  -0.296  11.079   1.420  0.8154 -1.6669 -1.7171
    6bbb     C7  164   0.068  10.737   1.488 -0.2977  0.3063 -0.1304
    6bbb    H13  165   0.172  10.772   1.497  0.2590 -1.0471 -0.9639
    6bbb    H14  166   0.047  10.746   1.381  1.4686  1.1539 -0.4469
    6bbb     C8  167  -0.471  11.003   1.522 -0.2206 -0.7900  0.8506
    6bbb    H15  168  -0.509  10.939   1.603 -1.5667  0.0189  0.8826
    6bbb    H16  169  -0.501  10.963   1.425  2.6521 -0.6819 -0.1897
    6bbb     C9  170   0.160  11.200   1.877 -0.5559  0.5621 -0.0653
    6bbb    H17  171   0.259  11.244   1.864  0.2852 -1.5735 -1.3565
    6bbb    H18  172   0.182  11.102   1.921  1.5592  1.4349  0.9417
    6bbb     O1  173   0.065  10.604   1.538  0.7234 -0.2584 -0.4157
    7bbb     N1  174   1.042   8.882   0.506  0.8398  0.0535 -0.5340
    7bbb     C1  175   1.131   8.821   0.406  0.3260 -0.7256  0.0166
    7bbb     H1  176   1.131   8.713   0.424 -1.0981 -0.3175  3.2876
    7bbb     H2  177   1.237   8.849   0.406  0.5693 -1.6255 -0.4168
    7bbb     C2  178   1.047   9.031   0.508 -0.4372  0.0438  0.1057
    7bbb     H3  179   0.957   9.063   0.563  0.0726  0.1705  0.8846
    7bbb     H4  180   1.044   9.078   0.410 -0.8167 -2.0831 -0.9638
    7bbb     C3  181   1.048   8.835   0.649  0.1247  0.8103 -0.1666
    7bbb     H5  182   0.998   8.910   0.712  3.1265 -0.9691  4.8453
    7bbb     H6  183   1.150   8.848   0.687  0.1391 -1.3562  0.6699
    7bbb     C4  184   0.999   8.690   0.669 -0.7567  0.0847  0.0066
    7bbb     H7  185   1.074   8.621   0.630 -0.2699 -0.0424  1.1564
    7bbb     H8  186   0.912   8.662   0.607 -1.3865  0.5899  0.6411
    7bbb     C5  187   1.077   8.844   0.263  0.0699 -0.5470 -0.4842
    7bbb     H9  188   1.098   8.945   0.225 -2.7381 -0.1006 -1.0366
    7bbb    H10  189   0.968   8.832   0.263 -0.0635  0.3166  1.2056
    7bbb     C6  190   1.179   9.080   0.572 -0.0424 -0.2719 -0.6457
    7bbb    H11  191   1.252   8.998   0.583 -1.1682 -0.9955  2.8183
    7bbb    H12  192   1.160   9.103   0.678 -0.6418 -0.1951 -0.7647
    7bbb     C7  193   0.971   8.653   0.819  0.3263 -0.5262 -0.6620
    7bbb    H13  194   1.065   8.651   0.876  0.5204  1.2451 -0.8487
    7bbb    H14  195   0.926   8.554   0.817 -0.3216 -0.2227 -1.4899
    7bbb     C8  196   1.230   9.209   0.508 -0.5152 -0.4848  0.2477
    7bbb    H15  197   1.320   9.255   0.551  0.4763 -0.9983 -1.2080
    7bbb    H16  198   1.147   9.279   0.521 -0.8279 -0.9826  1.0432
    7bbb     C9  199   1.134   8.748   0.155  0.7014  0.1150  0.6065
    7bbb    H17  200   1.087   8.770   0.058 -0.7040  1.8023  1.6073
    7bbb    H18  201   1.109   8.643   0.171 -0.8007  0.3625  0.0794
    7bbb     O1  202   0.892   8.751   0.879  0.0453 -0.1955 -0.1498
    8bbb     N1  203   0.274   9.271   1.866 -0.0081  0.0585 -0.1528
    8bbb     C1  204   0.171   9.370   1.876  0.3220  0.0691 -0.1282
    8bbb     H1  205   0.156   9.423   1.782  2.8597 -1.1294 -1.2861
    8bbb     H2  206   0.211   9.445   1.946  0.4942 -0.4612  0.3508
    8bbb     C2  207   0.322   9.213   1.989 -0.3939 -0.1643  0.7757
    8bbb     H3  208   0.386   9.126   1.968  2.9969  2.5336 -1.2218
    8bbb     H4  209   0.236   9.175   2.047 -0.0533 -2.4935 -0.1274
    8bbb     C3  210   0.381   9.306   1.769  0.1970  0.3413  0.8672
    8bbb     H5  211   0.449   9.221   1.778 -0.5226 -0.1973  1.3836
    8bbb     H6  212   0.435   9.395   1.803 -0.3816  0.1300  2.4295
    8bbb     C4  213   0.339   9.310   1.610 -0.3587 -0.2139  1.1021
    8bbb     H7  214   0.285   9.405   1.597 -0.4220 -0.1778  1.5934
    8bbb     H8  215   0.266   9.234   1.580  0.8533 -0.2897 -1.9706
    8bbb     C5  216   0.032   9.310   1.918 -0.3950  0.5212  0.5807
    8bbb     H9  217   0.039   9.257   2.013  2.2090  0.8807  0.6692
    8bbb    H10  218  -0.002   9.240   1.841  1.8693 -0.8796  0.7777
    8bbb     C6  219   0.406   9.306   2.079 -0.1899  0.3213  0.6791
    8bbb    H11  220   0.344   9.389   2.116 -0.7084 -0.5667  1.8475
    8bbb    H12  221   0.484   9.349   2.014  0.0173  2.3410  2.1618
    8bbb     C7  222   0.458   9.299   1.515 -0.8590  0.1403  0.5716
    8bbb    H13  223   0.539   9.372   1.529 -0.4777  0.7122 -3.5027
    8bbb    H14  224   0.423   9.325   1.415 -2.1122  2.4266  1.5427
    8bbb     C8  225   0.459   9.232   2.208  0.8206 -0.3367  0.5843
    8bbb    H15  226   0.501   9.140   2.166  0.7859 -1.0180  1.9902
    8bbb    H16  227   0.376   9.207   2.275  0.4985 -0.3152  0.1973
    8bbb     C9  228  -0.076   9.422   1.923  0.4513 -0.0943 -0.0418
    8bbb    H17  229  -0.172   9.379   1.955 -0.4746  1.2116 -0.9614
    8bbb    H18  230  -0.077   9.471   1.825  1.3782  1.0060  0.4802
    8bbb     O1  231   0.510   9.165   1.529  0.2331  0.2132  0.7594
    9bbb     N1  232  -0.481  11.284   1.033 -0.1779 -0.0495  0.1104
    9bbb     C1  233  -0.605  11.304   1.116 -0.2884  0.0619 -0.0726
    9bbb     H1  234  -0.610  11.409   1.147  0.8732  0.0320  0.2630
    9bbb     H2  235  -0.582  11.255   1.212  0.7179  0.4906 -0.0873
    9bbb     C2  236  -0.470  11.385   0.924 -0.8949 -0.3055  0.1292
    9bbb     H3  237  -0.556  11.379   0.857 -1.9144 -2.4600  1.5086
    9bbb     H4  238  -0.378  11.364   0.868 -0.0313  1.6104  0.7110
    9bbb     C3  239  -0.451  11.142   0.990  0.7030 -0.4257 -0.0455
    9bbb     H5  240  -0.355  11.134   0.938  1.6372  1.3484  1.3067
    9bbb     H6  241  -0.535  11.099   0.934  0.0329 -0.0155  0.6276
    9bbb     C4  242  -0.434  11.052   1.116  0.1088 -0.0544  0.2336
    9bbb     H7  243  -0.533  11.011   1.141  0.9957 -0.8059  2.8622
    9bbb     H8  244  -0.409  11.106   1.208  1.4363  0.2203 -0.2646
    9bbb     C5  245  -0.734  11.260   1.050 -0.0247  0.0564 -0.0454
    9bbb     H9  246  -0.739  11.153   1.027 -1.2652  0.0925 -0.0270
    9bbb    H10  247  -0.743  11.313   0.954  1.0434 -1.1360 -0.8450
    9bbb     C6  248  -0.446  11.534   0.966 -0.1036  0.0744 -0.5952
    9bbb    H11  249  -0.363  11.532   1.038 -1.2319 -0.2055  0.7507
    9bbb    H12  250  -0.535  11.577   1.014  0.0356 -0.2089 -0.0752
    9bbb     C7  251  -0.339  10.935   1.084 -0.9368 -0.6020  0.5352
    9bbb    H13  252  -0.236  10.972   1.077 -0.9557 -0.9027 -2.6121
    9bbb    H14  253  -0.373  10.892   0.989  0.4528 -1.8938  0.5867
    9bbb     C8  254  -0.400  11.632   0.855  0.2349  0.3959 -0.2476
    9bbb    H15  255  -0.484  11.630   0.785 -0.8601  1.5395  0.9720
    9bbb    H16  256  -0.313  11.582   0.811 -0.2350 -1.5153  0.8481
    9bbb     C9  257  -0.859  11.294   1.137 -0.0343  0.0545 -0.2897
    9bbb    H17  258  -0.861  11.244   1.235  1.0070 -0.6234 -0.5995
    9bbb    H18  259  -0.948  11.260   1.083  0.3856 -2.1794  0.3219
    9bbb     O1  260  -0.352  10.828   1.188  0.4067  0.0008 -0.1268
   10bbb     N1  261  -0.111  10.294   2.080  0.0836  0.2068 -0.6300
   10bbb     C1  262  -0.067  10.373   2.198  0.4137  0.2636 -0.4538
   10bbb     H1  263  -0.101  10.476   2.182  1.0507  0.2625 -2.0596
   10bbb     H2  264   0.042  10.367   2.210  0.5287 -0.4442 -1.6191
   10bbb     C2  265  -0.047  10.156   2.078  0.0466 -0.1231 -0.4338
   10bbb     H3  266  -0.063  10.109   2.176 -0.1040  0.7493 -0.0259
   10bbb     H4  267   0.061  10.159   2.057  0.3114 -4.2374 -0.2851
   10bbb     C3  268  -0.089  10.364   1.953  0.0241 -0.3378 -0.5456
   10bbb     H5  269  -0.096  10.298   1.866 -0.4135  0.6384 -1.2607
   10bbb     H6  270   0.010  10.412   1.948 -0.3156  0.2009 -3.3929
   10bbb     C4  271  -0.182  10.479   1.939  0.1906 -0.3498  0.7701
   10bbb     H7  272  -0.166  10.572   1.995  1.7310  0.6092 -1.1440
   10bbb     H8  273  -0.283  10.447   1.967 -0.1520  0.3489  0.3701
   10bbb     C5  274  -0.141  10.326   2.324  0.4356  0.1736  0.6705
   10bbb     H9  275  -0.146  10.217   2.335 -1.2862 -0.3903 -3.7473
   10bbb    H10  276  -0.244  10.362   2.316  0.1633 -0.1798  2.1796
   10bbb     C6  277  -0.105  10.054   1.977 -0.7391  0.2695 -0.1470
   10bbb    H11  278  -0.060   9.956   1.999 -2.3493 -0.3253  0.6363
   10bbb    H12  279  -0.084  10.084   1.873  0.7277 -3.4181 -1.0612
   10bbb     C7  280  -0.190  10.522   1.786 -0.3118  0.4434 -0.6655
   10bbb    H13  281  -0.090  10.519   1.742 -0.5963 -0.3224 -1.2797
   10bbb    H14  282  -0.231  10.624   1.784 -0.4368  0.4619  1.3095
   10bbb     C8  283  -0.257  10.046   1.995  0.0558 -0.0230  0.1651
   10bbb    H15  284  -0.303  10.143   1.976  0.0594  0.0263  0.3971
   10bbb    H16  285  -0.279  10.015   2.098  1.0498 -0.7695  0.1780
   10bbb     C9  286  -0.076  10.380   2.456  0.5218  0.4332 -0.3904
   10bbb    H17  287   0.033  10.367   2.451  0.8167  2.4442  0.1552
   10bbb    H18  288  -0.118  10.336   2.547  1.6032  0.7231  0.2716
   10bbb     O1  289  -0.282  10.422   1.723 -0.4711  0.3038  0.0265
   11bbb     N1  290   0.835  10.087   2.635 -0.2494 -0.0495  0.4990
   11bbb     C1  291   0.795  10.216   2.572 -0.9121  0.4077  0.1659
   11bbb     H1  292   0.687  10.208   2.553 -0.6037 -1.2604 -1.0859
   11bbb     H2  293   0.857  10.237   2.485 -2.7435  1.4144 -0.9694
   11bbb     C2  294   0.981  10.078   2.666 -0.0180  0.2149  0.2294
   11bbb     H3  295   0.995   9.972   2.691  0.3907 -0.4416 -2.4594
   11bbb     H4  296   1.013  10.144   2.748  0.0239  0.9709 -0.3867
   11bbb     C3  297   0.795   9.969   2.550 -0.3483 -1.0712 -0.8607
   11bbb     H5  298   0.842   9.875   2.580 -0.8239 -0.7815  0.9288
   11bbb     H6  299   0.835   9.985   2.450 -2.7833 -0.0036 -1.7359
   11bbb     C4  300   0.641   9.951   2.549 -0.1024 -0.1657 -0.1216
   11bbb     H7  301   0.588  10.044   2.526 -0.8780 -0.4104  0.6367
   11bbb     H8  302   0.605   9.931   2.651  2.0956  0.9178  0.9434
   11bbb     C5  303   0.813  10.333   2.674  0.0830 -0.0402  0.2007
   11bbb     H9  304   0.921  10.354   2.670  0.0337  0.0625 -1.0079
   11bbb    H10  305   0.789  10.288   2.772 -0.2004 -0.4734 -0.0633
   11bbb     C6  306   1.087  10.108   2.556  0.4344  0.5792  1.2931
   11bbb    H11  307   1.079  10.213   2.526  0.8886  0.6801  1.5287
   11bbb    H12  308   1.071  10.042   2.469  2.4825  0.7884  0.7018
   11bbb     C7  309   0.608   9.818   2.474 -0.2442  0.7507  0.1617
   11bbb    H13  310   0.500   9.802   2.471  0.0293 -1.2429 -2.0483
   11bbb    H14  311   0.658   9.733   2.522  1.8180  2.0314  0.4204
   11bbb     C8  312   1.235  10.078   2.602  0.2508 -0.0050  0.0610
   11bbb    H15  313   1.271  10.158   2.669  2.0390  1.1673 -2.1592
   11bbb    H16  314   1.298  10.073   2.513  0.8778 -2.4806  0.5747
   11bbb     C9  315   0.725  10.461   2.637 -0.1394 -0.1303  0.0321
   11bbb    H17  316   0.731  10.537   2.716 -0.7441  2.5102 -2.3245
   11bbb    H18  317   0.618  10.435   2.632 -0.1184  0.0178 -1.5637
   11bbb     O1  318   0.668   9.822   2.343 -0.4672  0.5660 -0.3204
   12bbb     N1  319   0.328  10.665   1.909 -0.3417 -0.4411 -0.1762
   12bbb     C1  320   0.197  10.668   1.986 -0.3989 -0.0052  0.7788
   12bbb     H1  321   0.128  10.599   1.934 -1.1214  0.6166  0.8938
   12bbb     H2  322   0.155  10.769   1.996  1.8581  0.8384  2.3013
   12bbb     C2  323   0.327  10.758   1.791  0.0016  0.0560  0.1517
   12bbb     H3  324   0.260  10.842   1.809  0.9182  0.6619  0.8251
   12bbb     H4  325   0.281  10.706   1.706  0.6523  0.4673 -0.4675
   12bbb     C3  326   0.395  10.532   1.889 -0.5962 -0.9496 -0.1865
   12bbb     H5  327   0.397  10.483   1.988 -0.6916  0.4761  0.5563
   12bbb     H6  328   0.490  10.557   1.840 -0.1589  0.1007  1.1275
   12bbb     C4  329   0.319  10.445   1.794  0.0990 -0.2508 -0.7159
   12bbb     H7  330   0.328  10.481   1.691 -1.3435 -1.8918 -1.4715
   12bbb     H8  331   0.216  10.427   1.826  0.3560 -1.3337 -0.4426
   12bbb     C5  332   0.208  10.607   2.133  0.2556  0.5418  0.1973
   12bbb     H9  333   0.189  10.499   2.132  0.5117  0.4320  2.2675
   12bbb    H10  334   0.119  10.652   2.179  0.3234  1.2938 -0.3969
   12bbb     C6  335   0.464  10.811   1.745 -0.2804 -0.6233  1.0105
   12bbb    H11  336   0.531  10.734   1.705  0.1997  0.4857 -0.3864
   12bbb    H12  337   0.520  10.847   1.833 -1.2555 -0.6289  1.6430
   12bbb     C7  338   0.375  10.302   1.770 -0.0970  0.5569 -0.0868
   12bbb    H13  339   0.476  10.310   1.729  0.4707  2.7060  1.5487
   12bbb    H14  340   0.317  10.258   1.687  1.0202  2.5925 -2.0652
   12bbb     C8  341   0.470  10.934   1.654  0.0776 -0.0523 -0.7098
   12bbb    H15  342   0.571  10.961   1.623  0.5202  1.0439  1.4803
   12bbb    H16  343   0.431  11.015   1.716 -2.0360 -2.0931  0.8291
   12bbb     C9  344   0.325  10.650   2.223  0.1904  0.5054  0.0347
   12bbb    H17  345   0.355  10.754   2.203  0.3505  0.4135 -0.2058
   12bbb    H18  346   0.409  10.590   2.186  0.2930  1.7461 -1.8722
   12bbb     O1  347   0.367  10.220   1.893  0.3665 -0.0916 -0.1112
   13bbb     N1  348  -0.772  11.489   1.634 -0.0556 -0.2772 -0.2823
   13bbb     C1  349  -0.727  11.588   1.528 -0.1016 -1.0504 -0.2934
   13bbb     H1  350  -0.795  11.674   1.517  2.0801  0.9320  0.6298
   13bbb     H2  351  -0.744  11.528   1.438 -0.4635 -3.1363  1.1001
   13bbb     C2  352  -0.757  11.546   1.770 -0.2282 -0.6928  0.5779
   13bbb     H3  353  -0.652  11.560   1.800 -0.6880 -0.4885  2.2152
   13bbb     H4  354  -0.798  11.480   1.848  2.0253  0.8350  3.2557
   13bbb     C3  355  -0.709  11.351   1.629 -0.5872 -0.4152 -0.2784
   13bbb     H5  356  -0.770  11.296   1.702  0.4844  0.2338  1.1847
   13bbb     H6  357  -0.606  11.352   1.667 -0.9655  0.9006  0.8019
   13bbb     C4  358  -0.730  11.278   1.493 -0.1768 -0.0363 -0.6738
   13bbb     H7  359  -0.689  11.336   1.409 -2.7001  0.4061 -1.6930
   13bbb     H8  360  -0.838  11.267   1.473  0.4407 -3.2447 -3.2587
   13bbb     C5  361  -0.580  11.643   1.528 -0.1313 -0.0009  0.7315
   13bbb     H9  362  -0.516  11.578   1.588  1.5827  2.4996  1.7645
   13bbb    H10  363  -0.584  11.731   1.594 -1.1648 -0.2648  1.0424
   13bbb     C6  364  -0.836  11.678   1.790 -0.0962 -0.3601 -0.0872
   13bbb    H11  365  -0.933  11.668   1.741  0.5227 -0.4228 -1.3542
   13bbb    H12  366  -0.787  11.760   1.735 -2.1302  2.0680  1.4903
   13bbb     C7  367  -0.657  11.136   1.490  0.0447  0.2814  1.0324
   13bbb    H13  368  -0.667  11.101   1.387 -1.0686 -3.2004  2.1825
   13bbb    H14  369  -0.724  11.073   1.549 -2.2328 -0.1872 -1.8590
   13bbb     C8  370  -0.843  11.729   1.934 -0.2443  0.1666  1.0243
   13bbb    H15  371  -0.740  11.734   1.973  0.3001 -2.6897  0.1927
   13bbb    H16  372  -0.894  11.656   1.998 -0.2531 -1.5373 -0.8171
   13bbb     C9  373  -0.523  11.697   1.389  1.2914 -0.2876  0.0118
   13bbb    H17  374  -0.497  11.606   1.333  0.6555 -0.6290  0.2631
   13bbb    H18  375  -0.433  11.757   1.407  0.5523  1.7771 -2.5725
   13bbb     O1  376  -0.523  11.138   1.530  0.3737  0.1958  0.4160
   14bbb     N1  377  -0.231  11.541   1.992 -0.7196 -0.5385 -0.6105
   14bbb     C1  378  -0.312  11.420   2.025 -0.1228  0.2894  0.0505
   14bbb     H1  379  -0.399  11.436   2.090 -1.3827 -1.1884 -1.1815
   14bbb     H2  380  -0.266  11.343   2.088 -3.4504 -0.9463  1.1928
   14bbb     C2  381  -0.315  11.663   1.969 -0.4467  0.5742 -0.1776
   14bbb     H3  382  -0.373  11.658   1.876  1.0575 -0.4887 -1.1011
   14bbb     H4  383  -0.248  11.749   1.953  0.1712 -0.4104 -3.4741
   14bbb     C3  384  -0.115  11.570   2.084 -0.4177  0.3480 -0.0473
   14bbb     H5  385  -0.148  11.593   2.186 -0.6024 -1.2864  0.2857
   14bbb     H6  386  -0.062  11.659   2.047  0.4715 -0.1893 -0.0908
   14bbb     C4  387  -0.013  11.453   2.097 -0.5294  0.0961 -0.0431
   14bbb     H7  388  -0.062  11.362   2.134  0.5078 -0.0750  0.9715
   14bbb     H8  389   0.066  11.481   2.168 -1.1059  2.0618 -0.1350
   14bbb     C5  390  -0.368  11.351   1.898  0.1190 -0.8334  0.7572
   14bbb     H9  391  -0.286  11.314   1.834 -1.8974 -3.2807 -0.5800
   14bbb    H10  392  -0.420  11.433   1.847  3.9126  1.7085  0.5141
   14bbb     C6  393  -0.418  11.701   2.077 -0.8138 -0.1551 -0.5196
   14bbb    H11  394  -0.368  11.681   2.173 -0.8380  0.7248 -0.3098
   14bbb    H12  395  -0.506  11.636   2.083 -0.7043 -0.1772  1.9621
   14bbb     C7  396   0.068  11.405   1.968  0.5454 -0.2181 -0.5434
   14bbb    H13  397   0.165  11.455   1.975  1.0561 -1.0962 -1.1687
   14bbb    H14  398   0.015  11.440   1.879  0.3581 -0.9868 -0.7406
   14bbb     C8  399  -0.451  11.850   2.072 -0.5305 -0.6837  0.4199
   14bbb    H15  400  -0.358  11.905   2.094 -0.8875 -0.9311  2.7301
   14bbb    H16  401  -0.519  11.881   2.152  0.1890  0.3319  0.6598
   14bbb     C9  402  -0.466  11.240   1.940  0.6084 -0.0999 -0.6924
   14bbb    H17  403  -0.419  11.168   2.007 -1.9244 -0.0144  1.3593
   14bbb    H18  404  -0.502  11.187   1.851  2.9694 -2.1301 -0.5306
   14bbb     O1  405   0.081  11.259   1.979 -0.9162 -0.0652 -0.1044
   15bbb     N1  406   1.379   9.314  -0.085 -0.2475  0.0354 -0.3619
   15bbb     C1  407   1.487   9.222  -0.118 -0.8048  0.4382 -0.1130
   15bbb     H1  408   1.481   9.174  -0.217  0.5932 -2.0297  0.9054
   15bbb     H2  409   1.504   9.150  -0.037  0.6616 -1.3683 -1.9452
   15bbb     C2  410   1.249   9.268  -0.143 -0.8580 -0.3186  0.3902
   15bbb     H3  411   1.170   9.340  -0.118 -1.6227 -1.3493  1.0317
   15bbb     H4  412   1.223   9.167  -0.108  0.2745 -0.7154  0.1518
   15bbb     C3  413   1.350   9.360   0.049 -0.0007  0.0849 -0.5136
   15bbb     H5  414   1.257   9.417   0.062 -0.8692 -1.3556 -0.1633
   15bbb     H6  415   1.436   9.413   0.092  0.8519 -1.4191 -0.2576
   15bbb     C4  416   1.326   9.237   0.147 -0.0896  0.1178 -0.3483
   15bbb     H7  417   1.425   9.191   0.156  0.1534  0.9511  2.3048
   15bbb     H8  418   1.246   9.173   0.108  0.0985 -1.2469  1.3799
   15bbb     C5  419   1.614   9.314  -0.122  0.3012  0.5385  0.2921
   15bbb     H9  420   1.633   9.362  -0.025  0.8002 -1.5218  1.2714
   15bbb    H10  421   1.594   9.395  -0.194 -0.2731  0.3238  0.2089
   15bbb     C6  422   1.257   9.273  -0.297 -0.4555 -0.1932 -0.4046
   15bbb    H11  423   1.316   9.185  -0.325 -0.3652 -0.4914  0.6755
   15bbb    H12  424   1.312   9.363  -0.330  1.0146 -0.8204  0.2706
   15bbb     C7  425   1.294   9.292   0.291  0.3210  0.3382  0.7274
   15bbb    H13  426   1.204   9.354   0.291 -1.9901 -2.8059  0.2263
   15bbb    H14  427   1.385   9.344   0.326  0.4174 -0.6129  1.9860
   15bbb     C8  428   1.118   9.269  -0.362 -0.3931 -0.0489  0.0926
   15bbb    H15  429   1.136   9.276  -0.470  3.1885  2.0496  0.6683
   15bbb    H16  430   1.053   9.353  -0.334  0.0413  0.1353  0.5622
   15bbb     C9  431   1.741   9.232  -0.155 -0.0546  0.2762 -0.4147
   15bbb    H17  432   1.821   9.306  -0.163 -0.3008  0.4093 -2.1216
   15bbb    H18  433   1.723   9.205  -0.260 -2.7828  0.4424 -0.0680
   15bbb     O1  434   1.258   9.184   0.367  0.3891  0.2449 -0.2091
   16bbb     N1  435   1.348   8.769  -0.267 -0.0432  0.4519  0.3641
   16bbb     C1  436   1.205   8.725  -0.288 -0.4003  0.6696  0.1586
   16bbb     H1  437   1.207   8.713  -0.397  2.6646 -0.7938  0.2887
   16bbb     H2  438   1.128   8.800  -0.267  0.0466  1.2239 -0.1360
   16bbb     C2  439   1.393   8.881  -0.362  0.3566  0.3134  0.1735
   16bbb     H3  440   1.335   8.973  -0.349 -3.7224 -2.0462  0.1947
   16bbb     H4  441   1.364   8.835  -0.457  1.9390 -2.6762  1.0234
   16bbb     C3  442   1.389   8.779  -0.126 -0.0640  0.0336 -0.1202
   16bbb     H5  443   1.498   8.789  -0.119  0.0049 -0.3614 -0.5193
   16bbb     H6  444   1.375   8.679  -0.082  2.9177 -1.3270 -1.9331
   16bbb     C4  445   1.312   8.893  -0.047  0.2895 -0.3973 -0.1634
   16bbb     H7  446   1.205   8.893  -0.072  0.0811 -1.9265  0.5828
   16bbb     H8  447   1.344   8.994  -0.073  0.1761 -0.7559 -1.7771
   16bbb     C5  448   1.165   8.597  -0.211  0.3571  0.7057 -0.6903
   16bbb     H9  449   1.160   8.608  -0.102 -1.5181 -2.0793 -0.3819
   16bbb    H10  450   1.237   8.514  -0.224  0.1065  0.3725 -0.0121
   16bbb     C6  451   1.544   8.903  -0.350 -0.5763  0.3107  0.5890
   16bbb    H11  452   1.599   8.808  -0.341 -0.0014  0.6674  0.8676
   16bbb    H12  453   1.571   8.956  -0.257  4.2723 -2.4384  1.1121
   16bbb     C7  454   1.333   8.877   0.101 -0.5321 -0.1100  0.0132
   16bbb    H13  455   1.311   8.965   0.163  2.3260  0.0155  0.9842
   16bbb    H14  456   1.442   8.870   0.111 -0.7336 -0.9797  2.2022
   16bbb     C8  457   1.603   8.974  -0.479 -0.3518  0.3386  0.4438
   16bbb    H15  458   1.575   8.922  -0.572  3.2363 -0.7045 -0.2169
   16bbb    H16  459   1.712   8.980  -0.469 -0.4412  1.2439  0.9887
   16bbb     C9  460   1.028   8.542  -0.242 -0.2902 -0.0066  0.1877
   16bbb    H17  461   1.037   8.528  -0.350  0.8702  1.1719  0.1088
   16bbb    H18  462   0.954   8.618  -0.212  1.1008  1.6623 -0.4921
   16bbb     O1  463   1.275   8.751   0.148  0.1319 -0.1983  0.0496
   17bbb     N1  464   0.883   9.506   2.480  0.1207  0.1850 -0.2508
   17bbb     C1  465   1.006   9.567   2.406 -0.2119 -0.3477  0.2647
   17bbb     H1  466   0.990   9.561   2.298 -2.4841 -1.5444  0.6034
   17bbb     H2  467   1.094   9.504   2.425 -0.4324 -0.1979  1.9707
   17bbb     C2  468   0.897   9.492   2.631 -0.0915 -0.2693 -0.1511
   17bbb     H3  469   0.800   9.472   2.680 -0.2326  2.0713  0.6239
   17bbb     H4  470   0.941   9.581   2.676 -0.5683  0.2074 -0.6073
   17bbb     C3  471   0.816   9.389   2.414 -0.2553 -0.5774 -0.3935
   17bbb     H5  472   0.875   9.297   2.416 -1.3921 -1.3978 -1.7602
   17bbb     H6  473   0.800   9.418   2.309 -1.3009  0.1302 -0.0500
   17bbb     C4  474   0.682   9.351   2.476  0.9104 -0.4407 -0.4937
   17bbb     H7  475   0.621   9.440   2.491 -0.3819 -1.3454 -0.2398
   17bbb     H8  476   0.697   9.313   2.578  0.2071 -0.8913 -0.5503
   17bbb     C5  477   1.034   9.714   2.430  0.0795  0.0913  0.2061
   17bbb     H9  478   1.043   9.742   2.536 -0.9575 -0.0019  0.3286
   17bbb    H10  479   0.946   9.773   2.403 -0.9325 -0.7250  1.5896
   17bbb     C6  480   1.002   9.379   2.663  0.7796  0.3802 -0.3007
   17bbb    H11  481   1.100   9.408   2.623  0.9920  2.1490  1.3494
   17bbb    H12  482   0.973   9.291   2.605  0.2587 -0.5604  1.3294
   17bbb     C7  483   0.603   9.247   2.394 -0.2389 -0.4779  0.1987
   17bbb    H13  484   0.517   9.223   2.457  0.0539  0.0373  0.8073
   17bbb    H14  485   0.664   9.158   2.374 -1.5474 -0.7336 -3.3133
   17bbb     C8  486   1.003   9.328   2.808  0.7084  0.3518 -0.1018
   17bbb    H15  487   1.024   9.417   2.868  1.0903  0.2708 -0.1175
   17bbb    H16  488   1.083   9.255   2.823  3.7902  3.3587 -0.8471
   17bbb     C9  489   1.154   9.768   2.338 -0.0291  0.0411  0.5424
   17bbb    H17  490   1.239   9.711   2.377 -0.7942 -1.8856 -0.4408
   17bbb    H18  491   1.183   9.869   2.369  0.6010  0.5214 -1.4886
   17bbb     O1  492   0.556   9.309   2.276 -0.1056  0.0136 -0.2435
   18bbb     N1  493   0.092   9.798   2.309  0.7499 -0.2847  0.2195
   18bbb     C1  494   0.197   9.904   2.293  0.4750 -0.1584  0.1926
   18bbb     H1  495   0.164   9.969   2.210 -2.8496 -0.8523  0.8193
   18bbb     H2  496   0.291   9.864   2.255  1.1830  1.5545  0.0158
   18bbb     C2  497   0.109   9.704   2.421 -0.0359  0.3371  0.0942
   18bbb     H3  498   0.029   9.630   2.430  1.7062 -1.9962 -2.1309
   18bbb     H4  499   0.108   9.763   2.514 -0.9605 -0.3107  0.5100
   18bbb     C3  500   0.044   9.735   2.179 -1.3159  0.0085  0.0756
   18bbb     H5  501   0.112   9.651   2.156 -2.8114 -1.2336  0.0203
   18bbb     H6  502   0.059   9.809   2.099 -1.1318 -0.9517 -0.8015
   18bbb     C4  503  -0.097   9.680   2.173  0.6385 -0.1860  0.2438
   18bbb     H7  504  -0.173   9.753   2.206 -0.2751 -2.2506  3.1352
   18bbb     H8  505  -0.098   9.601   2.250 -0.1147  0.4176  0.8846
   18bbb     C5  506   0.223   9.983   2.423  0.5191 -0.2893 -0.3243
   18bbb     H9  507   0.284   9.919   2.488 -2.3780 -2.3948  0.4839
   18bbb    H10  508   0.128  10.002   2.473  0.8114  0.3614 -0.0017
   18bbb     C6  509   0.240   9.624   2.404  0.2066  0.5346  0.5883
   18bbb    H11  510   0.325   9.685   2.371  1.7443 -1.9626 -0.2460
   18bbb    H12  511   0.223   9.552   2.324  2.6596 -0.6243  1.0179
   18bbb     C7  512  -0.136   9.624   2.035 -0.1022 -0.2517 -0.1637
   18bbb    H13  513  -0.142   9.707   1.964 -1.3609  1.3907  1.7426
   18bbb    H14  514  -0.237   9.584   2.047 -0.1623  0.1553  0.8948
   18bbb     C8  515   0.293   9.539   2.523  0.3138 -0.3482 -0.0721
   18bbb    H15  516   0.369   9.468   2.488  0.1576 -0.5005 -0.1041
   18bbb    H16  517   0.212   9.483   2.572 -1.4420  2.0954  0.0303
   18bbb     C9  518   0.297  10.123   2.406 -0.1237  0.5529 -1.0358
   18bbb    H17  519   0.318  10.178   2.499  2.4200 -0.5087 -0.9085
   18bbb    H18  520   0.227  10.184   2.346 -2.4004  0.1404  1.0542
   18bbb     O1  521  -0.037   9.528   2.012  0.5095 -0.2488  0.2856
   19bbb     N1  522  -0.271  12.170   0.982 -0.4496  0.2436  0.5239
   19bbb     C1  523  -0.251  12.286   0.891 -0.3018  0.6260 -0.3091
   19bbb     H1  524  -0.162  12.278   0.828 -1.8314 -0.4196 -2.4557
   19bbb     H2  525  -0.235  12.366   0.964 -1.0713 -1.1027  1.8532
   19bbb     C2  526  -0.153  12.154   1.074 -0.1274  0.5489  0.4242
   19bbb     H3  527  -0.141  12.252   1.122  1.1738  0.5286  0.1799
   19bbb     H4  528  -0.061  12.129   1.020 -0.2517  0.5268  0.2225
   19bbb     C3  529  -0.336  12.046   0.939  0.5968  0.5741  0.3609
   19bbb     H5  530  -0.437  12.065   0.902  0.0655 -1.4279  0.6253
   19bbb     H6  531  -0.346  11.980   1.027  0.2374 -1.4462 -1.1228
   19bbb     C4  532  -0.259  11.966   0.832 -0.0801  0.3106 -0.0640
   19bbb     H7  533  -0.171  11.927   0.884  0.8300  1.4674 -0.6686
   19bbb     H8  534  -0.230  12.030   0.747 -0.0952  0.8298  0.3159
   19bbb     C5  535  -0.381  12.317   0.804  0.2270  0.6074 -0.1687
   19bbb     H9  536  -0.468  12.325   0.870  0.4684  1.4036  0.0531
   19bbb    H10  537  -0.403  12.226   0.747  1.6252 -0.1577  0.4441
   19bbb     C6  538  -0.180  12.045   1.186  0.1825 -0.9125 -0.3966
   19bbb    H11  539  -0.191  11.945   1.143  0.3891 -1.1062 -0.0069
   19bbb    H12  540  -0.266  12.075   1.246  1.7051 -2.5928  2.8826
   19bbb     C7  541  -0.346  11.846   0.784  0.0479 -0.2126  0.0576
   19bbb    H13  542  -0.297  11.779   0.712  0.9585 -0.5267  0.9234
   19bbb    H14  543  -0.439  11.882   0.740 -0.2243 -0.2971  0.5464
   19bbb     C8  544  -0.056  12.034   1.281  0.8318 -0.0440 -0.5420
   19bbb    H15  545   0.028  12.000   1.221  0.2162 -2.3947 -0.1623
   19bbb    H16  546  -0.066  11.955   1.357  0.7737  0.8377  0.3938
   19bbb     C9  547  -0.373  12.445   0.716 -0.0260  0.2062  0.4225
   19bbb    H17  548  -0.466  12.461   0.660  0.8735 -0.6835 -1.4292
   19bbb    H18  549  -0.287  12.440   0.648 -1.0235  1.1977 -0.9988
   19bbb     O1  550  -0.375  11.765   0.896  0.1731 -0.5495 -0.4534
   20bbb     N1  551  -1.117  11.834   1.317 -0.3183 -1.4159 -0.2536
   20bbb     C1  552  -1.018  11.895   1.405  0.1742  0.1423 -0.1290
   20bbb     H1  553  -0.926  11.836   1.404  0.1029 -0.0131 -2.3323
   20bbb     H2  554  -1.065  11.895   1.504  0.6092 -1.6009  0.1151
   20bbb     C2  555  -1.254  11.896   1.332  0.2149 -0.3435  0.1416
   20bbb     H3  556  -1.247  12.004   1.349 -0.2979 -0.3020  0.0853
   20bbb     H4  557  -1.306  11.848   1.415  0.2733 -1.0755 -0.2319
   20bbb     C3  558  -1.107  11.685   1.324  0.3209  0.1584 -0.2169
   20bbb     H5  559  -1.198  11.647   1.275  0.8156  0.7714 -1.6573
   20bbb     H6  560  -1.110  11.646   1.426  1.6478 -3.1626 -1.3010
   20bbb     C4  561  -0.983  11.625   1.257  0.3314  0.0946  0.8182
   20bbb     H7  562  -0.890  11.657   1.306  1.1764 -0.9666 -0.0485
   20bbb     H8  563  -0.982  11.689   1.167  1.5560 -2.2914 -0.9673
   20bbb     C5  564  -0.980  12.037   1.368  0.6609  0.3410  0.1190
   20bbb     H9  565  -1.061  12.106   1.394  0.6156  0.7930 -1.1340
   20bbb    H10  566  -0.980  12.036   1.258  1.6947  0.8159  0.0993
   20bbb     C6  567  -1.335  11.867   1.198  0.0824 -0.2692  0.2563
   20bbb    H11  568  -1.440  11.890   1.217  1.0201  3.6106  1.7439
   20bbb    H12  569  -1.329  11.761   1.170 -0.7658 -0.1886 -0.2572
   20bbb     C7  570  -0.999  11.473   1.221  0.7076 -0.1954  0.1722
   20bbb    H13  571  -1.086  11.456   1.155 -0.8665  0.3596  2.0179
   20bbb    H14  572  -1.006  11.417   1.315  3.5331 -0.8461  0.0633
   20bbb     C8  573  -1.291  11.969   1.093 -0.2077  0.3761  0.4023
   20bbb    H15  574  -1.324  11.928   0.997 -1.3551  0.7251  0.6228
   20bbb    H16  575  -1.182  11.978   1.087 -0.2074  2.1521  2.1802
   20bbb     C9  576  -0.847  12.089   1.421  0.3710 -0.1100  0.1528
   20bbb    H17  577  -0.762  12.036   1.376  1.3511  1.5541 -0.0328
   20bbb    H18  578  -0.843  12.078   1.530 -1.1124  0.3922  0.2823
   20bbb     O1  579  -0.875  11.437   1.148  0.0401  0.2556  0.7564
   21bbb     N1  580  -0.507   9.805   1.547  0.2212 -0.0111 -0.0373
   21bbb     C1  581  -0.450   9.856   1.424  0.2241  0.4540 -0.2194
   21bbb     H1  582  -0.341   9.847   1.432  0.5548  3.0576 -0.8957
   21bbb     H2  583  -0.461   9.965   1.424  0.3539  0.4694 -0.0127
   21bbb     C2  584  -0.505   9.650   1.546 -0.2532  0.2627  0.5391
   21bbb     H3  585  -0.565   9.613   1.462 -1.1100  3.3643 -0.3472
   21bbb     H4  586  -0.551   9.606   1.635 -1.0352 -0.4069 -0.1795
   21bbb     C3  587  -0.444   9.874   1.658  0.1744  0.3059  0.4798
   21bbb     H5  588  -0.475   9.979   1.659 -2.1009 -0.3245  1.2557
   21bbb     H6  589  -0.335   9.860   1.661 -0.2143 -3.7173  1.1169
   21bbb     C4  590  -0.489   9.822   1.796  0.1681 -0.2078  0.0874
   21bbb     H7  591  -0.456   9.719   1.815  0.9064 -0.3592 -1.7352
   21bbb     H8  592  -0.597   9.831   1.807  0.1122  0.6965 -1.0344
   21bbb     C5  593  -0.494   9.799   1.286 -0.2734  0.1157  0.7209
   21bbb     H9  594  -0.603   9.790   1.278 -0.1641 -0.7355  0.0661
   21bbb    H10  595  -0.460   9.695   1.278  1.5896  0.7347  0.0019
   21bbb     C6  596  -0.364   9.593   1.551 -0.0866  0.3032 -0.7504
   21bbb    H11  597  -0.311   9.647   1.630 -0.3576  2.2957 -1.8624
   21bbb    H12  598  -0.311   9.612   1.456  0.5730 -0.1931 -0.4935
   21bbb     C7  599  -0.444   9.915   1.911 -0.6476  0.1443 -0.1113
   21bbb    H13  600  -0.459   9.860   2.005  0.4044  1.7876  1.0761
   21bbb    H14  601  -0.506  10.006   1.918  1.0355  1.3128  0.1637
   21bbb     C8  602  -0.359   9.440   1.576  0.2178 -0.0852 -0.2486
   21bbb    H15  603  -0.413   9.385   1.498  1.1472 -1.3551 -0.0360
   21bbb    H16  604  -0.413   9.422   1.670 -1.8753 -0.8567 -1.5350
   21bbb     C9  605  -0.430   9.874   1.165 -0.1745  0.2694  0.0415
   21bbb    H17  606  -0.324   9.891   1.188 -0.1384 -0.6606  0.6227
   21bbb    H18  607  -0.479   9.972   1.154 -0.6015  0.4502  2.7584
   21bbb     O1  608  -0.302   9.946   1.897  0.0512  0.2640 -1.0570
   22bbb     N1  609  -0.047  10.935   2.335  0.2926  0.1801 -0.0002
   22bbb     C1  610  -0.015  10.963   2.197 -1.0578 -0.9197 -0.4640
   22bbb     H1  611   0.093  10.947   2.188 -1.0201 -0.7887 -0.2675
   22bbb     H2  612  -0.044  11.068   2.183  3.3893  0.5027 -0.4076
   22bbb     C2  613   0.021  11.035   2.426 -0.3903  0.0220 -0.1195
   22bbb     H3  614   0.129  11.012   2.423 -0.7275 -1.6073 -0.5706
   22bbb     H4  615  -0.013  11.018   2.529 -1.1211  1.6055 -0.0756
   22bbb     C3  616  -0.019  10.791   2.368  0.0860  0.2772  0.4599
   22bbb     H5  617   0.089  10.771   2.365  0.1419  0.7240 -0.8380
   22bbb     H6  618  -0.073  10.718   2.307 -0.4717 -0.9868  2.3804
   22bbb     C4  619  -0.050  10.748   2.516 -0.2014  0.0443  0.0615
   22bbb     H7  620  -0.150  10.779   2.549  0.3033  1.6650  0.1252
   22bbb     H8  621   0.016  10.801   2.586  0.8513  1.6932 -2.0731
   22bbb     C5  622  -0.071  10.873   2.090  0.1529  0.7051 -0.1629
   22bbb     H9  623  -0.052  10.766   2.103  2.8455  1.2378  1.0033
   22bbb    H10  624  -0.018  10.908   2.000 -0.3445  2.1097  0.0757
   22bbb     C6  625  -0.011  11.187   2.403  0.0679  0.0593  0.1849
   22bbb    H11  626   0.038  11.234   2.317  0.1013  0.6463  0.5208
   22bbb    H12  627   0.030  11.245   2.486  0.5791 -2.4044  1.7914
   22bbb     C7  628  -0.031  10.601   2.548 -0.4662 -0.6995 -0.5625
   22bbb    H13  629  -0.051  10.591   2.655  3.3277 -0.7604  0.2723
   22bbb    H14  630   0.075  10.579   2.530 -0.8466 -1.1056 -2.5565
   22bbb     C8  631  -0.163  11.206   2.387 -0.3509 -0.0008  0.1316
   22bbb    H15  632  -0.227  11.144   2.451  0.5294 -0.3675  0.6784
   22bbb    H16  633  -0.193  11.194   2.282  0.6957 -0.2772 -0.1419
   22bbb     C9  634  -0.221  10.906   2.072 -0.1142  0.3039  0.2139
   22bbb    H17  635  -0.224  11.011   2.040 -0.2251  0.3546  0.3904
   22bbb    H18  636  -0.272  10.882   2.166 -0.1845 -1.7558 -0.2969
   22bbb     O1  637  -0.110  10.520   2.461 -0.4064 -0.1397  0.3338
   23bbb     N1  638   1.458   9.558   2.832  0.5540 -0.1481  0.0730
   23bbb     C1  639   1.588   9.491   2.857 -0.8217 -0.2638  0.1285
   23bbb     H1  640   1.611   9.475   2.963  2.2504  2.8870  0.1007
   23bbb     H2  641   1.664   9.562   2.822 -0.0245 -1.1571  0.0195
   23bbb     C2  642   1.345   9.464   2.836  0.6215 -0.1031  0.6394
   23bbb     H3  643   1.350   9.394   2.752  1.7295  0.7224 -0.0103
   23bbb     H4  644   1.250   9.513   2.815  1.4517  0.7622 -1.3465
   23bbb     C3  645   1.461   9.649   2.716 -0.1674  0.1703 -0.1589
   23bbb     H5  646   1.468   9.585   2.627  0.7017 -0.2608  0.2113
   23bbb     H6  647   1.540   9.726   2.716 -0.4098  0.4256  0.3583
   23bbb     C4  648   1.338   9.738   2.708 -0.0535 -0.2240  0.0526
   23bbb     H7  649   1.279   9.724   2.800  1.9354 -0.9850  1.2747
   23bbb     H8  650   1.267   9.704   2.632  0.2586  0.1384 -0.4033
   23bbb     C5  651   1.611   9.361   2.782  0.0694  0.0849 -0.3355
   23bbb     H9  652   1.571   9.373   2.681 -1.7514 -1.1623  0.1800
   23bbb    H10  653   1.554   9.281   2.831  0.1852  0.4382  0.3857
   23bbb     C6  654   1.343   9.391   2.976  0.4475  0.3557  0.2524
   23bbb    H11  655   1.434   9.335   3.002  0.0370 -0.2878  0.3450
   23bbb    H12  656   1.257   9.322   2.975 -1.0495  2.1447  0.4835
   23bbb     C7  657   1.361   9.887   2.687 -0.3792  0.3345  0.2924
   23bbb    H13  658   1.432   9.899   2.603 -1.3180 -2.1942 -0.9642
   23bbb    H14  659   1.398   9.937   2.777  0.1248 -1.4294  1.1021
   23bbb     C8  660   1.338   9.505   3.081  0.6770  0.7366  0.1827
   23bbb    H15  661   1.244   9.556   3.056 -0.5012 -0.3818  2.0461
   23bbb    H16  662   1.426   9.571   3.077  1.7926 -0.6303  1.1002
   23bbb     C9  663   1.763   9.325   2.791 -0.1265 -0.5862 -0.0831
   23bbb    H17  664   1.784   9.224   2.752  0.5084 -0.6612  0.4393
   23bbb    H18  665   1.783   9.324   2.899 -1.0601 -1.2030  0.0988
   23bbb     O1  666   1.231   9.945   2.658  0.4419  0.0508  0.1122
   24bbb     N1  667   0.745  10.818   2.200  0.6233 -0.3355  0.4815
   24bbb     C1  668   0.834  10.799   2.085 -0.7473 -0.5112 -0.5642
   24bbb     H1  669   0.933  10.775   2.125 -0.5347  0.5432 -0.4180
   24bbb     H2  670   0.851  10.887   2.022  2.1593 -1.3080 -1.0421
   24bbb     C2  671   0.603  10.862   2.149 -1.7092  0.4168 -0.1975
   24bbb     H3  672   0.550  10.877   2.244 -4.2456 -0.6244 -1.3538
   24bbb     H4  673   0.562  10.776   2.094 -2.7255  1.0127 -0.4049
   24bbb     C3  674   0.737  10.707   2.304 -0.0176  0.0023 -0.1296
   24bbb     H5  675   0.686  10.618   2.265 -0.2606  0.1143 -0.0643
   24bbb     H6  676   0.676  10.739   2.389 -0.1885 -1.1592  0.1917
   24bbb     C4  677   0.870  10.678   2.368 -0.4479 -0.4688 -0.2047
   24bbb     H7  678   0.928  10.769   2.385  0.0752 -0.6090 -1.1759
   24bbb     H8  679   0.931  10.611   2.306 -0.6926 -1.3737  0.5103
   24bbb     C5  680   0.800  10.675   1.993 -0.7729  0.6078  0.3947
   24bbb     H9  681   0.694  10.677   1.965 -0.2925 -1.1646 -1.8761
   24bbb    H10  682   0.804  10.580   2.048  1.0226  0.4366  0.0395
   24bbb     C6  683   0.599  10.994   2.072 -0.7208  0.0747 -0.7612
   24bbb    H11  684   0.656  10.995   1.979  1.0878  2.1099  0.2896
   24bbb    H12  685   0.646  11.069   2.136 -1.0672 -0.8162  0.5751
   24bbb     C7  686   0.865  10.610   2.507 -0.1807  0.3942 -0.8156
   24bbb    H13  687   0.861  10.692   2.580 -1.3684 -0.7521  0.4641
   24bbb    H14  688   0.961  10.560   2.518  0.2432  1.1841 -0.8419
   24bbb     C8  689   0.453  11.039   2.031 -0.2191  0.2187  0.8792
   24bbb    H15  690   0.404  10.960   1.973 -0.2553 -0.8135  2.2505
   24bbb    H16  691   0.464  11.129   1.969  0.3571 -1.9690 -2.4136
   24bbb     C9  692   0.890  10.668   1.861  0.1735  0.6559  0.2954
   24bbb    H17  693   0.882  10.568   1.818 -1.9514  0.6393  0.5827
   24bbb    H18  694   0.997  10.685   1.879  0.6499 -1.1119 -0.6989
   24bbb     O1  695   0.758  10.519   2.515 -0.0447  0.5604  0.3873
   25bbb     N1  696   0.259  11.089   1.090 -0.0637  0.0405  0.3717
   25bbb     C1  697   0.111  11.087   1.112 -0.1438  0.3870 -0.6653
   25bbb     H1  698   0.059  11.114   1.020 -0.9475 -2.9361 -1.3220
   25bbb     H2  699   0.091  11.157   1.194  1.5995 -0.7346  0.8060
   25bbb     C2  700   0.301  11.186   0.980  0.7968  0.4360  0.0254
   25bbb     H3  701   0.408  11.178   0.957  0.7202  2.0078 -0.9420
   25bbb     H4  702   0.281  11.289   1.010 -0.0846  0.1268  0.5494
   25bbb     C3  703   0.339  11.104   1.217  0.2274  0.0730 -0.0955
   25bbb     H5  704   0.327  11.206   1.255  1.8637 -0.1302  1.0490
   25bbb     H6  705   0.446  11.098   1.194  0.5070 -0.2538  1.2149
   25bbb     C4  706   0.303  11.010   1.336 -0.7894 -0.0906  0.1125
   25bbb     H7  707   0.304  10.908   1.295  0.7393  0.3840 -1.1105
   25bbb     H8  708   0.208  11.040   1.382 -1.4868  0.9294 -1.8639
   25bbb     C5  709   0.063  10.942   1.145  0.5384  0.7647 -0.1194
   25bbb     H9  710  -0.046  10.933   1.144  0.6734 -1.3920 -1.0238
   25bbb    H10  711   0.095  10.918   1.247 -0.7861 -0.2640  0.0798
   25bbb     C6  712   0.253  11.165   0.837  0.3819 -0.5186  0.6046
   25bbb    H11  713   0.283  11.250   0.774 -0.1092  0.1180  1.2199
   25bbb    H12  714   0.145  11.169   0.851  0.6379 -0.8064  3.2166
   25bbb     C7  715   0.419  11.022   1.444 -0.6010 -0.2200  0.2434
   25bbb    H13  716   0.439  11.119   1.491  0.5412 -2.0196  3.8490
   25bbb    H14  717   0.517  10.986   1.408  0.1735 -0.3778  2.3749
   25bbb     C8  718   0.296  11.032   0.781 -0.2667  1.2733  0.1624
   25bbb    H15  719   0.225  11.009   0.701  1.3636  1.6532 -1.4438
   25bbb    H16  720   0.290  10.956   0.860  2.6151  0.5390 -0.2240
   25bbb     C9  721   0.116  10.828   1.044 -0.2057  0.3968  0.3044
   25bbb    H17  722   0.226  10.836   1.046  0.0674 -2.1475 -0.0558
   25bbb    H18  723   0.086  10.844   0.939  0.8346 -1.4679 -0.3338
   25bbb     O1  724   0.382  10.935   1.547  0.3628  0.4834 -0.2077
   26bbb     N1  725   0.249  10.497   2.770 -0.0100  0.0898  0.2176
   26bbb     C1  726   0.355  10.513   2.880 -0.2385  0.1418 -0.6310
   26bbb     H1  727   0.308  10.533   2.977  2.2179  0.6778  0.5259
   26bbb     H2  728   0.428  10.594   2.868  0.0329  0.0394  0.3079
   26bbb     C2  729   0.168  10.377   2.782  0.4285  0.6826 -0.0395
   26bbb     H3  730   0.239  10.293   2.778  1.3711  1.4846 -0.7273
   26bbb     H4  731   0.102  10.367   2.695 -0.0253 -0.6270  0.4338
   26bbb     C3  732   0.314  10.512   2.639 -0.2924 -0.5760 -0.0423
   26bbb     H5  733   0.252  10.481   2.553  0.3492 -0.7502 -0.4531
   26bbb     H6  734   0.411  10.461   2.630 -0.1864 -0.0521 -3.4362
   26bbb     C4  735   0.354  10.658   2.603  0.3830  0.5824 -0.6514
   26bbb     H7  736   0.433  10.696   2.668  0.5479  0.7894 -0.9669
   26bbb     H8  737   0.264  10.721   2.608 -0.4565 -0.5144 -1.5898
   26bbb     C5  738   0.438  10.379   2.900  0.0484 -0.8851  0.2675
   26bbb     H9  739   0.474  10.339   2.805  1.6958 -0.7865  0.8272
   26bbb    H10  740   0.367  10.307   2.944  0.2325 -0.8697  0.5933
   26bbb     C6  741   0.076  10.385   2.905  0.0618  0.0626  0.0396
   26bbb    H11  742   0.007  10.470   2.902 -0.1543 -0.1417 -1.1666
   26bbb    H12  743   0.135  10.380   2.998  0.3577  1.7289 -0.0409
   26bbb     C7  744   0.403  10.677   2.460  0.4955  0.4103 -0.2105
   26bbb    H13  745   0.496  10.620   2.448  1.3840  1.4883  1.3790
   26bbb    H14  746   0.430  10.782   2.443  4.3630 -0.3479  0.2224
   26bbb     C8  747  -0.030  10.266   2.899 -1.1007 -0.6579  0.5778
   26bbb    H15  748   0.026  10.172   2.905  0.9126  0.5273  1.3905
   26bbb    H16  749  -0.077  10.270   2.800  0.3995 -0.0423 -0.1505
   26bbb     C9  750   0.558  10.388   2.999 -0.0409 -0.5225  0.1080
   26bbb    H17  751   0.626  10.306   2.975  1.5379  0.5764  0.6015
   26bbb    H18  752   0.519  10.378   3.101  1.4225 -1.9096  0.5733
   26bbb     O1  753   0.294  10.633   2.363 -0.7981  0.0319 -0.6615
   27bbb     N1  754  -0.936  12.309   1.979 -0.4802  0.4921  0.1696
   27bbb     C1  755  -1.091  12.330   1.999  0.1295 -0.5195  0.2069
   27bbb     H1  756  -1.128  12.269   2.082  1.5676 -2.7551 -0.7000
   27bbb     H2  757  -1.148  12.298   1.911 -1.0838  2.9687 -0.4359
   27bbb     C2  758  -0.873  12.413   1.890 -0.1067  0.0869  0.0271
   27bbb     H3  759  -0.764  12.403   1.897 -0.2304  0.0890  4.0362
   27bbb     H4  760  -0.891  12.512   1.932  1.6007  0.2390  0.4683
   27bbb     C3  761  -0.896  12.175   1.937  0.5829  0.6614 -0.8059
   27bbb     H5  762  -0.787  12.167   1.931  0.6383 -1.3424  1.3920
   27bbb     H6  763  -0.929  12.139   1.839  2.3818 -2.3720 -0.4141
   27bbb     C4  764  -0.942  12.067   2.044 -0.0643 -0.3117  0.1869
   27bbb     H7  765  -1.050  12.048   2.038  0.2327 -1.7342 -1.0327
   27bbb     H8  766  -0.929  12.100   2.148  0.1587 -1.9297  0.6919
   27bbb     C5  767  -1.132  12.477   2.032 -0.3675  0.1691  0.8803
   27bbb     H9  768  -1.240  12.477   2.009 -0.6519 -2.5458  1.8388
   27bbb    H10  769  -1.079  12.547   1.966  0.3457 -0.4838  0.7523
   27bbb     C6  770  -0.916  12.400   1.742 -0.2002 -0.2258 -0.3104
   27bbb    H11  771  -1.021  12.368   1.735 -0.3921  0.3284  0.0289
   27bbb    H12  772  -0.861  12.312   1.706 -0.6681 -0.2349 -1.0290
   27bbb     C7  773  -0.856  11.938   2.036  0.1481  0.3863 -0.4090
   27bbb    H13  774  -0.865  11.890   2.134 -0.1086 -0.0727 -0.6533
   27bbb    H14  775  -0.755  11.975   2.014 -0.1976  1.8019  0.2757
   27bbb     C8  776  -0.901  12.537   1.670  0.4127  0.7173 -0.1953
   27bbb    H15  777  -0.919  12.518   1.564 -1.1582  1.3332 -0.0705
   27bbb    H16  778  -0.802  12.583   1.679  1.0349 -0.9212  2.6351
   27bbb     C9  779  -1.127  12.513   2.183  0.1300 -0.1448 -0.1660
   27bbb    H17  780  -1.021  12.501   2.211 -0.3755 -2.4154  0.9567
   27bbb    H18  781  -1.182  12.439   2.242  1.2407 -1.7887 -1.0921
   27bbb     O1  782  -0.906  11.854   1.927 -0.4473 -0.5153 -0.3452
   28bbb     N1  783  -0.825  11.940   0.911 -0.5137 -0.3714 -0.0496
   28bbb     C1  784  -0.897  11.817   0.867 -0.2798 -0.3154 -0.1807
   28bbb     H1  785  -0.995  11.853   0.834 -0.7660  0.1611  1.6587
   28bbb     H2  786  -0.921  11.762   0.959  0.5944 -0.2123  0.1154
   28bbb     C2  787  -0.788  12.028   0.793 -0.1518  0.0720 -0.6590
   28bbb     H3  788  -0.756  11.970   0.706  0.0609  0.3522 -0.7654
   28bbb     H4  789  -0.708  12.097   0.822 -0.4391  0.9180 -1.8241
   28bbb     C3  790  -0.702  11.933   0.999 -0.5182  0.0807  0.9688
   28bbb     H5  791  -0.666  12.031   1.031  1.7909  0.0884 -1.3154
   28bbb     H6  792  -0.627  11.883   0.936 -1.4589 -1.8821  1.3276
   28bbb     C4  793  -0.715  11.838   1.122  0.2422 -0.1670  0.6566
   28bbb     H7  794  -0.740  11.736   1.092 -0.2177  0.7696 -2.5359
   28bbb     H8  795  -0.785  11.876   1.197  0.7695  1.3520  0.4305
   28bbb     C5  796  -0.828  11.724   0.762  0.2169 -0.5568 -0.0717
   28bbb     H9  797  -0.720  11.734   0.778  0.3165 -0.1979 -0.9188
   28bbb    H10  798  -0.838  11.753   0.657  1.2366  1.1899  0.2646
   28bbb     C6  799  -0.896  12.133   0.752 -0.1986 -0.3939 -0.1260
   28bbb    H11  800  -0.848  12.209   0.689 -0.9628 -0.4927 -0.8403
   28bbb    H12  801  -0.933  12.188   0.840  1.9369  1.1141 -0.0789
   28bbb     C7  802  -0.580  11.824   1.195  0.4248  0.3530  0.3894
   28bbb    H13  803  -0.533  11.922   1.201  1.4850  0.0328 -1.8007
   28bbb    H14  804  -0.511  11.755   1.146 -0.3090 -0.5787  0.6355
   28bbb     C8  805  -1.019  12.073   0.683 -0.1469 -0.3801 -0.1734
   28bbb    H15  806  -1.077  12.152   0.633 -0.6813 -2.5466 -3.2714
   28bbb    H16  807  -1.086  12.033   0.761  0.3839 -1.0943 -0.0773
   28bbb     C9  808  -0.859  11.573   0.777 -0.2975 -0.8542 -0.4245
   28bbb    H17  809  -0.780  11.522   0.720  2.5989  0.3711  2.1827
   28bbb    H18  810  -0.842  11.550   0.883 -0.5224  0.1430 -0.1586
   28bbb     O1  811  -0.626  11.766   1.319  0.2000  0.2589  0.3460
   29bbb     N1  812  -0.390  12.111   1.614  0.5037  0.2442  0.1981
   29bbb     C1  813  -0.447  12.215   1.527 -0.5195 -1.2495  0.1509
   29bbb     H1  814  -0.543  12.250   1.567  0.3577 -0.6306  1.8315
   29bbb     H2  815  -0.470  12.173   1.428 -0.1447 -1.0811 -0.0099
   29bbb     C2  816  -0.262  12.055   1.560 -0.4602  0.5722  0.1141
   29bbb     H3  817  -0.228  12.118   1.477  0.2455  0.2928  0.1883
   29bbb     H4  818  -0.283  11.957   1.515 -1.1760  1.0406 -0.5875
   29bbb     C3  819  -0.493  12.004   1.630  0.0795  0.0995 -0.0721
   29bbb     H5  820  -0.440  11.908   1.633  0.8288  0.4377 -1.4789
   29bbb     H6  821  -0.556  11.992   1.541 -0.6145 -0.4223  0.4799
   29bbb     C4  822  -0.576  12.033   1.754  0.8560 -0.3327  0.5618
   29bbb     H7  823  -0.667  11.972   1.753 -0.0079  0.8926 -1.2664
   29bbb     H8  824  -0.611  12.137   1.752  3.3620  0.5711 -0.7480
   29bbb     C5  825  -0.364  12.348   1.518 -0.4018 -0.0975 -0.5367
   29bbb     H9  826  -0.403  12.419   1.445  0.6859  2.5164  1.2643
   29bbb    H10  827  -0.256  12.342   1.499 -0.0971 -0.1239  1.0507
   29bbb     C6  828  -0.146  12.042   1.664 -0.1561 -0.2336 -0.2476
   29bbb    H11  829  -0.171  12.119   1.739 -0.3590  1.4038 -1.9206
   29bbb    H12  830  -0.054  12.074   1.615 -0.4934 -1.3918 -1.7119
   29bbb     C7  831  -0.502  12.023   1.896 -0.5737 -0.8455 -0.1746
   29bbb    H13  832  -0.561  12.083   1.967  0.5332 -0.2783  0.2883
   29bbb    H14  833  -0.398  12.058   1.889 -1.2390  0.9637 -2.4105
   29bbb     C8  834  -0.131  11.904   1.728  0.1093  0.2294  1.0097
   29bbb    H15  835  -0.230  11.869   1.760 -0.6809  1.0518 -0.4313
   29bbb    H16  836  -0.074  11.920   1.820  0.1648  0.0455  1.0081
   29bbb     C9  837  -0.357  12.416   1.657  0.0087  0.1811  0.1435
   29bbb    H17  838  -0.320  12.343   1.730 -2.1131 -0.3290  0.7836
   29bbb    H18  839  -0.462  12.432   1.684 -0.6328 -2.9887  0.0055
   29bbb     O1  840  -0.507  11.881   1.942 -0.3212  0.1507  0.3015
   30bbb     N1  841  -0.683  11.132   2.420 -0.1951 -0.1492 -0.1679
   30bbb     C1  842  -0.663  11.219   2.540 -0.6680 -0.6408 -0.5288
   30bbb     H1  843  -0.598  11.301   2.509  0.0638 -1.0200 -0.0480
   30bbb     H2  844  -0.623  11.158   2.622  0.9954  0.2704 -0.6386
   30bbb     C2  845  -0.608  11.011   2.427 -0.5250  0.4314  0.7870
   30bbb     H3  846  -0.649  10.947   2.348 -0.1597  2.0605 -0.7865
   30bbb     H4  847  -0.628  10.959   2.521 -1.7772  1.0321  0.8800
   30bbb     C3  848  -0.667  11.206   2.292  0.2384 -0.2071 -0.4687
   30bbb     H5  849  -0.567  11.249   2.295  0.4955 -0.8204  0.6496
   30bbb     H6  850  -0.741  11.287   2.287  2.1250  1.6675  0.5743
   30bbb     C4  851  -0.678  11.118   2.164  1.1890 -0.0811 -0.4124
   30bbb     H7  852  -0.750  11.037   2.176  2.0254 -0.7955 -0.1051
   30bbb     H8  853  -0.581  11.067   2.163 -0.3144 -3.2060  0.8145
   30bbb     C5  854  -0.797  11.273   2.593  0.2593  0.4979  0.5092
   30bbb     H9  855  -0.852  11.183   2.622 -0.5965  0.8542  0.0169
   30bbb    H10  856  -0.852  11.323   2.513 -0.5609  0.7630  1.2231
   30bbb     C6  857  -0.454  11.018   2.423 -0.4171  0.4495  0.2699
   30bbb    H11  858  -0.416  11.076   2.508 -0.1994  1.9586 -0.8177
   30bbb    H12  859  -0.430  11.088   2.342  0.3692 -0.1560 -0.0387
   30bbb     C7  860  -0.695  11.202   2.033 -0.0626  0.4715 -0.1845
   30bbb    H13  861  -0.793  11.247   2.052 -0.2964  1.0260 -2.4741
   30bbb    H14  862  -0.717  11.139   1.947  3.1376 -2.6512  1.0449
   30bbb     C8  863  -0.390  10.879   2.427  0.3709 -0.3114 -0.2451
   30bbb    H15  864  -0.408  10.835   2.526 -0.9815 -0.3533 -0.4903
   30bbb    H16  865  -0.284  10.899   2.412  0.3919 -0.2319  0.0096
   30bbb     C9  866  -0.783  11.360   2.722  0.5287  0.1970  0.2733
   30bbb    H17  867  -0.681  11.395   2.745  0.3952 -0.1199  1.3499
   30bbb    H18  868  -0.823  11.307   2.809 -0.5875  0.3187 -0.1536
   30bbb     O1  869  -0.581  11.286   2.016 -0.8025 -0.3730 -0.1480
   31bbb     N1  870   0.778   9.028  -0.063 -0.2476 -0.2676  0.1534
   31bbb     C1  871   0.802   9.123   0.049 -0.0738  0.3926  0.1297
   31bbb     H1  872   0.851   9.072   0.133  4.2549  2.1377 -1.0254
   31bbb     H2  873   0.704   9.163   0.076 -0.1803  0.1217  0.1410
   31bbb     C2  874   0.679   8.925  -0.031  0.0710 -0.3678 -0.5184
   31bbb     H3  875   0.642   8.886  -0.127 -1.8823 -0.5899  0.2726
   31bbb     H4  876   0.598   8.976   0.022 -0.0016 -0.0014 -0.9794
   31bbb     C3  877   0.881   8.985  -0.152  0.1157  0.7521  0.9828
   31bbb     H5  878   0.888   8.876  -0.153 -0.3806  0.7048 -0.3468
   31bbb     H6  879   0.979   9.031  -0.136  1.3491 -1.4220  0.1758
   31bbb     C4  880   0.850   9.018  -0.304  1.5073 -0.3515 -0.6539
   31bbb     H7  881   0.742   9.038  -0.317  1.1101 -0.8106  1.5835
   31bbb     H8  882   0.877   8.929  -0.364 -1.0549 -2.1690  0.6798
   31bbb     C5  883   0.897   9.248   0.022  0.8018 -0.1589 -0.4792
   31bbb     H9  884   0.853   9.305  -0.060  0.7863  0.1095 -0.2851
   31bbb    H10  885   0.995   9.208  -0.009 -0.6009 -3.0613 -1.4921
   31bbb     C6  886   0.729   8.800   0.053  0.7040 -0.0296 -0.1978
   31bbb    H11  887   0.729   8.831   0.159 -2.3738  1.7987 -0.6073
   31bbb    H12  888   0.832   8.772   0.026 -0.3101 -1.1719 -3.1778
   31bbb     C7  889   0.917   9.145  -0.359  0.8658 -0.3346 -0.1664
   31bbb    H13  890   0.856   9.229  -0.324 -0.0011 -1.0679  0.1316
   31bbb    H14  891   0.899   9.148  -0.468 -1.2706  1.4283  0.1790
   31bbb     C8  892   0.624   8.691   0.041  0.2470  0.2026 -0.6323
   31bbb    H15  893   0.521   8.729   0.041  0.4028  0.7068  0.7686
   31bbb    H16  894   0.635   8.622   0.126  0.9079 -0.2687 -1.0940
   31bbb     C9  895   0.900   9.322   0.157  0.5889  0.3155  0.4051
   31bbb    H17  896   0.963   9.266   0.227 -0.7641 -0.1408  1.2728
   31bbb    H18  897   0.797   9.316   0.194  0.7743 -1.8565  0.6890
   31bbb     O1  898   1.052   9.152  -0.320 -0.8126 -0.0366  0.1606
   32bbb     N1  899   1.687   8.974   0.339 -0.4605  0.9451  0.1380
   32bbb     C1  900   1.600   8.859   0.396  0.1346 -0.3624 -0.4514
   32bbb     H1  901   1.660   8.768   0.385 -0.2404 -1.1186  2.8078
   32bbb     H2  902   1.515   8.841   0.329  0.2760  0.6754 -0.9382
   32bbb     C2  903   1.632   9.108   0.364 -0.5164 -0.3447  0.0798
   32bbb     H3  904   1.543   9.107   0.428  0.2411  0.2520  1.1935
   32bbb     H4  905   1.595   9.155   0.272  0.0968  0.7472  0.3747
   32bbb     C3  906   1.711   8.954   0.194 -0.4398 -0.1921 -0.3343
   32bbb     H5  907   1.625   8.985   0.134  0.0645  0.6015 -0.6713
   32bbb     H6  908   1.741   8.850   0.175  1.9563  0.2566  0.6403
   32bbb     C4  909   1.837   9.026   0.136 -0.2086 -0.3177  0.6042
   32bbb     H7  910   1.888   8.962   0.064  1.0277 -0.1163  1.2762
   32bbb     H8  911   1.919   9.041   0.208 -0.1648  0.1217  0.4662
   32bbb     C5  912   1.556   8.873   0.542  0.1091 -0.4356 -0.7656
   32bbb     H9  913   1.477   8.946   0.567  1.7621  1.1079  0.2537
   32bbb    H10  914   1.639   8.912   0.603 -1.4357  2.4101 -0.2627
   32bbb     C6  915   1.730   9.202   0.441  0.5105  0.6791  0.6812
   32bbb    H11  916   1.832   9.184   0.405  0.4695  1.0686  0.3691
   32bbb    H12  917   1.745   9.169   0.545  1.8871 -2.1990 -0.3246
   32bbb     C7  918   1.805   9.162   0.061 -0.0982 -0.0202 -0.6994
   32bbb    H13  919   1.897   9.222   0.055 -0.4411  0.5877  0.0882
   32bbb    H14  920   1.735   9.220   0.122  1.6867 -0.3186  1.7858
   32bbb     C8  921   1.679   9.354   0.429  0.2766  0.7089  0.8764
   32bbb    H15  922   1.588   9.358   0.491 -0.3487 -0.5767  0.0849
   32bbb    H16  923   1.654   9.383   0.326  0.5356  0.7930  0.8364
   32bbb     C9  924   1.528   8.727   0.598  0.2647 -0.4037 -0.6771
   32bbb    H17  925   1.558   8.725   0.704  2.1544 -0.3668 -1.1635
   32bbb    H18  926   1.605   8.661   0.555  0.4179  0.1986 -1.3348
   32bbb     O1  927   1.763   9.124  -0.065 -0.3264 -0.4863  0.5597
   33bbb     N1  928   1.362   9.170  -0.836  0.1421  0.1752 -0.4538
   33bbb     C1  929   1.315   9.030  -0.797  0.5770 -0.2899 -0.3487
   33bbb     H1  930   1.407   8.978  -0.769  0.8690  1.1452  1.5730
   33bbb     H2  931   1.272   8.982  -0.886  1.0080 -0.5443 -0.4228
   33bbb     C2  932   1.436   9.177  -0.967 -0.8149  0.0417 -0.8705
   33bbb     H3  933   1.523   9.111  -0.959 -0.1370  0.8369 -1.5214
   33bbb     H4  934   1.481   9.276  -0.977 -0.1126 -0.0630  0.8894
   33bbb     C3  935   1.442   9.248  -0.725 -0.0870  0.3645 -0.5649
   33bbb     H5  936   1.386   9.253  -0.631  1.5389  1.0312  0.4006
   33bbb     H6  937   1.451   9.348  -0.770  0.2495 -0.0208 -1.3796
   33bbb     C4  938   1.589   9.200  -0.705  0.2641 -0.1446  0.7827
   33bbb     H7  939   1.651   9.265  -0.767 -0.0261 -0.9043 -0.3315
   33bbb     H8  940   1.622   9.109  -0.757 -1.4831  0.3650 -1.3243
   33bbb     C5  941   1.204   9.027  -0.679 -0.4276 -0.0954 -0.2313
   33bbb     H9  942   1.117   9.086  -0.709 -1.2386 -1.1983 -0.1047
   33bbb    H10  943   1.254   9.069  -0.591 -1.1326 -1.7018  0.9986
   33bbb     C6  944   1.350   9.145  -1.092 -0.4011 -0.3346  0.7154
   33bbb    H11  945   1.309   9.043  -1.089 -1.7794  0.2020  1.1036
   33bbb    H12  946   1.421   9.134  -1.175  0.4368  0.4762  1.3132
   33bbb     C7  947   1.632   9.202  -0.555 -0.8519  0.3233  0.5833
   33bbb    H13  948   1.598   9.302  -0.528  0.9456  0.8175  1.1764
   33bbb    H14  949   1.736   9.174  -0.534 -0.4455 -0.1502 -1.7719
   33bbb     C8  950   1.234   9.253  -1.120 -0.7270 -0.2375 -0.3346
   33bbb    H15  951   1.184   9.274  -1.025 -2.1756 -0.2721 -1.0728
   33bbb    H16  952   1.155   9.224  -1.190 -2.4839  2.6767  0.2737
   33bbb     C9  953   1.153   8.886  -0.647 -0.5724  0.0305  0.0326
   33bbb    H17  954   1.127   8.895  -0.541  1.1322  0.5150  0.4380
   33bbb    H18  955   1.232   8.813  -0.669  0.3346  0.5363  1.4585
   33bbb     O1  956   1.549   9.108  -0.479 -0.0484 -0.2208  0.0292
   34bbb     N1  957   0.975   8.291   0.228  0.3650 -0.5250  1.0184
   34bbb     C1  958   1.074   8.179   0.257 -0.5107 -0.7172  0.3910
   34bbb     H1  959   1.092   8.125   0.163  1.6165 -1.2405  1.0419
   34bbb     H2  960   1.020   8.112   0.325 -0.4309 -1.2275 -0.0318
   34bbb     C2  961   0.931   8.352   0.355 -0.0999 -0.0878  0.3486
   34bbb     H3  962   1.008   8.340   0.432 -1.2433  0.4779  1.6357
   34bbb     H4  963   0.838   8.306   0.391 -1.9049  1.4435 -2.0130
   34bbb     C3  964   0.871   8.247   0.127  0.2760  0.1258 -0.0629
   34bbb     H5  965   0.789   8.319   0.126 -0.0017 -0.1908 -0.9153
   34bbb     H6  966   0.841   8.144   0.147  1.1587 -0.4700 -1.6612
   34bbb     C4  967   0.922   8.256  -0.011 -0.0676 -0.3293  0.0317
   34bbb     H7  968   0.840   8.220  -0.074 -0.4433 -1.3649  1.1003
   34bbb     H8  969   1.008   8.189  -0.024  0.3810  0.7818 -4.4556
   34bbb     C5  970   1.206   8.216   0.325 -0.3032  0.2891 -0.6656
   34bbb     H9  971   1.285   8.140   0.314 -0.6864 -0.0217 -1.3401
   34bbb    H10  972   1.185   8.230   0.432 -1.8308 -0.4259 -0.8457
   34bbb     C6  973   0.891   8.497   0.322  0.4219 -0.4851  0.3259
   34bbb    H11  974   0.879   8.512   0.214 -0.1184  1.0993  0.5756
   34bbb    H12  975   0.979   8.557   0.350 -0.5901  1.1334  0.1837
   34bbb     C7  976   0.976   8.398  -0.045 -0.5275 -0.1994  0.3368
   34bbb    H13  977   1.062   8.420   0.020 -2.2207  2.0074  1.9958
   34bbb    H14  978   0.886   8.456  -0.022 -0.5269  0.2871 -0.8293
   34bbb     C8  979   0.754   8.536   0.392 -0.2091 -0.3439 -0.5880
   34bbb    H15  980   0.751   8.646   0.390 -3.5592 -0.2964  0.5131
   34bbb    H16  981   0.751   8.511   0.499  0.0760 -0.5916 -0.6391
   34bbb     C9  982   1.260   8.349   0.269  0.2556 -0.0240  0.1753
   34bbb    H17  983   1.198   8.438   0.282 -0.2340 -0.3387  0.0085
   34bbb    H18  984   1.250   8.327   0.162 -0.3418 -0.2306  0.2676
   34bbb     O1  985   1.009   8.413  -0.182  0.0040  0.1198 -0.1104
   35bbb     N1  986   0.529   8.999   3.065  0.0703  0.0053 -0.2186
   35bbb     C1  987   0.403   9.073   3.021 -0.3883  0.4431  0.7635
   35bbb     H1  988   0.315   9.014   3.050  0.7327 -1.8844 -0.2770
   35bbb     H2  989   0.398   9.091   2.912 -3.7549  0.8386  0.8760
   35bbb     C2  990   0.544   8.869   2.992  0.0852 -0.9046 -0.1633
   35bbb     H3  991   0.646   8.835   3.011  0.1469  0.2194  1.8380
   35bbb     H4  992   0.533   8.893   2.886 -0.0327  0.7058  0.1967
   35bbb     C3  993   0.658   9.072   3.070  0.1517  0.3894 -0.1135
   35bbb     H5  994   0.745   9.019   3.111 -0.6448 -0.7888  0.0801
   35bbb     H6  995   0.653   9.163   3.131 -1.8559  0.9460 -1.0194
   35bbb     C4  996   0.705   9.133   2.937  0.2037  0.6581 -0.5879
   35bbb     H7  997   0.643   9.222   2.915  1.0213  1.4358  0.1953
   35bbb     H8  998   0.692   9.074   2.845  0.1373 -0.0409 -0.1319
   35bbb     C5  999   0.391   9.208   3.104 -0.1878  0.2748  0.9203
   35bbb     H9 1000   0.460   9.276   3.054  0.1905 -0.6173  0.1996
   35bbb    H10 1001   0.439   9.188   3.200  1.2810  1.7147  0.5215
   35bbb     C6 1002   0.448   8.752   3.031  0.1977 -0.1140  0.3439
   35bbb    H11 1003   0.463   8.665   2.967 -0.9643  0.7877 -1.2194
   35bbb    H12 1004   0.345   8.782   3.007  0.5922  0.7950 -0.2884
   35bbb     C7 1005   0.849   9.188   2.943  0.2727 -0.7332  0.3595
   35bbb    H13 1006   0.918   9.103   2.929  2.5618  1.1442 -0.5968
   35bbb    H14 1007   0.867   9.230   3.043 -1.8801  0.9838  0.0835
   35bbb     C8 1008   0.443   8.725   3.188  0.2409 -0.1902 -0.1047
   35bbb    H15 1009   0.381   8.798   3.240 -2.2242 -1.8215 -0.5636
   35bbb    H16 1010   0.544   8.707   3.227 -0.4280  1.2344  2.5020
   35bbb     C9 1011   0.250   9.269   3.120  0.6471  0.0921  0.5226
   35bbb    H17 1012   0.261   9.325   3.214  0.4165 -0.2936  0.7843
   35bbb    H18 1013   0.174   9.191   3.125 -0.0105  0.5644 -1.3804
   35bbb     O1 1014   0.867   9.283   2.831 -0.5930  0.3913  0.5056
   36bbb     N1 1015   0.985   9.571   1.875 -0.1435 -0.6256 -0.2359
   36bbb     C1 1016   0.959   9.430   1.909 -0.5702 -0.6590  0.1351
   36bbb     H1 1017   1.035   9.392   1.979 -0.0756  1.2565  0.6884
   36bbb     H2 1018   0.974   9.379   1.813  1.2087  2.5409 -1.4533
   36bbb     C2 1019   0.926   9.619   1.739 -0.7950 -0.2240 -0.5935
   36bbb     H3 1020   0.931   9.729   1.730  1.4901 -0.3314 -1.3441
   36bbb     H4 1021   0.822   9.589   1.720 -0.6329  0.2070 -2.4447
   36bbb     C3 1022   0.953   9.671   1.977 -0.1077 -0.1680 -0.1137
   36bbb     H5 1023   0.975   9.632   2.077 -0.3017  1.4900  0.6062
   36bbb     H6 1024   0.844   9.688   1.970 -0.2870 -1.7000 -1.4366
   36bbb     C4 1025   1.028   9.799   1.978  0.2260 -0.1349 -0.4185
   36bbb     H7 1026   0.975   9.873   1.917  0.0582 -1.7526 -2.3366
   36bbb     H8 1027   1.130   9.802   1.938  1.1161 -0.0603  1.7012
   36bbb     C5 1028   0.816   9.408   1.973  0.9974  0.1761 -0.1882
   36bbb     H9 1029   0.742   9.439   1.899 -0.9277  0.3208  1.6771
   36bbb    H10 1030   0.801   9.471   2.062 -1.7060  1.8029 -1.6371
   36bbb     C6 1031   1.002   9.571   1.615 -0.0634 -0.0285 -0.2517
   36bbb    H11 1032   1.030   9.465   1.628  1.4465 -0.1676 -3.4946
   36bbb    H12 1033   1.099   9.621   1.603 -1.2823  2.7027  0.4920
   36bbb     C7 1034   1.042   9.853   2.130 -0.0081  0.6739  0.5560
   36bbb    H13 1035   0.947   9.876   2.179 -0.1962  2.5244 -0.6035
   36bbb    H14 1036   1.098   9.947   2.127  0.1742  0.5700  0.6372
   36bbb     C8 1037   0.917   9.598   1.483 -0.6767  0.0395 -0.8330
   36bbb    H15 1038   0.901   9.706   1.485  0.1211  0.1598 -0.5247
   36bbb    H16 1039   0.827   9.535   1.481 -1.2488  0.8236 -3.5805
   36bbb     C9 1040   0.783   9.261   1.998  0.1780  0.1408 -0.8995
   36bbb    H17 1041   0.860   9.216   2.061 -0.9363  0.1815  0.5317
   36bbb    H18 1042   0.688   9.253   2.052  1.2477  1.6398  1.3584
   36bbb     O1 1043   1.131   9.749   2.192  0.5617 -0.5168  0.3982
   37bbb     N1 1044   0.607   9.655   3.049 -0.2303 -0.8460  0.0221
   37bbb     C1 1045   0.725   9.734   2.998  0.5830 -0.2827  0.0673
   37bbb     H1 1046   0.758   9.802   3.076  1.1290  0.0413 -0.4377
   37bbb     H2 1047   0.684   9.793   2.915  1.5930 -0.8489 -0.8707
   37bbb     C2 1048   0.629   9.577   3.177 -0.0259 -0.1866  0.1709
   37bbb     H3 1049   0.677   9.649   3.244 -2.8064 -0.0130  2.1321
   37bbb     H4 1050   0.695   9.492   3.155 -2.1718 -1.9045  0.0165
   37bbb     C3 1051   0.535   9.570   2.947  0.2438 -0.2576  0.1276
   37bbb     H5 1052   0.456   9.520   3.005 -0.8617  1.4392  0.1604
   37bbb     H6 1053   0.595   9.481   2.928  0.9927 -0.0134  1.2132
   37bbb     C4 1054   0.492   9.643   2.822 -0.3605 -0.1997  0.7227
   37bbb     H7 1055   0.581   9.667   2.762 -0.1917 -0.6814  0.7766
   37bbb     H8 1056   0.446   9.740   2.846 -0.3772 -0.1487  0.4877
   37bbb     C5 1057   0.852   9.662   2.944 -0.0924  0.2234  0.5963
   37bbb     H9 1058   0.893   9.725   2.865  1.1753 -2.9003 -1.4457
   37bbb    H10 1059   0.826   9.570   2.890 -0.1055  0.0188  0.9491
   37bbb     C6 1060   0.510   9.532   3.265 -0.4248 -0.3137  0.3146
   37bbb    H11 1061   0.546   9.498   3.363 -0.2089  0.5857  0.5527
   37bbb    H12 1062   0.457   9.451   3.214 -0.2034 -0.3667  0.1646
   37bbb     C7 1063   0.412   9.553   2.730 -0.2674 -0.2321 -0.2256
   37bbb    H13 1064   0.334   9.504   2.789 -1.8683  2.2388 -0.1460
   37bbb    H14 1065   0.475   9.470   2.694  1.2455  0.8925 -0.2670
   37bbb     C8 1066   0.410   9.653   3.280 -0.2540  0.1295  0.2350
   37bbb    H15 1067   0.308   9.615   3.295 -1.9874  3.1061 -2.7551
   37bbb    H16 1068   0.403   9.703   3.183 -1.9354 -1.4521 -0.5237
   37bbb     C9 1069   0.957   9.634   3.056  0.5527 -0.9117 -0.0577
   37bbb    H17 1070   0.987   9.531   3.033  0.3169 -0.2819 -3.8864
   37bbb    H18 1071   0.905   9.624   3.152 -0.6765 -0.4610 -0.6469
   37bbb     O1 1072   0.358   9.626   2.620 -0.2804  0.0228 -0.1081
   38bbb     N1 1073   0.848  10.275   2.139 -0.3262  0.5312 -0.0926
   38bbb     C1 1074   0.943  10.274   2.253 -0.4575  0.5373  0.5019
   38bbb     H1 1075   0.934  10.180   2.308  0.7049 -0.5279 -1.0630
   38bbb     H2 1076   0.917  10.357   2.320  0.9523  0.4568  1.2046
   38bbb     C2 1077   0.867  10.175   2.034 -0.0939 -0.5528 -0.8764
   38bbb     H3 1078   0.846  10.078   2.082 -0.5414 -0.2873 -0.5280
   38bbb     H4 1079   0.967  10.181   1.989  0.2662  1.1188  0.0719
   38bbb     C3 1080   0.709  10.301   2.171  0.3850  0.7711 -0.1335
   38bbb     H5 1081   0.656  10.340   2.084 -0.0815  0.5089  0.0295
   38bbb     H6 1082   0.717  10.371   2.255  0.5811  2.7468 -1.7370
   38bbb     C4 1083   0.633  10.189   2.241  0.0197  0.2518  0.0025
   38bbb     H7 1084   0.691  10.165   2.331 -0.8548 -3.7189 -0.2901
   38bbb     H8 1085   0.634  10.094   2.186 -0.1008  1.0092 -1.3576
   38bbb     C5 1086   1.092  10.289   2.217  0.2862  0.8933 -0.4319
   38bbb     H9 1087   1.121  10.201   2.158 -0.4264 -0.1284  0.6978
   38bbb    H10 1088   1.152  10.293   2.308  1.8340 -1.9895 -1.1956
   38bbb     C6 1089   0.769  10.182   1.916 -0.2169  1.2730  0.4356
   38bbb    H11 1090   0.667  10.163   1.952 -0.4929  0.2866 -0.7769
   38bbb    H12 1091   0.797  10.102   1.846 -0.1100  0.0748  1.7964
   38bbb     C7 1092   0.490  10.227   2.282 -0.6685 -0.1664  0.2179
   38bbb    H13 1093   0.430  10.279   2.207  1.1330 -1.4775 -2.2803
   38bbb    H14 1094   0.503  10.294   2.368  0.0246 -0.5568  0.4321
   38bbb     C8 1095   0.787  10.317   1.843  0.2326  0.4291  0.2200
   38bbb    H15 1096   0.894  10.334   1.826  0.0839  2.2405  0.8126
   38bbb    H16 1097   0.756  10.401   1.907  0.3766  0.3466  0.3980
   38bbb     C9 1098   1.120  10.421   2.137  0.2006 -0.1462 -0.2683
   38bbb    H17 1099   1.047  10.440   2.058  1.8809 -1.4047 -2.2212
   38bbb    H18 1100   1.213  10.398   2.083  0.4596  0.1324  0.0586
   38bbb     O1 1101   0.421  10.107   2.325  0.3401  0.1378 -0.7201
   39bbb     N1 1102   0.191  12.458   1.324 -0.9593 -0.0875  0.0161
   39bbb     C1 1103   0.149  12.530   1.201 -0.2155  0.7572 -0.2275
   39bbb     H1 1104   0.235  12.556   1.139  1.6095 -1.1648  1.3564
   39bbb     H2 1105   0.092  12.623   1.214 -1.7057 -0.0593 -0.7672
   39bbb     C2 1106   0.321  12.504   1.379 -0.0141 -0.3035 -0.2340
   39bbb     H3 1107   0.341  12.436   1.463  2.4268 -0.5423 -0.9427
   39bbb     H4 1108   0.321  12.612   1.399  1.7629 -0.2255 -0.5443
   39bbb     C3 1109   0.074  12.445   1.423 -0.5495  0.0947  0.2106
   39bbb     H5 1110  -0.019  12.441   1.365  0.6203 -1.2776 -1.6777
   39bbb     H6 1111   0.063  12.536   1.483 -1.3715  0.7176 -0.8557
   39bbb     C4 1112   0.074  12.307   1.500 -1.0607  0.1286  0.3646
   39bbb     H7 1113  -0.022  12.294   1.552  0.1218  1.2798  3.0492
   39bbb     H8 1114   0.160  12.301   1.568 -2.6640 -1.3334  2.4226
   39bbb     C5 1115   0.063  12.448   1.103  0.6794  0.9416  0.0209
   39bbb     H9 1116   0.002  12.508   1.034  0.1786 -0.7244 -1.0530
   39bbb    H10 1117  -0.020  12.412   1.164  0.7870  0.7859  0.0739
   39bbb     C6 1118   0.443  12.482   1.287 -0.4139 -0.0916  0.2007
   39bbb    H11 1119   0.538  12.506   1.335  0.3988  1.2384 -1.9308
   39bbb    H12 1120   0.432  12.539   1.194  1.1144 -0.9319 -0.5296
   39bbb     C7 1121   0.095  12.184   1.406  0.4847  0.2980  0.3929
   39bbb    H13 1122   0.114  12.101   1.475 -3.3484  0.0256  1.3478
   39bbb    H14 1123   0.173  12.209   1.334 -1.4906  1.4997 -1.4292
   39bbb     C8 1124   0.457  12.335   1.240 -0.3623  0.0081 -0.0207
   39bbb    H15 1125   0.361  12.307   1.194 -0.5099  1.1779 -0.4510
   39bbb    H16 1126   0.484  12.270   1.324 -0.0297 -0.3187 -0.3777
   39bbb     C9 1127   0.146  12.332   1.038 -0.1621  0.0575 -0.3538
   39bbb    H17 1128   0.139  12.242   1.100 -2.7817  0.3566 -0.0893
   39bbb    H18 1129   0.249  12.366   1.027 -0.6502  1.0937 -2.2086
   39bbb     O1 1130  -0.029  12.165   1.330 -0.9208  0.0470 -0.6286
   40bbb     N1 1131   0.011  12.744   0.669  0.1328  0.0418  0.0522
   40bbb     C1 1132   0.021  12.705   0.524  0.2200 -0.3175  0.1075
   40bbb     H1 1133  -0.057  12.766   0.478  1.3872 -0.4637 -2.1708
   40bbb     H2 1134   0.007  12.597   0.507 -0.0539 -0.3867  0.7422
   40bbb     C2 1135   0.129  12.720   0.758  0.3122  0.2609  0.2985
   40bbb     H3 1136   0.211  12.770   0.706 -0.1871  1.6565  0.7934
   40bbb     H4 1137   0.158  12.615   0.765  1.9448  0.7291  0.9324
   40bbb     C3 1138  -0.114  12.689   0.738 -0.1733  0.6682 -0.9551
   40bbb     H5 1139  -0.132  12.745   0.831  0.6787  0.5493 -0.7147
   40bbb     H6 1140  -0.109  12.582   0.761 -1.3699 -0.0056 -3.4314
   40bbb     C4 1141  -0.245  12.715   0.654 -0.3581 -0.1567 -0.1215
   40bbb     H7 1142  -0.248  12.656   0.561 -3.3578 -0.3342 -0.0008
   40bbb     H8 1143  -0.225  12.818   0.619  2.0397 -0.6063 -0.2541
   40bbb     C5 1144   0.144  12.764   0.455  0.0575  0.0832 -0.6340
   40bbb     H9 1145   0.228  12.696   0.473  0.1642 -0.0910 -1.7329
   40bbb    H10 1146   0.168  12.858   0.506 -0.0539 -0.4766  0.4857
   40bbb     C6 1147   0.121  12.785   0.892  0.3428 -0.6836 -0.0063
   40bbb    H11 1148   0.070  12.717   0.961 -3.1251 -1.3277 -2.8962
   40bbb    H12 1149   0.061  12.877   0.883  2.4361  0.8507  0.9750
   40bbb     C7 1150  -0.368  12.689   0.738 -0.5243  0.4696  0.0952
   40bbb    H13 1151  -0.463  12.686   0.683 -1.7848  0.6567  2.1729
   40bbb    H14 1152  -0.373  12.766   0.815 -1.7201  1.0429 -0.5428
   40bbb     C8 1153   0.265  12.809   0.950 -0.1177  0.5950  0.1140
   40bbb    H15 1154   0.316  12.887   0.893 -1.6398  2.4140  1.1063
   40bbb    H16 1155   0.330  12.721   0.948  0.3469  0.9294  0.3172
   40bbb     C9 1156   0.131  12.775   0.308  0.1132  0.2437  0.3354
   40bbb    H17 1157   0.217  12.835   0.276 -0.3591  0.8410  0.1479
   40bbb    H18 1158   0.040  12.829   0.279 -1.2113 -2.2319 -0.4051
   40bbb     O1 1159  -0.356  12.559   0.797 -0.7681 -0.3391  0.1723
   41bbb     N1 1160  -1.213  12.428   1.155  0.1719 -0.8528 -0.3638
   41bbb     C1 1161  -1.231  12.557   1.076  0.8963  0.0931  0.2536
   41bbb     H1 1162  -1.270  12.535   0.976 -1.0126  1.4778  0.6336
   41bbb     H2 1163  -1.134  12.608   1.070  0.1504  1.5905  0.5167
   41bbb     C2 1164  -1.175  12.446   1.300  0.1388  0.3485 -0.3874
   41bbb     H3 1165  -1.174  12.548   1.341 -1.2301 -0.0201  0.6418
   41bbb     H4 1166  -1.071  12.414   1.313 -0.2383 -0.8559 -0.2910
   41bbb     C3 1167  -1.137  12.324   1.084  0.5300  0.5698  0.7040
   41bbb     H5 1168  -1.097  12.252   1.157  2.5286  0.6547 -0.2271
   41bbb     H6 1169  -1.040  12.363   1.048  1.7481 -3.5802 -1.1880
   41bbb     C4 1170  -1.210  12.251   0.964  0.1978  0.2533  0.3189
   41bbb     H7 1171  -1.162  12.159   0.928 -2.2567 -2.4865  3.3860
   41bbb     H8 1172  -1.228  12.321   0.881  1.0078 -0.4231 -0.4404
   41bbb     C5 1173  -1.328  12.666   1.134 -0.4477 -0.0165 -0.4440
   41bbb     H9 1174  -1.338  12.751   1.066  0.5517  1.0178  0.6496
   41bbb    H10 1175  -1.282  12.714   1.221 -0.6539 -0.0664 -0.3067
   41bbb     C6 1176  -1.250  12.353   1.394 -0.1376 -0.1241 -0.1647
   41bbb    H11 1177  -1.253  12.249   1.359 -1.7734 -0.4501  0.8287
   41bbb    H12 1178  -1.355  12.386   1.398 -0.7179 -1.9818  1.4902
   41bbb     C7 1179  -1.353  12.198   1.008  0.0371  0.0179 -0.2132
   41bbb    H13 1180  -1.399  12.151   0.921 -1.8155 -1.3824  1.4474
   41bbb    H14 1181  -1.412  12.278   1.053 -0.5912 -0.5751  0.0346
   41bbb     C8 1182  -1.191  12.362   1.539 -0.1159  0.6450  0.1199
   41bbb    H15 1183  -1.181  12.467   1.570  0.3455  0.5839  0.1812
   41bbb    H16 1184  -1.088  12.325   1.534 -0.5192 -0.6809  1.0288
   41bbb     C9 1185  -1.466  12.601   1.164 -0.0995 -0.1003  0.0529
   41bbb    H17 1186  -1.519  12.674   1.227  0.9776  1.0817 -0.3704
   41bbb    H18 1187  -1.439  12.509   1.217 -0.2119 -1.2712 -1.8463
   41bbb     O1 1188  -1.350  12.099   1.114 -0.1388  0.3982 -0.1354
   42bbb     N1 1189  -0.644  12.571   1.077  0.0702 -0.2002  0.5554
   42bbb     C1 1190  -0.500  12.541   1.111  0.2374 -0.4151  0.7440
   42bbb     H1 1191  -0.446  12.489   1.030  0.7506 -1.0015  1.4420
   42bbb     H2 1192  -0.487  12.462   1.186  2.6633  0.7081  1.6053
   42bbb     C2 1193  -0.656  12.627   0.935 -0.4794  0.2198 -0.1580
   42bbb     H3 1194  -0.618  12.549   0.868 -1.2540  0.4774 -0.9092
   42bbb     H4 1195  -0.583  12.708   0.927 -0.7029  0.4732  0.3393
   42bbb     C3 1196  -0.728  12.442   1.084  0.3436 -0.6901  0.5508
   42bbb     H5 1197  -0.686  12.362   1.023 -1.3117 -0.2774 -1.2401
   42bbb     H6 1198  -0.830  12.464   1.047  0.2391  1.7909  2.0636
   42bbb     C4 1199  -0.759  12.393   1.235  0.5082 -0.1581  0.4233
   42bbb     H7 1200  -0.837  12.464   1.264  0.2640 -0.9259  1.7520
   42bbb     H8 1201  -0.667  12.404   1.294  0.5718  0.8738  0.1525
   42bbb     C5 1202  -0.411  12.664   1.149  0.2102  0.3265 -0.3946
   42bbb     H9 1203  -0.437  12.688   1.253  2.2916 -0.0830  0.2646
   42bbb    H10 1204  -0.443  12.742   1.078  2.0416 -0.2628 -1.9479
   42bbb     C6 1205  -0.793  12.675   0.886  0.8401 -0.3961  0.4742
   42bbb    H11 1206  -0.852  12.734   0.957  0.1410  0.1397 -0.5318
   42bbb    H12 1207  -0.850  12.584   0.861 -0.0761  0.2602  0.1152
   42bbb     C7 1208  -0.808  12.248   1.246 -0.5826  0.2588 -0.4382
   42bbb    H13 1209  -0.726  12.187   1.207  0.4322  0.8565  0.6872
   42bbb    H14 1210  -0.903  12.231   1.195 -0.1669 -1.5635 -0.6709
   42bbb     C8 1211  -0.781  12.749   0.749  0.4684  0.7160  0.1587
   42bbb    H15 1212  -0.879  12.762   0.701 -1.0377 -0.0945  2.8192
   42bbb    H16 1213  -0.736  12.675   0.681  0.2148  0.7520 -0.0524
   42bbb     C9 1214  -0.264  12.628   1.137  0.7722 -0.1915  0.3932
   42bbb    H17 1215  -0.250  12.582   1.039  0.3922 -0.0200  0.2587
   42bbb    H18 1216  -0.227  12.559   1.214  3.0081 -1.0285 -1.3336
   42bbb     O1 1217  -0.835  12.229   1.386  0.1432 -0.4966  0.1462
   43bbb     N1 1218  -0.133   9.033   1.389 -0.2124  0.6927 -0.0152
   43bbb     C1 1219  -0.053   8.920   1.441  0.1399  0.2945 -0.4628
   43bbb     H1 1220  -0.115   8.829   1.440 -0.6073  0.8039 -1.1384
   43bbb     H2 1221  -0.034   8.935   1.548  2.4600 -0.9613 -0.6246
   43bbb     C2 1222  -0.178   9.010   1.255 -0.0087  0.0209  0.0807
   43bbb     H3 1223  -0.241   8.921   1.260 -0.2471  0.0281 -1.9254
   43bbb     H4 1224  -0.087   8.993   1.196  1.8278 -0.7273  2.9375
   43bbb     C3 1225  -0.076   9.173   1.410  1.6575 -0.2440 -0.3570
   43bbb     H5 1226  -0.129   9.253   1.358  0.1169 -0.1399  1.2750
   43bbb     H6 1227   0.025   9.181   1.368  1.4888  1.0524 -0.5550
   43bbb     C4 1228  -0.062   9.211   1.557  0.3467 -0.2364  0.1109
   43bbb     H7 1229   0.015   9.289   1.561 -1.1040  1.3715 -1.0975
   43bbb     H8 1230  -0.014   9.129   1.611  3.4064  0.8943 -0.6906
   43bbb     C5 1231   0.088   8.911   1.368 -0.4451 -0.3992 -0.4572
   43bbb     H9 1232   0.139   9.007   1.376  0.5957 -1.0925  3.1474
   43bbb    H10 1233   0.071   8.881   1.264 -0.1051 -1.3439 -0.2504
   43bbb     C6 1234  -0.269   9.120   1.184  0.5352  0.3733  0.3449
   43bbb    H11 1235  -0.294   9.084   1.083  0.7072  1.2963 -0.0364
   43bbb    H12 1236  -0.198   9.203   1.167 -1.2820  1.9963  0.4037
   43bbb     C7 1237  -0.196   9.259   1.621  1.3321 -0.7432  0.1961
   43bbb    H13 1238  -0.192   9.239   1.729 -1.3651  0.8527  0.6922
   43bbb    H14 1239  -0.277   9.198   1.580  0.0688  0.8472  0.1916
   43bbb     C8 1240  -0.408   9.156   1.250 -0.6688 -0.0491  0.4904
   43bbb    H15 1241  -0.379   9.194   1.348 -0.0492  2.9994 -0.7571
   43bbb    H16 1242  -0.471   9.066   1.253 -1.6763  0.4279 -2.4849
   43bbb     C9 1243   0.175   8.804   1.444 -0.0111 -0.1029 -0.4644
   43bbb    H17 1244   0.189   8.837   1.548  5.4800  1.7769 -1.4817
   43bbb    H18 1245   0.267   8.818   1.386  0.5979  0.9430  0.7111
   43bbb     O1 1246  -0.222   9.402   1.587 -0.0340  0.6362  0.9783
   44bbb     N1 1247  -0.412   9.509   0.741  0.4118 -0.0665  0.0712
   44bbb     C1 1248  -0.286   9.451   0.776  0.1751  0.3345  0.1130
   44bbb     H1 1249  -0.205   9.516   0.741  0.9831 -0.2606  0.8296
   44bbb     H2 1250  -0.271   9.352   0.731  0.5619  0.2244  0.4773
   44bbb     C2 1251  -0.406   9.541   0.597  0.0261  0.6637  0.6582
   44bbb     H3 1252  -0.387   9.446   0.545 -1.9519  0.4808  0.1838
   44bbb     H4 1253  -0.329   9.615   0.574  0.8310 -0.1410  0.6956
   44bbb     C3 1254  -0.467   9.614   0.824 -0.4487 -0.4779  0.3273
   44bbb     H5 1255  -0.486   9.582   0.927  1.2059  1.6801  1.4006
   44bbb     H6 1256  -0.566   9.631   0.781 -1.3242 -1.5968  1.8046
   44bbb     C4 1257  -0.372   9.741   0.829  0.1330  0.4749 -0.6498
   44bbb     H7 1258  -0.366   9.779   0.726  2.1735  0.9829 -0.3873
   44bbb     H8 1259  -0.274   9.717   0.873  0.3628  0.2320 -1.2876
   44bbb     C5 1260  -0.264   9.431   0.931 -1.1085  0.4913  0.1929
   44bbb     H9 1261  -0.337   9.355   0.963  0.4489 -0.4192  1.7976
   44bbb    H10 1262  -0.278   9.523   0.990  0.2437  0.0153  1.3246
   44bbb     C6 1263  -0.538   9.594   0.521  0.1283 -0.4205 -0.8505
   44bbb    H11 1264  -0.547   9.698   0.554  1.4609 -0.4603 -0.3119
   44bbb    H12 1265  -0.632   9.543   0.546 -0.3800  0.8929  0.0449
   44bbb     C7 1266  -0.411   9.856   0.924  0.0074 -0.3287 -1.0947
   44bbb    H13 1267  -0.498   9.913   0.887  1.3456  0.9231 -2.4608
   44bbb    H14 1268  -0.327   9.926   0.929  0.6010 -1.0333 -1.1642
   44bbb     C8 1269  -0.527   9.596   0.366  0.3631 -0.6078 -0.0146
   44bbb    H15 1270  -0.515   9.494   0.328 -2.2382 -0.9034 -0.1743
   44bbb    H16 1271  -0.449   9.666   0.333 -0.6270  1.1621  1.1961
   44bbb     C9 1272  -0.121   9.373   0.949 -0.9644  0.6774 -0.0274
   44bbb    H17 1273  -0.056   9.438   0.890  1.5583 -2.4996 -1.0403
   44bbb    H18 1274  -0.083   9.371   1.052 -0.5523  0.3435 -0.1838
   44bbb     O1 1275  -0.438   9.791   1.048  0.2577  0.4567 -0.3273
   45bbb     N1 1276  -0.486  11.735   2.483  0.4636 -0.7156  0.0916
   45bbb     C1 1277  -0.611  11.800   2.427  1.3930 -0.6671 -1.0024
   45bbb     H1 1278  -0.632  11.779   2.321 -3.9413 -1.0686 -0.1554
   45bbb     H2 1279  -0.603  11.908   2.443  0.4045 -0.8951  1.3772
   45bbb     C2 1280  -0.479  11.752   2.631  0.4638  0.4937 -0.3001
   45bbb     H3 1281  -0.380  11.719   2.667  0.4190  1.3927  0.6750
   45bbb     H4 1282  -0.561  11.696   2.677 -0.5729  1.3608 -1.0672
   45bbb     C3 1283  -0.475  11.595   2.436  0.2969 -0.4374  0.3215
   45bbb     H5 1284  -0.491  11.598   2.328  1.3846 -0.3865  0.1490
   45bbb     H6 1285  -0.553  11.534   2.484 -0.3257  1.1094  1.3295
   45bbb     C4 1286  -0.336  11.538   2.459  0.1690 -0.1448 -0.4730
   45bbb     H7 1287  -0.316  11.525   2.566 -1.2779 -0.5277 -0.2274
   45bbb     H8 1288  -0.256  11.599   2.415  1.8836 -0.3814  2.1790
   45bbb     C5 1289  -0.746  11.751   2.492 -0.1730 -0.4113 -0.2439
   45bbb     H9 1290  -0.742  11.799   2.590 -1.3744 -1.5421  0.3856
   45bbb    H10 1291  -0.761  11.645   2.513 -2.3346 -0.2246 -0.6442
   45bbb     C6 1292  -0.484  11.894   2.688 -0.1200  0.5864  0.3117
   45bbb    H11 1293  -0.579  11.940   2.657 -1.1662 -3.0053 -2.4637
   45bbb    H12 1294  -0.409  11.961   2.644  1.7805 -0.6064  1.5549
   45bbb     C7 1295  -0.316  11.392   2.410 -0.2725  1.0681 -0.0217
   45bbb    H13 1296  -0.331  11.385   2.302  1.0721 -0.5569 -0.1623
   45bbb    H14 1297  -0.391  11.324   2.453 -0.2920  1.3839  0.4546
   45bbb     C8 1298  -0.465  11.894   2.840 -0.0156  0.2484  0.7009
   45bbb    H15 1299  -0.363  11.869   2.870  0.5034  0.9862 -0.4049
   45bbb    H16 1300  -0.523  11.812   2.883  0.3661 -0.1849  0.3858
   45bbb     C9 1301  -0.868  11.803   2.415 -0.4635  0.1401 -0.2626
   45bbb    H17 1302  -0.863  11.756   2.316 -0.2464 -0.2193 -0.0828
   45bbb    H18 1303  -0.868  11.912   2.401  3.0610  0.2852 -0.1786
   45bbb     O1 1304  -0.183  11.340   2.436 -0.0596 -0.3295  0.0351
   46bbb     N1 1305  -0.678  10.632   1.753 -0.1727 -0.0962 -0.3401
   46bbb     C1 1306  -0.666  10.499   1.812  0.3214  1.2499 -0.5159
   46bbb     H1 1307  -0.562  10.466   1.827 -0.4581 -1.7785 -1.0267
   46bbb     H2 1308  -0.712  10.418   1.753  1.6563 -0.1622  0.3106
   46bbb     C2 1309  -0.651  10.641   1.611  0.1716 -0.0052  0.3421
   46bbb     H3 1310  -0.543  10.626   1.594 -0.1568 -1.9256 -0.3331
   46bbb     H4 1311  -0.683  10.741   1.579 -2.0347 -0.0870  2.0534
   46bbb     C3 1312  -0.619  10.750   1.825  0.4324 -0.5392  0.3976
   46bbb     H5 1313  -0.667  10.762   1.923 -1.3282 -1.2414 -0.3221
   46bbb     H6 1314  -0.637  10.839   1.764  0.2733 -2.5003 -2.6509
   46bbb     C4 1315  -0.463  10.736   1.845 -0.0743 -0.1203  0.1573
   46bbb     H7 1316  -0.417  10.735   1.746 -2.6777 -1.1557 -1.1500
   46bbb     H8 1317  -0.457  10.638   1.894 -1.2977  0.5101  1.6703
   46bbb     C5 1318  -0.732  10.494   1.958 -0.1273 -0.1525  0.1698
   46bbb     H9 1319  -0.837  10.522   1.941 -0.7235 -2.1283  0.3711
   46bbb    H10 1320  -0.685  10.568   2.025  0.0617  0.6808 -0.8391
   46bbb     C6 1321  -0.714  10.535   1.520  0.1920 -0.0136  0.3274
   46bbb    H11 1322  -0.692  10.436   1.560 -0.0749 -0.0885  0.2881
   46bbb    H12 1323  -0.674  10.546   1.418  1.5138 -2.4145  0.5218
   46bbb     C7 1324  -0.405  10.845   1.937  0.1187 -0.3959 -0.1084
   46bbb    H13 1325  -0.470  10.850   2.026  0.9605 -1.1428  0.5612
   46bbb    H14 1326  -0.408  10.943   1.889 -1.1433 -0.6820 -0.6548
   46bbb     C8 1327  -0.869  10.546   1.528 -0.6232 -0.1852  1.0950
   46bbb    H15 1328  -0.910  10.639   1.488  0.4722 -0.0519  0.2374
   46bbb    H16 1329  -0.900  10.534   1.633 -0.3281 -1.8019  1.0227
   46bbb     C9 1330  -0.741  10.355   2.023  0.4019 -0.5018  0.0028
   46bbb    H17 1331  -0.765  10.366   2.129  1.4198  0.3010  0.1630
   46bbb    H18 1332  -0.640  10.315   2.025  0.4035 -0.4951  0.0448
   46bbb     O1 1333  -0.272  10.819   1.969 -0.2018 -0.2456 -0.0242
   47ccc     C1 1334   1.266   9.323   3.458  0.5248 -0.0718  0.1799
   47ccc     H1 1335   1.291   9.241   3.391 -0.6818  0.6270 -1.2001
   47ccc     H2 1336   1.166   9.356   3.430  1.1608 -0.7978 -3.4748
   47ccc     C2 1337   1.352   9.444   3.453 -0.3978 -0.4213 -0.5320
   47ccc     H3 1338   1.325   9.507   3.538  3.0061  0.3297  0.1520
   47ccc     H4 1339   1.454   9.415   3.483 -1.1332 -1.5710  0.9162
   47ccc     C3 1340   1.334   9.515   3.320 -0.1710 -0.2671 -0.7900
   47ccc     H5 1341   1.415   9.589   3.311  0.6383 -0.9953  0.2605
   47ccc     H6 1342   1.241   9.572   3.319 -0.7396 -1.1445 -2.7238
   47ccc     N1 1343   1.253   9.265   3.595  0.1670 -0.0400  0.2629
   47ccc     H7 1344   1.185   9.188   3.591  1.1626 -0.8992 -1.7678
   47ccc     H8 1345   1.345   9.230   3.627  0.2661  0.1946  0.2366
   47ccc     O1 1346   1.331   9.437   3.204 -0.5502 -0.5664  0.3140
   47ccc    H17 1347   1.212   9.338   3.655 -2.9165 -1.5135  0.1145
   48ccc     C1 1348   1.920   9.681   2.640 -0.1302  0.5725  0.2479
   48ccc     H1 1349   1.920   9.714   2.744  1.9237 -1.0512  0.8206
   48ccc     H2 1350   1.821   9.638   2.625  0.3574 -0.5098  0.0725
   48ccc     C2 1351   2.021   9.567   2.636 -0.0533  0.2300  0.3789
   48ccc     H3 1352   2.031   9.523   2.536 -0.0155  1.3952 -0.1455
   48ccc     H4 1353   2.124   9.596   2.660 -0.0297 -1.9560  3.5355
   48ccc     C3 1354   1.984   9.448   2.731 -0.2346  0.1685  0.8468
   48ccc     H5 1355   2.010   9.461   2.837  0.4984 -0.4465  0.7467
   48ccc     H6 1356   2.042   9.362   2.695  3.4157  2.3799  0.9442
   48ccc     N1 1357   1.923   9.801   2.546  0.2127  0.1865 -0.4084
   48ccc     H7 1358   1.842   9.862   2.561 -0.1335 -0.7338  1.9554
   48ccc     H8 1359   2.008   9.857   2.553 -0.0777  0.5282  0.4397
   48ccc     O1 1360   1.837   9.429   2.708 -0.4967  0.5949 -0.1023
   48ccc    H17 1361   1.912   9.764   2.450  0.0665 -2.5544  0.5831
   49ccc     C1 1362   0.373  11.136   2.443 -0.2805 -0.1347 -0.6031
   49ccc     H1 1363   0.356  11.031   2.416 -0.8589 -0.0507 -0.5749
   49ccc     H2 1364   0.277  11.186   2.457  0.0984  0.3961  0.1414
   49ccc     C2 1365   0.442  11.220   2.330  0.3576 -0.1364 -0.0798
   49ccc     H3 1366   0.440  11.324   2.366  3.6718  0.4087 -1.1212
   49ccc     H4 1367   0.548  11.193   2.329  0.2800 -0.4585  0.1513
   49ccc     C3 1368   0.372  11.209   2.193 -0.6774 -0.0826  0.4444
   49ccc     H5 1369   0.420  11.276   2.121  0.1729  2.8714  3.5379
   49ccc     H6 1370   0.274  11.256   2.208  0.0165  1.3479  0.5878
   49ccc     N1 1371   0.450  11.141   2.573 -0.1406 -0.4197 -0.3925
   49ccc     H7 1372   0.416  11.067   2.637 -0.7456 -1.1843 -1.5615
   49ccc     H8 1373   0.550  11.129   2.551 -0.7011  0.3634 -3.9619
   49ccc     O1 1374   0.369  11.073   2.147 -0.2192  0.5198 -0.2080
   49ccc    H17 1375   0.448  11.233   2.620 -1.7396 -0.7638  0.3089
   50ccc     C1 1376   0.960  10.853   1.422  0.0893 -0.3154 -0.2158
   50ccc     H1 1377   0.917  10.774   1.361  2.5765 -0.9007 -1.3627
   50ccc     H2 1378   1.065  10.827   1.441  0.3488  0.2760 -0.8100
   50ccc     C2 1379   0.885  10.870   1.560 -0.1750 -0.1424  0.8903
   50ccc     H3 1380   0.925  10.960   1.609 -1.4046  0.8480  0.1563
   50ccc     H4 1381   0.777  10.885   1.548 -0.2573 -1.8473 -1.1202
   50ccc     C3 1382   0.908  10.749   1.647  0.0294 -0.3535  0.9533
   50ccc     H5 1383   1.016  10.746   1.667  0.8339 -1.2917 -2.7528
   50ccc     H6 1384   0.876  10.656   1.599  0.1061 -0.7441  1.6561
   50ccc     N1 1385   0.961  10.985   1.344 -0.4015  0.6685 -0.8089
   50ccc     H7 1386   0.898  11.060   1.376 -2.6471 -0.4813 -2.2495
   50ccc     H8 1387   1.055  11.026   1.352 -0.6625  1.1891 -0.3180
   50ccc     O1 1388   0.840  10.761   1.769 -0.2812 -0.0419 -0.1143
   50ccc    H17 1389   0.946  10.979   1.243 -0.3791 -3.8846 -0.7501
   51ccc     C1 1390   0.701  10.955   0.763  0.4442 -1.0724 -0.0580
   51ccc     H1 1391   0.696  10.882   0.844 -1.3136 -0.6589  0.2661
   51ccc     H2 1392   0.655  11.052   0.782 -0.9251 -1.1485 -2.5388
   51ccc     C2 1393   0.617  10.896   0.652 -0.4334  0.2364 -0.2125
   51ccc     H3 1394   0.639  10.947   0.558 -1.3872  0.4896 -0.3084
   51ccc     H4 1395   0.645  10.790   0.651 -1.7222 -0.1935  1.7954
   51ccc     C3 1396   0.470  10.910   0.674  0.0161  0.2522  0.2933
   51ccc     H5 1397   0.441  10.823   0.734 -0.3634 -1.0406 -1.6344
   51ccc     H6 1398   0.419  10.905   0.576  1.3737  3.0885 -0.6510
   51ccc     N1 1399   0.845  10.977   0.734  0.2074 -0.1830 -0.3107
   51ccc     H7 1400   0.896  11.024   0.810 -0.5495 -0.6320  0.5015
   51ccc     H8 1401   0.885  10.888   0.701 -2.9154 -2.7989  2.2773
   51ccc     O1 1402   0.432  11.037   0.728  0.6294 -0.3623 -0.3789
   51ccc    H17 1403   0.855  11.038   0.652  0.5930  1.0945  0.6581
   52ccc     C1 1404  -0.019  10.530   0.867 -1.1591 -0.7084 -0.3653
   52ccc     H1 1405  -0.074  10.614   0.910  0.9218  1.7622 -2.2301
   52ccc     H2 1406  -0.061  10.439   0.911  0.6700 -1.1392  0.5506
   52ccc     C2 1407   0.132  10.561   0.904 -0.3403  0.3472  0.1800
   52ccc     H3 1408   0.193  10.477   0.867  2.8115  2.0103  1.2288
   52ccc     H4 1409   0.171  10.651   0.856 -0.4065  1.5008  2.1496
   52ccc     C3 1410   0.145  10.580   1.060 -1.0381  0.6836  0.1522
   52ccc     H5 1411   0.253  10.597   1.070 -1.0563  1.1795 -0.4399
   52ccc     H6 1412   0.106  10.496   1.119 -2.9134  1.8899  0.7151
   52ccc     N1 1413  -0.047  10.533   0.724  0.4036  0.0474  0.2938
   52ccc     H7 1414  -0.022  10.625   0.684 -0.5820  0.8913  1.5251
   52ccc     H8 1415   0.011  10.466   0.671  0.5164  1.1388 -1.0305
   52ccc     O1 1416   0.074  10.700   1.095  0.3827  0.5193 -0.2457
   52ccc    H17 1417  -0.143  10.505   0.699  0.3644  0.4408 -0.0072
   53ccc     C1 1418  -0.480  10.289   3.093 -0.7603 -0.1024 -0.3150
   53ccc     H1 1419  -0.496  10.345   3.001  0.4786 -1.4620 -1.4111
   53ccc     H2 1420  -0.547  10.330   3.168  0.3127 -1.2938  1.3712
   53ccc     C2 1421  -0.324  10.305   3.126  0.2827 -0.1602 -0.5138
   53ccc     H3 1422  -0.289  10.404   3.155 -2.6157  1.1109 -1.0204
   53ccc     H4 1423  -0.311  10.239   3.213 -1.1968 -1.6402 -1.3666
   53ccc     C3 1424  -0.246  10.237   3.009  0.4242  0.3084  0.3476
   53ccc     H5 1425  -0.288  10.263   2.911  0.0931 -3.6637 -0.7413
   53ccc     H6 1426  -0.247  10.127   3.011 -2.2317  0.1889 -1.5656
   53ccc     N1 1427  -0.515  10.138   3.074  0.1512 -0.1007 -0.6143
   53ccc     H7 1428  -0.480  10.073   3.146  2.8543  0.1193 -1.5908
   53ccc     H8 1429  -0.618  10.142   3.077  0.1552  0.4081  2.7012
   53ccc     O1 1430  -0.117  10.299   3.005  0.1985  0.1813 -0.4952
   53ccc    H17 1431  -0.489  10.110   2.978  1.0322 -2.2884  0.1907
   54ccc     C1 1432   0.601  10.680   3.248  0.0217  0.5353  0.1836
   54ccc     H1 1433   0.510  10.675   3.187  1.0527 -2.7309 -1.3416
   54ccc     H2 1434   0.665  10.753   3.197 -0.9833 -0.4341 -2.6693
   54ccc     C2 1435   0.668  10.540   3.239  0.3987  0.0560  0.2367
   54ccc     H3 1436   0.747  10.529   3.315  2.2206 -0.4226 -1.6373
   54ccc     H4 1437   0.599  10.461   3.273 -0.2412  0.0151 -1.1045
   54ccc     C3 1438   0.733  10.517   3.099  0.8311 -0.7870 -0.6592
   54ccc     H5 1439   0.804  10.433   3.109  0.0467 -1.3162  0.7301
   54ccc     H6 1440   0.796  10.601   3.070  1.6122 -0.8010  0.8999
   54ccc     N1 1441   0.586  10.737   3.392 -0.0440  0.5375 -0.1255
   54ccc     H7 1442   0.494  10.734   3.438  0.0609 -1.7477  0.0299
   54ccc     H8 1443   0.650  10.689   3.456  0.4974  1.0748 -0.2490
   54ccc     O1 1444   0.634  10.513   2.994  0.5031 -0.5864 -0.3539
   54ccc    H17 1445   0.610  10.838   3.394  1.8150  0.1351  1.2380
   55ccc     C1 1446  -1.253  12.741   1.640 -0.2611 -0.0530  0.0787
   55ccc     H1 1447  -1.259  12.644   1.689  0.6987 -0.3315 -0.3366
   55ccc     H2 1448  -1.242  12.733   1.531  0.0658 -0.0830  0.1133
   55ccc     C2 1449  -1.133  12.822   1.692  0.1910 -0.7591  0.1512
   55ccc     H3 1450  -1.145  12.920   1.643 -3.2841 -0.1468  1.8309
   55ccc     H4 1451  -1.152  12.848   1.797 -2.7583  1.4567 -0.7910
   55ccc     C3 1452  -0.996  12.753   1.659  0.0120 -0.1086  0.1799
   55ccc     H5 1453  -0.919  12.818   1.704 -0.1890  1.2874 -1.3759
   55ccc     H6 1454  -0.971  12.749   1.552  2.4199 -1.5830  0.7174
   55ccc     N1 1455  -1.385  12.801   1.670 -0.0502  0.4799 -0.1008
   55ccc     H7 1456  -1.381  12.897   1.633  2.2909  0.3575 -0.2982
   55ccc     H8 1457  -1.463  12.750   1.626  0.4221 -1.5736  1.2878
   55ccc     O1 1458  -0.996  12.622   1.715  0.1039 -0.4944  0.0018
   55ccc    H17 1459  -1.414  12.805   1.769 -0.4137 -0.1760 -0.1772
   56ccc     C1 1460  -1.156  12.929   2.348 -0.4310  0.8428  0.2115
   56ccc     H1 1461  -1.052  12.957   2.369  0.2924 -0.4859 -1.3227
   56ccc     H2 1462  -1.181  12.841   2.407 -0.7282  0.3516 -0.6366
   56ccc     C2 1463  -1.170  12.889   2.203  0.4222  0.2539  0.9678
   56ccc     H3 1464  -1.274  12.864   2.180  0.8437 -3.1858  2.1604
   56ccc     H4 1465  -1.143  12.973   2.137 -0.0068  0.2624  0.7983
   56ccc     C3 1466  -1.090  12.761   2.168  0.0834  0.3899  0.2672
   56ccc     H5 1467  -0.989  12.770   2.209 -0.3738  2.0853  1.1020
   56ccc     H6 1468  -1.084  12.753   2.059  0.9903  2.2076  0.1517
   56ccc     N1 1469  -1.252  13.039   2.381  0.2524  0.5945 -0.2746
   56ccc     H7 1470  -1.225  13.094   2.463 -0.9208  0.3709  0.2811
   56ccc     H8 1471  -1.257  13.095   2.294 -0.4722 -0.4052 -0.9112
   56ccc     O1 1472  -1.164  12.646   2.220  0.0990 -0.2267 -0.0835
   56ccc    H17 1473  -1.347  13.007   2.406  1.3310 -0.4044  2.9603
   57ccc     C1 1474  -1.080  11.932   0.296 -0.2844  0.7522 -0.2533
   57ccc     H1 1475  -1.077  12.034   0.334  1.2196  0.7583 -0.2921
   57ccc     H2 1476  -1.180  11.909   0.259 -0.0306  2.2261 -1.9992
   57ccc     C2 1477  -1.054  11.826   0.409 -0.2575 -0.3273  0.3653
   57ccc     H3 1478  -1.122  11.742   0.391  0.1016 -0.3827 -0.8184
   57ccc     H4 1479  -0.952  11.786   0.398 -0.5775 -0.6545 -2.0698
   57ccc     C3 1480  -1.087  11.877   0.547 -0.3199  0.2486  0.6653
   57ccc     H5 1481  -1.089  11.792   0.616 -0.3434  1.1821  1.8417
   57ccc     H6 1482  -1.188  11.917   0.552 -0.6387 -0.5492  0.8302
   57ccc     N1 1483  -0.994  11.933   0.166  0.3220  0.0768 -0.8146
   57ccc     H7 1484  -0.896  11.963   0.181 -0.4458  1.4532  2.0779
   57ccc     H8 1485  -0.991  11.836   0.130  2.0536 -0.2447  0.0533
   57ccc     O1 1486  -0.984  11.972   0.586 -0.7482 -0.4172 -0.2174
   57ccc    H17 1487  -1.045  11.992   0.098  2.8613  0.9101 -2.1455
   58ccc     C1 1488  -1.153  11.335   0.567 -0.6362  0.0745  0.2282
   58ccc     H1 1489  -1.063  11.381   0.525 -0.8951 -0.6841 -1.2067
   58ccc     H2 1490  -1.237  11.362   0.503 -2.0949 -1.6451  1.3312
   58ccc     C2 1491  -1.180  11.399   0.701 -0.7034 -0.0387  0.2968
   58ccc     H3 1492  -1.228  11.493   0.672 -0.4710 -0.2784 -0.9306
   58ccc     H4 1493  -1.247  11.347   0.771 -0.2059 -0.5663  0.3892
   58ccc     C3 1494  -1.048  11.427   0.778  0.3810 -0.5334  0.6084
   58ccc     H5 1495  -0.983  11.339   0.765  0.7868  0.1320 -2.9439
   58ccc     H6 1496  -1.068  11.448   0.884 -1.2133  0.1712  0.1923
   58ccc     N1 1497  -1.130  11.188   0.568  0.0085 -0.1560 -0.0244
   58ccc     H7 1498  -1.066  11.160   0.643  0.4017 -3.9321 -1.5307
   58ccc     H8 1499  -1.214  11.132   0.591  1.4785 -1.7262  1.7691
   58ccc     O1 1500  -0.989  11.542   0.727 -0.3374 -0.2758  0.2335
   58ccc    H17 1501  -1.102  11.159   0.473 -0.2783  0.7483 -0.3965
   59ccc     C1 1502  -0.124  11.629   1.426  0.1273  0.0903 -0.2983
   59ccc     H1 1503  -0.075  11.722   1.398  0.5701 -0.6618 -2.1974
   59ccc     H2 1504  -0.232  11.646   1.434  0.0602 -0.0482 -0.8685
   59ccc     C2 1505  -0.065  11.580   1.563  1.0410 -1.0590 -0.4617
   59ccc     H3 1506  -0.102  11.479   1.581  1.1471 -0.8087  1.3163
   59ccc     H4 1507   0.045  11.584   1.554  1.1420  0.9187  1.0058
   59ccc     C3 1508  -0.110  11.676   1.673 -0.3235  0.3167 -0.5931
   59ccc     H5 1509  -0.062  11.648   1.768 -0.7441  0.3273 -0.3798
   59ccc     H6 1510  -0.218  11.672   1.684 -0.2497 -1.3859 -0.3104
   59ccc     N1 1511  -0.101  11.526   1.318 -0.3047  0.6269  0.4503
   59ccc     H7 1512  -0.104  11.566   1.223  1.1593 -0.3566 -0.0656
   59ccc     H8 1513  -0.009  11.480   1.328 -0.5021  0.3904  1.2751
   59ccc     O1 1514  -0.079  11.809   1.641  0.0313  0.3748 -0.0213
   59ccc    H17 1515  -0.166  11.446   1.322  0.9585 -0.4361  0.5172
   60ccc     C1 1516  -0.244  12.829   1.745 -0.1457 -0.0762 -0.1522
   60ccc     H1 1517  -0.350  12.849   1.760  0.1621  0.5109  1.4868
   60ccc     H2 1518  -0.212  12.933   1.740  0.6178 -0.2332  1.1462
   60ccc     C2 1519  -0.239  12.769   1.597 -0.1352  0.4549 -0.0019
   60ccc     H3 1520  -0.286  12.849   1.539 -1.2585 -0.3594 -0.2715
   60ccc     H4 1521  -0.137  12.749   1.561  0.3533  2.9167 -0.1573
   60ccc     C3 1522  -0.333  12.646   1.581 -0.3741 -0.4857  0.1490
   60ccc     H5 1523  -0.351  12.625   1.475  0.7906  0.1529 -0.1905
   60ccc     H6 1524  -0.428  12.677   1.628  0.4868  0.2652  1.4584
   60ccc     N1 1525  -0.193  12.747   1.862 -0.2478  0.1163  0.3452
   60ccc     H7 1526  -0.237  12.654   1.864  0.7795 -0.3997 -0.4187
   60ccc     H8 1527  -0.097  12.710   1.857 -1.1793 -3.3697  3.4477
   60ccc     O1 1528  -0.281  12.536   1.657 -0.1419  0.3498  0.3412
   60ccc    H17 1529  -0.212  12.806   1.945 -0.8801  0.4891 -0.0481
   61ccc     C1 1530  -0.607  10.541   2.382 -0.4257  0.5377  0.0153
   61ccc     H1 1531  -0.617  10.476   2.295 -1.0632  1.3288 -0.5225
   61ccc     H2 1532  -0.657  10.637   2.370  0.5486  0.9520 -0.7736
   61ccc     C2 1533  -0.449  10.574   2.411 -0.3055  0.0251 -0.0672
   61ccc     H3 1534  -0.432  10.619   2.509  1.0737  0.7436 -0.6049
   61ccc     H4 1535  -0.386  10.485   2.424 -1.3841 -0.3703  3.7630
   61ccc     C3 1536  -0.381  10.669   2.308 -0.0522 -0.1490 -0.5700
   61ccc     H5 1537  -0.414  10.621   2.215 -1.7205  0.6470 -0.4218
   61ccc     H6 1538  -0.272  10.676   2.319 -0.2405  0.5506  1.0885
   61ccc     N1 1539  -0.665  10.464   2.501 -0.2544  0.0853  0.1833
   61ccc     H7 1540  -0.767  10.451   2.488 -0.2100  0.3293 -0.5001
   61ccc     H8 1541  -0.622  10.371   2.510 -1.6085 -0.3263  3.5975
   61ccc     O1 1542  -0.440  10.798   2.318  0.5265 -0.5995  0.1919
   61ccc    H17 1543  -0.648  10.521   2.585 -0.3496  1.3206 -0.5987
   62ccc     C1 1544  -0.960  11.743   2.939 -0.3375 -0.2535 -0.2746
   62ccc     H1 1545  -0.974  11.667   3.016  0.7242 -0.6221 -0.4281
   62ccc     H2 1546  -1.033  11.822   2.956  1.2216  1.6105 -1.8303
   62ccc     C2 1547  -0.959  11.675   2.800  0.4880 -0.6827 -0.5197
   62ccc     H3 1548  -1.053  11.623   2.777 -1.4180  1.5826  1.5912
   62ccc     H4 1549  -0.948  11.757   2.728  1.4258 -0.5496 -0.2456
   62ccc     C3 1550  -0.843  11.576   2.794 -0.6362 -0.0091  0.5688
   62ccc     H5 1551  -0.819  11.522   2.887  0.1548 -1.1264 -0.2604
   62ccc     H6 1552  -0.753  11.627   2.758 -0.3524 -0.4296  0.6694
   62ccc     N1 1553  -0.836  11.828   2.976  1.0335  0.0756 -0.0319
   62ccc     H7 1554  -0.840  11.862   3.074 -0.0514 -0.3033  0.0682
   62ccc     H8 1555  -0.747  11.777   2.973  0.7872 -0.5216  1.6000
   62ccc     O1 1556  -0.871  11.472   2.702  0.0897 -0.4801  0.2463
   62ccc    H17 1557  -0.826  11.914   2.920 -0.0851  0.6416  0.5936
   63ccc     C1 1558   0.624   8.559  -0.344 -0.2712 -0.4814  0.2630
   63ccc     H1 1559   0.677   8.530  -0.434  1.2610  0.4816  0.8117
   63ccc     H2 1560   0.677   8.646  -0.303  2.3690 -1.3142 -1.1735
   63ccc     C2 1561   0.625   8.441  -0.242  0.5275 -0.1581 -0.4458
   63ccc     H3 1562   0.554   8.364  -0.277 -1.2798  1.6205 -0.8534
   63ccc     H4 1563   0.725   8.397  -0.235  0.4042 -0.2396  1.5032
   63ccc     C3 1564   0.594   8.493  -0.100 -0.5263 -0.3398 -0.6049
   63ccc     H5 1565   0.636   8.421  -0.028 -0.7526  1.3349  1.2956
   63ccc     H6 1566   0.486   8.503  -0.083 -0.3035  0.4634  0.4093
   63ccc     N1 1567   0.486   8.598  -0.396 -0.5928  0.2509 -0.6376
   63ccc     H7 1568   0.436   8.521  -0.443 -1.2903 -0.2812  0.9296
   63ccc     H8 1569   0.429   8.640  -0.322 -0.1255 -1.4126  0.7467
   63ccc     O1 1570   0.660   8.621  -0.078  0.3087  0.2258  0.5297
   63ccc    H17 1571   0.498   8.668  -0.471  0.5446 -0.2312 -0.9347
   64ccc     C1 1572   0.945   9.806   0.281 -0.4474  0.5795  0.4850
   64ccc     H1 1573   0.996   9.782   0.375  1.2977  1.0399 -0.3015
   64ccc     H2 1574   0.839   9.821   0.301  0.0925  2.7549  2.1171
   64ccc     C2 1575   0.967   9.687   0.180 -0.2081 -0.0656  0.1379
   64ccc     H3 1576   0.920   9.716   0.085 -0.4226  1.2674  0.6261
   64ccc     H4 1577   1.075   9.677   0.163  0.4217  2.2407  2.2016
   64ccc     C3 1578   0.928   9.554   0.239  0.5614 -0.6132 -0.8401
   64ccc     H5 1579   0.831   9.558   0.291  1.8411  1.3613  1.5610
   64ccc     H6 1580   0.996   9.522   0.317 -0.8826 -1.1672  0.2362
   64ccc     N1 1581   1.007   9.941   0.225  0.2145  0.8329 -0.3241
   64ccc     H7 1582   1.109   9.933   0.223  0.1307 -0.4694 -0.0645
   64ccc     H8 1583   0.988   9.966   0.126 -1.6771  2.3009  0.3530
   64ccc     O1 1584   0.936   9.457   0.130 -0.1809 -0.0886 -0.0581
   64ccc    H17 1585   0.989  10.027   0.278 -2.0919  0.6749 -0.7046
   65ccc     C1 1586   2.103   9.587   0.392 -0.5804 -0.7525  0.3396
   65ccc     H1 1587   2.091   9.628   0.292 -2.5310 -3.5521 -0.7045
   65ccc     H2 1588   2.155   9.492   0.385 -1.8358 -1.3817 -0.9784
   65ccc     C2 1589   1.972   9.551   0.466 -0.3851 -0.4527 -0.0065
   65ccc     H3 1590   2.002   9.497   0.557  1.9431  0.1296 -0.3846
   65ccc     H4 1591   1.925   9.649   0.481 -1.3563 -1.0552  1.0553
   65ccc     C3 1592   1.881   9.460   0.397  0.0654 -0.1429 -0.0788
   65ccc     H5 1593   1.925   9.362   0.372 -1.1436 -0.9416  0.7911
   65ccc     H6 1594   1.839   9.507   0.307 -0.9231 -0.4760  0.1961
   65ccc     N1 1595   2.169   9.705   0.464 -0.0076 -0.3924 -0.1568
   65ccc     H7 1596   2.270   9.684   0.475  0.0180  0.7947  2.8077
   65ccc     H8 1597   2.155   9.789   0.407 -0.0085 -1.4988 -1.8847
   65ccc     O1 1598   1.776   9.440   0.486  0.4481 -0.4512 -0.1731
   65ccc    H17 1599   2.128   9.721   0.557 -0.3214  1.7604 -0.6299
   66ccc     C1 1600   1.277   8.369   0.756 -0.6478  0.0646 -0.4139
   66ccc     H1 1601   1.332   8.292   0.701 -1.2004 -1.8926  1.6215
   66ccc     H2 1602   1.172   8.356   0.730 -1.0879  0.1803  1.2359
   66ccc     C2 1603   1.330   8.508   0.733 -0.2172 -0.2388  0.1533
   66ccc     H3 1604   1.273   8.591   0.775 -2.0940 -1.8411  0.9164
   66ccc     H4 1605   1.424   8.506   0.789  0.0818 -0.9629 -0.3479
   66ccc     C3 1606   1.367   8.532   0.581 -0.4595 -0.6653 -0.0943
   66ccc     H5 1607   1.288   8.498   0.512 -1.7857 -0.8690  1.4588
   66ccc     H6 1608   1.455   8.470   0.564  0.3233 -0.4795  2.8008
   66ccc     N1 1609   1.288   8.304   0.902 -0.0620 -0.5535 -0.0729
   66ccc     H7 1610   1.343   8.361   0.967 -1.1284  0.2382  0.1708
   66ccc     H8 1611   1.191   8.291   0.936 -0.4917 -0.7692 -1.3213
   66ccc     O1 1612   1.397   8.674   0.571 -0.2867 -0.8793 -0.5993
   66ccc    H17 1613   1.335   8.212   0.903  1.8022  0.3645  0.2717
   67ccc     C1 1614   1.430   9.602  -1.275  0.0812  0.2445  0.5254
   67ccc     H1 1615   1.476   9.647  -1.363  0.5627 -0.5827  0.3506
   67ccc     H2 1616   1.483   9.507  -1.274 -0.8290 -0.2922 -0.2191
   67ccc     C2 1617   1.279   9.580  -1.292  0.1898 -0.3992 -0.3884
   67ccc     H3 1618   1.231   9.678  -1.305 -1.4262 -1.0882  0.0233
   67ccc     H4 1619   1.260   9.520  -1.382  1.0669 -1.8492  0.3541
   67ccc     C3 1620   1.216   9.485  -1.183  0.0843 -0.2839  1.0200
   67ccc     H5 1621   1.116   9.448  -1.209  0.5036 -1.2369  0.7136
   67ccc     H6 1622   1.198   9.535  -1.087 -2.6329 -1.6748  1.3089
   67ccc     N1 1623   1.459   9.682  -1.149 -0.3742 -0.0662  0.1919
   67ccc     H7 1624   1.559   9.688  -1.127 -0.6282 -1.3887  1.9056
   67ccc     H8 1625   1.438   9.783  -1.154 -1.2314 -0.2667 -0.6289
   67ccc     O1 1626   1.300   9.369  -1.171  0.1271  0.1256 -0.2496
   67ccc    H17 1627   1.410   9.635  -1.072  1.1614 -1.2854  0.4782
   68ccc     C1 1628   1.091   8.615  -0.876 -0.1656  0.2488 -0.2171
   68ccc     H1 1629   1.146   8.705  -0.906 -1.4403  1.3340  0.5861
   68ccc     H2 1630   1.007   8.619  -0.946 -0.5746 -2.4016  0.0377
   68ccc     C2 1631   1.052   8.620  -0.725 -0.4002  0.1431 -0.5083
   68ccc     H3 1632   0.996   8.530  -0.698 -2.1344  1.1525 -0.5597
   68ccc     H4 1633   1.142   8.632  -0.664  0.3487 -0.3062 -1.5005
   68ccc     C3 1634   0.963   8.743  -0.684 -0.9535 -0.1707 -0.3822
   68ccc     H5 1635   0.951   8.742  -0.575  0.1723 -0.2671 -0.2451
   68ccc     H6 1636   0.862   8.741  -0.725 -2.5209 -1.3756  3.1031
   68ccc     N1 1637   1.166   8.481  -0.913  0.2156 -0.1707  0.2372
   68ccc     H7 1638   1.183   8.468  -1.014 -0.7533 -0.8353  0.1458
   68ccc     H8 1639   1.257   8.465  -0.869  1.2966  0.4063 -1.6539
   68ccc     O1 1640   1.024   8.867  -0.715 -0.0010 -0.5584  0.2537
   68ccc    H17 1641   1.112   8.402  -0.877  0.4735 -0.2749  0.3958
   69ccc     C1 1642   0.407   8.313   0.293  0.1295  0.4620 -0.2918
   69ccc     H1 1643   0.397   8.254   0.384 -0.7984  0.9507 -0.0713
   69ccc     H2 1644   0.509   8.292   0.259 -0.2631 -1.9990 -0.1636
   69ccc     C2 1645   0.390   8.466   0.322  0.2078  0.2148  0.7308
   69ccc     H3 1646   0.347   8.527   0.242  0.1817 -1.1943 -0.3625
   69ccc     H4 1647   0.307   8.459   0.393  1.7754 -2.7900  2.5115
   69ccc     C3 1648   0.516   8.525   0.384 -0.0889 -0.7815  0.1844
   69ccc     H5 1649   0.511   8.488   0.487 -0.2454 -1.3979 -0.0423
   69ccc     H6 1650   0.504   8.634   0.378 -1.1171 -0.9421 -0.8685
   69ccc     N1 1651   0.304   8.247   0.208  0.6682  0.3356  0.1630
   69ccc     H7 1652   0.299   8.146   0.224  2.2302 -0.0263 -1.3460
   69ccc     H8 1653   0.206   8.278   0.210 -0.4037 -2.4623 -1.9092
   69ccc     O1 1654   0.637   8.482   0.325 -0.9830 -0.0480  0.5126
   69ccc    H17 1655   0.339   8.250   0.111  1.3549 -0.2027  0.3849
   70ccc     C1 1656   1.675   8.376   0.194  0.0575  0.4853 -0.0410
   70ccc     H1 1657   1.782   8.396   0.195  0.7199 -2.5387  0.3289
   70ccc     H2 1658   1.635   8.377   0.093 -2.6085  0.8629  0.9515
   70ccc     C2 1659   1.610   8.483   0.280 -0.1666 -0.5355 -0.1624
   70ccc     H3 1660   1.638   8.477   0.385 -0.9310  2.6761  0.3338
   70ccc     H4 1661   1.642   8.582   0.245 -0.6592 -0.7532 -1.2734
   70ccc     C3 1662   1.457   8.479   0.264 -0.4652  0.1902  0.1114
   70ccc     H5 1663   1.425   8.501   0.162  0.9916  0.6617 -0.2663
   70ccc     H6 1664   1.428   8.569   0.319 -2.4675 -0.0275 -0.5027
   70ccc     N1 1665   1.648   8.235   0.239 -0.0199 -0.7600  0.1411
   70ccc     H7 1666   1.687   8.167   0.173 -1.5993  0.3350 -2.0559
   70ccc     H8 1667   1.675   8.215   0.336  1.9982 -0.8831 -0.3915
   70ccc     O1 1668   1.396   8.362   0.316  0.2240  0.2869 -0.1471
   70ccc    H17 1669   1.549   8.207   0.237 -0.0222 -0.8832  1.3493
   71ccc     C1 1670   0.167   8.594   3.514  0.5612  0.0995  0.1103
   71ccc     H1 1671   0.179   8.491   3.550  0.1437 -0.0124 -0.0689
   71ccc     H2 1672   0.059   8.607   3.514  0.2389 -1.8423  2.0768
   71ccc     C2 1673   0.215   8.616   3.371  0.0351  0.4821  0.1548
   71ccc     H3 1674   0.145   8.573   3.298 -1.0501 -1.1268  2.0595
   71ccc     H4 1675   0.206   8.724   3.355 -2.9946  0.0433 -1.8171
   71ccc     C3 1676   0.358   8.560   3.338  0.4170 -0.1744 -0.1058
   71ccc     H5 1677   0.357   8.452   3.357  0.5222  0.1356  1.9345
   71ccc     H6 1678   0.434   8.598   3.407  1.0479  0.3560 -1.0751
   71ccc     N1 1679   0.218   8.691   3.613 -0.4060 -0.9563  0.4633
   71ccc     H7 1680   0.320   8.678   3.627  0.0548  1.5880  0.0104
   71ccc     H8 1681   0.211   8.790   3.584  0.7234 -1.6210 -2.3540
   71ccc     O1 1682   0.385   8.599   3.199  0.5123  0.3542 -0.3668
   71ccc    H17 1683   0.188   8.678   3.711 -0.9763 -0.9452  0.2909
   72ccc     C1 1684  -0.139   9.377   2.945 -0.4152  0.0843  0.3095
   72ccc     H1 1685  -0.140   9.433   2.851  1.5606 -0.6313 -0.1708
   72ccc     H2 1686  -0.153   9.445   3.030 -2.2974  0.9240 -0.6081
   72ccc     C2 1687   0.001   9.319   2.948 -1.0193  0.4125 -0.4457
   72ccc     H3 1688  -0.009   9.240   3.025 -2.8329  0.2265 -0.8184
   72ccc     H4 1689   0.029   9.276   2.851 -1.3464  1.0631 -0.8333
   72ccc     C3 1690   0.110   9.420   2.978  0.1633  0.3102 -0.3380
   72ccc     H5 1691   0.091   9.485   3.065  0.4460  1.6791 -1.2741
   72ccc     H6 1692   0.116   9.481   2.887  2.2026 -0.9175 -1.1015
   72ccc     N1 1693  -0.256   9.286   2.944  0.7376  0.3055  0.4650
   72ccc     H7 1694  -0.348   9.330   2.925  0.9568  0.0475 -1.4367
   72ccc     H8 1695  -0.232   9.221   2.867 -0.1475 -0.9137  1.1811
   72ccc     O1 1696   0.231   9.350   3.000  0.0768  0.2563  0.2226
   72ccc    H17 1697  -0.249   9.231   3.031  0.7429  1.0290  0.9233
   73ccc     C1 1698   1.154   9.269   1.183  0.6591  0.3149  0.1755
   73ccc     H1 1699   1.097   9.284   1.092  0.2666  0.1376  0.3899
   73ccc     H2 1700   1.121   9.181   1.238  3.9583 -1.0840  0.1895
   73ccc     C2 1701   1.141   9.404   1.262 -0.1818 -0.6307 -0.1623
   73ccc     H3 1702   1.231   9.425   1.320 -1.0592 -0.3294  1.1259
   73ccc     H4 1703   1.131   9.483   1.187  1.7344 -0.9669 -0.8285
   73ccc     C3 1704   1.016   9.416   1.346  0.1714 -0.0082  0.1937
   73ccc     H5 1705   1.035   9.355   1.435  2.2306  0.2430 -0.0240
   73ccc     H6 1706   0.924   9.385   1.297 -1.2104  1.4800  1.7142
   73ccc     N1 1707   1.300   9.237   1.160  0.4261  0.0952 -0.0213
   73ccc     H7 1708   1.348   9.306   1.100  3.1102 -1.1839  0.4741
   73ccc     H8 1709   1.353   9.235   1.248  2.5765 -2.3257 -1.2156
   73ccc     O1 1710   1.011   9.561   1.384 -0.0057  0.2111 -0.2503
   73ccc    H17 1711   1.313   9.146   1.114  1.1841  0.6897 -1.0390
   74ccc     C1 1712   0.947   8.995   1.889 -0.4172 -1.1153  0.0518
   74ccc     H1 1713   0.969   9.102   1.899  0.0765 -1.2914  0.9038
   74ccc     H2 1714   0.954   8.972   1.783 -1.4292  0.0228 -0.2993
   74ccc     C2 1715   0.805   8.982   1.941  0.4729  0.1150  0.1456
   74ccc     H3 1716   0.765   8.880   1.926 -2.7974  1.1070  1.3444
   74ccc     H4 1717   0.805   9.014   2.045 -0.0769  1.9681 -0.3943
   74ccc     C3 1718   0.719   9.077   1.855 -0.2253  0.2717  0.1859
   74ccc     H5 1719   0.618   9.077   1.896 -0.4981 -0.7474 -0.4521
   74ccc     H6 1720   0.715   9.038   1.752  1.1501 -2.7640  1.1639
   74ccc     N1 1721   1.041   8.920   1.976 -0.2889  0.2801  0.4946
   74ccc     H7 1722   1.134   8.942   1.939 -0.8660  1.1180 -0.5331
   74ccc     H8 1723   1.045   8.964   2.069 -0.4467 -0.0644  0.6632
   74ccc     O1 1724   0.780   9.206   1.868  0.1040  0.5301  0.6871
   74ccc    H17 1725   1.024   8.819   1.973 -1.2357  0.3329  2.5519
   75ccc     C1 1726   0.554   9.928   3.615  0.0933 -0.4799  0.2828
   75ccc     H1 1727   0.632   9.856   3.590  0.5839  0.9355 -2.7355
   75ccc     H2 1728   0.479   9.878   3.676  1.4462 -1.3219  1.3346
   75ccc     C2 1729   0.493   9.963   3.478  0.7286  0.9469 -0.4553
   75ccc     H3 1730   0.421  10.044   3.495  0.4231  0.4435  0.7840
   75ccc     H4 1731   0.570   9.985   3.403 -0.3305  1.1784 -1.5203
   75ccc     C3 1732   0.401   9.844   3.431 -0.1237  0.5574  0.4663
   75ccc     H5 1733   0.345   9.890   3.349 -0.2360 -0.4254 -0.0272
   75ccc     H6 1734   0.334   9.809   3.510 -0.2450 -0.1031  0.0837
   75ccc     N1 1735   0.620  10.039   3.688  0.0030  0.1115  0.0071
   75ccc     H7 1736   0.554  10.104   3.733  1.6950  1.4034  0.7209
   75ccc     H8 1737   0.679  10.005   3.766  2.5807 -1.1198 -2.3190
   75ccc     O1 1738   0.479   9.730   3.376  0.3831  0.8216  0.4157
   75ccc    H17 1739   0.678  10.099   3.628 -2.1258  1.3488 -0.9260
   76ccc     C1 1740   1.236  10.056   3.165 -0.6921  0.2325 -0.0970
   76ccc     H1 1741   1.176  10.140   3.130  2.2781  2.4026 -0.3112
   76ccc     H2 1742   1.333  10.093   3.133 -0.2574 -0.7428  0.0595
   76ccc     C2 1743   1.210   9.922   3.090 -0.0900  0.6195 -0.3754
   76ccc     H3 1744   1.239   9.928   2.985  1.4797 -0.5944 -0.0526
   76ccc     H4 1745   1.279   9.845   3.127 -1.5125 -0.7422 -0.4270
   76ccc     C3 1746   1.066   9.862   3.103  1.1073  0.5157  0.4499
   76ccc     H5 1747   0.991   9.918   3.047  1.1689  0.0429 -0.1136
   76ccc     H6 1748   1.032   9.847   3.206 -2.6948  0.0988 -0.7024
   76ccc     N1 1749   1.244  10.053   3.314  0.2047  0.0067  0.0638
   76ccc     H7 1750   1.310   9.979   3.342  1.4748  0.7513 -0.8116
   76ccc     H8 1751   1.276  10.135   3.367 -1.8708  1.2516 -0.4937
   76ccc     O1 1752   1.076   9.725   3.050  0.3600  0.1258  0.8719
   76ccc    H17 1753   1.150  10.036   3.352 -0.7757 -0.9982 -2.5309
   77ccc     C1 1754   0.707  10.269   1.415 -0.3242 -0.3671  0.8925
   77ccc     H1 1755   0.647  10.261   1.324 -1.1588 -2.1555  1.5566
   77ccc     H2 1756   0.700  10.188   1.487  0.1245  0.1131  1.4927
   77ccc     C2 1757   0.661  10.389   1.491 -0.1654  0.3488  1.1677
   77ccc     H3 1758   0.677  10.475   1.425  1.7482 -0.1152  0.9919
   77ccc     H4 1759   0.551  10.385   1.502  0.0083 -0.4026  3.1016
   77ccc     C3 1760   0.735  10.419   1.620 -0.1919 -0.5286 -0.0733
   77ccc     H5 1761   0.693  10.511   1.662  0.0086  0.0594 -1.1125
   77ccc     H6 1762   0.840  10.447   1.600  0.1762 -0.7140  1.5260
   77ccc     N1 1763   0.853  10.282   1.368 -0.2494 -0.4635  0.4730
   77ccc     H7 1764   0.856  10.346   1.288  1.1019 -1.9325 -0.7378
   77ccc     H8 1765   0.916  10.309   1.444 -1.7354  0.5318  1.4012
   77ccc     O1 1766   0.723  10.313   1.715  0.3589  0.1082 -0.9435
   77ccc    H17 1767   0.892  10.191   1.337 -0.4669 -0.5359  0.4044
   78ccc     C1 1768   1.343  10.616   2.420 -0.0741  0.5519 -0.2794
   78ccc     H1 1769   1.297  10.522   2.447  1.4633  0.3095  1.7012
   78ccc     H2 1770   1.375  10.676   2.506  1.1177 -1.2688  0.5997
   78ccc     C2 1771   1.257  10.700   2.321  0.6637 -0.2523 -0.6458
   78ccc     H3 1772   1.170  10.732   2.379  1.1188 -1.8798  1.0446
   78ccc     H4 1773   1.313  10.793   2.303  1.0409  0.0976  1.8926
   78ccc     C3 1774   1.224  10.633   2.191  0.1712 -0.4144  0.2629
   78ccc     H5 1775   1.311  10.580   2.150  0.4880  1.3098 -1.4555
   78ccc     H6 1776   1.180  10.690   2.108  2.0698 -1.0666 -1.2676
   78ccc     N1 1777   1.477  10.593   2.360 -0.0825 -0.3461 -0.1713
   78ccc     H7 1778   1.535  10.556   2.436 -0.0048 -2.6507 -1.2782
   78ccc     H8 1779   1.475  10.526   2.282 -1.8039 -2.6803  1.7103
   78ccc     O1 1780   1.138  10.529   2.237 -0.0302 -0.1318 -0.3475
   78ccc    H17 1781   1.515  10.684   2.329  1.1054 -0.8283 -0.1961
   79ccc     C1 1782   0.762  12.180   1.006 -0.3456  0.4713  0.6232
   79ccc     H1 1783   0.671  12.178   0.946  0.1236 -0.0580 -0.0891
   79ccc     H2 1784   0.755  12.101   1.081  3.4023  1.7325  2.5638
   79ccc     C2 1785   0.786  12.321   1.070  0.0676 -0.3218  0.0427
   79ccc     H3 1786   0.887  12.315   1.111 -0.7334 -0.1147  2.1396
   79ccc     H4 1787   0.790  12.404   0.998  2.1710  0.7199  1.2672
   79ccc     C3 1788   0.695  12.353   1.193  0.2490  0.0217  0.3516
   79ccc     H5 1789   0.702  12.456   1.230  1.3219 -0.0338  0.3154
   79ccc     H6 1790   0.707  12.288   1.280  1.2395  0.5718  0.6403
   79ccc     N1 1791   0.872  12.145   0.909  0.0568  0.4458  0.3254
   79ccc     H7 1792   0.967  12.166   0.944 -0.2145  2.2871  0.0556
   79ccc     H8 1793   0.865  12.045   0.886  1.2751  0.2571  0.7211
   79ccc     O1 1794   0.563  12.320   1.139 -0.1311 -0.3144 -0.5463
   79ccc    H17 1795   0.860  12.204   0.826  2.1042 -0.8152 -0.9527
   80ccc     C1 1796   0.089  12.361   0.619  0.2743  0.1811 -0.4806
   80ccc     H1 1797   0.105  12.466   0.640  2.5928 -0.3427  0.7074
   80ccc     H2 1798  -0.011  12.333   0.653  1.4047 -0.4021  2.7411
   80ccc     C2 1799   0.201  12.272   0.685 -0.6401 -0.4301  0.3937
   80ccc     H3 1800   0.201  12.179   0.628 -0.5204 -0.6931  0.8138
   80ccc     H4 1801   0.302  12.311   0.666 -1.1306  0.6025 -0.1771
   80ccc     C3 1802   0.181  12.227   0.831  0.2758  0.5559  0.0982
   80ccc     H5 1803   0.281  12.216   0.875  0.3277 -1.2664 -0.3936
   80ccc     H6 1804   0.130  12.132   0.848  1.4363 -0.1878 -0.4921
   80ccc     N1 1805   0.082  12.342   0.466  0.4347  0.7326  0.5962
   80ccc     H7 1806   0.171  12.375   0.425 -0.4926  1.1207 -1.1578
   80ccc     H8 1807   0.088  12.244   0.436  0.6219  1.1894 -0.9046
   80ccc     O1 1808   0.104  12.317   0.906 -0.0877  0.0024 -0.3083
   80ccc    H17 1809   0.003  12.384   0.416  0.5415 -0.8684 -0.9832
   81ccc     C1 1810   0.307  13.056   1.298  0.7182  0.0101 -0.1252
   81ccc     H1 1811   0.287  13.093   1.399  2.6621  0.8721 -0.0155
   81ccc     H2 1812   0.217  13.048   1.237  0.8699 -0.5484 -0.2818
   81ccc     C2 1813   0.364  12.920   1.297 -0.3668  0.0174  0.0299
   81ccc     H3 1814   0.465  12.933   1.340 -0.0377 -0.6259 -0.5348
   81ccc     H4 1815   0.304  12.850   1.357 -0.8614  0.2554 -0.1842
   81ccc     C3 1816   0.382  12.872   1.147  0.1326  0.0598 -0.0457
   81ccc     H5 1817   0.430  12.774   1.147 -1.6511 -0.8663  0.9659
   81ccc     H6 1818   0.452  12.938   1.094 -0.3090  1.9769  1.6351
   81ccc     N1 1819   0.392  13.164   1.232  0.1518 -0.0481  0.0009
   81ccc     H7 1820   0.349  13.257   1.246 -1.1233 -1.0833  3.9427
   81ccc     H8 1821   0.489  13.169   1.267  0.1310 -0.0081  0.0517
   81ccc     O1 1822   0.252  12.852   1.083  0.2810  0.1151  0.0861
   81ccc    H17 1823   0.407  13.156   1.130  0.3262  0.1925  0.0061
   82ccc     C1 1824  -0.047  12.618   0.001 -0.4407  0.7432  0.1719
   82ccc     H1 1825  -0.025  12.511   0.005 -1.7002  0.4856  0.3850
   82ccc     H2 1826  -0.096  12.635  -0.095  3.4084  1.0065 -1.9960
   82ccc     C2 1827   0.075  12.709   0.019 -0.0998 -0.1139 -0.3342
   82ccc     H3 1828   0.128  12.727  -0.076  2.4768 -1.0169  0.8327
   82ccc     H4 1829   0.048  12.810   0.053  2.4170  0.5376 -0.0404
   82ccc     C3 1830   0.178  12.645   0.110 -0.0587 -0.4436 -0.5620
   82ccc     H5 1831   0.263  12.715   0.103 -1.2683  1.1491  0.0879
   82ccc     H6 1832   0.202  12.547   0.067  0.2746 -0.2240 -0.8847
   82ccc     N1 1833  -0.147  12.626   0.109 -0.8278 -0.1624 -0.1867
   82ccc     H7 1834  -0.231  12.580   0.072 -1.2950  0.9030 -0.5160
   82ccc     H8 1835  -0.115  12.581   0.195  1.1342  0.5584 -0.4828
   82ccc     O1 1836   0.138  12.640   0.250 -0.8885 -0.5837 -0.2918
   82ccc    H17 1837  -0.162  12.728   0.119 -0.0145 -0.0374 -0.1258
   83ccc     C1 1838  -1.554  12.163   1.680 -0.8752  0.3501  0.0368
   83ccc     H1 1839  -1.591  12.129   1.584  1.3699  0.2532 -0.8638
   83ccc     H2 1840  -1.550  12.272   1.678 -1.2819  0.4014  1.0296
   83ccc     C2 1841  -1.412  12.116   1.727  0.2266 -0.5946 -0.2387
   83ccc     H3 1842  -1.394  12.162   1.825 -3.5910 -2.7520  1.7178
   83ccc     H4 1843  -1.409  12.007   1.743 -0.7980 -0.4089  1.4892
   83ccc     C3 1844  -1.297  12.149   1.630 -0.3904  0.0863 -1.1121
   83ccc     H5 1845  -1.329  12.108   1.533  1.7347 -1.2365 -1.3109
   83ccc     H6 1846  -1.208  12.097   1.668 -1.4233 -0.3695  0.7974
   83ccc     N1 1847  -1.665  12.129   1.781 -0.5292 -0.3472 -0.0563
   83ccc     H7 1848  -1.750  12.167   1.737 -1.1456 -0.6675  0.8321
   83ccc     H8 1849  -1.678  12.029   1.804 -2.1514  0.2493  1.8401
   83ccc     O1 1850  -1.274  12.291   1.637  0.1640  0.1037 -0.4196
   83ccc    H17 1851  -1.640  12.177   1.868 -1.6698 -2.7948  1.7369
   84ccc     C1 1852  -1.700  12.497   0.812  0.0413  0.3783 -0.1561
   84ccc     H1 1853  -1.598  12.536   0.814 -0.2316  1.0907  1.4355
   84ccc     H2 1854  -1.785  12.561   0.788 -0.2332 -0.2364 -0.8449
   84ccc     C2 1855  -1.719  12.429   0.949 -1.3671 -0.5833 -0.4098
   84ccc     H3 1856  -1.825  12.406   0.962 -1.3759  1.0939  4.2100
   84ccc     H4 1857  -1.666  12.334   0.963 -4.0306 -1.9427  1.2033
   84ccc     C3 1858  -1.669  12.526   1.063  0.3282 -0.2145  0.4129
   84ccc     H5 1859  -1.685  12.479   1.161  3.0803 -1.3969  0.3800
   84ccc     H6 1860  -1.723  12.621   1.058 -0.3815 -0.6648 -0.6623
   84ccc     N1 1861  -1.717  12.403   0.700  0.7891 -0.1442 -0.4520
   84ccc     H7 1862  -1.630  12.365   0.659  1.0954 -0.4796  0.4976
   84ccc     H8 1863  -1.774  12.321   0.727  1.8796 -0.5141  0.8246
   84ccc     O1 1864  -1.531  12.566   1.040 -0.6003 -0.5488 -0.2289
   84ccc    H17 1865  -1.764  12.443   0.617  0.1065 -1.5891 -0.8065
   85ccc     C1 1866  -0.615  13.149   0.708 -0.0602  0.3765  0.2439
   85ccc     H1 1867  -0.637  13.106   0.806 -0.8505 -0.5804 -0.3454
   85ccc     H2 1868  -0.710  13.188   0.670 -0.6487 -0.0705  1.2113
   85ccc     C2 1869  -0.569  13.028   0.628 -0.1248 -0.0455  0.1934
   85ccc     H3 1870  -0.542  13.073   0.532 -0.1353 -1.3668 -0.4486
   85ccc     H4 1871  -0.481  12.982   0.675 -0.7628  0.1473  1.6410
   85ccc     C3 1872  -0.668  12.914   0.625 -0.3905  0.1721  0.1492
   85ccc     H5 1873  -0.610  12.826   0.595 -0.4424  0.2159 -0.0789
   85ccc     H6 1874  -0.748  12.925   0.551  2.0573  0.6704 -2.6024
   85ccc     N1 1875  -0.515  13.259   0.711 -0.3072  0.1954  0.2647
   85ccc     H7 1876  -0.555  13.338   0.764 -1.6343 -0.0020 -0.4138
   85ccc     H8 1877  -0.426  13.220   0.747  1.3760 -0.8161 -4.3039
   85ccc     O1 1878  -0.711  12.876   0.751 -0.4952  0.0863 -0.7941
   85ccc    H17 1879  -0.497  13.289   0.614 -0.3276  0.4418  0.3371
   86ccc     C1 1880  -0.198  13.054   1.175  0.2504  0.4268  1.3169
   86ccc     H1 1881  -0.285  13.021   1.233 -0.3154  0.7035  0.6358
   86ccc     H2 1882  -0.217  13.050   1.068  0.4307 -1.6734  1.3286
   86ccc     C2 1883  -0.094  12.951   1.208 -0.2659 -0.7744  0.4831
   86ccc     H3 1884  -0.023  12.941   1.124  1.6378  0.6611  1.8433
   86ccc     H4 1885  -0.029  12.990   1.287  2.9607  0.2364 -2.3937
   86ccc     C3 1886  -0.139  12.808   1.247  0.1354 -0.9120 -0.0909
   86ccc     H5 1887  -0.214  12.811   1.327  1.2705 -3.2882  1.1832
   86ccc     H6 1888  -0.057  12.747   1.288 -1.3164 -1.7913  1.6505
   86ccc     N1 1889  -0.161  13.196   1.209 -0.2125  0.3379  0.9651
   86ccc     H7 1890  -0.249  13.249   1.214 -1.6101 -1.9071  1.5596
   86ccc     H8 1891  -0.123  13.207   1.304 -0.2991 -1.9625  1.3340
   86ccc     O1 1892  -0.195  12.756   1.130 -0.2345  0.2831 -0.5603
   86ccc    H17 1893  -0.091  13.241   1.148 -0.7231  0.4988  0.4931
   87ccc     C1 1894  -0.823   9.396   1.153  0.4398 -0.4620 -0.1950
   87ccc     H1 1895  -0.854   9.295   1.125  1.8480 -1.1811  0.6782
   87ccc     H2 1896  -0.862   9.471   1.085 -1.4984 -0.9000  0.3571
   87ccc     C2 1897  -0.666   9.403   1.140  0.4283  0.4403 -0.2097
   87ccc     H3 1898  -0.648   9.404   1.032 -0.7221 -1.8330 -0.4649
   87ccc     H4 1899  -0.628   9.495   1.187 -0.4390  1.1252 -0.8338
   87ccc     C3 1900  -0.612   9.281   1.209 -1.3555 -0.1852  0.3978
   87ccc     H5 1901  -0.672   9.196   1.174 -1.0041 -0.3794  0.2672
   87ccc     H6 1902  -0.620   9.292   1.318 -1.9970  0.0040  0.3383
   87ccc     N1 1903  -0.871   9.430   1.300 -0.1448 -0.3322  0.6642
   87ccc     H7 1904  -0.927   9.517   1.301  0.5093  0.0971  0.3344
   87ccc     H8 1905  -0.935   9.358   1.337 -1.4404 -0.5152 -1.7683
   87ccc     O1 1906  -0.471   9.255   1.170  0.4362 -0.1599 -1.0586
   87ccc    H17 1907  -0.789   9.426   1.363 -0.5038 -1.5588  1.0792
   88ccc     C1 1908   0.030   8.433   1.606 -0.0404 -0.0624  0.3452
   88ccc     H1 1909  -0.053   8.467   1.544  0.3401 -1.9059 -1.2764
   88ccc     H2 1910   0.042   8.496   1.694 -0.8781  0.7343 -0.0965
   88ccc     C2 1911   0.147   8.445   1.510  0.0304 -0.5258 -0.2302
   88ccc     H3 1912   0.229   8.376   1.533  1.6787  1.3186 -0.3008
   88ccc     H4 1913   0.112   8.432   1.407 -2.4118  0.1770  0.4582
   88ccc     C3 1914   0.196   8.587   1.516  0.0758  0.2237 -0.2656
   88ccc     H5 1915   0.304   8.589   1.497  0.2325  1.3085  0.6211
   88ccc     H6 1916   0.189   8.625   1.619  0.0765 -0.5861  0.0435
   88ccc     N1 1917  -0.007   8.290   1.662 -0.7001 -0.6118  0.3728
   88ccc     H7 1918   0.067   8.247   1.719  0.6284 -2.5266 -2.5523
   88ccc     H8 1919  -0.093   8.299   1.718  0.4422  1.1016  1.9705
   88ccc     O1 1920   0.125   8.672   1.428 -0.2019  0.0377 -0.3527
   88ccc    H17 1921  -0.005   8.233   1.576  3.0740 -0.9124  0.4865
   89ccc     C1 1922  -0.596   9.897   0.160 -0.9095  0.5996  0.1338
   89ccc     H1 1923  -0.536   9.974   0.110  0.6468  0.2092  1.2968
   89ccc     H2 1924  -0.566   9.900   0.265  0.6341 -0.1993 -0.2501
   89ccc     C2 1925  -0.575   9.760   0.093  0.1572 -0.1369  0.2646
   89ccc     H3 1926  -0.583   9.765  -0.016  2.0523 -0.6087  0.0694
   89ccc     H4 1927  -0.470   9.733   0.111  0.3459  1.0638  1.0917
   89ccc     C3 1928  -0.661   9.648   0.157  0.7879 -0.4447 -0.0853
   89ccc     H5 1929  -0.636   9.554   0.108 -1.3144 -1.4085  0.5714
   89ccc     H6 1930  -0.768   9.663   0.136  0.7344 -2.0460 -1.1369
   89ccc     N1 1931  -0.742   9.943   0.156  0.2029 -0.2753  0.4891
   89ccc     H7 1932  -0.788   9.901   0.238  1.7853 -0.7159  1.1998
   89ccc     H8 1933  -0.747  10.046   0.158  0.7437 -0.2481  0.7194
   89ccc     O1 1934  -0.650   9.643   0.308  0.0052 -0.5044  0.0474
   89ccc    H17 1935  -0.783   9.915   0.066  1.9677  1.4823 -0.9431
   90ccc     C1 1936   0.078   9.181   0.653 -0.2474  0.3431  0.6526
   90ccc     H1 1937   0.183   9.213   0.652 -0.2733  0.4042 -0.1685
   90ccc     H2 1938   0.018   9.271   0.658 -0.0778  0.5101 -0.1800
   90ccc     C2 1939   0.058   9.099   0.772 -0.1991  0.5105  0.0370
   90ccc     H3 1940  -0.013   9.019   0.750  0.2013  0.2345 -0.2638
   90ccc     H4 1941   0.154   9.051   0.793 -1.1295 -1.2905  0.3079
   90ccc     C3 1942   0.024   9.176   0.903  0.8206  0.2416  0.8178
   90ccc     H5 1943   0.106   9.245   0.925  1.4819 -0.5835  0.9917
   90ccc     H6 1944   0.013   9.103   0.984 -0.2622  0.1677  0.6212
   90ccc     N1 1945   0.044   9.128   0.517  0.0051 -0.2316 -0.0659
   90ccc     H7 1946   0.086   9.183   0.441  1.0194 -1.8618 -0.7492
   90ccc     H8 1947   0.090   9.036   0.517  2.0327  0.6910  1.7550
   90ccc     O1 1948  -0.103   9.245   0.885 -0.6024  0.3328  0.1284
   90ccc    H17 1949  -0.056   9.128   0.493 -0.1104  1.4443  0.3097
   91ccc     C1 1950  -0.458  12.306   3.002  0.5671  0.2775 -0.1147
   91ccc     H1 1951  -0.354  12.287   3.030  0.5758 -0.4696 -0.6190
   91ccc     H2 1952  -0.480  12.407   3.036 -1.0971 -0.5917  1.5956
   91ccc     C2 1953  -0.547  12.193   3.055  0.2822 -0.6451  0.1380
   91ccc     H3 1954  -0.541  12.208   3.164 -1.2544 -1.7507  0.4069
   91ccc     H4 1955  -0.650  12.216   3.025  0.0490  0.9519  1.9594
   91ccc     C3 1956  -0.484  12.051   3.026  0.1326  0.2145  0.2505
   91ccc     H5 1957  -0.518  11.971   3.093  1.7465 -0.9076 -0.1994
   91ccc     H6 1958  -0.376  12.060   3.044  0.4161 -1.3269 -0.5189
   91ccc     N1 1959  -0.479  12.316   2.856  0.4892 -0.0639  0.5100
   91ccc     H7 1960  -0.578  12.308   2.828  0.0342  3.2251  0.8079
   91ccc     H8 1961  -0.464  12.414   2.830 -0.1414 -0.3929 -1.2569
   91ccc     O1 1962  -0.510  12.024   2.882  0.2499  0.2290 -0.6305
   91ccc    H17 1963  -0.423  12.253   2.797 -0.4092 -0.5272  0.1282
   92ccc     C1 1964  -1.230  11.590   2.526 -0.4967 -0.2595 -0.8124
   92ccc     H1 1965  -1.136  11.567   2.577 -1.6237  0.1264  1.5674
   92ccc     H2 1966  -1.232  11.536   2.431 -2.6481  0.9286 -1.5137
   92ccc     C2 1967  -1.224  11.751   2.507 -0.3118 -0.3513 -0.7210
   92ccc     H3 1968  -1.319  11.782   2.463 -0.5040 -0.5076 -0.4195
   92ccc     H4 1969  -1.225  11.800   2.606  0.5569 -0.5459 -0.6069
   92ccc     C3 1970  -1.110  11.805   2.426  0.0767 -0.1322  0.1700
   92ccc     H5 1971  -1.117  11.914   2.434  1.5032 -0.0699  0.9728
   92ccc     H6 1972  -1.111  11.772   2.321  0.3512  2.5008 -0.7168
   92ccc     N1 1973  -1.355  11.545   2.600  0.4100 -0.7888 -0.2213
   92ccc     H7 1974  -1.345  11.446   2.627 -0.3804 -1.3589 -1.8775
   92ccc     H8 1975  -1.371  11.604   2.683 -1.0356  1.0655 -1.7159
   92ccc     O1 1976  -0.985  11.759   2.488 -0.2539  0.2313  0.7509
   92ccc    H17 1977  -1.429  11.563   2.531 -0.1597 -1.6170  0.1608
   93ccc     C1 1978  -1.286  10.394   1.370  0.0338 -0.6544 -0.0907
   93ccc     H1 1979  -1.340  10.485   1.400  1.1932  0.0633 -0.1216
   93ccc     H2 1980  -1.309  10.325   1.451  0.1560  0.9301  1.3497
   93ccc     C2 1981  -1.138  10.415   1.346  0.1259  0.1482 -0.4153
   93ccc     H3 1982  -1.096  10.319   1.317 -1.5140 -0.3512 -1.2355
   93ccc     H4 1983  -1.109  10.489   1.271  1.8999  1.2188  1.2173
   93ccc     C3 1984  -1.069  10.445   1.478  0.4195 -0.1728  0.4990
   93ccc     H5 1985  -1.099  10.377   1.559 -0.9435  1.1459  1.1450
   93ccc     H6 1986  -1.104  10.540   1.519  1.9289  1.4102 -1.6783
   93ccc     N1 1987  -1.365  10.357   1.244 -0.1301  0.7501  0.1833
   93ccc     H7 1988  -1.336  10.422   1.168 -1.0706  1.1025  0.1137
   93ccc     H8 1989  -1.343  10.261   1.214 -3.7680 -0.5681  1.2582
   93ccc     O1 1990  -0.932  10.446   1.448  0.3852  0.3022 -0.1918
   93ccc    H17 1991  -1.468  10.357   1.247 -0.2982  0.8852 -2.5008
   94ccc     C1 1992  -1.008  10.103   1.791 -0.4238  0.1587 -0.1462
   94ccc     H1 1993  -1.020  10.211   1.792 -2.1578  0.0048  0.3605
   94ccc     H2 1994  -1.074  10.051   1.861 -0.6823  2.2735  1.2555
   94ccc     C2 1995  -0.866  10.056   1.837 -0.1158  0.7544  0.2135
   94ccc     H3 1996  -0.858   9.947   1.837  0.4155  0.7274 -2.2516
   94ccc     H4 1997  -0.809  10.093   1.750 -2.6842  0.8364 -1.5432
   94ccc     C3 1998  -0.818  10.124   1.968 -0.0555  0.1992 -0.2997
   94ccc     H5 1999  -0.712  10.103   1.987 -0.2139  0.8222  1.4127
   94ccc     H6 2000  -0.882  10.087   2.049 -0.2436  0.7174 -0.2126
   94ccc     N1 2001  -1.048  10.058   1.653  0.3487 -0.1257  0.5736
   94ccc     H7 2002  -1.041   9.955   1.648 -2.5372 -0.4262  0.7554
   94ccc     H8 2003  -1.147  10.078   1.629  1.0856  1.7572 -1.1987
   94ccc     O1 2004  -0.837  10.265   1.951 -0.4214  0.0991 -0.2647
   94ccc    H17 2005  -0.982  10.094   1.584 -0.2410 -1.7693 -0.9046
   95SOL     OW 2006   3.953   4.966   4.036 -0.4538 -0.1042  0.4823
   95SOL    HW1 2007   3.867   4.944   4.073 -1.5833  1.7441 -0.8843
   95SOL    HW2 2008   3.972   4.894   3.977 -1.9295  0.2788 -0.5203
   96SOL     OW 2009   8.892   7.127   2.997  0.2805 -0.0814 -0.9968
   96SOL    HW1 2010   8.808   7.155   3.033  0.7813 -0.8079  0.8892
   96SOL    HW2 2011   8.917   7.196   2.935  0.1426  2.1847  1.3157
   97SOL     OW 2012   0.159   4.534   1.378 -0.0322  0.1450 -0.0821
   97SOL    HW1 2013   0.218   4.595   1.336 -0.1539  0.6799  0.5106
   97SOL    HW2 2014   0.073   4.553   1.340 -0.1287  0.5741  0.3511
   98SOL     OW 2015   3.837   9.557   4.211 -0.5335 -0.3597  0.4967
   98SOL    HW1 2016   3.821   9.583   4.302  2.4145 -0.9122  1.2704
   98SOL    HW2 2017   3.850   9.462   4.215  1.6165 -0.1315 -0.1351
   99SOL     OW 2018   3.914   2.422   7.838 -0.5724 -0.4530  0.6033
   99SOL    HW1 2019   3.828   2.453   7.810 -0.1808 -0.3938 -0.5789
   99SOL    HW2 2020   3.922   2.455   7.928 -1.2237  0.7070  0.2705
  100SOL     OW 2021   9.043   8.230   8.489  0.1613  0.1373  0.6793
  100SOL    HW1 2022   8.972   8.289   8.513  0.0381  0.1596  0.2650
  100SOL    HW2 2023   9.081   8.268   8.409 -0.5185 -0.8287 -0.1379
  101SOL     OW 2024   2.914   3.548   8.341 -0.0975 -0.3158  0.3031
  101SOL    HW1 2025   2.923   3.455   8.321  1.6161 -0.3223  0.9369
  101SOL    HW2 2026   2.897   3.589   8.256  0.5179 -1.0450 -0.1818
  102SOL     OW 2027   3.674   0.649   7.500  0.2653  0.8851 -0.6523
  102SOL    HW1 2028   3.766   0.676   7.496  0.5776 -0.0091  0.0820
  102SOL    HW2 2029   3.676   0.555   7.483 -0.2651  0.4398  1.4384
  103SOL     OW 2030   7.411   3.744   2.056 -0.4506  0.0171  0.1134
  103SOL    HW1 2031   7.461   3.705   1.984  0.3566 -1.3640  1.3779
  103SOL    HW2 2032   7.320   3.718   2.038 -0.3652  0.2984 -0.7794
  104SOL     OW 2033   8.965   5.594   3.516 -0.1174  0.0238  0.6144
  104SOL    HW1 2034   8.962   5.548   3.431 -1.2633  1.5053 -0.1940
  104SOL    HW2 2035   9.049   5.569   3.553  0.3505 -0.7974 -0.8904
  105SOL     OW 2036   7.837   7.052   2.839  0.5262  0.6598  0.2704
  105SOL    HW1 2037   7.860   7.014   2.754  1.1999  0.2997  0.6119
  105SOL    HW2 2038   7.818   7.144   2.819 -1.0263  0.2059 -0.5484
  106SOL     OW 2039   0.342   7.874   8.594 -0.3078  0.0692  0.3875
  106SOL    HW1 2040   0.290   7.795   8.577  1.3158 -0.7646 -0.9705
  106SOL    HW2 2041   0.313   7.936   8.526 -0.9255  0.3274  0.8779
  107SOL     OW 2042   3.479   4.617   9.474 -0.0860 -0.0761  0.2161
  107SOL    HW1 2043   3.412   4.659   9.422 -1.2030 -0.9480  0.9024
  107SOL    HW2 2044   3.453   4.525   9.477  0.1900 -0.1297  1.9138
  108SOL     OW 2045   7.425   6.291   0.459 -0.1472  0.1108  0.1530
  108SOL    HW1 2046   7.431   6.365   0.399  0.2137  0.3875  0.5255
  108SOL    HW2 2047   7.456   6.216   0.408  3.7468  0.9190  1.0019
  109SOL     OW 2048   5.435   9.003   1.599  0.7636  0.4106 -0.4630
  109SOL    HW1 2049   5.495   9.074   1.575  1.7684 -0.7990 -1.6899
  109SOL    HW2 2050   5.410   8.963   1.516 -0.0410 -0.4889  0.1830
  110SOL     OW 2051   3.607   8.352   1.360  0.5061 -0.3987 -0.0724
  110SOL    HW1 2052   3.641   8.295   1.291  0.3581  0.5314 -0.9489
  110SOL    HW2 2053   3.631   8.440   1.331  0.9305 -0.0213  1.3642
  111SOL     OW 2054   2.059   1.025   5.934 -0.2180 -0.5171  0.0216
  111SOL    HW1 2055   2.050   1.106   5.985 -0.7304 -0.6645  0.1701
  111SOL    HW2 2056   2.089   1.055   5.848  1.2897 -0.3234  0.5860
  112SOL     OW 2057   9.196   7.312   1.492  0.1854  0.1579 -0.1622
  112SOL    HW1 2058   9.244   7.270   1.564 -0.7709  0.4123  0.6369
  112SOL    HW2 2059   9.261   7.319   1.421  0.6774 -1.6492  0.0631
  113SOL     OW 2060   5.707   9.191   1.787  0.6758 -0.2693 -0.3613
  113SOL    HW1 2061   5.772   9.238   1.840 -0.0052  1.4123 -0.9716
  113SOL    HW2 2062   5.626   9.195   1.838  0.2785  0.4229 -1.0341
  114SOL     OW 2063   3.459   4.539   0.680  0.0793 -0.1685 -0.0464
  114SOL    HW1 2064   3.367   4.567   0.675  0.3455  0.7748  0.2566
  114SOL    HW2 2065   3.462   4.460   0.626 -0.7218  0.3014 -0.8082
  115SOL     OW 2066   1.889   0.863   4.029  0.0588 -0.0309  0.2035
  115SOL    HW1 2067   1.887   0.949   3.988  0.2416 -0.7267 -1.3224
  115SOL    HW2 2068   1.813   0.863   4.088 -0.8113  0.6550 -0.8794
  116SOL     OW 2069   1.400   4.247   4.534 -0.2849 -0.0320 -0.2095
  116SOL    HW1 2070   1.491   4.228   4.558 -0.2883 -1.0377 -0.9182
  116SOL    HW2 2071   1.364   4.291   4.610  0.4776 -0.6665  0.5386
  117SOL     OW 2072   0.102   4.301   1.547 -0.0479  0.3932 -0.6646
  117SOL    HW1 2073   0.111   4.363   1.620 -0.8862  0.4856 -0.6336
  117SOL    HW2 2074   0.092   4.357   1.470 -2.1168  0.3541 -0.4886
  118SOL     OW 2075   9.508   5.907   6.760 -0.3725 -0.0176  0.6425
  118SOL    HW1 2076   9.536   5.829   6.808 -1.4436 -1.7402 -1.3855
  118SOL    HW2 2077   9.448   5.874   6.693 -0.9878  2.5852 -0.2048
  119SOL     OW 2078   0.647   2.632   4.224 -0.5526 -0.3975 -0.2325
  119SOL    HW1 2079   0.737   2.651   4.196 -0.8511  0.3905 -0.7117
  119SOL    HW2 2080   0.593   2.680   4.161 -1.2737  0.7323  1.2026
  120SOL     OW 2081   7.209   7.718   1.973  0.1851  0.6927  0.4887
  120SOL    HW1 2082   7.142   7.772   1.933  0.4864  0.8269  0.1527
  120SOL    HW2 2083   7.219   7.752   2.062  0.8749  1.6537  0.0520
  121SOL     OW 2084   4.162   7.196   3.374 -0.4179 -0.4772 -0.2039
  121SOL    HW1 2085   4.086   7.254   3.369 -1.5353 -1.9277 -0.6465
  121SOL    HW2 2086   4.202   7.217   3.458 -1.9632 -0.4548  0.5694
  122SOL     OW 2087   9.266   1.316   4.404 -0.0842  0.6173 -0.5863
  122SOL    HW1 2088   9.231   1.275   4.483 -0.6322  1.6598 -0.2538
  122SOL    HW2 2089   9.359   1.328   4.422 -0.0872  0.2812 -0.3491
  123SOL     OW 2090   1.720   5.787   5.924  0.4923 -0.0384 -0.1912
  123SOL    HW1 2091   1.743   5.833   6.005 -0.6878  0.8046 -0.3170
  123SOL    HW2 2092   1.767   5.834   5.856 -0.9548  1.2148 -0.3575
  124SOL     OW 2093   0.157   0.519   0.481 -0.4439 -0.2701  0.1113
  124SOL    HW1 2094   0.119   0.497   0.396  0.1216 -0.6396 -0.0426
  124SOL    HW2 2095   0.249   0.496   0.474  0.4493  2.8760 -0.3731
  125SOL     OW 2096   5.157   7.752   5.746  0.0702  0.7475  0.1084
  125SOL    HW1 2097   5.082   7.750   5.806 -0.2074 -0.6180 -0.2405
  125SOL    HW2 2098   5.122   7.788   5.665 -0.3361 -0.2792 -0.1869
  126SOL     OW 2099   5.326   8.905   1.941 -0.2179 -0.2320  0.3194
  126SOL    HW1 2100   5.308   8.908   1.847 -0.5553  0.1657  0.3981
  126SOL    HW2 2101   5.322   8.996   1.970 -1.9329 -0.5020  1.0597
  127SOL     OW 2102   1.136   9.484   8.060  0.4928 -0.1307 -0.5814
  127SOL    HW1 2103   1.182   9.550   8.111  0.2194 -0.9681  0.7943
  127SOL    HW2 2104   1.189   9.405   8.071  0.1766 -0.4392 -1.2300
  128SOL     OW 2105   2.627   2.018   6.111  0.3883 -0.6991 -0.2057
  128SOL    HW1 2106   2.596   1.980   6.193  0.9695  1.1339  0.9300
  128SOL    HW2 2107   2.685   1.951   6.074  0.0653 -1.5839  0.8329
  129SOL     OW 2108   4.715   4.054   8.101  0.7362 -0.5387  0.3737
  129SOL    HW1 2109   4.704   3.963   8.073  1.9694 -0.8034  0.6681
  129SOL    HW2 2110   4.626   4.085   8.117  0.3030 -1.7764  0.5104
  130SOL     OW 2111   3.262   7.825   6.266 -0.3843 -0.5996 -0.2490
  130SOL    HW1 2112   3.323   7.785   6.204  0.0371 -0.4857  0.0916
  130SOL    HW2 2113   3.313   7.894   6.309 -0.8873 -0.1972 -0.2935
  131SOL     OW 2114   0.775   6.073   1.128 -0.8176 -0.7154  0.1304
  131SOL    HW1 2115   0.785   6.102   1.219  1.0976 -0.1497 -0.2041
  131SOL    HW2 2116   0.846   6.009   1.117  0.4760  0.9148 -1.5778
  132SOL     OW 2117   8.929   4.555   4.548 -0.0870  0.6578 -0.2711
  132SOL    HW1 2118   8.996   4.547   4.480  1.8262 -0.5373  1.6355
  132SOL    HW2 2119   8.963   4.622   4.608  0.1939 -0.9629  1.4732
  133SOL     OW 2120   4.694   0.164   6.577  0.2465 -0.4263 -0.2870
  133SOL    HW1 2121   4.648   0.197   6.654  0.1039 -0.1553 -0.4890
  133SOL    HW2 2122   4.626   0.158   6.510  0.4061 -0.5023 -0.4410
  134SOL     OW 2123   8.241   6.107   0.202 -0.1981 -0.0288  0.4423
  134SOL    HW1 2124   8.315   6.166   0.191 -0.3407  0.3218  1.2815
  134SOL    HW2 2125   8.237   6.091   0.296 -0.7630 -0.5994  0.3279
  135SOL     OW 2126   7.006   7.681   8.069 -0.2446  0.2445 -0.0862
  135SOL    HW1 2127   6.946   7.691   7.995 -1.7673  1.4040  1.2256
  135SOL    HW2 2128   7.027   7.771   8.095  3.7132 -0.0569 -1.6835
  136SOL     OW 2129   6.540   3.421   6.143 -0.4911  0.1311  0.1103
  136SOL    HW1 2130   6.564   3.330   6.162  1.3556  0.9263  1.9547
  136SOL    HW2 2131   6.524   3.460   6.229 -1.0282  1.6395 -0.6362
  137SOL     OW 2132   7.734   1.582   5.488  0.3424 -0.1874  0.3143
  137SOL    HW1 2133   7.795   1.655   5.483  2.8244 -2.1139  0.7315
  137SOL    HW2 2134   7.683   1.588   5.407  1.1227  1.4418 -0.0966
  138SOL     OW 2135   0.236   2.602   9.644  0.2411  0.0122  0.5099
  138SOL    HW1 2136   0.308   2.657   9.616 -0.2221  0.1240 -0.5217
  138SOL    HW2 2137   0.270   2.513   9.638  0.2416  0.0484 -0.2019
  139SOL     OW 2138   4.547   6.895   4.784 -0.2296  0.1729  0.7075
  139SOL    HW1 2139   4.530   6.989   4.789  1.2372  0.4172  1.6505
  139SOL    HW2 2140   4.521   6.862   4.870  2.2742  0.2828  1.5651
  140SOL     OW 2141   3.269   2.851   7.206  0.7409  0.3412 -0.1486
  140SOL    HW1 2142   3.265   2.847   7.302 -3.4322  1.4771 -0.0681
  140SOL    HW2 2143   3.191   2.803   7.177  1.9261 -0.0263 -3.0431
  141SOL     OW 2144   2.971   4.384   3.139 -0.1229 -0.9292  0.2367
  141SOL    HW1 2145   3.052   4.348   3.175  0.7098  0.4823 -0.1576
  141SOL    HW2 2146   2.904   4.363   3.205  0.5337 -2.1630  0.5377
  142SOL     OW 2147   4.243   1.053   6.784  0.0712  0.0839 -0.7522
  142SOL    HW1 2148   4.156   1.049   6.746 -0.6108  0.1533  0.7344
  142SOL    HW2 2149   4.257   1.145   6.805  1.1291  0.3215 -2.2900
  143SOL     OW 2150   2.824   0.071   5.506 -0.6480 -0.1067  0.3766
  143SOL    HW1 2151   2.794   0.004   5.444 -1.6512  0.6717 -0.0019
  143SOL    HW2 2152   2.745   0.117   5.531  0.1316  1.5351 -0.0681
  144SOL     OW 2153   2.884   2.150   9.636 -0.7636 -0.0874  0.0389
  144SOL    HW1 2154   2.900   2.167   9.543 -1.2206 -1.0834 -0.2401
  144SOL    HW2 2155   2.811   2.208   9.659  0.6054  1.6001  0.3099
  145SOL     OW 2156   0.980   8.580   2.366  1.2206 -0.0974  0.0754
  145SOL    HW1 2157   0.984   8.516   2.295  1.1100  0.8038 -0.7570
  145SOL    HW2 2158   1.070   8.589   2.395  1.2748 -0.4248  0.0150
  146SOL     OW 2159   7.884   6.530   3.076  0.2060  0.4468 -0.0887
  146SOL    HW1 2160   7.833   6.505   3.153 -0.5913  0.1041 -0.7182
  146SOL    HW2 2161   7.963   6.475   3.081 -0.8127 -1.1338 -0.6242
  147SOL     OW 2162   8.555   1.268   0.386 -0.1438 -0.2533 -0.9875
  147SOL    HW1 2163   8.588   1.179   0.398  1.7763  0.2551 -2.0027
  147SOL    HW2 2164   8.495   1.261   0.311 -0.2032 -0.7448 -0.8961
  148SOL     OW 2165   4.782   5.409   1.681  0.6460 -0.0396  0.9302
  148SOL    HW1 2166   4.808   5.342   1.617  0.7371 -0.3693  1.3079
  148SOL    HW2 2167   4.687   5.410   1.677  0.6640  1.7266 -1.0339
  149SOL     OW 2168   6.279   8.296   0.647 -0.4265 -0.1049  0.8013
  149SOL    HW1 2169   6.217   8.237   0.689 -0.9294 -0.4072 -0.3274
  149SOL    HW2 2170   6.272   8.378   0.697 -2.4329  0.1725  0.1461
  150SOL     OW 2171   2.100   2.987   3.880  0.1532  0.2119  0.1916
  150SOL    HW1 2172   2.105   3.077   3.914  0.4393 -0.3215  1.6217
  150SOL    HW2 2173   2.027   2.989   3.818 -1.3568  0.9150  1.8858
  151SOL     OW 2174   8.644   0.930   6.972  0.0411 -0.3082 -0.9157
  151SOL    HW1 2175   8.607   1.011   6.937  1.2740  0.7073  0.0252
  151SOL    HW2 2176   8.700   0.898   6.901 -0.1915 -0.1631 -1.1707
  152SOL     OW 2177   4.915   8.872   7.360  0.0728 -0.3623 -0.2607
  152SOL    HW1 2178   4.894   8.878   7.267 -0.9785  1.5516  0.0592
  152SOL    HW2 2179   4.879   8.952   7.398 -1.1323 -1.9212  2.0971
  153SOL     OW 2180   1.688   6.462   5.719  0.1309 -0.1746  0.0190
  153SOL    HW1 2181   1.613   6.454   5.660 -0.0520  2.4094 -0.2234
  153SOL    HW2 2182   1.764   6.458   5.662  0.0549 -0.0997 -0.0877
  154SOL     OW 2183   6.052   5.436   6.968  0.2246  0.5011  0.3903
  154SOL    HW1 2184   6.011   5.358   6.930 -2.5425  1.1854  1.6906
  154SOL    HW2 2185   6.143   5.411   6.981 -0.0090 -1.6511 -1.4632
  155SOL     OW 2186   3.821   6.697   8.462 -0.8004  0.5712 -0.3672
  155SOL    HW1 2187   3.804   6.788   8.441  0.2298  0.9586  0.4088
  155SOL    HW2 2188   3.894   6.673   8.405 -1.0717  0.2149 -0.5741
  156SOL     OW 2189   1.587   0.278   8.371  0.0836  0.5728  0.3793
  156SOL    HW1 2190   1.554   0.270   8.460  0.9113 -0.1643  0.6397
  156SOL    HW2 2191   1.664   0.335   8.378  0.7560 -0.3008  0.3228
  157SOL     OW 2192   3.460   5.260   7.639  0.3771 -0.2711 -0.4117
  157SOL    HW1 2193   3.386   5.202   7.622 -0.2554  0.8878 -1.8066
  157SOL    HW2 2194   3.426   5.348   7.621  2.0051  0.3016 -0.8314
  158SOL     OW 2195   6.979   9.158   9.302  0.0897  0.4690  0.2981
  158SOL    HW1 2196   7.010   9.218   9.370  0.1878  0.2345  0.4616
  158SOL    HW2 2197   7.033   9.179   9.225  0.7617 -0.0349  0.6200
  159SOL     OW 2198   5.579   3.586   1.198  0.2719 -0.1294  0.3913
  159SOL    HW1 2199   5.631   3.662   1.173 -0.4828  0.8471  1.6374
  159SOL    HW2 2200   5.530   3.615   1.276 -0.8419 -1.5411  0.2653
  160SOL     OW 2201   8.795   9.208   4.765 -0.4265 -0.5416 -0.6742
  160SOL    HW1 2202   8.864   9.156   4.723 -1.5663 -2.0038 -0.8410
  160SOL    HW2 2203   8.822   9.214   4.857  0.8841  0.6150 -1.1032
  161SOL     OW 2204   7.728   5.433   2.751  0.4237  0.3114  0.5669
  161SOL    HW1 2205   7.790   5.461   2.818  0.2948 -3.2056  2.4078
  161SOL    HW2 2206   7.643   5.432   2.796 -0.4821  1.9348 -0.9710
  162SOL     OW 2207   4.467   8.570   7.940 -0.0265 -0.2809 -0.2595
  162SOL    HW1 2208   4.556   8.542   7.963 -0.1977  0.0402  0.8523
  162SOL    HW2 2209   4.478   8.621   7.860  0.7216 -0.6605 -0.4100
  163SOL     OW 2210   9.686   7.610   1.923 -0.1671  0.2556 -0.4471
  163SOL    HW1 2211   9.602   7.589   1.964 -0.0428  1.3787  0.4406
  163SOL    HW2 2212   9.733   7.527   1.922 -0.4846  0.0148  1.0114
  164SOL     OW 2213   1.407   7.706   8.564  0.1933 -0.2178 -0.2397
  164SOL    HW1 2214   1.384   7.737   8.476 -0.4775 -0.1280 -0.0430
  164SOL    HW2 2215   1.501   7.691   8.560 -0.1742 -2.6465 -1.7189
  165SOL     OW 2216   0.855   2.777   5.766  0.1953  0.0443  0.0528
  165SOL    HW1 2217   0.920   2.735   5.822  1.0389  0.8460 -0.2908
  165SOL    HW2 2218   0.836   2.712   5.698  0.3992 -0.3163  0.3392
  166SOL     OW 2219   8.141   6.877   8.849  0.3819 -0.4219 -0.1326
  166SOL    HW1 2220   8.133   6.971   8.867  0.9590 -0.2497 -0.7497
  166SOL    HW2 2221   8.050   6.848   8.838  0.0735 -0.2879  1.7071
  167SOL     OW 2222   6.447   6.969   4.100 -0.0977  0.5981 -0.1349
  167SOL    HW1 2223   6.440   6.932   4.012  1.3909  1.5023 -0.6676
  167SOL    HW2 2224   6.538   6.955   4.125 -0.6005 -0.0115  1.4589
  168SOL     OW 2225   0.134   3.976   8.246  0.1056  0.2660  0.0416
  168SOL    HW1 2226   0.229   3.961   8.249  0.1108  0.4580  2.0803
  168SOL    HW2 2227   0.118   4.011   8.158  2.0637  1.1160 -0.0302
  169SOL     OW 2228   7.769   1.671   2.586  0.0014 -0.1383  0.0692
  169SOL    HW1 2229   7.836   1.701   2.647 -0.5088  0.5414  0.3139
  169SOL    HW2 2230   7.724   1.751   2.559  0.2655 -0.4160 -1.2693
  170SOL     OW 2231   2.582   0.106   5.655  0.0331  0.3162  0.1037
  170SOL    HW1 2232   2.544   0.081   5.571 -3.6420  1.2264  1.3393
  170SOL    HW2 2233   2.609   0.023   5.694 -1.1918 -0.4818 -0.6663
  171SOL     OW 2234   2.382   2.573   0.071  0.1137  0.3108  0.1187
  171SOL    HW1 2235   2.457   2.586   0.129  0.4757 -0.1186 -0.2457
  171SOL    HW2 2236   2.310   2.551   0.130  0.5513 -0.4262  0.3983
  172SOL     OW 2237   3.635   7.223   4.332 -0.2578 -0.3367 -0.1633
  172SOL    HW1 2238   3.702   7.170   4.288  0.7498  0.2485  0.6180
  172SOL    HW2 2239   3.618   7.177   4.414  0.2787  0.2838  0.3050
  173SOL     OW 2240   9.356   6.288   6.108 -0.1599  0.1105  0.2517
  173SOL    HW1 2241   9.322   6.300   6.020  1.6169 -2.6090 -0.9206
  173SOL    HW2 2242   9.422   6.357   6.118  0.3741 -0.1963 -0.9793
  174SOL     OW 2243   3.630   1.408   1.918 -0.2383  0.7218  0.6040
  174SOL    HW1 2244   3.710   1.420   1.866 -0.4845  1.3297  0.3562
  174SOL    HW2 2245   3.601   1.319   1.897  0.6122  0.3268  1.0408
  175SOL     OW 2246   2.425   6.342   3.348 -0.0930 -0.1950 -0.2308
  175SOL    HW1 2247   2.439   6.306   3.435  0.5508 -1.0670 -0.6726
  175SOL    HW2 2248   2.365   6.415   3.361  0.9471  0.4706  1.1048
  176SOL     OW 2249   5.872   3.221   0.043 -0.0073  0.3873 -0.0519
  176SOL    HW1 2250   5.934   3.169   0.093 -0.0473  1.3886  1.0791
  176SOL    HW2 2251   5.796   3.231   0.100 -0.9923 -0.3189 -1.1855
  177SOL     OW 2252   6.094   8.269   3.180 -0.1431 -0.3072 -0.2549
  177SOL    HW1 2253   6.072   8.281   3.088  1.7845 -2.6508 -1.1438
  177SOL    HW2 2254   6.171   8.324   3.194  1.2093 -1.9000 -0.9092
  178SOL     OW 2255   4.868   6.664   6.862  0.1898  0.0411 -0.1423
  178SOL    HW1 2256   4.942   6.712   6.826  0.9094 -1.6396 -1.0112
  178SOL    HW2 2257   4.908   6.600   6.921 -0.6984  0.1457  0.5925
  179SOL     OW 2258   8.498   4.811   8.708  0.6723 -0.1739  0.0386
  179SOL    HW1 2259   8.449   4.854   8.638  0.3310 -0.7688 -0.0971
  179SOL    HW2 2260   8.590   4.826   8.686  0.5825  1.8372  0.8444
  180SOL     OW 2261   4.117   0.920   5.872 -0.2148 -0.0436  0.2865
  180SOL    HW1 2262   4.091   1.001   5.827  0.9468 -0.7722 -1.8143
  180SOL    HW2 2263   4.050   0.856   5.846 -0.8029  0.0564  1.4767
  181SOL     OW 2264   0.260   3.361   2.145 -0.4447  0.3292 -0.0677
  181SOL    HW1 2265   0.227   3.433   2.199  0.9069 -0.2426  1.6232
  181SOL    HW2 2266   0.206   3.286   2.168 -0.1630  0.1949  0.1712
  182SOL     OW 2267   7.491   7.576   2.077 -0.3653 -0.3746 -0.0005
  182SOL    HW1 2268   7.428   7.607   2.012 -0.7515 -0.6050  0.2593
  182SOL    HW2 2269   7.454   7.605   2.161 -0.4131 -0.9993  0.1959
  183SOL     OW 2270   8.046   7.276   6.591  0.2236 -0.1732 -0.2463
  183SOL    HW1 2271   7.960   7.315   6.607 -0.2092 -1.2372  0.0707
  183SOL    HW2 2272   8.106   7.328   6.644  0.1898  2.0797 -2.2122
  184SOL     OW 2273   6.115   5.371   6.136  0.2738  0.1349 -0.0454
  184SOL    HW1 2274   6.121   5.346   6.044 -1.2000  0.9708 -0.3965
  184SOL    HW2 2275   6.203   5.401   6.158  0.3958  0.9338 -1.4917
  185SOL     OW 2276   2.648   3.512   2.518 -0.3144  0.1957 -0.1944
  185SOL    HW1 2277   2.596   3.548   2.590  0.6621  0.9249  0.1662
  185SOL    HW2 2278   2.625   3.568   2.443 -1.7988 -0.9446 -0.6462
  186SOL     OW 2279   2.308   2.711   9.128 -0.5368 -0.3429  0.0183
  186SOL    HW1 2280   2.354   2.636   9.090 -3.0771 -1.3944 -1.1869
  186SOL    HW2 2281   2.292   2.770   9.055  0.7967  1.1168  0.8347
  187SOL     OW 2282   6.091   6.690   2.034  0.1425 -0.1379 -0.0986
  187SOL    HW1 2283   6.065   6.681   1.942  0.7320 -0.0012 -0.2835
  187SOL    HW2 2284   6.172   6.639   2.041  0.1612 -0.0544  0.3145
  188SOL     OW 2285   2.834   0.702   9.605  0.0542  0.0296 -0.6407
  188SOL    HW1 2286   2.827   0.623   9.658  0.1992  0.8276  0.6086
  188SOL    HW2 2287   2.746   0.738   9.603  0.1302  0.2192 -0.6082
  189SOL     OW 2288   0.033   8.788   5.146 -0.7419  0.4701 -0.0331
  189SOL    HW1 2289   0.017   8.759   5.056 -0.1088 -0.3720  0.1189
  189SOL    HW2 2290   0.124   8.815   5.147 -0.2385 -1.1407  0.7555
  190SOL     OW 2291   2.763   9.350   3.848  0.4030  0.1890 -0.1239
  190SOL    HW1 2292   2.819   9.302   3.787  1.1818  0.6802  0.1856
  190SOL    HW2 2293   2.759   9.438   3.812 -0.7172  0.0067 -0.4900
  191SOL     OW 2294   3.736   7.922   3.403  0.0137 -0.1371 -0.0919
  191SOL    HW1 2295   3.745   7.826   3.402 -1.4777 -0.2932 -0.7949
  191SOL    HW2 2296   3.684   7.941   3.480 -1.6371 -0.1221 -1.1673
  192SOL     OW 2297   5.598   2.794   3.712  0.4645 -0.3408  0.0863
  192SOL    HW1 2298   5.659   2.865   3.731  0.8208 -0.9158  1.1986
  192SOL    HW2 2299   5.604   2.736   3.788 -1.1971 -0.6109  0.0674
  193SOL     OW 2300   9.576   7.788   5.503  0.5828 -0.4206  0.1504
  193SOL    HW1 2301   9.547   7.747   5.421  3.1426 -1.3294 -0.4065
  193SOL    HW2 2302   9.524   7.745   5.571 -0.0817 -1.2113 -0.8269
  194SOL     OW 2303   2.517   1.597   7.604  0.1363 -0.0931 -0.5208
  194SOL    HW1 2304   2.433   1.573   7.644  0.7717 -0.7589  0.4174
  194SOL    HW2 2305   2.574   1.523   7.620  0.8363  0.2374 -1.4097
  195SOL     OW 2306   6.535   2.543   6.973  0.2138 -0.2752 -0.5545
  195SOL    HW1 2307   6.467   2.607   6.955 -0.2557 -0.7071 -0.3643
  195SOL    HW2 2308   6.607   2.594   7.009 -0.1813  0.1366 -0.3289
  196SOL     OW 2309   0.523   1.409   7.309 -0.1621  0.7268  0.3551
  196SOL    HW1 2310   0.438   1.427   7.268  0.4863  1.6943 -0.5930
  196SOL    HW2 2311   0.504   1.410   7.403 -1.2557  0.6137  0.1548
  197SOL     OW 2312   5.414   5.374   3.873  0.2265  0.2450 -0.0609
  197SOL    HW1 2313   5.397   5.453   3.821 -3.4576 -1.0168 -1.1435
  197SOL    HW2 2314   5.402   5.302   3.811 -1.1593 -1.2554  1.8179
  198SOL     OW 2315   0.867   3.499   8.750 -0.7391 -0.4312  0.1931
  198SOL    HW1 2316   0.787   3.523   8.795  0.1222  1.0803  1.0088
  198SOL    HW2 2317   0.937   3.534   8.805  0.4669 -1.2622 -0.7490
  199SOL     OW 2318   5.514   1.686   0.903  0.0963  0.2201  0.4743
  199SOL    HW1 2319   5.573   1.756   0.875 -1.8061  1.9770  0.6277
  199SOL    HW2 2320   5.573   1.614   0.925  2.1175  1.4947 -0.3488
  200SOL     OW 2321   4.524   4.101   9.098  0.3943 -0.6700  0.0756
  200SOL    HW1 2322   4.494   4.057   9.019 -0.4221 -0.6272  0.3595
  200SOL    HW2 2323   4.548   4.030   9.158 -1.6162 -0.7864  0.8077
  201SOL     OW 2324   6.708   8.898   1.783  0.5337 -0.4005  0.2632
  201SOL    HW1 2325   6.762   8.840   1.837  1.5944 -1.2269 -1.6148
  201SOL    HW2 2326   6.701   8.853   1.699 -0.1443  1.3603 -0.6637
  202SOL     OW 2327   0.948   5.359   2.335  0.1035 -0.3680 -0.7020
  202SOL    HW1 2328   0.891   5.358   2.259  1.4892 -0.7932 -1.7791
  202SOL    HW2 2329   1.036   5.347   2.299  1.0236  1.4136  0.7691
  203SOL     OW 2330   7.853   0.419   4.189  0.2776 -0.5571 -0.1706
  203SOL    HW1 2331   7.891   0.494   4.144 -1.6941  1.6951  1.6355
  203SOL    HW2 2332   7.918   0.396   4.256  0.6561 -0.1132 -0.3803
  204SOL     OW 2333   1.841   1.572   7.996  0.1026  0.4529 -0.0344
  204SOL    HW1 2334   1.765   1.513   7.993  0.6482 -0.4262  1.8173
  204SOL    HW2 2335   1.875   1.572   7.906 -1.9142  0.6886 -0.8568
  205SOL     OW 2336   5.748   0.971   5.781  0.0672 -0.0869  0.0109
  205SOL    HW1 2337   5.661   0.933   5.764 -0.1250 -0.0803  0.9530
  205SOL    HW2 2338   5.804   0.931   5.714 -0.1431 -2.0049  0.9053
  206SOL     OW 2339   2.038   6.172   5.947 -0.6197 -0.1157  0.1005
  206SOL    HW1 2340   2.008   6.262   5.964 -2.1713 -0.9126  2.0796
  206SOL    HW2 2341   2.121   6.183   5.901 -0.9647  2.3222 -0.1050
  207SOL     OW 2342   8.106   6.000   0.792 -0.5444 -0.4431 -0.2331
  207SOL    HW1 2343   8.145   6.066   0.850  0.8206 -1.2619 -0.1507
  207SOL    HW2 2344   8.166   5.996   0.718 -2.1704  0.4458 -1.6591
  208SOL     OW 2345   8.259   1.150   1.481 -0.2316  0.2678  0.2511
  208SOL    HW1 2346   8.221   1.126   1.566  2.1240 -0.1718  1.2571
  208SOL    HW2 2347   8.263   1.246   1.484 -0.2778  0.2620  0.5870
  209SOL     OW 2348   2.214   0.133   2.828 -0.0345  0.3572  0.4012
  209SOL    HW1 2349   2.237   0.074   2.901  2.8196  0.7386 -0.0643
  209SOL    HW2 2350   2.193   0.216   2.870 -0.7681 -0.0639  0.8875
  210SOL     OW 2351   4.141   8.910   7.525  0.3370  0.7701 -0.5485
  210SOL    HW1 2352   4.128   8.834   7.469 -1.2486 -0.0061  0.7787
  210SOL    HW2 2353   4.234   8.933   7.514  0.2492  0.2383 -2.8810
  211SOL     OW 2354   9.330   1.705   7.505 -0.1677  0.2419 -0.3441
  211SOL    HW1 2355   9.370   1.652   7.436  0.9364 -0.2929  0.6770
  211SOL    HW2 2356   9.377   1.788   7.502  0.7385 -0.2146  0.5353
  212SOL     OW 2357   5.029   1.506   5.241 -0.1476 -0.1756 -0.4425
  212SOL    HW1 2358   5.109   1.537   5.199 -0.7601  0.1496 -1.4189
  212SOL    HW2 2359   5.023   1.557   5.322 -0.2815  1.1114 -1.2287
  213SOL     OW 2360   2.530   9.055   2.691 -0.6393  0.7999 -0.2892
  213SOL    HW1 2361   2.576   9.083   2.770 -0.9667  2.3285 -0.6061
  213SOL    HW2 2362   2.584   8.984   2.655 -0.8431 -0.4245  1.6511
  214SOL     OW 2363   3.055   3.550   4.958 -0.4197  1.0791 -0.6153
  214SOL    HW1 2364   3.094   3.637   4.946 -2.2776  2.1853  0.7787
  214SOL    HW2 2365   2.971   3.555   4.911 -0.4298 -0.0628 -0.7465
  215SOL     OW 2366   6.862   4.231   4.127  0.3245 -0.0895 -0.4767
  215SOL    HW1 2367   6.860   4.266   4.216  0.7250 -0.4957 -0.3100
  215SOL    HW2 2368   6.780   4.263   4.088  0.8557  1.3706 -0.4564
  216SOL     OW 2369   8.721   7.788   8.465  0.1470 -0.0126 -0.1767
  216SOL    HW1 2370   8.792   7.741   8.509 -0.7540  0.3977  1.8174
  216SOL    HW2 2371   8.646   7.729   8.472 -0.2405  0.4557 -0.3495
  217SOL     OW 2372   9.646   5.486   6.151 -0.1786  0.4087 -0.1042
  217SOL    HW1 2373   9.741   5.482   6.164  0.1333  1.3482 -1.8767
  217SOL    HW2 2374   9.625   5.407   6.102 -0.3121  0.2577  0.1903
  218SOL     OW 2375   8.539   9.231   8.118  0.1058 -0.1608 -0.0558
  218SOL    HW1 2376   8.507   9.163   8.059 -0.2655 -0.5572  0.6018
  218SOL    HW2 2377   8.470   9.242   8.183  0.2828  0.6472  0.0064
  219SOL     OW 2378   5.667   6.035   7.870  0.0319 -0.0751  0.2734
  219SOL    HW1 2379   5.745   5.981   7.858 -0.3370 -0.4377 -0.5312
  219SOL    HW2 2380   5.687   6.117   7.825 -0.4646 -0.5815 -0.9090
  220SOL     OW 2381   1.341   7.671   0.094 -0.1334  0.0177  0.2526
  220SOL    HW1 2382   1.363   7.647   0.004 -2.3345  2.0208 -0.9539
  220SOL    HW2 2383   1.425   7.674   0.139  1.0160 -1.3661 -1.6226
  221SOL     OW 2384   8.014   3.196   7.596  0.1890 -0.0643  0.2153
  221SOL    HW1 2385   8.042   3.281   7.629 -0.4265  0.4477 -0.5438
  221SOL    HW2 2386   8.083   3.170   7.534  1.2235 -0.9165  1.6697
  222SOL     OW 2387   1.239   7.230   0.420 -0.2337  0.4280 -0.7881
  222SOL    HW1 2388   1.149   7.261   0.423 -0.4385 -0.2118  0.0866
  222SOL    HW2 2389   1.250   7.180   0.501  1.3337  1.6335 -0.2157
  223SOL     OW 2390   8.150   4.899   7.167  0.1909 -0.4781 -0.7645
  223SOL    HW1 2391   8.178   4.808   7.180  0.4837 -0.2150  0.5631
  223SOL    HW2 2392   8.054   4.893   7.159  0.2054 -0.8934 -0.6490
  224SOL     OW 2393   8.355   2.246   4.274  0.0599  0.0117 -0.1654
  224SOL    HW1 2394   8.413   2.270   4.347  0.1669  0.3427 -0.3588
  224SOL    HW2 2395   8.270   2.280   4.300  0.1480  0.3364 -0.3005
  225SOL     OW 2396   7.192   7.511   7.036 -0.1475 -0.1768  0.4674
  225SOL    HW1 2397   7.217   7.603   7.039 -1.5377  0.2331  0.0841
  225SOL    HW2 2398   7.246   7.469   7.103  2.7417  0.3198 -1.3347
  226SOL     OW 2399   0.248   9.345   9.286 -0.0265 -0.1820  0.5600
  226SOL    HW1 2400   0.318   9.280   9.293 -0.3337 -0.6818 -0.6300
  226SOL    HW2 2401   0.168   9.295   9.302 -0.1456  0.3325  1.6566
  227SOL     OW 2402   3.987   7.899   7.237 -0.0339 -0.1478  0.2883
  227SOL    HW1 2403   4.060   7.864   7.185 -0.2137  0.0824 -0.1225
  227SOL    HW2 2404   4.023   7.977   7.280 -0.3793  0.7087 -0.9174
  228SOL     OW 2405   2.231   6.828   8.331  0.9855  0.1007 -0.2909
  228SOL    HW1 2406   2.309   6.841   8.276 -0.3457  1.9713 -1.9060
  228SOL    HW2 2407   2.180   6.762   8.284  1.6125 -1.2439  0.8498
  229SOL     OW 2408   2.502   7.238   0.084 -0.2927 -0.2734  0.1470
  229SOL    HW1 2409   2.559   7.237   0.161 -0.8358  4.1091  0.8835
  229SOL    HW2 2410   2.562   7.246   0.010  0.1705 -2.5951  0.2214
  230SOL     OW 2411   7.571   8.466   2.015  0.0356  0.0271 -0.4129
  230SOL    HW1 2412   7.559   8.561   2.008  1.6517  0.2978  0.0396
  230SOL    HW2 2413   7.496   8.436   2.067 -0.8609  0.9369 -1.1291
  231SOL     OW 2414   2.452   2.692   8.806 -0.5985 -0.0443  0.0449
  231SOL    HW1 2415   2.498   2.699   8.723 -1.6502  2.6559 -0.3978
  231SOL    HW2 2416   2.370   2.738   8.793 -0.5236  1.0732  2.7476
  232SOL     OW 2417   3.165   5.205   8.510  0.3700  0.2517  0.7912
  232SOL    HW1 2418   3.135   5.293   8.529 -0.3395  1.1653 -3.4689
  232SOL    HW2 2419   3.087   5.158   8.480  0.8119 -1.7581  2.5603
  233SOL     OW 2420   3.916   8.732   6.554 -0.0764  0.0949  0.5444
  233SOL    HW1 2421   3.857   8.721   6.629 -0.3509 -2.0497  0.0662
  233SOL    HW2 2422   3.970   8.653   6.555 -0.0029  0.0891 -1.4405
  234SOL     OW 2423   7.392   8.186   3.489  0.0322 -0.1992  0.9073
  234SOL    HW1 2424   7.399   8.274   3.525  1.4614  0.2387 -0.3430
  234SOL    HW2 2425   7.386   8.199   3.394 -1.2696 -1.3985  0.7864
  235SOL     OW 2426   4.508   4.817   5.015 -0.2532 -0.5856 -0.0126
  235SOL    HW1 2427   4.457   4.800   4.935 -0.3438 -0.1129 -0.0569
  235SOL    HW2 2428   4.484   4.906   5.040  1.1332 -0.0568 -0.4651
  236SOL     OW 2429   5.147   4.892   8.467  0.4540  0.0631 -0.0181
  236SOL    HW1 2430   5.093   4.923   8.539  1.1530  0.2656  0.4368
  236SOL    HW2 2431   5.201   4.823   8.505  1.5366  0.8424 -0.0791
  237SOL     OW 2432   9.215   5.630   1.936  0.5121 -0.2959  0.2679
  237SOL    HW1 2433   9.194   5.538   1.920  0.3857 -0.2475  0.1565
  237SOL    HW2 2434   9.131   5.669   1.963  0.6683 -0.3296  0.8321
  238SOL     OW 2435   3.413   0.613   5.734 -0.1348  0.3052  0.1114
  238SOL    HW1 2436   3.354   0.620   5.808 -0.5169  2.0659 -0.3175
  238SOL    HW2 2437   3.365   0.653   5.661  0.9634  0.3330 -0.6191
  239SOL     OW 2438   6.713   4.699   2.870 -0.2223  0.3844 -0.0228
  239SOL    HW1 2439   6.806   4.699   2.894 -0.3306  0.2533  0.4131
  239SOL    HW2 2440   6.684   4.788   2.890 -0.1205  0.5205 -0.4595
  240SOL     OW 2441   6.294   7.560   6.930 -0.0540 -0.0947 -0.1026
  240SOL    HW1 2442   6.282   7.547   6.836  0.8665 -0.5017 -0.1723
  240SOL    HW2 2443   6.329   7.477   6.962  1.8975  0.7857  0.1855
  241SOL     OW 2444   3.735   2.622   6.343 -0.0773  0.6823 -0.2150
  241SOL    HW1 2445   3.757   2.531   6.365 -0.9242  0.5257 -0.0072
  241SOL    HW2 2446   3.687   2.616   6.260 -0.0069  0.9574 -0.2789
  242SOL     OW 2447   9.381   8.874   2.558  0.3159 -0.4164 -0.0923
  242SOL    HW1 2448   9.393   8.817   2.482  1.2063 -0.8199  0.3341
  242SOL    HW2 2449   9.387   8.962   2.522 -0.4984 -0.5816 -0.6730
  243SOL     OW 2450   1.634   6.290   1.085 -0.0338 -0.2474  0.4030
  243SOL    HW1 2451   1.581   6.339   1.021 -0.4722 -0.8765  0.2791
  243SOL    HW2 2452   1.723   6.321   1.070 -0.6245  2.9301  2.4774
  244SOL     OW 2453   4.237   3.788   7.627  0.0042  0.2280  0.3949
  244SOL    HW1 2454   4.279   3.724   7.570 -0.8556 -0.8726  0.9472
  244SOL    HW2 2455   4.279   3.775   7.712 -0.1700  0.4009  0.5073
  245SOL     OW 2456   9.061   0.318   2.659  0.0757  0.6476  0.2027
  245SOL    HW1 2457   8.970   0.317   2.691  0.8136 -3.2599  2.8599
  245SOL    HW2 2458   9.058   0.267   2.578 -0.1935  0.9711  0.0088
  246SOL     OW 2459   8.902   6.228   1.615 -0.6206  0.2534  0.4961
  246SOL    HW1 2460   8.862   6.312   1.634  0.6457  0.6078  1.7019
  246SOL    HW2 2461   8.877   6.172   1.689 -1.0870 -0.3210 -0.0780
  247SOL     OW 2462   2.906   8.386   4.441 -0.6626  0.4431 -0.0882
  247SOL    HW1 2463   2.921   8.333   4.363 -0.7549 -1.5198  1.1610
  247SOL    HW2 2464   2.837   8.448   4.415 -0.9795 -0.4404 -1.4339
  248SOL     OW 2465   1.850   1.053   1.894  0.7393  0.3732 -0.3019
  248SOL    HW1 2466   1.895   1.104   1.962 -0.3134  3.1469 -1.5080
  248SOL    HW2 2467   1.909   1.055   1.819 -0.1780  1.7876 -1.0457
  249SOL     OW 2468   1.064   7.744   3.184 -0.4023  0.0506 -0.0262
  249SOL    HW1 2469   1.016   7.816   3.142  0.5383  0.3397 -0.6128
  249SOL    HW2 2470   1.055   7.761   3.278 -0.1309  0.9778 -0.1612
  250SOL     OW 2471   4.731   2.134   4.049  0.1622  0.4384  0.0350
  250SOL    HW1 2472   4.738   2.052   4.000 -0.4877  0.3450  0.0845
  250SOL    HW2 2473   4.658   2.181   4.008  0.3409  0.8603  0.1945
  251SOL     OW 2474   0.159   2.925   7.425  0.0924  0.6357  0.3123
  251SOL    HW1 2475   0.111   3.004   7.400 -2.0659 -0.6081  0.2789
  251SOL    HW2 2476   0.186   2.885   7.342 -0.0397  0.6155  0.2795
  252SOL     OW 2477   9.006   0.751   3.738 -0.0535  0.0384  0.3713
  252SOL    HW1 2478   8.937   0.766   3.802  0.6006 -1.8986  1.6094
  252SOL    HW2 2479   8.961   0.753   3.653 -1.4615 -0.1664  1.0911
  253SOL     OW 2480   1.562   0.470   4.814 -0.0452  0.2299  0.4167
  253SOL    HW1 2481   1.505   0.464   4.738 -1.1374  0.2173  1.2170
  253SOL    HW2 2482   1.646   0.502   4.779 -0.6449  0.6039 -0.7165
  254SOL     OW 2483   7.951   1.829   4.557  0.4825 -0.0910  0.1257
  254SOL    HW1 2484   7.885   1.783   4.505 -0.2949  0.6566  0.4309
  254SOL    HW2 2485   7.924   1.921   4.554  0.7748  0.0473  1.3309
  255SOL     OW 2486   9.018   6.219   8.858 -0.0904  0.0537  0.4350
  255SOL    HW1 2487   8.967   6.158   8.804  0.0056  0.2945  0.0699
  255SOL    HW2 2488   9.098   6.171   8.879  0.0701  0.1186 -0.0137
  256SOL     OW 2489   3.826   4.058   1.813  0.3747  0.0814 -0.4295
  256SOL    HW1 2490   3.854   4.028   1.899 -0.6118  2.0274  0.6352
  256SOL    HW2 2491   3.793   3.979   1.770  0.4971 -0.8556  1.1311
  257SOL     OW 2492   3.907   1.328   6.841 -0.1380 -0.0634  0.1898
  257SOL    HW1 2493   3.938   1.418   6.854  0.6378 -0.2728 -0.1650
  257SOL    HW2 2494   3.928   1.283   6.923 -1.3979  0.3002  0.7430
  258SOL     OW 2495   7.959   2.385   9.444 -0.6203 -0.3485  0.0543
  258SOL    HW1 2496   7.937   2.332   9.368  1.4372 -0.5567 -0.4623
  258SOL    HW2 2497   7.920   2.471   9.426  0.7660 -0.0536 -1.8085
  259SOL     OW 2498   6.568   8.189   1.536  0.0650 -0.0685  0.7604
  259SOL    HW1 2499   6.516   8.167   1.613  0.7897 -1.3524  0.9146
  259SOL    HW2 2500   6.509   8.241   1.481 -1.0366 -0.6229  1.3876
  260SOL     OW 2501   6.321   7.355   2.433 -0.3506 -0.1171 -0.3707
  260SOL    HW1 2502   6.237   7.376   2.473 -0.8239  0.4530 -1.6308
  260SOL    HW2 2503   6.317   7.261   2.417  0.0837 -0.4700  1.4178
  261SOL     OW 2504   6.090   1.052   9.258 -0.3063 -0.1675 -0.1825
  261SOL    HW1 2505   6.156   0.983   9.257 -0.2334 -0.0999 -0.9226
  261SOL    HW2 2506   6.116   1.112   9.188  0.6611  1.6200  1.5933
  262SOL     OW 2507   5.972   3.370   6.332 -0.6090  0.4506 -0.4635
  262SOL    HW1 2508   5.923   3.291   6.358 -0.4072  0.0548 -1.2359
  262SOL    HW2 2509   5.905   3.430   6.300 -0.6239 -0.0658 -1.4566
  263SOL     OW 2510   5.504   6.325   3.037  0.0205  0.0188 -0.1273
  263SOL    HW1 2511   5.571   6.276   2.989  1.4665  0.5528  1.2143
  263SOL    HW2 2512   5.464   6.260   3.095  0.2249 -0.0622 -0.0765
  264SOL     OW 2513   9.325   7.419   0.677 -0.7557 -0.3626 -0.2288
  264SOL    HW1 2514   9.323   7.499   0.624 -0.6526 -1.1825 -1.5066
  264SOL    HW2 2515   9.277   7.354   0.624 -0.3821 -1.2881  0.5465
  265SOL     OW 2516   5.277   6.661   4.794  0.0863 -0.5015 -0.1736
  265SOL    HW1 2517   5.249   6.730   4.734 -1.0744 -1.1110 -0.3540
  265SOL    HW2 2518   5.325   6.707   4.862 -0.0434  0.3968 -0.6768
  266SOL     OW 2519   0.794   3.087   7.603 -0.0199 -0.8433 -0.2262
  266SOL    HW1 2520   0.767   3.178   7.619 -0.1268 -1.1796  1.6663
  266SOL    HW2 2521   0.842   3.062   7.682 -0.7729 -2.7428 -0.3286
  267SOL     OW 2522   3.633   9.110   1.049 -0.6081  0.3745  0.0515
  267SOL    HW1 2523   3.636   9.139   0.958 -2.2547 -1.4634 -0.6715
  267SOL    HW2 2524   3.723   9.119   1.081 -0.4097  3.0868 -1.0344
  268SOL     OW 2525   5.919   0.964   4.776  0.5739 -0.1043 -0.5561
  268SOL    HW1 2526   5.882   1.037   4.728  0.6793 -0.0487 -0.5515
  268SOL    HW2 2527   5.909   0.889   4.717 -1.3658 -0.5098  0.2057
  269SOL     OW 2528   6.474   4.788   5.802  0.2622  0.4242  0.1628
  269SOL    HW1 2529   6.437   4.713   5.849 -0.4967 -0.4359 -1.6901
  269SOL    HW2 2530   6.486   4.855   5.869  0.4022 -1.1474  1.7789
  270SOL     OW 2531   4.264   0.437   3.047 -0.2543 -0.4380  0.7941
  270SOL    HW1 2532   4.176   0.455   3.079 -0.6636 -0.3967 -0.3181
  270SOL    HW2 2533   4.289   0.516   2.999  0.1544 -0.6743  0.6146
  271SOL     OW 2534   5.722   0.462   0.865 -0.0607 -0.5119  0.1713
  271SOL    HW1 2535   5.748   0.380   0.906 -2.3362 -1.5586 -0.3621
  271SOL    HW2 2536   5.730   0.527   0.936  1.1024 -1.2950  0.7863
  272SOL     OW 2537   8.433   8.705   1.736 -0.1895 -0.4304  0.0003
  272SOL    HW1 2538   8.518   8.735   1.768  0.2383  0.1346 -1.5528
  272SOL    HW2 2539   8.445   8.694   1.642 -0.9576 -3.5067  0.1659
  273SOL     OW 2540   2.606   4.812   6.855  0.1851  0.5001 -0.0299
  273SOL    HW1 2541   2.525   4.787   6.810  0.8593  0.8212 -1.5012
  273SOL    HW2 2542   2.604   4.908   6.857  0.8795  0.5424 -0.7960
  274SOL     OW 2543   8.768   2.245   4.973  0.0720  0.3584 -0.2255
  274SOL    HW1 2544   8.679   2.227   4.943 -0.0816 -0.6905  0.8065
  274SOL    HW2 2545   8.776   2.340   4.967 -0.5602  0.3428 -1.8309
  275SOL     OW 2546   7.375   1.243   7.998 -0.1415 -0.1133  0.1712
  275SOL    HW1 2547   7.426   1.262   7.919  0.1800 -1.4127  0.0506
  275SOL    HW2 2548   7.420   1.291   8.068 -0.0857  0.5675 -0.3156
  276SOL     OW 2549   5.903   6.073   4.093 -0.2534 -0.2552 -0.3133
  276SOL    HW1 2550   5.817   6.039   4.114  0.3075 -1.1856  0.5804
  276SOL    HW2 2551   5.957   5.995   4.079  0.3867  0.3143 -1.1408
  277SOL     OW 2552   4.987   1.868   6.473  0.3679 -0.6551  0.0985
  277SOL    HW1 2553   5.055   1.863   6.540 -1.1202  0.0466  1.7460
  277SOL    HW2 2554   5.020   1.814   6.402  2.3398 -0.8739  1.0987
  278SOL     OW 2555   6.951   6.676   4.372  0.3890 -0.0756 -0.2439
  278SOL    HW1 2556   6.863   6.638   4.369 -0.2988  1.3461  0.8598
  278SOL    HW2 2557   6.987   6.660   4.285 -0.3688 -2.0057 -0.2500
  279SOL     OW 2558   0.143   9.377   4.037  0.0993 -0.2684 -0.7187
  279SOL    HW1 2559   0.202   9.302   4.029 -1.1585 -1.5174  1.0717
  279SOL    HW2 2560   0.179   9.428   4.109  0.0903  0.0229 -0.9197
  280SOL     OW 2561   8.098   5.275   3.400 -0.0355  0.2502 -0.2044
  280SOL    HW1 2562   8.123   5.188   3.369 -0.3973  0.0619  0.0236
  280SOL    HW2 2563   8.031   5.258   3.466  0.2538  0.6759  0.2055
  281SOL     OW 2564   1.038   6.033   2.075 -0.0897  0.0698  0.2994
  281SOL    HW1 2565   1.112   6.057   2.130  0.1090 -1.6925  0.8784
  281SOL    HW2 2566   1.024   5.940   2.094 -0.5387 -0.3935 -2.0239
  282SOL     OW 2567   6.536   9.680   5.829 -0.2594 -0.0619  0.3789
  282SOL    HW1 2568   6.556   9.722   5.912  0.0491 -0.2605  0.4068
  282SOL    HW2 2569   6.621   9.650   5.796 -0.4166 -0.2461  0.1347
  283SOL     OW 2570   4.540   0.033   2.447  0.1053  0.1482 -0.0322
  283SOL    HW1 2571   4.578  -0.054   2.458  0.4258  0.1101 -1.3012
  283SOL    HW2 2572   4.598   0.091   2.498  0.9118 -0.1413 -0.6114
  284SOL     OW 2573   2.128   7.019   0.014 -0.4169 -0.0564  0.2046
  284SOL    HW1 2574   2.186   7.094   0.030  1.2691 -0.8851 -1.6139
  284SOL    HW2 2575   2.130   6.969   0.095 -0.6211  1.2089  1.0288
  285SOL     OW 2576   2.300   2.793   4.341 -0.3127  0.9789 -0.0365
  285SOL    HW1 2577   2.314   2.727   4.273 -1.4499  0.3942  0.2636
  285SOL    HW2 2578   2.225   2.761   4.390 -0.3830  2.0997  0.6259
  286SOL     OW 2579   9.624   7.737   4.309 -0.2288  0.3197 -0.2939
  286SOL    HW1 2580   9.663   7.821   4.282 -0.6340  0.4717 -0.4117
  286SOL    HW2 2581   9.664   7.719   4.394 -2.0545  1.9476  1.0093
  287SOL     OW 2582   8.858   6.391   6.655  0.1472  0.2743  0.7052
  287SOL    HW1 2583   8.797   6.421   6.586 -1.5963 -0.1585  1.9857
  287SOL    HW2 2584   8.944   6.393   6.613 -0.6617  1.4263 -1.0388
  288SOL     OW 2585   3.981   6.529   2.202  0.2864  0.1281 -0.2252
  288SOL    HW1 2586   3.904   6.538   2.258  1.8691  0.1671  2.0793
  288SOL    HW2 2587   3.968   6.447   2.156 -1.3561  0.3968 -0.2876
  289SOL     OW 2588   7.548   8.397   7.815  1.0814  0.0711  0.7211
  289SOL    HW1 2589   7.541   8.428   7.725  0.6270 -0.7766  0.4532
  289SOL    HW2 2590   7.585   8.309   7.808 -0.6913 -0.7712  1.1842
  290SOL     OW 2591   7.687   2.776   9.559 -0.4879 -0.1742 -0.7366
  290SOL    HW1 2592   7.674   2.682   9.542 -2.2443  0.0614 -0.9127
  290SOL    HW2 2593   7.601   2.815   9.544 -0.1976  1.2445  0.9137
  291SOL     OW 2594   8.536   8.082   5.255 -0.3010  0.2608  0.1775
  291SOL    HW1 2595   8.496   8.141   5.192 -0.4042  1.1766  1.0716
  291SOL    HW2 2596   8.462   8.040   5.299 -0.3108  1.3039  1.2214
  292SOL     OW 2597   5.377   5.596   9.168 -0.1584  0.5029  0.3640
  292SOL    HW1 2598   5.448   5.621   9.108  0.3080 -1.5734 -0.0130
  292SOL    HW2 2599   5.354   5.678   9.212  0.5359  1.7996 -1.5223
  293SOL     OW 2600   0.490   8.704   3.699 -0.1507  0.4941  0.3144
  293SOL    HW1 2601   0.563   8.764   3.685 -0.1900  0.8130  1.3684
  293SOL    HW2 2602   0.530   8.623   3.731 -0.3432  1.2253  2.5317
  294SOL     OW 2603   2.358   6.828   0.268  0.2954 -0.1820 -0.6232
  294SOL    HW1 2604   2.368   6.818   0.363 -0.6832 -0.3617 -0.5253
  294SOL    HW2 2605   2.385   6.918   0.250 -2.6123  1.0299  0.3564
  295SOL     OW 2606   2.488   0.371   4.408 -0.1084 -0.2063  0.6260
  295SOL    HW1 2607   2.557   0.437   4.411  0.3906 -0.7094  0.5810
  295SOL    HW2 2608   2.504   0.325   4.325 -0.7051 -0.1121  0.4565
  296SOL     OW 2609   2.863   9.388   2.757 -0.0149  0.2665 -0.1202
  296SOL    HW1 2610   2.878   9.295   2.741  0.1264  0.4131 -0.8493
  296SOL    HW2 2611   2.935   9.433   2.713 -0.6678  0.7773 -0.7010
  297SOL     OW 2612   0.999   5.086   4.166  0.4195  0.4208  0.0912
  297SOL    HW1 2613   1.036   4.998   4.169  1.4708  0.8606  0.6090
  297SOL    HW2 2614   1.056   5.133   4.105 -0.4275  0.6299 -0.5642
  298SOL     OW 2615   4.261   2.016   8.593 -0.5553 -0.7350  0.1491
  298SOL    HW1 2616   4.226   2.012   8.682 -1.0445 -0.6366 -0.0369
  298SOL    HW2 2617   4.222   2.095   8.555  0.8277  0.0615  0.3415
  299SOL     OW 2618   6.773   1.372   8.454 -0.5390 -0.2250  0.0340
  299SOL    HW1 2619   6.711   1.309   8.492 -1.0451  0.0185 -0.3809
  299SOL    HW2 2620   6.758   1.453   8.503  0.3114 -0.4979  0.7603
  300SOL     OW 2621   0.174   1.970   5.743  0.0804  0.9679  0.4154
  300SOL    HW1 2622   0.261   2.003   5.766 -0.3010  2.0614  0.3452
  300SOL    HW2 2623   0.191   1.895   5.686  0.9833  1.6450 -0.2415
  301SOL     OW 2624   0.702   3.910   8.087 -0.1742  0.2083 -0.0893
  301SOL    HW1 2625   0.764   3.885   8.156  0.8589 -0.7384 -1.3201
  301SOL    HW2 2626   0.679   4.001   8.109  0.8700  0.2511  0.9694
  302SOL     OW 2627   4.583   0.719   5.752 -0.7771  0.0120 -0.2318
  302SOL    HW1 2628   4.505   0.720   5.695 -0.1867 -0.1830 -1.0616
  302SOL    HW2 2629   4.552   0.754   5.836 -1.7867 -0.1737 -0.5147
  303SOL     OW 2630   9.293   4.242   4.322  0.5475 -0.1146  0.2922
  303SOL    HW1 2631   9.232   4.242   4.395  2.0310  0.2119  1.5775
  303SOL    HW2 2632   9.264   4.315   4.266 -0.7998 -0.5878  0.3379
  304SOL     OW 2633   3.675   1.609   8.276 -0.1024 -0.1070 -0.1776
  304SOL    HW1 2634   3.635   1.522   8.282 -1.2924  0.3971 -0.4218
  304SOL    HW2 2635   3.766   1.596   8.302 -0.0031 -1.5995 -1.1650
  305SOL     OW 2636   1.995   7.645   8.795  0.1536  0.1516 -0.5215
  305SOL    HW1 2637   2.014   7.592   8.717 -0.4101 -0.1480 -0.4586
  305SOL    HW2 2638   1.904   7.671   8.785  0.4790  1.3012 -0.6554
  306SOL     OW 2639   6.138   0.770   3.722  0.1743  0.0779  0.1392
  306SOL    HW1 2640   6.073   0.766   3.791  0.0233  0.0929 -0.0016
  306SOL    HW2 2641   6.087   0.772   3.641  0.3402  0.4636  0.0423
  307SOL     OW 2642   3.217   9.483   0.730  0.2989  0.0219 -0.0670
  307SOL    HW1 2643   3.293   9.514   0.778  1.0931  0.4342 -1.5446
  307SOL    HW2 2644   3.239   9.393   0.706 -0.6296 -0.6239  1.3938
  308SOL     OW 2645   4.274   8.527   9.041 -0.6265  0.0054 -0.3039
  308SOL    HW1 2646   4.204   8.515   9.106  0.5016 -0.5432  0.8626
  308SOL    HW2 2647   4.333   8.453   9.057  1.2660  1.5439  0.1389
  309SOL     OW 2648   8.849   6.640   1.624  1.0648  0.2959 -0.4438
  309SOL    HW1 2649   8.792   6.612   1.552 -0.1715 -0.4023  0.7657
  309SOL    HW2 2650   8.907   6.705   1.585  0.0696  0.3192 -1.9471
  310SOL     OW 2651   5.198   4.506   6.715 -0.5470  0.1883  0.0369
  310SOL    HW1 2652   5.267   4.547   6.768  1.0746  0.7849 -2.3680
  310SOL    HW2 2653   5.240   4.488   6.631 -3.1058 -0.2756 -1.2439
  311SOL     OW 2654   3.174   6.241   0.636 -1.1235 -0.5685  0.2242
  311SOL    HW1 2655   3.135   6.217   0.720 -0.7751 -0.3192  0.4600
  311SOL    HW2 2656   3.100   6.268   0.582 -1.2762 -0.0919  0.6695
  312SOL     OW 2657   2.029   2.217   9.246  0.1998  0.3337  0.1797
  312SOL    HW1 2658   2.084   2.154   9.198 -0.3472 -0.4827  0.6078
  312SOL    HW2 2659   2.091   2.285   9.275  0.9576 -0.4696  0.4864
  313SOL     OW 2660   2.297   4.891   9.429 -0.0835  0.1801 -0.1858
  313SOL    HW1 2661   2.242   4.933   9.495 -1.4489 -1.5988 -0.1307
  313SOL    HW2 2662   2.358   4.838   9.480 -0.5049 -0.4389 -0.3208
  314SOL     OW 2663   9.555   5.653   9.453  0.1940  0.0652 -0.0677
  314SOL    HW1 2664   9.612   5.691   9.387  0.4381  0.3777  0.3141
  314SOL    HW2 2665   9.466   5.671   9.422  0.3074  0.3764 -0.2143
  315SOL     OW 2666   4.622   0.178   3.537 -0.4792  0.1002  0.0939
  315SOL    HW1 2667   4.583   0.098   3.501 -1.8730  0.6532  0.3166
  315SOL    HW2 2668   4.683   0.207   3.469  1.1406 -1.8911  0.5960
  316SOL     OW 2669   7.806   6.102   5.456 -0.1847 -0.0663  1.2862
  316SOL    HW1 2670   7.889   6.115   5.411 -0.9164 -0.9623 -0.4349
  316SOL    HW2 2671   7.776   6.190   5.477 -1.3966  0.8462 -3.1521
  317SOL     OW 2672   2.909   3.312   5.661 -0.0953  0.1311 -0.2731
  317SOL    HW1 2673   3.001   3.340   5.660  0.3824 -1.3360 -0.1860
  317SOL    HW2 2674   2.880   3.320   5.570  0.2216  0.3177 -0.3584
  318SOL     OW 2675   2.043   5.399   9.455 -0.0077  0.0555 -0.0210
  318SOL    HW1 2676   1.979   5.375   9.523  0.6290  0.9408  0.9340
  318SOL    HW2 2677   2.114   5.441   9.504  1.3905 -1.0512 -1.0459
  319SOL     OW 2678   8.881   3.623   9.328  0.0986 -0.0826 -0.6178
  319SOL    HW1 2679   8.964   3.596   9.287  0.1662 -1.0085  0.1043
  319SOL    HW2 2680   8.849   3.544   9.371 -1.7232 -0.0486 -1.7900
  320SOL     OW 2681   3.616   1.114   3.400 -0.6042  0.5267  0.0493
  320SOL    HW1 2682   3.556   1.040   3.412 -2.6950  2.3248  1.5397
  320SOL    HW2 2683   3.563   1.191   3.418  1.5224  2.4277 -1.2963
  321SOL     OW 2684   1.325   6.842   3.737  0.7304  0.0865  0.3306
  321SOL    HW1 2685   1.363   6.869   3.820  1.1688 -0.1098  0.1976
  321SOL    HW2 2686   1.389   6.781   3.700  0.9379  0.8115 -0.5386
  322SOL     OW 2687   6.938   2.638   3.716 -0.5044 -0.3170  0.0923
  322SOL    HW1 2688   6.856   2.606   3.755 -0.2928 -0.2102  0.6403
  322SOL    HW2 2689   6.957   2.719   3.764  0.0055 -0.4260  0.0812
  323SOL     OW 2690   9.392   4.188   1.256 -0.0709  0.6274  0.4197
  323SOL    HW1 2691   9.478   4.181   1.299  1.3099  3.3212 -1.5789
  323SOL    HW2 2692   9.342   4.245   1.315  1.8496  4.4078 -1.2354
  324SOL     OW 2693   1.542   8.613   7.062  0.0398 -0.1197  0.1524
  324SOL    HW1 2694   1.592   8.683   7.019 -0.7275 -0.3449 -1.1770
  324SOL    HW2 2695   1.607   8.544   7.079  0.6655  0.6155  0.8389
  325SOL     OW 2696   4.831   7.640   0.490  0.2329  0.1361 -0.0236
  325SOL    HW1 2697   4.794   7.698   0.557 -0.1052  0.7884 -0.7556
  325SOL    HW2 2698   4.765   7.640   0.421  2.0362  2.2948 -1.9325
  326SOL     OW 2699   0.472   7.540   4.921  0.3993 -0.4245  0.0613
  326SOL    HW1 2700   0.408   7.562   4.854 -0.0609 -1.4597  0.1463
  326SOL    HW2 2701   0.542   7.605   4.909  0.7308 -1.0725 -1.9584
  327SOL     OW 2702   7.939   2.270   7.352 -0.2989  0.0661  0.2008
  327SOL    HW1 2703   7.901   2.236   7.433 -0.9358  1.0372  0.3130
  327SOL    HW2 2704   7.965   2.191   7.303  0.5183 -0.5324  1.5336
  328SOL     OW 2705   0.292   4.258   0.814  1.1125 -0.4530  0.1347
  328SOL    HW1 2706   0.342   4.329   0.775  1.3478 -0.3979  0.5290
  328SOL    HW2 2707   0.220   4.302   0.860 -0.6576 -0.6205 -2.2646
  329SOL     OW 2708   7.476   6.953   6.316 -0.2058 -0.0476  0.1558
  329SOL    HW1 2709   7.446   7.037   6.351 -1.9620  0.2353 -1.8329
  329SOL    HW2 2710   7.457   6.891   6.386 -2.8520  0.6091  0.1510
  330SOL     OW 2711   6.209   6.829   8.278 -0.8169 -0.0503  0.0802
  330SOL    HW1 2712   6.150   6.904   8.278 -1.8184 -0.8202  0.0357
  330SOL    HW2 2713   6.297   6.867   8.280 -1.1141  1.2554 -3.7579
  331SOL     OW 2714   7.341   7.963   9.176  0.0830 -0.5416  0.3612
  331SOL    HW1 2715   7.275   7.947   9.109 -0.7244  0.4196  0.8959
  331SOL    HW2 2716   7.302   7.929   9.256  0.3155 -0.1639  0.6392
  332SOL     OW 2717   8.144   2.067   4.456  0.2597 -0.0463  0.4902
  332SOL    HW1 2718   8.129   2.144   4.511 -0.4230 -0.1771  0.4908
  332SOL    HW2 2719   8.220   2.091   4.402  1.2815 -0.1146  1.8534
  333SOL     OW 2720   2.414   7.374   9.273 -0.7062 -0.2577 -0.4391
  333SOL    HW1 2721   2.443   7.465   9.281 -0.9443 -0.2336  0.1798
  333SOL    HW2 2722   2.458   7.342   9.194 -0.0987  0.1902 -0.2898
  334SOL     OW 2723   9.043   0.339   8.206 -0.2492 -0.3819 -0.1682
  334SOL    HW1 2724   9.101   0.299   8.141  1.4436  0.4858  0.7391
  334SOL    HW2 2725   9.049   0.282   8.282  1.8105  1.2081  0.9653
  335SOL     OW 2726   9.297   6.489   2.202  0.1273  0.0495  0.4287
  335SOL    HW1 2727   9.241   6.437   2.260  0.2245 -1.7546 -1.0216
  335SOL    HW2 2728   9.368   6.430   2.177  0.7734  1.1825 -0.5302
  336SOL     OW 2729   0.250   4.901   1.101 -0.5101 -0.1105 -0.3986
  336SOL    HW1 2730   0.161   4.918   1.070  0.4171  0.5496 -2.9622
  336SOL    HW2 2731   0.282   4.987   1.128 -0.7510 -0.4191  0.9431
  337SOL     OW 2732   2.754   2.136   1.470 -0.3421 -0.2513 -0.4857
  337SOL    HW1 2733   2.728   2.226   1.450 -0.9255 -0.3925 -0.3758
  337SOL    HW2 2734   2.833   2.146   1.523 -1.1445  0.2513  0.6640
  338SOL     OW 2735   5.422   4.498   3.382 -0.4502 -0.5393 -0.2329
  338SOL    HW1 2736   5.485   4.430   3.359  0.5942 -0.2642  1.6682
  338SOL    HW2 2737   5.375   4.515   3.300 -0.1050 -2.8494 -0.9823
  339SOL     OW 2738   0.908   6.282   2.146 -0.0405 -0.5119 -0.0709
  339SOL    HW1 2739   0.932   6.231   2.069 -0.5500 -0.5384 -0.2147
  339SOL    HW2 2740   0.947   6.234   2.219  1.3086  0.0620 -0.3901
  340SOL     OW 2741   0.735   1.390   8.977 -0.4097  0.5199  0.0844
  340SOL    HW1 2742   0.751   1.462   8.916 -0.2644 -0.8345 -1.5659
  340SOL    HW2 2743   0.795   1.321   8.948 -0.2149 -0.1286  1.9008
  341SOL     OW 2744   3.328   2.713   6.866  0.3112 -0.2776  0.3665
  341SOL    HW1 2745   3.392   2.697   6.936  0.9881 -1.3910 -0.4611
  341SOL    HW2 2746   3.308   2.626   6.832 -1.5566  0.0755  0.5013
  342SOL     OW 2747   0.125   2.783   6.074 -0.2401 -0.0049 -0.2316
  342SOL    HW1 2748   0.211   2.755   6.105 -0.9143 -0.1986  1.6355
  342SOL    HW2 2749   0.086   2.705   6.036  0.1618 -0.0881 -0.4735
  343SOL     OW 2750   7.726   3.508   2.366  0.1680  0.0061  0.5275
  343SOL    HW1 2751   7.721   3.466   2.452 -1.1459  0.0186  0.4802
  343SOL    HW2 2752   7.703   3.600   2.384  0.9378  0.2426  0.3153
  344SOL     OW 2753   1.731   6.598   0.351 -0.1765 -0.0194 -0.2341
  344SOL    HW1 2754   1.771   6.526   0.302 -0.7048 -0.7627  0.4045
  344SOL    HW2 2755   1.779   6.601   0.433  0.2540  0.7729 -0.5105
  345SOL     OW 2756   4.562   8.143   7.226 -0.2529 -0.1706 -0.5629
  345SOL    HW1 2757   4.635   8.081   7.231 -0.1181  0.0470  0.3792
  345SOL    HW2 2758   4.493   8.095   7.182  0.3820 -0.4578 -1.2576
  346SOL     OW 2759   3.967   6.076   3.230 -0.0182 -0.7754 -0.4529
  346SOL    HW1 2760   3.984   6.133   3.305 -0.1836 -1.2419 -0.0626
  346SOL    HW2 2761   3.872   6.070   3.225 -0.0732  0.4233 -1.5896
  347SOL     OW 2762   2.843   3.155   4.063 -0.1247  0.1901 -0.1638
  347SOL    HW1 2763   2.792   3.230   4.093  1.6665  0.8349  1.4401
  347SOL    HW2 2764   2.919   3.193   4.020 -0.2379 -0.7473 -1.2420
  348SOL     OW 2765   9.070   6.744   4.729  0.1046  0.1055 -0.8125
  348SOL    HW1 2766   9.065   6.838   4.714 -0.6533  0.0988 -0.6245
  348SOL    HW2 2767   8.979   6.715   4.734  0.3054 -0.4002  0.5322
  349SOL     OW 2768   9.589   0.784   0.412 -0.0870 -0.4279 -0.0353
  349SOL    HW1 2769   9.677   0.802   0.379 -0.9300  0.4345 -1.9937
  349SOL    HW2 2770   9.540   0.755   0.336 -1.9410  0.7896  0.6143
  350SOL     OW 2771   7.026   6.166   0.600 -0.2011 -0.1071 -0.0558
  350SOL    HW1 2772   6.962   6.127   0.542 -1.3364  0.5998  0.6836
  350SOL    HW2 2773   6.988   6.156   0.688 -0.3386  2.2043  0.2028
  351SOL     OW 2774   2.502   7.028   4.922  0.3411 -0.5673 -0.3288
  351SOL    HW1 2775   2.473   7.116   4.898 -0.2779 -0.2254  1.4672
  351SOL    HW2 2776   2.548   7.040   5.005  0.3479 -1.9206 -0.1064
  352SOL     OW 2777   7.465   8.995   1.369 -0.1284 -0.0285  0.6270
  352SOL    HW1 2778   7.438   9.026   1.456 -1.0673 -0.2322  0.4231
  352SOL    HW2 2779   7.395   8.935   1.343  1.5242 -2.1760  0.9180
  353SOL     OW 2780   6.242   3.031   7.656 -0.1181 -0.4308 -0.3310
  353SOL    HW1 2781   6.179   3.040   7.584  0.1417  0.0237 -0.5000
  353SOL    HW2 2782   6.253   3.119   7.690  0.8471 -0.4261 -0.6505
  354SOL     OW 2783   7.682   1.824   6.389  0.3765  0.5134  0.4412
  354SOL    HW1 2784   7.719   1.742   6.354  1.0657  0.6228  0.8848
  354SOL    HW2 2785   7.611   1.846   6.329  0.1195 -0.4606  0.3686
  355SOL     OW 2786   5.371   9.166   4.424 -0.0274  0.0940 -0.0734
  355SOL    HW1 2787   5.452   9.200   4.386  0.2528  1.3988  1.5729
  355SOL    HW2 2788   5.399   9.115   4.500 -0.7317  0.8333  0.7115
  356SOL     OW 2789   1.952   9.364   3.094  0.6771 -0.3763  0.3045
  356SOL    HW1 2790   2.022   9.362   3.159  0.3587  2.6082  0.8840
  356SOL    HW2 2791   1.880   9.315   3.135  0.4799  1.4240  2.3261
  357SOL     OW 2792   8.521   2.511   4.727  0.4601  0.5531  0.5257
  357SOL    HW1 2793   8.489   2.598   4.752 -0.3121  0.8718 -1.3785
  357SOL    HW2 2794   8.589   2.528   4.662 -0.9957 -0.2308 -1.3124
  358SOL     OW 2795   7.016   2.226   1.707  0.5362 -0.4389  0.7117
  358SOL    HW1 2796   7.036   2.171   1.631  2.1217  0.3835  0.4776
  358SOL    HW2 2797   7.094   2.218   1.763 -0.1859 -0.2343  1.7778
  359SOL     OW 2798   4.739   2.912   8.442 -0.1894  0.1878  0.1080
  359SOL    HW1 2799   4.716   2.974   8.512 -1.5609  1.9983 -1.8099
  359SOL    HW2 2800   4.832   2.927   8.426  0.4203 -1.0112  2.1720
  360SOL     OW 2801   3.548   3.730   0.905  0.2365 -0.1507 -0.5412
  360SOL    HW1 2802   3.536   3.668   0.977 -1.1298  0.3657 -0.3002
  360SOL    HW2 2803   3.642   3.727   0.887  0.9904  0.9949  2.4662
  361SOL     OW 2804   7.692   0.449   3.905 -0.2237  0.3184  0.1502
  361SOL    HW1 2805   7.716   0.425   3.995  4.0231  0.1260 -0.8197
  361SOL    HW2 2806   7.658   0.538   3.913 -0.1028  0.2421  1.9779
  362SOL     OW 2807   2.903   7.690   2.531  0.5076  0.3048 -0.0238
  362SOL    HW1 2808   2.960   7.667   2.458  2.0142  0.9538  0.9163
  362SOL    HW2 2809   2.949   7.659   2.609  0.6486  2.6959  0.9347
  363SOL     OW 2810   4.921   0.954   6.371 -0.0480  0.0257 -0.9162
  363SOL    HW1 2811   4.857   0.909   6.315  1.2897 -0.4745 -2.1050
  363SOL    HW2 2812   4.974   1.006   6.310  0.7201  0.3677  0.0218
  364SOL     OW 2813   6.608   4.662   6.562  0.3380  0.6080 -0.1601
  364SOL    HW1 2814   6.617   4.605   6.485  0.7452  3.2514 -2.2002
  364SOL    HW2 2815   6.683   4.640   6.617 -0.0150 -1.4244 -0.4136
  365SOL     OW 2816   7.474   0.390   6.117 -0.1542 -0.0387 -0.2867
  365SOL    HW1 2817   7.387   0.410   6.083  0.4037 -1.7434 -3.0455
  365SOL    HW2 2818   7.522   0.472   6.109 -1.0580  0.5133 -0.2074
  366SOL     OW 2819   5.894   5.502   6.704  0.4255 -0.5881 -0.3648
  366SOL    HW1 2820   5.990   5.500   6.697  0.6561  0.8712  1.3767
  366SOL    HW2 2821   5.873   5.596   6.706 -0.9073 -0.8845  0.4772
  367SOL     OW 2822   8.745   6.662   5.307  0.0209  0.1988  0.0239
  367SOL    HW1 2823   8.666   6.619   5.275 -1.3583 -0.2543  3.5857
  367SOL    HW2 2824   8.761   6.623   5.393  3.7216  0.8529 -0.1773
  368SOL     OW 2825   8.061   6.945   7.597 -0.2773 -0.5552  0.0111
  368SOL    HW1 2826   8.061   6.963   7.503  1.8139 -0.3917 -0.0194
  368SOL    HW2 2827   7.992   6.880   7.609 -1.0778 -0.0419 -1.5133
  369SOL     OW 2828   1.638   2.492   6.926 -0.3626 -0.4165  0.3913
  369SOL    HW1 2829   1.550   2.521   6.902 -0.8540 -0.0707  2.4043
  369SOL    HW2 2830   1.675   2.566   6.974  0.9509 -0.6657 -0.1975
  370SOL     OW 2831   6.673   9.483   0.655  0.5191  0.4949 -0.4182
  370SOL    HW1 2832   6.602   9.453   0.598  0.5160  0.9207 -0.6434
  370SOL    HW2 2833   6.631   9.504   0.738 -0.0085  2.7618 -1.1689
  371SOL     OW 2834   6.124   1.923   1.858  0.3632 -0.0295 -0.4683
  371SOL    HW1 2835   6.083   1.898   1.942 -0.4335  2.1649 -0.1363
  371SOL    HW2 2836   6.201   1.867   1.851 -0.9892 -2.1246  0.4302
  372SOL     OW 2837   1.640   5.884   7.054 -0.2125  0.3042 -0.2660
  372SOL    HW1 2838   1.662   5.921   7.140  0.4280 -1.6670  0.4778
  372SOL    HW2 2839   1.545   5.883   7.052 -0.2441  1.2597 -0.0067
  373SOL     OW 2840   7.354   1.191   3.106  0.6204  0.7803  0.5382
  373SOL    HW1 2841   7.405   1.271   3.102 -1.7346  2.3287 -0.3299
  373SOL    HW2 2842   7.311   1.194   3.192  0.3247  0.5903  0.3988
  374SOL     OW 2843   9.678   3.842   9.244 -0.0321 -0.0494 -0.2615
  374SOL    HW1 2844   9.601   3.788   9.260  0.8209 -2.3153 -3.0266
  374SOL    HW2 2845   9.642   3.930   9.229 -1.9700 -0.7958 -0.3131
  375SOL     OW 2846   4.152   3.209   5.988  0.1575  0.3731 -0.2085
  375SOL    HW1 2847   4.121   3.145   6.053  0.4450  0.5938  0.1513
  375SOL    HW2 2848   4.236   3.174   5.958  1.1340  1.3877  1.2060
  376SOL     OW 2849   9.465   4.426   5.034  0.0188  0.3749  0.1034
  376SOL    HW1 2850   9.473   4.335   5.004 -0.7490  0.8181 -1.5596
  376SOL    HW2 2851   9.441   4.475   4.955 -1.8528  1.6645  1.4070
  377SOL     OW 2852   4.799   0.132   1.669  0.4147  0.1077  0.3248
  377SOL    HW1 2853   4.787   0.106   1.760  2.0505  1.5570  1.0122
  377SOL    HW2 2854   4.867   0.073   1.636  0.9655  0.6071  0.5472
  378SOL     OW 2855   3.226   3.620   2.640  0.9842 -0.2270 -0.5428
  378SOL    HW1 2856   3.139   3.594   2.610 -0.1965  1.1302  1.5026
  378SOL    HW2 2857   3.232   3.713   2.619  1.0166  0.2182  1.2980
  379SOL     OW 2858   4.956   2.411   5.036  0.9145 -0.1696  0.9737
  379SOL    HW1 2859   4.972   2.505   5.047  2.0012 -0.3844  1.3492
  379SOL    HW2 2860   4.862   2.401   5.052  1.2295  0.4777  3.9360
  380SOL     OW 2861   5.620   8.895   1.758 -0.4875  0.0076  0.2170
  380SOL    HW1 2862   5.695   8.944   1.726  0.9019 -3.1228 -1.7794
  380SOL    HW2 2863   5.548   8.920   1.700 -0.7136  2.0004  1.2819
  381SOL     OW 2864   3.996   3.994   0.785  0.2365 -0.0587  0.3906
  381SOL    HW1 2865   4.022   4.002   0.877 -0.3693  0.0179  0.5615
  381SOL    HW2 2866   4.062   3.937   0.746  1.0565  0.6985  0.6401
  382SOL     OW 2867   3.870   4.186   4.729  0.6794  0.3333 -0.7685
  382SOL    HW1 2868   3.885   4.271   4.689  0.0504  0.4732 -0.7173
  382SOL    HW2 2869   3.775   4.183   4.744  0.7950 -0.0667 -0.0865
  383SOL     OW 2870   8.359   4.928   6.118  0.0003 -0.2505  0.1225
  383SOL    HW1 2871   8.310   4.861   6.166 -0.6199  0.4730  0.5069
  383SOL    HW2 2872   8.320   5.011   6.145  0.7361  0.2729 -0.3796
  384SOL     OW 2873   8.284   0.433   8.652 -0.1473 -0.1939 -0.0355
  384SOL    HW1 2874   8.198   0.426   8.693 -1.8307 -2.4571 -3.5116
  384SOL    HW2 2875   8.279   0.513   8.600 -0.1212 -0.2817 -0.1735
  385SOL     OW 2876   6.891   6.564   3.403  0.1635  0.0455 -0.4201
  385SOL    HW1 2877   6.951   6.489   3.403 -0.0185 -0.1098  0.4202
  385SOL    HW2 2878   6.943   6.637   3.436  0.0215  0.0177 -0.1314
  386SOL     OW 2879   7.211   0.293   9.333 -0.3274 -0.2811  1.0733
  386SOL    HW1 2880   7.125   0.317   9.297  0.4048  0.1154 -0.4775
  386SOL    HW2 2881   7.244   0.373   9.373  0.0308  0.0238  0.1817
  387SOL     OW 2882   8.163   3.844   1.045  0.3253 -0.1025 -0.1590
  387SOL    HW1 2883   8.163   3.867   1.137  3.1832 -0.7701  0.1134
  387SOL    HW2 2884   8.149   3.927   0.999 -2.0128  0.1061  0.7993
  388SOL     OW 2885   1.309   3.450   2.504  0.3140 -0.4668  0.0168
  388SOL    HW1 2886   1.374   3.459   2.573  0.0556  2.0706  0.0183
  388SOL    HW2 2887   1.253   3.378   2.533  0.7740 -0.0901  1.9837
  389SOL     OW 2888   1.543   7.577   0.802  0.2903  0.5119 -0.3440
  389SOL    HW1 2889   1.532   7.537   0.715 -2.5869  0.9239 -0.2619
  389SOL    HW2 2890   1.597   7.514   0.850  0.5604 -0.5263 -1.9093
  390SOL     OW 2891   7.665   2.102   9.657 -0.1212 -0.3413 -0.3213
  390SOL    HW1 2892   7.588   2.071   9.703 -1.0729 -0.7974 -2.1110
  390SOL    HW2 2893   7.689   2.183   9.701 -1.7624 -0.0845  0.1515
  391SOL     OW 2894   2.417   4.578   1.344  0.4182  0.5378 -0.2556
  391SOL    HW1 2895   2.390   4.608   1.431  1.5009  3.0342 -0.7082
  391SOL    HW2 2896   2.342   4.598   1.288  0.3787  0.5258 -0.2078
  392SOL     OW 2897   8.405   6.173   9.224  0.2513  0.1801 -0.0036
  392SOL    HW1 2898   8.464   6.150   9.152 -0.4178  1.8278 -1.1530
  392SOL    HW2 2899   8.458   6.230   9.280 -0.0227  1.1788 -0.7229
  393SOL     OW 2900   4.791   1.064   0.818 -0.6921 -0.5391 -0.2063
  393SOL    HW1 2901   4.790   1.040   0.911  1.6200  1.7596  0.5538
  393SOL    HW2 2902   4.863   1.013   0.781 -0.6571 -0.3739 -0.3666
  394SOL     OW 2903   0.492   1.218   7.902  0.2597 -0.0382  0.4948
  394SOL    HW1 2904   0.579   1.216   7.861  0.4529 -0.8073  0.9239
  394SOL    HW2 2905   0.493   1.145   7.963 -1.5446 -1.6716 -1.2880
  395SOL     OW 2906   3.625   0.938   7.774  0.2820  0.1097 -0.2583
  395SOL    HW1 2907   3.588   0.998   7.838 -0.1176  0.8447 -1.1487
  395SOL    HW2 2908   3.668   0.870   7.826 -1.0779  0.0163  0.7890
  396SOL     OW 2909   7.250   0.605   5.099  0.4758 -0.3022  0.0358
  396SOL    HW1 2910   7.187   0.549   5.144  1.0888 -0.2306  1.0086
  396SOL    HW2 2911   7.212   0.619   5.012 -0.6845 -0.5288  0.4891
  397SOL     OW 2912   4.018   2.188   0.148  0.1006  0.5272  0.1044
  397SOL    HW1 2913   3.975   2.129   0.087  1.9927 -0.2230 -0.5707
  397SOL    HW2 2914   4.018   2.141   0.232 -1.3945  1.0380  0.4161
  398SOL     OW 2915   5.730   0.476   1.252 -0.0014 -0.2447  0.2780
  398SOL    HW1 2916   5.757   0.520   1.333 -3.2615  0.3661  1.1805
  398SOL    HW2 2917   5.758   0.385   1.263  2.1273  0.4142  0.7475
  399SOL     OW 2918   7.364   2.956   9.665  0.2369  0.1876 -0.3277
  399SOL    HW1 2919   7.345   2.925   9.577 -2.6291 -0.9704  0.5756
  399SOL    HW2 2920   7.355   2.879   9.721 -0.7026  1.3588  1.2620
  400SOL     OW 2921   7.724   5.012   4.727 -0.7786 -0.0543 -0.4975
  400SOL    HW1 2922   7.764   5.050   4.649 -1.4433 -0.5639 -1.1087
  400SOL    HW2 2923   7.776   5.045   4.800 -0.8536  1.3960 -1.0576
  401SOL     OW 2924   0.930   0.776   3.608 -0.0533  0.5133  0.5585
  401SOL    HW1 2925   0.834   0.780   3.606 -0.0391  0.7047  0.1279
  401SOL    HW2 2926   0.954   0.826   3.686 -0.3519 -0.5738  1.3680
  402SOL     OW 2927   0.441   7.272   8.827  0.4842  0.2705 -0.4783
  402SOL    HW1 2928   0.487   7.200   8.783 -0.8474 -0.1987 -1.1599
  402SOL    HW2 2929   0.474   7.270   8.917  0.7744 -0.9321 -0.5914
  403SOL     OW 2930   5.456   5.096   1.197  0.1803 -0.0593  0.2102
  403SOL    HW1 2931   5.391   5.096   1.127  1.0251 -0.7757 -0.5928
  403SOL    HW2 2932   5.407   5.065   1.274 -0.6302  0.2508 -0.1650
  404SOL     OW 2933   8.898   5.160   4.536  0.5093  0.2801 -0.6456
  404SOL    HW1 2934   8.986   5.167   4.571  0.4089  1.6004 -0.5908
  404SOL    HW2 2935   8.840   5.167   4.612  0.3584 -1.2186 -0.6092
  405SOL     OW 2936   7.064   1.020   8.790 -0.4817  0.1484  0.1051
  405SOL    HW1 2937   7.092   0.929   8.806  0.8323  0.7862  1.7873
  405SOL    HW2 2938   6.989   1.012   8.732  0.5304 -1.9406 -1.0428
  406SOL     OW 2939   6.040   4.913   3.847  0.2773  0.2484 -0.0594
  406SOL    HW1 2940   6.057   4.824   3.817  0.3495 -0.3052  1.5070
  406SOL    HW2 2941   6.081   4.969   3.781  2.0204 -0.9221 -0.0357
  407SOL     OW 2942   5.688   7.387   5.712 -0.0819  0.1719  0.5474
  407SOL    HW1 2943   5.618   7.421   5.657 -0.1524 -1.2350 -0.2737
  407SOL    HW2 2944   5.763   7.376   5.653 -0.2907 -1.7581  0.5807
  408SOL     OW 2945   6.532   4.618   0.787 -0.0054 -0.2290 -0.3922
  408SOL    HW1 2946   6.522   4.704   0.827  0.9539 -0.3329  0.0985
  408SOL    HW2 2947   6.528   4.556   0.860  0.2312 -0.5324 -0.6315
  409SOL     OW 2948   9.405   8.659   4.909 -0.0121  0.2149  0.1318
  409SOL    HW1 2949   9.369   8.649   4.997 -0.1962  0.5128  0.0910
  409SOL    HW2 2950   9.376   8.581   4.863 -3.0617  1.6932 -0.7474
  410SOL     OW 2951   1.480   4.910   0.033  0.4806 -0.3852 -0.0580
  410SOL    HW1 2952   1.500   4.935  -0.057 -0.8217 -1.6617 -0.7564
  410SOL    HW2 2953   1.401   4.958   0.055  1.4900  0.9091  0.9120
  411SOL     OW 2954   3.325   8.624   5.287 -0.0222  0.3874  0.1031
  411SOL    HW1 2955   3.229   8.625   5.291 -0.0528  1.3085 -0.7111
  411SOL    HW2 2956   3.352   8.693   5.348  0.1047  0.5075 -0.0880
  412SOL     OW 2957   0.684   1.651   6.647  0.4476 -0.0366 -0.2099
  412SOL    HW1 2958   0.700   1.666   6.740 -1.1784  1.9290 -0.1789
  412SOL    HW2 2959   0.770   1.660   6.606  1.1631 -0.8040  1.0575
  413SOL     OW 2960   9.499   1.185   3.781  0.4054  0.0625  0.2612
  413SOL    HW1 2961   9.549   1.261   3.753  0.5416  0.0758  0.5294
  413SOL    HW2 2962   9.515   1.180   3.875  1.5243 -1.1053  0.0312
  414SOL     OW 2963   9.501   1.915   3.899 -0.1697 -0.4864  0.2362
  414SOL    HW1 2964   9.546   1.868   3.829 -0.3359 -0.9406  0.4339
  414SOL    HW2 2965   9.503   2.007   3.871  1.9211 -0.3148  0.7921
  415SOL     OW 2966   7.279   0.713   1.331 -0.1983 -0.0195 -0.6426
  415SOL    HW1 2967   7.320   0.780   1.385 -2.7130  2.2152 -1.2666
  415SOL    HW2 2968   7.350   0.679   1.276  1.4772  0.9432  0.8274
  416SOL     OW 2969   0.564   0.282   4.412  0.1326 -0.4665  0.0738
  416SOL    HW1 2970   0.536   0.355   4.468  2.2599 -0.1660  0.8333
  416SOL    HW2 2971   0.482   0.248   4.375 -1.3365 -0.3062  2.8724
  417SOL     OW 2972   2.136   9.606   2.349 -0.3056  0.5075  0.2459
  417SOL    HW1 2973   2.189   9.527   2.362 -0.2182  0.8319  2.2128
  417SOL    HW2 2974   2.199   9.673   2.322 -0.2178  0.1795 -0.3887
  418SOL     OW 2975   4.742   7.102   3.034 -0.3215  0.2394 -0.7877
  418SOL    HW1 2976   4.682   7.176   3.044 -2.3206 -1.5589  1.7817
  418SOL    HW2 2977   4.778   7.089   3.121  1.7865 -0.4351 -1.7124
  419SOL     OW 2978   8.531   2.591   9.422 -0.6411  0.3327 -0.1025
  419SOL    HW1 2979   8.594   2.570   9.352 -2.6394 -0.2880 -1.8054
  419SOL    HW2 2980   8.445   2.575   9.383 -1.9112  1.4811  2.0318
  420SOL     OW 2981   1.604   5.477   8.907 -0.5892 -0.1995  0.1038
  420SOL    HW1 2982   1.675   5.418   8.929 -1.0477 -0.0487  2.2024
  420SOL    HW2 2983   1.587   5.526   8.987 -2.1945  0.6814 -0.7097
  421SOL     OW 2984   7.188   1.909   7.542 -0.5623 -0.0508  0.2127
  421SOL    HW1 2985   7.155   1.855   7.470 -2.2971  1.6648 -0.3436
  421SOL    HW2 2986   7.281   1.886   7.547 -0.3795 -0.2719 -2.5498
  422SOL     OW 2987   0.984   0.267   3.413 -0.6227 -0.3338 -0.5138
  422SOL    HW1 2988   0.998   0.298   3.502 -1.3556 -0.6109 -0.2954
  422SOL    HW2 2989   0.932   0.335   3.371 -2.4236 -1.2937  0.0330
  423SOL     OW 2990   6.004   7.235   9.084  0.3286 -0.0907  0.2383
  423SOL    HW1 2991   6.031   7.203   9.170  0.0601  0.8662  0.6969
  423SOL    HW2 2992   5.991   7.329   9.097  1.6601  0.3439 -1.1814
  424SOL     OW 2993   3.048   0.237   8.589 -0.2605  0.1515  0.0761
  424SOL    HW1 2994   3.111   0.172   8.621 -1.5946 -1.9244 -1.2999
  424SOL    HW2 2995   3.065   0.315   8.642  0.9668 -1.5186  2.3083
  425SOL     OW 2996   3.528   5.266   3.850  0.0253 -0.4192  0.0889
  425SOL    HW1 2997   3.594   5.197   3.841  0.2744 -0.3057  0.9195
  425SOL    HW2 2998   3.578   5.347   3.842 -0.0325 -0.3340  0.5774
  426SOL     OW 2999   1.245   9.000   3.407  0.1004  0.0895 -0.3181
  426SOL    HW1 3000   1.151   8.987   3.389  0.5571 -0.9564 -2.2168
  426SOL    HW2 3001   1.289   8.934   3.353  2.0431  1.9694 -1.1362
  427SOL     OW 3002   6.555   2.545   8.887  0.2290 -0.1101 -0.1914
  427SOL    HW1 3003   6.562   2.582   8.975  0.8559 -1.2297  0.2590
  427SOL    HW2 3004   6.508   2.462   8.900 -0.0431 -0.0852 -0.9766
  428SOL     OW 3005   3.341   8.988   8.634  0.1497 -0.1205 -1.1505
  428SOL    HW1 3006   3.344   8.893   8.650 -0.8002  0.1075  0.7164
  428SOL    HW2 3007   3.423   9.020   8.671 -0.9080  0.0924  1.2224
  429SOL     OW 3008   1.015   1.679   0.827 -0.3214  0.1802 -0.4002
  429SOL    HW1 3009   1.024   1.711   0.917  2.1520 -1.2534 -0.0287
  429SOL    HW2 3010   1.073   1.736   0.776 -0.9548  0.3640 -0.9237
  430SOL     OW 3011   6.886   4.789   8.711 -0.0853  0.0116  0.1135
  430SOL    HW1 3012   6.915   4.708   8.670  0.7374  0.4711 -0.2363
  430SOL    HW2 3013   6.808   4.764   8.761  0.1444 -0.9848 -0.0025
  431SOL     OW 3014   5.125   6.100   6.959  0.5962  0.2217  0.1075
  431SOL    HW1 3015   5.135   6.108   6.864  0.5497  2.0619  0.2080
  431SOL    HW2 3016   5.185   6.031   6.984  0.0897 -0.7859 -1.3399
  432SOL     OW 3017   4.774   0.059   6.210  0.0599 -0.0606 -0.9052
  432SOL    HW1 3018   4.733  -0.012   6.160 -2.5827  0.7347 -0.0089
  432SOL    HW2 3019   4.712   0.078   6.280  1.7291  1.6853  0.1934
  433SOL     OW 3020   6.336   8.553   3.894 -0.0787 -0.3803 -0.3124
  433SOL    HW1 3021   6.388   8.474   3.907  1.7154  0.7866 -0.0367
  433SOL    HW2 3022   6.376   8.618   3.952 -2.2608  0.4268  0.3947
  434SOL     OW 3023   1.370   3.170   6.996  0.0920 -0.0475 -0.1986
  434SOL    HW1 3024   1.289   3.203   7.035 -0.0286 -0.3840 -0.1628
  434SOL    HW2 3025   1.359   3.183   6.902 -0.5874 -1.3457 -0.3248
  435SOL     OW 3026   8.087   1.662   6.056  0.1560  0.1560  0.8164
  435SOL    HW1 3027   8.135   1.739   6.088 -0.2997  0.9137 -0.2927
  435SOL    HW2 3028   8.106   1.659   5.963 -2.3146  0.7797  0.2238
  436SOL     OW 3029   7.721   4.982   7.401 -0.3545  0.0374 -0.6156
  436SOL    HW1 3030   7.685   5.010   7.317 -0.3009 -0.6578 -0.8697
  436SOL    HW2 3031   7.649   4.997   7.463 -0.3531  0.6641 -0.7514
  437SOL     OW 3032   5.579   3.378   4.378 -0.1124  0.2303 -0.0909
  437SOL    HW1 3033   5.610   3.332   4.300  1.1667 -0.9965  1.0697
  437SOL    HW2 3034   5.659   3.402   4.424 -0.8400  0.9846  0.8077
  438SOL     OW 3035   5.159   3.545   0.448  0.3215 -0.6638  0.3970
  438SOL    HW1 3036   5.152   3.449   0.446  0.1550 -0.6442 -0.4841
  438SOL    HW2 3037   5.129   3.569   0.536 -1.3198 -1.3013  0.0529
  439SOL     OW 3038   2.535   0.285   9.079  0.3664 -0.5495 -0.1116
  439SOL    HW1 3039   2.540   0.372   9.039  0.1506 -0.3595  0.2676
  439SOL    HW2 3040   2.575   0.296   9.165  1.6660 -1.1645 -0.6077
  440SOL     OW 3041   7.077   5.594   1.274 -0.0504 -0.3292 -0.4281
  440SOL    HW1 3042   7.164   5.584   1.235  0.3327  2.1239 -0.3830
  440SOL    HW2 3043   7.018   5.603   1.199  0.0639  0.1751 -0.4598
  441SOL     OW 3044   8.311   1.854   4.569 -0.1825  0.1648 -0.5314
  441SOL    HW1 3045   8.231   1.905   4.573 -0.5947 -0.3963 -1.2484
  441SOL    HW2 3046   8.315   1.823   4.478  0.0721 -1.0309 -0.1339
  442SOL     OW 3047   7.829   6.248   1.368 -0.0714  0.0196  0.3723
  442SOL    HW1 3048   7.832   6.204   1.453 -1.5591 -0.7091  0.0651
  442SOL    HW2 3049   7.814   6.340   1.390 -0.0618 -0.1030  0.9138
  443SOL     OW 3050   0.080   7.257   0.450 -0.3842  0.5478 -0.3733
  443SOL    HW1 3051   0.127   7.340   0.437  1.5828 -0.4250  0.2328
  443SOL    HW2 3052   0.133   7.192   0.404 -0.3577 -0.8266  1.4982
  444SOL     OW 3053   7.173   5.342   2.247  0.2019 -0.4980 -0.2878
  444SOL    HW1 3054   7.181   5.253   2.284 -0.7188 -1.3714 -2.0763
  444SOL    HW2 3055   7.091   5.375   2.284  0.5319 -0.3745  0.3613
  445SOL     OW 3056   0.129   3.435   3.247  0.0732 -0.1174  0.4740
  445SOL    HW1 3057   0.141   3.408   3.338  1.3970  2.1759  1.0671
  445SOL    HW2 3058   0.103   3.527   3.253 -0.1438 -0.0146 -1.4650
  446SOL     OW 3059   4.987   5.670   5.599 -0.6348  0.3404 -1.0574
  446SOL    HW1 3060   4.913   5.610   5.609 -0.3524 -0.0722 -1.3767
  446SOL    HW2 3061   5.036   5.662   5.681  0.4154 -1.2918 -1.7782
  447SOL     OW 3062   4.830   5.962   2.779  0.5212 -0.1898  0.5383
  447SOL    HW1 3063   4.832   5.946   2.685  1.2259 -0.5071  0.5977
  447SOL    HW2 3064   4.773   6.038   2.790  0.1231 -0.3852 -0.1048
  448SOL     OW 3065   6.446   1.805   8.595  0.2376 -0.1876 -0.0916
  448SOL    HW1 3066   6.409   1.779   8.679 -1.2087  1.7887 -0.0405
  448SOL    HW2 3067   6.527   1.849   8.618  0.6576 -1.0456  0.1181
  449SOL     OW 3068   7.772   4.527   5.666  0.2658 -0.3631  0.0030
  449SOL    HW1 3069   7.798   4.473   5.592  1.1400  0.9107 -0.6572
  449SOL    HW2 3070   7.676   4.519   5.668  0.3619 -1.8141 -0.1333
  450SOL     OW 3071   6.749   5.766   8.115 -0.4457  0.6294  0.1731
  450SOL    HW1 3072   6.678   5.718   8.158 -2.4937  4.0978  0.9875
  450SOL    HW2 3073   6.815   5.778   8.183 -1.0216  1.0583  0.6574
  451SOL     OW 3074   4.594   8.230   1.857  0.3744  0.4725  0.2205
  451SOL    HW1 3075   4.646   8.150   1.851 -0.0713  0.1456  0.5793
  451SOL    HW2 3076   4.640   8.294   1.803 -0.5390 -0.6994 -2.0903
  452SOL     OW 3077   0.137   8.100   9.339  0.9105  0.1390  0.1584
  452SOL    HW1 3078   0.125   8.181   9.288  1.5876  1.5733  2.1511
  452SOL    HW2 3079   0.050   8.079   9.371  0.8061  0.3526  0.0231
  453SOL     OW 3080   3.326   5.214   1.920 -0.6603  0.4045 -0.0736
  453SOL    HW1 3081   3.409   5.168   1.936 -0.8912  0.1255  0.3551
  453SOL    HW2 3082   3.271   5.150   1.874 -0.8513  0.3747  0.1925
  454SOL     OW 3083   2.577   4.023   4.451 -0.2609 -0.0801  0.3649
  454SOL    HW1 3084   2.592   4.015   4.356 -0.0290 -1.1083  0.4774
  454SOL    HW2 3085   2.570   4.117   4.466  2.0770  0.2691 -0.3239
  455SOL     OW 3086   7.471   2.898   0.622 -0.6835 -0.1053  0.4804
  455SOL    HW1 3087   7.551   2.886   0.570 -0.1383  1.5541  0.8892
  455SOL    HW2 3088   7.417   2.956   0.568  0.2559  2.3908  2.0284
  456SOL     OW 3089   6.602   8.376   6.422 -0.3316  0.0575  0.1661
  456SOL    HW1 3090   6.533   8.321   6.386  0.2643  0.0350 -0.9869
  456SOL    HW2 3091   6.637   8.424   6.346  0.0695  1.0055  0.9255
  457SOL     OW 3092   5.423   5.451   6.676  0.1442  0.1803  0.2049
  457SOL    HW1 3093   5.479   5.373   6.677  0.2837  0.2784  0.1129
  457SOL    HW2 3094   5.338   5.420   6.706  0.0919 -0.0916 -0.2251
  458SOL     OW 3095   5.871   2.624   8.611 -0.5431 -0.1233 -0.0434
  458SOL    HW1 3096   5.777   2.609   8.621 -0.4602 -0.5500  0.1503
  458SOL    HW2 3097   5.905   2.539   8.584 -0.4937  0.5315 -2.2377
  459SOL     OW 3098   8.271   7.875   2.274  0.6504 -0.1297  0.5988
  459SOL    HW1 3099   8.182   7.899   2.251  0.5264  0.5217  1.7062
  459SOL    HW2 3100   8.262   7.815   2.348  1.1587  2.2803  2.7582
  460SOL     OW 3101   0.368   6.918   2.940 -0.3223  0.1922 -0.6063
  460SOL    HW1 3102   0.435   6.863   2.900  0.3888 -0.3716  1.2618
  460SOL    HW2 3103   0.292   6.861   2.948 -1.1170  0.8454 -2.7686
  461SOL     OW 3104   0.394   4.798   2.327  0.1360  0.0998 -0.2972
  461SOL    HW1 3105   0.340   4.738   2.379 -0.6305  0.3968 -0.7324
  461SOL    HW2 3106   0.453   4.741   2.278 -0.4069 -0.2891 -0.5093
  462SOL     OW 3107   7.296   3.943   4.054  0.7368  0.7266  0.0693
  462SOL    HW1 3108   7.370   3.945   4.115  0.0916 -0.8225  0.9485
  462SOL    HW2 3109   7.218   3.951   4.109  0.0717 -2.1113 -0.3402
  463SOL     OW 3110   5.156   8.279   8.334  0.2672 -0.1368 -0.5635
  463SOL    HW1 3111   5.231   8.221   8.342  2.0324  2.2426  1.8584
  463SOL    HW2 3112   5.113   8.275   8.419 -0.9423  0.4084 -1.1140
  464SOL     OW 3113   7.132   6.450   9.643 -0.3548  0.1747  0.1141
  464SOL    HW1 3114   7.118   6.516   9.711  2.9483 -0.3966  1.5595
  464SOL    HW2 3115   7.130   6.367   9.690 -1.3742 -0.5465 -1.1412
  465SOL     OW 3116   4.647   4.141   4.310 -0.1252 -0.4347  0.3625
  465SOL    HW1 3117   4.587   4.067   4.297 -1.4770  0.5256  0.9668
  465SOL    HW2 3118   4.693   4.149   4.226 -2.7414  0.4577 -1.0686
  466SOL     OW 3119   0.987   0.090   8.127 -0.2161 -0.4766  0.0927
  466SOL    HW1 3120   0.965   0.106   8.219  0.5194  0.2122  0.1659
  466SOL    HW2 3121   0.907   0.055   8.088 -1.0609  0.8150  0.6034
  467SOL     OW 3122   1.778   6.717   0.075  0.0096  0.2637  0.6486
  467SOL    HW1 3123   1.856   6.760   0.112  0.1317 -0.2140  0.9563
  467SOL    HW2 3124   1.727   6.691   0.151 -0.5972  0.8232  0.4414
  468SOL     OW 3125   0.874   8.467   2.852  0.0676  0.5595  0.5356
  468SOL    HW1 3126   0.913   8.465   2.764  0.1080  0.7776  0.5491
  468SOL    HW2 3127   0.783   8.440   2.838  0.1014  0.4940  0.4396
  469SOL     OW 3128   7.803   6.058   9.231  0.3176 -0.0265 -0.1872
  469SOL    HW1 3129   7.863   6.131   9.251  0.3240 -0.3398  1.0111
  469SOL    HW2 3130   7.716   6.095   9.243  0.3223 -0.6096  2.1049
  470SOL     OW 3131   3.685   5.845   7.358  0.0242 -0.0745  0.3370
  470SOL    HW1 3132   3.678   5.793   7.438  0.7671  0.2192  0.6050
  470SOL    HW2 3133   3.629   5.921   7.375 -0.4123 -0.3804  0.2751
  471SOL     OW 3134   4.570   7.813   4.800  0.4608 -0.3577 -0.5668
  471SOL    HW1 3135   4.568   7.761   4.719  0.2697  0.3876 -1.0478
  471SOL    HW2 3136   4.663   7.823   4.820  0.5054 -2.5414  0.6330
  472SOL     OW 3137   9.407   7.620   8.946 -0.0922 -0.8108 -0.0532
  472SOL    HW1 3138   9.453   7.703   8.963 -0.4848 -0.5644 -0.1735
  472SOL    HW2 3139   9.348   7.641   8.874 -1.8508 -0.5693  1.3983
  473SOL     OW 3140   1.167   9.620   0.499 -0.2412 -0.8956 -0.2833
  473SOL    HW1 3141   1.201   9.563   0.567  1.1870 -0.7157 -0.8055
  473SOL    HW2 3142   1.241   9.633   0.439 -0.4931  1.4618 -0.1967
  474SOL     OW 3143   8.753   0.232   1.260  0.2265  0.1077 -0.4261
  474SOL    HW1 3144   8.832   0.265   1.217  0.8713  0.3261  0.8878
  474SOL    HW2 3145   8.782   0.208   1.348 -1.5053  1.7297  0.6432
  475SOL     OW 3146   9.460   5.404   3.639  0.2465 -0.0733 -0.5606
  475SOL    HW1 3147   9.534   5.462   3.616  1.1364 -1.0712 -0.2725
  475SOL    HW2 3148   9.469   5.330   3.579 -0.5716 -0.1732 -0.5607
  476SOL     OW 3149   5.088   6.236   8.563 -0.6094  0.0666  0.4066
  476SOL    HW1 3150   5.136   6.169   8.613  2.7947  1.3829 -0.8070
  476SOL    HW2 3151   5.117   6.319   8.601 -2.4620  0.9454 -0.0333
  477SOL     OW 3152   6.712   8.497   0.859  0.3608 -0.2769  0.3031
  477SOL    HW1 3153   6.732   8.511   0.766 -0.1414  2.1661  0.4963
  477SOL    HW2 3154   6.705   8.402   0.867 -1.6901 -0.5164 -2.6161
  478SOL     OW 3155   2.459   4.239   3.944  0.0611 -0.0457 -0.5211
  478SOL    HW1 3156   2.546   4.279   3.941 -0.3757  1.0850  0.9136
  478SOL    HW2 3157   2.448   4.213   4.035  0.9879 -5.1412 -1.5254
  479SOL     OW 3158   0.663   9.371   4.884  0.2994 -0.5655  0.6108
  479SOL    HW1 3159   0.608   9.308   4.931  1.0037 -0.2606  1.9203
  479SOL    HW2 3160   0.703   9.423   4.954  0.6343  0.5705 -0.3998
  480SOL     OW 3161   9.291   3.163   7.492  0.3783  0.0025 -0.7954
  480SOL    HW1 3162   9.337   3.178   7.575 -0.4870  0.9528 -0.4721
  480SOL    HW2 3163   9.318   3.237   7.437 -1.5522  1.1681 -0.2431
  481SOL     OW 3164   8.448   9.536   4.327 -0.4508  0.3998 -0.2847
  481SOL    HW1 3165   8.360   9.559   4.297 -0.2669  2.5242  0.6069
  481SOL    HW2 3166   8.477   9.614   4.376  1.3926 -0.7778  0.5827
  482SOL     OW 3167   4.594   5.229   8.785  0.9637  0.1946  0.2700
  482SOL    HW1 3168   4.530   5.221   8.855  0.1661  0.6711 -0.3853
  482SOL    HW2 3169   4.679   5.217   8.828  0.3803 -3.5043  0.7277
  483SOL     OW 3170   1.136   5.773   1.709  0.7346 -0.0301  0.3255
  483SOL    HW1 3171   1.186   5.792   1.788 -1.6585 -2.4421  2.6561
  483SOL    HW2 3172   1.048   5.806   1.728 -0.1410 -1.4997 -0.9119
  484SOL     OW 3173   7.714   6.249   8.420  0.4369 -0.5517  0.2777
  484SOL    HW1 3174   7.670   6.315   8.367 -0.4081 -0.8630  0.5705
  484SOL    HW2 3175   7.655   6.235   8.494  1.9060  0.3897  1.6921
  485SOL     OW 3176   8.850   6.555   5.821 -0.7069 -0.0926 -0.1949
  485SOL    HW1 3177   8.795   6.615   5.871 -0.7218  0.2296 -0.5921
  485SOL    HW2 3178   8.844   6.472   5.868 -0.2145  0.3653  0.6995
  486SOL     OW 3179   5.248   2.662   8.775  0.5180  0.1308  0.0824
  486SOL    HW1 3180   5.172   2.614   8.742  0.7168  0.1172 -0.3607
  486SOL    HW2 3181   5.323   2.608   8.753  0.6096 -0.2552  1.2511
  487SOL     OW 3182   1.670   0.347   3.344  0.3444  0.2385 -1.1463
  487SOL    HW1 3183   1.733   0.403   3.299  0.5688  0.7223 -0.2558
  487SOL    HW2 3184   1.696   0.258   3.319  2.5367  0.2988  0.5909
  488SOL     OW 3185   4.329   5.667   6.074  0.0045 -0.2348  0.0450
  488SOL    HW1 3186   4.246   5.705   6.103 -1.0090 -2.8517  0.8377
  488SOL    HW2 3187   4.337   5.586   6.124  2.2048 -0.9138 -1.2735
  489SOL     OW 3188   7.008   2.066   6.427 -0.0135 -0.7324 -0.1132
  489SOL    HW1 3189   6.963   1.982   6.432  0.4480 -0.9422  0.6131
  489SOL    HW2 3190   6.938   2.131   6.423 -0.4363 -0.9791  2.0100
  490SOL     OW 3191   6.658   0.416   4.137  0.3530  0.4653 -0.8446
  490SOL    HW1 3192   6.620   0.355   4.073  1.9727 -1.5334  0.0008
  490SOL    HW2 3193   6.585   0.440   4.194 -0.5913  0.3709 -1.9845
  491SOL     OW 3194   1.687   8.385   2.685 -0.2623 -0.0863  0.1779
  491SOL    HW1 3195   1.713   8.443   2.756  2.5601 -1.3615  0.3238
  491SOL    HW2 3196   1.600   8.355   2.709 -0.2668  1.2196  1.9670
  492SOL     OW 3197   7.410   6.980   4.554 -0.2489  0.5096 -0.1860
  492SOL    HW1 3198   7.398   6.915   4.623  0.2737 -1.2803 -1.6717
  492SOL    HW2 3199   7.481   7.036   4.585 -0.0920 -0.1946  0.7562
  493SOL     OW 3200   4.386   5.541   6.416 -0.1788  0.4950 -0.6416
  493SOL    HW1 3201   4.481   5.530   6.420 -0.4170 -1.8105  0.2551
  493SOL    HW2 3202   4.359   5.489   6.340 -0.8387 -0.0780 -0.0334
  494SOL     OW 3203   2.734   2.383   7.182 -0.2783 -0.3070  0.1570
  494SOL    HW1 3204   2.827   2.405   7.170  0.0435 -1.9741 -0.6790
  494SOL    HW2 3205   2.698   2.459   7.227  1.1323  1.1161 -0.9572
  495SOL     OW 3206   1.682   5.880   6.564 -0.6375 -0.3669 -0.1816
  495SOL    HW1 3207   1.679   5.867   6.659  0.3879  1.0042  0.0677
  495SOL    HW2 3208   1.678   5.975   6.553 -0.3148 -0.4975 -1.4994
  496SOL     OW 3209   1.033   2.890   0.344  0.5072 -0.4312 -0.3445
  496SOL    HW1 3210   1.099   2.853   0.284  1.5111  1.2765 -0.3747
  496SOL    HW2 3211   1.061   2.981   0.356 -0.8696 -0.1632  1.0824
  497SOL     OW 3212   6.681   4.806   2.450 -0.4143  0.2359 -0.3044
  497SOL    HW1 3213   6.650   4.782   2.363 -0.2574  0.3966 -0.4044
  497SOL    HW2 3214   6.776   4.817   2.440 -0.3171 -0.2700  0.0020
  498SOL     OW 3215   8.038   2.895   4.819 -0.3234  0.0781 -0.1536
  498SOL    HW1 3216   8.125   2.935   4.819 -0.5334  0.5356 -0.5001
  498SOL    HW2 3217   7.978   2.968   4.826 -0.6893 -0.2301 -0.0391
  499SOL     OW 3218   6.986   2.591   6.081  0.7200  0.2714  0.3734
  499SOL    HW1 3219   6.964   2.624   5.994 -0.4765  1.4306  1.0729
  499SOL    HW2 3220   7.000   2.497   6.069  0.3365  0.3746 -1.0210
  500SOL     OW 3221   3.123   4.732   5.990 -0.1823 -0.4621  0.3804
  500SOL    HW1 3222   3.188   4.670   6.022  0.8121  1.1551  1.6405
  500SOL    HW2 3223   3.133   4.809   6.047 -1.2100  0.9453 -1.2486
  501SOL     OW 3224   2.434   8.354   9.086 -0.1591 -0.8040  0.1024
  501SOL    HW1 3225   2.472   8.266   9.094 -1.4728 -1.7845 -2.8341
  501SOL    HW2 3226   2.364   8.344   9.022  1.3681  2.8356 -2.5332
  502SOL     OW 3227   9.126   4.681   8.376  0.5316  0.4090  0.2203
  502SOL    HW1 3228   9.208   4.656   8.419  0.4029 -1.8268 -0.7054
  502SOL    HW2 3229   9.152   4.744   8.309  1.7030 -0.9867 -0.7055
  503SOL     OW 3230   9.039   8.621   2.031 -0.0639  0.8761 -0.0112
  503SOL    HW1 3231   9.101   8.650   2.098 -0.1317 -1.8159  1.3727
  503SOL    HW2 3232   8.954   8.622   2.076 -0.2799  0.0710 -0.3893
  504SOL     OW 3233   3.948   2.851   3.159 -0.1269  0.3786  0.5211
  504SOL    HW1 3234   3.996   2.771   3.180  0.7572 -0.2422 -3.1155
  504SOL    HW2 3235   3.992   2.920   3.209  0.3597 -1.0884  2.1967
  505SOL     OW 3236   6.390   9.330   6.008  0.2202  0.2226 -0.6262
  505SOL    HW1 3237   6.470   9.351   6.056  0.2117  0.4763 -0.7216
  505SOL    HW2 3238   6.342   9.272   6.067 -0.7002  2.0730  0.5565
  506SOL     OW 3239   3.199   3.325   0.284  0.1794  0.2561 -0.5778
  506SOL    HW1 3240   3.119   3.374   0.303  0.4344  0.2299  0.7018
  506SOL    HW2 3241   3.269   3.388   0.297  0.4490 -0.1522  0.0306
  507SOL     OW 3242   5.306   5.476   3.276 -0.3604  0.1430  0.6068
  507SOL    HW1 3243   5.297   5.465   3.371 -1.5256  0.3253  0.5260
  507SOL    HW2 3244   5.236   5.536   3.252 -1.7096 -1.8638 -0.7582
  508SOL     OW 3245   0.067   6.267   1.840  0.0078  0.1530 -0.2846
  508SOL    HW1 3246  -0.008   6.304   1.888  1.1659  2.9046 -0.3907
  508SOL    HW2 3247   0.133   6.251   1.907  0.6461  1.4034 -0.5766
  509SOL     OW 3248   5.335   7.708   1.785  0.2472  0.4043  0.2537
  509SOL    HW1 3249   5.418   7.678   1.821 -0.1838  0.4476  1.3161
  509SOL    HW2 3250   5.330   7.801   1.811 -0.7719  0.0457  1.4656
  510SOL     OW 3251   5.661   6.710   4.807  0.0707  0.8084 -0.0408
  510SOL    HW1 3252   5.588   6.649   4.817  1.7296 -1.0452  1.8455
  510SOL    HW2 3253   5.678   6.742   4.895  1.8448  0.7838 -0.3393
  511SOL     OW 3254   0.746   6.784   2.537 -0.2357  0.4094 -0.0610
  511SOL    HW1 3255   0.697   6.703   2.547 -0.8469  0.7250 -0.4013
  511SOL    HW2 3256   0.776   6.782   2.446  2.3036 -0.8187  0.7234
  512SOL     OW 3257   5.359   3.476   4.675  0.7806 -0.2783  0.1905
  512SOL    HW1 3258   5.454   3.492   4.677  1.2158 -2.3513 -0.9374
  512SOL    HW2 3259   5.327   3.529   4.602  1.4990 -1.3090 -0.9182
  513SOL     OW 3260   6.638   5.876   2.790 -0.3685  0.1794  0.1108
  513SOL    HW1 3261   6.603   5.907   2.874 -0.1607 -0.1106  0.3073
  513SOL    HW2 3262   6.657   5.784   2.805  0.9391  0.4396  0.1780
  514SOL     OW 3263   1.144   0.090   0.816 -0.2742 -0.3563 -0.0311
  514SOL    HW1 3264   1.166  -0.001   0.793  0.1258  0.3073 -2.5513
  514SOL    HW2 3265   1.051   0.087   0.839  0.3276 -1.8041  2.6581
  515SOL     OW 3266   1.000   3.776   1.119 -0.5107  0.1504 -0.5387
  515SOL    HW1 3267   1.058   3.793   1.045  2.2585 -0.4112  1.3875
  515SOL    HW2 3268   1.021   3.844   1.183 -1.2125 -0.6834  0.6333
  516SOL     OW 3269   1.951   1.590   0.953 -0.3282  0.2742 -0.2023
  516SOL    HW1 3270   1.904   1.630   1.026 -0.8609 -0.7603  0.0304
  516SOL    HW2 3271   2.018   1.535   0.994 -1.1193 -0.9173 -0.4466
  517SOL     OW 3272   2.855   7.569   0.182  0.2935  0.2476 -0.8551
  517SOL    HW1 3273   2.812   7.559   0.097 -2.0263 -2.6824  0.4636
  517SOL    HW2 3274   2.945   7.542   0.167  0.5196  1.8074 -2.7360
  518SOL     OW 3275   2.340   9.584   8.166 -0.0294 -0.2350 -0.1010
  518SOL    HW1 3276   2.336   9.675   8.140  3.4497 -0.2798 -1.3323
  518SOL    HW2 3277   2.357   9.586   8.261  0.9553  0.4420 -0.2861
  519SOL     OW 3278   8.280   7.838   9.700 -0.2822  0.1542  0.2096
  519SOL    HW1 3279   8.306   7.747   9.692 -1.0030 -0.0791  0.4284
  519SOL    HW2 3280   8.332   7.872   9.773  0.8115  0.2345 -0.5925
  520SOL     OW 3281   8.337   7.915   6.048  0.6319 -0.0156  0.1412
  520SOL    HW1 3282   8.306   7.913   6.138 -1.0794  1.8212 -0.3242
  520SOL    HW2 3283   8.272   7.864   5.999  0.8707  0.0349 -0.2352
  521SOL     OW 3284   8.488   2.819   3.208 -0.6076  0.2182  0.1739
  521SOL    HW1 3285   8.432   2.836   3.132  0.9566  0.4433 -0.9940
  521SOL    HW2 3286   8.565   2.874   3.194 -0.9620  1.5060  2.7874
  522SOL     OW 3287   7.683   6.967   3.437 -0.1135 -0.4274 -0.0613
  522SOL    HW1 3288   7.615   6.901   3.422  1.2699 -1.7943 -0.5263
  522SOL    HW2 3289   7.647   7.024   3.505 -2.0815 -0.5600 -0.9110
  523SOL     OW 3290   4.640   5.614   8.840  0.8723 -0.1298 -0.1421
  523SOL    HW1 3291   4.553   5.608   8.802  1.8562 -0.9163 -2.4747
  523SOL    HW2 3292   4.648   5.705   8.869 -0.8640 -0.1810  0.6249
  524SOL     OW 3293   3.212   5.305   9.546 -0.3652 -0.4364 -0.8356
  524SOL    HW1 3294   3.155   5.229   9.560  0.9769 -1.1396  1.2765
  524SOL    HW2 3295   3.162   5.379   9.580  0.0711 -1.1232  1.5002
  525SOL     OW 3296   2.471   8.869   5.649 -0.0571  0.3456 -0.0771
  525SOL    HW1 3297   2.555   8.826   5.634 -0.7991 -1.5502  0.7899
  525SOL    HW2 3298   2.441   8.895   5.562 -0.6226 -3.1337 -1.0928
  526SOL     OW 3299   2.778   6.166   2.481  0.5650 -0.1005  0.4406
  526SOL    HW1 3300   2.806   6.149   2.391 -1.6971 -0.7480 -0.1986
  526SOL    HW2 3301   2.741   6.082   2.510 -0.6459  0.6836  1.2134
  527SOL     OW 3302   3.137   5.199   5.010 -0.0454 -0.0051 -0.0368
  527SOL    HW1 3303   3.221   5.224   5.049 -0.4204  1.2142  0.0296
  527SOL    HW2 3304   3.093   5.282   4.993 -0.2943 -0.5166 -2.2036
  528SOL     OW 3305   2.853   5.939   4.922  0.2004  0.4096  0.3418
  528SOL    HW1 3306   2.817   5.989   4.995  0.5598 -0.2062  0.9532
  528SOL    HW2 3307   2.929   5.893   4.960  1.9854  2.0910 -1.0027
  529SOL     OW 3308   7.537   9.537   0.756 -0.1979 -0.0379  0.5917
  529SOL    HW1 3309   7.453   9.498   0.777 -0.2637 -0.3113 -0.1365
  529SOL    HW2 3310   7.577   9.476   0.694  0.1786  0.4932  0.3023
  530SOL     OW 3311   2.973   1.570   6.029 -0.1828  0.2240  0.0822
  530SOL    HW1 3312   3.065   1.545   6.026 -0.0743  0.6273 -0.0245
  530SOL    HW2 3313   2.927   1.503   5.977 -0.2314 -1.1694  1.8336
  531SOL     OW 3314   6.072   6.655   4.929  0.4865  0.1251 -0.0536
  531SOL    HW1 3315   6.008   6.719   4.895 -0.5844 -0.2439  1.1676
  531SOL    HW2 3316   6.079   6.589   4.860 -1.3874 -0.4375  0.2179
  532SOL     OW 3317   7.399   5.587   7.182  0.2519 -0.1204  0.5218
  532SOL    HW1 3318   7.389   5.607   7.275  1.2254  1.7575  0.2821
  532SOL    HW2 3319   7.310   5.564   7.153 -0.3260  0.6169  1.6403
  533SOL     OW 3320   1.618   5.642   0.076  0.0209 -0.1571  0.0699
  533SOL    HW1 3321   1.635   5.733   0.103  0.1550  0.4062 -1.7267
  533SOL    HW2 3322   1.696   5.594   0.103  0.3869  0.4715  0.1669
  534SOL     OW 3323   2.618   2.601   3.131  0.1835  0.1003 -0.2186
  534SOL    HW1 3324   2.603   2.633   3.042 -2.8229  1.2829  0.5682
  534SOL    HW2 3325   2.550   2.534   3.143 -0.4012  0.9747  1.6230
  535SOL     OW 3326   2.490   0.076   8.921  0.9217  0.1018 -0.2756
  535SOL    HW1 3327   2.512   0.148   8.981  0.2193  0.9141 -0.9630
  535SOL    HW2 3328   2.523  -0.002   8.965  1.2112  0.7724  0.7542
  536SOL     OW 3329   4.227   2.153   1.533  0.2578  0.1281  0.5637
  536SOL    HW1 3330   4.268   2.229   1.492  0.1240  0.4562  1.0261
  536SOL    HW2 3331   4.140   2.183   1.558 -0.9404 -1.0307 -1.8809
  537SOL     OW 3332   3.941   6.997   3.304  0.1229  0.7791  0.5893
  537SOL    HW1 3333   3.999   7.065   3.338  0.6588 -0.4600  2.2966
  537SOL    HW2 3334   3.995   6.948   3.242  1.0973 -0.5386  2.3704
  538SOL     OW 3335   0.645   2.192   5.985 -0.3581 -0.0698 -0.0683
  538SOL    HW1 3336   0.652   2.101   6.014 -0.3868 -0.7398 -2.0136
  538SOL    HW2 3337   0.624   2.241   6.065 -0.5616 -1.7880  0.9903
  539SOL     OW 3338   6.262   3.504   3.214  0.0478  0.1323 -0.2300
  539SOL    HW1 3339   6.272   3.409   3.223  2.1793  0.4117  1.3515
  539SOL    HW2 3340   6.321   3.540   3.281 -1.7222  2.5748  0.1283
  540SOL     OW 3341   4.998   2.300   7.513  0.5964 -0.1016 -0.4063
  540SOL    HW1 3342   4.926   2.352   7.547 -0.1077 -0.0719 -1.8737
  540SOL    HW2 3343   5.077   2.346   7.542  0.0072  2.0208 -1.9110
  541SOL     OW 3344   5.961   1.607   3.820  0.0422 -0.3633 -0.0279
  541SOL    HW1 3345   5.952   1.512   3.820 -0.5871 -0.3093  0.0322
  541SOL    HW2 3346   5.871   1.640   3.827  0.3096  0.2191  1.0969
  542SOL     OW 3347   1.636   0.332   5.673 -0.0635 -0.1677 -0.1878
  542SOL    HW1 3348   1.684   0.278   5.610  0.4188 -1.2960  1.0825
  542SOL    HW2 3349   1.610   0.270   5.742 -1.3488  0.8561  0.2870
  543SOL     OW 3350   5.099   0.118   7.357  0.0681 -0.0557  0.2174
  543SOL    HW1 3351   5.031   0.184   7.346 -1.4534 -1.6626 -0.5305
  543SOL    HW2 3352   5.092   0.063   7.278  2.1016 -0.4126  0.2161
  544SOL     OW 3353   6.097   7.275   3.387  0.4886  0.5144 -0.1678
  544SOL    HW1 3354   6.085   7.242   3.298 -0.0871  1.7505 -0.5701
  544SOL    HW2 3355   6.008   7.279   3.423  0.7077  0.1553  0.4244
  545SOL     OW 3356   0.707   5.444   0.543  0.1329 -0.2452 -0.0437
  545SOL    HW1 3357   0.715   5.408   0.632  1.8958 -0.8146 -0.4007
  545SOL    HW2 3358   0.615   5.431   0.521 -0.3693 -0.0269  1.7153
  546SOL     OW 3359   9.632   9.642   4.157  0.5651 -0.0013 -0.2714
  546SOL    HW1 3360   9.593   9.618   4.073  1.7698 -1.1246 -0.5444
  546SOL    HW2 3361   9.604   9.573   4.217  3.0184 -1.5493 -0.7599
  547SOL     OW 3362   1.029   2.365   8.649 -0.5126  0.6236 -0.5134
  547SOL    HW1 3363   1.117   2.352   8.683 -0.9617 -2.7059 -0.2224
  547SOL    HW2 3364   0.985   2.419   8.714  0.1253 -1.3149  1.6496
  548SOL     OW 3365   9.179   7.833   9.080 -0.1740  0.8784  0.5339
  548SOL    HW1 3366   9.118   7.780   9.030  0.2528  1.8992 -1.1786
  548SOL    HW2 3367   9.233   7.876   9.013  1.6107  0.9437  1.9465
  549SOL     OW 3368   6.887   9.527   8.692 -0.8686  0.2871 -0.0362
  549SOL    HW1 3369   6.918   9.617   8.697  0.7498 -0.2883  0.8026
  549SOL    HW2 3370   6.958   9.475   8.727 -0.6529 -1.6024 -2.9381
  550SOL     OW 3371   9.046   8.881   3.824 -0.8545 -0.0790 -0.6321
  550SOL    HW1 3372   9.029   8.856   3.733 -2.1599 -0.6177 -0.2660
  550SOL    HW2 3373   9.079   8.801   3.865  1.0605  0.5142 -0.9221
  551SOL     OW 3374   4.799   3.535   8.789 -0.0583  0.3827  0.2084
  551SOL    HW1 3375   4.763   3.493   8.868 -0.7289  2.3313  0.9961
  551SOL    HW2 3376   4.892   3.548   8.810 -0.1260  0.4443  0.4812
  552SOL     OW 3377   5.842   3.678   4.689  0.1195  0.1886 -0.1653
  552SOL    HW1 3378   5.869   3.686   4.781  1.9101 -0.5278 -0.5867
  552SOL    HW2 3379   5.923   3.690   4.640 -0.7502  0.1505 -1.6371
  553SOL     OW 3380   2.953   0.626   2.829  0.3735  0.2623  0.2151
  553SOL    HW1 3381   2.999   0.667   2.902 -0.3639 -1.0007  1.4359
  553SOL    HW2 3382   3.022   0.604   2.766  1.3905 -0.9561  1.6862
  554SOL     OW 3383   0.356   7.883   7.216  0.5476  0.3659  0.2283
  554SOL    HW1 3384   0.344   7.976   7.195  0.4119  0.1207 -0.8354
  554SOL    HW2 3385   0.290   7.838   7.163  0.8194 -0.3669  0.5031
  555SOL     OW 3386   2.931   9.616   3.010 -0.2214  0.2475  0.7771
  555SOL    HW1 3387   2.930   9.582   2.920 -0.8114 -0.1330  0.9254
  555SOL    HW2 3388   3.018   9.593   3.043 -0.0679  0.2241  0.3685
  556SOL     OW 3389   5.066   1.857   5.906  0.8939  0.0402  0.5059
  556SOL    HW1 3390   5.011   1.826   5.978  0.3334  1.8995  0.9433
  556SOL    HW2 3391   5.144   1.801   5.909 -0.3065 -1.6838  0.8124
  557SOL     OW 3392   2.233   7.500   0.416  0.3323  0.7872 -0.1347
  557SOL    HW1 3393   2.172   7.552   0.468  1.6039  2.3900 -0.1629
  557SOL    HW2 3394   2.243   7.549   0.334  2.0899  0.9002  0.1082
  558SOL     OW 3395   7.844   2.874   4.077 -0.1860  0.4095 -0.3529
  558SOL    HW1 3396   7.917   2.835   4.029  1.0525 -1.5456  2.7619
  558SOL    HW2 3397   7.766   2.843   4.031  0.9039 -1.3659 -1.1169
  559SOL     OW 3398   8.664   8.196   6.902 -0.3894 -0.1666  0.2519
  559SOL    HW1 3399   8.599   8.172   6.968  0.2043  0.8119  1.2178
  559SOL    HW2 3400   8.623   8.267   6.853 -1.3450 -1.7111 -1.3178
  560SOL     OW 3401   6.098   7.069   6.726 -0.4675  0.4239  0.0962
  560SOL    HW1 3402   6.101   7.040   6.635  1.4805  0.8840 -0.0306
  560SOL    HW2 3403   6.035   7.142   6.726 -0.0375  0.8138 -1.0183
  561SOL     OW 3404   6.657   0.246   3.427  0.3290 -0.1460  0.1602
  561SOL    HW1 3405   6.585   0.296   3.387 -0.4078  0.0100  1.6208
  561SOL    HW2 3406   6.691   0.193   3.355 -2.5801 -1.7540 -0.2112
  562SOL     OW 3407   6.739   9.556   2.115  0.0172  0.1820 -0.1953
  562SOL    HW1 3408   6.685   9.486   2.151 -0.1046  0.8915  1.0659
  562SOL    HW2 3409   6.806   9.511   2.063  1.0423 -0.9919  2.0227
  563SOL     OW 3410   7.039   8.972   1.632 -0.0826 -0.0739 -0.1235
  563SOL    HW1 3411   7.092   8.906   1.678 -4.0115 -2.7868  1.0086
  563SOL    HW2 3412   7.015   9.034   1.700 -0.0612 -0.0528 -0.1353
  564SOL     OW 3413   6.632   7.503   2.050  0.2837  0.2146 -0.0048
  564SOL    HW1 3414   6.633   7.556   2.130 -0.9190 -0.5973  0.5725
  564SOL    HW2 3415   6.587   7.559   1.986  0.8857  0.7036 -0.0145
  565SOL     OW 3416   0.053   3.861   4.832  0.1889  0.1779 -0.3680
  565SOL    HW1 3417  -0.023   3.865   4.889 -0.0590  0.1402 -0.6931
  565SOL    HW2 3418   0.017   3.840   4.746  0.4144  1.5152 -0.8151
  566SOL     OW 3419   9.198   6.658   5.533  0.8309  0.5862  0.0155
  566SOL    HW1 3420   9.202   6.746   5.494  1.7204  0.2969 -0.5766
  566SOL    HW2 3421   9.253   6.604   5.476 -1.9263 -1.0215 -1.3537
  567SOL     OW 3422   4.514   3.387   3.817 -0.0087  0.0634  0.5493
  567SOL    HW1 3423   4.473   3.307   3.849  1.0692 -0.6309  0.2387
  567SOL    HW2 3424   4.601   3.387   3.857  0.8856 -0.1672 -1.3040
  568SOL     OW 3425   7.026   1.239   3.060  0.0248  0.5737 -0.0461
  568SOL    HW1 3426   7.041   1.330   3.034  1.9456  0.8473  1.6912
  568SOL    HW2 3427   7.113   1.207   3.084 -0.3676 -2.1966 -1.8832
  569SOL     OW 3428   2.232   7.730   8.901  0.0736 -0.6510  0.2549
  569SOL    HW1 3429   2.296   7.661   8.882  0.4019  0.4678 -3.5973
  569SOL    HW2 3430   2.147   7.692   8.879  0.1341 -0.2053 -0.7828
  570SOL     OW 3431   5.151   3.021   5.450  0.0794  0.3568 -0.2334
  570SOL    HW1 3432   5.144   3.112   5.423 -1.3271  0.4432  0.3504
  570SOL    HW2 3433   5.060   2.991   5.458  0.5025 -1.5258 -1.8132
  571SOL     OW 3434   2.852   9.028   6.872 -0.1282 -0.3568  0.5397
  571SOL    HW1 3435   2.790   9.090   6.832  1.0316  1.1206  0.9413
  571SOL    HW2 3436   2.908   9.001   6.799 -0.6966 -1.0430  0.3445
  572SOL     OW 3437   3.141   4.928   6.176 -0.0572  0.1163  0.3480
  572SOL    HW1 3438   3.229   4.961   6.195 -0.2290  0.4397  0.5973
  572SOL    HW2 3439   3.124   4.863   6.243  0.8768 -1.6225 -1.0174
  573SOL     OW 3440   7.293   5.172   8.607  0.1225  0.0003  0.3978
  573SOL    HW1 3441   7.223   5.110   8.625 -0.2377  0.6458  1.3021
  573SOL    HW2 3442   7.281   5.195   8.515 -0.9092  0.1643  0.5608
  574SOL     OW 3443   3.136   4.784   1.824 -0.7532 -0.2633 -0.5530
  574SOL    HW1 3444   3.140   4.766   1.730  0.5817 -0.6760 -0.4502
  574SOL    HW2 3445   3.182   4.710   1.864  1.1373  1.2200  0.2057
  575SOL     OW 3446   4.682   6.549   7.067  0.0471 -0.0934 -0.4624
  575SOL    HW1 3447   4.695   6.619   7.130 -0.0921 -0.1089 -0.4157
  575SOL    HW2 3448   4.718   6.583   6.985  1.6227 -0.6411 -0.0389
  576SOL     OW 3449   6.506   6.737   6.493 -0.1286  0.0915  0.2093
  576SOL    HW1 3450   6.464   6.795   6.430  0.2224  1.0972  0.8738
  576SOL    HW2 3451   6.434   6.697   6.541 -0.3857 -0.3925 -0.5797
  577SOL     OW 3452   5.662   8.956   2.263  0.2687 -0.2574  0.5042
  577SOL    HW1 3453   5.592   9.014   2.234 -0.9463 -2.0798 -0.4087
  577SOL    HW2 3454   5.619   8.891   2.319  1.4193 -0.8011  0.8073
  578SOL     OW 3455   1.527   2.252   6.126  0.2043  0.2655 -0.4045
  578SOL    HW1 3456   1.461   2.314   6.157  0.1188  0.7317 -1.4848
  578SOL    HW2 3457   1.563   2.213   6.206  1.0162  2.4482  0.3652
  579SOL     OW 3458   7.243   2.970   1.017 -0.6463 -0.4334 -0.5585
  579SOL    HW1 3459   7.279   2.891   1.059 -0.8816 -0.9627 -1.3258
  579SOL    HW2 3460   7.155   2.978   1.052 -0.6136 -0.5083 -0.4590
  580SOL     OW 3461   1.024   8.814   1.312 -0.0671 -0.0519 -0.3417
  580SOL    HW1 3462   1.063   8.830   1.227  0.8617  0.2684  0.1367
  580SOL    HW2 3463   1.061   8.730   1.340  1.5439  0.9854  0.7943
  581SOL     OW 3464   9.097   4.628   9.619  0.0261 -0.1409 -0.2432
  581SOL    HW1 3465   9.080   4.591   9.533 -0.1985 -1.2391  0.2589
  581SOL    HW2 3466   9.145   4.709   9.601 -0.8466  0.1386 -1.4313
  582SOL     OW 3467   1.173   8.253   6.711 -0.3062 -0.2243  0.4244
  582SOL    HW1 3468   1.118   8.253   6.789 -0.4952 -2.3942  0.3497
  582SOL    HW2 3469   1.154   8.169   6.668 -0.3185  0.9680 -2.0454
  583SOL     OW 3470   2.735   5.480   4.164  0.1352 -0.3355 -0.1582
  583SOL    HW1 3471   2.668   5.411   4.165  0.3918 -0.5809  1.0123
  583SOL    HW2 3472   2.710   5.535   4.090 -1.6384 -0.1686  0.4986
  584SOL     OW 3473   5.095   1.509   7.988 -0.0363  0.2266 -0.2444
  584SOL    HW1 3474   5.048   1.448   8.045  1.8239 -1.4498 -0.3944
  584SOL    HW2 3475   5.032   1.532   7.920 -1.2667 -0.2716  0.6875
  585SOL     OW 3476   6.726   1.604   9.450  0.3229  0.7031  0.7698
  585SOL    HW1 3477   6.698   1.513   9.440  0.5519  0.7451 -0.4228
  585SOL    HW2 3478   6.789   1.602   9.522  2.6400 -0.6784 -1.1172
  586SOL     OW 3479   5.203   1.906   0.123 -0.1617  0.2561 -0.9323
  586SOL    HW1 3480   5.273   1.934   0.065  0.9500  1.9035  1.0709
  586SOL    HW2 3481   5.158   1.987   0.147 -0.2439 -0.2796  0.8789
  587SOL     OW 3482   6.094   4.036   6.830 -0.1744  0.0966  0.4038
  587SOL    HW1 3483   6.032   3.992   6.888 -0.5898 -0.4868 -0.4630
  587SOL    HW2 3484   6.040   4.075   6.762  0.4412 -1.1652 -0.8574
  588SOL     OW 3485   5.641   5.287   0.242 -0.2392 -0.5196  0.1526
  588SOL    HW1 3486   5.686   5.332   0.171  0.8791 -0.7598  0.6867
  588SOL    HW2 3487   5.710   5.242   0.290 -1.0555 -0.9237  0.9924
  589SOL     OW 3488   1.031   4.949   8.018 -0.1400 -0.1264  0.0256
  589SOL    HW1 3489   1.015   4.856   8.030 -0.4172 -0.2682 -1.2651
  589SOL    HW2 3490   1.069   4.956   7.930 -2.0282  1.1572 -0.7607
  590SOL     OW 3491   0.803   5.094   0.322  0.1048 -0.0659 -0.4507
  590SOL    HW1 3492   0.833   5.011   0.361 -1.8824 -0.4823  0.3366
  590SOL    HW2 3493   0.883   5.139   0.297  1.3221 -1.4521  0.7420
  591SOL     OW 3494   4.220   7.221   3.657  0.5948  0.4856  0.4604
  591SOL    HW1 3495   4.291   7.217   3.721 -0.4015  1.2275  1.6433
  591SOL    HW2 3496   4.189   7.311   3.660 -0.6406  0.0843  0.2206
  592SOL     OW 3497   5.622   3.245   0.175 -0.1182 -0.2489 -0.1832
  592SOL    HW1 3498   5.528   3.228   0.169 -0.1475 -0.2041  0.1371
  592SOL    HW2 3499   5.648   3.207   0.260 -0.0436  0.6687  0.2127
  593SOL     OW 3500   9.007   5.730   9.134  0.1267 -0.0969  0.3950
  593SOL    HW1 3501   9.081   5.777   9.094  1.6165 -2.1351  0.6036
  593SOL    HW2 3502   9.017   5.745   9.228  0.0411 -0.0768  0.4014
  594SOL     OW 3503   4.667   2.483   1.744  0.2149 -0.4715 -0.5670
  594SOL    HW1 3504   4.572   2.476   1.734  0.1887 -2.4277  0.4686
  594SOL    HW2 3505   4.694   2.546   1.678 -1.5664 -1.3755 -2.2493
  595SOL     OW 3506   1.978   7.389   6.249 -0.4690  0.2126 -0.2299
  595SOL    HW1 3507   1.940   7.440   6.177  1.5003  1.0636 -0.7212
  595SOL    HW2 3508   2.009   7.455   6.311  0.3495 -0.4338  0.0680
  596SOL     OW 3509   5.181   8.794   8.387  0.2303 -0.1852  0.2572
  596SOL    HW1 3510   5.123   8.727   8.425 -0.7460  0.8606  0.6478
  596SOL    HW2 3511   5.248   8.808   8.454 -0.6074  0.5368  0.9552
  597SOL     OW 3512   5.221   9.620   2.118  0.0253  0.4047  0.6188
  597SOL    HW1 3513   5.140   9.577   2.089  1.3541 -1.5255 -0.4898
  597SOL    HW2 3514   5.218   9.616   2.213 -2.6418  3.3676  0.8074
  598SOL     OW 3515   2.012   2.723   2.860  0.4992  0.0532  0.1162
  598SOL    HW1 3516   2.093   2.705   2.908  1.8143 -0.5838 -2.2088
  598SOL    HW2 3517   1.992   2.641   2.816 -0.1448  0.8467 -1.1130
  599SOL     OW 3518   0.213   6.395   3.513 -0.3673 -0.1493 -0.3828
  599SOL    HW1 3519   0.131   6.423   3.555  0.3696  0.7065  0.5523
  599SOL    HW2 3520   0.231   6.462   3.447  0.3422  0.5262  0.4614
  600SOL     OW 3521   7.268   0.535   7.450 -0.1952 -0.0949 -0.1361
  600SOL    HW1 3522   7.172   0.538   7.458 -0.3575  1.3112 -1.9352
  600SOL    HW2 3523   7.298   0.615   7.494  0.0271  0.1211 -0.6694
  601SOL     OW 3524   0.186   5.306   8.356 -0.5530 -0.0368 -0.4494
  601SOL    HW1 3525   0.255   5.323   8.420 -2.4352  0.9571  1.4353
  601SOL    HW2 3526   0.199   5.373   8.289  0.6567 -0.2438 -0.4484
  602SOL     OW 3527   9.418   0.879   6.121 -0.4250 -0.1954  0.1242
  602SOL    HW1 3528   9.505   0.919   6.121 -0.7889  0.6554 -1.2417
  602SOL    HW2 3529   9.424   0.810   6.055 -0.7835 -0.1548  0.0522
  603SOL     OW 3530   3.831   1.476   3.731  0.8703 -0.3681  0.4479
  603SOL    HW1 3531   3.852   1.523   3.812  0.0535 -0.5135  0.7532
  603SOL    HW2 3532   3.863   1.533   3.661  2.5157 -0.7218  0.8882
  604SOL     OW 3533   1.958   0.511   8.215 -0.5591 -0.7540  0.2756
  604SOL    HW1 3534   1.943   0.474   8.128  0.1434  0.0494 -0.1997
  604SOL    HW2 3535   2.027   0.457   8.252  0.0076 -0.3472 -0.1623
  605SOL     OW 3536   4.890   8.683   3.046 -0.2826 -0.1771 -0.1493
  605SOL    HW1 3537   4.878   8.621   2.974 -0.5665 -0.7645  0.4046
  605SOL    HW2 3538   4.804   8.690   3.086 -0.7063  1.9109 -1.2644
  606SOL     OW 3539   9.634   1.740   7.077 -0.2407  0.3711 -0.2854
  606SOL    HW1 3540   9.688   1.661   7.068 -0.6157 -0.0008  0.5789
  606SOL    HW2 3541   9.603   1.737   7.167 -0.2987  1.4970 -0.2566
  607SOL     OW 3542   6.968   0.759   1.638 -0.0538  0.1570 -0.6570
  607SOL    HW1 3543   7.057   0.729   1.653  0.2373  1.4939  0.4491
  607SOL    HW2 3544   6.931   0.771   1.725 -0.8235  1.0302 -1.0844
  608SOL     OW 3545   5.926   8.476   4.680  0.6076  0.1217 -0.1646
  608SOL    HW1 3546   5.982   8.550   4.703  2.0353 -0.9171 -0.1403
  608SOL    HW2 3547   5.964   8.441   4.599 -0.0971 -0.5240 -0.2310
  609SOL     OW 3548   3.533   8.300   7.551 -0.1677 -0.2409  0.4719
  609SOL    HW1 3549   3.516   8.272   7.462 -0.4486  0.8516  0.1685
  609SOL    HW2 3550   3.446   8.313   7.590 -0.1246  2.0919 -0.0338
  610SOL     OW 3551   2.672   6.254   1.474 -0.4286  0.1411  0.3966
  610SOL    HW1 3552   2.700   6.345   1.486 -0.6974  0.1735  0.7998
  610SOL    HW2 3553   2.622   6.255   1.393 -0.4693  0.3649  0.4243
  611SOL     OW 3554   5.119   4.812   7.481 -0.5790  0.0815 -1.0725
  611SOL    HW1 3555   5.183   4.742   7.466 -0.3779  0.2661 -1.0797
  611SOL    HW2 3556   5.147   4.883   7.423 -3.4424 -1.4578 -4.8186
  612SOL     OW 3557   8.728   3.719   2.764  0.0187  0.2388 -0.5266
  612SOL    HW1 3558   8.638   3.730   2.734 -0.0277  0.8804 -0.1686
  612SOL    HW2 3559   8.743   3.625   2.760 -1.2875 -0.0916  1.1976
  613SOL     OW 3560   6.657   6.844   4.764  0.1438  0.4707 -0.2220
  613SOL    HW1 3561   6.574   6.870   4.724 -0.3772 -0.2019  0.4008
  613SOL    HW2 3562   6.657   6.748   4.761  0.6003  0.4461  0.3785
  614SOL     OW 3563   1.511   3.107   1.996  0.0491 -0.1530 -0.2143
  614SOL    HW1 3564   1.502   3.068   2.083 -2.1749  0.5108 -0.0649
  614SOL    HW2 3565   1.472   3.194   2.005 -1.7205 -0.6539 -2.2104
  615SOL     OW 3566   0.610   5.730   8.986  0.2575 -0.3855 -0.6762
  615SOL    HW1 3567   0.554   5.654   8.969  0.2583 -0.2794 -1.1622
  615SOL    HW2 3568   0.682   5.721   8.923 -0.6287  0.9344 -1.9406
  616SOL     OW 3569   6.320   5.981   7.694 -0.2096 -0.0885 -0.1534
  616SOL    HW1 3570   6.392   6.037   7.666 -0.2443  0.0930  0.1208
  616SOL    HW2 3571   6.342   5.895   7.661  1.6569 -0.7376  2.4851
  617SOL     OW 3572   9.536   7.847   7.157 -0.0706  0.1127  0.2004
  617SOL    HW1 3573   9.465   7.785   7.171 -0.6206  0.7930  0.5126
  617SOL    HW2 3574   9.608   7.816   7.212  0.4615 -1.4849 -1.3227
  618SOL     OW 3575   4.296   0.250   3.749  0.4225 -0.1057  0.1612
  618SOL    HW1 3576   4.268   0.177   3.804  0.2721  0.5694  0.9990
  618SOL    HW2 3577   4.244   0.325   3.780  1.3615  0.6015  0.0699
  619SOL     OW 3578   6.608   5.976   9.295 -0.4186  0.0809  0.6404
  619SOL    HW1 3579   6.685   6.030   9.286 -0.5037 -0.1355 -2.2832
  619SOL    HW2 3580   6.548   6.006   9.226 -1.3329 -2.2542  0.2951
  620SOL     OW 3581   1.432   3.892   5.247  0.6821 -0.3292  0.0759
  620SOL    HW1 3582   1.476   3.818   5.206  0.0288 -0.1225 -1.0205
  620SOL    HW2 3583   1.440   3.963   5.184 -1.4919 -0.3771 -0.3303
  621SOL     OW 3584   8.636   5.578   8.852  0.3464  0.0405 -1.1713
  621SOL    HW1 3585   8.666   5.625   8.930 -2.0931  1.1120 -0.8106
  621SOL    HW2 3586   8.609   5.646   8.791 -2.8969 -0.7703 -0.7982
  622SOL     OW 3587   0.480   7.649   7.566 -0.6366  0.2823 -0.0678
  622SOL    HW1 3588   0.500   7.738   7.537 -0.1740  0.4568  0.7486
  622SOL    HW2 3589   0.386   7.640   7.552 -0.4417  0.3562 -1.5734
  623SOL     OW 3590   5.393   6.321   9.401 -0.4613  0.0744 -0.3303
  623SOL    HW1 3591   5.443   6.401   9.417  0.0281  0.1748 -2.0799
  623SOL    HW2 3592   5.341   6.341   9.323  0.2821 -1.5441 -1.3063
  624SOL     OW 3593   4.172   5.114   9.131 -0.0692 -0.4375  0.7006
  624SOL    HW1 3594   4.135   5.047   9.189 -0.7300 -1.0646 -0.3909
  624SOL    HW2 3595   4.151   5.197   9.173 -1.4263 -0.8433  0.8649
  625SOL     OW 3596   7.883   6.900   1.004 -0.7493  0.0274  0.0293
  625SOL    HW1 3597   7.942   6.941   1.067  0.7411 -0.4761 -1.0045
  625SOL    HW2 3598   7.798   6.941   1.022 -0.0447  0.9929  1.3492
  626SOL     OW 3599   9.234   8.100   2.643  0.2771 -0.2853 -0.2820
  626SOL    HW1 3600   9.194   8.018   2.612 -1.2026 -0.1267  1.1148
  626SOL    HW2 3601   9.310   8.071   2.694 -0.3883 -0.8287  0.4239
  627SOL     OW 3602   7.741   5.545   3.966 -0.0288 -0.8381  0.0894
  627SOL    HW1 3603   7.772   5.455   3.979 -2.3759 -1.4998  1.7516
  627SOL    HW2 3604   7.662   5.536   3.913  0.1097  0.3501 -0.3515
  628SOL     OW 3605   6.623   3.036   9.283  0.1758 -0.3830 -0.4486
  628SOL    HW1 3606   6.542   3.068   9.245  0.2756 -1.9447 -2.1324
  628SOL    HW2 3607   6.692   3.072   9.227  0.9309  2.5856  2.1053
  629SOL     OW 3608   6.429   1.414   8.201 -0.2744  0.2074 -0.0759
  629SOL    HW1 3609   6.468   1.453   8.279 -1.2845  1.4580 -0.1791
  629SOL    HW2 3610   6.489   1.437   8.130 -0.6854  1.2823 -0.0791
  630SOL     OW 3611   4.947   0.047   8.193  1.0211 -0.2849 -0.0815
  630SOL    HW1 3612   5.024  -0.008   8.177  1.0538 -0.5098  0.7685
  630SOL    HW2 3613   4.983   0.135   8.209  1.0952 -0.3514  0.1288
  631SOL     OW 3614   4.458   8.140   7.512  0.2925  0.4030  0.2601
  631SOL    HW1 3615   4.537   8.115   7.465  0.2428  0.6040  0.0626
  631SOL    HW2 3616   4.462   8.093   7.595 -0.1547 -0.8353 -0.3841
  632SOL     OW 3617   6.646   7.198   1.635 -0.5274  0.0511 -0.1545
  632SOL    HW1 3618   6.570   7.210   1.693 -0.2191 -0.7208  0.4327
  632SOL    HW2 3619   6.720   7.233   1.685 -0.5242  1.0130 -0.8200
  633SOL     OW 3620   9.451   8.775   6.119 -0.7710 -0.0675 -0.1509
  633SOL    HW1 3621   9.451   8.810   6.030 -0.7795 -1.3479 -0.6794
  633SOL    HW2 3622   9.534   8.727   6.126 -1.8856 -2.1858 -0.4301
  634SOL     OW 3623   0.162   1.933   7.275  0.4127 -0.4826 -0.2569
  634SOL    HW1 3624   0.252   1.964   7.265  0.8046 -1.4197  0.1845
  634SOL    HW2 3625   0.113   2.008   7.309  0.7426  0.4155 -1.6653
  635SOL     OW 3626   2.672   0.683   6.524  0.3456  0.1504 -0.0260
  635SOL    HW1 3627   2.734   0.682   6.597  0.2373 -2.3721  0.1192
  635SOL    HW2 3628   2.726   0.663   6.447  0.1339  0.7409 -0.3307
  636SOL     OW 3629   7.721   3.442   7.422  0.4941 -0.3868  0.2780
  636SOL    HW1 3630   7.731   3.522   7.370  0.6135 -0.7264 -0.2228
  636SOL    HW2 3631   7.729   3.471   7.513 -2.4658  0.6884  0.3123
  637SOL     OW 3632   8.626   1.364   1.382  0.1441 -0.5120  0.1251
  637SOL    HW1 3633   8.555   1.307   1.411  1.0319 -2.5533 -1.4570
  637SOL    HW2 3634   8.588   1.416   1.311  0.2860 -1.8724 -0.9810
  638SOL     OW 3635   2.315   8.652   7.843  0.1960 -0.6145  0.1834
  638SOL    HW1 3636   2.349   8.651   7.932  0.5392  0.4884  0.0883
  638SOL    HW2 3637   2.332   8.741   7.812  1.1690 -1.3077 -1.4071
  639SOL     OW 3638   5.761   4.321   5.631  0.1320  0.9132 -0.3544
  639SOL    HW1 3639   5.784   4.279   5.549 -0.1105 -0.0599  0.0664
  639SOL    HW2 3640   5.679   4.367   5.612 -0.7157 -0.5274 -0.2811
  640SOL     OW 3641   1.955   6.649   7.320  0.5392  0.1337  0.0185
  640SOL    HW1 3642   1.930   6.719   7.380  2.1866 -0.0935  1.0548
  640SOL    HW2 3643   1.875   6.599   7.306 -0.4419  1.6657  0.0080
  641SOL     OW 3644   5.704   1.193   0.567 -0.3022  0.1744  0.2890
  641SOL    HW1 3645   5.760   1.174   0.491 -1.1100  0.2737 -0.3466
  641SOL    HW2 3646   5.635   1.249   0.532 -2.1599 -1.8518  0.4825
  642SOL     OW 3647   2.739   4.668   8.737  0.3717  0.5004 -0.2070
  642SOL    HW1 3648   2.715   4.616   8.813  0.8701  0.9474  0.2633
  642SOL    HW2 3649   2.655   4.696   8.700  0.1289  1.0820  0.7410
  643SOL     OW 3650   0.423   2.273   1.524 -0.3481  0.3992 -0.3464
  643SOL    HW1 3651   0.437   2.354   1.574 -1.7002  0.5993 -0.2582
  643SOL    HW2 3652   0.499   2.267   1.466  0.3495  1.1101  0.4668
  644SOL     OW 3653   9.440   8.032   2.826  0.1279 -0.2091  0.0338
  644SOL    HW1 3654   9.398   7.946   2.829 -0.4579  0.0826  2.4039
  644SOL    HW2 3655   9.528   8.016   2.862  0.0887  0.1351  0.2832
  645SOL     OW 3656   3.798   4.479   8.953  0.5542  0.0421  0.3602
  645SOL    HW1 3657   3.893   4.474   8.954  0.4899 -1.4982  0.5823
  645SOL    HW2 3658   3.768   4.399   8.997 -0.8380  0.7759  0.8171
  646SOL     OW 3659   0.789   2.617   9.497  0.0004  0.0456  0.1369
  646SOL    HW1 3660   0.819   2.628   9.407  0.8373  2.3114  0.6183
  646SOL    HW2 3661   0.845   2.549   9.533  0.2295 -0.2820 -0.8032
  647SOL     OW 3662   1.702   1.255   8.213  0.4215  0.2640  0.2348
  647SOL    HW1 3663   1.731   1.204   8.288 -0.0628  0.0426  0.2765
  647SOL    HW2 3664   1.676   1.189   8.148  0.1565  0.4585  0.1452
  648SOL     OW 3665   8.221   5.508   9.490 -0.1312  0.4904 -0.0881
  648SOL    HW1 3666   8.267   5.565   9.429 -0.7488  0.4078 -0.6442
  648SOL    HW2 3667   8.155   5.564   9.531  0.3213  0.5610  0.5602
  649SOL     OW 3668   4.773   1.132   5.393  0.0541  0.3175 -0.3898
  649SOL    HW1 3669   4.763   1.106   5.484  0.0614  0.4039 -0.3650
  649SOL    HW2 3670   4.720   1.068   5.344 -2.3568  1.9885 -0.1005
  650SOL     OW 3671   1.162   2.416   4.167  0.1385 -0.2594 -0.0522
  650SOL    HW1 3672   1.191   2.460   4.247  0.6806  0.6522 -0.7349
  650SOL    HW2 3673   1.223   2.343   4.156  0.5543  0.0882 -0.0613
  651SOL     OW 3674   3.815   1.107   4.845 -0.0067  0.0268  0.5538
  651SOL    HW1 3675   3.847   1.196   4.834 -2.8280  1.0508 -0.2799
  651SOL    HW2 3676   3.723   1.111   4.817  0.6134 -3.8677 -3.0454
  652SOL     OW 3677   5.362   8.777   5.221  0.0620 -0.6059  0.2791
  652SOL    HW1 3678   5.386   8.745   5.134  0.2235  3.4886 -1.4154
  652SOL    HW2 3679   5.303   8.710   5.256  1.3582 -3.2425 -2.1842
  653SOL     OW 3680   8.281   9.580   1.612 -0.2395 -0.1870  0.0162
  653SOL    HW1 3681   8.224   9.503   1.616  0.2522 -0.5430  0.3253
  653SOL    HW2 3682   8.296   9.603   1.704 -0.9854  0.7442 -0.0749
  654SOL     OW 3683   9.327   4.874   8.859 -0.4133 -0.4343 -0.1670
  654SOL    HW1 3684   9.330   4.909   8.771 -1.6704  0.1545  0.0139
  654SOL    HW2 3685   9.236   4.851   8.874 -0.1669 -0.8267  0.8628
  655SOL     OW 3686   3.927   4.152   8.926 -0.4182  0.2024  0.1322
  655SOL    HW1 3687   3.988   4.224   8.906  1.2254 -1.4803 -1.3091
  655SOL    HW2 3688   3.863   4.191   8.985  0.8220  2.6516  0.0063
  656SOL     OW 3689   2.657   9.368   2.938 -0.0424  0.2078 -0.1448
  656SOL    HW1 3690   2.720   9.391   2.870 -0.5292 -1.3605 -1.1915
  656SOL    HW2 3691   2.671   9.432   3.007  1.2957  1.1188 -1.2159
  657SOL     OW 3692   9.623   0.932   3.704 -0.2548 -0.7816 -0.5299
  657SOL    HW1 3693   9.631   0.901   3.794  3.2272  0.4840 -0.2516
  657SOL    HW2 3694   9.563   1.006   3.709  0.0365 -0.6043  0.8074
  658SOL     OW 3695   4.853   3.851   9.225  0.1798  0.4885  0.5163
  658SOL    HW1 3696   4.851   3.883   9.134  0.4386 -0.3238  0.2166
  658SOL    HW2 3697   4.763   3.859   9.255  0.2088  1.3687  0.4075
  659SOL     OW 3698   6.415   4.378   9.683 -0.1222  0.8934 -0.3341
  659SOL    HW1 3699   6.381   4.460   9.646 -0.7012  0.5689 -0.5259
  659SOL    HW2 3700   6.509   4.394   9.694 -0.7248  2.9871  3.2356
  660SOL     OW 3701   6.353   3.252   5.194 -0.5969 -0.0422 -1.1368
  660SOL    HW1 3702   6.367   3.311   5.268 -0.8928 -1.0421 -0.2664
  660SOL    HW2 3703   6.302   3.304   5.132 -0.7418  0.6589 -0.4479
  661SOL     OW 3704   1.721   9.303   0.800 -0.1603  0.5522  0.5426
  661SOL    HW1 3705   1.645   9.250   0.824  0.7214 -0.1472  1.9349
  661SOL    HW2 3706   1.710   9.320   0.706 -2.3746  1.0799  0.8358
  662SOL     OW 3707   2.595   4.163   3.098  0.1240  0.5546 -0.5009
  662SOL    HW1 3708   2.675   4.179   3.048  0.2859 -0.3557 -0.5470
  662SOL    HW2 3709   2.525   4.179   3.036  0.3053  0.2228 -0.7953
  663SOL     OW 3710   7.588   0.007   8.195 -0.1362  0.4381  0.3842
  663SOL    HW1 3711   7.663  -0.050   8.178  0.0956  0.7172  0.4528
  663SOL    HW2 3712   7.538   0.006   8.113  0.5913  1.1993 -0.0931
  664SOL     OW 3713   5.958   7.687   5.511  0.4285 -0.0915  0.2278
  664SOL    HW1 3714   6.019   7.635   5.564 -0.7820 -2.4679 -0.5810
  664SOL    HW2 3715   5.940   7.633   5.435 -1.2931  1.3305 -0.4458
  665SOL     OW 3716   3.258   4.721   5.131  0.5754 -0.4396  0.2263
  665SOL    HW1 3717   3.255   4.691   5.040  1.1470 -1.7897  0.6272
  665SOL    HW2 3718   3.207   4.802   5.131 -0.7922 -1.2475 -0.9777
  666SOL     OW 3719   8.017   2.089   5.797 -0.1139  0.4260  0.4246
  666SOL    HW1 3720   8.107   2.056   5.796 -0.2604 -0.0964 -2.0659
  666SOL    HW2 3721   8.024   2.180   5.770 -0.4742 -0.3715 -2.7070
  667SOL     OW 3722   4.980   8.786   6.266  0.0262  0.4401  0.1811
  667SOL    HW1 3723   4.922   8.849   6.224 -0.2590 -0.3850 -0.7093
  667SOL    HW2 3724   4.938   8.701   6.250  1.9369 -0.2923 -1.3354
  668SOL     OW 3725   5.656   3.348   9.002 -0.5922 -0.0246  0.3068
  668SOL    HW1 3726   5.710   3.305   9.068  2.0457  2.4271 -0.0479
  668SOL    HW2 3727   5.676   3.301   8.920 -1.0123 -0.7478  0.6131
  669SOL     OW 3728   0.324   0.582   1.186  0.3600 -0.0482 -0.5494
  669SOL    HW1 3729   0.410   0.565   1.148  1.9543  0.8698  2.4248
  669SOL    HW2 3730   0.319   0.677   1.192 -0.1012 -0.1429  0.8681
  670SOL     OW 3731   7.019   9.540   1.528  0.1632  0.4343  0.3110
  670SOL    HW1 3732   7.014   9.573   1.438 -0.7330 -0.6346 -0.0625
  670SOL    HW2 3733   7.112   9.522   1.542  0.4492  1.5539 -0.0342
  671SOL     OW 3734   7.229   6.650   7.470  0.2687 -0.2805  0.7106
  671SOL    HW1 3735   7.308   6.694   7.498 -0.9944  2.0895  0.7991
  671SOL    HW2 3736   7.255   6.600   7.392  2.3323 -1.5897  2.1628
  672SOL     OW 3737   6.285   0.168   1.786  0.4451  0.2631 -0.0952
  672SOL    HW1 3738   6.279   0.080   1.749  0.7475  0.7114 -1.2420
  672SOL    HW2 3739   6.201   0.180   1.831  0.8334 -1.0213  1.0477
  673SOL     OW 3740   0.556   6.323   3.583  0.3890 -0.0922  0.8024
  673SOL    HW1 3741   0.550   6.304   3.676 -1.9237  0.4518  0.8216
  673SOL    HW2 3742   0.516   6.409   3.573 -1.2376 -0.9747 -0.9027
  674SOL     OW 3743   1.836   5.238   7.726 -0.3068  0.1698  0.5001
  674SOL    HW1 3744   1.823   5.297   7.652  3.1114  1.5772  0.8258
  674SOL    HW2 3745   1.791   5.281   7.799  1.2325  1.9398  0.4883
  675SOL     OW 3746   5.077   5.984   7.342  0.2050 -0.3505  0.4464
  675SOL    HW1 3747   5.111   6.072   7.360  1.6364 -1.0319  1.2929
  675SOL    HW2 3748   5.017   5.996   7.269 -0.4517  1.4928  1.2181
  676SOL     OW 3749   4.950   3.882   2.719  0.3026  0.5321  0.2022
  676SOL    HW1 3750   4.894   3.909   2.646 -0.2814 -0.6368  0.1968
  676SOL    HW2 3751   4.908   3.920   2.796  1.8477  3.2366 -0.1466
  677SOL     OW 3752   1.078   8.133   0.683 -0.0080 -0.0217  0.5172
  677SOL    HW1 3753   1.003   8.124   0.624  0.2930  1.7626 -0.1811
  677SOL    HW2 3754   1.152   8.098   0.633  0.4733  2.5643 -0.7217
  678SOL     OW 3755   8.430   4.363   8.011  0.7043 -0.1426  0.5772
  678SOL    HW1 3756   8.359   4.340   8.071  1.2931  0.8275  1.6994
  678SOL    HW2 3757   8.421   4.303   7.938 -2.0960  0.7764  0.0390
  679SOL     OW 3758   0.202   0.395   8.743  0.4694  0.3083  0.0494
  679SOL    HW1 3759   0.220   0.466   8.680 -0.8749 -0.5878 -1.4286
  679SOL    HW2 3760   0.286   0.351   8.753  0.5515 -0.0873 -1.9009
  680SOL     OW 3761   0.166   4.379   3.054  0.3763 -0.6875 -0.2281
  680SOL    HW1 3762   0.240   4.428   3.090  0.2024 -0.2532 -0.4483
  680SOL    HW2 3763   0.093   4.399   3.113 -0.0090  0.3490 -1.0206
  681SOL     OW 3764   0.393   5.679   3.173 -0.6221  0.0848 -0.5719
  681SOL    HW1 3765   0.300   5.663   3.159 -0.6164  0.6353 -1.3230
  681SOL    HW2 3766   0.431   5.592   3.188 -0.9314 -0.3766 -2.3073
  682SOL     OW 3767   5.235   0.228   4.573  0.0583 -0.1724  0.1629
  682SOL    HW1 3768   5.282   0.306   4.603  0.7390 -0.4759 -0.1004
  682SOL    HW2 3769   5.287   0.155   4.606  0.5179 -0.5153 -1.2629
  683SOL     OW 3770   1.743   7.054   7.489 -0.1593 -0.0821 -0.1939
  683SOL    HW1 3771   1.794   7.129   7.518 -0.6989 -0.0356  0.6679
  683SOL    HW2 3772   1.660   7.091   7.458 -1.0332 -0.3985  1.6283
  684SOL     OW 3773   7.145   1.264   8.663  0.1652  0.0760  0.0174
  684SOL    HW1 3774   7.184   1.347   8.692  1.7056 -0.4165 -0.5983
  684SOL    HW2 3775   7.172   1.200   8.729 -1.1031  0.0444  0.5445
  685SOL     OW 3776   4.077   2.795   5.708 -0.3311  0.3720  0.2040
  685SOL    HW1 3777   4.101   2.704   5.690 -1.7890  0.2155 -1.1212
  685SOL    HW2 3778   3.982   2.798   5.698 -0.8016  1.2911  3.7748
  686SOL     OW 3779   3.816   9.690   2.064 -0.2301 -0.0964 -0.1261
  686SOL    HW1 3780   3.900   9.649   2.086 -0.0497 -0.0290 -0.6741
  686SOL    HW2 3781   3.755   9.617   2.056 -0.1612 -0.1678 -0.0106
  687SOL     OW 3782   7.090   8.263   5.624 -0.1138  0.1846 -0.5685
  687SOL    HW1 3783   7.152   8.321   5.581  0.1691  0.3714  0.0949
  687SOL    HW2 3784   7.143   8.206   5.679 -0.3505 -0.9346 -1.4453
  688SOL     OW 3785   6.686   3.718   7.003  0.3988 -0.2399 -0.5870
  688SOL    HW1 3786   6.673   3.679   6.917  0.6665  0.9430 -1.1902
  688SOL    HW2 3787   6.766   3.679   7.037  0.7220 -0.1217 -1.2185
  689SOL     OW 3788   4.092   5.073   7.419  0.0647  0.3164 -0.8201
  689SOL    HW1 3789   4.172   5.029   7.390  1.3539  1.2524  1.1447
  689SOL    HW2 3790   4.021   5.024   7.376  1.5657 -1.9441 -0.8731
  690SOL     OW 3791   4.465   9.231   2.531  0.4148 -0.0930 -0.3421
  690SOL    HW1 3792   4.423   9.156   2.573  0.4512 -1.0827 -1.9860
  690SOL    HW2 3793   4.393   9.292   2.512  0.5285  0.8726  2.0336
  691SOL     OW 3794   9.070   0.916   8.610 -0.1715  0.2902  0.4204
  691SOL    HW1 3795   9.111   0.835   8.579  0.4513  0.6943  0.1589
  691SOL    HW2 3796   8.978   0.893   8.622  0.1002 -0.6085  0.8998
  692SOL     OW 3797   0.290   1.801   8.277 -0.0111  0.4223 -0.0964
  692SOL    HW1 3798   0.376   1.841   8.278  0.1333  0.1685 -1.1806
  692SOL    HW2 3799   0.231   1.871   8.250 -0.1644  0.6086  0.6906
  693SOL     OW 3800   3.260   7.193   1.818 -0.0524 -0.8840 -0.0897
  693SOL    HW1 3801   3.238   7.102   1.799 -0.3157 -0.8906  0.2424
  693SOL    HW2 3802   3.247   7.201   1.912 -0.0738 -0.4871 -0.1271
  694SOL     OW 3803   0.238   2.673   8.682 -0.5076 -0.3119 -0.3207
  694SOL    HW1 3804   0.204   2.761   8.695 -1.8805 -0.7940 -0.4712
  694SOL    HW2 3805   0.306   2.682   8.616  0.4316  0.8456  0.7508
  695SOL     OW 3806   5.547   9.291   7.103 -0.1552  0.1190  0.0175
  695SOL    HW1 3807   5.518   9.211   7.058  0.3582  0.1432 -0.3536
  695SOL    HW2 3808   5.616   9.326   7.048 -1.5774  1.8128 -0.7975
  696SOL     OW 3809   2.061   7.649   7.519  0.1603  0.6620  0.3671
  696SOL    HW1 3810   2.018   7.707   7.583 -0.2376  1.1650 -0.3364
  696SOL    HW2 3811   2.072   7.704   7.442  0.6687  0.0690  0.0124
  697SOL     OW 3812   5.737   1.327   3.133 -0.4732 -0.0925  0.2729
  697SOL    HW1 3813   5.699   1.269   3.067 -0.0139 -3.3691  2.6535
  697SOL    HW2 3814   5.790   1.389   3.083 -0.7420 -1.9151 -2.4646
  698SOL     OW 3815   1.292   5.507   8.574 -0.0348 -0.4787 -0.3818
  698SOL    HW1 3816   1.371   5.546   8.611  0.9017 -2.7977  0.2393
  698SOL    HW2 3817   1.230   5.580   8.569  2.3029  1.5975 -1.5521
  699SOL     OW 3818   2.898   3.013   9.062  0.0233 -0.2749 -0.2071
  699SOL    HW1 3819   2.885   3.005   8.967  2.3442  1.4557 -0.7546
  699SOL    HW2 3820   2.832   3.077   9.090 -1.0444 -1.2100 -0.5171
  700SOL     OW 3821   2.900   7.858   6.114  0.1514  0.3688  0.2152
  700SOL    HW1 3822   2.864   7.869   6.202  1.4209 -1.3231  1.0082
  700SOL    HW2 3823   2.929   7.946   6.089 -1.5828  1.1618  0.8283
  701SOL     OW 3824   2.803   8.583   7.271  0.4791  0.6297  0.7169
  701SOL    HW1 3825   2.828   8.520   7.204  1.0630 -0.3052  1.7607
  701SOL    HW2 3826   2.856   8.661   7.253  0.0030  0.7072 -0.3869
  702SOL     OW 3827   4.483   8.999   6.849 -0.3365 -0.4465 -0.1467
  702SOL    HW1 3828   4.418   8.953   6.796 -0.9039  0.4343 -0.2314
  702SOL    HW2 3829   4.489   8.948   6.929  0.3829 -1.6849 -0.9396
  703SOL     OW 3830   3.335   7.766   8.770 -0.0036  0.4017  0.3373
  703SOL    HW1 3831   3.312   7.827   8.840 -1.4772  0.8265 -0.4633
  703SOL    HW2 3832   3.420   7.795   8.740 -0.7792  2.2676 -0.1873
  704SOL     OW 3833   6.810   0.903   4.319  0.5191 -0.6212 -0.2555
  704SOL    HW1 3834   6.762   0.986   4.326 -1.3187 -1.7948  2.0051
  704SOL    HW2 3835   6.901   0.927   4.335  0.0196  0.9566  0.4095
  705SOL     OW 3836   0.892   6.738   3.998 -0.3225  0.0880 -0.3028
  705SOL    HW1 3837   0.836   6.663   4.021 -0.1858  0.4566  1.4298
  705SOL    HW2 3838   0.938   6.711   3.919 -1.7345 -0.8691 -0.8482
  706SOL     OW 3839   0.202   9.015   1.759 -0.2284  0.0749  0.0751
  706SOL    HW1 3840   0.214   9.110   1.762 -1.6699  0.3601 -1.5836
  706SOL    HW2 3841   0.289   8.980   1.740  0.8372  0.8062  3.0459
  707SOL     OW 3842   5.495   9.107   5.893 -0.2497  0.1325 -0.2948
  707SOL    HW1 3843   5.569   9.052   5.917  1.0654  1.5778 -0.8766
  707SOL    HW2 3844   5.504   9.121   5.799  0.3956  2.6049  0.0706
  708SOL     OW 3845   3.520   5.460   5.282 -0.0865  0.0478  0.3086
  708SOL    HW1 3846   3.456   5.390   5.275 -0.9474  0.7265  1.1659
  708SOL    HW2 3847   3.552   5.472   5.192 -0.2813 -1.0927  0.0726
  709SOL     OW 3848   3.977   4.321   0.888  0.2211  0.6911 -0.2499
  709SOL    HW1 3849   4.028   4.376   0.948 -1.2476  0.2360  1.5262
  709SOL    HW2 3850   3.919   4.271   0.946 -1.9818  0.9385 -2.0900
  710SOL     OW 3851   3.794   5.035   2.652 -0.1527  0.2959 -0.7318
  710SOL    HW1 3852   3.848   5.024   2.730 -0.3477  2.7410 -0.1481
  710SOL    HW2 3853   3.705   5.046   2.686 -0.6969 -1.3746 -1.5244
  711SOL     OW 3854   4.820   0.346   8.332  0.0971  0.8570  0.3585
  711SOL    HW1 3855   4.912   0.336   8.308 -0.3661 -1.2135 -0.8255
  711SOL    HW2 3856   4.775   0.365   8.250 -0.8015 -0.5993  0.4609
  712SOL     OW 3857   8.172   0.719   7.441  0.2541 -0.4273 -0.2541
  712SOL    HW1 3858   8.212   0.800   7.409 -1.5925  0.0911 -1.3598
  712SOL    HW2 3859   8.188   0.655   7.372  3.1845 -1.6152  1.3016
  713SOL     OW 3860   4.950   0.029   5.370  0.0505  0.2385  0.3004
  713SOL    HW1 3861   4.950   0.085   5.448 -0.4845  1.0550 -0.2590
  713SOL    HW2 3862   4.906   0.082   5.304 -1.6367 -1.3382  0.0818
  714SOL     OW 3863   0.469   8.331   6.901 -0.6041  0.1817 -0.1426
  714SOL    HW1 3864   0.376   8.325   6.878 -0.3419 -3.1584 -0.6954
  714SOL    HW2 3865   0.477   8.278   6.980  1.2199 -1.8457 -1.5884
  715SOL     OW 3866   6.945   6.216   3.538  0.4437  0.2947 -0.5179
  715SOL    HW1 3867   6.887   6.208   3.462 -1.3469 -0.2308  0.8081
  715SOL    HW2 3868   6.912   6.149   3.599  1.2392  1.2829  1.0500
  716SOL     OW 3869   6.542   9.604   1.527  0.2653 -0.2180  0.0122
  716SOL    HW1 3870   6.590   9.571   1.451 -0.5730  0.1085 -0.6739
  716SOL    HW2 3871   6.459   9.556   1.526 -0.8758  1.6816 -0.8578
  717SOL     OW 3872   6.798   6.801   2.837 -0.6264 -0.2098 -0.1275
  717SOL    HW1 3873   6.783   6.709   2.815 -1.6104 -0.1294  0.1864
  717SOL    HW2 3874   6.889   6.804   2.867 -0.3058 -0.9149 -0.9849
  718SOL     OW 3875   0.721   5.615   8.043 -0.9572  0.7929 -0.3115
  718SOL    HW1 3876   0.736   5.695   7.993 -0.0207  1.0247  0.3064
  718SOL    HW2 3877   0.791   5.615   8.109 -1.9505  0.3372  0.7825
  719SOL     OW 3878   7.342   3.655   0.197 -0.2227 -0.2404  0.2160
  719SOL    HW1 3879   7.405   3.582   0.202 -1.9004 -1.6859  2.8151
  719SOL    HW2 3880   7.316   3.657   0.105  1.7389 -1.2531 -0.4268
  720SOL     OW 3881   1.001   8.797   8.038  0.8853 -0.5121 -0.4412
  720SOL    HW1 3882   0.986   8.885   8.070  1.9231 -0.7999  0.9298
  720SOL    HW2 3883   0.994   8.805   7.942 -0.3100  0.7650 -0.2840
  721SOL     OW 3884   1.657   2.696   9.347  0.0461 -0.4252  0.0129
  721SOL    HW1 3885   1.679   2.687   9.439  2.4443  3.6265  0.0788
  721SOL    HW2 3886   1.712   2.631   9.303  1.3722 -0.2138  1.2682
  722SOL     OW 3887   5.513   6.445   4.897 -0.5250 -0.2317 -0.3703
  722SOL    HW1 3888   5.460   6.422   4.821 -0.8710 -0.0076 -0.1996
  722SOL    HW2 3889   5.597   6.401   4.882 -0.0781  0.9761 -1.5945
  723SOL     OW 3890   4.865   4.906   6.919 -0.5910 -0.3520 -0.5693
  723SOL    HW1 3891   4.793   4.955   6.879 -1.1402 -1.5044 -1.0255
  723SOL    HW2 3892   4.869   4.824   6.869  0.4899 -0.6629 -0.0004
  724SOL     OW 3893   6.399   3.812   5.201  0.4901 -0.0764  0.2014
  724SOL    HW1 3894   6.349   3.731   5.192 -0.8102  0.6895  0.1577
  724SOL    HW2 3895   6.483   3.794   5.159  0.0101 -1.2212 -0.3101
  725SOL     OW 3896   8.752   0.019   0.589 -0.0706  0.7878 -0.3955
  725SOL    HW1 3897   8.736   0.069   0.669  0.5423  0.4065 -0.0272
  725SOL    HW2 3898   8.730  -0.071   0.613 -0.7337  0.8056 -0.9213
  726SOL     OW 3899   7.873   1.244   8.733 -0.5639  0.3916  0.0685
  726SOL    HW1 3900   7.845   1.287   8.652  2.3146  0.8865 -0.7576
  726SOL    HW2 3901   7.896   1.155   8.706 -1.1611  0.0351  0.6957
  727SOL     OW 3902   6.269   4.693   3.587  0.6327  0.0569 -0.2811
  727SOL    HW1 3903   6.317   4.689   3.670  0.4867 -1.1932 -0.2411
  727SOL    HW2 3904   6.177   4.700   3.612  0.6385  0.4298 -0.3516
  728SOL     OW 3905   3.247   4.630   4.842  0.2328 -0.4069  0.1256
  728SOL    HW1 3906   3.310   4.593   4.780 -0.4834 -0.9502 -0.2907
  728SOL    HW2 3907   3.223   4.556   4.898 -0.1553 -0.2442  0.1761
  729SOL     OW 3908   4.418   4.727   4.481  0.1213  0.0718  0.1709
  729SOL    HW1 3909   4.431   4.809   4.434 -0.4267  0.3970  0.5645
  729SOL    HW2 3910   4.426   4.659   4.414 -1.6975  0.5744 -0.6439
  730SOL     OW 3911   8.571   5.259   5.371  0.1428  0.4638  0.4125
  730SOL    HW1 3912   8.578   5.294   5.459 -1.1637 -1.2258  1.2488
  730SOL    HW2 3913   8.478   5.240   5.359  0.3958 -0.0267 -1.0436
  731SOL     OW 3914   2.483   2.946   4.752 -0.4856  0.0419  0.3869
  731SOL    HW1 3915   2.495   2.870   4.696 -2.7027 -0.9134  1.0770
  731SOL    HW2 3916   2.475   3.020   4.692 -0.6921 -0.6485 -0.4472
  732SOL     OW 3917   8.423   6.651   4.241  0.2623 -0.5932  0.6571
  732SOL    HW1 3918   8.446   6.629   4.331  1.6730  1.2952  0.8400
  732SOL    HW2 3919   8.495   6.616   4.188 -0.4363 -1.4819  0.2816
  733SOL     OW 3920   1.943   0.193   3.462  0.0310  0.0604 -0.0862
  733SOL    HW1 3921   2.003   0.230   3.398 -2.4010  0.3886 -2.3313
  733SOL    HW2 3922   1.934   0.101   3.437  0.7979 -0.4023  1.2475
  734SOL     OW 3923   4.214   5.956   1.658  0.0115  0.8676 -0.0665
  734SOL    HW1 3924   4.193   6.040   1.698 -1.2715  0.9118 -0.7824
  734SOL    HW2 3925   4.165   5.955   1.576 -0.5769 -0.8573  0.2487
  735SOL     OW 3926   0.756   5.001   3.316 -0.3426  0.1448  0.2379
  735SOL    HW1 3927   0.767   4.980   3.223  0.2007 -0.2890  0.3931
  735SOL    HW2 3928   0.724   4.921   3.356 -2.1653  0.7982  0.1626
  736SOL     OW 3929   8.094   8.808   5.458  0.2913 -0.2500 -0.0167
  736SOL    HW1 3930   8.117   8.811   5.551  2.1106 -1.2053 -0.3996
  736SOL    HW2 3931   8.148   8.875   5.418 -1.8474  1.4861 -0.1878
  737SOL     OW 3932   6.393   8.040   2.941  0.4275  0.2959 -0.4481
  737SOL    HW1 3933   6.456   7.970   2.958  0.7823  0.3365 -1.5627
  737SOL    HW2 3934   6.314   7.994   2.912 -0.6837  0.1211  2.4940
  738SOL     OW 3935   9.247   4.356   0.193 -0.0904  0.5949 -0.1731
  738SOL    HW1 3936   9.210   4.434   0.152  1.1614  1.3627  0.1084
  738SOL    HW2 3937   9.323   4.334   0.140 -1.1786 -1.2975 -1.0699
  739SOL     OW 3938   8.268   2.422   7.782  0.0138 -0.4185 -0.2258
  739SOL    HW1 3939   8.181   2.433   7.743 -0.2668  0.9911  0.7026
  739SOL    HW2 3940   8.297   2.336   7.752 -0.0140  0.6376 -3.7954
  740SOL     OW 3941   6.053   1.743   1.203 -0.4776  0.0201 -0.6016
  740SOL    HW1 3942   6.144   1.742   1.173 -0.6494 -1.3650 -1.1096
  740SOL    HW2 3943   6.004   1.777   1.129 -0.2096  2.5817  0.2931
  741SOL     OW 3944   0.464   4.602   9.343 -0.7725  0.1605  0.0872
  741SOL    HW1 3945   0.544   4.652   9.330 -0.4264 -0.1712  0.8370
  741SOL    HW2 3946   0.440   4.618   9.435 -1.3207 -0.0864 -0.0081
  742SOL     OW 3947   7.545   8.181   0.181  0.2116 -0.4819  0.8151
  742SOL    HW1 3948   7.524   8.137   0.098 -1.0836  0.8951  0.3674
  742SOL    HW2 3949   7.611   8.246   0.158  0.4281 -0.6292  1.0195
  743SOL     OW 3950   4.230   1.973   0.894 -0.0440 -0.2085 -0.3892
  743SOL    HW1 3951   4.274   1.958   0.978 -0.7359  0.7697  0.1558
  743SOL    HW2 3952   4.223   1.885   0.856 -0.0779 -0.7266  0.7493
  744SOL     OW 3953   6.629   9.627   0.057  0.2805  0.6441 -0.1151
  744SOL    HW1 3954   6.634   9.639   0.152  1.4263  0.2682 -0.1132
  744SOL    HW2 3955   6.538   9.647   0.035 -0.2907 -0.3811  1.2146
  745SOL     OW 3956   9.662   4.066   8.919  0.1816 -0.3481 -0.1539
  745SOL    HW1 3957   9.613   3.993   8.880 -1.0002  0.0868  0.4875
  745SOL    HW2 3958   9.596   4.133   8.936  0.7971 -0.1599  1.7146
  746SOL     OW 3959   3.200   8.522   1.405 -0.1501  0.0144  0.4393
  746SOL    HW1 3960   3.243   8.601   1.436 -0.4401  0.2190  0.3206
  746SOL    HW2 3961   3.137   8.553   1.339  0.2857 -0.3791 -0.1804
  747SOL     OW 3962   0.350   0.104   4.328 -0.1394  0.5361  0.0918
  747SOL    HW1 3963   0.286   0.071   4.264  1.1727 -1.9230 -0.0769
  747SOL    HW2 3964   0.309   0.088   4.413 -0.0157 -0.5063 -0.0314
  748SOL     OW 3965   2.436   7.832   4.971  1.0700 -0.0188 -0.2100
  748SOL    HW1 3966   2.436   7.921   5.006  1.0337 -0.7989  1.9654
  748SOL    HW2 3967   2.489   7.836   4.892 -1.4603  2.5389 -1.9791
  749SOL     OW 3968   7.954   4.846   4.846  0.1698  0.1344 -0.1570
  749SOL    HW1 3969   7.862   4.844   4.873 -0.1171 -1.1767 -1.1421
  749SOL    HW2 3970   7.951   4.829   4.751  1.2769  2.5110 -0.6897
  750SOL     OW 3971   1.691   3.808   5.497 -0.1410 -0.4377 -0.0844
  750SOL    HW1 3972   1.744   3.731   5.515  2.2296  1.4864  1.9634
  750SOL    HW2 3973   1.620   3.804   5.561 -0.4161 -1.2146 -0.4301
  751SOL     OW 3974   2.270   8.701   3.867 -0.2128 -0.0689  0.7094
  751SOL    HW1 3975   2.189   8.650   3.864  0.3586 -0.9908  0.3149
  751SOL    HW2 3976   2.307   8.692   3.779  0.4310  0.1367  0.9522
  752SOL     OW 3977   8.173   6.670   8.137 -0.3463 -0.3779  0.2800
  752SOL    HW1 3978   8.102   6.624   8.092  0.1803  0.1975 -1.1757
  752SOL    HW2 3979   8.253   6.639   8.095  0.1436  0.3867  0.6289
  753SOL     OW 3980   4.677   7.180   2.169 -0.2563  0.1567  0.0477
  753SOL    HW1 3981   4.585   7.180   2.195 -0.8231  0.4557 -1.7674
  753SOL    HW2 3982   4.713   7.099   2.206 -1.4468 -0.3273  0.1971
  754SOL     OW 3983   8.125   5.450   7.704 -0.0404  0.9763  0.2958
  754SOL    HW1 3984   8.204   5.478   7.750  0.0683  0.2994  0.5329
  754SOL    HW2 3985   8.056   5.450   7.770 -0.4541  2.3975 -0.0926
  755SOL     OW 3986   8.962   3.565   0.074  0.1769 -0.4859  0.0076
  755SOL    HW1 3987   8.893   3.596   0.016 -0.0364  1.7022  1.3160
  755SOL    HW2 3988   8.968   3.632   0.142  1.2391 -2.3346  1.8466
  756SOL     OW 3989   4.536   9.033   4.685  0.1429 -0.4198 -0.0647
  756SOL    HW1 3990   4.630   9.051   4.681  0.0462  0.0141 -0.5469
  756SOL    HW2 3991   4.513   9.006   4.596 -0.5740  1.4973 -0.5144
  757SOL     OW 3992   8.322   4.469   2.717  0.0713  0.2114  0.2179
  757SOL    HW1 3993   8.359   4.399   2.771 -1.6649  0.6272  2.1176
  757SOL    HW2 3994   8.227   4.462   2.732 -0.2473  2.0695 -0.6843
  758SOL     OW 3995   7.344   2.752   5.290 -0.8884 -0.2618 -0.4713
  758SOL    HW1 3996   7.296   2.796   5.220  2.5686  0.9951 -2.3012
  758SOL    HW2 3997   7.368   2.822   5.350 -1.6852 -0.9496  0.6810
  759SOL     OW 3998   8.623   3.780   6.395 -0.0659 -0.1533 -0.1323
  759SOL    HW1 3999   8.692   3.843   6.417  0.0878  0.3672 -1.9103
  759SOL    HW2 4000   8.545   3.815   6.438  0.0979  1.0963 -0.7823
  760SOL     OW 4001   5.745   7.312   1.163 -0.0970  0.4116  0.2219
  760SOL    HW1 4002   5.707   7.244   1.219  0.5563  0.1652  0.3880
  760SOL    HW2 4003   5.825   7.338   1.210  1.8605 -1.5842 -1.7589
  761SOL     OW 4004   4.117   9.611   3.580  0.0741 -1.3973 -0.6349
  761SOL    HW1 4005   4.058   9.575   3.646 -0.7722 -0.3513 -0.7746
  761SOL    HW2 4006   4.197   9.633   3.627 -1.4930  2.0389  0.8035
  762SOL     OW 4007   7.857   3.032   2.235 -0.2765  0.6040 -0.0003
  762SOL    HW1 4008   7.798   2.962   2.205 -0.9019  1.3325 -0.5305
  762SOL    HW2 4009   7.798   3.104   2.256  0.3633  0.9741  0.5502
  763SOL     OW 4010   0.253   1.178   8.868 -0.2160 -0.0314 -0.1344
  763SOL    HW1 4011   0.278   1.242   8.801 -0.2160 -0.3690 -0.4670
  763SOL    HW2 4012   0.163   1.154   8.846  0.7383 -2.4586 -1.9592
  764SOL     OW 4013   7.030   5.217   7.532  0.1879 -0.4244  0.3877
  764SOL    HW1 4014   7.001   5.242   7.445  0.9514 -1.0432 -0.0556
  764SOL    HW2 4015   6.980   5.139   7.553  0.4800 -0.6583  0.2225
  765SOL     OW 4016   6.834   4.762   4.412 -0.2755  0.5682 -0.3444
  765SOL    HW1 4017   6.748   4.727   4.388 -0.3664  0.1867  0.5166
  765SOL    HW2 4018   6.835   4.762   4.508  0.8322  0.2035 -0.3387
  766SOL     OW 4019   9.115   5.866   1.003  0.0067 -0.4094 -0.1481
  766SOL    HW1 4020   9.084   5.942   1.051  2.4032  0.1466  0.6755
  766SOL    HW2 4021   9.176   5.823   1.064 -1.0954 -2.8798 -0.6774
  767SOL     OW 4022   7.886   3.943   5.016 -0.4542 -0.0217  0.3393
  767SOL    HW1 4023   7.813   3.882   5.004 -1.1469  1.2042 -2.4166
  767SOL    HW2 4024   7.939   3.933   4.936  1.1139  0.8289  1.2131
  768SOL     OW 4025   6.971   4.458   5.961  0.0952  0.3660  0.6659
  768SOL    HW1 4026   6.927   4.540   5.983 -1.2307  0.6187 -2.3219
  768SOL    HW2 4027   7.045   4.485   5.906 -0.1756 -0.3943 -0.0938
  769SOL     OW 4028   2.319   8.752   3.294 -0.0362 -0.5276  0.0626
  769SOL    HW1 4029   2.403   8.783   3.259  0.4113 -0.8359  0.8244
  769SOL    HW2 4030   2.317   8.786   3.384 -0.8938 -0.2263 -0.0595
  770SOL     OW 4031   5.875   3.016   4.911  0.4304  0.1634 -0.0273
  770SOL    HW1 4032   5.949   3.033   4.970  0.9353  0.1673 -0.6484
  770SOL    HW2 4033   5.841   3.103   4.890  0.8950  0.2250 -0.5444
  771SOL     OW 4034   2.613   3.262   9.696 -0.2797  0.0627  0.5398
  771SOL    HW1 4035   2.573   3.300   9.618  0.0018 -0.7544 -0.0203
  771SOL    HW2 4036   2.545   3.204   9.732 -0.3524  0.3157  0.8124
  772SOL     OW 4037   6.261   0.097   5.039 -0.1353  0.0580 -0.0264
  772SOL    HW1 4038   6.260   0.030   5.107  0.7143  0.2397  0.1745
  772SOL    HW2 4039   6.237   0.050   4.959  0.9723 -0.6127  0.0169
  773SOL     OW 4040   7.173   9.642   7.051  0.3520  0.1461  0.3377
  773SOL    HW1 4041   7.226   9.684   7.118  0.9259 -1.2964  0.8180
  773SOL    HW2 4042   7.195   9.689   6.970  1.6154  0.2176  0.7086
  774SOL     OW 4043   0.030   3.922   0.333 -0.2113  0.0361 -0.2119
  774SOL    HW1 4044   0.050   3.914   0.240 -0.8021  0.3319 -0.3672
  774SOL    HW2 4045   0.116   3.934   0.375  0.0294  0.2239 -0.7526
  775SOL     OW 4046   9.549   2.052   6.906  0.0592  0.2479 -0.0325
  775SOL    HW1 4047   9.552   2.064   6.812 -0.9728 -1.9883 -0.4275
  775SOL    HW2 4048   9.604   2.122   6.942 -1.4975  2.6859 -2.0953
  776SOL     OW 4049   0.692   6.645   1.588  0.0226 -0.0890  0.3810
  776SOL    HW1 4050   0.738   6.571   1.628 -0.4338 -0.6305 -0.0797
  776SOL    HW2 4051   0.687   6.623   1.495 -1.8287 -0.4213  0.5237
  777SOL     OW 4052   7.244   8.603   7.617  0.6625  0.5418  0.4499
  777SOL    HW1 4053   7.169   8.609   7.677  0.5132 -0.6380  0.4140
  777SOL    HW2 4054   7.264   8.693   7.594 -2.7149  0.8357 -1.9959
  778SOL     OW 4055   7.657   2.846   2.701  0.1620  0.7718  0.5105
  778SOL    HW1 4056   7.668   2.940   2.713 -1.0049  0.9257  0.4520
  778SOL    HW2 4057   7.662   2.834   2.606 -0.0266  0.8208  0.4942
  779SOL     OW 4058   7.398   1.430   7.730  0.1194  0.1722 -0.6086
  779SOL    HW1 4059   7.427   1.499   7.670 -1.5126  0.6561 -0.8766
  779SOL    HW2 4060   7.304   1.443   7.738  0.0265 -1.0580  0.5957
  780SOL     OW 4061   5.134   7.272   9.401  0.5536  0.0428 -0.3422
  780SOL    HW1 4062   5.212   7.228   9.433  0.4394 -0.5774 -0.9051
  780SOL    HW2 4063   5.108   7.223   9.323 -1.0037 -0.4219  0.4311
  781SOL     OW 4064   5.754   9.123   3.187  0.4921 -0.2319  0.7065
  781SOL    HW1 4065   5.681   9.121   3.248 -0.3063 -1.6257 -0.2476
  781SOL    HW2 4066   5.713   9.118   3.101  1.6894 -0.7616  0.1467
  782SOL     OW 4067   1.428   9.325   5.778  0.5417 -0.4118 -0.1325
  782SOL    HW1 4068   1.370   9.254   5.805  0.4702 -0.1334  0.4515
  782SOL    HW2 4069   1.497   9.282   5.727 -0.1087 -0.7608 -0.7378
  783SOL     OW 4070   9.343   6.113   0.605 -0.1311  0.1190 -0.3498
  783SOL    HW1 4071   9.319   6.041   0.547  0.2432 -0.6890  0.4862
  783SOL    HW2 4072   9.326   6.080   0.693 -2.0164  1.8139 -0.0090
  784SOL     OW 4073   6.947   4.488   3.161 -0.0455 -0.8491  0.1752
  784SOL    HW1 4074   6.931   4.583   3.154  0.5725 -0.7913 -0.6891
  784SOL    HW2 4075   6.965   4.474   3.254  1.9328  0.2531  0.0111
  785SOL     OW 4076   5.371   2.921   0.556 -0.0853  0.1026 -0.1721
  785SOL    HW1 4077   5.313   2.994   0.576 -1.0548 -1.1235  1.8445
  785SOL    HW2 4078   5.314   2.855   0.516 -0.0419 -0.9008  1.3289
  786SOL     OW 4079   9.423   0.411   7.185  0.3368 -0.0858 -0.3204
  786SOL    HW1 4080   9.441   0.431   7.093  0.8122  1.0231  0.0026
  786SOL    HW2 4081   9.491   0.347   7.209  1.3083  0.9462 -0.2657
  787SOL     OW 4082   4.901   2.480   9.409  0.6502  0.1642 -0.0462
  787SOL    HW1 4083   4.946   2.552   9.455 -1.1985  1.4440 -0.1590
  787SOL    HW2 4084   4.848   2.438   9.477  1.4222 -0.8783 -0.0689
  788SOL     OW 4085   0.302   5.772   9.423 -0.1632  0.1714 -0.6590
  788SOL    HW1 4086   0.312   5.826   9.345 -1.2569  0.6768 -0.4702
  788SOL    HW2 4087   0.282   5.834   9.493 -0.7073 -0.4083 -0.2871
  789SOL     OW 4088   7.949   5.722   3.122 -0.2395  0.8141 -0.2044
  789SOL    HW1 4089   8.020   5.751   3.180  0.7715  1.1670 -1.5487
  789SOL    HW2 4090   7.876   5.780   3.143 -0.2665  0.2371  1.4347
  790SOL     OW 4091   2.776   9.005   7.467 -0.2189  0.0372  0.3902
  790SOL    HW1 4092   2.795   9.086   7.514 -0.0209 -0.4141  1.0901
  790SOL    HW2 4093   2.708   9.031   7.404 -1.2631  0.4352  1.6151
  791SOL     OW 4094   8.940   6.199   6.299 -0.4631  0.2999 -0.9102
  791SOL    HW1 4095   8.900   6.285   6.297 -1.0837  0.0964  1.0782
  791SOL    HW2 4096   8.880   6.143   6.249 -1.1068  0.6292 -0.5207
  792SOL     OW 4097   1.983   6.079   7.976  0.0292  0.2144 -0.5855
  792SOL    HW1 4098   1.922   6.138   7.932  0.9695  0.3124 -1.8505
  792SOL    HW2 4099   2.070   6.116   7.956  0.6288 -1.4369 -1.1988
  793SOL     OW 4100   3.344   2.023   3.341  0.1176  0.1227  0.4362
  793SOL    HW1 4101   3.397   1.953   3.379 -0.2456 -0.6207 -0.4017
  793SOL    HW2 4102   3.275   2.038   3.406  0.5871  0.1718  0.9253
  794SOL     OW 4103   7.931   6.059   7.539 -0.2236  0.9341 -0.2413
  794SOL    HW1 4104   7.924   6.072   7.444  0.8194  1.8802 -0.1987
  794SOL    HW2 4105   8.019   6.024   7.552 -0.5962  0.1788  0.3293
  795SOL     OW 4106   7.554   5.899   5.855 -0.2231  0.4665  1.0622
  795SOL    HW1 4107   7.501   5.977   5.872  1.2721  1.2882  2.2402
  795SOL    HW2 4108   7.629   5.908   5.914  2.0427  0.1579 -1.5635
  796SOL     OW 4109   2.148   0.037   6.822 -0.3293 -0.1034 -0.0274
  796SOL    HW1 4110   2.081   0.041   6.754 -1.4848  1.1447  1.1324
  796SOL    HW2 4111   2.100   0.014   6.902  0.7255  0.1791  0.7108
  797SOL     OW 4112   0.872   4.089   7.839 -0.0927  0.2071 -0.2096
  797SOL    HW1 4113   0.898   4.150   7.908 -0.0923  1.4303 -1.2576
  797SOL    HW2 4114   0.881   4.139   7.758 -2.3510 -0.4431 -0.9238
  798SOL     OW 4115   4.398   4.571   1.803 -0.1021  0.2121  0.1485
  798SOL    HW1 4116   4.474   4.628   1.792  0.1040  0.1794  1.2644
  798SOL    HW2 4117   4.377   4.542   1.714 -0.0369  1.7887 -0.4156
  799SOL     OW 4118   6.379   3.909   2.120 -0.2958 -0.3562  0.1578
  799SOL    HW1 4119   6.468   3.945   2.122 -0.4740  0.1547 -0.5813
  799SOL    HW2 4120   6.392   3.817   2.095  0.0037 -0.1877 -0.3306
  800SOL     OW 4121   6.924   7.917   0.982 -0.2115  0.4877  0.3267
  800SOL    HW1 4122   6.971   7.850   0.933 -1.7463  0.1203 -0.7039
  800SOL    HW2 4123   6.966   7.999   0.955 -0.4960  0.2207 -1.0416
  801SOL     OW 4124   5.816   5.224   6.103 -0.1832  0.1402  0.3487
  801SOL    HW1 4125   5.760   5.298   6.078  0.0872  0.0712 -0.4990
  801SOL    HW2 4126   5.853   5.249   6.188 -1.7877  0.0236  1.1230
  802SOL     OW 4127   2.169   8.893   6.751  0.4063  0.4991  0.0015
  802SOL    HW1 4128   2.229   8.967   6.746  0.3345  0.4915 -1.5459
  802SOL    HW2 4129   2.162   8.861   6.661 -0.7880 -0.4099  0.3772
  803SOL     OW 4130   1.774   5.213   2.276 -0.4212  0.1354  0.8519
  803SOL    HW1 4131   1.700   5.218   2.338 -1.4042  0.4023 -0.3142
  803SOL    HW2 4132   1.767   5.125   2.238  0.9042 -0.4931  1.9360
  804SOL     OW 4133   7.636   5.593   7.817 -0.0340  0.0479  0.4699
  804SOL    HW1 4134   7.565   5.531   7.800  0.8268 -0.8956  0.2285
  804SOL    HW2 4135   7.660   5.577   7.908  0.5852 -0.4100  0.2337
  805SOL     OW 4136   7.381   3.257   9.330  0.1874  0.0868 -0.4743
  805SOL    HW1 4137   7.348   3.235   9.417 -1.8129  0.4271 -1.0962
  805SOL    HW2 4138   7.409   3.174   9.293 -1.7417 -0.5714 -0.5762
  806SOL     OW 4139   9.697   2.145   7.332 -0.0277  0.0305 -0.3012
  806SOL    HW1 4140   9.717   2.235   7.305  2.3132 -0.5102 -0.5941
  806SOL    HW2 4141   9.627   2.117   7.272  1.3528  0.6523 -2.3008
  807SOL     OW 4142   6.828   3.321   9.066  0.6862 -0.3072  0.4032
  807SOL    HW1 4143   6.831   3.369   9.149 -2.0398 -1.1434  1.0560
  807SOL    HW2 4144   6.861   3.234   9.087  0.4714 -0.3681  0.4840
  808SOL     OW 4145   3.269   7.681   7.731 -0.1910 -0.2179 -0.2433
  808SOL    HW1 4146   3.359   7.695   7.759 -0.5752  0.0599  0.8807
  808SOL    HW2 4147   3.247   7.594   7.761 -0.5129 -0.0314  0.0644
  809SOL     OW 4148   0.482   5.477   9.449  0.0880  0.2209 -0.1966
  809SOL    HW1 4149   0.535   5.398   9.457 -2.0061 -1.4782 -1.8296
  809SOL    HW2 4150   0.477   5.494   9.355 -2.6092 -0.0308 -0.1904
  810SOL     OW 4151   8.865   7.385   4.756 -0.3877 -0.4930  0.4018
  810SOL    HW1 4152   8.855   7.370   4.850  0.2259  3.3078  1.2466
  810SOL    HW2 4153   8.852   7.479   4.745 -0.4439 -0.7838 -3.3649
  811SOL     OW 4154   2.848   2.966   9.452 -0.2628 -0.3181  0.1260
  811SOL    HW1 4155   2.786   3.014   9.398 -0.4416  0.0585  0.6557
  811SOL    HW2 4156   2.863   2.884   9.405 -0.8821 -0.2584 -0.1814
  812SOL     OW 4157   5.994   3.579   1.649  0.2155  0.1304 -0.0943
  812SOL    HW1 4158   6.049   3.501   1.653 -0.7373 -0.7191 -2.1637
  812SOL    HW2 4159   5.931   3.560   1.579 -2.1763  1.3772  1.5896
  813SOL     OW 4160   2.384   9.703   3.730 -0.0344  0.2137  0.4155
  813SOL    HW1 4161   2.349   9.791   3.744  0.8017  0.4441  1.1521
  813SOL    HW2 4162   2.438   9.686   3.807 -0.7704 -1.2514  0.6457
  814SOL     OW 4163   2.627   8.397   0.110  0.1303 -0.0210 -0.3120
  814SOL    HW1 4164   2.685   8.382   0.036 -1.6515 -1.8024 -1.4398
  814SOL    HW2 4165   2.564   8.462   0.079  0.8350  1.1222  0.5510
  815SOL     OW 4166   3.977   2.640   6.578  0.2515 -0.1347  0.3040
  815SOL    HW1 4167   4.045   2.623   6.513  1.0875  0.8355  0.8925
  815SOL    HW2 4168   4.012   2.711   6.631 -1.4276  0.7125  0.3403
  816SOL     OW 4169   9.647   7.265   8.675 -0.2176  0.2686 -0.0709
  816SOL    HW1 4170   9.611   7.334   8.730 -0.9669  0.7467 -1.1127
  816SOL    HW2 4171   9.716   7.308   8.624 -0.0332  0.0155 -0.0378
  817SOL     OW 4172   4.350   2.638   8.815  0.2232  0.2844  0.4129
  817SOL    HW1 4173   4.284   2.594   8.869  0.0859  0.5270  0.4436
  817SOL    HW2 4174   4.434   2.611   8.853  0.1910 -0.9492 -0.3234
  818SOL     OW 4175   7.118   3.075   4.849  0.2340  0.2240  0.5362
  818SOL    HW1 4176   7.132   3.100   4.940 -0.9354 -0.2036  0.8535
  818SOL    HW2 4177   7.182   3.005   4.834  1.4793  1.3228  0.5378
  819SOL     OW 4178   9.402   6.092   8.307 -0.1075  0.0801 -0.0162
  819SOL    HW1 4179   9.455   6.017   8.336  0.3161  0.6350  0.6757
  819SOL    HW2 4180   9.326   6.052   8.265 -0.4220 -0.7707  1.2885
  820SOL     OW 4181   9.432   5.702   1.426 -0.3042 -0.1304  0.0759
  820SOL    HW1 4182   9.519   5.668   1.444  0.1413  0.8295 -0.1816
  820SOL    HW2 4183   9.387   5.701   1.510 -0.2452 -1.1569  0.1028
  821SOL     OW 4184   2.393   6.525   6.494 -0.3165  0.0948  0.2435
  821SOL    HW1 4185   2.423   6.590   6.558 -0.7624  1.6159 -1.0470
  821SOL    HW2 4186   2.431   6.554   6.411 -2.1621 -0.1378 -0.7234
  822SOL     OW 4187   9.114   3.096   4.700 -0.0211 -0.4556 -0.0180
  822SOL    HW1 4188   9.208   3.105   4.687  0.3462  0.2224  2.5313
  822SOL    HW2 4189   9.095   3.149   4.778 -2.5952 -0.2512 -0.6856
  823SOL     OW 4190   3.558   2.056   6.214 -0.4466  0.0860  0.2814
  823SOL    HW1 4191   3.523   2.145   6.201  1.0579  0.9962  1.9683
  823SOL    HW2 4192   3.608   2.062   6.295  0.0102 -2.2444  0.2318
  824SOL     OW 4193   3.613   1.888   1.334 -0.0620  0.2065 -0.4981
  824SOL    HW1 4194   3.592   1.825   1.265  0.6063  1.5157 -1.9876
  824SOL    HW2 4195   3.667   1.954   1.290  1.6806  0.3208  1.6598
  825SOL     OW 4196   2.247   6.031   7.221  0.1358 -0.5171 -0.0395
  825SOL    HW1 4197   2.322   6.083   7.192 -0.5475 -0.1219 -1.1584
  825SOL    HW2 4198   2.269   5.941   7.196  0.8879 -0.6478  1.0168
  826SOL     OW 4199   6.978   8.246   9.489  0.4420  0.6944 -0.2436
  826SOL    HW1 4200   6.911   8.196   9.537  0.0548  0.1728 -1.2888
  826SOL    HW2 4201   6.929   8.288   9.418  1.3152 -0.2626 -1.4505
  827SOL     OW 4202   3.149   3.899   2.564 -0.3284 -0.5221 -0.0152
  827SOL    HW1 4203   3.118   3.987   2.581  1.2154  0.5334 -2.1360
  827SOL    HW2 4204   3.100   3.870   2.487  2.3967  0.5113 -2.3515
  828SOL     OW 4205   1.998   8.296   1.135  0.3960 -0.4633 -0.0683
  828SOL    HW1 4206   1.969   8.379   1.174 -0.7613  0.2286 -2.2401
  828SOL    HW2 4207   1.993   8.233   1.207 -1.0148  0.8538  1.0606
  829SOL     OW 4208   8.558   8.852   8.047 -0.0609 -0.2517 -0.4514
  829SOL    HW1 4209   8.579   8.771   8.000  0.6933 -0.1304 -0.3487
  829SOL    HW2 4210   8.543   8.916   7.978 -2.3423 -0.8439 -0.5699
  830SOL     OW 4211   8.311   5.933   5.538  0.5080  0.2505 -0.2156
  830SOL    HW1 4212   8.223   5.898   5.556  0.6441 -0.7972 -1.4288
  830SOL    HW2 4213   8.316   6.013   5.590 -1.7824  1.2081 -1.3259
  831SOL     OW 4214   5.633   7.076   2.471  0.4793 -0.0320 -0.4999
  831SOL    HW1 4215   5.648   7.000   2.527  0.8323  0.1343 -0.3687
  831SOL    HW2 4216   5.638   7.151   2.530 -1.0969  0.0274 -0.4025
  832SOL     OW 4217   0.590   5.012   2.312  0.1446  0.9742  0.6626
  832SOL    HW1 4218   0.606   5.003   2.406  1.0947 -0.8022  0.3644
  832SOL    HW2 4219   0.519   4.950   2.294 -0.8911  2.1981  0.3907
  833SOL     OW 4220   8.140   2.192   0.137 -0.3896 -0.2078 -0.1468
  833SOL    HW1 4221   8.216   2.204   0.195  1.1719 -3.7216 -1.2223
  833SOL    HW2 4222   8.142   2.269   0.079  0.7889  1.0148  1.4136
  834SOL     OW 4223   2.749   5.235   0.260 -0.1298  0.1939 -0.2998
  834SOL    HW1 4224   2.804   5.183   0.200 -0.1081 -1.9013  1.3933
  834SOL    HW2 4225   2.788   5.219   0.346 -0.1500  3.1217  0.3444
  835SOL     OW 4226   4.806   8.169   8.651  0.3744  0.6044 -0.3053
  835SOL    HW1 4227   4.823   8.097   8.711 -0.6854 -0.3131 -1.0591
  835SOL    HW2 4228   4.874   8.233   8.670 -0.9590  1.2469  3.2292
  836SOL     OW 4229   1.749   2.329   8.721 -0.6877  0.0170  0.0872
  836SOL    HW1 4230   1.727   2.405   8.775  1.9741  0.2699  0.9618
  836SOL    HW2 4231   1.711   2.254   8.768  0.4672  0.3815  1.6739
  837SOL     OW 4232   5.768   0.908   6.233  0.3618 -0.4010  0.2219
  837SOL    HW1 4233   5.808   0.973   6.175  0.8097 -0.4446  0.4750
  837SOL    HW2 4234   5.694   0.873   6.182  0.0598  0.3642  0.1255
  838SOL     OW 4235   2.067   6.241   9.324 -0.8358  0.2850 -0.2177
  838SOL    HW1 4236   2.137   6.229   9.387 -0.5926  2.7132  0.0938
  838SOL    HW2 4237   2.077   6.332   9.294 -3.0936  0.3271 -1.0752
  839SOL     OW 4238   2.428   7.783   0.466  0.3691 -0.5007 -0.4309
  839SOL    HW1 4239   2.420   7.855   0.528  2.9979 -0.4004 -0.1287
  839SOL    HW2 4240   2.439   7.705   0.521 -1.1071 -1.0036 -0.7809
  840SOL     OW 4241   2.723   2.989   4.948 -0.3107  0.1549  0.0831
  840SOL    HW1 4242   2.700   2.932   5.021  1.0857 -0.1124  0.3385
  840SOL    HW2 4243   2.684   2.945   4.871 -1.5387  0.2955  0.5993
  841SOL     OW 4244   6.798   3.348   2.309  0.2595  0.0157  0.0118
  841SOL    HW1 4245   6.842   3.263   2.312 -0.8760 -0.5632  1.1685
  841SOL    HW2 4246   6.738   3.347   2.384  1.1307  2.3562  0.8326
  842SOL     OW 4247   8.288   9.514   0.365  0.0040 -0.1305 -0.4152
  842SOL    HW1 4248   8.267   9.565   0.287 -1.2743 -1.2438 -0.8470
  842SOL    HW2 4249   8.290   9.579   0.436  1.6769  0.9712 -1.4020
  843SOL     OW 4250   3.025   5.594   4.872 -0.6114 -0.2967  0.1349
  843SOL    HW1 4251   2.955   5.531   4.859 -1.6177  0.3357  2.0869
  843SOL    HW2 4252   3.094   5.566   4.811 -0.5227 -3.9677  1.6526
  844SOL     OW 4253   6.304   2.916   4.219 -0.1781 -0.0275 -0.1392
  844SOL    HW1 4254   6.325   2.951   4.132  0.1712 -0.3122 -0.1715
  844SOL    HW2 4255   6.210   2.929   4.228 -0.0587  0.9308 -0.1481
  845SOL     OW 4256   1.713   8.983   7.711  1.1096  0.6261  0.2778
  845SOL    HW1 4257   1.631   9.002   7.664  0.1864  1.9384  2.2373
  845SOL    HW2 4258   1.700   8.896   7.749  0.9667  0.4771 -0.1135
  846SOL     OW 4259   0.722   8.989   5.051 -0.0198 -0.6617 -0.5498
  846SOL    HW1 4260   0.705   9.040   5.131  0.2190 -0.0075 -0.9137
  846SOL    HW2 4261   0.645   8.932   5.043 -0.1571 -0.5654  0.0191
  847SOL     OW 4262   5.426   5.231   5.180 -0.1211  0.6018  0.0534
  847SOL    HW1 4263   5.357   5.277   5.227 -0.7507  0.5215 -0.7655
  847SOL    HW2 4264   5.507   5.264   5.218 -0.5936 -0.8759  2.5258
  848SOL     OW 4265   1.275   3.304   3.454 -0.0979  0.0382  0.5783
  848SOL    HW1 4266   1.182   3.306   3.476 -0.1699 -0.0138  0.2780
  848SOL    HW2 4267   1.319   3.336   3.533 -0.4990  2.2490 -0.0162
  849SOL     OW 4268   1.516   8.772   5.328  0.3561 -0.0806 -0.1700
  849SOL    HW1 4269   1.606   8.768   5.295 -0.5011  1.2505 -3.0111
  849SOL    HW2 4270   1.476   8.691   5.298  0.3754 -0.3080  0.4041
  850SOL     OW 4271   4.263   0.862   4.330  0.1722 -0.0806 -0.5546
  850SOL    HW1 4272   4.305   0.907   4.404 -0.2309 -1.9715  0.9053
  850SOL    HW2 4273   4.335   0.821   4.283  0.3116 -0.2425 -0.2101
  851SOL     OW 4274   8.353   5.805   7.780 -0.2513  0.0781 -0.0826
  851SOL    HW1 4275   8.413   5.806   7.854  0.1042  1.6196 -0.3643
  851SOL    HW2 4276   8.402   5.761   7.710 -0.9448 -2.2879  0.8204
  852SOL     OW 4277   4.775   6.305   7.150 -0.1495 -0.2851  0.0786
  852SOL    HW1 4278   4.775   6.315   7.245 -2.4938 -0.9915  0.2184
  852SOL    HW2 4279   4.734   6.386   7.118  1.0035  0.1322 -0.3843
  853SOL     OW 4280   8.495   5.600   7.319  0.1985  0.4851 -0.0804
  853SOL    HW1 4281   8.509   5.625   7.227 -0.2403  1.5862  0.1276
  853SOL    HW2 4282   8.486   5.505   7.317 -1.8553  0.6383 -1.4894
  854SOL     OW 4283   1.909   0.917   2.869 -0.6316  0.5048  0.2133
  854SOL    HW1 4284   1.913   0.986   2.935 -1.2108  0.8452 -0.1082
  854SOL    HW2 4285   1.901   0.963   2.786  1.2206  0.1185 -0.2308
  855SOL     OW 4286   5.705   2.016   1.867  0.5687 -0.6503 -0.2987
  855SOL    HW1 4287   5.775   2.000   1.804  1.9426 -1.3595  1.3622
  855SOL    HW2 4288   5.712   1.945   1.930 -0.7643  0.0552  0.6989
  856SOL     OW 4289   5.947   0.058   6.687 -0.0922  0.5119  0.1665
  856SOL    HW1 4290   5.987   0.070   6.601 -0.3223  2.1938  0.2619
  856SOL    HW2 4291   5.853   0.047   6.668  0.0412 -0.8403  0.1258
  857SOL     OW 4292   0.770   3.249   6.135 -0.0677  0.4156 -0.7505
  857SOL    HW1 4293   0.762   3.185   6.065 -2.4535  1.1306 -1.2253
  857SOL    HW2 4294   0.680   3.265   6.163  0.7738  0.1196  2.5524
  858SOL     OW 4295   0.487   3.250   8.620  0.0885 -0.2592  0.3193
  858SOL    HW1 4296   0.442   3.169   8.643 -0.8046 -0.4732 -1.8811
  858SOL    HW2 4297   0.561   3.255   8.680 -0.8270 -1.7846  1.6465
  859SOL     OW 4298   2.938   3.714   3.159  0.1333 -0.2606  0.4562
  859SOL    HW1 4299   2.963   3.624   3.139 -0.3157 -0.7190  1.7806
  859SOL    HW2 4300   2.995   3.768   3.105 -0.2705 -1.3375 -1.1225
  860SOL     OW 4301   9.697   5.060   8.395  0.2577 -0.0924  0.0761
  860SOL    HW1 4302   9.733   5.138   8.352  0.6789 -0.3750 -0.0939
  860SOL    HW2 4303   9.740   5.057   8.480 -0.8744  0.6869  0.6894
  861SOL     OW 4304   9.406   6.311   1.044  0.4274 -0.4554  0.4375
  861SOL    HW1 4305   9.486   6.258   1.040  1.5549  1.2522 -1.3170
  861SOL    HW2 4306   9.404   6.343   1.134  1.4763 -0.8890  0.6389
  862SOL     OW 4307   2.911   3.280   9.494 -0.0984  0.3147 -0.3191
  862SOL    HW1 4308   2.922   3.326   9.411 -1.6425 -2.7566 -2.3825
  862SOL    HW2 4309   2.818   3.290   9.515 -0.0450 -0.2396  0.2179
  863SOL     OW 4310   2.432   9.600   8.446  0.0823  0.5846 -0.8245
  863SOL    HW1 4311   2.467   9.669   8.502  1.1032  0.0119 -0.7334
  863SOL    HW2 4312   2.360   9.562   8.497 -0.4780  1.5399 -0.8715
  864SOL     OW 4313   1.604   8.451   8.719 -0.1631  0.2391 -0.3411
  864SOL    HW1 4314   1.685   8.448   8.769 -1.1736  1.0211  1.4201
  864SOL    HW2 4315   1.584   8.359   8.700 -0.4568 -0.2000  1.9030
  865SOL     OW 4316   5.709   5.647   7.340 -0.7190  0.1022  0.0176
  865SOL    HW1 4317   5.716   5.634   7.245  0.8857 -0.0213  0.1325
  865SOL    HW2 4318   5.799   5.655   7.370 -1.1897 -0.1859  1.5962
  866SOL     OW 4319   5.335   3.285   7.922 -0.0260 -0.0412  0.2991
  866SOL    HW1 4320   5.401   3.351   7.899 -0.1933 -0.3591 -1.2350
  866SOL    HW2 4321   5.359   3.257   8.010  1.2186  0.6575  0.2109
  867SOL     OW 4322   1.059   2.921   3.255  0.0198  0.5512 -0.3828
  867SOL    HW1 4323   0.974   2.907   3.298 -0.2156  1.6661 -0.4556
  867SOL    HW2 4324   1.095   2.833   3.245 -0.4669  0.1648  0.9886
  868SOL     OW 4325   6.272   5.014   2.471  0.0020  0.4017  0.3497
  868SOL    HW1 4326   6.276   4.968   2.555 -0.4218  1.6386  1.0677
  868SOL    HW2 4327   6.261   4.944   2.407  0.5729 -0.5868  1.2910
  869SOL     OW 4328   7.930   6.562   1.894 -0.1362  0.2573  0.0503
  869SOL    HW1 4329   8.004   6.585   1.838 -0.6344 -0.1285 -0.7770
  869SOL    HW2 4330   7.968   6.505   1.961  0.4572  0.6907  0.0937
  870SOL     OW 4331   0.123   1.756   0.493 -0.4698  0.3931 -0.0367
  870SOL    HW1 4332   0.029   1.739   0.488 -0.4738  0.7497 -1.9930
  870SOL    HW2 4333   0.138   1.826   0.430  0.9719  1.0602  0.9941
  871SOL     OW 4334   9.186   1.793   9.051 -0.0132  0.5789  0.2767
  871SOL    HW1 4335   9.232   1.717   9.016 -0.8884  0.2389 -0.1855
  871SOL    HW2 4336   9.176   1.852   8.976  2.3894  2.0859  1.0292
  872SOL     OW 4337   3.301   1.456   3.176  0.2458  0.6524  0.3699
  872SOL    HW1 4338   3.241   1.387   3.205  2.7746 -1.4740  0.9435
  872SOL    HW2 4339   3.306   1.446   3.081  0.1847  0.3914  0.3933
  873SOL     OW 4340   8.137   5.307   0.106 -0.0015 -0.4770  0.3275
  873SOL    HW1 4341   8.080   5.327   0.032 -0.3130 -3.0000 -0.2054
  873SOL    HW2 4342   8.085   5.248   0.161  1.2335 -0.8727  1.1071
  874SOL     OW 4343   6.752   5.459   8.434  0.5030 -0.1380  0.1538
  874SOL    HW1 4344   6.751   5.389   8.498 -0.1372  1.3858  1.8981
  874SOL    HW2 4345   6.776   5.537   8.484  4.3981  0.4965 -2.2349
  875SOL     OW 4346   7.300   4.112   9.516 -0.2464 -0.1975 -0.4364
  875SOL    HW1 4347   7.309   4.075   9.604 -1.6703 -2.3172 -1.1054
  875SOL    HW2 4348   7.206   4.127   9.506 -0.1766 -0.5724 -1.8086
  876SOL     OW 4349   0.573   5.494   7.334  0.5548  0.0858  0.2437
  876SOL    HW1 4350   0.624   5.467   7.258 -0.7978  0.7523 -0.9465
  876SOL    HW2 4351   0.638   5.523   7.398  1.6866  1.4989 -1.4453
  877SOL     OW 4352   8.371   5.870   1.682  0.3345 -0.1421 -0.2640
  877SOL    HW1 4353   8.317   5.826   1.747  1.3686  1.8983  2.1242
  877SOL    HW2 4354   8.368   5.812   1.606 -3.3614 -1.1686  0.4644
  878SOL     OW 4355   0.301   5.417   3.982 -0.2204  0.4353 -0.8439
  878SOL    HW1 4356   0.366   5.350   3.960 -0.5510  0.0988 -0.7986
  878SOL    HW2 4357   0.218   5.369   3.987 -0.2912  0.6482  0.2589
  879SOL     OW 4358   4.529   3.938   4.814  0.1764 -0.4957  0.3268
  879SOL    HW1 4359   4.458   3.982   4.767 -0.0946 -2.0157 -0.7752
  879SOL    HW2 4360   4.491   3.915   4.899  0.0519  0.5799  0.5767
  880SOL     OW 4361   4.764   3.025   2.781  0.0920  0.6924 -0.1058
  880SOL    HW1 4362   4.691   2.968   2.808 -0.2971  0.9002 -0.7044
  880SOL    HW2 4363   4.775   3.007   2.688  0.3238  1.1963 -0.1781
  881SOL     OW 4364   8.504   4.268   5.752 -1.1097  0.4938 -0.3039
  881SOL    HW1 4365   8.511   4.295   5.660 -2.1386 -0.6435 -0.7419
  881SOL    HW2 4366   8.484   4.349   5.799  1.3714  1.4749 -0.7561
  882SOL     OW 4367   4.023   2.722   6.186 -0.1656  0.5725 -0.0778
  882SOL    HW1 4368   4.074   2.768   6.120  1.8728 -1.2240  0.1299
  882SOL    HW2 4369   3.950   2.684   6.136  1.5914 -1.1504 -1.4952
  883SOL     OW 4370   4.712   3.758   7.565 -0.4537 -0.7954 -0.5651
  883SOL    HW1 4371   4.704   3.844   7.523 -0.8836  0.3332  1.7027
  883SOL    HW2 4372   4.786   3.716   7.520 -0.0733  0.8313 -1.5458
  884SOL     OW 4373   1.044   7.901   9.654  0.5498 -0.6131  0.0845
  884SOL    HW1 4374   1.037   7.851   9.573 -2.5464 -0.5519  0.2051
  884SOL    HW2 4375   0.954   7.907   9.687  1.3287  1.7151  2.1033
  885SOL     OW 4376   7.299   5.546   3.364  0.0862  0.1331 -0.0384
  885SOL    HW1 4377   7.304   5.451   3.347 -0.9149  0.3510 -1.7267
  885SOL    HW2 4378   7.223   5.556   3.421 -1.7313  0.1703 -2.3529
  886SOL     OW 4379   5.778   3.590   8.987  0.1735 -0.0652 -0.4289
  886SOL    HW1 4380   5.723   3.512   9.001 -0.6056  0.6370  0.5997
  886SOL    HW2 4381   5.868   3.558   9.001 -0.1540 -0.7263  0.2823
  887SOL     OW 4382   7.653   0.780   0.345  0.0454  0.0244  0.0759
  887SOL    HW1 4383   7.596   0.846   0.306 -2.2092 -1.1454  1.1576
  887SOL    HW2 4384   7.596   0.732   0.406  1.9685 -1.8655  0.5268
  888SOL     OW 4385   0.886   1.939   7.481 -0.4025  0.6791 -0.3570
  888SOL    HW1 4386   0.888   1.951   7.387  0.0238 -0.3183 -0.4913
  888SOL    HW2 4387   0.921   2.020   7.517  0.8754  0.4974 -1.1247
  889SOL     OW 4388   9.697   0.144   7.170 -0.1902  0.2571 -0.2179
  889SOL    HW1 4389   9.728   0.230   7.198 -1.5807  0.7322 -0.0425
  889SOL    HW2 4390   9.648   0.161   7.090 -0.7768 -0.3046  0.0069
  890SOL     OW 4391   3.204   5.042   8.046  0.4328 -0.4302  0.3296
  890SOL    HW1 4392   3.286   5.046   8.095  1.3063  0.6144 -1.1531
  890SOL    HW2 4393   3.214   4.967   7.988 -0.1004 -0.9316  0.8770
  891SOL     OW 4394   2.590   5.769   4.055  0.0931 -0.1070  0.1691
  891SOL    HW1 4395   2.508   5.724   4.038  0.6821 -0.4068 -2.1487
  891SOL    HW2 4396   2.565   5.861   4.065 -0.4738 -0.0880 -1.2518
  892SOL     OW 4397   7.277   8.224   4.588  0.2420 -0.2690 -0.5897
  892SOL    HW1 4398   7.289   8.268   4.672  1.0691 -1.7844  0.1464
  892SOL    HW2 4399   7.287   8.292   4.522  0.0352  0.8713  0.5331
  893SOL     OW 4400   2.965   6.662   3.247 -0.6609 -0.1174  0.1828
  893SOL    HW1 4401   2.952   6.743   3.297 -0.5664  0.3770 -0.5808
  893SOL    HW2 4402   3.009   6.690   3.166 -0.5467 -0.9435 -0.0545
  894SOL     OW 4403   2.385   5.487   7.961 -0.4623  0.3479 -0.0986
  894SOL    HW1 4404   2.422   5.405   7.928  1.0127  0.1357  1.9172
  894SOL    HW2 4405   2.292   5.467   7.973 -0.0052 -1.2788  1.0148
  895SOL     OW 4406   1.329   1.464   9.019  0.4740  0.0552 -0.2994
  895SOL    HW1 4407   1.279   1.533   8.974  1.6929  0.5728 -0.8965
  895SOL    HW2 4408   1.379   1.511   9.086 -1.5215 -0.7280  1.8801
  896SOL     OW 4409   0.718   3.859   3.374 -0.3093  0.0175 -0.0474
  896SOL    HW1 4410   0.728   3.802   3.450  2.3007 -0.4917 -0.6706
  896SOL    HW2 4411   0.746   3.806   3.300  0.5709  1.5504 -0.8730
  897SOL     OW 4412   6.683   1.336   6.845 -0.1173  0.6683  0.0050
  897SOL    HW1 4413   6.594   1.347   6.879 -0.3201  1.9202 -0.8253
  897SOL    HW2 4414   6.721   1.424   6.850  1.7034 -0.1395  1.9220
  898SOL     OW 4415   6.223   8.602   8.118 -0.6068 -0.0945 -0.0391
  898SOL    HW1 4416   6.145   8.636   8.162 -0.3402  0.7681 -0.2107
  898SOL    HW2 4417   6.210   8.507   8.115 -2.7065  0.1767 -2.0790
  899SOL     OW 4418   7.908   5.975   0.345  0.0282 -0.3025  0.0225
  899SOL    HW1 4419   7.879   5.957   0.435 -0.5836  0.0051 -0.1032
  899SOL    HW2 4420   7.935   6.067   0.347 -0.4487 -0.1557 -0.2220
  900SOL     OW 4421   6.888   8.542   2.120  0.1647  0.0680 -0.3132
  900SOL    HW1 4422   6.795   8.523   2.107  0.1064  0.5666 -0.6874
  900SOL    HW2 4423   6.920   8.473   2.177 -0.8545  0.9259  1.3615
  901SOL     OW 4424   0.350   2.590   5.726 -0.3921 -0.9403  0.5429
  901SOL    HW1 4425   0.434   2.575   5.769  0.0447 -0.6871 -0.2152
  901SOL    HW2 4426   0.372   2.626   5.640 -1.2479 -1.4648  0.0833
  902SOL     OW 4427   7.110   8.159   7.042  0.5522  0.6058 -0.0932
  902SOL    HW1 4428   7.155   8.084   7.002  2.1277  1.4384  0.0543
  902SOL    HW2 4429   7.144   8.235   6.995  1.3115  1.4801  1.7956
  903SOL     OW 4430   6.887   4.577   8.229 -0.5523 -0.1625 -0.0617
  903SOL    HW1 4431   6.791   4.584   8.228 -0.5034  0.5050 -1.4618
  903SOL    HW2 4432   6.904   4.484   8.214 -0.9712 -0.0072 -1.6436
  904SOL     OW 4433   0.072   2.645   5.411 -0.4441  0.5104  0.7046
  904SOL    HW1 4434   0.088   2.690   5.494 -0.0403 -0.0308  0.9292
  904SOL    HW2 4435   0.079   2.713   5.345  1.2396  0.6037  0.9346
  905SOL     OW 4436   7.102   7.998   2.195 -0.0693 -0.8777 -0.0301
  905SOL    HW1 4437   7.195   8.007   2.177  0.1407 -2.1547  0.2617
  905SOL    HW2 4438   7.071   7.935   2.130 -0.7443 -0.4254 -0.1581
  906SOL     OW 4439   7.830   7.371   5.104 -0.1825 -0.0812  0.3373
  906SOL    HW1 4440   7.861   7.323   5.028 -0.0504 -1.6818  1.3592
  906SOL    HW2 4441   7.887   7.344   5.176 -1.2279  0.2357  1.3284
  907SOL     OW 4442   1.103   5.986   7.998 -0.0244 -0.0980 -0.2014
  907SOL    HW1 4443   1.146   5.988   8.083  0.1951 -1.1852 -0.2776
  907SOL    HW2 4444   1.041   6.060   8.001 -1.5554 -1.3647  1.7055
  908SOL     OW 4445   8.860   8.280   4.047  0.1934  0.0140 -0.2228
  908SOL    HW1 4446   8.932   8.237   4.093  0.4614  1.7183  1.0568
  908SOL    HW2 4447   8.784   8.264   4.103 -0.3469 -1.3741 -1.3246
  909SOL     OW 4448   9.281   7.016   5.085  0.2359 -0.1828  0.6874
  909SOL    HW1 4449   9.241   6.992   5.169  0.5518 -1.5201  0.4790
  909SOL    HW2 4450   9.278   6.936   5.033  0.1615  0.5943 -0.5466
  910SOL     OW 4451   6.619   6.709   4.183  0.5089  0.1851 -0.0652
  910SOL    HW1 4452   6.532   6.672   4.197  0.5607  0.1862  0.2747
  910SOL    HW2 4453   6.657   6.715   4.271  0.3894  1.3169 -0.0795
  911SOL     OW 4454   5.398   8.938   7.553  0.1887 -0.0980  0.3729
  911SOL    HW1 4455   5.366   8.852   7.582  0.3879  0.0436  1.0313
  911SOL    HW2 4456   5.323   8.996   7.562 -0.2557 -0.3931 -1.0579
  912SOL     OW 4457   9.655   9.359   9.568  0.6407 -0.4443 -0.5815
  912SOL    HW1 4458   9.610   9.315   9.640  0.7741 -2.9491 -1.9287
  912SOL    HW2 4459   9.607   9.332   9.489  2.0518  0.0996 -1.6783
  913SOL     OW 4460   7.144   2.623   8.036  0.3253 -0.3012  0.7516
  913SOL    HW1 4461   7.071   2.685   8.030 -0.3562 -1.1830 -0.3235
  913SOL    HW2 4462   7.156   2.611   8.130 -0.4453  0.4037  0.9579
  914SOL     OW 4463   6.374   3.381   5.933  0.1735 -0.1736  0.2368
  914SOL    HW1 4464   6.403   3.429   6.011 -2.0594  0.7993  0.5529
  914SOL    HW2 4465   6.331   3.303   5.968 -2.0466  0.9334  0.1327
  915SOL     OW 4466   7.066   4.692   0.934 -0.1214  0.0701  0.3315
  915SOL    HW1 4467   7.029   4.738   1.009 -1.5107  2.3924 -1.6160
  915SOL    HW2 4468   7.133   4.752   0.900 -0.7105 -0.1006 -1.2283
  916SOL     OW 4469   0.127   3.857   3.245 -0.2392  0.1113 -0.0615
  916SOL    HW1 4470   0.076   3.831   3.322 -0.0387  0.9055  0.3507
  916SOL    HW2 4471   0.211   3.886   3.280  0.3769 -0.8674 -0.7141
  917SOL     OW 4472   7.996   4.267   2.115 -0.4335 -0.6999 -0.1032
  917SOL    HW1 4473   8.038   4.341   2.072 -0.8073  0.2160  1.0593
  917SOL    HW2 4474   7.902   4.289   2.114 -0.4107 -0.3269  1.6996
  918SOL     OW 4475   0.816   1.393   5.412 -0.7255  0.1367  0.4225
  918SOL    HW1 4476   0.811   1.339   5.333 -1.5420  0.1912  0.4293
  918SOL    HW2 4477   0.904   1.430   5.410 -0.8941  0.5175 -0.7144
  919SOL     OW 4478   7.278   2.516   7.125 -0.2833 -0.1760  0.2568
  919SOL    HW1 4479   7.192   2.513   7.168 -0.3437 -0.4233  0.1224
  919SOL    HW2 4480   7.318   2.432   7.146 -0.0904 -0.0756  0.2864
  920SOL     OW 4481   5.929   9.694   4.307  0.2144  0.2366 -0.5224
  920SOL    HW1 4482   5.846   9.679   4.261 -0.0160 -0.6297  0.1547
  920SOL    HW2 4483   5.996   9.677   4.241 -0.1289 -0.1444 -0.7819
  921SOL     OW 4484   4.912   0.942   8.068 -0.4999 -0.1551  0.4752
  921SOL    HW1 4485   4.890   0.926   7.976  1.0075  0.5565 -0.0359
  921SOL    HW2 4486   4.842   0.899   8.117 -1.7829  0.1601 -1.0150
  922SOL     OW 4487   5.482   7.498   5.607 -0.1064 -0.1592  0.1804
  922SOL    HW1 4488   5.444   7.502   5.695  1.1985  1.0046  0.7343
  922SOL    HW2 4489   5.512   7.588   5.590  2.1154 -0.9301 -0.2974
  923SOL     OW 4490   6.825   6.439   4.948  0.3920 -0.5611  0.2528
  923SOL    HW1 4491   6.915   6.460   4.922  0.4597 -1.7900 -0.5792
  923SOL    HW2 4492   6.829   6.432   5.043  0.7433  1.2673  0.4261
  924SOL     OW 4493   9.464   3.956   0.046  0.1577 -0.4541  0.1780
  924SOL    HW1 4494   9.439   3.934   0.136  1.1260  0.2133  0.6299
  924SOL    HW2 4495   9.433   4.046   0.034 -0.7564 -0.8383 -0.4801
  925SOL     OW 4496   7.416   3.156   4.162 -0.0514  0.4755  0.3249
  925SOL    HW1 4497   7.361   3.085   4.194  0.9819 -0.6834 -0.3889
  925SOL    HW2 4498   7.505   3.131   4.186  0.2320  2.1039  1.0771
  926SOL     OW 4499   2.571   5.559   9.397  0.3030  0.2426 -0.1425
  926SOL    HW1 4500   2.530   5.478   9.366 -2.5541  0.5627  2.4253
  926SOL    HW2 4501   2.657   5.531   9.429  0.6021 -1.1867 -1.9712
  927SOL     OW 4502   7.752   4.558   4.212  0.2237 -0.4651  0.2017
  927SOL    HW1 4503   7.847   4.553   4.205  0.1924 -0.4274 -0.3033
  927SOL    HW2 4504   7.731   4.648   4.189  0.0890 -0.4020  0.5818
  928SOL     OW 4505   7.351   4.616   8.382  0.6721 -0.1175 -0.2826
  928SOL    HW1 4506   7.440   4.628   8.348  0.1011  0.7974 -1.5383
  928SOL    HW2 4507   7.320   4.705   8.401  0.1264 -0.4467  0.4214
  929SOL     OW 4508   5.964   1.868   6.018  0.2024  0.7477 -0.3609
  929SOL    HW1 4509   5.909   1.939   6.051 -0.9740 -0.5078  0.4917
  929SOL    HW2 4510   6.042   1.871   6.074  0.8881  2.2769 -1.3115
  930SOL     OW 4511   0.554   3.108   2.925  0.5613 -0.6546  0.8078
  930SOL    HW1 4512   0.614   3.177   2.894  1.6983 -1.0678  1.9918
  930SOL    HW2 4513   0.492   3.153   2.982 -0.6727 -0.1261 -0.8677
  931SOL     OW 4514   3.881   8.284   0.147  0.3203 -0.0099  0.4276
  931SOL    HW1 4515   3.852   8.246   0.230  0.4399  0.4663  0.6913
  931SOL    HW2 4516   3.886   8.378   0.164 -2.9717  0.5934 -1.0705
  932SOL     OW 4517   1.355   2.124   5.584  0.0403  0.1854 -0.3781
  932SOL    HW1 4518   1.405   2.205   5.569  1.4374 -0.6753 -0.5585
  932SOL    HW2 4519   1.412   2.070   5.638 -0.8510 -0.7140 -0.2990
  933SOL     OW 4520   7.862   2.883   2.901  0.2645  0.3593 -0.0110
  933SOL    HW1 4521   7.915   2.874   2.822 -2.5084 -2.0024 -1.7931
  933SOL    HW2 4522   7.815   2.966   2.888  0.2204  0.2502 -0.5681
  934SOL     OW 4523   6.651   4.681   8.839 -0.0342 -0.1001 -0.1291
  934SOL    HW1 4524   6.645   4.587   8.821  0.5932  0.0899 -1.4816
  934SOL    HW2 4525   6.561   4.707   8.856 -0.2357 -0.9202  0.1397
  935SOL     OW 4526   8.075   1.499   5.520 -0.1721 -1.0144 -0.1421
  935SOL    HW1 4527   8.018   1.432   5.558 -0.4744 -1.2589 -0.9981
  935SOL    HW2 4528   8.015   1.562   5.480  0.1268 -0.5548  0.1197
  936SOL     OW 4529   0.103   5.567   2.510 -0.3901 -0.0698  0.6063
  936SOL    HW1 4530   0.091   5.480   2.471  0.9982  0.3081 -0.7871
  936SOL    HW2 4531   0.113   5.625   2.434 -0.5239  1.1934  1.5298
  937SOL     OW 4532   0.092   7.475   1.250  0.3644  0.1318 -0.5423
  937SOL    HW1 4533   0.183   7.493   1.227  0.1643 -0.7084 -2.1082
  937SOL    HW2 4534   0.040   7.532   1.193 -0.1102 -0.8479 -1.1233
  938SOL     OW 4535   5.654   9.321   4.100 -0.0815 -0.5862  0.3237
  938SOL    HW1 4536   5.708   9.379   4.047 -0.7091  0.4071  0.7471
  938SOL    HW2 4537   5.696   9.235   4.092  0.5584 -0.1907 -0.7370
  939SOL     OW 4538   1.016   6.568   4.754  0.1718 -0.2281 -0.1699
  939SOL    HW1 4539   0.946   6.503   4.743 -0.1684 -0.1423  1.2366
  939SOL    HW2 4540   0.976   6.637   4.807  1.4394 -0.4295  1.1387
  940SOL     OW 4541   9.551   7.959   1.842 -0.5782  0.1714 -0.0962
  940SOL    HW1 4542   9.521   7.893   1.905 -0.8407  1.9506  1.7399
  940SOL    HW2 4543   9.472   7.983   1.794 -0.7022 -0.0538 -0.0095
  941SOL     OW 4544   1.179   5.386   9.307 -0.4369 -0.4530 -0.6403
  941SOL    HW1 4545   1.109   5.323   9.320 -0.7925  0.2113  0.8141
  941SOL    HW2 4546   1.136   5.471   9.311  0.6185  0.0368  1.8264
  942SOL     OW 4547   1.175   1.722   1.286  0.1296  0.4111 -0.5291
  942SOL    HW1 4548   1.229   1.644   1.280  0.3101  0.4785  0.1046
  942SOL    HW2 4549   1.218   1.776   1.353 -0.2651  0.8303 -0.6045
  943SOL     OW 4550   8.264   4.391   5.361 -0.1813  0.0450 -0.3644
  943SOL    HW1 4551   8.344   4.390   5.414 -1.0253  0.4075  0.9729
  943SOL    HW2 4552   8.267   4.474   5.314  0.4388 -0.1482 -0.6777
  944SOL     OW 4553   5.513   2.738   9.298 -0.2287 -0.5964 -0.2525
  944SOL    HW1 4554   5.597   2.770   9.264 -0.3533 -0.0604 -0.0601
  944SOL    HW2 4555   5.464   2.712   9.221  0.2435 -1.2444 -0.3474
  945SOL     OW 4556   5.149   6.745   1.942 -0.3918 -0.1517  0.0364
  945SOL    HW1 4557   5.166   6.651   1.948  1.0686  0.1839  2.4881
  945SOL    HW2 4558   5.236   6.785   1.942 -0.9741  1.2451 -1.4387
  946SOL     OW 4559   2.588   2.017   8.744 -0.7371  0.6082  0.2718
  946SOL    HW1 4560   2.614   2.101   8.705 -0.1695  0.0674 -0.5421
  946SOL    HW2 4561   2.659   1.997   8.805  0.2239 -0.2808 -1.0724
  947SOL     OW 4562   8.191   5.098   0.418  0.6267 -0.1833 -0.1192
  947SOL    HW1 4563   8.286   5.104   0.408  0.6729 -0.7784 -0.0334
  947SOL    HW2 4564   8.177   5.018   0.468  0.0674 -0.2280 -0.3438
  948SOL     OW 4565   5.460   1.774   3.230  0.7580 -0.5330 -0.5946
  948SOL    HW1 4566   5.377   1.813   3.257  1.0692 -0.3685  0.1660
  948SOL    HW2 4567   5.440   1.724   3.151  0.0646  0.0060 -0.7625
  949SOL     OW 4568   9.272   1.556   7.740 -0.2902 -0.6374  0.0451
  949SOL    HW1 4569   9.247   1.471   7.705 -0.1193 -0.3041 -0.9157
  949SOL    HW2 4570   9.321   1.598   7.669  1.4859 -0.5699  1.2505
  950SOL     OW 4571   5.113   5.439   9.553 -0.1388  0.3637 -0.3095
  950SOL    HW1 4572   5.153   5.410   9.471 -0.1260 -0.5715  0.0206
  950SOL    HW2 4573   5.065   5.363   9.584  0.2468  0.5623  0.7998
  951SOL     OW 4574   1.526   2.016   5.762  0.1765  0.2256 -0.2268
  951SOL    HW1 4575   1.595   1.951   5.746  0.2189 -0.0379  0.9354
  951SOL    HW2 4576   1.500   2.001   5.853 -1.1150  0.6080 -0.5102
  952SOL     OW 4577   4.801   3.230   5.711 -0.4427  0.1155  0.1141
  952SOL    HW1 4578   4.707   3.237   5.690 -0.1792  1.0283 -0.8214
  952SOL    HW2 4579   4.804   3.234   5.806 -1.3647 -0.0251  0.1636
  953SOL     OW 4580   5.843   6.743   8.753  0.6270  0.1788  0.1152
  953SOL    HW1 4581   5.899   6.785   8.819 -0.0158 -1.1131  1.5645
  953SOL    HW2 4582   5.765   6.798   8.749  0.6134  0.2029  0.5666
  954SOL     OW 4583   2.607   8.101   1.502  0.4777 -0.4396  0.4227
  954SOL    HW1 4584   2.637   8.092   1.593  1.7192 -1.7435 -0.0685
  954SOL    HW2 4585   2.602   8.196   1.488  1.0755 -0.2067  1.6053
  955SOL     OW 4586   6.626   6.246   9.698 -0.0728 -0.2506  0.3649
  955SOL    HW1 4587   6.660   6.301   9.769  0.4151  0.1676 -0.1821
  955SOL    HW2 4588   6.641   6.297   9.619 -1.0348 -0.5210 -0.0035
  956SOL     OW 4589   8.067   9.070   4.531 -0.3029  0.1934  0.7789
  956SOL    HW1 4590   8.001   9.003   4.546  0.8073 -0.7948  1.4135
  956SOL    HW2 4591   8.040   9.143   4.587 -1.6939  0.4313 -0.1594
  957SOL     OW 4592   7.346   4.324   7.722  0.6697  0.1607  0.1339
  957SOL    HW1 4593   7.264   4.367   7.699  1.8017  3.2270  1.2685
  957SOL    HW2 4594   7.395   4.319   7.640  0.5566  1.2099 -0.0049
  958SOL     OW 4595   8.327   0.945   2.722 -0.5045  0.3333 -0.6613
  958SOL    HW1 4596   8.348   0.896   2.801 -1.3143 -0.2257 -0.7736
  958SOL    HW2 4597   8.358   1.034   2.739  1.8828 -0.4140 -0.8384
  959SOL     OW 4598   3.060   3.856   6.131 -0.0227  0.3127  0.1100
  959SOL    HW1 4599   3.097   3.776   6.170  0.5500  0.4528 -0.1401
  959SOL    HW2 4600   2.974   3.864   6.172  0.3851  0.2094  1.0321
  960SOL     OW 4601   7.941   9.426   2.008 -0.4709 -0.3267 -0.0465
  960SOL    HW1 4602   7.919   9.513   2.041  1.1271  0.6995 -1.4785
  960SOL    HW2 4603   8.036   9.419   2.020 -0.7769 -2.6053  1.5875
  961SOL     OW 4604   8.557   1.763   6.840 -0.6848 -0.0900  0.2406
  961SOL    HW1 4605   8.507   1.820   6.900 -0.6729 -0.8327  0.9803
  961SOL    HW2 4606   8.627   1.726   6.895 -0.6091 -0.7101 -0.2599
  962SOL     OW 4607   3.907   2.073   5.486 -0.0080  0.1114 -0.0855
  962SOL    HW1 4608   3.950   2.124   5.554  0.6290 -0.6804  0.1201
  962SOL    HW2 4609   3.837   2.026   5.532 -1.5998  1.9009 -0.5290
  963SOL     OW 4610   4.034   1.098   6.119 -0.5794 -0.1605 -0.4868
  963SOL    HW1 4611   3.955   1.151   6.106 -0.4417  0.8486  2.2059
  963SOL    HW2 4612   4.097   1.132   6.056 -1.0839  1.6913 -0.0367
  964SOL     OW 4613   3.585   3.228   7.129 -0.5798 -0.1880  0.0341
  964SOL    HW1 4614   3.665   3.187   7.163 -0.3756 -0.0875 -0.3197
  964SOL    HW2 4615   3.615   3.280   7.055 -0.8319  0.6251  0.4943
  965SOL     OW 4616   2.937   4.234   4.424 -0.2144 -0.1674  0.7320
  965SOL    HW1 4617   2.892   4.243   4.340  2.4580  1.3485 -0.6699
  965SOL    HW2 4618   2.875   4.267   4.489 -1.0782  2.0555 -1.0960
  966SOL     OW 4619   5.021   2.534   8.604  0.3546 -0.2626 -0.0230
  966SOL    HW1 4620   4.973   2.451   8.605  2.2627 -1.4140 -0.4072
  966SOL    HW2 4621   4.952   2.601   8.608 -1.2521 -1.8308 -0.1624
  967SOL     OW 4622   9.265   4.492   4.175  0.2643 -0.2368  0.1592
  967SOL    HW1 4623   9.228   4.574   4.209  0.7933 -0.8109  2.2848
  967SOL    HW2 4624   9.360   4.507   4.177  0.3677 -0.9555  0.7196
  968SOL     OW 4625   5.318   4.972   4.489 -0.0917  0.6169  0.2539
  968SOL    HW1 4626   5.278   5.039   4.545  1.3280  0.3230  1.6881
  968SOL    HW2 4627   5.303   4.890   4.536  0.9030  0.3325  0.0924
  969SOL     OW 4628   5.249   2.681   1.658  0.3777 -0.1753 -0.1831
  969SOL    HW1 4629   5.237   2.586   1.652 -1.3800  0.0306 -0.4757
  969SOL    HW2 4630   5.297   2.694   1.740  1.8429 -1.3720 -0.7995
  970SOL     OW 4631   4.024   2.430   7.385  0.2925 -0.0442  0.2094
  970SOL    HW1 4632   4.035   2.353   7.329 -2.8843 -1.0661  0.7852
  970SOL    HW2 4633   3.962   2.485   7.338  0.6691  1.0287  0.9281
  971SOL     OW 4634   6.119   8.523   1.063 -0.9969  0.0583  0.0050
  971SOL    HW1 4635   6.197   8.574   1.084 -0.9228 -0.5508  1.2849
  971SOL    HW2 4636   6.128   8.443   1.115 -2.5668  0.0640  0.3156
  972SOL     OW 4637   1.094   2.441   1.063  0.0275 -0.3899  0.8133
  972SOL    HW1 4638   1.163   2.481   1.115 -0.7514 -0.8445  2.2773
  972SOL    HW2 4639   1.033   2.405   1.128 -0.8700 -1.2159 -0.4279
  973SOL     OW 4640   6.475   4.774   2.231 -0.7862 -0.3301  0.3579
  973SOL    HW1 4641   6.417   4.847   2.210 -0.5961  1.1368  4.1124
  973SOL    HW2 4642   6.416   4.704   2.260 -0.8338 -0.3168  0.2924
  974SOL     OW 4643   5.669   3.716   4.356 -0.1835  0.1294  0.3377
  974SOL    HW1 4644   5.753   3.737   4.317 -0.3011 -1.5247 -0.9124
  974SOL    HW2 4645   5.607   3.775   4.313 -0.1447 -0.9289 -1.2525
  975SOL     OW 4646   3.973   8.173   5.030 -0.1590  0.4275  0.1072
  975SOL    HW1 4647   3.997   8.259   4.994  0.2477  0.6020  0.7552
  975SOL    HW2 4648   4.056   8.138   5.063  0.0539 -1.1055 -1.9277
  976SOL     OW 4649   0.086   0.397   7.948  0.1718 -0.2249  0.2353
  976SOL    HW1 4650   0.146   0.442   8.007  0.6349 -1.9683  1.1515
  976SOL    HW2 4651   0.115   0.306   7.949 -1.3135 -0.7451 -0.8248
  977SOL     OW 4652   7.133   5.009   1.780 -0.4329  0.4096  0.1335
  977SOL    HW1 4653   7.211   5.064   1.769 -0.2808  0.0811 -0.5133
  977SOL    HW2 4654   7.077   5.031   1.706  0.3655 -1.4712 -1.1297
  978SOL     OW 4655   7.135   5.272   6.052 -0.2242 -0.0314 -0.2521
  978SOL    HW1 4656   7.100   5.302   5.969 -2.6472 -0.4751  0.5444
  978SOL    HW2 4657   7.111   5.340   6.115 -1.7948 -1.4045  0.7269
  979SOL     OW 4658   4.130   9.497   0.561 -0.0726  0.1058 -0.1678
  979SOL    HW1 4659   4.045   9.460   0.585 -0.2533 -0.3133 -1.4071
  979SOL    HW2 4660   4.169   9.523   0.645 -0.6651 -1.3245  0.5887
  980SOL     OW 4661   1.731   7.577   5.106  0.1912  0.0740 -1.1735
  980SOL    HW1 4662   1.813   7.538   5.076  1.6833  1.5347  0.7042
  980SOL    HW2 4663   1.723   7.658   5.057  0.0945  0.1361 -1.0575
  981SOL     OW 4664   9.579   8.220   8.568  0.3340 -0.0772 -0.0950
  981SOL    HW1 4665   9.486   8.201   8.560 -0.1250  0.9649  2.0940
  981SOL    HW2 4666   9.588   8.309   8.534  0.5544 -0.2023 -0.3685
  982SOL     OW 4667   9.293   0.226   3.281 -0.2351 -0.4667  0.3506
  982SOL    HW1 4668   9.347   0.248   3.357  1.8810  0.0327 -1.1800
  982SOL    HW2 4669   9.336   0.150   3.242 -0.5924 -0.0511 -0.9199
  983SOL     OW 4670   8.741   3.598   4.889  0.5316 -0.8562  0.1058
  983SOL    HW1 4671   8.794   3.625   4.814  2.0560 -0.4741  1.2679
  983SOL    HW2 4672   8.698   3.517   4.861 -1.6338  0.9870 -2.3399
  984SOL     OW 4673   3.312   3.750   9.361 -0.0022  0.0738 -0.2508
  984SOL    HW1 4674   3.345   3.675   9.410 -0.4793 -0.3684 -0.6017
  984SOL    HW2 4675   3.386   3.811   9.358  0.2002 -0.1108  0.5615
  985SOL     OW 4676   6.911   7.789   9.500  0.1719 -0.0324  0.2832
  985SOL    HW1 4677   6.955   7.871   9.480 -1.2079  0.6543 -0.0821
  985SOL    HW2 4678   6.852   7.811   9.572 -0.2231 -0.6928  0.1675
  986SOL     OW 4679   7.355   1.918   0.623  0.4292  0.1646 -0.0400
  986SOL    HW1 4680   7.349   1.842   0.565  0.4200  1.9807 -2.5883
  986SOL    HW2 4681   7.386   1.882   0.706 -0.9087 -2.7971 -0.6740
  987SOL     OW 4682   7.083   3.414   8.030 -0.0280  0.4713  0.2898
  987SOL    HW1 4683   7.047   3.419   7.942  0.2891 -3.1344 -0.2182
  987SOL    HW2 4684   7.148   3.344   8.025  0.3679  0.5032  3.2604
  988SOL     OW 4685   8.236   6.924   2.223  0.2279 -0.1287  0.1768
  988SOL    HW1 4686   8.175   6.936   2.295 -0.2178 -2.0370  0.1706
  988SOL    HW2 4687   8.181   6.931   2.144 -0.2298 -2.6079  0.1863
  989SOL     OW 4688   9.376   6.366   8.226 -0.0222 -0.2651  0.3766
  989SOL    HW1 4689   9.407   6.405   8.308  1.8688  1.1760 -0.9359
  989SOL    HW2 4690   9.344   6.280   8.251  1.4041 -0.2461  2.4926
  990SOL     OW 4691   5.508   2.862   7.342 -0.2949 -0.5337  0.2715
  990SOL    HW1 4692   5.434   2.892   7.394 -1.3639  0.0657 -1.5002
  990SOL    HW2 4693   5.545   2.943   7.305  0.9245 -0.8742  0.6880
  991SOL     OW 4694   8.638   3.774   9.255 -0.0600 -0.1698  0.3252
  991SOL    HW1 4695   8.583   3.741   9.184 -0.0518 -1.1663  0.7649
  991SOL    HW2 4696   8.727   3.771   9.220 -0.1016 -0.2418  0.2248
  992SOL     OW 4697   0.866   6.759   0.181  0.3876 -0.2639 -0.3060
  992SOL    HW1 4698   0.953   6.752   0.222 -0.1157 -1.6223  0.6031
  992SOL    HW2 4699   0.880   6.730   0.091  0.5895 -2.1411  0.2949
  993SOL     OW 4700   7.257   8.831   5.574 -0.1152  0.2186 -0.2104
  993SOL    HW1 4701   7.277   8.762   5.511 -0.1223 -1.0063  1.0507
  993SOL    HW2 4702   7.342   8.854   5.612 -0.3403 -0.6653  0.8833
  994SOL     OW 4703   9.446   5.767   2.859 -0.2517  0.2932 -0.3236
  994SOL    HW1 4704   9.368   5.713   2.852  0.0204 -0.4273  1.6639
  994SOL    HW2 4705   9.413   5.855   2.879 -0.5698  0.0529  0.2138
  995SOL     OW 4706   0.606   7.743   5.891 -0.4090  0.3709  0.2124
  995SOL    HW1 4707   0.561   7.719   5.810 -0.0957  0.2245  0.0797
  995SOL    HW2 4708   0.539   7.785   5.944 -0.5866  0.5777 -0.1701
  996SOL     OW 4709   8.400   6.611   7.944  0.1305  0.1632 -0.5238
  996SOL    HW1 4710   8.411   6.519   7.968  0.5760  0.4519  0.4450
  996SOL    HW2 4711   8.348   6.609   7.864 -1.7670 -0.8718  0.6327
  997SOL     OW 4712   2.719   6.213   9.136 -0.1646  0.5861  0.2934
  997SOL    HW1 4713   2.809   6.234   9.109 -0.6137  1.2477 -0.7395
  997SOL    HW2 4714   2.728   6.181   9.226  1.1346  0.3853  0.1169
  998SOL     OW 4715   1.455   6.394   4.255  0.4084  0.0128  0.5252
  998SOL    HW1 4716   1.479   6.487   4.253 -0.1638  0.2483 -3.1804
  998SOL    HW2 4717   1.537   6.348   4.235  0.7375 -0.3479  2.5764
  999SOL     OW 4718   6.755   5.951   2.137  0.9640 -0.0689 -0.0219
  999SOL    HW1 4719   6.817   6.024   2.128  1.0593 -0.1503 -0.0196
  999SOL    HW2 4720   6.808   5.872   2.126  0.7896 -0.1307 -0.4460
 1000SOL     OW 4721   4.096   0.488   2.313 -0.3203  0.5314  0.2996
 1000SOL    HW1 4722   4.096   0.405   2.264 -1.4932  0.5053  0.3084
 1000SOL    HW2 4723   4.003   0.511   2.321 -0.0501  1.4478  0.9841
 1001SOL     OW 4724   0.764   7.974   3.872  0.4696  0.1530 -0.1304
 1001SOL    HW1 4725   0.841   8.012   3.829 -0.3274  3.4453  1.0436
 1001SOL    HW2 4726   0.795   7.951   3.960  0.4800 -0.0287 -0.1812
 1002SOL     OW 4727   7.778   9.131   1.558 -0.0160  0.3381 -0.1506
 1002SOL    HW1 4728   7.823   9.119   1.474 -0.6456  0.2252 -0.4770
 1002SOL    HW2 4729   7.849   9.143   1.621  0.4448  1.8728 -0.9073
 1003SOL     OW 4730   8.345   3.083   7.058  0.7052  0.0746 -0.3050
 1003SOL    HW1 4731   8.349   3.138   6.979  1.4109  0.9967  0.3555
 1003SOL    HW2 4732   8.436   3.076   7.087  0.6769 -1.6412 -0.4804
 1004SOL     OW 4733   1.301   7.298   1.429 -0.6235 -0.1831 -0.3984
 1004SOL    HW1 4734   1.350   7.272   1.507 -0.5000 -0.9501 -0.7199
 1004SOL    HW2 4735   1.343   7.379   1.400 -0.6348  0.0769  0.2890
 1005SOL     OW 4736   3.823   4.232   4.048  0.7574  0.3408  0.1703
 1005SOL    HW1 4737   3.804   4.176   4.122  3.0216  0.2826  0.7966
 1005SOL    HW2 4738   3.754   4.213   3.985  0.8219 -2.3769  0.7797
 1006SOL     OW 4739   8.594   5.514   3.775 -0.6112 -0.0479 -0.3467
 1006SOL    HW1 4740   8.655   5.562   3.832 -0.3277 -0.3829 -0.3655
 1006SOL    HW2 4741   8.508   5.535   3.810 -0.4695  0.2026 -0.1400
 1007SOL     OW 4742   7.018   0.323   6.266 -0.2250 -0.1025 -0.3432
 1007SOL    HW1 4743   7.047   0.413   6.284  0.0004 -0.1605 -0.4088
 1007SOL    HW2 4744   6.945   0.309   6.325  1.0735 -0.6140  1.2021
 1008SOL     OW 4745   5.106   1.507   1.641 -0.1636 -0.1373 -0.3123
 1008SOL    HW1 4746   5.151   1.592   1.640 -0.3142 -0.0581 -0.3743
 1008SOL    HW2 4747   5.175   1.444   1.622 -0.2360  0.0615 -1.2987
 1009SOL     OW 4748   6.188   5.070   6.084 -0.1138  0.0721 -0.7553
 1009SOL    HW1 4749   6.108   5.051   6.132  0.1466 -0.2667 -0.4440
 1009SOL    HW2 4750   6.230   5.140   6.133  0.5602 -0.8297  0.0128
 1010SOL     OW 4751   8.458   4.939   7.566  0.0053  0.0649  0.0298
 1010SOL    HW1 4752   8.365   4.926   7.586 -0.2112 -1.8663 -1.8659
 1010SOL    HW2 4753   8.486   5.009   7.626 -2.5541  0.4535  0.8937
 1011SOL     OW 4754   8.099   8.139   6.959  0.1225 -0.3059  0.6341
 1011SOL    HW1 4755   8.041   8.171   6.889  2.0172 -0.4428 -1.0831
 1011SOL    HW2 4756   8.079   8.046   6.966  0.3081 -0.4133 -0.1488
 1012SOL     OW 4757   5.018   4.466   0.979 -0.3691  0.0330  0.0130
 1012SOL    HW1 4758   4.947   4.509   0.932 -0.9553 -0.0401  0.8215
 1012SOL    HW2 4759   4.976   4.394   1.026  0.2268  0.0039  0.5206
 1013SOL     OW 4760   0.428   0.261   8.875 -0.4387 -0.4982 -0.9343
 1013SOL    HW1 4761   0.520   0.278   8.854 -0.4108 -0.8699 -1.1109
 1013SOL    HW2 4762   0.424   0.167   8.891 -0.3911 -0.2193  1.0032
 1014SOL     OW 4763   2.053   9.507   1.531  0.2003  0.5511 -0.0315
 1014SOL    HW1 4764   1.997   9.429   1.523  1.0350 -0.0395 -0.2922
 1014SOL    HW2 4765   2.010   9.560   1.598 -0.5137 -0.0209 -0.0185
 1015SOL     OW 4766   3.193   8.051   9.348 -0.4772 -0.0142  0.0704
 1015SOL    HW1 4767   3.100   8.042   9.369 -0.5734 -3.4942 -1.3140
 1015SOL    HW2 4768   3.235   7.974   9.385  1.5971  0.6273 -0.7511
 1016SOL     OW 4769   2.635   8.250   5.115  0.8125  0.1913 -0.4212
 1016SOL    HW1 4770   2.692   8.236   5.191 -0.8081  0.1761  0.8411
 1016SOL    HW2 4771   2.619   8.345   5.115 -0.5633 -0.0130  0.3341
 1017SOL     OW 4772   6.273   1.626   9.546  0.5060  0.3995 -0.1404
 1017SOL    HW1 4773   6.206   1.678   9.502  1.0513  1.4108  0.2092
 1017SOL    HW2 4774   6.355   1.654   9.506  0.7817 -0.5395 -0.2780
 1018SOL     OW 4775   3.019   4.635   3.201 -0.1817  0.2346  0.5724
 1018SOL    HW1 4776   3.012   4.544   3.172 -0.0421  0.8196 -1.4269
 1018SOL    HW2 4777   2.932   4.655   3.237 -1.3721  0.2733 -2.1043
 1019SOL     OW 4778   4.385   7.782   8.882 -0.3700  0.4099  0.0193
 1019SOL    HW1 4779   4.413   7.863   8.841  0.0985  0.0353 -0.4092
 1019SOL    HW2 4780   4.289   7.782   8.873 -0.3267  0.6686 -0.4286
 1020SOL     OW 4781   4.027   5.896   8.047 -0.3293  0.3447 -0.1058
 1020SOL    HW1 4782   4.036   5.948   7.967 -0.1266  0.5184  0.0259
 1020SOL    HW2 4783   4.019   5.806   8.017 -0.9090  0.4722 -0.3455
 1021SOL     OW 4784   2.409   9.449   0.202  0.3043 -0.3196  0.5707
 1021SOL    HW1 4785   2.502   9.437   0.222 -0.0290 -2.4246  1.0502
 1021SOL    HW2 4786   2.368   9.368   0.231 -1.8524  0.9630  1.2811
 1022SOL     OW 4787   9.185   1.370   0.635  0.0909  0.5257 -0.5113
 1022SOL    HW1 4788   9.153   1.370   0.545  1.2726 -0.5529 -0.9747
 1022SOL    HW2 4789   9.133   1.436   0.680 -1.7035 -0.1156 -1.5581
 1023SOL     OW 4790   9.687   3.792   1.690 -0.4346  0.3090  0.5756
 1023SOL    HW1 4791   9.773   3.760   1.661  0.1450 -0.0343  2.5447
 1023SOL    HW2 4792   9.641   3.714   1.719 -0.7741  0.7073  1.1146
 1024SOL     OW 4793   7.741   5.918   8.404  0.3604  0.1216  0.3348
 1024SOL    HW1 4794   7.660   5.965   8.384  1.2074  1.5011  0.0332
 1024SOL    HW2 4795   7.796   5.931   8.327  0.6783 -1.2770  0.2983
 1025SOL     OW 4796   2.803   6.068   1.984 -0.1557 -0.4451  0.5252
 1025SOL    HW1 4797   2.757   6.034   1.908  0.8373 -1.2845  0.2802
 1025SOL    HW2 4798   2.892   6.033   1.976  0.1068 -0.1166  1.7902
 1026SOL     OW 4799   8.010   5.470   0.957  0.0688 -0.0280 -0.1582
 1026SOL    HW1 4800   8.100   5.488   0.981 -0.1185  1.1428 -0.2741
 1026SOL    HW2 4801   7.965   5.554   0.964 -1.0459 -0.6074  0.0226
 1027SOL     OW 4802   3.439   0.323   4.875 -0.4712  0.0831 -0.0137
 1027SOL    HW1 4803   3.382   0.313   4.798  0.2437  0.3990 -0.5973
 1027SOL    HW2 4804   3.395   0.274   4.944 -1.2722  0.0310 -0.5524
 1028SOL     OW 4805   7.130   3.770   8.339  0.5703 -0.3016  0.6967
 1028SOL    HW1 4806   7.161   3.766   8.249 -1.3247 -0.5528  0.0169
 1028SOL    HW2 4807   7.108   3.679   8.361  0.5790 -0.1751  1.2531
 1029SOL     OW 4808   1.251   5.746   3.327 -0.2783 -0.0014 -0.2900
 1029SOL    HW1 4809   1.285   5.815   3.383 -1.9449  0.9976 -0.4636
 1029SOL    HW2 4810   1.239   5.787   3.242 -5.4698  0.9698  0.5811
 1030SOL     OW 4811   4.657   8.669   3.200 -0.3016 -0.2959 -0.2753
 1030SOL    HW1 4812   4.590   8.685   3.133  0.1642 -1.3376 -1.0183
 1030SOL    HW2 4813   4.617   8.604   3.257  0.1124 -1.0245 -0.8004
 1031SOL     OW 4814   3.709   3.608   1.125  0.0148 -0.1769  0.5201
 1031SOL    HW1 4815   3.642   3.610   1.194  0.2843 -0.8702  0.8107
 1031SOL    HW2 4816   3.738   3.517   1.123 -0.7101 -0.4170 -1.2077
 1032SOL     OW 4817   5.783   7.160   4.424 -0.4798  0.2023 -0.0108
 1032SOL    HW1 4818   5.759   7.069   4.406 -0.4728  0.3244 -0.6628
 1032SOL    HW2 4819   5.702   7.209   4.407 -0.8683  0.1759  1.6461
 1033SOL     OW 4820   5.330   1.346   1.597  0.3610  0.2341 -0.5248
 1033SOL    HW1 4821   5.366   1.304   1.519  0.0388 -0.6683 -0.1911
 1033SOL    HW2 4822   5.391   1.321   1.667  0.3991  0.6725 -0.3985
 1034SOL     OW 4823   6.206   4.006   5.305 -0.0488  0.6020  0.4434
 1034SOL    HW1 4824   6.265   3.970   5.240 -1.2152 -0.0204 -0.2972
 1034SOL    HW2 4825   6.242   4.093   5.325  2.2474 -0.5015  1.5300
 1035SOL     OW 4826   0.591   3.405   0.399 -0.2396 -0.3876  0.1256
 1035SOL    HW1 4827   0.543   3.478   0.440 -1.3007 -0.8606 -0.2402
 1035SOL    HW2 4828   0.669   3.446   0.361 -1.6033  0.8706 -1.4680
 1036SOL     OW 4829   8.998   3.725   5.631 -0.2527 -0.1985  0.0187
 1036SOL    HW1 4830   8.964   3.651   5.681 -2.0940  0.1135 -0.6794
 1036SOL    HW2 4831   9.040   3.781   5.696  1.8757 -2.1563  0.4652
 1037SOL     OW 4832   1.833   6.806   7.521  0.2483  0.5349  0.0230
 1037SOL    HW1 4833   1.800   6.895   7.530 -0.2689  0.1962  2.0373
 1037SOL    HW2 4834   1.754   6.752   7.509  0.3690  0.1436  0.9139
 1038SOL     OW 4835   8.607   7.177   5.353 -0.2644 -0.1927 -0.3379
 1038SOL    HW1 4836   8.557   7.257   5.339  0.0208  0.3987  1.6561
 1038SOL    HW2 4837   8.541   7.107   5.357 -0.6150  0.1023 -0.9894
 1039SOL     OW 4838   5.685   8.124   1.465  0.3867  0.3615 -0.5392
 1039SOL    HW1 4839   5.639   8.096   1.386 -0.6618 -1.1678  0.5348
 1039SOL    HW2 4840   5.776   8.100   1.450  0.2059  0.1268 -1.3019
 1040SOL     OW 4841   6.510   2.226   8.657  0.1813  0.0160  0.5311
 1040SOL    HW1 4842   6.558   2.286   8.599 -0.1127 -0.3582 -0.1133
 1040SOL    HW2 4843   6.554   2.142   8.645 -0.2583 -0.1952  0.3908
 1041SOL     OW 4844   4.260   9.564   1.222 -0.5143  0.1942 -0.0718
 1041SOL    HW1 4845   4.193   9.631   1.216 -0.1517  0.4914 -0.8064
 1041SOL    HW2 4846   4.332   9.596   1.168 -0.0341 -0.4244  0.1864
 1042SOL     OW 4847   3.917   5.828   7.637 -0.3689  0.1422 -0.2166
 1042SOL    HW1 4848   3.924   5.736   7.609 -0.8904  0.6681 -2.3188
 1042SOL    HW2 4849   3.999   5.868   7.608  0.3334  0.1525  1.6771
 1043SOL     OW 4850   5.075   6.553   5.663  0.2544  0.2887  0.1846
 1043SOL    HW1 4851   4.995   6.599   5.688 -0.0373 -0.0055 -0.2126
 1043SOL    HW2 4852   5.109   6.519   5.746 -0.4815 -0.3124  0.2505
 1044SOL     OW 4853   2.022   4.927   7.574  0.1442  0.5921 -0.5971
 1044SOL    HW1 4854   1.937   4.940   7.617 -0.4067 -0.2308 -1.3954
 1044SOL    HW2 4855   2.010   4.849   7.521  1.6081  0.0907 -0.2411
 1045SOL     OW 4856   9.239   0.878   3.849 -0.0763 -0.0704  0.3090
 1045SOL    HW1 4857   9.220   0.871   3.943 -0.9270  0.9665  0.2376
 1045SOL    HW2 4858   9.158   0.850   3.807  0.4384 -0.9072 -0.1244
 1046SOL     OW 4859   4.100   1.808   6.983 -0.4237 -0.2275  0.0993
 1046SOL    HW1 4860   4.105   1.785   7.075 -0.3770 -0.5113  0.0281
 1046SOL    HW2 4861   4.140   1.894   6.977 -1.7820  0.4664  0.5737
 1047SOL     OW 4862   8.826   7.767   3.061  0.4391  1.2527  0.2801
 1047SOL    HW1 4863   8.796   7.744   2.973 -1.1018  0.2959  1.0174
 1047SOL    HW2 4864   8.782   7.849   3.082 -0.4233  0.6886  0.7317
 1048SOL     OW 4865   4.540   1.588   5.019 -0.2150 -0.0418 -0.3747
 1048SOL    HW1 4866   4.544   1.536   5.099 -0.9417 -1.2158 -1.0680
 1048SOL    HW2 4867   4.632   1.599   4.992  0.1331  1.4645  1.2614
 1049SOL     OW 4868   2.380   6.386   3.816 -0.3847 -0.2554 -0.5008
 1049SOL    HW1 4869   2.374   6.373   3.911  0.7441 -1.3320 -0.5538
 1049SOL    HW2 4870   2.414   6.475   3.807 -2.3476  0.6036  0.0280
 1050SOL     OW 4871   0.177   0.809   4.812 -0.6530  0.6205  0.2801
 1050SOL    HW1 4872   0.141   0.730   4.853  0.6690  0.3946  1.0893
 1050SOL    HW2 4873   0.203   0.781   4.725  1.0918 -0.2603  1.0284
 1051SOL     OW 4874   8.909   1.272   8.900  0.0302  0.4399  0.4236
 1051SOL    HW1 4875   8.835   1.269   8.839  0.2435 -0.0276  0.1851
 1051SOL    HW2 4876   8.977   1.320   8.852 -0.0094  0.5959  0.5230
 1052SOL     OW 4877   3.344   7.419   7.156 -0.1940  0.1567  0.4087
 1052SOL    HW1 4878   3.404   7.465   7.097  1.3882 -1.2655  0.8118
 1052SOL    HW2 4879   3.283   7.487   7.186 -0.8198  1.0024 -2.4974
 1053SOL     OW 4880   5.138   0.454   6.052 -0.3861  0.1567 -0.1610
 1053SOL    HW1 4881   5.205   0.421   6.112 -0.1120 -0.9126 -1.0032
 1053SOL    HW2 4882   5.081   0.379   6.036 -0.9079  0.6400 -0.6208
 1054SOL     OW 4883   3.390   2.197   0.674 -0.3877 -0.2143 -0.4584
 1054SOL    HW1 4884   3.385   2.193   0.770 -0.5684  0.6995 -0.4269
 1054SOL    HW2 4885   3.438   2.117   0.650  0.6275  0.0879  0.4645
 1055SOL     OW 4886   7.177   6.775   0.815  0.5895  0.0211 -0.0145
 1055SOL    HW1 4887   7.133   6.745   0.736  1.0982 -0.3142 -0.1777
 1055SOL    HW2 4888   7.141   6.862   0.831  0.0154 -0.1688 -0.2477
 1056SOL     OW 4889   1.009   5.626   9.391 -0.0110  0.4129 -0.3923
 1056SOL    HW1 4890   0.970   5.682   9.323 -3.8532 -0.8854  0.4530
 1056SOL    HW2 4891   1.045   5.687   9.455  0.6438  1.7317 -1.9512
 1057SOL     OW 4892   9.494   6.549   3.893  0.3983 -0.5930 -0.0494
 1057SOL    HW1 4893   9.421   6.518   3.841 -0.8825  0.3022  1.1319
 1057SOL    HW2 4894   9.530   6.623   3.844  0.7433 -1.2462 -0.7948
 1058SOL     OW 4895   5.459   1.126   2.594  0.8416 -0.1041  0.7993
 1058SOL    HW1 4896   5.445   1.161   2.682 -0.9206  1.4458 -0.0320
 1058SOL    HW2 4897   5.388   1.163   2.542  1.9582 -0.8169 -1.3414
 1059SOL     OW 4898   2.178   4.732   7.714 -0.5607  0.1407 -0.3721
 1059SOL    HW1 4899   2.265   4.693   7.714 -0.3544  0.5485  0.9400
 1059SOL    HW2 4900   2.118   4.657   7.720 -0.3219 -0.1465 -1.4031
 1060SOL     OW 4901   5.113   5.612   4.596  0.2307 -0.5601 -0.0190
 1060SOL    HW1 4902   5.157   5.534   4.560  2.8414 -0.6066  2.8682
 1060SOL    HW2 4903   5.048   5.576   4.657 -0.9796 -0.4389 -1.1965
 1061SOL     OW 4904   4.749   1.274   0.196 -0.0952 -0.1255  0.2548
 1061SOL    HW1 4905   4.762   1.323   0.114  1.6633 -0.5344  0.2459
 1061SOL    HW2 4906   4.692   1.201   0.171  1.0499 -0.6890 -0.8069
 1062SOL     OW 4907   8.226   5.835   0.128  0.5207  0.7237  0.1644
 1062SOL    HW1 4908   8.228   5.832   0.033 -1.0976  0.9721  0.0878
 1062SOL    HW2 4909   8.218   5.928   0.149  2.5512  0.8390  0.6383
 1063SOL     OW 4910   0.398   2.954   2.783  0.1082  0.2702  0.2046
 1063SOL    HW1 4911   0.449   2.928   2.706  1.6888 -3.3450  2.2113
 1063SOL    HW2 4912   0.450   3.024   2.822  2.8389 -2.1073  1.2155
 1064SOL     OW 4913   7.486   2.539   2.647  0.5857 -0.5533 -0.1343
 1064SOL    HW1 4914   7.414   2.583   2.602 -0.5051 -2.2716 -0.1704
 1064SOL    HW2 4915   7.464   2.547   2.740  0.4111 -0.9358 -0.1386
 1065SOL     OW 4916   3.930   2.087   1.700 -0.4371  0.0890  0.2491
 1065SOL    HW1 4917   3.982   2.026   1.752 -0.5229 -0.1090  0.1034
 1065SOL    HW2 4918   3.937   2.170   1.747 -1.7880 -0.4398  1.4570
 1066SOL     OW 4919   9.513   2.611   6.461 -0.0133 -0.7313  0.2948
 1066SOL    HW1 4920   9.560   2.657   6.530  0.0506  0.1107 -0.2923
 1066SOL    HW2 4921   9.490   2.526   6.499 -0.2290 -0.1709  1.4403
 1067SOL     OW 4922   4.444   2.206   2.923 -0.4051  0.0394  0.4416
 1067SOL    HW1 4923   4.424   2.255   2.844  0.1844  0.8005  0.7547
 1067SOL    HW2 4924   4.439   2.271   2.994  1.1121 -0.1664  0.7727
 1068SOL     OW 4925   2.699   3.981   7.200  0.0215  0.0429  0.2052
 1068SOL    HW1 4926   2.748   3.962   7.120 -0.9747 -0.0759 -0.3855
 1068SOL    HW2 4927   2.754   4.044   7.247  0.8180 -0.2146 -0.3567
 1069SOL     OW 4928   5.289   9.620   3.674 -0.1436 -0.2688  0.4522
 1069SOL    HW1 4929   5.274   9.526   3.661  0.2876 -0.7556  2.9000
 1069SOL    HW2 4930   5.239   9.662   3.604  0.5388 -2.3213 -1.3942
 1070SOL     OW 4931   0.696   4.915   8.944 -0.8898 -0.0415  0.2550
 1070SOL    HW1 4932   0.765   4.867   8.990  0.1250  1.8337  0.8069
 1070SOL    HW2 4933   0.724   4.915   8.852  0.9375  2.2840  0.7165
 1071SOL     OW 4934   8.628   5.119   7.431  0.2719 -0.3488  0.9022
 1071SOL    HW1 4935   8.635   5.207   7.395  1.5463  0.2866  2.5462
 1071SOL    HW2 4936   8.537   5.094   7.417  0.0335  0.9876 -0.1215
 1072SOL     OW 4937   5.039   2.389   9.177 -0.8117 -0.7834  0.1756
 1072SOL    HW1 4938   5.130   2.409   9.197 -0.4542 -2.6983  0.6768
 1072SOL    HW2 4939   4.990   2.417   9.255 -0.7772  0.8839 -0.3711
 1073SOL     OW 4940   6.979   7.395   9.455  0.5992  0.1028 -0.5781
 1073SOL    HW1 4941   6.906   7.339   9.428 -0.2473  1.0214 -0.2748
 1073SOL    HW2 4942   6.955   7.482   9.422  1.5752  0.4136 -0.4880
 1074SOL     OW 4943   6.884   2.744   5.320 -0.1038  0.4570 -0.1230
 1074SOL    HW1 4944   6.821   2.814   5.303 -0.3750  0.2483  0.0270
 1074SOL    HW2 4945   6.968   2.782   5.293 -0.3005  0.7057 -0.4002
 1075SOL     OW 4946   4.109   4.135   9.457 -0.2375 -0.6556  0.2741
 1075SOL    HW1 4947   4.052   4.180   9.520  0.0361  0.8793 -0.5272
 1075SOL    HW2 4948   4.059   4.059   9.429 -0.2055 -1.6126  2.6156
 1076SOL     OW 4949   2.031   9.224   8.014  0.0002  0.0382  0.1969
 1076SOL    HW1 4950   1.987   9.154   8.063 -1.3668  0.9131  0.2490
 1076SOL    HW2 4951   2.015   9.203   7.922 -0.4319  0.3065  0.2135
 1077SOL     OW 4952   6.594   8.136   5.709  0.7507  0.1061 -0.1893
 1077SOL    HW1 4953   6.558   8.197   5.773  1.8870 -0.0918  0.6646
 1077SOL    HW2 4954   6.686   8.127   5.733  0.8519 -1.1192 -0.9529
 1078SOL     OW 4955   1.788   3.066   2.156 -0.1995  0.1961  0.0475
 1078SOL    HW1 4956   1.845   3.141   2.139  2.3638 -1.5803  0.2854
 1078SOL    HW2 4957   1.777   3.066   2.251  0.1345  0.0614  0.0883
 1079SOL     OW 4958   8.686   1.935   3.828 -0.2035 -0.1894  0.1719
 1079SOL    HW1 4959   8.778   1.907   3.820 -0.2197 -0.8820  1.9374
 1079SOL    HW2 4960   8.680   1.972   3.916 -1.4153  0.7510 -0.2774
 1080SOL     OW 4961   4.992   3.788   1.853  0.4094  0.3614  0.1757
 1080SOL    HW1 4962   5.040   3.867   1.828 -2.4381  1.4936 -2.4927
 1080SOL    HW2 4963   5.024   3.720   1.794 -0.5472  0.8744 -0.9672
 1081SOL     OW 4964   1.792   2.003   7.222  0.3299 -0.7485 -0.2429
 1081SOL    HW1 4965   1.786   1.954   7.304 -0.5056  1.0711  0.8467
 1081SOL    HW2 4966   1.884   1.997   7.197  1.4054  1.4213  2.6816
 1082SOL     OW 4967   4.204   2.881   9.213 -0.3414  0.3098 -0.7690
 1082SOL    HW1 4968   4.140   2.843   9.154 -0.6788 -0.9308  0.3382
 1082SOL    HW2 4969   4.189   2.836   9.296  1.2648  0.7542 -0.2057
 1083SOL     OW 4970   3.055   8.916   0.785 -0.1653  0.3639 -0.2283
 1083SOL    HW1 4971   3.099   8.857   0.845  1.8298 -0.1280 -2.0665
 1083SOL    HW2 4972   3.110   8.994   0.783 -2.3488  2.0693  1.5642
 1084SOL     OW 4973   1.935   2.340   0.382  0.4867  0.2028  0.6980
 1084SOL    HW1 4974   1.916   2.394   0.305  0.4797  0.0326  0.5805
 1084SOL    HW2 4975   1.868   2.365   0.446 -1.0796 -1.4501 -0.2160
 1085SOL     OW 4976   6.055   0.520   2.199  0.6962  0.2956 -0.0256
 1085SOL    HW1 4977   6.020   0.558   2.280  1.0938 -0.2298  0.4046
 1085SOL    HW2 4978   6.139   0.563   2.186  0.9043 -0.0516  0.1689
 1086SOL     OW 4979   0.009   5.986   5.929 -0.0852  0.5183 -0.6448
 1086SOL    HW1 4980   0.072   5.916   5.948  0.8342  1.3905 -0.3486
 1086SOL    HW2 4981  -0.039   5.998   6.011 -0.9710 -0.4615 -1.0074
 1087SOL     OW 4982   9.337   6.908   2.917  0.5588 -0.5706  0.2505
 1087SOL    HW1 4983   9.266   6.926   2.978  0.3894 -0.3622 -0.0045
 1087SOL    HW2 4984   9.294   6.897   2.832  0.8296 -0.4386  0.0946
 1088SOL     OW 4985   5.098   5.580   0.278  0.2170 -0.1369 -0.1959
 1088SOL    HW1 4986   5.059   5.643   0.217  1.2044  0.4730 -0.2213
 1088SOL    HW2 4987   5.173   5.543   0.231 -0.4205 -1.4444 -0.2224
 1089SOL     OW 4988   6.201   0.351   7.653  0.1372 -0.8063 -0.5094
 1089SOL    HW1 4989   6.296   0.361   7.659  0.3243 -2.6234  0.2287
 1089SOL    HW2 4990   6.171   0.431   7.612  1.8093  0.5792  0.8146
 1090SOL     OW 4991   8.780   7.881   0.976 -0.0781  0.0493 -0.8489
 1090SOL    HW1 4992   8.809   7.872   1.067  0.4387  0.1281 -1.0026
 1090SOL    HW2 4993   8.861   7.889   0.926 -0.2499 -2.2514 -1.5871
 1091SOL     OW 4994   1.865   4.030   5.891  0.6773  0.2645 -0.1816
 1091SOL    HW1 4995   1.900   3.945   5.866 -0.1212  0.3074 -1.5705
 1091SOL    HW2 4996   1.772   4.014   5.909  0.4466  0.8711 -0.7627
 1092SOL     OW 4997   5.077   7.525   5.115 -0.7794  0.5735 -0.4078
 1092SOL    HW1 4998   5.118   7.610   5.130  1.2414 -0.7483  2.3844
 1092SOL    HW2 4999   5.112   7.496   5.031  1.1812  1.1026  0.1876
 1093SOL     OW 5000   2.254   2.615   4.064 -0.1122 -0.5306  0.2501
 1093SOL    HW1 5001   2.270   2.535   4.114 -1.0426  0.0218  1.4672
 1093SOL    HW2 5002   2.262   2.588   3.973 -0.2301 -1.9763  0.6474
 1094SOL     OW 5003   4.272   6.182   3.509 -0.1155 -0.1476 -0.0425
 1094SOL    HW1 5004   4.198   6.217   3.461 -0.2496 -0.4159 -0.0349
 1094SOL    HW2 5005   4.295   6.101   3.463  2.0678  1.3849 -1.8727
 1095SOL     OW 5006   5.382   1.337   0.495  0.2739  0.3699 -0.3641
 1095SOL    HW1 5007   5.427   1.266   0.450 -0.3099  0.4163 -1.0362
 1095SOL    HW2 5008   5.406   1.415   0.445  0.8849  0.6550  0.3501
 1096SOL     OW 5009   4.019   6.983   8.326 -0.2145  0.1176  0.2669
 1096SOL    HW1 5010   3.962   6.940   8.263 -0.0555  1.7581 -1.0640
 1096SOL    HW2 5011   3.964   7.052   8.364 -0.3952 -0.9951  2.1876
 1097SOL     OW 5012   6.573   0.782   7.779  0.5464  0.1053 -0.0709
 1097SOL    HW1 5013   6.503   0.793   7.843 -1.0666 -2.4628 -1.1998
 1097SOL    HW2 5014   6.640   0.731   7.824  0.1375 -0.3279  0.0542
 1098SOL     OW 5015   6.307   7.581   5.331 -0.1157 -1.1421 -0.1533
 1098SOL    HW1 5016   6.344   7.562   5.417  0.3999 -0.1302 -0.1381
 1098SOL    HW2 5017   6.380   7.616   5.280 -0.9346  0.6145 -0.2210
 1099SOL     OW 5018   2.690   2.067   0.275  0.3022 -0.5368  0.1942
 1099SOL    HW1 5019   2.703   2.084   0.369 -0.3889 -3.7317  0.9829
 1099SOL    HW2 5020   2.610   2.115   0.253  0.0933 -0.2795  1.4254
 1100SOL     OW 5021   9.081   8.329   5.541  0.9985 -0.0229 -0.3818
 1100SOL    HW1 5022   9.122   8.286   5.466 -0.1133 -3.3597  0.7253
 1100SOL    HW2 5023   9.154   8.357   5.596  1.8046 -0.6977 -1.0731
 1101SOL     OW 5024   2.185   2.036   5.809  0.1631 -0.3816  0.1651
 1101SOL    HW1 5025   2.249   2.060   5.876  0.8882  0.2343 -0.7217
 1101SOL    HW2 5026   2.218   2.075   5.728 -0.0875 -2.0440 -0.7991
 1102SOL     OW 5027   2.429   2.992   7.802  0.0722 -0.2667 -0.3564
 1102SOL    HW1 5028   2.371   2.999   7.726  0.2494  1.6509 -0.3694
 1102SOL    HW2 5029   2.517   2.988   7.764  0.0938 -0.5785 -0.2742
 1103SOL     OW 5030   4.167   2.383   5.958  0.1786  0.0784  0.6015
 1103SOL    HW1 5031   4.151   2.449   5.891 -0.8578  0.4637  1.2015
 1103SOL    HW2 5032   4.188   2.433   6.037 -0.8383 -0.2830  1.1175
 1104SOL     OW 5033   4.957   5.005   6.576 -0.1520  0.2701 -0.0240
 1104SOL    HW1 5034   4.924   4.953   6.503 -0.3523 -0.3674  0.5179
 1104SOL    HW2 5035   4.986   4.941   6.641 -0.7394  0.8296  0.8023
 1105SOL     OW 5036   7.276   6.759   3.224 -0.2158 -0.4880  0.1598
 1105SOL    HW1 5037   7.257   6.788   3.313  1.9901  0.6024  0.3378
 1105SOL    HW2 5038   7.293   6.666   3.232  2.0829 -0.0398  1.3299
 1106SOL     OW 5039   0.717   3.776   2.471 -0.1578  0.3712 -0.0154
 1106SOL    HW1 5040   0.806   3.804   2.490  0.6247 -0.4719 -2.1393
 1106SOL    HW2 5041   0.677   3.763   2.557  1.4500  1.6547  0.9904
 1107SOL     OW 5042   1.971   6.213   5.387 -0.9215 -0.3606 -0.1537
 1107SOL    HW1 5043   1.972   6.259   5.303 -0.6103  2.0379  1.0663
 1107SOL    HW2 5044   1.879   6.211   5.412 -1.2427 -2.6338 -1.2660
 1108SOL     OW 5045   7.526   4.362   6.865  0.3172  0.1130 -0.0676
 1108SOL    HW1 5046   7.468   4.323   6.929 -1.1224 -0.7196 -1.7858
 1108SOL    HW2 5047   7.472   4.423   6.816  1.2319  0.3690 -0.8086
 1109SOL     OW 5048   5.355   6.184   5.031 -0.0279 -0.0156 -0.4029
 1109SOL    HW1 5049   5.423   6.135   5.077  0.3021  0.3159 -0.5285
 1109SOL    HW2 5050   5.393   6.271   5.017 -0.4583  0.1580 -0.5211
 1110SOL     OW 5051   4.385   6.971   7.607 -0.0928 -0.0200 -0.2079
 1110SOL    HW1 5052   4.340   6.938   7.684 -0.3174 -0.6336 -0.5957
 1110SOL    HW2 5053   4.475   6.986   7.637 -0.1228 -0.4571  0.1234
 1111SOL     OW 5054   4.602   1.904   0.745  0.5789  0.1760 -0.4135
 1111SOL    HW1 5055   4.592   1.809   0.750 -1.3201  0.4025  0.5323
 1111SOL    HW2 5056   4.610   1.932   0.836  2.3626  0.8576 -0.7307
 1112SOL     OW 5057   1.638   7.784   6.717  0.1683 -0.3714 -0.6554
 1112SOL    HW1 5058   1.618   7.875   6.697  0.3891 -0.4077 -1.0661
 1112SOL    HW2 5059   1.729   7.784   6.747  0.9394 -0.7133 -2.7906
 1113SOL     OW 5060   2.533   7.309   2.502 -0.0627 -0.8401 -0.1907
 1113SOL    HW1 5061   2.560   7.365   2.430  0.3823  0.5006  0.9703
 1113SOL    HW2 5062   2.548   7.362   2.580 -1.1048 -2.0263  0.8515
 1114SOL     OW 5063   8.526   0.719   5.688 -0.5240  0.3812  0.5097
 1114SOL    HW1 5064   8.435   0.702   5.661 -0.3571 -0.2315  0.3058
 1114SOL    HW2 5065   8.578   0.701   5.610 -0.1097 -0.6286  1.0017
 1115SOL     OW 5066   8.565   0.497   0.397 -0.5086  0.1979 -0.2786
 1115SOL    HW1 5067   8.569   0.577   0.343  0.8299 -0.1055 -0.6763
 1115SOL    HW2 5068   8.532   0.527   0.481 -1.7988  0.8411 -0.9884
 1116SOL     OW 5069   5.711   6.402   1.513  0.3844 -0.4252  0.0731
 1116SOL    HW1 5070   5.664   6.401   1.596  2.2363 -1.0437  1.1477
 1116SOL    HW2 5071   5.701   6.314   1.478  1.1083 -0.6913  0.5250
 1117SOL     OW 5072   7.794   2.412   5.512 -0.1901 -0.6670 -0.0081
 1117SOL    HW1 5073   7.861   2.426   5.445 -0.2123 -1.0375 -0.1098
 1117SOL    HW2 5074   7.806   2.483   5.574  0.0677 -0.5300 -0.2159
 1118SOL     OW 5075   1.516   0.295   7.960 -0.0766 -0.2416 -0.6759
 1118SOL    HW1 5076   1.519   0.309   7.866 -0.1325 -0.1398 -0.6629
 1118SOL    HW2 5077   1.428   0.322   7.986 -0.4309 -1.3034 -0.7543
 1119SOL     OW 5078   6.858   6.964   3.867  0.3014  0.4577 -0.4301
 1119SOL    HW1 5079   6.793   6.906   3.827 -1.4731  0.2802  2.3834
 1119SOL    HW2 5080   6.932   6.907   3.887  0.1188 -0.0108 -1.0692
 1120SOL     OW 5081   2.182   2.633   5.545  0.2944 -0.3789  0.0011
 1120SOL    HW1 5082   2.109   2.681   5.585  0.7643  0.3508 -0.0077
 1120SOL    HW2 5083   2.208   2.570   5.611 -0.7245 -1.0505 -0.2166
 1121SOL     OW 5084   2.681   2.416   9.081  0.5873 -0.0389 -0.1552
 1121SOL    HW1 5085   2.708   2.451   8.996  0.8757  0.6613  0.2159
 1121SOL    HW2 5086   2.762   2.409   9.131  0.2076  1.6260  0.8021
 1122SOL     OW 5087   6.696   4.157   7.859 -0.4342  0.0437 -0.9032
 1122SOL    HW1 5088   6.782   4.197   7.871  0.0155 -1.3580  1.2250
 1122SOL    HW2 5089   6.652   4.171   7.943 -1.2965 -1.4568 -1.0751
 1123SOL     OW 5090   2.412   0.771   6.470  0.0077  0.2492  0.2946
 1123SOL    HW1 5091   2.489   0.716   6.482 -0.0031  0.3510  0.8821
 1123SOL    HW2 5092   2.420   0.806   6.381  0.7294  0.3975  0.4124
 1124SOL     OW 5093   1.828   3.140   0.773  0.1734 -0.5155  0.3377
 1124SOL    HW1 5094   1.796   3.050   0.776  1.2328 -1.0296 -2.0465
 1124SOL    HW2 5095   1.899   3.139   0.709  1.2939  1.7100  1.4179
 1125SOL     OW 5096   2.736   8.438   8.816  0.1246 -0.2645  0.4056
 1125SOL    HW1 5097   2.739   8.367   8.879 -0.3095 -0.1711  0.5389
 1125SOL    HW2 5098   2.822   8.439   8.775 -0.4506 -2.0952 -0.9621
 1126SOL     OW 5099   1.410   6.221   5.757 -0.0222 -0.2372  0.8040
 1126SOL    HW1 5100   1.389   6.131   5.784  2.8046 -1.2028  0.1138
 1126SOL    HW2 5101   1.452   6.259   5.834  0.8417 -0.3064  0.3774
 1127SOL     OW 5102   5.246   2.882   7.756  0.5676 -0.2663  0.1249
 1127SOL    HW1 5103   5.203   2.966   7.739  0.7816  0.1194  1.3421
 1127SOL    HW2 5104   5.195   2.818   7.706 -0.6372  0.3570  0.5098
 1128SOL     OW 5105   7.047   6.180   1.038  0.1559  0.8230 -0.0814
 1128SOL    HW1 5106   7.123   6.123   1.047 -1.6232 -1.4485  1.8965
 1128SOL    HW2 5107   6.996   6.140   0.968 -0.5101  0.6967  0.4705
 1129SOL     OW 5108   1.581   5.540   6.240  0.4276  0.9504  0.1948
 1129SOL    HW1 5109   1.612   5.628   6.262  0.0149  1.4575 -1.1435
 1129SOL    HW2 5110   1.652   5.502   6.188  0.0308  1.0253 -0.4108
 1130SOL     OW 5111   6.753   6.139   2.753  0.3374 -0.0877 -0.4049
 1130SOL    HW1 5112   6.742   6.049   2.785 -1.0531  0.4155  0.6054
 1130SOL    HW2 5113   6.790   6.128   2.665 -1.4027 -1.7169 -1.0025
 1131SOL     OW 5114   1.122   6.837   9.286  0.1150 -0.1713  0.0840
 1131SOL    HW1 5115   1.160   6.814   9.371  0.1142 -1.9168 -0.3433
 1131SOL    HW2 5116   1.066   6.762   9.264  1.7267 -0.7527 -2.4055
 1132SOL     OW 5117   2.930   2.572   7.850  0.1789  0.5559  0.4429
 1132SOL    HW1 5118   2.844   2.587   7.812  1.1051  0.7178 -1.7200
 1132SOL    HW2 5119   2.915   2.505   7.917 -1.4123 -0.4410 -0.8442
 1133SOL     OW 5120   2.382   1.423   7.409  0.2456  0.8241 -0.0980
 1133SOL    HW1 5121   2.426   1.442   7.325  1.0451 -0.0857  0.1042
 1133SOL    HW2 5122   2.446   1.450   7.475  0.2609  0.0424  0.2057
 1134SOL     OW 5123   9.563   7.009   8.224 -0.0129 -0.3810 -0.2132
 1134SOL    HW1 5124   9.534   7.065   8.297 -0.2359  1.5901 -1.7373
 1134SOL    HW2 5125   9.485   6.959   8.200 -0.4480  0.3241 -0.2886
 1135SOL     OW 5126   0.690   4.974   0.664  0.2744  0.1731 -0.2635
 1135SOL    HW1 5127   0.758   5.040   0.676  0.7324  0.1845 -2.4009
 1135SOL    HW2 5128   0.626   5.016   0.606 -0.1877 -0.7376 -0.4403
 1136SOL     OW 5129   5.162   7.549   2.126 -0.4040 -0.1430 -0.1205
 1136SOL    HW1 5130   5.170   7.489   2.201  0.4286 -1.0433 -0.8973
 1136SOL    HW2 5131   5.077   7.591   2.138 -0.8725 -1.2355  0.6373
 1137SOL     OW 5132   7.419   4.614   7.110 -0.7525 -0.1626  0.0550
 1137SOL    HW1 5133   7.466   4.692   7.142 -0.4055 -0.4881  0.3437
 1137SOL    HW2 5134   7.437   4.613   7.016  1.7319 -1.5315  0.4592
 1138SOL     OW 5135   5.883   4.917   3.512 -0.3048 -0.5381 -0.0133
 1138SOL    HW1 5136   5.821   4.954   3.575 -1.4432  0.1316 -1.4658
 1138SOL    HW2 5137   5.831   4.855   3.460  0.4312 -0.5538 -0.7521
 1139SOL     OW 5138   3.443   7.418   2.304 -0.3700  0.0335  0.2127
 1139SOL    HW1 5139   3.468   7.375   2.222  0.5280  0.2380  0.3637
 1139SOL    HW2 5140   3.502   7.380   2.369 -0.4072  0.5931  0.5783
 1140SOL     OW 5141   6.801   1.616   2.811 -0.6570  0.0587 -0.4326
 1140SOL    HW1 5142   6.811   1.710   2.792 -1.4579  0.2616  0.1000
 1140SOL    HW2 5143   6.826   1.573   2.730  0.4696  0.6893 -0.4573
 1141SOL     OW 5144   3.076   0.709   8.788 -0.0319 -0.3193  0.0166
 1141SOL    HW1 5145   3.123   0.669   8.715  0.5114  0.2937  0.0210
 1141SOL    HW2 5146   3.139   0.709   8.860  0.0470  0.7206 -0.0414
 1142SOL     OW 5147   8.329   6.518   1.515  0.2918 -0.1963 -0.7722
 1142SOL    HW1 5148   8.411   6.532   1.562 -0.0503 -1.0629  0.1342
 1142SOL    HW2 5149   8.317   6.596   1.462  1.1713  0.3978 -0.1150
 1143SOL     OW 5150   9.371   3.081   0.275 -0.6825  0.1140  0.3641
 1143SOL    HW1 5151   9.392   3.173   0.292 -2.3770  0.3124  1.6715
 1143SOL    HW2 5152   9.278   3.082   0.251 -0.8347 -1.2959  0.8152
 1144SOL     OW 5153   3.335   4.793   1.367  0.2810  1.0370  0.3777
 1144SOL    HW1 5154   3.356   4.885   1.381 -0.5263  1.3324 -0.2514
 1144SOL    HW2 5155   3.400   4.745   1.419  0.9918  1.9445  0.3515
 1145SOL     OW 5156   3.710   9.665   0.067  0.0597 -0.4562  0.0162
 1145SOL    HW1 5157   3.657   9.730   0.020 -0.1089 -0.1989  0.5498
 1145SOL    HW2 5158   3.722   9.703   0.154  1.1603 -0.4870 -0.1089
 1146SOL     OW 5159   0.886   6.558   7.094 -0.0152 -0.2672 -0.1579
 1146SOL    HW1 5160   0.904   6.602   7.011  0.7809  1.1774  0.7500
 1146SOL    HW2 5161   0.808   6.504   7.076 -0.1697  0.4155 -1.6807
 1147SOL     OW 5162   7.643   9.099   3.680 -0.1191  0.2953 -0.7575
 1147SOL    HW1 5163   7.565   9.152   3.667 -1.1955 -0.1948  2.5825
 1147SOL    HW2 5164   7.698   9.151   3.738  1.3029 -0.0727 -1.7368
 1148SOL     OW 5165   5.372   6.304   5.644 -0.1184  0.0836 -0.2998
 1148SOL    HW1 5166   5.328   6.257   5.715  2.0032  0.0806  1.1253
 1148SOL    HW2 5167   5.341   6.262   5.564 -0.1810 -2.0942  0.7901
 1149SOL     OW 5168   8.724   3.744   0.242 -0.3820  0.2200 -0.0515
 1149SOL    HW1 5169   8.749   3.813   0.181 -2.9330  0.1858 -1.2479
 1149SOL    HW2 5170   8.670   3.684   0.190  0.3057 -1.7713  1.3830
 1150SOL     OW 5171   5.538   5.335   2.661 -0.1721  0.1198 -0.5509
 1150SOL    HW1 5172   5.468   5.271   2.676  0.6855 -0.8492 -0.5177
 1150SOL    HW2 5173   5.512   5.382   2.582 -0.2507 -1.1218 -1.2851
 1151SOL     OW 5174   0.181   8.173   7.717 -0.2114 -0.8313  0.3691
 1151SOL    HW1 5175   0.094   8.210   7.730  0.3532  0.8643 -0.3483
 1151SOL    HW2 5176   0.238   8.226   7.773  0.9461  0.8678 -2.2508
 1152SOL     OW 5177   3.219   0.878   7.572  0.3646 -0.5014 -0.1334
 1152SOL    HW1 5178   3.314   0.870   7.562  0.3407  0.6907 -1.6077
 1152SOL    HW2 5179   3.204   0.865   7.666  2.1495  0.6333  0.3658
 1153SOL     OW 5180   7.449   7.153   0.536  0.9410  0.1035 -0.3194
 1153SOL    HW1 5181   7.482   7.139   0.625  0.2609 -0.2077 -0.1099
 1153SOL    HW2 5182   7.462   7.246   0.520 -0.7082  0.5883  0.8534
 1154SOL     OW 5183   4.200   8.833   8.504  0.1979  0.0545  0.3977
 1154SOL    HW1 5184   4.210   8.738   8.499  0.9744  0.0800  1.2551
 1154SOL    HW2 5185   4.165   8.849   8.592 -1.1354  0.4894 -0.1761
 1155SOL     OW 5186   0.450   5.322   0.592  0.3566  0.1388 -0.3419
 1155SOL    HW1 5187   0.375   5.377   0.618 -0.6738 -0.8371 -1.1305
 1155SOL    HW2 5188   0.458   5.259   0.663 -0.9050 -1.0106 -1.1585
 1156SOL     OW 5189   9.119   4.216   8.075  0.1944 -0.0658  0.7869
 1156SOL    HW1 5190   9.119   4.298   8.123 -0.8106  0.3184  0.1716
 1156SOL    HW2 5191   9.069   4.235   7.995 -1.6527 -1.7196  1.4562
 1157SOL     OW 5192   5.714   7.927   5.269  0.0671 -0.1487  0.0622
 1157SOL    HW1 5193   5.765   8.007   5.257 -1.3011  0.7381  0.0484
 1157SOL    HW2 5194   5.776   7.857   5.249  1.0755  0.9184 -0.6887
 1158SOL     OW 5195   9.267   4.126   6.325  0.2993 -0.1224  0.4149
 1158SOL    HW1 5196   9.248   4.174   6.406 -1.9868  0.6773 -0.5154
 1158SOL    HW2 5197   9.324   4.184   6.275 -1.7319  1.3795 -0.3166
 1159SOL     OW 5198   0.115   7.160   6.060 -0.0912  0.0875  0.2638
 1159SOL    HW1 5199   0.206   7.189   6.065 -0.0208  0.0314 -0.5986
 1159SOL    HW2 5200   0.119   7.065   6.071 -0.0368  0.0800  0.1829
 1160SOL     OW 5201   8.094   6.980   4.837 -0.1581  0.3369 -0.2543
 1160SOL    HW1 5202   8.020   6.934   4.797  0.2014  0.3356 -0.9283
 1160SOL    HW2 5203   8.171   6.951   4.787  0.7451 -1.8663  2.2121
 1161SOL     OW 5204   4.906   3.658   5.596  0.1711  0.0397 -0.8574
 1161SOL    HW1 5205   4.969   3.699   5.656  0.1181 -0.4224 -0.4851
 1161SOL    HW2 5206   4.937   3.683   5.509  0.8664 -0.1750 -0.6777
 1162SOL     OW 5207   4.656   8.173   2.756 -0.0350  0.2053  0.6446
 1162SOL    HW1 5208   4.613   8.196   2.838  0.7274  0.6965  0.9191
 1162SOL    HW2 5209   4.683   8.257   2.719  1.4155 -0.1203  0.8909
 1163SOL     OW 5210   1.750   7.336   5.989 -0.4611  0.2807  0.2986
 1163SOL    HW1 5211   1.765   7.350   6.082 -3.7133 -0.8257  1.1285
 1163SOL    HW2 5212   1.656   7.317   5.982  0.1846 -3.0049 -2.7609
 1164SOL     OW 5213   4.985   9.536   1.237 -0.0594 -0.1714 -0.2373
 1164SOL    HW1 5214   4.906   9.483   1.239  0.4053 -0.9382 -1.4812
 1164SOL    HW2 5215   5.048   9.484   1.188  0.0038  2.0452 -2.7300
 1165SOL     OW 5216   8.588   6.412   6.196  0.5633 -1.0841 -0.1523
 1165SOL    HW1 5217   8.655   6.414   6.127  0.0192 -0.2022 -0.6848
 1165SOL    HW2 5218   8.569   6.505   6.213 -1.2836 -1.2977 -0.7972
 1166SOL     OW 5219   1.709   8.296   4.133  0.3354  0.0366 -0.1279
 1166SOL    HW1 5220   1.665   8.247   4.063 -1.0024  2.1818 -0.9114
 1166SOL    HW2 5221   1.654   8.283   4.210  0.4108 -0.2833 -0.1249
 1167SOL     OW 5222   4.876   2.227   5.651 -0.3217  0.2312 -0.6157
 1167SOL    HW1 5223   4.878   2.162   5.580 -0.5140 -0.6445  0.1685
 1167SOL    HW2 5224   4.941   2.197   5.714 -0.8394  0.4684  0.0427
 1168SOL     OW 5225   1.909   9.456   8.081 -0.1600  0.7042 -0.2234
 1168SOL    HW1 5226   1.981   9.393   8.078 -1.0302 -0.4544  1.5755
 1168SOL    HW2 5227   1.831   9.403   8.100 -1.2955  2.0735 -0.8391
 1169SOL     OW 5228   6.387   7.431   9.453 -0.0402  0.5838  0.1901
 1169SOL    HW1 5229   6.452   7.382   9.404 -1.1368  1.5686 -2.4349
 1169SOL    HW2 5230   6.437   7.492   9.507  1.2261 -0.7508  0.5617
 1170SOL     OW 5231   5.867   7.200   3.852 -0.1423  0.2779  0.4748
 1170SOL    HW1 5232   5.778   7.179   3.824 -0.6024 -0.4890  2.3935
 1170SOL    HW2 5233   5.918   7.122   3.831 -0.6855 -0.6880  2.4645
 1171SOL     OW 5234   1.174   3.975   2.710 -0.1031 -0.2623 -0.1481
 1171SOL    HW1 5235   1.166   4.033   2.786 -0.0454 -0.7751  0.2573
 1171SOL    HW2 5236   1.259   3.932   2.722 -0.7898 -1.5341  0.3648
 1172SOL     OW 5237   2.022   6.632   9.675  0.0856 -0.7940  0.1542
 1172SOL    HW1 5238   2.020   6.720   9.637 -0.7985  0.3688  2.7055
 1172SOL    HW2 5239   2.112   6.620   9.705  0.1554 -0.6688 -0.0065
 1173SOL     OW 5240   6.411   6.398   4.480  0.1304 -0.3110 -0.2370
 1173SOL    HW1 5241   6.470   6.368   4.412  2.7693 -0.3797  1.9009
 1173SOL    HW2 5242   6.373   6.318   4.516  0.3008 -0.4364 -0.3360
 1174SOL     OW 5243   5.212   4.195   3.893 -0.3170 -0.5694  0.3828
 1174SOL    HW1 5244   5.173   4.109   3.878 -0.8693 -0.4152  0.8984
 1174SOL    HW2 5245   5.302   4.187   3.862 -0.6350 -1.0593 -0.4263
 1175SOL     OW 5246   7.811   5.861   5.611  0.4939  0.7388 -0.2398
 1175SOL    HW1 5247   7.795   5.948   5.576  0.5266  0.6069 -0.5980
 1175SOL    HW2 5248   7.903   5.843   5.590  0.5234  0.6707 -0.0545
 1176SOL     OW 5249   4.324   1.637   1.413  0.3993 -0.4563  0.1192
 1176SOL    HW1 5250   4.287   1.669   1.496  2.2068  0.3954  0.6470
 1176SOL    HW2 5251   4.372   1.712   1.378  1.6149 -1.4993 -0.5107
 1177SOL     OW 5252   5.109   2.328   0.835  0.8307 -0.7737 -0.2430
 1177SOL    HW1 5253   5.034   2.275   0.864  0.4429  0.1131  0.3944
 1177SOL    HW2 5254   5.175   2.316   0.904  0.7063 -0.3513 -0.0504
 1178SOL     OW 5255   9.590   6.927   1.972 -0.3714 -0.1396  0.4688
 1178SOL    HW1 5256   9.646   6.983   2.025  1.1150 -0.1660 -0.9919
 1178SOL    HW2 5257   9.503   6.963   1.982  0.5382  2.5459 -0.5008
 1179SOL     OW 5258   5.776   5.636   2.508 -0.0991  0.2213  0.0873
 1179SOL    HW1 5259   5.711   5.567   2.497 -1.2945  1.2290  0.5426
 1179SOL    HW2 5260   5.858   5.590   2.525 -1.0500 -1.0716  1.3882
 1180SOL     OW 5261   0.952   1.723   2.385  0.5794  0.2007 -0.5339
 1180SOL    HW1 5262   0.940   1.629   2.387  0.6157  0.2005 -0.2647
 1180SOL    HW2 5263   1.031   1.737   2.332 -1.3831  0.2884 -3.7047
 1181SOL     OW 5264   7.628   4.574   2.020  0.0134  0.7538 -0.0295
 1181SOL    HW1 5265   7.694   4.638   2.047 -0.6829  1.1425  0.7863
 1181SOL    HW2 5266   7.561   4.625   1.975  0.1711  0.3831 -0.7077
 1182SOL     OW 5267   3.901   7.462   9.668  0.0498 -0.0841 -0.2666
 1182SOL    HW1 5268   3.889   7.533   9.605 -0.8168 -1.1189 -1.3257
 1182SOL    HW2 5269   3.996   7.451   9.674  0.1912  1.0946 -0.1459
 1183SOL     OW 5270   8.380   0.139   8.967  0.2924  0.1575  0.1564
 1183SOL    HW1 5271   8.427   0.184   8.897  1.4391  0.5808  1.1588
 1183SOL    HW2 5272   8.417   0.051   8.967  1.1648  0.5130  0.9955
 1184SOL     OW 5273   4.760   8.728   0.084  0.0429  0.2556 -0.1282
 1184SOL    HW1 5274   4.788   8.646   0.042 -0.2290 -0.1498  0.4630
 1184SOL    HW2 5275   4.835   8.755   0.135  0.2868  0.6160 -0.6708
 1185SOL     OW 5276   5.207   4.300   2.198 -0.1626  0.3893 -0.4228
 1185SOL    HW1 5277   5.121   4.330   2.227 -0.3526 -0.2482 -0.3139
 1185SOL    HW2 5278   5.194   4.274   2.106  0.0339  0.7747 -0.5615
 1186SOL     OW 5279   1.310   5.297   8.810  0.3724 -0.5342 -0.5552
 1186SOL    HW1 5280   1.275   5.330   8.727 -0.4286 -1.0322 -0.4252
 1186SOL    HW2 5281   1.282   5.362   8.874 -1.1675 -1.4117 -0.3052
 1187SOL     OW 5282   8.180   9.560   8.494 -0.0468 -0.6589 -0.1306
 1187SOL    HW1 5283   8.141   9.614   8.563  1.6304 -0.7689  0.9667
 1187SOL    HW2 5284   8.182   9.472   8.531  0.8882 -0.7143 -0.2828
 1188SOL     OW 5285   4.325   6.332   3.033 -0.6447  1.3359  0.1663
 1188SOL    HW1 5286   4.351   6.343   2.941  0.3912 -0.8045  0.1232
 1188SOL    HW2 5287   4.243   6.381   3.041  0.0241  2.8196 -1.4843
 1189SOL     OW 5288   8.820   3.324   6.956 -0.1735 -0.3632 -0.2918
 1189SOL    HW1 5289   8.759   3.365   7.017 -0.7387 -1.0860 -0.3590
 1189SOL    HW2 5290   8.892   3.293   7.011 -0.8232 -1.2820  0.0660
 1190SOL     OW 5291   7.461   6.780   0.854 -0.2350  0.3798  0.5859
 1190SOL    HW1 5292   7.395   6.793   0.786  0.0590  0.0736  0.2330
 1190SOL    HW2 5293   7.522   6.853   0.841  0.5098 -0.3675 -0.3155
 1191SOL     OW 5294   6.449   1.135   0.257  0.4417 -0.2016 -0.1103
 1191SOL    HW1 5295   6.494   1.124   0.341  0.0273  0.3667  0.1943
 1191SOL    HW2 5296   6.434   1.046   0.226 -1.4977 -0.5248  1.5510
 1192SOL     OW 5297   0.776   5.772   9.495 -0.4103 -0.0559  0.1292
 1192SOL    HW1 5298   0.689   5.744   9.525  0.1744 -1.5975  0.4788
 1192SOL    HW2 5299   0.766   5.783   9.401 -1.7635  2.9180  0.5095
 1193SOL     OW 5300   9.658   9.102   5.096  0.2017  0.1971  0.0340
 1193SOL    HW1 5301   9.739   9.060   5.067 -0.5062 -0.9629 -0.3455
 1193SOL    HW2 5302   9.590   9.062   5.042 -0.5632  1.5593 -0.0442
 1194SOL     OW 5303   7.004   6.611   7.721 -0.1713 -0.3624  0.4091
 1194SOL    HW1 5304   7.031   6.568   7.640  0.2873 -1.8252  1.2861
 1194SOL    HW2 5305   6.960   6.542   7.770  0.0535  0.3470  1.6408
 1195SOL     OW 5306   2.923   7.890   0.227  0.1628  0.0845  0.2002
 1195SOL    HW1 5307   3.012   7.891   0.194  0.9716 -1.1469  2.1814
 1195SOL    HW2 5308   2.882   7.968   0.190  1.6806  0.0630 -1.6698
 1196SOL     OW 5309   8.238   7.555   2.067  0.0653  0.7912  0.0040
 1196SOL    HW1 5310   8.216   7.467   2.036  1.7284  1.1372 -2.4853
 1196SOL    HW2 5311   8.228   7.550   2.162 -0.2853 -1.9686 -0.0918
 1197SOL     OW 5312   5.365   7.324   4.652  0.0044  0.0087 -0.2238
 1197SOL    HW1 5313   5.354   7.306   4.558  0.4136  2.4384 -0.8080
 1197SOL    HW2 5314   5.276   7.335   4.685 -0.1013  0.3875 -0.6219
 1198SOL     OW 5315   7.016   1.664   8.460 -0.0349  0.1303  0.2708
 1198SOL    HW1 5316   7.094   1.609   8.446 -0.5415 -0.5999  0.2442
 1198SOL    HW2 5317   7.045   1.752   8.437  0.7905 -0.1298  0.2709
 1199SOL     OW 5318   3.687   8.177   5.241 -0.1416  0.5240 -0.7296
 1199SOL    HW1 5319   3.634   8.144   5.314  0.8121  0.8583  0.1483
 1199SOL    HW2 5320   3.638   8.153   5.163 -1.2652  0.2671  0.0247
 1200SOL     OW 5321   5.747   7.228   4.138 -0.3699  0.4728 -0.2551
 1200SOL    HW1 5322   5.782   7.142   4.162 -1.4284  0.2456  0.5504
 1200SOL    HW2 5323   5.751   7.229   4.043 -0.0670 -0.3584 -0.2647
 1201SOL     OW 5324   2.007   6.394   4.843 -0.0117 -0.5671 -0.2330
 1201SOL    HW1 5325   2.001   6.303   4.815 -2.0193 -0.6020  0.1924
 1201SOL    HW2 5326   1.924   6.434   4.817  0.5275  0.9565  0.2433
 1202SOL     OW 5327   4.694   6.349   3.710 -0.0547 -0.2005 -0.1398
 1202SOL    HW1 5328   4.714   6.265   3.668 -1.9506 -1.5817  1.5024
 1202SOL    HW2 5329   4.598   6.357   3.704 -0.0303  1.2434  0.8389
 1203SOL     OW 5330   9.089   3.374   2.907  0.1146 -0.1454  0.2780
 1203SOL    HW1 5331   9.054   3.393   2.820  0.6571  0.9175  0.2709
 1203SOL    HW2 5332   9.153   3.304   2.893  1.1571  0.9016 -0.4149
 1204SOL     OW 5333   8.943   3.973   8.876 -0.3902  0.5376 -0.5058
 1204SOL    HW1 5334   8.848   3.978   8.885 -0.5268 -1.7623 -0.0619
 1204SOL    HW2 5335   8.958   3.908   8.808  0.8418 -0.1153  0.3371
 1205SOL     OW 5336   7.610   8.612   1.022 -0.2841  0.3379  0.6346
 1205SOL    HW1 5337   7.644   8.699   1.000  0.7825  0.3155  2.0569
 1205SOL    HW2 5338   7.523   8.629   1.057 -1.5550  0.4687 -2.3448
 1206SOL     OW 5339   2.501   7.118   8.878 -0.2531 -0.0281 -0.1526
 1206SOL    HW1 5340   2.562   7.053   8.844 -1.3528 -0.1003 -2.1580
 1206SOL    HW2 5341   2.458   7.153   8.800 -2.6349  0.1279  1.1434
 1207SOL     OW 5342   1.756   6.434   7.220 -0.5233  0.6169 -0.3996
 1207SOL    HW1 5343   1.687   6.403   7.162 -0.5832  0.0897 -0.0487
 1207SOL    HW2 5344   1.835   6.435   7.166 -0.3906 -0.7287 -0.2650
 1208SOL     OW 5345   3.862   0.659   2.089 -0.1427  0.1215  0.4735
 1208SOL    HW1 5346   3.949   0.655   2.050  0.0901  0.7855  0.9179
 1208SOL    HW2 5347   3.866   0.599   2.164 -0.1891 -0.1448  0.2635
 1209SOL     OW 5348   2.677   7.178   5.478  0.2071  0.6584 -0.0301
 1209SOL    HW1 5349   2.714   7.210   5.396 -0.0503  0.9876 -0.0220
 1209SOL    HW2 5350   2.681   7.083   5.472  0.6167  0.6891 -0.2264
 1210SOL     OW 5351   6.795   1.214   4.529 -0.3588 -0.4737 -0.0263
 1210SOL    HW1 5352   6.752   1.154   4.469  0.9940 -2.5387  0.9735
 1210SOL    HW2 5353   6.728   1.234   4.595 -1.8721  1.8698 -2.1093
 1211SOL     OW 5354   2.109   3.500   3.005  0.1036 -0.5286  0.0209
 1211SOL    HW1 5355   2.038   3.529   2.947 -0.1814 -0.3143  0.4714
 1211SOL    HW2 5356   2.103   3.557   3.081  1.4486  0.2284 -0.3963
 1212SOL     OW 5357   3.448   1.283   8.849  0.4346  0.8575 -0.1359
 1212SOL    HW1 5358   3.517   1.247   8.905 -1.3711 -0.1948  1.5588
 1212SOL    HW2 5359   3.436   1.372   8.882  1.2676  1.2201 -0.7653
 1213SOL     OW 5360   6.148   1.482   2.947 -0.4690 -0.0725 -0.2445
 1213SOL    HW1 5361   6.113   1.571   2.952 -1.3788 -0.4311  0.0800
 1213SOL    HW2 5362   6.231   1.485   2.995 -1.0603  0.3414  0.7858
 1214SOL     OW 5363   0.627   5.399   0.854 -0.8301  0.0361 -0.1166
 1214SOL    HW1 5364   0.701   5.443   0.896 -0.6834 -0.3032 -0.0146
 1214SOL    HW2 5365   0.576   5.470   0.814  1.0827  0.0881 -2.7011
 1215SOL     OW 5366   2.350   3.162   2.488 -0.4594 -0.4291 -0.2407
 1215SOL    HW1 5367   2.261   3.130   2.500 -1.8387  2.5902 -1.3517
 1215SOL    HW2 5368   2.374   3.197   2.574 -0.8515 -0.2144 -0.2131
 1216SOL     OW 5369   4.458   6.527   4.454 -0.0300  0.3356  0.3022
 1216SOL    HW1 5370   4.490   6.613   4.481  2.9699 -0.6493  0.2564
 1216SOL    HW2 5371   4.507   6.507   4.374 -2.3235 -0.5226 -1.0013
 1217SOL     OW 5372   6.384   6.568   2.311 -0.2930 -0.6408 -0.4635
 1217SOL    HW1 5373   6.427   6.491   2.348  1.2246  0.7287  0.7664
 1217SOL    HW2 5374   6.372   6.546   2.218  1.6560 -1.6900 -0.5135
 1218SOL     OW 5375   4.063   0.454   2.795  0.2020 -0.6832  0.3061
 1218SOL    HW1 5376   4.006   0.529   2.814 -0.9461 -0.7921 -2.2716
 1218SOL    HW2 5377   4.111   0.480   2.716  2.1461 -1.4758  1.1845
 1219SOL     OW 5378   3.867   6.191   1.593  0.2734 -0.5222 -0.2699
 1219SOL    HW1 5379   3.905   6.235   1.517 -2.1309  0.0043 -1.2555
 1219SOL    HW2 5380   3.818   6.117   1.557 -0.8783 -0.2899  0.7474
 1220SOL     OW 5381   4.263   2.009   3.894  0.5037 -0.2787 -0.0074
 1220SOL    HW1 5382   4.333   1.994   3.958  0.9872 -1.6939 -0.8138
 1220SOL    HW2 5383   4.284   1.950   3.821  0.4346  1.9024 -1.8810
 1221SOL     OW 5384   5.551   2.600   7.432 -0.5915  0.1746 -0.1902
 1221SOL    HW1 5385   5.599   2.541   7.374 -1.2634 -0.2484 -0.3354
 1221SOL    HW2 5386   5.567   2.687   7.397 -3.3939 -0.2349 -2.9282
 1222SOL     OW 5387   1.887   1.902   0.495 -0.2395 -0.4905  0.0764
 1222SOL    HW1 5388   1.848   1.966   0.555 -0.9436 -1.5168  0.7451
 1222SOL    HW2 5389   1.906   1.826   0.550  2.1583 -0.2671 -0.3530
 1223SOL     OW 5390   4.408   7.691   7.347  0.1585 -0.4539 -0.4168
 1223SOL    HW1 5391   4.381   7.678   7.438  1.4099  0.5050  0.1207
 1223SOL    HW2 5392   4.502   7.674   7.348  1.0419  3.5292 -0.6243
 1224SOL     OW 5393   0.012   0.900   3.230  0.2296 -0.1042  0.1332
 1224SOL    HW1 5394   0.036   0.910   3.323  1.2321 -1.6950  0.0823
 1224SOL    HW2 5395   0.019   0.806   3.214 -1.4452 -0.0361 -1.1885
 1225SOL     OW 5396   4.725   7.881   2.177 -0.8027 -0.0899 -0.0805
 1225SOL    HW1 5397   4.733   7.903   2.270  2.1298 -0.3777 -0.1687
 1225SOL    HW2 5398   4.631   7.867   2.163 -1.4442  1.0513  2.5600
 1226SOL     OW 5399   5.040   3.437   0.994  0.0179  0.7287  0.2698
 1226SOL    HW1 5400   5.067   3.396   1.076  0.8585  0.2999 -0.2171
 1226SOL    HW2 5401   5.077   3.525   0.997  2.6193 -0.2345 -0.9235
 1227SOL     OW 5402   8.364   7.478   2.407 -0.7577  0.4505 -0.8807
 1227SOL    HW1 5403   8.296   7.523   2.458  0.4111  0.9176  0.3192
 1227SOL    HW2 5404   8.400   7.546   2.351  0.5874  0.9241  0.4907
 1228SOL     OW 5405   2.589   1.882   5.233  0.4693 -1.0557 -0.3260
 1228SOL    HW1 5406   2.555   1.897   5.145  0.4543 -0.2761 -0.1947
 1228SOL    HW2 5407   2.625   1.794   5.230 -1.4172 -1.8785 -0.5139
 1229SOL     OW 5408   6.615   2.068   4.670  0.4658  0.7801  0.5286
 1229SOL    HW1 5409   6.598   2.108   4.756 -0.9926 -0.2389  0.7428
 1229SOL    HW2 5410   6.555   1.994   4.666  2.5191 -0.9629 -0.1792
 1230SOL     OW 5411   7.955   8.203   1.663 -0.4761  0.7106 -0.3443
 1230SOL    HW1 5412   8.014   8.129   1.669 -0.9076  0.3740 -0.2005
 1230SOL    HW2 5413   7.869   8.164   1.646 -0.8108  1.1386  0.3120
 1231SOL     OW 5414   0.442   5.712   7.696  0.1150  0.2800 -0.8412
 1231SOL    HW1 5415   0.432   5.763   7.616 -1.3465  1.6855  0.1657
 1231SOL    HW2 5416   0.376   5.643   7.689 -0.5273  0.8453 -0.5699
 1232SOL     OW 5417   3.357   0.570   9.215 -0.1471 -1.2142 -0.2639
 1232SOL    HW1 5418   3.411   0.545   9.140 -1.6204 -1.3724 -1.3152
 1232SOL    HW2 5419   3.273   0.596   9.176 -0.2862  0.6937  1.1709
 1233SOL     OW 5420   6.716   5.002   2.858  0.1884 -0.1376 -0.2671
 1233SOL    HW1 5421   6.653   4.980   2.790  0.6755 -3.4067  0.1709
 1233SOL    HW2 5422   6.664   5.048   2.924 -1.6459 -2.0799 -0.2434
 1234SOL     OW 5423   7.146   2.090   8.273 -0.2421 -0.1703 -0.6203
 1234SOL    HW1 5424   7.191   2.006   8.282 -0.5036 -0.1189  2.1134
 1234SOL    HW2 5425   7.198   2.139   8.209  0.9848 -1.7361 -0.8746
 1235SOL     OW 5426   3.871   6.931   7.117  0.2242 -0.0925 -0.2860
 1235SOL    HW1 5427   3.809   6.862   7.140  0.1509  0.4425  1.2475
 1235SOL    HW2 5428   3.832   7.011   7.152  0.2970  0.7643 -2.0551
 1236SOL     OW 5429   1.375   5.712   0.510  0.1215 -0.8526 -0.0749
 1236SOL    HW1 5430   1.407   5.689   0.597 -1.0677 -0.5050  0.4794
 1236SOL    HW2 5431   1.417   5.795   0.489  0.6471 -1.0912  0.0324
 1237SOL     OW 5432   5.342   7.672   4.916 -0.2533  0.2746  0.3407
 1237SOL    HW1 5433   5.263   7.652   4.865 -0.8401  0.2046  1.2597
 1237SOL    HW2 5434   5.413   7.628   4.868 -0.8975 -0.3895 -0.0196
 1238SOL     OW 5435   9.593   4.994   3.820 -0.2184  0.4354 -0.3610
 1238SOL    HW1 5436   9.572   4.901   3.823  1.1491  0.0831 -0.8709
 1238SOL    HW2 5437   9.678   4.998   3.775 -0.7191  2.0037 -1.2659
 1239SOL     OW 5438   1.228   8.941   1.758  0.7507 -0.1397  0.0139
 1239SOL    HW1 5439   1.307   8.978   1.797  0.4189 -0.9980  1.5793
 1239SOL    HW2 5440   1.260   8.870   1.702  1.0381 -2.8775  3.3440
 1240SOL     OW 5441   1.473   2.669   1.039 -0.5259 -0.6410 -0.3562
 1240SOL    HW1 5442   1.527   2.695   1.114 -0.9611 -1.5650  0.2973
 1240SOL    HW2 5443   1.478   2.744   0.979 -0.9951  0.5571  1.0439
 1241SOL     OW 5444   4.920   5.528   4.762  0.5532 -0.0246 -0.3477
 1241SOL    HW1 5445   4.947   5.496   4.848  1.8016  0.3636 -0.5667
 1241SOL    HW2 5446   4.849   5.589   4.780  1.4066  0.7598  0.5147
 1242SOL     OW 5447   7.700   5.249   7.865 -0.7351  0.0386  0.0655
 1242SOL    HW1 5448   7.629   5.290   7.815 -2.4751 -1.3834  1.2718
 1242SOL    HW2 5449   7.673   5.158   7.876  1.4185 -0.6224  0.3562
 1243SOL     OW 5450   7.053   5.883   1.132 -0.6074 -0.4200  0.2726
 1243SOL    HW1 5451   6.973   5.906   1.085 -1.5839  1.7148  2.7696
 1243SOL    HW2 5452   7.111   5.847   1.065 -2.5516  0.7670 -2.1794
 1244SOL     OW 5453   6.498   4.282   3.381 -0.0874  0.1226 -0.9532
 1244SOL    HW1 5454   6.578   4.331   3.401  0.4190 -1.3193  0.8489
 1244SOL    HW2 5455   6.516   4.193   3.412 -1.7534 -0.6847 -2.1596
 1245SOL     OW 5456   0.835   6.207   0.303 -0.8950 -0.0850  0.3341
 1245SOL    HW1 5457   0.750   6.224   0.262 -1.6968 -0.9701  1.5716
 1245SOL    HW2 5458   0.898   6.252   0.246 -1.9163 -1.3010 -1.8926
 1246SOL     OW 5459   7.425   9.528   3.426  0.5395 -0.0206 -0.0088
 1246SOL    HW1 5460   7.518   9.549   3.429  0.3122  0.9723  2.1290
 1246SOL    HW2 5461   7.381   9.610   3.451 -0.7693 -1.0096  1.0947
 1247SOL     OW 5462   4.713   5.631   4.314  0.3500  0.4321  0.0793
 1247SOL    HW1 5463   4.682   5.607   4.401  0.9561 -0.1945  0.1255
 1247SOL    HW2 5464   4.642   5.605   4.255 -1.4366  3.5384  0.5877
 1248SOL     OW 5465   6.563   1.474   3.612 -0.1505 -0.4590  0.1901
 1248SOL    HW1 5466   6.542   1.549   3.556 -1.1070  0.4985  1.7558
 1248SOL    HW2 5467   6.516   1.400   3.572 -0.6604  0.1572 -0.3718
 1249SOL     OW 5468   1.036   2.127   3.422 -0.6636  0.1548 -0.4500
 1249SOL    HW1 5469   1.012   2.071   3.349  0.1775 -0.4439 -0.2806
 1249SOL    HW2 5470   0.982   2.096   3.495  0.3004 -0.9439 -0.1666
 1250SOL     OW 5471   7.911   7.754   1.367  0.2613  0.1447 -0.1985
 1250SOL    HW1 5472   7.971   7.759   1.442  0.1501 -0.1982 -0.0870
 1250SOL    HW2 5473   7.966   7.768   1.291  0.5939 -0.8243 -0.1463
 1251SOL     OW 5474   6.578   0.058   0.482 -0.3273 -0.4410 -0.1528
 1251SOL    HW1 5475   6.668   0.032   0.496 -0.0614 -0.2466 -1.3390
 1251SOL    HW2 5476   6.542  -0.009   0.424 -1.0423 -0.6761  0.5399
 1252SOL     OW 5477   2.353   8.049   6.218  0.0517  0.4332  0.4486
 1252SOL    HW1 5478   2.276   8.081   6.172  0.1311 -0.9830 -0.7236
 1252SOL    HW2 5479   2.323   8.036   6.308 -0.4042  2.1744  0.5710
 1253SOL     OW 5480   5.529   4.201   6.326 -0.1613 -0.3854 -0.4966
 1253SOL    HW1 5481   5.500   4.189   6.416 -0.5870 -0.7587 -0.6776
 1253SOL    HW2 5482   5.623   4.213   6.332  0.2057 -2.8186 -0.1669
 1254SOL     OW 5483   2.550   4.601   6.155 -0.4388 -0.6872  0.3403
 1254SOL    HW1 5484   2.552   4.628   6.063 -1.2710  1.5029  0.8998
 1254SOL    HW2 5485   2.510   4.675   6.201 -1.3035 -2.2606  2.2976
 1255SOL     OW 5486   6.226   8.983   7.506 -0.2849  0.1309 -0.4760
 1255SOL    HW1 5487   6.156   9.046   7.488 -1.1749 -0.7010 -0.0187
 1255SOL    HW2 5488   6.181   8.899   7.512  0.5045 -0.1957  1.5207
 1256SOL     OW 5489   8.560   6.760   0.051  0.6913 -0.1686  0.6065
 1256SOL    HW1 5490   8.464   6.756   0.059  0.5288  0.1832 -0.9106
 1256SOL    HW2 5491   8.575   6.823  -0.019  2.0713  0.1605  1.1674
 1257SOL     OW 5492   7.729   1.282   1.043 -0.1691  0.4356  1.3001
 1257SOL    HW1 5493   7.717   1.342   0.970 -1.0385 -2.6843 -1.3840
 1257SOL    HW2 5494   7.749   1.338   1.118 -0.7838  3.9552 -0.9454
 1258SOL     OW 5495   8.332   9.515   3.781  0.3246  0.0321  0.6452
 1258SOL    HW1 5496   8.399   9.580   3.762 -0.1572  0.0314 -1.2220
 1258SOL    HW2 5497   8.318   9.469   3.698 -1.2715 -0.6235  1.2354
 1259SOL     OW 5498   3.945   4.172   3.418  0.3984 -0.7423  0.2483
 1259SOL    HW1 5499   3.918   4.153   3.328 -0.2811 -1.3894  0.5801
 1259SOL    HW2 5500   3.983   4.260   3.413  0.6853 -0.9023 -0.7297
 1260SOL     OW 5501   2.299   9.354   1.402  0.4702 -0.0342  0.1326
 1260SOL    HW1 5502   2.291   9.260   1.418 -0.5544 -0.3152 -1.7363
 1260SOL    HW2 5503   2.223   9.393   1.445  0.0255 -0.2675 -0.4277
 1261SOL     OW 5504   2.442   2.945   0.254 -0.5106 -0.1804  0.1175
 1261SOL    HW1 5505   2.432   3.012   0.321  1.0184  0.4407 -0.2288
 1261SOL    HW2 5506   2.354   2.934   0.217 -0.7301  1.9633 -0.1093
 1262SOL     OW 5507   0.540   8.094   4.790 -0.2478 -0.3285 -0.0123
 1262SOL    HW1 5508   0.618   8.085   4.844 -0.0118 -2.0866 -0.5651
 1262SOL    HW2 5509   0.546   8.021   4.727 -1.0029  1.0290 -1.7633
 1263SOL     OW 5510   6.833   0.945   8.649  0.3352  0.2770  0.4638
 1263SOL    HW1 5511   6.819   0.853   8.668  0.5025 -0.1414 -1.2793
 1263SOL    HW2 5512   6.772   0.992   8.706 -0.7595 -0.9787  0.3557
 1264SOL     OW 5513   4.549   5.561   3.792  0.2731  0.3910 -0.2794
 1264SOL    HW1 5514   4.557   5.591   3.883 -1.0008 -0.1188  0.0266
 1264SOL    HW2 5515   4.525   5.640   3.743  0.6224  0.6007 -0.1170
 1265SOL     OW 5516   0.119   0.167   7.636 -0.4677 -0.1934  0.0481
 1265SOL    HW1 5517   0.179   0.150   7.709  0.7141 -1.1916 -1.1077
 1265SOL    HW2 5518   0.132   0.260   7.616  1.9058 -0.7005 -1.1516
 1266SOL     OW 5519   8.861   4.492   7.311  0.1448  0.1350  0.4308
 1266SOL    HW1 5520   8.776   4.462   7.277  0.3202  0.0671  0.0536
 1266SOL    HW2 5521   8.877   4.575   7.267  1.1115 -0.6926 -0.8773
 1267SOL     OW 5522   1.294   3.165   9.469 -1.0294 -0.1864 -0.1537
 1267SOL    HW1 5523   1.281   3.259   9.487  1.8656  0.3942 -0.5233
 1267SOL    HW2 5524   1.271   3.155   9.376  0.7040  0.7130 -0.7314
 1268SOL     OW 5525   3.508   9.569   8.487  0.5319  0.1784  0.5289
 1268SOL    HW1 5526   3.434   9.508   8.479  1.5450 -0.8795 -1.5956
 1268SOL    HW2 5527   3.488   9.621   8.565 -3.6203  1.5271 -1.1596
 1269SOL     OW 5528   0.912   3.543   9.283  0.1957 -0.2500  0.3410
 1269SOL    HW1 5529   0.994   3.530   9.235 -0.0055  0.1083 -0.1089
 1269SOL    HW2 5530   0.851   3.482   9.242 -0.3412  0.9723 -0.7720
 1270SOL     OW 5531   2.134   8.824   1.395  0.7100 -0.0662  0.0879
 1270SOL    HW1 5532   2.141   8.860   1.484 -1.7512  2.4629 -0.5996
 1270SOL    HW2 5533   2.185   8.883   1.340  1.3995 -1.0447 -0.3538
 1271SOL     OW 5534   6.195   6.859   1.206  0.2057 -0.3550 -0.0149
 1271SOL    HW1 5535   6.195   6.943   1.161 -0.0449  0.2033  0.9844
 1271SOL    HW2 5536   6.162   6.796   1.142 -1.1952  0.6045 -0.2726
 1272SOL     OW 5537   3.269   0.879   3.253 -0.1992 -0.6353  0.1165
 1272SOL    HW1 5538   3.340   0.914   3.199 -0.1070 -0.1211  0.5625
 1272SOL    HW2 5539   3.303   0.881   3.343 -0.3856 -1.3908  0.2085
 1273SOL     OW 5540   1.585   9.704   9.467 -0.1186  0.4011 -0.0161
 1273SOL    HW1 5541   1.654   9.686   9.531 -0.7933 -0.3508  0.5158
 1273SOL    HW2 5542   1.522   9.759   9.515 -0.5829 -0.0953 -0.0396
 1274SOL     OW 5543   7.404   2.405   0.951  0.1712  0.1456  0.4824
 1274SOL    HW1 5544   7.434   2.480   0.900 -1.2345  0.8165  0.5961
 1274SOL    HW2 5545   7.484   2.356   0.970  0.8022  0.0381 -2.0646
 1275SOL     OW 5546   3.214   4.145   0.111 -0.1584 -0.2702  0.6026
 1275SOL    HW1 5547   3.239   4.094   0.033  0.9957  0.5853  0.3877
 1275SOL    HW2 5548   3.270   4.111   0.180 -0.4544 -0.3159  0.8213
 1276SOL     OW 5549   3.564   4.102   9.545 -0.1710  0.1254 -0.0415
 1276SOL    HW1 5550   3.502   4.053   9.600 -0.7303  0.6646 -0.1823
 1276SOL    HW2 5551   3.566   4.053   9.462 -0.3079  0.0344  0.0076
 1277SOL     OW 5552   1.595   7.949   4.739  0.3141 -0.3369  0.2191
 1277SOL    HW1 5553   1.608   7.905   4.823  0.9669  2.9105  2.0073
 1277SOL    HW2 5554   1.680   7.988   4.719 -0.2206  0.1460 -1.2181
 1278SOL     OW 5555   4.093   8.146   6.771 -0.0402  0.0466  0.0263
 1278SOL    HW1 5556   4.150   8.079   6.732 -0.0747  1.1062 -1.9996
 1278SOL    HW2 5557   4.008   8.132   6.728  0.0631  1.6086 -0.7518
 1279SOL     OW 5558   7.715   0.248   3.718 -0.5090  0.4052  0.1802
 1279SOL    HW1 5559   7.722   0.310   3.791 -2.9132  0.3670  0.5306
 1279SOL    HW2 5560   7.803   0.246   3.680  0.3182  1.9449  1.8322
 1280SOL     OW 5561   1.007   7.696   1.665 -0.0627  0.5359  0.2726
 1280SOL    HW1 5562   0.963   7.762   1.719 -2.2081 -1.1158  0.6781
 1280SOL    HW2 5563   0.937   7.657   1.612  1.1620 -1.1804 -0.1885
 1281SOL     OW 5564   0.673   3.195   7.043 -0.7926  0.2701 -0.1491
 1281SOL    HW1 5565   0.618   3.124   7.077 -0.0417 -1.3841 -2.1620
 1281SOL    HW2 5566   0.762   3.162   7.051 -0.2313  1.9739  0.9589
 1282SOL     OW 5567   5.865   8.124   8.251 -0.2944  0.3193 -0.1372
 1282SOL    HW1 5568   5.780   8.081   8.247  0.1019 -0.5631  0.4465
 1282SOL    HW2 5569   5.906   8.090   8.331  1.1603 -0.3544 -1.1143
 1283SOL     OW 5570   2.030   8.997   7.354  0.3543  0.1652 -0.3375
 1283SOL    HW1 5571   2.109   9.030   7.396  0.2706 -0.3685  0.2409
 1283SOL    HW2 5572   1.961   9.058   7.382  0.1460 -0.6394  0.9598
 1284SOL     OW 5573   6.668   3.661   4.667  0.1528  0.1928 -0.6881
 1284SOL    HW1 5574   6.614   3.727   4.711 -0.6356  0.1051 -1.5007
 1284SOL    HW2 5575   6.643   3.667   4.575  1.8476  0.4247 -1.1599
 1285SOL     OW 5576   2.397   4.227   9.373  0.1155  0.4809 -0.1976
 1285SOL    HW1 5577   2.387   4.155   9.310  0.9075  0.5540 -0.4187
 1285SOL    HW2 5578   2.344   4.298   9.336 -0.1666  0.2174 -0.3036
 1286SOL     OW 5579   0.160   8.575   5.577  0.9787  0.3585  0.0004
 1286SOL    HW1 5580   0.114   8.637   5.520 -0.8910  1.4841  2.5885
 1286SOL    HW2 5581   0.253   8.593   5.560  0.4814  2.2199 -1.0470
 1287SOL     OW 5582   1.045   8.749   4.089 -0.2801 -0.3480 -0.4687
 1287SOL    HW1 5583   1.124   8.804   4.099  0.2733 -1.4109  1.6315
 1287SOL    HW2 5584   1.036   8.705   4.173 -4.2597  1.1477  0.0953
 1288SOL     OW 5585   1.120   4.833   4.127  0.1352  0.9102 -0.2288
 1288SOL    HW1 5586   1.188   4.834   4.060  1.5392  1.2894  1.1380
 1288SOL    HW2 5587   1.163   4.798   4.205 -1.8082 -0.8562  0.1579
 1289SOL     OW 5588   2.097   4.532   7.016  0.1412  0.3690  0.1987
 1289SOL    HW1 5589   2.168   4.508   7.076 -0.9269 -1.8078  0.7210
 1289SOL    HW2 5590   2.045   4.595   7.065  0.3987  0.1433  0.7762
 1290SOL     OW 5591   3.816   8.486   3.822 -0.6327 -0.5736 -0.1708
 1290SOL    HW1 5592   3.724   8.496   3.795 -0.5687 -0.7132 -0.4431
 1290SOL    HW2 5593   3.812   8.431   3.900 -0.7889 -0.4926 -0.1206
 1291SOL     OW 5594   2.513   9.018   9.670 -0.5930  0.1140  0.1827
 1291SOL    HW1 5595   2.427   8.997   9.635 -0.5259  2.3668 -1.5455
 1291SOL    HW2 5596   2.571   9.016   9.594  0.0702  2.5264  0.5322
 1292SOL     OW 5597   8.569   7.100   8.813 -0.6233  0.0774 -0.2220
 1292SOL    HW1 5598   8.559   7.038   8.885 -0.2823 -1.6307 -1.5893
 1292SOL    HW2 5599   8.483   7.102   8.771 -0.4965  0.1382 -0.4782
 1293SOL     OW 5600   6.860   8.023   0.446 -0.2896  0.0137  0.0884
 1293SOL    HW1 5601   6.797   8.056   0.511  0.8481 -0.7060  1.6163
 1293SOL    HW2 5602   6.944   8.059   0.474  0.3681 -1.0709 -0.4564
 1294SOL     OW 5603   0.234   7.954   0.275 -0.8209 -0.1988 -0.4275
 1294SOL    HW1 5604   0.163   7.937   0.213  0.1308  2.6209 -2.5464
 1294SOL    HW2 5605   0.308   7.904   0.240 -0.3112  1.3142 -1.6480
 1295SOL     OW 5606   0.716   4.992   6.602 -0.7374 -0.5064 -0.1995
 1295SOL    HW1 5607   0.779   4.954   6.663 -0.3741  0.6543  0.1841
 1295SOL    HW2 5608   0.674   5.063   6.652 -2.2123 -1.1156 -0.5067
 1296SOL     OW 5609   5.528   7.918   3.318 -0.2439  0.6183 -0.2741
 1296SOL    HW1 5610   5.576   7.879   3.391 -0.5943 -1.4908 -1.0884
 1296SOL    HW2 5611   5.595   7.965   3.268  0.2590  0.8605  0.6069
 1297SOL     OW 5612   4.687   5.435   7.897 -0.0758  0.5961 -0.3543
 1297SOL    HW1 5613   4.609   5.473   7.856 -1.2579 -0.3700  0.9008
 1297SOL    HW2 5614   4.671   5.341   7.898  1.6668  0.2463 -1.1175
 1298SOL     OW 5615   6.403   3.285   7.302 -0.7681 -0.2719  0.0068
 1298SOL    HW1 5616   6.404   3.378   7.279 -1.4339 -0.2243  0.1435
 1298SOL    HW2 5617   6.324   3.251   7.260 -2.3514 -0.0776  2.6245
 1299SOL     OW 5618   0.962   9.406   5.311 -0.4181 -0.2044  0.2328
 1299SOL    HW1 5619   1.011   9.483   5.282 -0.6543 -0.3456 -0.5502
 1299SOL    HW2 5620   0.919   9.435   5.392 -0.2665  0.3904  0.1104
 1300SOL     OW 5621   6.455   1.940   4.094  0.0967 -0.2045 -0.7445
 1300SOL    HW1 5622   6.464   1.865   4.153  1.3323 -0.3167 -1.0640
 1300SOL    HW2 5623   6.493   2.013   4.143 -1.2361  0.2807 -0.3735
 1301SOL     OW 5624   6.441   4.195   5.122  0.1312 -0.3007 -0.3813
 1301SOL    HW1 5625   6.494   4.118   5.103  0.3914  0.2101 -1.8384
 1301SOL    HW2 5626   6.500   4.253   5.170  0.5320 -0.2315 -0.9490
 1302SOL     OW 5627   3.151   9.310   9.439  0.2954 -0.4723  0.1045
 1302SOL    HW1 5628   3.065   9.350   9.428 -0.0643 -1.5979 -1.4496
 1302SOL    HW2 5629   3.137   9.241   9.504 -0.5494 -2.1411 -1.7588
 1303SOL     OW 5630   3.977   7.097   8.680  0.0467  0.2490  0.3422
 1303SOL    HW1 5631   4.042   7.142   8.627 -1.0784  0.5428 -0.8412
 1303SOL    HW2 5632   3.895   7.145   8.665 -0.8926 -1.3271  0.1333
 1304SOL     OW 5633   7.793   1.975   1.504  0.4446 -0.4007  0.2682
 1304SOL    HW1 5634   7.815   1.950   1.594 -0.6845 -2.1118  0.1200
 1304SOL    HW2 5635   7.777   2.069   1.509 -0.6593 -0.6215  2.1020
 1305SOL     OW 5636   7.547   5.631   9.288  0.4088 -0.9255  0.1512
 1305SOL    HW1 5637   7.552   5.656   9.381  0.9037 -1.6923  0.3433
 1305SOL    HW2 5638   7.637   5.608   9.265  0.4024 -0.1196 -0.7056
 1306SOL     OW 5639   2.216   4.618   8.285 -0.3616 -0.2460  0.1780
 1306SOL    HW1 5640   2.173   4.576   8.360 -0.4453 -1.2460 -0.4103
 1306SOL    HW2 5641   2.252   4.699   8.320  0.6811 -1.2772  1.6027
 1307SOL     OW 5642   4.151   5.576   9.706 -0.4079  0.2420  0.0236
 1307SOL    HW1 5643   4.214   5.648   9.714 -0.3042  0.1545 -0.0107
 1307SOL    HW2 5644   4.113   5.588   9.620 -0.4961  0.3423  0.0762
 1308SOL     OW 5645   4.300   6.409   4.824 -0.0770 -0.0162 -0.0104
 1308SOL    HW1 5646   4.261   6.480   4.774 -0.3577 -0.6716 -0.7498
 1308SOL    HW2 5647   4.317   6.446   4.911 -0.3387  0.9004 -0.3465
 1309SOL     OW 5648   3.597   1.948   6.723  0.1278 -0.4923  0.2002
 1309SOL    HW1 5649   3.645   1.979   6.800 -0.1643 -0.3711  0.3388
 1309SOL    HW2 5650   3.646   1.981   6.648  0.2260 -0.3182  0.3401
 1310SOL     OW 5651   0.502   3.002   9.677 -0.0244 -0.3192 -0.3418
 1310SOL    HW1 5652   0.568   2.950   9.632 -0.2651 -0.4803 -0.5134
 1310SOL    HW2 5653   0.461   3.054   9.607 -0.1906 -0.3413 -0.2622
 1311SOL     OW 5654   9.686   3.220   6.780  0.4406 -0.3473 -0.1124
 1311SOL    HW1 5655   9.644   3.220   6.867  1.3466 -1.0781  0.3398
 1311SOL    HW2 5656   9.706   3.312   6.764 -1.7679  0.1183 -0.5807
 1312SOL     OW 5657   6.561   0.175   3.672 -0.2749 -0.3801  1.0331
 1312SOL    HW1 5658   6.606   0.194   3.590 -0.5855 -2.3008  0.3500
 1312SOL    HW2 5659   6.521   0.258   3.698 -1.1690  0.0219 -1.3960
 1313SOL     OW 5660   3.271   3.941   5.611 -0.2041 -0.4862 -0.2090
 1313SOL    HW1 5661   3.282   4.029   5.578 -0.5631 -0.7586 -1.0844
 1313SOL    HW2 5662   3.341   3.890   5.571 -0.1563 -0.6535  0.0810
 1314SOL     OW 5663   1.705   3.297   4.793  0.0446 -0.0241 -0.1425
 1314SOL    HW1 5664   1.685   3.389   4.812 -1.4240  0.0327 -1.7343
 1314SOL    HW2 5665   1.626   3.250   4.821  0.3821 -0.6861 -0.2884
 1315SOL     OW 5666   6.383   6.045   1.153 -0.3090  0.1983 -0.4514
 1315SOL    HW1 5667   6.291   6.018   1.155 -0.6790  1.3347 -1.5569
 1315SOL    HW2 5668   6.411   6.040   1.245 -2.1185  1.9850  0.2657
 1316SOL     OW 5669   3.965   5.488   0.914  0.6047 -0.3143  0.2496
 1316SOL    HW1 5670   3.970   5.508   0.821  1.2447 -0.3420  0.2721
 1316SOL    HW2 5671   3.879   5.449   0.926 -0.1169  1.1047 -0.0495
 1317SOL     OW 5672   2.246   2.073   6.791 -0.5499  0.3664  0.1137
 1317SOL    HW1 5673   2.265   1.983   6.818  0.4021  0.3361 -0.5838
 1317SOL    HW2 5674   2.185   2.064   6.718 -0.8507  0.3151  0.3694
 1318SOL     OW 5675   2.485   6.406   9.664  0.0169 -0.0903  0.5038
 1318SOL    HW1 5676   2.563   6.436   9.711  1.1750  0.2957 -1.5315
 1318SOL    HW2 5677   2.516   6.336   9.607 -1.2053 -0.2500 -0.0078
 1319SOL     OW 5678   9.580   8.017   0.655 -0.2680  0.2758  0.2773
 1319SOL    HW1 5679   9.617   7.954   0.592  0.4497 -0.0686  1.0299
 1319SOL    HW2 5680   9.497   7.977   0.682 -0.3746  0.2179 -0.1281
 1320SOL     OW 5681   7.465   7.962   4.747  0.0918 -0.3134  0.5005
 1320SOL    HW1 5682   7.470   8.022   4.821  0.5767  0.3080 -0.0270
 1320SOL    HW2 5683   7.471   7.875   4.786  1.8415  0.0330  1.0777
 1321SOL     OW 5684   2.803   8.730   3.645  0.6415 -0.1657  0.3101
 1321SOL    HW1 5685   2.770   8.814   3.613  1.5136 -0.5706 -1.8389
 1321SOL    HW2 5686   2.737   8.699   3.706 -1.0288  0.8209 -0.9247
 1322SOL     OW 5687   5.682   7.175   8.374  0.1194  0.5592 -0.2615
 1322SOL    HW1 5688   5.614   7.111   8.352  1.8940 -0.9940 -1.5001
 1322SOL    HW2 5689   5.702   7.157   8.466  1.4181 -1.5766 -0.8867
 1323SOL     OW 5690   0.966   4.480   5.156 -0.3006 -0.3165 -0.0583
 1323SOL    HW1 5691   0.990   4.530   5.233  0.1586  0.0067 -0.4056
 1323SOL    HW2 5692   0.877   4.509   5.135  0.1137  0.6769 -0.5063
 1324SOL     OW 5693   6.920   8.000   3.618 -0.3359 -0.0397  0.0623
 1324SOL    HW1 5694   6.982   8.072   3.613 -0.3384 -0.0828 -0.8056
 1324SOL    HW2 5695   6.834   8.043   3.625 -0.4425  0.0868 -1.6675
 1325SOL     OW 5696   1.800   3.968   8.311  0.1395 -0.0551  0.3409
 1325SOL    HW1 5697   1.737   4.033   8.281 -0.8431 -1.0997  0.1183
 1325SOL    HW2 5698   1.862   3.959   8.238  0.3676  0.7142  0.4283
 1326SOL     OW 5699   7.634   0.680   8.910  0.0306  0.0958  0.0973
 1326SOL    HW1 5700   7.587   0.656   8.990  0.0729  0.0595  0.1110
 1326SOL    HW2 5701   7.650   0.774   8.920 -1.9423  0.5751 -0.8777
 1327SOL     OW 5702   2.765   1.734   0.818  0.1468 -0.0973 -0.1038
 1327SOL    HW1 5703   2.846   1.743   0.768 -0.3450  1.9202 -0.6270
 1327SOL    HW2 5704   2.771   1.801   0.887 -0.2374 -1.2412  1.0903
 1328SOL     OW 5705   0.178   3.128   6.204 -0.1136  0.3283 -0.1604
 1328SOL    HW1 5706   0.196   3.143   6.296  0.0855  0.0427 -0.1517
 1328SOL    HW2 5707   0.111   3.060   6.203 -0.7954  0.9966 -0.2057
 1329SOL     OW 5708   3.884   7.677   9.518 -0.0172  0.6342 -0.2512
 1329SOL    HW1 5709   3.832   7.758   9.515  0.5924  1.2153  2.2601
 1329SOL    HW2 5710   3.935   7.679   9.437 -2.3490  1.0853 -1.7962
 1330SOL     OW 5711   6.668   5.123   2.182 -0.6221  0.2368 -0.0879
 1330SOL    HW1 5712   6.719   5.137   2.262 -0.5209  0.3789 -0.1775
 1330SOL    HW2 5713   6.734   5.109   2.114 -0.6923  1.0479 -0.3264
 1331SOL     OW 5714   6.207   8.537   7.396  0.1282 -0.1765 -0.3597
 1331SOL    HW1 5715   6.246   8.453   7.371 -0.5339 -0.6122  0.0457
 1331SOL    HW2 5716   6.254   8.601   7.343  0.7198 -0.7863 -0.5999
 1332SOL     OW 5717   8.695   3.668   2.449 -0.2389 -0.1025 -0.0634
 1332SOL    HW1 5718   8.672   3.760   2.448  1.0462  0.2405 -0.3806
 1332SOL    HW2 5719   8.651   3.633   2.526 -0.4195  0.8655  0.2861
 1333SOL     OW 5720   1.257   3.526   4.555 -0.6863 -0.0371  0.2168
 1333SOL    HW1 5721   1.256   3.575   4.637  2.0431  0.8119 -0.1304
 1333SOL    HW2 5722   1.307   3.446   4.576 -0.3531 -0.0249 -0.4889
 1334SOL     OW 5723   6.857   9.126   4.789  0.3724  0.3588 -0.2594
 1334SOL    HW1 5724   6.863   9.175   4.871 -0.5058  1.2567 -0.7017
 1334SOL    HW2 5725   6.768   9.090   4.789 -0.2574  1.7609 -1.5232
 1335SOL     OW 5726   1.379   5.944   2.882  0.2668 -0.0197 -0.4045
 1335SOL    HW1 5727   1.410   6.023   2.838 -0.4559 -0.0657 -1.0370
 1335SOL    HW2 5728   1.301   5.918   2.832  0.2354 -0.8790  0.0636
 1336SOL     OW 5729   7.162   4.984   9.455  0.0801 -0.2673 -0.1858
 1336SOL    HW1 5730   7.113   5.046   9.401 -0.1270  1.2160  1.5824
 1336SOL    HW2 5731   7.191   5.036   9.530  1.9371 -1.7896  0.2345
 1337SOL     OW 5732   8.762   8.111   2.704 -0.1270 -0.3973  0.4600
 1337SOL    HW1 5733   8.764   8.126   2.798 -1.0279 -2.3879  0.8455
 1337SOL    HW2 5734   8.840   8.157   2.671  0.5324 -0.1588  2.2363
 1338SOL     OW 5735   3.038   2.089   1.569  0.1535  0.3573 -0.0505
 1338SOL    HW1 5736   3.086   2.012   1.540 -0.1939  0.2057 -0.2238
 1338SOL    HW2 5737   2.982   2.057   1.640 -0.3369  0.3568 -0.4417
 1339SOL     OW 5738   6.775   2.517   2.552  0.4483 -0.6489  0.3287
 1339SOL    HW1 5739   6.820   2.602   2.553  1.1513 -0.9545 -1.5749
 1339SOL    HW2 5740   6.708   2.525   2.620  0.3717  1.4984  0.0605
 1340SOL     OW 5741   4.329   6.484   1.273  0.2392 -0.0595  0.0699
 1340SOL    HW1 5742   4.252   6.437   1.242 -1.0180  2.1596 -0.3662
 1340SOL    HW2 5743   4.403   6.430   1.245 -1.0751 -2.8709  1.4827
 1341SOL     OW 5744   3.064   8.243   2.657 -0.1968  0.4644  0.0633
 1341SOL    HW1 5745   3.106   8.190   2.588 -0.6678  1.6318 -1.1681
 1341SOL    HW2 5746   3.135   8.263   2.718  0.1857 -0.7806  0.0576
 1342SOL     OW 5747   4.450   3.030   6.193  0.3202  0.5391  0.1262
 1342SOL    HW1 5748   4.405   3.078   6.124  0.5053 -0.4061 -0.6634
 1342SOL    HW2 5749   4.379   2.995   6.248  0.1507  0.5890 -0.0596
 1343SOL     OW 5750   7.776   1.475   3.871  0.5222  0.1698 -0.3652
 1343SOL    HW1 5751   7.780   1.537   3.799  0.0984  0.4135 -0.1790
 1343SOL    HW2 5752   7.719   1.516   3.936 -2.0678 -1.5419 -1.3528
 1344SOL     OW 5753   1.463   1.100   3.350  0.1706 -0.2830  0.5389
 1344SOL    HW1 5754   1.484   1.154   3.426 -0.7285  0.1814  0.4635
 1344SOL    HW2 5755   1.400   1.035   3.382 -1.7087  1.1007 -0.2007
 1345SOL     OW 5756   3.042   5.711   6.239  0.0410 -0.4586  0.1554
 1345SOL    HW1 5757   3.109   5.767   6.277  0.3247  0.0570 -1.0443
 1345SOL    HW2 5758   3.070   5.621   6.259 -0.8819 -0.2140  2.8695
 1346SOL     OW 5759   8.113   2.708   5.790 -0.2356 -0.0661  0.1566
 1346SOL    HW1 5760   8.177   2.640   5.767  0.2347  0.2127  0.6170
 1346SOL    HW2 5761   8.147   2.745   5.871 -0.6237  0.5516  0.0381
 1347SOL     OW 5762   1.475   5.894   5.771  0.3908 -0.0674 -0.4445
 1347SOL    HW1 5763   1.418   5.833   5.724  0.9057 -1.0335  0.1394
 1347SOL    HW2 5764   1.562   5.879   5.733  0.9726 -1.4369  1.2729
 1348SOL     OW 5765   1.364   4.171   8.751 -0.1251  0.0434  1.0223
 1348SOL    HW1 5766   1.282   4.197   8.709  0.2148  1.1391  0.9922
 1348SOL    HW2 5767   1.414   4.253   8.757  0.6062 -0.4496  1.8263
 1349SOL     OW 5768   3.668   0.861   9.520  0.6004 -0.2836  0.5100
 1349SOL    HW1 5769   3.717   0.907   9.453  2.5215 -1.0325  1.3194
 1349SOL    HW2 5770   3.597   0.818   9.473  1.0069  0.4232 -0.8029
 1350SOL     OW 5771   6.726   7.021   0.373  0.5905 -0.1164  0.3845
 1350SOL    HW1 5772   6.730   7.094   0.435 -0.9106 -1.4177  2.0686
 1350SOL    HW2 5773   6.717   7.064   0.287  2.0976  1.6964  1.0653
 1351SOL     OW 5774   0.524   7.967   6.387 -0.2031  0.1678  0.0574
 1351SOL    HW1 5775   0.521   7.964   6.291  0.4063 -1.1492  0.0599
 1351SOL    HW2 5776   0.613   7.996   6.408 -0.0289 -0.4840  0.2286
 1352SOL     OW 5777   7.671   9.638   3.830 -0.1666 -0.6525  0.0320
 1352SOL    HW1 5778   7.758   9.671   3.807 -0.9061  3.0101  1.7444
 1352SOL    HW2 5779   7.624   9.635   3.747  0.5419  1.1032 -0.4906
 1353SOL     OW 5780   7.597   5.222   2.640  0.0113  0.1986 -0.1785
 1353SOL    HW1 5781   7.518   5.274   2.654  0.8991  0.7484  4.5276
 1353SOL    HW2 5782   7.665   5.286   2.621  0.0385  0.1310 -0.3096
 1354SOL     OW 5783   5.146   2.426   4.621  0.1270 -0.0452 -0.0840
 1354SOL    HW1 5784   5.185   2.341   4.600 -0.9347  0.0554 -3.0238
 1354SOL    HW2 5785   5.073   2.406   4.678  0.0847 -1.0906 -0.4894
 1355SOL     OW 5786   8.292   8.508   0.828  0.2518 -0.0124 -0.0731
 1355SOL    HW1 5787   8.337   8.568   0.769  0.5665  0.5941  0.7500
 1355SOL    HW2 5788   8.323   8.421   0.803  2.0956  0.3962  0.6215
 1356SOL     OW 5789   2.414   1.711   9.034 -0.0673 -0.0336  0.0213
 1356SOL    HW1 5790   2.378   1.744   8.951  0.4663  0.8568  0.1311
 1356SOL    HW2 5791   2.343   1.722   9.097 -0.5429 -0.8895 -0.3390
 1357SOL     OW 5792   6.858   8.153   5.767  0.4009  0.1541  0.0764
 1357SOL    HW1 5793   6.937   8.182   5.723 -0.4210  0.5582 -1.1890
 1357SOL    HW2 5794   6.881   8.068   5.805  1.5486  0.4538  0.0730
 1358SOL     OW 5795   0.559   5.949   2.722  0.1113 -0.3660  0.0373
 1358SOL    HW1 5796   0.630   6.001   2.759  0.2155 -0.6780  0.2678
 1358SOL    HW2 5797   0.536   5.886   2.790 -0.8180  0.1492  0.2223
 1359SOL     OW 5798   7.672   4.976   9.117 -0.5437  0.2369  0.1638
 1359SOL    HW1 5799   7.656   4.924   9.196 -2.3351 -2.1436 -1.6095
 1359SOL    HW2 5800   7.730   4.921   9.064 -2.5609 -0.0829 -1.8178
 1360SOL     OW 5801   9.529   4.515   4.226 -0.2842  0.5705  1.0216
 1360SOL    HW1 5802   9.525   4.580   4.296 -1.3868 -0.1566  1.6762
 1360SOL    HW2 5803   9.585   4.554   4.159 -1.5644  2.5351  1.0375
 1361SOL     OW 5804   8.763   2.475   5.722  0.6482 -0.2284 -0.0939
 1361SOL    HW1 5805   8.695   2.412   5.697  0.3121  0.4056 -0.8372
 1361SOL    HW2 5806   8.845   2.431   5.701  0.3933  0.1655 -2.2124
 1362SOL     OW 5807   7.942   2.832   4.340  0.0441  0.4421 -0.0832
 1362SOL    HW1 5808   7.888   2.835   4.262 -0.6909 -0.1913  0.3811
 1362SOL    HW2 5809   7.981   2.745   4.339 -0.3232  0.2590  0.4666
 1363SOL     OW 5810   4.742   5.354   7.306 -0.1968  0.6315  0.2885
 1363SOL    HW1 5811   4.771   5.341   7.215 -2.9530 -1.3684 -0.4458
 1363SOL    HW2 5812   4.805   5.303   7.358  0.7609  0.8652 -0.6091
 1364SOL     OW 5813   8.101   6.070   6.719  0.0220  0.3495  0.1326
 1364SOL    HW1 5814   8.170   6.050   6.783  0.2894 -0.4909 -0.4062
 1364SOL    HW2 5815   8.148   6.086   6.637 -0.4590 -1.2998 -0.5036
 1365SOL     OW 5816   3.751   4.057   1.510  0.0593  0.1491  0.2432
 1365SOL    HW1 5817   3.695   4.033   1.436 -0.9644 -0.9340  1.3243
 1365SOL    HW2 5818   3.758   3.977   1.562  0.0196  1.1084  1.7732
 1366SOL     OW 5819   4.560   0.304   9.392  0.4130 -0.0426 -0.2759
 1366SOL    HW1 5820   4.636   0.247   9.392 -0.4436 -1.2181 -0.6901
 1366SOL    HW2 5821   4.562   0.346   9.305  1.8418  1.7205  0.5413
 1367SOL     OW 5822   9.198   2.035   8.385  0.2398  0.5560 -0.2820
 1367SOL    HW1 5823   9.241   2.089   8.318  0.8846  0.7118  0.2493
 1367SOL    HW2 5824   9.259   1.962   8.399  1.0247  1.4902  1.4791
 1368SOL     OW 5825   4.975   7.704   8.248  0.0274 -0.3831 -0.0006
 1368SOL    HW1 5826   5.030   7.705   8.326 -0.7778 -1.3131  0.6054
 1368SOL    HW2 5827   5.030   7.741   8.179  2.2993 -3.3329  0.0227
 1369SOL     OW 5828   0.678   3.481   3.792 -0.5653  0.1707  0.1049
 1369SOL    HW1 5829   0.676   3.421   3.867  1.3510 -0.3320 -0.1932
 1369SOL    HW2 5830   0.598   3.461   3.743  0.9157 -3.7547 -1.1100
 1370SOL     OW 5831   5.506   1.380   9.282  0.2483  0.6346 -0.3121
 1370SOL    HW1 5832   5.593   1.402   9.248  1.1123  1.1263  2.0614
 1370SOL    HW2 5833   5.448   1.391   9.206  2.1146  1.0348 -1.7759
 1371SOL     OW 5834   7.995   5.119   2.379 -0.0730  0.0724 -1.0603
 1371SOL    HW1 5835   8.028   5.030   2.391  0.5445  0.2922 -1.0615
 1371SOL    HW2 5836   7.903   5.115   2.405  0.0145 -0.5097 -0.8329
 1372SOL     OW 5837   3.691   0.283   1.556 -0.3753 -0.2441 -0.2810
 1372SOL    HW1 5838   3.673   0.193   1.584 -0.3657 -0.7526 -1.8542
 1372SOL    HW2 5839   3.729   0.274   1.469 -0.0358  1.2724 -0.3046
 1373SOL     OW 5840   2.355   3.950   6.246 -0.1080  0.2435 -0.3205
 1373SOL    HW1 5841   2.385   3.881   6.187  1.1268  0.7633 -0.3181
 1373SOL    HW2 5842   2.409   4.025   6.225 -1.0736  1.0679  0.0529
 1374SOL     OW 5843   6.258   4.064   9.054  0.0775 -0.1177 -0.3836
 1374SOL    HW1 5844   6.220   4.150   9.038  0.9585  0.4935  0.6406
 1374SOL    HW2 5845   6.185   4.011   9.085 -0.2982  0.5311 -0.1396
 1375SOL     OW 5846   3.610   7.156   3.684  0.2127 -0.1700  0.3676
 1375SOL    HW1 5847   3.672   7.085   3.669  0.5600  0.4349 -1.2472
 1375SOL    HW2 5848   3.660   7.235   3.669 -1.0449  0.3263 -1.5918
 1376SOL     OW 5849   0.050   3.571   7.299 -0.5340 -0.1198 -0.4147
 1376SOL    HW1 5850   0.051   3.475   7.291 -1.4054 -0.0893 -1.1477
 1376SOL    HW2 5851   0.015   3.588   7.386 -1.5069 -0.4783 -0.7213
 1377SOL     OW 5852   6.647   0.975   1.604 -0.5576  0.3638  0.4223
 1377SOL    HW1 5853   6.597   1.045   1.563 -0.2871  0.7241  0.6951
 1377SOL    HW2 5854   6.645   0.904   1.541 -0.2905  0.8487 -0.1439
 1378SOL     OW 5855   2.092   3.915   3.473  0.3470 -0.5781 -0.4716
 1378SOL    HW1 5856   2.130   3.976   3.537 -0.9268 -1.6942  1.4744
 1378SOL    HW2 5857   2.122   3.829   3.502 -0.6197 -1.1539 -1.1410
 1379SOL     OW 5858   1.688   3.500   4.294  0.4816 -0.1572  0.3509
 1379SOL    HW1 5859   1.651   3.434   4.235  0.2551 -0.8381  1.2304
 1379SOL    HW2 5860   1.694   3.579   4.240  0.9780 -0.9423 -0.7973
 1380SOL     OW 5861   2.667   3.384   6.342 -0.5030 -0.2585 -0.2743
 1380SOL    HW1 5862   2.632   3.417   6.259 -0.0447 -1.5977 -1.0096
 1380SOL    HW2 5863   2.593   3.339   6.383 -0.9741  1.1191  0.4809
 1381SOL     OW 5864   9.410   2.439   2.141 -0.0978  0.4370  0.0031
 1381SOL    HW1 5865   9.486   2.410   2.091 -0.3999 -1.6932  0.6771
 1381SOL    HW2 5866   9.446   2.490   2.213  0.7249 -0.6432  0.3735
 1382SOL     OW 5867   2.483   5.243   5.014 -0.1953  0.2970 -0.1405
 1382SOL    HW1 5868   2.543   5.317   5.028 -0.9007  0.8416  0.0571
 1382SOL    HW2 5869   2.397   5.284   5.002 -0.1445 -0.2426 -3.3990
 1383SOL     OW 5870   3.445   4.553   7.938  0.5283  0.3717  0.1171
 1383SOL    HW1 5871   3.489   4.566   7.855  0.2733  1.0734  0.0801
 1383SOL    HW2 5872   3.497   4.487   7.984  0.2427 -0.5825 -0.9022
 1384SOL     OW 5873   9.322   3.603   0.441  0.0007 -0.4376 -0.5783
 1384SOL    HW1 5874   9.320   3.587   0.346  0.5798 -1.6627 -0.4013
 1384SOL    HW2 5875   9.401   3.655   0.455 -0.4268  0.2960 -0.8318
 1385SOL     OW 5876   8.251   7.930   5.600 -0.0319 -0.3057  0.5194
 1385SOL    HW1 5877   8.270   7.932   5.694  0.5811 -0.0608  0.3993
 1385SOL    HW2 5878   8.259   7.838   5.576 -0.5878 -0.4265  0.7793
 1386SOL     OW 5879   8.057   5.812   2.188 -0.6310 -0.1307 -0.1735
 1386SOL    HW1 5880   8.105   5.887   2.225 -1.1693 -0.1496  0.5833
 1386SOL    HW2 5881   8.106   5.736   2.218 -1.2832 -0.1609  0.8282
 1387SOL     OW 5882   1.999   8.979   5.718  0.1262 -0.3058  0.5741
 1387SOL    HW1 5883   1.976   8.886   5.728 -0.0657 -0.3955 -0.5896
 1387SOL    HW2 5884   2.009   8.991   5.623 -2.4460  1.4672  0.4430
 1388SOL     OW 5885   8.309   2.032   6.024  0.6182  0.5838  0.1431
 1388SOL    HW1 5886   8.290   2.011   5.933  0.8189 -0.2174  0.2798
 1388SOL    HW2 5887   8.363   2.111   6.019 -1.0148  1.7208 -0.3265
 1389SOL     OW 5888   9.499   4.293   7.166 -0.8326  0.3660  0.3538
 1389SOL    HW1 5889   9.447   4.260   7.093  0.0920  1.6411 -0.9442
 1389SOL    HW2 5890   9.583   4.248   7.159 -1.6752 -1.7243  2.4711
 1390SOL     OW 5891   7.196   5.608   3.868  0.2301  0.6232 -0.3679
 1390SOL    HW1 5892   7.257   5.640   3.802 -0.5399  0.1229 -1.3487
 1390SOL    HW2 5893   7.171   5.687   3.917 -0.6344  1.3472 -1.9014
 1391SOL     OW 5894   7.666   3.149   7.105  0.2147 -0.2022  0.2597
 1391SOL    HW1 5895   7.617   3.195   7.173 -0.1750 -0.7236  0.3350
 1391SOL    HW2 5896   7.688   3.217   7.041  1.3492  0.4719  1.3145
 1392SOL     OW 5897   1.280   8.340   2.244  0.0173 -0.2729 -0.1387
 1392SOL    HW1 5898   1.245   8.346   2.155 -1.5342 -0.1666  0.4526
 1392SOL    HW2 5899   1.359   8.288   2.234  0.4742  0.6291 -1.7393
 1393SOL     OW 5900   7.958   7.144   4.266 -0.5094  0.1452 -0.6777
 1393SOL    HW1 5901   7.869   7.146   4.232 -0.2910  0.4173 -1.2582
 1393SOL    HW2 5902   8.008   7.094   4.201 -0.1369  0.4396 -0.6267
 1394SOL     OW 5903   7.462   1.435   2.634  0.0805  0.2392 -0.0286
 1394SOL    HW1 5904   7.401   1.385   2.580 -1.2119  1.8787 -0.1845
 1394SOL    HW2 5905   7.502   1.498   2.574 -1.2371  1.9603  0.7919
 1395SOL     OW 5906   9.129   6.092   6.791 -0.4931  0.4659 -0.0838
 1395SOL    HW1 5907   9.077   6.157   6.839 -3.0403 -1.2803 -0.2264
 1395SOL    HW2 5908   9.137   6.018   6.852  2.5762  0.8915  0.1901
 1396SOL     OW 5909   2.258   2.997   8.208  0.4248 -0.0622 -0.1569
 1396SOL    HW1 5910   2.336   3.039   8.245 -0.0925 -1.8091  3.3191
 1396SOL    HW2 5911   2.185   3.048   8.242 -0.0543 -0.0086 -1.2300
 1397SOL     OW 5912   3.827   8.759   3.836  0.1477  0.2800  0.2841
 1397SOL    HW1 5913   3.857   8.669   3.851 -1.0404 -0.1450  0.1989
 1397SOL    HW2 5914   3.823   8.766   3.740 -1.5977 -0.2274  0.2960
 1398SOL     OW 5915   6.878   5.897   7.883 -0.4457 -0.1583  0.1347
 1398SOL    HW1 5916   6.831   5.866   7.960 -0.4405  0.2205  0.2930
 1398SOL    HW2 5917   6.810   5.923   7.822 -0.4910  1.9366  0.9811
 1399SOL     OW 5918   9.573   8.685   7.968  0.5175  0.9424  0.4426
 1399SOL    HW1 5919   9.624   8.723   8.040  0.6741  0.7090  0.4592
 1399SOL    HW2 5920   9.561   8.757   7.907  1.5128  0.8250  0.0810
 1400SOL     OW 5921   9.278   2.845   0.409  0.6346 -0.1961  0.6063
 1400SOL    HW1 5922   9.250   2.827   0.319  1.3677 -0.6705  0.4698
 1400SOL    HW2 5923   9.284   2.940   0.414  1.9779 -0.2157 -0.2781
 1401SOL     OW 5924   6.168   4.015   4.880  0.1398 -0.1560 -0.0190
 1401SOL    HW1 5925   6.194   4.094   4.928 -0.9658 -0.4331  1.0892
 1401SOL    HW2 5926   6.073   4.023   4.870  0.0825 -1.1151 -0.3222
 1402SOL     OW 5927   6.777   7.805   5.175  0.1140 -0.0295 -0.0434
 1402SOL    HW1 5928   6.757   7.883   5.227 -1.5132  0.6335 -1.5850
 1402SOL    HW2 5929   6.808   7.840   5.091  1.0232 -1.0706 -0.1650
 1403SOL     OW 5930   8.608   0.134   7.091  0.0487  0.7199  0.0920
 1403SOL    HW1 5931   8.611   0.224   7.057 -0.4973  0.5297 -0.4919
 1403SOL    HW2 5932   8.687   0.093   7.057  0.3637  1.0137  0.4640
 1404SOL     OW 5933   4.153   3.357   9.197 -0.2983  0.3441  0.1872
 1404SOL    HW1 5934   4.229   3.319   9.241 -0.5778 -0.8922 -0.3461
 1404SOL    HW2 5935   4.096   3.282   9.180 -0.2008  0.7425 -2.2690
 1405SOL     OW 5936   5.870   5.860   8.254 -0.1685 -1.0403 -0.3213
 1405SOL    HW1 5937   5.834   5.912   8.326  0.2977 -1.2214  0.0451
 1405SOL    HW2 5938   5.965   5.873   8.260 -0.1689 -0.2672 -1.4963
 1406SOL     OW 5939   6.359   3.290   7.685 -0.2697 -0.3735  0.2759
 1406SOL    HW1 5940   6.370   3.376   7.727 -1.4132  0.4568 -1.0354
 1406SOL    HW2 5941   6.427   3.288   7.618  1.2584 -1.5098  1.7701
 1407SOL     OW 5942   9.431   1.577   7.278 -0.1739 -0.1997 -0.4873
 1407SOL    HW1 5943   9.513   1.534   7.303 -0.1920 -1.0324 -1.7522
 1407SOL    HW2 5944   9.427   1.566   7.183 -1.1588  0.9095 -0.5985
 1408SOL     OW 5945   8.995   5.426   2.232  0.4641  0.4654  0.1042
 1408SOL    HW1 5946   8.991   5.518   2.259  2.6651  0.2902  1.2766
 1408SOL    HW2 5947   8.988   5.377   2.314 -1.0010 -0.4620 -0.5440
 1409SOL     OW 5948   1.054   8.718   4.953 -0.2356  0.0051  0.0414
 1409SOL    HW1 5949   1.041   8.666   5.032  1.3155  0.9261  0.9536
 1409SOL    HW2 5950   0.998   8.676   4.888  0.3095 -2.2735  0.9447
 1410SOL     OW 5951   6.265   3.776   4.888  0.4246  0.6440 -0.2086
 1410SOL    HW1 5952   6.356   3.798   4.871  0.2232  0.8541 -1.1086
 1410SOL    HW2 5953   6.219   3.859   4.884  0.3561  0.7403  1.6157
 1411SOL     OW 5954   5.712   5.365   5.681  0.0954  0.3921  0.0847
 1411SOL    HW1 5955   5.772   5.305   5.726  0.6675 -0.1986 -1.3691
 1411SOL    HW2 5956   5.770   5.426   5.635 -0.4091  0.0544 -1.0248
 1412SOL     OW 5957   5.689   5.373   3.892  0.1040  0.3232 -0.5851
 1412SOL    HW1 5958   5.715   5.302   3.951  0.2232 -0.7186 -1.8438
 1412SOL    HW2 5959   5.593   5.366   3.887 -0.2600  2.3304  1.7848
 1413SOL     OW 5960   1.781   5.647   4.095  0.1898  0.5053  0.1404
 1413SOL    HW1 5961   1.810   5.736   4.075  1.0591  0.2301  0.1162
 1413SOL    HW2 5962   1.742   5.653   4.182 -0.1053  0.9747 -0.0178
 1414SOL     OW 5963   4.274   6.202   5.564 -0.3167 -0.1111 -0.7000
 1414SOL    HW1 5964   4.306   6.264   5.498 -3.8762  0.6369 -1.9212
 1414SOL    HW2 5965   4.252   6.123   5.513 -1.1160 -0.3054 -0.0684
 1415SOL     OW 5966   9.272   6.965   8.903 -0.2635  0.3556 -0.1106
 1415SOL    HW1 5967   9.336   7.022   8.860 -0.3532  0.4574 -0.1098
 1415SOL    HW2 5968   9.279   6.986   8.996 -1.0656  1.1625 -0.2114
 1416SOL     OW 5969   8.499   5.906   4.906 -0.1697  0.2372  0.1166
 1416SOL    HW1 5970   8.484   6.000   4.913  2.4555  0.8351 -1.0113
 1416SOL    HW2 5971   8.457   5.881   4.824 -0.8527  0.4174  0.4063
 1417SOL     OW 5972   2.595   9.018   9.066  0.0286  0.2817 -0.4131
 1417SOL    HW1 5973   2.614   8.937   9.019  0.3105 -0.0234  0.2182
 1417SOL    HW2 5974   2.551   8.990   9.146  1.1153  0.6640  0.3350
 1418SOL     OW 5975   8.661   7.847   8.846 -0.4531 -0.3388 -0.2094
 1418SOL    HW1 5976   8.660   7.854   8.941  2.3151 -1.2337 -0.0289
 1418SOL    HW2 5977   8.593   7.783   8.825 -0.1818 -1.1396  1.2856
 1419SOL     OW 5978   2.072   3.721   9.648  0.7951  0.1488 -0.0483
 1419SOL    HW1 5979   2.110   3.805   9.675 -0.3802  1.5717 -2.4840
 1419SOL    HW2 5980   2.116   3.656   9.702  1.9260  2.3007  1.7721
 1420SOL     OW 5981   2.684   7.209   0.281  0.4753 -0.2386 -0.6856
 1420SOL    HW1 5982   2.660   7.116   0.284 -0.4715  0.0232  0.8666
 1420SOL    HW2 5983   2.772   7.212   0.316  0.5666 -0.5643 -0.8832
 1421SOL     OW 5984   2.043   0.196   7.555  0.5534 -0.5628  0.4584
 1421SOL    HW1 5985   2.035   0.147   7.636  0.6487 -0.4610  0.5299
 1421SOL    HW2 5986   2.001   0.280   7.573 -0.1390 -0.8306  0.1515
 1422SOL     OW 5987   2.093   1.819   8.286  0.1869 -0.0433 -0.8988
 1422SOL    HW1 5988   2.161   1.887   8.283 -0.1643  0.4171  0.6419
 1422SOL    HW2 5989   2.142   1.737   8.280  0.8393  0.2969 -0.3897
 1423SOL     OW 5990   5.773   1.756   5.788  0.3810 -0.1895  0.0733
 1423SOL    HW1 5991   5.812   1.760   5.875  1.0309  0.1637 -0.2267
 1423SOL    HW2 5992   5.705   1.823   5.789 -0.5689 -1.1329  0.7573
 1424SOL     OW 5993   1.842   8.282   0.867 -0.3246  0.3065  0.2494
 1424SOL    HW1 5994   1.838   8.318   0.955  1.2669 -0.2998  0.5964
 1424SOL    HW2 5995   1.762   8.229   0.859 -1.6872  2.2173  0.4395
 1425SOL     OW 5996   8.458   1.834   9.674 -0.0566  0.3448  0.2516
 1425SOL    HW1 5997   8.478   1.873   9.589  0.8961 -1.8408 -0.5938
 1425SOL    HW2 5998   8.372   1.869   9.696 -1.6716 -1.1090 -3.0073
 1426SOL     OW 5999   7.574   3.165   8.399  0.0013 -0.2755 -0.4302
 1426SOL    HW1 6000   7.655   3.153   8.447  0.6628  0.2709 -1.3708
 1426SOL    HW2 6001   7.529   3.237   8.443 -0.2672 -0.9548  0.4438
 1427SOL     OW 6002   8.687   0.717   4.466 -0.4397 -0.4255 -0.2256
 1427SOL    HW1 6003   8.642   0.696   4.384  0.7212 -1.5050 -0.6220
 1427SOL    HW2 6004   8.780   0.714   4.444 -0.0865 -1.1953  1.2236
 1428SOL     OW 6005   8.015   2.922   5.631  0.2990 -0.4048  0.3034
 1428SOL    HW1 6006   8.064   2.995   5.669  1.3582 -0.1901 -1.3696
 1428SOL    HW2 6007   8.053   2.844   5.673 -0.6033 -0.0630  1.8409
 1429SOL     OW 6008   6.543   5.237   1.257 -0.0365 -0.1897 -0.0641
 1429SOL    HW1 6009   6.566   5.182   1.332 -1.9146 -0.1741  0.5680
 1429SOL    HW2 6010   6.626   5.249   1.211  0.5646 -3.0930  0.0541
 1430SOL     OW 6011   0.603   0.480   5.715 -0.4154  0.2999  0.3376
 1430SOL    HW1 6012   0.638   0.505   5.801 -0.6290  0.3848  0.4024
 1430SOL    HW2 6013   0.508   0.493   5.724 -0.2229  4.6573 -1.2170
 1431SOL     OW 6014   3.033   5.680   7.235  0.4875  0.9417 -0.2022
 1431SOL    HW1 6015   2.950   5.678   7.187 -0.2193  0.9324  0.9724
 1431SOL    HW2 6016   3.091   5.732   7.180 -0.6858  2.0393 -0.4570
 1432SOL     OW 6017   7.280   4.382   6.105  0.0279 -0.5841  0.0334
 1432SOL    HW1 6018   7.214   4.325   6.144 -0.2332 -0.2213  0.1297
 1432SOL    HW2 6019   7.292   4.453   6.169 -1.5397  0.8543 -1.1906
 1433SOL     OW 6020   8.450   0.310   2.477  0.2634 -0.4983 -0.2029
 1433SOL    HW1 6021   8.380   0.296   2.540  0.0692 -0.0849 -0.3200
 1433SOL    HW2 6022   8.460   0.405   2.473  2.1708 -0.5731  1.2696
 1434SOL     OW 6023   7.572   5.735   4.826 -0.0027 -0.2013 -0.3105
 1434SOL    HW1 6024   7.651   5.694   4.791  0.0661  0.5978 -1.1157
 1434SOL    HW2 6025   7.599   5.769   4.912  0.1204 -1.2097  0.0625
 1435SOL     OW 6026   1.866   9.607   2.320 -0.1757  0.5630 -0.1766
 1435SOL    HW1 6027   1.837   9.588   2.231 -0.0135 -3.7385  0.4858
 1435SOL    HW2 6028   1.962   9.610   2.313 -0.2023  1.4769 -0.2900
 1436SOL     OW 6029   9.287   6.744   8.747  0.1978 -0.2785  0.3790
 1436SOL    HW1 6030   9.267   6.820   8.801  0.1119 -0.7689  1.0485
 1436SOL    HW2 6031   9.375   6.717   8.774  0.7919  0.3806 -0.8102
 1437SOL     OW 6032   6.432   6.359   4.006  0.3901 -0.5381  0.1195
 1437SOL    HW1 6033   6.439   6.446   4.047  2.2784 -0.5203 -0.1238
 1437SOL    HW2 6034   6.347   6.326   4.033 -0.0233  1.0625  0.8881
 1438SOL     OW 6035   0.243   4.348   4.821  0.5888 -0.1441  0.2354
 1438SOL    HW1 6036   0.251   4.321   4.913 -1.8279  3.6283  1.8413
 1438SOL    HW2 6037   0.149   4.349   4.805  0.8770  0.8873 -1.7065
 1439SOL     OW 6038   7.511   4.105   5.328 -0.1574 -0.2905  0.1639
 1439SOL    HW1 6039   7.481   4.194   5.311 -0.3442 -0.8661 -3.0420
 1439SOL    HW2 6040   7.606   4.109   5.319 -0.2575 -0.6027 -1.1522
 1440SOL     OW 6041   9.700   0.977   9.494 -0.0037  0.4667  0.0439
 1440SOL    HW1 6042   9.776   0.923   9.474  0.6478  1.1774  0.5143
 1440SOL    HW2 6043   9.737   1.063   9.514 -0.4683 -0.0789  4.3226
 1441SOL     OW 6044   6.120   9.232   7.844  0.0902  0.3398  0.5092
 1441SOL    HW1 6045   6.137   9.306   7.902  0.5807  0.7998 -0.1996
 1441SOL    HW2 6046   6.202   9.182   7.845 -0.3843 -0.4416  1.3236
 1442SOL     OW 6047   3.474   8.235   5.809 -0.0606  0.5887 -0.1457
 1442SOL    HW1 6048   3.393   8.271   5.845  0.1350  0.1635  0.7414
 1442SOL    HW2 6049   3.469   8.141   5.825 -0.8259  0.0551 -2.9660
 1443SOL     OW 6050   2.140   3.994   0.123 -0.2386  0.3763 -0.4285
 1443SOL    HW1 6051   2.225   3.992   0.079 -0.0384  1.2898 -0.0912
 1443SOL    HW2 6052   2.079   4.027   0.058 -0.9179 -2.7500 -1.5770
 1444SOL     OW 6053   6.809   5.672   2.880 -0.7556  0.4401  0.1527
 1444SOL    HW1 6054   6.856   5.606   2.829 -2.4719 -0.4501 -0.3840
 1444SOL    HW2 6055   6.819   5.752   2.829  1.0153  0.5478  0.6006
 1445SOL     OW 6056   0.174   5.381   6.199 -0.5406  0.8455 -0.8415
 1445SOL    HW1 6057   0.181   5.363   6.106 -0.8271 -0.3480 -0.6591
 1445SOL    HW2 6058   0.182   5.295   6.241 -0.3822  1.3577  0.2371
 1446SOL     OW 6059   7.852   0.870   0.553  0.0117 -0.0567 -0.0461
 1446SOL    HW1 6060   7.929   0.896   0.603 -0.6318  0.4287  0.7104
 1446SOL    HW2 6061   7.806   0.952   0.534 -0.2634 -0.3290 -0.5931
 1447SOL     OW 6062   5.722   1.065   1.645 -0.0029 -0.0162  0.1322
 1447SOL    HW1 6063   5.639   1.024   1.670  0.0354 -0.6803 -0.7771
 1447SOL    HW2 6064   5.701   1.157   1.633 -0.6804 -0.2343 -0.3890
 1448SOL     OW 6065   0.500   2.845   2.141 -0.3883  0.0026 -0.0902
 1448SOL    HW1 6066   0.443   2.813   2.211  1.1603 -3.2228 -0.1255
 1448SOL    HW2 6067   0.565   2.900   2.186 -1.3894  0.7731  0.4499
 1449SOL     OW 6068   6.788   9.582   1.736  0.3370 -0.3808  0.1478
 1449SOL    HW1 6069   6.737   9.659   1.711  0.0109 -0.8139 -0.5251
 1449SOL    HW2 6070   6.821   9.547   1.654  1.4568 -0.3078  0.5423
 1450SOL     OW 6071   7.739   1.506   0.909 -1.2280 -0.1142 -0.4045
 1450SOL    HW1 6072   7.744   1.589   0.862 -0.3750  0.9054  1.3579
 1450SOL    HW2 6073   7.648   1.500   0.937 -1.6250 -0.4901 -1.7020
 1451SOL     OW 6074   0.642   5.562   2.699 -0.9652 -0.6163 -0.2996
 1451SOL    HW1 6075   0.618   5.602   2.782 -0.3357  0.8337 -0.7847
 1451SOL    HW2 6076   0.591   5.610   2.634 -1.3361 -1.6347 -0.7753
 1452SOL     OW 6077   4.015   7.919   1.834 -0.2692 -0.1720  0.1128
 1452SOL    HW1 6078   3.970   7.853   1.781  1.0387 -1.2016  0.2242
 1452SOL    HW2 6079   4.055   7.978   1.771  0.2663 -0.6899 -0.0419
 1453SOL     OW 6080   0.773   3.703   4.309  0.1271  0.1279  0.0904
 1453SOL    HW1 6081   0.748   3.668   4.224 -0.9184  0.3928  0.2764
 1453SOL    HW2 6082   0.716   3.657   4.371  2.6181 -2.0406  0.9952
 1454SOL     OW 6083   6.324   2.615   6.588  0.2436  0.3285  0.1729
 1454SOL    HW1 6084   6.241   2.567   6.582  0.3986 -0.0125  0.6869
 1454SOL    HW2 6085   6.330   2.663   6.506  0.0642 -0.5063 -0.3372
 1455SOL     OW 6086   5.790   0.670   1.050  0.1557 -0.0501  0.5225
 1455SOL    HW1 6087   5.782   0.760   1.081  0.0192 -0.2411  1.0724
 1455SOL    HW2 6088   5.741   0.619   1.115  0.2164 -0.5129  0.2054
 1456SOL     OW 6089   4.383   1.596   5.802  0.5309 -0.6952  0.7013
 1456SOL    HW1 6090   4.476   1.588   5.781  0.7892  0.4738  1.3379
 1456SOL    HW2 6091   4.361   1.686   5.781 -0.3140 -0.7926  1.1298
 1457SOL     OW 6092   7.134   5.293   6.640  0.5348  0.3137  0.3933
 1457SOL    HW1 6093   7.165   5.211   6.601  0.4708  0.0540  0.8757
 1457SOL    HW2 6094   7.038   5.287   6.635  0.5484  0.9958 -0.8545
 1458SOL     OW 6095   0.868   0.608   7.298  0.4142 -0.1660  0.0367
 1458SOL    HW1 6096   0.874   0.700   7.273  0.2674 -0.3808 -0.8083
 1458SOL    HW2 6097   0.954   0.588   7.336 -0.0566  0.7160  1.6900
 1459SOL     OW 6098   5.876   6.738   7.091  0.2903  0.0728  0.8976
 1459SOL    HW1 6099   5.939   6.795   7.136  2.3042 -1.3171  0.0242
 1459SOL    HW2 6100   5.913   6.650   7.101  1.0260 -0.3412 -3.5102
 1460SOL     OW 6101   3.265   4.006   5.295  0.0985  0.1531  0.0516
 1460SOL    HW1 6102   3.183   4.051   5.316  0.1376  0.3699 -0.2580
 1460SOL    HW2 6103   3.255   3.978   5.204  0.3083  0.0453  0.0595
 1461SOL     OW 6104   3.823   5.450   3.038  0.0116 -0.2608  0.4424
 1461SOL    HW1 6105   3.819   5.354   3.040  0.3216 -0.3119 -0.7116
 1461SOL    HW2 6106   3.915   5.469   3.055  0.7701 -0.3576 -2.9406
 1462SOL     OW 6107   4.447   7.295   5.816  0.5431 -0.0323 -0.2577
 1462SOL    HW1 6108   4.437   7.232   5.745  0.4094 -1.1088  0.6737
 1462SOL    HW2 6109   4.538   7.323   5.811  0.6662 -0.4789 -0.5590
 1463SOL     OW 6110   7.238   5.631   4.295 -0.0590 -0.2488 -0.1114
 1463SOL    HW1 6111   7.277   5.663   4.214  0.8702  2.2615  1.2143
 1463SOL    HW2 6112   7.145   5.617   4.273  0.7012 -2.6202 -2.3223
 1464SOL     OW 6113   6.274   2.449   3.509 -0.0803  0.1464 -0.8913
 1464SOL    HW1 6114   6.241   2.502   3.436  0.6019  0.5910 -0.8834
 1464SOL    HW2 6115   6.236   2.363   3.494 -1.5253  0.7140 -0.6942
 1465SOL     OW 6116   9.143   6.701   9.056  0.1876 -0.2725 -0.3769
 1465SOL    HW1 6117   9.126   6.769   8.990 -1.9421 -0.3326  0.0466
 1465SOL    HW2 6118   9.082   6.721   9.127  0.4180 -1.8886  0.3163
 1466SOL     OW 6119   2.937   8.582   5.896  0.1180  0.0340  0.2350
 1466SOL    HW1 6120   2.944   8.493   5.863  0.7629  0.0002  0.4450
 1466SOL    HW2 6121   3.028   8.611   5.905 -0.0801  0.5593  0.5794
 1467SOL     OW 6122   6.152   0.976   1.452 -0.6635 -0.3585 -0.2902
 1467SOL    HW1 6123   6.060   1.003   1.454  0.0044  2.0522  0.2603
 1467SOL    HW2 6124   6.180   0.992   1.362  0.2917  3.1444  0.4830
 1468SOL     OW 6125   4.070   6.979   4.201  0.1420 -0.2865  0.1783
 1468SOL    HW1 6126   4.129   7.005   4.131  1.5046 -0.4817  1.2065
 1468SOL    HW2 6127   4.112   7.012   4.281 -0.8060 -1.0029  0.9968
 1469SOL     OW 6128   9.681   1.745   3.739  0.2806 -0.1232 -0.1366
 1469SOL    HW1 6129   9.721   1.662   3.715  1.0499  0.2615 -0.2199
 1469SOL    HW2 6130   9.661   1.787   3.655  1.9444  0.7354 -0.1355
 1470SOL     OW 6131   1.766   3.382   3.551  0.4477 -0.1485 -0.2807
 1470SOL    HW1 6132   1.747   3.315   3.485 -2.2511  0.4025 -0.1625
 1470SOL    HW2 6133   1.733   3.464   3.513  0.5120  0.4995  1.0055
 1471SOL     OW 6134   1.002   0.608   5.780 -0.3504  0.1874  0.2815
 1471SOL    HW1 6135   1.011   0.545   5.709  0.9483  1.4219 -0.7108
 1471SOL    HW2 6136   0.929   0.664   5.755  0.4857  1.0011 -0.4453
 1472SOL     OW 6137   5.323   4.225   0.438 -0.5278  0.3225  0.1210
 1472SOL    HW1 6138   5.337   4.213   0.344 -0.4997  1.2953 -0.0099
 1472SOL    HW2 6139   5.228   4.217   0.448 -0.3481 -2.0777  0.3775
 1473SOL     OW 6140   4.801   4.344   8.334  0.7681  0.3187 -0.3426
 1473SOL    HW1 6141   4.791   4.321   8.242 -0.4865 -0.4214 -0.0434
 1473SOL    HW2 6142   4.749   4.424   8.344  1.2086  0.6100 -0.3478
 1474SOL     OW 6143   3.389   9.038   8.190  0.0179 -0.4614  0.1967
 1474SOL    HW1 6144   3.480   9.059   8.207  0.1281 -1.3823  0.8633
 1474SOL    HW2 6145   3.389   8.996   8.104  0.0520  0.5415 -0.3035
 1475SOL     OW 6146   1.457   7.094   8.056 -0.4500  0.4316  0.9002
 1475SOL    HW1 6147   1.517   7.084   8.131 -0.3702  1.0254  0.9169
 1475SOL    HW2 6148   1.373   7.116   8.095 -0.7294 -0.5356  0.8840
 1476SOL     OW 6149   9.664   4.823   7.393  0.6962  0.2162  1.0701
 1476SOL    HW1 6150   9.707   4.846   7.310  1.8207  1.0827  1.8609
 1476SOL    HW2 6151   9.729   4.844   7.460 -0.3948  0.0442  2.2185
 1477SOL     OW 6152   2.430   0.598   2.914  0.5948 -0.0704 -0.1887
 1477SOL    HW1 6153   2.511   0.613   2.866  0.4176 -0.1309 -0.5112
 1477SOL    HW2 6154   2.369   0.665   2.880  0.4092 -0.2406 -0.1939
 1478SOL     OW 6155   1.199   6.029   0.188 -0.1762  0.4074 -0.1233
 1478SOL    HW1 6156   1.277   6.031   0.133 -0.3398 -0.1909 -0.3913
 1478SOL    HW2 6157   1.206   5.946   0.235 -0.0057  0.9416  0.8099
 1479SOL     OW 6158   8.677   6.678   5.995  0.5363  0.1581 -0.0332
 1479SOL    HW1 6159   8.610   6.736   5.958  0.7763 -0.4016 -1.4034
 1479SOL    HW2 6160   8.677   6.697   6.089 -0.0037  1.7337 -0.3344
 1480SOL     OW 6161   2.230   7.072   5.621 -0.0195 -0.4336 -0.4257
 1480SOL    HW1 6162   2.199   7.032   5.702 -1.2921 -0.9835 -1.1371
 1480SOL    HW2 6163   2.150   7.083   5.568  0.6312  0.8457 -1.2083
 1481SOL     OW 6164   2.957   8.150   4.614 -0.0717  0.2256  0.3121
 1481SOL    HW1 6165   2.898   8.193   4.675 -1.6654 -0.8791 -0.4005
 1481SOL    HW2 6166   2.984   8.219   4.554 -2.2306  0.3719 -0.5560
 1482SOL     OW 6167   7.816   3.347   3.118  0.0790  0.2489 -0.8759
 1482SOL    HW1 6168   7.769   3.427   3.139  0.3234 -0.0807  1.0812
 1482SOL    HW2 6169   7.895   3.376   3.071  1.4544  1.4419  1.9526
 1483SOL     OW 6170   5.470   5.242   5.546  0.7077  0.1219  0.5376
 1483SOL    HW1 6171   5.451   5.155   5.580  0.5412  0.1847  0.6095
 1483SOL    HW2 6172   5.511   5.288   5.618 -1.0119  0.7401  1.1796
 1484SOL     OW 6173   5.173   7.725   4.023 -0.2520 -0.4496  0.6464
 1484SOL    HW1 6174   5.137   7.680   4.098  1.7987  1.2797  2.8476
 1484SOL    HW2 6175   5.100   7.775   3.986 -1.7971 -3.0220  0.0205
 1485SOL     OW 6176   4.311   2.579   7.253  0.8833 -0.0918 -0.0166
 1485SOL    HW1 6177   4.309   2.486   7.272 -0.7430  0.1662  1.3521
 1485SOL    HW2 6178   4.235   2.594   7.196  1.2925  0.3486 -0.4555
 1486SOL     OW 6179   6.491   7.932   3.400  0.2309 -0.1252 -0.2358
 1486SOL    HW1 6180   6.438   7.885   3.464 -0.1694 -0.0240 -0.4870
 1486SOL    HW2 6181   6.438   8.009   3.377  0.7558  0.3112 -0.0293
 1487SOL     OW 6182   8.707   0.967   0.878 -0.3405 -0.1186 -0.4263
 1487SOL    HW1 6183   8.633   0.914   0.847 -1.6762  1.7779 -0.6017
 1487SOL    HW2 6184   8.727   1.025   0.805  2.3252 -1.5033 -0.9326
 1488SOL     OW 6185   2.707   1.665   1.205 -0.5161  0.2472  1.3611
 1488SOL    HW1 6186   2.690   1.753   1.240 -0.5280  0.8871 -0.1516
 1488SOL    HW2 6187   2.801   1.652   1.217 -0.2623  1.0560  0.3758
 1489SOL     OW 6188   4.357   3.039   2.001  0.1907 -0.0684 -0.8333
 1489SOL    HW1 6189   4.375   2.972   1.935  1.3600 -1.2639  0.6150
 1489SOL    HW2 6190   4.443   3.073   2.025 -0.2300  0.5525 -0.1490
 1490SOL     OW 6191   7.482   1.731   0.225  0.3794  0.4400  0.2057
 1490SOL    HW1 6192   7.556   1.789   0.243  0.5566  0.3713 -0.3025
 1490SOL    HW2 6193   7.469   1.737   0.131  0.4117 -0.3571  0.1422
 1491SOL     OW 6194   6.944   1.255   2.386 -0.2031 -0.5862 -0.3350
 1491SOL    HW1 6195   6.862   1.290   2.350  0.3445  0.0467 -1.0070
 1491SOL    HW2 6196   7.011   1.285   2.324  0.8469  1.0163  1.4850
 1492SOL     OW 6197   2.223   2.440   4.568  0.9137  0.0394  0.2471
 1492SOL    HW1 6198   2.212   2.380   4.494  0.2125 -0.4779  0.7575
 1492SOL    HW2 6199   2.184   2.522   4.538  0.4740 -0.2186  0.1023
 1493SOL     OW 6200   8.958   9.067   7.417  0.0737 -0.0450 -0.3591
 1493SOL    HW1 6201   8.865   9.044   7.412  0.5100 -1.9673 -0.1533
 1493SOL    HW2 6202   8.983   9.046   7.507  0.8035  0.0821 -0.5257
 1494SOL     OW 6203   9.558   3.669   2.466  0.1831 -0.2023 -0.0463
 1494SOL    HW1 6204   9.475   3.717   2.464 -0.1040 -0.5715  1.6021
 1494SOL    HW2 6205   9.533   3.579   2.486  0.9288 -0.4425 -0.1853
 1495SOL     OW 6206   2.676   8.774   8.032  0.3488  0.0024 -0.5565
 1495SOL    HW1 6207   2.749   8.752   8.089 -0.5215 -1.8644 -0.0688
 1495SOL    HW2 6208   2.716   8.816   7.956  1.9646 -1.3069 -0.4713
 1496SOL     OW 6209   7.391   0.311   3.052 -0.8095  0.1473 -0.1925
 1496SOL    HW1 6210   7.482   0.303   3.022 -1.0890 -0.9807 -0.8136
 1496SOL    HW2 6211   7.393   0.381   3.117  0.4678  0.2689 -0.3347
 1497SOL     OW 6212   4.705   6.124   8.380 -0.3847 -0.1704  0.7631
 1497SOL    HW1 6213   4.653   6.201   8.404 -0.8462 -0.4936  0.8144
 1497SOL    HW2 6214   4.650   6.049   8.403 -0.3893 -0.5081 -0.2655
 1498SOL     OW 6215   7.912   3.447   6.297  0.0123 -0.0994  0.2666
 1498SOL    HW1 6216   7.883   3.521   6.244  0.0446 -0.3989 -0.1704
 1498SOL    HW2 6217   7.833   3.392   6.308 -0.1642  0.2987  1.1035
 1499SOL     OW 6218   6.507   1.087   6.702  0.1544 -0.3968  0.4018
 1499SOL    HW1 6219   6.564   1.040   6.763  0.7695  2.8754  2.6006
 1499SOL    HW2 6220   6.567   1.144   6.653 -0.7529 -0.4351 -0.8019
 1500SOL     OW 6221   1.448   0.873   1.511  0.6333 -0.2602  0.0828
 1500SOL    HW1 6222   1.527   0.927   1.510  0.2480  0.2937 -0.3137
 1500SOL    HW2 6223   1.459   0.816   1.588  1.0378  0.3756  0.5002
 1501SOL     OW 6224   5.444   9.592   0.499  0.0280 -0.1326 -0.0857
 1501SOL    HW1 6225   5.486   9.649   0.436  0.2751 -2.4241 -2.1445
 1501SOL    HW2 6226   5.516   9.547   0.543 -0.1537  1.1958  1.6992
 1502SOL     OW 6227   3.766   4.823   3.152  0.3946 -0.0362 -0.1057
 1502SOL    HW1 6228   3.747   4.747   3.207  0.5164  1.1263  1.5995
 1502SOL    HW2 6229   3.808   4.786   3.074  0.1392 -1.7315  0.5283
 1503SOL     OW 6230   9.434   3.418   1.502 -0.2253  0.0997 -0.0121
 1503SOL    HW1 6231   9.358   3.423   1.444  0.5918  0.0841 -1.1237
 1503SOL    HW2 6232   9.433   3.501   1.550 -0.1416  0.7304 -1.0661
 1504SOL     OW 6233   3.304   6.663   6.622  0.1932  0.3229  0.4007
 1504SOL    HW1 6234   3.352   6.730   6.671  1.1266 -0.6486  0.8466
 1504SOL    HW2 6235   3.372   6.615   6.575 -0.6061  0.6907 -1.2126
 1505SOL     OW 6236   7.361   5.214   8.055 -0.5045 -0.3606 -0.0436
 1505SOL    HW1 6237   7.366   5.120   8.037 -0.2372 -0.3497 -0.0259
 1505SOL    HW2 6238   7.287   5.223   8.115 -2.1133 -0.2926 -1.9052
 1506SOL     OW 6239   6.347   5.740   5.815  0.4847  0.0260 -0.0001
 1506SOL    HW1 6240   6.404   5.704   5.747 -0.2815 -0.3876 -0.4502
 1506SOL    HW2 6241   6.388   5.714   5.897  1.8157  1.1623 -0.2845
 1507SOL     OW 6242   7.061   6.483   6.232 -0.4347  0.1840 -0.5202
 1507SOL    HW1 6243   7.112   6.562   6.212 -1.5070  0.9935 -0.1729
 1507SOL    HW2 6244   7.039   6.492   6.325 -1.9277  0.3050 -0.8556
 1508SOL     OW 6245   8.741   7.130   0.418 -0.1457  0.2847  0.2647
 1508SOL    HW1 6246   8.655   7.170   0.406  0.9764  3.0487  0.7087
 1508SOL    HW2 6247   8.741   7.054   0.360 -2.4632  0.8587 -0.5747
 1509SOL     OW 6248   0.175   3.393   0.608  0.0084  1.3605  0.1198
 1509SOL    HW1 6249   0.164   3.420   0.517 -0.5269 -0.4092 -0.3796
 1509SOL    HW2 6250   0.256   3.343   0.609 -0.2180  0.9883  0.5127
 1510SOL     OW 6251   1.963   2.582   3.683  0.2893  0.1526 -0.3194
 1510SOL    HW1 6252   2.001   2.647   3.624 -2.2191  1.2926 -0.8166
 1510SOL    HW2 6253   1.995   2.498   3.650  0.7238  0.9039 -1.9387
 1511SOL     OW 6254   4.022   6.512   4.310  0.2766 -0.2211  0.1537
 1511SOL    HW1 6255   4.102   6.564   4.301 -0.3174  0.5046 -1.3585
 1511SOL    HW2 6256   3.981   6.516   4.224 -0.5795 -1.9469  0.4272
 1512SOL     OW 6257   5.655   7.740   5.605 -0.2628 -0.3664  0.0855
 1512SOL    HW1 6258   5.678   7.832   5.597 -0.9869 -0.0744  1.1371
 1512SOL    HW2 6259   5.732   7.693   5.572  0.7587  0.6056  1.0022
 1513SOL     OW 6260   0.526   1.745   3.010 -0.4089 -0.6406 -0.1409
 1513SOL    HW1 6261   0.609   1.744   3.058 -0.6951  1.8867  0.5394
 1513SOL    HW2 6262   0.483   1.663   3.034  0.6272 -0.6555  1.8170
 1514SOL     OW 6263   5.602   9.214   1.550  0.2807 -0.2083  0.5562
 1514SOL    HW1 6264   5.648   9.234   1.632  1.5499  3.4994 -0.8664
 1514SOL    HW2 6265   5.575   9.299   1.516  1.1387 -1.3794 -3.5955
 1515SOL     OW 6266   1.381   0.191   6.649 -0.2249  0.5412  0.3915
 1515SOL    HW1 6267   1.308   0.130   6.659 -0.5212  0.7370 -0.4515
 1515SOL    HW2 6268   1.362   0.263   6.708  0.8160 -0.7706  2.4759
 1516SOL     OW 6269   6.706   7.814   2.028  0.1227 -0.0859 -0.0341
 1516SOL    HW1 6270   6.778   7.833   1.967  0.6039  1.3738  0.9398
 1516SOL    HW2 6271   6.748   7.767   2.100 -0.3100 -1.1335 -0.4456
 1517SOL     OW 6272   1.725   4.498   2.483  0.2730  0.7650  0.1605
 1517SOL    HW1 6273   1.705   4.486   2.391 -1.2210  1.1176  0.4083
 1517SOL    HW2 6274   1.784   4.426   2.505 -0.2210  0.0508 -0.8011
 1518SOL     OW 6275   3.430   1.121   2.403 -0.4525 -0.3305 -0.0927
 1518SOL    HW1 6276   3.407   1.189   2.465 -1.1033  0.0987 -0.7922
 1518SOL    HW2 6277   3.423   1.162   2.317 -0.0660 -1.0547 -0.4879
 1519SOL     OW 6278   1.780   2.233   9.071 -0.0305  0.3616 -0.1615
 1519SOL    HW1 6279   1.838   2.280   9.131 -0.6022 -1.4270  1.9231
 1519SOL    HW2 6280   1.696   2.280   9.078 -0.5325 -0.6956  1.7305
 1520SOL     OW 6281   4.876   1.888   5.711 -0.2095 -0.6374  0.0747
 1520SOL    HW1 6282   4.951   1.860   5.764 -0.1278  2.9193  2.1710
 1520SOL    HW2 6283   4.905   1.877   5.620  1.3170 -2.8990  0.7496
 1521SOL     OW 6284   1.649   1.926   4.447  0.2280  0.6941  0.4511
 1521SOL    HW1 6285   1.597   1.997   4.484  1.2778  1.3228  0.7801
 1521SOL    HW2 6286   1.736   1.965   4.432 -0.5590  1.1964 -4.7421
 1522SOL     OW 6287   7.644   0.956   2.726  0.0483 -0.0124 -0.4419
 1522SOL    HW1 6288   7.575   0.897   2.757  0.6142 -0.6875 -0.4338
 1522SOL    HW2 6289   7.606   0.999   2.650 -0.3153 -0.5220 -0.5564
 1523SOL     OW 6290   7.135   3.801   3.027 -0.1387  0.1080 -0.3142
 1523SOL    HW1 6291   7.158   3.809   3.120 -0.7312  0.8819 -0.2232
 1523SOL    HW2 6292   7.206   3.750   2.989 -0.6358 -1.5369  0.8558
 1524SOL     OW 6293   9.111   2.708   4.580 -0.1211  0.5716  0.5986
 1524SOL    HW1 6294   9.122   2.613   4.578 -0.1096  0.5301  2.1299
 1524SOL    HW2 6295   9.199   2.742   4.571 -0.0861  0.4445  0.4340
 1525SOL     OW 6296   9.334   5.250   5.722  0.3821  0.1768 -0.8238
 1525SOL    HW1 6297   9.378   5.291   5.648 -0.1004  1.3722 -0.4773
 1525SOL    HW2 6298   9.315   5.322   5.782 -0.7102 -0.5165 -0.2938
 1526SOL     OW 6299   3.017   3.004   4.328  0.3636 -0.0084  0.0402
 1526SOL    HW1 6300   2.937   3.005   4.276  0.4360 -1.6220 -0.1339
 1526SOL    HW2 6301   3.001   3.067   4.398 -0.3782  0.9589 -0.9687
 1527SOL     OW 6302   6.486   9.355   1.362 -0.1974 -0.0712  0.3331
 1527SOL    HW1 6303   6.474   9.268   1.324 -0.7825 -0.2941  1.0234
 1527SOL    HW2 6304   6.424   9.359   1.434  0.5297  0.5455  0.9422
 1528SOL     OW 6305   8.091   1.780   0.294  0.1671  0.0028 -0.3288
 1528SOL    HW1 6306   8.023   1.731   0.340 -0.7662  0.3429 -1.2944
 1528SOL    HW2 6307   8.142   1.713   0.249  1.9819 -0.4688  2.2428
 1529SOL     OW 6308   9.544   7.412   3.708  0.1409 -0.3676 -0.5862
 1529SOL    HW1 6309   9.504   7.332   3.743 -1.2041  0.2388 -0.6975
 1529SOL    HW2 6310   9.507   7.420   3.620 -0.1697  0.6696 -0.3727
 1530SOL     OW 6311   3.472   1.680   6.165  0.5044 -0.2451 -0.5081
 1530SOL    HW1 6312   3.456   1.674   6.071  0.7055  0.1140 -0.5691
 1530SOL    HW2 6313   3.428   1.762   6.191  2.9564  1.2817 -0.8474
 1531SOL     OW 6314   6.654   7.515   0.222  0.1146  0.2746 -0.7011
 1531SOL    HW1 6315   6.749   7.517   0.236 -0.1945  0.4935  1.6372
 1531SOL    HW2 6316   6.629   7.607   0.213 -0.0404  0.2998 -0.0288
 1532SOL     OW 6317   4.726   3.185   1.067  0.0813  0.5634 -0.2313
 1532SOL    HW1 6318   4.745   3.193   1.160  2.5333 -0.6173 -0.5313
 1532SOL    HW2 6319   4.650   3.127   1.062 -0.3082  0.9415  1.0244
 1533SOL     OW 6320   5.588   7.156   0.168  0.1862 -0.0375 -0.0040
 1533SOL    HW1 6321   5.540   7.104   0.233  1.3598  0.3905  1.2731
 1533SOL    HW2 6322   5.579   7.107   0.087 -0.7073 -1.0037  0.6504
 1534SOL     OW 6323   8.105   0.532   7.221  0.6994  0.2718 -0.0126
 1534SOL    HW1 6324   8.059   0.449   7.207  0.7551  0.1713  0.3869
 1534SOL    HW2 6325   8.173   0.533   7.153  0.2902  0.2935 -0.4289
 1535SOL     OW 6326   3.018   5.809   3.811 -0.0754  0.2977 -0.0260
 1535SOL    HW1 6327   2.964   5.841   3.884 -0.6294 -0.2741 -0.1762
 1535SOL    HW2 6328   3.057   5.728   3.845  0.2929  0.4482 -0.0922
 1536SOL     OW 6329   5.498   5.292   8.051 -0.2369  0.2457 -0.5017
 1536SOL    HW1 6330   5.439   5.357   8.013  1.6331  0.6127 -2.9997
 1536SOL    HW2 6331   5.577   5.341   8.075  0.2475 -0.7170 -0.0338
 1537SOL     OW 6332   5.710   4.981   3.702  0.5375 -0.4594  0.3855
 1537SOL    HW1 6333   5.645   4.916   3.730 -0.5975 -0.7490 -2.5552
 1537SOL    HW2 6334   5.734   5.027   3.782 -2.8902 -0.7080  1.7092
 1538SOL     OW 6335   2.093   1.755   7.437  0.0400  0.7524 -0.9494
 1538SOL    HW1 6336   2.067   1.675   7.391  0.1574  0.4452 -0.4765
 1538SOL    HW2 6337   2.188   1.758   7.430  0.3150 -0.5741  1.3440
 1539SOL     OW 6338   8.508   9.098   8.775  0.3087  0.2818 -0.2438
 1539SOL    HW1 6339   8.453   9.039   8.723  0.9020 -0.0861 -0.4607
 1539SOL    HW2 6340   8.457   9.114   8.854 -0.4782  0.6115 -0.8039
 1540SOL     OW 6341   8.505   3.640   0.588 -0.1798 -0.3973 -0.8088
 1540SOL    HW1 6342   8.561   3.717   0.582  0.5699 -0.9087 -0.4904
 1540SOL    HW2 6343   8.558   3.574   0.632  0.1340 -1.9443 -3.3072
 1541SOL     OW 6344   6.492   6.343   3.277  0.5849 -0.1188  0.4801
 1541SOL    HW1 6345   6.412   6.394   3.291 -0.2570 -0.5765 -2.0833
 1541SOL    HW2 6346   6.546   6.398   3.219  1.2145 -0.6720  0.5300
 1542SOL     OW 6347   0.974   8.026   3.142 -0.2390 -0.7094  0.0116
 1542SOL    HW1 6348   0.928   8.097   3.098 -1.2728 -1.0084  0.5880
 1542SOL    HW2 6349   1.061   8.062   3.160 -0.0048 -0.3550 -1.6549
 1543SOL     OW 6350   5.000   5.313   8.112  0.3009 -0.3274  0.0128
 1543SOL    HW1 6351   5.020   5.395   8.157 -2.1413 -0.1573  0.9180
 1543SOL    HW2 6352   5.017   5.245   8.176 -0.5743 -0.2834  0.3027
 1544SOL     OW 6353   1.477   6.018   9.262 -0.2072 -0.3434  0.3760
 1544SOL    HW1 6354   1.537   6.008   9.188  0.4336 -0.0547  0.8424
 1544SOL    HW2 6355   1.520   6.082   9.319  0.0658 -1.6765  1.7317
 1545SOL     OW 6356   6.180   6.153   2.781  0.0232 -0.5218  0.1674
 1545SOL    HW1 6357   6.177   6.137   2.687 -1.6344 -0.9831  0.2814
 1545SOL    HW2 6358   6.116   6.093   2.818  0.7950 -0.4935  1.6290
 1546SOL     OW 6359   7.041   7.190   1.367  0.2453 -0.2662 -0.0643
 1546SOL    HW1 6360   7.031   7.177   1.461 -2.1576  0.5867 -0.1231
 1546SOL    HW2 6361   7.059   7.102   1.333  1.5185 -0.5299  1.1997
 1547SOL     OW 6362   8.447   4.272   4.181 -0.2618 -0.7088 -0.6190
 1547SOL    HW1 6363   8.420   4.280   4.273  2.2537 -0.4856  0.1760
 1547SOL    HW2 6364   8.411   4.188   4.153  0.2066 -1.5430  1.0981
 1548SOL     OW 6365   5.359   3.770   6.338 -0.0598  0.0768 -0.3940
 1548SOL    HW1 6366   5.335   3.753   6.247  0.4513  0.1964 -0.5561
 1548SOL    HW2 6367   5.286   3.820   6.374 -0.3988 -0.2291 -0.6511
 1549SOL     OW 6368   2.473   7.797   4.011 -0.1901 -0.3749 -0.1629
 1549SOL    HW1 6369   2.449   7.736   4.081  0.9617 -0.7774 -0.0921
 1549SOL    HW2 6370   2.395   7.851   3.998 -0.3237 -0.0842  1.6465
 1550SOL     OW 6371   3.553   6.318   9.286 -0.0226  0.2569 -0.3292
 1550SOL    HW1 6372   3.597   6.268   9.354  1.1338  0.9073 -0.5786
 1550SOL    HW2 6373   3.494   6.376   9.334  2.1056  2.0189  0.3132
 1551SOL     OW 6374   8.485   5.170   0.428 -0.4277 -0.5801 -0.1763
 1551SOL    HW1 6375   8.534   5.155   0.348  1.4541  0.7457  0.6537
 1551SOL    HW2 6376   8.533   5.123   0.496 -1.4598 -0.9204  0.3403
 1552SOL     OW 6377   6.482   5.016   4.418  0.4559  0.4400  0.2860
 1552SOL    HW1 6378   6.479   4.948   4.485 -0.4583 -0.6046 -0.7856
 1552SOL    HW2 6379   6.507   4.970   4.338 -0.7063  1.2463 -0.5691
 1553SOL     OW 6380   3.032   7.858   4.627 -0.1292  0.0681 -0.7708
 1553SOL    HW1 6381   3.036   7.953   4.618  1.1564  0.4241  2.2968
 1553SOL    HW2 6382   3.088   7.825   4.556  0.4108  1.6541 -1.1280
 1554SOL     OW 6383   6.500   0.520   1.894 -0.2102 -0.7857  0.1665
 1554SOL    HW1 6384   6.523   0.520   1.987  0.7401 -0.5658 -0.0501
 1554SOL    HW2 6385   6.407   0.541   1.892 -0.0344  0.1987  1.0399
 1555SOL     OW 6386   5.594   3.588   3.782  0.6146 -0.1420  0.1595
 1555SOL    HW1 6387   5.562   3.644   3.853 -0.5943 -0.0810 -0.4005
 1555SOL    HW2 6388   5.675   3.549   3.816 -0.2392 -0.5698  1.8063
 1556SOL     OW 6389   0.047   5.470   6.923  0.7074  0.3251 -0.2831
 1556SOL    HW1 6390   0.058   5.416   7.002  0.3004  0.0913 -0.3875
 1556SOL    HW2 6391   0.102   5.427   6.858  0.0801 -0.1929 -0.4781
 1557SOL     OW 6392   8.492   5.040   7.067  0.1095  0.5025 -0.2505
 1557SOL    HW1 6393   8.481   4.972   7.133  0.0511 -2.9169 -3.4287
 1557SOL    HW2 6394   8.585   5.062   7.071  0.4542 -0.8523 -0.0225
 1558SOL     OW 6395   3.136   9.009   0.249  0.7215  0.4534 -0.1676
 1558SOL    HW1 6396   3.181   8.956   0.184  0.1776  0.8863 -0.9058
 1558SOL    HW2 6397   3.106   8.946   0.314  0.7351 -0.0553 -0.6476
 1559SOL     OW 6398   7.725   7.918   0.119  0.0060  0.2351 -0.3117
 1559SOL    HW1 6399   7.648   7.963   0.153  0.2116  0.8922 -0.7040
 1559SOL    HW2 6400   7.797   7.946   0.175 -0.1987 -1.1901  0.7132
 1560SOL     OW 6401   0.525   7.166   2.622 -0.2934  0.1700  0.4249
 1560SOL    HW1 6402   0.527   7.135   2.713  0.1334 -2.1293 -0.2972
 1560SOL    HW2 6403   0.610   7.208   2.609 -0.4208  0.6630  1.1176
 1561SOL     OW 6404   8.234   1.392   3.241  0.0063  0.7264 -0.0030
 1561SOL    HW1 6405   8.304   1.341   3.282 -1.2013 -0.5986  0.5122
 1561SOL    HW2 6406   8.203   1.449   3.311  0.0363  0.7257  0.0110
 1562SOL     OW 6407   6.703   2.552   2.281  0.5287  0.2473 -0.4606
 1562SOL    HW1 6408   6.620   2.505   2.273  0.9635 -0.7183  0.4835
 1562SOL    HW2 6409   6.717   2.560   2.376  0.8937  1.5442 -0.6013
 1563SOL     OW 6410   2.188   7.782   7.295  0.2820 -0.0823  0.2579
 1563SOL    HW1 6411   2.224   7.701   7.259 -0.8922 -0.1294 -0.9103
 1563SOL    HW2 6412   2.258   7.819   7.347  1.1351 -1.4172  0.0937
 1564SOL     OW 6413   3.987   0.298   1.065 -0.4648 -0.2417 -0.0303
 1564SOL    HW1 6414   4.012   0.387   1.042 -0.1819 -0.7116 -1.6897
 1564SOL    HW2 6415   3.896   0.305   1.093  0.3428  0.9524  2.6674
 1565SOL     OW 6416   4.318   6.503   5.083 -0.4402 -0.3364 -0.1710
 1565SOL    HW1 6417   4.232   6.545   5.074  0.6483  1.9868 -0.7223
 1565SOL    HW2 6418   4.321   6.474   5.174 -1.8042 -0.4618 -0.1390
 1566SOL     OW 6419   6.594   4.062   3.501 -0.5842  0.3625 -0.1834
 1566SOL    HW1 6420   6.668   4.010   3.471 -1.5893 -0.6778 -0.9601
 1566SOL    HW2 6421   6.528   3.997   3.525 -1.2753  1.2652  0.4205
 1567SOL     OW 6422   0.679   8.693   7.509  0.4591  0.0655  0.1124
 1567SOL    HW1 6423   0.736   8.619   7.487  1.4434  1.2230 -1.4418
 1567SOL    HW2 6424   0.738   8.759   7.546 -0.7241 -0.6715  3.7267
 1568SOL     OW 6425   6.736   5.444   2.508  0.2736 -0.2213  0.4530
 1568SOL    HW1 6426   6.661   5.387   2.491  1.2912 -1.1625 -1.1067
 1568SOL    HW2 6427   6.774   5.409   2.589 -0.7997  0.1254  1.1313
 1569SOL     OW 6428   8.467   9.342   8.516  0.2642 -0.4515  0.1240
 1569SOL    HW1 6429   8.484   9.347   8.610 -0.8297 -0.4573  0.3419
 1569SOL    HW2 6430   8.553   9.343   8.475  0.7599 -0.6808  1.1404
 1570SOL     OW 6431   0.638   8.007   9.544 -0.6236 -0.1840 -0.2889
 1570SOL    HW1 6432   0.694   8.058   9.485 -0.2421 -1.6878 -1.2829
 1570SOL    HW2 6433   0.550   8.043   9.531 -0.6443 -0.8480 -2.2213
 1571SOL     OW 6434   8.098   6.687   3.242  0.1686 -0.4744  0.9091
 1571SOL    HW1 6435   8.077   6.771   3.282  0.1235 -0.9858  1.9781
 1571SOL    HW2 6436   8.026   6.672   3.180  0.8372  0.8584 -0.2584
 1572SOL     OW 6437   3.036   4.776   7.374 -0.4161  0.0664 -0.0076
 1572SOL    HW1 6438   3.034   4.690   7.332 -0.2583 -0.8078  1.6489
 1572SOL    HW2 6439   3.121   4.813   7.351  0.8162 -1.5565  1.6366
 1573SOL     OW 6440   3.153   1.415   4.394  0.0271 -0.0750  0.0845
 1573SOL    HW1 6441   3.085   1.474   4.427 -0.3769 -1.4734  1.9241
 1573SOL    HW2 6442   3.131   1.402   4.302 -2.5075 -0.8440  0.7243
 1574SOL     OW 6443   2.426   1.039   1.274 -0.0837 -0.1306 -0.1452
 1574SOL    HW1 6444   2.363   1.103   1.240  1.1123 -0.1800 -2.6457
 1574SOL    HW2 6445   2.385   0.954   1.258 -1.1992 -0.1344  2.2131
 1575SOL     OW 6446   2.647   7.447   6.491  0.0390 -0.4037  0.4535
 1575SOL    HW1 6447   2.664   7.391   6.415 -1.1307 -1.4108  0.9063
 1575SOL    HW2 6448   2.672   7.535   6.462  2.2868 -1.1575 -0.1488
 1576SOL     OW 6449   0.830   4.002   8.395 -0.0185  0.0380  0.3479
 1576SOL    HW1 6450   0.831   3.919   8.444  0.1728 -0.3967 -0.3733
 1576SOL    HW2 6451   0.808   4.068   8.461 -0.1620 -0.5821  0.9420
 1577SOL     OW 6452   7.828   8.880   3.922 -0.4240 -0.2668 -0.4884
 1577SOL    HW1 6453   7.858   8.807   3.977 -1.0694 -0.2073 -0.0496
 1577SOL    HW2 6454   7.734   8.867   3.913 -0.7801  1.1960  0.6629
 1578SOL     OW 6455   8.821   7.692   3.483 -0.1756  0.0299 -0.3951
 1578SOL    HW1 6456   8.820   7.774   3.532 -0.2559  0.3222 -0.8820
 1578SOL    HW2 6457   8.770   7.631   3.538  0.5996  0.0519  0.3783
 1579SOL     OW 6458   4.296   5.160   4.373 -0.3726 -0.7047 -0.2137
 1579SOL    HW1 6459   4.240   5.136   4.447  0.8074 -0.5060  0.7960
 1579SOL    HW2 6460   4.361   5.089   4.369 -0.9418 -1.1869 -1.6689
 1580SOL     OW 6461   2.754   2.260   4.057 -0.6249  0.1466 -0.2361
 1580SOL    HW1 6462   2.681   2.291   4.004 -1.4933 -0.9670  0.2592
 1580SOL    HW2 6463   2.715   2.237   4.142  0.0925 -1.3837 -0.2731
 1581SOL     OW 6464   1.363   1.075   6.129  0.0914 -0.4373  0.1331
 1581SOL    HW1 6465   1.283   1.110   6.090  0.4007 -0.3696 -0.4432
 1581SOL    HW2 6466   1.390   1.005   6.071  0.8947  0.0699 -0.1261
 1582SOL     OW 6467   9.442   5.470   6.488 -0.3075 -0.6783  0.5039
 1582SOL    HW1 6468   9.499   5.546   6.494 -0.4767 -0.4925 -0.1468
 1582SOL    HW2 6469   9.496   5.397   6.518 -0.7432 -0.0416  3.1347
 1583SOL     OW 6470   0.071   7.464   7.213  0.8834  0.1149 -0.0730
 1583SOL    HW1 6471   0.042   7.392   7.268 -3.7635  1.6457 -0.0954
 1583SOL    HW2 6472   0.064   7.431   7.124  0.4437  0.0550 -0.0181
 1584SOL     OW 6473   3.329   4.570   6.079  0.0030  0.1034  0.3168
 1584SOL    HW1 6474   3.352   4.479   6.061 -2.0587 -0.4338  0.1282
 1584SOL    HW2 6475   3.361   4.585   6.168  1.6422 -0.3054 -0.1639
 1585SOL     OW 6476   2.399   5.844   5.988 -0.0298  0.5697  0.3438
 1585SOL    HW1 6477   2.384   5.881   5.902 -1.2360  0.5275  0.5231
 1585SOL    HW2 6478   2.425   5.754   5.971 -0.8235  0.3911  0.0355
 1586SOL     OW 6479   2.221   9.286   5.987  0.3670  0.8417 -0.7380
 1586SOL    HW1 6480   2.225   9.190   5.984 -0.9730  0.7406 -0.1962
 1586SOL    HW2 6481   2.222   9.307   6.081 -1.4368  1.1947 -0.7550
 1587SOL     OW 6482   7.976   5.326   9.576  0.9263  0.1574  0.5860
 1587SOL    HW1 6483   8.003   5.384   9.505  0.3268  0.9100  0.9485
 1587SOL    HW2 6484   7.989   5.238   9.542 -1.1153  0.4482 -1.2149
 1588SOL     OW 6485   2.912   6.192   9.388  0.3978 -0.6105  0.1112
 1588SOL    HW1 6486   2.980   6.260   9.390 -0.3247  0.1946 -1.0985
 1588SOL    HW2 6487   2.914   6.153   9.475  0.7374  1.0753  0.8959
 1589SOL     OW 6488   3.825   0.541   2.313  0.0309  0.0091  0.2764
 1589SOL    HW1 6489   3.789   0.457   2.285  1.4078  0.2246 -2.4275
 1589SOL    HW2 6490   3.749   0.597   2.325 -0.8603 -1.3626  1.4159
 1590SOL     OW 6491   9.611   1.088   5.321 -0.6152 -0.2785 -0.1268
 1590SOL    HW1 6492   9.582   0.998   5.336  0.7808 -0.7340  0.0225
 1590SOL    HW2 6493   9.542   1.142   5.359 -0.7746 -1.3164  1.1510
 1591SOL     OW 6494   2.631   6.077   8.070 -0.4494 -0.7815  0.2506
 1591SOL    HW1 6495   2.683   6.030   8.135  0.3438  1.6363  1.5243
 1591SOL    HW2 6496   2.693   6.136   8.027 -1.4622 -0.4469 -0.8297
 1592SOL     OW 6497   9.643   9.494   3.650 -0.3394 -0.2141  0.3715
 1592SOL    HW1 6498   9.578   9.563   3.635 -0.8485 -0.5474  0.9643
 1592SOL    HW2 6499   9.693   9.524   3.725  1.0772  0.6560 -0.8791
 1593SOL     OW 6500   8.135   6.179   9.120  0.0095  0.6329  0.5403
 1593SOL    HW1 6501   8.230   6.186   9.119  0.0090  0.7543  1.0223
 1593SOL    HW2 6502   8.109   6.194   9.029  0.2872  3.0298  0.8031
 1594SOL     OW 6503   9.172   3.546   4.867  0.1675 -0.4230  0.2467
 1594SOL    HW1 6504   9.094   3.539   4.923 -1.6593  1.9669 -1.7643
 1594SOL    HW2 6505   9.243   3.565   4.927 -1.0062 -1.4022  2.0564
 1595SOL     OW 6506   1.202   6.313   1.660  0.5708  0.1578 -0.2237
 1595SOL    HW1 6507   1.259   6.278   1.592 -1.7137 -0.3265 -2.0212
 1595SOL    HW2 6508   1.184   6.403   1.632 -2.3593 -0.7882 -1.7731
 1596SOL     OW 6509   6.252   0.419   1.671  0.1911 -0.0827 -0.9711
 1596SOL    HW1 6510   6.249   0.410   1.575 -1.1334 -0.4460 -0.9174
 1596SOL    HW2 6511   6.252   0.329   1.703 -0.1346  0.0407 -0.6227
 1597SOL     OW 6512   2.647   9.657   0.692 -0.2802  0.4890 -0.4176
 1597SOL    HW1 6513   2.715   9.637   0.628 -0.5108 -0.2925 -0.4288
 1597SOL    HW2 6514   2.683   9.628   0.776 -1.4925 -2.1908 -0.7281
 1598SOL     OW 6515   3.854   7.906   2.056  0.6903  0.2843  0.2228
 1598SOL    HW1 6516   3.928   7.892   1.997  0.4503  2.6295 -0.7407
 1598SOL    HW2 6517   3.782   7.857   2.015  0.2411  2.7060 -2.1473
 1599SOL     OW 6518   8.685   3.742   5.095  0.1139  0.2360  0.0107
 1599SOL    HW1 6519   8.690   3.719   5.003 -0.6049 -0.5464  0.1552
 1599SOL    HW2 6520   8.773   3.729   5.128  0.2304 -0.1152 -0.4252
 1600SOL     OW 6521   6.430   3.652   0.795  0.1719 -0.1303  0.0303
 1600SOL    HW1 6522   6.525   3.655   0.788  0.0871  0.7120 -0.9466
 1600SOL    HW2 6523   6.408   3.721   0.858  0.1434  0.3579 -0.5119
 1601SOL     OW 6524   8.088   5.375   0.436  0.9281  0.4465 -0.2397
 1601SOL    HW1 6525   8.040   5.372   0.352  0.3830  1.8581 -0.0067
 1601SOL    HW2 6526   8.140   5.295   0.436  0.4552  0.0977 -1.6468
 1602SOL     OW 6527   8.682   2.064   5.240  0.3456 -0.6942 -0.3659
 1602SOL    HW1 6528   8.717   2.118   5.169 -0.3834 -0.9840 -0.9674
 1602SOL    HW2 6529   8.724   2.097   5.319 -1.7098  2.3237 -0.3348
 1603SOL     OW 6530   4.009   0.498   9.218  0.5063 -0.3797  0.2747
 1603SOL    HW1 6531   3.955   0.434   9.171  0.1473 -0.5487  0.9202
 1603SOL    HW2 6532   4.049   0.449   9.289  0.8400 -0.0557  0.3155
 1604SOL     OW 6533   2.826   0.709   8.604  0.2299 -1.0678  0.2661
 1604SOL    HW1 6534   2.773   0.630   8.596 -2.7724  0.7052  1.1050
 1604SOL    HW2 6535   2.850   0.712   8.697 -0.3691 -0.5842  0.4069
 1605SOL     OW 6536   3.883   1.475   1.787  0.0322 -0.5865 -0.1219
 1605SOL    HW1 6537   3.902   1.445   1.698 -0.1223  0.4457 -0.5076
 1605SOL    HW2 6538   3.848   1.563   1.776 -2.1412 -1.2561  0.7786
 1606SOL     OW 6539   7.228   5.893   1.346  0.4500 -0.4459 -0.4551
 1606SOL    HW1 6540   7.173   5.880   1.268  1.7964  1.5062 -1.8212
 1606SOL    HW2 6541   7.303   5.836   1.331  0.5660 -0.2967 -0.4384
 1607SOL     OW 6542   5.765   6.290   4.901  0.3078  0.1249 -0.7674
 1607SOL    HW1 6543   5.750   6.197   4.885  1.3365  0.2117 -2.5247
 1607SOL    HW2 6544   5.823   6.292   4.977 -1.0544 -0.5628  0.3338
 1608SOL     OW 6545   7.708   7.521   8.708  0.6280 -0.7975 -0.2378
 1608SOL    HW1 6546   7.662   7.441   8.733 -0.9066  0.3356  0.6997
 1608SOL    HW2 6547   7.684   7.585   8.775  0.1806  1.0219 -2.0383
 1609SOL     OW 6548   9.384   0.005   7.119  0.0089  0.0647 -0.2522
 1609SOL    HW1 6549   9.307   0.001   7.062 -0.8368  1.1733  0.7559
 1609SOL    HW2 6550   9.379  -0.075   7.171 -0.0026 -0.2626 -0.7515
 1610SOL     OW 6551   4.153   4.563   3.738  0.2915  0.0737 -0.4481
 1610SOL    HW1 6552   4.139   4.627   3.668 -1.0510  1.7351  1.2559
 1610SOL    HW2 6553   4.106   4.485   3.708 -0.7379  0.9425 -1.1613
 1611SOL     OW 6554   6.351   8.978   0.141 -0.0597  0.2400 -0.2203
 1611SOL    HW1 6555   6.413   8.922   0.095  0.0194 -0.5998  0.8500
 1611SOL    HW2 6556   6.311   8.920   0.207 -2.1975  0.6869 -1.0578
 1612SOL     OW 6557   4.999   4.018   6.131 -0.5758 -0.2912 -0.6764
 1612SOL    HW1 6558   4.936   3.949   6.112 -1.7719  0.8897 -1.0979
 1612SOL    HW2 6559   4.956   4.074   6.195  1.0971 -0.8900  1.1058
 1613SOL     OW 6560   0.075   0.152   9.472 -0.3066  0.3506  0.0342
 1613SOL    HW1 6561   0.058   0.246   9.468 -0.0413  0.4741  1.4848
 1613SOL    HW2 6562   0.103   0.136   9.562  0.0448 -1.0564 -0.3020
 1614SOL     OW 6563   8.895   6.781   8.635  0.1551  0.4740 -0.1234
 1614SOL    HW1 6564   8.985   6.774   8.603 -0.2638  0.9318 -1.4416
 1614SOL    HW2 6565   8.859   6.693   8.624  0.2100  0.4742 -0.3069
 1615SOL     OW 6566   8.723   5.736   9.081 -0.0089  0.0591  0.3897
 1615SOL    HW1 6567   8.814   5.763   9.076  0.3296 -1.1189 -0.0998
 1615SOL    HW2 6568   8.709   5.716   9.174 -0.0355  1.0690  0.6163
 1616SOL     OW 6569   1.223   8.948   4.720  0.3312  0.1116  0.2395
 1616SOL    HW1 6570   1.268   8.904   4.792 -0.8327 -2.0728 -0.2763
 1616SOL    HW2 6571   1.292   8.969   4.658  1.0725  0.0439  1.0228
 1617SOL     OW 6572   1.003   7.274   6.793 -0.2793 -0.4050  0.6629
 1617SOL    HW1 6573   1.099   7.273   6.799 -0.1909  1.1621 -0.1822
 1617SOL    HW2 6574   0.984   7.259   6.701 -0.8678 -0.8630  0.8505
 1618SOL     OW 6575   5.234   3.135   7.250 -0.4616 -0.1607 -0.2251
 1618SOL    HW1 6576   5.311   3.149   7.195 -0.2164 -1.7826 -0.3230
 1618SOL    HW2 6577   5.160   3.151   7.191 -0.2153 -2.6373 -1.3254
 1619SOL     OW 6578   3.341   8.655   5.595  0.2400  0.1887 -0.1476
 1619SOL    HW1 6579   3.393   8.578   5.574 -1.6489 -1.0996 -0.3218
 1619SOL    HW2 6580   3.373   8.723   5.536 -0.3512 -1.4434 -2.4745
 1620SOL     OW 6581   0.809   8.612   3.237 -0.1650  0.1543 -0.2953
 1620SOL    HW1 6582   0.788   8.522   3.264  0.3471 -0.8578 -3.0053
 1620SOL    HW2 6583   0.770   8.666   3.305 -1.5134 -2.0590  0.8291
 1621SOL     OW 6584   1.231   6.098   1.860 -0.3403  0.1684 -0.3113
 1621SOL    HW1 6585   1.244   6.177   1.808 -0.2005  0.1870 -0.2491
 1621SOL    HW2 6586   1.141   6.105   1.891 -1.0127 -0.6972 -1.9629
 1622SOL     OW 6587   9.469   7.918   1.485  0.4220  0.3004  0.2465
 1622SOL    HW1 6588   9.455   7.990   1.423 -0.0213  1.8663  2.0558
 1622SOL    HW2 6589   9.413   7.940   1.560  2.0846 -0.6609  1.8590
 1623SOL     OW 6590   5.787   0.376   9.140 -0.0852 -0.6733  0.0563
 1623SOL    HW1 6591   5.710   0.335   9.179 -0.4978 -0.1301 -0.1774
 1623SOL    HW2 6592   5.785   0.349   9.048  0.6849 -1.6519  0.3050
 1624SOL     OW 6593   7.133   9.346   3.576 -0.2442  0.2285  0.1744
 1624SOL    HW1 6594   7.129   9.441   3.579  1.1176  0.2975  0.9601
 1624SOL    HW2 6595   7.185   9.326   3.498  0.7507  0.2241  0.8094
 1625SOL     OW 6596   8.772   3.730   3.854  0.1875 -0.2115  0.5378
 1625SOL    HW1 6597   8.728   3.704   3.773 -2.0562  0.2198  1.5264
 1625SOL    HW2 6598   8.714   3.796   3.892  2.0095  0.7954  1.7205
 1626SOL     OW 6599   5.136   6.843   7.326 -0.2656  0.4912 -0.1676
 1626SOL    HW1 6600   5.228   6.867   7.336 -0.5792  1.4314  0.7108
 1626SOL    HW2 6601   5.119   6.783   7.399 -0.0303 -0.7441 -1.1044
 1627SOL     OW 6602   3.129   6.298   0.985 -0.3585  0.1721 -0.0272
 1627SOL    HW1 6603   3.062   6.265   0.926  1.3161  0.3186 -2.1250
 1627SOL    HW2 6604   3.120   6.244   1.064 -2.0217 -0.7180 -0.7797
 1628SOL     OW 6605   8.814   8.575   1.223  0.3507  0.0560  0.1032
 1628SOL    HW1 6606   8.906   8.557   1.202  0.8106  1.1995  1.0643
 1628SOL    HW2 6607   8.817   8.633   1.299 -1.1659  0.3944 -0.0620
 1629SOL     OW 6608   1.096   9.606   7.746 -0.2484  0.0394 -0.1513
 1629SOL    HW1 6609   1.164   9.611   7.813  1.3870 -2.1397 -1.5330
 1629SOL    HW2 6610   1.124   9.669   7.679 -1.0764  1.0963  0.4585
 1630SOL     OW 6611   9.594   9.066   0.288  0.8597 -0.0142  0.2562
 1630SOL    HW1 6612   9.524   9.060   0.353 -1.0242 -1.2020 -1.7436
 1630SOL    HW2 6613   9.633   8.979   0.287  0.0170 -0.4042 -1.0348
 1631SOL     OW 6614   0.748   3.039   5.660 -0.5459  0.1589  0.2196
 1631SOL    HW1 6615   0.760   3.066   5.569 -0.3233  1.0834  0.5230
 1631SOL    HW2 6616   0.779   2.948   5.662  0.3468  0.4385 -0.4113
 1632SOL     OW 6617   1.603   6.279   9.379  0.3058 -0.8569 -0.2930
 1632SOL    HW1 6618   1.661   6.274   9.303 -1.1803  0.8878 -1.6388
 1632SOL    HW2 6619   1.563   6.366   9.373  1.3245  0.0427  3.4396
 1633SOL     OW 6620   5.842   8.642   8.056  0.5798 -0.4203 -0.4917
 1633SOL    HW1 6621   5.899   8.694   8.114  0.2781 -1.5480  0.8601
 1633SOL    HW2 6622   5.898   8.569   8.028  0.6189 -0.0580 -1.3695
 1634SOL     OW 6623   6.339   8.376   5.808  0.0491  0.1658  0.4637
 1634SOL    HW1 6624   6.272   8.313   5.833  2.0159 -1.3689  2.1519
 1634SOL    HW2 6625   6.353   8.429   5.887  2.1425 -0.8250  0.8202
 1635SOL     OW 6626   8.623   2.352   3.987 -0.3027 -0.3052 -0.1894
 1635SOL    HW1 6627   8.677   2.414   3.937 -2.1611  0.6193 -1.1491
 1635SOL    HW2 6628   8.535   2.391   3.986 -1.0760 -1.9217  1.0272
 1636SOL     OW 6629   3.803   1.995   4.426 -0.9501 -0.2371  0.2837
 1636SOL    HW1 6630   3.726   2.042   4.395 -0.1466  1.5735  0.9030
 1636SOL    HW2 6631   3.836   2.047   4.499  1.8256  0.0004 -0.9889
 1637SOL     OW 6632   1.535   6.350   0.361  0.9882  0.3356  0.4207
 1637SOL    HW1 6633   1.540   6.414   0.433  1.6090  1.3794 -0.5165
 1637SOL    HW2 6634   1.625   6.320   0.349  0.6378 -1.0605  1.1251
 1638SOL     OW 6635   8.004   5.178   2.663  0.9677 -0.0680  0.0039
 1638SOL    HW1 6636   8.010   5.272   2.680 -3.0789  0.7944 -1.8369
 1638SOL    HW2 6637   8.043   5.167   2.576 -1.3468  0.7153 -1.2454
 1639SOL     OW 6638   2.758   8.169   0.199 -0.1110 -0.0363 -0.3181
 1639SOL    HW1 6639   2.833   8.201   0.149 -0.4317  0.2293 -0.6391
 1639SOL    HW2 6640   2.688   8.232   0.179 -0.2847 -0.0150  0.3497
 1640SOL     OW 6641   3.578   8.064   4.528  0.7609 -0.0361  0.6301
 1640SOL    HW1 6642   3.582   8.040   4.435 -0.3587  1.4026  0.1716
 1640SOL    HW2 6643   3.592   7.981   4.575 -1.6478 -1.3886 -0.8365
 1641SOL     OW 6644   3.851   3.696   1.488 -0.0139 -0.4305  1.0497
 1641SOL    HW1 6645   3.837   3.694   1.583 -0.8135  1.7155  1.0391
 1641SOL    HW2 6646   3.765   3.715   1.451  0.7510  1.5395  0.1342
 1642SOL     OW 6647   6.011   9.581   9.175 -0.3385  0.3847 -0.2411
 1642SOL    HW1 6648   5.991   9.499   9.130 -1.0590  0.5172 -0.1723
 1642SOL    HW2 6649   6.088   9.561   9.229 -1.1510 -0.5400  0.6000
 1643SOL     OW 6650   0.644   9.056   8.104  0.1761 -1.0111  0.1334
 1643SOL    HW1 6651   0.676   8.966   8.116  0.5328 -0.8402  0.4946
 1643SOL    HW2 6652   0.617   9.083   8.192  1.5888 -0.1980  0.3445
 1644SOL     OW 6653   4.951   5.737   0.967  0.3211 -0.0912  0.2542
 1644SOL    HW1 6654   5.035   5.753   1.011 -0.1412  0.2643  1.0458
 1644SOL    HW2 6655   4.923   5.823   0.937 -0.0349 -0.1105  0.5190
 1645SOL     OW 6656   7.675   6.631   5.466 -0.1304 -0.1145 -0.2869
 1645SOL    HW1 6657   7.586   6.614   5.437  0.3375 -1.9410 -0.7710
 1645SOL    HW2 6658   7.694   6.561   5.529  0.4223  1.1840  1.0435
 1646SOL     OW 6659   5.077   7.506   2.726  0.4752 -0.6593 -0.1795
 1646SOL    HW1 6660   4.987   7.477   2.716  1.0422 -2.3315 -0.8495
 1646SOL    HW2 6661   5.075   7.568   2.798 -1.2025 -0.6699 -0.1882
 1647SOL     OW 6662   1.859   3.207   8.615 -0.5156 -0.3051  0.0216
 1647SOL    HW1 6663   1.922   3.166   8.555  1.0110  3.9401 -1.6524
 1647SOL    HW2 6664   1.775   3.199   8.571  0.2866  1.0625 -1.8886
 1648SOL     OW 6665   2.390   0.740   1.715 -0.1777 -0.2920 -0.3640
 1648SOL    HW1 6666   2.348   0.758   1.631  1.6399  1.4501 -0.9796
 1648SOL    HW2 6667   2.420   0.826   1.745  2.2860 -1.3247  0.3388
 1649SOL     OW 6668   6.442   6.477   8.876  0.5810 -0.0814 -0.3587
 1649SOL    HW1 6669   6.354   6.462   8.842  0.6674  0.4110 -0.8141
 1649SOL    HW2 6670   6.464   6.566   8.847  1.1644 -0.1436 -0.1173
 1650SOL     OW 6671   5.135   1.945   3.892  0.1235 -0.3436  0.4134
 1650SOL    HW1 6672   5.080   1.984   3.824  2.2106 -0.2542 -1.3377
 1650SOL    HW2 6673   5.121   2.000   3.969 -0.5272  1.0301 -0.6492
 1651SOL     OW 6674   8.761   1.862   7.973 -0.2761  0.2164  0.1889
 1651SOL    HW1 6675   8.844   1.850   7.927 -0.6598 -0.2382 -0.3944
 1651SOL    HW2 6676   8.768   1.805   8.050 -0.2196 -0.1788 -0.1012
 1652SOL     OW 6677   2.847   7.178   2.583  0.1745 -0.3012 -0.0612
 1652SOL    HW1 6678   2.847   7.155   2.490 -0.0351  0.4791 -0.2616
 1652SOL    HW2 6679   2.801   7.106   2.626 -1.9587  0.5240 -0.8727
 1653SOL     OW 6680   2.025   5.771   1.467  0.9377  0.1911  0.4662
 1653SOL    HW1 6681   2.102   5.714   1.473  0.7651 -0.2321 -0.9556
 1653SOL    HW2 6682   2.037   5.819   1.385 -0.0457  0.5259  0.5048
 1654SOL     OW 6683   0.127   4.922   4.339  0.0013  0.4220 -0.1735
 1654SOL    HW1 6684   0.196   4.967   4.388 -0.4698  0.6713  0.2715
 1654SOL    HW2 6685   0.139   4.829   4.360  1.9166  0.1035 -2.2704
 1655SOL     OW 6686   6.669   8.313   9.509  0.1867 -0.0610 -0.2295
 1655SOL    HW1 6687   6.613   8.251   9.462 -1.4405  0.6675  0.6764
 1655SOL    HW2 6688   6.615   8.391   9.518  2.2284  1.5966 -1.4454
 1656SOL     OW 6689   6.785   0.912   2.260 -0.1713 -0.3166 -0.6277
 1656SOL    HW1 6690   6.790   0.922   2.165  2.6746 -0.0606 -0.5249
 1656SOL    HW2 6691   6.819   0.824   2.277 -0.3039 -0.2179  0.1930
 1657SOL     OW 6692   5.158   0.720   5.913 -0.2514 -0.6936  0.0631
 1657SOL    HW1 6693   5.212   0.791   5.947 -0.3040 -0.0760 -1.1146
 1657SOL    HW2 6694   5.196   0.640   5.951  1.0716 -0.2134 -0.2103
 1658SOL     OW 6695   2.087   3.665   4.170  0.0987 -0.5302  0.1014
 1658SOL    HW1 6696   2.006   3.711   4.148  0.2154 -0.1027  0.5387
 1658SOL    HW2 6697   2.152   3.735   4.182  0.5272 -0.8657 -0.2106
 1659SOL     OW 6698   2.563   6.301   0.291 -0.5979  0.2056 -0.2612
 1659SOL    HW1 6699   2.531   6.389   0.311  0.2101  0.0335  2.1456
 1659SOL    HW2 6700   2.507   6.243   0.343  1.3177 -0.3430  1.3317
 1660SOL     OW 6701   5.887   6.520   7.542 -0.0821 -0.1504 -0.8002
 1660SOL    HW1 6702   5.820   6.533   7.475  0.4553  0.1922 -1.2822
 1660SOL    HW2 6703   5.969   6.510   7.492 -0.0367 -2.6748 -0.3645
 1661SOL     OW 6704   4.268   1.528   1.077 -0.0337 -0.4853  0.1309
 1661SOL    HW1 6705   4.323   1.495   1.147 -0.8465  0.5096  1.2749
 1661SOL    HW2 6706   4.292   1.476   1.001  1.5674 -0.9192  0.9003
 1662SOL     OW 6707   3.499   0.463   1.467  0.1926  0.8691 -0.0426
 1662SOL    HW1 6708   3.561   0.400   1.503  0.5867  1.1828 -0.1587
 1662SOL    HW2 6709   3.419   0.451   1.518 -0.0052 -0.2783 -0.6038
 1663SOL     OW 6710   9.418   9.448   7.969 -0.2730 -0.1997 -0.1163
 1663SOL    HW1 6711   9.351   9.382   7.954  1.4367 -1.9789 -0.4565
 1663SOL    HW2 6712   9.469   9.414   8.043  1.5662 -0.1194 -1.2583
 1664SOL     OW 6713   3.982   9.404   6.607  0.3920  0.0112  0.4596
 1664SOL    HW1 6714   3.987   9.310   6.622  0.2969 -0.0839 -0.0903
 1664SOL    HW2 6715   3.926   9.436   6.678  1.2052 -0.2013  1.2146
 1665SOL     OW 6716   7.595   4.066   6.450 -0.0305  0.0533  0.1124
 1665SOL    HW1 6717   7.617   4.129   6.519  0.1477  0.1332 -0.0154
 1665SOL    HW2 6718   7.643   4.097   6.373  1.0497 -0.9158  0.3607
 1666SOL     OW 6719   2.154   7.674   0.057 -0.5753  0.3524  0.2777
 1666SOL    HW1 6720   2.183   7.653  -0.032 -1.9942 -1.8596  0.2718
 1666SOL    HW2 6721   2.227   7.648   0.113  0.1104  1.2524 -0.1697
 1667SOL     OW 6722   7.984   6.020   1.343  0.0866  0.2851  0.7940
 1667SOL    HW1 6723   8.078   6.041   1.346 -0.5479  3.6258  1.2912
 1667SOL    HW2 6724   7.940   6.104   1.357 -3.0271 -0.9278 -0.7063
 1668SOL     OW 6725   2.138   7.805   6.103 -0.2983 -0.0774 -0.1463
 1668SOL    HW1 6726   2.213   7.765   6.147 -0.7404 -0.6221  0.1095
 1668SOL    HW2 6727   2.099   7.734   6.053 -0.5167  0.2604 -0.4599
 1669SOL     OW 6728   5.720   4.812   0.845 -0.4993 -0.3757  0.6311
 1669SOL    HW1 6729   5.711   4.893   0.794  0.3762  0.1610  1.3025
 1669SOL    HW2 6730   5.768   4.753   0.787  0.0254  0.0518  0.6185
 1670SOL     OW 6731   9.488   4.792   5.846  0.3679 -0.1420  0.4441
 1670SOL    HW1 6732   9.404   4.811   5.888  0.4206 -0.0155  0.4945
 1670SOL    HW2 6733   9.537   4.742   5.913  0.0567 -0.8592  0.1444
 1671SOL     OW 6734   8.027   2.809   3.841  0.3737 -0.0527 -0.7294
 1671SOL    HW1 6735   7.988   2.874   3.783 -0.8456 -0.0640  0.0397
 1671SOL    HW2 6736   8.013   2.725   3.797 -0.2307 -0.0247 -0.5979
 1672SOL     OW 6737   7.695   0.745   2.037 -0.2081  0.3081  0.5315
 1672SOL    HW1 6738   7.759   0.675   2.052 -1.2204 -0.8941 -0.5075
 1672SOL    HW2 6739   7.706   0.768   1.945 -2.0642 -0.8164 -0.0357
 1673SOL     OW 6740   4.361   1.318   5.774 -0.0162  0.3570 -0.1187
 1673SOL    HW1 6741   4.368   1.409   5.746  1.3215  0.2898 -0.0574
 1673SOL    HW2 6742   4.434   1.305   5.834 -1.0296 -0.3722  1.0147
 1674SOL     OW 6743   0.497   5.802   2.939 -0.7521  0.2957  0.2217
 1674SOL    HW1 6744   0.469   5.750   3.015  0.9622  0.2434  0.8674
 1674SOL    HW2 6745   0.526   5.885   2.977  0.4614  0.1332 -0.3141
 1675SOL     OW 6746   7.770   5.853   2.433 -0.5211 -0.5766  0.1810
 1675SOL    HW1 6747   7.863   5.837   2.450 -0.2982  0.0097 -0.4334
 1675SOL    HW2 6748   7.724   5.805   2.501  0.2448 -0.6469  0.6532
 1676SOL     OW 6749   2.559   8.141   6.821 -0.0578  0.2982 -0.0652
 1676SOL    HW1 6750   2.628   8.207   6.816  0.4039 -0.2474 -1.3199
 1676SOL    HW2 6751   2.557   8.116   6.913  1.1028  0.6573  0.0772
 1677SOL     OW 6752   2.865   3.581   0.086  0.1232 -0.2840  0.1103
 1677SOL    HW1 6753   2.951   3.598   0.048  0.5872 -0.2643  1.1568
 1677SOL    HW2 6754   2.852   3.652   0.149 -0.5172 -0.4755  0.1990
 1678SOL     OW 6755   7.851   5.632   6.185 -0.2348 -0.2393  0.4153
 1678SOL    HW1 6756   7.929   5.648   6.132 -0.9067  0.7254 -0.3340
 1678SOL    HW2 6757   7.872   5.555   6.237  1.1460 -0.0967  0.1017
 1679SOL     OW 6758   1.800   3.003   8.402 -0.4019 -0.0142 -0.3345
 1679SOL    HW1 6759   1.809   3.015   8.307 -1.0076 -0.2817 -0.4299
 1679SOL    HW2 6760   1.828   2.913   8.417  1.6036  0.6068  0.0256
 1680SOL     OW 6761   1.170   8.726   8.509 -0.3875 -0.4239 -0.3289
 1680SOL    HW1 6762   1.186   8.752   8.418  1.0726 -0.7155 -0.1659
 1680SOL    HW2 6763   1.102   8.658   8.502 -1.2690  0.4957 -1.0699
 1681SOL     OW 6764   7.649   9.079   6.608  0.3482 -0.4915 -0.0021
 1681SOL    HW1 6765   7.580   9.091   6.674  0.1745  0.3971 -0.3221
 1681SOL    HW2 6766   7.602   9.059   6.527  0.4863 -0.3058 -0.1297
 1682SOL     OW 6767   7.247   5.483   7.923  0.1714  0.1614 -0.0818
 1682SOL    HW1 6768   7.162   5.457   7.887 -0.6877  2.2793  0.2813
 1682SOL    HW2 6769   7.302   5.405   7.912 -2.3878 -2.1240  1.7071
 1683SOL     OW 6770   6.472   2.324   0.504  0.2146  0.2195 -0.5255
 1683SOL    HW1 6771   6.471   2.299   0.412 -0.2277  0.0238 -0.4698
 1683SOL    HW2 6772   6.405   2.393   0.511  2.3450  2.4738 -0.9541
 1684SOL     OW 6773   2.807   4.095   8.288  0.0662 -0.0369  0.5535
 1684SOL    HW1 6774   2.837   4.185   8.292  0.8460 -0.1438 -1.8007
 1684SOL    HW2 6775   2.877   4.044   8.329  1.2869  0.1290 -1.2266
 1685SOL     OW 6776   3.533   3.488   3.151  0.6157  0.0883  0.2122
 1685SOL    HW1 6777   3.583   3.446   3.221  0.1789 -1.6530 -0.4880
 1685SOL    HW2 6778   3.545   3.431   3.075 -0.8785  0.6478 -0.4845
 1686SOL     OW 6779   7.061   7.512   9.057  0.6103  0.1611  0.1811
 1686SOL    HW1 6780   7.074   7.566   9.135 -0.8344  1.1179 -0.1969
 1686SOL    HW2 6781   7.074   7.571   8.984 -2.1018  0.3815 -0.2325
 1687SOL     OW 6782   9.275   5.897   0.430 -0.2640  0.1016 -0.0950
 1687SOL    HW1 6783   9.209   5.830   0.446  0.2438 -0.0361  1.5800
 1687SOL    HW2 6784   9.349   5.848   0.393 -0.1230 -0.1818  0.5424
 1688SOL     OW 6785   7.878   5.949   6.824 -0.0279 -0.3440 -0.3396
 1688SOL    HW1 6786   7.811   6.016   6.837 -1.0096 -1.2415 -0.6628
 1688SOL    HW2 6787   7.946   5.994   6.773  0.4279  1.0461  1.3665
 1689SOL     OW 6788   6.912   8.624   2.542 -0.7598 -0.0268 -0.5363
 1689SOL    HW1 6789   6.837   8.639   2.484  0.4499 -0.1007 -2.1721
 1689SOL    HW2 6790   6.891   8.542   2.588 -1.6983 -0.0116 -0.9224
 1690SOL     OW 6791   1.213   6.946   7.651  0.5888 -0.1614  0.2239
 1690SOL    HW1 6792   1.255   6.945   7.565 -0.4552  0.6337 -0.3169
 1690SOL    HW2 6793   1.274   6.992   7.708  0.7003  0.4930 -0.4187
 1691SOL     OW 6794   9.082   8.000   9.288 -0.2618 -0.4885 -0.1794
 1691SOL    HW1 6795   9.028   8.067   9.248 -0.0458 -0.3615 -0.2587
 1691SOL    HW2 6796   9.088   7.931   9.222 -0.6373 -0.6653 -0.0278
 1692SOL     OW 6797   2.937   4.777   7.714  0.3508 -0.5020  0.7230
 1692SOL    HW1 6798   3.032   4.783   7.700  0.2823  0.5548  0.6385
 1692SOL    HW2 6799   2.900   4.851   7.665 -0.4953 -0.7603  0.9502
 1693SOL     OW 6800   9.366   6.391   1.699  0.2341  0.5961 -0.1015
 1693SOL    HW1 6801   9.452   6.425   1.672  0.9264 -1.7731 -1.1025
 1693SOL    HW2 6802   9.322   6.370   1.617 -0.7890  0.5650  0.4421
 1694SOL     OW 6803   2.652   8.903   3.857  0.4397 -0.0348  0.6275
 1694SOL    HW1 6804   2.622   8.989   3.887  3.1688  1.2984 -0.1657
 1694SOL    HW2 6805   2.635   8.903   3.763  0.1274 -0.5409  0.6771
 1695SOL     OW 6806   8.393   6.461   2.219 -0.0470  0.0256  0.7107
 1695SOL    HW1 6807   8.354   6.432   2.136 -0.1639 -1.5840  1.2959
 1695SOL    HW2 6808   8.351   6.545   2.237 -1.2669 -0.3965 -0.0364
 1696SOL     OW 6809   1.966   7.355   2.473  0.1931 -0.0002 -0.3260
 1696SOL    HW1 6810   2.000   7.289   2.533 -1.8572  0.2364  1.2448
 1696SOL    HW2 6811   1.923   7.419   2.530 -2.9988 -0.4071 -2.0027
 1697SOL     OW 6812   2.780   4.608   5.291  0.1564 -0.4831 -0.3505
 1697SOL    HW1 6813   2.820   4.687   5.327  0.2264 -0.6199 -0.1211
 1697SOL    HW2 6814   2.787   4.618   5.196 -1.7939  0.7899 -0.3938
 1698SOL     OW 6815   0.681   9.061   4.553 -0.1481 -0.1615 -0.5036
 1698SOL    HW1 6816   0.733   8.998   4.604 -1.0941  0.3891  1.2384
 1698SOL    HW2 6817   0.628   9.107   4.619 -0.1246  1.8595 -1.8188
 1699SOL     OW 6818   5.146   3.275   5.355  0.2558  0.2170  0.2414
 1699SOL    HW1 6819   5.084   3.326   5.302  0.9251  1.4028  0.5447
 1699SOL    HW2 6820   5.230   3.286   5.310  0.3221 -1.1167  0.0080
 1700SOL     OW 6821   8.479   0.747   6.212 -0.3789  0.1044 -0.0410
 1700SOL    HW1 6822   8.477   0.824   6.156  1.2971 -0.2390 -0.6431
 1700SOL    HW2 6823   8.481   0.783   6.301  1.5113  0.8407 -0.3335
 1701SOL     OW 6824   2.117   3.103   4.677 -0.0854  0.8037  0.2442
 1701SOL    HW1 6825   2.022   3.109   4.688 -0.0375  1.0756  0.5019
 1701SOL    HW2 6826   2.150   3.191   4.696  0.5646 -0.0332  3.5152
 1702SOL     OW 6827   5.599   2.754   3.241 -0.0200 -0.3528  0.6445
 1702SOL    HW1 6828   5.539   2.781   3.310  0.4040 -0.4278  1.0511
 1702SOL    HW2 6829   5.639   2.674   3.275  0.5810 -0.0999  0.5452
 1703SOL     OW 6830   5.262   2.698   8.001 -0.5699 -0.6623 -0.0005
 1703SOL    HW1 6831   5.263   2.747   7.919  0.6868 -1.6809 -0.6393
 1703SOL    HW2 6832   5.295   2.760   8.066  2.7408 -1.0523 -1.1068
 1704SOL     OW 6833   5.292   6.098   0.582  0.8886  0.3418 -0.1673
 1704SOL    HW1 6834   5.315   6.151   0.658  1.5162  0.4521 -0.4336
 1704SOL    HW2 6835   5.375   6.079   0.539  0.4487  1.4266 -1.5949
 1705SOL     OW 6836   2.582   4.901   3.781  0.3512 -0.1404 -0.5344
 1705SOL    HW1 6837   2.548   4.868   3.698  0.4241 -0.5702 -0.3978
 1705SOL    HW2 6838   2.518   4.874   3.847  1.8250 -2.6769  0.0072
 1706SOL     OW 6839   2.671   2.382   6.861  0.3988  0.5063  0.0732
 1706SOL    HW1 6840   2.686   2.366   6.954 -0.7692  1.4329  0.4412
 1706SOL    HW2 6841   2.631   2.469   6.858 -1.3640 -0.2983 -1.1323
 1707SOL     OW 6842   5.062   0.741   8.277  0.0377  0.3621  0.0276
 1707SOL    HW1 6843   5.006   0.745   8.355  1.5442  0.2458  1.1602
 1707SOL    HW2 6844   5.089   0.649   8.273 -0.1488  0.3391 -0.7228
 1708SOL     OW 6845   3.106   6.032   7.223  0.3226 -0.4163  0.4270
 1708SOL    HW1 6846   3.132   6.121   7.197 -1.5063 -0.1222 -0.5454
 1708SOL    HW2 6847   3.055   6.044   7.303 -2.2608 -0.2220 -1.1616
 1709SOL     OW 6848   2.457   9.085   1.902  0.1321  0.1473  0.0409
 1709SOL    HW1 6849   2.399   9.160   1.909 -0.2348  0.0361 -1.4522
 1709SOL    HW2 6850   2.515   9.106   1.829  0.7291 -0.5562  0.2986
 1710SOL     OW 6851   0.432   6.593   1.445 -0.0827 -0.0918 -0.5756
 1710SOL    HW1 6852   0.518   6.616   1.409  0.2483  1.0091  0.8090
 1710SOL    HW2 6853   0.370   6.638   1.389  0.3534  0.6223 -0.5013
 1711SOL     OW 6854   0.836   3.585   5.471 -0.0949 -0.3874  0.1499
 1711SOL    HW1 6855   0.888   3.663   5.490  1.0398 -1.1654  0.3816
 1711SOL    HW2 6856   0.793   3.604   5.388  0.6740  0.2348 -0.1200
 1712SOL     OW 6857   9.684   4.987   1.031 -0.3313  0.3227  0.1995
 1712SOL    HW1 6858   9.618   4.926   1.063  1.1239 -1.6713 -0.3641
 1712SOL    HW2 6859   9.648   5.020   0.948 -1.1487  0.2551  0.5203
 1713SOL     OW 6860   8.762   5.097   5.866 -0.6255 -0.1576 -0.1159
 1713SOL    HW1 6861   8.813   5.035   5.919  1.5892  1.2105 -0.5283
 1713SOL    HW2 6862   8.827   5.152   5.824 -2.4393  0.7547 -1.8985
 1714SOL     OW 6863   0.682   7.514   9.433 -0.0748 -0.2469  0.2221
 1714SOL    HW1 6864   0.734   7.513   9.513  1.6207 -0.8460 -0.8352
 1714SOL    HW2 6865   0.712   7.592   9.386 -1.5364  0.4831  0.4179
 1715SOL     OW 6866   5.242   3.516   8.466 -0.3900 -0.1664  0.4847
 1715SOL    HW1 6867   5.336   3.501   8.472 -0.2610  0.4535  0.1916
 1715SOL    HW2 6868   5.222   3.507   8.373 -0.8816 -1.6563  0.7067
 1716SOL     OW 6869   8.766   7.207   2.320 -0.1338 -0.3692 -0.0394
 1716SOL    HW1 6870   8.724   7.260   2.388 -0.4643 -1.9164  1.0390
 1716SOL    HW2 6871   8.706   7.133   2.308  0.6168 -0.8392 -1.0175
 1717SOL     OW 6872   2.116   6.557   2.905  0.0022  0.0719 -0.6061
 1717SOL    HW1 6873   2.101   6.470   2.939  0.9160 -0.8571 -2.4139
 1717SOL    HW2 6874   2.195   6.549   2.851  0.1107  2.0064 -0.8231
 1718SOL     OW 6875   4.433   6.598   6.841 -0.3105 -0.3055 -0.0376
 1718SOL    HW1 6876   4.353   6.643   6.816 -0.0127  0.2482 -0.0113
 1718SOL    HW2 6877   4.489   6.666   6.878  0.4658 -0.5348 -0.7423
 1719SOL     OW 6878   7.354   8.019   2.115  0.3467  0.0519 -0.0990
 1719SOL    HW1 6879   7.400   7.997   2.034  1.5870  0.6118  0.4311
 1719SOL    HW2 6880   7.389   8.104   2.140  0.3256 -0.3167  1.2675
 1720SOL     OW 6881   4.261   1.457   4.432  0.1438  0.4785  0.4817
 1720SOL    HW1 6882   4.326   1.424   4.370  0.6680 -0.0152  1.2753
 1720SOL    HW2 6883   4.215   1.378   4.463 -0.6639  0.7964  0.1208
 1721SOL     OW 6884   0.965   7.164   6.215  0.1553 -0.3448  0.3458
 1721SOL    HW1 6885   1.050   7.125   6.198 -1.1980 -2.5629 -2.0901
 1721SOL    HW2 6886   0.953   7.226   6.143  0.5506  1.6401  1.9095
 1722SOL     OW 6887   6.211   2.202   2.572  0.0259  0.0005 -0.0720
 1722SOL    HW1 6888   6.277   2.224   2.506  0.1028 -0.2660 -0.0878
 1722SOL    HW2 6889   6.252   2.131   2.623  0.1232  0.4624  0.5058
 1723SOL     OW 6890   3.375   2.517   0.478 -0.3567  0.1673 -0.3843
 1723SOL    HW1 6891   3.413   2.557   0.400 -1.0990  0.6770 -0.4902
 1723SOL    HW2 6892   3.313   2.453   0.444  0.1103 -0.3879 -0.2100
 1724SOL     OW 6893   6.709   4.218   5.718  0.2414  0.0659  0.0343
 1724SOL    HW1 6894   6.682   4.160   5.647  1.0071 -0.4601  0.1588
 1724SOL    HW2 6895   6.652   4.294   5.710  0.2375 -0.0362 -1.0826
 1725SOL     OW 6896   7.521   2.360   5.560  0.5699  0.4680 -0.1193
 1725SOL    HW1 6897   7.494   2.451   5.575 -0.1933  0.4881 -1.4494
 1725SOL    HW2 6898   7.600   2.366   5.507  0.1318  0.3633 -0.7971
 1726SOL     OW 6899   5.209   5.092   4.724  0.9568  0.0127 -0.2673
 1726SOL    HW1 6900   5.203   5.173   4.774  1.7828 -0.5220  0.7151
 1726SOL    HW2 6901   5.205   5.022   4.789  2.0829 -0.6976 -0.9198
 1727SOL     OW 6902   8.409   1.153   0.620  0.0152  0.1992  0.2002
 1727SOL    HW1 6903   8.322   1.162   0.582  0.1731  0.7761 -0.0345
 1727SOL    HW2 6904   8.461   1.110   0.553 -0.5330 -1.8657  1.0196
 1728SOL     OW 6905   1.075   4.335   2.711  0.4876 -0.4919  0.5901
 1728SOL    HW1 6906   1.163   4.371   2.726 -0.1590  2.1680 -1.3250
 1728SOL    HW2 6907   1.041   4.317   2.798  2.8411 -1.4693  1.3953
 1729SOL     OW 6908   9.629   8.638   0.150 -0.3045  0.7066  0.1818
 1729SOL    HW1 6909   9.650   8.680   0.233  1.1819  0.4670 -0.0418
 1729SOL    HW2 6910   9.549   8.589   0.168 -1.0362  2.1427  0.9393
 1730SOL     OW 6911   0.816   5.210   1.747 -0.7302  0.2190 -0.7935
 1730SOL    HW1 6912   0.755   5.283   1.730  0.9692  1.4759 -1.8492
 1730SOL    HW2 6913   0.896   5.253   1.777  0.1652 -1.2662 -0.9929
 1731SOL     OW 6914   4.026   5.319   1.212 -0.0333  0.3856  0.5542
 1731SOL    HW1 6915   4.070   5.402   1.227 -1.7909  1.0958  2.0957
 1731SOL    HW2 6916   3.999   5.322   1.120  1.3657  0.7626  0.1316
 1732SOL     OW 6917   0.532   6.960   2.430  0.0898  0.3655 -0.2105
 1732SOL    HW1 6918   0.599   6.898   2.459 -1.1915 -0.2494  1.6499
 1732SOL    HW2 6919   0.542   7.036   2.487 -1.0295  0.0885  0.3922
 1733SOL     OW 6920   5.376   7.652   3.510  0.0328 -0.6396 -0.0922
 1733SOL    HW1 6921   5.318   7.694   3.573 -0.9016  0.5133 -1.6237
 1733SOL    HW2 6922   5.324   7.648   3.429  1.2309 -1.8843 -0.8398
 1734SOL     OW 6923   8.126   4.525   6.484  0.0567 -0.1169 -0.1915
 1734SOL    HW1 6924   8.055   4.485   6.535 -0.3623  1.4081  0.4707
 1734SOL    HW2 6925   8.145   4.460   6.415 -1.5910 -0.8089 -0.0465
 1735SOL     OW 6926   3.887   4.576   3.592  0.1560  0.5875 -0.2455
 1735SOL    HW1 6927   3.957   4.640   3.581 -0.7387  1.8854  1.1687
 1735SOL    HW2 6928   3.867   4.577   3.685 -0.0836 -1.5977 -0.2096
 1736SOL     OW 6929   7.080   3.151   3.066  0.2532 -0.6727 -0.0246
 1736SOL    HW1 6930   7.079   3.156   3.162 -2.0144  2.3110 -0.0460
 1736SOL    HW2 6931   7.154   3.206   3.039  0.1532 -0.5145  0.0213
 1737SOL     OW 6932   4.220   6.748   6.768  0.0844  0.0985 -0.7545
 1737SOL    HW1 6933   4.188   6.702   6.690  1.7851  1.7069 -2.5022
 1737SOL    HW2 6934   4.229   6.839   6.740  1.2379  0.6272  1.1674
 1738SOL     OW 6935   8.351   8.974   1.411  0.0917  0.6826  0.4102
 1738SOL    HW1 6936   8.324   8.883   1.407  1.6964  0.0793  1.9973
 1738SOL    HW2 6937   8.315   9.013   1.331 -2.3562 -0.8103  0.6883
 1739SOL     OW 6938   4.125   8.109   5.349 -0.5843  0.3056 -0.0794
 1739SOL    HW1 6939   4.171   8.094   5.266  0.9380 -3.9182  1.2548
 1739SOL    HW2 6940   4.175   8.177   5.393  1.4825 -0.6952 -0.7558
 1740SOL     OW 6941   0.713   5.755   3.279  0.3491  0.1108  0.0188
 1740SOL    HW1 6942   0.725   5.663   3.255  0.1600 -0.1231  0.8090
 1740SOL    HW2 6943   0.802   5.790   3.281  0.3540  0.2136 -1.2886
 1741SOL     OW 6944   4.564   4.349   0.075 -0.6591  0.2399 -0.3686
 1741SOL    HW1 6945   4.481   4.383   0.043 -0.1840  1.4293 -0.4037
 1741SOL    HW2 6946   4.589   4.409   0.145  1.4030  1.4979 -2.0549
 1742SOL     OW 6947   9.286   4.306   1.528  0.2239  0.2399  0.4851
 1742SOL    HW1 6948   9.191   4.311   1.514  0.3290 -0.0255 -0.4247
 1742SOL    HW2 6949   9.295   4.278   1.619 -0.5668  0.4909  0.6512
 1743SOL     OW 6950   7.863   4.341   1.158 -0.1823 -0.0354 -0.0050
 1743SOL    HW1 6951   7.776   4.303   1.162 -0.1449 -0.1870 -0.4906
 1743SOL    HW2 6952   7.870   4.396   1.236 -0.8387  0.2499 -0.1466
 1744SOL     OW 6953   1.911   7.835   9.560  0.2792 -0.4496 -0.0034
 1744SOL    HW1 6954   1.858   7.763   9.526 -1.3409  0.5882  0.2152
 1744SOL    HW2 6955   1.904   7.826   9.656  0.1913 -0.1007  0.0252
 1745SOL     OW 6956   2.090   0.981   7.921 -0.3570 -0.1973  0.2884
 1745SOL    HW1 6957   2.152   0.963   7.851 -1.2364 -0.6633 -0.3980
 1745SOL    HW2 6958   2.115   0.922   7.992  1.3099  1.1451  0.8755
 1746SOL     OW 6959   8.603   5.184   9.247 -0.2668  0.5282  0.2491
 1746SOL    HW1 6960   8.512   5.214   9.245 -0.2050  0.7236  0.3917
 1746SOL    HW2 6961   8.599   5.094   9.213 -0.6800  0.1250  1.3038
 1747SOL     OW 6962   6.019   9.213   3.651  0.6704  0.2533  0.6531
 1747SOL    HW1 6963   6.086   9.276   3.624  0.6822  0.3800  0.9819
 1747SOL    HW2 6964   5.962   9.204   3.574  2.4397 -1.7242 -0.5613
 1748SOL     OW 6965   2.910   6.348   6.363 -0.0359  0.5450 -0.3480
 1748SOL    HW1 6966   2.987   6.363   6.309  1.6519  0.0935  1.7707
 1748SOL    HW2 6967   2.897   6.253   6.360 -2.1791  0.8087 -2.7184
 1749SOL     OW 6968   8.423   7.782   2.725 -0.3865  0.0531  0.4397
 1749SOL    HW1 6969   8.332   7.759   2.746 -0.9245  0.5117 -1.2169
 1749SOL    HW2 6970   8.465   7.698   2.705 -0.5189 -0.1365  0.9575
 1750SOL     OW 6971   4.243   2.214   6.547  0.3820 -0.4176  0.1195
 1750SOL    HW1 6972   4.221   2.133   6.501  0.9459 -0.8384  0.5793
 1750SOL    HW2 6973   4.334   2.201   6.574 -0.0486 -0.3115  1.6529
 1751SOL     OW 6974   4.976   1.102   8.301 -0.0597  0.1110  0.7965
 1751SOL    HW1 6975   4.958   1.045   8.226  0.4932  1.0328 -0.0780
 1751SOL    HW2 6976   5.071   1.113   8.300 -0.2180  1.7522  0.3602
 1752SOL     OW 6977   7.320   8.633   5.419  0.0130 -0.4431 -0.8107
 1752SOL    HW1 6978   7.239   8.619   5.370 -1.0474  2.9456 -0.2650
 1752SOL    HW2 6979   7.384   8.661   5.354  0.0244 -0.6858 -0.9040
 1753SOL     OW 6980   0.123   2.454   6.605 -0.0316  0.0629 -0.3949
 1753SOL    HW1 6981   0.081   2.390   6.547 -0.7499 -0.7090  0.9254
 1753SOL    HW2 6982   0.152   2.402   6.680  0.4996  1.1048  0.1288
 1754SOL     OW 6983   2.433   0.971   5.484  0.1500 -0.1965 -0.0029
 1754SOL    HW1 6984   2.475   0.945   5.402 -1.4213 -0.8906 -0.6236
 1754SOL    HW2 6985   2.478   0.919   5.551 -0.3795 -1.7001 -0.7704
 1755SOL     OW 6986   3.188   3.181   6.160  0.0092  0.3557  0.3921
 1755SOL    HW1 6987   3.178   3.236   6.237 -0.8570  0.3109  0.3181
 1755SOL    HW2 6988   3.135   3.224   6.093  1.4184  0.8668 -0.4433
 1756SOL     OW 6989   4.921   9.489   8.699  0.3492 -0.2471  0.5421
 1756SOL    HW1 6990   4.851   9.476   8.634  1.0734 -0.7774 -0.1573
 1756SOL    HW2 6991   4.967   9.567   8.668 -1.6529  1.9476  2.6182
 1757SOL     OW 6992   4.303   1.827   1.118 -0.0999 -0.1874 -0.0522
 1757SOL    HW1 6993   4.363   1.850   1.189  0.4483 -1.5800 -0.0388
 1757SOL    HW2 6994   4.295   1.732   1.123 -1.8247 -0.0924 -0.4668
 1758SOL     OW 6995   4.019   6.202   8.635  0.2126  0.5427 -0.5267
 1758SOL    HW1 6996   4.054   6.146   8.566  2.2256  0.5860  0.4024
 1758SOL    HW2 6997   4.058   6.288   8.617 -2.3685  1.5896 -1.5950
 1759SOL     OW 6998   0.445   3.320   9.168 -0.3060  0.1453 -0.2633
 1759SOL    HW1 6999   0.379   3.377   9.129 -1.3047 -1.1071 -0.4880
 1759SOL    HW2 7000   0.409   3.232   9.157  2.0864 -0.7327 -1.7488
 1760SOL     OW 7001   9.680   7.557   9.552  0.5083 -0.4053  0.5580
 1760SOL    HW1 7002   9.586   7.541   9.563  0.3951  0.6066  1.1089
 1760SOL    HW2 7003   9.715   7.559   9.641  0.4945  2.4374  0.5906
 1761SOL     OW 7004   0.234   3.236   8.982 -0.0556  0.2276 -0.1904
 1761SOL    HW1 7005   0.238   3.293   8.906 -1.5549 -0.6875 -0.9967
 1761SOL    HW2 7006   0.169   3.276   9.039  0.3296  0.3611  0.1670
 1762SOL     OW 7007   3.347   1.687   5.906  0.8352  0.0930  0.0623
 1762SOL    HW1 7008   3.386   1.664   5.821  1.8295 -0.7729  0.7285
 1762SOL    HW2 7009   3.264   1.728   5.883  1.8457  1.4523 -1.3969
 1763SOL     OW 7010   0.424   8.732   7.503  0.3671  1.0244 -0.0453
 1763SOL    HW1 7011   0.517   8.726   7.482  0.4175 -0.8845  0.4796
 1763SOL    HW2 7012   0.420   8.781   7.584  1.1715 -0.7249  1.1142
 1764SOL     OW 7013   2.846   2.540   9.706 -0.1318 -0.0620  0.0543
 1764SOL    HW1 7014   2.772   2.488   9.737  0.4823  0.4405  2.5921
 1764SOL    HW2 7015   2.814   2.631   9.709  0.4771  0.1327  0.8900
 1765SOL     OW 7016   5.711   8.184   1.074 -0.6392 -0.1726  0.5636
 1765SOL    HW1 7017   5.759   8.106   1.046 -0.0991 -0.0123  1.0169
 1765SOL    HW2 7018   5.766   8.223   1.142  0.1402  1.7347 -1.0563
 1766SOL     OW 7019   8.123   6.661   4.696  0.1582  1.2134  0.7087
 1766SOL    HW1 7020   8.105   6.576   4.655  1.1381  0.9125  0.8757
 1766SOL    HW2 7021   8.036   6.698   4.714 -0.3043 -0.2799  1.7395
 1767SOL     OW 7022   0.033   1.599   4.026  0.0005 -0.3742  0.3575
 1767SOL    HW1 7023   0.023   1.616   3.932  1.7617  0.7610  0.3339
 1767SOL    HW2 7024  -0.056   1.604   4.060 -0.4065  1.8875 -0.8549
 1768SOL     OW 7025   0.596   8.011   2.199  0.3893  0.1263  0.1345
 1768SOL    HW1 7026   0.528   8.003   2.131 -1.4463 -0.0916  1.9070
 1768SOL    HW2 7027   0.654   7.937   2.183  0.1393  0.2076 -1.3224
 1769SOL     OW 7028   3.051   8.970   6.598 -0.4848 -0.5634  0.4778
 1769SOL    HW1 7029   2.990   9.034   6.559 -0.8110  1.3069  3.7019
 1769SOL    HW2 7030   3.098   8.933   6.523 -1.2129  2.5360 -1.7140
 1770SOL     OW 7031   1.947   1.807   8.051 -0.3502  0.5990 -0.3482
 1770SOL    HW1 7032   2.006   1.803   8.126  2.2341 -0.7050 -2.2865
 1770SOL    HW2 7033   1.912   1.718   8.043 -0.2892  0.6193 -0.9034
 1771SOL     OW 7034   0.312   7.716   1.453  0.2612  0.2407  0.4991
 1771SOL    HW1 7035   0.334   7.806   1.477 -2.5440  0.9353  0.8637
 1771SOL    HW2 7036   0.235   7.696   1.507 -0.0522 -1.8465 -0.6348
 1772SOL     OW 7037   8.754   4.207   3.233 -0.2772 -0.4795 -0.5184
 1772SOL    HW1 7038   8.745   4.118   3.200 -0.0662 -0.8160  0.3227
 1772SOL    HW2 7039   8.819   4.247   3.175  0.4143 -1.1989 -0.2542
 1773SOL     OW 7040   1.755   4.783   5.040 -0.0178  0.1466  0.2766
 1773SOL    HW1 7041   1.675   4.835   5.036  0.0925  0.3339  0.5276
 1773SOL    HW2 7042   1.795   4.806   5.124  0.3817  0.1772  0.0793
 1774SOL     OW 7043   2.825   3.021   8.105 -0.3635  0.2954 -0.3018
 1774SOL    HW1 7044   2.869   2.939   8.129 -1.1209 -0.1549 -0.4110
 1774SOL    HW2 7045   2.735   2.994   8.084 -0.4380  1.0653 -0.9987
 1775SOL     OW 7046   2.617   5.866   4.407  0.3881  0.0255  0.6635
 1775SOL    HW1 7047   2.616   5.913   4.490 -0.8897  2.4682 -0.6157
 1775SOL    HW2 7048   2.526   5.839   4.393 -0.3275  3.0302 -1.5748
 1776SOL     OW 7049   7.743   6.508   1.377  0.3932  0.5833  0.1498
 1776SOL    HW1 7050   7.778   6.596   1.365 -0.6993  1.1061  0.6597
 1776SOL    HW2 7051   7.706   6.485   1.292  0.5127  0.6953  0.0685
 1777SOL     OW 7052   3.717   6.866   3.959  0.3258 -0.2412  0.1905
 1777SOL    HW1 7053   3.744   6.775   3.970  1.0901  0.0883  1.2779
 1777SOL    HW2 7054   3.686   6.872   3.869  2.3699 -1.0451 -0.6122
 1778SOL     OW 7055   9.038   0.126   5.041  1.0645  0.0419 -0.2535
 1778SOL    HW1 7056   8.991   0.048   5.013 -0.1124  1.2940 -1.9548
 1778SOL    HW2 7057   9.040   0.182   4.963  0.9223  2.1628  1.1922
 1779SOL     OW 7058   6.447   3.555   1.259 -0.3436 -0.0429 -0.4194
 1779SOL    HW1 7059   6.355   3.558   1.286 -0.0823  3.5904  0.6269
 1779SOL    HW2 7060   6.491   3.505   1.328 -1.3761 -1.1336 -0.5167
 1780SOL     OW 7061   6.422   6.207   6.096  0.4454 -0.8839  0.0031
 1780SOL    HW1 7062   6.437   6.114   6.080 -3.1362 -1.6325  0.0924
 1780SOL    HW2 7063   6.348   6.230   6.040  1.1861  1.9532  0.0183
 1781SOL     OW 7064   1.732   7.105   3.922 -0.2839  0.0679 -0.0183
 1781SOL    HW1 7065   1.768   7.036   3.866 -0.9572  0.1673 -0.5914
 1781SOL    HW2 7066   1.739   7.070   4.011  1.0998  0.0432 -0.1235
 1782SOL     OW 7067   5.767   8.742   0.390 -0.1812 -0.1485 -0.0749
 1782SOL    HW1 7068   5.816   8.693   0.324 -0.0315  1.1777 -0.9951
 1782SOL    HW2 7069   5.676   8.714   0.379 -0.2266  0.3939 -1.1763
 1783SOL     OW 7070   3.886   8.841   2.878  0.0967  0.1324  0.3029
 1783SOL    HW1 7071   3.933   8.786   2.815  1.8332  2.6395 -0.7445
 1783SOL    HW2 7072   3.880   8.786   2.957  1.5438 -1.6327 -0.7152
 1784SOL     OW 7073   8.023   4.640   9.634  0.2159  0.4620 -0.9492
 1784SOL    HW1 7074   8.119   4.643   9.633  0.2879  0.2956  0.9933
 1784SOL    HW2 7075   8.001   4.573   9.568  1.5460 -0.8553 -0.1328
 1785SOL     OW 7076   7.321   0.151   8.264 -0.0402 -0.9386 -0.5603
 1785SOL    HW1 7077   7.414   0.133   8.250  0.3625 -0.9288  1.7767
 1785SOL    HW2 7078   7.286   0.070   8.301 -0.4240 -0.2448  0.6703
 1786SOL     OW 7079   0.035   8.076   2.825  0.1061  0.3181  0.3177
 1786SOL    HW1 7080   0.062   8.055   2.735  1.1308  0.9520  0.4656
 1786SOL    HW2 7081  -0.008   8.161   2.818 -0.0265  0.2556  0.3890
 1787SOL     OW 7082   8.956   6.491   8.891 -0.5176 -0.0829  0.3509
 1787SOL    HW1 7083   9.018   6.488   8.964 -1.4375 -0.5534  1.1257
 1787SOL    HW2 7084   8.937   6.400   8.872  0.5319 -0.0067 -1.2103
 1788SOL     OW 7085   5.477   3.808   9.209  0.2211  0.2454 -0.1885
 1788SOL    HW1 7086   5.572   3.808   9.197  0.8460 -0.8380  3.5847
 1788SOL    HW2 7087   5.454   3.899   9.228  0.8179  0.2264  0.6542
 1789SOL     OW 7088   7.456   0.989   3.878  0.2868  0.2105 -0.3421
 1789SOL    HW1 7089   7.522   0.955   3.818  0.2279 -0.4071 -0.0619
 1789SOL    HW2 7090   7.498   1.065   3.919  0.9575 -0.4009  0.1120
 1790SOL     OW 7091   8.221   2.409   0.380 -0.1882 -0.4067  0.6956
 1790SOL    HW1 7092   8.144   2.417   0.324  0.2003 -0.6169  0.1127
 1790SOL    HW2 7093   8.276   2.483   0.355 -0.2793 -0.1502  1.2424
 1791SOL     OW 7094   8.554   4.615   8.034 -0.2759 -0.0807  0.0102
 1791SOL    HW1 7095   8.622   4.618   7.967  1.1230 -0.4816  1.3435
 1791SOL    HW2 7096   8.503   4.537   8.012  0.1290 -0.1728 -0.6342
 1792SOL     OW 7097   9.197   3.308   3.311  0.1716 -0.5547  0.7328
 1792SOL    HW1 7098   9.107   3.335   3.333 -0.3947 -0.7021 -1.2074
 1792SOL    HW2 7099   9.251   3.380   3.343 -0.9379  0.9764 -0.6733
 1793SOL     OW 7100   2.010   5.286   5.773 -0.3230  0.6503 -0.2997
 1793SOL    HW1 7101   2.067   5.306   5.848  1.2905  3.0617 -2.0366
 1793SOL    HW2 7102   1.991   5.371   5.733 -0.5972 -0.5766 -3.0165
 1794SOL     OW 7103   3.293   4.791   7.877  0.1717  0.1602 -0.2681
 1794SOL    HW1 7104   3.341   4.727   7.928  0.3976  1.4310  1.1976
 1794SOL    HW2 7105   3.258   4.742   7.803  0.4916 -1.5874  0.6925
 1795SOL     OW 7106   5.709   6.683   1.806  0.1802 -0.0653  0.3069
 1795SOL    HW1 7107   5.685   6.775   1.802  1.7215  0.4120  1.2274
 1795SOL    HW2 7108   5.718   6.665   1.900  0.7086 -0.9188  0.1045
 1796SOL     OW 7109   9.588   4.780   9.030  0.6302  0.7825 -0.7770
 1796SOL    HW1 7110   9.666   4.725   9.039  0.8101  1.1585  0.0799
 1796SOL    HW2 7111   9.608   4.838   8.956  0.5105 -0.1671 -1.5734
 1797SOL     OW 7112   4.920   9.178   7.107 -0.0237  0.1110  0.3226
 1797SOL    HW1 7113   4.903   9.194   7.014  0.2620  0.2067  0.2868
 1797SOL    HW2 7114   4.972   9.098   7.109  3.7990  2.3816  0.0695
 1798SOL     OW 7115   8.046   2.211   8.249 -0.3156 -0.3094  0.2858
 1798SOL    HW1 7116   7.998   2.267   8.310 -0.9239  0.1455 -0.5891
 1798SOL    HW2 7117   8.136   2.212   8.282 -0.1697  1.6839 -0.0297
 1799SOL     OW 7118   2.649   1.132   7.223 -0.0637  0.0329  0.3483
 1799SOL    HW1 7119   2.724   1.074   7.206 -2.2608 -2.5120 -1.5509
 1799SOL    HW2 7120   2.648   1.192   7.149  0.8040  1.0331  1.0964
 1800SOL     OW 7121   3.365   1.267   2.831  0.3691  0.4023 -0.1391
 1800SOL    HW1 7122   3.443   1.320   2.814 -0.6118  1.6194 -0.9946
 1800SOL    HW2 7123   3.313   1.274   2.751  0.5582 -2.5796 -0.6524
 1801SOL     OW 7124   0.056   7.017   3.625  0.1116  0.2657 -0.2796
 1801SOL    HW1 7125   0.038   7.097   3.576 -1.4128 -0.8295 -1.6060
 1801SOL    HW2 7126  -0.030   6.977   3.640  0.8970 -1.7935 -0.8482
 1802SOL     OW 7127   2.015   6.965   8.666  0.0425  0.2437 -0.5483
 1802SOL    HW1 7128   1.951   6.949   8.597 -0.5091 -0.5404  0.1375
 1802SOL    HW2 7129   2.056   6.880   8.681  1.9866  0.8977 -1.6615
 1803SOL     OW 7130   5.294   1.549   3.542  0.1782  0.0395  0.1211
 1803SOL    HW1 7131   5.341   1.470   3.516  0.9963  0.3575  0.5867
 1803SOL    HW2 7132   5.300   1.550   3.638  1.1534  1.2247  0.0820
 1804SOL     OW 7133   5.749   9.665   5.706 -0.1614  0.3354 -0.1746
 1804SOL    HW1 7134   5.661   9.702   5.696 -1.5694 -2.6099  0.1596
 1804SOL    HW2 7135   5.808   9.736   5.682 -2.6479  2.0291 -1.7628
 1805SOL     OW 7136   8.125   9.621   5.805  0.1980  0.0874 -0.7701
 1805SOL    HW1 7137   8.160   9.607   5.893 -2.5397 -0.2904  0.3594
 1805SOL    HW2 7138   8.146   9.712   5.785 -1.3729  1.0289  1.4465
 1806SOL     OW 7139   6.854   2.258   0.025  0.3650  0.1080  0.3985
 1806SOL    HW1 7140   6.824   2.329  -0.031 -0.7633 -0.3253  0.4292
 1806SOL    HW2 7141   6.844   2.179  -0.028  2.8446  0.0481 -0.1245
 1807SOL     OW 7142   9.642   7.762   5.947  0.2966 -0.4828  0.1439
 1807SOL    HW1 7143   9.654   7.678   5.901  0.4320 -0.2263 -0.2960
 1807SOL    HW2 7144   9.550   7.784   5.933  0.9247  0.9039 -2.3018
 1808SOL     OW 7145   1.263   1.172   8.082  0.4469  0.4060 -0.1633
 1808SOL    HW1 7146   1.350   1.156   8.047  1.0615  2.1662  0.4554
 1808SOL    HW2 7147   1.227   1.242   8.028 -0.5514 -0.2204 -0.3351
 1809SOL     OW 7148   4.186   9.399   6.094  0.6066  0.4355 -0.4340
 1809SOL    HW1 7149   4.169   9.365   6.182  1.0351  0.9081 -0.1620
 1809SOL    HW2 7150   4.100   9.404   6.053  0.5189 -0.9073 -0.4631
 1810SOL     OW 7151   7.117   5.390   4.541 -0.1481  0.5131  0.2792
 1810SOL    HW1 7152   7.120   5.465   4.600 -1.8611  1.6877 -1.0446
 1810SOL    HW2 7153   7.111   5.428   4.453  3.0882 -1.1627 -0.8455
 1811SOL     OW 7154   5.255   8.839   5.824  0.2470  0.5375 -0.4347
 1811SOL    HW1 7155   5.290   8.760   5.866 -1.8502 -0.1988  0.0351
 1811SOL    HW2 7156   5.248   8.815   5.732 -0.2285  0.2216 -0.3203
 1812SOL     OW 7157   2.369   1.859   6.578  0.9930 -0.2348  0.5477
 1812SOL    HW1 7158   2.428   1.888   6.647  2.1039  0.6978 -0.7396
 1812SOL    HW2 7159   2.377   1.926   6.510  0.5900 -1.5455 -0.8471
 1813SOL     OW 7160   9.021   8.742   3.498  0.1937 -0.3533  0.2315
 1813SOL    HW1 7161   9.115   8.757   3.493 -0.0492  1.0690 -0.8975
 1813SOL    HW2 7162   8.983   8.830   3.502 -1.1226 -0.8724 -0.3146
 1814SOL     OW 7163   8.099   6.735   1.632 -0.0130  0.5761  0.2988
 1814SOL    HW1 7164   8.165   6.803   1.640  0.9205  0.1091 -2.3990
 1814SOL    HW2 7165   8.149   6.653   1.636 -0.5088  0.1972 -0.9592
 1815SOL     OW 7166   7.958   8.922   1.151  0.3092  0.1988 -0.1969
 1815SOL    HW1 7167   7.914   8.970   1.081  0.5602  1.6980  0.6303
 1815SOL    HW2 7168   8.024   8.869   1.106 -1.2865 -0.9431 -1.3163
 1816SOL     OW 7169   5.306   3.534   3.199 -0.9702 -0.1161 -0.3513
 1816SOL    HW1 7170   5.382   3.498   3.154  0.8204  0.2498  2.1858
 1816SOL    HW2 7171   5.276   3.464   3.256  0.9084  1.3363  2.6580
 1817SOL     OW 7172   3.913   3.187   4.716 -0.3727  0.1010  0.0936
 1817SOL    HW1 7173   3.833   3.232   4.687 -1.8807 -0.8928  2.4349
 1817SOL    HW2 7174   3.937   3.231   4.797  1.2311  0.0662 -0.3327
 1818SOL     OW 7175   4.812   0.776   2.598 -0.1110 -0.2331 -0.0960
 1818SOL    HW1 7176   4.872   0.703   2.612 -1.0845 -0.9478  0.4750
 1818SOL    HW2 7177   4.800   0.814   2.685 -0.0599  0.2402 -0.2947
 1819SOL     OW 7178   2.380   1.458   8.141 -0.0615 -0.2928  0.0815
 1819SOL    HW1 7179   2.453   1.403   8.114 -0.4646 -0.3416 -0.9419
 1819SOL    HW2 7180   2.408   1.547   8.121 -0.5512 -0.3654 -1.0076
 1820SOL     OW 7181   6.099   1.394   7.549  0.2528 -0.3197 -0.1508
 1820SOL    HW1 7182   6.044   1.376   7.624  1.4814  0.0495  0.8863
 1820SOL    HW2 7183   6.184   1.419   7.587  1.8741 -3.0756 -1.6646
 1821SOL     OW 7184   4.001   8.458   7.765  0.3217 -0.0740 -0.0344
 1821SOL    HW1 7185   3.909   8.464   7.740 -0.3879 -2.3619  1.6963
 1821SOL    HW2 7186   4.033   8.378   7.723  1.0131 -0.2755  0.8397
 1822SOL     OW 7187   3.132   6.928   1.852  0.2563  0.0609 -0.7412
 1822SOL    HW1 7188   3.077   6.950   1.927  1.2230  1.7039 -0.4660
 1822SOL    HW2 7189   3.164   6.840   1.869 -0.1703  0.1148  0.3780
 1823SOL     OW 7190   6.789   7.843   4.174 -0.1906 -0.0993 -0.2324
 1823SOL    HW1 7191   6.860   7.904   4.192  0.4534 -0.2324 -2.1260
 1823SOL    HW2 7192   6.823   7.757   4.200 -0.1041  0.0015 -0.0161
 1824SOL     OW 7193   9.359   3.138   4.927  0.0180  0.1960  0.0417
 1824SOL    HW1 7194   9.341   3.088   5.007  1.1427 -0.5639 -0.1559
 1824SOL    HW2 7195   9.347   3.075   4.856  0.1862  0.5520 -0.3032
 1825SOL     OW 7196   5.912   3.111   3.437  0.5029 -0.3950  0.5708
 1825SOL    HW1 7197   5.895   3.027   3.394 -0.6960  0.3565 -0.4989
 1825SOL    HW2 7198   5.954   3.164   3.369  2.2310 -0.4295  1.5517
 1826SOL     OW 7199   1.166   5.509   1.944  0.3194 -0.4184  0.6858
 1826SOL    HW1 7200   1.167   5.596   1.985 -0.9490 -0.8035  1.5970
 1826SOL    HW2 7201   1.112   5.521   1.866  2.3142  0.1940 -0.6753
 1827SOL     OW 7202   7.976   3.629   1.847  0.1223 -0.0054  0.0618
 1827SOL    HW1 7203   8.034   3.566   1.891 -0.6917  0.6658  2.2346
 1827SOL    HW2 7204   7.896   3.628   1.899 -0.3355  1.9777 -0.5227
 1828SOL     OW 7205   7.623   7.080   5.329  0.5011  0.8367 -0.4029
 1828SOL    HW1 7206   7.569   7.141   5.279 -1.1919 -1.3618 -1.3847
 1828SOL    HW2 7207   7.590   7.086   5.419  0.3064  1.2647 -0.4991
 1829SOL     OW 7208   9.451   2.087   5.478  0.3107  0.0260 -0.2092
 1829SOL    HW1 7209   9.465   1.994   5.461  0.3317  0.3287 -2.0744
 1829SOL    HW2 7210   9.539   2.124   5.486  0.3149  0.0148 -0.2036
 1830SOL     OW 7211   5.178   4.765   4.293 -0.1747  0.3190 -0.0330
 1830SOL    HW1 7212   5.265   4.779   4.332  0.3338 -2.0088 -0.1892
 1830SOL    HW2 7213   5.195   4.719   4.212 -1.5640  0.0069 -0.1696
 1831SOL     OW 7214   9.307   5.313   6.797 -0.2502 -0.3491  0.3190
 1831SOL    HW1 7215   9.368   5.316   6.723  1.6557  0.5580  1.8280
 1831SOL    HW2 7216   9.308   5.221   6.824  0.7789 -0.3027  0.5171
 1832SOL     OW 7217   0.262   9.540   9.089  0.5491 -0.1468  0.4430
 1832SOL    HW1 7218   0.280   9.625   9.130 -0.6845  0.4296 -0.1728
 1832SOL    HW2 7219   0.204   9.496   9.152 -0.4561  0.2975 -0.1578
 1833SOL     OW 7220   2.971   2.761   3.792  0.0297 -0.0151  0.2475
 1833SOL    HW1 7221   3.046   2.703   3.782 -0.7386 -1.1946  1.0088
 1833SOL    HW2 7222   2.900   2.717   3.746 -0.7599 -0.1021  1.4854
 1834SOL     OW 7223   9.196   2.485   5.952 -0.4984  0.4408 -0.5396
 1834SOL    HW1 7224   9.179   2.398   5.989  1.5522  0.1938 -0.0303
 1834SOL    HW2 7225   9.110   2.521   5.933 -1.5890 -0.3899  2.3049
 1835SOL     OW 7226   5.880   7.233   2.391  0.2039 -0.2957  0.4842
 1835SOL    HW1 7227   5.885   7.223   2.296  0.5246 -0.9980  0.5713
 1835SOL    HW2 7228   5.829   7.158   2.421  1.0224 -0.6890  0.9614
 1836SOL     OW 7229   8.215   4.056   1.494 -0.1106 -0.1397  0.6434
 1836SOL    HW1 7230   8.147   4.124   1.494 -0.8291 -0.6835 -2.7382
 1836SOL    HW2 7231   8.296   4.104   1.478 -0.5502  0.0638 -1.2147
 1837SOL     OW 7232   9.116   4.887   3.569 -0.4559 -0.7741 -0.5714
 1837SOL    HW1 7233   9.175   4.948   3.614 -2.1136  0.0334  0.5894
 1837SOL    HW2 7234   9.078   4.939   3.498  0.4387 -1.3900 -1.5250
 1838SOL     OW 7235   7.206   0.157   5.912  0.3108  0.0106  0.3552
 1838SOL    HW1 7236   7.254   0.101   5.851 -1.2781 -0.1479 -0.8064
 1838SOL    HW2 7237   7.192   0.102   5.989  0.3350 -0.5904 -0.0656
 1839SOL     OW 7238   4.223   4.734   5.154  0.1216  0.3912  0.3479
 1839SOL    HW1 7239   4.183   4.651   5.128  0.7148  0.7999 -2.0935
 1839SOL    HW2 7240   4.318   4.717   5.151  0.2370  1.0185  0.2342
 1840SOL     OW 7241   0.656   8.724   0.701  0.2621 -0.3236 -0.3406
 1840SOL    HW1 7242   0.667   8.799   0.643  1.5942 -0.7913 -0.7280
 1840SOL    HW2 7243   0.715   8.741   0.774  1.5597 -1.5495 -1.0395
 1841SOL     OW 7244   6.100   1.738   6.305  0.4135  0.5875  0.0438
 1841SOL    HW1 7245   6.024   1.796   6.299  0.2463  0.2749 -1.1776
 1841SOL    HW2 7246   6.067   1.661   6.352 -0.2822  0.1013 -1.1899
 1842SOL     OW 7247   7.726   1.421   5.869  0.1014  0.4123  0.0699
 1842SOL    HW1 7248   7.725   1.407   5.963 -2.1885 -1.7989 -0.1827
 1842SOL    HW2 7249   7.690   1.509   5.858  0.1788  0.6044  1.2455
 1843SOL     OW 7250   5.903   8.801   1.180  0.0262 -0.1549  0.0504
 1843SOL    HW1 7251   5.868   8.718   1.145  0.5643 -0.5417  0.4097
 1843SOL    HW2 7252   5.915   8.784   1.273  1.6662 -0.2279 -0.1429
 1844SOL     OW 7253   5.758   6.486   0.062  0.0692  0.0430 -0.3588
 1844SOL    HW1 7254   5.792   6.404   0.097 -0.1548 -0.4435 -1.2538
 1844SOL    HW2 7255   5.827   6.550   0.077 -0.4104  0.1070  1.8872
 1845SOL     OW 7256   4.602   2.717   8.324 -0.0661 -0.2764  0.2041
 1845SOL    HW1 7257   4.656   2.780   8.371 -0.9111 -0.5262  1.5453
 1845SOL    HW2 7258   4.577   2.762   8.243  1.1389  0.2782  0.1209
 1846SOL     OW 7259   0.804   4.645   2.446 -0.0719 -0.0362 -0.2553
 1846SOL    HW1 7260   0.858   4.579   2.403 -1.3220  0.2920 -2.5262
 1846SOL    HW2 7261   0.810   4.625   2.539  4.3080  0.3101 -0.2517
 1847SOL     OW 7262   7.229   8.069   1.598 -0.3887 -0.0376  0.7985
 1847SOL    HW1 7263   7.138   8.061   1.626 -0.4872  2.1791  1.2230
 1847SOL    HW2 7264   7.273   8.115   1.669  0.5765  0.8408 -0.3190
 1848SOL     OW 7265   2.498   3.457   2.188 -0.0631 -0.3982  0.1835
 1848SOL    HW1 7266   2.433   3.494   2.248 -0.4420  1.0938 -1.0926
 1848SOL    HW2 7267   2.579   3.503   2.209  0.2383 -1.1610  0.7365
 1849SOL     OW 7268   4.990   8.620   8.456  0.3454  0.3470  0.2971
 1849SOL    HW1 7269   4.993   8.535   8.501  2.1613 -0.4571 -1.1804
 1849SOL    HW2 7270   4.970   8.597   8.365  1.2228  1.4547 -0.1935
 1850SOL     OW 7271   5.751   1.907   2.238  0.2988 -0.2048 -0.2683
 1850SOL    HW1 7272   5.801   1.981   2.204  0.9146 -0.5108 -0.0281
 1850SOL    HW2 7273   5.659   1.935   2.230  0.5268  1.9743  2.8627
 1851SOL     OW 7274   5.695   1.808   6.181 -0.2453 -0.1880 -0.2955
 1851SOL    HW1 7275   5.634   1.879   6.200  0.6013  0.6109 -0.5060
 1851SOL    HW2 7276   5.733   1.786   6.266 -1.3144 -1.1773 -0.0420
 1852SOL     OW 7277   7.928   6.892   3.060 -0.2855 -0.0857 -0.3823
 1852SOL    HW1 7278   7.866   6.941   3.006 -1.4227  0.5014  1.3913
 1852SOL    HW2 7279   7.916   6.926   3.149  1.8698 -0.6774  0.2008
 1853SOL     OW 7280   1.729   8.556   1.162  0.5951 -0.1874  0.0141
 1853SOL    HW1 7281   1.758   8.476   1.207 -0.8092  0.1051  1.5726
 1853SOL    HW2 7282   1.707   8.616   1.233 -0.2014  0.8868 -1.1027
 1854SOL     OW 7283   5.467   4.126   4.401  0.3566  0.5061  0.1070
 1854SOL    HW1 7284   5.381   4.088   4.383  0.1041  0.8690  0.5217
 1854SOL    HW2 7285   5.460   4.218   4.374  0.6719  0.4908 -0.0349
 1855SOL     OW 7286   4.571   8.090   8.527 -1.2609  0.2266  0.1457
 1855SOL    HW1 7287   4.649   8.137   8.557 -0.7624 -0.3287 -0.2481
 1855SOL    HW2 7288   4.511   8.158   8.498 -1.4941  0.7439  1.7727
 1856SOL     OW 7289   8.918   6.956   7.483 -0.0441  0.3254  0.1739
 1856SOL    HW1 7290   8.917   7.046   7.451 -0.0252  0.4529  0.5255
 1856SOL    HW2 7291   8.830   6.944   7.520 -1.2504 -0.8708 -2.7782
 1857SOL     OW 7292   0.737   7.036   6.831 -0.0219  0.3824 -0.5476
 1857SOL    HW1 7293   0.810   6.974   6.820 -0.0518  0.2600 -0.0877
 1857SOL    HW2 7294   0.683   7.024   6.753 -0.9682 -1.4381  0.3148
 1858SOL     OW 7295   7.144   2.550   5.221  0.2251 -0.3021  0.6919
 1858SOL    HW1 7296   7.103   2.611   5.160  0.9251 -0.9132 -0.4214
 1858SOL    HW2 7297   7.199   2.606   5.277 -0.8421  0.3234  1.1362
 1859SOL     OW 7298   8.263   3.072   4.424  0.2197  0.7293 -0.6860
 1859SOL    HW1 7299   8.299   3.161   4.426 -0.2146  0.9287  2.1043
 1859SOL    HW2 7300   8.169   3.084   4.418  0.0596  0.5636  0.9972
 1860SOL     OW 7301   8.381   7.206   8.222 -0.7474  0.3681 -0.0598
 1860SOL    HW1 7302   8.466   7.240   8.196 -0.1383  0.6154  2.0397
 1860SOL    HW2 7303   8.393   7.111   8.227  0.0024  0.5251  1.9969
 1861SOL     OW 7304   0.872   4.776   8.749  0.4195 -0.0093  0.4014
 1861SOL    HW1 7305   0.786   4.781   8.706  0.0643  0.0641  1.1104
 1861SOL    HW2 7306   0.929   4.830   8.694 -0.1202  0.4045  0.2333
 1862SOL     OW 7307   8.058   8.438   6.347 -0.7062  0.1744 -0.1579
 1862SOL    HW1 7308   8.004   8.517   6.347  0.5697  1.1229  1.5954
 1862SOL    HW2 7309   8.145   8.469   6.320 -0.7357 -1.1331 -1.9342
 1863SOL     OW 7310   7.192   0.166   8.854 -0.7532  0.1585  0.0510
 1863SOL    HW1 7311   7.123   0.163   8.920  0.1888 -1.5331  1.0457
 1863SOL    HW2 7312   7.158   0.114   8.781 -0.2487 -1.4246  0.8957
 1864SOL     OW 7313   6.689   8.893   7.167  0.2018 -0.2181 -0.0635
 1864SOL    HW1 7314   6.730   8.974   7.138  1.2508  0.5722  3.2175
 1864SOL    HW2 7315   6.596   8.905   7.148  0.6067  0.7594 -1.6371
 1865SOL     OW 7316   4.023   1.633   1.101  0.3157  0.1922  0.4096
 1865SOL    HW1 7317   4.118   1.623   1.091  0.7184  1.9923  1.8118
 1865SOL    HW2 7318   4.004   1.721   1.071 -0.7101  0.2865  1.2428
 1866SOL     OW 7319   6.060   5.190   9.628  0.2465 -0.0312 -0.3668
 1866SOL    HW1 7320   5.988   5.250   9.612 -0.5177 -1.1641 -1.3825
 1866SOL    HW2 7321   6.127   5.215   9.565  0.7752  1.0317  0.5865
 1867SOL     OW 7322   8.941   7.025   9.161 -0.0536 -0.1564  0.1573
 1867SOL    HW1 7323   8.972   7.080   9.089  0.3433  0.3113  0.6701
 1867SOL    HW2 7324   8.922   6.941   9.121  1.2251 -0.2457 -0.3073
 1868SOL     OW 7325   3.296   4.693   9.301 -0.1755 -0.2986  0.0631
 1868SOL    HW1 7326   3.364   4.713   9.237 -0.3969  1.9214  0.4309
 1868SOL    HW2 7327   3.221   4.745   9.274 -0.7982 -0.5537  1.2292
 1869SOL     OW 7328   0.385   3.708   8.367  0.1450  0.3560  0.4319
 1869SOL    HW1 7329   0.378   3.802   8.350 -0.4172 -0.0446 -1.9025
 1869SOL    HW2 7330   0.462   3.680   8.318  0.0026 -0.4942  0.6775
 1870SOL     OW 7331   4.808   0.774   6.572  0.0906 -0.3580 -0.0242
 1870SOL    HW1 7332   4.743   0.793   6.640 -0.0063 -0.4871 -0.0813
 1870SOL    HW2 7333   4.845   0.860   6.550  0.2920 -0.3471  0.3608
 1871SOL     OW 7334   8.945   6.681   0.564  0.0222  0.5781 -0.5219
 1871SOL    HW1 7335   8.981   6.643   0.644 -0.5076 -0.4662 -0.7631
 1871SOL    HW2 7336   8.864   6.724   0.591 -0.2842  0.0132 -0.5302
 1872SOL     OW 7337   3.653   0.839   8.474 -0.8504 -0.4490  0.1798
 1872SOL    HW1 7338   3.608   0.896   8.537 -0.6690 -1.3318  1.1301
 1872SOL    HW2 7339   3.670   0.759   8.522 -2.9017 -2.1431 -1.6661
 1873SOL     OW 7340   9.506   4.231   5.388 -0.1614 -0.3107 -0.1389
 1873SOL    HW1 7341   9.471   4.164   5.446 -0.6786  0.0019 -0.0894
 1873SOL    HW2 7342   9.430   4.281   5.359  0.0912 -0.4271 -1.0437
 1874SOL     OW 7343   1.300   5.088   7.552  0.1596 -0.0135  0.3300
 1874SOL    HW1 7344   1.304   4.998   7.586  2.4386  0.2117  0.8180
 1874SOL    HW2 7345   1.342   5.083   7.466  2.3218  0.8815  1.2488
 1875SOL     OW 7346   2.195   1.065   1.914 -0.0333  0.5055 -0.2992
 1875SOL    HW1 7347   2.189   1.010   1.992 -1.3151  0.6719 -0.2522
 1875SOL    HW2 7348   2.271   1.031   1.867 -0.5019 -1.0201 -0.0303
 1876SOL     OW 7349   3.993   2.552   3.964 -0.0817  0.3694 -0.1407
 1876SOL    HW1 7350   3.920   2.581   4.020  0.2562  0.1992  0.3980
 1876SOL    HW2 7351   4.026   2.633   3.925  0.7034  0.7086  1.1710
 1877SOL     OW 7352   8.488   8.284   5.076 -0.4797 -0.0406  0.1771
 1877SOL    HW1 7353   8.498   8.241   4.991  1.6552  1.2159 -0.2846
 1877SOL    HW2 7354   8.478   8.377   5.054  1.9047  0.5594  1.2497
 1878SOL     OW 7355   6.075   6.569   4.339 -0.0633  0.0699 -0.0541
 1878SOL    HW1 7356   6.057   6.663   4.342 -1.9399 -0.0998 -2.6780
 1878SOL    HW2 7357   5.989   6.528   4.343  0.5188 -1.4072 -1.5315
 1879SOL     OW 7358   6.280   6.416   5.296  1.0159  0.2122  0.5643
 1879SOL    HW1 7359   6.232   6.348   5.343 -0.3424  0.6940 -0.0836
 1879SOL    HW2 7360   6.333   6.368   5.233 -0.7933 -0.2534 -0.6785
 1880SOL     OW 7361   5.037   6.902   3.061  0.2419 -0.0296 -0.3720
 1880SOL    HW1 7362   5.054   6.855   2.980  2.0010 -2.2286  1.1803
 1880SOL    HW2 7363   4.943   6.888   3.077  0.6648 -3.1431  0.0092
 1881SOL     OW 7364   4.472   7.145   5.594 -0.5300  0.1148 -0.4355
 1881SOL    HW1 7365   4.539   7.193   5.547 -1.1959  0.7208 -0.7870
 1881SOL    HW2 7366   4.515   7.065   5.623  0.9192  1.4098  1.1526
 1882SOL     OW 7367   3.881   8.187   8.828 -0.5693 -0.3580  0.3947
 1882SOL    HW1 7368   3.929   8.109   8.801 -0.2878  0.1216 -0.5498
 1882SOL    HW2 7369   3.880   8.183   8.924  3.1939  0.6362  0.6436
 1883SOL     OW 7370   8.134   2.379   9.650  0.0433  0.1953 -0.8461
 1883SOL    HW1 7371   8.205   2.434   9.617 -0.9684  0.5975 -2.5091
 1883SOL    HW2 7372   8.075   2.370   9.575  0.3031 -3.4220 -0.7743
 1884SOL     OW 7373   0.160   0.593   6.894 -0.2934  0.3414  0.0504
 1884SOL    HW1 7374   0.222   0.632   6.832 -0.1979 -0.3988 -0.3289
 1884SOL    HW2 7375   0.074   0.610   6.856 -0.2690  0.4436  0.0395
 1885SOL     OW 7376   6.373   9.119   0.605  0.3462  0.0443 -0.1433
 1885SOL    HW1 7377   6.430   9.082   0.672 -0.1277 -0.1981  0.1344
 1885SOL    HW2 7378   6.290   9.072   0.616 -0.2354  1.1004  0.1282
 1886SOL     OW 7379   3.652   6.947   8.422 -0.7841 -0.7453  0.2504
 1886SOL    HW1 7380   3.683   7.035   8.444 -0.0830 -0.1830 -2.5934
 1886SOL    HW2 7381   3.566   6.940   8.464 -0.9748  1.3896  0.3024
 1887SOL     OW 7382   9.482   0.665   3.549  0.6440  0.4393  0.2948
 1887SOL    HW1 7383   9.542   0.670   3.475  1.6505  1.5652  1.1326
 1887SOL    HW2 7384   9.538   0.675   3.626 -0.4955  0.4407  1.1579
 1888SOL     OW 7385   8.344   4.647   4.240  0.0420  0.2085 -0.1607
 1888SOL    HW1 7386   8.346   4.719   4.177  0.2514  0.6963  0.4001
 1888SOL    HW2 7387   8.420   4.594   4.218 -0.9551 -0.7068 -1.5656
 1889SOL     OW 7388   1.475   4.517   5.338 -0.1631 -0.3885 -0.4346
 1889SOL    HW1 7389   1.448   4.491   5.426 -3.0488  0.1625 -1.0586
 1889SOL    HW2 7390   1.504   4.608   5.348  4.0279 -1.6128  0.6361
 1890SOL     OW 7391   6.186   0.025   2.378 -0.7575  0.7182  0.2441
 1890SOL    HW1 7392   6.199   0.082   2.302  2.0435 -0.1227 -0.0043
 1890SOL    HW2 7393   6.267   0.033   2.428 -1.2574 -1.1984  1.4614
 1891SOL     OW 7394   2.745   9.704   2.507  0.5049  0.2419  0.5519
 1891SOL    HW1 7395   2.763   9.613   2.481  1.3496  0.2115  1.2028
 1891SOL    HW2 7396   2.827   9.750   2.489 -0.3843  1.2385 -1.2370
 1892SOL     OW 7397   0.582   6.695   3.299 -0.2023 -0.0061  0.1031
 1892SOL    HW1 7398   0.621   6.774   3.339 -1.5757  0.1838  1.1186
 1892SOL    HW2 7399   0.617   6.623   3.350 -3.0833  0.3114  2.8181
 1893SOL     OW 7400   0.015   5.950   9.681 -0.2902  0.6423 -0.2477
 1893SOL    HW1 7401   0.110   5.951   9.673 -0.2380  1.7930  0.3316
 1893SOL    HW2 7402  -0.007   5.857   9.690  0.7946  0.3804 -0.1657
 1894SOL     OW 7403   8.079   4.215   5.386 -0.3079 -0.4467 -0.1447
 1894SOL    HW1 7404   8.142   4.287   5.375 -2.1619  1.8961  2.8543
 1894SOL    HW2 7405   8.020   4.223   5.311 -0.8562  1.6946  0.4442
 1895SOL     OW 7406   0.904   4.313   7.371  0.2204  0.1876 -0.0218
 1895SOL    HW1 7407   0.914   4.288   7.279 -2.5493 -1.0017 -0.1038
 1895SOL    HW2 7408   0.987   4.354   7.394  0.7950  1.0626 -3.2054
 1896SOL     OW 7409   7.771   4.349   1.988 -0.5843  0.2629  0.4447
 1896SOL    HW1 7410   7.699   4.409   2.011 -2.5159 -0.1328 -3.5878
 1896SOL    HW2 7411   7.819   4.395   1.919 -0.0446 -1.4867 -0.3915
 1897SOL     OW 7412   0.413   9.235   0.062 -0.3567 -0.5646 -0.0190
 1897SOL    HW1 7413   0.470   9.250  -0.014 -0.1969 -2.1077 -0.2503
 1897SOL    HW2 7414   0.343   9.300   0.053  0.3301  0.0937 -0.8023
 1898SOL     OW 7415   7.542   0.552   1.203 -0.0552 -0.5104 -0.5801
 1898SOL    HW1 7416   7.480   0.523   1.136  0.6109  0.1382 -1.5082
 1898SOL    HW2 7417   7.590   0.473   1.227 -0.1420 -0.7068 -1.0389
 1899SOL     OW 7418   7.567   9.490   5.693 -0.1480 -0.2036 -0.0518
 1899SOL    HW1 7419   7.566   9.537   5.610  3.4127 -1.4200 -0.9840
 1899SOL    HW2 7420   7.508   9.540   5.750 -3.2278  0.3157 -3.3832
 1900SOL     OW 7421   5.979   2.606   0.442 -0.3086 -0.1994  0.3697
 1900SOL    HW1 7422   6.022   2.670   0.499 -1.2016  0.8786 -0.1326
 1900SOL    HW2 7423   5.886   2.624   0.451 -0.5475 -1.0953 -0.1918
 1901SOL     OW 7424   4.241   1.530   4.088  0.2290 -0.5663  0.0267
 1901SOL    HW1 7425   4.318   1.510   4.141  0.7916 -0.0937 -0.5898
 1901SOL    HW2 7426   4.187   1.451   4.093  0.7918 -0.9337  0.4098
 1902SOL     OW 7427   2.250   4.869   0.234 -0.3062 -0.1377  0.0393
 1902SOL    HW1 7428   2.230   4.838   0.146  0.0016  1.9329 -0.8164
 1902SOL    HW2 7429   2.345   4.857   0.243 -0.3808 -0.6246  0.2230
 1903SOL     OW 7430   6.447   8.025   5.493 -0.3936  0.1784 -0.0016
 1903SOL    HW1 7431   6.500   8.059   5.565 -2.0433  0.8697  0.9416
 1903SOL    HW2 7432   6.460   8.089   5.423 -0.2596  0.5332  0.3387
 1904SOL     OW 7433   2.111   4.333   1.576 -0.5090 -0.5798  0.3592
 1904SOL    HW1 7434   2.064   4.353   1.657  1.2075  0.0158  1.2603
 1904SOL    HW2 7435   2.109   4.414   1.526  1.4698  0.2233  1.4445
 1905SOL     OW 7436   1.313   7.824   1.843 -0.4380  0.2104 -0.1373
 1905SOL    HW1 7437   1.308   7.915   1.873  0.7605 -0.0221  0.8644
 1905SOL    HW2 7438   1.278   7.773   1.916 -0.8496 -0.1580 -0.5871
 1906SOL     OW 7439   3.246   1.101   6.664  0.0559 -0.3024  0.3350
 1906SOL    HW1 7440   3.221   1.185   6.626 -0.5245 -0.4237  0.4262
 1906SOL    HW2 7441   3.303   1.061   6.599 -1.0861 -0.5952 -0.5288
 1907SOL     OW 7442   1.659   1.384   7.932 -0.1385 -0.1276 -0.4628
 1907SOL    HW1 7443   1.628   1.371   7.842  0.6124 -1.7306 -0.5282
 1907SOL    HW2 7444   1.649   1.298   7.973 -3.0539  1.1395  1.8795
 1908SOL     OW 7445   2.808   8.972   0.040 -0.0887  0.0215  0.6671
 1908SOL    HW1 7446   2.747   8.970  -0.033 -0.4954 -0.6109  1.0130
 1908SOL    HW2 7447   2.857   8.890   0.033  1.2279  0.8330 -0.0188
 1909SOL     OW 7448   2.352   1.499   4.205 -0.1099 -0.2388 -0.6156
 1909SOL    HW1 7449   2.392   1.438   4.143  1.2989 -1.3767  1.3085
 1909SOL    HW2 7450   2.266   1.462   4.224  0.3572 -1.1256 -0.1909
 1910SOL     OW 7451   4.388   3.539   2.298 -0.8495 -0.6563 -0.3926
 1910SOL    HW1 7452   4.363   3.527   2.206 -3.2516 -2.0205  0.3514
 1910SOL    HW2 7453   4.366   3.455   2.340  0.5356 -0.1905  1.3815
 1911SOL     OW 7454   1.266   4.450   6.495 -0.0264  0.1331  0.3107
 1911SOL    HW1 7455   1.229   4.387   6.557  0.7343  0.4574  1.1138
 1911SOL    HW2 7456   1.347   4.409   6.465 -0.2266  0.1244 -0.2220
 1912SOL     OW 7457   5.266   2.276   3.534  0.6235 -0.9574 -0.2250
 1912SOL    HW1 7458   5.184   2.309   3.498  0.7537 -0.2889  0.0744
 1912SOL    HW2 7459   5.329   2.347   3.521  0.9936 -1.2094  0.1348
 1913SOL     OW 7460   6.403   4.769   3.201  0.0131  0.0466 -0.4298
 1913SOL    HW1 7461   6.433   4.687   3.161  1.4346  0.7226 -0.8178
 1913SOL    HW2 7462   6.317   4.784   3.163 -1.4336 -2.5235  1.5437
 1914SOL     OW 7463   8.829   8.156   7.700 -0.2521 -0.2559  0.5613
 1914SOL    HW1 7464   8.895   8.225   7.700 -0.0040 -0.4877  0.1996
 1914SOL    HW2 7465   8.879   8.075   7.707 -0.4950 -0.4380  0.2163
 1915SOL     OW 7466   4.382   4.104   3.352  0.2614  0.5645 -0.7198
 1915SOL    HW1 7467   4.362   4.191   3.386 -0.8341 -0.1398  0.5212
 1915SOL    HW2 7468   4.349   4.105   3.262  1.1285  1.7136 -1.0562
 1916SOL     OW 7469   6.711   0.488   7.001  0.1857  0.2775  0.0204
 1916SOL    HW1 7470   6.786   0.428   7.006  1.0422  1.2547 -0.6626
 1916SOL    HW2 7471   6.692   0.509   7.092  1.1323  0.4649  0.1906
 1917SOL     OW 7472   5.299   4.395   7.335 -0.1156  0.2808  0.8907
 1917SOL    HW1 7473   5.357   4.318   7.333  0.0025  0.3342  1.9298
 1917SOL    HW2 7474   5.247   4.387   7.255  1.7054  0.5446 -0.3921
 1918SOL     OW 7475   3.986   7.785   1.133  0.1009 -0.2338  0.0183
 1918SOL    HW1 7476   3.892   7.766   1.123  0.2369 -1.0970  0.3334
 1918SOL    HW2 7477   3.996   7.873   1.096 -1.2078  0.7455  1.8138
 1919SOL     OW 7478   0.384   0.887   3.491  0.2866  0.2513 -0.3317
 1919SOL    HW1 7479   0.324   0.876   3.565 -0.0560  1.2669 -0.4368
 1919SOL    HW2 7480   0.375   0.806   3.441  0.2289 -0.2889  0.5222
 1920SOL     OW 7481   3.898   1.444   7.907  0.3572 -0.0909 -0.3664
 1920SOL    HW1 7482   3.804   1.463   7.905 -0.1363 -1.9695  1.4734
 1920SOL    HW2 7483   3.905   1.355   7.874  1.3390 -0.3780  0.5691
 1921SOL     OW 7484   0.633   9.685   4.387 -0.9658 -0.1273  0.3490
 1921SOL    HW1 7485   0.555   9.740   4.378 -1.2646 -0.8670 -2.0895
 1921SOL    HW2 7486   0.601   9.596   4.372  0.7078 -0.2118 -4.2376
 1922SOL     OW 7487   9.147   8.392   7.335  0.5481  0.2921 -0.2360
 1922SOL    HW1 7488   9.224   8.416   7.387  1.4763 -0.4172 -1.2053
 1922SOL    HW2 7489   9.138   8.298   7.348  0.2814  0.2520 -0.6771
 1923SOL     OW 7490   8.392   6.930   7.435  0.6026  0.1358 -0.0416
 1923SOL    HW1 7491   8.415   6.942   7.343 -1.6482 -0.6507 -0.7643
 1923SOL    HW2 7492   8.356   7.015   7.462  0.5700  0.1407 -0.0997
 1924SOL     OW 7493   0.721   9.649   6.490 -0.4167 -0.3388  0.3270
 1924SOL    HW1 7494   0.681   9.708   6.554 -0.1548 -0.6931  0.8276
 1924SOL    HW2 7495   0.647   9.612   6.441 -0.5167  1.3643 -0.8667
 1925SOL     OW 7496   7.197   1.768   7.274  0.7049  0.2598  0.4750
 1925SOL    HW1 7497   7.151   1.798   7.196  0.2227 -0.6241  0.4049
 1925SOL    HW2 7498   7.135   1.710   7.318  1.8945 -1.3475  0.1295
 1926SOL     OW 7499   2.692   2.929   3.601 -0.1094  0.1085 -0.2013
 1926SOL    HW1 7500   2.661   3.015   3.629  2.4368  1.2058 -0.5368
 1926SOL    HW2 7501   2.627   2.868   3.637 -1.9705  2.1228  0.0802
 1927SOL     OW 7502   3.487   9.018   3.190  0.5174 -0.0213  0.2149
 1927SOL    HW1 7503   3.543   9.093   3.207 -0.1777  1.4692 -3.2390
 1927SOL    HW2 7504   3.542   8.957   3.141  0.0469  0.0019 -0.3622
 1928SOL     OW 7505   8.212   9.459   7.784  0.1481  0.4703  0.2171
 1928SOL    HW1 7506   8.186   9.449   7.693 -0.2827  1.2466  0.2437
 1928SOL    HW2 7507   8.153   9.526   7.819  0.7038  0.6231  0.9012
 1929SOL     OW 7508   1.860   1.109   9.317  0.2343  0.2665  0.7952
 1929SOL    HW1 7509   1.816   1.038   9.363  0.2254 -0.4535 -0.2924
 1929SOL    HW2 7510   1.791   1.148   9.263  0.9002 -0.9445 -1.0115
 1930SOL     OW 7511   8.984   7.747   5.693 -0.3860 -0.9211 -0.2770
 1930SOL    HW1 7512   9.002   7.767   5.785 -2.1302  0.6514 -0.2174
 1930SOL    HW2 7513   9.022   7.821   5.645  0.9823 -1.9895 -0.9201
 1931SOL     OW 7514   2.387   8.492   5.166 -0.3412 -0.2591  0.3238
 1931SOL    HW1 7515   2.407   8.585   5.156  0.1861 -0.2943  0.9690
 1931SOL    HW2 7516   2.394   8.456   5.078 -0.2908  0.2589  0.1122
 1932SOL     OW 7517   4.526   1.311   7.939  0.1773 -0.2552  0.3400
 1932SOL    HW1 7518   4.523   1.337   7.847 -2.1441  0.9684  0.6658
 1932SOL    HW2 7519   4.462   1.240   7.946  0.0728 -0.0972  1.0609
 1933SOL     OW 7520   6.021   8.598   7.798 -0.4072 -0.1525  0.0209
 1933SOL    HW1 7521   5.972   8.534   7.746  1.8001 -2.2375  0.3040
 1933SOL    HW2 7522   6.113   8.572   7.786  0.3675  1.0817  2.6778
 1934SOL     OW 7523   4.658   7.287   4.797  0.0714  0.0121 -0.8662
 1934SOL    HW1 7524   4.738   7.240   4.818 -0.6147 -0.7567  0.1081
 1934SOL    HW2 7525   4.591   7.248   4.852 -0.7552  1.4060 -0.8124
 1935SOL     OW 7526   9.518   6.534   5.896  0.1362 -0.1049 -0.0745
 1935SOL    HW1 7527   9.480   6.565   5.978 -0.6816  1.8097 -1.1151
 1935SOL    HW2 7528   9.579   6.603   5.869 -0.6349 -0.0064 -1.7252
 1936SOL     OW 7529   3.544   3.901   0.083 -0.2017  0.1955 -0.1177
 1936SOL    HW1 7530   3.621   3.957   0.080 -0.6538  0.9902  1.5221
 1936SOL    HW2 7531   3.544   3.866   0.173 -1.3285 -0.3931 -0.3286
 1937SOL     OW 7532   0.757   5.294   4.041 -0.0418  0.0030 -0.8214
 1937SOL    HW1 7533   0.826   5.246   3.996 -0.0190 -0.4583 -0.3011
 1937SOL    HW2 7534   0.780   5.288   4.134 -0.4715  0.3407 -0.6892
 1938SOL     OW 7535   4.768   4.734   2.243  0.1620  0.2057 -0.1469
 1938SOL    HW1 7536   4.835   4.754   2.308 -0.2638  3.0477 -0.4463
 1938SOL    HW2 7537   4.814   4.735   2.159  0.2561 -0.8935 -0.1185
 1939SOL     OW 7538   0.621   5.891   4.081  0.0843 -0.0690  0.0192
 1939SOL    HW1 7539   0.544   5.911   4.027  1.1312 -1.1972 -2.0342
 1939SOL    HW2 7540   0.695   5.912   4.025  1.2647 -0.4878  1.3731
 1940SOL     OW 7541   7.062   3.973   5.535  0.3288  1.3282  0.4813
 1940SOL    HW1 7542   6.982   3.963   5.587 -0.4545 -0.2771 -0.9609
 1940SOL    HW2 7543   7.124   3.911   5.573 -0.3369 -0.0501 -0.6233
 1941SOL     OW 7544   1.721   3.581   6.405  0.0991 -0.3518 -0.8026
 1941SOL    HW1 7545   1.758   3.658   6.450  0.9823 -0.6843 -0.9441
 1941SOL    HW2 7546   1.636   3.567   6.448  0.6545 -0.2942  0.3619
 1942SOL     OW 7547   5.246   3.302   3.328 -0.5555 -0.4161  0.2695
 1942SOL    HW1 7548   5.213   3.239   3.263 -0.5515 -0.1687  0.0226
 1942SOL    HW2 7549   5.169   3.326   3.379 -0.6953 -0.0936 -0.0888
 1943SOL     OW 7550   0.878   1.257   9.460  0.0631  0.1119 -0.2613
 1943SOL    HW1 7551   0.906   1.168   9.480  0.4112  0.6006  1.5861
 1943SOL    HW2 7552   0.861   1.256   9.366 -0.4800 -2.0455 -0.1980
 1944SOL     OW 7553   6.822   7.271   0.505  0.1111  0.3160 -0.6592
 1944SOL    HW1 7554   6.887   7.254   0.574 -0.5767  0.1386 -0.0437
 1944SOL    HW2 7555   6.866   7.333   0.446  0.9121  0.0454 -0.3634
 1945SOL     OW 7556   2.688   3.932   3.841 -0.9444 -0.1469 -0.4336
 1945SOL    HW1 7557   2.706   3.860   3.781  0.0418 -2.3149  2.2206
 1945SOL    HW2 7558   2.593   3.931   3.852 -0.8520 -2.0815  0.6211
 1946SOL     OW 7559   7.196   2.996   0.722 -0.6173  0.0619  0.5166
 1946SOL    HW1 7560   7.272   2.946   0.692 -0.8935 -0.4525  0.6434
 1946SOL    HW2 7561   7.198   2.985   0.818 -1.9524 -1.6240  0.3924
 1947SOL     OW 7562   6.508   5.876   1.956 -0.3208  0.1821 -0.0335
 1947SOL    HW1 7563   6.575   5.907   2.016 -0.4396 -0.1526  0.2755
 1947SOL    HW2 7564   6.445   5.948   1.951 -0.4474  0.1077  0.4570
 1948SOL     OW 7565   0.350   2.384   4.728 -0.0071 -0.0943  0.5154
 1948SOL    HW1 7566   0.436   2.426   4.723  0.4437 -1.0177  0.1829
 1948SOL    HW2 7567   0.288   2.453   4.706  0.7329  0.3314 -0.2960
 1949SOL     OW 7568   3.447   4.814   3.167 -0.2312 -0.0786 -0.5330
 1949SOL    HW1 7569   3.536   4.805   3.132 -0.0185  2.5443 -0.8684
 1949SOL    HW2 7570   3.449   4.897   3.215 -2.0989 -0.7488  0.8160
 1950SOL     OW 7571   2.799   8.437   4.726 -0.1620 -0.2031 -0.0277
 1950SOL    HW1 7572   2.764   8.484   4.650  0.2092  1.5757  0.8458
 1950SOL    HW2 7573   2.722   8.393   4.764 -0.8948  1.1143  0.0872
 1951SOL     OW 7574   0.035   4.864   2.924  0.1176 -0.6149 -0.1079
 1951SOL    HW1 7575   0.074   4.855   2.837 -0.4592  0.8475 -0.5575
 1951SOL    HW2 7576  -0.027   4.937   2.915 -0.1081 -0.5679  1.4776
 1952SOL     OW 7577   0.026   6.621   6.891 -0.1804  0.3596 -0.2577
 1952SOL    HW1 7578   0.010   6.658   6.977  0.3486  2.4033 -0.9760
 1952SOL    HW2 7579  -0.061   6.617   6.850 -0.3154  0.2827  0.0359
 1953SOL     OW 7580   7.649   2.460   2.254  0.2862  0.5164 -0.1334
 1953SOL    HW1 7581   7.721   2.466   2.191  1.1750  0.5183  0.8566
 1953SOL    HW2 7582   7.607   2.547   2.251  0.2031  0.4594 -0.8369
 1954SOL     OW 7583   6.317   3.886   3.819  0.6508  0.5855  0.4977
 1954SOL    HW1 7584   6.365   3.897   3.737  1.8618  0.9805  1.2311
 1954SOL    HW2 7585   6.328   3.793   3.841 -1.2661  0.0149 -0.7011
 1955SOL     OW 7586   4.681   2.373   7.629 -0.0248  0.3982 -0.1012
 1955SOL    HW1 7587   4.718   2.409   7.709 -0.4678 -0.2716  0.4124
 1955SOL    HW2 7588   4.588   2.360   7.648 -0.1063  0.0827 -0.6700
 1956SOL     OW 7589   8.493   4.443   5.492 -0.3404 -0.1786 -0.1666
 1956SOL    HW1 7590   8.497   4.530   5.530  0.0025 -0.4308  0.3815
 1956SOL    HW2 7591   8.576   4.432   5.447  0.0596 -0.6167  0.6535
 1957SOL     OW 7592   1.401   9.144   6.329 -0.3326  0.2734 -0.0938
 1957SOL    HW1 7593   1.350   9.064   6.337 -0.1566  0.2830  1.3099
 1957SOL    HW2 7594   1.492   9.114   6.324 -0.2443  0.3803  0.7230
 1958SOL     OW 7595   4.965   4.022   5.635 -0.4743 -0.1662  0.4331
 1958SOL    HW1 7596   5.027   4.093   5.622 -0.8409 -0.1520 -1.6625
 1958SOL    HW2 7597   5.017   3.950   5.670  0.2797  0.5227  0.7519
 1959SOL     OW 7598   7.864   5.757   7.674 -0.3026 -0.0627 -0.3946
 1959SOL    HW1 7599   7.777   5.720   7.658 -0.6113 -0.7368  2.3931
 1959SOL    HW2 7600   7.852   5.851   7.664 -1.0345 -0.2332 -1.2911
 1960SOL     OW 7601   9.181   8.647   1.727  0.0432  0.2630 -0.2563
 1960SOL    HW1 7602   9.130   8.568   1.741  0.0778  0.1629 -0.6905
 1960SOL    HW2 7603   9.217   8.667   1.814 -1.3291  0.7637  0.2267
 1961SOL     OW 7604   3.319   5.713   2.657 -0.4300  0.1447  0.0506
 1961SOL    HW1 7605   3.304   5.806   2.638  0.0535  0.6620  1.9760
 1961SOL    HW2 7606   3.362   5.679   2.579  2.4485  2.3614  0.5240
 1962SOL     OW 7607   7.500   1.575   8.609 -0.7535 -0.2457  0.2069
 1962SOL    HW1 7608   7.548   1.640   8.661 -0.5685 -0.2481  0.0407
 1962SOL    HW2 7609   7.546   1.573   8.525 -1.7221  0.5704 -0.3593
 1963SOL     OW 7610   1.884   5.045   7.349 -0.6086 -0.5352  0.7699
 1963SOL    HW1 7611   1.912   5.137   7.349  0.2917 -0.7986  0.5416
 1963SOL    HW2 7612   1.958   4.998   7.387 -0.5207 -1.3187 -0.3185
 1964SOL     OW 7613   4.763   5.800   5.041  0.0646 -0.0198  0.2345
 1964SOL    HW1 7614   4.840   5.856   5.037 -0.6787  0.9659 -1.1968
 1964SOL    HW2 7615   4.745   5.776   4.950 -0.5782 -1.2839  0.6647
 1965SOL     OW 7616   6.957   3.839   4.671 -0.4803 -0.0772  0.3033
 1965SOL    HW1 7617   7.044   3.834   4.631 -0.7742  0.0955 -0.3681
 1965SOL    HW2 7618   6.902   3.784   4.616 -0.5682 -1.0880  1.3739
 1966SOL     OW 7619   8.970   0.189   2.121  0.1898  0.2934  0.4237
 1966SOL    HW1 7620   8.905   0.149   2.179 -1.3889  0.7062 -1.0098
 1966SOL    HW2 7621   9.027   0.116   2.096  1.0691  0.1340  2.5934
 1967SOL     OW 7622   0.863   1.059   8.983  0.4525  0.0332 -0.5143
 1967SOL    HW1 7623   0.918   1.089   8.911 -1.0337 -0.4474 -1.8978
 1967SOL    HW2 7624   0.908   1.090   9.062  0.9009  2.6509 -1.7101
 1968SOL     OW 7625   1.896   7.762   0.111 -0.3360 -0.2891 -0.1152
 1968SOL    HW1 7626   1.978   7.747   0.064 -0.1097  2.3076 -0.7239
 1968SOL    HW2 7627   1.911   7.725   0.198  1.9018  0.9880  0.1168
 1969SOL     OW 7628   1.268   6.455   1.931  0.2594 -0.0972  0.0174
 1969SOL    HW1 7629   1.249   6.471   2.023 -0.4622  1.4829 -0.3717
 1969SOL    HW2 7630   1.183   6.436   1.891  0.4801 -0.1437 -0.4382
 1970SOL     OW 7631   5.772   5.202   2.135  0.8369 -0.1268 -0.8671
 1970SOL    HW1 7632   5.770   5.231   2.226 -2.8358 -0.0170 -0.8261
 1970SOL    HW2 7633   5.827   5.266   2.089 -0.7626  2.4242  0.5616
 1971SOL     OW 7634   0.244   5.509   7.668  0.0194 -0.0243  0.0709
 1971SOL    HW1 7635   0.226   5.489   7.576  0.3602 -0.6668  0.1335
 1971SOL    HW2 7636   0.263   5.423   7.707  2.7974  0.5342  0.0963
 1972SOL     OW 7637   1.267   5.975   3.522  0.0403  0.4136  0.1081
 1972SOL    HW1 7638   1.184   5.970   3.570 -0.1812  0.8464 -0.2150
 1972SOL    HW2 7639   1.325   5.915   3.567 -0.4998 -0.0089  0.2480
 1973SOL     OW 7640   0.175   3.666   0.611  0.5399 -0.1778 -0.3302
 1973SOL    HW1 7641   0.135   3.716   0.682 -0.1340 -1.0486 -0.0647
 1973SOL    HW2 7642   0.147   3.576   0.628 -0.5085 -0.2685 -2.2639
 1974SOL     OW 7643   7.655   5.477   3.556 -0.2397  0.0144  0.1127
 1974SOL    HW1 7644   7.710   5.410   3.515  0.1721 -0.3314  1.2192
 1974SOL    HW2 7645   7.567   5.439   3.555 -0.1922 -0.0944 -0.2146
 1975SOL     OW 7646   2.871   8.167   1.431  0.2309 -0.2585 -0.4002
 1975SOL    HW1 7647   2.795   8.223   1.412  1.8454  1.8761 -0.8765
 1975SOL    HW2 7648   2.835   8.098   1.487 -1.8987  1.1654  0.1380
 1976SOL     OW 7649   2.525   6.145   2.826 -0.0320  0.0390 -0.2074
 1976SOL    HW1 7650   2.464   6.218   2.815  1.7833  1.6958  0.1003
 1976SOL    HW2 7651   2.594   6.180   2.882  2.3376 -0.9544 -2.3120
 1977SOL     OW 7652   3.953   4.637   8.468 -0.1888 -0.1443  0.4649
 1977SOL    HW1 7653   4.030   4.658   8.521  2.0195 -3.0084 -1.2841
 1977SOL    HW2 7654   3.918   4.557   8.507  0.0752 -0.9884 -0.9656
 1978SOL     OW 7655   3.520   2.801   5.515  0.2745 -0.3176  0.3466
 1978SOL    HW1 7656   3.508   2.723   5.461  0.8104  0.1500 -0.4692
 1978SOL    HW2 7657   3.596   2.845   5.477  1.2648 -0.4447  2.0601
 1979SOL     OW 7658   5.916   9.570   9.509 -0.3738 -0.4594  0.0819
 1979SOL    HW1 7659   6.004   9.580   9.474  0.1977  0.4877  1.6660
 1979SOL    HW2 7660   5.893   9.479   9.491  0.6915 -0.5682 -0.8447
 1980SOL     OW 7661   2.661   7.098   1.151  0.3236  0.0100 -0.2403
 1980SOL    HW1 7662   2.634   7.148   1.228 -0.5803  0.9692 -1.1624
 1980SOL    HW2 7663   2.590   7.034   1.139 -1.1726  1.8923 -2.0813
 1981SOL     OW 7664   4.268   2.882   4.016  0.0578 -0.0362 -0.4359
 1981SOL    HW1 7665   4.293   2.974   4.024  1.7468 -0.4935  0.0324
 1981SOL    HW2 7666   4.350   2.836   3.998 -0.7722 -1.4464 -0.8340
 1982SOL     OW 7667   4.138   7.694   5.815  0.0421 -0.1174  0.6096
 1982SOL    HW1 7668   4.224   7.733   5.827  0.2027 -0.1759 -0.3149
 1982SOL    HW2 7669   4.120   7.650   5.899  1.8509 -1.9418  0.1224
 1983SOL     OW 7670   2.127   0.441   5.748 -0.4383  0.0339 -0.2534
 1983SOL    HW1 7671   2.215   0.425   5.713 -0.7528  0.3595 -1.2180
 1983SOL    HW2 7672   2.073   0.454   5.671 -1.1850  0.6556  0.3631
 1984SOL     OW 7673   1.325   8.866   0.886  0.1369 -0.2248  0.2801
 1984SOL    HW1 7674   1.393   8.898   0.945  0.0921 -0.1954  0.3161
 1984SOL    HW2 7675   1.370   8.853   0.802 -0.0022  0.6766  0.0519
 1985SOL     OW 7676   3.831   0.930   5.532 -0.3656 -0.1956  0.5764
 1985SOL    HW1 7677   3.829   0.849   5.481  0.7637  0.7266 -1.0301
 1985SOL    HW2 7678   3.838   1.000   5.466  3.2609  0.9543  1.9569
 1986SOL     OW 7679   6.518   1.216   3.047  0.2675 -0.0003  0.4120
 1986SOL    HW1 7680   6.611   1.222   3.072  0.1392 -1.3955  1.2988
 1986SOL    HW2 7681   6.494   1.126   3.066 -2.2773  1.1683  3.8027
 1987SOL     OW 7682   1.837   8.231   9.232 -0.2887 -0.0950 -0.4024
 1987SOL    HW1 7683   1.900   8.292   9.270 -1.4356 -0.1843  1.7981
 1987SOL    HW2 7684   1.866   8.145   9.263 -0.6935 -0.2802 -0.5359
 1988SOL     OW 7685   6.605   9.035   9.077  0.2351 -0.2402 -0.0586
 1988SOL    HW1 7686   6.701   9.038   9.075  0.2575  1.1150  1.5330
 1988SOL    HW2 7687   6.585   8.948   9.111  0.9122 -0.3772  0.0055
 1989SOL     OW 7688   9.413   6.505   7.970 -1.2054  0.3316 -0.0025
 1989SOL    HW1 7689   9.413   6.441   8.041  0.4757 -0.2953 -0.5359
 1989SOL    HW2 7690   9.504   6.533   7.962 -1.5622  1.2364 -1.1683
 1990SOL     OW 7691   2.295   7.437   3.113  0.0633 -0.4236  0.1190
 1990SOL    HW1 7692   2.357   7.457   3.183 -1.8225 -0.1085  1.8205
 1990SOL    HW2 7693   2.280   7.342   3.121 -1.4859 -0.1286  1.4363
 1991SOL     OW 7694   8.174   5.345   8.444 -0.1725  0.4968 -0.1855
 1991SOL    HW1 7695   8.156   5.268   8.389  0.2262 -0.8251  1.4520
 1991SOL    HW2 7696   8.088   5.369   8.479 -0.1961  0.3379 -0.1302
 1992SOL     OW 7697   4.946   2.566   1.590 -0.0910  0.0136 -0.4499
 1992SOL    HW1 7698   4.911   2.534   1.507  0.0341  0.3254 -0.6240
 1992SOL    HW2 7699   4.925   2.659   1.590 -0.6100 -0.0943  0.1343
 1993SOL     OW 7700   8.386   3.197   5.349  0.3030 -0.2996  0.3795
 1993SOL    HW1 7701   8.456   3.262   5.343  0.5577 -0.7244 -2.6934
 1993SOL    HW2 7702   8.382   3.176   5.442  0.3770  3.8478  1.5190
 1994SOL     OW 7703   6.943   2.735   4.918 -0.2549 -0.5488 -0.4144
 1994SOL    HW1 7704   6.871   2.736   4.855 -1.6604 -0.0978  1.1174
 1994SOL    HW2 7705   6.943   2.824   4.956  0.3653 -0.8853  0.4126
 1995SOL     OW 7706   6.812   8.171   6.961 -0.1694  0.2585 -0.1338
 1995SOL    HW1 7707   6.844   8.094   6.913 -0.2008  0.5160 -0.5746
 1995SOL    HW2 7708   6.884   8.233   6.957 -1.2115  1.4606 -2.5076
 1996SOL     OW 7709   4.436   3.125   5.950 -0.5289  0.3532 -0.1361
 1996SOL    HW1 7710   4.490   3.203   5.937 -1.6985  1.2416  0.1403
 1996SOL    HW2 7711   4.473   3.060   5.891  0.9550  0.8658  0.2011
 1997SOL     OW 7712   8.120   3.520   3.745  0.9757 -0.1266  0.0974
 1997SOL    HW1 7713   8.071   3.552   3.669  2.7376  0.8104 -0.7064
 1997SOL    HW2 7714   8.120   3.594   3.806 -0.8113 -1.0191  1.2780
 1998SOL     OW 7715   5.874   1.972   2.576  0.3455 -0.1475 -0.5081
 1998SOL    HW1 7716   5.910   2.020   2.650  0.4900 -0.6718 -0.2304
 1998SOL    HW2 7717   5.899   1.881   2.592  3.2427  0.1081 -2.8667
 1999SOL     OW 7718   6.054   7.582   8.029  0.4384  0.0785 -0.1485
 1999SOL    HW1 7719   5.989   7.633   8.078 -0.5264 -1.7051  0.5219
 1999SOL    HW2 7720   6.032   7.595   7.937  0.4576  1.1524 -0.0099
 2000SOL     OW 7721   7.928   3.554   0.382  0.1317  0.0915 -1.0241
 2000SOL    HW1 7722   7.950   3.578   0.472  0.8927  1.5379 -1.5655
 2000SOL    HW2 7723   7.990   3.604   0.328 -0.2415 -0.8258 -2.3535
 2001SOL     OW 7724   4.498   6.349   7.910  0.1263  0.3863  0.5239
 2001SOL    HW1 7725   4.436   6.282   7.939 -1.2746  1.6113  0.5179
 2001SOL    HW2 7726   4.455   6.391   7.836  1.4457  0.6020 -0.1491
 2002SOL     OW 7727   3.003   5.893   6.067 -0.8431  0.1126 -0.5792
 2002SOL    HW1 7728   3.025   5.828   6.134 -0.2626 -0.1738 -1.0510
 2002SOL    HW2 7729   2.922   5.933   6.100  1.1562  2.4001  2.0696
 2003SOL     OW 7730   1.965   6.482   9.005  0.2559  0.2229 -0.2397
 2003SOL    HW1 7731   2.052   6.449   9.026  0.8741  2.3321  0.7188
 2003SOL    HW2 7732   1.971   6.576   9.017 -2.2279  0.4087  0.0552
 2004SOL     OW 7733   7.911   1.403   0.051 -0.0291  0.0621 -0.0577
 2004SOL    HW1 7734   7.987   1.394  -0.007 -0.1627 -1.7269 -0.0115
 2004SOL    HW2 7735   7.847   1.450  -0.002  0.7197  0.6165 -0.4874
 2005SOL     OW 7736   1.876   6.373   6.578 -0.2721 -0.2569 -0.2340
 2005SOL    HW1 7737   1.921   6.419   6.648 -1.6703  0.4160  0.2683
 2005SOL    HW2 7738   1.852   6.442   6.516  0.1331 -0.7202 -0.9274
 2006SOL     OW 7739   4.625   5.780   6.436  0.3017 -0.5624 -0.0458
 2006SOL    HW1 7740   4.626   5.695   6.391  2.8083  0.7058 -2.7492
 2006SOL    HW2 7741   4.574   5.837   6.378 -2.3642 -0.3426  2.3052
 2007SOL     OW 7742   5.315   1.440   8.628  0.0649  0.1669 -0.1150
 2007SOL    HW1 7743   5.286   1.531   8.631  0.3942  0.2622  0.3041
 2007SOL    HW2 7744   5.379   1.433   8.700  1.8384  0.2333 -1.5995
 2008SOL     OW 7745   8.733   5.149   7.813  0.5578 -0.3646 -0.5019
 2008SOL    HW1 7746   8.819   5.129   7.850  1.6705  0.6091 -2.4045
 2008SOL    HW2 7747   8.744   5.234   7.771 -2.2064  1.3069  1.7710
 2009SOL     OW 7748   6.646   1.123   1.141  0.3317  0.1054 -0.1388
 2009SOL    HW1 7749   6.617   1.139   1.051 -0.0544 -1.6655 -0.3711
 2009SOL    HW2 7750   6.687   1.205   1.169 -3.2924  2.1703 -0.3964
 2010SOL     OW 7751   6.381   7.887   5.051  0.0130 -0.1453 -0.5517
 2010SOL    HW1 7752   6.326   7.949   5.003 -0.1936 -1.9020 -2.7582
 2010SOL    HW2 7753   6.322   7.845   5.112  0.0873  1.5159  0.7448
 2011SOL     OW 7754   6.549   8.060   2.390  0.1633  0.4113 -0.0898
 2011SOL    HW1 7755   6.533   8.107   2.308  1.5535  1.6004  0.2833
 2011SOL    HW2 7756   6.561   8.129   2.455  0.6058 -0.4898  0.8045
 2012SOL     OW 7757   4.860   5.663   7.261 -0.8183  0.3856  0.2197
 2012SOL    HW1 7758   4.820   5.732   7.210  1.0202 -0.4221 -2.5160
 2012SOL    HW2 7759   4.787   5.605   7.284 -1.7132  0.6176 -1.8098
 2013SOL     OW 7760   3.185   4.704   4.280  0.2754 -0.0647 -0.2487
 2013SOL    HW1 7761   3.274   4.671   4.269 -0.0068 -0.8423 -0.2596
 2013SOL    HW2 7762   3.151   4.656   4.355 -0.0735  0.3561 -0.1388
 2014SOL     OW 7763   0.077   6.269   4.183 -0.8123  0.2799  0.4856
 2014SOL    HW1 7764   0.001   6.262   4.125  1.2276  0.4412 -2.4852
 2014SOL    HW2 7765   0.110   6.179   4.191  0.5908  0.5829 -1.2110
 2015SOL     OW 7766   9.349   6.516   6.548 -0.1347 -0.1249 -0.4402
 2015SOL    HW1 7767   9.254   6.506   6.552 -0.0797 -0.5976 -0.1848
 2015SOL    HW2 7768   9.382   6.426   6.540  0.3134 -0.0056  0.0062
 2016SOL     OW 7769   6.063   1.096   2.379 -0.1599  0.3134 -0.1494
 2016SOL    HW1 7770   6.067   1.033   2.451 -0.1553  0.5833  0.0856
 2016SOL    HW2 7771   6.075   1.181   2.421 -1.2662  0.5706 -0.3336
 2017SOL     OW 7772   9.202   1.053   5.729  0.3804  0.3137 -0.0667
 2017SOL    HW1 7773   9.230   1.021   5.814 -1.4634 -1.2250  0.0383
 2017SOL    HW2 7774   9.106   1.052   5.733  0.1552  4.2248 -0.7436
 2018SOL     OW 7775   3.989   4.564   4.094 -0.0493 -0.0713 -0.5967
 2018SOL    HW1 7776   4.038   4.606   4.165  0.7825 -1.4770 -0.3040
 2018SOL    HW2 7777   4.057   4.529   4.036 -0.6388 -2.6738  0.1728
 2019SOL     OW 7778   5.235   4.579   2.300  0.4211  0.3861  0.1430
 2019SOL    HW1 7779   5.215   4.485   2.290  1.9897 -0.0055  0.3899
 2019SOL    HW2 7780   5.168   4.612   2.359  1.7928 -1.3779  2.8878
 2020SOL     OW 7781   6.354   4.756   4.328  0.4181 -0.0454 -0.0494
 2020SOL    HW1 7782   6.284   4.821   4.323 -0.1009 -0.5446  0.4967
 2020SOL    HW2 7783   6.320   4.690   4.390  1.1781 -0.5241 -0.1381
 2021SOL     OW 7784   8.049   9.393   4.330 -0.3940  0.4983  0.2929
 2021SOL    HW1 7785   8.035   9.322   4.268 -1.5078  0.5840  0.4299
 2021SOL    HW2 7786   8.031   9.473   4.280  0.6977  0.6954  0.1823
 2022SOL     OW 7787   6.613   4.487   5.725 -0.0052  0.3010  0.3025
 2022SOL    HW1 7788   6.595   4.542   5.649  0.1911  0.7870  0.6041
 2022SOL    HW2 7789   6.612   4.547   5.800 -2.4755 -0.4987  1.0010
 2023SOL     OW 7790   1.362   1.652   1.009  0.0590  0.0292 -0.3791
 2023SOL    HW1 7791   1.388   1.696   1.090 -1.9453 -1.1313  0.9954
 2023SOL    HW2 7792   1.443   1.614   0.975  0.7672 -0.4771  1.7386
 2024SOL     OW 7793   8.733   6.900   9.392 -0.4112 -0.0371 -0.5728
 2024SOL    HW1 7794   8.650   6.906   9.439 -0.3663  0.0511 -0.5015
 2024SOL    HW2 7795   8.709   6.905   9.300 -0.5084 -0.3033 -0.5611
 2025SOL     OW 7796   6.590   1.822   1.213 -0.6408 -0.0350 -0.4671
 2025SOL    HW1 7797   6.597   1.739   1.167 -1.5948 -0.6354  0.4253
 2025SOL    HW2 7798   6.617   1.803   1.303 -1.4349  0.4718 -0.1068
 2026SOL     OW 7799   4.321   6.501   1.540 -0.1816 -0.5055  0.1012
 2026SOL    HW1 7800   4.298   6.521   1.450 -1.8791  1.6559  0.9196
 2026SOL    HW2 7801   4.414   6.524   1.548 -0.4206  0.8234 -0.7136
 2027SOL     OW 7802   0.295   1.670   8.550 -0.3754  0.3027  0.1323
 2027SOL    HW1 7803   0.364   1.688   8.485  1.5660  0.0811  2.0122
 2027SOL    HW2 7804   0.219   1.718   8.519  0.7312  0.8762 -1.8497
 2028SOL     OW 7805   5.524   7.365   8.235 -0.6429 -0.3336 -0.7492
 2028SOL    HW1 7806   5.537   7.307   8.160 -0.7779 -0.9378 -0.3156
 2028SOL    HW2 7807   5.567   7.320   8.307  1.6644  1.3852 -0.9414
 2029SOL     OW 7808   6.763   2.892   1.925  0.3787  0.1083  0.0931
 2029SOL    HW1 7809   6.728   2.835   1.995  1.5676 -1.7272 -0.7206
 2029SOL    HW2 7810   6.697   2.887   1.856  0.5515 -0.4056 -0.0353
 2030SOL     OW 7811   4.139   4.481   6.743  0.1370 -0.7966 -0.5621
 2030SOL    HW1 7812   4.087   4.560   6.725  0.2021 -0.9262 -1.3189
 2030SOL    HW2 7813   4.155   4.485   6.838  1.9872  1.2392 -0.8668
 2031SOL     OW 7814   5.961   3.493   5.039 -0.0408 -0.5012  0.1154
 2031SOL    HW1 7815   5.954   3.587   5.024  0.1687 -0.4039  0.5971
 2031SOL    HW2 7816   5.991   3.486   5.130 -1.3726 -1.0562  0.5414
 2032SOL     OW 7817   6.100   7.485   4.929 -0.6768  0.0289  0.1751
 2032SOL    HW1 7818   6.127   7.420   4.994 -0.3460  1.6182  1.7200
 2032SOL    HW2 7819   6.181   7.531   4.907 -0.7088 -0.7289 -1.7212
 2033SOL     OW 7820   3.161   6.952   2.446 -0.4352 -0.1193  0.2868
 2033SOL    HW1 7821   3.104   7.028   2.432 -0.3472 -0.0369  0.3694
 2033SOL    HW2 7822   3.223   6.981   2.513  1.0332  0.5093 -1.2615
 2034SOL     OW 7823   1.728   3.375   0.864  0.0835  0.5387  0.6282
 2034SOL    HW1 7824   1.810   3.421   0.846 -0.9572  1.9427 -0.9069
 2034SOL    HW2 7825   1.744   3.285   0.836  0.9490  0.9310 -0.2013
 2035SOL     OW 7826   1.324   8.438   6.054  0.1352  0.2159  0.3773
 2035SOL    HW1 7827   1.331   8.413   5.962  1.0892 -0.5176  0.6224
 2035SOL    HW2 7828   1.400   8.397   6.095 -1.0705 -0.7254  1.7681
 2036SOL     OW 7829   1.587   9.246   7.826  0.9164  0.4919  0.2786
 2036SOL    HW1 7830   1.634   9.324   7.797  2.6100 -0.8774 -0.8903
 2036SOL    HW2 7831   1.508   9.244   7.772  0.8601  1.3710  0.3150
 2037SOL     OW 7832   3.273   4.145   9.096 -0.5870  0.3913 -0.3262
 2037SOL    HW1 7833   3.197   4.103   9.136 -0.1036  0.4080  0.6248
 2037SOL    HW2 7834   3.288   4.095   9.016 -0.1384 -1.1713  0.6847
 2038SOL     OW 7835   4.694   1.354   3.061 -1.1292  0.7060  0.5679
 2038SOL    HW1 7836   4.757   1.299   3.107  0.0697  1.9183  0.4308
 2038SOL    HW2 7837   4.748   1.413   3.008 -2.4219  0.7556 -0.7528
 2039SOL     OW 7838   5.555   9.404   9.456  0.1554 -0.1678 -0.6652
 2039SOL    HW1 7839   5.494   9.335   9.483  1.2595 -0.0903  2.5124
 2039SOL    HW2 7840   5.635   9.384   9.505  0.6943  3.0165 -0.0541
 2040SOL     OW 7841   7.845   8.301   6.212  0.2604  0.5290 -0.1823
 2040SOL    HW1 7842   7.886   8.329   6.131  0.3094  2.0403  0.3419
 2040SOL    HW2 7843   7.908   8.326   6.280 -0.7568  1.3204  0.4900
 2041SOL     OW 7844   8.596   8.460   9.616 -0.1188  0.0809 -0.0016
 2041SOL    HW1 7845   8.542   8.391   9.654  1.8985 -1.1790  0.7299
 2041SOL    HW2 7846   8.643   8.497   9.691 -0.4128  1.5789 -0.5326
 2042SOL     OW 7847   7.056   7.981   5.514  0.0941  0.5336 -0.4098
 2042SOL    HW1 7848   7.049   7.951   5.605 -1.4536 -0.5191 -0.8484
 2042SOL    HW2 7849   7.077   8.074   5.522  0.6401  0.3196  1.0108
 2043SOL     OW 7850   1.190   5.017   5.448 -0.1306  0.1957 -0.2969
 2043SOL    HW1 7851   1.209   5.093   5.502  0.6051  0.1874 -0.5265
 2043SOL    HW2 7852   1.096   5.003   5.458  0.2395 -0.9539  2.5006
 2044SOL     OW 7853   1.732   5.478   4.702  0.3993  0.2067  0.2351
 2044SOL    HW1 7854   1.762   5.523   4.623  1.5521  1.4773  1.3591
 2044SOL    HW2 7855   1.806   5.482   4.762 -0.8712  0.3973  1.8519
 2045SOL     OW 7856   5.691   1.331   4.440  0.1975  0.3579 -0.1367
 2045SOL    HW1 7857   5.730   1.383   4.510  2.8284 -1.4256 -0.1079
 2045SOL    HW2 7858   5.704   1.240   4.468 -2.9511 -0.4424 -0.8219
 2046SOL     OW 7859   4.487   1.404   4.767  0.0790  0.5035  0.3398
 2046SOL    HW1 7860   4.512   1.451   4.846  0.9177 -0.8339  0.9005
 2046SOL    HW2 7861   4.558   1.423   4.705  0.1024  0.4840  0.3607
 2047SOL     OW 7862   4.793   3.137   1.333 -0.0644 -0.2653  0.4407
 2047SOL    HW1 7863   4.755   3.176   1.412  0.6679  0.2393  0.5672
 2047SOL    HW2 7864   4.814   3.047   1.358  2.5130  0.5809  1.7133
 2048SOL     OW 7865   3.560   9.367   1.254  0.6748  0.0643 -0.1152
 2048SOL    HW1 7866   3.553   9.461   1.236  1.0298  0.2607  0.7549
 2048SOL    HW2 7867   3.486   9.349   1.312  0.7867 -0.1279 -0.0321
 2049SOL     OW 7868   6.155   4.478   7.039  0.2407 -0.4905  0.1284
 2049SOL    HW1 7869   6.156   4.423   6.961  3.0094  2.7187 -2.3736
 2049SOL    HW2 7870   6.229   4.447   7.091  0.0544 -0.9256  0.1350
 2050SOL     OW 7871   2.850   1.083   1.799 -0.2587  0.0538 -0.2039
 2050SOL    HW1 7872   2.853   0.995   1.760 -0.1342  0.1642 -0.4419
 2050SOL    HW2 7873   2.905   1.136   1.743 -0.5868  0.3596 -0.2405
 2051SOL     OW 7874   8.669   2.482   9.221 -0.1038  1.2113  0.1441
 2051SOL    HW1 7875   8.733   2.429   9.268 -0.2846 -2.0742 -2.8396
 2051SOL    HW2 7876   8.721   2.549   9.177  1.3797 -0.9628 -1.6549
 2052SOL     OW 7877   6.462   8.849   6.855 -0.3013  0.2978  0.0031
 2052SOL    HW1 7878   6.470   8.763   6.814 -0.9824 -0.3553  1.1860
 2052SOL    HW2 7879   6.449   8.910   6.782 -2.2626 -0.9154 -0.7408
 2053SOL     OW 7880   0.694   6.303   6.464 -0.1881 -0.0708 -0.1733
 2053SOL    HW1 7881   0.709   6.383   6.413 -0.0317  1.2946  1.8862
 2053SOL    HW2 7882   0.599   6.292   6.463 -0.2605  0.4866 -0.0102
 2054SOL     OW 7883   6.730   2.428   3.696  0.1137 -0.2899 -0.1241
 2054SOL    HW1 7884   6.684   2.465   3.620  2.0638  1.3338 -0.5895
 2054SOL    HW2 7885   6.701   2.482   3.770  0.8980  0.4121 -0.3299
 2055SOL     OW 7886   7.049   0.633   1.215 -0.2960  0.4021 -0.2705
 2055SOL    HW1 7887   7.006   0.705   1.169  0.0535 -1.0123 -2.9800
 2055SOL    HW2 7888   7.121   0.675   1.263 -1.4255  2.1004  0.0089
 2056SOL     OW 7889   6.328   7.582   3.742  0.5829 -0.1069  0.4040
 2056SOL    HW1 7890   6.304   7.500   3.785 -2.2303  0.8952  0.9417
 2056SOL    HW2 7891   6.294   7.574   3.653 -0.7187  0.8333  0.7784
 2057SOL     OW 7892   2.259   1.712   2.696  0.4262  0.1903 -0.0103
 2057SOL    HW1 7893   2.188   1.760   2.654  0.7172  0.2760 -0.4089
 2057SOL    HW2 7894   2.336   1.731   2.642  0.8520  0.4925  0.6927
 2058SOL     OW 7895   4.001   8.555   6.824 -0.0316 -0.0756  0.0175
 2058SOL    HW1 7896   3.927   8.616   6.823  1.3017  1.6253 -1.0770
 2058SOL    HW2 7897   4.035   8.558   6.735  1.4581 -0.6646  0.5416
 2059SOL     OW 7898   3.456   1.024   5.481 -0.4088 -0.3181  0.0272
 2059SOL    HW1 7899   3.412   0.942   5.501  1.9515 -1.2333  1.8517
 2059SOL    HW2 7900   3.529   1.000   5.423  0.6651  0.3448  1.0511
 2060SOL     OW 7901   2.808   3.840   7.001 -1.3890  0.1137  0.2495
 2060SOL    HW1 7902   2.804   3.791   7.083 -1.2516 -1.0108 -0.4069
 2060SOL    HW2 7903   2.772   3.782   6.935 -0.5233  0.5875 -0.6869
 2061SOL     OW 7904   4.926   9.481   4.066  0.9348  0.1365 -0.1092
 2061SOL    HW1 7905   4.936   9.392   4.033  2.3307 -0.0291  0.6840
 2061SOL    HW2 7906   4.872   9.525   4.000 -0.8504 -1.5978  0.1068
 2062SOL     OW 7907   6.920   8.980   8.333 -0.0858  0.0047  0.1633
 2062SOL    HW1 7908   6.889   9.017   8.250  0.5708  3.1267  1.2180
 2062SOL    HW2 7909   6.848   8.995   8.394 -0.5367 -2.2241  0.2922
 2063SOL     OW 7910   7.037   8.904   9.460  0.5114 -0.1872  0.2795
 2063SOL    HW1 7911   7.117   8.920   9.510  0.8907  1.1696 -0.7066
 2063SOL    HW2 7912   6.993   8.989   9.458 -1.7003 -1.2061  2.0042
 2064SOL     OW 7913   1.646   3.053   6.658  0.1292 -0.3337 -0.0136
 2064SOL    HW1 7914   1.559   3.087   6.640  0.9892  2.1638  0.0715
 2064SOL    HW2 7915   1.650   3.045   6.753  1.0694  3.1767  0.3883
 2065SOL     OW 7916   0.444   7.005   8.102  0.2284  0.0369  0.1199
 2065SOL    HW1 7917   0.400   6.970   8.025  1.2080  0.5995 -0.7287
 2065SOL    HW2 7918   0.423   6.944   8.172  0.6063 -1.3802 -0.9526
 2066SOL     OW 7919   6.608   6.332   2.629  0.2023 -0.0190  0.1390
 2066SOL    HW1 7920   6.653   6.252   2.656 -0.4110 -1.2377 -2.1674
 2066SOL    HW2 7921   6.536   6.342   2.692  0.3165 -1.2766  0.4826
 2067SOL     OW 7922   3.262   3.784   0.907 -0.2943 -0.1507 -0.1933
 2067SOL    HW1 7923   3.269   3.862   0.962  0.5930 -0.1275 -0.3168
 2067SOL    HW2 7924   3.353   3.763   0.884 -0.6391 -0.2080 -1.5918
 2068SOL     OW 7925   8.187   6.819   0.645 -0.3341 -0.2321  0.0794
 2068SOL    HW1 7926   8.122   6.749   0.637  0.3454 -0.7675 -0.9842
 2068SOL    HW2 7927   8.135   6.899   0.649 -1.0771 -0.6757 -0.4108
 2069SOL     OW 7928   1.201   1.207   1.919  0.0810  0.1478  0.2886
 2069SOL    HW1 7929   1.266   1.268   1.884 -0.0226  0.4524  0.6168
 2069SOL    HW2 7930   1.125   1.215   1.862 -0.1953  0.8546  0.7387
 2070SOL     OW 7931   0.134   4.655   9.009 -0.0802  0.3451 -1.0028
 2070SOL    HW1 7932   0.197   4.584   9.022 -1.0181 -0.1960  0.9124
 2070SOL    HW2 7933   0.174   4.731   9.051 -0.6818 -0.0004  0.2199
 2071SOL     OW 7934   0.883   9.354   6.803 -0.3900 -0.4107  0.0212
 2071SOL    HW1 7935   0.831   9.413   6.858  1.3961  0.6590  0.6428
 2071SOL    HW2 7936   0.820   9.321   6.738 -1.5168  2.1157 -0.3231
 2072SOL     OW 7937   8.438   8.779   8.695  0.6002  0.3550 -0.4252
 2072SOL    HW1 7938   8.515   8.734   8.730  0.4168  1.0806  0.9880
 2072SOL    HW2 7939   8.443   8.765   8.600  1.9185 -0.4596 -0.2605
 2073SOL     OW 7940   3.424   9.355   1.011 -0.0334  0.1942 -0.7981
 2073SOL    HW1 7941   3.387   9.289   1.069  1.7115 -0.8634 -0.8198
 2073SOL    HW2 7942   3.518   9.355   1.032  0.2337  1.6178 -1.8385
 2074SOL     OW 7943   5.169   1.262   5.521  0.2954 -0.2569 -0.1428
 2074SOL    HW1 7944   5.156   1.221   5.436  2.0100  0.7530 -0.9538
 2074SOL    HW2 7945   5.264   1.271   5.529  0.1163  0.7021  1.3808
 2075SOL     OW 7946   0.081   6.117   7.373 -0.0346 -0.2056 -0.4984
 2075SOL    HW1 7947   0.150   6.109   7.439  0.8201 -0.1863 -1.3702
 2075SOL    HW2 7948   0.108   6.190   7.318 -0.8885 -0.0336 -0.7070
 2076SOL     OW 7949   7.516   5.264   5.775 -0.3215  0.4527 -0.0993
 2076SOL    HW1 7950   7.554   5.188   5.732 -0.9440  0.5781 -0.8734
 2076SOL    HW2 7951   7.560   5.267   5.860 -0.5128 -0.9411  0.0668
 2077SOL     OW 7952   1.762   7.920   5.773  0.0543 -0.6654  0.6348
 2077SOL    HW1 7953   1.793   7.926   5.863  0.3488  0.3441  0.4851
 2077SOL    HW2 7954   1.840   7.901   5.721 -0.0922 -1.1178  0.5795
 2078SOL     OW 7955   5.820   2.320   4.917 -0.0783 -0.0573  0.7448
 2078SOL    HW1 7956   5.816   2.235   4.873 -1.8003  0.1073  0.5246
 2078SOL    HW2 7957   5.908   2.353   4.897  0.3665 -1.4689  0.2631
 2079SOL     OW 7958   2.755   7.295   5.217  0.1596  0.2218  0.0469
 2079SOL    HW1 7959   2.750   7.391   5.220 -0.6364  0.2563 -1.4216
 2079SOL    HW2 7960   2.826   7.277   5.154 -0.4274 -0.1341 -0.5249
 2080SOL     OW 7961   8.573   1.860   7.643  0.0980 -0.6268  0.1658
 2080SOL    HW1 7962   8.620   1.933   7.602  1.3954 -1.5202  0.0201
 2080SOL    HW2 7963   8.490   1.855   7.595 -0.1741  0.9421  0.3894
 2081SOL     OW 7964   8.434   4.216   6.538 -0.0403 -0.1872  0.0366
 2081SOL    HW1 7965   8.411   4.288   6.597 -0.0319 -1.6311  1.9259
 2081SOL    HW2 7966   8.350   4.182   6.507 -0.0790  0.0933 -0.1670
 2082SOL     OW 7967   1.348   7.855   8.075 -0.3441 -0.7024  0.4796
 2082SOL    HW1 7968   1.386   7.917   8.013 -0.5661  0.9018  1.8820
 2082SOL    HW2 7969   1.334   7.776   8.024  1.6560 -0.2319 -0.9348
 2083SOL     OW 7970   1.419   2.222   9.565  0.2373 -0.6117  0.4020
 2083SOL    HW1 7971   1.407   2.316   9.578 -0.3060 -0.7801  1.2034
 2083SOL    HW2 7972   1.370   2.182   9.636 -0.9301 -1.5531 -0.8888
 2084SOL     OW 7973   9.649   9.284   8.484 -0.1637  0.2513 -0.1869
 2084SOL    HW1 7974   9.696   9.366   8.498  0.5599  0.0107 -1.1259
 2084SOL    HW2 7975   9.660   9.265   8.391  0.5519 -1.4316  0.1913
 2085SOL     OW 7976   6.193   4.406   1.868  0.3507  0.4253  0.4126
 2085SOL    HW1 7977   6.119   4.346   1.870 -0.8330  1.7045 -1.3195
 2085SOL    HW2 7978   6.255   4.370   1.931  0.0815 -3.0039 -1.0714
 2086SOL     OW 7979   0.775   0.462   0.295 -0.2338 -0.8775 -0.3149
 2086SOL    HW1 7980   0.699   0.518   0.278  0.4964  0.1521 -0.2756
 2086SOL    HW2 7981   0.770   0.394   0.228  0.1310  0.5561 -1.8632
 2087SOL     OW 7982   3.190   9.155   2.250 -0.0514  0.1285  0.7686
 2087SOL    HW1 7983   3.103   9.173   2.213  0.4102  1.5670  0.3094
 2087SOL    HW2 7984   3.181   9.176   2.343  0.3386  2.5486  0.3378
 2088SOL     OW 7985   2.233   6.113   9.087  0.5587 -0.2423  0.3554
 2088SOL    HW1 7986   2.243   6.207   9.071  1.0040 -0.3525 -0.0345
 2088SOL    HW2 7987   2.320   6.077   9.070  0.1261 -0.8695 -0.5620
 2089SOL     OW 7988   2.243   7.314   2.299  0.0557 -0.1469  0.4061
 2089SOL    HW1 7989   2.208   7.319   2.388  0.2157 -1.5163  0.5689
 2089SOL    HW2 7990   2.331   7.352   2.306 -0.1089  0.1808  0.7269
 2090SOL     OW 7991   9.155   2.662   8.737  0.0855  0.5469  0.1516
 2090SOL    HW1 7992   9.151   2.697   8.648 -0.4140  0.9624  0.3345
 2090SOL    HW2 7993   9.248   2.666   8.759  0.5274 -1.4937 -1.0985
 2091SOL     OW 7994   2.630   0.464   7.485  0.3598  0.0223 -0.0723
 2091SOL    HW1 7995   2.592   0.487   7.570 -0.8172  0.1758 -0.6203
 2091SOL    HW2 7996   2.679   0.542   7.460 -1.5310  1.0775 -0.7477
 2092SOL     OW 7997   0.608   2.144   9.384 -0.4584  0.1491 -0.1127
 2092SOL    HW1 7998   0.523   2.103   9.364 -0.6185 -0.9226  2.3773
 2092SOL    HW2 7999   0.619   2.210   9.316 -1.4088 -2.3017 -2.8474
 2093SOL     OW 8000   1.278   8.341   7.174 -0.4616  0.5069 -0.5431
 2093SOL    HW1 8001   1.206   8.299   7.126 -0.0585  0.4540 -1.1068
 2093SOL    HW2 8002   1.356   8.323   7.122 -0.0578  0.6903 -0.0110
 2094SOL     OW 8003   5.125   8.317   4.447 -0.6820 -0.7040 -0.3702
 2094SOL    HW1 8004   5.191   8.300   4.515 -1.2333 -1.2539  0.0324
 2094SOL    HW2 8005   5.126   8.413   4.438  0.5853 -0.7306 -0.7924
 2095SOL     OW 8006   4.957   1.768   4.831 -0.2176 -0.2065  0.1750
 2095SOL    HW1 8007   4.893   1.764   4.759 -0.0526  0.5840 -0.0252
 2095SOL    HW2 8008   4.933   1.695   4.888 -0.0743 -1.1375 -0.9113
 2096SOL     OW 8009   5.080   0.871   3.293 -0.0430 -0.0142 -0.3845
 2096SOL    HW1 8010   5.031   0.845   3.215 -0.8617  0.8896 -0.1912
 2096SOL    HW2 8011   5.013   0.902   3.354  0.4789 -1.5188  1.0350
 2097SOL     OW 8012   3.250   9.703   0.433  0.4042  0.3328 -0.2651
 2097SOL    HW1 8013   3.244   9.724   0.339 -0.2014  1.7291  0.0721
 2097SOL    HW2 8014   3.286   9.614   0.434  0.1345  0.1628 -1.8324
 2098SOL     OW 8015   9.590   1.754   9.353 -0.2534 -0.1744  0.3254
 2098SOL    HW1 8016   9.617   1.694   9.422 -1.1755 -0.0607  0.8039
 2098SOL    HW2 8017   9.608   1.707   9.272  3.0754  0.5939  0.4575
 2099SOL     OW 8018   2.987   6.337   3.086  0.1397 -0.4223 -0.0083
 2099SOL    HW1 8019   2.974   6.243   3.098 -1.8251 -0.3872 -1.3419
 2099SOL    HW2 8020   2.938   6.377   3.158 -1.4110 -0.4335 -0.9902
 2100SOL     OW 8021   6.265   0.489   3.826  0.4465 -0.0282 -0.3193
 2100SOL    HW1 8022   6.274   0.434   3.748  0.6174 -0.3756 -0.0585
 2100SOL    HW2 8023   6.309   0.570   3.804 -1.5528  0.8023 -1.4556
 2101SOL     OW 8024   7.336   8.293   2.673 -0.4079 -0.4105 -0.5705
 2101SOL    HW1 8025   7.305   8.217   2.624 -2.1112  0.6183 -1.1843
 2101SOL    HW2 8026   7.263   8.316   2.731 -0.4299  1.4387 -1.2519
 2102SOL     OW 8027   5.282   5.567   5.158  0.1553  0.6010 -0.1031
 2102SOL    HW1 8028   5.373   5.584   5.183  0.4217  0.3252 -0.8562
 2102SOL    HW2 8029   5.250   5.506   5.225  1.4924 -1.7793 -1.4702
 2103SOL     OW 8030   8.133   2.027   0.464 -0.2987  0.3417 -0.1298
 2103SOL    HW1 8031   8.051   2.071   0.485  0.1152  0.7900  0.5596
 2103SOL    HW2 8032   8.106   1.941   0.430 -1.0266  0.2386  0.6825
 2104SOL     OW 8033   6.661   7.112   2.001  0.3115  0.4250  0.2057
 2104SOL    HW1 8034   6.610   7.059   1.939  3.0343 -1.0031 -1.0071
 2104SOL    HW2 8035   6.709   7.174   1.946  0.5464  1.1469  1.2047
 2105SOL     OW 8036   5.964   0.772   4.600 -0.3524 -0.4613 -0.1571
 2105SOL    HW1 8037   6.009   0.819   4.529  0.0461 -2.1995 -1.1244
 2105SOL    HW2 8038   6.034   0.740   4.656 -0.5068 -1.2378 -0.3977
 2106SOL     OW 8039   7.905   7.024   1.770 -0.5542  0.0509 -0.1143
 2106SOL    HW1 8040   7.991   6.982   1.773 -0.3487  0.4788  0.0800
 2106SOL    HW2 8041   7.846   6.956   1.737 -0.2597 -0.4415  0.3625
 2107SOL     OW 8042   6.722   4.084   7.367  0.8096  0.1258  0.1362
 2107SOL    HW1 8043   6.722   4.066   7.461  1.1499  1.9662  0.5209
 2107SOL    HW2 8044   6.643   4.136   7.353  0.4542 -0.6159 -0.7166
 2108SOL     OW 8045   7.581   3.328   2.797  0.0034 -0.0761 -0.4693
 2108SOL    HW1 8046   7.490   3.313   2.822  0.8704  1.0350  4.1896
 2108SOL    HW2 8047   7.585   3.422   2.779  0.4760  0.1738  0.8688
 2109SOL     OW 8048   7.168   8.421   9.675 -0.0738 -0.1012 -0.1827
 2109SOL    HW1 8049   7.187   8.380   9.591  0.3226  1.8434 -1.1013
 2109SOL    HW2 8050   7.076   8.448   9.667 -0.4874 -1.2057  0.6107
 2110SOL     OW 8051   2.960   4.908   6.804 -0.0802 -0.2296 -0.1311
 2110SOL    HW1 8052   3.016   4.932   6.731 -0.8113 -0.2037 -0.7002
 2110SOL    HW2 8053   2.874   4.942   6.780 -0.1204  0.6940  1.2226
 2111SOL     OW 8054   8.504   8.298   1.121 -0.0915  0.0268  0.1685
 2111SOL    HW1 8055   8.541   8.379   1.087 -0.4791  0.1519  0.0393
 2111SOL    HW2 8056   8.431   8.278   1.062 -1.8844  1.1715  1.8759
 2112SOL     OW 8057   3.130   0.976   4.178  0.0647  0.1405 -0.0463
 2112SOL    HW1 8058   3.157   0.890   4.211 -0.6493  0.5166  1.6688
 2112SOL    HW2 8059   3.053   0.998   4.230 -0.8542  1.0453 -1.7152
 2113SOL     OW 8060   8.278   5.170   1.331  0.0667  0.1288  0.2744
 2113SOL    HW1 8061   8.183   5.169   1.324  0.1161  0.1871 -0.5388
 2113SOL    HW2 8062   8.309   5.176   1.241  0.8485 -0.1754  0.5092
 2114SOL     OW 8063   8.985   8.696   9.648 -0.2009 -0.2887  0.2127
 2114SOL    HW1 8064   9.028   8.780   9.631 -0.6093  0.0334  0.7321
 2114SOL    HW2 8065   9.053   8.631   9.634  0.0412  0.1048 -0.5083
 2115SOL     OW 8066   9.670   8.561   2.397  0.5532  0.1223 -0.7898
 2115SOL    HW1 8067   9.750   8.546   2.348  0.7061 -1.1162 -0.1956
 2115SOL    HW2 8068   9.696   8.553   2.489  0.2220  2.1348 -0.4689
 2116SOL     OW 8069   4.654   8.295   4.188 -0.6291 -0.0427  0.3193
 2116SOL    HW1 8070   4.620   8.237   4.120 -1.4473  1.5662 -0.7266
 2116SOL    HW2 8071   4.747   8.302   4.169 -0.5614 -0.8345  0.3264
 2117SOL     OW 8072   9.471   4.705   7.066  0.2184  0.7860  0.3456
 2117SOL    HW1 8073   9.564   4.695   7.087 -0.2220 -2.4147  1.2408
 2117SOL    HW2 8074   9.467   4.702   6.970  1.0335  0.8762  0.3026
 2118SOL     OW 8075   5.153   1.652   0.080 -0.2370  0.2284  0.3162
 2118SOL    HW1 8076   5.175   1.690  -0.005  1.0570 -0.0981  0.4728
 2118SOL    HW2 8077   5.166   1.724   0.142  1.5797 -0.2298  0.5356
 2119SOL     OW 8078   9.286   9.058   6.564 -0.6103 -0.3862 -0.5330
 2119SOL    HW1 8079   9.330   9.055   6.648 -1.0449 -1.4057 -0.3374
 2119SOL    HW2 8080   9.344   9.011   6.504 -0.5639 -0.1406 -0.6835
 2120SOL     OW 8081   2.528   5.318   4.593  0.1915  0.7136  0.0883
 2120SOL    HW1 8082   2.501   5.233   4.625 -0.4650  0.8022 -0.2149
 2120SOL    HW2 8083   2.561   5.301   4.504  0.0037  0.7853  0.0046
 2121SOL     OW 8084   9.688   3.732   2.128  0.3107  0.3369  0.0156
 2121SOL    HW1 8085   9.625   3.798   2.097 -0.1250  0.2768  0.7436
 2121SOL    HW2 8086   9.746   3.717   2.054  0.5692  1.7223 -0.0784
 2122SOL     OW 8087   2.103   2.641   3.355  0.1392 -0.0637 -0.3745
 2122SOL    HW1 8088   2.019   2.658   3.312 -1.6541 -0.9286  2.4834
 2122SOL    HW2 8089   2.102   2.696   3.433  1.4745 -1.3275  0.5908
 2123SOL     OW 8090   2.615   9.435   6.888  0.2257  0.3004  0.4342
 2123SOL    HW1 8091   2.595   9.394   6.972 -1.1372 -1.0896 -0.5127
 2123SOL    HW2 8092   2.677   9.505   6.909 -1.0826  0.8344  2.7466
 2124SOL     OW 8093   2.969   3.639   9.519 -0.5164 -0.0664 -0.3439
 2124SOL    HW1 8094   2.904   3.689   9.569 -0.6081 -2.2479  1.9048
 2124SOL    HW2 8095   3.051   3.655   9.565 -0.1730 -0.3614 -0.8533
 2125SOL     OW 8096   7.480   9.031   0.396  0.1263  0.0836 -0.9716
 2125SOL    HW1 8097   7.387   9.039   0.415  0.4244 -1.6946  2.0385
 2125SOL    HW2 8098   7.499   9.101   0.334 -3.2001  0.3988 -1.8067
 2126SOL     OW 8099   1.391   5.819   3.697 -0.0265 -0.2589 -0.0864
 2126SOL    HW1 8100   1.482   5.811   3.727 -0.2295 -0.9198  0.3735
 2126SOL    HW2 8101   1.343   5.847   3.776 -0.3140 -0.4587 -0.1923
 2127SOL     OW 8102   0.310   7.968   6.574  0.9185  0.1185 -0.5886
 2127SOL    HW1 8103   0.334   7.947   6.664 -0.8288 -2.7091 -0.6751
 2127SOL    HW2 8104   0.384   7.939   6.521  0.4041 -1.8456 -0.3049
 2128SOL     OW 8105   3.795   5.313   1.788  0.3426  0.0241  0.4640
 2128SOL    HW1 8106   3.758   5.350   1.868  0.4840 -0.0146  0.5464
 2128SOL    HW2 8107   3.849   5.240   1.817 -0.5514 -0.7500  0.2456
 2129SOL     OW 8108   6.946   0.936   9.414 -0.4256  0.2811  0.0418
 2129SOL    HW1 8109   6.947   0.960   9.507  0.4779 -0.7121  0.3084
 2129SOL    HW2 8110   7.036   0.950   9.384 -0.4895 -0.3054 -0.4405
 2130SOL     OW 8111   7.681   7.372   5.490 -0.3754 -0.3960 -0.3879
 2130SOL    HW1 8112   7.615   7.352   5.555  0.2725 -4.6135 -0.7975
 2130SOL    HW2 8113   7.635   7.369   5.406 -0.4446  1.0843 -0.4281
 2131SOL     OW 8114   3.417   3.671   1.169 -0.0292 -0.1373  0.4309
 2131SOL    HW1 8115   3.344   3.709   1.217 -0.3213  0.6511 -0.5815
 2131SOL    HW2 8116   3.376   3.610   1.107  0.2547 -0.4587  0.5573
 2132SOL     OW 8117   3.405   0.382   9.534  0.4406 -0.3817 -0.4794
 2132SOL    HW1 8118   3.332   0.344   9.485 -0.4220  0.4230  0.1381
 2132SOL    HW2 8119   3.413   0.471   9.499  1.4578 -0.6157 -0.8774
 2133SOL     OW 8120   8.218   8.796   8.009  0.0718 -0.7677 -0.2163
 2133SOL    HW1 8121   8.240   8.886   8.031 -0.3900 -0.7583  0.2340
 2133SOL    HW2 8122   8.138   8.778   8.059 -1.2875 -0.6066 -2.2343
 2134SOL     OW 8123   7.619   0.210   9.006 -0.4731 -0.0949  0.6785
 2134SOL    HW1 8124   7.564   0.266   8.951 -0.8410 -2.0470 -1.0587
 2134SOL    HW2 8125   7.573   0.206   9.090 -0.2759  2.3736  0.9875
 2135SOL     OW 8126   0.372   1.782   6.457  0.0461 -0.2394 -0.5193
 2135SOL    HW1 8127   0.359   1.877   6.458 -1.3173 -0.4074  0.5220
 2135SOL    HW2 8128   0.290   1.748   6.420  0.9453 -0.9759 -1.8897
 2136SOL     OW 8129   5.488   6.566   5.136 -0.5302 -0.1522 -0.3326
 2136SOL    HW1 8130   5.545   6.495   5.166 -0.1643 -0.8099 -2.4020
 2136SOL    HW2 8131   5.487   6.557   5.041 -1.8487  1.5997 -0.5356
 2137SOL     OW 8132   2.242   3.401   9.557 -0.4370  0.0180  0.5123
 2137SOL    HW1 8133   2.231   3.457   9.634 -0.7399  0.3130  0.2518
 2137SOL    HW2 8134   2.160   3.408   9.509 -0.1631  0.0215  0.0344
 2138SOL     OW 8135   4.969   4.186   0.717 -0.4840  0.0926  0.6588
 2138SOL    HW1 8136   4.907   4.197   0.790  0.8094  1.2073  1.6473
 2138SOL    HW2 8137   5.004   4.274   0.703  0.0047 -0.3048 -0.6811
 2139SOL     OW 8138   1.991   7.290   0.749  0.4469 -0.5432  0.1452
 2139SOL    HW1 8139   2.061   7.336   0.794  1.1591 -1.4032 -0.0699
 2139SOL    HW2 8140   2.029   7.207   0.721 -0.1979 -0.3895 -1.3362
 2140SOL     OW 8141   7.154   8.363   1.468  0.3468  0.3014 -0.0154
 2140SOL    HW1 8142   7.132   8.306   1.394  0.5687 -0.3006  0.3764
 2140SOL    HW2 8143   7.185   8.444   1.427  2.2858 -0.6810 -0.6447
 2141SOL     OW 8144   7.062   7.536   2.589  0.5312  0.4080  0.3371
 2141SOL    HW1 8145   7.056   7.477   2.514 -0.6536 -1.0040  1.4761
 2141SOL    HW2 8146   7.138   7.506   2.638  0.7775  0.7539  0.1685
 2142SOL     OW 8147   6.038   0.483   0.151 -0.0573  0.1057 -0.2992
 2142SOL    HW1 8148   5.973   0.524   0.093 -1.0482  1.0242  1.3665
 2142SOL    HW2 8149   5.986   0.446   0.222  1.0568 -1.7732 -0.4016
 2143SOL     OW 8150   5.186   0.418   2.506  0.0342 -0.6722  0.0077
 2143SOL    HW1 8151   5.276   0.392   2.485 -0.0936 -1.4230  0.3469
 2143SOL    HW2 8152   5.193   0.456   2.593  0.2585  0.6831 -0.5846
 2144SOL     OW 8153   4.076   8.564   0.022  0.2016  0.0358 -0.3501
 2144SOL    HW1 8154   4.068   8.496  -0.044  1.8632  0.8009 -1.3983
 2144SOL    HW2 8155   4.117   8.520   0.097  0.9749 -0.1873 -0.9001
 2145SOL     OW 8156   3.797   7.623   6.678 -0.3718  0.2765 -0.1209
 2145SOL    HW1 8157   3.830   7.690   6.736 -1.6145 -1.0322  2.2527
 2145SOL    HW2 8158   3.872   7.565   6.662 -0.2816  0.0166  1.1693
 2146SOL     OW 8159   8.164   4.327   4.016 -0.1393  0.5021 -0.3850
 2146SOL    HW1 8160   8.218   4.313   4.094 -0.0919  0.6503 -0.3912
 2146SOL    HW2 8161   8.158   4.241   3.975 -3.2370 -0.4904  1.7474
 2147SOL     OW 8162   2.751   3.913   9.078  0.1875 -0.4137  0.1023
 2147SOL    HW1 8163   2.817   3.845   9.070  0.3449 -0.1982 -0.4269
 2147SOL    HW2 8164   2.674   3.876   9.034  0.9127  0.5823 -2.1436
 2148SOL     OW 8165   0.283   7.343   0.031 -0.5428 -0.4087  0.3785
 2148SOL    HW1 8166   0.252   7.354  -0.059 -2.3798  2.4970  1.2324
 2148SOL    HW2 8167   0.234   7.268   0.064 -1.7927  0.0862 -0.2951
 2149SOL     OW 8168   8.024   5.297   4.569  0.1398 -0.9684 -0.4710
 2149SOL    HW1 8169   8.051   5.258   4.485 -1.9061  0.1900 -1.7630
 2149SOL    HW2 8170   8.079   5.254   4.634  0.4550 -3.3875 -2.1803
 2150SOL     OW 8171   2.760   4.547   7.506 -0.2112  0.3399  0.0216
 2150SOL    HW1 8172   2.776   4.544   7.600  0.8371  0.8045 -0.1219
 2150SOL    HW2 8173   2.838   4.508   7.467  0.2614  1.9462 -0.7117
 2151SOL     OW 8174   3.516   4.051   4.763 -0.5409 -0.3505 -0.5186
 2151SOL    HW1 8175   3.490   4.040   4.672 -0.4863 -3.6609 -0.2491
 2151SOL    HW2 8176   3.494   4.142   4.783 -1.8871  0.0731 -3.3922
 2152SOL     OW 8177   5.527   6.032   0.781 -0.9089 -0.3264  0.0768
 2152SOL    HW1 8178   5.517   5.943   0.815  2.1957 -0.5851  0.6176
 2152SOL    HW2 8179   5.554   6.020   0.690 -1.5332  0.1049 -0.1686
 2153SOL     OW 8180   1.914   7.789   6.994  0.5378 -0.2413  0.1157
 2153SOL    HW1 8181   1.950   7.709   7.033  1.2210 -0.3592 -0.7338
 2153SOL    HW2 8182   1.988   7.849   6.990  0.1159  0.3068  0.3811
 2154SOL     OW 8183   4.582   1.866   7.451 -0.1019  0.5262  0.4599
 2154SOL    HW1 8184   4.503   1.918   7.467 -0.7743 -0.1107 -0.6978
 2154SOL    HW2 8185   4.646   1.930   7.419 -0.7595  0.7500 -0.4422
 2155SOL     OW 8186   1.300   8.746   1.593  0.7756 -0.4862 -0.5127
 2155SOL    HW1 8187   1.270   8.725   1.505  1.9713  0.4016 -1.1568
 2155SOL    HW2 8188   1.374   8.688   1.609  0.8736 -0.3056 -0.2923
 2156SOL     OW 8189   2.216   5.687   2.661  0.1439  0.1751  0.1891
 2156SOL    HW1 8190   2.242   5.662   2.750  1.4505 -0.4809 -0.3514
 2156SOL    HW2 8191   2.275   5.758   2.638 -0.3032  0.4555 -0.1070
 2157SOL     OW 8192   7.742   9.327   6.400 -0.1621 -0.1906 -0.1427
 2157SOL    HW1 8193   7.805   9.265   6.363  1.5606  1.0729  0.5155
 2157SOL    HW2 8194   7.795   9.404   6.421 -1.6273  0.3133  1.9955
 2158SOL     OW 8195   6.314   0.514   9.247  0.3609 -0.3081  0.3482
 2158SOL    HW1 8196   6.366   0.435   9.260  0.6105 -0.1730  0.1831
 2158SOL    HW2 8197   6.225   0.482   9.232  0.5109 -0.5733  0.0005
 2159SOL     OW 8198   6.819   3.041   7.217 -0.2649  0.4194 -0.0870
 2159SOL    HW1 8199   6.860   3.079   7.294  0.1755 -0.0382 -0.0934
 2159SOL    HW2 8200   6.777   3.115   7.173  0.5314  0.8913 -0.0693
 2160SOL     OW 8201   3.984   1.842   5.648  0.2910  0.5057 -0.3474
 2160SOL    HW1 8202   4.058   1.827   5.589 -0.7248  0.8072 -1.7579
 2160SOL    HW2 8203   3.913   1.788   5.611 -0.7694  1.7776 -0.2306
 2161SOL     OW 8204   6.902   4.326   4.689 -0.3992 -0.6349 -0.3349
 2161SOL    HW1 8205   6.900   4.245   4.739  0.0795 -2.1418 -2.6159
 2161SOL    HW2 8206   6.993   4.356   4.695 -0.6174 -0.1287  0.6604
 2162SOL     OW 8207   6.630   9.353   2.226 -0.5787  0.5134 -0.5605
 2162SOL    HW1 8208   6.615   9.377   2.318  0.7091  0.4013 -0.2906
 2162SOL    HW2 8209   6.555   9.299   2.203 -0.3728 -0.4082  0.7940
 2163SOL     OW 8210   7.551   0.750   0.091  0.1989 -0.2336  0.1015
 2163SOL    HW1 8211   7.486   0.683   0.114  1.5536 -1.2010  1.3191
 2163SOL    HW2 8212   7.629   0.726   0.142  1.4677  0.9689 -1.1832
 2164SOL     OW 8213   7.779   6.651   2.801 -0.0013  0.1229 -0.6874
 2164SOL    HW1 8214   7.696   6.677   2.840 -0.4454 -1.4160 -0.5269
 2164SOL    HW2 8215   7.831   6.619   2.875  0.1478 -0.3501 -0.9922
 2165SOL     OW 8216   7.045   6.668   4.109 -0.7642 -0.3274 -0.3414
 2165SOL    HW1 8217   7.082   6.698   4.026 -0.8078 -0.3536 -0.3704
 2165SOL    HW2 8218   6.962   6.627   4.084  0.5702 -3.0031 -0.6372
 2166SOL     OW 8219   3.711   9.224   7.323  0.5743  0.5582  0.3037
 2166SOL    HW1 8220   3.806   9.213   7.315  0.5305  0.4139 -0.0630
 2166SOL    HW2 8221   3.700   9.311   7.359  0.7974  1.4471 -1.6255
 2167SOL     OW 8222   2.308   2.366   4.230 -0.2837  0.5936 -0.1645
 2167SOL    HW1 8223   2.235   2.329   4.280  0.9180 -0.3330  0.9790
 2167SOL    HW2 8224   2.349   2.291   4.189  0.8820  0.8987  0.3944
 2168SOL     OW 8225   8.745   3.436   2.647  0.5172 -0.5292  0.3853
 2168SOL    HW1 8226   8.830   3.396   2.667 -0.5791 -2.0593  2.2456
 2168SOL    HW2 8227   8.683   3.393   2.706 -1.8516 -0.5102 -1.9157
 2169SOL     OW 8228   1.286   6.181   3.341 -0.2173  0.0158 -0.1281
 2169SOL    HW1 8229   1.276   6.096   3.385  1.6364 -0.1861 -0.0162
 2169SOL    HW2 8230   1.306   6.243   3.411  0.4906  0.1260 -0.4121
 2170SOL     OW 8231   6.095   3.054   3.881  0.0546 -0.4277  1.2294
 2170SOL    HW1 8232   6.021   3.011   3.923  0.8608 -3.8265 -0.4345
 2170SOL    HW2 8233   6.074   3.052   3.788  1.5346 -0.0082  0.8627
 2171SOL     OW 8234   5.630   6.870   3.631 -0.6975 -0.7183  0.4919
 2171SOL    HW1 8235   5.573   6.895   3.558  1.6438 -3.8026 -2.7192
 2171SOL    HW2 8236   5.593   6.788   3.664  0.2607 -1.2646  0.2548
 2172SOL     OW 8237   1.931   7.556   7.982  0.8004 -0.2031 -0.2799
 2172SOL    HW1 8238   1.902   7.616   8.051  0.8215 -0.6474  0.1201
 2172SOL    HW2 8239   2.020   7.584   7.963  0.2639  0.9562 -1.2813
 2173SOL     OW 8240   3.976   5.770   4.706  0.1043 -0.1568  0.1573
 2173SOL    HW1 8241   3.991   5.802   4.616  0.4666  0.4088  0.4121
 2173SOL    HW2 8242   4.006   5.679   4.704  0.0679 -0.1638 -0.3088
 2174SOL     OW 8243   6.103   9.154   6.738  0.1226 -0.2541 -0.1884
 2174SOL    HW1 8244   6.149   9.211   6.676 -2.0661 -1.6032 -3.2970
 2174SOL    HW2 8245   6.114   9.066   6.702 -0.8195 -1.2080  1.6958
 2175SOL     OW 8246   2.587   5.363   1.803 -0.8945  0.8249 -0.1030
 2175SOL    HW1 8247   2.593   5.287   1.861 -0.2355  1.4607  0.6855
 2175SOL    HW2 8248   2.563   5.327   1.718  0.3679 -0.3758  0.0218
 2176SOL     OW 8249   0.266   4.765   1.583 -0.1306 -0.3858  0.7259
 2176SOL    HW1 8250   0.259   4.761   1.488  0.5789  2.1393  0.4901
 2176SOL    HW2 8251   0.225   4.684   1.614 -4.6155  0.7143 -1.4939
 2177SOL     OW 8252   7.477   7.460   0.912 -0.0843  0.5429 -0.2149
 2177SOL    HW1 8253   7.538   7.470   0.839  0.9191  0.3701  0.5737
 2177SOL    HW2 8254   7.528   7.485   0.989 -0.7492 -0.4617  0.5769
 2178SOL     OW 8255   8.025   0.502   2.480 -0.4161 -0.2023  0.0703
 2178SOL    HW1 8256   8.049   0.442   2.410  0.5840  0.9563 -0.5930
 2178SOL    HW2 8257   7.980   0.574   2.436 -1.3340 -0.2797  0.8308
 2179SOL     OW 8258   8.448   1.464   1.165 -0.3039  0.0337  0.3742
 2179SOL    HW1 8259   8.379   1.398   1.170 -0.3037  0.0335  0.3802
 2179SOL    HW2 8260   8.401   1.547   1.156 -0.3140  0.0693  0.7559
 2180SOL     OW 8261   1.246   8.571   2.406 -0.2641  0.1652 -0.6281
 2180SOL    HW1 8262   1.332   8.612   2.393  0.6879 -1.5934 -0.2102
 2180SOL    HW2 8263   1.256   8.483   2.369 -1.1043 -0.9270  1.6143
 2181SOL     OW 8264   7.902   4.075   0.628 -0.1407 -0.3440  0.0692
 2181SOL    HW1 8265   7.825   4.121   0.593 -0.2343 -0.3256  0.2977
 2181SOL    HW2 8266   7.975   4.134   0.610 -0.4156  0.4578  1.4053
 2182SOL     OW 8267   3.571   8.006   3.844 -0.5625 -1.0542  0.2630
 2182SOL    HW1 8268   3.562   7.995   3.749  3.0783  1.4088 -0.5675
 2182SOL    HW2 8269   3.621   7.930   3.872 -1.0333 -1.4325  0.0921
 2183SOL     OW 8270   4.174   5.281   6.309  0.9487 -0.5331 -0.5156
 2183SOL    HW1 8271   4.090   5.315   6.278  0.4996 -2.1805 -1.2545
 2183SOL    HW2 8272   4.170   5.287   6.404 -0.6314 -1.8994 -0.4575
 2184SOL     OW 8273   9.196   8.497   2.347 -0.3242  0.3507  0.6270
 2184SOL    HW1 8274   9.176   8.501   2.440 -0.8915  0.2827  0.5107
 2184SOL    HW2 8275   9.135   8.559   2.307  0.3691  0.8855  0.3741
 2185SOL     OW 8276   0.489   0.963   1.471  0.1053  0.0221  0.0709
 2185SOL    HW1 8277   0.453   1.037   1.520 -4.2772 -1.3866 -0.5744
 2185SOL    HW2 8278   0.548   1.004   1.408 -0.4814  2.7514  1.1282
 2186SOL     OW 8279   0.943   6.623   9.674  0.2246 -0.1753 -0.0339
 2186SOL    HW1 8280   1.036   6.601   9.661  0.2549  0.2418 -0.5656
 2186SOL    HW2 8281   0.920   6.675   9.597 -0.3692 -0.0088  0.2503
 2187SOL     OW 8282   6.054   1.465   6.222 -0.2998  0.3287  0.3565
 2187SOL    HW1 8283   6.041   1.503   6.135 -0.3333 -1.4864 -0.4874
 2187SOL    HW2 8284   6.148   1.470   6.237 -0.3936  1.5135  0.6655
 2188SOL     OW 8285   2.808   2.190   0.531  0.5191 -0.5952 -0.0319
 2188SOL    HW1 8286   2.792   2.176   0.625 -0.1678 -1.3560 -0.2548
 2188SOL    HW2 8287   2.883   2.135   0.512  0.4038 -0.7611 -0.0129
 2189SOL     OW 8288   2.839   2.130   4.922  0.8300 -0.3933 -0.8650
 2189SOL    HW1 8289   2.930   2.155   4.904 -0.1887  2.0467 -3.2175
 2189SOL    HW2 8290   2.844   2.084   5.006  3.9551  1.4902  0.1829
 2190SOL     OW 8291   6.237   7.796   9.485  0.4724  0.5562  0.2214
 2190SOL    HW1 8292   6.160   7.755   9.447  1.0721  0.1607 -0.5954
 2190SOL    HW2 8293   6.308   7.774   9.425  1.1899  1.0629  0.8655
 2191SOL     OW 8294   9.513   6.489   6.216 -0.1059 -0.1288 -0.0378
 2191SOL    HW1 8295   9.519   6.584   6.227  2.6877 -0.1412 -0.7144
 2191SOL    HW2 8296   9.584   6.454   6.270 -0.2158 -1.7208 -0.8714
 2192SOL     OW 8297   8.636   5.297   6.042  0.0993  0.0944  0.5615
 2192SOL    HW1 8298   8.667   5.234   5.976 -0.1545  0.5434  0.0035
 2192SOL    HW2 8299   8.654   5.255   6.126 -1.4570 -1.4190  0.2032
 2193SOL     OW 8300   7.953   4.551   2.961  0.0894  0.2831 -0.7684
 2193SOL    HW1 8301   7.886   4.533   3.028 -0.8572 -1.2529 -2.0514
 2193SOL    HW2 8302   8.033   4.568   3.011 -0.7948  0.0869  0.7667
 2194SOL     OW 8303   3.539   2.816   9.006 -0.2704 -0.2248 -0.1133
 2194SOL    HW1 8304   3.465   2.776   8.960 -0.7092  1.4092 -0.9078
 2194SOL    HW2 8305   3.500   2.890   9.052  0.6984 -0.0337  0.4199
 2195SOL     OW 8306   8.067   2.367   0.727  0.0563 -0.6283  0.9580
 2195SOL    HW1 8307   8.073   2.308   0.803 -3.0677 -1.3934  0.7614
 2195SOL    HW2 8308   8.043   2.309   0.654  0.4263  0.4525 -0.0542
 2196SOL     OW 8309   0.882   0.092   8.375 -0.5527 -0.6985 -0.1454
 2196SOL    HW1 8310   0.849   0.162   8.432  2.1093  0.1790  0.4832
 2196SOL    HW2 8311   0.890   0.016   8.433  0.6513 -0.2527  0.3019
 2197SOL     OW 8312   8.162   7.550   3.727 -0.0592 -0.3259 -0.1484
 2197SOL    HW1 8313   8.122   7.486   3.785  1.0830 -0.5786  0.3824
 2197SOL    HW2 8314   8.154   7.512   3.640  1.0954 -1.4823  0.2128
 2198SOL     OW 8315   7.854   8.691   1.706 -0.0988 -0.0320 -0.2117
 2198SOL    HW1 8316   7.802   8.768   1.684 -1.3267 -1.1538 -1.4671
 2198SOL    HW2 8317   7.796   8.617   1.686  0.4862 -1.2890  2.3538
 2199SOL     OW 8318   2.218   6.180   7.883 -0.1065  0.2083 -0.2720
 2199SOL    HW1 8319   2.225   6.095   7.839 -0.3315 -0.3726  0.7765
 2199SOL    HW2 8320   2.295   6.184   7.940 -0.9133 -0.0400  0.8885
 2200SOL     OW 8321   7.911   5.815   7.268  0.3142 -0.4310 -0.2668
 2200SOL    HW1 8322   7.996   5.783   7.297  0.5790 -1.8780 -2.4123
 2200SOL    HW2 8323   7.848   5.771   7.325  0.9072 -0.8131  0.1016
 2201SOL     OW 8324   6.602   7.087   4.371  0.2032  0.4265 -1.3815
 2201SOL    HW1 8325   6.554   7.161   4.334  0.4919  0.8294 -0.9534
 2201SOL    HW2 8326   6.665   7.063   4.303 -1.0777 -0.5780 -2.2534
 2202SOL     OW 8327   3.150   9.054   5.215  0.2143  0.5717 -0.4867
 2202SOL    HW1 8328   3.239   9.086   5.230  0.0652  0.1363  1.6797
 2202SOL    HW2 8329   3.156   8.959   5.230 -0.5860  0.5404 -0.3301
 2203SOL     OW 8330   3.863   3.811   6.732 -0.1174 -0.4580  0.7430
 2203SOL    HW1 8331   3.791   3.764   6.689 -1.6824  1.5778  0.9812
 2203SOL    HW2 8332   3.930   3.817   6.664 -1.8701  1.2157 -1.0112
 2204SOL     OW 8333   2.423   9.675   1.594  0.2556  0.0312 -0.0568
 2204SOL    HW1 8334   2.462   9.588   1.581 -0.5019 -0.3461  0.1125
 2204SOL    HW2 8335   2.473   9.714   1.665 -0.3500 -0.8752  0.8931
 2205SOL     OW 8336   7.718   3.489   8.556  0.5514  0.1976  0.2048
 2205SOL    HW1 8337   7.702   3.583   8.545  0.9330  0.5257  2.0547
 2205SOL    HW2 8338   7.641   3.457   8.602  1.6720  0.2504  2.2535
 2206SOL     OW 8339   5.527   5.585   5.268  0.2078  0.0168  0.0314
 2206SOL    HW1 8340   5.571   5.504   5.293  0.2985  0.1188  0.2040
 2206SOL    HW2 8341   5.490   5.618   5.350 -2.0248 -1.1621 -0.4359
 2207SOL     OW 8342   6.504   8.758   0.035  0.0590  0.1357  0.3452
 2207SOL    HW1 8343   6.551   8.705  -0.029 -1.2765 -0.1900 -0.4173
 2207SOL    HW2 8344   6.498   8.702   0.113 -2.7431 -1.6291 -0.9704
 2208SOL     OW 8345   7.808   0.779   9.324  0.6495  0.0013 -0.1205
 2208SOL    HW1 8346   7.882   0.795   9.383  1.7268 -2.4046 -0.6957
 2208SOL    HW2 8347   7.739   0.838   9.355  0.7290 -1.8282  4.2898
 2209SOL     OW 8348   8.091   1.861   2.468 -0.5375  0.5472 -0.5450
 2209SOL    HW1 8349   8.104   1.926   2.400  1.8356  0.5125 -0.2087
 2209SOL    HW2 8350   8.042   1.907   2.537 -0.6701  1.3439 -1.1652
 2210SOL     OW 8351   6.930   6.317   0.312  0.5680  0.3712 -0.2564
 2210SOL    HW1 8352   7.008   6.364   0.342  1.1324 -1.0885  0.6666
 2210SOL    HW2 8353   6.910   6.256   0.383 -1.9688  1.3029 -0.0569
 2211SOL     OW 8354   2.178   8.304   0.922 -0.6203 -0.3645 -0.0169
 2211SOL    HW1 8355   2.165   8.211   0.902 -0.0031 -0.4766  0.0795
 2211SOL    HW2 8356   2.106   8.326   0.982 -2.0324 -0.2332 -1.6734
 2212SOL     OW 8357   0.813   0.446   3.260  0.0521  0.4511 -0.0642
 2212SOL    HW1 8358   0.721   0.417   3.255  0.7646 -2.0859 -0.0937
 2212SOL    HW2 8359   0.837   0.462   3.169  0.0496 -0.3993 -0.2237
 2213SOL     OW 8360   9.305   8.694   0.928  0.0181  0.1483 -0.0573
 2213SOL    HW1 8361   9.271   8.780   0.951 -0.3244 -0.6473  2.7749
 2213SOL    HW2 8362   9.228   8.643   0.902 -0.0663  0.1059  0.2809
 2214SOL     OW 8363   6.739   0.652   4.381 -0.4045 -0.0501 -0.1814
 2214SOL    HW1 8364   6.781   0.738   4.373  0.1060 -0.3284 -0.6129
 2214SOL    HW2 8365   6.670   0.665   4.445  0.0247  0.5493  0.1727
 2215SOL     OW 8366   4.683   1.215   7.660 -0.2972  0.3365  0.1826
 2215SOL    HW1 8367   4.673   1.301   7.618  0.9642  0.1312 -0.6151
 2215SOL    HW2 8368   4.776   1.196   7.651 -0.2971 -0.4762  1.6576
 2216SOL     OW 8369   0.669   5.287   8.351  0.0406  0.1985  0.4236
 2216SOL    HW1 8370   0.758   5.268   8.381  0.5892  0.7433 -0.7814
 2216SOL    HW2 8371   0.639   5.357   8.409  0.0775 -0.5559  1.3664
 2217SOL     OW 8372   0.336   3.860   2.729 -0.0980 -0.3571 -0.1327
 2217SOL    HW1 8373   0.336   3.956   2.720  0.2585 -0.1051  1.9856
 2217SOL    HW2 8374   0.245   3.839   2.753 -0.4278 -0.6972 -1.5971
 2218SOL     OW 8375   3.095   6.624   7.986  0.4226  0.3688  0.5013
 2218SOL    HW1 8376   3.104   6.606   7.892  1.5778 -0.2793  0.7167
 2218SOL    HW2 8377   3.003   6.605   8.006  0.7672 -2.1660  0.0301
 2219SOL     OW 8378   2.103   1.051   0.623 -0.4848 -0.0795  0.1793
 2219SOL    HW1 8379   2.087   0.981   0.560 -1.6614 -0.8385  1.2812
 2219SOL    HW2 8380   2.168   1.107   0.580  0.0212 -1.4891 -0.9808
 2220SOL     OW 8381   4.414   0.343   0.669 -0.2523 -0.0262  0.5594
 2220SOL    HW1 8382   4.383   0.262   0.710  0.3684 -1.8837 -2.2999
 2220SOL    HW2 8383   4.340   0.374   0.617  0.4849 -0.6581 -0.9281
 2221SOL     OW 8384   5.356   5.287   2.972  0.0134 -0.0928 -0.3380
 2221SOL    HW1 8385   5.330   5.323   2.887  1.4005 -0.6561 -1.0260
 2221SOL    HW2 8386   5.273   5.260   3.013 -0.6486 -0.1427 -1.6618
 2222SOL     OW 8387   5.558   4.284   7.541 -0.6294  0.2130 -0.2364
 2222SOL    HW1 8388   5.638   4.237   7.516 -0.0199  0.6112  0.9230
 2222SOL    HW2 8389   5.488   4.235   7.498  0.1095 -0.9873 -0.1158
 2223SOL     OW 8390   6.081   8.938   2.229  0.6161  0.1217  0.0453
 2223SOL    HW1 8391   6.052   9.029   2.220  1.0098  0.1188 -1.7938
 2223SOL    HW2 8392   6.012   8.895   2.280 -0.4378  1.0715 -0.5270
 2224SOL     OW 8393   6.545   7.515   2.829 -0.3087  0.3098 -0.4952
 2224SOL    HW1 8394   6.469   7.530   2.885  0.2567  2.7489 -0.2600
 2224SOL    HW2 8395   6.518   7.549   2.743  0.3345  0.7740 -0.5191
 2225SOL     OW 8396   6.850   6.568   6.652 -0.0085 -0.0297  0.4502
 2225SOL    HW1 8397   6.918   6.602   6.711 -2.5392  1.6141  2.6189
 2225SOL    HW2 8398   6.806   6.645   6.618 -0.0601 -1.0218 -1.9749
 2226SOL     OW 8399   8.931   9.385   7.904 -0.2099 -0.1819  0.0566
 2226SOL    HW1 8400   8.966   9.473   7.888 -0.8538  0.1444  0.3857
 2226SOL    HW2 8401   8.842   9.400   7.934 -0.2513 -0.9433  0.3442
 2227SOL     OW 8402   5.187   0.503   8.536  0.3172  0.5486 -0.0674
 2227SOL    HW1 8403   5.119   0.566   8.559 -2.0932 -1.9996  0.4105
 2227SOL    HW2 8404   5.187   0.501   8.441 -1.4907 -0.4805 -0.1022
 2228SOL     OW 8405   8.358   6.574   2.707 -0.0183 -0.6165 -0.1444
 2228SOL    HW1 8406   8.291   6.606   2.767  1.2073  0.4661  0.6723
 2228SOL    HW2 8407   8.331   6.483   2.688 -1.4629 -0.3480  0.4896
 2229SOL     OW 8408   9.537   3.426   7.720 -0.1889 -0.2514  0.1321
 2229SOL    HW1 8409   9.477   3.482   7.770  0.7419 -0.0136  1.0233
 2229SOL    HW2 8410   9.510   3.337   7.741 -0.9637 -0.1440 -0.3934
 2230SOL     OW 8411   7.746   6.492   7.645  0.1082  0.2334  0.0455
 2230SOL    HW1 8412   7.668   6.440   7.626 -0.3801 -0.4445  3.3035
 2230SOL    HW2 8413   7.813   6.426   7.666  0.6710  0.8677  0.2641
 2231SOL     OW 8414   7.605   1.573   6.688  0.3714  0.0430  0.5597
 2231SOL    HW1 8415   7.683   1.622   6.713  0.5041 -0.6959  1.6876
 2231SOL    HW2 8416   7.605   1.496   6.745  1.4243 -2.5547 -2.6070
 2232SOL     OW 8417   6.825   0.939   5.143  0.0308  0.4397 -0.1986
 2232SOL    HW1 8418   6.910   0.975   5.169  0.1951  0.0834 -0.2352
 2232SOL    HW2 8419   6.845   0.850   5.114 -0.4518  0.1197  0.4292
 2233SOL     OW 8420   3.695   7.185   3.102 -0.2582 -0.1351 -0.0852
 2233SOL    HW1 8421   3.740   7.101   3.110 -0.4675 -0.0496  2.7961
 2233SOL    HW2 8422   3.640   7.174   3.024  0.9120 -2.0461 -0.7418
 2234SOL     OW 8423   4.627   1.240   3.587 -0.6632  0.3493  0.1760
 2234SOL    HW1 8424   4.608   1.273   3.500  0.9999 -1.1032 -0.7921
 2234SOL    HW2 8425   4.572   1.162   3.596 -0.1443 -0.0425  0.0242
 2235SOL     OW 8426   3.700   2.739   0.357 -0.1719  0.3666 -0.0767
 2235SOL    HW1 8427   3.701   2.835   0.352  1.5088  0.4074  0.4340
 2235SOL    HW2 8428   3.640   2.713   0.287 -3.0352  1.8258  1.6362
 2236SOL     OW 8429   2.105   8.420   5.171 -0.2715  0.1684 -0.2626
 2236SOL    HW1 8430   2.082   8.509   5.144  0.9076  0.0228 -1.9238
 2236SOL    HW2 8431   2.200   8.416   5.159 -0.5169 -1.8710 -2.0871
 2237SOL     OW 8432   1.577   4.260   4.739  0.4006  0.0393 -0.3913
 2237SOL    HW1 8433   1.531   4.180   4.762  1.4322 -1.0534 -1.8729
 2237SOL    HW2 8434   1.667   4.245   4.767  0.2398  1.4906  1.0375
 2238SOL     OW 8435   5.286   6.798   1.251  0.6273  0.3833 -0.1007
 2238SOL    HW1 8436   5.249   6.870   1.301  0.7272 -0.0856  0.6667
 2238SOL    HW2 8437   5.381   6.809   1.258  0.6464  0.0360  0.2449
 2239SOL     OW 8438   1.271   0.329   1.979 -0.1251 -0.0579  0.0376
 2239SOL    HW1 8439   1.334   0.340   2.051 -0.0057  2.0449 -0.3110
 2239SOL    HW2 8440   1.299   0.250   1.934  1.8618  0.4094  0.3329
 2240SOL     OW 8441   9.304   6.441   3.706 -0.2458  0.3315 -0.1260
 2240SOL    HW1 8442   9.273   6.351   3.718  2.2784 -0.6091 -0.0637
 2240SOL    HW2 8443   9.234   6.484   3.657 -0.6843 -2.2607 -2.0123
 2241SOL     OW 8444   7.799   3.930   8.736 -0.8754 -0.1955  0.0475
 2241SOL    HW1 8445   7.719   3.984   8.732 -0.7218  0.2634  2.0089
 2241SOL    HW2 8446   7.861   3.984   8.785  1.1125 -0.0450 -2.4636
 2242SOL     OW 8447   4.064   8.547   9.214  0.4348  0.1170 -0.5976
 2242SOL    HW1 8448   4.076   8.492   9.291  0.4497 -1.9507 -1.9888
 2242SOL    HW2 8449   4.089   8.635   9.243  0.5290 -0.5959  1.6973
 2243SOL     OW 8450   9.531   4.445   9.491 -0.0720  0.5156 -0.2103
 2243SOL    HW1 8451   9.595   4.416   9.556 -1.2321 -1.1371  0.2858
 2243SOL    HW2 8452   9.509   4.535   9.517 -0.2369  0.0218  1.5191
 2244SOL     OW 8453   1.250   6.679   2.648 -0.6545  0.0083 -0.7024
 2244SOL    HW1 8454   1.204   6.678   2.564  1.0972 -0.6137 -1.7015
 2244SOL    HW2 8455   1.312   6.607   2.642 -1.7040 -1.2172  1.8744
 2245SOL     OW 8456   6.573   4.608   5.476  0.4844  0.0905  0.2127
 2245SOL    HW1 8457   6.511   4.559   5.423 -0.5677  0.2662  1.2385
 2245SOL    HW2 8458   6.602   4.680   5.419  1.1725 -1.0221 -0.8949
 2246SOL     OW 8459   5.093   2.361   8.896  0.0379 -0.1720  0.4165
 2246SOL    HW1 8460   5.109   2.360   8.991  0.4820 -0.2692  0.3431
 2246SOL    HW2 8461   5.022   2.424   8.885 -1.1042 -1.3311  0.9790
 2247SOL     OW 8462   7.554   0.583   7.083 -0.2661  0.2637  0.0738
 2247SOL    HW1 8463   7.467   0.609   7.115 -0.5482  0.5799 -0.9191
 2247SOL    HW2 8464   7.603   0.562   7.162 -0.6837  1.7935  0.7808
 2248SOL     OW 8465   0.257   9.648   5.467  0.3484  0.1220  0.3401
 2248SOL    HW1 8466   0.271   9.742   5.462  0.4812  0.0454 -1.2141
 2248SOL    HW2 8467   0.198   9.636   5.541  0.4302  1.4110  0.6283
 2249SOL     OW 8468   4.961   4.116   8.631 -0.1950  0.2964 -0.0158
 2249SOL    HW1 8469   5.054   4.124   8.655  0.6435  2.5906 -3.2434
 2249SOL    HW2 8470   4.916   4.176   8.690  0.9038  1.5665 -0.4107
 2250SOL     OW 8471   5.465   2.731   2.629 -0.1636 -0.3873  0.8465
 2250SOL    HW1 8472   5.415   2.798   2.676  1.2609  0.8795  0.6223
 2250SOL    HW2 8473   5.410   2.653   2.634 -1.9254  0.8100  1.0271
 2251SOL     OW 8474   6.191   0.870   3.102 -0.2355 -0.4115  0.3935
 2251SOL    HW1 8475   6.134   0.890   3.028  0.9016 -1.5550 -0.8484
 2251SOL    HW2 8476   6.165   0.782   3.130 -0.3858 -0.1489  1.0961
 2252SOL     OW 8477   8.274   5.320   4.328  0.2546  0.1615 -0.2810
 2252SOL    HW1 8478   8.358   5.274   4.327 -0.7191 -1.9096  2.0110
 2252SOL    HW2 8479   8.266   5.358   4.241  2.3781 -1.7935 -1.4381
 2253SOL     OW 8480   3.743   0.928   9.001 -1.0007  0.2715  0.1210
 2253SOL    HW1 8481   3.802   0.873   9.053 -2.1937 -1.2084 -0.0294
 2253SOL    HW2 8482   3.695   0.867   8.946 -2.6151  1.4294  0.1732
 2254SOL     OW 8483   7.203   1.761   5.663  0.1560 -0.1132 -0.1411
 2254SOL    HW1 8484   7.238   1.690   5.609  0.5614 -1.1277  1.3947
 2254SOL    HW2 8485   7.279   1.814   5.685  0.0290  0.1605 -0.3623
 2255SOL     OW 8486   9.671   3.485   6.754 -0.0343  0.5336 -0.0026
 2255SOL    HW1 8487   9.640   3.494   6.664  0.8970  2.5510 -0.1847
 2255SOL    HW2 8488   9.751   3.538   6.757  0.9682 -0.9749  1.5536
 2256SOL     OW 8489   5.756   3.849   5.952  0.4995 -0.4416  0.1918
 2256SOL    HW1 8490   5.681   3.906   5.935  1.1976  0.5174  0.2824
 2256SOL    HW2 8491   5.795   3.883   6.032  1.3941 -0.5480 -0.1896
 2257SOL     OW 8492   7.726   0.207   2.977 -0.1997 -0.1999  0.0980
 2257SOL    HW1 8493   7.748   0.214   2.884 -0.8504 -0.8658 -0.1152
 2257SOL    HW2 8494   7.765   0.123   3.004  1.8665  0.9753  0.9786
 2258SOL     OW 8495   7.448   0.011   8.677 -0.1812  0.1902  0.0534
 2258SOL    HW1 8496   7.430  -0.028   8.591 -0.7081  0.1703  0.1729
 2258SOL    HW2 8497   7.526   0.064   8.663 -0.1215 -0.0073 -0.3827
 2259SOL     OW 8498   5.720   4.010   4.305  0.0648 -0.3081 -0.5619
 2259SOL    HW1 8499   5.661   4.050   4.369 -0.5441 -1.0974 -0.6327
 2259SOL    HW2 8500   5.808   4.037   4.334 -0.3079  0.7387 -0.3755
 2260SOL     OW 8501   4.103   4.736   3.518 -0.0758  0.1170 -0.2481
 2260SOL    HW1 8502   4.195   4.759   3.509 -0.2518  0.6320 -0.7888
 2260SOL    HW2 8503   4.064   4.756   3.432 -0.4793 -1.0765 -0.3640
 2261SOL     OW 8504   4.687   1.565   5.512 -0.1487  0.0625  0.2278
 2261SOL    HW1 8505   4.615   1.590   5.570 -0.4275  0.1195 -0.1391
 2261SOL    HW2 8506   4.644   1.523   5.437  0.2788 -1.1449  0.6294
 2262SOL     OW 8507   7.671   5.067   5.592  0.2631  0.3999 -0.3437
 2262SOL    HW1 8508   7.721   4.985   5.594  1.1685  0.9252 -0.6464
 2262SOL    HW2 8509   7.698   5.109   5.511 -1.2727  0.3651 -0.9042
 2263SOL     OW 8510   0.669   5.242   3.400 -0.0011  0.2985 -1.0208
 2263SOL    HW1 8511   0.579   5.229   3.429  0.3134  0.7320  0.2022
 2263SOL    HW2 8512   0.706   5.154   3.398 -0.6122  0.0518 -2.1248
 2264SOL     OW 8513   6.437   0.862   4.240 -0.0206 -0.6047 -0.8205
 2264SOL    HW1 8514   6.532   0.856   4.231  0.0165  0.3837 -1.1204
 2264SOL    HW2 8515   6.405   0.878   4.151 -0.3109  0.9080 -0.4707
 2265SOL     OW 8516   1.968   3.504   0.840 -0.5144 -0.0566  0.8997
 2265SOL    HW1 8517   1.978   3.499   0.745 -1.3906  0.4890  0.7682
 2265SOL    HW2 8518   2.052   3.535   0.871 -0.2562 -0.1261  0.2901
 2266SOL     OW 8519   0.593   2.002   1.360 -0.1504 -0.0458  0.0756
 2266SOL    HW1 8520   0.498   2.015   1.367 -0.3251 -0.9603 -0.4086
 2266SOL    HW2 8521   0.631   2.085   1.389 -1.0927  0.2655  0.4562
 2267SOL     OW 8522   2.627   2.135   6.441  0.3610 -0.4558 -0.0725
 2267SOL    HW1 8523   2.663   2.056   6.400 -1.5756 -1.6954  0.4399
 2267SOL    HW2 8524   2.624   2.113   6.534 -2.5167 -0.8583 -0.1709
 2268SOL     OW 8525   8.252   6.086   3.242 -0.1677  0.1925  0.1882
 2268SOL    HW1 8526   8.283   6.162   3.291 -0.1153  1.3612 -1.5427
 2268SOL    HW2 8527   8.159   6.102   3.229 -0.1197  0.0709 -0.3452
 2269SOL     OW 8528   8.819   2.386   7.314  0.9194 -0.4336 -0.6731
 2269SOL    HW1 8529   8.857   2.348   7.394  0.7046  0.4906 -0.1212
 2269SOL    HW2 8530   8.861   2.338   7.243  1.5838 -0.8449 -0.0212
 2270SOL     OW 8531   2.911   2.645   0.981  0.4110 -0.4399  0.0175
 2270SOL    HW1 8532   2.831   2.691   0.956  0.3293  0.1181  1.2218
 2270SOL    HW2 8533   2.920   2.576   0.917  0.4876  1.1984 -1.8317
 2271SOL     OW 8534   5.838   8.716   1.894 -0.0231 -0.1056 -0.0013
 2271SOL    HW1 8535   5.852   8.751   1.981 -0.0874 -2.6527  1.1311
 2271SOL    HW2 8536   5.761   8.762   1.861  0.9284  2.0081  0.5907
 2272SOL     OW 8537   7.931   4.774   3.633  0.0166  0.2150 -0.2906
 2272SOL    HW1 8538   8.026   4.768   3.625  0.1588  1.1186  0.5551
 2272SOL    HW2 8539   7.916   4.828   3.711 -1.1884  0.2418 -0.5132
 2273SOL     OW 8540   7.408   9.366   5.960  0.3859  0.3336  0.3809
 2273SOL    HW1 8541   7.394   9.395   6.050 -0.1725 -1.1172  0.7990
 2273SOL    HW2 8542   7.457   9.284   5.969 -0.5182 -0.3400 -0.5628
 2274SOL     OW 8543   3.711   6.317   3.862  0.2888 -0.1169  0.6269
 2274SOL    HW1 8544   3.762   6.383   3.910 -0.3059  1.1701 -0.4463
 2274SOL    HW2 8545   3.636   6.366   3.827  0.5333 -1.0686 -1.3292
 2275SOL     OW 8546   2.921   3.919   5.211 -0.3247 -0.0560 -0.3886
 2275SOL    HW1 8547   2.939   4.002   5.254 -0.6260 -1.0945  1.8504
 2275SOL    HW2 8548   2.904   3.943   5.120  0.3807  2.2295  0.0168
 2276SOL     OW 8549   6.772   9.541   4.774  0.7009 -0.1776  0.1196
 2276SOL    HW1 8550   6.701   9.496   4.729  0.2604  0.3397  0.2881
 2276SOL    HW2 8551   6.730   9.614   4.819  1.1633 -0.5329  1.1660
 2277SOL     OW 8552   2.457   5.089   8.205 -0.2427 -0.3238  0.4253
 2277SOL    HW1 8553   2.526   5.154   8.190  0.5134 -1.3235 -0.6030
 2277SOL    HW2 8554   2.475   5.020   8.142 -2.9643 -0.0478 -0.7767
 2278SOL     OW 8555   0.238   0.629   8.614  0.7403  0.0362  0.5184
 2278SOL    HW1 8556   0.184   0.640   8.536 -0.2828  0.2592  1.2387
 2278SOL    HW2 8557   0.211   0.700   8.673  0.9966 -0.5348  1.3534
 2279SOL     OW 8558   2.156   0.677   1.119 -0.3204  0.3681 -0.4623
 2279SOL    HW1 8559   2.170   0.597   1.069 -3.1149 -0.0258 -0.8138
 2279SOL    HW2 8560   2.241   0.719   1.122  1.2266 -2.4861 -0.4532
 2280SOL     OW 8561   7.936   4.740   7.746  0.0871  0.0937  0.3448
 2280SOL    HW1 8562   7.904   4.701   7.828  0.6376 -0.1001  0.4729
 2280SOL    HW2 8563   7.974   4.824   7.772 -1.7750  1.0892 -0.0368
 2281SOL     OW 8564   6.038   1.626   9.129  0.0992 -0.1141 -0.2117
 2281SOL    HW1 8565   5.959   1.602   9.081 -0.3582  0.8659  0.0188
 2281SOL    HW2 8566   6.019   1.604   9.220  1.0474 -2.1710 -0.4549
 2282SOL     OW 8567   5.811   4.101   1.591  0.0243  0.2863 -0.2347
 2282SOL    HW1 8568   5.777   4.190   1.598  2.6128  1.4965 -1.8629
 2282SOL    HW2 8569   5.870   4.092   1.667  0.0230  0.0750 -0.2590
 2283SOL     OW 8570   1.517   3.898   3.958  0.6055  0.2598  0.0755
 2283SOL    HW1 8571   1.527   3.895   4.053  0.1464 -0.8359  0.0987
 2283SOL    HW2 8572   1.422   3.901   3.944  0.6820  1.3929 -0.3374
 2284SOL     OW 8573   3.448   2.747   9.356  0.1566 -0.3861  0.2554
 2284SOL    HW1 8574   3.401   2.805   9.296  1.0738 -1.0050 -1.1079
 2284SOL    HW2 8575   3.487   2.807   9.420 -1.1448  0.2576  0.4973
 2285SOL     OW 8576   6.607   2.546   3.960 -0.2705 -0.2674  0.8826
 2285SOL    HW1 8577   6.673   2.585   4.017  1.1927  0.4600 -1.1948
 2285SOL    HW2 8578   6.546   2.617   3.942  2.5468  1.5083 -3.1307
 2286SOL     OW 8579   6.543   5.141   3.621  0.0222 -0.3806  0.0055
 2286SOL    HW1 8580   6.531   5.170   3.711 -0.6529 -0.5498 -0.0264
 2286SOL    HW2 8581   6.582   5.053   3.629 -0.2127 -0.4726  0.1321
 2287SOL     OW 8582   4.132   1.490   9.530 -0.0680 -0.4762 -0.5075
 2287SOL    HW1 8583   4.168   1.466   9.445  0.3168 -0.0996 -0.4576
 2287SOL    HW2 8584   4.129   1.408   9.579  1.0872 -0.4681 -0.3868
 2288SOL     OW 8585   9.326   5.836   3.361  0.2402  0.1624 -0.0469
 2288SOL    HW1 8586   9.404   5.882   3.330  0.1720  1.6359  1.7875
 2288SOL    HW2 8587   9.348   5.743   3.352  1.4124  0.5320 -1.3984
 2289SOL     OW 8588   1.971   6.828   9.520  0.0299  0.4398 -0.1756
 2289SOL    HW1 8589   1.994   6.857   9.431  3.5864  0.3299  0.5697
 2289SOL    HW2 8590   1.945   6.908   9.565 -1.2620  0.5817 -1.1053
 2290SOL     OW 8591   8.355   6.227   4.827  0.7094 -0.1926 -0.1533
 2290SOL    HW1 8592   8.276   6.272   4.856  0.2912 -0.4765 -0.8264
 2290SOL    HW2 8593   8.355   6.236   4.731 -0.0947 -2.6932 -0.4666
 2291SOL     OW 8594   3.529   0.561   5.294 -0.1160 -0.3698  0.7088
 2291SOL    HW1 8595   3.607   0.547   5.240  0.5265  1.2815  1.1613
 2291SOL    HW2 8596   3.456   0.552   5.233  0.5412  0.3055 -0.2124
 2292SOL     OW 8597   0.755   8.627   8.311 -0.1039  0.0839  0.0923
 2292SOL    HW1 8598   0.816   8.554   8.312  0.0806  0.2282 -0.3244
 2292SOL    HW2 8599   0.796   8.694   8.366 -0.3242 -0.1662  0.5601
 2293SOL     OW 8600   5.358   6.150   7.175  0.5652  0.1144 -0.3481
 2293SOL    HW1 8601   5.312   6.154   7.091  2.0221  0.2471 -1.1845
 2293SOL    HW2 8602   5.289   6.138   7.240 -0.6045  0.0081 -1.5624
 2294SOL     OW 8603   9.628   5.659   6.559 -0.1579 -0.0134 -0.2202
 2294SOL    HW1 8604   9.670   5.742   6.537 -0.6217  0.6455  1.2579
 2294SOL    HW2 8605   9.699   5.595   6.559  0.0963  0.2193 -2.0427
 2295SOL     OW 8606   2.195   7.229   0.381  0.0436 -0.2544 -0.4175
 2295SOL    HW1 8607   2.100   7.226   0.388  0.0628  1.1198  1.4344
 2295SOL    HW2 8608   2.217   7.322   0.394  1.6352 -0.5663 -0.6597
 2296SOL     OW 8609   8.994   7.055   7.756  0.1451 -0.7037 -0.1552
 2296SOL    HW1 8610   8.976   7.047   7.662  0.0597 -1.1085 -0.1074
 2296SOL    HW2 8611   8.961   7.141   7.780 -1.9329 -1.4695 -0.0414
 2297SOL     OW 8612   8.521   9.577   4.035  0.1576 -0.5973 -0.2605
 2297SOL    HW1 8613   8.537   9.671   4.043 -0.2219 -0.6187  0.9618
 2297SOL    HW2 8614   8.508   9.547   4.125 -1.3901 -1.5194 -0.7448
 2298SOL     OW 8615   9.466   5.121   1.374  0.0334 -0.1114  0.3362
 2298SOL    HW1 8616   9.371   5.133   1.367  0.2245  1.1623 -0.4251
 2298SOL    HW2 8617   9.502   5.187   1.316  1.4282  0.2183  1.5399
 2299SOL     OW 8618   1.135   8.842   2.700 -0.3247 -0.0925 -0.2335
 2299SOL    HW1 8619   1.125   8.832   2.605 -1.6775  0.4354 -0.1795
 2299SOL    HW2 8620   1.146   8.753   2.733  1.3102 -0.1969 -0.9753
 2300SOL     OW 8621   5.188   1.887   0.831  0.1085  0.3915 -0.0987
 2300SOL    HW1 8622   5.188   1.836   0.750  1.6693  0.9478 -0.4611
 2300SOL    HW2 8623   5.215   1.825   0.898  1.9107  0.6645 -0.5254
 2301SOL     OW 8624   2.287   9.122   6.375  0.0326 -0.0896 -0.2527
 2301SOL    HW1 8625   2.323   9.108   6.287  2.0147 -0.1039  0.5158
 2301SOL    HW2 8626   2.266   9.035   6.407  2.2884 -0.4422  0.4403
 2302SOL     OW 8627   6.845   1.285   9.214 -0.6894 -0.8602 -0.1149
 2302SOL    HW1 8628   6.907   1.267   9.143 -0.1211  1.3211 -0.2461
 2302SOL    HW2 8629   6.763   1.307   9.169 -0.2026  0.9900 -0.1857
 2303SOL     OW 8630   7.771   3.632   4.770 -0.3571  0.8682 -0.3793
 2303SOL    HW1 8631   7.707   3.703   4.776  0.2595  1.5911 -1.8943
 2303SOL    HW2 8632   7.765   3.587   4.855 -1.2215  2.3279  0.3689
 2304SOL     OW 8633   3.152   6.954   7.985  0.3755 -0.1289 -0.0745
 2304SOL    HW1 8634   3.188   6.892   8.048 -0.9330 -0.8463 -0.0022
 2304SOL    HW2 8635   3.229   6.990   7.940  1.2794 -0.1327  1.4124
 2305SOL     OW 8636   8.656   9.326   2.577 -0.4309 -0.1019  0.1182
 2305SOL    HW1 8637   8.571   9.312   2.619 -0.2565 -1.0850  0.1858
 2305SOL    HW2 8638   8.644   9.404   2.524 -1.6760 -0.7627 -0.6276
 2306SOL     OW 8639   6.228   0.016   8.564  0.2996  0.3626  0.3960
 2306SOL    HW1 8640   6.231   0.037   8.658  4.5567 -0.6135  0.6884
 2306SOL    HW2 8641   6.269   0.092   8.522 -0.0577  0.0767 -0.4841
 2307SOL     OW 8642   0.088   9.527   7.914 -0.1076  0.1516  0.4576
 2307SOL    HW1 8643   0.096   9.510   8.007  0.9189  1.4740  0.6472
 2307SOL    HW2 8644   0.030   9.604   7.909 -0.6001 -0.2449 -0.0282
 2308SOL     OW 8645   4.849   6.609   0.024  0.1474  0.0154  0.0180
 2308SOL    HW1 8646   4.917   6.638   0.085 -0.6263  1.2421  0.3531
 2308SOL    HW2 8647   4.770   6.601   0.078 -0.2518 -0.1833 -0.5823
 2309SOL     OW 8648   5.672   6.903   1.003  0.0869 -0.1611 -0.0958
 2309SOL    HW1 8649   5.732   6.846   1.050  0.7523  1.0949  0.6201
 2309SOL    HW2 8650   5.625   6.844   0.944  0.0575 -1.5971  1.2921
 2310SOL     OW 8651   2.730   2.406   6.405 -0.5148 -0.1281 -0.5362
 2310SOL    HW1 8652   2.765   2.427   6.492 -1.6654  1.0592 -0.3193
 2310SOL    HW2 8653   2.690   2.320   6.416 -0.5356 -0.0487  0.0835
 2311SOL     OW 8654   8.861   0.657   6.636 -0.5079  0.3741  0.0082
 2311SOL    HW1 8655   8.770   0.678   6.618 -0.1891  0.4783 -1.6393
 2311SOL    HW2 8656   8.901   0.740   6.662 -0.8314  0.3519  0.6092
 2312SOL     OW 8657   4.583   7.763   6.468 -0.5355 -0.6263 -0.0496
 2312SOL    HW1 8658   4.657   7.754   6.528 -1.6187 -0.0341  1.4309
 2312SOL    HW2 8659   4.575   7.677   6.426  1.1930 -0.5871 -0.5275
 2313SOL     OW 8660   7.376   0.326   2.664  0.0892 -0.4152 -0.0861
 2313SOL    HW1 8661   7.373   0.233   2.644 -0.4604 -0.5013  0.3897
 2313SOL    HW2 8662   7.284   0.353   2.671  0.2366 -0.1562  1.2166
 2314SOL     OW 8663   6.150   8.577   9.623  0.2355  0.0031  0.4682
 2314SOL    HW1 8664   6.168   8.556   9.714 -0.2136 -0.1140  0.5335
 2314SOL    HW2 8665   6.236   8.581   9.581  0.4228 -0.2408  0.8310
 2315SOL     OW 8666   3.931   2.118   0.792 -0.1329  0.5574  0.1131
 2315SOL    HW1 8667   4.003   2.102   0.853  0.3263  0.4438 -0.4490
 2315SOL    HW2 8668   3.872   2.044   0.804  0.3512  0.1221 -0.1423
 2316SOL     OW 8669   0.394   5.130   3.661  0.3216  0.2337  0.3903
 2316SOL    HW1 8670   0.475   5.164   3.697  1.1346  0.3767 -1.4571
 2316SOL    HW2 8671   0.408   5.036   3.653 -0.0607  0.1271  0.9619
 2317SOL     OW 8672   0.306   1.623   7.749 -0.3892  0.0577 -0.4307
 2317SOL    HW1 8673   0.395   1.655   7.729  0.4449 -1.2135  1.0198
 2317SOL    HW2 8674   0.256   1.641   7.670  1.5370 -0.5114 -1.8589
 2318SOL     OW 8675   6.371   8.996   3.372  0.1261 -0.3762 -0.0329
 2318SOL    HW1 8676   6.426   9.050   3.429  0.7954 -1.2915  0.2021
 2318SOL    HW2 8677   6.412   9.003   3.286  0.0663 -0.3030 -0.0552
 2319SOL     OW 8678   0.926   0.536   5.524  0.1711 -0.2641 -0.3414
 2319SOL    HW1 8679   0.869   0.612   5.537  0.4961  0.1263 -1.1352
 2319SOL    HW2 8680   0.896   0.497   5.442 -0.7425 -1.6865  0.6203
 2320SOL     OW 8681   3.534   8.427   5.155 -0.5833 -0.1244  0.1856
 2320SOL    HW1 8682   3.529   8.476   5.237 -3.4967  0.0760 -0.0231
 2320SOL    HW2 8683   3.497   8.485   5.089  0.1081 -0.9338 -0.9657
 2321SOL     OW 8684   0.877   7.751   2.970 -0.3533  0.3296 -0.5194
 2321SOL    HW1 8685   0.782   7.747   2.959 -0.3805  0.1335 -0.2130
 2321SOL    HW2 8686   0.910   7.672   2.927 -0.2513  0.8316 -1.4023
 2322SOL     OW 8687   5.371   4.353   6.531  0.1201 -0.3446  0.1369
 2322SOL    HW1 8688   5.428   4.378   6.603  1.3108  0.9396 -1.1977
 2322SOL    HW2 8689   5.386   4.419   6.463 -2.2742 -0.4785 -0.6350
 2323SOL     OW 8690   4.690   8.386   7.960  0.8801 -0.0170  0.1554
 2323SOL    HW1 8691   4.711   8.386   8.054 -0.7499 -2.4328  0.5878
 2323SOL    HW2 8692   4.691   8.294   7.935 -0.2460  0.4686 -1.8614
 2324SOL     OW 8693   7.910   4.316   0.074 -0.3891 -0.3316  0.5045
 2324SOL    HW1 8694   7.964   4.375   0.126  1.0816 -2.4657  1.5579
 2324SOL    HW2 8695   7.851   4.276   0.138 -2.0279  0.6058 -0.3472
 2325SOL     OW 8696   3.436   8.934   2.224 -0.8688 -0.2712  0.4391
 2325SOL    HW1 8697   3.362   8.996   2.222 -1.6088 -1.0952  1.3477
 2325SOL    HW2 8698   3.447   8.908   2.133 -1.5178  0.0853  0.2483
 2326SOL     OW 8699   4.704   8.510   8.823  0.1471  0.7545 -0.7483
 2326SOL    HW1 8700   4.611   8.530   8.813 -0.0550  0.0989 -0.2012
 2326SOL    HW2 8701   4.747   8.567   8.759 -0.7997 -0.6070 -2.6924
 2327SOL     OW 8702   7.726   3.117   0.547 -0.1465 -0.3844 -0.0194
 2327SOL    HW1 8703   7.786   3.105   0.474 -0.8003 -0.3561 -0.5704
 2327SOL    HW2 8704   7.655   3.171   0.511 -0.0390  0.3849  0.8722
 2328SOL     OW 8705   9.151   6.984   0.695 -0.2237 -0.5114  0.0249
 2328SOL    HW1 8706   9.083   7.046   0.669  0.7375  1.0016  0.9533
 2328SOL    HW2 8707   9.151   6.918   0.625 -0.8894  0.8618 -1.3408
 2329SOL     OW 8708   3.314   5.919   5.842  0.5204 -0.2730  0.0140
 2329SOL    HW1 8709   3.324   5.828   5.869 -0.7484  0.0553  1.7980
 2329SOL    HW2 8710   3.337   5.969   5.920  1.5968  0.9935 -1.0565
 2330SOL     OW 8711   3.562   2.378   2.208 -0.0670 -0.1634  0.0854
 2330SOL    HW1 8712   3.538   2.358   2.298 -0.6364  1.0764  0.2300
 2330SOL    HW2 8713   3.511   2.317   2.155  0.0660 -0.7154  0.5917
 2331SOL     OW 8714   2.609   3.696   4.039 -0.0933 -0.4384 -0.1222
 2331SOL    HW1 8715   2.517   3.683   4.016 -0.2170  2.0049 -1.3951
 2331SOL    HW2 8716   2.657   3.663   3.963 -0.1715  1.4876 -1.0849
 2332SOL     OW 8717   3.752   6.312   8.760  0.3795  0.0629 -0.0268
 2332SOL    HW1 8718   3.687   6.256   8.719  0.9315 -1.2605  0.8217
 2332SOL    HW2 8719   3.835   6.265   8.749  0.8321  0.6177  0.8653
 2333SOL     OW 8720   8.389   9.480   3.020  0.2888 -0.1645  0.1215
 2333SOL    HW1 8721   8.406   9.441   3.105  0.1935  0.2949  0.3548
 2333SOL    HW2 8722   8.304   9.445   2.994  0.8506 -1.2443 -0.3390
 2334SOL     OW 8723   8.344   6.545   9.192 -0.1175 -0.1851 -0.3320
 2334SOL    HW1 8724   8.312   6.501   9.113 -0.3525 -0.0190 -0.3280
 2334SOL    HW2 8725   8.419   6.492   9.220  0.5265  0.2491 -1.1657
 2335SOL     OW 8726   9.382   6.741   4.218  0.2438  0.6651 -0.1714
 2335SOL    HW1 8727   9.441   6.671   4.189  0.5236  0.9554 -0.3114
 2335SOL    HW2 8728   9.298   6.719   4.180  0.4208  0.6073 -0.5310
 2336SOL     OW 8729   7.627   4.068   0.180  0.1730 -0.2724 -0.4532
 2336SOL    HW1 8730   7.545   4.118   0.177  1.3332  1.7282 -2.0295
 2336SOL    HW2 8731   7.610   3.990   0.127 -0.5257  0.4693 -1.3579
 2337SOL     OW 8732   3.483   7.898   7.845  0.2600  0.7284  0.6445
 2337SOL    HW1 8733   3.463   7.991   7.831 -0.8664  0.2979 -0.9681
 2337SOL    HW2 8734   3.509   7.892   7.937  1.2987  2.7798  0.5352
 2338SOL     OW 8735   4.916   1.113   6.643  0.0724 -0.4740 -0.4713
 2338SOL    HW1 8736   4.965   1.194   6.655  0.5105 -0.6485 -1.0349
 2338SOL    HW2 8737   4.908   1.104   6.548  0.0671 -1.1156 -0.4135
 2339SOL     OW 8738   9.523   9.517   8.345  0.4757 -0.2365 -0.2226
 2339SOL    HW1 8739   9.461   9.589   8.330  0.7537 -0.0725 -0.6152
 2339SOL    HW2 8740   9.468   9.440   8.357  0.0997  0.2946  1.8358
 2340SOL     OW 8741   5.716   8.106   4.471  0.8115  0.3128 -0.4710
 2340SOL    HW1 8742   5.694   8.033   4.413 -0.1631 -0.2424  0.5563
 2340SOL    HW2 8743   5.741   8.177   4.412  0.6207 -0.4774 -1.5291
 2341SOL     OW 8744   1.627   1.044   2.946 -0.4798 -0.4017  0.4790
 2341SOL    HW1 8745   1.663   1.084   2.867 -2.7546  0.0269 -0.4260
 2341SOL    HW2 8746   1.627   0.950   2.927 -1.9469 -0.2343 -0.5126
 2342SOL     OW 8747   7.317   6.134   7.646  0.1930 -0.0094  0.2789
 2342SOL    HW1 8748   7.372   6.057   7.633  1.7639  0.9191  1.2373
 2342SOL    HW2 8749   7.338   6.165   7.734 -0.3862  1.5454 -0.0981
 2343SOL     OW 8750   7.858   0.028   1.847  0.4158  0.5881 -0.2999
 2343SOL    HW1 8751   7.884   0.079   1.924 -0.8918  1.6415 -0.5175
 2343SOL    HW2 8752   7.821  -0.052   1.883 -1.0811  1.4817  0.2678
 2344SOL     OW 8753   5.166   4.254   7.755  0.0327 -0.2768  0.5739
 2344SOL    HW1 8754   5.179   4.348   7.737 -0.0784  0.0827  2.2444
 2344SOL    HW2 8755   5.075   4.238   7.732  0.3176 -0.2242 -0.6618
 2345SOL     OW 8756   9.580   1.416   5.031  0.3242  0.0110 -0.5448
 2345SOL    HW1 8757   9.641   1.489   5.041 -0.0435  0.1948  0.5741
 2345SOL    HW2 8758   9.502   1.444   5.078  1.1797 -2.2154  2.5433
 2346SOL     OW 8759   4.334   6.410   5.343 -0.1867 -0.4573  0.4131
 2346SOL    HW1 8760   4.394   6.347   5.303 -1.4370  0.1508 -2.7251
 2346SOL    HW2 8761   4.391   6.484   5.368  0.7316 -1.0889  0.2477
 2347SOL     OW 8762   6.423   1.292   4.256  0.3018 -0.0970  0.1442
 2347SOL    HW1 8763   6.423   1.358   4.324 -2.0745 -1.8561  2.0354
 2347SOL    HW2 8764   6.331   1.265   4.248  0.7396 -1.1388 -2.6088
 2348SOL     OW 8765   6.571   8.532   4.124 -0.2739 -0.5108 -0.1621
 2348SOL    HW1 8766   6.510   8.542   4.197  0.2910  0.1948  0.2261
 2348SOL    HW2 8767   6.607   8.444   4.134 -0.0273 -0.3321  0.5482
 2349SOL     OW 8768   2.544   5.282   6.331  0.3058 -0.0954 -0.3473
 2349SOL    HW1 8769   2.515   5.312   6.245  0.0512  2.3437  0.5234
 2349SOL    HW2 8770   2.463   5.267   6.380  0.4554 -0.9704 -0.3533
 2350SOL     OW 8771   4.189   8.327   4.030 -0.2432 -0.5482  0.0531
 2350SOL    HW1 8772   4.098   8.297   4.031 -0.5912  0.4131  2.3781
 2350SOL    HW2 8773   4.203   8.364   4.117  2.3176 -0.4434 -0.3454
 2351SOL     OW 8774   3.410   5.463   6.332  0.1158 -0.3592  0.1651
 2351SOL    HW1 8775   3.448   5.449   6.419  0.6429 -1.0624 -0.1727
 2351SOL    HW2 8776   3.463   5.409   6.274  0.2791  0.7249 -0.7201
 2352SOL     OW 8777   6.500   4.063   1.648  0.1580 -0.7466  0.1134
 2352SOL    HW1 8778   6.500   4.071   1.744 -0.3498  0.2972  0.0358
 2352SOL    HW2 8779   6.585   4.023   1.628  0.9278  0.4242  0.9047
 2353SOL     OW 8780   8.198   6.095   1.043  0.3920 -0.5094 -0.1353
 2353SOL    HW1 8781   8.225   6.185   1.059  2.5223 -1.2907  1.1736
 2353SOL    HW2 8782   8.104   6.094   1.059  0.5720  1.1885  1.2449
 2354SOL     OW 8783   7.798   6.258   5.033  0.7095  0.1401 -0.1468
 2354SOL    HW1 8784   7.829   6.180   5.080  1.0907  0.4178  0.0717
 2354SOL    HW2 8785   7.738   6.300   5.095 -0.1026 -0.3855 -0.5611
 2355SOL     OW 8786   5.382   4.101   7.717 -0.4440 -0.3755  0.8672
 2355SOL    HW1 8787   5.305   4.155   7.731 -0.1658 -0.1676  1.6621
 2355SOL    HW2 8788   5.361   4.047   7.642 -0.5515  1.1867 -0.2738
 2356SOL     OW 8789   1.799   1.562   9.534 -0.3241 -0.0171 -0.1160
 2356SOL    HW1 8790   1.894   1.562   9.546 -0.3032  1.0565 -0.1999
 2356SOL    HW2 8791   1.778   1.651   9.506 -1.2764 -0.4262 -0.7787
 2357SOL     OW 8792   5.944   5.235   5.107 -0.1722  0.2207  0.3296
 2357SOL    HW1 8793   5.896   5.296   5.051 -0.0709 -1.1079 -1.2773
 2357SOL    HW2 8794   5.979   5.290   5.177 -3.2213  1.3907  1.0875
 2358SOL     OW 8795   6.126   3.289   2.615  0.5041 -0.5833 -0.0392
 2358SOL    HW1 8796   6.109   3.382   2.632  1.1264 -0.4200 -0.2885
 2358SOL    HW2 8797   6.112   3.247   2.700  0.0515 -0.2922  0.0374
 2359SOL     OW 8798   6.170   1.386   8.582 -0.2901 -0.3990 -0.7466
 2359SOL    HW1 8799   6.157   1.297   8.548 -1.8983 -0.3078 -0.4351
 2359SOL    HW2 8800   6.221   1.430   8.514  0.2505 -1.4554 -1.0505
 2360SOL     OW 8801   5.338   0.748   1.618  0.2872  0.4542 -0.2392
 2360SOL    HW1 8802   5.299   0.774   1.534 -1.4343  0.0806  0.3893
 2360SOL    HW2 8803   5.278   0.783   1.684  0.4997 -0.9866  0.7683
 2361SOL     OW 8804   4.303   8.841   5.713 -0.2871  0.4243 -0.3110
 2361SOL    HW1 8805   4.227   8.784   5.697 -0.1204 -0.1015  0.6464
 2361SOL    HW2 8806   4.335   8.864   5.626  0.2730 -1.8188 -0.7584
 2362SOL     OW 8807   5.632   5.425   0.503  0.0782  0.4807 -0.1485
 2362SOL    HW1 8808   5.613   5.371   0.427  2.0787  1.8441 -1.7269
 2362SOL    HW2 8809   5.727   5.423   0.512  0.1187  2.5029  0.6165
 2363SOL     OW 8810   9.137   5.400   4.749  0.1255  0.0259 -0.6856
 2363SOL    HW1 8811   9.079   5.424   4.677  0.9923 -0.9627 -1.7595
 2363SOL    HW2 8812   9.171   5.483   4.781 -2.9150  0.7585  0.9483
 2364SOL     OW 8813   8.678   9.058   3.155 -0.2210 -0.8769 -0.2494
 2364SOL    HW1 8814   8.747   9.089   3.214 -1.3045  1.4563 -0.0916
 2364SOL    HW2 8815   8.661   9.133   3.097 -2.3476 -1.5030 -0.5185
 2365SOL     OW 8816   5.670   6.801   6.052 -0.0832 -0.4844  0.4540
 2365SOL    HW1 8817   5.579   6.803   6.083 -0.3464  1.0761 -0.3196
 2365SOL    HW2 8818   5.700   6.892   6.059  1.2654 -0.8919  0.2490
 2366SOL     OW 8819   9.502   1.872   4.985 -0.1361 -0.1828  0.5394
 2366SOL    HW1 8820   9.494   1.961   5.020 -2.7327  0.4669 -1.3135
 2366SOL    HW2 8821   9.440   1.821   5.036  0.3364 -0.6146  0.6866
 2367SOL     OW 8822   4.028   0.072   6.957 -0.3103  0.3128  0.4772
 2367SOL    HW1 8823   4.011   0.165   6.941 -0.3729  0.3835  0.9569
 2367SOL    HW2 8824   3.942   0.036   6.981 -0.2403  0.1773  0.5245
 2368SOL     OW 8825   3.234   1.119   8.817  0.4904 -0.0714  0.5254
 2368SOL    HW1 8826   3.192   1.131   8.903  2.3484  1.0310  1.3400
 2368SOL    HW2 8827   3.310   1.177   8.819  0.6415 -0.0954 -1.8625
 2369SOL     OW 8828   1.439   8.346   1.572 -0.2711 -0.2261  0.2194
 2369SOL    HW1 8829   1.511   8.410   1.572  0.4904 -1.0607 -0.2653
 2369SOL    HW2 8830   1.418   8.334   1.665 -0.3530  0.6395  0.3204
 2370SOL     OW 8831   7.412   7.905   4.429 -0.2827 -0.3995  0.2245
 2370SOL    HW1 8832   7.506   7.897   4.412  0.0031 -0.7548  1.7697
 2370SOL    HW2 8833   7.370   7.867   4.352  0.8318 -0.1436 -0.5403
 2371SOL     OW 8834   2.196   0.385   9.664  0.0247 -0.0699  0.1776
 2371SOL    HW1 8835   2.226   0.472   9.638 -1.2723  0.7546  1.3439
 2371SOL    HW2 8836   2.101   0.391   9.664 -0.0658 -0.9489  1.9960
 2372SOL     OW 8837   4.486   1.539   3.089  0.2016  0.1817  0.5264
 2372SOL    HW1 8838   4.567   1.489   3.100  0.1401  0.0909  0.5699
 2372SOL    HW2 8839   4.491   1.573   3.000 -0.0172 -0.3734  0.2983
 2373SOL     OW 8840   6.195   3.428   8.036  0.6708  0.1699  0.5617
 2373SOL    HW1 8841   6.164   3.509   8.075 -0.9441 -0.3695  0.4742
 2373SOL    HW2 8842   6.176   3.361   8.101 -2.3550 -0.7935 -1.1050
 2374SOL     OW 8843   5.183   7.142   0.175 -0.9072 -0.3960  0.1198
 2374SOL    HW1 8844   5.107   7.159   0.119 -0.3352  0.9473 -0.2688
 2374SOL    HW2 8845   5.219   7.228   0.194  0.3108 -0.9901  0.6066
 2375SOL     OW 8846   2.700   3.557   2.894  0.3749  0.0503  0.6456
 2375SOL    HW1 8847   2.647   3.578   2.817  2.1531  0.0565 -0.6568
 2375SOL    HW2 8848   2.689   3.632   2.952 -1.3241 -0.1382  0.6220
 2376SOL     OW 8849   6.460   7.974   3.970 -0.5355  0.4263  0.3131
 2376SOL    HW1 8850   6.471   7.996   3.878 -0.6234  0.7104  0.3686
 2376SOL    HW2 8851   6.395   7.904   3.970 -2.0229  1.7440  0.2706
 2377SOL     OW 8852   9.193   8.111   7.239 -0.5096  0.1022 -0.2835
 2377SOL    HW1 8853   9.159   8.126   7.151  0.7473  0.9163 -0.6509
 2377SOL    HW2 8854   9.132   8.048   7.277 -2.0491  1.0172 -1.1181
 2378SOL     OW 8855   3.647   2.051   5.659 -0.1984 -0.7644  0.2348
 2378SOL    HW1 8856   3.672   2.123   5.602 -0.7941 -0.7158  0.0251
 2378SOL    HW2 8857   3.616   2.093   5.739 -1.3533 -0.7364 -0.2056
 2379SOL     OW 8858   1.868   0.865   3.351 -0.2931  0.0121 -0.2267
 2379SOL    HW1 8859   1.788   0.903   3.315 -0.3149 -1.2791 -1.6804
 2379SOL    HW2 8860   1.910   0.823   3.276  0.4042 -1.5913  0.9875
 2380SOL     OW 8861   4.621   3.160   9.685  0.1809 -0.4223  0.3176
 2380SOL    HW1 8862   4.617   3.250   9.715 -0.8038 -0.0928 -0.7315
 2380SOL    HW2 8863   4.702   3.125   9.723 -0.0622  0.4982  1.7750
 2381SOL     OW 8864   7.121   7.943   3.897 -0.2250  0.0575  0.3810
 2381SOL    HW1 8865   7.176   7.964   3.821  1.8211 -1.2262  1.4100
 2381SOL    HW2 8866   7.058   7.878   3.863 -0.4284  0.7186 -0.5623
 2382SOL     OW 8867   3.260   8.880   3.100  0.6150  0.2685  0.1424
 2382SOL    HW1 8868   3.329   8.916   3.156 -1.0804  0.3054  2.3451
 2382SOL    HW2 8869   3.273   8.786   3.104  0.4768  0.2670  0.6745
 2383SOL     OW 8870   7.485   1.974   6.497 -0.6293  0.2258 -0.1576
 2383SOL    HW1 8871   7.527   2.037   6.555  0.3079 -2.0246  1.8243
 2383SOL    HW2 8872   7.551   1.905   6.485 -2.0316 -1.0128 -1.1071
 2384SOL     OW 8873   6.917   5.270   7.281 -0.1228  0.3313 -0.8841
 2384SOL    HW1 8874   6.838   5.222   7.258  0.1124  0.4417 -2.0277
 2384SOL    HW2 8875   6.900   5.360   7.252 -0.1648  0.7064  0.2852
 2385SOL     OW 8876   9.204   5.644   2.907  0.3583  0.6397 -0.8922
 2385SOL    HW1 8877   9.230   5.560   2.868  0.5435  0.3729 -0.2053
 2385SOL    HW2 8878   9.110   5.651   2.891  0.6529  1.1567 -2.5518
 2386SOL     OW 8879   7.937   2.687   8.678 -0.2683  0.0977 -0.6169
 2386SOL    HW1 8880   7.893   2.737   8.608 -0.5818  1.2214  0.3465
 2386SOL    HW2 8881   7.874   2.618   8.701 -0.9627  0.8443 -0.2094
 2387SOL     OW 8882   1.834   3.602   0.511  0.1095  0.1076  0.3048
 2387SOL    HW1 8883   1.841   3.544   0.436  2.3430 -0.9754  1.2470
 2387SOL    HW2 8884   1.753   3.577   0.555 -0.6397 -0.0071 -1.1092
 2388SOL     OW 8885   6.911   6.960   0.723  0.0560 -0.0203 -0.2759
 2388SOL    HW1 8886   6.957   7.027   0.672 -0.1599 -1.5572 -2.6179
 2388SOL    HW2 8887   6.819   6.971   0.697 -0.1457 -0.4333  0.2671
 2389SOL     OW 8888   9.599   6.057   0.338 -0.0801  0.1058 -0.0748
 2389SOL    HW1 8889   9.632   6.094   0.257  0.3023 -0.9079 -0.3943
 2389SOL    HW2 8890   9.564   6.132   0.386  0.1209  0.7823 -0.9609
 2390SOL     OW 8891   6.795   4.031   2.404 -0.0338  0.0017 -0.3630
 2390SOL    HW1 8892   6.777   3.966   2.471 -0.8014  2.1573  1.6580
 2390SOL    HW2 8893   6.749   4.110   2.434 -0.5097  1.0603 -3.4951
 2391SOL     OW 8894   1.493   0.310   1.339 -0.0263  0.2853 -0.3291
 2391SOL    HW1 8895   1.575   0.314   1.291  0.6118  0.5576  0.7636
 2391SOL    HW2 8896   1.468   0.218   1.336  0.8530  0.0170  0.1825
 2392SOL     OW 8897   3.297   7.931   9.038 -0.1193  0.1854 -0.2520
 2392SOL    HW1 8898   3.230   7.922   9.106 -0.9898  0.5993 -1.0435
 2392SOL    HW2 8899   3.274   8.012   8.992  1.0027  0.4021 -0.4656
 2393SOL     OW 8900   1.815   3.725   6.080  0.0064 -0.0141 -0.5713
 2393SOL    HW1 8901   1.873   3.682   6.143 -0.7748 -1.8916 -1.0481
 2393SOL    HW2 8902   1.874   3.753   6.009  1.1071  3.3787  1.4711
 2394SOL     OW 8903   3.710   1.234   0.366  0.2979 -0.2566 -0.0267
 2394SOL    HW1 8904   3.670   1.321   0.375  0.8001 -0.0593  0.3688
 2394SOL    HW2 8905   3.659   1.191   0.298 -0.6395 -0.0402  0.5133
 2395SOL     OW 8906   7.664   6.585   6.307 -0.1203  0.2852  0.0543
 2395SOL    HW1 8907   7.610   6.543   6.374  1.8656 -1.0607  0.9018
 2395SOL    HW2 8908   7.663   6.524   6.233 -0.6161  0.7808 -0.3591
 2396SOL     OW 8909   0.452   7.485   9.049 -0.4371 -0.3453 -0.0285
 2396SOL    HW1 8910   0.530   7.429   9.051  1.3875  1.9675 -1.4346
 2396SOL    HW2 8911   0.415   7.472   8.962 -0.7017 -0.2230  0.0650
 2397SOL     OW 8912   4.674   2.728   1.242  0.2132  0.7628  0.0682
 2397SOL    HW1 8913   4.707   2.653   1.192  1.0794  1.3431 -0.2511
 2397SOL    HW2 8914   4.601   2.762   1.189  0.5649  0.8460 -0.3696
 2398SOL     OW 8915   5.643   3.435   2.074 -0.1622 -0.7557  0.8407
 2398SOL    HW1 8916   5.650   3.489   1.996  0.7506 -1.4895  0.3889
 2398SOL    HW2 8917   5.609   3.494   2.141 -1.5378 -0.2680 -0.2453
 2399SOL     OW 8918   0.731   7.252   5.790 -0.1827 -0.4601 -0.4720
 2399SOL    HW1 8919   0.782   7.175   5.816  0.2010  0.1260  0.5322
 2399SOL    HW2 8920   0.658   7.215   5.739  0.3253 -1.4347 -0.5248
 2400SOL     OW 8921   8.970   1.008   6.948  0.0040  0.3412  0.8126
 2400SOL    HW1 8922   8.929   0.973   6.869  0.1654 -0.2529  0.9858
 2400SOL    HW2 8923   9.033   0.941   6.974 -1.8415 -0.7550  2.9107
 2401SOL     OW 8924   5.092   2.804   3.011  0.0016 -0.1808  0.4893
 2401SOL    HW1 8925   5.051   2.767   3.089  0.3598 -0.5484  0.5070
 2401SOL    HW2 8926   5.186   2.795   3.028  0.1144 -2.1327 -0.8533
 2402SOL     OW 8927   8.925   3.336   4.631  0.1980  0.6879  0.2478
 2402SOL    HW1 8928   8.931   3.260   4.689 -1.8586 -1.0942 -1.7182
 2402SOL    HW2 8929   8.971   3.310   4.552 -2.3377  0.5459 -1.2853
 2403SOL     OW 8930   3.515   2.631   1.643 -0.3904  0.0746  0.1789
 2403SOL    HW1 8931   3.579   2.610   1.574 -0.7633 -0.7572  0.0749
 2403SOL    HW2 8932   3.524   2.559   1.706  0.7577  1.3998  1.6085
 2404SOL     OW 8933   4.407   9.401   8.101  0.1585  0.2992 -0.5953
 2404SOL    HW1 8934   4.437   9.488   8.129  0.8551 -0.9526  3.0152
 2404SOL    HW2 8935   4.314   9.399   8.125  0.4675 -0.3701  0.6194
 2405SOL     OW 8936   4.128   0.498   5.507 -0.2565 -0.1598 -0.0949
 2405SOL    HW1 8937   4.160   0.465   5.423 -4.0912 -1.8365 -1.0844
 2405SOL    HW2 8938   4.079   0.425   5.545  2.1772  0.1227  4.2879
 2406SOL     OW 8939   3.690   4.383   4.925  0.4657 -0.5875  0.2766
 2406SOL    HW1 8940   3.643   4.369   5.007  1.7214 -0.0689  1.1106
 2406SOL    HW2 8941   3.781   4.365   4.947  0.7264 -1.1946 -1.2101
 2407SOL     OW 8942   7.957   6.647   4.033  0.3525  0.1345 -0.0197
 2407SOL    HW1 8943   7.901   6.712   4.076  0.6100  0.5365 -0.2796
 2407SOL    HW2 8944   7.897   6.578   4.006  0.3825 -0.9519  2.4369
 2408SOL     OW 8945   1.810   8.243   8.015 -0.0007  0.1939 -0.5862
 2408SOL    HW1 8946   1.820   8.212   7.925 -0.5500  1.2489 -1.0313
 2408SOL    HW2 8947   1.872   8.315   8.023  0.9916 -0.7309  0.3130
 2409SOL     OW 8948   6.757   7.229   2.461 -0.2680 -0.3185  0.0755
 2409SOL    HW1 8949   6.709   7.311   2.470 -2.7926 -1.8582  2.2960
 2409SOL    HW2 8950   6.746   7.204   2.370 -0.7829  1.0352 -0.2531
 2410SOL     OW 8951   9.481   7.415   7.454  0.6615 -0.2205  0.6514
 2410SOL    HW1 8952   9.515   7.333   7.419 -1.9686 -1.3375  0.4717
 2410SOL    HW2 8953   9.534   7.432   7.532  2.7700 -0.7873 -0.5877
 2411SOL     OW 8954   0.082   7.236   1.785  0.3602  0.2693  0.0782
 2411SOL    HW1 8955   0.008   7.291   1.811  0.2655 -0.3362  1.1650
 2411SOL    HW2 8956   0.047   7.177   1.720 -0.6496 -1.2602  1.9106
 2412SOL     OW 8957   4.769   2.482   2.248  0.3779  0.2965  0.2043
 2412SOL    HW1 8958   4.689   2.523   2.216  1.1284  1.1891 -0.6081
 2412SOL    HW2 8959   4.741   2.397   2.280 -1.1094  1.1327  1.2321
 2413SOL     OW 8960   3.114   3.177   2.060 -0.3659 -0.1522 -0.2211
 2413SOL    HW1 8961   3.184   3.138   2.008  0.4587  1.1492 -0.1265
 2413SOL    HW2 8962   3.068   3.234   1.998  0.5782  1.3561  0.4405
 2414SOL     OW 8963   2.898   5.379   3.840  0.1772 -0.3862 -0.5095
 2414SOL    HW1 8964   2.861   5.324   3.770 -0.0259  1.9673 -2.3685
 2414SOL    HW2 8965   2.826   5.435   3.868  0.1000 -1.6297  2.0961
 2415SOL     OW 8966   7.872   9.606   9.419 -0.0696  0.7590  0.0512
 2415SOL    HW1 8967   7.787   9.645   9.399 -0.5059 -0.9989 -1.8337
 2415SOL    HW2 8968   7.852   9.535   9.480  0.1955  0.8839  0.2885
 2416SOL     OW 8969   5.003   5.439   7.383  0.1382 -0.4187  0.4275
 2416SOL    HW1 8970   5.058   5.462   7.458  0.7380  0.4810 -0.2636
 2416SOL    HW2 8971   4.962   5.522   7.358 -1.7577 -1.1225  1.0774
 2417SOL     OW 8972   7.462   0.719   3.185 -0.2121  0.0133 -0.0230
 2417SOL    HW1 8973   7.472   0.796   3.128 -3.4681 -0.2693 -1.1838
 2417SOL    HW2 8974   7.527   0.732   3.254  0.5756  2.8873 -1.1566
 2418SOL     OW 8975   4.896   7.217   6.863  0.0059  0.7906  0.4964
 2418SOL    HW1 8976   4.902   7.286   6.929  1.2996  0.8834  0.2909
 2418SOL    HW2 8977   4.911   7.136   6.911 -1.1871  0.6461  0.6765
 2419SOL     OW 8978   4.728   4.589   5.529 -0.4863  0.0754 -0.3401
 2419SOL    HW1 8979   4.736   4.586   5.624  0.1106 -2.4217 -0.3898
 2419SOL    HW2 8980   4.743   4.681   5.506  0.7057  0.4964  1.8694
 2420SOL     OW 8981   7.544   4.589   0.679 -0.3159  0.1601  0.0054
 2420SOL    HW1 8982   7.615   4.621   0.624 -0.5342 -0.4639 -0.6587
 2420SOL    HW2 8983   7.576   4.599   0.768 -1.2570  4.4815  0.0770
 2421SOL     OW 8984   9.623   6.593   3.049  0.3733 -0.4367  0.2276
 2421SOL    HW1 8985   9.661   6.517   3.006 -0.5979 -2.3320  2.4968
 2421SOL    HW2 8986   9.537   6.603   3.008  0.5869 -0.4030 -0.2247
 2422SOL     OW 8987   2.378   5.606   6.559 -0.1396  0.0709  0.3820
 2422SOL    HW1 8988   2.351   5.676   6.500 -1.9614  1.0067  2.2105
 2422SOL    HW2 8989   2.302   5.548   6.565  0.9740 -1.5298 -0.2671
 2423SOL     OW 8990   1.203   9.158   5.910 -0.3161  0.1085 -0.2955
 2423SOL    HW1 8991   1.123   9.184   5.956 -1.3800 -1.7292 -0.9874
 2423SOL    HW2 8992   1.236   9.083   5.959  0.4533  0.2566 -0.5724
 2424SOL     OW 8993   4.418   5.922   3.181  0.0474 -0.1053 -0.1641
 2424SOL    HW1 8994   4.485   5.856   3.198  0.1559  0.4810  1.9165
 2424SOL    HW2 8995   4.401   5.963   3.266 -0.1543  2.4473 -1.3293
 2425SOL     OW 8996   3.849   2.574   7.232  0.0242  0.4172 -0.0116
 2425SOL    HW1 8997   3.865   2.668   7.239 -0.2339  0.6144 -1.6588
 2425SOL    HW2 8998   3.813   2.562   7.144 -0.6636 -1.1337  0.4441
 2426SOL     OW 8999   1.928   9.238   6.401  0.0264 -1.1695 -0.0680
 2426SOL    HW1 9000   1.902   9.249   6.309 -0.1324 -2.5937 -0.2199
 2426SOL    HW2 9001   1.991   9.166   6.400  1.7240  0.2178  0.6933
 2427SOL     OW 9002   6.588   2.590   9.200  0.1451 -0.3338 -0.1653
 2427SOL    HW1 9003   6.539   2.669   9.224  0.8479  0.3061 -0.7937
 2427SOL    HW2 9004   6.539   2.519   9.241 -0.3918  0.4379  0.5794
 2428SOL     OW 9005   4.673   2.426   5.094  0.8980  0.0124  0.2252
 2428SOL    HW1 9006   4.605   2.361   5.078  2.0503 -1.1381 -0.1948
 2428SOL    HW2 9007   4.676   2.435   5.189  2.1740 -2.2306  0.4716
 2429SOL     OW 9008   1.209   8.234   7.617  0.5563  0.5507  0.1891
 2429SOL    HW1 9009   1.289   8.285   7.633  1.2582 -0.2083 -0.7738
 2429SOL    HW2 9010   1.226   8.189   7.535 -0.4254 -0.4975  0.5398
 2430SOL     OW 9011   3.004   3.286   4.845 -0.0342 -0.2303 -0.1940
 2430SOL    HW1 9012   2.918   3.327   4.849  0.5486  0.9786  0.3588
 2430SOL    HW2 9013   3.054   3.338   4.782  0.7411 -0.0245  0.5668
 2431SOL     OW 9014   7.355   7.901   3.082  0.0679  0.3456 -0.2602
 2431SOL    HW1 9015   7.272   7.855   3.069 -0.4551  0.2028  2.7598
 2431SOL    HW2 9016   7.417   7.832   3.105 -0.1220  0.8112  1.8504
 2432SOL     OW 9017   5.073   0.284   8.700 -0.2002  0.4475 -0.0053
 2432SOL    HW1 9018   5.113   0.340   8.634  2.4373  0.5866  1.5547
 2432SOL    HW2 9019   5.047   0.205   8.652  1.5757  0.5616 -1.2502
 2433SOL     OW 9020   2.376   1.614   0.999 -0.4050  0.0239  0.3082
 2433SOL    HW1 9021   2.394   1.707   1.012 -0.6731  0.1766 -0.3396
 2433SOL    HW2 9022   2.367   1.605   0.904  1.3294 -0.9754  0.1940
 2434SOL     OW 9023   8.148   4.811   6.540 -0.6545 -0.6909  0.8180
 2434SOL    HW1 9024   8.122   4.723   6.513 -0.2063 -0.3249 -0.9104
 2434SOL    HW2 9025   8.201   4.797   6.619 -1.0842 -1.9089  0.9088
 2435SOL     OW 9026   0.412   0.184   6.683 -0.5194  0.4577 -0.0551
 2435SOL    HW1 9027   0.346   0.177   6.751  0.2400 -1.2839  0.5640
 2435SOL    HW2 9028   0.366   0.158   6.603 -1.0059  0.9367  0.0615
 2436SOL     OW 9029   1.007   4.891   6.659 -0.3251  0.1119 -0.0773
 2436SOL    HW1 9030   0.953   4.818   6.688  0.5889 -1.5762 -2.3183
 2436SOL    HW2 9031   1.095   4.854   6.653  0.5328  1.9536  0.5570
 2437SOL     OW 9032   1.515   6.931   5.308  0.4921  0.1626 -0.2349
 2437SOL    HW1 9033   1.572   6.905   5.236  0.1766  0.8642 -0.7632
 2437SOL    HW2 9034   1.566   6.918   5.387  0.5924 -1.3192 -0.5272
 2438SOL     OW 9035   4.314   3.055   7.801 -0.1669 -0.3703  0.0324
 2438SOL    HW1 9036   4.332   3.065   7.707  0.0294 -1.6611 -0.0809
 2438SOL    HW2 9037   4.350   3.135   7.840 -0.7696  0.4602 -1.0491
 2439SOL     OW 9038   5.613   5.946   3.894 -0.0443  0.3713 -0.3906
 2439SOL    HW1 9039   5.541   5.932   3.833  0.7422  0.3302 -1.3357
 2439SOL    HW2 9040   5.674   5.875   3.876  0.3443  0.5469  0.2239
 2440SOL     OW 9041   2.131   5.906   5.207 -0.5709  0.0934 -0.3666
 2440SOL    HW1 9042   2.226   5.923   5.211 -0.3852 -0.8437 -0.6092
 2440SOL    HW2 9043   2.116   5.840   5.274 -1.3375  1.3688  0.7725
 2441SOL     OW 9044   6.907   4.661   7.471  0.3669  0.3015 -0.2117
 2441SOL    HW1 9045   6.972   4.635   7.536  0.0664 -1.0993 -0.4559
 2441SOL    HW2 9046   6.826   4.620   7.500 -0.1871  1.1796 -0.4802
 2442SOL     OW 9047   5.569   1.838   2.799  0.5379 -0.3956 -0.2324
 2442SOL    HW1 9048   5.588   1.910   2.859 -1.6960 -0.7279  1.0147
 2442SOL    HW2 9049   5.641   1.776   2.811 -0.1446 -0.7683  2.7198
 2443SOL     OW 9050   9.370   1.975   4.412 -0.3727 -0.1901 -0.0027
 2443SOL    HW1 9051   9.349   2.062   4.379  2.5291  0.7440  0.3407
 2443SOL    HW2 9052   9.439   1.943   4.353  0.1823 -1.3087  1.2103
 2444SOL     OW 9053   4.038   7.317   4.575 -0.8058 -0.6575 -0.6084
 2444SOL    HW1 9054   4.046   7.286   4.665 -0.4002 -3.4651 -1.5204
 2444SOL    HW2 9055   3.997   7.244   4.528 -0.3681  0.4411 -2.8305
 2445SOL     OW 9056   8.148   0.395   6.055 -0.6214  0.2748  0.4347
 2445SOL    HW1 9057   8.182   0.484   6.060  1.2125 -0.3857  0.3923
 2445SOL    HW2 9058   8.110   0.389   5.967 -2.2315  1.4672  0.9979
 2446SOL     OW 9059   9.489   1.748   6.574 -0.6815 -0.0707  0.6002
 2446SOL    HW1 9060   9.442   1.665   6.572 -1.7447  0.4821  1.6857
 2446SOL    HW2 9061   9.544   1.743   6.653  0.5223 -0.3907 -0.2270
 2447SOL     OW 9062   2.380   6.367   6.711  0.1035 -0.1047 -0.3539
 2447SOL    HW1 9063   2.391   6.395   6.620 -0.9213 -2.2891 -1.2272
 2447SOL    HW2 9064   2.413   6.276   6.712 -1.0223 -0.5316  1.1491
 2448SOL     OW 9065   6.438   2.996   4.949  0.2307 -0.4448 -0.1764
 2448SOL    HW1 9066   6.487   2.966   4.872  0.0930  3.1273 -1.8720
 2448SOL    HW2 9067   6.348   3.002   4.919  0.6064  4.1939 -1.1370
 2449SOL     OW 9068   1.752   7.471   2.915 -0.3941 -0.2722 -0.4625
 2449SOL    HW1 9069   1.750   7.381   2.883  2.7318 -0.0199 -1.7395
 2449SOL    HW2 9070   1.755   7.463   3.010 -0.4359 -1.5035 -0.5490
 2450SOL     OW 9071   0.496   4.413   5.697  0.3727 -0.6442 -0.3283
 2450SOL    HW1 9072   0.560   4.409   5.625  0.2098  1.6877 -0.6940
 2450SOL    HW2 9073   0.413   4.392   5.655  0.2291  1.0030 -0.9661
 2451SOL     OW 9074   7.966   1.460   7.316 -0.4592 -0.4463  0.2352
 2451SOL    HW1 9075   7.874   1.444   7.338 -0.5784 -0.7248 -0.4571
 2451SOL    HW2 9076   8.014   1.440   7.397 -0.9274 -1.0742  0.3647
 2452SOL     OW 9077   8.571   2.834   6.647 -0.1136 -0.2626  0.1048
 2452SOL    HW1 9078   8.556   2.910   6.591  0.1135 -0.0570  0.3236
 2452SOL    HW2 9079   8.581   2.761   6.586  0.6433  0.0451 -0.1509
 2453SOL     OW 9080   3.421   1.025   4.152 -0.6885  0.1942  0.1439
 2453SOL    HW1 9081   3.440   1.119   4.155 -0.6402  0.2041 -0.3925
 2453SOL    HW2 9082   3.328   1.019   4.176  0.0155  0.1017  3.2837
 2454SOL     OW 9083   6.663   6.831   3.374 -0.0954  0.2726 -0.0692
 2454SOL    HW1 9084   6.656   6.836   3.278  0.7717 -2.4486 -0.3494
 2454SOL    HW2 9085   6.757   6.836   3.391 -0.1399 -0.7048  0.5001
 2455SOL     OW 9086   0.237   1.061   5.389 -0.2891 -0.3240  0.6414
 2455SOL    HW1 9087   0.249   1.117   5.313  0.6033 -0.7581  0.4460
 2455SOL    HW2 9088   0.143   1.063   5.406 -0.1486  2.4205  1.5701
 2456SOL     OW 9089   6.295   3.576   5.102  0.1294  0.1431  0.2002
 2456SOL    HW1 9090   6.248   3.617   5.029 -1.0711  0.0648  0.9052
 2456SOL    HW2 9091   6.371   3.535   5.061  0.1221  1.1044 -0.8400
 2457SOL     OW 9092   6.248   9.366   4.658 -0.3771  0.0162  0.3703
 2457SOL    HW1 9093   6.242   9.312   4.579  1.5741  1.2208 -0.6876
 2457SOL    HW2 9094   6.264   9.455   4.625 -1.2252  0.8628  2.1095
 2458SOL     OW 9095   8.454   9.550   7.849 -0.2903  0.6584 -0.9845
 2458SOL    HW1 9096   8.369   9.509   7.832 -0.3571  0.0387  0.6575
 2458SOL    HW2 9097   8.433   9.640   7.873 -0.6413  0.1622  0.7063
 2459SOL     OW 9098   5.360   4.735   2.983  0.2482  0.3174  0.2331
 2459SOL    HW1 9099   5.426   4.754   2.916 -0.6987  1.3129 -0.4568
 2459SOL    HW2 9100   5.312   4.818   2.992 -1.3460 -0.5745  0.2040
 2460SOL     OW 9101   8.748   0.729   6.171  0.5492 -0.3424 -0.1684
 2460SOL    HW1 9102   8.768   0.648   6.123 -1.0618 -0.6348 -0.4222
 2460SOL    HW2 9103   8.653   0.726   6.183  0.6548  0.8127  1.1241
 2461SOL     OW 9104   7.409   0.157   3.950 -0.7501  0.0701 -0.0054
 2461SOL    HW1 9105   7.487   0.130   3.998 -1.4029 -0.9427  0.5105
 2461SOL    HW2 9106   7.443   0.212   3.879  0.4466 -0.5044  0.0950
 2462SOL     OW 9107   4.602   3.427   0.042  0.0442 -0.3613 -0.1917
 2462SOL    HW1 9108   4.518   3.458   0.009  0.1851  0.1493 -0.0726
 2462SOL    HW2 9109   4.632   3.496   0.102  0.5545 -0.5318 -0.2423
 2463SOL     OW 9110   6.088   5.393   7.487 -0.0045  0.1168  0.5741
 2463SOL    HW1 9111   6.087   5.310   7.534  0.3447  0.0450  0.4596
 2463SOL    HW2 9112   5.996   5.416   7.475 -0.2220 -1.6014 -1.7244
 2464SOL     OW 9113   5.391   3.181   8.490 -0.4680 -0.2617  0.5265
 2464SOL    HW1 9114   5.387   3.230   8.572  0.7265  1.0750 -0.1500
 2464SOL    HW2 9115   5.318   3.215   8.438 -0.0909  0.2983  0.3460
 2465SOL     OW 9116   6.279   0.593   2.647  0.1222  0.1570 -0.5864
 2465SOL    HW1 9117   6.234   0.602   2.731 -0.6653 -1.8141 -0.7472
 2465SOL    HW2 9118   6.372   0.603   2.668 -0.1766  1.5289  0.1963
 2466SOL     OW 9119   5.369   4.022   6.551 -0.2759 -0.2606 -0.4810
 2466SOL    HW1 9120   5.313   4.012   6.628 -0.8294 -1.9381 -1.0693
 2466SOL    HW2 9121   5.309   4.013   6.477  0.7541 -2.4208 -1.1282
 2467SOL     OW 9122   2.417   6.207   1.944  0.2752 -0.2499 -0.1014
 2467SOL    HW1 9123   2.434   6.216   1.851 -1.2419  1.4720 -0.2875
 2467SOL    HW2 9124   2.503   6.200   1.985  0.9544 -0.9967 -1.6228
 2468SOL     OW 9125   2.121   2.008   3.938 -0.1269  0.3058  0.4019
 2468SOL    HW1 9126   2.048   2.011   3.877  1.0142  1.2805 -0.9755
 2468SOL    HW2 9127   2.147   1.916   3.939  0.4743  0.4122 -1.4241
 2469SOL     OW 9128   7.596   7.273   1.393  0.2209 -0.1588  0.6209
 2469SOL    HW1 9129   7.618   7.306   1.480 -1.9354  2.7784  0.2134
 2469SOL    HW2 9130   7.646   7.329   1.333 -0.1157 -0.5465 -0.0359
 2470SOL     OW 9131   8.939   1.901   3.478 -0.4538  0.1220  0.3079
 2470SOL    HW1 9132   8.962   1.994   3.482  0.2869 -0.0958  1.1979
 2470SOL    HW2 9133   8.922   1.876   3.568  2.1433 -1.2944  0.4848
 2471SOL     OW 9134   3.369   3.676   2.232 -0.7549  0.1281 -0.3318
 2471SOL    HW1 9135   3.308   3.744   2.203  0.3456  2.4221  2.3035
 2471SOL    HW2 9136   3.443   3.682   2.170 -1.4078  0.1145 -1.1279
 2472SOL     OW 9137   1.119   5.535   5.832  0.2996 -0.3318 -0.4754
 2472SOL    HW1 9138   1.163   5.503   5.911  1.6971  1.3785 -0.5077
 2472SOL    HW2 9139   1.094   5.625   5.852 -1.0125 -0.4630 -1.3586
 2473SOL     OW 9140   9.135   9.587   6.701  0.0698 -0.1554  0.3959
 2473SOL    HW1 9141   9.190   9.509   6.687  3.1952  1.7101  1.3523
 2473SOL    HW2 9142   9.164   9.649   6.635 -2.8140  0.1320 -0.7632
 2474SOL     OW 9143   4.205   2.904   7.151 -0.2200 -0.2639  0.5392
 2474SOL    HW1 9144   4.225   2.904   7.057 -0.3613 -1.4386  0.5002
 2474SOL    HW2 9145   4.221   2.995   7.178  0.5383 -0.0714 -0.4627
 2475SOL     OW 9146   3.448   9.328   9.380 -0.0217  0.6707 -0.1326
 2475SOL    HW1 9147   3.452   9.376   9.297 -3.4200  0.1613 -0.7627
 2475SOL    HW2 9148   3.359   9.344   9.412  0.6867 -0.4492  2.6231
 2476SOL     OW 9149   8.850   1.424   3.371 -0.1240 -0.0468  0.1221
 2476SOL    HW1 9150   8.906   1.348   3.387 -0.2992 -0.0442  0.8082
 2476SOL    HW2 9151   8.768   1.402   3.415 -0.2660  0.4245  0.0942
 2477SOL     OW 9152   1.707   4.760   7.552 -0.6152  0.7506  0.3516
 2477SOL    HW1 9153   1.728   4.798   7.637 -0.7891  0.6805  0.4261
 2477SOL    HW2 9154   1.687   4.668   7.571 -0.8534  0.7845  0.2615
 2478SOL     OW 9155   1.403   4.618   3.643 -0.4821  0.3040  0.0661
 2478SOL    HW1 9156   1.316   4.622   3.685 -0.1578  1.3033  0.6774
 2478SOL    HW2 9157   1.422   4.708   3.619 -0.0504 -0.0637 -1.0151
 2479SOL     OW 9158   7.155   6.911   3.057 -0.4447 -0.3217 -0.3152
 2479SOL    HW1 9159   7.162   6.849   2.985  0.1917  0.8791 -1.3176
 2479SOL    HW2 9160   7.180   6.860   3.135 -1.3182 -1.6790 -0.8787
 2480SOL     OW 9161   6.222   0.200   4.434 -0.0630  0.6845  0.7074
 2480SOL    HW1 9162   6.232   0.188   4.340 -0.9080  0.7142  0.6049
 2480SOL    HW2 9163   6.155   0.268   4.443 -1.9675 -1.1411  1.3191
 2481SOL     OW 9164   7.660   3.159   4.549 -0.4141 -0.6125  0.1920
 2481SOL    HW1 9165   7.606   3.081   4.561  0.8521 -1.7850 -1.3387
 2481SOL    HW2 9166   7.721   3.158   4.622  0.0018 -1.4150 -0.1651
 2482SOL     OW 9167   4.904   3.494   3.752 -0.1506 -0.6934  0.3526
 2482SOL    HW1 9168   4.869   3.407   3.770 -0.9587 -0.5116 -0.3115
 2482SOL    HW2 9169   4.863   3.521   3.670 -0.6268  0.6901  1.0061
 2483SOL     OW 9170   0.837   0.185   4.374 -0.2008  0.1475  0.0043
 2483SOL    HW1 9171   0.755   0.145   4.402 -0.8843  1.5777  0.1220
 2483SOL    HW2 9172   0.826   0.278   4.392  1.2960  0.4286 -0.3652
 2484SOL     OW 9173   4.297   0.802   8.003 -0.2851 -0.1939 -0.1934
 2484SOL    HW1 9174   4.224   0.801   8.065 -0.1814  0.6521 -0.0415
 2484SOL    HW2 9175   4.270   0.743   7.933 -0.6168 -0.7811  0.4138
 2485SOL     OW 9176   3.848   7.111   1.342 -0.3678 -0.2234  0.1497
 2485SOL    HW1 9177   3.905   7.173   1.388 -0.6531  0.7422 -0.7612
 2485SOL    HW2 9178   3.908   7.059   1.288 -0.3193  0.7869 -0.8002
 2486SOL     OW 9179   7.014   5.649   5.706 -0.3911 -0.0353  0.3971
 2486SOL    HW1 9180   6.982   5.637   5.795  0.1373 -0.2724  0.5566
 2486SOL    HW2 9181   6.975   5.733   5.678 -1.6244 -0.5894  0.3630
 2487SOL     OW 9182   8.021   5.728   3.826 -0.0046 -0.3297  0.8257
 2487SOL    HW1 9183   8.028   5.646   3.875  0.1360  1.4350  4.0148
 2487SOL    HW2 9184   8.108   5.742   3.789  0.1128 -1.3222  0.6983
 2488SOL     OW 9185   9.184   4.736   0.257  0.5418  0.1707  0.5197
 2488SOL    HW1 9186   9.210   4.827   0.239  0.6624 -0.1812 -1.2705
 2488SOL    HW2 9187   9.095   4.730   0.222  0.7601 -0.5551  0.0757
 2489SOL     OW 9188   4.192   7.327   1.772 -0.2637 -0.3511  0.0959
 2489SOL    HW1 9189   4.148   7.383   1.708 -0.2563 -0.2621  0.1696
 2489SOL    HW2 9190   4.128   7.316   1.842  0.1060  0.3920  0.5566
 2490SOL     OW 9191   0.495   5.612   3.787  0.3726 -0.2194  0.0940
 2490SOL    HW1 9192   0.528   5.700   3.770 -1.5740  0.5903  0.2461
 2490SOL    HW2 9193   0.573   5.561   3.810  1.5215  1.4985  0.1739
 2491SOL     OW 9194   0.799   6.760   6.671  0.3289 -0.0924 -0.2450
 2491SOL    HW1 9195   0.802   6.809   6.589 -0.3511 -0.7602 -0.6945
 2491SOL    HW2 9196   0.708   6.770   6.701  0.3379 -0.5679 -0.0422
 2492SOL     OW 9197   7.651   1.303   6.572 -0.0444  0.3529  0.1127
 2492SOL    HW1 9198   7.576   1.267   6.619 -1.7941  0.9026 -2.0544
 2492SOL    HW2 9199   7.652   1.396   6.597  1.0212  0.0118  1.4404
 2493SOL     OW 9200   7.402   1.934   2.842 -0.0257 -0.1043  0.0895
 2493SOL    HW1 9201   7.360   1.869   2.898  0.2868 -0.4483 -0.0731
 2493SOL    HW2 9202   7.461   1.982   2.900  1.2987 -1.3270 -0.1799
 2494SOL     OW 9203   6.021   1.093   2.746  0.4064  0.4112 -0.5636
 2494SOL    HW1 9204   6.098   1.149   2.747  0.0100  0.9776  0.4254
 2494SOL    HW2 9205   5.947   1.153   2.741 -0.0369  0.0340  0.8049
 2495SOL     OW 9206   2.909   1.450   8.772  0.2038 -0.5435 -0.7974
 2495SOL    HW1 9207   2.865   1.370   8.742  1.8404 -0.7544 -2.8667
 2495SOL    HW2 9208   2.912   1.506   8.694  2.3319 -0.0117 -0.4030
 2496SOL     OW 9209   2.721   4.923   0.468  0.2796  0.1695 -0.0690
 2496SOL    HW1 9210   2.763   5.003   0.500 -0.7065  0.9793 -0.7380
 2496SOL    HW2 9211   2.683   4.883   0.547 -1.8115  1.9482 -0.0820
 2497SOL     OW 9212   8.607   5.635   6.584 -0.3142  0.1574  0.1941
 2497SOL    HW1 9213   8.551   5.698   6.629 -0.0139 -0.4386  1.4477
 2497SOL    HW2 9214   8.669   5.688   6.535 -0.2279  0.8578  1.0321
 2498SOL     OW 9215   9.012   7.201   7.098 -0.6768  0.2544  0.0734
 2498SOL    HW1 9216   9.002   7.273   7.036  0.1392  1.0625  0.8434
 2498SOL    HW2 9217   8.930   7.152   7.091 -1.1430  1.1009 -0.6615
 2499SOL     OW 9218   1.343   7.288   3.542 -0.4384 -0.5006 -0.2818
 2499SOL    HW1 9219   1.265   7.243   3.575  1.0516 -2.2744  1.0502
 2499SOL    HW2 9220   1.380   7.331   3.620 -0.3605  0.8002 -1.0113
 2500SOL     OW 9221   3.094   1.812   1.530  0.0161  0.0089 -0.5746
 2500SOL    HW1 9222   3.162   1.771   1.477 -1.9463 -1.1965 -2.3135
 2500SOL    HW2 9223   3.059   1.740   1.584 -0.6175  0.3481 -0.5263
 2501SOL     OW 9224   4.553   7.262   7.888  0.1493 -0.1014  0.1374
 2501SOL    HW1 9225   4.458   7.257   7.884  0.0762 -0.2200  1.5184
 2501SOL    HW2 9226   4.571   7.319   7.962  1.1514 -0.9938  0.6078
 2502SOL     OW 9227   1.177   4.409   0.861 -0.7738 -0.0849 -0.1347
 2502SOL    HW1 9228   1.245   4.385   0.798  0.4697  0.1124  1.0822
 2502SOL    HW2 9229   1.190   4.503   0.877  0.9156 -0.6481  2.5706
 2503SOL     OW 9230   4.480   1.841   1.383  0.2692 -0.0451  0.5340
 2503SOL    HW1 9231   4.455   1.933   1.391  0.2944 -0.1701  2.5699
 2503SOL    HW2 9232   4.573   1.839   1.405  0.4500 -0.4687 -0.2443
 2504SOL     OW 9233   4.160   2.107   9.579 -0.2743  0.2190  0.3668
 2504SOL    HW1 9234   4.225   2.067   9.637 -1.0307  0.0452  1.1228
 2504SOL    HW2 9235   4.078   2.065   9.603 -0.8267  1.1255  0.0976
 2505SOL     OW 9236   2.492   3.251   7.195  0.2274  0.1591 -0.4445
 2505SOL    HW1 9237   2.480   3.214   7.283 -1.9313 -0.5399 -0.9817
 2505SOL    HW2 9238   2.514   3.343   7.211 -2.7543  0.7498  0.8815
 2506SOL     OW 9239   8.542   6.414   4.102 -0.4750 -0.5105  0.2701
 2506SOL    HW1 9240   8.620   6.417   4.157  0.3268  0.1396 -0.8718
 2506SOL    HW2 9241   8.525   6.321   4.089 -0.3389 -0.6631  1.1311
 2507SOL     OW 9242   6.849   2.201   5.675  0.1986 -0.1759  0.8220
 2507SOL    HW1 9243   6.831   2.190   5.582 -1.4350 -0.2510  1.1001
 2507SOL    HW2 9244   6.931   2.249   5.679  0.4074 -0.3629 -0.6464
 2508SOL     OW 9245   5.128   7.404   5.358 -0.3883  0.4450  0.2519
 2508SOL    HW1 9246   5.222   7.397   5.371  0.0757  3.8088 -0.3878
 2508SOL    HW2 9247   5.118   7.452   5.275 -2.7165 -0.7830 -0.2722
 2509SOL     OW 9248   7.936   6.580   0.204 -0.4326 -0.3138  0.3611
 2509SOL    HW1 9249   7.968   6.666   0.228 -0.8818  0.0144 -0.1935
 2509SOL    HW2 9250   8.007   6.541   0.152 -1.0508  0.5810 -1.2411
 2510SOL     OW 9251   7.668   3.332   9.351  0.2856 -0.1155  0.4391
 2510SOL    HW1 9252   7.574   3.314   9.353  0.1892  0.4023  0.6378
 2510SOL    HW2 9253   7.685   3.380   9.431  0.7266 -0.2249  0.4101
 2511SOL     OW 9254   4.645   6.715   4.110  0.0435 -0.5301 -0.5506
 2511SOL    HW1 9255   4.652   6.624   4.141 -0.5300 -0.1764  0.6538
 2511SOL    HW2 9256   4.607   6.763   4.183 -1.3979  0.3497 -1.8133
 2512SOL     OW 9257   1.957   9.224   2.474 -0.5149  0.7851 -0.2113
 2512SOL    HW1 9258   1.941   9.317   2.491 -1.0509  0.7512 -0.4970
 2512SOL    HW2 9259   1.906   9.205   2.395  0.9666  0.6640 -1.1836
 2513SOL     OW 9260   7.399   3.688   6.145 -0.1308  0.6195  0.5139
 2513SOL    HW1 9261   7.348   3.646   6.215 -1.5181  0.6834 -0.4151
 2513SOL    HW2 9262   7.334   3.734   6.093  0.6722 -0.4299 -1.5277
 2514SOL     OW 9263   4.361   6.820   7.876  0.6334 -0.0783 -0.5332
 2514SOL    HW1 9264   4.403   6.747   7.922  0.9158 -0.6230 -1.6196
 2514SOL    HW2 9265   4.324   6.874   7.946  1.5616 -0.5551  0.3530
 2515SOL     OW 9266   0.849   9.155   1.206  0.2189 -0.4406 -0.4496
 2515SOL    HW1 9267   0.781   9.088   1.203  0.1821 -0.3800 -1.1690
 2515SOL    HW2 9268   0.804   9.235   1.234 -0.1794 -0.2104 -1.7044
 2516SOL     OW 9269   1.246   5.392   4.873  0.1573  0.0491 -0.1703
 2516SOL    HW1 9270   1.321   5.428   4.826 -0.3003  0.1565 -0.8297
 2516SOL    HW2 9271   1.243   5.300   4.845 -0.4469  0.2505 -0.7968
 2517SOL     OW 9272   2.295   5.950   4.927 -0.0527 -0.2381  0.1923
 2517SOL    HW1 9273   2.244   5.903   4.994 -0.9649  0.0070 -0.3125
 2517SOL    HW2 9274   2.267   5.911   4.844  0.1222  0.3382 -0.1392
 2518SOL     OW 9275   5.123   0.908   9.199  0.7846  0.4812  0.2015
 2518SOL    HW1 9276   5.157   0.819   9.201 -2.4892 -0.9615 -1.2646
 2518SOL    HW2 9277   5.114   0.932   9.291  2.9908 -0.0780  0.6244
 2519SOL     OW 9278   7.121   2.119   6.921  0.6270  0.0572  0.5210
 2519SOL    HW1 9279   7.170   2.153   6.995 -0.2102 -1.0047  1.6046
 2519SOL    HW2 9280   7.095   2.030   6.947 -1.6164  0.4590 -0.0952
 2520SOL     OW 9281   8.497   5.422   3.192 -0.0808  0.4681  0.1316
 2520SOL    HW1 9282   8.470   5.389   3.278  0.3404 -1.4703 -0.4436
 2520SOL    HW2 9283   8.578   5.376   3.173 -0.0915  0.9889 -1.2613
 2521SOL     OW 9284   8.370   8.545   5.022  0.0400  0.2180 -0.3190
 2521SOL    HW1 9285   8.279   8.540   4.993 -0.6677  0.1963  1.7189
 2521SOL    HW2 9286   8.404   8.625   4.982 -0.7906  0.1038 -1.2881
 2522SOL     OW 9287   3.468   0.670   8.734  0.4411 -0.4894 -0.2719
 2522SOL    HW1 9288   3.528   0.744   8.744 -1.5409  1.2593 -0.5501
 2522SOL    HW2 9289   3.516   0.607   8.680  1.2483  1.8095 -2.4515
 2523SOL     OW 9290   6.593   1.350   9.426 -0.0987 -0.3051 -0.6165
 2523SOL    HW1 9291   6.602   1.264   9.468  1.1416  0.9466  1.9011
 2523SOL    HW2 9292   6.539   1.400   9.486 -1.7393  0.4069 -2.5969
 2524SOL     OW 9293   2.667   6.063   0.829  0.6790 -0.6373 -0.1247
 2524SOL    HW1 9294   2.628   5.977   0.844  0.8705 -0.6471  0.3042
 2524SOL    HW2 9295   2.608   6.124   0.873  0.6217 -0.5585 -0.3070
 2525SOL     OW 9296   2.249   4.012   7.120  0.4309  0.0851  0.0068
 2525SOL    HW1 9297   2.257   3.975   7.032  0.6051 -0.0287  0.0709
 2525SOL    HW2 9298   2.159   3.993   7.146 -0.2924  1.8977 -0.9557
 2526SOL     OW 9299   8.643   8.460   1.388  0.2803  0.0700 -0.2826
 2526SOL    HW1 9300   8.685   8.481   1.472  2.2718  1.2753 -1.4867
 2526SOL    HW2 9301   8.706   8.489   1.322 -1.5567 -0.1068 -2.2289
 2527SOL     OW 9302   8.895   2.690   5.321  0.1577 -0.1540 -0.2847
 2527SOL    HW1 9303   8.826   2.742   5.280 -0.5449 -0.6272  0.2969
 2527SOL    HW2 9304   8.906   2.729   5.407 -0.8892 -1.4139  0.4410
 2528SOL     OW 9305   8.029   2.481   8.873 -0.2705  1.0418 -0.9821
 2528SOL    HW1 9306   7.954   2.432   8.840  1.1597 -1.6917 -0.4397
 2528SOL    HW2 9307   8.024   2.565   8.826 -2.5070  0.2007 -2.4479
 2529SOL     OW 9308   3.763   3.346   6.079 -0.6269  0.5995  0.2346
 2529SOL    HW1 9309   3.757   3.430   6.033  3.0839  0.4309 -0.8691
 2529SOL    HW2 9310   3.777   3.282   6.010  1.4777 -0.1878  1.3166
 2530SOL     OW 9311   1.608   8.963   2.713 -0.3965  0.4938  0.5339
 2530SOL    HW1 9312   1.683   8.954   2.771  0.6440 -0.2700 -0.8816
 2530SOL    HW2 9313   1.572   9.049   2.734  0.1901  0.4130  1.9988
 2531SOL     OW 9314   3.001   0.369   1.126 -0.0591  0.5033 -0.0718
 2531SOL    HW1 9315   2.975   0.287   1.086 -0.8414  1.2546 -1.1625
 2531SOL    HW2 9316   3.074   0.346   1.184  0.8896 -0.6878 -1.6578
 2532SOL     OW 9317   1.613   8.038   2.393  0.0615  0.1227  0.8215
 2532SOL    HW1 9318   1.574   8.090   2.463 -0.7372 -0.0983  0.5572
 2532SOL    HW2 9319   1.541   8.024   2.330  0.1524 -1.5334  1.0263
 2533SOL     OW 9320   2.181   2.203   7.431  0.0208 -0.3758  0.2535
 2533SOL    HW1 9321   2.219   2.181   7.516 -0.6224 -2.0464  0.1660
 2533SOL    HW2 9322   2.175   2.298   7.430  2.7128 -0.1227  0.8841
 2534SOL     OW 9323   8.313   5.769   5.053 -0.5279  0.1799 -0.4029
 2534SOL    HW1 9324   8.339   5.767   5.145 -0.9006  0.4256 -0.2899
 2534SOL    HW2 9325   8.383   5.819   5.009 -0.0346 -0.4610 -0.3622
 2535SOL     OW 9326   9.065   8.909   3.147  0.1633  0.2131 -0.4372
 2535SOL    HW1 9327   9.071   8.844   3.217 -1.0452 -0.6828 -1.1254
 2535SOL    HW2 9328   9.071   8.993   3.193 -1.8714 -0.3059  0.9608
 2536SOL     OW 9329   1.227   2.109   7.903 -0.2550 -0.5476  0.0452
 2536SOL    HW1 9330   1.276   2.142   7.827  0.5936 -0.7252  0.4953
 2536SOL    HW2 9331   1.143   2.153   7.899 -0.4406 -0.9661 -1.3177
 2537SOL     OW 9332   0.050   4.498   5.086 -0.1626  0.1287  0.2527
 2537SOL    HW1 9333  -0.041   4.525   5.082  0.1220  1.3106 -4.8790
 2537SOL    HW2 9334   0.047   4.402   5.088 -1.4597  0.1564  0.4306
 2538SOL     OW 9335   5.156   0.309   9.570 -1.0067 -0.2506 -0.2205
 2538SOL    HW1 9336   5.120   0.230   9.611  1.4895 -1.3122  0.1196
 2538SOL    HW2 9337   5.216   0.276   9.503 -1.9199  1.4369 -1.9774
 2539SOL     OW 9338   5.003   5.690   8.996 -0.9287  0.3141 -0.1817
 2539SOL    HW1 9339   4.922   5.733   9.024 -0.2913  0.3235  1.7989
 2539SOL    HW2 9340   5.072   5.737   9.043 -0.0984 -1.9531  1.0347
 2540SOL     OW 9341   3.449   7.187   1.476 -0.1277  0.0241  0.2373
 2540SOL    HW1 9342   3.468   7.226   1.561  1.1657  0.1591 -0.0931
 2540SOL    HW2 9343   3.391   7.250   1.433 -0.9002 -0.1095  1.0512
 2541SOL     OW 9344   1.602   9.566   4.700  0.1557  0.0409  0.0132
 2541SOL    HW1 9345   1.684   9.591   4.657  0.2867 -0.4173 -0.0055
 2541SOL    HW2 9346   1.536   9.571   4.631  0.1201  0.6433  0.0820
 2542SOL     OW 9347   1.929   7.280   4.717  0.0098 -0.2155 -0.0287
 2542SOL    HW1 9348   1.883   7.294   4.634  1.3568 -0.6747 -0.8906
 2542SOL    HW2 9349   2.017   7.313   4.701 -0.0132  0.7734  1.6214
 2543SOL     OW 9350   9.237   6.414   5.882  0.0910 -0.5485 -0.0883
 2543SOL    HW1 9351   9.159   6.379   5.839  0.7569  0.3675 -2.1869
 2543SOL    HW2 9352   9.297   6.433   5.810  1.3645  0.9374  1.2981
 2544SOL     OW 9353   5.044   6.114   1.800 -0.3423 -0.3386  0.3850
 2544SOL    HW1 9354   5.100   6.142   1.873 -1.7701  0.2686  1.2893
 2544SOL    HW2 9355   5.064   6.021   1.789  1.0553 -0.0633  0.4865
 2545SOL     OW 9356   7.385   8.174   8.369  0.6426  0.5825  0.1580
 2545SOL    HW1 9357   7.425   8.141   8.449 -1.7568 -0.1611  1.1332
 2545SOL    HW2 9358   7.298   8.204   8.396  0.7554  2.9053 -1.6736
 2546SOL     OW 9359   7.667   0.003   4.918  0.5761  0.0349  0.4226
 2546SOL    HW1 9360   7.726   0.058   4.970  1.7064 -2.6700  2.1789
 2546SOL    HW2 9361   7.719  -0.075   4.897 -1.7199 -1.5202  0.2224
 2547SOL     OW 9362   5.850   2.480   1.433 -0.0847 -0.0561  0.5230
 2547SOL    HW1 9363   5.768   2.431   1.441 -0.6554  0.5026 -1.3638
 2547SOL    HW2 9364   5.827   2.568   1.463 -0.1007  0.0414  0.2195
 2548SOL     OW 9365   8.067   9.350   5.687 -0.1770 -0.4197 -0.4962
 2548SOL    HW1 9366   8.088   9.431   5.733 -0.5895 -0.5976  0.0262
 2548SOL    HW2 9367   7.991   9.372   5.634 -0.2230 -0.4306 -0.4358
 2549SOL     OW 9368   2.697   8.803   8.802 -0.0560  0.2227 -0.3053
 2549SOL    HW1 9369   2.702   8.731   8.739  0.1738  0.7137 -0.8556
 2549SOL    HW2 9370   2.645   8.767   8.875  2.1039 -1.3500  0.5919
 2550SOL     OW 9371   5.740   2.107   1.155 -0.5669 -0.4140  0.1067
 2550SOL    HW1 9372   5.674   2.040   1.134 -3.2161  1.6115  1.3520
 2550SOL    HW2 9373   5.804   2.101   1.084 -2.4768 -2.0475 -1.6087
 2551SOL     OW 9374   4.957   3.901   1.077  0.4501 -0.1347 -0.8818
 2551SOL    HW1 9375   5.002   3.874   1.157 -1.1992 -1.0155 -0.2273
 2551SOL    HW2 9376   4.867   3.919   1.104  0.1677  0.7918 -2.3186
 2552SOL     OW 9377   0.811   7.938   0.281  0.1142 -0.0755  0.2264
 2552SOL    HW1 9378   0.840   7.863   0.332 -1.2791 -0.8718 -0.1043
 2552SOL    HW2 9379   0.830   7.915   0.190  2.4458  1.2757  0.2902
 2553SOL     OW 9380   7.830   7.283   7.881  0.0758 -0.0556 -0.2413
 2553SOL    HW1 9381   7.893   7.344   7.919 -0.2028  0.9956 -1.4008
 2553SOL    HW2 9382   7.748   7.299   7.928 -0.1061  0.7918 -0.8264
 2554SOL     OW 9383   9.300   6.472   7.639 -0.0919  0.4325 -0.4854
 2554SOL    HW1 9384   9.385   6.500   7.604  0.8308 -1.9237 -0.2660
 2554SOL    HW2 9385   9.300   6.504   7.729  1.4068 -1.0769  0.1010
 2555SOL     OW 9386   6.676   7.792   5.508  0.0669 -0.2124 -0.3510
 2555SOL    HW1 9387   6.749   7.851   5.487  0.5268  0.0813  1.8916
 2555SOL    HW2 9388   6.598   7.845   5.489  0.4718  0.9365  0.9894
 2556SOL     OW 9389   7.654   1.401   4.580  0.2620  0.2317 -0.1532
 2556SOL    HW1 9390   7.695   1.486   4.561  1.5852 -0.7915 -2.2536
 2556SOL    HW2 9391   7.567   1.423   4.613  1.3780  2.4368  1.5737
 2557SOL     OW 9392   0.436   3.002   3.786  0.1002 -0.0082 -0.1018
 2557SOL    HW1 9393   0.450   3.012   3.692  1.1295 -0.3397 -0.0049
 2557SOL    HW2 9394   0.474   2.916   3.807  0.6181  0.4044  0.7359
 2558SOL     OW 9395   5.500   5.664   9.685 -0.1892  0.2504  0.4073
 2558SOL    HW1 9396   5.517   5.739   9.742  0.5368  0.5037 -0.1301
 2558SOL    HW2 9397   5.507   5.699   9.596 -0.3861 -0.3336  0.1572
 2559SOL     OW 9398   8.728   6.375   9.078 -0.2047 -0.0519  0.1228
 2559SOL    HW1 9399   8.710   6.301   9.021 -1.9426 -0.4046  1.0563
 2559SOL    HW2 9400   8.699   6.452   9.028 -0.1011 -0.1796 -0.1348
 2560SOL     OW 9401   0.957   7.466   1.315  0.2309  0.8794 -0.0903
 2560SOL    HW1 9402   0.945   7.408   1.240 -1.1643  1.3742 -0.2739
 2560SOL    HW2 9403   0.953   7.408   1.391  0.4493  0.5411 -0.3341
 2561SOL     OW 9404   6.063   4.284   4.040 -0.2536  0.2652 -0.5458
 2561SOL    HW1 9405   5.974   4.284   4.076 -0.6332  0.2629 -1.4369
 2561SOL    HW2 9406   6.072   4.197   4.001  0.5728 -0.1448  0.5421
 2562SOL     OW 9407   1.829   6.802   5.156  0.3984  0.2500  0.8404
 2562SOL    HW1 9408   1.818   6.879   5.100  2.0469 -0.2882 -0.3150
 2562SOL    HW2 9409   1.751   6.750   5.141  0.5362  0.3942 -0.5670
 2563SOL     OW 9410   2.613   2.796   8.438  0.2872 -0.3093 -0.9322
 2563SOL    HW1 9411   2.697   2.789   8.483 -0.2323  0.2662  0.1843
 2563SOL    HW2 9412   2.630   2.767   8.349  2.2805  2.3617 -1.5170
 2564SOL     OW 9413   5.714   1.510   2.586 -0.0509 -0.3530  0.3072
 2564SOL    HW1 9414   5.672   1.468   2.511 -0.2396 -0.3267  0.3982
 2564SOL    HW2 9415   5.769   1.441   2.624 -0.3160 -0.5030  0.4228
 2565SOL     OW 9416   8.773   7.019   4.653 -0.1736  0.2030 -0.4678
 2565SOL    HW1 9417   8.783   7.044   4.744  1.9750  0.1984 -0.6503
 2565SOL    HW2 9418   8.713   6.944   4.655 -0.3238  0.3432  0.9037
 2566SOL     OW 9419   4.485   9.501   4.076 -0.3152 -0.5372 -0.2285
 2566SOL    HW1 9420   4.552   9.450   4.121 -1.0780 -1.4623 -0.1151
 2566SOL    HW2 9421   4.511   9.592   4.088  1.1473 -0.8933 -0.5520
 2567SOL     OW 9422   9.684   3.306   3.037  0.1537  0.3264 -0.4760
 2567SOL    HW1 9423   9.715   3.372   3.100 -0.7838 -0.1562  0.5256
 2567SOL    HW2 9424   9.589   3.310   3.043  0.0511  0.2323 -1.8580
 2568SOL     OW 9425   2.459   8.858   6.673  0.3125 -0.1749 -0.0897
 2568SOL    HW1 9426   2.384   8.816   6.633  0.5943 -0.3539 -0.4360
 2568SOL    HW2 9427   2.470   8.940   6.624  1.6597 -1.1499 -1.5094
 2569SOL     OW 9428   3.251   7.668   3.717 -0.1364 -0.0305 -0.4121
 2569SOL    HW1 9429   3.309   7.621   3.777 -0.8336 -1.0416 -0.5152
 2569SOL    HW2 9430   3.244   7.756   3.755  0.3592 -0.3108  0.3555
 2570SOL     OW 9431   8.169   4.235   4.998 -0.0894  0.0511  0.1706
 2570SOL    HW1 9432   8.244   4.294   5.005 -0.9845  1.3980 -1.1000
 2570SOL    HW2 9433   8.208   4.147   4.997  1.2245  0.4789  2.9323
 2571SOL     OW 9434   0.420   4.375   6.272  0.9218 -0.1065 -0.1665
 2571SOL    HW1 9435   0.332   4.341   6.290  1.5282 -1.9497 -0.5401
 2571SOL    HW2 9436   0.422   4.385   6.177  0.5019  1.8040 -0.0199
 2572SOL     OW 9437   1.712   9.319   3.967 -0.5720  0.0922  0.5103
 2572SOL    HW1 9438   1.667   9.377   4.029 -1.3352 -2.0007  2.0273
 2572SOL    HW2 9439   1.805   9.340   3.978 -0.8282  1.0187  1.0238
 2573SOL     OW 9440   8.593   7.696   2.319 -0.4433  0.2444  0.1078
 2573SOL    HW1 9441   8.676   7.651   2.309 -1.0664 -1.0573  0.5271
 2573SOL    HW2 9442   8.581   7.744   2.237  0.0038 -0.8022 -0.5891
 2574SOL     OW 9443   4.985   8.107   6.616  0.5531  0.1891  0.0554
 2574SOL    HW1 9444   5.051   8.176   6.627  0.5834  0.2372 -0.4101
 2574SOL    HW2 9445   4.914   8.133   6.675  0.4728  0.7348 -0.2731
 2575SOL     OW 9446   0.648   1.428   3.612 -0.4536 -0.2816  0.3265
 2575SOL    HW1 9447   0.689   1.402   3.695  1.3772 -1.2740 -0.8259
 2575SOL    HW2 9448   0.714   1.481   3.568 -1.0588 -0.4930 -0.8751
 2576SOL     OW 9449   1.499   6.621   5.504  0.0632  0.1344  0.1815
 2576SOL    HW1 9450   1.471   6.620   5.413  1.0012 -4.3467 -0.3279
 2576SOL    HW2 9451   1.595   6.612   5.499  0.0645 -0.8609  1.5399
 2577SOL     OW 9452   5.300   7.779   5.147 -0.2753  0.6385  0.1213
 2577SOL    HW1 9453   5.383   7.768   5.193 -1.5299 -2.0826  2.0273
 2577SOL    HW2 9454   5.316   7.743   5.060  0.8299  1.1813  0.0855
 2578SOL     OW 9455   4.529   4.598   3.407 -0.0532  0.9140  0.3973
 2578SOL    HW1 9456   4.521   4.650   3.487  0.5325 -0.8044  1.6211
 2578SOL    HW2 9457   4.461   4.633   3.349 -1.5186  1.2277  2.2001
 2579SOL     OW 9458   5.954   4.783   9.219  0.5689 -0.2095 -0.0347
 2579SOL    HW1 9459   6.024   4.720   9.237  0.2779 -0.7679 -0.8177
 2579SOL    HW2 9460   5.941   4.779   9.124 -1.1703 -0.8062  0.1911
 2580SOL     OW 9461   2.878   2.006   5.193  0.4197  0.2353 -0.1830
 2580SOL    HW1 9462   2.800   1.956   5.218 -0.6882  1.5982 -0.7599
 2580SOL    HW2 9463   2.944   1.940   5.172 -1.0584 -1.0055 -1.1378
 2581SOL     OW 9464   3.532   9.140   1.564  0.2723  0.1496  0.2409
 2581SOL    HW1 9465   3.471   9.066   1.563 -0.4907  0.7123  1.8677
 2581SOL    HW2 9466   3.591   9.123   1.638  2.6720 -0.7666 -1.7376
 2582SOL     OW 9467   8.211   3.474   4.416  0.2448 -0.9885  0.1229
 2582SOL    HW1 9468   8.280   3.414   4.387  0.9627 -0.7609  1.2714
 2582SOL    HW2 9469   8.130   3.423   4.408  0.7808 -1.9382  0.5386
 2583SOL     OW 9470   1.044   7.404   0.372 -0.3956 -0.1443  0.4716
 2583SOL    HW1 9471   0.981   7.343   0.333  0.6648 -0.9591  0.0088
 2583SOL    HW2 9472   1.069   7.461   0.299 -1.1415  0.6677  0.8296
 2584SOL     OW 9473   2.002   4.846   1.665  0.2715  0.3430  0.1357
 2584SOL    HW1 9474   2.046   4.762   1.659  3.0382  1.6687  0.3697
 2584SOL    HW2 9475   1.969   4.863   1.576 -1.0659 -1.2754  0.2738
 2585SOL     OW 9476   4.165   2.414   4.399 -0.2969 -0.6481  0.5341
 2585SOL    HW1 9477   4.227   2.342   4.405 -0.0414 -0.7441 -2.2154
 2585SOL    HW2 9478   4.172   2.445   4.309 -1.4407  1.8911  1.2163
 2586SOL     OW 9479   4.529   8.891   2.502  0.5456  0.5103  0.0486
 2586SOL    HW1 9480   4.536   8.812   2.449  0.6934  1.2151 -1.0126
 2586SOL    HW2 9481   4.437   8.917   2.493  0.5653  0.6146  0.1568
 2587SOL     OW 9482   2.013   8.506   7.092  0.0499 -0.2487 -0.4192
 2587SOL    HW1 9483   1.973   8.430   7.050  0.1023 -0.1306 -0.6865
 2587SOL    HW2 9484   2.074   8.469   7.155 -0.0654 -0.4296 -0.4139
 2588SOL     OW 9485   4.521   4.341   8.923 -0.1145 -0.0390 -0.0647
 2588SOL    HW1 9486   4.526   4.330   9.018 -2.1689  1.3493  0.2539
 2588SOL    HW2 9487   4.449   4.285   8.896  0.0256  0.0888 -0.7176
 2589SOL     OW 9488   9.499   1.044   0.069 -0.3818  1.1864  0.2557
 2589SOL    HW1 9489   9.512   1.093   0.150 -0.6984 -1.1835  1.8462
 2589SOL    HW2 9490   9.559   0.969   0.077 -1.0494  0.4506 -1.3108
 2590SOL     OW 9491   6.456   0.481   1.095  0.2827 -0.0221  0.2013
 2590SOL    HW1 9492   6.402   0.402   1.090  0.2380  0.0098  0.1713
 2590SOL    HW2 9493   6.450   0.509   1.186  0.9695 -0.5163  0.4027
 2591SOL     OW 9494   3.748   2.648   1.395  0.3654 -0.4897  0.0876
 2591SOL    HW1 9495   3.779   2.629   1.484  0.5547  0.7418  0.2971
 2591SOL    HW2 9496   3.828   2.657   1.343  0.4194  1.9875  0.4830
 2592SOL     OW 9497   8.793   6.266   0.107 -0.0051 -0.0545 -0.7801
 2592SOL    HW1 9498   8.746   6.347   0.126  1.3100  0.8267 -1.1146
 2592SOL    HW2 9499   8.738   6.221   0.043 -3.0309 -1.6504  2.5861
 2593SOL     OW 9500   5.686   2.465   8.102 -0.1015  0.0381 -0.0505
 2593SOL    HW1 9501   5.619   2.414   8.057  2.2681 -2.7964 -0.6160
 2593SOL    HW2 9502   5.694   2.545   8.051 -2.2197 -0.0444 -0.6016
 2594SOL     OW 9503   8.347   8.903   7.162 -0.8922  0.4609  0.5680
 2594SOL    HW1 9504   8.408   8.960   7.116 -1.4406 -0.3685 -1.3110
 2594SOL    HW2 9505   8.401   8.856   7.226  0.1707  0.7122 -0.1219
 2595SOL     OW 9506   5.925   3.042   8.942  0.1581  0.0160 -0.5965
 2595SOL    HW1 9507   5.873   3.102   8.890 -0.0140  0.1531 -0.2673
 2595SOL    HW2 9508   6.008   3.034   8.894 -0.2477 -0.3844 -1.2400
 2596SOL     OW 9509   5.342   1.863   4.726  0.1797  0.6337  0.7518
 2596SOL    HW1 9510   5.341   1.839   4.633 -1.1863 -0.5330  1.0257
 2596SOL    HW2 9511   5.372   1.953   4.727  0.6662  0.5242 -0.7858
 2597SOL     OW 9512   1.423   3.889   8.594  0.1759  0.1328 -0.3552
 2597SOL    HW1 9513   1.334   3.876   8.626  0.1286  0.9747 -0.1017
 2597SOL    HW2 9514   1.447   3.976   8.625  1.2730 -0.2800 -0.0023
 2598SOL     OW 9515   8.099   4.277   6.777  0.1631 -0.1758 -0.2993
 2598SOL    HW1 9516   8.040   4.201   6.778 -0.2437  0.0522  2.5999
 2598SOL    HW2 9517   8.056   4.339   6.719 -0.7266 -1.2710 -0.8616
 2599SOL     OW 9518   5.048   3.352   4.964  0.1173 -0.1059 -0.2170
 2599SOL    HW1 9519   5.012   3.353   5.052 -1.8121 -0.5437 -0.9449
 2599SOL    HW2 9520   5.060   3.445   4.942 -0.5150  0.0531  0.0869
 2600SOL     OW 9521   5.812   0.534   0.026 -0.4019  0.5641 -0.1890
 2600SOL    HW1 9522   5.749   0.606   0.023 -2.4284 -0.8052  3.3642
 2600SOL    HW2 9523   5.758   0.455   0.034  1.7021 -0.7744  2.1277
 2601SOL     OW 9524   6.305   4.331   4.182  0.2960 -0.2315 -0.4639
 2601SOL    HW1 9525   6.320   4.424   4.165 -1.0430  0.2287  0.7324
 2601SOL    HW2 9526   6.241   4.305   4.116  1.1551 -0.4998 -1.2196
 2602SOL     OW 9527   6.599   8.840   1.533 -0.2499 -0.0765  0.0296
 2602SOL    HW1 9528   6.671   8.780   1.513  0.0323 -0.2330  1.4065
 2602SOL    HW2 9529   6.529   8.783   1.566 -0.1340  0.2796  0.9332
 2603SOL     OW 9530   7.587   6.231   4.815 -0.7795  0.5467  0.5161
 2603SOL    HW1 9531   7.637   6.196   4.889 -0.5589  0.3431  0.2695
 2603SOL    HW2 9532   7.521   6.164   4.797 -0.6746  0.4826  0.3667
 2604SOL     OW 9533   5.032   2.798   2.391 -0.0203 -0.4062  0.4142
 2604SOL    HW1 9534   5.040   2.743   2.313 -0.6395  0.3689 -0.2089
 2604SOL    HW2 9535   5.103   2.861   2.384 -1.6434  1.4003 -0.9842
 2605SOL     OW 9536   5.048   2.279   5.991  0.4087  0.1528  0.1402
 2605SOL    HW1 9537   5.087   2.301   6.075  0.7371  0.6359 -0.1345
 2605SOL    HW2 9538   4.968   2.231   6.013  0.2967  0.6045  0.7317
 2606SOL     OW 9539   1.761   9.307   3.620  0.7834  0.2377 -0.1403
 2606SOL    HW1 9540   1.725   9.367   3.554 -1.8095  0.7410  1.5671
 2606SOL    HW2 9541   1.794   9.364   3.689 -0.2825 -0.2365  0.7960
 2607SOL     OW 9542   7.505   8.587   8.571  0.3810  0.3472 -0.4329
 2607SOL    HW1 9543   7.466   8.674   8.577 -0.8721 -0.2218  0.0355
 2607SOL    HW2 9544   7.478   8.555   8.485  0.4539  0.2478 -0.4187
 2608SOL     OW 9545   6.294   0.358   5.988 -0.4569  0.4855 -0.0290
 2608SOL    HW1 9546   6.210   0.312   5.984 -0.1077 -0.0979 -1.0101
 2608SOL    HW2 9547   6.330   0.334   6.073 -1.3066  0.8198  0.4491
 2609SOL     OW 9548   8.922   5.132   7.307  0.4852  0.1895 -0.0298
 2609SOL    HW1 9549   8.922   5.199   7.376 -0.9112 -0.5047  0.6723
 2609SOL    HW2 9550   9.010   5.095   7.310  0.8478  1.0586  0.4844
 2610SOL     OW 9551   1.808   8.158   6.680 -0.2568  0.7242  0.2102
 2610SOL    HW1 9552   1.836   8.221   6.613  0.0685 -0.8719 -1.2368
 2610SOL    HW2 9553   1.717   8.140   6.659 -0.2405  0.4357  0.3819
 2611SOL     OW 9554   2.915   9.589   2.149 -0.1276  0.3091  0.1411
 2611SOL    HW1 9555   2.835   9.640   2.161  0.4391  1.5053 -0.8972
 2611SOL    HW2 9556   2.892   9.522   2.085  0.2833  2.1854 -2.0856
 2612SOL     OW 9557   7.664   0.313   1.157  0.1015 -0.1373 -0.0830
 2612SOL    HW1 9558   7.577   0.279   1.140  0.3600  0.0483 -2.0531
 2612SOL    HW2 9559   7.708   0.244   1.207 -0.4073 -1.2912 -1.1934
 2613SOL     OW 9560   8.795   3.628   7.533 -0.2949 -0.3137 -0.4655
 2613SOL    HW1 9561   8.887   3.621   7.558 -0.7147  0.5827  1.5622
 2613SOL    HW2 9562   8.757   3.545   7.563 -0.1346 -0.7478 -1.4405
 2614SOL     OW 9563   5.168   7.496   1.843 -0.2050 -0.0431 -0.4027
 2614SOL    HW1 9564   5.228   7.567   1.819 -2.3733  1.7037 -1.0560
 2614SOL    HW2 9565   5.160   7.502   1.938 -0.9196  1.1489 -0.5094
 2615SOL     OW 9566   6.093   5.570   9.337 -0.8064 -0.5426 -0.4862
 2615SOL    HW1 9567   6.058   5.614   9.414  1.5352  1.9059 -0.7058
 2615SOL    HW2 9568   6.159   5.510   9.371  0.2077  0.5183 -0.5529
 2616SOL     OW 9569   9.494   2.737   2.538  0.4573  0.0080  0.1629
 2616SOL    HW1 9570   9.406   2.761   2.508 -0.0586 -0.8065  0.9767
 2616SOL    HW2 9571   9.542   2.819   2.540 -0.5574  0.6058  0.5856
 2617SOL     OW 9572   9.154   5.752   3.784 -0.4112 -0.2946  0.7248
 2617SOL    HW1 9573   9.166   5.822   3.849  0.3624  3.2736 -2.9009
 2617SOL    HW2 9574   9.222   5.688   3.806  0.3922  1.1792  2.9065
 2618SOL     OW 9575   0.238   1.303   3.799  0.3639 -0.3267 -0.2845
 2618SOL    HW1 9576   0.218   1.225   3.850  0.8809 -0.9408 -0.9956
 2618SOL    HW2 9577   0.318   1.338   3.838 -1.7283  1.9926  2.4039
 2619SOL     OW 9578   9.539   7.201   0.537  0.5419  0.1607  0.1051
 2619SOL    HW1 9579   9.621   7.216   0.489  0.3417 -0.0004 -0.2990
 2619SOL    HW2 9580   9.564   7.206   0.629  1.0561 -0.1268 -0.0109
 2620SOL     OW 9581   3.820   7.975   0.387  0.2916 -0.1921  0.1435
 2620SOL    HW1 9582   3.804   7.885   0.414 -3.7050 -0.3158 -1.8374
 2620SOL    HW2 9583   3.897   7.970   0.330  0.9717 -2.0382  1.1332
 2621SOL     OW 9584   5.969   2.346   4.202 -0.2262 -0.4470  0.5730
 2621SOL    HW1 9585   5.977   2.310   4.290  0.9492 -0.8514  0.3251
 2621SOL    HW2 9586   5.976   2.269   4.145  0.9029 -0.0039  0.0834
 2622SOL     OW 9587   5.790   6.970   1.595 -0.5318 -0.0900  0.1733
 2622SOL    HW1 9588   5.846   6.893   1.581 -1.4290 -0.6506 -0.4152
 2622SOL    HW2 9589   5.748   6.984   1.511 -0.3544  1.0849  0.2641
 2623SOL     OW 9590   3.388   6.198   6.869 -0.1418  0.4030  0.1553
 2623SOL    HW1 9591   3.370   6.106   6.886 -1.3387  0.8761  1.5893
 2623SOL    HW2 9592   3.313   6.228   6.818  0.0635  0.6972  0.0204
 2624SOL     OW 9593   4.025   2.314   6.282 -0.1857  0.0399 -0.0951
 2624SOL    HW1 9594   3.978   2.368   6.218 -0.3664  0.8187  0.6631
 2624SOL    HW2 9595   4.112   2.353   6.287 -0.2088  0.0585  0.2100
 2625SOL     OW 9596   8.198   9.328   4.837 -0.1219 -0.4473 -0.1313
 2625SOL    HW1 9597   8.128   9.263   4.832  1.0204 -1.6306 -1.9476
 2625SOL    HW2 9598   8.220   9.347   4.746  0.9551  0.9760  0.3856
 2626SOL     OW 9599   3.255   0.096   0.938  0.0023 -0.1696 -0.2406
 2626SOL    HW1 9600   3.313   0.169   0.960 -0.0648  0.1433 -1.0971
 2626SOL    HW2 9601   3.205   0.081   1.019  0.0745  0.6741 -0.0278
 2627SOL     OW 9602   5.304   2.505   7.432 -0.3856  0.4296  0.7933
 2627SOL    HW1 9603   5.294   2.436   7.497  0.1906 -1.2846 -0.8388
 2627SOL    HW2 9604   5.398   2.522   7.427 -0.2178 -0.7084 -0.7450
 2628SOL     OW 9605   2.741   2.585   6.207 -0.5466 -0.0514 -0.6440
 2628SOL    HW1 9606   2.779   2.646   6.269 -0.9013 -0.5068  0.0306
 2628SOL    HW2 9607   2.720   2.508   6.258 -0.8670 -0.4288 -1.3244
 2629SOL     OW 9608   9.046   2.548   7.197  0.2201  0.0167  0.0352
 2629SOL    HW1 9609   8.976   2.503   7.244 -1.3209 -0.9605 -2.9293
 2629SOL    HW2 9610   9.064   2.492   7.121  0.0960  3.0234 -2.4350
 2630SOL     OW 9611   4.953   3.402   9.158 -0.3189 -0.2830 -0.3758
 2630SOL    HW1 9612   5.005   3.464   9.108 -0.3052  0.4170  0.4870
 2630SOL    HW2 9613   5.014   3.332   9.182 -0.0170  0.0372 -0.2177
 2631SOL     OW 9614   4.951   6.657   7.545  0.2338  0.3616  0.0273
 2631SOL    HW1 9615   4.902   6.624   7.620  0.5579 -0.5420 -0.1447
 2631SOL    HW2 9616   4.964   6.750   7.564  0.2670  0.1615  1.0724
 2632SOL     OW 9617   0.455   6.085   1.761  0.5988  0.1643  0.3109
 2632SOL    HW1 9618   0.456   5.992   1.784  0.4207  0.4567  1.5758
 2632SOL    HW2 9619   0.383   6.094   1.699  1.0762 -0.6548 -0.3899
 2633SOL     OW 9620   7.860   0.860   5.783  0.1374 -0.3780  0.7629
 2633SOL    HW1 9621   7.788   0.922   5.792 -0.2598 -0.8798  1.0867
 2633SOL    HW2 9622   7.903   0.860   5.869 -0.4596 -1.2726  1.0699
 2634SOL     OW 9623   8.717   6.613   1.156 -0.0238  0.1996 -0.3313
 2634SOL    HW1 9624   8.780   6.616   1.084 -0.9556  1.1865 -1.1326
 2634SOL    HW2 9625   8.642   6.567   1.119 -0.2061  0.0153  0.2678
 2635SOL     OW 9626   2.698   8.083   7.126  0.2235  0.4345 -0.0280
 2635SOL    HW1 9627   2.772   8.023   7.118  0.3875  0.5491  0.5888
 2635SOL    HW2 9628   2.620   8.029   7.113  0.3083 -0.1642  1.7783
 2636SOL     OW 9629   1.446   7.910   9.346  0.4675 -0.0215  0.1229
 2636SOL    HW1 9630   1.453   7.825   9.302  1.2905 -0.9249  1.8799
 2636SOL    HW2 9631   1.352   7.926   9.354  0.3043 -0.7969 -0.2113
 2637SOL     OW 9632   9.238   8.613   2.954 -0.1737 -0.4409 -0.1240
 2637SOL    HW1 9633   9.153   8.605   2.910  0.3209 -2.2634 -0.8117
 2637SOL    HW2 9634   9.232   8.556   3.030 -0.4574  1.4944  1.4066
 2638SOL     OW 9635   9.377   9.140   8.200  0.4261 -0.3157 -0.5321
 2638SOL    HW1 9636   9.461   9.177   8.173 -0.5132  1.3011 -1.3665
 2638SOL    HW2 9637   9.393   9.045   8.204  1.8288 -0.2176 -2.3981
 2639SOL     OW 9638   5.347   4.708   5.418  0.0693  0.2955  0.3501
 2639SOL    HW1 9639   5.383   4.793   5.391  1.0431 -0.3522 -0.5032
 2639SOL    HW2 9640   5.261   4.704   5.376 -1.1794  1.9218  2.5170
 2640SOL     OW 9641   2.928   1.248   6.132  0.1777 -0.4810 -1.0214
 2640SOL    HW1 9642   2.980   1.204   6.199 -0.2094 -1.7280 -1.5256
 2640SOL    HW2 9643   2.992   1.288   6.074  0.5235  1.0909  0.3654
 2641SOL     OW 9644   7.183   4.875   3.343 -0.1106 -0.2419 -0.2726
 2641SOL    HW1 9645   7.101   4.847   3.303 -0.7164  0.3772  0.5140
 2641SOL    HW2 9646   7.202   4.959   3.302 -0.9593  0.6052  1.0043
 2642SOL     OW 9647   4.927   8.417   5.279  0.2874  0.1043  0.0530
 2642SOL    HW1 9648   4.835   8.435   5.298  0.7674 -0.0993  3.1852
 2642SOL    HW2 9649   4.925   8.346   5.215 -1.7109  0.2414 -0.1064
 2643SOL     OW 9650   5.678   4.044   3.851  0.0340  0.3649 -0.9008
 2643SOL    HW1 9651   5.752   3.991   3.879 -0.9435 -1.4860 -1.6783
 2643SOL    HW2 9652   5.631   4.066   3.931  0.5207  0.1650 -0.5623
 2644SOL     OW 9653   9.131   2.577   9.110 -0.0683  0.1191 -0.3213
 2644SOL    HW1 9654   9.151   2.629   9.032  1.8029 -0.0753 -0.0155
 2644SOL    HW2 9655   9.141   2.486   9.081  0.6336  0.0478  0.1137
 2645SOL     OW 9656   7.172   6.973   8.281  0.0164 -0.2349 -0.1344
 2645SOL    HW1 9657   7.153   6.951   8.372  1.6884 -0.2136  0.2523
 2645SOL    HW2 9658   7.089   6.959   8.235 -0.7883 -0.4961  1.3322
 2646SOL     OW 9659   0.321   8.769   5.838  0.0939 -0.0143  0.3252
 2646SOL    HW1 9660   0.257   8.699   5.854  0.8003 -0.7621 -0.0092
 2646SOL    HW2 9661   0.327   8.815   5.922 -2.0085  1.0690 -0.0653
 2647SOL     OW 9662   7.798   2.873   4.583  0.8500 -0.1600  0.4475
 2647SOL    HW1 9663   7.734   2.804   4.604 -1.4611  1.9869  1.0222
 2647SOL    HW2 9664   7.814   2.864   4.489 -0.5622 -0.6222  0.2222
 2648SOL     OW 9665   8.143   3.302   7.166  0.0749 -0.7232  0.0585
 2648SOL    HW1 9666   8.061   3.301   7.217 -0.3428 -0.5875 -0.6042
 2648SOL    HW2 9667   8.128   3.240   7.095  0.2139 -0.0314 -0.5828
 2649SOL     OW 9668   1.852   1.524   8.968 -0.0962 -0.1056  0.0025
 2649SOL    HW1 9669   1.946   1.541   8.975 -0.3632  0.7837  2.0351
 2649SOL    HW2 9670   1.812   1.611   8.966 -0.8673 -0.4570 -1.7618
 2650SOL     OW 9671   8.531   3.513   7.850  0.0446  0.4201 -0.2257
 2650SOL    HW1 9672   8.492   3.497   7.936  1.2149 -1.0935  0.0568
 2650SOL    HW2 9673   8.468   3.569   7.806 -1.8944 -0.9774  0.6261
 2651SOL     OW 9674   4.775   3.123   8.985  0.7245  0.4921  0.0673
 2651SOL    HW1 9675   4.756   3.217   8.980 -1.1113  0.5635  4.0649
 2651SOL    HW2 9676   4.781   3.105   9.079  0.9359 -3.4287 -0.5293
 2652SOL     OW 9677   7.262   3.113   3.790  0.1104 -0.0043 -0.3292
 2652SOL    HW1 9678   7.233   3.201   3.765  0.6677  0.4206  0.4415
 2652SOL    HW2 9679   7.311   3.081   3.714  1.2666  1.0090 -0.0615
 2653SOL     OW 9680   1.034   0.953   8.600  1.0112 -0.1414 -0.4288
 2653SOL    HW1 9681   0.947   0.913   8.610  0.1461  1.6631 -0.4027
 2653SOL    HW2 9682   1.064   0.924   8.513  0.3418 -0.6930 -0.4846
 2654SOL     OW 9683   2.329   2.502   1.250 -0.5058  0.8182  0.1475
 2654SOL    HW1 9684   2.424   2.514   1.242 -0.3128  2.2596  3.0725
 2654SOL    HW2 9685   2.303   2.566   1.317 -3.3390 -0.4422  0.3820
 2655SOL     OW 9686   7.456   0.671   0.480 -0.0259  0.2522  0.3664
 2655SOL    HW1 9687   7.462   0.627   0.565 -1.2091  0.3900  0.5273
 2655SOL    HW2 9688   7.363   0.685   0.466  0.1613  0.3424 -0.9083
 2656SOL     OW 9689   6.127   5.179   0.408  0.0245  0.1866 -0.1576
 2656SOL    HW1 9690   6.151   5.159   0.498 -1.7443 -1.8915 -0.0697
 2656SOL    HW2 9691   6.205   5.156   0.357  0.2236 -0.9923  0.6290
 2657SOL     OW 9692   3.527   7.099   7.338 -0.0398  0.0953  0.5963
 2657SOL    HW1 9693   3.493   7.179   7.377 -1.9709  0.3737 -1.3986
 2657SOL    HW2 9694   3.613   7.123   7.305 -0.0428  0.9616  1.1827
 2658SOL     OW 9695   4.129   9.580   4.637  0.2092 -0.2629 -0.1158
 2658SOL    HW1 9696   4.128   9.518   4.564 -1.0035  0.5749 -0.8620
 2658SOL    HW2 9697   4.190   9.543   4.700 -0.5222 -2.2364 -0.5028
 2659SOL     OW 9698   2.053   1.813   2.914  0.2121  0.7728  0.1880
 2659SOL    HW1 9699   1.971   1.787   2.871  0.1092  1.0482  0.2133
 2659SOL    HW2 9700   2.122   1.768   2.865 -0.0338 -0.4523  0.9283
 2660SOL     OW 9701   4.124   7.722   0.692  0.8260 -0.0912  0.1879
 2660SOL    HW1 9702   4.071   7.793   0.656  0.0145 -0.6882  0.1769
 2660SOL    HW2 9703   4.124   7.737   0.786 -1.9236 -1.7279  0.5559
 2661SOL     OW 9704   7.736   8.586   9.418 -0.0302 -0.1245 -0.0493
 2661SOL    HW1 9705   7.668   8.641   9.381  0.7868  1.1967  0.3387
 2661SOL    HW2 9706   7.794   8.567   9.344  0.2110  0.3673  0.0075
 2662SOL     OW 9707   6.695   6.189   6.087  0.4267  0.4904  0.4342
 2662SOL    HW1 9708   6.744   6.267   6.111  0.2895  0.4114  1.0069
 2662SOL    HW2 9709   6.603   6.215   6.093  0.3858  0.5960 -0.4858
 2663SOL     OW 9710   9.173   8.850   5.064  0.2220 -0.6203 -0.0714
 2663SOL    HW1 9711   9.126   8.768   5.047  0.6879 -0.7049 -1.0065
 2663SOL    HW2 9712   9.109   8.906   5.107 -0.0458 -1.5441  0.7865
 2664SOL     OW 9713   7.301   4.448   0.609 -0.2345  0.0960 -0.0064
 2664SOL    HW1 9714   7.371   4.482   0.665  2.0686 -1.0604 -1.9823
 2664SOL    HW2 9715   7.241   4.406   0.669  1.1730  0.4718  1.7493
 2665SOL     OW 9716   1.206   4.228   3.326 -0.3462 -0.4209  0.0091
 2665SOL    HW1 9717   1.219   4.290   3.398 -2.6005 -0.8262  0.8399
 2665SOL    HW2 9718   1.197   4.143   3.369 -1.3524 -0.7275 -0.7820
 2666SOL     OW 9719   5.757   2.547   9.090  0.0350  0.3629  0.1552
 2666SOL    HW1 9720   5.785   2.638   9.092 -0.9985  0.6766  1.0276
 2666SOL    HW2 9721   5.668   2.549   9.055 -1.2513  0.0879  3.0701
 2667SOL     OW 9722   2.929   7.058   7.859  0.4238 -0.0151  0.3864
 2667SOL    HW1 9723   2.890   6.983   7.815  1.8636  0.0839 -1.1798
 2667SOL    HW2 9724   3.013   7.026   7.893  1.1041  0.8648 -0.3941
 2668SOL     OW 9725   9.181   3.395   6.911  0.0134 -0.2263 -0.0886
 2668SOL    HW1 9726   9.109   3.448   6.944 -0.7141 -1.6857  0.7572
 2668SOL    HW2 9727   9.255   3.456   6.905 -0.9613  1.0180  0.1878
 2669SOL     OW 9728   0.972   3.162   1.930  0.0876  0.2181  0.3486
 2669SOL    HW1 9729   0.888   3.140   1.889  0.4437  0.7133 -0.6541
 2669SOL    HW2 9730   0.952   3.161   2.024 -0.9921  0.1321  0.1413
 2670SOL     OW 9731   2.159   3.942   1.958  0.0293  0.1794  0.2588
 2670SOL    HW1 9732   2.139   4.034   1.975 -0.3609  0.2363 -0.4396
 2670SOL    HW2 9733   2.238   3.945   1.904  0.4509  0.0672  0.8634
 2671SOL     OW 9734   3.665   8.703   9.227 -0.0913 -0.3563 -0.4058
 2671SOL    HW1 9735   3.693   8.713   9.318  1.2241 -0.4843 -0.7724
 2671SOL    HW2 9736   3.681   8.789   9.188  0.7105 -0.7093 -0.8601
 2672SOL     OW 9737   6.906   7.467   0.288  0.0614 -0.6501  0.6082
 2672SOL    HW1 9738   6.975   7.453   0.224 -0.7745 -0.5868 -0.3401
 2672SOL    HW2 9739   6.923   7.554   0.324  0.3116 -0.5203  0.1813
 2673SOL     OW 9740   4.105   1.887   8.256  0.1199  0.0759  0.5170
 2673SOL    HW1 9741   4.038   1.846   8.202  0.3181 -0.6162  0.7875
 2673SOL    HW2 9742   4.182   1.892   8.199  0.7752 -1.9758  1.1387
 2674SOL     OW 9743   8.642   2.510   8.174 -0.5853 -0.0540 -0.1588
 2674SOL    HW1 9744   8.590   2.430   8.181  0.1465 -0.4794  0.6910
 2674SOL    HW2 9745   8.715   2.497   8.235 -0.0525  0.9604 -0.5432
 2675SOL     OW 9746   4.619   4.224   7.430 -0.6659 -0.5586 -0.1007
 2675SOL    HW1 9747   4.534   4.191   7.401  0.1495 -0.9693 -2.2145
 2675SOL    HW2 9748   4.641   4.293   7.367 -0.8176  1.8515  2.2818
 2676SOL     OW 9749   0.329   5.216   8.091  0.2079  0.2117  0.1915
 2676SOL    HW1 9750   0.332   5.308   8.119 -1.0787 -0.0864  1.3637
 2676SOL    HW2 9751   0.393   5.212   8.019 -0.6990  2.3402 -0.8322
 2677SOL     OW 9752   2.862   2.490   1.766  0.6410  0.0540 -0.5558
 2677SOL    HW1 9753   2.820   2.496   1.681  0.0862  2.1535 -0.1917
 2677SOL    HW2 9754   2.956   2.494   1.747  0.5991 -1.2999 -1.1494
 2678SOL     OW 9755   9.486   6.473   9.288  0.7811  0.1548 -0.0823
 2678SOL    HW1 9756   9.404   6.503   9.249  0.7975  2.4013  1.4458
 2678SOL    HW2 9757   9.459   6.421   9.364  0.7753 -3.4966 -2.3077
 2679SOL     OW 9758   1.845   7.505   3.506  0.0236  0.4436  0.0130
 2679SOL    HW1 9759   1.827   7.413   3.527  1.4815  0.2975  0.7709
 2679SOL    HW2 9760   1.759   7.543   3.490 -0.6276 -0.9960 -0.0688
 2680SOL     OW 9761   3.069   5.808   7.881 -0.6392  0.2727  0.2070
 2680SOL    HW1 9762   3.020   5.733   7.847 -0.1827  0.7447 -1.6321
 2680SOL    HW2 9763   3.142   5.819   7.819  0.8572  0.5952  1.9360
 2681SOL     OW 9764   5.335   2.535   3.465 -0.0509  0.1855 -0.2644
 2681SOL    HW1 9765   5.326   2.521   3.371 -0.1621  1.4730 -0.4669
 2681SOL    HW2 9766   5.425   2.569   3.475 -0.5189  1.4445 -0.1128
 2682SOL     OW 9767   6.256   3.489   9.164  0.1727  0.3100 -0.2798
 2682SOL    HW1 9768   6.339   3.444   9.147  1.0680  2.0768 -0.8230
 2682SOL    HW2 9769   6.189   3.426   9.136  1.1698 -1.9025  1.8627
 2683SOL     OW 9770   1.446   6.316   4.743 -0.0066 -0.1454  0.0736
 2683SOL    HW1 9771   1.514   6.252   4.765 -0.3262 -1.2083 -1.8695
 2683SOL    HW2 9772   1.467   6.345   4.655  0.3870  2.8628  1.0428
 2684SOL     OW 9773   2.474   7.034   6.467  0.4080 -0.1319  0.4492
 2684SOL    HW1 9774   2.502   6.999   6.382  2.3609  1.5782  0.3221
 2684SOL    HW2 9775   2.392   7.079   6.449 -0.5447 -1.9375  0.0248
 2685SOL     OW 9776   6.834   4.298   0.630  0.0843 -0.3747  0.4294
 2685SOL    HW1 9777   6.797   4.376   0.587  1.4432 -0.3983 -0.8653
 2685SOL    HW2 9778   6.764   4.234   0.625 -0.6929  0.4318  0.5841
 2686SOL     OW 9779   5.713   2.464   4.503  0.1693 -0.0678  0.6510
 2686SOL    HW1 9780   5.660   2.475   4.424 -1.3716 -0.5615  1.5707
 2686SOL    HW2 9781   5.726   2.553   4.535 -1.2807  0.0059  1.1187
 2687SOL     OW 9782   1.695   1.370   0.322  0.2315 -0.6499  0.0215
 2687SOL    HW1 9783   1.689   1.403   0.232 -2.4962  3.2837  1.3567
 2687SOL    HW2 9784   1.780   1.400   0.352 -0.8124  2.6459  0.1040
 2688SOL     OW 9785   1.961   4.938   2.646 -0.6282  0.0774  0.0023
 2688SOL    HW1 9786   1.908   4.873   2.600 -1.0848 -2.0915  3.2308
 2688SOL    HW2 9787   2.047   4.897   2.654 -0.2501  0.8788  0.1283
 2689SOL     OW 9788   0.016   8.189   6.435 -0.1733  0.3841  0.0040
 2689SOL    HW1 9789   0.053   8.273   6.461 -1.6292  1.3481 -0.9004
 2689SOL    HW2 9790  -0.013   8.149   6.517  1.8867  0.0330  0.6169
 2690SOL     OW 9791   4.814   3.370   7.977  0.9155 -0.5055 -0.1256
 2690SOL    HW1 9792   4.787   3.403   7.891 -0.1379  1.0868  0.7569
 2690SOL    HW2 9793   4.756   3.295   7.993 -0.4089  0.5420  0.1116
 2691SOL     OW 9794   2.453   8.727   0.951  0.0311 -0.1377  0.5101
 2691SOL    HW1 9795   2.494   8.810   0.976  0.8571 -1.3063  3.3992
 2691SOL    HW2 9796   2.506   8.660   0.994 -2.5229 -1.9815  1.0101
 2692SOL     OW 9797   3.414   9.188   5.236  0.1456  0.1059  0.7914
 2692SOL    HW1 9798   3.378   9.264   5.189 -0.7384 -0.7242  0.0763
 2692SOL    HW2 9799   3.469   9.144   5.171  0.6620  0.1379  1.2065
 2693SOL     OW 9800   9.009   0.787   7.709  0.1566  0.1758  0.1315
 2693SOL    HW1 9801   8.960   0.800   7.628 -0.0461  1.9815  0.4968
 2693SOL    HW2 9802   9.089   0.742   7.683  0.7677  1.9656 -1.3272
 2694SOL     OW 9803   5.378   8.767   8.593 -0.1103  0.2157  0.0783
 2694SOL    HW1 9804   5.374   8.672   8.598 -0.0847  0.2238  0.2747
 2694SOL    HW2 9805   5.466   8.785   8.559  0.3501  0.1982  1.1959
 2695SOL     OW 9806   4.658   2.571   4.560 -0.2025  0.1057 -0.4972
 2695SOL    HW1 9807   4.712   2.518   4.619 -0.5007 -0.9631 -1.1666
 2695SOL    HW2 9808   4.615   2.635   4.618 -1.6685 -1.8637  0.7051
 2696SOL     OW 9809   2.186   1.626   9.559  0.1260  0.7679  0.1066
 2696SOL    HW1 9810   2.113   1.667   9.607  0.3992  1.0742  0.2645
 2696SOL    HW2 9811   2.189   1.675   9.476  1.3594  2.0466  0.8643
 2697SOL     OW 9812   8.237   2.593   7.299 -0.3218  0.6031  0.1996
 2697SOL    HW1 9813   8.254   2.678   7.260 -0.6460 -0.0642 -1.4965
 2697SOL    HW2 9814   8.142   2.581   7.291 -0.2896  0.1186  0.4752
 2698SOL     OW 9815   5.853   7.523   2.702  0.5264 -0.2645  0.7450
 2698SOL    HW1 9816   5.783   7.586   2.688 -0.6317 -1.2651  1.7548
 2698SOL    HW2 9817   5.849   7.503   2.795  1.1222 -1.5306  0.5223
 2699SOL     OW 9818   6.476   2.049   2.597 -0.6120  0.3658  0.2609
 2699SOL    HW1 9819   6.471   2.046   2.502  0.5404 -2.3626  0.2008
 2699SOL    HW2 9820   6.548   2.110   2.615 -0.2611  0.2386 -0.6586
 2700SOL     OW 9821   7.563   5.246   6.500 -0.0450 -0.5281  0.3902
 2700SOL    HW1 9822   7.516   5.235   6.417  0.1370 -0.6550  0.3035
 2700SOL    HW2 9823   7.608   5.330   6.490 -0.8385 -0.0515  0.7617
 2701SOL     OW 9824   5.171   1.967   8.621  0.4106  0.0483 -0.4661
 2701SOL    HW1 9825   5.217   1.950   8.539  1.5312  0.8831 -0.0325
 2701SOL    HW2 9826   5.166   2.063   8.626 -1.6736 -0.0029 -0.6484
 2702SOL     OW 9827   7.515   0.278   7.186  0.1550  0.1997 -0.0511
 2702SOL    HW1 9828   7.514   0.234   7.270 -0.9166  0.8002  0.2654
 2702SOL    HW2 9829   7.568   0.357   7.201 -1.6570  1.3540  0.6496
 2703SOL     OW 9830   2.241   1.612   8.326 -0.2481  0.2444  0.1990
 2703SOL    HW1 9831   2.307   1.598   8.394 -1.1911 -0.6625  0.9683
 2703SOL    HW2 9832   2.269   1.557   8.253  0.1201  0.2707  0.3195
 2704SOL     OW 9833   7.590   5.087   3.237  0.7058  0.7051 -0.3731
 2704SOL    HW1 9834   7.634   5.038   3.307  2.4132  1.2903 -0.9711
 2704SOL    HW2 9835   7.619   5.044   3.157 -1.2191  0.0553 -0.7582
 2705SOL     OW 9836   4.195   3.573   8.288  0.3364 -0.4885  0.7339
 2705SOL    HW1 9837   4.117   3.623   8.264  0.9229  0.0675 -0.0526
 2705SOL    HW2 9838   4.184   3.556   8.382  0.4889  1.8140  1.2335
 2706SOL     OW 9839   7.442   0.795   1.968  0.1585  0.0002  0.2513
 2706SOL    HW1 9840   7.413   0.727   1.907  2.0230  0.4416 -1.2222
 2706SOL    HW2 9841   7.526   0.763   2.001  0.5049  1.0779  0.4286
 2707SOL     OW 9842   1.629   2.926   7.215 -0.4180 -0.6083  0.2219
 2707SOL    HW1 9843   1.626   3.011   7.259 -0.3152 -0.7812  0.5704
 2707SOL    HW2 9844   1.683   2.871   7.272 -0.1147 -0.7813 -0.2293
 2708SOL     OW 9845   5.165   5.230   8.808 -0.3576 -0.1321 -0.0097
 2708SOL    HW1 9846   5.187   5.306   8.861  1.7720  0.5935 -1.7920
 2708SOL    HW2 9847   5.163   5.157   8.871 -1.1211  1.1484  1.5199
 2709SOL     OW 9848   1.005   7.106   0.533 -0.6890 -0.0687  0.2193
 2709SOL    HW1 9849   0.966   7.052   0.601  0.1821 -1.5377 -0.3918
 2709SOL    HW2 9850   0.981   7.063   0.451  1.9832 -0.9628 -0.1885
 2710SOL     OW 9851   0.784   7.268   5.112  0.2670 -0.1379 -0.4749
 2710SOL    HW1 9852   0.708   7.306   5.156 -0.6489  0.3127 -2.3746
 2710SOL    HW2 9853   0.822   7.209   5.178  0.0731  1.8607  1.5485
 2711SOL     OW 9854   1.717   7.535   7.769  0.2086 -0.5677 -0.8329
 2711SOL    HW1 9855   1.746   7.548   7.679 -0.9375  1.9983 -0.9068
 2711SOL    HW2 9856   1.798   7.522   7.819  1.1316  1.2083 -1.7862
 2712SOL     OW 9857   0.694   1.546   2.576 -0.6713  0.4925 -0.1979
 2712SOL    HW1 9858   0.760   1.505   2.521  0.5243  1.8925  0.1409
 2712SOL    HW2 9859   0.712   1.514   2.664 -1.3811 -0.2469 -0.3052
 2713SOL     OW 9860   6.162   1.754   3.901 -0.2054  0.2583  0.2223
 2713SOL    HW1 9861   6.191   1.708   3.980 -0.0796  2.0506  1.2544
 2713SOL    HW2 9862   6.071   1.727   3.890  0.2392 -1.2737  0.0045
 2714SOL     OW 9863   2.647   7.792   0.649 -0.5517 -0.6390  0.1983
 2714SOL    HW1 9864   2.721   7.732   0.658 -0.1975 -0.4306 -1.2405
 2714SOL    HW2 9865   2.661   7.836   0.566 -2.7229 -1.1822 -0.5078
 2715SOL     OW 9866   4.541   3.453   1.636 -0.3569  0.0995 -0.1495
 2715SOL    HW1 9867   4.525   3.428   1.727 -1.3318 -0.6532 -0.5116
 2715SOL    HW2 9868   4.586   3.377   1.599  0.0824  0.4250 -0.2945
 2716SOL     OW 9869   4.032   4.622   0.173 -0.3181  0.2211 -0.1930
 2716SOL    HW1 9870   4.054   4.594   0.262 -0.3156 -1.4817 -0.6952
 2716SOL    HW2 9871   3.995   4.544   0.132 -1.0115  1.1884 -1.4681
 2717SOL     OW 9872   6.840   0.199   7.048 -0.6430 -0.2166  0.1433
 2717SOL    HW1 9873   6.749   0.172   7.043 -0.3987 -1.6819  2.3602
 2717SOL    HW2 9874   6.872   0.161   7.130  2.6658 -1.9827 -1.7476
 2718SOL     OW 9875   0.393   8.504   7.329 -0.7497  0.8349 -0.1214
 2718SOL    HW1 9876   0.359   8.539   7.246 -1.3496  0.7638  0.0862
 2718SOL    HW2 9877   0.407   8.581   7.384  0.0924  0.9196 -0.4452
 2719SOL     OW 9878   5.031   9.179   5.587  0.2856 -0.1852  0.1020
 2719SOL    HW1 9879   4.947   9.146   5.618 -1.0287  0.8416 -2.1086
 2719SOL    HW2 9880   5.016   9.273   5.572  1.8732  0.0466 -0.2298
 2720SOL     OW 9881   3.089   2.463   1.432 -0.0556 -0.2156 -0.2137
 2720SOL    HW1 9882   3.154   2.393   1.427 -0.4858 -0.7523  1.1997
 2720SOL    HW2 9883   3.094   2.493   1.523 -2.1030 -0.5832  0.0494
 2721SOL     OW 9884   8.596   0.588   8.511 -0.1014 -0.4818 -0.3151
 2721SOL    HW1 9885   8.597   0.572   8.605  0.3447 -0.1274 -0.2583
 2721SOL    HW2 9886   8.579   0.502   8.473 -0.0641 -0.6659  0.0783
 2722SOL     OW 9887   2.879   5.777   6.596  0.2107 -0.3514  0.4172
 2722SOL    HW1 9888   2.830   5.700   6.569  0.3525  0.0058 -0.9248
 2722SOL    HW2 9889   2.917   5.753   6.681 -1.7686 -0.8427  1.2285
 2723SOL     OW 9890   2.717   2.759   7.781 -0.4444  0.0175 -0.0091
 2723SOL    HW1 9891   2.691   2.771   7.690  1.4785 -2.2669 -0.9733
 2723SOL    HW2 9892   2.807   2.792   7.785  0.5967 -2.5472  0.1897
 2724SOL     OW 9893   9.152   2.523   7.882 -0.4927  1.0942 -0.3437
 2724SOL    HW1 9894   9.238   2.517   7.840 -0.5608 -1.8547 -0.3182
 2724SOL    HW2 9895   9.090   2.501   7.813 -0.9699  0.6070  0.2313
 2725SOL     OW 9896   8.849   4.540   5.562  0.0115 -0.3136 -0.1258
 2725SOL    HW1 9897   8.922   4.601   5.570 -1.6204  1.7747 -0.2075
 2725SOL    HW2 9898   8.817   4.553   5.472 -1.2945 -0.1832  0.3403
 2726SOL     OW 9899   7.212   1.258   7.388  0.3325 -0.2617 -0.3840
 2726SOL    HW1 9900   7.298   1.290   7.361  0.0596  0.2669 -0.6377
 2726SOL    HW2 9901   7.184   1.319   7.455  0.3735 -0.7335  0.0717
 2727SOL     OW 9902   8.020   0.236   7.816  0.7427  0.2570  0.0895
 2727SOL    HW1 9903   7.954   0.302   7.795  1.0030  0.9361  1.3195
 2727SOL    HW2 9904   8.041   0.251   7.908  1.4348 -1.0003  0.1629
 2728SOL     OW 9905   3.186   2.345   2.711 -0.3616 -0.3358 -0.0185
 2728SOL    HW1 9906   3.239   2.301   2.778 -0.6242 -1.2161 -0.3797
 2728SOL    HW2 9907   3.176   2.435   2.744  0.9511 -0.2791  0.2792
 2729SOL     OW 9908   5.048   2.735   1.232 -0.0499 -0.1196 -0.3877
 2729SOL    HW1 9909   5.065   2.760   1.141  1.9120  0.1183  0.0032
 2729SOL    HW2 9910   5.126   2.684   1.257  0.0536  0.9276  1.5495
 2730SOL     OW 9911   5.900   8.793   9.030  0.7353  0.1198 -0.1868
 2730SOL    HW1 9912   5.881   8.777   9.122 -2.0011 -0.4791 -0.7709
 2730SOL    HW2 9913   5.947   8.877   9.029  1.2976 -0.1328  1.7566
 2731SOL     OW 9914   1.091   2.813   9.491  0.1296  0.4634  0.2120
 2731SOL    HW1 9915   1.029   2.870   9.446 -0.8642 -1.3506 -0.8078
 2731SOL    HW2 9916   1.166   2.807   9.431  0.7874  1.6027  0.8655
 2732SOL     OW 9917   2.387   6.268   4.288  0.7868 -0.3346 -0.0411
 2732SOL    HW1 9918   2.481   6.278   4.304  0.8611 -0.5729 -0.3357
 2732SOL    HW2 9919   2.364   6.344   4.234  0.5936  0.3112  0.9092
 2733SOL     OW 9920   9.544   7.402   4.996 -0.0930  0.2259 -0.0987
 2733SOL    HW1 9921   9.528   7.404   4.902  1.2015  0.3748 -0.3298
 2733SOL    HW2 9922   9.635   7.375   5.005 -0.4812 -0.7992  1.1522
 2734SOL     OW 9923   3.043   5.790   4.182 -0.2444  0.1023 -0.1930
 2734SOL    HW1 9924   2.963   5.773   4.232 -0.4119  1.8003  0.1791
 2734SOL    HW2 9925   3.012   5.823   4.097  0.0632 -0.8700 -0.7006
 2735SOL     OW 9926   6.030   1.298   1.224 -0.4783  1.0877 -0.3058
 2735SOL    HW1 9927   5.996   1.325   1.139 -0.3192  3.3330  0.2698
 2735SOL    HW2 9928   6.063   1.379   1.263  0.5404 -0.0851  1.4095
 2736SOL     OW 9929   2.023   1.093   9.589  0.5420 -0.7109 -0.6893
 2736SOL    HW1 9930   2.102   1.074   9.640 -0.6132 -1.0093  1.0756
 2736SOL    HW2 9931   2.035   1.183   9.559  1.6247 -0.8160 -0.6118
 2737SOL     OW 9932   6.967   1.953   0.552  0.1857 -0.5035  0.1394
 2737SOL    HW1 9933   6.998   2.043   0.538 -0.3329  0.0510  2.1567
 2737SOL    HW2 9934   6.906   1.961   0.626 -0.6763 -2.3672 -0.3242
 2738SOL     OW 9935   4.655   9.703   7.227  0.1743 -0.1551  0.0400
 2738SOL    HW1 9936   4.686   9.794   7.228 -1.4199  0.4199  1.0320
 2738SOL    HW2 9937   4.658   9.678   7.135  0.2756  1.0482 -0.3025
 2739SOL     OW 9938   7.870   9.516   1.141  0.0612  0.5512  0.0885
 2739SOL    HW1 9939   7.814   9.439   1.135 -0.0711  0.7852 -2.3770
 2739SOL    HW2 9940   7.952   9.490   1.101  0.9914  0.9113  1.6570
 2740SOL     OW 9941   0.433   2.750   9.554  0.1755  0.4912 -0.0551
 2740SOL    HW1 9942   0.400   2.839   9.544  1.1080  0.8021 -0.4815
 2740SOL    HW2 9943   0.475   2.730   9.471  1.7463  0.4292  0.7026
 2741SOL     OW 9944   9.387   0.411   6.011 -0.3830 -0.0454 -0.3942
 2741SOL    HW1 9945   9.325   0.341   6.032  0.8460 -1.1692 -0.3927
 2741SOL    HW2 9946   9.425   0.384   5.927  1.6114 -0.4712  0.6045
 2742SOL     OW 9947   9.523   6.147   4.353 -0.7617  0.1141  0.0183
 2742SOL    HW1 9948   9.582   6.214   4.386 -0.4710  0.8153 -1.8169
 2742SOL    HW2 9949   9.502   6.093   4.430  0.2988  1.3097  1.1873
 2743SOL     OW 9950   0.231   5.555   3.714 -0.0975 -0.8471  0.0261
 2743SOL    HW1 9951   0.316   5.544   3.757 -0.3861 -2.7223  0.1995
 2743SOL    HW2 9952   0.173   5.585   3.783  0.3543  0.2644 -0.0520
 2744SOL     OW 9953   2.134   7.927   1.149 -0.1381 -0.1420  0.5408
 2744SOL    HW1 9954   2.188   7.851   1.126 -0.2578 -0.0414 -0.0937
 2744SOL    HW2 9955   2.182   7.971   1.218 -1.3600 -2.3307  2.9830
 2745SOL     OW 9956   4.329   1.282   2.649 -0.0262  0.5146  0.5903
 2745SOL    HW1 9957   4.383   1.305   2.724  0.5171  1.4392 -0.0660
 2745SOL    HW2 9958   4.390   1.273   2.576 -0.4979 -0.7904  0.3229
 2746SOL     OW 9959   4.779   6.789   9.197 -0.1397  0.4438 -0.1244
 2746SOL    HW1 9960   4.690   6.787   9.231  0.5920  0.1517  1.9359
 2746SOL    HW2 9961   4.831   6.830   9.266  1.7552 -1.8378 -0.0322
 2747SOL     OW 9962   7.163   6.445   2.283  0.5221  0.4131 -0.1318
 2747SOL    HW1 9963   7.220   6.403   2.218 -1.6167 -0.2034 -1.6962
 2747SOL    HW2 9964   7.176   6.539   2.268 -0.2860  0.2907 -1.8380
 2748SOL     OW 9965   0.997   9.206   4.239 -0.3014  0.4024  0.1729
 2748SOL    HW1 9966   1.063   9.140   4.264  0.8412  1.4226 -0.0463
 2748SOL    HW2 9967   0.986   9.259   4.317  2.7363  3.1529 -1.0447
 2749SOL     OW 9968   1.962   4.533   5.227  0.0274 -0.7220 -0.1255
 2749SOL    HW1 9969   1.867   4.523   5.218  0.0102 -0.3853 -0.3245
 2749SOL    HW2 9970   1.989   4.571   5.143  0.5614 -2.4077 -0.7562
 2750SOL     OW 9971   5.409   5.147   6.609 -0.0165 -0.0535 -0.1501
 2750SOL    HW1 9972   5.468   5.077   6.581 -0.6955 -0.8563  0.3669
 2750SOL    HW2 9973   5.381   5.121   6.697 -0.9958  0.3987 -0.3117
 2751SOL     OW 9974   0.437   3.314   0.193 -0.3127  0.2132  0.4012
 2751SOL    HW1 9975   0.469   3.317   0.283  1.2701 -1.1808 -0.0594
 2751SOL    HW2 9976   0.482   3.387   0.149 -1.7916  1.4829  0.8929
 2752SOL     OW 9977   3.754   6.146   8.133 -0.4067  0.0507  0.3857
 2752SOL    HW1 9978   3.802   6.179   8.057 -0.4963  0.8888  0.6777
 2752SOL    HW2 9979   3.821   6.140   8.202  0.0203 -2.2354 -0.1548
 2753SOL     OW 9980   3.542   7.645   6.747 -0.3191  0.0014  0.0625
 2753SOL    HW1 9981   3.542   7.741   6.755 -1.2431  0.0753 -0.6569
 2753SOL    HW2 9982   3.633   7.623   6.726  0.2223  0.5706  1.6601
 2754SOL     OW 9983   5.967   8.192   4.401 -0.1008 -0.0925  0.4308
 2754SOL    HW1 9984   5.983   8.110   4.448 -0.6936  0.9434  2.5358
 2754SOL    HW2 9985   6.037   8.251   4.429  2.6161 -0.7782 -3.8413
 2755SOL     OW 9986   3.520   0.117   9.391  0.3053  0.5144  0.4875
 2755SOL    HW1 9987   3.469   0.092   9.468 -2.0523  0.4528 -0.9682
 2755SOL    HW2 9988   3.586   0.048   9.383  1.5424  1.2637  3.1627
 2756SOL     OW 9989   2.429   7.311   4.892 -0.1205  0.3256  0.0928
 2756SOL    HW1 9990   2.512   7.358   4.886 -0.0408  0.2241  0.3683
 2756SOL    HW2 9991   2.390   7.342   4.974  0.5790 -1.1021  1.0134
 2757SOL     OW 9992   7.611   0.385   8.473 -0.1068  0.4406 -0.1021
 2757SOL    HW1 9993   7.637   0.312   8.528 -0.5365  0.6532  0.3933
 2757SOL    HW2 9994   7.607   0.460   8.533  1.5148  1.1476 -0.8109
 2758SOL     OW 9995   3.979   1.734   4.675  0.2116 -0.0923  0.1250
 2758SOL    HW1 9996   3.996   1.807   4.734 -1.7914  0.7592 -0.2963
 2758SOL    HW2 9997   3.911   1.682   4.718  0.5463 -0.8938 -0.2756
 2759SOL     OW 9998   3.534   1.853   3.876  0.0403 -0.1171 -0.2497
 2759SOL    HW1 9999   3.555   1.794   3.948 -1.2362  0.2297  0.4306
 2759SOL    HW210000   3.579   1.935   3.898 -0.7932  0.1627  0.4512
 2760SOL     OW10001   7.545   1.473   3.483  0.3800  0.5737  0.1602
 2760SOL    HW110002   7.534   1.400   3.543  1.8417  0.4018  0.2736
 2760SOL    HW210003   7.564   1.432   3.398 -1.7486  0.8102 -0.4743
 2761SOL     OW10004   8.110   3.541   8.006  0.3155  0.7611  0.0216
 2761SOL    HW110005   8.071   3.586   8.080  0.6161 -1.1785  1.4484
 2761SOL    HW210006   8.036   3.511   7.953  0.0526  1.1000  0.1990
 2762SOL     OW10007   1.777   8.992   3.054  0.6368  0.4943 -0.3854
 2762SOL    HW110008   1.836   9.016   3.125  0.1208 -1.3440  0.7549
 2762SOL    HW210009   1.724   9.071   3.039  1.0959  1.0858  0.9364
 2763SOL     OW10010   3.564   5.886   0.322  0.1361  0.2822  0.0690
 2763SOL    HW110011   3.578   5.913   0.413 -0.4671  0.0776  0.2226
 2763SOL    HW210012   3.581   5.966   0.271  1.6177  0.1213  0.2487
 2764SOL     OW10013   5.532   4.260   7.141 -0.0608 -0.4041 -0.7070
 2764SOL    HW110014   5.498   4.221   7.221 -0.5901 -0.0645 -0.7596
 2764SOL    HW210015   5.619   4.294   7.165 -1.0283  1.5390  0.2960
 2765SOL     OW10016   4.560   2.074   9.481  0.3868  0.1674  0.1200
 2765SOL    HW110017   4.543   2.068   9.575 -0.1367 -0.1228  0.0132
 2765SOL    HW210018   4.655   2.072   9.474  0.4277  0.0210  0.6366
 2766SOL     OW10019   1.110   7.125   1.559  0.4791 -0.1196 -0.5525
 2766SOL    HW110020   1.157   7.196   1.603 -1.4590  0.9162 -0.0079
 2766SOL    HW210021   1.149   7.121   1.471  2.3326 -0.1435  0.2217
 2767SOL     OW10022   6.577   4.941   5.249 -0.1989  0.2318 -1.1890
 2767SOL    HW110023   6.643   4.918   5.314 -1.9287 -1.4956  0.0587
 2767SOL    HW210024   6.591   5.035   5.233  0.9448  0.4688  0.8848
 2768SOL     OW10025   8.698   5.654   0.867 -0.0210  0.0720 -0.3753
 2768SOL    HW110026   8.771   5.657   0.929 -0.5792  0.9461  0.2713
 2768SOL    HW210027   8.650   5.574   0.889  1.2265 -1.0132 -1.4132
 2769SOL     OW10028   0.572   8.066   0.299  0.1580  0.3856 -0.2168
 2769SOL    HW110029   0.656   8.039   0.261 -0.3129 -0.4213 -0.7244
 2769SOL    HW210030   0.538   7.987   0.340 -0.6730  0.5234 -0.6219
 2770SOL     OW10031   9.351   3.634   0.157 -0.4555  0.4613  0.2600
 2770SOL    HW110032   9.399   3.699   0.209  0.3880  0.1544 -0.1117
 2770SOL    HW210033   9.323   3.682   0.079 -0.8247  0.6603  0.5115
 2771SOL     OW10034   4.005   2.841   8.776 -0.4508  0.6556 -0.4428
 2771SOL    HW110035   3.929   2.811   8.826  0.0565 -1.8605 -1.0358
 2771SOL    HW210036   4.001   2.791   8.695  2.0365  0.1745 -0.3245
 2772SOL     OW10037   7.624   0.547   7.356 -0.2508 -0.1278 -0.2824
 2772SOL    HW110038   7.537   0.533   7.394 -1.3258  1.2066 -2.0864
 2772SOL    HW210039   7.682   0.557   7.431 -1.6000 -1.2176  0.9645
 2773SOL     OW10040   4.831   4.549   5.277 -0.0134  0.1363  0.1314
 2773SOL    HW110041   4.802   4.532   5.366  3.0215 -0.5649  1.1107
 2773SOL    HW210042   4.797   4.636   5.257 -3.0694 -0.7992  0.8576
 2774SOL     OW10043   4.263   6.648   0.617 -0.4323 -0.0491  0.1062
 2774SOL    HW110044   4.326   6.714   0.588 -0.7184 -0.0814 -0.6030
 2774SOL    HW210045   4.182   6.695   0.631 -0.0783  0.1430  1.8266
 2775SOL     OW10046   3.757   6.320   5.326  0.0652  0.0971  0.3301
 2775SOL    HW110047   3.729   6.345   5.238 -1.5985 -1.0590  0.4783
 2775SOL    HW210048   3.833   6.375   5.344 -2.2018  3.6746 -0.0337
 2776SOL     OW10049   8.289   4.631   0.434 -0.3586  0.2616  0.2410
 2776SOL    HW110050   8.342   4.647   0.356 -0.1978  0.5180  0.4022
 2776SOL    HW210051   8.202   4.609   0.400 -0.4682  1.0365  0.0034
 2777SOL     OW10052   3.738   1.244   6.653 -0.2419  0.2304  0.1460
 2777SOL    HW110053   3.729   1.318   6.593 -0.2426  0.2430  0.1614
 2777SOL    HW210054   3.783   1.281   6.729  0.6574 -0.0010 -0.2475
 2778SOL     OW10055   1.261   4.579   0.571  0.0431 -0.3047  0.4196
 2778SOL    HW110056   1.314   4.627   0.635  0.9812 -0.7313 -0.0207
 2778SOL    HW210057   1.315   4.503   0.548 -0.0425  0.1216 -1.2793
 2779SOL     OW10058   6.694   5.986   4.844 -0.5761 -0.0113 -0.0549
 2779SOL    HW110059   6.725   6.077   4.848 -2.3746  0.5874  1.4149
 2779SOL    HW210060   6.615   5.985   4.897  0.6608 -2.9902  2.0385
 2780SOL     OW10061   5.353   0.198   0.085 -0.2923 -0.2335  0.1819
 2780SOL    HW110062   5.311   0.264   0.031  1.6751  0.9250 -0.0178
 2780SOL    HW210063   5.286   0.174   0.150 -1.5426  0.8292 -0.6670
 2781SOL     OW10064   5.447   9.631   0.133 -0.1768 -0.3884  0.2311
 2781SOL    HW110065   5.442   9.660   0.042 -1.4200  0.2308  0.4654
 2781SOL    HW210066   5.424   9.709   0.184 -1.6326 -1.2504  0.9637
 2782SOL     OW10067   2.400   8.277   9.541 -0.0986  0.6314  0.1233
 2782SOL    HW110068   2.403   8.345   9.475 -0.7001  0.9339  0.3990
 2782SOL    HW210069   2.372   8.321   9.621  0.4705  0.2438  0.5495
 2783SOL     OW10070   1.455   6.012   0.090  0.3800 -0.0312 -0.1892
 2783SOL    HW110071   1.471   5.944   0.024  0.7929 -0.5515  0.4337
 2783SOL    HW210072   1.500   6.089   0.056  0.4766 -0.2584 -0.5883
 2784SOL     OW10073   2.786   2.906   3.354 -0.2425 -0.1361 -0.3890
 2784SOL    HW110074   2.743   2.923   3.438  2.8703  1.8184  1.0246
 2784SOL    HW210075   2.789   2.811   3.347  0.4718 -0.4216  2.4407
 2785SOL     OW10076   3.914   6.523   8.678  0.0028 -0.3026 -0.0620
 2785SOL    HW110077   3.894   6.576   8.601  0.6778 -1.5667 -1.1607
 2785SOL    HW210078   3.853   6.450   8.673 -0.2390 -0.1687  0.8597
 2786SOL     OW10079   1.476   0.222   6.212 -0.1695 -0.1956 -0.0902
 2786SOL    HW110080   1.539   0.273   6.264  0.7071  1.9538 -3.0105
 2786SOL    HW210081   1.395   0.225   6.262  1.0951 -0.0007  2.0753
 2787SOL     OW10082   6.500   0.780   2.081  0.1364 -0.0779  0.1630
 2787SOL    HW110083   6.479   0.693   2.115  1.3596  0.2168  1.7883
 2787SOL    HW210084   6.431   0.836   2.117 -1.1625 -0.4629 -1.5992
 2788SOL     OW10085   4.762   1.977   1.444  0.1518  0.2781  0.5289
 2788SOL    HW110086   4.787   1.888   1.469 -3.5362 -1.5302 -1.3701
 2788SOL    HW210087   4.829   2.005   1.381  2.4639 -0.2357  2.6359
 2789SOL     OW10088   3.201   3.526   5.480  0.0882  0.1411  0.6701
 2789SOL    HW110089   3.276   3.582   5.463  0.2299 -0.7239 -2.1631
 2789SOL    HW210090   3.126   3.575   5.445 -0.2529 -0.1279  1.0122
 2790SOL     OW10091   6.599   6.651   1.957  0.5495 -0.0291 -0.2480
 2790SOL    HW110092   6.561   6.567   1.931 -0.3210  0.1783  0.3208
 2790SOL    HW210093   6.555   6.715   1.902 -0.2518  0.2524  0.6812
 2791SOL     OW10094   0.299   8.172   4.890 -0.5068  0.0403  0.0755
 2791SOL    HW110095   0.280   8.210   4.805  0.5399  1.3621  0.4018
 2791SOL    HW210096   0.383   8.127   4.878  0.0232  0.8745  0.5803
 2792SOL     OW10097   3.929   3.337   9.508 -0.3314 -0.2879  0.2965
 2792SOL    HW110098   3.838   3.364   9.495 -0.7338 -1.9020 -0.5812
 2792SOL    HW210099   3.979   3.389   9.445 -0.8595 -0.4375 -0.2575
 2793SOL     OW10100   2.704   8.828   4.777  0.0587  0.2261 -0.7682
 2793SOL    HW110101   2.701   8.755   4.715  1.4209  0.1871 -0.8290
 2793SOL    HW210102   2.704   8.906   4.722  0.8778  0.1986 -0.8300
 2794SOL     OW10103   5.865   8.089   7.361  0.2738 -0.1404 -0.1863
 2794SOL    HW110104   5.930   8.044   7.308 -0.9519 -0.3120 -1.5892
 2794SOL    HW210105   5.870   8.180   7.332  0.1866 -0.0688  0.0240
 2795SOL     OW10106   0.536   8.521   5.415  0.6209 -0.0050  0.0638
 2795SOL    HW110107   0.515   8.579   5.341  0.5040  0.6478  0.5954
 2795SOL    HW210108   0.575   8.580   5.481  0.4812 -0.5320  0.6241
 2796SOL     OW10109   0.177   1.760   9.074 -0.2173 -0.0779  0.2683
 2796SOL    HW110110   0.086   1.766   9.044 -0.6003  0.9235  1.5308
 2796SOL    HW210111   0.196   1.846   9.112  1.5403 -0.0115 -0.6692
 2797SOL     OW10112   1.770   3.013   7.831 -0.0920 -0.8105 -0.0218
 2797SOL    HW110113   1.822   3.056   7.764 -0.6096 -2.6946 -1.7477
 2797SOL    HW210114   1.694   3.071   7.843  0.1567 -0.2929 -0.8471
 2798SOL     OW10115   5.543   6.247   1.990 -0.2047 -0.1632  0.0741
 2798SOL    HW110116   5.573   6.156   1.992 -0.2561 -0.1802  1.7621
 2798SOL    HW210117   5.454   6.244   2.024  0.9198  0.8398  3.4651
 2799SOL     OW10118   6.397   0.178   0.909  0.4291 -0.4972  0.2633
 2799SOL    HW110119   6.397   0.167   0.814  0.8659  0.8819  0.0952
 2799SOL    HW210120   6.469   0.122   0.939  0.1866 -1.0656 -0.1864
 2800SOL     OW10121   1.517   1.071   0.558  0.6599 -0.1259  0.0633
 2800SOL    HW110122   1.565   1.139   0.604 -0.7426  1.1847 -0.2897
 2800SOL    HW210123   1.502   1.003   0.623 -0.7430  1.3953  1.4637
 2801SOL     OW10124   2.979   1.379   6.441  0.3514  0.0261  0.2505
 2801SOL    HW110125   2.953   1.417   6.357  1.5099  0.8442  0.2426
 2801SOL    HW210126   2.955   1.445   6.505  4.2378  1.8956  0.0718
 2802SOL     OW10127   6.502   8.985   6.328  0.1929 -0.3759  0.0402
 2802SOL    HW110128   6.482   9.013   6.239 -0.0977  0.1882  0.2793
 2802SOL    HW210129   6.527   9.065   6.373 -0.5115 -0.5203  0.7007
 2803SOL     OW10130   3.096   0.166   5.495 -0.7097 -0.2692 -0.3488
 2803SOL    HW110131   3.002   0.151   5.488 -1.1460  2.1045 -0.5855
 2803SOL    HW210132   3.107   0.215   5.576  0.0603  0.9893 -1.1775
 2804SOL     OW10133   9.028   3.103   7.714  0.1301 -0.0100 -0.0059
 2804SOL    HW110134   8.958   3.041   7.732 -0.5764  1.0259  0.9677
 2804SOL    HW210135   9.109   3.054   7.729 -0.3994 -0.2531  2.5332
 2805SOL     OW10136   1.641   5.510   7.688 -0.6430  0.4939  0.3021
 2805SOL    HW110137   1.587   5.562   7.629 -0.5822  0.0993 -0.1027
 2805SOL    HW210138   1.581   5.444   7.724 -0.5099  0.2480  0.0847
 2806SOL     OW10139   3.010   3.858   1.299 -0.2493  0.2174  0.4942
 2806SOL    HW110140   3.024   3.775   1.255 -1.9002  0.3199 -0.3084
 2806SOL    HW210141   3.087   3.870   1.354  0.7651 -1.0445 -0.6064
 2807SOL     OW10142   7.706   3.300   4.256  0.2212  0.3476  0.5406
 2807SOL    HW110143   7.696   3.339   4.343  1.5224  0.7246  0.5372
 2807SOL    HW210144   7.704   3.205   4.272 -1.2182  0.3940  0.7579
 2808SOL     OW10145   5.407   6.104   4.237  0.1269 -0.3345 -0.1968
 2808SOL    HW110146   5.349   6.096   4.161 -2.5085 -0.2983  1.6856
 2808SOL    HW210147   5.390   6.025   4.288 -1.8154  1.7088  2.6280
 2809SOL     OW10148   0.623   2.991   8.424  0.3104  0.5817  0.0278
 2809SOL    HW110149   0.622   2.902   8.389  0.1403  0.4820  0.2881
 2809SOL    HW210150   0.587   3.045   8.353 -0.6113  0.2963  0.2686
 2810SOL     OW10151   1.757   2.947   8.791 -0.3517  0.1771  0.3432
 2810SOL    HW110152   1.812   2.905   8.725  0.1096  0.4748  0.5372
 2810SOL    HW210153   1.732   3.030   8.751 -0.9361 -0.0999  0.1213
 2811SOL     OW10154   1.802   6.552   8.765 -0.2864 -0.2546 -0.2265
 2811SOL    HW110155   1.855   6.512   8.834  0.2880 -0.2821 -0.6804
 2811SOL    HW210156   1.718   6.569   8.807 -0.0422 -0.5490  0.3967
 2812SOL     OW10157   9.698   8.740   5.404  0.3321 -0.2513  0.1677
 2812SOL    HW110158   9.705   8.750   5.309  0.2010 -0.0695  0.1765
 2812SOL    HW210159   9.733   8.821   5.440  1.0263 -0.5969  0.2965
 2813SOL     OW10160   7.636   4.193   6.709  0.4060  0.0653  0.0658
 2813SOL    HW110161   7.610   4.113   6.754 -3.7251  1.4194  0.5259
 2813SOL    HW210162   7.613   4.263   6.770  1.8029  1.7318 -1.2129
 2814SOL     OW10163   2.175   9.016   5.969 -0.1690  0.4618 -0.3947
 2814SOL    HW110164   2.224   8.938   5.996 -0.8128  0.1909  0.0193
 2814SOL    HW210165   2.158   9.004   5.876 -0.9474 -0.2779 -0.1662
 2815SOL     OW10166   2.382   6.519   4.132  0.1750  0.0519  0.2921
 2815SOL    HW110167   2.378   6.608   4.097 -0.7508  0.7899  2.1301
 2815SOL    HW210168   2.470   6.489   4.109 -0.3615  0.4014 -2.6254
 2816SOL     OW10169   4.542   1.661   6.680 -0.0372 -0.0006  0.5892
 2816SOL    HW110170   4.627   1.691   6.646  0.3323  0.4273  1.8221
 2816SOL    HW210171   4.553   1.663   6.775 -1.0367 -1.1308  0.7407
 2817SOL     OW10172   5.404   1.785   9.172 -0.3949  0.0874  0.0611
 2817SOL    HW110173   5.401   1.810   9.080 -0.4444  1.1580  0.3387
 2817SOL    HW210174   5.319   1.744   9.189  0.6552 -2.8349 -1.0647
 2818SOL     OW10175   3.010   1.582   4.734 -0.0058  0.1881 -0.1816
 2818SOL    HW110176   3.058   1.557   4.813  0.6529 -0.4597 -0.7703
 2818SOL    HW210177   2.984   1.673   4.749 -0.4862 -0.1473  1.0653
 2819SOL     OW10178   3.393   3.983   7.626 -0.0991  0.3881  0.0452
 2819SOL    HW110179   3.401   3.952   7.716  0.8553  1.5379  0.3769
 2819SOL    HW210180   3.470   3.946   7.582 -0.9645 -0.8217 -0.5320
 2820SOL     OW10181   8.746   2.426   2.506  0.2565 -0.3838 -0.6423
 2820SOL    HW110182   8.690   2.490   2.463 -0.2033 -0.9946 -0.9672
 2820SOL    HW210183   8.831   2.437   2.464  0.0967 -0.2080 -0.9215
 2821SOL     OW10184   7.781   4.745   5.113  0.2083  0.0010 -0.3894
 2821SOL    HW110185   7.725   4.703   5.178 -0.4817 -1.2848 -1.7465
 2821SOL    HW210186   7.721   4.795   5.057  0.8395  1.4679  0.1849
 2822SOL     OW10187   2.273   4.093   7.423 -0.3933  0.0552  0.1565
 2822SOL    HW110188   2.194   4.067   7.374  0.5568 -2.5766 -0.1843
 2822SOL    HW210189   2.286   4.022   7.486  1.4104  0.6795  0.5454
 2823SOL     OW10190   2.889   2.764   6.354  0.3034 -0.7020  0.2633
 2823SOL    HW110191   2.885   2.856   6.381  1.0864 -0.2982 -0.8999
 2823SOL    HW210192   2.980   2.738   6.371  1.6069  0.2939 -3.9436
 2824SOL     OW10193   5.101   6.115   5.121  0.1633 -0.2331  0.5697
 2824SOL    HW110194   5.179   6.154   5.080  1.7434 -0.3175  3.2742
 2824SOL    HW210195   5.030   6.176   5.099  1.1753  0.4648 -1.0037
 2825SOL     OW10196   1.137   9.043   4.398  0.0785  0.1278 -0.3898
 2825SOL    HW110197   1.109   9.059   4.488  0.8546  0.3821 -0.1843
 2825SOL    HW210198   1.174   8.955   4.400  0.7588  0.4081 -0.2860
 2826SOL     OW10199   6.312   2.242   1.014 -0.4936  0.4879  0.0361
 2826SOL    HW110200   6.338   2.166   1.066 -4.7238 -0.2528  1.4467
 2826SOL    HW210201   6.393   2.293   1.005  1.6257 -2.0174  2.7289
 2827SOL     OW10202   8.034   2.434   6.035  0.3668 -0.1940  0.2914
 2827SOL    HW110203   7.987   2.478   6.105 -0.8128  0.0450 -0.6140
 2827SOL    HW210204   8.045   2.344   6.065 -0.3420 -0.1540  0.6822
 2828SOL     OW10205   6.459   9.049   7.633 -0.0207 -0.3038  0.2278
 2828SOL    HW110206   6.378   9.022   7.591  0.4170 -1.3679  0.0540
 2828SOL    HW210207   6.484   9.129   7.587 -0.0906 -0.8821 -0.8336
 2829SOL     OW10208   4.855   7.407   3.092  0.4764 -0.0054  0.3749
 2829SOL    HW110209   4.814   7.366   3.168 -0.1510  2.2453  1.3084
 2829SOL    HW210210   4.938   7.361   3.082  0.0974 -1.0592  1.7434
 2830SOL     OW10211   8.966   3.331   8.261 -0.3361 -0.5454  0.1285
 2830SOL    HW110212   9.053   3.349   8.298 -0.4093  0.2412 -0.0627
 2830SOL    HW210213   8.978   3.339   8.167 -1.2192  2.5893  0.1847
 2831SOL     OW10214   6.898   3.318   0.378 -0.6814 -0.0107 -0.1611
 2831SOL    HW110215   6.983   3.343   0.414 -2.1437  1.6862  2.4719
 2831SOL    HW210216   6.884   3.376   0.304  0.9821 -1.2748 -1.5470
 2832SOL     OW10217   8.851   9.416   4.156 -0.1579  0.2560 -0.2717
 2832SOL    HW110218   8.896   9.382   4.233 -1.7367 -0.0105  0.5625
 2832SOL    HW210219   8.773   9.361   4.146 -1.1110  1.6202 -0.7568
 2833SOL     OW10220   1.500   1.766   3.331 -0.2025  0.1834 -0.2578
 2833SOL    HW110221   1.509   1.857   3.358 -2.3054  0.6839 -1.0384
 2833SOL    HW210222   1.413   1.762   3.291  0.6286 -1.7082 -2.0430
 2834SOL     OW10223   5.865   3.589   9.373  0.2874  0.0710  0.2669
 2834SOL    HW110224   5.883   3.629   9.458  1.4103 -0.1337  0.1473
 2834SOL    HW210225   5.795   3.526   9.390  2.1170 -1.7358  1.5922
 2835SOL     OW10226   1.886   6.705   1.262 -0.1558  0.4441  0.2065
 2835SOL    HW110227   1.821   6.683   1.330 -1.2675  0.1555 -0.9150
 2835SOL    HW210228   1.913   6.795   1.284 -1.8817  1.0521 -0.0044
 2836SOL     OW10229   4.920   9.250   2.778  0.0433 -0.6520 -0.7187
 2836SOL    HW110230   4.920   9.161   2.813  0.2098 -0.7986 -1.0865
 2836SOL    HW210231   4.992   9.294   2.823 -1.2442 -0.1227  0.8963
 2837SOL     OW10232   3.206   7.560   5.158 -0.1269 -0.3518 -0.4346
 2837SOL    HW110233   3.225   7.587   5.248 -0.8949 -2.0761  0.3009
 2837SOL    HW210234   3.116   7.587   5.143  0.2924  0.7653 -1.0529
 2838SOL     OW10235   9.557   4.148   5.895  0.2781  0.4045  0.3670
 2838SOL    HW110236   9.606   4.176   5.818 -1.5553  2.2068 -0.2430
 2838SOL    HW210237   9.470   4.186   5.883 -1.3544 -2.6438  1.3495
 2839SOL     OW10238   1.060   7.198   8.290 -0.1043  0.0840  0.1086
 2839SOL    HW110239   1.001   7.147   8.345 -0.4601  0.0072 -0.3323
 2839SOL    HW210240   1.020   7.285   8.285  0.7731  0.5785  1.2861
 2840SOL     OW10241   8.703   7.374   5.730 -0.3496 -0.5822  0.0053
 2840SOL    HW110242   8.792   7.408   5.729 -0.4045 -0.3768  0.9815
 2840SOL    HW210243   8.648   7.450   5.707 -0.3201 -0.5407  0.0719
 2841SOL     OW10244   4.563   3.505   9.228 -0.5125  0.4845  0.5634
 2841SOL    HW110245   4.649   3.521   9.267 -0.0272 -1.0609  0.1992
 2841SOL    HW210246   4.515   3.456   9.296 -0.4035 -0.3566  0.0523
 2842SOL     OW10247   6.675   9.284   7.381  0.2389  0.4918 -0.2952
 2842SOL    HW110248   6.603   9.246   7.331 -0.3803  1.4321 -0.1540
 2842SOL    HW210249   6.739   9.214   7.388 -0.3456 -0.1416 -1.0526
 2843SOL     OW10250   7.937   5.590   7.875  0.0336  0.1493 -0.2972
 2843SOL    HW110251   7.891   5.614   7.794 -0.7743 -0.7030 -0.1159
 2843SOL    HW210252   8.000   5.660   7.889 -1.8737  1.8997 -0.0309
 2844SOL     OW10253   6.533   5.536   0.133 -0.1510 -0.0856  0.3680
 2844SOL    HW110254   6.604   5.473   0.119 -0.7729 -0.7591  0.1741
 2844SOL    HW210255   6.478   5.528   0.055  0.1453  1.2402 -0.0033
 2845SOL     OW10256   6.851   6.034   4.609 -0.2556 -0.3776  0.1551
 2845SOL    HW110257   6.898   6.113   4.636  0.3282 -1.1265  1.3650
 2845SOL    HW210258   6.790   6.016   4.680 -2.0652  0.2649 -1.1384
 2846SOL     OW10259   6.460   3.535   9.437  0.4220  0.2222 -0.3697
 2846SOL    HW110260   6.435   3.533   9.345  0.6864 -0.8713 -0.4311
 2846SOL    HW210261   6.381   3.563   9.483  0.2281  0.5758 -0.9092
 2847SOL     OW10262   4.099   7.730   6.178  0.0675  0.2898 -0.5320
 2847SOL    HW110263   4.014   7.758   6.143  0.5390  2.8865  0.1929
 2847SOL    HW210264   4.077   7.672   6.250 -1.1729  1.7828  0.3460
 2848SOL     OW10265   3.436   7.990   4.255  0.1849 -0.4211  0.3429
 2848SOL    HW110266   3.501   8.060   4.254 -1.0096  0.7597  1.3028
 2848SOL    HW210267   3.352   8.035   4.265 -0.7783 -1.9043 -0.6209
 2849SOL     OW10268   9.024   0.119   2.489 -0.1209  0.1208 -0.6507
 2849SOL    HW110269   8.995   0.168   2.412  1.6639  1.1015 -0.7584
 2849SOL    HW210270   9.036   0.029   2.457 -0.7469  0.2081 -1.1533
 2850SOL     OW10271   3.692   8.568   5.363  0.1523  0.1454  0.7582
 2850SOL    HW110272   3.670   8.605   5.449 -0.7540 -0.8871  1.0123
 2850SOL    HW210273   3.773   8.519   5.378  0.1865  0.2592  0.9474
 2851SOL     OW10274   6.019   8.105   4.711  0.1155 -0.2746 -0.3896
 2851SOL    HW110275   5.939   8.055   4.725  2.1310 -3.4451  0.9874
 2851SOL    HW210276   6.013   8.179   4.771 -1.0462 -1.4657  1.0322
 2852SOL     OW10277   5.983   4.414   9.623 -0.3570 -0.8751 -0.8234
 2852SOL    HW110278   5.927   4.347   9.664 -0.5546 -1.3522 -1.8351
 2852SOL    HW210279   5.926   4.454   9.557 -0.8980  1.6941  1.0520
 2853SOL     OW10280   6.186   8.895   3.857 -0.0144  0.0132  0.1732
 2853SOL    HW110281   6.162   8.845   3.935 -0.2720  2.2560  1.6167
 2853SOL    HW210282   6.274   8.928   3.876  0.7370 -0.9836 -1.3555
 2854SOL     OW10283   6.121   5.905   0.067  0.5547 -0.5545 -0.0107
 2854SOL    HW110284   6.055   5.928   0.132  1.3892  0.4812  0.4896
 2854SOL    HW210285   6.145   5.814   0.088  2.6990  0.5192  2.8690
 2855SOL     OW10286   3.919   1.727   2.500 -0.0755  0.6865  0.1549
 2855SOL    HW110287   3.897   1.659   2.436  0.9010 -0.0617  0.5820
 2855SOL    HW210288   3.984   1.782   2.455 -0.6532  1.1684 -0.0907
 2856SOL     OW10289   0.306   1.850   2.352 -0.5404 -0.3676 -0.1192
 2856SOL    HW110290   0.356   1.886   2.426  0.4569 -1.3348 -0.2945
 2856SOL    HW210291   0.217   1.838   2.387 -0.1388 -0.5993  0.8680
 2857SOL     OW10292   9.272   3.448   3.957  0.3204 -1.1388 -0.6225
 2857SOL    HW110293   9.195   3.438   3.901  0.2096  0.5395 -0.8198
 2857SOL    HW210294   9.345   3.457   3.896  0.3782 -0.6160 -0.4787
 2858SOL     OW10295   1.400   8.362   8.101  0.0234  0.0606  0.6322
 2858SOL    HW110296   1.417   8.350   8.008  0.0084  0.5477  0.5617
 2858SOL    HW210297   1.327   8.303   8.121 -0.9366  1.0103  0.0106
 2859SOL     OW10298   3.633   1.660   9.428  0.2598  0.2810 -0.6187
 2859SOL    HW110299   3.723   1.648   9.458 -0.3640  2.2007  2.3976
 2859SOL    HW210300   3.621   1.755   9.426 -1.9926  0.0589 -0.0048
 2860SOL     OW10301   6.584   0.279   2.224  0.0430 -0.0828  0.0118
 2860SOL    HW110302   6.584   0.231   2.141 -0.6465  0.4227 -0.2822
 2860SOL    HW210303   6.492   0.284   2.250  0.1685  0.5142  0.3680
 2861SOL     OW10304   3.497   5.639   2.199  0.3538  0.6741  0.3708
 2861SOL    HW110305   3.459   5.648   2.112 -0.8212 -0.0550  0.7775
 2861SOL    HW210306   3.562   5.569   2.190  0.5597  0.9106 -0.0103
 2862SOL     OW10307   6.167   2.762   1.146 -0.0033  0.8396  0.3143
 2862SOL    HW110308   6.076   2.752   1.119 -0.5156 -1.7908  2.5757
 2862SOL    HW210309   6.189   2.853   1.124 -3.0620  1.4822 -0.5083
 2863SOL     OW10310   1.268   7.156   8.542 -0.8735 -0.1300  0.3678
 2863SOL    HW110311   1.337   7.174   8.478 -1.1550  1.0940  0.3843
 2863SOL    HW210312   1.189   7.195   8.504 -1.6421 -1.7741  0.2110
 2864SOL     OW10313   9.465   0.689   6.497 -0.3481  0.4907  0.2344
 2864SOL    HW110314   9.463   0.763   6.437  0.5230  1.5882  1.4793
 2864SOL    HW210315   9.524   0.626   6.456  1.5698  1.9241  0.6493
 2865SOL     OW10316   7.645   4.233   5.970 -0.0560 -0.1307  0.3008
 2865SOL    HW110317   7.636   4.138   5.963 -0.1111 -0.1198  0.2154
 2865SOL    HW210318   7.722   4.253   5.918 -0.9502  0.0451 -1.0056
 2866SOL     OW10319   3.018   3.455   6.216  0.2136  0.1750  0.6098
 2866SOL    HW110320   3.024   3.418   6.128  0.2044 -0.4832  0.8809
 2866SOL    HW210321   2.933   3.499   6.217  0.5696  0.8969  0.0305
 2867SOL     OW10322   7.278   7.867   6.657  0.5142 -0.5491 -0.7261
 2867SOL    HW110323   7.206   7.921   6.689  2.1559  1.1364  0.3713
 2867SOL    HW210324   7.311   7.913   6.580 -0.1081 -1.8085 -1.7931
 2868SOL     OW10325   8.543   9.008   7.596  0.3223  0.3334  0.3196
 2868SOL    HW110326   8.569   9.071   7.663  1.0655 -1.3200  1.6404
 2868SOL    HW210327   8.450   8.992   7.614  0.4788  0.0154  0.8749
 2869SOL     OW10328   4.257   4.273   7.182  0.3154  0.1281  0.2635
 2869SOL    HW110329   4.242   4.276   7.276  2.0281  1.7053  0.5567
 2869SOL    HW210330   4.195   4.208   7.149 -1.4951  0.7493  2.2312
 2870SOL     OW10331   7.022   0.920   4.538  0.1212  0.0699 -0.1595
 2870SOL    HW110332   7.103   0.970   4.551 -0.7272  0.8452  3.0233
 2870SOL    HW210333   7.048   0.829   4.552  0.6209  0.2217 -0.0669
 2871SOL     OW10334   0.945   0.042   6.604 -0.3472 -0.0421 -0.0628
 2871SOL    HW110335   0.887   0.098   6.657 -1.1357  0.4262 -1.3777
 2871SOL    HW210336   0.885  -0.022   6.564  0.6369 -2.6185  2.2673
 2872SOL     OW10337   8.254   6.181   5.620 -0.0989 -0.1813 -0.1746
 2872SOL    HW110338   8.318   6.219   5.560  0.8227 -1.8660 -0.3380
 2872SOL    HW210339   8.212   6.256   5.661  4.2632  1.2415  2.4117
 2873SOL     OW10340   7.442   6.536   8.940  0.1776  0.1930  0.5020
 2873SOL    HW110341   7.440   6.524   9.035 -1.2399  0.5100  0.5300
 2873SOL    HW210342   7.378   6.474   8.906 -0.4399  1.1453 -0.1134
 2874SOL     OW10343   1.591   7.323   1.616  0.4069 -0.0860 -0.0905
 2874SOL    HW110344   1.631   7.251   1.665 -2.2609 -0.6263  1.5257
 2874SOL    HW210345   1.533   7.366   1.680 -0.7200  1.2962 -1.9405
 2875SOL     OW10346   0.007   4.603   6.433 -0.3924  0.7268  0.4645
 2875SOL    HW110347   0.049   4.632   6.514 -0.9883 -0.5163  1.2627
 2875SOL    HW210348  -0.033   4.519   6.456 -0.7633  0.4511 -1.0734
 2876SOL     OW10349   3.696   0.348   6.543  0.5905 -0.7050  0.3370
 2876SOL    HW110350   3.631   0.322   6.608  0.7140 -0.8973  0.3861
 2876SOL    HW210351   3.676   0.295   6.466 -0.4638  0.5630 -0.2972
 2877SOL     OW10352   1.502   7.935   8.660 -0.3737  0.1287 -0.0433
 2877SOL    HW110353   1.449   7.871   8.613 -1.0661  1.9966 -1.9798
 2877SOL    HW210354   1.447   7.963   8.733 -0.5424 -0.6057  0.1143
 2878SOL     OW10355   7.757   4.632   7.574 -0.2595 -0.4569 -0.2193
 2878SOL    HW110356   7.796   4.681   7.502 -0.2044 -1.0872 -0.6325
 2878SOL    HW210357   7.809   4.655   7.650  0.1639 -0.3703 -0.5311
 2879SOL     OW10358   3.423   3.340   4.363  0.0329 -0.0602 -0.2920
 2879SOL    HW110359   3.382   3.260   4.397  2.5276 -1.4547 -0.3518
 2879SOL    HW210360   3.452   3.386   4.441  0.2483 -0.1436 -0.3238
 2880SOL     OW10361   5.587   2.687   5.202 -0.2510  0.0432  0.8488
 2880SOL    HW110362   5.611   2.597   5.181  2.7084  0.7978  0.5394
 2880SOL    HW210363   5.595   2.734   5.120  0.1053  0.9303  1.3813
 2881SOL     OW10364   5.129   4.056   1.693 -0.3477 -0.0547  0.3579
 2881SOL    HW110365   5.073   4.055   1.770  1.3932  2.5213  1.8231
 2881SOL    HW210366   5.080   4.108   1.628 -1.0573 -0.7064  0.3621
 2882SOL     OW10367   2.344   2.562   6.331 -0.6145 -0.3898  0.3699
 2882SOL    HW110368   2.312   2.650   6.350 -2.4417 -0.9067 -0.0737
 2882SOL    HW210369   2.418   2.549   6.390  1.0585  2.1922 -1.0214
 2883SOL     OW10370   0.497   1.621   5.641  0.7751  0.1262  0.1932
 2883SOL    HW110371   0.483   1.527   5.655  0.9324  0.1706  0.6664
 2883SOL    HW210372   0.588   1.628   5.615  0.6295  0.0994 -0.3278
 2884SOL     OW10373   1.885   9.518   3.749 -0.4185  0.0003 -0.5765
 2884SOL    HW110374   1.942   9.582   3.707 -1.3590  1.0730 -0.2635
 2884SOL    HW210375   1.829   9.569   3.808 -1.1340 -1.1114 -0.2396
 2885SOL     OW10376   2.775   0.254   7.793 -0.0684  0.1067 -0.1944
 2885SOL    HW110377   2.832   0.252   7.716  0.8231 -3.5180  0.3982
 2885SOL    HW210378   2.717   0.329   7.777  1.6813  1.0071 -3.1594
 2886SOL     OW10379   3.460   1.676   5.663  0.0351  0.0092 -0.1609
 2886SOL    HW110380   3.507   1.593   5.673  0.0463  0.1404  0.9829
 2886SOL    HW210381   3.446   1.684   5.569  0.2655 -1.1611 -0.3100
 2887SOL     OW10382   4.287   3.571   1.509 -0.4162 -0.0405 -0.4817
 2887SOL    HW110383   4.372   3.551   1.547  0.0626  2.1201 -0.2963
 2887SOL    HW210384   4.302   3.575   1.414 -0.8363 -1.8479 -0.6636
 2888SOL     OW10385   5.755   1.393   2.173 -0.0947 -0.1963 -1.0282
 2888SOL    HW110386   5.700   1.464   2.205  1.0977  0.2275  0.1685
 2888SOL    HW210387   5.728   1.317   2.225  1.3859  0.3417  0.6260
 2889SOL     OW10388   9.283   0.361   5.604 -0.7718  0.3378  0.1735
 2889SOL    HW110389   9.300   0.268   5.618 -0.4763  0.3584 -0.0295
 2889SOL    HW210390   9.339   0.384   5.530 -0.7683  0.6981  0.2883
 2890SOL     OW10391   0.685   2.411   7.130  0.3350  0.2703 -0.4801
 2890SOL    HW110392   0.682   2.474   7.059  0.1657  0.7796 -0.0302
 2890SOL    HW210393   0.609   2.354   7.115  0.4374  0.2254 -0.8365
 2891SOL     OW10394   6.863   4.372   2.291 -0.1686  0.2647  0.1364
 2891SOL    HW110395   6.833   4.452   2.248 -1.0831  0.0572  0.3566
 2891SOL    HW210396   6.785   4.338   2.335  0.3944 -0.3287  0.7016
 2892SOL     OW10397   9.380   8.038   9.260  0.2867 -0.2509  0.2707
 2892SOL    HW110398   9.297   8.003   9.293 -0.5865  2.1514  0.8141
 2892SOL    HW210399   9.441   8.029   9.334  0.0695 -0.5629  0.4125
 2893SOL     OW10400   6.770   0.886   1.243  0.3880 -0.0879  0.7241
 2893SOL    HW110401   6.730   0.963   1.203 -1.2019 -1.6607 -0.9368
 2893SOL    HW210402   6.851   0.918   1.281  0.2564  2.2143 -0.7435
 2894SOL     OW10403   1.591   2.041   1.812  0.6078 -0.5020 -0.1778
 2894SOL    HW110404   1.648   2.066   1.885 -1.1091 -1.3994  1.5752
 2894SOL    HW210405   1.554   1.957   1.838 -0.6322 -0.4962 -1.7627
 2895SOL     OW10406   0.323   2.484   3.834 -0.4096  0.4111  0.0343
 2895SOL    HW110407   0.346   2.418   3.899 -0.1666 -0.7381 -1.1811
 2895SOL    HW210408   0.398   2.488   3.775 -0.0945  2.3421  0.4874
 2896SOL     OW10409   9.564   7.065   2.935  0.3259 -0.4660  0.0821
 2896SOL    HW110410   9.474   7.036   2.946  0.3591 -0.4392  0.4501
 2896SOL    HW210411   9.617   6.988   2.953  0.3949 -0.3301  0.4731
 2897SOL     OW10412   7.126   1.360   2.236 -0.0284 -0.3434  0.0145
 2897SOL    HW110413   7.164   1.445   2.217  0.4591 -0.4583  0.4537
 2897SOL    HW210414   7.136   1.310   2.155  0.4078 -0.2468  0.0091
 2898SOL     OW10415   6.653   4.854   8.202  0.5307 -0.1616 -0.6479
 2898SOL    HW110416   6.621   4.944   8.202 -1.6193 -0.8151 -2.7792
 2898SOL    HW210417   6.631   4.820   8.289 -3.1180  0.0200 -1.3534
 2899SOL     OW10418   0.613   8.800   8.767  0.1739 -0.2008 -0.3277
 2899SOL    HW110419   0.575   8.859   8.702 -0.5972  1.0553  1.1939
 2899SOL    HW210420   0.613   8.851   8.848 -1.6992 -2.7145  1.3823
 2900SOL     OW10421   1.008   1.615   6.207 -0.3470  0.0015  0.0630
 2900SOL    HW110422   1.029   1.621   6.114  0.2038  0.8959  0.2309
 2900SOL    HW210423   0.917   1.644   6.214 -0.5204 -0.4536 -0.2332
 2901SOL     OW10424   2.107   9.676   3.663  0.2145 -0.2100 -0.0835
 2901SOL    HW110425   2.081   9.752   3.714 -0.5022 -0.8322  0.5141
 2901SOL    HW210426   2.192   9.650   3.700 -0.2384 -0.5787  0.7226
 2902SOL     OW10427   3.752   6.070   3.944  0.0511  0.7862  0.9653
 2902SOL    HW110428   3.743   6.154   3.900 -1.2392  0.7713  1.1635
 2902SOL    HW210429   3.666   6.054   3.983 -0.9090 -2.2372 -1.9364
 2903SOL     OW10430   8.469   5.725   4.189  0.2733 -0.1756  0.2400
 2903SOL    HW110431   8.377   5.751   4.187  0.9629  2.6882  1.1584
 2903SOL    HW210432   8.471   5.647   4.245 -1.6064 -0.5844 -0.1908
 2904SOL     OW10433   7.963   3.572   8.662  0.2530 -0.5519  0.2674
 2904SOL    HW110434   7.878   3.565   8.618 -0.8611  0.0726  2.2202
 2904SOL    HW210435   7.997   3.483   8.661 -0.4857 -0.8500 -0.3958
 2905SOL     OW10436   8.541   8.011   2.843 -0.6066  0.4315  0.1660
 2905SOL    HW110437   8.470   7.956   2.809 -1.6384  1.7459  0.1102
 2905SOL    HW210438   8.596   8.030   2.767 -0.1027 -0.7014  0.2340
 2906SOL     OW10439   4.601   7.512   6.384 -0.2600  0.0943 -0.0441
 2906SOL    HW110440   4.521   7.527   6.334 -0.6808  0.2165  0.6642
 2906SOL    HW210441   4.669   7.501   6.317 -0.8587  0.0069 -0.6475
 2907SOL     OW10442   2.916   2.758   8.222  0.2525 -0.1281 -0.9400
 2907SOL    HW110443   2.874   2.675   8.199 -2.7026  1.4147 -1.6355
 2907SOL    HW210444   2.918   2.758   8.318  0.7625 -1.2066 -0.9395
 2908SOL     OW10445   6.424   6.900   3.078  0.3101  0.1902 -0.1631
 2908SOL    HW110446   6.423   6.954   2.999  0.4252 -1.5874 -1.4383
 2908SOL    HW210447   6.347   6.844   3.070  0.7726 -0.5801  0.5650
 2909SOL     OW10448   0.916   7.735   1.225  0.1512  0.9676  0.2326
 2909SOL    HW110449   0.939   7.643   1.218  0.7398  1.1076  0.3339
 2909SOL    HW210450   0.858   7.740   1.301 -1.2226  0.4319 -0.7317
 2910SOL     OW10451   3.608   1.355   4.023  0.2992  0.1300 -0.1959
 2910SOL    HW110452   3.630   1.271   3.982 -1.0196  0.3438 -1.3978
 2910SOL    HW210453   3.676   1.366   4.090 -0.2001 -2.4842  0.8899
 2911SOL     OW10454   0.562   0.887   5.618 -0.1213  0.0764  0.1036
 2911SOL    HW110455   0.533   0.978   5.625 -1.0039 -0.0554 -1.4823
 2911SOL    HW210456   0.512   0.851   5.545  2.4754 -0.8077 -1.3734
 2912SOL     OW10457   4.847   5.049   1.610 -0.3479  0.0106 -0.3588
 2912SOL    HW110458   4.885   5.083   1.692 -0.1060 -2.5682  0.7028
 2912SOL    HW210459   4.862   5.118   1.546  0.6997  1.5655  1.4600
 2913SOL     OW10460   4.593   5.191   3.691  0.4087 -0.0329  0.6799
 2913SOL    HW110461   4.600   5.242   3.772  1.9798  0.6951  0.1293
 2913SOL    HW210462   4.657   5.121   3.702 -1.6853 -1.9282  1.3946
 2914SOL     OW10463   8.871   2.258   4.128 -0.6307  0.0923  0.7650
 2914SOL    HW110464   8.796   2.293   4.081  0.0531  1.0016  0.3218
 2914SOL    HW210465   8.920   2.209   4.063 -1.1475 -1.0286  1.1963
 2915SOL     OW10466   8.956   5.828   0.287  0.0089  0.3185 -0.2174
 2915SOL    HW110467   8.951   5.922   0.306 -0.2953  0.0274  1.3180
 2915SOL    HW210468   8.867   5.796   0.301  0.1466 -0.2300 -0.5708
 2916SOL     OW10469   3.476   4.148   5.716 -0.0466  0.0979  0.0131
 2916SOL    HW110470   3.559   4.182   5.680 -1.3085  1.1895 -2.0518
 2916SOL    HW210471   3.420   4.136   5.640 -0.2411 -5.6159  0.6530
 2917SOL     OW10472   1.784   3.697   3.688  0.0243  1.1128 -0.2978
 2917SOL    HW110473   1.742   3.709   3.602 -0.4633  0.5575 -0.1388
 2917SOL    HW210474   1.854   3.634   3.672 -1.2055 -0.3927  0.0546
 2918SOL     OW10475   3.149   6.096   6.648 -0.0526 -0.4505  0.0151
 2918SOL    HW110476   3.064   6.130   6.676  0.7965  0.8456  1.1033
 2918SOL    HW210477   3.200   6.173   6.626  0.7825 -1.2333 -0.8512
 2919SOL     OW10478   1.990   2.516   6.999  0.4154 -0.1415  0.0698
 2919SOL    HW110479   2.074   2.470   7.007  0.8590  0.5683 -0.3611
 2919SOL    HW210480   1.951   2.481   6.918  1.5314  1.4104 -1.2008
 2920SOL     OW10481   9.462   2.376   9.221 -0.6003 -0.2241 -0.4672
 2920SOL    HW110482   9.481   2.469   9.230  1.6584 -0.6265 -0.5232
 2920SOL    HW210483   9.440   2.365   9.128 -1.1509  0.2984 -0.3971
 2921SOL     OW10484   7.446   5.694   6.949 -0.9462 -0.5875  0.5076
 2921SOL    HW110485   7.488   5.777   6.973 -0.1380 -1.1221  1.0000
 2921SOL    HW210486   7.445   5.643   7.030  0.0182 -1.6544 -0.1157
 2922SOL     OW10487   5.723   1.045   3.645 -0.4901  0.8296 -0.1603
 2922SOL    HW110488   5.673   1.125   3.630  0.3726  1.3506 -0.3638
 2922SOL    HW210489   5.814   1.072   3.633 -0.0823  0.1590  1.2149
 2923SOL     OW10490   7.620   6.371   3.526 -0.2385  0.2194 -0.5774
 2923SOL    HW110491   7.700   6.321   3.543 -1.1440 -1.2997 -0.5971
 2923SOL    HW210492   7.651   6.453   3.489  1.3114 -0.3459 -0.6376
 2924SOL     OW10493   9.167   6.573   7.166  0.0281 -0.0556  0.6438
 2924SOL    HW110494   9.227   6.528   7.226 -0.5040  0.8570  1.9106
 2924SOL    HW210495   9.191   6.666   7.173 -0.1558  0.0841 -0.4436
 2925SOL     OW10496   1.441   1.019   4.131  0.4879 -0.6681  0.3526
 2925SOL    HW110497   1.369   0.976   4.177  0.3492 -0.2749  0.5147
 2925SOL    HW210498   1.405   1.040   4.045  0.1719  0.1259  0.6580
 2926SOL     OW10499   0.439   8.561   8.617  0.3633 -0.6373 -0.3566
 2926SOL    HW110500   0.381   8.636   8.605 -0.3777 -1.3520 -1.3546
 2926SOL    HW210501   0.437   8.544   8.712  2.1166  1.8021  0.2255
 2927SOL     OW10502   0.811   5.461   3.271 -0.3147  0.2276  0.2829
 2927SOL    HW110503   0.760   5.398   3.322 -1.1156  0.7470  0.1369
 2927SOL    HW210504   0.797   5.436   3.180 -1.2584  1.0500  0.1790
 2928SOL     OW10505   4.767   0.526   7.616 -0.3413 -0.8733  0.2860
 2928SOL    HW110506   4.811   0.610   7.607 -1.0804 -0.6186 -1.2110
 2928SOL    HW210507   4.679   0.547   7.647 -0.4120 -1.1230  0.2635
 2929SOL     OW10508   6.920   5.108   4.789 -0.3255  0.1687  0.4263
 2929SOL    HW110509   6.896   5.188   4.834 -0.6519 -0.9047  2.2670
 2929SOL    HW210510   6.836   5.075   4.754  0.0294  1.3971 -1.7940
 2930SOL     OW10511   0.247   4.033   1.613  0.1413  0.1551  0.2492
 2930SOL    HW110512   0.220   4.053   1.523  0.3209  1.8521  0.5495
 2930SOL    HW210513   0.311   4.100   1.635  0.2820 -0.3853  1.5749
 2931SOL     OW10514   8.482   1.029   1.386 -0.5691 -0.5063  0.2771
 2931SOL    HW110515   8.509   1.061   1.472  0.8585  0.0972 -0.3641
 2931SOL    HW210516   8.390   1.053   1.379 -0.1635  1.3389  0.8049
 2932SOL     OW10517   9.601   3.332   0.702  0.0123 -0.2719  0.7151
 2932SOL    HW110518   9.624   3.240   0.695  0.7826 -0.0729  0.4985
 2932SOL    HW210519   9.680   3.374   0.738  0.0206  0.4405 -0.0877
 2933SOL     OW10520   2.381   4.644   2.810 -0.6113 -0.0932  0.1605
 2933SOL    HW110521   2.435   4.609   2.739  0.6592  0.0202  1.0367
 2933SOL    HW210522   2.440   4.646   2.886 -2.0552 -0.6496  1.3474
 2934SOL     OW10523   3.638   8.752   7.955 -0.3355  0.2371  0.2931
 2934SOL    HW110524   3.651   8.739   8.049  1.2234  1.9717  0.3701
 2934SOL    HW210525   3.721   8.789   7.924 -0.9026 -0.0802 -1.7258
 2935SOL     OW10526   5.130   6.366   5.845 -0.2063  0.1896  0.2990
 2935SOL    HW110527   5.043   6.334   5.870 -0.4357  1.6607  1.5477
 2935SOL    HW210528   5.179   6.368   5.927  0.1710  1.7841  0.0602
 2936SOL     OW10529   8.125   3.734   6.489  0.2375  0.0804  0.6353
 2936SOL    HW110530   8.131   3.798   6.561  1.4665  2.3762 -1.3585
 2936SOL    HW210531   8.033   3.735   6.464  0.0644  0.3410  1.2660
 2937SOL     OW10532   8.208   1.201   3.662  0.0273 -0.1764  0.0132
 2937SOL    HW110533   8.156   1.247   3.596 -1.9020 -0.3141  1.3426
 2937SOL    HW210534   8.226   1.268   3.728  1.9378 -0.0398 -0.5744
 2938SOL     OW10535   2.530   5.800   8.460  0.3949  0.7423  0.2614
 2938SOL    HW110536   2.620   5.793   8.427  0.4316 -0.5530  0.5723
 2938SOL    HW210537   2.497   5.881   8.422  1.3397  0.6903 -0.7352
 2939SOL     OW10538   1.021   5.409   3.520 -0.1158 -0.1222  0.4276
 2939SOL    HW110539   0.952   5.370   3.467 -1.2753  1.2748  0.8555
 2939SOL    HW210540   1.088   5.341   3.527  0.6433 -0.0718 -3.7005
 2940SOL     OW10541   2.353   9.394   7.439  0.8645  0.2673 -0.4207
 2940SOL    HW110542   2.337   9.409   7.346  0.9573 -0.0602 -0.4899
 2940SOL    HW210543   2.268   9.407   7.481  0.9313  0.9407 -0.4836
 2941SOL     OW10544   4.570   7.275   2.745  0.5803  0.0073 -0.3548
 2941SOL    HW110545   4.531   7.211   2.804 -1.9614  1.8729  0.1489
 2941SOL    HW210546   4.527   7.261   2.661  0.6531  0.4722 -0.4770
 2942SOL     OW10547   6.668   3.490   7.744  0.3488  0.2661 -0.0769
 2942SOL    HW110548   6.575   3.505   7.754  0.6526  1.6688  0.9336
 2942SOL    HW210549   6.697   3.458   7.829  0.7061 -0.7692 -0.5643
 2943SOL     OW10550   5.491   0.112   0.354  0.4555 -0.0454 -0.5270
 2943SOL    HW110551   5.576   0.120   0.397  1.2125 -2.4224 -1.4080
 2943SOL    HW210552   5.492   0.180   0.287  1.0887  0.8144  0.3285
 2944SOL     OW10553   8.298   5.475   6.669 -0.0769 -0.6110  0.3701
 2944SOL    HW110554   8.267   5.450   6.583 -1.7727  0.1863  0.6991
 2944SOL    HW210555   8.264   5.564   6.682 -2.0851 -1.6058  2.8282
 2945SOL     OW10556   3.879   6.438   9.020 -0.9037  0.1288 -0.0071
 2945SOL    HW110557   3.919   6.358   8.987 -1.1580 -0.5865  1.3435
 2945SOL    HW210558   3.789   6.434   8.989 -0.5304  0.6767 -1.2318
 2946SOL     OW10559   6.081   2.461   2.309  0.5589  0.1589 -0.1618
 2946SOL    HW110560   6.000   2.433   2.351  0.4312  0.1733 -0.3986
 2946SOL    HW210561   6.121   2.381   2.275 -0.3549  0.3657 -1.8187
 2947SOL     OW10562   6.520   5.072   3.007 -0.0203  0.0374 -0.4496
 2947SOL    HW110563   6.449   5.015   3.036  1.1383 -0.6477  1.2303
 2947SOL    HW210564   6.520   5.144   3.070 -0.3703  1.0186 -1.5357
 2948SOL     OW10565   1.759   8.856   2.499 -0.3185  0.3969  0.0446
 2948SOL    HW110566   1.851   8.859   2.528  0.3826  0.2595 -2.0011
 2948SOL    HW210567   1.710   8.892   2.572  1.3041 -0.0661  1.4349
 2949SOL     OW10568   4.717   2.043   5.173  0.6775  0.2544  0.3622
 2949SOL    HW110569   4.695   2.136   5.180  2.6981  0.7350  1.1192
 2949SOL    HW210570   4.737   2.029   5.081  1.1201  0.7809  0.3736
 2950SOL     OW10571   5.778   6.073   0.433 -0.7265 -0.7276  0.4614
 2950SOL    HW110572   5.799   6.166   0.443 -0.1153 -0.6702 -1.1571
 2950SOL    HW210573   5.795   6.036   0.520  1.2339  0.2785  0.5772
 2951SOL     OW10574   9.079   6.401   2.394 -0.0283 -0.2179 -0.4004
 2951SOL    HW110575   8.994   6.356   2.400 -0.1194  0.0359  0.4147
 2951SOL    HW210576   9.056   6.493   2.384  0.1590 -0.3018 -1.8042
 2952SOL     OW10577   0.548   2.643   9.279 -0.3574 -0.1305 -0.1954
 2952SOL    HW110578   0.570   2.616   9.189 -1.7075 -0.3691 -0.4646
 2952SOL    HW210579   0.562   2.737   9.280 -1.8983  0.1282 -1.1394
 2953SOL     OW10580   0.197   6.263   2.645 -0.1211 -0.5182  0.1054
 2953SOL    HW110581   0.164   6.193   2.702  0.3958 -2.8116 -2.1946
 2953SOL    HW210582   0.276   6.226   2.605 -1.0495  0.4426 -2.9078
 2954SOL     OW10583   1.164   4.141   2.493 -0.5412  0.5780  0.4332
 2954SOL    HW110584   1.153   4.050   2.521  0.0611  0.6886  1.0677
 2954SOL    HW210585   1.115   4.192   2.557 -1.7701  0.6473 -0.5321
 2955SOL     OW10586   5.926   8.074   1.672  0.1356 -0.3203  0.4093
 2955SOL    HW110587   5.836   8.079   1.706 -0.2039  1.8926 -0.6405
 2955SOL    HW210588   5.942   7.980   1.660 -0.7925 -1.0286  3.7007
 2956SOL     OW10589   8.749   6.412   2.993 -0.2016 -0.4096 -0.3713
 2956SOL    HW110590   8.720   6.480   2.932 -0.5649  1.1404  1.4479
 2956SOL    HW210591   8.675   6.396   3.050  0.7672 -0.3065  0.9677
 2957SOL     OW10592   6.128   0.418   5.633  0.4340 -0.1995  0.0777
 2957SOL    HW110593   6.088   0.384   5.552 -0.3527  1.1234 -0.1199
 2957SOL    HW210594   6.120   0.346   5.695 -0.3502 -0.7141 -0.5857
 2958SOL     OW10595   9.107   5.855   6.380  0.0213  0.3467  0.1062
 2958SOL    HW110596   9.161   5.776   6.379 -0.2653  0.1497 -0.5952
 2958SOL    HW210597   9.152   5.915   6.440  2.4749  1.2021 -2.3636
 2959SOL     OW10598   7.762   8.018   1.501 -0.6901  0.0865  0.1260
 2959SOL    HW110599   7.676   7.979   1.490 -0.5415 -0.3951  0.5879
 2959SOL    HW210600   7.805   7.963   1.567 -0.7101  1.4072  1.2875
 2960SOL     OW10601   3.603   3.831   5.294  0.1755  0.1209  0.3055
 2960SOL    HW110602   3.663   3.762   5.265 -0.2340 -0.4296  0.7558
 2960SOL    HW210603   3.652   3.912   5.279  0.0515 -0.1399 -1.7502
 2961SOL     OW10604   8.551   4.326   1.138  0.1095  0.4127 -0.1023
 2961SOL    HW110605   8.457   4.329   1.123  0.1976  1.5256 -0.5587
 2961SOL    HW210606   8.560   4.312   1.233 -0.4852 -1.2930 -0.2662
 2962SOL     OW10607   3.432   0.615   2.793 -0.3400 -0.1588  0.3506
 2962SOL    HW110608   3.398   0.702   2.774 -0.1493 -0.0224  0.6247
 2962SOL    HW210609   3.366   0.576   2.850  0.0801  0.2015  1.0940
 2963SOL     OW10610   6.788   1.918   8.304 -0.4580  0.0042  0.0800
 2963SOL    HW110611   6.826   1.863   8.235  1.3557  1.1523  0.1059
 2963SOL    HW210612   6.766   2.000   8.260 -3.5739 -0.7678 -0.0624
 2964SOL     OW10613   3.662   0.968   2.415 -0.6082 -0.0630 -0.8800
 2964SOL    HW110614   3.726   1.020   2.463  0.2512 -0.2711 -1.7810
 2964SOL    HW210615   3.592   1.029   2.394 -0.7214  0.1695  0.0988
 2965SOL     OW10616   6.770   4.093   9.078 -0.5969  0.2777  0.1933
 2965SOL    HW110617   6.777   4.062   8.988 -1.4902  0.5697  0.0087
 2965SOL    HW210618   6.678   4.078   9.101 -0.5528  0.8918  0.7994
 2966SOL     OW10619   8.582   0.419   9.687  0.1359  0.4099  0.0128
 2966SOL    HW110620   8.528   0.497   9.700  0.2171  0.4541  0.0814
 2966SOL    HW210621   8.595   0.384   9.775 -1.3100 -0.6222 -0.1431
 2967SOL     OW10622   1.033   7.791   3.458 -0.3204  0.3389 -0.4888
 2967SOL    HW110623   1.010   7.790   3.551 -1.2419 -0.8082 -0.6981
 2967SOL    HW210624   1.121   7.829   3.455 -0.4108  0.7095  0.8084
 2968SOL     OW10625   8.434   3.604   4.011 -0.4086  0.1993  0.0896
 2968SOL    HW110626   8.351   3.591   3.964  0.4649  2.5354 -2.3897
 2968SOL    HW210627   8.474   3.517   4.012 -1.2058 -0.2767 -2.2087
 2969SOL     OW10628   6.407   5.694   7.228  0.2703  0.3330  0.1981
 2969SOL    HW110629   6.316   5.676   7.206  1.0318 -2.2409 -1.1454
 2969SOL    HW210630   6.442   5.741   7.153  0.4923 -0.2574 -0.0726
 2970SOL     OW10631   8.441   7.524   2.891 -0.4326 -0.2739 -0.3321
 2970SOL    HW110632   8.497   7.510   2.967 -2.7976 -1.7536  1.2875
 2970SOL    HW210633   8.423   7.436   2.858 -3.5835 -0.1653  0.7183
 2971SOL     OW10634   0.881   3.126   8.181  0.2383  0.0089  0.6373
 2971SOL    HW110635   0.961   3.090   8.142  0.2253 -0.6186  1.1805
 2971SOL    HW210636   0.904   3.216   8.205  0.4555  0.1751 -0.1752
 2972SOL     OW10637   4.984   3.499   6.388  0.0376  0.3101  0.5850
 2972SOL    HW110638   4.905   3.446   6.404 -0.3521  0.6269 -0.2599
 2972SOL    HW210639   4.950   3.585   6.363  0.5965 -0.0539 -1.5965
 2973SOL     OW10640   1.234   7.358   9.393  0.2512 -0.2911  0.7131
 2973SOL    HW110641   1.306   7.372   9.455  0.7374 -0.1610  0.1329
 2973SOL    HW210642   1.268   7.292   9.332  0.0826  0.1632  0.1205
 2974SOL     OW10643   6.920   3.806   1.169 -0.0912  0.0718 -0.4374
 2974SOL    HW110644   6.833   3.771   1.147 -0.6435  0.1764  1.4133
 2974SOL    HW210645   6.944   3.860   1.093 -0.2274 -2.3977 -2.3858
 2975SOL     OW10646   3.154   6.660   2.655  0.3188  0.4691  0.1173
 2975SOL    HW110647   3.103   6.605   2.715  0.5752 -1.2754 -1.1970
 2975SOL    HW210648   3.133   6.750   2.681 -1.6373 -0.2152  1.0744
 2976SOL     OW10649   1.002   5.693   7.530  0.4040 -0.2527 -0.1399
 2976SOL    HW110650   1.083   5.725   7.489  2.1772 -0.4547  2.8349
 2976SOL    HW210651   1.031   5.661   7.616 -2.9932  0.6096  1.5028
 2977SOL     OW10652   3.375   0.906   4.457  0.0079 -0.0401 -0.0521
 2977SOL    HW110653   3.458   0.920   4.503  0.0576  2.0326 -0.6723
 2977SOL    HW210654   3.317   0.974   4.492 -1.5379 -1.5615  0.5032
 2978SOL     OW10655   1.085   9.068   8.317 -0.0854 -0.0021 -0.2102
 2978SOL    HW110656   1.037   9.109   8.389 -0.0670  1.9544 -1.2344
 2978SOL    HW210657   1.020   9.052   8.250 -0.0274 -1.4383  0.0356
 2979SOL     OW10658   1.134   0.255   1.663  0.2335 -0.3011  0.1640
 2979SOL    HW110659   1.213   0.236   1.714  0.7959  0.5514 -0.3454
 2979SOL    HW210660   1.149   0.212   1.579  1.5575  2.2288 -1.0304
 2980SOL     OW10661   2.295   9.341   9.017 -0.5285  0.4958 -0.4821
 2980SOL    HW110662   2.297   9.289   9.097 -0.0784 -0.5134 -1.1223
 2980SOL    HW210663   2.273   9.277   8.948 -0.3272  1.2245 -1.2382
 2981SOL     OW10664   8.326   8.169   8.930  0.3780 -0.1360 -0.1307
 2981SOL    HW110665   8.334   8.178   8.835 -0.4477  1.1461 -0.1048
 2981SOL    HW210666   8.254   8.228   8.953 -0.6294 -1.7565  1.0792
 2982SOL     OW10667   1.699   7.985   7.591 -0.4650  0.7171 -0.2429
 2982SOL    HW110668   1.694   7.939   7.675 -0.8112  2.9642  1.0380
 2982SOL    HW210669   1.695   7.915   7.526  0.2675 -1.1450  1.5864
 2983SOL     OW10670   5.859   6.818   7.611 -0.2428 -0.1438 -0.2684
 2983SOL    HW110671   5.932   6.842   7.554 -0.2683  1.9199  0.5053
 2983SOL    HW210672   5.843   6.725   7.591  0.6793  0.1183 -2.5232
 2984SOL     OW10673   6.697   4.051   3.891  0.3677 -0.3557  0.8168
 2984SOL    HW110674   6.601   4.045   3.886  0.3999 -0.4363  0.1741
 2984SOL    HW210675   6.720   4.122   3.831  0.8281 -1.5356 -0.4703
 2985SOL     OW10676   9.259   8.996   5.672 -0.1502 -0.3280  0.1822
 2985SOL    HW110677   9.286   9.067   5.731 -1.0241  0.0730  0.1184
 2985SOL    HW210678   9.163   8.997   5.675 -0.2707  0.2486 -1.8453
 2986SOL     OW10679   7.290   1.383   1.217 -0.0384 -0.1385  0.3295
 2986SOL    HW110680   7.336   1.301   1.197 -0.2641  0.5654 -4.0762
 2986SOL    HW210681   7.199   1.366   1.196 -0.0478  1.2375 -0.9459
 2987SOL     OW10682   6.480   7.458   5.949  0.1341 -0.3812  0.4151
 2987SOL    HW110683   6.453   7.540   5.907 -2.5465 -0.1986  2.2629
 2987SOL    HW210684   6.528   7.486   6.026 -0.1861 -0.5430  0.6756
 2988SOL     OW10685   6.885   9.596   6.200 -0.0004  0.1150 -0.4870
 2988SOL    HW110686   6.803   9.634   6.231 -0.1986  0.1172 -1.0102
 2988SOL    HW210687   6.949   9.620   6.267 -0.9769 -2.4544  1.5640
 2989SOL     OW10688   6.328   3.469   5.686  0.5281  0.4789 -0.3240
 2989SOL    HW110689   6.346   3.422   5.768 -2.1692 -1.7256 -0.8369
 2989SOL    HW210690   6.235   3.490   5.691  0.5482  1.2308 -2.3797
 2990SOL     OW10691   6.361   8.729   1.660  0.4544 -0.5509 -0.4538
 2990SOL    HW110692   6.346   8.810   1.612  0.1381 -0.3610 -0.0458
 2990SOL    HW210693   6.276   8.685   1.661  1.0687 -1.9416 -2.5124
 2991SOL     OW10694   3.706   7.323   2.470  0.0481  0.1917 -0.3643
 2991SOL    HW110695   3.753   7.400   2.439 -0.7639  0.4585 -0.9536
 2991SOL    HW210696   3.775   7.264   2.501  0.8812  0.1290 -2.1792
 2992SOL     OW10697   3.668   2.298   5.545 -0.4627 -0.0923 -0.0495
 2992SOL    HW110698   3.574   2.283   5.551 -0.9332  1.6961 -2.0382
 2992SOL    HW210699   3.690   2.279   5.454  1.1931 -0.7288  0.4368
 2993SOL     OW10700   1.701   0.176   2.773  0.0917  0.1326  0.2415
 2993SOL    HW110701   1.689   0.259   2.727  1.1907 -0.0108 -0.3347
 2993SOL    HW210702   1.774   0.192   2.833  1.3299 -0.8138 -0.9478
 2994SOL     OW10703   8.546   9.578   2.438 -0.2690  0.2683  0.1573
 2994SOL    HW110704   8.484   9.594   2.509 -1.3584  1.3525 -0.9968
 2994SOL    HW210705   8.573   9.665   2.408  0.2531 -0.1628 -0.6814
 2995SOL     OW10706   8.353   6.635   5.481  0.1285 -1.0977 -0.2458
 2995SOL    HW110707   8.347   6.540   5.470 -2.9538 -1.3558  2.1500
 2995SOL    HW210708   8.413   6.647   5.555 -0.2565 -1.2787  0.1014
 2996SOL     OW10709   4.607   2.233   1.419 -0.1383  0.3642 -0.1877
 2996SOL    HW110710   4.620   2.300   1.485  0.7838 -0.4846  0.5219
 2996SOL    HW210711   4.678   2.171   1.433 -0.4473 -0.3054 -1.3998
 2997SOL     OW10712   6.579   0.686   3.264  0.2684 -0.1030  0.5247
 2997SOL    HW110713   6.507   0.748   3.274 -1.5388 -2.2272  1.4939
 2997SOL    HW210714   6.539   0.600   3.277  2.5749 -1.5485 -1.1499
 2998SOL     OW10715   0.396   2.650   5.259  0.0637 -0.4203 -0.0445
 2998SOL    HW110716   0.369   2.584   5.195 -0.0142 -1.2394  0.8126
 2998SOL    HW210717   0.484   2.676   5.231 -0.0945 -0.5182 -0.6615
 2999SOL     OW10718   4.869   3.987   8.339  0.2834  0.2689 -0.0651
 2999SOL    HW110719   4.857   4.029   8.254 -1.9165  0.6022  0.3605
 2999SOL    HW210720   4.833   4.049   8.402 -1.4266 -1.4482  0.7371
 3000SOL     OW10721   8.115   3.292   2.321 -0.1599  0.4023 -0.3303
 3000SOL    HW110722   8.062   3.292   2.401 -0.6988 -4.2904 -0.4163
 3000SOL    HW210723   8.067   3.349   2.261 -1.2246  1.8660  1.7883
 3001SOL     OW10724   3.154   5.844   0.482 -0.2456 -0.7560 -0.0818
 3001SOL    HW110725   3.168   5.920   0.424  1.3161 -0.5864  0.4554
 3001SOL    HW210726   3.195   5.771   0.435 -1.5806 -1.2522 -0.5099
 3002SOL     OW10727   7.420   8.423   1.571  0.4526  0.4165 -0.6192
 3002SOL    HW110728   7.422   8.508   1.527 -1.5566 -0.1469 -1.9412
 3002SOL    HW210729   7.376   8.365   1.508  1.0333 -1.4079  0.5823
 3003SOL     OW10730   5.404   5.716   6.721  0.6272  0.3888  0.9182
 3003SOL    HW110731   5.399   5.747   6.812 -0.7985 -1.6584  1.6023
 3003SOL    HW210732   5.423   5.623   6.728  1.2134  0.3212 -0.9464
 3004SOL     OW10733   9.104   9.669   2.119  0.2407 -0.2245 -0.1763
 3004SOL    HW110734   9.058   9.616   2.184  0.8493 -1.0319 -0.3939
 3004SOL    HW210735   9.174   9.612   2.086  0.6981  0.5980 -0.6578
 3005SOL     OW10736   4.286   8.019   8.137 -0.1631 -0.4367  0.3804
 3005SOL    HW110737   4.272   8.111   8.118 -0.2806 -0.5979 -0.3478
 3005SOL    HW210738   4.358   8.018   8.200 -0.3482  0.1607  0.6058
 3006SOL     OW10739   1.743   2.868   0.788 -0.5032 -0.0109 -0.8667
 3006SOL    HW110740   1.741   2.872   0.884 -0.3368 -0.2126 -0.8533
 3006SOL    HW210741   1.796   2.790   0.768  1.3892  1.2715 -1.1328
 3007SOL     OW10742   2.151   2.026   9.096  0.2019  0.3145  0.4263
 3007SOL    HW110743   2.225   2.021   9.034 -1.6262  1.1189 -1.9777
 3007SOL    HW210744   2.152   1.941   9.140  1.1083 -0.6739 -1.3535
 3008SOL     OW10745   0.689   0.386   8.918  0.5307  0.0637  0.9460
 3008SOL    HW110746   0.699   0.477   8.893 -0.6305 -0.0351  0.0377
 3008SOL    HW210747   0.730   0.336   8.847  0.4654 -0.1385  1.0480
 3009SOL     OW10748   2.819   5.640   0.600 -0.4214  0.3121 -0.9094
 3009SOL    HW110749   2.805   5.638   0.695  0.4685 -0.0789 -0.7756
 3009SOL    HW210750   2.861   5.725   0.584 -1.0013  0.5791 -1.0195
 3010SOL     OW10751   6.618   0.516   2.893 -0.2915  0.2294  0.2673
 3010SOL    HW110752   6.698   0.510   2.944 -0.0100  1.8256  0.0583
 3010SOL    HW210753   6.611   0.431   2.849  2.5206  0.7648 -1.5031
 3011SOL     OW10754   8.818   4.937   8.894 -0.1637  0.1011 -0.4348
 3011SOL    HW110755   8.791   5.026   8.916 -1.1528 -0.0556 -0.9608
 3011SOL    HW210756   8.815   4.933   8.799  2.3978  0.2484 -0.5741
 3012SOL     OW10757   6.731   9.068   5.710 -0.0733  0.4054  0.2459
 3012SOL    HW110758   6.644   9.067   5.750  1.0578  0.2701  2.9368
 3012SOL    HW210759   6.782   9.007   5.763  1.7552  0.6961 -1.0935
 3013SOL     OW10760   3.905   2.215   8.984  0.6137 -0.6227 -0.4760
 3013SOL    HW110761   3.924   2.219   9.078 -1.1571 -1.7002 -0.0062
 3013SOL    HW210762   3.838   2.146   8.977 -1.4749  1.4185 -2.1141
 3014SOL     OW10763   7.927   5.317   3.147  0.8170 -0.2754  0.5169
 3014SOL    HW110764   7.991   5.263   3.101  2.3280  1.1984  0.8093
 3014SOL    HW210765   7.949   5.306   3.240 -0.9846 -1.6978  0.8585
 3015SOL     OW10766   5.318   7.923   5.485  0.3021 -0.7766  0.2542
 3015SOL    HW110767   5.240   7.932   5.430  0.1656 -2.5572  0.0715
 3015SOL    HW210768   5.381   7.878   5.429  1.3117  0.2194  0.5588
 3016SOL     OW10769   2.134   7.186   1.140  0.0094 -0.0766 -0.2608
 3016SOL    HW110770   2.039   7.174   1.141  0.0588 -0.4938 -0.4148
 3016SOL    HW210771   2.147   7.278   1.159 -0.3892 -0.2502  0.9196
 3017SOL     OW10772   3.393   3.639   4.530  0.2197  0.3424  0.1448
 3017SOL    HW110773   3.337   3.716   4.537  0.3285  0.4695 -0.2863
 3017SOL    HW210774   3.416   3.617   4.620  1.4721  1.7812  0.2269
 3018SOL     OW10775   4.903   6.293   9.169 -0.1350 -0.1982  0.2978
 3018SOL    HW110776   4.899   6.254   9.082  0.6313  0.6837 -0.1433
 3018SOL    HW210777   4.846   6.238   9.222 -2.2237  0.4161 -1.1972
 3019SOL     OW10778   4.720   8.103   7.920 -0.0062 -0.7274 -0.1294
 3019SOL    HW110779   4.788   8.095   7.853 -0.4702 -1.3531 -0.5392
 3019SOL    HW210780   4.761   8.071   8.000  0.8460  0.8862  0.1045
 3020SOL     OW10781   2.442   0.387   0.091 -0.0017 -0.1077  0.0131
 3020SOL    HW110782   2.355   0.356   0.067 -0.3824 -0.1691  1.3588
 3020SOL    HW210783   2.428   0.478   0.119  0.4402  0.0243 -0.1932
 3021SOL     OW10784   0.337   4.298   5.121  0.3980 -0.3636  0.4020
 3021SOL    HW110785   0.243   4.292   5.105  0.5826 -0.0641 -0.8808
 3021SOL    HW210786   0.363   4.207   5.138  0.1369 -0.6965 -0.8646
 3022SOL     OW10787   4.403   6.047   7.807  0.7557  0.7951 -0.2303
 3022SOL    HW110788   4.338   5.978   7.795 -0.2495  1.6858 -0.1097
 3022SOL    HW210789   4.453   6.047   7.726 -0.8459  1.5258 -1.2785
 3023SOL     OW10790   2.817   7.840   5.716 -0.2489  0.0672 -0.4269
 3023SOL    HW110791   2.864   7.893   5.781 -1.3645 -0.9566  1.3036
 3023SOL    HW210792   2.871   7.763   5.704 -0.0361  0.2619 -0.7127
 3024SOL     OW10793   6.771   9.042   3.466  0.0999 -0.4456  0.1258
 3024SOL    HW110794   6.786   8.948   3.477  0.6736 -0.4246 -0.4364
 3024SOL    HW210795   6.834   9.083   3.526  1.0865 -0.3915 -0.9288
 3025SOL     OW10796   7.025   0.273   7.401  0.3598  0.5961  0.0361
 3025SOL    HW110797   7.014   0.367   7.390 -0.5162  0.6142  0.9281
 3025SOL    HW210798   7.103   0.264   7.456 -2.3899  1.1489  4.5497
 3026SOL     OW10799   9.645   1.573   8.104 -0.1729  0.2995  0.4658
 3026SOL    HW110800   9.737   1.592   8.124  0.1057  0.4792 -0.9128
 3026SOL    HW210801   9.628   1.488   8.146  0.1610  0.9711  2.0231
 3027SOL     OW10802   0.595   3.323   3.997 -0.6323 -0.4913 -0.1986
 3027SOL    HW110803   0.608   3.232   4.023 -0.5050 -0.7282 -1.0704
 3027SOL    HW210804   0.608   3.373   4.078  0.9695 -1.1138 -0.0262
 3028SOL     OW10805   1.147   2.857   1.203 -0.3634 -0.3219  0.4140
 3028SOL    HW110806   1.113   2.871   1.115  0.2378 -2.0906 -0.1355
 3028SOL    HW210807   1.068   2.846   1.257 -0.7192 -1.1759 -0.2578
 3029SOL     OW10808   3.423   2.329   3.916 -0.1322 -0.5076  0.2862
 3029SOL    HW110809   3.346   2.284   3.879  0.2425  0.8318 -2.4126
 3029SOL    HW210810   3.495   2.302   3.860  0.7267  0.8045  0.7217
 3030SOL     OW10811   4.549   6.168   3.095 -0.3338 -0.0157  0.2178
 3030SOL    HW110812   4.476   6.229   3.099 -0.2013  0.1676 -0.1517
 3030SOL    HW210813   4.510   6.083   3.115 -0.5142  0.1880  0.7563
 3031SOL     OW10814   1.088   6.104   6.431 -1.0438  0.1921 -0.3955
 3031SOL    HW110815   1.011   6.140   6.475 -0.2620  0.7579  0.5651
 3031SOL    HW210816   1.160   6.123   6.491 -0.0175  0.4518 -1.6647
 3032SOL     OW10817   1.709   7.845   7.829 -0.1567 -0.0968 -0.3305
 3032SOL    HW110818   1.697   7.751   7.838  0.9676 -0.2190  0.1023
 3032SOL    HW210819   1.734   7.874   7.917  0.2423  0.4813 -0.6297
 3033SOL     OW10820   7.578   5.401   1.621  1.0418  0.5553 -0.3750
 3033SOL    HW110821   7.551   5.316   1.587  1.2936 -0.2380  1.3228
 3033SOL    HW210822   7.503   5.458   1.603  0.7276 -0.0932 -1.2100
 3034SOL     OW10823   6.711   3.996   8.797  0.4767 -0.7636  0.2274
 3034SOL    HW110824   6.635   3.941   8.818 -0.4958  0.9162  1.3801
 3034SOL    HW210825   6.673   4.072   8.751  1.0950  1.1511  2.6746
 3035SOL     OW10826   7.977   1.253   9.431  0.7380 -0.3733 -0.5383
 3035SOL    HW110827   8.029   1.310   9.488  2.2567 -0.2356 -1.9521
 3035SOL    HW210828   8.001   1.281   9.342 -0.1406 -1.7760 -1.2551
 3036SOL     OW10829   4.540   7.181   6.255 -0.4716 -0.3223 -0.1762
 3036SOL    HW110830   4.449   7.197   6.232 -0.3793  0.4873 -0.0129
 3036SOL    HW210831   4.587   7.257   6.220  0.3455 -1.3955 -1.4964
 3037SOL     OW10832   6.317   8.113   3.364  0.0964  0.2840 -0.0298
 3037SOL    HW110833   6.290   8.146   3.450  0.1115  0.9407 -0.2690
 3037SOL    HW210834   6.328   8.192   3.311  0.0233 -0.1175 -0.6536
 3038SOL     OW10835   6.872   1.503   0.389 -0.6023  0.3079 -0.3284
 3038SOL    HW110836   6.893   1.594   0.410 -1.2333  0.2960  0.3968
 3038SOL    HW210837   6.792   1.484   0.440  0.3524 -1.1146  0.7211
 3039SOL     OW10838   4.451   3.573   4.189 -0.5587 -0.3390 -0.5467
 3039SOL    HW110839   4.383   3.548   4.126 -1.5194 -1.3805  0.8360
 3039SOL    HW210840   4.472   3.492   4.236  0.1795  0.3830  0.4096
 3040SOL     OW10841   6.838   6.156   9.364 -0.6560 -0.1100  0.1216
 3040SOL    HW110842   6.839   6.167   9.269 -1.6364  0.6960  0.1854
 3040SOL    HW210843   6.806   6.240   9.397  1.1590  0.1965  1.2777
 3041SOL     OW10844   0.178   6.489   6.295  0.7796 -0.4663  0.3110
 3041SOL    HW110845   0.122   6.412   6.287  2.7621 -1.9773 -0.0685
 3041SOL    HW210846   0.139   6.542   6.364 -1.0509 -1.4266  0.0649
 3042SOL     OW10847   4.091   4.884   0.056  0.2745 -0.2954  0.3545
 3042SOL    HW110848   4.107   4.804   0.105  0.1760 -0.9104 -0.5956
 3042SOL    HW210849   4.119   4.864  -0.034 -3.3214 -0.5864 -0.8441
 3043SOL     OW10850   2.365   8.432   1.422 -0.5708  0.2571 -0.1838
 3043SOL    HW110851   2.341   8.489   1.495  3.0273  1.8668 -0.0237
 3043SOL    HW210852   2.360   8.488   1.344  0.2380  0.0061 -0.4368
 3044SOL     OW10853   8.162   0.881   1.372 -0.2382  0.1658 -0.2540
 3044SOL    HW110854   8.101   0.925   1.312  0.0886  0.7487 -0.1632
 3044SOL    HW210855   8.199   0.951   1.425  0.0566 -0.2583  0.1086
 3045SOL     OW10856   5.338   7.590   5.834  0.2743 -0.1776 -0.3579
 3045SOL    HW110857   5.332   7.613   5.927 -1.4483 -1.0809 -0.1949
 3045SOL    HW210858   5.274   7.648   5.792 -0.3132 -1.0396 -0.6839
 3046SOL     OW10859   3.541   6.554   7.777  0.2278 -0.4214  0.2778
 3046SOL    HW110860   3.508   6.626   7.724  1.0022  0.3325  0.7929
 3046SOL    HW210861   3.620   6.525   7.731  1.5563  0.9815  1.5337
 3047SOL     OW10862   0.545   0.081   5.376 -0.1855  0.2419 -0.0905
 3047SOL    HW110863   0.513   0.010   5.432 -1.6738  2.0272  1.4404
 3047SOL    HW210864   0.505   0.063   5.290  0.8098 -1.6325 -0.2135
 3048SOL     OW10865   2.975   3.160   7.764  0.2129 -0.1527 -0.2015
 3048SOL    HW110866   2.893   3.196   7.731  0.0801  0.5438  0.8248
 3048SOL    HW210867   3.005   3.225   7.828  1.5920 -0.3674 -0.5876
 3049SOL     OW10868   5.046   4.028   9.043 -0.0284  0.0331  0.0566
 3049SOL    HW110869   5.075   3.981   9.121  0.8050 -0.0971 -0.3212
 3049SOL    HW210870   4.955   4.052   9.062  0.1821  0.0610  1.0903
 3050SOL     OW10871   8.652   4.562   8.296 -0.0728 -0.1964 -0.6838
 3050SOL    HW110872   8.690   4.646   8.321 -0.7397 -0.1981  0.4258
 3050SOL    HW210873   8.597   4.583   8.221  0.9260  0.0709 -1.3623
 3051SOL     OW10874   2.202   3.840   9.158 -0.2381 -0.0048 -0.4768
 3051SOL    HW110875   2.238   3.924   9.189 -2.1432  0.7906 -0.2656
 3051SOL    HW210876   2.137   3.816   9.224 -1.7939 -0.1409 -1.9757
 3052SOL     OW10877   2.692   1.514   4.885  0.5178  0.4602 -0.4243
 3052SOL    HW110878   2.733   1.571   4.819 -0.5106  1.1252 -0.5040
 3052SOL    HW210879   2.655   1.574   4.949 -1.3574 -0.0525 -0.9662
 3053SOL     OW10880   3.683   4.607   3.418  0.1130 -0.7677  0.9068
 3053SOL    HW110881   3.674   4.513   3.399  1.3496 -0.7222 -0.0881
 3053SOL    HW210882   3.772   4.615   3.454  1.1163  0.3528 -1.5974
 3054SOL     OW10883   0.333   0.799   5.460  0.9344  0.2603 -0.1218
 3054SOL    HW110884   0.262   0.735   5.457  0.2073  0.9540  1.1232
 3054SOL    HW210885   0.289   0.884   5.451  1.5666  0.7189  0.9294
 3055SOL     OW10886   0.553   2.944   9.107 -0.0468 -0.4176 -0.0241
 3055SOL    HW110887   0.457   2.948   9.105 -0.0194  1.3318  0.6192
 3055SOL    HW210888   0.575   2.872   9.047 -1.7190 -0.0205 -1.1941
 3056SOL     OW10889   0.896   2.959   4.824  0.4003 -0.4899  0.1893
 3056SOL    HW110890   0.909   3.034   4.881 -0.9632 -1.2937  1.6348
 3056SOL    HW210891   0.888   2.997   4.736  2.6781  0.7603  0.4475
 3057SOL     OW10892   6.441   9.485   9.261  0.3627  0.1168  0.6799
 3057SOL    HW110893   6.481   9.398   9.259  0.2274  0.0682  0.0436
 3057SOL    HW210894   6.515   9.545   9.262  0.4935 -0.0003  2.4063
 3058SOL     OW10895   1.215   4.253   6.651 -0.2905  0.2740  0.5248
 3058SOL    HW110896   1.248   4.163   6.648  0.9556  0.7464 -0.7210
 3058SOL    HW210897   1.119   4.244   6.648 -0.1702 -0.9930 -0.0603
 3059SOL     OW10898   7.375   2.026   3.608 -0.0609  0.2582 -0.2666
 3059SOL    HW110899   7.322   2.093   3.565 -1.2766 -0.9046 -0.6566
 3059SOL    HW210900   7.311   1.970   3.651  1.0173  0.1774  1.3054
 3060SOL     OW10901   0.887   6.880   3.540 -0.1362 -0.0387  0.2325
 3060SOL    HW110902   0.932   6.952   3.495 -0.9575 -0.2068 -0.9079
 3060SOL    HW210903   0.945   6.805   3.529  0.3365  0.2512  0.7042
 3061SOL     OW10904   0.096   6.241   0.226  0.3042 -0.0501 -0.1963
 3061SOL    HW110905   0.036   6.273   0.294 -0.2881 -0.5492 -0.4763
 3061SOL    HW210906   0.159   6.312   0.216  0.0032  0.3193  0.3950
 3062SOL     OW10907   8.684   6.541   8.057 -0.3586  0.2565  0.1721
 3062SOL    HW110908   8.603   6.518   8.102 -1.7600 -0.3004 -2.4399
 3062SOL    HW210909   8.711   6.461   8.013  0.4942  0.9766 -0.6625
 3063SOL     OW10910   1.465   5.051   4.167 -0.4876  0.3114 -0.0541
 3063SOL    HW110911   1.455   4.965   4.127 -1.3053  0.1998  0.3783
 3063SOL    HW210912   1.521   5.099   4.106 -0.1417 -0.4730 -0.3684
 3064SOL     OW10913   6.521   5.883   1.689 -0.1200  0.0483  0.0844
 3064SOL    HW110914   6.533   5.891   1.784 -0.3618  0.0436  0.1164
 3064SOL    HW210915   6.535   5.971   1.656  1.0147 -0.1466  0.0017
 3065SOL     OW10916   4.369   8.949   1.059 -0.0304  0.1231 -0.0904
 3065SOL    HW110917   4.391   8.859   1.081 -1.3295 -0.6632 -1.8480
 3065SOL    HW210918   4.345   8.989   1.143  0.2472 -1.2360  0.6587
 3066SOL     OW10919   6.861   0.995   9.144  0.4180  0.0393 -0.2110
 3066SOL    HW110920   6.913   0.923   9.108  0.2305 -0.9540  1.4346
 3066SOL    HW210921   6.871   0.988   9.239 -0.4886  1.5337  0.0330
 3067SOL     OW10922   9.659   8.458   0.763  0.1744 -0.0624 -0.3279
 3067SOL    HW110923   9.604   8.535   0.779 -0.5359  0.0919 -3.0123
 3067SOL    HW210924   9.728   8.491   0.705  2.1419 -0.6486  1.5964
 3068SOL     OW10925   6.195   2.391   0.056  0.6472  0.0551 -0.3333
 3068SOL    HW110926   6.203   2.469   0.110 -0.8252 -0.2684  0.3920
 3068SOL    HW210927   6.116   2.406   0.004 -0.5565 -1.5585  0.9202
 3069SOL     OW10928   8.603   0.895   5.863  0.3080  0.6113  0.1957
 3069SOL    HW110929   8.580   0.827   5.800 -1.6070  0.7816  0.6438
 3069SOL    HW210930   8.563   0.866   5.945 -0.5243  2.2309  0.4010
 3070SOL     OW10931   4.465   1.789   8.902 -0.5792 -0.3408 -0.2670
 3070SOL    HW110932   4.439   1.705   8.940 -0.3270 -0.3009 -0.0087
 3070SOL    HW210933   4.550   1.772   8.862 -0.7390 -0.3241 -0.6189
 3071SOL     OW10934   5.643   9.409   8.180  0.0403 -0.3349 -0.9243
 3071SOL    HW110935   5.713   9.345   8.168  1.5098  1.2839 -1.4180
 3071SOL    HW210936   5.591   9.404   8.099 -0.8410 -1.9770 -0.3012
 3072SOL     OW10937   2.584   5.902   3.715  0.0439  0.0776  0.4438
 3072SOL    HW110938   2.618   5.948   3.792 -1.0212  0.0420  0.9548
 3072SOL    HW210939   2.659   5.853   3.681  0.6058  0.3334  1.2840
 3073SOL     OW10940   4.964   8.540   8.193 -0.4826  0.2780 -0.4302
 3073SOL    HW110941   4.973   8.453   8.152  0.9716  0.3036 -0.2121
 3073SOL    HW210942   4.915   8.591   8.129 -1.6479 -0.7746 -0.4325
 3074SOL     OW10943   7.882   6.827   4.702  0.1509 -0.2143  0.0359
 3074SOL    HW110944   7.867   6.895   4.637  1.4300 -0.4304 -0.5075
 3074SOL    HW210945   7.797   6.814   4.744 -0.1710  1.5337 -0.0193
 3075SOL     OW10946   7.485   9.677   2.989  0.5606  0.4849 -0.0996
 3075SOL    HW110947   7.554   9.733   3.025  0.1945  1.3812 -0.7643
 3075SOL    HW210948   7.526   9.632   2.916  0.9664 -0.4444  0.6690
 3076SOL     OW10949   3.378   6.320   4.262 -0.4520 -0.2005 -0.3977
 3076SOL    HW110950   3.347   6.240   4.304  0.4039 -0.2153  0.2493
 3076SOL    HW210951   3.319   6.333   4.188 -0.1199 -1.8795 -1.0011
 3077SOL     OW10952   7.769   7.578   3.393  0.5824 -0.0389 -0.6286
 3077SOL    HW110953   7.708   7.652   3.381  0.1002 -0.1739  0.8220
 3077SOL    HW210954   7.849   7.607   3.350 -0.9491 -0.5550 -4.2232
 3078SOL     OW10955   8.111   1.390   8.730  0.0829 -0.5454  0.5470
 3078SOL    HW110956   8.131   1.483   8.742  0.3518 -0.6225  0.7186
 3078SOL    HW210957   8.016   1.385   8.733  0.0430 -0.2017  0.0127
 3079SOL     OW10958   8.142   8.826   5.067  0.1021 -0.0493  0.1612
 3079SOL    HW110959   8.104   8.743   5.037 -1.1489  0.5637 -0.0094
 3079SOL    HW210960   8.234   8.821   5.040 -0.4315 -0.5093 -1.7450
 3080SOL     OW10961   3.663   6.456   5.866  0.0280 -0.0270  0.6797
 3080SOL    HW110962   3.746   6.499   5.891  0.1496 -0.2645  0.6877
 3080SOL    HW210963   3.682   6.415   5.781  0.4993 -1.6815  1.5391
 3081SOL     OW10964   6.406   4.171   7.546 -0.6728 -0.3340  0.2699
 3081SOL    HW110965   6.314   4.196   7.536 -0.3044  0.6644 -0.7608
 3081SOL    HW210966   6.453   4.254   7.558  0.4217 -0.5505 -2.0197
 3082SOL     OW10967   7.972   1.396   4.036 -0.3687  0.0080  0.2492
 3082SOL    HW110968   7.984   1.475   4.089  0.1485  1.4630 -1.9098
 3082SOL    HW210969   7.893   1.414   3.984 -1.9610 -2.1601  1.7373
 3083SOL     OW10970   8.625   4.274   6.182  0.0787  0.1618  0.3516
 3083SOL    HW110971   8.567   4.199   6.194  1.6091 -0.7588  2.7689
 3083SOL    HW210972   8.576   4.348   6.218 -0.6351 -0.0442 -0.1609
 3084SOL     OW10973   1.630   6.378   1.358  0.6495  0.0225  0.3388
 3084SOL    HW110974   1.609   6.398   1.267  1.3915 -0.5916  0.0108
 3084SOL    HW210975   1.725   6.367   1.358  0.7473  0.7783  1.3495
 3085SOL     OW10976   3.237   1.481   6.600 -0.3106  0.2758 -0.4294
 3085SOL    HW110977   3.314   1.492   6.656 -0.0852 -1.4515 -0.3251
 3085SOL    HW210978   3.269   1.496   6.511  0.5874 -1.9297 -0.5501
 3086SOL     OW10979   9.127   3.091   8.043 -0.4970  0.8310 -0.0127
 3086SOL    HW110980   9.071   3.021   8.079 -0.0493  0.5097  0.0615
 3086SOL    HW210981   9.066   3.163   8.027 -1.0265  0.3121 -0.3992
 3087SOL     OW10982   4.878   2.802   5.327 -0.0760 -0.4824 -0.1882
 3087SOL    HW110983   4.797   2.835   5.287  1.0794  1.4796 -1.0614
 3087SOL    HW210984   4.933   2.779   5.252  1.3522  1.2875  0.2506
 3088SOL     OW10985   8.855   1.807   0.335  0.3371  0.0409  0.5453
 3088SOL    HW110986   8.918   1.878   0.322 -1.1619  1.7281  1.9456
 3088SOL    HW210987   8.770   1.849   0.324 -0.6344 -1.1587  2.8391
 3089SOL     OW10988   2.801   6.375   0.464 -0.9399 -0.1908  0.0993
 3089SOL    HW110989   2.716   6.361   0.422 -1.7750 -3.4730  2.3874
 3089SOL    HW210990   2.783   6.360   0.557  2.1662 -1.3710  0.6220
 3090SOL     OW10991   0.488   6.307   0.776  0.1828  0.2751  0.1579
 3090SOL    HW110992   0.403   6.267   0.793 -0.3184  0.8548 -0.9143
 3090SOL    HW210993   0.545   6.272   0.845 -0.3541 -1.9044 -0.4277
 3091SOL     OW10994   2.179   0.490   1.737  0.0203  0.0180 -0.6478
 3091SOL    HW110995   2.139   0.574   1.716 -0.2634 -0.1687 -0.8711
 3091SOL    HW210996   2.245   0.477   1.669  1.1491  0.7703  0.2612
 3092SOL     OW10997   0.693   2.813   3.058  0.2523 -0.1087 -0.0655
 3092SOL    HW110998   0.671   2.849   3.144 -0.5701 -0.5408 -0.0869
 3092SOL    HW210999   0.657   2.876   2.996  0.8122  0.1832 -0.0990
 3093SOL     OW11000   1.245   3.076   4.772 -0.3808  0.3454  0.3167
 3093SOL    HW111001   1.217   3.149   4.828 -1.7695  0.6797 -0.7421
 3093SOL    HW211002   1.222   2.997   4.821 -4.5280  0.5472 -0.9039
 3094SOL     OW11003   5.705   0.789   0.539 -0.1466  0.2063 -0.4252
 3094SOL    HW111004   5.677   0.869   0.584 -0.9743  0.2641 -1.0262
 3094SOL    HW211005   5.801   0.796   0.536 -0.0492  0.1701  1.3516
 3095SOL     OW11006   8.843   4.057   0.758 -0.3036 -0.1835  0.2895
 3095SOL    HW111007   8.831   3.993   0.828  1.9296 -0.6069  0.3815
 3095SOL    HW211008   8.906   4.015   0.699 -1.1798  0.6777 -1.3291
 3096SOL     OW11009   3.360   5.750   6.691  0.5304 -0.2024 -0.5173
 3096SOL    HW111010   3.437   5.704   6.725 -0.1040 -0.7396  0.2061
 3096SOL    HW211011   3.301   5.681   6.661  0.1328  0.1872 -0.6465
 3097SOL     OW11012   5.829   6.382   4.620  0.3984  0.2076 -0.2481
 3097SOL    HW111013   5.816   6.348   4.709  1.1085 -0.1477 -0.2772
 3097SOL    HW211014   5.744   6.366   4.577  0.8260 -2.0592 -0.4184
 3098SOL     OW11015   8.173   3.830   2.613 -0.3483 -0.5728  0.1053
 3098SOL    HW111016   8.208   3.889   2.545 -0.8574  2.3122  2.1414
 3098SOL    HW211017   8.078   3.841   2.606 -0.4032 -0.1607  1.3022
 3099SOL     OW11018   8.015   5.009   9.213  0.0863 -0.0362  0.3049
 3099SOL    HW111019   8.025   5.035   9.304  0.8358 -2.2402  0.9100
 3099SOL    HW211020   8.059   5.078   9.163  0.6373  0.6340  1.6830
 3100SOL     OW11021   2.350   7.534   8.723 -0.2685  0.0408  0.0221
 3100SOL    HW111022   2.319   7.515   8.635 -0.6527  0.2230  0.1138
 3100SOL    HW211023   2.414   7.465   8.742  1.3418  1.1252 -1.1700
 3101SOL     OW11024   2.525   4.237   9.647 -0.1736 -0.1098  0.2192
 3101SOL    HW111025   2.467   4.258   9.574 -1.0704 -2.6679  0.1027
 3101SOL    HW211026   2.594   4.184   9.609  0.2077 -0.1880  0.9973
 3102SOL     OW11027   4.024   2.887   5.331  0.6140 -0.4594 -1.0435
 3102SOL    HW111028   4.061   2.942   5.401 -0.0233 -1.1851 -0.1164
 3102SOL    HW211029   4.042   2.936   5.251 -2.2417  2.4842 -0.1134
 3103SOL     OW11030   6.784   2.274   6.156  0.1384  0.1881  0.4648
 3103SOL    HW111031   6.710   2.312   6.108 -0.4065  0.1892  1.2918
 3103SOL    HW211032   6.777   2.180   6.137  1.3154  0.4170 -1.3398
 3104SOL     OW11033   2.145   4.900   2.353  0.1020 -0.1302  0.4795
 3104SOL    HW111034   2.202   4.968   2.317  0.9229 -0.0243  1.9152
 3104SOL    HW211035   2.057   4.933   2.339  0.4738  1.0545  0.7599
 3105SOL     OW11036   5.257   4.624   6.216 -0.0541  0.1677 -0.4241
 3105SOL    HW111037   5.265   4.574   6.135  2.0754  2.1899 -1.5984
 3105SOL    HW211038   5.217   4.707   6.189  0.2556  0.6903  0.6654
 3106SOL     OW11039   2.591   4.890   7.569  0.5734  0.5591  0.2740
 3106SOL    HW111040   2.662   4.877   7.506 -0.7317  0.5551 -1.2660
 3106SOL    HW211041   2.606   4.824   7.637  1.3678 -0.2266 -0.6411
 3107SOL     OW11042   4.028   3.193   6.650  0.6112  0.0091 -0.7258
 3107SOL    HW111043   3.964   3.144   6.701  2.2356 -0.6882  0.7263
 3107SOL    HW211044   4.012   3.285   6.674 -0.3668 -0.0639 -1.0411
 3108SOL     OW11045   6.549   7.905   7.717 -0.2538 -0.5617  0.1113
 3108SOL    HW111046   6.638   7.893   7.751 -0.2088  1.6661  0.9128
 3108SOL    HW211047   6.558   7.968   7.646 -1.3902  1.5690  1.7201
 3109SOL     OW11048   8.183   8.673   4.075  0.2547  0.7305  0.2566
 3109SOL    HW111049   8.090   8.694   4.077 -0.0887 -0.7186  0.8232
 3109SOL    HW211050   8.194   8.624   3.993  1.2508  3.8141 -1.6078
 3110SOL     OW11051   2.898   4.179   2.506  0.1209 -0.0305  0.1871
 3110SOL    HW111052   2.975   4.179   2.562  0.9051  0.2587 -0.8660
 3110SOL    HW211053   2.907   4.258   2.453 -0.4898 -0.4078 -0.5006
 3111SOL     OW11054   1.802   0.778   5.228  0.2699 -0.1291 -0.5005
 3111SOL    HW111055   1.765   0.739   5.307  2.2649  1.6581  1.4522
 3111SOL    HW211056   1.751   0.857   5.213 -0.2740 -0.5998 -1.1970
 3112SOL     OW11057   8.789   8.648   5.222  0.4584  0.2690 -0.1608
 3112SOL    HW111058   8.841   8.605   5.154  0.6010 -0.0139  0.1272
 3112SOL    HW211059   8.853   8.672   5.289  0.5642  1.8760 -0.7748
 3113SOL     OW11060   1.942   8.914   1.856  0.2215  0.0657  0.5207
 3113SOL    HW111061   1.960   9.005   1.879 -0.6071 -0.0548  1.7518
 3113SOL    HW211062   1.965   8.865   1.935 -0.6509 -0.6293  0.3568
 3114SOL     OW11063   3.666   7.074   9.166 -0.1072  0.1415 -0.1242
 3114SOL    HW111064   3.737   7.116   9.216  0.3650 -1.1903  0.3753
 3114SOL    HW211065   3.596   7.139   9.165  0.0384  0.4020  1.8916
 3115SOL     OW11066   7.253   9.015   1.879 -0.1489  0.5802  0.7351
 3115SOL    HW111067   7.222   8.985   1.964 -0.4734 -1.8254 -0.1534
 3115SOL    HW211068   7.332   9.065   1.899  1.2999 -2.1164  2.3448
 3116SOL     OW11069   5.562   1.628   5.062 -0.0267 -0.4781 -0.1125
 3116SOL    HW111070   5.511   1.554   5.028 -0.4204 -0.0209 -0.5359
 3116SOL    HW211071   5.511   1.705   5.038  0.4030 -0.0619  0.2867
 3117SOL     OW11072   8.624   2.029   8.917  0.6611  0.0610 -0.5195
 3117SOL    HW111073   8.641   2.103   8.975 -0.2469 -0.1729  0.0602
 3117SOL    HW211074   8.553   2.059   8.860  1.1569  0.0871 -1.1228
 3118SOL     OW11075   0.692   6.324   7.352  0.1838 -0.0235 -0.6363
 3118SOL    HW111076   0.620   6.315   7.290  2.2546  0.6478 -3.3354
 3118SOL    HW211077   0.704   6.418   7.363 -0.2922 -0.1269  1.0517
 3119SOL     OW11078   6.348   5.432   6.272  0.4711 -0.3492 -0.4350
 3119SOL    HW111079   6.392   5.347   6.274  1.1807  0.0010  2.3339
 3119SOL    HW211080   6.394   5.484   6.337 -2.3576  0.9250  0.6808
 3120SOL     OW11081   5.502   6.537   5.547 -0.3871 -0.3497  0.1713
 3120SOL    HW111082   5.429   6.583   5.508  0.6005  0.0700 -1.2713
 3120SOL    HW211083   5.467   6.451   5.571 -1.7693  0.4542  1.1617
 3121SOL     OW11084   2.515   3.633   2.715  0.0461 -0.6817 -0.5898
 3121SOL    HW111085   2.492   3.709   2.661  1.1695 -0.3534 -0.6244
 3121SOL    HW211086   2.438   3.619   2.770 -0.5431 -0.1159 -1.2465
 3122SOL     OW11087   1.311   2.237   5.933 -0.5133 -0.2211  0.2601
 3122SOL    HW111088   1.393   2.253   5.981 -0.5474  0.9051 -0.0165
 3122SOL    HW211089   1.280   2.325   5.910 -2.1579 -0.5873  0.9444
 3123SOL     OW11090   4.611   5.502   1.951  0.6610 -0.0056  0.4131
 3123SOL    HW111091   4.569   5.454   2.023  0.6381  0.6928  0.8812
 3123SOL    HW211092   4.562   5.476   1.873 -1.0719  1.2304  1.0195
 3124SOL     OW11093   2.727   8.374   6.079  0.3425 -0.1680  0.1970
 3124SOL    HW111094   2.731   8.469   6.077 -0.1099 -0.1559 -0.5349
 3124SOL    HW211095   2.633   8.354   6.083  0.3689 -0.5820 -0.8937
 3125SOL     OW11096   5.668   4.823   4.334 -0.5266 -0.0640 -0.2303
 3125SOL    HW111097   5.597   4.773   4.374 -1.3851 -1.0591 -2.7718
 3125SOL    HW211098   5.735   4.757   4.313 -0.8847  0.0697 -1.9611
 3126SOL     OW11099   0.484   2.506   7.837  0.5490 -0.0473 -0.1131
 3126SOL    HW111100   0.411   2.456   7.801  0.2318  1.5252 -1.7966
 3126SOL    HW211101   0.488   2.585   7.783  2.1652  0.9009  1.2932
 3127SOL     OW11102   0.525   1.916   8.313  0.4001 -0.4371 -0.3990
 3127SOL    HW111103   0.519   2.001   8.270  0.3368 -0.2386 -0.0032
 3127SOL    HW211104   0.615   1.887   8.299  0.2135 -0.6560 -1.1858
 3128SOL     OW11105   8.030   6.971   8.391  0.6126 -0.1873  0.6506
 3128SOL    HW111106   8.097   7.037   8.372 -0.7240  1.3081  0.9624
 3128SOL    HW211107   8.076   6.905   8.443  1.9024  0.6511  0.6230
 3129SOL     OW11108   3.162   5.092   5.805  0.2134  0.7008 -0.2678
 3129SOL    HW111109   3.070   5.076   5.824  0.5701 -1.1044  0.0753
 3129SOL    HW211110   3.186   5.165   5.863 -0.0835 -1.2331  2.4443
 3130SOL     OW11111   8.576   6.813   8.874  0.3049  0.1010 -0.0801
 3130SOL    HW111112   8.575   6.845   8.783 -1.5222 -0.7954 -0.4131
 3130SOL    HW211113   8.572   6.718   8.866  1.5277 -0.0575  0.9460
 3131SOL     OW11114   2.417   7.999   2.109  0.0421  0.5469 -0.2047
 3131SOL    HW111115   2.486   7.986   2.174 -0.3078 -3.9925 -0.4479
 3131SOL    HW211116   2.463   7.997   2.025 -0.1245 -0.3118 -0.2848
 3132SOL     OW11117   3.130   6.150   6.254  0.1010  0.5259 -0.3863
 3132SOL    HW111118   3.210   6.099   6.253  0.6110  1.3022 -1.7717
 3132SOL    HW211119   3.077   6.113   6.183 -0.1762  0.9220 -0.3895
 3133SOL     OW11120   2.721   6.831   1.423 -0.5912  0.3736 -0.0748
 3133SOL    HW111121   2.740   6.848   1.515  1.2847 -0.9647 -0.1713
 3133SOL    HW211122   2.781   6.888   1.375 -1.9614  1.5028 -0.5332
 3134SOL     OW11123   4.049   0.328   9.463 -0.1384 -0.0722 -0.1319
 3134SOL    HW111124   3.990   0.403   9.471 -0.1134  0.0137 -0.7004
 3134SOL    HW211125   3.994   0.252   9.480 -0.2407  0.0534  0.1029
 3135SOL     OW11126   3.762   6.613   3.498 -0.5418 -0.3022 -0.0725
 3135SOL    HW111127   3.692   6.597   3.435  0.3409 -0.1442 -1.1197
 3135SOL    HW211128   3.812   6.531   3.500 -0.3223 -0.1651  0.1173
 3136SOL     OW11129   5.606   9.033   6.187  0.1592  0.0586 -0.1247
 3136SOL    HW111130   5.582   9.000   6.101  1.8073  1.2763 -1.1118
 3136SOL    HW211131   5.536   9.093   6.210  0.3804  0.7860 -1.2789
 3137SOL     OW11132   9.127   3.589   8.748  0.0561  0.0084 -0.3017
 3137SOL    HW111133   9.180   3.661   8.713 -0.1489  0.1437 -0.3372
 3137SOL    HW211134   9.057   3.578   8.684 -0.2047  0.1194 -0.0350
 3138SOL     OW11135   9.185   5.861   4.749  0.6088 -0.1082  0.0060
 3138SOL    HW111136   9.197   5.933   4.811 -1.6552  0.5211 -0.2036
 3138SOL    HW211137   9.091   5.843   4.751  0.7246 -1.2175 -1.9903
 3139SOL     OW11138   5.497   3.261   2.242 -0.0109  0.1879 -0.7469
 3139SOL    HW111139   5.573   3.272   2.299 -0.9458  0.0800  0.5681
 3139SOL    HW211140   5.517   3.313   2.165  0.5182  1.8727  0.4746
 3140SOL     OW11141   0.599   3.576   8.723 -0.5224  0.1947 -0.0502
 3140SOL    HW111142   0.533   3.588   8.791 -1.1059  2.5467 -0.9269
 3140SOL    HW211143   0.648   3.658   8.722  3.2637 -1.7823  1.2903
 3141SOL     OW11144   8.449   0.036   2.911  0.1901 -0.0172 -0.2270
 3141SOL    HW111145   8.409   0.094   2.975  4.6542  1.5431  1.5679
 3141SOL    HW211146   8.414  -0.051   2.931 -0.7861  0.9052  2.3725
 3142SOL     OW11147   0.556   4.714   8.350  0.3472  0.0408 -0.1147
 3142SOL    HW111148   0.531   4.797   8.308  0.2647 -0.0338 -0.2143
 3142SOL    HW211149   0.649   4.704   8.330 -0.2044 -1.2315 -2.4260
 3143SOL     OW11150   1.871   0.789   8.437  0.2712  0.3527 -0.1804
 3143SOL    HW111151   1.929   0.791   8.514  0.1783  0.6522 -0.1161
 3143SOL    HW211152   1.783   0.777   8.473  0.2299  0.4722 -0.2387
 3144SOL     OW11153   2.226   8.994   8.296 -0.3624 -0.2672  0.7778
 3144SOL    HW111154   2.200   8.941   8.371  0.8338 -0.9140  0.7572
 3144SOL    HW211155   2.300   9.046   8.328  0.4348 -0.8622 -0.0662
 3145SOL     OW11156   7.620   5.164   7.225  0.5812  0.3539 -0.0001
 3145SOL    HW111157   7.711   5.192   7.233  1.2318 -1.7363  0.5361
 3145SOL    HW211158   7.580   5.227   7.165  3.1622 -0.4576 -2.7902
 3146SOL     OW11159   6.291   5.736   3.685 -0.2304 -0.2708 -0.0616
 3146SOL    HW111160   6.320   5.827   3.692 -0.0598 -0.0325 -2.9217
 3146SOL    HW211161   6.364   5.685   3.719  0.3120  0.6087  0.1099
 3147SOL     OW11162   3.020   9.581   0.952 -0.3412  0.3183  0.2413
 3147SOL    HW111163   2.986   9.648   0.893  0.0080  1.2339  1.0501
 3147SOL    HW211164   3.095   9.544   0.907  1.5182  2.7973  1.1186
 3148SOL     OW11165   0.172   3.599   6.936 -0.1889 -0.2636 -0.3263
 3148SOL    HW111166   0.146   3.668   6.996  0.5883 -1.5521  1.5679
 3148SOL    HW211167   0.267   3.597   6.942 -0.1977 -1.4188 -0.4418
 3149SOL     OW11168   3.329   4.088   1.019 -0.1197  0.6482  0.3981
 3149SOL    HW111169   3.425   4.084   1.021  0.0202  2.8798 -0.0102
 3149SOL    HW211170   3.307   4.177   1.045 -2.2516 -0.4919  2.9838
 3150SOL     OW11171   1.976   2.983   3.364  1.0230  0.3018  0.1998
 3150SOL    HW111172   2.070   2.993   3.350  0.8545 -0.3216 -1.5373
 3150SOL    HW211173   1.949   2.917   3.301 -0.8398  1.5365 -0.3670
 3151SOL     OW11174   3.638   7.146   6.242  0.5292 -0.4427 -0.3218
 3151SOL    HW111175   3.544   7.129   6.249  0.4746 -0.1193 -0.2399
 3151SOL    HW211176   3.654   7.157   6.149  0.1741  1.2020 -0.2083
 3152SOL     OW11177   0.553   3.725   2.685 -0.2652 -0.6836 -0.0874
 3152SOL    HW111178   0.520   3.671   2.756  0.4241 -0.7024  0.2217
 3152SOL    HW211179   0.489   3.796   2.676  0.5494  0.3634  1.7802
 3153SOL     OW11180   3.819   5.652   1.935  0.0198 -0.2612 -0.1579
 3153SOL    HW111181   3.824   5.579   1.997 -3.2181 -1.1399 -0.7688
 3153SOL    HW211182   3.820   5.730   1.989 -0.2824 -0.9244  0.8237
 3154SOL     OW11183   8.728   9.349   5.965  0.2469 -0.0845 -0.3169
 3154SOL    HW111184   8.750   9.443   5.959  1.2905 -0.2296  0.9366
 3154SOL    HW211185   8.809   9.304   5.943  0.3642 -0.6687  1.1960
 3155SOL     OW11186   3.668   4.472   4.116  0.0774  1.0118 -0.1535
 3155SOL    HW111187   3.762   4.456   4.126  0.0515  1.2225  0.4439
 3155SOL    HW211188   3.636   4.398   4.064  0.2173 -0.0739  1.2702
 3156SOL     OW11189   6.768   4.312   2.026 -0.8221  0.2961  0.0473
 3156SOL    HW111190   6.789   4.274   2.111 -0.4768  1.0758  0.3269
 3156SOL    HW211191   6.717   4.391   2.047 -2.8339 -0.7762 -0.5650
 3157SOL     OW11192   5.653   0.777   0.085 -0.0491 -0.4011 -0.0180
 3157SOL    HW111193   5.560   0.798   0.076 -0.3426 -1.6318 -0.1448
 3157SOL    HW211194   5.677   0.808   0.172 -0.8241 -0.8786  0.3740
 3158SOL     OW11195   7.388   6.284   0.915 -0.0219 -0.2453  0.0411
 3158SOL    HW111196   7.476   6.322   0.921 -0.2348  0.6519 -1.7247
 3158SOL    HW211197   7.359   6.305   0.826 -1.2357 -2.2640 -0.1119
 3159SOL     OW11198   0.673   4.424   1.922  0.1299 -0.0866 -0.3785
 3159SOL    HW111199   0.752   4.410   1.869  0.5000  0.9861 -0.1278
 3159SOL    HW211200   0.693   4.499   1.976 -1.0237  0.1218 -0.2087
 3160SOL     OW11201   8.607   6.332   6.456 -0.7339  0.1392  0.2278
 3160SOL    HW111202   8.610   6.236   6.455 -1.8713  0.0988 -0.6863
 3160SOL    HW211203   8.603   6.357   6.364  1.7660  1.1903  0.3215
 3161SOL     OW11204   3.384   2.966   1.750  0.4828 -0.3166 -0.4922
 3161SOL    HW111205   3.415   2.995   1.836 -0.6905 -1.1057  0.2069
 3161SOL    HW211206   3.341   3.044   1.713 -1.7577 -0.7741  0.9618
 3162SOL     OW11207   8.067   2.523   2.828 -0.2721  0.5292 -0.1284
 3162SOL    HW111208   8.052   2.429   2.835 -0.7431  0.5947 -0.2318
 3162SOL    HW211209   8.077   2.539   2.734 -0.2439  0.5892 -0.1151
 3163SOL     OW11210   6.378   6.763   6.930  0.1718 -0.7594 -0.1927
 3163SOL    HW111211   6.366   6.857   6.942  1.9374 -0.6007  0.7133
 3163SOL    HW211212   6.355   6.747   6.839 -1.1603  0.3499 -0.0896
 3164SOL     OW11213   6.176   9.523   9.382  0.0781 -0.2164 -0.3590
 3164SOL    HW111214   6.169   9.614   9.410 -1.5409 -0.2957 -0.3855
 3164SOL    HW211215   6.269   9.510   9.364  1.1312  0.1205  3.9403
 3165SOL     OW11216   7.321   4.752   1.437  0.1145 -0.1176 -0.0490
 3165SOL    HW111217   7.409   4.742   1.400 -0.2122 -1.0044 -0.6095
 3165SOL    HW211218   7.282   4.824   1.388 -0.2761 -1.2081 -1.4256
 3166SOL     OW11219   3.535   0.305   9.008 -0.3295  0.3107  0.1806
 3166SOL    HW111220   3.475   0.318   9.082 -0.7146  1.2793 -0.2802
 3166SOL    HW211221   3.482   0.261   8.942 -0.7016  1.5596 -0.3951
 3167SOL     OW11222   9.555   7.827   9.074  0.2779  0.1894  0.4489
 3167SOL    HW111223   9.548   7.842   9.168 -0.0841  0.7030  0.3432
 3167SOL    HW211224   9.645   7.851   9.052  0.3060  0.2502  0.6328
 3168SOL     OW11225   7.088   1.622   3.246 -0.7997  0.3546 -0.2995
 3168SOL    HW111226   7.004   1.635   3.290 -0.4620  0.7861  0.2291
 3168SOL    HW211227   7.065   1.602   3.156 -1.4517  1.3859 -0.3751
 3169SOL     OW11228   4.926   7.483   6.392 -0.0913  0.4460 -0.3853
 3169SOL    HW111229   5.004   7.538   6.397  0.0793  0.2197 -0.5335
 3169SOL    HW211230   4.861   7.528   6.445  0.5664 -0.0766  0.9067
 3170SOL     OW11231   6.463   3.022   5.318  0.7463  0.4930 -0.0904
 3170SOL    HW111232   6.410   3.028   5.398 -0.5634 -0.1336 -0.8698
 3170SOL    HW211233   6.438   3.099   5.267 -1.3076 -0.9872 -1.5063
 3171SOL     OW11234   2.107   0.509   0.785  0.0679  0.2566 -0.2405
 3171SOL    HW111235   2.135   0.591   0.743  0.6749  0.3131  0.2553
 3171SOL    HW211236   2.172   0.444   0.755 -0.5413 -0.1017 -0.8143
 3172SOL     OW11237   2.721   0.429   0.050  0.3176  0.8133 -0.3603
 3172SOL    HW111238   2.785   0.422   0.121  0.1880 -1.0679 -0.3799
 3172SOL    HW211239   2.637   0.412   0.092  0.1531  0.4958 -0.8095
 3173SOL     OW11240   7.288   1.019   4.590  0.3788 -0.1074 -0.0029
 3173SOL    HW111241   7.365   0.963   4.588 -0.2671 -1.0035 -0.4158
 3173SOL    HW211242   7.282   1.049   4.681  2.0507  1.2072 -0.2649
 3174SOL     OW11243   7.362   7.897   8.253 -0.2650  0.0343 -0.6340
 3174SOL    HW111244   7.362   7.982   8.299 -0.9973 -1.0516  1.5299
 3174SOL    HW211245   7.299   7.844   8.302  1.5485 -2.3676 -0.7095
 3175SOL     OW11246   0.930   6.817   0.507 -0.4623 -0.3025 -0.0839
 3175SOL    HW111247   0.995   6.831   0.438 -0.4834 -1.8983 -0.4596
 3175SOL    HW211248   0.948   6.730   0.541 -0.8532  0.1984  1.5251
 3176SOL     OW11249   6.760   4.999   6.448 -0.1357  0.0660  0.4059
 3176SOL    HW111250   6.761   4.905   6.464 -0.8956  0.0030  0.1255
 3176SOL    HW211251   6.818   5.036   6.514  0.2295 -0.6078  0.4636
 3177SOL     OW11252   2.731   8.515   5.143 -0.4388 -0.2366  0.1101
 3177SOL    HW111253   2.799   8.530   5.208 -0.1550  0.4657 -0.3313
 3177SOL    HW211254   2.654   8.560   5.177 -0.3502 -0.0484  0.0625
 3178SOL     OW11255   8.774   5.392   9.395 -0.0383 -0.2631 -0.5204
 3178SOL    HW111256   8.719   5.320   9.365  0.4066 -0.2501 -1.3872
 3178SOL    HW211257   8.863   5.356   9.396  0.3190  0.5387 -1.8721
 3179SOL     OW11258   3.256   6.053   3.289  0.0632  0.5230  0.1645
 3179SOL    HW111259   3.203   6.032   3.212  1.2378  1.6889 -1.0307
 3179SOL    HW211260   3.329   5.991   3.286  0.7654  1.3586 -0.3876
 3180SOL     OW11261   0.985   2.883   3.861  0.2902  0.2286 -0.5300
 3180SOL    HW111262   1.071   2.920   3.883 -0.0902  1.0993 -0.4544
 3180SOL    HW211263   0.996   2.846   3.774  0.4394  1.3619 -1.0024
 3181SOL     OW11264   2.033   5.919   8.452 -0.1810 -0.3912 -0.1231
 3181SOL    HW111265   2.039   5.885   8.363 -0.0751 -2.8046  0.7195
 3181SOL    HW211266   2.116   5.964   8.466  0.4423 -1.3052 -0.7658
 3182SOL     OW11267   6.390   4.390   5.354  0.4354 -0.3601 -0.1035
 3182SOL    HW111268   6.408   4.329   5.426  0.9979  0.9080  0.8919
 3182SOL    HW211269   6.302   4.422   5.372  0.5600 -0.0751  0.0056
 3183SOL     OW11270   5.807   7.018   9.054 -0.2253  0.3970  0.3305
 3183SOL    HW111271   5.857   7.096   9.028  2.9110 -1.5510 -0.0109
 3183SOL    HW211272   5.784   7.035   9.145  0.1633  1.8421  0.1930
 3184SOL     OW11273   3.420   7.627   8.107 -0.2096 -0.2149  0.4540
 3184SOL    HW111274   3.481   7.573   8.158 -0.0241 -0.0953  0.3632
 3184SOL    HW211275   3.363   7.564   8.062 -1.0483 -0.2995  1.6181
 3185SOL     OW11276   1.239   4.136   2.916  0.2836 -0.0166 -0.4033
 3185SOL    HW111277   1.249   4.058   2.971 -1.8134  0.2683  0.4790
 3185SOL    HW211278   1.326   4.150   2.878  1.2594 -1.4893  1.1428
 3186SOL     OW11279   2.711   8.544   4.320 -0.4253 -0.6990  0.2116
 3186SOL    HW111280   2.777   8.528   4.253  0.7585 -0.5862  1.3012
 3186SOL    HW211281   2.636   8.491   4.293 -0.0582 -0.4936 -1.2862
 3187SOL     OW11282   4.613   7.408   7.658 -0.1683  0.1021 -0.2769
 3187SOL    HW111283   4.630   7.387   7.750 -0.3250  0.2805 -0.2054
 3187SOL    HW211284   4.547   7.344   7.631  0.7590 -0.7220 -0.6163
 3188SOL     OW11285   9.138   9.244   1.757  0.3644  0.1591 -0.2935
 3188SOL    HW111286   9.056   9.197   1.766  0.8671 -0.5705  0.6046
 3188SOL    HW211287   9.148   9.292   1.839  1.1513 -0.2848 -0.1220
 3189SOL     OW11288   7.644   5.168   5.113 -0.1238 -0.6114  0.3773
 3189SOL    HW111289   7.702   5.169   5.037 -0.0910 -0.9747  0.3951
 3189SOL    HW211290   7.556   5.166   5.076 -0.1616  0.7337  0.3440
 3190SOL     OW11291   4.023   3.682   2.653  0.6389  0.4068  0.4709
 3190SOL    HW111292   3.955   3.729   2.605  0.4244  0.2730  0.6428
 3190SOL    HW211293   4.074   3.750   2.696  0.6020  0.5071  0.3565
 3191SOL     OW11294   5.497   7.149   8.786 -0.0312 -0.4423 -0.8157
 3191SOL    HW111295   5.418   7.191   8.751 -1.0018 -0.0808  1.5958
 3191SOL    HW211296   5.512   7.193   8.869  2.1807 -1.1851 -0.7749
 3192SOL     OW11297   0.878   3.170   5.472  0.3298 -0.2726 -0.0860
 3192SOL    HW111298   0.898   3.244   5.529 -0.9229 -0.2376  0.3543
 3192SOL    HW211299   0.962   3.141   5.438  1.2547 -0.8971  2.5240
 3193SOL     OW11300   3.986   6.526   8.318  0.1691 -0.3688 -0.5644
 3193SOL    HW111301   4.017   6.455   8.261 -1.2126 -2.2477  0.9356
 3193SOL    HW211302   3.925   6.485   8.378 -0.5863  2.0950  0.4916
 3194SOL     OW11303   2.529   9.118   1.285 -0.2916  0.3805 -0.1884
 3194SOL    HW111304   2.450   9.146   1.332  0.1679 -0.2869  1.0313
 3194SOL    HW211305   2.581   9.198   1.278  0.2896  0.2534  1.8277
 3195SOL     OW11306   9.682   2.866   4.284 -0.2133  0.7358  0.5924
 3195SOL    HW111307   9.741   2.911   4.223 -0.5624  0.2335 -0.1277
 3195SOL    HW211308   9.607   2.840   4.230 -0.1283 -0.4852  1.0453
 3196SOL     OW11309   5.680   6.576   7.393 -0.3200  0.3700  0.5298
 3196SOL    HW111310   5.603   6.625   7.421  0.3108  2.8263 -1.6553
 3196SOL    HW211311   5.660   6.548   7.303  0.9785  0.2844  0.2481
 3197SOL     OW11312   4.348   7.600   8.415  0.0977  0.1720 -0.3875
 3197SOL    HW111313   4.369   7.675   8.358 -4.0019  0.4102 -1.8910
 3197SOL    HW211314   4.374   7.523   8.365  0.1099  0.4850 -0.8625
 3198SOL     OW11315   9.351   5.079   1.018 -0.5189 -0.1757  0.0776
 3198SOL    HW111316   9.395   5.004   1.059 -0.5140  0.0651  0.5277
 3198SOL    HW211317   9.294   5.041   0.952 -0.8120 -0.6093  0.5677
 3199SOL     OW11318   4.423   9.402   7.042  0.0540 -0.1673 -0.4553
 3199SOL    HW111319   4.372   9.481   7.063  0.4662  0.6786 -2.4202
 3199SOL    HW211320   4.465   9.378   7.125 -1.7022  0.4454  0.6731
 3200SOL     OW11321   8.563   2.443   2.775  0.7653 -0.0030  0.5007
 3200SOL    HW111322   8.531   2.486   2.696 -0.5247 -0.1410  0.9125
 3200SOL    HW211323   8.544   2.505   2.845  0.6945 -0.4179  0.8564
 3201SOL     OW11324   7.850   7.202   6.999 -0.2534 -0.3184  0.1500
 3201SOL    HW111325   7.789   7.164   6.936 -0.7431 -0.3585  0.6332
 3201SOL    HW211326   7.866   7.131   7.062  1.6019 -0.8441 -0.8713
 3202SOL     OW11327   8.996   6.836   0.919 -0.0472 -0.1190  0.2609
 3202SOL    HW111328   9.057   6.860   0.849  1.2739 -2.3102  0.5802
 3202SOL    HW211329   8.910   6.846   0.879  0.4100  3.0735 -0.2006
 3203SOL     OW11330   3.718   5.826   3.769 -0.3228 -0.2034 -0.3335
 3203SOL    HW111331   3.811   5.849   3.760  0.1620 -1.9859 -0.3068
 3203SOL    HW211332   3.683   5.890   3.830  1.5019 -0.9418  1.6000
 3204SOL     OW11333   9.098   3.803   2.120  0.5336  0.3029  0.1654
 3204SOL    HW111334   9.162   3.782   2.188  0.8195  0.0426 -0.1789
 3204SOL    HW211335   9.015   3.810   2.167  0.2831 -2.2457  0.2487
 3205SOL     OW11336   0.625   7.757   4.879 -0.2900 -0.2294  0.0369
 3205SOL    HW111337   0.595   7.810   4.952  0.4936  0.8365 -0.3979
 3205SOL    HW211338   0.715   7.786   4.863 -0.6736  0.0835 -1.7970
 3206SOL     OW11339   3.607   1.187   9.034 -0.4618 -0.5188 -0.1890
 3206SOL    HW111340   3.627   1.097   9.009  0.9918 -0.0901 -0.7134
 3206SOL    HW211341   3.684   1.216   9.083 -1.3816  0.1056  0.9456
 3207SOL     OW11342   4.053   3.634   0.423 -0.0546 -0.8150 -0.2266
 3207SOL    HW111343   3.969   3.588   0.421  0.6421 -2.1617 -0.1331
 3207SOL    HW211344   4.114   3.572   0.383  1.1474 -0.4323  0.9506
 3208SOL     OW11345   3.918   7.009   0.422  0.0853  0.1013 -0.2751
 3208SOL    HW111346   3.905   7.058   0.342 -0.6728 -1.1362 -0.9392
 3208SOL    HW211347   3.854   7.045   0.484  0.5718  0.9532 -0.2570
 3209SOL     OW11348   1.200   1.207   0.566  0.0425 -0.1410 -0.4865
 3209SOL    HW111349   1.178   1.211   0.660 -0.1330 -0.2495 -0.5235
 3209SOL    HW211350   1.193   1.115   0.543  0.5576 -0.1819 -0.4970
 3210SOL     OW11351   7.904   7.840   4.627  0.0667 -0.2647 -0.1284
 3210SOL    HW111352   7.842   7.875   4.564 -0.5081  0.5183  0.8442
 3210SOL    HW211353   7.922   7.751   4.597  1.0630  0.5958 -2.2966
 3211SOL     OW11354   0.422   5.242   6.322  0.3079  0.1165  0.2231
 3211SOL    HW111355   0.481   5.173   6.355  0.1882 -0.2117 -0.2398
 3211SOL    HW211356   0.446   5.253   6.230 -0.7065 -0.4058 -0.1218
 3212SOL     OW11357   5.799   9.497   2.518 -0.5505 -0.0767 -0.8055
 3212SOL    HW111358   5.797   9.532   2.607  1.4997  1.6666 -1.3588
 3212SOL    HW211359   5.732   9.429   2.518 -2.4198  1.5995  1.3220
 3213SOL     OW11360   5.363   4.293   7.991  0.1721  0.1103 -0.2518
 3213SOL    HW111361   5.302   4.366   7.982 -0.9000 -0.6949  0.4009
 3213SOL    HW211362   5.424   4.304   7.917 -1.7681 -0.0422 -1.9732
 3214SOL     OW11363   6.715   6.556   2.770  0.2142 -0.1772  0.3084
 3214SOL    HW111364   6.777   6.491   2.805  0.1865  0.2946  1.2898
 3214SOL    HW211365   6.670   6.511   2.699  1.1604 -0.7756  0.0702
 3215SOL     OW11366   9.384   1.895   7.061 -0.4037 -0.2422 -0.3321
 3215SOL    HW111367   9.392   1.939   6.977  0.4327 -0.9402 -0.6310
 3215SOL    HW211368   9.472   1.866   7.082 -0.8902 -1.6558 -0.0900
 3216SOL     OW11369   2.928   6.170   0.811  0.2537 -0.0967 -0.2078
 3216SOL    HW111370   2.899   6.255   0.778 -0.9739 -0.4920 -0.2022
 3216SOL    HW211371   2.848   6.118   0.817  0.9056 -1.0730  0.3393
 3217SOL     OW11372   2.146   8.452   2.379 -0.5860 -0.4923 -0.3563
 3217SOL    HW111373   2.100   8.429   2.298 -1.2282 -0.2360 -0.0697
 3217SOL    HW211374   2.126   8.545   2.393  0.5968 -0.1911 -0.5964
 3218SOL     OW11375   9.343   8.171   3.050  0.4308 -0.2646  0.1907
 3218SOL    HW111376   9.360   8.114   2.975  0.2522  1.5573 -1.3229
 3218SOL    HW211377   9.255   8.205   3.035  0.7390  0.8347  0.7091
 3219SOL     OW11378   6.084   9.618   5.561 -0.3465  0.1364  0.3774
 3219SOL    HW111379   6.048   9.703   5.537  1.9554  1.1463  0.2667
 3219SOL    HW211380   6.051   9.558   5.494 -2.1529  0.8476  0.5611
 3220SOL     OW11381   4.798   9.090   3.524  0.1763 -0.2010 -0.0472
 3220SOL    HW111382   4.829   9.138   3.602  0.8362  0.7560 -0.8731
 3220SOL    HW211383   4.833   9.002   3.536 -1.1900 -0.5921  1.5802
 3221SOL     OW11384   2.071   1.877   2.530  0.3642  0.2142  0.2577
 3221SOL    HW111385   1.976   1.877   2.516  0.4870  0.0298 -0.6203
 3221SOL    HW211386   2.105   1.941   2.468  0.9219 -0.5709 -0.2706
 3222SOL     OW11387   0.956   7.478   8.296 -1.1015  0.0768  1.0601
 3222SOL    HW111388   0.883   7.528   8.332 -0.1611  0.7428  2.1366
 3222SOL    HW211389   1.034   7.520   8.332 -0.2491 -2.0969  1.9448
 3223SOL     OW11390   5.392   9.635   5.485 -0.1898  0.2506 -0.1622
 3223SOL    HW111391   5.445   9.631   5.405  0.4467  1.6644  0.1455
 3223SOL    HW211392   5.360   9.726   5.488 -0.4258  0.1452  1.0417
 3224SOL     OW11393   9.552   6.533   4.181 -0.0441 -0.1190 -0.0552
 3224SOL    HW111394   9.562   6.533   4.086 -1.6940  1.0456 -0.2812
 3224SOL    HW211395   9.641   6.539   4.215  0.6092 -1.0910 -1.4975
 3225SOL     OW11396   1.305   9.233   6.720  0.5506 -0.0121  0.1493
 3225SOL    HW111397   1.295   9.328   6.711  1.6656  0.2803  1.6772
 3225SOL    HW211398   1.239   9.209   6.785 -0.6080 -0.5295 -1.1553
 3226SOL     OW11399   7.128   3.647   4.196 -0.3130  0.1148 -0.1588
 3226SOL    HW111400   7.145   3.554   4.209 -1.1999 -0.0029  0.2153
 3226SOL    HW211401   7.144   3.687   4.282  1.2664  0.5203 -0.5976
 3227SOL     OW11402   0.319   5.304   2.748  0.0303  0.1540 -0.6864
 3227SOL    HW111403   0.310   5.353   2.666 -3.5713  0.5234 -0.2188
 3227SOL    HW211404   0.252   5.340   2.806  1.5312 -1.0401  1.9841
 3228SOL     OW11405   6.541   3.366   8.613 -0.1914  0.6668  0.0274
 3228SOL    HW111406   6.568   3.456   8.630  1.6616  0.1813 -0.0761
 3228SOL    HW211407   6.620   3.314   8.629 -1.2837 -0.9768  0.3350
 3229SOL     OW11408   1.250   6.672   5.682 -0.5114  0.0748 -0.0838
 3229SOL    HW111409   1.329   6.657   5.630 -0.9587  1.8760 -1.3837
 3229SOL    HW211410   1.228   6.586   5.718  3.0006 -0.2001  1.7960
 3230SOL     OW11411   4.177   8.132   0.116 -0.3487  0.0620 -0.2465
 3230SOL    HW111412   4.266   8.112   0.086 -0.2054  0.2714  0.0260
 3230SOL    HW211413   4.174   8.228   0.117 -1.6171  0.1724 -3.3309
 3231SOL     OW11414   0.960   0.222   5.013 -0.1060 -0.0042  0.2046
 3231SOL    HW111415   0.866   0.216   5.030 -0.3102  2.9259  0.6526
 3231SOL    HW211416   1.001   0.211   5.099 -0.2030  0.7546  0.3559
 3232SOL     OW11417   8.278   6.936   5.648 -0.5364  0.1523  0.5354
 3232SOL    HW111418   8.229   6.898   5.721 -0.3169 -0.8411  0.1901
 3232SOL    HW211419   8.322   7.012   5.685  1.7162 -1.7926  2.1878
 3233SOL     OW11420   6.764   8.448   4.821  0.7875 -0.0967 -0.0262
 3233SOL    HW111421   6.835   8.477   4.764  0.8076  1.1944  0.6124
 3233SOL    HW211422   6.809   8.410   4.897  0.9912  3.2895  1.7423
 3234SOL     OW11423   1.324   2.689   1.608 -0.0265 -0.2132  0.2997
 3234SOL    HW111424   1.231   2.711   1.616  0.1281  0.9018 -0.6733
 3234SOL    HW211425   1.369   2.771   1.625  0.7560 -0.6020  0.1170
 3235SOL     OW11426   7.715   1.716   4.523 -0.0972  0.3173  0.4019
 3235SOL    HW111427   7.712   1.708   4.619  0.0249  0.1759  0.3938
 3235SOL    HW211428   7.623   1.716   4.497 -0.1215 -0.2083  0.4745
 3236SOL     OW11429   9.681   2.745   8.484 -0.6051 -0.5454  0.3034
 3236SOL    HW111430   9.601   2.791   8.510 -0.5123  0.8037 -1.6602
 3236SOL    HW211431   9.654   2.688   8.412 -0.4968 -2.9266  1.9945
 3237SOL     OW11432   3.440   3.129   8.202  0.0238 -0.6467 -0.1270
 3237SOL    HW111433   3.435   3.177   8.120 -0.4824 -0.5725 -0.0577
 3237SOL    HW211434   3.358   3.150   8.247 -0.3610 -1.8339 -0.2420
 3238SOL     OW11435   6.411   7.458   4.817 -0.2461  0.2352 -0.3576
 3238SOL    HW111436   6.438   7.369   4.838 -0.4480  0.2575  0.0006
 3238SOL    HW211437   6.361   7.448   4.735 -1.7683 -0.2386  0.5879
 3239SOL     OW11438   2.192   8.208   9.310 -0.4239 -0.0911  0.1790
 3239SOL    HW111439   2.279   8.169   9.318 -0.5984 -0.7601 -0.8848
 3239SOL    HW211440   2.136   8.135   9.281 -1.4980  0.1494  1.5275
 3240SOL     OW11441   4.632   8.028   2.421  0.2115 -0.3278 -0.3187
 3240SOL    HW111442   4.583   8.110   2.419 -1.7008 -1.3990  0.4599
 3240SOL    HW211443   4.593   7.978   2.492  2.0385 -1.5237 -0.0757
 3241SOL     OW11444   0.588   9.690   5.044 -0.2494  1.1097 -0.1340
 3241SOL    HW111445   0.532   9.648   4.978  1.8112  0.4014 -1.5180
 3241SOL    HW211446   0.649   9.621   5.071 -0.5664  1.5966  2.0353
 3242SOL     OW11447   9.604   0.638   4.701  0.0865  0.4814 -0.0844
 3242SOL    HW111448   9.594   0.620   4.607  0.1016 -1.6778  0.2726
 3242SOL    HW211449   9.535   0.701   4.721 -1.0955 -0.4033 -1.2050
 3243SOL     OW11450   0.509   4.338   2.422  0.3127 -0.0357  0.1111
 3243SOL    HW111451   0.596   4.330   2.383  1.2175  2.2556  1.4205
 3243SOL    HW211452   0.486   4.250   2.450  3.9793 -0.2518  3.2377
 3244SOL     OW11453   5.000   2.175   2.580  0.4586 -0.0386  0.4872
 3244SOL    HW111454   5.087   2.167   2.620  0.7604  0.9978  0.0762
 3244SOL    HW211455   4.940   2.144   2.648  1.1248 -0.4937  0.8811
 3245SOL     OW11456   1.582   4.561   5.818 -0.4118 -0.2891 -0.0367
 3245SOL    HW111457   1.522   4.560   5.893 -0.9566 -2.2064 -0.4366
 3245SOL    HW211458   1.637   4.484   5.830  1.0311  0.6286 -0.4560
 3246SOL     OW11459   0.769   7.989   7.397 -0.0725 -0.1944  0.4764
 3246SOL    HW111460   0.712   8.043   7.342 -0.2064 -3.0073 -2.4391
 3246SOL    HW211461   0.709   7.939   7.453 -0.0016  1.4971  2.1889
 3247SOL     OW11462   6.316   2.039   3.041  0.0653 -1.1303 -0.0291
 3247SOL    HW111463   6.243   2.099   3.052 -1.5502 -2.9756 -0.1609
 3247SOL    HW211464   6.317   2.018   2.948  1.0431 -0.8071 -0.1048
 3248SOL     OW11465   0.207   8.824   0.217  0.2028  0.1392  0.1061
 3248SOL    HW111466   0.273   8.865   0.273  0.0224  0.0992  0.3525
 3248SOL    HW211467   0.141   8.791   0.279 -1.1255  2.0229 -0.2110
 3249SOL     OW11468   3.676   6.600   3.999  0.2047 -0.3902 -0.0569
 3249SOL    HW111469   3.605   6.580   3.939 -1.0917  0.7635  1.0254
 3249SOL    HW211470   3.657   6.548   4.077  1.0680 -0.7784 -0.0933
 3250SOL     OW11471   0.843   2.264   4.623 -0.2956  0.1530  0.7670
 3250SOL    HW111472   0.790   2.185   4.615  1.1872 -1.2470  3.3236
 3250SOL    HW211473   0.829   2.312   4.541 -0.7993 -3.0417 -1.1546
 3251SOL     OW11474   1.003   6.159   2.378  0.3830  0.0195 -0.1638
 3251SOL    HW111475   0.935   6.155   2.446 -0.5767  1.9103 -0.9319
 3251SOL    HW211476   1.041   6.071   2.377 -0.2546 -0.3495  2.0979
 3252SOL     OW11477   8.978   5.134   5.248 -0.0740  0.0779 -0.2459
 3252SOL    HW111478   8.991   5.202   5.315  0.0589  1.1146 -1.2929
 3252SOL    HW211479   9.066   5.109   5.222 -0.0629 -1.8959  1.4508
 3253SOL     OW11480   7.295   9.455   9.409 -0.6448 -0.1915 -0.1164
 3253SOL    HW111481   7.390   9.462   9.398 -0.7025  1.7405  0.2368
 3253SOL    HW211482   7.261   9.540   9.380 -2.2374 -0.7397  0.0491
 3254SOL     OW11483   5.785   6.849   2.300 -0.2810  0.2657 -0.8097
 3254SOL    HW111484   5.733   6.900   2.363  0.1692  0.0921 -0.2914
 3254SOL    HW211485   5.821   6.777   2.351  2.4377  1.6578 -0.5312
 3255SOL     OW11486   2.454   8.789   1.501  0.1430  0.5264  0.0497
 3255SOL    HW111487   2.387   8.723   1.483 -0.3506  1.0819 -0.1528
 3255SOL    HW211488   2.520   8.775   1.434  0.7200 -0.6605  0.8274
 3256SOL     OW11489   8.409   1.329   0.109 -0.2903 -0.0117 -0.0682
 3256SOL    HW111490   8.411   1.421   0.134 -1.1296  0.3692 -1.3644
 3256SOL    HW211491   8.376   1.328   0.020 -1.0663 -1.6272  0.1968
 3257SOL     OW11492   2.785   1.293   1.533 -0.2957  0.2925  0.3842
 3257SOL    HW111493   2.712   1.233   1.549 -0.5192  0.3127 -0.5456
 3257SOL    HW211494   2.862   1.245   1.565 -0.9614  1.3971  4.1452
 3258SOL     OW11495   7.538   1.225   6.325 -0.2710 -0.0490 -0.3376
 3258SOL    HW111496   7.580   1.277   6.395  0.0927 -0.1305 -0.4912
 3258SOL    HW211497   7.466   1.180   6.369  0.8748 -1.2898  0.3290
 3259SOL     OW11498   4.644   6.282   7.421  0.3370  0.8536 -0.1186
 3259SOL    HW111499   4.622   6.212   7.483  0.7048  0.5589 -0.3151
 3259SOL    HW211500   4.698   6.342   7.472  3.0431 -0.8014 -0.8424
 3260SOL     OW11501   9.252   1.418   5.897  0.6072 -0.1829  0.5585
 3260SOL    HW111502   9.190   1.347   5.911 -1.0328  1.0326 -0.2094
 3260SOL    HW211503   9.229   1.484   5.962 -0.0776  1.0021 -0.8375
 3261SOL     OW11504   9.378   8.208   6.539  0.5620  0.8445  0.4248
 3261SOL    HW111505   9.286   8.229   6.552  0.6113  0.9999  0.5189
 3261SOL    HW211506   9.395   8.224   6.446  0.4819  0.7667  0.3968
 3262SOL     OW11507   2.946   6.208   3.977  0.0744  0.5227  0.8302
 3262SOL    HW111508   2.924   6.295   4.011 -0.6893  0.4498  0.5457
 3262SOL    HW211509   2.891   6.199   3.899 -0.7063 -0.6640  1.4946
 3263SOL     OW11510   5.692   0.233   8.371  0.0068  0.1101  0.0101
 3263SOL    HW111511   5.784   0.216   8.387 -0.2096 -0.4430  0.7149
 3263SOL    HW211512   5.649   0.212   8.454 -0.8994 -0.7938 -0.6666
 3264SOL     OW11513   2.474   6.064   1.203 -0.6121  0.0964 -0.3503
 3264SOL    HW111514   2.381   6.082   1.193 -0.2936  1.1164 -1.7354
 3264SOL    HW211515   2.515   6.151   1.211  0.0297 -0.3495  2.7497
 3265SOL     OW11516   0.946   5.156   5.522 -0.3179 -0.0078  0.2129
 3265SOL    HW111517   0.920   5.064   5.524  0.2481 -0.1839 -0.2591
 3265SOL    HW211518   0.894   5.194   5.452 -0.4980  0.0193  0.3594
 3266SOL     OW11519   2.111   4.269   4.105 -0.4311  0.7094  0.0479
 3266SOL    HW111520   2.079   4.327   4.036  1.7940  1.6905 -0.2497
 3266SOL    HW211521   2.184   4.317   4.145 -0.1695 -0.8199  1.5259
 3267SOL     OW11522   2.120   1.647   1.827  0.3280 -0.1760  0.4333
 3267SOL    HW111523   2.040   1.696   1.844 -0.1164 -1.5670  2.7818
 3267SOL    HW211524   2.120   1.633   1.733 -2.4538 -0.5543  0.4085
 3268SOL     OW11525   4.483   0.079   5.332  0.0101 -0.3018  0.6683
 3268SOL    HW111526   4.508   0.170   5.318  0.2052 -0.4194  0.2479
 3268SOL    HW211527   4.387   0.079   5.329  0.0269 -0.1927  0.1513
 3269SOL     OW11528   7.849   0.783   2.664  0.5360  0.2317 -0.7109
 3269SOL    HW111529   7.935   0.813   2.636  0.8289  0.9863  0.9044
 3269SOL    HW211530   7.798   0.864   2.675  0.2465 -0.0683  0.2624
 3270SOL     OW11531   2.348   0.829   2.328 -0.2686  0.6392 -0.0366
 3270SOL    HW111532   2.288   0.767   2.369  2.4028 -1.5367  0.8731
 3270SOL    HW211533   2.354   0.800   2.237 -2.0529  2.1392 -0.6961
 3271SOL     OW11534   7.387   2.488   9.592  0.6485 -0.4385 -0.1599
 3271SOL    HW111535   7.478   2.510   9.612 -0.4723  1.9608  3.2139
 3271SOL    HW211536   7.363   2.423   9.658 -0.7512  1.0514  0.8940
 3272SOL     OW11537   9.097   2.576   6.361 -0.1552  0.0967  0.2248
 3272SOL    HW111538   9.081   2.668   6.381 -2.0202  0.6967 -3.2499
 3272SOL    HW211539   9.149   2.578   6.281 -2.5054 -1.6939 -1.5023
 3273SOL     OW11540   2.107   0.947   8.855  0.4085  0.0686  0.4287
 3273SOL    HW111541   2.179   0.985   8.905  0.4081 -0.2341  0.6623
 3273SOL    HW211542   2.061   0.891   8.918 -0.4523  0.8094  0.4743
 3274SOL     OW11543   1.554   3.597   2.247  0.1784  0.4420 -0.1443
 3274SOL    HW111544   1.471   3.634   2.276 -0.6237  0.5198 -2.3695
 3274SOL    HW211545   1.534   3.505   2.230  0.6056  0.4119 -0.4882
 3275SOL     OW11546   7.267   8.163   6.534 -0.3728 -0.5561 -0.3065
 3275SOL    HW111547   7.233   8.172   6.445 -2.8491 -2.3033  0.3501
 3275SOL    HW211548   7.252   8.248   6.574  1.1017  0.3704 -1.5877
 3276SOL     OW11549   8.785   9.152   1.365  0.0632  0.4055  0.0393
 3276SOL    HW111550   8.749   9.117   1.447 -0.4574 -1.1687 -0.8082
 3276SOL    HW211551   8.740   9.102   1.297  1.9587  0.2175 -1.1427
 3277SOL     OW11552   3.333   9.616   0.137 -0.6564  0.1691  0.1064
 3277SOL    HW111553   3.377   9.569   0.208  0.2317  0.6353 -0.1163
 3277SOL    HW211554   3.333   9.707   0.165 -0.2189  0.3681 -0.5283
 3278SOL     OW11555   8.198   4.919   1.137  0.1900 -0.1921  0.2694
 3278SOL    HW111556   8.194   4.848   1.073 -1.0980  0.2417 -0.1799
 3278SOL    HW211557   8.276   4.901   1.188  1.3104 -0.5208 -1.4613
 3279SOL     OW11558   0.022   1.752   2.756 -0.4280  0.1711 -0.0357
 3279SOL    HW111559  -0.072   1.760   2.771 -0.3516  1.8993 -0.3260
 3279SOL    HW211560   0.061   1.816   2.816  0.4804  0.2841 -0.7276
 3280SOL     OW11561   0.072   8.270   2.505  0.0475  0.0268 -0.1041
 3280SOL    HW111562   0.025   8.332   2.560 -1.2719 -1.4682  0.5508
 3280SOL    HW211563   0.156   8.257   2.549  0.5046  1.5744 -0.4569
 3281SOL     OW11564   8.020   5.014   7.798 -0.1588  0.7362 -1.0124
 3281SOL    HW111565   7.978   5.028   7.713 -0.5005  0.9262 -0.8120
 3281SOL    HW211566   7.984   5.083   7.854 -0.3928  0.2327 -0.5412
 3282SOL     OW11567   2.201   9.235   7.725 -0.1238 -0.1287  0.3313
 3282SOL    HW111568   2.252   9.199   7.652  1.3909  3.6183 -0.6871
 3282SOL    HW211569   2.112   9.240   7.691  0.2714  0.1277 -0.7180
 3283SOL     OW11570   6.810   3.280   1.234 -0.4046 -0.0478 -0.0604
 3283SOL    HW111571   6.756   3.318   1.303  1.1458  0.6546  0.8042
 3283SOL    HW211572   6.801   3.185   1.246  0.0748  0.0556  1.3162
 3284SOL     OW11573   5.297   7.723   6.965 -0.3657 -0.1209  0.1149
 3284SOL    HW111574   5.392   7.736   6.959 -0.1820 -1.8297 -3.6395
 3284SOL    HW211575   5.280   7.646   6.910 -3.7290 -1.4062  2.5690
 3285SOL     OW11576   8.132   7.719   4.350 -0.0325  0.2127 -0.0679
 3285SOL    HW111577   8.098   7.738   4.262 -0.3622  0.5946  0.1404
 3285SOL    HW211578   8.054   7.710   4.405  0.1878  1.1947  0.4350
 3286SOL     OW11579   9.498   8.562   4.024  0.0234 -0.1653 -0.0359
 3286SOL    HW111580   9.462   8.651   4.027  2.7171  1.0341 -0.2307
 3286SOL    HW211581   9.534   8.547   4.111 -1.0106 -1.3727  0.2035
 3287SOL     OW11582   2.331   5.188   1.745 -0.0591  0.0768 -0.2633
 3287SOL    HW111583   2.275   5.206   1.670  0.0170  1.7261  0.0164
 3287SOL    HW211584   2.420   5.196   1.711  0.0128  2.8808  0.3249
 3288SOL     OW11585   0.102   8.560   9.278 -0.1278  0.4985  0.5392
 3288SOL    HW111586   0.078   8.625   9.343  0.6516  0.8262  0.5032
 3288SOL    HW211587   0.090   8.605   9.194 -0.0414  0.4463  0.4988
 3289SOL     OW11588   8.087   7.478   0.373  0.0142  0.3611  0.0518
 3289SOL    HW111589   8.065   7.496   0.465 -1.0321  0.7034 -0.2549
 3289SOL    HW211590   8.155   7.543   0.352  1.6192 -0.9055  1.0951
 3290SOL     OW11591   1.576   2.798   1.248 -0.2169 -0.1192 -0.1938
 3290SOL    HW111592   1.522   2.877   1.246  0.5667  0.4265 -0.4473
 3290SOL    HW211593   1.587   2.779   1.341 -2.2109 -1.2337 -0.1126
 3291SOL     OW11594   1.633   5.864   2.942 -0.3900  0.4928  0.6309
 3291SOL    HW111595   1.539   5.875   2.926 -0.7645 -0.5104  2.0112
 3291SOL    HW211596   1.671   5.860   2.854 -1.8342 -0.6244  0.0087
 3292SOL     OW11597   3.750   2.632   4.076 -0.6375  0.0245  0.1014
 3292SOL    HW111598   3.795   2.635   4.161  0.7258 -0.8631 -0.5591
 3292SOL    HW211599   3.667   2.587   4.095  0.6725 -2.3720  0.5819
 3293SOL     OW11600   9.535   0.190   7.395 -0.0978 -0.8203 -0.3377
 3293SOL    HW111601   9.599   0.170   7.326  0.5054  0.9335 -0.3250
 3293SOL    HW211602   9.562   0.137   7.469  3.3467  2.1361  0.7449
 3294SOL     OW11603   4.249   9.048   8.260  0.4872 -0.6537  0.5665
 3294SOL    HW111604   4.236   8.964   8.305  2.7330 -1.3521  0.0186
 3294SOL    HW211605   4.196   9.041   8.180 -1.5707 -0.3693  1.8174
 3295SOL     OW11606   4.939   5.970   9.086 -0.5379 -0.0831  0.0701
 3295SOL    HW111607   4.864   5.913   9.103 -1.0847  0.7879  0.6003
 3295SOL    HW211608   4.905   6.038   9.028  0.5290 -1.2265 -2.0074
 3296SOL     OW11609   1.630   1.859   9.187  0.3510  0.2828  0.5257
 3296SOL    HW111610   1.602   1.943   9.224 -1.3741  0.9263 -2.0241
 3296SOL    HW211611   1.714   1.877   9.146  1.4058 -0.0211  2.3953
 3297SOL     OW11612   8.434   7.948   3.409 -0.4579 -0.7969 -1.0422
 3297SOL    HW111613   8.424   8.042   3.394  0.3206 -0.7482 -1.2865
 3297SOL    HW211614   8.367   7.927   3.474 -1.6915 -0.3830 -2.1325
 3298SOL     OW11615   7.163   6.801   7.059 -0.3069 -0.1342  0.0047
 3298SOL    HW111616   7.187   6.886   7.022  0.3605  0.6642  2.1462
 3298SOL    HW211617   7.223   6.788   7.132 -2.0114 -1.2841  1.2829
 3299SOL     OW11618   5.874   0.250   1.662  0.6850 -0.7647 -0.1675
 3299SOL    HW111619   5.893   0.162   1.693  0.9606 -1.1848 -1.4917
 3299SOL    HW211620   5.907   0.307   1.731  2.2305 -1.6334 -0.1491
 3300SOL     OW11621   2.034   8.736   0.620  0.6819 -0.1828  0.1828
 3300SOL    HW111622   2.070   8.651   0.595 -0.5247 -0.8833  0.7254
 3300SOL    HW211623   1.975   8.717   0.693 -1.1973  0.7814 -0.9983
 3301SOL     OW11624   5.703   2.434   4.171 -0.0475  0.3252  0.3578
 3301SOL    HW111625   5.786   2.387   4.178 -0.2166  0.0999  0.8783
 3301SOL    HW211626   5.641   2.368   4.141  0.1944  0.7594 -1.1667
 3302SOL     OW11627   0.957   6.028   4.006  0.2698  0.0560 -0.0674
 3302SOL    HW111628   1.034   6.040   4.061  1.0290  1.6563 -1.4296
 3302SOL    HW211629   0.890   6.083   4.046 -0.0776 -0.9581  0.8281
 3303SOL     OW11630   9.042   4.260   4.010  0.1747  0.2126 -0.5420
 3303SOL    HW111631   9.099   4.325   3.969 -0.0268 -0.5139 -2.0755
 3303SOL    HW211632   9.076   4.176   3.977 -1.2716 -0.2723 -0.8476
 3304SOL     OW11633   5.904   0.065   0.988 -0.3820 -0.4794 -0.3395
 3304SOL    HW111634   5.997   0.049   1.002 -0.4269  0.6620  1.5565
 3304SOL    HW211635   5.900   0.112   0.905  0.4917 -2.3052 -1.4913
 3305SOL     OW11636   6.016   2.871   3.371  0.3273  0.4221  0.0361
 3305SOL    HW111637   6.016   2.783   3.409 -2.1211  0.5040  0.3828
 3305SOL    HW211638   5.982   2.859   3.282  3.1474  0.6410 -1.1708
 3306SOL     OW11639   4.457   7.337   4.394 -0.5172 -0.3580  0.7777
 3306SOL    HW111640   4.495   7.377   4.316 -0.2563 -1.8785  0.0766
 3306SOL    HW211641   4.369   7.373   4.399  0.0295  1.0343  0.7634
 3307SOL     OW11642   3.112   3.356   1.287  0.5124 -0.1101 -0.0261
 3307SOL    HW111643   3.126   3.440   1.244  2.9986 -0.1841  0.4803
 3307SOL    HW211644   3.025   3.329   1.258 -1.0509  3.2825  0.9732
 3308SOL     OW11645   5.288   3.800   7.667  0.3468  0.0691 -0.2068
 3308SOL    HW111646   5.267   3.857   7.593  1.4219 -0.2866 -0.8195
 3308SOL    HW211647   5.211   3.744   7.677 -0.4759  1.2152  0.0194
 3309SOL     OW11648   7.208   3.450   5.933  0.0313  0.4280  0.2880
 3309SOL    HW111649   7.272   3.385   5.904 -0.7564 -0.4667  0.5272
 3309SOL    HW211650   7.161   3.407   6.004 -2.3972  0.1773 -1.3648
 3310SOL     OW11651   1.099   2.130   1.099  0.3108  0.2387  0.0696
 3310SOL    HW111652   1.127   2.219   1.122  0.4474  0.2460 -0.1204
 3310SOL    HW211653   1.074   2.137   1.007  0.6319  0.0064 -0.0354
 3311SOL     OW11654   6.585   0.541   2.238  0.2197 -0.7229  0.2586
 3311SOL    HW111655   6.590   0.446   2.233  0.4728 -0.6660 -0.9420
 3311SOL    HW211656   6.669   0.571   2.203  0.9056 -0.0693  2.3348
 3312SOL     OW11657   7.551   4.438   9.242  0.1775 -0.6603 -0.0141
 3312SOL    HW111658   7.467   4.398   9.265 -0.9253  2.5125  2.1051
 3312SOL    HW211659   7.538   4.474   9.155 -0.2409 -1.1538 -0.1610
 3313SOL     OW11660   4.176   0.550   3.425 -0.2197  0.3206 -0.0181
 3313SOL    HW111661   4.110   0.576   3.490 -0.3339 -0.4091  0.1589
 3313SOL    HW211662   4.191   0.457   3.441  1.6878  0.6926  0.6869
 3314SOL     OW11663   2.732   3.707   6.580 -0.1012  0.0892 -0.3246
 3314SOL    HW111664   2.804   3.769   6.575  0.2370 -0.1941  0.8888
 3314SOL    HW211665   2.702   3.711   6.671 -0.9093 -0.5934 -0.5418
 3315SOL     OW11666   6.767   7.870   6.716 -0.0967  0.2692 -0.3617
 3315SOL    HW111667   6.706   7.818   6.663 -0.4965 -1.5218  1.7098
 3315SOL    HW211668   6.713   7.908   6.785  0.7818  0.4694  0.2320
 3316SOL     OW11669   5.882   1.097   0.794  0.0884  0.4766 -0.6912
 3316SOL    HW111670   5.917   1.009   0.801 -0.6363  0.1520 -1.0407
 3316SOL    HW211671   5.868   1.110   0.700  1.0735  1.3191 -0.7407
 3317SOL     OW11672   1.434   0.100   2.256  0.0242 -0.4119  0.1945
 3317SOL    HW111673   1.432   0.188   2.219  1.9792 -0.0674  0.8042
 3317SOL    HW211674   1.346   0.086   2.291  0.0191  1.7789  1.1956
 3318SOL     OW11675   5.622   4.880   7.939  0.4102  0.7347 -0.3642
 3318SOL    HW111676   5.693   4.823   7.966 -1.1909 -1.6640 -0.8194
 3318SOL    HW211677   5.563   4.884   8.014  0.4134  1.6780 -0.3967
 3319SOL     OW11678   8.932   1.159   4.720 -0.2671  0.3628 -1.0919
 3319SOL    HW111679   8.894   1.170   4.633 -1.7056 -0.5357 -0.5926
 3319SOL    HW211680   8.858   1.165   4.780  0.6762  0.7535  0.0744
 3320SOL     OW11681   6.081   7.457   4.416  0.3710 -0.0480  0.0018
 3320SOL    HW111682   6.021   7.434   4.345 -1.9381 -1.3050  2.1983
 3320SOL    HW211683   6.048   7.540   4.450 -2.0227 -1.9535  2.8820
 3321SOL     OW11684   0.339   5.936   2.283 -0.2803 -0.4396  0.0251
 3321SOL    HW111685   0.327   5.994   2.358 -1.5664 -0.1118 -0.3933
 3321SOL    HW211686   0.251   5.928   2.245 -0.3313 -3.2791  0.5024
 3322SOL     OW11687   6.180   2.913   9.071  0.4918  0.6288  0.4639
 3322SOL    HW111688   6.139   2.870   8.997  0.9334  0.0825  0.5315
 3322SOL    HW211689   6.111   2.968   9.108 -0.1666 -0.2410  0.5582
 3323SOL     OW11690   2.965   7.069   9.263 -0.3804  0.1595 -0.0588
 3323SOL    HW111691   3.052   7.078   9.302 -0.2851 -0.9038  0.0113
 3323SOL    HW211692   2.914   7.020   9.328 -1.0324  0.7837 -0.0979
 3324SOL     OW11693   5.194   6.293   9.560 -0.1463 -0.6460  0.0159
 3324SOL    HW111694   5.231   6.332   9.640 -0.4621 -1.2444  0.4665
 3324SOL    HW211695   5.260   6.308   9.493 -0.1052  0.3474  0.2508
 3325SOL     OW11696   5.122   4.219   5.496 -0.6652  0.2754  0.4799
 3325SOL    HW111697   5.165   4.294   5.537 -0.7717  0.7312 -0.2293
 3325SOL    HW211698   5.053   4.257   5.442 -1.9977 -0.4390  1.5883
 3326SOL     OW11699   2.593   0.922   4.919 -0.2249  0.4084  0.1007
 3326SOL    HW111700   2.606   0.829   4.941 -0.5115  0.5003  0.6652
 3326SOL    HW211701   2.680   0.960   4.928  0.2315 -0.0903 -1.6299
 3327SOL     OW11702   4.451   5.116   9.367  0.4749 -0.2004  0.3134
 3327SOL    HW111703   4.408   5.200   9.384  0.6131 -0.0963  0.1502
 3327SOL    HW211704   4.403   5.053   9.421 -2.1168 -0.7353 -2.3528
 3328SOL     OW11705   0.969   8.850   2.248 -0.1359  0.3848  0.0740
 3328SOL    HW111706   1.039   8.903   2.286  0.0110  1.1785 -1.2527
 3328SOL    HW211707   0.990   8.760   2.274  0.8987  0.7140  0.4035
 3329SOL     OW11708   2.468   9.395   1.627 -0.6360 -0.2383 -0.0479
 3329SOL    HW111709   2.510   9.316   1.660 -0.1804  0.4145  1.0075
 3329SOL    HW211710   2.428   9.369   1.544  1.0995 -1.1091 -0.6618
 3330SOL     OW11711   8.528   8.762   1.172  0.3940  0.2885 -0.4751
 3330SOL    HW111712   8.604   8.717   1.135  0.2879  0.5847 -1.0475
 3330SOL    HW211713   8.453   8.716   1.135  0.2804  1.1457 -1.3279
 3331SOL     OW11714   3.015   9.009   3.384 -0.4127 -0.0171  0.1754
 3331SOL    HW111715   2.995   9.086   3.331 -0.3385 -1.7310 -2.5725
 3331SOL    HW211716   3.110   9.005   3.387 -0.4164  0.0524  0.4094
 3332SOL     OW11717   0.639   8.097   6.911 -0.8672  0.0563  0.1282
 3332SOL    HW111718   0.582   8.068   6.982 -1.2109  2.4026  0.9009
 3332SOL    HW211719   0.606   8.183   6.887  0.7526  0.3618 -1.2108
 3333SOL     OW11720   3.764   2.940   5.406 -0.5252  0.0277 -0.0313
 3333SOL    HW111721   3.702   3.005   5.372  0.8934  1.9847  0.9337
 3333SOL    HW211722   3.820   2.920   5.331 -0.8973 -0.0017 -0.3043
 3334SOL     OW11723   6.276   5.270   9.441 -0.1276  0.2709  0.3307
 3334SOL    HW111724   6.282   5.181   9.406 -0.1010  0.5635 -0.4269
 3334SOL    HW211725   6.321   5.324   9.377 -0.4578  0.8811  0.6087
 3335SOL     OW11726   6.440   1.787   4.526  0.5401  0.4332 -0.1795
 3335SOL    HW111727   6.415   1.864   4.474 -0.1541  0.4938  0.2316
 3335SOL    HW211728   6.404   1.805   4.613 -0.7784 -0.9348 -0.3972
 3336SOL     OW11729   2.315   3.769   5.256 -0.1226 -0.0320  0.6452
 3336SOL    HW111730   2.220   3.778   5.255 -0.1183 -0.0307 -0.5187
 3336SOL    HW211731   2.348   3.848   5.213  0.4261  0.1517  1.3870
 3337SOL     OW11732   5.591   6.472   0.929  0.1952  0.3721 -0.0821
 3337SOL    HW111733   5.507   6.461   0.974 -0.2754  0.8043 -0.8345
 3337SOL    HW211734   5.593   6.564   0.904  1.8816  0.9146  1.8256
 3338SOL     OW11735   3.898   8.088   6.228  0.3779  0.1127  0.3546
 3338SOL    HW111736   3.814   8.132   6.216  1.3092  1.5791 -1.1831
 3338SOL    HW211737   3.876   7.995   6.236 -1.3373  0.4071 -0.5867
 3339SOL     OW11738   4.766   5.730   8.273 -0.1669 -0.2538  0.6485
 3339SOL    HW111739   4.697   5.729   8.206  0.7976  1.1696 -0.4199
 3339SOL    HW211740   4.846   5.749   8.224  1.0269 -1.8519  1.8565
 3340SOL     OW11741   2.299   8.954   1.194  0.9185  0.3048 -0.4555
 3340SOL    HW111742   2.282   8.945   1.100  2.0112 -4.3201 -0.4290
 3340SOL    HW211743   2.393   8.973   1.200  0.8851  0.4225 -0.2920
 3341SOL     OW11744   9.173   2.658   9.359 -0.2306 -0.2914  1.0004
 3341SOL    HW111745   9.179   2.584   9.419 -0.4206 -0.1563  1.1857
 3341SOL    HW211746   9.167   2.617   9.272  0.6594 -0.4784  1.0133
 3342SOL     OW11747   3.348   1.345   3.799  0.3546 -0.1659  0.3545
 3342SOL    HW111748   3.321   1.256   3.777  0.3960  0.1473 -1.0117
 3342SOL    HW211749   3.443   1.346   3.784  0.4026  0.0289  0.6561
 3343SOL     OW11750   3.818   1.489   3.199  0.8539  0.4845 -0.6556
 3343SOL    HW111751   3.745   1.513   3.256  1.4271  2.8492 -0.7923
 3343SOL    HW211752   3.802   1.397   3.176 -2.0437  0.8923 -0.6590
 3344SOL     OW11753   0.576   5.011   9.678  0.1515 -0.7574  0.5869
 3344SOL    HW111754   0.492   4.974   9.703 -0.3209  0.5376  1.0024
 3344SOL    HW211755   0.604   5.061   9.755  1.0534 -0.7413  0.2616
 3345SOL     OW11756   6.240   8.476   2.040 -0.0752 -0.2144 -0.1794
 3345SOL    HW111757   6.294   8.472   2.119 -1.8337  0.0785  1.0754
 3345SOL    HW211758   6.154   8.503   2.070 -0.6651  0.4640 -2.2867
 3346SOL     OW11759   5.536   7.607   1.930  0.2216  0.2382 -0.6470
 3346SOL    HW111760   5.538   7.514   1.906  0.1076  0.5011 -1.7472
 3346SOL    HW211761   5.616   7.643   1.892 -0.4613  0.8713 -1.5189
 3347SOL     OW11762   0.995   6.837   1.456  0.5228 -0.1278  0.4557
 3347SOL    HW111763   0.983   6.838   1.361  0.5683 -1.4006  0.4139
 3347SOL    HW211764   1.024   6.925   1.478 -2.5951  1.2231 -0.2767
 3348SOL     OW11765   8.340   7.528   4.459 -0.1505  0.0342 -0.0123
 3348SOL    HW111766   8.334   7.513   4.554 -0.1668  0.7665  0.1082
 3348SOL    HW211767   8.282   7.603   4.443 -0.2424 -0.1686 -0.6218
 3349SOL     OW11768   1.639   7.612   1.890 -0.1685 -0.0544 -0.7623
 3349SOL    HW111769   1.732   7.590   1.897  0.1008  1.0239 -0.8380
 3349SOL    HW211770   1.630   7.654   1.805 -0.5077  0.8125 -0.3125
 3350SOL     OW11771   8.692   1.036   6.297  0.4338  0.3591 -0.2584
 3350SOL    HW111772   8.704   1.087   6.216 -0.2724 -0.4295 -0.8773
 3350SOL    HW211773   8.762   0.971   6.294  0.8587  0.7874  0.1475
 3351SOL     OW11774   9.128   9.395   5.535  0.0812 -0.3100  0.0377
 3351SOL    HW111775   9.057   9.417   5.596  0.7526  0.0192  0.7147
 3351SOL    HW211776   9.208   9.421   5.581  0.5471  0.9753 -1.4233
 3352SOL     OW11777   2.389   3.677   8.794 -0.4661  0.0994 -0.0449
 3352SOL    HW111778   2.312   3.707   8.842 -0.0071  0.2113  0.6397
 3352SOL    HW211779   2.454   3.746   8.807 -0.3855  0.2060 -0.9690
 3353SOL     OW11780   7.925   7.942   1.749 -0.5501  0.1338 -0.1066
 3353SOL    HW111781   7.991   7.958   1.816 -1.0992 -1.9167  0.9968
 3353SOL    HW211782   7.963   7.876   1.692 -1.2042 -0.2387 -0.1271
 3354SOL     OW11783   1.821   3.691   1.849  0.1765 -0.0199  0.4450
 3354SOL    HW111784   1.761   3.746   1.899 -1.0173 -0.9444  0.0665
 3354SOL    HW211785   1.891   3.669   1.911 -1.8076 -2.0438  2.1069
 3355SOL     OW11786   9.425   8.166   8.841 -0.1623  0.4836  0.2209
 3355SOL    HW111787   9.365   8.239   8.856  1.4799  2.0285 -0.4026
 3355SOL    HW211788   9.436   8.163   8.746 -2.2928 -2.4188 -0.0898
 3356SOL     OW11789   6.318   4.081   6.405 -0.0251 -0.2348 -0.4097
 3356SOL    HW111790   6.358   3.998   6.430 -0.4370 -0.2401  0.2741
 3356SOL    HW211791   6.391   4.144   6.407 -0.2007  0.0052  2.0727
 3357SOL     OW11792   2.312   1.955   8.539 -0.8561 -0.1626  0.2586
 3357SOL    HW111793   2.272   2.034   8.574 -0.6738  0.5876 -1.1749
 3357SOL    HW211794   2.240   1.911   8.492 -0.4471  0.2867 -0.8121
 3358SOL     OW11795   3.919   8.570   8.793  0.3735 -0.6535 -0.0223
 3358SOL    HW111796   3.863   8.540   8.722 -0.2382 -0.2021  0.2624
 3358SOL    HW211797   3.863   8.570   8.870  0.8491 -0.4906  0.3279
 3359SOL     OW11798   2.408   4.620   8.827  0.1349  0.1367 -0.0222
 3359SOL    HW111799   2.483   4.576   8.866  0.3692 -0.3339 -0.9532
 3359SOL    HW211800   2.368   4.669   8.899  0.4029 -0.8798  0.8458
 3360SOL     OW11801   6.918   5.256   8.975 -0.3342  0.6074  0.3190
 3360SOL    HW111802   7.002   5.210   8.979 -0.1332  1.0297  1.1127
 3360SOL    HW211803   6.872   5.228   9.054  0.5859  3.2518  1.9292
 3361SOL     OW11804   6.650   2.705   8.518 -0.3073 -0.2224 -0.9985
 3361SOL    HW111805   6.697   2.736   8.440  0.0218 -0.3640 -0.8616
 3361SOL    HW211806   6.608   2.783   8.553  0.3579  0.0448 -0.7652
 3362SOL     OW11807   3.900   2.459   6.081 -0.2789  0.8968 -0.2421
 3362SOL    HW111808   3.873   2.530   6.022 -0.3964  0.7824 -0.3264
 3362SOL    HW211809   3.818   2.425   6.116 -0.2405  0.5658 -0.4753
 3363SOL     OW11810   1.349   6.898   8.708  0.1871  0.3317 -0.5005
 3363SOL    HW111811   1.325   6.933   8.622 -1.6184  1.1684  0.2963
 3363SOL    HW211812   1.439   6.927   8.721 -0.2514  2.1217 -1.1622
 3364SOL     OW11813   0.346   4.042   5.154  0.7593  0.2734  0.5495
 3364SOL    HW111814   0.294   4.046   5.074 -0.0940 -0.4604  1.0435
 3364SOL    HW211815   0.311   3.966   5.202  2.4738 -0.4342  0.7746
 3365SOL     OW11816   8.741   6.712   6.409  0.6753 -0.0301 -0.4403
 3365SOL    HW111817   8.674   6.761   6.362  1.0452 -0.3193 -1.2843
 3365SOL    HW211818   8.757   6.763   6.488 -0.0896  0.3663 -0.5335
 3366SOL     OW11819   3.585   8.694   3.976 -0.7282 -0.0569 -0.2232
 3366SOL    HW111820   3.672   8.725   3.952 -1.6053  1.4067 -1.6393
 3366SOL    HW211821   3.532   8.707   3.898 -2.0680 -1.6517  0.3564
 3367SOL     OW11822   6.171   9.697   8.300 -0.1427  0.6913  0.6441
 3367SOL    HW111823   6.179   9.726   8.391  0.6314 -0.2072  0.8771
 3367SOL    HW211824   6.181   9.777   8.249  0.3237  1.0834  1.3272
 3368SOL     OW11825   6.441   2.995   8.041  0.3576  0.0538 -0.4072
 3368SOL    HW111826   6.350   3.018   8.019 -0.0130 -1.3429 -0.4853
 3368SOL    HW211827   6.491   3.074   8.023 -0.6382  0.4142 -1.8078
 3369SOL     OW11828   7.900   1.046   7.371 -0.1365  0.5872 -0.4776
 3369SOL    HW111829   7.883   1.091   7.454 -1.5753  2.1480 -1.5508
 3369SOL    HW211830   7.860   0.960   7.382  0.3873  0.4729  0.7132
 3370SOL     OW11831   1.472   2.036   6.293 -0.1208 -0.2764 -0.4301
 3370SOL    HW111832   1.518   1.981   6.356 -0.0703  0.7401  0.4323
 3370SOL    HW211833   1.380   2.018   6.308 -0.0922 -1.7661 -1.6703
 3371SOL     OW11834   2.100   2.536   0.614  0.4513  0.1015 -0.0159
 3371SOL    HW111835   2.065   2.625   0.610  1.2720  0.4095 -0.8237
 3371SOL    HW211836   2.186   2.546   0.655  0.5441 -0.3235 -0.1016
 3372SOL     OW11837   3.854   1.826   6.610  0.1041  0.6180 -0.3068
 3372SOL    HW111838   3.820   1.802   6.524  0.5258  0.3743 -0.4105
 3372SOL    HW211839   3.818   1.760   6.669 -2.0313  2.0626  0.1149
 3373SOL     OW11840   5.005   0.543   3.419  0.7832  0.1711  0.0216
 3373SOL    HW111841   5.034   0.467   3.471  0.4043 -0.1660 -0.2584
 3373SOL    HW211842   5.067   0.612   3.442  0.5178  0.0774  1.0592
 3374SOL     OW11843   1.229   3.949   6.222  0.0408 -0.4842 -0.0860
 3374SOL    HW111844   1.322   3.962   6.236  0.6333  0.0142 -3.5815
 3374SOL    HW211845   1.192   4.037   6.229 -0.2496 -0.6964  1.4102
 3375SOL     OW11846   4.935   7.058   8.092 -0.1234 -0.0836  0.3208
 3375SOL    HW111847   4.943   7.090   8.181  0.1862  0.8566 -0.0332
 3375SOL    HW211848   4.877   7.121   8.049 -0.8596 -0.9265  0.0456
 3376SOL     OW11849   1.587   3.942   5.981  0.0221 -0.7929  0.7434
 3376SOL    HW111850   1.622   3.858   6.012  0.0071 -1.2316 -0.3941
 3376SOL    HW211851   1.563   3.989   6.061  0.2481 -1.7754  1.4000
 3377SOL     OW11852   1.159   7.844   5.609  0.2710  0.0912 -0.6783
 3377SOL    HW111853   1.153   7.870   5.701 -0.5761  0.4234 -0.8152
 3377SOL    HW211854   1.226   7.901   5.571 -0.3744  0.9351 -0.5826
 3378SOL     OW11855   6.033   2.827   6.051 -0.1521  0.6302  0.4216
 3378SOL    HW111856   6.020   2.802   5.960  0.2630 -0.5058  0.6558
 3378SOL    HW211857   6.118   2.788   6.075 -0.8568 -0.2255  1.6548
 3379SOL     OW11858   5.484   2.859   8.122  0.0657  0.2471 -0.0251
 3379SOL    HW111859   5.464   2.932   8.063 -1.8418 -0.2740 -0.1033
 3379SOL    HW211860   5.534   2.898   8.193 -2.1830  1.9908  0.7107
 3380SOL     OW11861   9.695   8.557   6.748 -0.8159 -0.4549 -0.1308
 3380SOL    HW111862   9.738   8.553   6.834 -0.3226 -2.1158 -0.4337
 3380SOL    HW211863   9.625   8.493   6.753 -3.1737  1.9493  0.2284
 3381SOL     OW11864   1.630   9.253   6.750  0.1089 -0.0034 -0.1759
 3381SOL    HW111865   1.559   9.196   6.778 -1.4397  1.8260 -0.1770
 3381SOL    HW211866   1.613   9.268   6.657 -0.4913  1.7078  0.1711
 3382SOL     OW11867   1.922   0.405   4.950  0.0316  0.6188 -0.1536
 3382SOL    HW111868   1.942   0.311   4.954 -1.8063 -0.0390 -3.1768
 3382SOL    HW211869   1.855   0.417   5.018 -0.0260 -0.3525 -0.0170
 3383SOL     OW11870   6.138   2.986   9.652  0.2621  0.1547  0.1598
 3383SOL    HW111871   6.221   3.018   9.687 -0.2798 -0.0051  1.6612
 3383SOL    HW211872   6.114   2.913   9.709  0.8412 -2.2414 -2.4000
 3384SOL     OW11873   4.852   5.980   0.849 -0.2950  0.4822  0.0856
 3384SOL    HW111874   4.783   6.032   0.806  0.4613  2.1458  0.7873
 3384SOL    HW211875   4.924   6.042   0.860  0.7495 -0.8154  0.7624
 3385SOL     OW11876   3.298   9.601   2.025 -0.4173 -0.2460 -0.3667
 3385SOL    HW111877   3.255   9.560   2.100 -0.1118  0.8447  0.4334
 3385SOL    HW211878   3.373   9.647   2.063 -0.1362  0.1573 -1.3770
 3386SOL     OW11879   0.806   3.574   7.723 -0.4434  0.0520  0.0727
 3386SOL    HW111880   0.846   3.659   7.742 -0.4290  0.3898 -1.3613
 3386SOL    HW211881   0.803   3.530   7.808  2.5748  0.1646  0.3445
 3387SOL     OW11882   7.390   9.533   8.873 -0.6007 -0.3423  0.1759
 3387SOL    HW111883   7.400   9.609   8.816 -1.5053  3.5325  4.6093
 3387SOL    HW211884   7.479   9.513   8.902 -0.6164  1.8436  2.0150
 3388SOL     OW11885   2.580   5.720   1.993 -0.9369 -0.2014  0.8472
 3388SOL    HW111886   2.585   5.767   1.910 -0.3012 -0.6719  0.6124
 3388SOL    HW211887   2.564   5.788   2.058 -1.2724  0.1893  0.3626
 3389SOL     OW11888   6.759   8.892   3.222  0.7340  0.3217  0.2910
 3389SOL    HW111889   6.834   8.890   3.281  1.1370 -0.5727 -0.2435
 3389SOL    HW211890   6.794   8.921   3.138  0.2756  0.9478  0.3006
 3390SOL     OW11891   0.096   6.026   3.412  0.2177  0.0488 -0.3855
 3390SOL    HW111892   0.180   6.070   3.423 -0.6502  1.6659  0.3274
 3390SOL    HW211893   0.077   5.988   3.498  0.1528 -0.1496 -0.4885
 3391SOL     OW11894   5.551   4.889   6.516 -0.2963  0.1314  0.5979
 3391SOL    HW111895   5.640   4.924   6.522 -0.2936  0.4302 -0.8242
 3391SOL    HW211896   5.538   4.843   6.599  1.2475 -0.0744  0.7607
 3392SOL     OW11897   0.798   6.827   4.226  0.4638  0.3218 -0.0242
 3392SOL    HW111898   0.835   6.809   4.140 -0.4336  0.9497 -0.5510
 3392SOL    HW211899   0.872   6.859   4.278  1.0302 -0.1616 -0.5143
 3393SOL     OW11900   2.647   5.747   1.585 -0.0201  0.3254  0.2138
 3393SOL    HW111901   2.562   5.729   1.626  0.7483 -0.8461  1.3431
 3393SOL    HW211902   2.643   5.701   1.501 -1.2629  2.0199 -0.7284
 3394SOL     OW11903   6.829   4.255   3.045  0.6118  1.0005 -0.4434
 3394SOL    HW111904   6.872   4.291   2.968  0.0025  1.1736 -0.7096
 3394SOL    HW211905   6.850   4.317   3.115  0.2650  1.4357 -0.7142
 3395SOL     OW11906   7.869   3.937   5.758  0.6598 -0.0970 -0.2769
 3395SOL    HW111907   7.944   3.988   5.788 -0.7464  2.0955 -0.2908
 3395SOL    HW211908   7.901   3.892   5.679  1.7071  1.5806 -0.8719
 3396SOL     OW11909   5.815   3.453   3.874  0.2835 -0.9024 -0.7201
 3396SOL    HW111910   5.802   3.395   3.948  0.2980  1.5665  1.3474
 3396SOL    HW211911   5.877   3.406   3.817  0.7729 -2.6088  1.1240
 3397SOL     OW11912   7.433   2.743   7.216 -0.1177  0.1401 -0.3270
 3397SOL    HW111913   7.480   2.745   7.133  0.4209 -0.4150 -0.0481
 3397SOL    HW211914   7.385   2.661   7.215 -1.5822  0.9757 -0.8605
 3398SOL     OW11915   3.888   4.939   7.671  0.7001  0.4593 -0.3582
 3398SOL    HW111916   3.939   4.908   7.596  0.0411  0.2346 -0.7317
 3398SOL    HW211917   3.948   4.993   7.721  1.4818 -0.3042 -0.4445
 3399SOL     OW11918   3.511   0.016   6.904 -0.3303  0.3253 -0.4006
 3399SOL    HW111919   3.523  -0.016   6.994 -0.8235  0.9777 -0.0991
 3399SOL    HW211920   3.457  -0.051   6.862 -2.2981  1.2545  0.5512
 3400SOL     OW11921   3.372   1.722   2.155 -0.3889 -0.3579  0.1314
 3400SOL    HW111922   3.423   1.735   2.235  1.8481  0.5289 -1.3154
 3400SOL    HW211923   3.332   1.807   2.138  0.0040 -0.2332 -0.2056
 3401SOL     OW11924   0.038   4.627   5.512  0.0506  0.5425 -0.4618
 3401SOL    HW111925  -0.021   4.702   5.515  0.1498  0.5897  0.6210
 3401SOL    HW211926  -0.021   4.551   5.515  0.0271  0.5850  1.2799
 3402SOL     OW11927   3.774   8.748   3.310 -0.0698 -0.0549 -0.2956
 3402SOL    HW111928   3.691   8.728   3.353 -0.9651  0.2504 -1.8129
 3402SOL    HW211929   3.784   8.678   3.245  1.8625 -1.2095  1.1399
 3403SOL     OW11930   1.827   4.234   1.854  0.3776  0.3935 -0.7206
 3403SOL    HW111931   1.734   4.235   1.832 -0.0863 -0.2425  1.0449
 3403SOL    HW211932   1.858   4.320   1.826 -1.3105  1.5759  0.7452
 3404SOL     OW11933   3.644   4.593   6.560  0.4294 -0.7450 -0.3685
 3404SOL    HW111934   3.618   4.667   6.616 -1.8443 -1.0367 -0.9139
 3404SOL    HW211935   3.695   4.536   6.617 -2.6688 -1.5598  1.8580
 3405SOL     OW11936   4.973   4.404   2.321  0.2413 -0.1959  0.0262
 3405SOL    HW111937   4.907   4.405   2.252  1.8568 -1.9982 -1.6450
 3405SOL    HW211938   4.933   4.355   2.392 -1.3890  1.5579  0.4078
 3406SOL     OW11939   2.240   5.143   8.069 -0.0227  0.1943 -0.1307
 3406SOL    HW111940   2.323   5.161   8.113  0.3048 -0.4407 -0.4800
 3406SOL    HW211941   2.193   5.085   8.130  1.3134 -2.4771 -1.4640
 3407SOL     OW11942   7.644   2.030   8.096  0.6286 -0.3075  0.1718
 3407SOL    HW111943   7.659   2.112   8.144  0.3707 -0.0742 -0.1352
 3407SOL    HW211944   7.676   1.961   8.154  0.5201 -0.0146  0.5826
 3408SOL     OW11945   3.759   6.406   6.309  0.1209 -0.5157 -0.0432
 3408SOL    HW111946   3.698   6.343   6.273 -0.6791  0.3495 -0.2460
 3408SOL    HW211947   3.712   6.490   6.306  0.6035 -0.1475  1.5540
 3409SOL     OW11948   1.419   9.175   2.589  0.1328  0.7523 -0.0288
 3409SOL    HW111949   1.414   9.081   2.575  3.3593  0.2388  1.3292
 3409SOL    HW211950   1.362   9.191   2.665  0.9245 -0.4529  0.8569
 3410SOL     OW11951   9.555   5.980   3.274 -0.2090 -0.7360 -0.5253
 3410SOL    HW111952   9.503   6.049   3.316 -0.1164 -0.7224 -0.4324
 3410SOL    HW211953   9.644   5.994   3.306 -0.3558 -1.4855  0.2725
 3411SOL     OW11954   6.597   7.351   7.399 -0.5425  0.2386 -0.3904
 3411SOL    HW111955   6.572   7.361   7.491  0.6048  0.0404 -0.0403
 3411SOL    HW211956   6.678   7.401   7.390 -0.3942 -0.1265 -1.1822
 3412SOL     OW11957   1.364   9.219   1.436 -1.0508  0.3350  0.9810
 3412SOL    HW111958   1.447   9.188   1.471 -0.4188 -1.5583 -1.8188
 3412SOL    HW211959   1.300   9.200   1.505  0.5832  0.5335  2.6382
 3413SOL     OW11960   9.604   2.782   2.009 -0.2552 -0.0780 -0.3267
 3413SOL    HW111961   9.593   2.687   2.007  0.5629 -0.2000  0.3595
 3413SOL    HW211962   9.551   2.811   2.083 -0.3229 -0.0238 -0.3961
 3414SOL     OW11963   4.877   5.886   4.320 -0.2448  0.5784 -0.2033
 3414SOL    HW111964   4.793   5.844   4.301  0.8337 -0.8961 -2.1651
 3414SOL    HW211965   4.899   5.934   4.240  1.8204 -1.0114 -0.6892
 3415SOL     OW11966   5.870   2.150   5.931  0.2097 -0.0141 -1.1603
 3415SOL    HW111967   5.835   2.211   5.866 -0.2876 -1.1678 -2.0024
 3415SOL    HW211968   5.947   2.195   5.967 -1.0430  1.7864 -0.5881
 3416SOL     OW11969   1.544   6.193   6.516 -0.0462  0.6699 -0.0652
 3416SOL    HW111970   1.593   6.225   6.592 -0.8416  0.9999  0.3252
 3416SOL    HW211971   1.610   6.184   6.447  1.0446 -1.3773  1.1354
 3417SOL     OW11972   0.348   0.066   8.115  0.5861 -0.8053  0.2582
 3417SOL    HW111973   0.380   0.048   8.203  0.1103  0.6600  0.7741
 3417SOL    HW211974   0.260   0.101   8.128  0.3706 -0.8971 -0.8271
 3418SOL     OW11975   1.651   4.582   3.274  0.3110 -0.3621 -0.2529
 3418SOL    HW111976   1.637   4.676   3.265  1.3604 -0.2603 -1.0175
 3418SOL    HW211977   1.729   4.564   3.221 -1.2193 -2.0467 -2.1023
 3419SOL     OW11978   8.138   0.574   1.465  0.0049  0.6937  0.2576
 3419SOL    HW111979   8.078   0.544   1.533 -1.6394 -0.6824 -1.6824
 3419SOL    HW211980   8.098   0.653   1.429  0.9354  1.4947  0.9292
 3420SOL     OW11981   9.011   4.054   5.013  0.4266 -0.2851  0.0525
 3420SOL    HW111982   8.934   4.029   4.960 -0.5984  3.5248 -0.5084
 3420SOL    HW211983   9.006   3.996   5.089 -1.4121 -1.9860 -1.2285
 3421SOL     OW11984   4.828   2.084   9.438 -0.8188 -0.0553 -0.2176
 3421SOL    HW111985   4.862   2.024   9.504  0.1316  0.7217  0.0312
 3421SOL    HW211986   4.901   2.095   9.377 -0.6769  1.4417  0.1740
 3422SOL     OW11987   5.445   3.287   8.175 -0.5759  0.2134 -0.5026
 3422SOL    HW111988   5.464   3.372   8.213  0.0489  0.2818 -0.9431
 3422SOL    HW211989   5.522   3.267   8.121 -0.2592 -1.0706  0.3632
 3423SOL     OW11990   4.884   3.129   6.875 -0.4296  0.3850 -0.0732
 3423SOL    HW111991   4.812   3.105   6.934 -1.0846 -0.0706 -1.0361
 3423SOL    HW211992   4.881   3.064   6.806  0.0594  1.1568 -0.8401
 3424SOL     OW11993   3.929   9.587   4.846 -0.6716  0.4826  0.4877
 3424SOL    HW111994   3.981   9.575   4.766 -0.4663  1.0409  0.5351
 3424SOL    HW211995   3.903   9.498   4.871 -1.1937  0.3451 -0.5034
 3425SOL     OW11996   2.095   9.535   5.320  0.3152 -0.6656 -0.3422
 3425SOL    HW111997   2.078   9.581   5.402  1.1425  1.1498 -1.1169
 3425SOL    HW211998   2.180   9.492   5.334 -1.3771 -3.9340  1.1186
 3426SOL     OW11999   1.305   4.069   2.087 -0.3401 -0.2573  0.6954
 3426SOL    HW112000   1.387   4.050   2.040  0.3999  0.3306  1.7106
 3426SOL    HW212001   1.265   3.983   2.099 -0.2896 -0.4756 -0.5319
 3427SOL     OW12002   9.253   9.052   9.297 -0.4472  0.0129 -0.0402
 3427SOL    HW112003   9.320   9.003   9.249  0.0217  0.0927  0.5196
 3427SOL    HW212004   9.280   9.045   9.389 -0.7343  0.7693  0.1097
 3428SOL     OW12005   6.281   9.681   7.876  0.1671  0.9404 -0.0991
 3428SOL    HW112006   6.337   9.694   7.800  0.9164  3.8058  0.8152
 3428SOL    HW212007   6.196   9.717   7.850 -0.0981  0.2720 -0.1664
 3429SOL     OW12008   7.670   7.647   5.566 -0.2865 -0.2176 -0.0036
 3429SOL    HW112009   7.641   7.676   5.480 -0.5691  0.9001  0.4486
 3429SOL    HW212010   7.684   7.553   5.556 -1.2780 -0.2796 -1.0029
 3430SOL     OW12011   5.726   9.491   8.933 -0.2097 -1.0883  0.2637
 3430SOL    HW112012   5.802   9.450   8.973  0.6168 -0.8559 -0.9900
 3430SOL    HW212013   5.670   9.516   9.006 -0.0024 -2.9863  1.1373
 3431SOL     OW12014   0.765   2.702   1.552 -0.0984 -0.3025  0.0436
 3431SOL    HW112015   0.715   2.774   1.588  1.3786  0.2425  1.1063
 3431SOL    HW212016   0.729   2.624   1.594 -0.1921  0.0572  0.6458
 3432SOL     OW12017   7.185   7.617   4.404  0.4242 -0.2167 -0.9522
 3432SOL    HW112018   7.153   7.527   4.406  0.8473 -0.4345 -2.5711
 3432SOL    HW212019   7.203   7.637   4.496 -2.6869 -0.6315 -0.1244
 3433SOL     OW12020   4.136   6.128   6.594 -0.2555  0.5540  0.8497
 3433SOL    HW112021   4.078   6.199   6.566 -0.0196 -0.1336 -1.6114
 3433SOL    HW212022   4.187   6.166   6.665 -2.3951  1.7764  1.8288
 3434SOL     OW12023   4.921   1.332   1.521  0.1655 -0.1130  0.4899
 3434SOL    HW112024   4.985   1.269   1.490  1.0781  0.9143  0.2301
 3434SOL    HW212025   4.973   1.408   1.548 -0.8843  0.4486  0.9943
 3435SOL     OW12026   3.627   1.152   1.828  0.9833  0.3369 -0.0837
 3435SOL    HW112027   3.690   1.086   1.856  0.5469  0.0662  0.3006
 3435SOL    HW212028   3.645   1.166   1.735  0.1097 -1.4514 -0.5715
 3436SOL     OW12029   9.099   1.535   3.448 -0.3413  0.2321 -0.4877
 3436SOL    HW112030   9.030   1.511   3.386  1.0385 -0.8143 -1.6877
 3436SOL    HW212031   9.131   1.451   3.482 -0.4680  0.7498  1.0117
 3437SOL     OW12032   3.559   2.726   7.689 -0.4537  0.9612  0.2222
 3437SOL    HW112033   3.612   2.776   7.627 -0.5099  2.2520  1.1687
 3437SOL    HW212034   3.571   2.771   7.773 -2.0313  0.5297  0.7229
 3438SOL     OW12035   4.713   8.660   6.343  0.6291  0.2190  0.1178
 3438SOL    HW112036   4.753   8.646   6.257  0.0758  0.1122 -0.1207
 3438SOL    HW212037   4.669   8.578   6.363 -2.7142  1.5046 -1.3361
 3439SOL     OW12038   7.083   5.084   4.566  0.3861 -0.9419  0.5821
 3439SOL    HW112039   7.036   5.103   4.647  0.2732  0.9051  0.1284
 3439SOL    HW212040   7.019   5.099   4.496  1.1493 -0.0558  0.0462
 3440SOL     OW12041   3.565   5.180   0.485 -0.1221  0.4175 -0.2493
 3440SOL    HW112042   3.646   5.128   0.476 -0.7299 -0.3290 -1.9445
 3440SOL    HW212043   3.563   5.234   0.406  0.0761  2.4902  1.1112
 3441SOL     OW12044   5.668   4.083   8.303 -0.1979 -0.3508  0.7782
 3441SOL    HW112045   5.630   4.140   8.370 -1.0283  0.3042 -0.2249
 3441SOL    HW212046   5.594   4.055   8.250  0.1098 -2.8457  1.5612
 3442SOL     OW12047   8.999   2.202   8.504 -0.6359  0.3857 -0.3875
 3442SOL    HW112048   9.061   2.270   8.528  1.0476 -0.8356 -1.0255
 3442SOL    HW212049   9.054   2.130   8.471 -2.4405 -0.3770 -1.9518
 3443SOL     OW12050   5.059   1.792   4.442  0.0601 -0.2495 -0.5010
 3443SOL    HW112051   5.153   1.806   4.450  0.1962 -0.8398 -1.0056
 3443SOL    HW212052   5.037   1.828   4.356 -0.1471 -0.2751 -0.4589
 3444SOL     OW12053   8.210   3.355   9.320  1.0723  0.1905  0.2116
 3444SOL    HW112054   8.186   3.269   9.354 -0.5163 -0.1492 -1.6080
 3444SOL    HW212055   8.171   3.416   9.383  0.9288 -0.4222  0.7268
 3445SOL     OW12056   7.788   4.027   7.177  0.4022  0.0588 -0.1210
 3445SOL    HW112057   7.694   4.032   7.159  0.4331  0.5272 -0.1570
 3445SOL    HW212058   7.829   4.060   7.097  0.6420 -1.3514 -0.6250
 3446SOL     OW12059   7.685   3.731   0.203  0.1107 -0.0881  0.1290
 3446SOL    HW112060   7.766   3.778   0.184  0.8174 -2.0810 -2.3227
 3446SOL    HW212061   7.630   3.746   0.127  0.4957 -3.2716 -0.9566
 3447SOL     OW12062   3.085   1.333   7.745  0.2428  0.2338 -0.5403
 3447SOL    HW112063   3.105   1.265   7.680  1.0063  0.2037 -0.2725
 3447SOL    HW212064   3.031   1.396   7.696 -1.3268 -1.0313 -0.5355
 3448SOL     OW12065   2.707   8.392   6.454 -0.6635 -0.6218 -0.3462
 3448SOL    HW112066   2.633   8.362   6.507 -0.4669  1.3006  1.1112
 3448SOL    HW212067   2.669   8.452   6.390 -0.3818  0.4193  0.4456
 3449SOL     OW12068   8.564   3.692   3.046 -0.5292  0.3807 -0.3207
 3449SOL    HW112069   8.654   3.689   3.078 -0.6263  1.4509  0.1122
 3449SOL    HW212070   8.563   3.767   2.986 -0.6845 -0.7711 -1.7877
 3450SOL     OW12071   8.008   4.518   0.474 -0.4205 -0.4586  0.2705
 3450SOL    HW112072   7.990   4.526   0.380 -0.0144 -0.2556  0.2103
 3450SOL    HW212073   7.941   4.573   0.515  0.8028  1.3133 -0.0143
 3451SOL     OW12074   6.243   3.742   8.120  0.6040 -1.0962 -0.9577
 3451SOL    HW112075   6.250   3.827   8.078 -2.1896 -0.5914 -0.5862
 3451SOL    HW212076   6.153   3.738   8.152  0.7223 -4.0683 -0.6873
 3452SOL     OW12077   6.966   7.638   5.283  0.3821 -0.3953 -0.0380
 3452SOL    HW112078   6.918   7.715   5.255 -0.8785 -0.5504  1.5355
 3452SOL    HW212079   7.031   7.671   5.345 -0.7514 -0.6450  1.3314
 3453SOL     OW12080   4.856   4.397   5.983  0.3017 -0.1709  0.4107
 3453SOL    HW112081   4.798   4.367   6.052 -0.4974 -0.5193 -0.3952
 3453SOL    HW212082   4.877   4.318   5.933 -2.5868  0.6013 -2.3119
 3454SOL     OW12083   6.526   9.432   3.824  0.7876 -0.3273 -0.3025
 3454SOL    HW112084   6.497   9.475   3.744  0.2751 -0.0667  0.0173
 3454SOL    HW212085   6.455   9.448   3.887  1.9745  1.0360  0.7577
 3455SOL     OW12086   3.070   2.819   5.207 -0.4514  0.0533 -0.0713
 3455SOL    HW112087   3.131   2.794   5.276 -0.4917  0.3563  0.0724
 3455SOL    HW212088   3.098   2.907   5.181 -0.6351  0.0672 -0.2196
 3456SOL     OW12089   1.453   2.411   4.705  0.1832 -0.0430 -0.2258
 3456SOL    HW112090   1.432   2.355   4.780 -1.2233 -0.1113 -0.6594
 3456SOL    HW212091   1.538   2.449   4.728 -0.0171 -0.3990  1.2097
 3457SOL     OW12092   4.725   8.184   5.954 -0.1020  0.2028  0.2318
 3457SOL    HW112093   4.723   8.090   5.973 -2.1208 -0.1219 -1.2289
 3457SOL    HW212094   4.729   8.225   6.041  1.3605 -1.1878  0.8791
 3458SOL     OW12095   7.708   9.068   7.405  0.2658 -0.4207  0.3322
 3458SOL    HW112096   7.620   9.073   7.442 -0.5369 -2.2973 -1.1854
 3458SOL    HW212097   7.739   9.158   7.405 -2.7101  0.7383 -1.5125
 3459SOL     OW12098   8.727   7.501   5.405  0.0962 -0.1920 -0.3127
 3459SOL    HW112099   8.802   7.557   5.386  0.0116  0.2436  0.5835
 3459SOL    HW212100   8.761   7.435   5.466 -0.8273  1.6423  2.3458
 3460SOL     OW12101   3.439   2.237   8.878  0.0535  0.4711 -0.1834
 3460SOL    HW112102   3.461   2.304   8.942  1.6736  1.9014 -2.1392
 3460SOL    HW212103   3.513   2.176   8.880 -0.5872 -0.3235  0.3123
 3461SOL     OW12104   4.394   5.114   0.365  0.2821 -0.2061  0.0828
 3461SOL    HW112105   4.472   5.059   0.371  0.0239 -0.6229 -0.2769
 3461SOL    HW212106   4.425   5.196   0.327  0.8914  0.3718  1.7485
 3462SOL     OW12107   6.716   3.203   8.841  0.2569  0.4899  0.4924
 3462SOL    HW112108   6.767   3.158   8.775  0.2579  0.8247  0.2624
 3462SOL    HW212109   6.777   3.216   8.914 -0.0246 -0.7976  0.9861
 3463SOL     OW12110   6.971   5.158   8.061 -0.2935 -0.7944  0.2012
 3463SOL    HW112111   7.048   5.105   8.041  0.0281 -0.4713  0.5765
 3463SOL    HW212112   6.976   5.175   8.155  0.6531  1.4781 -0.1953
 3464SOL     OW12113   7.345   0.319   8.484  0.6151  0.4463  0.4330
 3464SOL    HW112114   7.307   0.280   8.406  0.3201 -1.7189  1.5715
 3464SOL    HW212115   7.439   0.321   8.467  0.5132  0.4558 -0.1539
 3465SOL     OW12116   3.462   6.265   1.163 -0.2553 -0.1564 -0.1351
 3465SOL    HW112117   3.403   6.265   1.239 -1.2112  0.5416 -0.8608
 3465SOL    HW212118   3.535   6.321   1.190 -0.4638 -0.1091  0.3458
 3466SOL     OW12119   3.746   4.326   3.667 -0.1195  0.3797  0.0393
 3466SOL    HW112120   3.706   4.240   3.670  0.0262  0.3048 -0.1545
 3466SOL    HW212121   3.712   4.366   3.587  1.6049 -0.3884 -1.1285
 3467SOL     OW12122   3.816   4.351   1.480  0.1209  0.4547  0.7265
 3467SOL    HW112123   3.822   4.353   1.576  2.3458 -0.0299  0.6511
 3467SOL    HW212124   3.777   4.267   1.460 -2.0856  1.3075  1.2205
 3468SOL     OW12125   6.944   6.164   5.986  0.3482  0.2015  0.3559
 3468SOL    HW112126   6.860   6.160   6.032 -0.4812  1.8229 -0.9091
 3468SOL    HW212127   7.009   6.170   6.056 -0.5948 -0.6763  1.3527
 3469SOL     OW12128   5.461   2.058   6.156  0.3548  0.1674  0.1157
 3469SOL    HW112129   5.508   2.099   6.228  1.3319 -0.9889  0.1813
 3469SOL    HW212130   5.417   2.130   6.111  2.0193  1.2833  0.1969
 3470SOL     OW12131   3.845   1.675   2.970  0.0288 -0.0441  0.1987
 3470SOL    HW112132   3.861   1.617   3.044 -1.6320 -1.2587 -0.3264
 3470SOL    HW212133   3.890   1.633   2.897 -0.7891 -0.4639 -0.0820
 3471SOL     OW12134   5.417   4.088   9.301  0.2125  0.0389 -0.4062
 3471SOL    HW112135   5.387   4.139   9.226  1.1482 -1.0843 -1.5933
 3471SOL    HW212136   5.359   4.113   9.372 -0.4804  1.3979 -1.4112
 3472SOL     OW12137   8.519   1.384   5.880 -0.0024 -0.6187  0.3474
 3472SOL    HW112138   8.460   1.348   5.947 -0.4251 -0.0332  0.3009
 3472SOL    HW212139   8.478   1.361   5.797  0.4521 -1.2278  0.2868
 3473SOL     OW12140   7.545   6.795   3.238  0.7597 -0.1324  0.1680
 3473SOL    HW112141   7.462   6.759   3.206  0.7828  1.2640 -1.6400
 3473SOL    HW212142   7.554   6.879   3.191  1.5490  1.3814  2.8138
 3474SOL     OW12143   0.617   7.225   2.288 -0.0647 -0.0003 -0.0335
 3474SOL    HW112144   0.546   7.250   2.347  1.4413  0.8177  1.5363
 3474SOL    HW212145   0.613   7.289   2.217 -1.4870 -0.5870 -0.5167
 3475SOL     OW12146   1.807   4.988   4.517 -0.0901  0.2614 -0.1175
 3475SOL    HW112147   1.782   5.074   4.549  0.9895 -0.1080  1.8338
 3475SOL    HW212148   1.824   4.936   4.595  2.6448 -0.7128 -1.2004
 3476SOL     OW12149   7.138   6.133   9.146 -0.0906  0.1124  0.0191
 3476SOL    HW112150   7.183   6.203   9.192 -1.0638  0.7269  0.0389
 3476SOL    HW212151   7.046   6.156   9.148 -0.3355 -0.6981 -0.7747
 3477SOL     OW12152   3.751   8.275   7.294 -0.6994  0.4772  0.0583
 3477SOL    HW112153   3.828   8.232   7.332 -2.2373 -0.7375  2.0572
 3477SOL    HW212154   3.697   8.202   7.262  0.0301  1.4015 -3.7625
 3478SOL     OW12155   5.179   8.189   2.753  0.0728 -0.9897  0.3198
 3478SOL    HW112156   5.218   8.171   2.838 -0.8193 -0.5498  0.8347
 3478SOL    HW212157   5.087   8.206   2.771  0.3968  2.1051 -0.3222
 3479SOL     OW12158   8.368   0.192   1.015 -0.2495  0.0713  0.0509
 3479SOL    HW112159   8.376   0.124   0.949 -0.5782 -0.2039  0.2872
 3479SOL    HW212160   8.322   0.150   1.087  0.1992  0.3380  0.5002
 3480SOL     OW12161   8.276   0.784   0.639  0.1383  0.1904  0.1065
 3480SOL    HW112162   8.277   0.847   0.568 -1.5721 -0.6565 -0.7359
 3480SOL    HW212163   8.197   0.805   0.689  0.5102 -0.1636  0.8742
 3481SOL     OW12164   0.467   2.854   4.140  0.4894  0.1554  0.5643
 3481SOL    HW112165   0.396   2.793   4.157  1.1050 -1.4666 -1.9717
 3481SOL    HW212166   0.496   2.832   4.051  3.0944  1.8109  0.8915
 3482SOL     OW12167   8.852   3.258   8.680  0.0567  0.4982  0.1254
 3482SOL    HW112168   8.814   3.176   8.712 -1.1742  0.6597 -0.8497
 3482SOL    HW212169   8.946   3.248   8.696  0.0555 -1.4921 -0.7798
 3483SOL     OW12170   5.413   4.350   5.446 -0.2160  0.0631  0.0769
 3483SOL    HW112171   5.324   4.377   5.421 -0.4370  0.2886  1.0427
 3483SOL    HW212172   5.401   4.264   5.487 -0.3316  1.0228  2.1978
 3484SOL     OW12173   0.054   6.351   4.484 -0.2624 -0.1000  0.1429
 3484SOL    HW112174   0.139   6.314   4.506  0.7195  2.6465  1.3582
 3484SOL    HW212175   0.055   6.362   4.389  0.2110 -1.1717  0.0080
 3485SOL     OW12176   1.864   5.532   3.550 -0.4146 -0.6059  0.0286
 3485SOL    HW112177   1.822   5.574   3.475 -0.2546  0.9739  0.7741
 3485SOL    HW212178   1.913   5.459   3.513 -1.7192 -0.9197 -1.1757
 3486SOL     OW12179   0.090   9.038   9.461 -0.1921  0.0956 -0.2765
 3486SOL    HW112180   0.077   8.978   9.534 -1.9685  1.5727  0.6995
 3486SOL    HW212181   0.117   9.121   9.501  1.6815  0.1812 -1.5489
 3487SOL     OW12182   8.189   6.554   4.207  0.2307 -0.6946 -0.1197
 3487SOL    HW112183   8.125   6.580   4.141 -0.5562  0.0663  0.9133
 3487SOL    HW212184   8.271   6.596   4.180 -0.6415  1.6342  0.6620
 3488SOL     OW12185   5.803   6.589   7.817  0.0280  0.2745 -0.7175
 3488SOL    HW112186   5.805   6.531   7.740 -1.8875  0.4870 -0.9928
 3488SOL    HW212187   5.881   6.566   7.867  0.9946 -0.3026 -2.4165
 3489SOL     OW12188   0.748   1.489   6.170  0.2458  0.2750  0.5220
 3489SOL    HW112189   0.709   1.506   6.084 -0.0024 -1.2351  0.2914
 3489SOL    HW212190   0.679   1.512   6.233  0.0494  0.4015  0.2634
 3490SOL     OW12191   8.343   0.151   3.531 -0.1962  0.2129  0.5351
 3490SOL    HW112192   8.384   0.079   3.483 -1.1110  0.4651 -0.6815
 3490SOL    HW212193   8.386   0.151   3.616  0.6211 -1.0384  0.1472
 3491SOL     OW12194   9.054   7.359   9.448 -0.2046 -0.2692  0.2806
 3491SOL    HW112195   9.001   7.353   9.369 -1.5623  1.1092  1.0345
 3491SOL    HW212196   9.072   7.452   9.459  0.4432 -0.4910  1.2802
 3492SOL     OW12197   2.494   3.741   3.644 -0.2062 -0.1304 -0.1203
 3492SOL    HW112198   2.428   3.755   3.712  0.9021 -0.6522  1.1203
 3492SOL    HW212199   2.496   3.823   3.595  0.1455  0.9245  1.5649
 3493SOL     OW12200   6.948   2.308   2.467 -0.5478 -0.1226 -0.3480
 3493SOL    HW112201   6.985   2.284   2.552  0.0442  0.0312 -0.5590
 3493SOL    HW212202   6.884   2.376   2.487  1.2046  1.5732 -0.2372
 3494SOL     OW12203   0.929   6.636   5.034 -0.6699  0.2675  0.9273
 3494SOL    HW112204   0.967   6.722   5.016  1.8046 -0.9099  0.1557
 3494SOL    HW212205   0.898   6.642   5.124 -0.9811  2.0797  0.7416
 3495SOL     OW12206   6.483   0.921   1.811 -0.0389 -0.3854  0.0340
 3495SOL    HW112207   6.522   0.852   1.865  2.1978  1.2396  0.6462
 3495SOL    HW212208   6.547   0.936   1.741 -0.9697  0.3604 -0.6800
 3496SOL     OW12209   1.356   1.876   7.638 -0.5557  0.0874  0.0176
 3496SOL    HW112210   1.281   1.860   7.580 -1.7347  0.0453  1.4832
 3496SOL    HW212211   1.405   1.947   7.596 -3.5122  2.8474  0.8118
 3497SOL     OW12212   1.015   1.977   1.374  0.1024 -0.3719  0.2119
 3497SOL    HW112213   0.998   2.058   1.325  0.3142 -0.4865 -0.0580
 3497SOL    HW212214   1.107   1.958   1.356 -0.0741 -0.9391 -0.1279
 3498SOL     OW12215   9.189   9.060   0.453  0.2019 -0.4224  0.0300
 3498SOL    HW112216   9.133   9.135   0.433  1.1931  0.2769 -0.2114
 3498SOL    HW212217   9.133   8.983   0.440 -1.2234  0.2969  1.5088
 3499SOL     OW12218   6.019   9.698   2.604 -0.2970 -0.0720 -0.4293
 3499SOL    HW112219   6.031   9.607   2.630 -0.0220  0.1398  0.1983
 3499SOL    HW212220   6.049   9.701   2.513  0.1773 -0.5040 -0.2895
 3500SOL     OW12221   0.459   0.001   8.949  0.0847 -0.5243 -0.1978
 3500SOL    HW112222   0.544  -0.040   8.965  0.3553 -0.4399 -1.3330
 3500SOL    HW212223   0.402  -0.070   8.922  0.2430 -0.3436 -1.0337
 3501SOL     OW12224   8.862   6.558   0.942 -0.1440  0.0277  0.5632
 3501SOL    HW112225   8.858   6.522   0.853  1.1605  0.4106  0.3273
 3501SOL    HW212226   8.954   6.580   0.955 -0.5919  1.5478  1.3894
 3502SOL     OW12227   9.234   0.151   4.665  0.3923 -0.3965 -0.3478
 3502SOL    HW112228   9.288   0.111   4.597  1.9178 -0.0661  0.6060
 3502SOL    HW212229   9.197   0.076   4.713  0.6019 -0.6454 -0.5680
 3503SOL     OW12230   1.251   6.553   0.384  0.1080 -0.2709  0.0427
 3503SOL    HW112231   1.249   6.460   0.361  2.7976 -0.4564  0.2121
 3503SOL    HW212232   1.255   6.553   0.480 -0.6656  0.0786  0.0838
 3504SOL     OW12233   1.712   0.360   2.068 -0.1936 -0.0411 -0.0444
 3504SOL    HW112234   1.773   0.413   2.119 -0.3244  0.0217  0.0472
 3504SOL    HW212235   1.742   0.369   1.978  0.8477 -1.2089  0.1473
 3505SOL     OW12236   3.619   4.512   0.195 -0.4465  0.1184 -0.5695
 3505SOL    HW112237   3.629   4.441   0.258  0.5091 -0.6344 -1.5399
 3505SOL    HW212238   3.536   4.553   0.218 -1.5589 -1.9896 -0.6550
 3506SOL     OW12239   5.580   9.228   9.083 -0.1731 -0.3990  0.4738
 3506SOL    HW112240   5.566   9.142   9.122 -2.1316 -0.5680 -0.5254
 3506SOL    HW212241   5.572   9.215   8.989  0.3572  0.7376  0.2443
 3507SOL     OW12242   5.302   0.976   3.136  0.2792  0.0249 -0.0893
 3507SOL    HW112243   5.217   0.970   3.181  1.7655  1.7928  3.3340
 3507SOL    HW212244   5.350   0.899   3.167  0.1763 -0.6979 -1.6281
 3508SOL     OW12245   4.895   7.845   1.993 -0.2942 -0.0871  0.6116
 3508SOL    HW112246   4.912   7.753   2.011  1.0282  0.3179  1.6319
 3508SOL    HW212247   4.856   7.879   2.073 -0.9350  0.2018  0.1800
 3509SOL     OW12248   3.698   1.491   0.009  0.4077  0.3306 -0.1822
 3509SOL    HW112249   3.690   1.529   0.096  1.6604  0.2793 -0.0185
 3509SOL    HW212250   3.609   1.467  -0.016 -0.3417  2.6798  0.0170
 3510SOL     OW12251   5.792   4.087   1.196  0.2323 -0.2435  0.0949
 3510SOL    HW112252   5.765   4.134   1.275  0.2071 -1.2454  0.7118
 3510SOL    HW212253   5.710   4.057   1.157  0.0942  1.9035 -1.4353
 3511SOL     OW12254   1.607   7.102   6.677 -0.2913  0.3277  0.0266
 3511SOL    HW112255   1.513   7.086   6.666 -0.0903 -0.8389 -0.1032
 3511SOL    HW212256   1.629   7.055   6.758  0.2876  0.1204 -0.2504
 3512SOL     OW12257   4.563   4.556   3.864 -0.3680 -0.1471  0.1281
 3512SOL    HW112258   4.553   4.651   3.861 -0.6823 -0.1342  1.1772
 3512SOL    HW212259   4.475   4.523   3.880  0.1968 -0.3534  3.7159
 3513SOL     OW12260   4.971   6.003   2.166 -0.3175 -0.1260  0.1836
 3513SOL    HW112261   4.924   6.004   2.083  0.1940 -0.1575 -0.1095
 3513SOL    HW212262   4.961   5.913   2.198 -1.9339  0.3090  0.9842
 3514SOL     OW12263   8.513   1.231   8.402 -0.3405 -0.2614 -0.1001
 3514SOL    HW112264   8.567   1.175   8.458 -0.5924 -0.3030  0.1010
 3514SOL    HW212265   8.424   1.199   8.415 -0.2178 -1.4949 -1.9311
 3515SOL     OW12266   4.046   8.152   8.364  0.0328  0.4049  0.7069
 3515SOL    HW112267   4.033   8.215   8.293 -0.7523  0.6547  1.0592
 3515SOL    HW212268   4.067   8.207   8.440  1.5879  0.1032  0.5276
 3516SOL     OW12269   6.067   5.845   3.940 -0.4552 -0.8551 -0.5670
 3516SOL    HW112270   6.037   5.787   3.869 -1.0293 -1.5789  0.2372
 3516SOL    HW212271   6.045   5.797   4.020 -0.9183  0.4773  0.1290
 3517SOL     OW12272   4.615   2.118   4.308  0.0158  0.1450  0.0660
 3517SOL    HW112273   4.618   2.209   4.338 -1.7314 -0.2054  1.4328
 3517SOL    HW212274   4.654   2.121   4.220 -0.7182  2.3539 -0.2473
 3518SOL     OW12275   7.082   0.571   6.317 -0.5100  0.1424  0.5805
 3518SOL    HW112276   7.164   0.562   6.365 -0.1440 -0.0164 -0.0719
 3518SOL    HW212277   7.052   0.660   6.337 -0.9452 -0.3005  2.0061
 3519SOL     OW12278   1.475   6.597   3.724 -0.2226  0.3482  0.2960
 3519SOL    HW112279   1.565   6.583   3.754 -0.0538 -1.4747 -0.9093
 3519SOL    HW212280   1.435   6.511   3.728 -1.4515  0.8417 -0.6722
 3520SOL     OW12281   1.057   4.585   7.737  0.0887  0.0598 -0.2386
 3520SOL    HW112282   1.149   4.559   7.740  0.0968  0.1826  1.5149
 3520SOL    HW212283   1.011   4.516   7.785 -0.5331  0.7909  0.2318
 3521SOL     OW12284   0.142   6.627   7.344 -0.5440  0.4504  0.0104
 3521SOL    HW112285   0.230   6.632   7.304 -0.9893  0.9566 -0.9449
 3521SOL    HW212286   0.082   6.637   7.270 -1.4271 -0.7949  0.5249
 3522SOL     OW12287   1.966   1.470   4.041  0.2541 -0.4962  0.0371
 3522SOL    HW112288   2.017   1.485   4.121 -1.4865 -0.5879  1.2306
 3522SOL    HW212289   1.888   1.424   4.071  0.1305 -1.6815 -1.9315
 3523SOL     OW12290   3.086   8.320   4.849  0.3951 -0.3848 -0.2545
 3523SOL    HW112291   3.007   8.348   4.896 -1.4423 -0.2172 -3.1863
 3523SOL    HW212292   3.111   8.397   4.796  1.9627 -0.7682 -0.1270
 3524SOL     OW12293   1.683   5.209   9.183 -0.3387  0.1557 -0.6103
 3524SOL    HW112294   1.754   5.248   9.233  0.6522  0.6130 -2.2967
 3524SOL    HW212295   1.606   5.262   9.206  0.1469  0.5519  0.1447
 3525SOL     OW12296   3.943   7.063   1.689  0.0039  0.0177  0.2115
 3525SOL    HW112297   4.013   6.999   1.674 -0.0188 -0.0775  0.5151
 3525SOL    HW212298   3.979   7.146   1.655  0.1843 -0.0726  0.1801
 3526SOL     OW12299   7.302   4.788   9.370  0.0885  0.3323  0.0661
 3526SOL    HW112300   7.293   4.775   9.276  1.0146 -0.7552  0.1012
 3526SOL    HW212301   7.268   4.876   9.386 -1.8647 -0.1795 -0.9941
 3527SOL     OW12302   7.392   6.454   9.585  0.1685 -0.1360  0.0575
 3527SOL    HW112303   7.401   6.376   9.639  1.5739 -0.0353 -0.0114
 3527SOL    HW212304   7.299   6.477   9.593  0.4356  0.3785  3.1571
 3528SOL     OW12305   4.321   5.926   9.082 -0.1850  0.1927 -0.0438
 3528SOL    HW112306   4.294   5.975   9.004  0.3645  0.7220  0.0878
 3528SOL    HW212307   4.354   5.843   9.049  1.9294  1.1939 -0.5689
 3529SOL     OW12308   8.436   0.342   7.399 -0.1197 -0.7398  0.1229
 3529SOL    HW112309   8.480   0.391   7.331  2.6563 -1.2620  1.3995
 3529SOL    HW212310   8.440   0.399   7.476  0.0468 -1.5737  0.7428
 3530SOL     OW12311   1.104   4.863   8.975 -0.0501  0.4336  0.3844
 3530SOL    HW112312   1.049   4.884   8.899 -1.2199 -1.1687  0.7297
 3530SOL    HW212313   1.183   4.915   8.963 -1.6850  2.9610 -0.0566
 3531SOL     OW12314   8.482   8.183   5.582 -0.7390 -0.0462  0.4796
 3531SOL    HW112315   8.462   8.123   5.654  0.4788  0.2572  1.0827
 3531SOL    HW212316   8.565   8.222   5.605  0.2548 -0.7531 -1.6186
 3532SOL     OW12317   2.941   7.792   6.368 -0.1873  0.5153 -0.1217
 3532SOL    HW112318   3.010   7.783   6.303  1.1876 -0.8179  1.4612
 3532SOL    HW212319   2.976   7.752   6.448 -2.7472 -0.1480  0.7757
 3533SOL     OW12320   1.504   4.906   3.754 -0.4029  0.3183 -0.5894
 3533SOL    HW112321   1.534   4.991   3.787 -2.6834  1.0160 -0.1433
 3533SOL    HW212322   1.533   4.903   3.663 -0.3369  1.6088 -0.6251
 3534SOL     OW12323   7.037   2.463   5.560 -0.1143 -0.1089  0.0980
 3534SOL    HW112324   7.097   2.538   5.560 -0.7492  0.4146  0.4920
 3534SOL    HW212325   7.084   2.394   5.605  0.0635  0.4059  0.7159
 3535SOL     OW12326   3.836   3.199   2.823  0.3590  0.1862 -0.5410
 3535SOL    HW112327   3.778   3.253   2.877  0.3730  0.7464 -1.0645
 3535SOL    HW212328   3.909   3.178   2.881 -1.4880 -2.6833  0.9708
 3536SOL     OW12329   1.901   6.068   1.591 -0.3554 -0.2217 -0.1386
 3536SOL    HW112330   1.937   6.102   1.508 -0.7850 -0.4420 -0.4199
 3536SOL    HW212331   1.830   6.010   1.564 -0.6913 -0.0634  0.4026
 3537SOL     OW12332   7.267   5.810   4.063 -0.2136  0.0776 -0.1263
 3537SOL    HW112333   7.223   5.881   4.110 -1.7205 -0.5311 -0.5505
 3537SOL    HW212334   7.346   5.851   4.027 -0.5680  1.2968  0.4028
 3538SOL     OW12335   6.768   2.191   6.674  0.1928  0.3794 -0.0573
 3538SOL    HW112336   6.711   2.243   6.731  1.5879  1.7187  0.1863
 3538SOL    HW212337   6.776   2.242   6.594  2.1040  0.9101  0.4254
 3539SOL     OW12338   7.815   4.852   5.596 -0.0213 -0.1671 -0.5408
 3539SOL    HW112339   7.826   4.846   5.691 -0.6837  0.8581 -0.3739
 3539SOL    HW212340   7.858   4.774   5.561  0.1563 -0.5991  0.6061
 3540SOL     OW12341   4.671   2.042   7.246  0.1897  0.5525 -0.2825
 3540SOL    HW112342   4.610   2.083   7.307 -1.5211  2.0900 -2.8185
 3540SOL    HW212343   4.739   2.109   7.233 -0.5142  1.0621 -1.4848
 3541SOL     OW12344   7.938   9.410   0.796 -0.0877  0.3038  0.2074
 3541SOL    HW112345   7.857   9.359   0.802 -0.3655 -0.3254 -4.8119
 3541SOL    HW212346   8.004   9.356   0.840 -1.6858 -0.8907  1.2697
 3542SOL     OW12347   3.687   0.598   2.649 -0.2543 -0.0084 -0.1136
 3542SOL    HW112348   3.607   0.614   2.700  0.3558 -0.8547  1.1822
 3542SOL    HW212349   3.662   0.615   2.559 -1.8023  0.1102  0.3067
 3543SOL     OW12350   4.829   2.137   1.112 -0.2718  0.1790 -0.1031
 3543SOL    HW112351   4.871   2.090   1.040  0.2766 -1.1703  1.0416
 3543SOL    HW212352   4.778   2.206   1.069  0.6666 -0.0773 -1.7136
 3544SOL     OW12353   3.060   2.071   8.127  0.2780  0.2358 -0.0130
 3544SOL    HW112354   2.981   2.088   8.076  0.3994 -2.7979 -1.4752
 3544SOL    HW212355   3.031   2.014   8.199  0.5759  2.2359  1.7755
 3545SOL     OW12356   5.564   8.955   9.676 -0.4404  0.2646  0.0435
 3545SOL    HW112357   5.576   8.897   9.751 -1.0978  0.2422  0.1372
 3545SOL    HW212358   5.488   9.009   9.700 -0.5281  0.3954 -0.5178
 3546SOL     OW12359   4.645   7.681   5.987 -0.9900  0.7001  0.3549
 3546SOL    HW112360   4.694   7.669   5.906  0.0030  2.5116  0.6471
 3546SOL    HW212361   4.649   7.595   6.030  0.5057  0.3529 -0.4163
 3547SOL     OW12362   9.426   1.831   8.423 -0.1046  0.1574  0.4795
 3547SOL    HW112363   9.476   1.788   8.492  0.6674  0.7313  0.2921
 3547SOL    HW212364   9.383   1.760   8.376 -0.8023 -0.2258  1.6634
 3548SOL     OW12365   0.217   3.412   4.109 -0.5427  0.2732 -0.6169
 3548SOL    HW112366   0.146   3.432   4.048 -0.9870 -1.1282 -0.6034
 3548SOL    HW212367   0.257   3.333   4.072 -0.4068 -0.2130  0.5461
 3549SOL     OW12368   6.404   1.448   0.324  0.1958 -0.0959 -0.2398
 3549SOL    HW112369   6.323   1.490   0.352 -0.2047 -1.2890  0.4471
 3549SOL    HW212370   6.380   1.402   0.243  0.7506  1.3406 -1.2587
 3550SOL     OW12371   5.784   2.072   6.536 -0.2825 -0.0605  0.4072
 3550SOL    HW112372   5.878   2.081   6.523 -0.2360 -2.2545 -1.3171
 3550SOL    HW212373   5.749   2.159   6.515  1.2875  0.6906  0.7267
 3551SOL     OW12374   2.463   2.141   3.040  0.4190  0.0236  0.3636
 3551SOL    HW112375   2.440   2.077   3.108 -0.1196  0.3802  0.5266
 3551SOL    HW212376   2.387   2.141   2.981  0.4821  0.3998  0.2817
 3552SOL     OW12377   4.631   5.207   2.595  0.1137 -0.1209 -0.1344
 3552SOL    HW112378   4.685   5.158   2.533 -1.1815 -1.1037 -0.5113
 3552SOL    HW212379   4.545   5.212   2.554 -0.4764  0.1792  1.0966
 3553SOL     OW12380   0.376   1.316   5.760  0.1530 -0.4031  0.3944
 3553SOL    HW112381   0.355   1.333   5.852  1.3112 -1.5954  0.9108
 3553SOL    HW212382   0.302   1.353   5.711  0.0834  1.3002  1.7212
 3554SOL     OW12383   2.349   3.482   5.403  0.2411 -0.5818 -0.7774
 3554SOL    HW112384   2.389   3.569   5.410 -1.1190  0.0323 -0.2081
 3554SOL    HW212385   2.372   3.439   5.486 -0.9059  0.0752 -0.0869
 3555SOL     OW12386   3.565   7.871   2.066  0.0735  0.1345 -0.3515
 3555SOL    HW112387   3.573   7.850   2.159  1.7706 -1.3429 -0.7889
 3555SOL    HW212388   3.526   7.793   2.026  2.3777 -0.6019 -1.3283
 3556SOL     OW12389   4.602   4.357   4.480  0.5945  0.0030 -0.6909
 3556SOL    HW112390   4.684   4.381   4.524 -0.4627 -1.1644  2.1845
 3556SOL    HW212391   4.623   4.276   4.433  1.3416  0.2767 -0.8368
 3557SOL     OW12392   6.034   3.395   4.797 -0.2286  0.6816  0.5375
 3557SOL    HW112393   5.964   3.382   4.733 -0.5997 -0.2458  1.1161
 3557SOL    HW212394   5.991   3.442   4.869  0.1263  1.4902  0.2351
 3558SOL     OW12395   1.955   5.434   3.847 -0.4984  0.1814  1.2367
 3558SOL    HW112396   1.960   5.525   3.875  0.8991  0.5826 -0.1753
 3558SOL    HW212397   1.917   5.437   3.760 -3.0397 -0.8780  2.2262
 3559SOL     OW12398   7.690   2.675   9.195 -1.1122 -0.0485 -0.5639
 3559SOL    HW112399   7.689   2.594   9.246  2.8438 -0.2269 -0.4276
 3559SOL    HW212400   7.606   2.676   9.149 -1.9470 -3.4179  0.5915
 3560SOL     OW12401   4.161   3.913   2.828  0.7248 -0.3104 -0.2710
 3560SOL    HW112402   4.090   3.908   2.892 -0.1044 -1.2279 -1.2275
 3560SOL    HW212403   4.212   3.833   2.843 -0.0024 -0.9896 -1.3428
 3561SOL     OW12404   3.282   3.383   4.023  0.0470 -0.0190 -0.3061
 3561SOL    HW112405   3.268   3.295   4.058  1.2103  0.1724  0.6891
 3561SOL    HW212406   3.272   3.441   4.098 -1.0466  0.7561 -1.0165
 3562SOL     OW12407   9.561   8.955   3.219  0.4267  0.3738 -0.3921
 3562SOL    HW112408   9.487   8.895   3.222  1.1463 -0.5662 -1.0094
 3562SOL    HW212409   9.523   9.041   3.240 -0.5997 -0.2864  0.5401
 3563SOL     OW12410   6.078   4.658   5.841 -0.1358 -0.0719  0.4217
 3563SOL    HW112411   6.047   4.590   5.781  0.8930  0.5334 -0.8311
 3563SOL    HW212412   6.169   4.635   5.859 -0.4071 -0.1946  1.7065
 3564SOL     OW12413   7.703   5.473   4.246 -0.0272 -0.3123  0.1431
 3564SOL    HW112414   7.750   5.461   4.329 -2.1425  0.6498  1.5699
 3564SOL    HW212415   7.753   5.541   4.200 -0.2585  1.0855  1.8489
 3565SOL     OW12416   2.956   9.491   1.249  0.0586  0.4388 -0.5332
 3565SOL    HW112417   2.904   9.568   1.272  1.3449  1.2788 -0.3018
 3565SOL    HW212418   2.956   9.490   1.153  0.6573  1.1800 -0.5483
 3566SOL     OW12419   6.744   9.467   9.446  0.6724  0.2039  0.2036
 3566SOL    HW112420   6.696   9.402   9.498 -0.3531  1.8953  1.4835
 3566SOL    HW212421   6.794   9.517   9.511  1.0497  1.0109 -0.6900
 3567SOL     OW12422   0.416   1.810   2.088 -0.6400  0.1015 -0.0713
 3567SOL    HW112423   0.385   1.806   2.179 -0.6219 -0.1979 -0.0774
 3567SOL    HW212424   0.508   1.835   2.096 -0.7132  0.3635 -0.0227
 3568SOL     OW12425   4.270   6.749   4.016  0.1303  0.1806  0.1227
 3568SOL    HW112426   4.176   6.752   3.996  0.1189 -1.5922 -0.1896
 3568SOL    HW212427   4.311   6.792   3.941 -0.3646 -0.0615 -0.2954
 3569SOL     OW12428   7.402   1.541   6.541  0.5388  0.3010  0.7559
 3569SOL    HW112429   7.428   1.557   6.450 -0.1709  1.0109  0.6626
 3569SOL    HW212430   7.464   1.592   6.592 -0.3030  1.6008  0.5540
 3570SOL     OW12431   9.261   0.281   6.448 -0.3478 -0.4875 -0.4122
 3570SOL    HW112432   9.197   0.352   6.456  0.2138  0.2506 -2.0395
 3570SOL    HW212433   9.330   0.316   6.392  1.7403 -1.1222  1.5771
 3571SOL     OW12434   8.665   6.109   7.897 -0.4979 -0.0497  0.5481
 3571SOL    HW112435   8.671   6.120   7.802 -1.6989  0.5556  0.5256
 3571SOL    HW212436   8.639   6.018   7.909  4.2086 -1.6981  0.5317
 3572SOL     OW12437   1.137   5.205   6.264 -0.1423 -0.2330 -0.2394
 3572SOL    HW112438   1.153   5.134   6.202  0.3627 -0.0615 -0.3065
 3572SOL    HW212439   1.101   5.161   6.342 -0.1969 -0.5144 -0.4206
 3573SOL     OW12440   4.374   6.406   2.778  0.2136  0.1865  1.1111
 3573SOL    HW112441   4.340   6.488   2.743 -2.4587 -0.3422  2.1816
 3573SOL    HW212442   4.400   6.356   2.701 -2.2049  0.4038  0.0548
 3574SOL     OW12443   4.795   8.162   6.794  0.5194  0.4351  0.2218
 3574SOL    HW112444   4.779   8.251   6.824  0.1875  0.2167  0.7033
 3574SOL    HW212445   4.708   8.128   6.772  0.2605 -0.6832  2.6315
 3575SOL     OW12446   0.695   1.440   7.982  0.5836 -0.4554  0.5624
 3575SOL    HW112447   0.676   1.382   7.908 -1.0569 -0.8293  1.2357
 3575SOL    HW212448   0.773   1.489   7.955 -0.0667 -0.4679 -1.4683
 3576SOL     OW12449   6.018   7.584   1.318  0.1928 -0.1455 -0.3425
 3576SOL    HW112450   5.964   7.512   1.350  1.2551  0.0059  1.9930
 3576SOL    HW212451   6.057   7.551   1.237 -0.6410 -1.5538 -0.1940
 3577SOL     OW12452   6.752   9.029   3.988 -0.1094  0.0620 -0.2132
 3577SOL    HW112453   6.761   8.938   3.958 -2.9316 -0.2304 -0.4089
 3577SOL    HW212454   6.742   9.080   3.908 -3.0856 -0.1294 -0.0697
 3578SOL     OW12455   6.348   1.315   1.450  0.2480  0.6504 -0.0095
 3578SOL    HW112456   6.383   1.329   1.362  0.7596 -0.5170 -0.0216
 3578SOL    HW212457   6.265   1.363   1.452 -0.4309 -0.3794 -1.5900
 3579SOL     OW12458   8.287   2.648   2.631 -0.1376 -0.1091 -0.3726
 3579SOL    HW112459   8.263   2.674   2.720 -0.2611 -1.3835 -0.0067
 3579SOL    HW212460   8.375   2.685   2.619 -0.5494  0.9797 -0.1327
 3580SOL     OW12461   7.355   7.386   6.788  0.2049  0.0552 -0.4110
 3580SOL    HW112462   7.326   7.295   6.798 -0.9985  0.3787 -0.8093
 3580SOL    HW212463   7.288   7.437   6.832  1.8398  0.6783  1.5010
 3581SOL     OW12464   6.107   0.268   8.913  0.4079  0.9352 -0.0224
 3581SOL    HW112465   6.075   0.179   8.923 -2.2967  2.0091  2.2804
 3581SOL    HW212466   6.044   0.309   8.852  0.4226  1.7700  0.5039
 3582SOL     OW12467   6.685   3.815   0.621 -0.1205 -0.1153  0.0676
 3582SOL    HW112468   6.699   3.720   0.617 -1.7108 -0.3394 -1.8911
 3582SOL    HW212469   6.608   3.829   0.567  1.5878  2.6063 -1.8781
 3583SOL     OW12470   7.273   7.978   6.982  0.2591 -0.4291  0.5822
 3583SOL    HW112471   7.341   8.036   6.947 -0.7599  0.4209 -0.0905
 3583SOL    HW212472   7.308   7.890   6.969 -0.0032 -0.1966 -2.6809
 3584SOL     OW12473   1.242   0.660   0.506 -0.0944  0.4252 -0.4217
 3584SOL    HW112474   1.319   0.650   0.450 -0.4855 -0.2452 -0.8412
 3584SOL    HW212475   1.277   0.658   0.595  0.2424 -1.1512 -0.5740
 3585SOL     OW12476   0.133   7.826   8.141 -0.1872  0.8174 -0.5938
 3585SOL    HW112477   0.180   7.907   8.124  2.3619 -0.2371  0.9014
 3585SOL    HW212478   0.044   7.844   8.111  0.7193  3.4825 -2.0748
 3586SOL     OW12479   0.632   1.344   5.611 -0.4340  0.5438 -0.4082
 3586SOL    HW112480   0.568   1.281   5.576 -1.3225  0.5577  1.0669
 3586SOL    HW212481   0.698   1.352   5.543 -1.3152 -0.5140 -1.4368
 3587SOL     OW12482   0.140   1.676   4.591  0.2358 -0.3231 -0.2468
 3587SOL    HW112483   0.068   1.635   4.639  0.7979  0.1360  1.0315
 3587SOL    HW212484   0.130   1.644   4.501 -1.1113 -0.8503  0.0685
 3588SOL     OW12485   5.292   5.490   0.070 -0.4363 -0.0885  0.1531
 3588SOL    HW112486   5.353   5.563   0.061  0.4534 -0.5645  1.8408
 3588SOL    HW212487   5.256   5.477  -0.018  2.1533 -0.0080 -1.0194
 3589SOL     OW12488   5.613   4.649   0.371 -0.3842 -0.1264  0.0289
 3589SOL    HW112489   5.556   4.601   0.311 -0.0091  1.4601 -1.6768
 3589SOL    HW212490   5.681   4.586   0.395 -1.6745 -1.4145  0.4720
 3590SOL     OW12491   0.363   3.296   7.020 -0.2845  0.6643  0.1392
 3590SOL    HW112492   0.380   3.210   7.059 -0.2514  0.9022  0.6636
 3590SOL    HW212493   0.433   3.352   7.055  0.7555  0.5068 -1.5839
 3591SOL     OW12494   7.841   9.697   6.025 -0.4104 -0.2471  0.2498
 3591SOL    HW112495   7.791   9.679   6.105  1.9403 -0.4068  1.7754
 3591SOL    HW212496   7.931   9.673   6.047  0.5489  0.9616 -2.0209
 3592SOL     OW12497   7.332   6.354   8.351 -0.1951 -0.7025 -0.5126
 3592SOL    HW112498   7.315   6.391   8.438  0.0027 -0.6619 -0.4907
 3592SOL    HW212499   7.274   6.403   8.293  0.2255 -0.1998 -0.5168
 3593SOL     OW12500   7.371   2.801   8.646 -0.5082 -0.5245  0.2891
 3593SOL    HW112501   7.411   2.814   8.560 -1.2009  1.7196  0.2606
 3593SOL    HW212502   7.444   2.776   8.703  0.1803 -0.7039 -0.6439
 3594SOL     OW12503   1.075   5.277   7.416  0.6007 -0.1288 -0.3294
 3594SOL    HW112504   1.088   5.197   7.365  0.0673  0.7329 -1.8948
 3594SOL    HW212505   1.038   5.247   7.499  0.0577 -1.4909 -1.0277
 3595SOL     OW12506   6.778   0.714   6.698 -0.0767  0.2628 -0.0767
 3595SOL    HW112507   6.772   0.805   6.727  0.1684  0.2214  0.1009
 3595SOL    HW212508   6.862   0.683   6.732 -0.9019 -0.5327  1.3301
 3596SOL     OW12509   9.325   0.529   0.805 -0.4830 -0.1491  0.3475
 3596SOL    HW112510   9.289   0.491   0.886 -1.2659 -2.5950 -1.0425
 3596SOL    HW212511   9.248   0.557   0.755 -0.0742  0.2927 -0.0477
 3597SOL     OW12512   7.556   2.551   1.737 -0.0949 -0.2801 -0.2825
 3597SOL    HW112513   7.521   2.635   1.706  0.5697  0.3786  0.6662
 3597SOL    HW212514   7.482   2.491   1.735 -1.1447  0.9026  1.0842
 3598SOL     OW12515   1.421   6.101   8.010  0.4588  0.1444  0.1348
 3598SOL    HW112516   1.409   6.130   7.920 -3.0637 -2.8656 -0.6089
 3598SOL    HW212517   1.363   6.158   8.061 -1.7209 -1.4173 -0.4333
 3599SOL     OW12518   0.800   8.801   4.272 -0.1899  0.5631 -0.0063
 3599SOL    HW112519   0.845   8.866   4.218  0.5870  0.3446  0.3773
 3599SOL    HW212520   0.708   8.807   4.244  0.0833  0.9361 -0.8653
 3600SOL     OW12521   4.434   6.963   9.120  0.1615 -0.3959  0.2073
 3600SOL    HW112522   4.410   6.880   9.078 -0.5621 -0.3046  0.4250
 3600SOL    HW212523   4.429   7.028   9.050 -1.1487 -0.2261  0.4246
 3601SOL     OW12524   8.347   4.675   9.531  0.0388  0.2673 -0.0421
 3601SOL    HW112525   8.283   4.662   9.460  0.0873 -0.5158  0.0483
 3601SOL    HW212526   8.431   4.651   9.492  0.0945  0.0476  0.2080
 3602SOL     OW12527   6.991   8.105   2.876  0.3133  0.2989 -0.2001
 3602SOL    HW112528   6.899   8.079   2.869  0.5628 -0.8846  0.6971
 3602SOL    HW212529   7.040   8.023   2.878  1.1978  0.8193  1.8154
 3603SOL     OW12530   9.383   1.653   0.075 -0.2803  0.7281  0.5436
 3603SOL    HW112531   9.299   1.630   0.116  0.8717 -2.4212  1.4909
 3603SOL    HW212532   9.380   1.610  -0.010 -0.1463  1.8390 -0.0376
 3604SOL     OW12533   3.212   4.640   5.577  0.0131 -0.0571  0.2582
 3604SOL    HW112534   3.234   4.733   5.576  0.4207 -0.0985  2.0268
 3604SOL    HW212535   3.141   4.632   5.640 -0.6412 -0.8326 -0.5550
 3605SOL     OW12536   1.855   0.997   1.019  0.0256 -0.7988  0.0139
 3605SOL    HW112537   1.773   1.010   0.970 -0.1296  1.6401  0.7846
 3605SOL    HW212538   1.924   1.024   0.959  0.2564 -2.3082 -0.4354
 3606SOL     OW12539   8.032   8.104   9.560 -0.4629 -0.0036  0.5952
 3606SOL    HW112540   7.950   8.060   9.537  1.5246 -2.5223 -2.5233
 3606SOL    HW212541   8.066   8.054   9.634 -0.2419 -1.0690 -0.2079
 3607SOL     OW12542   6.743   1.581   0.809  0.0502 -0.9478  0.8048
 3607SOL    HW112543   6.671   1.519   0.823  0.2750 -1.3424  0.2640
 3607SOL    HW212544   6.704   1.652   0.758 -0.8900  0.7271  3.6084
 3608SOL     OW12545   8.043   8.186   8.793 -0.2898 -0.0937  0.5772
 3608SOL    HW112546   8.081   8.251   8.852  0.6215 -1.5415  1.6622
 3608SOL    HW212547   7.959   8.163   8.833  0.5876 -1.4964  1.6663
 3609SOL     OW12548   0.174   9.359   0.016 -0.4802  0.3809  0.4657
 3609SOL    HW112549   0.148   9.435   0.068 -1.5236  0.6469 -0.4170
 3609SOL    HW212550   0.098   9.339  -0.038  1.3318  1.7360 -2.9045
 3610SOL     OW12551   4.910   8.565   2.355 -0.4216 -0.7037  0.2446
 3610SOL    HW112552   4.878   8.634   2.297  0.2636 -0.5680  0.0189
 3610SOL    HW212553   5.003   8.585   2.366 -0.4287 -1.0441  0.9485
 3611SOL     OW12554   3.541   7.217   1.776  0.3550  0.6159 -0.3079
 3611SOL    HW112555   3.452   7.228   1.808  1.4546  1.1568  2.9324
 3611SOL    HW212556   3.559   7.124   1.786 -0.0166  0.3896 -1.5900
 3612SOL     OW12557   1.603   2.327   1.683  0.2016 -0.3646 -0.2156
 3612SOL    HW112558   1.613   2.248   1.736 -2.5815 -0.1377  0.8208
 3612SOL    HW212559   1.573   2.294   1.598 -2.7440 -0.4986  0.7462
 3613SOL     OW12560   5.573   4.528   7.463  0.0454  0.2230 -0.0206
 3613SOL    HW112561   5.613   4.568   7.540 -0.8287  0.5971  0.2529
 3613SOL    HW212562   5.551   4.439   7.491  0.2715  0.1648 -0.0281
 3614SOL     OW12563   1.746   7.322   9.320  0.1239  0.7038 -0.0217
 3614SOL    HW112564   1.736   7.230   9.344 -0.9002  1.3113  2.0823
 3614SOL    HW212565   1.838   7.341   9.338  0.5017 -0.0354 -1.0647
 3615SOL     OW12566   5.226   1.831   8.887 -0.6188  0.5072 -0.1058
 3615SOL    HW112567   5.218   1.865   8.797 -1.4310  1.7706  0.4138
 3615SOL    HW212568   5.141   1.851   8.927 -0.3230 -0.2061  0.8943
 3616SOL     OW12569   0.450   5.434   3.239 -0.0157 -0.2972  0.7742
 3616SOL    HW112570   0.471   5.468   3.326  0.7403 -1.2360  0.9861
 3616SOL    HW212571   0.494   5.349   3.236  2.1452  0.7734 -1.4312
 3617SOL     OW12572   4.804   7.620   4.217  0.0460  0.4907  0.0209
 3617SOL    HW112573   4.892   7.586   4.236 -0.4753 -0.5282  0.7322
 3617SOL    HW212574   4.819   7.707   4.182  1.3778  0.0938 -0.4534
 3618SOL     OW12575   4.034   3.187   3.433 -0.0994 -0.4246 -0.2490
 3618SOL    HW112576   3.964   3.143   3.481  0.4361 -1.4380 -0.3512
 3618SOL    HW212577   4.069   3.119   3.374  0.5199  0.2485 -0.6773
 3619SOL     OW12578   5.338   5.070   0.538  0.2704  0.2118  0.1759
 3619SOL    HW112579   5.311   5.114   0.458 -2.6649 -0.5564  0.6179
 3619SOL    HW212580   5.317   4.977   0.523  1.2043 -0.1925  1.2370
 3620SOL     OW12581   9.595   7.442   7.772 -0.4587  0.1540  0.2403
 3620SOL    HW112582   9.667   7.381   7.789  0.6641  1.5548  0.7205
 3620SOL    HW212583   9.518   7.399   7.809 -0.0019 -1.6287 -0.7658
 3621SOL     OW12584   8.048   5.228   5.097  0.4166  0.6029  0.0059
 3621SOL    HW112585   8.071   5.198   5.185  2.7819  0.0657 -0.7319
 3621SOL    HW212586   8.111   5.298   5.079 -0.4111  1.0973 -1.0517
 3622SOL     OW12587   4.509   3.121   6.943 -0.5206 -0.4692  0.3547
 3622SOL    HW112588   4.572   3.120   7.014  0.5403 -1.7085 -0.5618
 3622SOL    HW212589   4.528   3.202   6.895  0.0106 -0.5659  0.3981
 3623SOL     OW12590   5.528   7.383   1.774 -0.2325  0.1505 -0.7209
 3623SOL    HW112591   5.462   7.368   1.706 -2.0020  0.1969  0.9016
 3623SOL    HW212592   5.602   7.328   1.748 -0.4467  0.8936 -3.1649
 3624SOL     OW12593   5.670   4.609   7.697 -0.1068 -0.0011 -0.2707
 3624SOL    HW112594   5.741   4.571   7.749  0.2270  0.6291 -0.2466
 3624SOL    HW212595   5.682   4.704   7.707 -1.6514  0.1342  0.6908
 3625SOL     OW12596   3.092   7.260   1.546 -0.2677  0.3609 -0.3140
 3625SOL    HW112597   3.165   7.234   1.602 -1.0680  0.6872  0.9121
 3625SOL    HW212598   3.075   7.352   1.568 -0.3964  0.5964 -1.3251
 3626SOL     OW12599   4.863   8.988   1.443  0.1210 -0.2309 -0.0473
 3626SOL    HW112600   4.916   8.914   1.475  0.3066 -0.7403 -1.4507
 3626SOL    HW212601   4.913   9.065   1.468  1.6572 -0.7091 -1.4489
 3627SOL     OW12602   8.864   6.777   8.960 -0.5884  0.0553  0.4925
 3627SOL    HW112603   8.910   6.710   8.910 -0.6118 -1.0582  1.9187
 3627SOL    HW212604   8.779   6.786   8.917  0.6462  1.7553 -1.8475
 3628SOL     OW12605   2.224   5.602   8.461  1.0833  0.2161  0.3835
 3628SOL    HW112606   2.170   5.584   8.538 -0.8294  1.3082 -0.6466
 3628SOL    HW212607   2.273   5.681   8.485  2.3206 -0.7855  1.3249
 3629SOL     OW12608   6.961   8.636   1.286 -0.0261 -0.4782  0.6061
 3629SOL    HW112609   7.055   8.646   1.299 -0.3116  2.6574  0.9358
 3629SOL    HW212610   6.951   8.620   1.192  0.8209 -1.8032  0.7091
 3630SOL     OW12611   4.898   5.539   7.744 -0.4260 -0.2162 -0.2341
 3630SOL    HW112612   4.846   5.502   7.815 -0.0530 -0.2225  0.0390
 3630SOL    HW212613   4.836   5.550   7.671 -1.0050  0.5784  0.3659
 3631SOL     OW12614   3.060   8.711   3.532  0.0090 -0.6258  0.0688
 3631SOL    HW112615   2.971   8.725   3.565  1.0412  1.6350  2.2306
 3631SOL    HW212616   3.062   8.754   3.447 -0.5478  0.8663  0.7723
 3632SOL     OW12617   4.225   6.595   8.123  0.3831 -0.7179 -0.8257
 3632SOL    HW112618   4.190   6.646   8.197  0.1250  0.5518 -1.7934
 3632SOL    HW212619   4.155   6.597   8.058  0.3368 -2.4181 -0.8508
 3633SOL     OW12620   2.826   1.027   4.003  0.0344  0.0818 -0.5976
 3633SOL    HW112621   2.846   1.085   3.929 -0.5000  1.6983  0.4507
 3633SOL    HW212622   2.734   1.046   4.023 -0.2702 -1.4382 -0.4367
 3634SOL     OW12623   3.064   3.548   7.450  0.5139  0.0762  0.2502
 3634SOL    HW112624   3.134   3.609   7.473  0.3937  0.6388 -0.8119
 3634SOL    HW212625   2.984   3.600   7.456  0.2753 -0.3107  0.5165
 3635SOL     OW12626   3.006   0.559   2.220 -0.3178  0.2892 -0.2651
 3635SOL    HW112627   3.048   0.476   2.240 -0.7187  0.4527  1.4036
 3635SOL    HW212628   3.029   0.576   2.129  1.3581 -0.7051 -0.0724
 3636SOL     OW12629   8.232   5.177   4.716  0.5373 -0.2728  0.0187
 3636SOL    HW112630   8.246   5.125   4.795  0.5523 -1.0856 -0.5145
 3636SOL    HW212631   8.251   5.118   4.644  0.6981  0.5157 -0.5980
 3637SOL     OW12632   8.229   1.957   0.010  0.3877  0.2777  0.2840
 3637SOL    HW112633   8.231   2.028   0.075 -0.7215 -0.2848  0.9531
 3637SOL    HW212634   8.167   1.988  -0.056  2.5707  1.4976 -1.3383
 3638SOL     OW12635   1.388   5.202   0.090 -0.1789  0.2956 -0.8260
 3638SOL    HW112636   1.398   5.241   0.177 -1.0083  1.7151 -1.3417
 3638SOL    HW212637   1.398   5.275   0.029 -0.9087 -0.4432 -1.8643
 3639SOL     OW12638   6.243   8.224   3.639  0.0291 -0.3752 -0.3683
 3639SOL    HW112639   6.270   8.311   3.609 -0.5750  0.2767  0.8605
 3639SOL    HW212640   6.197   8.241   3.722  0.6607 -1.9490  0.3534
 3640SOL     OW12641   5.500   0.186   1.885 -0.1174 -0.4049  0.0333
 3640SOL    HW112642   5.505   0.211   1.977 -1.0049 -0.5799  0.1470
 3640SOL    HW212643   5.473   0.266   1.839 -1.0419 -0.6473  0.1291
 3641SOL     OW12644   4.874   0.094   4.069 -0.1595  0.5494 -0.2378
 3641SOL    HW112645   4.930   0.030   4.112  0.9863  1.9629  0.4938
 3641SOL    HW212646   4.785   0.071   4.097  0.0767 -1.3716 -0.9303
 3642SOL     OW12647   1.222   7.565   5.675  0.4565 -0.4706 -0.4780
 3642SOL    HW112648   1.219   7.501   5.603  0.5773 -0.5650 -0.3990
 3642SOL    HW212649   1.242   7.648   5.632  0.2625 -0.4786 -0.5856
 3643SOL     OW12650   4.289   7.839   9.478 -0.0221 -0.0905  0.3977
 3643SOL    HW112651   4.202   7.873   9.500 -0.1777 -0.3192  0.1482
 3643SOL    HW212652   4.318   7.892   9.404 -0.3797 -0.6665 -0.1658
 3644SOL     OW12653   1.227   7.286   5.713  0.1713 -0.5686 -0.2496
 3644SOL    HW112654   1.288   7.360   5.714 -0.4343  0.0444  2.7461
 3644SOL    HW212655   1.140   7.326   5.722 -0.4001 -1.5631 -1.1707
 3645SOL     OW12656   9.206   4.476   5.147  0.0754  0.2443 -0.3892
 3645SOL    HW112657   9.137   4.435   5.095 -0.5018  0.7271 -0.0227
 3645SOL    HW212658   9.287   4.441   5.111 -0.3768 -0.7972 -0.4376
 3646SOL     OW12659   6.735   1.628   1.759 -0.5879 -0.1304  0.0815
 3646SOL    HW112660   6.796   1.564   1.723  1.1110  1.0839  0.6614
 3646SOL    HW212661   6.658   1.624   1.702  0.3406 -1.1736 -1.1416
 3647SOL     OW12662   0.675   4.043   8.887 -0.3725  0.3765 -0.1677
 3647SOL    HW112663   0.694   4.094   8.809 -2.1235  0.0845 -0.8256
 3647SOL    HW212664   0.759   4.003   8.910 -0.1121 -0.9076 -2.9176
 3648SOL     OW12665   7.508   4.543   5.692 -0.1764  0.2423 -0.1377
 3648SOL    HW112666   7.499   4.619   5.634  0.0219 -0.5476 -1.2430
 3648SOL    HW212667   7.449   4.477   5.655  0.6786 -0.6110 -0.0278
 3649SOL     OW12668   0.874   8.529   4.824 -0.1812 -0.1887  0.4544
 3649SOL    HW112669   0.862   8.434   4.825 -0.5667 -0.1418  0.2034
 3649SOL    HW212670   0.810   8.563   4.887 -0.3446 -0.0579  0.2166
 3650SOL     OW12671   5.659   5.497   2.831  0.1954 -0.0401  0.1840
 3650SOL    HW112672   5.614   5.454   2.758  0.0865 -1.3044  0.9789
 3650SOL    HW212673   5.602   5.483   2.906  1.6602 -1.3188  1.1293
 3651SOL     OW12674   4.058   5.926   2.856 -0.4153 -0.1106  0.1872
 3651SOL    HW112675   4.044   6.004   2.910  0.2689 -0.1434  0.4236
 3651SOL    HW212676   4.085   5.858   2.918  0.3202 -0.1664 -0.1774
 3652SOL     OW12677   1.829   1.552   0.607 -0.1502 -0.8019 -0.0184
 3652SOL    HW112678   1.855   1.616   0.674 -0.5643 -0.1419 -0.4763
 3652SOL    HW212679   1.909   1.502   0.590  0.3013 -0.1084  0.0217
 3653SOL     OW12680   6.766   3.559   6.538 -0.2118 -0.8615  0.0005
 3653SOL    HW112681   6.822   3.626   6.576 -1.6421 -1.6575  3.9096
 3653SOL    HW212682   6.815   3.477   6.547 -0.4047 -1.0196 -0.3246
 3654SOL     OW12683   8.835   9.651   7.743  0.2027 -0.3702 -0.2601
 3654SOL    HW112684   8.880   9.664   7.660 -0.3522 -0.5085 -0.5869
 3654SOL    HW212685   8.753   9.700   7.734 -0.0143 -0.6668  0.0789
 3655SOL     OW12686   6.305   8.186   2.117  0.3047  0.1703 -0.1119
 3655SOL    HW112687   6.255   8.256   2.158 -1.0607 -0.1841 -1.0920
 3655SOL    HW212688   6.249   8.155   2.045 -0.2118 -3.4498  1.6354
 3656SOL     OW12689   1.837   4.833   2.998 -0.6439  0.0692 -0.6545
 3656SOL    HW112690   1.840   4.845   3.093 -1.2869  1.1510 -0.7541
 3656SOL    HW212691   1.749   4.802   2.980  0.1921 -2.5343 -0.6910
 3657SOL     OW12692   0.541   1.597   6.340  0.7933 -0.6563 -0.0612
 3657SOL    HW112693   0.477   1.526   6.343  0.0343 -0.0830 -1.4585
 3657SOL    HW212694   0.490   1.676   6.357  1.0140 -0.1440 -1.5949
 3658SOL     OW12695   0.157   8.586   0.616  0.2027  0.2706  0.2083
 3658SOL    HW112696   0.111   8.651   0.563  0.4256  0.1232 -0.1789
 3658SOL    HW212697   0.235   8.632   0.648  0.3904  0.1802 -0.1140
 3659SOL     OW12698   3.403   4.343   9.497  0.0717  0.2901 -0.5419
 3659SOL    HW112699   3.437   4.266   9.543 -0.4370  0.7860  0.7314
 3659SOL    HW212700   3.310   4.323   9.482  0.3025  0.0003 -1.6882
 3660SOL     OW12701   6.091   7.310   5.905 -0.1671 -0.2519  0.2910
 3660SOL    HW112702   6.005   7.268   5.894  0.5145 -1.3455 -1.4410
 3660SOL    HW212703   6.136   7.294   5.822  1.3452  1.2005  0.7694
 3661SOL     OW12704   4.830   7.694   3.143 -0.1547  0.3874 -0.3186
 3661SOL    HW112705   4.843   7.602   3.121  2.1847  0.5816 -0.0317
 3661SOL    HW212706   4.841   7.697   3.238 -3.1632  0.6078  0.1389
 3662SOL     OW12707   8.670   0.510   9.078 -0.3296 -0.8135 -0.7070
 3662SOL    HW112708   8.731   0.558   9.134 -0.7752  0.2728 -1.1274
 3662SOL    HW212709   8.623   0.451   9.137  0.4910 -1.0105 -0.2441
 3663SOL     OW12710   6.400   0.010   7.590  0.4626  0.3491 -0.2359
 3663SOL    HW112711   6.379   0.034   7.500  0.1088 -0.9934 -0.5429
 3663SOL    HW212712   6.495  -0.001   7.590  0.2246 -2.6300 -1.3059
 3664SOL     OW12713   4.016   9.244   6.985 -0.0931 -0.1299 -0.1068
 3664SOL    HW112714   3.982   9.313   6.927  0.5479  0.0750 -0.2474
 3664SOL    HW212715   4.070   9.190   6.928  0.4803  0.0281  0.2752
 3665SOL     OW12716   6.716   5.960   7.671 -0.1007  0.3718  0.2872
 3665SOL    HW112717   6.677   6.042   7.642  0.5051  0.1962 -1.1353
 3665SOL    HW212718   6.699   5.899   7.599 -0.3169 -0.6745  1.2126
 3666SOL     OW12719   4.583   7.733   0.938  0.0497 -0.1755  0.0147
 3666SOL    HW112720   4.535   7.810   0.968  0.9670  0.4075  0.0290
 3666SOL    HW212721   4.535   7.659   0.974  0.1237  0.4442  1.4636
 3667SOL     OW12722   7.629   7.192   5.995  0.2871  0.1889 -0.0433
 3667SOL    HW112723   7.619   7.137   5.918  0.0381  1.4257 -0.9289
 3667SOL    HW212724   7.540   7.221   6.015  0.5793  1.5311 -0.5745
 3668SOL     OW12725   0.434   2.273   7.049  0.1741 -0.3285 -0.0449
 3668SOL    HW112726   0.340   2.260   7.042  0.4809 -1.8826 -3.2891
 3668SOL    HW212727   0.472   2.205   6.993  3.2778 -0.0852  1.5394
 3669SOL     OW12728   2.192   1.640   1.212  0.4293  0.1510 -0.2446
 3669SOL    HW112729   2.120   1.702   1.201  0.4892  0.5189  1.1868
 3669SOL    HW212730   2.231   1.633   1.125 -0.7916  0.6075 -0.8508
 3670SOL     OW12731   1.574   8.251   0.709  0.4026  0.5511 -0.3594
 3670SOL    HW112732   1.589   8.240   0.803 -1.8710 -0.6321 -0.0581
 3670SOL    HW212733   1.612   8.337   0.689  0.1505  1.2515  1.8286
 3671SOL     OW12734   5.817   9.095   2.569 -0.4672  0.4661  0.0066
 3671SOL    HW112735   5.734   9.136   2.592 -0.5758  0.7752 -0.9078
 3671SOL    HW212736   5.824   9.105   2.474  0.3170 -0.1161 -0.0094
 3672SOL     OW12737   6.386   0.308   9.640  0.2556 -0.0405 -0.3028
 3672SOL    HW112738   6.382   0.280   9.731 -1.0966  0.3624 -0.1988
 3672SOL    HW212739   6.401   0.403   9.645 -0.0620  0.0228 -0.4756
 3673SOL     OW12740   4.952   0.777   3.068  0.4621 -0.0384 -0.5172
 3673SOL    HW112741   5.040   0.758   3.035  0.5375 -1.3972  0.3819
 3673SOL    HW212742   4.899   0.704   3.037 -0.0893  0.1679 -0.0631
 3674SOL     OW12743   3.629   3.171   2.554  0.2018  0.6641 -0.1243
 3674SOL    HW112744   3.613   3.092   2.501 -0.8429  0.0015  1.1022
 3674SOL    HW212745   3.648   3.137   2.641  1.4684  1.7500  0.0430
 3675SOL     OW12746   8.718   6.856   3.498  0.1315 -0.3109 -0.0186
 3675SOL    HW112747   8.748   6.927   3.441 -0.0941 -0.0415  0.2008
 3675SOL    HW212748   8.786   6.848   3.565  0.2472 -0.4252 -0.1493
 3676SOL     OW12749   4.372   9.269   6.489 -0.4098 -0.4928  0.0714
 3676SOL    HW112750   4.388   9.175   6.484 -1.7148 -0.8036  1.2054
 3676SOL    HW212751   4.453   9.306   6.525 -0.7780 -1.5306  2.0993
 3677SOL     OW12752   3.958   0.043   1.621  0.2807 -0.1364  0.1481
 3677SOL    HW112753   3.941  -0.015   1.547  0.7630 -1.4467  1.0273
 3677SOL    HW212754   3.873   0.085   1.638  0.0288 -0.2409 -0.7831
 3678SOL     OW12755   2.054   5.062   5.248  0.5429  0.1155  0.0882
 3678SOL    HW112756   2.108   5.139   5.263  2.1810 -1.0721  0.6337
 3678SOL    HW212757   2.112   4.999   5.205 -0.4368 -1.1677  0.5555
 3679SOL     OW12758   5.680   0.183   1.446  0.2916  0.4313  0.3108
 3679SOL    HW112759   5.725   0.202   1.529  3.1807  0.3712 -1.1104
 3679SOL    HW212760   5.706   0.094   1.425 -3.1419 -0.8503  0.8614
 3680SOL     OW12761   5.085   4.111   0.946 -0.1705  0.3113 -0.1329
 3680SOL    HW112762   5.012   4.057   0.977 -0.4926  1.3302  0.9385
 3680SOL    HW212763   5.076   4.109   0.851 -0.3737 -1.2327 -0.1053
 3681SOL     OW12764   1.981   9.067   4.815  0.3302 -0.0198 -0.0803
 3681SOL    HW112765   1.933   8.986   4.834  0.2431 -0.0707 -0.4935
 3681SOL    HW212766   2.002   9.104   4.901  3.6997 -2.4059  0.3330
 3682SOL     OW12767   5.805   2.579   3.656 -0.8416 -0.5239 -0.1324
 3682SOL    HW112768   5.849   2.640   3.714 -2.4390 -0.1258  0.7277
 3682SOL    HW212769   5.832   2.492   3.687  1.1240 -0.3015 -1.1111
 3683SOL     OW12770   6.660   8.228   8.203 -0.1535  0.3562  0.2146
 3683SOL    HW112771   6.708   8.282   8.266 -0.6907  0.4514  0.5434
 3683SOL    HW212772   6.573   8.267   8.200 -0.5288 -0.4564  0.4074
 3684SOL     OW12773   6.676   1.074   8.814  0.8033 -0.3694  0.0503
 3684SOL    HW112774   6.660   1.046   8.904  0.1561 -1.6110 -0.4335
 3684SOL    HW212775   6.726   1.156   8.823  0.5739 -0.3654  1.5252
 3685SOL     OW12776   5.727   4.641   3.791 -0.1800 -0.6082 -0.4393
 3685SOL    HW112777   5.714   4.714   3.851  0.5378  0.5837 -1.6756
 3685SOL    HW212778   5.642   4.629   3.748 -0.2894 -0.4802 -0.2575
 3686SOL     OW12779   2.391   2.344   5.726  0.0111  0.3346 -0.0355
 3686SOL    HW112780   2.336   2.294   5.666  0.2016  0.2314 -0.1278
 3686SOL    HW212781   2.330   2.397   5.777 -0.0945  1.0549 -0.8941
 3687SOL     OW12782   6.307   4.530   6.469  0.1259 -0.0531 -0.1392
 3687SOL    HW112783   6.301   4.471   6.393  1.3623 -2.1297  1.2526
 3687SOL    HW212784   6.369   4.597   6.442  0.9738 -1.0717 -0.8287
 3688SOL     OW12785   0.238   5.678   5.078 -0.0886  0.8396 -0.3666
 3688SOL    HW112786   0.187   5.757   5.097 -0.4715  0.5963 -0.3652
 3688SOL    HW212787   0.275   5.693   4.991 -0.4100  0.8920 -0.4938
 3689SOL     OW12788   9.162   7.710   3.438 -0.2569  0.6639  0.2897
 3689SOL    HW112789   9.204   7.782   3.390 -2.2013  1.8086  0.1962
 3689SOL    HW212790   9.088   7.752   3.483 -0.9143 -1.1393  0.9506
 3690SOL     OW12791   1.059   0.368   6.084  0.0319 -0.0386 -0.4776
 3690SOL    HW112792   1.060   0.317   6.165 -0.8360  1.0430  0.2418
 3690SOL    HW212793   1.136   0.424   6.090  0.5446 -0.6747 -0.9040
 3691SOL     OW12794   7.993   5.156   0.245 -0.2713 -0.3392 -0.4980
 3691SOL    HW112795   8.068   5.141   0.301 -0.6082 -0.5216 -0.0948
 3691SOL    HW212796   7.948   5.072   0.241 -1.1171  0.0585  0.2476
 3692SOL     OW12797   9.311   5.894   8.568  0.6070 -0.3823  0.2296
 3692SOL    HW112798   9.387   5.860   8.522  1.0094  0.8194 -0.0207
 3692SOL    HW212799   9.333   5.985   8.588  0.1892 -0.6573  2.2233
 3693SOL     OW12800   2.283   0.750   4.821 -0.7966 -0.0859 -0.4620
 3693SOL    HW112801   2.249   0.663   4.843 -1.0700 -0.0422 -0.7115
 3693SOL    HW212802   2.307   0.788   4.906 -0.8027 -0.3523 -0.3410
 3694SOL     OW12803   3.723   4.591   9.337 -0.0777  0.2431  0.2068
 3694SOL    HW112804   3.806   4.584   9.385 -0.3977 -2.0058  0.5484
 3694SOL    HW212805   3.657   4.600   9.406 -0.4986 -2.5845  0.2775
 3695SOL     OW12806   6.606   6.780   7.849 -0.3601 -0.1824 -0.3265
 3695SOL    HW112807   6.663   6.709   7.879  0.8759  1.2454  0.8738
 3695SOL    HW212808   6.653   6.818   7.775 -1.0117 -0.5963 -0.9576
 3696SOL     OW12809   2.445   4.205   3.623  0.7042  0.1941 -0.6135
 3696SOL    HW112810   2.354   4.194   3.648  0.8979  1.2528  0.6642
 3696SOL    HW212811   2.462   4.298   3.631  1.4567  0.2751 -2.5446
 3697SOL     OW12812   6.891   8.129   7.600 -0.2689  0.1445  0.0980
 3697SOL    HW112813   6.973   8.118   7.648  0.2008  1.2397 -0.4402
 3697SOL    HW212814   6.841   8.192   7.652 -0.1511  0.6108 -0.3470
 3698SOL     OW12815   0.580   0.045   8.655  0.1659  0.3742 -0.2144
 3698SOL    HW112816   0.653   0.103   8.632  1.4918 -1.0946  0.0888
 3698SOL    HW212817   0.559   0.068   8.746  1.8773 -0.7645  0.5115
 3699SOL     OW12818   4.044   8.914   5.935  0.0733 -0.2175 -0.2171
 3699SOL    HW112819   3.961   8.959   5.918  1.0378  0.8903 -2.3950
 3699SOL    HW212820   4.018   8.827   5.967 -1.8560  0.9659  1.7776
 3700SOL     OW12821   6.094   4.719   1.602 -0.3762  0.2427 -0.4339
 3700SOL    HW112822   5.998   4.725   1.597 -0.3275  1.4774 -0.1352
 3700SOL    HW212823   6.114   4.630   1.572 -1.5478  0.2977 -1.4449
 3701SOL     OW12824   8.453   6.532   8.553 -0.2583 -0.0065 -0.8531
 3701SOL    HW112825   8.430   6.590   8.625 -1.8522  2.0767 -2.8987
 3701SOL    HW212826   8.399   6.454   8.567  0.6309 -0.3324  0.9878
 3702SOL     OW12827   0.732   3.167   1.080 -0.4442  0.0038  0.3499
 3702SOL    HW112828   0.740   3.122   0.996  0.0781  0.8607 -0.0768
 3702SOL    HW212829   0.743   3.099   1.146  0.5593 -0.4557 -0.2808
 3703SOL     OW12830   6.662   2.510   1.601  0.0329 -0.5572  0.0613
 3703SOL    HW112831   6.666   2.469   1.687  1.0799  0.7183  0.6524
 3703SOL    HW212832   6.754   2.518   1.573 -0.3103 -1.4086 -1.4075
 3704SOL     OW12833   0.979   3.363   3.692  0.2202  0.8113  0.2826
 3704SOL    HW112834   1.041   3.432   3.669 -0.0549  0.6485 -1.0080
 3704SOL    HW212835   0.972   3.368   3.788  0.5250  2.2796  0.2514
 3705SOL     OW12836   7.444   4.872   3.697  0.3354  0.0070  0.7032
 3705SOL    HW112837   7.406   4.839   3.778 -1.2274  0.2191  0.0883
 3705SOL    HW212838   7.404   4.958   3.685 -1.2303 -0.8972 -1.3863
 3706SOL     OW12839   0.541   2.730   7.698 -0.8695  0.2194  0.2626
 3706SOL    HW112840   0.581   2.812   7.727  0.6914 -1.0997  2.0587
 3706SOL    HW212841   0.544   2.735   7.602  1.0606  1.4033  0.3316
 3707SOL     OW12842   4.547   3.874   2.421 -0.6746 -0.1699 -0.4408
 3707SOL    HW112843   4.474   3.892   2.361 -1.1718  0.7555  0.4134
 3707SOL    HW212844   4.549   3.778   2.427 -2.1935 -0.2157 -0.0697
 3708SOL     OW12845   7.158   2.189   3.894 -0.4175  0.3340 -0.5712
 3708SOL    HW112846   7.201   2.274   3.885  1.7655 -0.4357  1.5404
 3708SOL    HW212847   7.067   2.206   3.871  0.0829  3.0694 -0.9086
 3709SOL     OW12848   5.419   2.110   1.453 -0.5284 -0.3128  0.3248
 3709SOL    HW112849   5.352   2.144   1.394 -1.6064 -0.0946  1.6195
 3709SOL    HW212850   5.370   2.076   1.528  0.7276 -1.6075  0.6083
 3710SOL     OW12851   6.379   1.915   4.802 -0.2060  0.2330 -0.5316
 3710SOL    HW112852   6.308   1.979   4.805 -1.4499 -1.0545 -0.9828
 3710SOL    HW212853   6.418   1.919   4.889 -1.3184  0.4842 -0.0211
 3711SOL     OW12854   8.374   0.664   3.434  0.6081  0.0223 -0.3488
 3711SOL    HW112855   8.302   0.617   3.475 -0.6025  0.8206 -1.4548
 3711SOL    HW212856   8.334   0.709   3.359  1.9449  1.7325 -0.1169
 3712SOL     OW12857   1.531   0.558   1.876 -0.0879 -0.8231  0.3778
 3712SOL    HW112858   1.611   0.505   1.870  0.3730 -0.2999  1.6089
 3712SOL    HW212859   1.548   0.633   1.819  0.2563 -0.7795  0.5309
 3713SOL     OW12860   4.058   2.731   4.357  0.0743  0.5848 -0.2866
 3713SOL    HW112861   3.969   2.719   4.389  0.5274  0.6548  1.0900
 3713SOL    HW212862   4.087   2.643   4.334  0.3918  0.2016  1.4218
 3714SOL     OW12863   7.669   2.978   1.741 -0.2714  0.5445  0.0957
 3714SOL    HW112864   7.738   2.996   1.676  1.0461 -0.5469  1.1391
 3714SOL    HW212865   7.594   3.030   1.711  1.2929  2.5448 -0.5525
 3715SOL     OW12866   9.459   2.347   7.152  0.1610 -0.3454 -0.3443
 3715SOL    HW112867   9.535   2.330   7.096 -1.7048 -3.0194 -2.3999
 3715SOL    HW212868   9.403   2.404   7.099  0.2245  0.7032  0.6886
 3716SOL     OW12869   7.061   6.756   9.152  0.4193  0.1902 -0.2407
 3716SOL    HW112870   7.005   6.765   9.230  1.5621 -0.6393  0.7174
 3716SOL    HW212871   7.110   6.675   9.168  1.5179  0.6292 -1.2974
 3717SOL     OW12872   6.512   0.927   3.071  0.8022 -0.3517  0.2678
 3717SOL    HW112873   6.479   0.920   3.160  1.5520 -0.9779  0.5101
 3717SOL    HW212874   6.482   0.847   3.028  0.0300  0.1693 -0.1986
 3718SOL     OW12875   1.702   1.523   3.747  0.3893 -0.3390 -0.3081
 3718SOL    HW112876   1.725   1.602   3.796  0.9309  0.3716 -1.6603
 3718SOL    HW212877   1.771   1.514   3.681 -0.4648 -1.1027 -1.1339
 3719SOL     OW12878   0.731   3.363   9.153 -0.0087 -0.0283 -0.4487
 3719SOL    HW112879   0.636   3.367   9.166  0.0606  0.0784  0.0324
 3719SOL    HW212880   0.750   3.269   9.142  0.0049 -0.1889  0.8299
 3720SOL     OW12881   1.334   7.514   8.165  0.5518 -0.2000  0.0634
 3720SOL    HW112882   1.425   7.509   8.194  0.8838  1.8541 -0.5057
 3720SOL    HW212883   1.283   7.517   8.246  1.0680 -0.1868  0.3902
 3721SOL     OW12884   2.434   6.111   6.706  0.1107  0.6337  0.6945
 3721SOL    HW112885   2.404   6.053   6.776 -1.4378 -0.6255 -0.9086
 3721SOL    HW212886   2.511   6.068   6.669 -0.5116 -0.0083  0.0916
 3722SOL     OW12887   0.075   7.796   0.105  0.2889  0.3855  0.0997
 3722SOL    HW112888   0.092   7.703   0.119  0.1341  0.4014  0.4093
 3722SOL    HW212889   0.099   7.812   0.014 -1.9949 -0.5000 -0.7214
 3723SOL     OW12890   6.149   9.025   5.069  0.4422  0.3175  0.8333
 3723SOL    HW112891   6.196   8.983   5.141  0.5569  0.5932  0.9193
 3723SOL    HW212892   6.218   9.054   5.009  0.2932 -1.7167 -0.4187
 3724SOL     OW12893   3.290   2.011   5.978  0.1130  0.1604  0.3604
 3724SOL    HW112894   3.381   2.036   5.961 -0.4977  2.1194 -0.2709
 3724SOL    HW212895   3.258   1.978   5.895  1.2376 -4.2816  1.4277
 3725SOL     OW12896   2.944   6.113   3.485 -0.6460  0.0278 -0.5529
 3725SOL    HW112897   3.040   6.109   3.491 -0.7137  0.4439  2.5777
 3725SOL    HW212898   2.923   6.206   3.496 -1.4160 -0.3243  1.4985
 3726SOL     OW12899   8.931   7.936   2.272  0.7496  0.3616 -0.0423
 3726SOL    HW112900   8.874   7.950   2.348 -0.9843  0.9037 -1.3692
 3726SOL    HW212901   8.905   7.849   2.239  0.4233  0.7563 -0.8534
 3727SOL     OW12902   2.436   5.167   3.414  0.1167 -0.0775 -0.4347
 3727SOL    HW112903   2.361   5.225   3.422  0.6155  0.8313 -1.7949
 3727SOL    HW212904   2.477   5.167   3.501 -0.4593  0.8156 -0.1583
 3728SOL     OW12905   3.781   6.316   2.637 -0.3134 -0.6231 -0.2150
 3728SOL    HW112906   3.783   6.412   2.646 -0.3603 -0.7712  1.8775
 3728SOL    HW212907   3.851   6.296   2.576  0.2003  0.7045 -0.0999
 3729SOL     OW12908   3.756   7.381   1.685  0.1656  0.7461 -0.2347
 3729SOL    HW112909   3.800   7.378   1.770 -0.4070  0.8710  0.0705
 3729SOL    HW212910   3.688   7.313   1.691 -1.8016  2.6677  0.5018
 3730SOL     OW12911   3.670   4.016   2.521  0.0038 -0.0261 -0.4586
 3730SOL    HW112912   3.606   4.064   2.574 -0.9557 -0.9132 -0.7802
 3730SOL    HW212913   3.634   3.927   2.515  1.3161 -0.5608 -0.5846
 3731SOL     OW12914   6.328   9.318   3.598 -0.4432  0.0323 -0.2624
 3731SOL    HW112915   6.315   9.364   3.515  2.9005  0.3127 -0.7758
 3731SOL    HW212916   6.385   9.244   3.575  0.7382  0.2379  1.7671
 3732SOL     OW12917   8.852   6.046   5.971 -0.7611  0.5106  0.3133
 3732SOL    HW112918   8.947   6.043   5.980 -0.9041 -0.3090  1.8443
 3732SOL    HW212919   8.835   6.012   5.883  0.3356  0.2596  0.1855
 3733SOL     OW12920   7.764   8.617   8.421  0.2651  0.1710 -0.0824
 3733SOL    HW112921   7.806   8.686   8.369  0.8862  0.7066  1.0921
 3733SOL    HW212922   7.679   8.605   8.380 -2.0625  5.1207  2.4158
 3734SOL     OW12923   9.355   0.396   0.204 -0.1689  0.0224 -0.5149
 3734SOL    HW112924   9.287   0.445   0.159  0.8439  3.3012  1.2370
 3734SOL    HW212925   9.418   0.372   0.136 -0.8916  0.8537 -1.4864
 3735SOL     OW12926   6.381   6.543   2.982 -0.4213 -0.0295 -0.0830
 3735SOL    HW112927   6.458   6.599   2.969 -1.4230  1.1543 -1.3350
 3735SOL    HW212928   6.328   6.591   3.046 -1.3105  0.5219 -1.1998
 3736SOL     OW12929   3.042   7.984   6.630 -0.0630  0.1273  0.3352
 3736SOL    HW112930   2.997   8.029   6.558 -0.4158 -0.9190 -0.1172
 3736SOL    HW212931   3.042   7.892   6.604 -0.6596 -0.3470  1.9028
 3737SOL     OW12932   5.808   8.886   7.327  0.3326 -0.3805  0.4450
 3737SOL    HW112933   5.833   8.974   7.301 -1.7696 -0.0514 -0.7308
 3737SOL    HW212934   5.754   8.854   7.254 -0.1097 -2.0820  1.4651
 3738SOL     OW12935   1.672   8.081   5.506 -0.1161  0.6104 -0.2912
 3738SOL    HW112936   1.716   8.090   5.422  0.1468  0.2919 -0.1926
 3738SOL    HW212937   1.632   8.166   5.523  1.5369  1.3071  0.2159
 3739SOL     OW12938   0.480   3.480   5.694  0.7043 -0.0469  0.2046
 3739SOL    HW112939   0.564   3.454   5.733  1.0392  3.0070  1.8081
 3739SOL    HW212940   0.497   3.567   5.657 -1.7514  0.6675  0.5947
 3740SOL     OW12941   0.804   8.668   6.674 -0.5775 -0.0534  0.3613
 3740SOL    HW112942   0.872   8.611   6.709 -1.8774 -1.4370  0.7345
 3740SOL    HW212943   0.725   8.646   6.724 -1.8860 -0.2780 -1.6438
 3741SOL     OW12944   8.435   3.531   4.784 -0.2723  0.4645  0.2423
 3741SOL    HW112945   8.509   3.472   4.772 -0.4310  0.3598 -0.2324
 3741SOL    HW212946   8.399   3.507   4.870  0.7201  1.0605  0.8494
 3742SOL     OW12947   0.530   3.711   5.524 -0.5115  0.0746  0.5078
 3742SOL    HW112948   0.526   3.676   5.435 -1.7447 -1.5022  1.1295
 3742SOL    HW212949   0.544   3.805   5.513 -0.6320 -0.0927 -1.3336
 3743SOL     OW12950   3.069   5.206   6.198  0.0548 -0.2434 -0.0574
 3743SOL    HW112951   3.081   5.123   6.152  0.8958  0.1113 -0.4839
 3743SOL    HW212952   2.974   5.218   6.200 -0.0494 -0.9149 -0.5282
 3744SOL     OW12953   0.436   5.065   8.363  0.2260 -0.2697  0.2019
 3744SOL    HW112954   0.382   5.078   8.285 -0.5665  0.5283  0.8598
 3744SOL    HW212955   0.519   5.109   8.344  1.0792 -2.3552 -1.2161
 3745SOL     OW12956   7.465   5.400   2.849 -0.1600  0.1731  0.0220
 3745SOL    HW112957   7.459   5.345   2.926  0.5683  0.6053  0.3949
 3745SOL    HW212958   7.388   5.377   2.797  0.2198 -1.3164  0.0828
 3746SOL     OW12959   2.229   8.847   7.044  0.4228  0.4069  0.3973
 3746SOL    HW112960   2.259   8.758   7.060 -1.8309 -0.5234 -0.1723
 3746SOL    HW212961   2.266   8.898   7.116  0.9640 -1.1791  1.2973
 3747SOL     OW12962   2.655   3.885   1.266 -0.1196  0.3469  0.3156
 3747SOL    HW112963   2.701   3.899   1.184 -0.1766  1.3758  0.4537
 3747SOL    HW212964   2.693   3.947   1.328  0.1694 -0.6506  1.1819
 3748SOL     OW12965   7.715   0.762   3.395 -0.3934  0.1714 -0.5616
 3748SOL    HW112966   7.720   0.716   3.479  1.0342  1.4849  0.1326
 3748SOL    HW212967   7.796   0.739   3.350  0.5764  2.2685  0.0012
 3749SOL     OW12968   4.654   1.120   2.688  0.2265  0.1225  0.1625
 3749SOL    HW112969   4.560   1.103   2.693  0.5555 -1.5359  1.3444
 3749SOL    HW212970   4.665   1.168   2.605 -1.6013  0.0761 -0.1520
 3750SOL     OW12971   6.384   5.527   0.359 -0.0076  0.0278 -0.5491
 3750SOL    HW112972   6.426   5.549   0.276  0.2602 -1.5935 -0.8701
 3750SOL    HW212973   6.453   5.486   0.411 -0.5525 -0.3773 -0.1265
 3751SOL     OW12974   6.379   3.353   8.846  0.1786 -0.2080 -0.2585
 3751SOL    HW112975   6.428   3.316   8.920 -1.6703 -1.9487  0.1911
 3751SOL    HW212976   6.438   3.345   8.771  0.7644 -1.8379  0.3434
 3752SOL     OW12977   0.180   4.869   2.679 -0.5732  0.6436  0.4617
 3752SOL    HW112978   0.141   4.933   2.619  0.9941  0.5860 -0.6610
 3752SOL    HW212979   0.179   4.787   2.630  1.4329  0.7493  0.1609
 3753SOL     OW12980   2.835   4.637   4.347  0.4107 -0.9034 -0.2705
 3753SOL    HW112981   2.754   4.614   4.392  0.7032  1.7148  1.8448
 3753SOL    HW212982   2.903   4.589   4.394  0.2605 -2.2226 -1.3348
 3754SOL     OW12983   7.624   5.105   8.221  0.1353  0.5065 -0.0507
 3754SOL    HW112984   7.582   5.038   8.168 -1.4960  0.0388  1.7165
 3754SOL    HW212985   7.623   5.070   8.310 -1.0716  2.9554  1.0058
 3755SOL     OW12986   5.392   6.851   6.122  0.2020  0.5425  0.3384
 3755SOL    HW112987   5.331   6.793   6.167 -3.3888  2.8576 -1.1111
 3755SOL    HW212988   5.390   6.932   6.173  1.1657  1.0495 -0.3915
 3756SOL     OW12989   7.777   9.471   8.522 -0.0946  0.2991 -0.3235
 3756SOL    HW112990   7.807   9.524   8.596 -2.5116  1.4129 -0.0498
 3756SOL    HW212991   7.701   9.518   8.488 -0.1980 -1.2002 -2.3220
 3757SOL     OW12992   3.071   1.269   4.910  0.7794 -0.3943  0.0512
 3757SOL    HW112993   3.104   1.354   4.938 -0.1587  0.3222 -0.9510
 3757SOL    HW212994   3.077   1.271   4.815  1.6133 -1.8295  0.0444
 3758SOL     OW12995   6.448   7.079   2.884  0.4252 -0.2265  0.3215
 3758SOL    HW112996   6.372   7.064   2.828  0.2786 -0.3407  0.5487
 3758SOL    HW212997   6.515   7.114   2.825 -0.0561  0.6209  0.2737
 3759SOL     OW12998   1.089   7.673   4.374 -0.2623  0.4386 -0.1689
 3759SOL    HW112999   1.092   7.748   4.315 -1.3786  0.7578  0.1598
 3759SOL    HW213000   1.004   7.680   4.418 -0.0966 -0.6402  0.3606
 3760SOL     OW13001   8.237   0.482   0.999 -0.4193 -0.1289 -0.0512
 3760SOL    HW113002   8.288   0.453   0.923 -1.2137  0.4693 -0.8253
 3760SOL    HW213003   8.229   0.403   1.053  0.7271 -0.3981 -0.2345
 3761SOL     OW13004   7.988   5.623   9.609  0.0679  0.1806 -0.0464
 3761SOL    HW113005   7.935   5.543   9.620  1.4212 -0.7045  0.3380
 3761SOL    HW213006   7.937   5.692   9.651 -0.9183 -0.5836  0.0340
 3762SOL     OW13007   2.525   5.516   3.092  0.4055  0.5727  0.6591
 3762SOL    HW113008   2.576   5.593   3.118  0.8422  0.4078  0.3103
 3762SOL    HW213009   2.591   5.452   3.064  0.2027 -0.7291  2.9330
 3763SOL     OW13010   5.699   7.443   7.562  0.1949 -0.2412  0.1541
 3763SOL    HW113011   5.644   7.473   7.489 -0.9448 -0.6999  0.7999
 3763SOL    HW213012   5.781   7.416   7.520 -1.0111 -2.0480 -1.1965
 3764SOL     OW13013   2.554   6.036   4.600 -0.3166 -0.3160 -0.0721
 3764SOL    HW113014   2.563   5.967   4.666 -2.0445  2.2140  3.0912
 3764SOL    HW213015   2.461   6.036   4.578  0.1166 -0.6443 -2.1056
 3765SOL     OW13016   1.176   8.562   2.706 -0.4768  0.2575  0.3300
 3765SOL    HW113017   1.244   8.528   2.648 -0.0028  0.1314  0.9539
 3765SOL    HW213018   1.100   8.505   2.690 -0.1105 -0.2520  0.3799
 3766SOL     OW13019   6.102   2.504   6.451  0.3215 -0.1527  0.6565
 3766SOL    HW113020   6.022   2.540   6.489  0.0723 -0.4846  0.4489
 3766SOL    HW213021   6.079   2.414   6.428  0.7459 -0.2401  0.5679
 3767SOL     OW13022   7.355   9.658   0.417 -0.3437  0.0995  0.0784
 3767SOL    HW113023   7.300   9.654   0.496 -0.0043  0.3861  0.3282
 3767SOL    HW213024   7.385   9.748   0.413  0.9861 -0.3076  0.5400
 3768SOL     OW13025   7.126   2.603   9.612  0.4352 -0.1802  0.3941
 3768SOL    HW113026   7.092   2.549   9.541 -0.7023 -0.2324  0.9548
 3768SOL    HW213027   7.220   2.586   9.613  0.5144  0.0108 -1.2497
 3769SOL     OW13028   1.490   8.384   8.349  0.1851  0.8338 -0.1966
 3769SOL    HW113029   1.524   8.473   8.358  0.6636  0.5832  0.5668
 3769SOL    HW213030   1.452   8.381   8.261  0.6890  1.6080 -0.4455
 3770SOL     OW13031   4.038   5.985   1.461  0.2904  0.0609 -0.5443
 3770SOL    HW113032   4.052   5.974   1.367 -2.6321  0.9661 -1.1924
 3770SOL    HW213033   3.960   5.933   1.480  0.4945  0.3572  1.2679
 3771SOL     OW13034   5.372   3.731   0.769  0.4705 -0.2291  0.3770
 3771SOL    HW113035   5.455   3.686   0.787  1.0398  1.0798  1.1514
 3771SOL    HW213036   5.370   3.804   0.831 -1.6421 -0.6829  0.9200
 3772SOL     OW13037   8.036   2.880   0.210 -0.3279 -0.1430 -0.1127
 3772SOL    HW113038   8.000   2.795   0.185 -2.1386  0.7611 -0.7750
 3772SOL    HW213039   7.964   2.941   0.196  0.8473  1.4721  0.6038
 3773SOL     OW13040   6.384   5.479   9.271  0.2763 -0.1820 -0.1055
 3773SOL    HW113041   6.458   5.468   9.212  1.2000  1.5447  0.6644
 3773SOL    HW213042   6.360   5.571   9.262 -3.1859 -1.0502 -1.8960
 3774SOL     OW13043   2.708   9.092   2.904  0.2379  0.4114 -0.3302
 3774SOL    HW113044   2.801   9.094   2.879  0.1953 -0.8412 -0.6640
 3774SOL    HW213045   2.692   9.178   2.943  2.2648 -0.2165  2.2289
 3775SOL     OW13046   3.520   9.111   4.715  0.3044 -0.2068  0.0418
 3775SOL    HW113047   3.479   9.070   4.791  1.5590 -2.1535 -0.2400
 3775SOL    HW213048   3.543   9.037   4.658  1.6821  0.9896 -1.0337
 3776SOL     OW13049   3.797   5.380   7.500 -0.3786 -0.4547  0.0501
 3776SOL    HW113050   3.828   5.337   7.420 -1.9794 -0.2518 -0.7176
 3776SOL    HW213051   3.746   5.312   7.545  0.7049 -0.6425  1.0522
 3777SOL     OW13052   0.147   8.552   1.951 -0.7730  0.0363 -0.1280
 3777SOL    HW113053   0.147   8.645   1.927  0.8842  0.6800  2.0872
 3777SOL    HW213054   0.066   8.541   2.002 -0.6828  0.4218  0.1044
 3778SOL     OW13055   1.871   4.191   3.773 -0.2006 -0.3312  0.4858
 3778SOL    HW113056   1.834   4.108   3.802 -1.4155  0.2368  0.6097
 3778SOL    HW213057   1.806   4.226   3.712  0.8678 -0.0370 -0.5077
 3779SOL     OW13058   2.230   1.723   8.779 -0.0434  0.0945 -0.8154
 3779SOL    HW113059   2.204   1.801   8.730 -0.4558 -0.3928 -1.3765
 3779SOL    HW213060   2.225   1.652   8.716  0.3799 -0.3856 -0.3167
 3780SOL     OW13061   5.300   2.829   5.594  0.0918 -0.1922 -0.5448
 3780SOL    HW113062   5.256   2.905   5.555 -3.5952 -1.3307  1.0256
 3780SOL    HW213063   5.313   2.769   5.520 -0.7133  0.3138 -1.1145
 3781SOL     OW13064   7.515   9.644   6.271 -0.0891  0.0803  0.3492
 3781SOL    HW113065   7.521   9.686   6.185  0.1411  1.8075  1.1664
 3781SOL    HW213066   7.582   9.688   6.324  0.4380 -1.6167  1.1671
 3782SOL     OW13067   1.427   6.891   4.925 -0.2282  0.0108 -0.0552
 3782SOL    HW113068   1.346   6.881   4.975  0.7736 -1.5250  1.3396
 3782SOL    HW213069   1.460   6.802   4.914  1.9012  0.6764  0.4955
 3783SOL     OW13070   0.302   5.714   0.164 -0.5762  0.9097 -0.0179
 3783SOL    HW113071   0.217   5.754   0.152 -0.9239  0.3598  0.5284
 3783SOL    HW213072   0.331   5.690   0.076 -0.2408  2.5597 -0.3919
 3784SOL     OW13073   4.192   3.273   7.453  0.0641 -0.1565  0.3952
 3784SOL    HW113074   4.138   3.252   7.529 -0.4758  1.3832  0.4701
 3784SOL    HW213075   4.229   3.359   7.473 -2.5389  1.7909 -2.3197
 3785SOL     OW13076   5.500   6.566   0.043 -0.2695  0.1953  0.2658
 3785SOL    HW113077   5.434   6.511   0.085 -0.4565  1.0318  1.0978
 3785SOL    HW213078   5.583   6.522   0.062 -0.3662  0.4858  1.4137
 3786SOL     OW13079   8.944   0.389   3.185  0.0424  0.1832  0.6038
 3786SOL    HW113080   8.868   0.435   3.150 -0.2408 -0.7473 -0.0462
 3786SOL    HW213081   8.941   0.302   3.144  0.9740 -0.1639  1.2248
 3787SOL     OW13082   5.514   7.418   6.596  0.5647  0.2935  0.0037
 3787SOL    HW113083   5.514   7.410   6.501  1.1107 -0.6490  0.0788
 3787SOL    HW213084   5.600   7.455   6.616  0.4392  0.5164  0.1327
 3788SOL     OW13085   0.176   9.243   4.755  0.0411  0.3752  0.7437
 3788SOL    HW113086   0.089   9.218   4.787 -0.3740 -0.3404 -0.8705
 3788SOL    HW213087   0.159   9.300   4.680  0.9056 -0.8966 -0.4820
 3789SOL     OW13088   6.239   4.003   8.029 -0.0390  0.5005 -0.2689
 3789SOL    HW113089   6.229   4.029   7.938  0.9995  1.7034 -0.0586
 3789SOL    HW213090   6.320   4.044   8.058  0.4987 -1.1628  0.7520
 3790SOL     OW13091   0.792   7.874   1.474  0.2413 -0.5129  0.4367
 3790SOL    HW113092   0.772   7.785   1.502  0.2260 -0.2434  1.3080
 3790SOL    HW213093   0.707   7.918   1.467  0.2386 -0.5953 -0.1206
 3791SOL     OW13094   3.946   0.555   7.546 -0.0937 -0.5062 -0.0267
 3791SOL    HW113095   3.998   0.547   7.626  1.9296  0.9821 -1.1093
 3791SOL    HW213096   4.009   0.583   7.480 -2.4311  2.3177 -1.2444
 3792SOL     OW13097   3.130   9.117   1.839  0.2143 -0.4991 -0.1990
 3792SOL    HW113098   3.212   9.102   1.886 -1.1383 -0.0618  2.4595
 3792SOL    HW213099   3.140   9.205   1.802  0.7224 -0.1774  0.6586
 3793SOL     OW13100   3.722   8.428   1.861  0.2623 -0.6975  0.4605
 3793SOL    HW113101   3.650   8.434   1.924  1.1603  0.1372  1.4345
 3793SOL    HW213102   3.782   8.365   1.898  1.9156  1.4510  1.6720
 3794SOL     OW13103   5.123   3.012   1.902  0.2942 -0.0595 -0.2297
 3794SOL    HW113104   5.118   3.049   1.991  2.7118  1.6376 -0.6836
 3794SOL    HW213105   5.043   3.042   1.859  0.3663  1.4286  0.6052
 3795SOL     OW13106   5.951   2.087   0.175 -0.7457  0.1688  0.1981
 3795SOL    HW113107   5.949   2.009   0.231 -0.8265 -0.0543 -0.1111
 3795SOL    HW213108   5.907   2.155   0.226 -1.5688 -0.2608  0.0602
 3796SOL     OW13109   1.289   3.723   7.607  0.0158  0.2227  0.2334
 3796SOL    HW113110   1.245   3.763   7.682 -1.6329  0.8125 -0.9730
 3796SOL    HW213111   1.247   3.638   7.597  1.3322 -0.5261  0.9053
 3797SOL     OW13112   1.126   6.783   0.260 -0.6055 -0.1078  0.0447
 3797SOL    HW113113   1.157   6.696   0.284 -0.0735 -0.0511 -0.4309
 3797SOL    HW213114   1.205   6.833   0.242 -0.9633 -0.2115 -2.0813
 3798SOL     OW13115   3.873   1.076   7.662 -0.4101  0.0275  0.0812
 3798SOL    HW113116   3.827   1.007   7.711 -0.3069  0.2984  0.5739
 3798SOL    HW213117   3.965   1.060   7.678 -0.2758 -0.9633 -1.5229
 3799SOL     OW13118   5.855   5.310   7.982  0.3909  0.2773  0.9725
 3799SOL    HW113119   5.789   5.257   7.937  1.8972  0.7495 -2.0263
 3799SOL    HW213120   5.805   5.360   8.047 -1.9780 -0.3779 -0.2458
 3800SOL     OW13121   4.487   6.239   5.227  0.0333 -0.2151  0.1047
 3800SOL    HW113122   4.556   6.194   5.275 -2.1833 -3.1191  0.8552
 3800SOL    HW213123   4.513   6.232   5.135  0.7687 -1.2768  0.3778
 3801SOL     OW13124   0.448   8.142   7.627  0.2100  0.3448  0.2647
 3801SOL    HW113125   0.486   8.128   7.714 -0.0883  1.1999  0.5446
 3801SOL    HW213126   0.356   8.162   7.643 -0.0942 -0.5230 -0.3290
 3802SOL     OW13127   9.410   7.256   1.645  0.5260  0.1023  0.0226
 3802SOL    HW113128   9.473   7.185   1.634  0.7237  0.1274  0.9180
 3802SOL    HW213129   9.445   7.328   1.592  2.6316  0.9869  2.3713
 3803SOL     OW13130   9.572   7.679   3.822 -0.6796 -0.4793 -0.1342
 3803SOL    HW113131   9.556   7.585   3.816  1.3838 -1.1541  2.6912
 3803SOL    HW213132   9.517   7.708   3.895  0.8473 -0.1640  0.9437
 3804SOL     OW13133   8.325   0.832   1.016  0.3100 -0.3287 -0.3250
 3804SOL    HW113134   8.345   0.917   0.976 -0.2068  0.1134  0.3134
 3804SOL    HW213135   8.233   0.816   0.993  0.6927 -1.2098 -1.2893
 3805SOL     OW13136   3.258   0.176   4.708 -0.0774 -0.0682  0.6991
 3805SOL    HW113137   3.257   0.081   4.704 -0.7134 -0.0419  0.0276
 3805SOL    HW213138   3.325   0.202   4.644 -0.6781 -0.0400  0.0711
 3806SOL     OW13139   9.442   7.238   7.904  0.0602  0.1813  0.7144
 3806SOL    HW113140   9.360   7.204   7.940 -2.8002  1.8032 -3.4431
 3806SOL    HW213141   9.493   7.160   7.884 -1.9275 -1.1573  0.5266
 3807SOL     OW13142   9.643   2.236   9.011  0.1903  0.3077 -0.0432
 3807SOL    HW113143   9.578   2.305   8.998  1.0013  1.4129  1.4674
 3807SOL    HW213144   9.607   2.181   9.080  0.8629  0.9873  0.8776
 3808SOL     OW13145   1.921   3.527   2.811  0.6299 -0.8112  0.1219
 3808SOL    HW113146   1.989   3.499   2.750 -0.9287 -0.0327 -2.1210
 3808SOL    HW213147   1.861   3.453   2.817  0.8447 -0.9339  0.8448
 3809SOL     OW13148   8.487   4.030   6.863  0.1781  0.3172  0.6843
 3809SOL    HW113149   8.542   4.069   6.931  0.9360  0.2007  0.1535
 3809SOL    HW213150   8.398   4.055   6.886  0.3320 -0.4690  2.2235
 3810SOL     OW13151   4.813   5.029   0.657 -0.6778 -0.6380  0.0544
 3810SOL    HW113152   4.747   5.096   0.638 -1.8520 -1.9563 -0.7164
 3810SOL    HW213153   4.762   4.952   0.683  0.5553 -1.6618 -0.4585
 3811SOL     OW13154   4.519   0.330   3.185 -0.4031 -0.2410  0.6983
 3811SOL    HW113155   4.472   0.273   3.246 -0.8840 -1.5022 -0.7806
 3811SOL    HW213156   4.463   0.333   3.107  0.3001  1.1207  0.2162
 3812SOL     OW13157   8.880   8.960   3.566  0.3090  0.1844 -0.3855
 3812SOL    HW113158   8.825   9.025   3.611 -1.0557 -0.0141 -1.6748
 3812SOL    HW213159   8.953   9.011   3.531  0.6664  0.5612  0.8655
 3813SOL     OW13160   2.313   3.696   3.975 -0.0438 -0.3100  0.0916
 3813SOL    HW113161   2.257   3.619   3.973  0.0771 -0.6258  3.3208
 3813SOL    HW213162   2.260   3.765   3.937 -0.4242 -1.7657 -2.1844
 3814SOL     OW13163   1.342   8.615   4.047 -0.0396  0.4662  0.3378
 3814SOL    HW113164   1.358   8.563   3.968  0.1296  0.6580  0.2445
 3814SOL    HW213165   1.342   8.705   4.017  0.9817  0.6072  0.7040
 3815SOL     OW13166   3.526   8.463   4.354  0.6044 -0.0880  0.2299
 3815SOL    HW113167   3.557   8.526   4.290  0.8558  0.0047  0.4392
 3815SOL    HW213168   3.559   8.496   4.438 -1.5899  1.0321  0.7233
 3816SOL     OW13169   5.332   7.500   6.789  0.4924  0.2109  0.1856
 3816SOL    HW113170   5.255   7.527   6.740 -0.0647  1.0030  1.4742
 3816SOL    HW213171   5.394   7.472   6.722 -1.2218 -1.3301 -0.8402
 3817SOL     OW13172   4.237   5.967   5.413 -0.2221  0.1335 -0.1352
 3817SOL    HW113173   4.238   5.943   5.320  0.0398  0.2716 -0.1696
 3817SOL    HW213174   4.211   5.887   5.458 -0.7606  0.1766 -0.3588
 3818SOL     OW13175   1.572   1.941   2.974 -0.6828  0.2362  0.3211
 3818SOL    HW113176   1.582   1.943   2.879 -0.5710  0.2579  0.3333
 3818SOL    HW213177   1.574   2.033   3.001 -0.6982  0.2294  0.3460
 3819SOL     OW13178   4.922   8.145   8.369  0.0433 -0.3057 -0.2828
 3819SOL    HW113179   5.013   8.140   8.339  0.7605  3.7071  0.6175
 3819SOL    HW213180   4.928   8.124   8.463 -0.1384 -0.9203 -0.4052
 3820SOL     OW13181   3.784   7.440   4.232 -0.3877 -0.3022  0.5806
 3820SOL    HW113182   3.804   7.475   4.319 -1.7565 -2.1937  1.7065
 3820SOL    HW213183   3.723   7.369   4.248 -0.2263 -1.0775 -1.9082
 3821SOL     OW13184   5.064   9.330   6.655 -0.0564 -0.4270  0.2096
 3821SOL    HW113185   5.046   9.337   6.562  1.5595 -0.5271 -0.1314
 3821SOL    HW213186   5.088   9.419   6.682 -1.5876 -0.1497  0.8092
 3822SOL     OW13187   8.737   4.256   0.590  0.0338 -0.4010 -0.4585
 3822SOL    HW113188   8.807   4.213   0.639 -0.1139  0.7719  0.8276
 3822SOL    HW213189   8.684   4.300   0.657 -1.5175 -0.6494 -1.4644
 3823SOL     OW13190   4.124   7.317   4.872  0.2951 -0.4702  0.3290
 3823SOL    HW113191   4.210   7.330   4.912  0.6884 -1.3897 -0.1816
 3823SOL    HW213192   4.066   7.378   4.917  1.2489  0.2578  0.5847
 3824SOL     OW13193   0.776   7.607   1.490 -0.4892 -0.6102  0.1232
 3824SOL    HW113194   0.828   7.558   1.426 -1.3890  1.1071 -2.0852
 3824SOL    HW213195   0.697   7.554   1.501 -0.7123 -0.5298 -0.9229
 3825SOL     OW13196   9.448   7.772   2.026 -0.4095 -0.3263 -0.2091
 3825SOL    HW113197   9.444   7.677   2.013  1.8063 -0.6683  1.0369
 3825SOL    HW213198   9.490   7.782   2.112 -1.2612  1.8062  0.0174
 3826SOL     OW13199   8.599   8.014   0.459  0.3894  0.0057 -0.9000
 3826SOL    HW113200   8.579   8.083   0.396 -1.8745  1.0961  0.8399
 3826SOL    HW213201   8.582   7.933   0.412 -0.6378  0.7678 -1.9090
 3827SOL     OW13202   5.482   0.559   0.777  0.2764  0.1715 -0.1700
 3827SOL    HW113203   5.562   0.522   0.816  0.3086  0.5434  0.1184
 3827SOL    HW213204   5.475   0.516   0.691  1.1265  0.5937 -0.4602
 3828SOL     OW13205   9.428   0.074   9.096 -0.1747  0.5384  0.4435
 3828SOL    HW113206   9.454   0.099   9.185  1.5571  1.5010 -0.2935
 3828SOL    HW213207   9.495   0.013   9.067 -1.1611 -0.3909  0.0580
 3829SOL     OW13208   8.290   6.976   0.144 -0.0882 -0.2392 -0.2928
 3829SOL    HW113209   8.357   6.930   0.195  1.0808  0.6875 -0.9279
 3829SOL    HW213210   8.245   6.907   0.095  0.3106 -0.8994  0.2654
 3830SOL     OW13211   5.759   4.125   0.782  0.3786 -0.0035 -0.5002
 3830SOL    HW113212   5.777   4.189   0.714  0.1255  0.8167  0.1887
 3830SOL    HW213213   5.724   4.176   0.855 -0.2078 -0.9722 -0.0781
 3831SOL     OW13214   5.848   2.223   4.558 -0.0452 -0.8033  0.4336
 3831SOL    HW113215   5.923   2.210   4.500 -0.8523  1.4324 -1.2691
 3831SOL    HW213216   5.805   2.302   4.524 -3.1533 -1.9569  1.3539
 3832SOL     OW13217   7.045   9.273   8.709 -1.1842  0.0755 -0.4782
 3832SOL    HW113218   7.093   9.217   8.648 -1.3314  0.3927 -0.8892
 3832SOL    HW213219   6.954   9.268   8.678 -1.3992 -0.4010  0.1973
 3833SOL     OW13220   6.044   1.279   0.527  0.0667  0.1518 -0.0727
 3833SOL    HW113221   6.037   1.325   0.611  0.9377  0.3399 -0.0965
 3833SOL    HW213222   6.133   1.245   0.525 -0.5438 -1.5099 -0.0923
 3834SOL     OW13223   4.697   2.325   3.070 -0.3481 -0.5174  0.1301
 3834SOL    HW113224   4.604   2.327   3.091 -0.3696  0.4721 -0.0258
 3834SOL    HW213225   4.707   2.385   2.996  0.5263 -0.0371  0.6132
 3835SOL     OW13226   9.083   6.563   4.049  0.7875 -0.0943 -0.3512
 3835SOL    HW113227   9.039   6.601   4.126  1.4744 -0.3631  0.1884
 3835SOL    HW213228   9.149   6.504   4.086 -0.1874 -1.7463 -1.1791
 3836SOL     OW13229   9.300   4.042   7.013  0.0920  0.2162 -0.2404
 3836SOL    HW113230   9.253   4.071   7.091 -0.5486  0.7584 -0.8094
 3836SOL    HW213231   9.232   4.008   6.955  0.4196  0.7575 -0.9633
 3837SOL     OW13232   2.573   8.494   2.577  0.3518 -0.2705  0.5612
 3837SOL    HW113233   2.479   8.481   2.578  0.4187 -0.9116 -0.2593
 3837SOL    HW213234   2.610   8.405   2.580  0.8678 -0.2341 -2.1947
 3838SOL     OW13235   7.936   7.848   0.559 -0.0228 -0.1580  0.9241
 3838SOL    HW113236   7.917   7.936   0.526 -0.0070  0.2676  2.0258
 3838SOL    HW213237   7.853   7.818   0.596 -0.3552 -1.1056 -0.5135
 3839SOL     OW13238   9.448   6.870   6.678  0.2967  0.0063 -0.1168
 3839SOL    HW113239   9.433   6.955   6.638  0.9628  0.3836  0.4077
 3839SOL    HW213240   9.392   6.869   6.756 -0.8793 -0.6640 -0.9384
 3840SOL     OW13241   3.783   9.135   6.811 -0.8078 -0.3474 -0.5040
 3840SOL    HW113242   3.827   9.110   6.892  2.0414 -2.1445 -2.4060
 3840SOL    HW213243   3.738   9.217   6.832 -0.2930 -0.7821  2.8579
 3841SOL     OW13244   6.013   5.568   2.617 -0.1118 -0.2851 -0.5158
 3841SOL    HW113245   6.087   5.513   2.589 -1.2524 -1.4569 -1.3796
 3841SOL    HW213246   5.990   5.536   2.704  0.0735 -0.2767 -0.4646
 3842SOL     OW13247   1.506   9.079   7.290  0.1939  0.2872 -0.2451
 3842SOL    HW113248   1.538   9.020   7.222 -0.7884 -1.2951  0.5856
 3842SOL    HW213249   1.536   9.166   7.263  1.1447 -0.4908 -1.8631
 3843SOL     OW13250   1.621   0.126   5.854 -0.6961  0.2580  0.3828
 3843SOL    HW113251   1.610   0.177   5.934 -0.6123 -1.0589  1.2832
 3843SOL    HW213252   1.614   0.035   5.883  0.8352 -0.3099 -0.8585
 3844SOL     OW13253   1.958   4.764   7.073 -0.1623 -0.4865 -0.3135
 3844SOL    HW113254   1.888   4.830   7.076 -1.7315 -2.0864 -0.4294
 3844SOL    HW213255   2.035   4.813   7.043 -1.2367  1.3094 -0.3066
 3845SOL     OW13256   6.961   6.852   7.900 -1.0240 -0.4039  0.2277
 3845SOL    HW113257   7.041   6.892   7.866 -1.2491 -0.3507 -0.2528
 3845SOL    HW213258   6.938   6.786   7.834 -1.3420 -0.4564  0.3906
 3846SOL     OW13259   2.851   0.597   6.326  0.3240  0.1871  0.0960
 3846SOL    HW113260   2.935   0.553   6.309  0.1848 -0.3428  0.7452
 3846SOL    HW213261   2.837   0.651   6.249  0.0511 -1.6091 -1.1603
 3847SOL     OW13262   4.847   3.758   6.368 -0.4092  0.3180  0.2450
 3847SOL    HW113263   4.845   3.844   6.409 -1.5153  0.5302 -0.2312
 3847SOL    HW213264   4.759   3.745   6.334 -0.6105 -1.5107  1.3244
 3848SOL     OW13265   0.914   3.446   4.439  0.2083  0.0590  0.2441
 3848SOL    HW113266   0.917   3.538   4.412  1.2588 -0.2741 -0.8519
 3848SOL    HW213267   0.942   3.397   4.362  0.1891 -1.1571  0.9760
 3849SOL     OW13268   2.823   6.465   4.022  0.4797 -0.3216  0.2337
 3849SOL    HW113269   2.882   6.473   4.097 -0.9698  1.2149  1.2508
 3849SOL    HW213270   2.856   6.529   3.959 -1.0677  1.8795  1.5306
 3850SOL     OW13271   4.185   4.866   2.414 -0.4492 -0.4235  0.4863
 3850SOL    HW113272   4.105   4.916   2.431 -0.2828  0.1046 -0.2255
 3850SOL    HW213273   4.184   4.850   2.319  1.4876  1.7517  0.0107
 3851SOL     OW13274   3.366   9.160   2.674  0.0203  0.3759 -0.6300
 3851SOL    HW113275   3.400   9.150   2.763  1.3347  1.8002 -0.9310
 3851SOL    HW213276   3.424   9.224   2.633 -0.0052 -0.8789 -2.7912
 3852SOL     OW13277   5.155   0.230   1.446  0.3181  0.6766  0.0713
 3852SOL    HW113278   5.151   0.175   1.525 -0.4132  3.2166  1.9536
 3852SOL    HW213279   5.241   0.272   1.452 -0.0778  1.5084 -0.0027
 3853SOL     OW13280   2.395   5.744   5.140 -0.3681 -0.1225  0.3365
 3853SOL    HW113281   2.425   5.835   5.131 -0.1668 -0.0578  1.5005
 3853SOL    HW213282   2.453   5.707   5.206 -0.2825 -1.1814 -0.3218
 3854SOL     OW13283   4.983   3.016   3.446 -0.1711  0.5451 -0.0224
 3854SOL    HW113284   5.048   2.959   3.405  0.2241  1.8972 -1.3904
 3854SOL    HW213285   4.906   3.009   3.389 -0.5695  0.3659  0.5383
 3855SOL     OW13286   8.150   1.227   1.817 -0.2144 -0.0577  0.4579
 3855SOL    HW113287   8.111   1.194   1.898 -3.6480 -1.7032 -1.6153
 3855SOL    HW213288   8.185   1.149   1.773  0.1902  0.5566 -0.3560
 3856SOL     OW13289   5.904   0.855   8.909 -0.7230  0.1106 -0.1398
 3856SOL    HW113290   5.816   0.865   8.871 -0.6474  2.9147  0.1913
 3856SOL    HW213291   5.962   0.901   8.847  0.3926 -0.9427  0.0873
 3857SOL     OW13292   9.459   5.385   3.055  0.1231  0.0739  0.1467
 3857SOL    HW113293   9.490   5.359   3.142  0.3960  3.8420  1.3199
 3857SOL    HW213294   9.364   5.388   3.064 -0.0292 -1.7646 -0.4551
 3858SOL     OW13295   3.330   3.822   3.558 -0.6024  0.2188  1.1368
 3858SOL    HW113296   3.317   3.764   3.482 -1.6373  1.7244  0.1111
 3858SOL    HW213297   3.404   3.783   3.606  0.0265 -0.8127 -0.5890
 3859SOL     OW13298   1.442   4.018   4.384  0.1070  0.9732 -0.2085
 3859SOL    HW113299   1.432   4.101   4.430 -1.7451 -0.1120  1.5113
 3859SOL    HW213300   1.352   3.987   4.372  0.6256  0.2874 -2.9592
 3860SOL     OW13301   4.260   5.250   7.009  0.4618  0.0986  1.0010
 3860SOL    HW113302   4.288   5.336   6.977 -1.7673  1.0513  1.3708
 3860SOL    HW213303   4.340   5.199   7.017  1.5678  1.2540 -1.7800
 3861SOL     OW13304   5.047   5.122   7.007  0.2805 -0.5769  0.3898
 3861SOL    HW113305   5.014   5.033   7.014 -3.2097  0.3716 -1.6055
 3861SOL    HW213306   4.987   5.174   7.060  0.4234  0.9092 -0.8308
 3862SOL     OW13307   9.359   1.869   4.109  0.3047 -0.8613  0.5495
 3862SOL    HW113308   9.403   1.881   4.025  2.1997  0.0207  1.5909
 3862SOL    HW213309   9.332   1.957   4.135 -0.0830 -1.0984  0.9687
 3863SOL     OW13310   6.440   5.121   6.639 -0.6735  0.2295 -0.2086
 3863SOL    HW113311   6.348   5.138   6.660 -0.8866 -0.1094 -0.8648
 3863SOL    HW213312   6.439   5.087   6.550  0.0910  0.2194 -0.2201
 3864SOL     OW13313   4.546   1.763   1.760 -0.7490 -0.0677 -0.3519
 3864SOL    HW113314   4.456   1.795   1.749 -0.8935 -0.1997  0.3361
 3864SOL    HW213315   4.601   1.838   1.739 -0.9932 -0.1704 -1.4120
 3865SOL     OW13316   6.323   6.729   7.369 -0.3599 -0.3351 -0.4542
 3865SOL    HW113317   6.351   6.800   7.311  1.3431 -0.1389  0.5283
 3865SOL    HW213318   6.327   6.768   7.457  1.3555 -1.8214  0.1829
 3866SOL     OW13319   2.834   7.530   7.317  0.2460 -0.3690 -0.4850
 3866SOL    HW113320   2.747   7.570   7.310  0.9035  1.1393 -0.2203
 3866SOL    HW213321   2.817   7.444   7.355 -1.4834 -1.4587 -3.3787
 3867SOL     OW13322   3.576   1.428   7.767 -0.4181  0.8185 -0.1592
 3867SOL    HW113323   3.541   1.343   7.742 -0.7836  0.5560  1.1398
 3867SOL    HW213324   3.517   1.458   7.837  0.5083  1.5114  0.3418
 3868SOL     OW13325   1.062   2.297   6.171  0.6648  0.6712 -0.0857
 3868SOL    HW113326   1.124   2.314   6.099  0.8637  0.7203  0.0971
 3868SOL    HW213327   0.976   2.313   6.132  0.7628  0.5629 -0.3553
 3869SOL     OW13328   6.016   7.935   2.157 -0.0646 -0.2114  0.3019
 3869SOL    HW113329   6.066   7.983   2.090 -0.3735  0.1635  0.3369
 3869SOL    HW213330   5.977   7.862   2.109  1.2316 -1.0368  0.4447
 3870SOL     OW13331   2.412   0.775   3.348 -0.1989  0.2273  0.2723
 3870SOL    HW113332   2.403   0.702   3.286  0.3761  0.3629  0.0284
 3870SOL    HW213333   2.449   0.735   3.427  2.8372  0.6794 -0.7922
 3871SOL     OW13334   2.067   0.863   0.407  0.1708 -0.0009 -0.4349
 3871SOL    HW113335   2.142   0.860   0.347 -1.0532 -3.0265 -2.0191
 3871SOL    HW213336   1.991   0.867   0.350 -0.9863  1.6479  1.1183
 3872SOL     OW13337   5.407   2.015   3.876 -0.1515 -0.0957 -0.0069
 3872SOL    HW113338   5.316   1.988   3.890 -0.2271  0.6784  1.1882
 3872SOL    HW213339   5.402   2.095   3.825 -0.2008  0.3637  0.6989
 3873SOL     OW13340   5.911   1.084   1.418 -0.0334  0.2279  0.2440
 3873SOL    HW113341   5.945   1.142   1.351  2.9821 -1.4407  0.1760
 3873SOL    HW213342   5.867   1.143   1.480  1.4381  2.3906 -0.6402
 3874SOL     OW13343   3.506   5.914   1.292 -0.1961 -0.3282  0.3429
 3874SOL    HW113344   3.517   5.821   1.269  1.1808  0.2581 -1.5781
 3874SOL    HW213345   3.425   5.940   1.246 -0.0578 -0.3473  0.0860
 3875SOL     OW13346   1.480   0.517   3.368  0.8199 -0.4495  0.1642
 3875SOL    HW113347   1.455   0.498   3.458  2.6913 -0.5751  0.6954
 3875SOL    HW213348   1.553   0.458   3.351  0.8773 -0.0077 -1.2386
 3876SOL     OW13349   1.158   9.601   4.578 -0.1726 -0.3249 -0.3158
 3876SOL    HW113350   1.111   9.679   4.549 -1.0582 -1.4571 -2.1266
 3876SOL    HW213351   1.155   9.606   4.674 -0.4704  1.6694 -0.3716
 3877SOL     OW13352   0.081   0.740   8.400 -0.2859 -1.0580 -0.2382
 3877SOL    HW113353   0.130   0.733   8.318 -0.9010 -2.3258 -0.5159
 3877SOL    HW213354  -0.008   0.715   8.377 -0.5258 -1.1601  0.7682
 3878SOL     OW13355   3.579   1.780   2.393 -0.1834  0.3892  0.3784
 3878SOL    HW113356   3.491   1.807   2.418 -0.6901 -0.8735  0.0570
 3878SOL    HW213357   3.633   1.800   2.469 -0.5753  1.9362  0.2771
 3879SOL     OW13358   2.214   7.888   9.489  0.3711 -0.2344  0.0441
 3879SOL    HW113359   2.189   7.798   9.510  1.2373 -0.6127 -0.4824
 3879SOL    HW213360   2.204   7.936   9.572 -0.3423 -0.7536  0.2620
 3880SOL     OW13361   2.634   6.629   5.889  0.4885  0.4262 -0.2057
 3880SOL    HW113362   2.605   6.679   5.966  1.5816 -0.4787  0.8384
 3880SOL    HW213363   2.682   6.554   5.926 -0.3298 -0.9155 -1.7274
 3881SOL     OW13364   9.498   8.759   2.329  0.2253 -0.3491 -0.0742
 3881SOL    HW113365   9.553   8.687   2.359  0.5916 -0.3963 -0.8489
 3881SOL    HW213366   9.543   8.794   2.252 -0.9621 -0.5739 -0.8953
 3882SOL     OW13367   3.124   0.841   0.015  0.0566  0.5294 -0.1852
 3882SOL    HW113368   3.091   0.780  -0.051  1.6515 -2.6835  1.7890
 3882SOL    HW213369   3.054   0.846   0.080  0.2829  0.0616  0.0971
 3883SOL     OW13370   7.501   7.331   2.411 -0.5427  0.0802 -0.1550
 3883SOL    HW113371   7.477   7.334   2.318 -0.4069 -1.3357 -0.2550
 3883SOL    HW213372   7.589   7.295   2.412  0.1697  1.7134  0.4560
 3884SOL     OW13373   4.199   8.479   7.962  0.3434 -0.5081 -0.1927
 3884SOL    HW113374   4.283   8.483   7.917  1.0520 -1.0117  1.0310
 3884SOL    HW213375   4.134   8.501   7.895  1.3739 -0.9614 -1.3689
 3885SOL     OW13376   8.665   4.978   6.662 -0.0317  0.1443  0.3977
 3885SOL    HW113377   8.614   5.014   6.590 -0.3798 -2.5768 -0.8078
 3885SOL    HW213378   8.600   4.943   6.723  0.3175  0.9335  1.2657
 3886SOL     OW13379   9.004   7.869   7.213 -0.7301  0.1533  0.5096
 3886SOL    HW113380   9.028   7.777   7.222 -0.6120  0.2872  1.7067
 3886SOL    HW213381   8.988   7.881   7.120 -0.6816 -1.0619  0.3366
 3887SOL     OW13382   7.783   8.454   7.391  0.2278 -0.7048 -0.5581
 3887SOL    HW113383   7.843   8.386   7.362  0.5377 -0.5855 -0.2195
 3887SOL    HW213384   7.828   8.536   7.369  0.1501 -0.6143 -0.3842
 3888SOL     OW13385   1.871   3.411   5.357 -0.0679 -0.7115 -0.3302
 3888SOL    HW113386   1.959   3.379   5.340 -0.8304 -2.6742 -0.8727
 3888SOL    HW213387   1.826   3.403   5.273 -0.8656 -0.0321  0.0158
 3889SOL     OW13388   2.867   6.921   5.443 -0.0184  0.0789 -0.0648
 3889SOL    HW113389   2.938   6.858   5.449  1.2206  1.4422  0.1984
 3889SOL    HW213390   2.882   6.967   5.360 -1.4743 -0.6132 -0.7385
 3890SOL     OW13391   5.824   3.827   2.417  0.2332 -0.2658  0.3840
 3890SOL    HW113392   5.758   3.896   2.423 -0.4147 -0.5066 -2.4436
 3890SOL    HW213393   5.884   3.857   2.348 -0.1155 -2.4685 -0.9951
 3891SOL     OW13394   0.615   5.030   4.527 -0.4932  0.2210  0.2338
 3891SOL    HW113395   0.709   5.028   4.510 -0.4535  0.1254  0.4653
 3891SOL    HW213396   0.597   4.947   4.572 -0.8903 -0.3112 -0.8601
 3892SOL     OW13397   3.671   5.750   3.504 -0.5051 -0.1431  0.3003
 3892SOL    HW113398   3.677   5.766   3.598 -1.9571  1.4640  0.1712
 3892SOL    HW213399   3.662   5.655   3.496 -2.0464 -0.1764  1.9142
 3893SOL     OW13400   7.558   7.558   3.655 -0.2870 -0.2662 -0.1619
 3893SOL    HW113401   7.621   7.487   3.670  0.4458  0.3156 -0.4334
 3893SOL    HW213402   7.497   7.521   3.591 -0.4798 -0.9812  0.4166
 3894SOL     OW13403   0.546   8.466   8.367 -0.5163  0.2250  0.0433
 3894SOL    HW113404   0.496   8.497   8.443  2.1451  0.4696  1.8642
 3894SOL    HW213405   0.602   8.540   8.344  0.7331 -0.7898 -0.2774
 3895SOL     OW13406   3.359   6.011   6.283 -0.0113 -0.1515  0.0098
 3895SOL    HW113407   3.391   5.986   6.196 -0.5498 -0.2020 -0.1735
 3895SOL    HW213408   3.324   5.930   6.319  1.4140 -0.4503  0.8211
 3896SOL     OW13409   3.876   8.177   4.495 -0.3159  0.0173 -0.0553
 3896SOL    HW113410   3.859   8.104   4.434  0.4634 -0.7091  0.5773
 3896SOL    HW213411   3.971   8.181   4.501 -0.3232  1.4812 -0.5174
 3897SOL     OW13412   4.107   3.692   4.124  0.1993 -0.9082 -0.1379
 3897SOL    HW113413   4.084   3.601   4.140  2.9071 -1.9724 -1.6891
 3897SOL    HW213414   4.158   3.718   4.201 -3.6513  0.6980  2.1649
 3898SOL     OW13415   6.567   7.207   3.593  0.0605 -0.3236 -0.0692
 3898SOL    HW113416   6.619   7.145   3.542 -0.8390 -1.3546  0.2365
 3898SOL    HW213417   6.495   7.232   3.536  1.3045  1.8156 -0.8356
 3899SOL     OW13418   9.515   6.809   2.666 -0.1682  0.2838  0.3731
 3899SOL    HW113419   9.543   6.783   2.754 -0.1061 -2.9948 -0.4728
 3899SOL    HW213420   9.596   6.804   2.614 -0.7159 -0.7593 -0.4091
 3900SOL     OW13421   9.471   1.414   6.272  0.0421  0.0854 -0.0646
 3900SOL    HW113422   9.480   1.348   6.202  3.6105 -1.9323  1.9810
 3900SOL    HW213423   9.517   1.375   6.347 -2.5886  2.6071  3.1301
 3901SOL     OW13424   8.197   7.308   8.758 -0.2630 -0.1806  0.1740
 3901SOL    HW113425   8.205   7.304   8.854 -0.7831 -0.1210  0.2187
 3901SOL    HW213426   8.288   7.314   8.728 -0.0415 -1.1092  0.6144
 3902SOL     OW13427   8.375   6.996   6.839 -0.0463 -0.1816 -0.0183
 3902SOL    HW113428   8.438   7.009   6.769 -0.2658 -1.0692 -0.3922
 3902SOL    HW213429   8.331   7.081   6.847  1.0654  0.4006  0.1432
 3903SOL     OW13430   1.078   1.895   5.158  0.2906  0.2841  0.0333
 3903SOL    HW113431   0.998   1.943   5.179  1.0202  1.0764  1.1081
 3903SOL    HW213432   1.094   1.916   5.066 -0.0319  1.1841  0.1694
 3904SOL     OW13433   4.360   4.486   9.469  0.0236  0.1602  0.2859
 3904SOL    HW113434   4.364   4.437   9.552  0.4250 -0.8156 -0.2911
 3904SOL    HW213435   4.340   4.419   9.403 -0.5415  0.9618 -0.3836
 3905SOL     OW13436   3.910   8.921   0.257 -0.4449 -0.0226 -0.4170
 3905SOL    HW113437   3.829   8.883   0.222  0.0094  0.7147 -2.4078
 3905SOL    HW213438   3.909   8.898   0.350 -1.7611 -2.0782 -0.8648
 3906SOL     OW13439   9.325   6.045   0.886  0.0427 -0.0180  0.4205
 3906SOL    HW113440   9.334   6.115   0.952  0.3392  0.3347  0.0109
 3906SOL    HW213441   9.276   5.976   0.931  1.4021 -0.3447  1.4399
 3907SOL     OW13442   1.667   7.685   8.770 -0.0090  0.2983  0.3682
 3907SOL    HW113443   1.650   7.642   8.853 -1.9642  0.9284  0.3530
 3907SOL    HW213444   1.605   7.758   8.768  0.5805  0.8028 -1.2677
 3908SOL     OW13445   5.820   6.278   3.224  0.1375  0.2716  0.3332
 3908SOL    HW113446   5.814   6.253   3.132 -0.6617  0.3621  0.3508
 3908SOL    HW213447   5.912   6.301   3.237  0.7135 -1.6996  0.0763
 3909SOL     OW13448   6.350   4.618   9.571  0.4453 -0.3153 -0.2907
 3909SOL    HW113449   6.417   4.685   9.581  1.0661 -0.3311 -3.2151
 3909SOL    HW213450   6.275   4.664   9.533  0.5553 -1.0452 -1.4665
 3910SOL     OW13451   4.754   7.928   6.063 -0.0619  0.0232  0.1226
 3910SOL    HW113452   4.788   7.897   6.147 -1.0297  0.9145  0.8556
 3910SOL    HW213453   4.697   7.858   6.032  0.5750 -0.4612  0.0131
 3911SOL     OW13454   6.716   7.986   8.301  0.6955  0.2118  0.0150
 3911SOL    HW113455   6.673   7.920   8.247  0.0613 -0.9712  1.8683
 3911SOL    HW213456   6.690   8.070   8.263 -0.8977 -0.5602 -0.6448
 3912SOL     OW13457   5.920   3.760   2.061 -0.5218  0.3073 -0.2572
 3912SOL    HW113458   5.938   3.854   2.073  0.2768  0.2599 -0.9709
 3912SOL    HW213459   5.888   3.753   1.971  0.7995 -0.2706 -0.7084
 3913SOL     OW13460   9.553   2.821   5.818 -0.0771  0.3699 -0.7490
 3913SOL    HW113461   9.514   2.753   5.873 -0.0301  1.8460  1.2164
 3913SOL    HW213462   9.645   2.794   5.810  0.0626  0.4117  0.4376
 3914SOL     OW13463   6.892   5.517   9.036  0.4541 -0.5668  0.0072
 3914SOL    HW113464   6.977   5.560   9.041  0.4700 -0.2643 -2.0770
 3914SOL    HW213465   6.909   5.437   8.985 -0.9063  0.7926 -2.7760
 3915SOL     OW13466   2.747   4.740   4.740 -0.3770  0.1345  0.1379
 3915SOL    HW113467   2.655   4.754   4.721 -0.3705  2.0796  1.2499
 3915SOL    HW213468   2.782   4.699   4.661 -1.7531  1.4563 -1.2355
 3916SOL     OW13469   8.051   7.982   6.642  0.1215  0.4354 -0.1553
 3916SOL    HW113470   8.113   8.018   6.579  0.3309  0.7709  0.2440
 3916SOL    HW213471   8.090   7.900   6.671  0.8959  1.1709  0.9060
 3917SOL     OW13472   8.218   5.197   9.173  0.9543 -0.8192  0.4774
 3917SOL    HW113473   8.262   5.202   9.258  2.0047  0.2235 -0.0818
 3917SOL    HW213474   8.283   5.231   9.112 -1.2048  2.7099 -0.1620
 3918SOL     OW13475   0.460   8.095   8.864 -0.0482 -0.1618  0.0101
 3918SOL    HW113476   0.412   8.013   8.866 -0.7809  0.2639  0.3771
 3918SOL    HW213477   0.431   8.138   8.784  1.6855 -1.0255 -1.1463
 3919SOL     OW13478   9.401   4.253   2.229  0.0738 -0.1000 -0.2680
 3919SOL    HW113479   9.432   4.189   2.294  2.2096  0.5094 -0.6294
 3919SOL    HW213480   9.432   4.219   2.145 -2.5023 -0.7811 -1.0317
 3920SOL     OW13481   7.995   1.898   7.137 -0.1724  0.5051 -0.0234
 3920SOL    HW113482   8.006   1.846   7.216  0.4345  1.0624  0.2678
 3920SOL    HW213483   8.025   1.986   7.161 -2.8616  1.4867  0.0309
 3921SOL     OW13484   3.268   1.336   2.566 -0.0442 -0.4338  0.0181
 3921SOL    HW113485   3.298   1.424   2.542  0.4205 -0.6995 -0.3943
 3921SOL    HW213486   3.174   1.347   2.581  0.5418  0.9216  3.7638
 3922SOL     OW13487   2.592   0.787   5.686  0.7315  0.1197  0.0193
 3922SOL    HW113488   2.575   0.693   5.673  1.4116 -0.2953  1.8120
 3922SOL    HW213489   2.667   0.805   5.629  1.3231 -0.7239  0.5015
 3923SOL     OW13490   3.125   3.620   1.093  1.0750 -0.0815 -0.2064
 3923SOL    HW113491   3.043   3.584   1.059  0.5851  0.2628  0.5777
 3923SOL    HW213492   3.173   3.647   1.015 -0.1121  0.8966 -0.6506
 3924SOL     OW13493   1.623   4.910   0.975 -0.4850  0.0397  0.1512
 3924SOL    HW113494   1.677   4.850   0.924 -2.3675 -0.7657 -0.9887
 3924SOL    HW213495   1.636   4.996   0.935  2.0181  0.4308  1.6237
 3925SOL     OW13496   0.310   0.169   7.441  0.3420 -0.2065  0.2583
 3925SOL    HW113497   0.249   0.153   7.513  0.4714 -0.0927  0.3935
 3925SOL    HW213498   0.395   0.177   7.483  0.6103 -1.3819 -0.0123
 3926SOL     OW13499   0.234   6.856   1.877 -0.1305  0.3313  0.4530
 3926SOL    HW113500   0.321   6.853   1.839 -0.7188  0.5301 -0.9787
 3926SOL    HW213501   0.245   6.822   1.965  1.2665 -0.3219  0.0512
 3927SOL     OW13502   0.706   7.196   8.477  0.4288 -0.0393  0.2294
 3927SOL    HW113503   0.729   7.130   8.411 -0.8057  0.3705 -0.6523
 3927SOL    HW213504   0.618   7.225   8.452  0.3576  0.8860  1.4626
 3928SOL     OW13505   6.410   4.078   3.967 -0.1977 -0.5615 -0.0137
 3928SOL    HW113506   6.382   4.057   4.056 -0.7677 -2.0810 -0.5182
 3928SOL    HW213507   6.367   4.013   3.913  0.5724  0.0100 -1.3535
 3929SOL     OW13508   2.337   0.585   0.233 -0.4828 -0.1804  0.2718
 3929SOL    HW113509   2.387   0.574   0.313  0.4614  1.9387  0.0484
 3929SOL    HW213510   2.335   0.680   0.219 -1.4451 -0.4341 -1.6972
 3930SOL     OW13511   8.546   2.524   3.276  0.6537  0.0410  0.2482
 3930SOL    HW113512   8.617   2.543   3.338  1.2437 -2.4392  0.4691
 3930SOL    HW213513   8.466   2.544   3.325  1.1604  0.3661  0.9734
 3931SOL     OW13514   9.617   8.638   7.152  0.5705 -0.3239  0.4475
 3931SOL    HW113515   9.648   8.674   7.235  1.0538 -0.2197  0.2226
 3931SOL    HW213516   9.568   8.710   7.112  0.3656 -0.3632  0.6246
 3932SOL     OW13517   4.507   1.565   7.427 -0.1826 -0.2727  0.3527
 3932SOL    HW113518   4.514   1.652   7.468  0.4406 -0.9155  1.6732
 3932SOL    HW213519   4.594   1.548   7.392  0.2207 -1.1021  1.6941
 3933SOL     OW13520   6.003   2.519   4.442  0.6496 -0.0024  0.0338
 3933SOL    HW113521   5.979   2.531   4.350 -0.9777 -4.6582 -0.4322
 3933SOL    HW213522   5.931   2.558   4.491  0.3785  0.4904 -0.7315
 3934SOL     OW13523   0.798   1.883   1.526 -0.2696  0.1458  0.0507
 3934SOL    HW113524   0.862   1.894   1.456 -1.0686  1.5125 -0.4936
 3934SOL    HW213525   0.729   1.829   1.487 -0.6044  0.7129 -0.1435
 3935SOL     OW13526   2.484   7.477   9.584 -0.0918 -0.0403 -0.0985
 3935SOL    HW113527   2.531   7.398   9.557 -0.7580 -0.9869  1.3973
 3935SOL    HW213528   2.552   7.533   9.622 -0.0879 -1.4169  2.0950
 3936SOL     OW13529   9.012   0.874   3.083 -0.2404  0.3210  0.3845
 3936SOL    HW113530   9.095   0.922   3.079 -0.6982  1.3840  2.1343
 3936SOL    HW213531   8.945   0.942   3.083 -0.9919 -0.3889  1.3686
 3937SOL     OW13532   9.660   7.883   0.415 -0.0194 -0.5596  0.4026
 3937SOL    HW113533   9.682   7.945   0.346 -1.0694 -0.1446  0.4197
 3937SOL    HW213534   9.628   7.805   0.369 -1.5363  0.0359  0.4137
 3938SOL     OW13535   6.242   6.973   4.287  0.2878 -0.3629  0.2011
 3938SOL    HW113536   6.245   7.066   4.309  1.1436 -0.7702  1.9751
 3938SOL    HW213537   6.319   6.959   4.233 -0.0746  0.0283 -0.4286
 3939SOL     OW13538   1.184   5.119   4.780  1.0919  0.1091  0.0447
 3939SOL    HW113539   1.193   5.135   4.686  0.7284  2.0944  0.3182
 3939SOL    HW213540   1.094   5.088   4.789  0.7009  1.1450 -0.1353
 3940SOL     OW13541   5.911   1.993   1.703 -0.2478 -0.1914  0.7767
 3940SOL    HW113542   5.921   1.943   1.622 -0.9185  0.1772  0.4542
 3940SOL    HW213543   5.988   1.970   1.755 -0.5267 -1.5419  0.6339
 3941SOL     OW13544   2.616   0.046   5.061 -0.3554  0.6009  0.0610
 3941SOL    HW113545   2.710   0.043   5.040 -0.3416  2.3892 -0.2499
 3941SOL    HW213546   2.573   0.053   4.975 -0.8895 -1.4186  0.1100
 3942SOL     OW13547   6.436   5.102   0.744 -0.6664  0.2844 -0.0414
 3942SOL    HW113548   6.431   5.142   0.657 -1.1128  1.4335  0.4878
 3942SOL    HW213549   6.468   5.173   0.800 -0.9946 -0.2515  0.8369
 3943SOL     OW13550   4.091   5.365   5.623 -0.9129 -0.0510 -0.3815
 3943SOL    HW113551   4.180   5.368   5.587 -0.4674 -0.5232  0.6303
 3943SOL    HW213552   4.097   5.415   5.705 -1.8313  0.7562 -0.7882
 3944SOL     OW13553   2.049   0.955   9.196 -0.0321 -0.0018  0.0628
 3944SOL    HW113554   1.988   1.002   9.254 -0.3837  0.0774 -0.3672
 3944SOL    HW213555   1.993   0.895   9.146  0.1699  0.4709 -0.7392
 3945SOL     OW13556   5.178   9.553   0.908  0.0924  0.0268 -0.5353
 3945SOL    HW113557   5.206   9.541   0.817  1.6640  0.8228 -0.2007
 3945SOL    HW213558   5.140   9.640   0.910  2.2192  1.0099 -0.0042
 3946SOL     OW13559   2.203   6.047   1.854  0.5845  0.2830 -0.0290
 3946SOL    HW113560   2.263   6.107   1.899 -1.2703  1.4920  0.9395
 3946SOL    HW213561   2.155   6.004   1.925  0.8229 -1.2661 -0.7620
 3947SOL     OW13562   3.151   9.646   3.369 -0.6518  0.3510 -0.4583
 3947SOL    HW113563   3.229   9.701   3.381 -0.8334  0.5691 -0.2753
 3947SOL    HW213564   3.176   9.585   3.300 -0.6740  1.0846 -1.1262
 3948SOL     OW13565   6.197   7.125   4.853 -0.1111  0.4154 -0.1264
 3948SOL    HW113566   6.168   7.045   4.811 -0.2047 -0.2585  1.1480
 3948SOL    HW213567   6.180   7.111   4.946  1.8202  1.0369  0.3899
 3949SOL     OW13568   6.892   9.330   6.143 -0.2766  0.6559 -0.3568
 3949SOL    HW113569   6.951   9.310   6.071  0.9685 -0.8547  0.9950
 3949SOL    HW213570   6.882   9.425   6.141  1.1323  0.8134 -1.4491
 3950SOL     OW13571   6.976   0.104   2.660 -0.1888 -0.6053 -0.3298
 3950SOL    HW113572   6.988   0.012   2.683  1.0628 -0.2726  0.4522
 3950SOL    HW213573   6.924   0.140   2.731  0.3736 -0.4426  0.0053
 3951SOL     OW13574   4.812   1.035   6.923 -0.0307  0.6539 -0.6173
 3951SOL    HW113575   4.845   1.044   6.833  1.1579 -2.2044 -0.5576
 3951SOL    HW213576   4.862   1.100   6.972  1.7389  0.0512 -1.5023
 3952SOL     OW13577   7.577   9.197   1.173 -0.1063 -0.0250 -0.1352
 3952SOL    HW113578   7.672   9.201   1.178 -0.0103 -1.0034 -0.7541
 3952SOL    HW213579   7.552   9.135   1.241 -0.1818 -0.7124 -0.7729
 3953SOL     OW13580   0.249   0.975   9.153 -0.2968 -0.7265  0.1260
 3953SOL    HW113581   0.211   0.901   9.105  3.4268 -1.2948 -2.3654
 3953SOL    HW213582   0.239   1.050   9.094 -0.3706 -0.1468  0.8526
 3954SOL     OW13583   7.474   4.367   9.613 -0.6447 -0.4766  0.8877
 3954SOL    HW113584   7.428   4.447   9.586  0.6912  0.1258  0.3094
 3954SOL    HW213585   7.413   4.296   9.593 -1.1445  0.2603 -0.2854
 3955SOL     OW13586   7.342   5.950   1.881 -0.3133  0.4934 -0.1378
 3955SOL    HW113587   7.292   5.956   1.799 -1.5557  1.1514  0.6509
 3955SOL    HW213588   7.297   6.009   1.941 -0.8330 -1.6888  1.7654
 3956SOL     OW13589   0.054   4.193   7.616  0.2273 -0.2432 -0.4775
 3956SOL    HW113590   0.148   4.210   7.612  0.2888 -0.2561  0.5719
 3956SOL    HW213591   0.021   4.217   7.530  1.4579 -1.9503 -1.4864
 3957SOL     OW13592   6.616   2.024   0.547  0.1757 -0.2960 -0.2719
 3957SOL    HW113593   6.572   2.077   0.614  1.8054 -0.9416  1.3992
 3957SOL    HW213594   6.600   2.071   0.465 -3.9881 -0.7366  0.0738
 3958SOL     OW13595   7.057   4.652   6.985  0.0177 -0.4599 -0.1753
 3958SOL    HW113596   6.989   4.717   7.004 -1.9967 -2.4446 -0.2176
 3958SOL    HW213597   7.090   4.676   6.898 -1.3387 -0.0106 -0.5924
 3959SOL     OW13598   2.071   1.541   5.303 -0.4652 -0.1338 -0.3471
 3959SOL    HW113599   2.013   1.580   5.237 -0.4273  0.9678  0.2391
 3959SOL    HW213600   2.156   1.583   5.288 -0.3588 -0.1701  0.1326
 3960SOL     OW13601   5.166   9.624   8.157  0.1032  0.6643 -0.5542
 3960SOL    HW113602   5.214   9.547   8.128  0.3451  0.1002  1.2097
 3960SOL    HW213603   5.212   9.698   8.117  2.2722  0.1256  0.7674
 3961SOL     OW13604   1.682   3.722   1.625  0.2822  0.4473 -0.5241
 3961SOL    HW113605   1.713   3.675   1.703 -2.5286  0.2934  0.6292
 3961SOL    HW213606   1.751   3.710   1.560  0.6160 -3.5673  0.3470
 3962SOL     OW13607   1.318   1.899   2.545  0.2167  0.0447  0.3748
 3962SOL    HW113608   1.322   1.808   2.517 -0.8838  0.1550 -0.1843
 3962SOL    HW213609   1.396   1.911   2.599  2.1167 -0.3631 -2.1032
 3963SOL     OW13610   2.265   7.104   8.418 -0.0083 -0.4023  0.1745
 3963SOL    HW113611   2.267   7.013   8.387  0.7183 -0.0307 -0.9159
 3963SOL    HW213612   2.274   7.157   8.339  0.6703  0.6021  0.8991
 3964SOL     OW13613   0.402   2.443   8.156 -0.1901 -0.2541  0.0657
 3964SOL    HW113614   0.366   2.526   8.188  0.4965  0.2742 -0.4722
 3964SOL    HW213615   0.473   2.470   8.097  1.4391 -1.2319  1.4886
 3965SOL     OW13616   0.081   9.497   8.216  0.2143  0.1434  0.2016
 3965SOL    HW113617   0.025   9.529   8.287 -0.0035  0.2422 -0.0143
 3965SOL    HW213618   0.170   9.503   8.251  0.3983  2.9581 -0.5424
 3966SOL     OW13619   4.174   8.859   3.078 -0.5932  0.1926  0.1200
 3966SOL    HW113620   4.181   8.921   3.005  0.2470 -0.2151 -0.1559
 3966SOL    HW213621   4.130   8.909   3.147 -1.4503  0.5661 -0.6705
 3967SOL     OW13622   1.580   1.751   0.771 -0.2602 -0.9165 -0.2058
 3967SOL    HW113623   1.671   1.761   0.802 -0.7293 -0.6061  1.1455
 3967SOL    HW213624   1.554   1.839   0.745 -1.7024  0.1323  3.9930
 3968SOL     OW13625   6.985   6.874   8.449  0.0397  0.0210  0.2944
 3968SOL    HW113626   7.024   6.789   8.470  0.8909  0.5991  1.1606
 3968SOL    HW213627   6.953   6.864   8.359  2.0856 -0.5523 -0.4427
 3969SOL     OW13628   9.089   0.419   7.140  0.2030  0.8360  0.0727
 3969SOL    HW113629   9.142   0.350   7.180  2.5887  0.2045 -3.6908
 3969SOL    HW213630   9.139   0.499   7.153 -0.3170  1.0902  0.5547
 3970SOL     OW13631   2.638   2.747   9.193  0.1234  0.0514 -0.3065
 3970SOL    HW113632   2.593   2.773   9.274 -2.0843 -0.9914 -1.0994
 3970SOL    HW213633   2.728   2.729   9.219 -0.7135 -1.0123  2.0805
 3971SOL     OW13634   0.258   8.718   2.297 -0.5119  1.0224 -0.3719
 3971SOL    HW113635   0.306   8.687   2.374 -0.5208  0.1207 -0.7224
 3971SOL    HW213636   0.207   8.792   2.329  0.1225  1.1837  0.2974
 3972SOL     OW13637   1.718   5.174   7.012 -0.0778  0.2849 -0.4319
 3972SOL    HW113638   1.683   5.187   6.924  2.0920 -0.7704 -1.5235
 3972SOL    HW213639   1.734   5.262   7.044 -0.4258  0.6745 -1.2908
 3973SOL     OW13640   1.476   9.032   7.584  0.1586 -0.5840  0.1309
 3973SOL    HW113641   1.462   9.127   7.585  1.5394 -0.3360  2.0004
 3973SOL    HW213642   1.425   9.001   7.510 -1.8828  1.3745  0.6054
 3974SOL     OW13643   6.636   5.206   4.516  0.4240 -0.2824 -0.3326
 3974SOL    HW113644   6.562   5.266   4.523 -0.7231 -1.7606  0.7380
 3974SOL    HW213645   6.604   5.133   4.464  0.6493 -1.5941  1.3034
 3975SOL     OW13646   0.720   8.218   1.522  0.5085 -0.0007  0.3010
 3975SOL    HW113647   0.703   8.161   1.447 -0.4250  1.2694 -0.5047
 3975SOL    HW213648   0.637   8.219   1.570  0.7484  0.0930  0.7165
 3976SOL     OW13649   1.917   1.166   0.767  0.3469  0.4514  0.0792
 3976SOL    HW113650   1.853   1.166   0.697  0.5246 -0.0929 -0.0888
 3976SOL    HW213651   1.993   1.122   0.729  0.1156 -0.6799  0.9106
 3977SOL     OW13652   5.631   8.270   1.676 -0.2584  0.5643 -0.0356
 3977SOL    HW113653   5.637   8.206   1.605  2.9568  0.0868  0.5171
 3977SOL    HW213654   5.646   8.355   1.633  0.2207  0.4263 -0.1494
 3978SOL     OW13655   1.786   2.230   3.759 -0.2690  0.1343  0.2533
 3978SOL    HW113656   1.757   2.213   3.669  0.6717  1.3064 -0.3054
 3978SOL    HW213657   1.766   2.150   3.806  0.5433 -1.0564 -1.3475
 3979SOL     OW13658   0.271   9.440   6.990  0.0006  0.7382 -0.1970
 3979SOL    HW113659   0.277   9.380   7.064  0.9262 -1.2735 -1.8074
 3979SOL    HW213660   0.340   9.505   7.005 -0.3368  0.8315  1.0553
 3980SOL     OW13661   8.970   1.544   8.849  0.1349 -0.6016  0.0528
 3980SOL    HW113662   8.982   1.566   8.757 -0.2555 -0.0577  0.1320
 3980SOL    HW213663   8.885   1.580   8.872  0.5174 -0.1618  0.8042
 3981SOL     OW13664   0.289   5.490   8.167 -0.2114 -0.0855  0.3871
 3981SOL    HW113665   0.231   5.500   8.092 -1.5082 -1.2380  1.1874
 3981SOL    HW213666   0.317   5.579   8.189 -1.2344  0.4345 -0.3533
 3982SOL     OW13667   1.675   5.136   3.218  0.1290 -0.2082 -0.3869
 3982SOL    HW113668   1.759   5.166   3.254  0.9087 -0.3453 -2.0356
 3982SOL    HW213669   1.613   5.204   3.244  0.7109 -0.1485  0.9405
 3983SOL     OW13670   3.460   8.848   5.435  0.2560 -0.0595 -0.0829
 3983SOL    HW113671   3.549   8.835   5.470  1.1950  1.5567 -1.6855
 3983SOL    HW213672   3.468   8.926   5.380 -1.2390 -2.0722 -3.4015
 3984SOL     OW13673   8.046   7.831   5.255  0.3354  0.3980  0.4997
 3984SOL    HW113674   7.999   7.801   5.333 -0.6320  1.7062  0.4583
 3984SOL    HW213675   8.100   7.756   5.229  1.4807  0.2688  3.0182
 3985SOL     OW13676   2.196   6.283   8.466  0.1288  0.5541 -0.1399
 3985SOL    HW113677   2.264   6.299   8.401  1.0840 -1.7804  0.1666
 3985SOL    HW213678   2.114   6.285   8.416  0.7082  0.3795 -1.1234
 3986SOL     OW13679   5.030   1.990   1.851 -0.1491  0.1648 -0.3441
 3986SOL    HW113680   5.045   2.024   1.939  0.5826 -0.2346 -0.3095
 3986SOL    HW213681   4.973   1.914   1.865  0.6712 -0.4144 -0.1284
 3987SOL     OW13682   3.485   1.232   6.854  0.6746 -0.3480 -0.6399
 3987SOL    HW113683   3.550   1.202   6.791 -0.1988 -3.5257 -0.1852
 3987SOL    HW213684   3.467   1.156   6.909 -3.3820  0.3158 -0.7317
 3988SOL     OW13685   8.214   8.924   9.198 -0.5545 -0.2128  0.0541
 3988SOL    HW113686   8.162   8.941   9.276 -1.0999  1.5934 -0.6409
 3988SOL    HW213687   8.212   9.007   9.149  0.7927 -0.9034 -1.2758
 3989SOL     OW13688   7.686   6.544   4.504 -0.1150 -0.2072  0.5694
 3989SOL    HW113689   7.761   6.602   4.491 -1.1479  1.2973  1.0478
 3989SOL    HW213690   7.701   6.505   4.590  1.8480 -2.6904 -0.7785
 3990SOL     OW13691   4.075   1.911   2.293 -0.0264  0.5895  0.0805
 3990SOL    HW113692   4.152   1.856   2.303 -0.6603 -0.4481 -0.6130
 3990SOL    HW213693   4.024   1.869   2.224 -1.5595  0.8703  1.0057
 3991SOL     OW13694   7.222   2.408   2.982  0.3238 -0.2640 -0.4494
 3991SOL    HW113695   7.301   2.457   3.004  0.2438  0.2550 -1.2660
 3991SOL    HW213696   7.172   2.467   2.924 -0.6119 -0.6227 -0.0281
 3992SOL     OW13697   7.410   3.959   3.628  0.5254  0.2198  0.4145
 3992SOL    HW113698   7.318   3.949   3.605  0.5391 -0.8415  0.7706
 3992SOL    HW213699   7.426   4.054   3.623 -0.7141  0.4706  0.8557
 3993SOL     OW13700   4.326   0.180   2.433 -0.1276  0.1407 -0.7117
 3993SOL    HW113701   4.347   0.273   2.436 -0.0094  0.1195 -0.8591
 3993SOL    HW213702   4.410   0.136   2.448 -0.5462  0.0533  1.8264
 3994SOL     OW13703   3.982   3.017   9.439  0.2374 -0.2566  0.1800
 3994SOL    HW113704   3.987   3.076   9.515  1.3844  1.7013 -1.3091
 3994SOL    HW213705   3.961   3.075   9.366  2.4846 -1.4821 -1.5557
 3995SOL     OW13706   0.507   3.351   7.375 -0.0815  0.2505  0.5191
 3995SOL    HW113707   0.463   3.395   7.448 -2.7815  0.4280 -1.0582
 3995SOL    HW213708   0.466   3.264   7.372  3.4320 -1.6520  2.0693
 3996SOL     OW13709   7.403   8.745   1.584  0.1825  0.1703 -0.2785
 3996SOL    HW113710   7.463   8.768   1.655 -2.9688  1.8218  2.1327
 3996SOL    HW213711   7.319   8.733   1.627 -1.7665  0.3642 -3.6803
 3997SOL     OW13712   6.506   6.777   8.745  0.5672 -0.0420  0.2109
 3997SOL    HW113713   6.417   6.789   8.779  0.4830 -1.5575  0.6342
 3997SOL    HW213714   6.563   6.784   8.821  0.5042 -2.0135  0.5115
 3998SOL     OW13715   5.730   1.760   0.207  0.2154  0.1146 -0.0605
 3998SOL    HW113716   5.678   1.840   0.195  0.5668  0.3749  0.1255
 3998SOL    HW213717   5.782   1.754   0.126 -0.8288 -0.6981 -0.6924
 3999SOL     OW13718   7.206   5.962   0.559 -0.2506 -0.5348  0.4370
 3999SOL    HW113719   7.147   6.037   0.566 -0.7878 -0.7215 -1.6248
 3999SOL    HW213720   7.276   5.992   0.502  1.1559 -0.6693  2.0030
 4000SOL     OW13721   0.929   7.173   7.180 -0.0980  0.3112 -0.2795
 4000SOL    HW113722   0.942   7.262   7.214  0.4923  0.3736 -0.6563
 4000SOL    HW213723   0.959   7.116   7.251 -0.1089  0.4202 -0.1872
 4001SOL     OW13724   2.767   9.695   2.788  0.4011  0.5684  0.5060
 4001SOL    HW113725   2.831   9.767   2.782  0.0628  0.8618  0.3844
 4001SOL    HW213726   2.752   9.670   2.696  0.7613  0.1189  0.5620
 4002SOL     OW13727   9.019   3.809   3.749 -0.0480  0.4255 -0.4544
 4002SOL    HW113728   9.046   3.876   3.812 -0.5534  0.9367 -0.7862
 4002SOL    HW213729   8.940   3.771   3.787 -0.2671  0.6281 -0.7140
 4003SOL     OW13730   5.900   5.740   0.576  0.3417  0.7212  0.1479
 4003SOL    HW113731   5.990   5.708   0.574  0.2732  0.5008  0.4113
 4003SOL    HW213732   5.902   5.822   0.529  0.1002 -0.7177 -2.5607
 4004SOL     OW13733   8.190   7.974   1.194 -0.2343 -0.1227 -0.6755
 4004SOL    HW113734   8.237   7.892   1.180  0.4761  0.2094 -0.2604
 4004SOL    HW213735   8.204   7.995   1.286 -1.7516 -0.3502 -0.3667
 4005SOL     OW13736   8.867   8.720   5.717  0.0495  0.0411 -0.1365
 4005SOL    HW113737   8.862   8.678   5.631  2.1353  2.3366 -1.5143
 4005SOL    HW213738   8.777   8.745   5.737 -0.6102 -1.3397 -1.1948
 4006SOL     OW13739   2.733   2.861   5.220 -0.1529 -0.1459  0.6933
 4006SOL    HW113740   2.749   2.799   5.291 -0.3697  1.0074  1.7797
 4006SOL    HW213741   2.819   2.899   5.201 -0.1031 -0.4198  0.3700
 4007SOL     OW13742   8.662   3.227   0.114 -0.1984  0.3428 -0.3364
 4007SOL    HW113743   8.743   3.263   0.150 -0.4429 -0.4147  1.0264
 4007SOL    HW213744   8.689   3.174   0.040  0.5804 -0.0577  0.2269
 4008SOL     OW13745   8.705   6.922   6.213 -0.2987  0.1447  0.2896
 4008SOL    HW113746   8.696   7.018   6.210  1.2283  0.3472  0.9741
 4008SOL    HW213747   8.786   6.905   6.164  0.3534 -0.6337  1.5982
 4009SOL     OW13748   7.756   4.666   2.601 -0.2186 -0.4243 -0.2314
 4009SOL    HW113749   7.705   4.673   2.682  0.9416  0.2127  0.4789
 4009SOL    HW213750   7.734   4.580   2.566 -0.4316 -0.8955  0.9980
 4010SOL     OW13751   5.685   7.140   5.362 -0.3995 -0.0157 -0.7340
 4010SOL    HW113752   5.754   7.191   5.405 -0.4686 -1.8125  1.7202
 4010SOL    HW213753   5.609   7.198   5.361  0.5252  1.2386 -1.5400
 4011SOL     OW13754   5.914   1.619   1.804  0.6389  0.4986 -0.6793
 4011SOL    HW113755   5.843   1.624   1.867  0.6085  0.0091 -0.6716
 4011SOL    HW213756   5.992   1.603   1.857  0.2546 -2.8456 -0.8890
 4012SOL     OW13757   6.136   3.596   5.309  0.1800  0.2339 -0.1794
 4012SOL    HW113758   6.200   3.595   5.237  1.2118 -0.0795  0.7026
 4012SOL    HW213759   6.169   3.664   5.369 -1.0782  1.0198 -0.3417
 4013SOL     OW13760   5.957   0.754   3.518  0.5403  0.2685 -0.6513
 4013SOL    HW113761   5.972   0.806   3.440 -0.6760  3.3814  1.0205
 4013SOL    HW213762   5.881   0.700   3.497  0.0655  1.2548 -1.5461
 4014SOL     OW13763   2.517   1.436   6.399  0.0613 -0.2071  0.0557
 4014SOL    HW113764   2.597   1.472   6.361 -0.7831  1.9396  0.2100
 4014SOL    HW213765   2.449   1.458   6.335 -0.4860 -1.7360  0.0781
 4015SOL     OW13766   0.681   6.619   9.129  0.1583  0.2220  0.1640
 4015SOL    HW113767   0.750   6.653   9.072  0.9770 -1.1091  0.3355
 4015SOL    HW213768   0.727   6.574   9.199 -0.8472  1.1779  1.5077
 4016SOL     OW13769   1.675   5.375   1.292  0.0528 -0.3980  0.2079
 4016SOL    HW113770   1.595   5.326   1.273 -0.7525  0.7873  0.4646
 4016SOL    HW213771   1.683   5.373   1.387 -1.2037  1.7725  0.4167
 4017SOL     OW13772   0.136   9.649   5.730  0.5917 -0.4185 -0.0097
 4017SOL    HW113773   0.120   9.567   5.777 -0.7002 -0.3752 -0.3292
 4017SOL    HW213774   0.093   9.716   5.784 -0.5333 -0.3109 -1.0044
 4018SOL     OW13775   7.692   2.755   7.974 -0.2947  0.1674  0.2432
 4018SOL    HW113776   7.727   2.843   7.962  0.0534  0.1279  0.8871
 4018SOL    HW213777   7.619   2.749   7.913  1.0328  0.1279 -1.4407
 4019SOL     OW13778   4.846   2.666   0.078  0.3828  0.0609  0.0148
 4019SOL    HW113779   4.814   2.656  -0.012 -0.3938  3.2249 -0.1676
 4019SOL    HW213780   4.794   2.603   0.128 -0.3996 -0.5579 -1.4861
 4020SOL     OW13781   5.660   1.579   3.815 -0.2929  0.0868 -0.0347
 4020SOL    HW113782   5.593   1.643   3.791 -1.4758 -0.3333  1.9133
 4020SOL    HW213783   5.619   1.527   3.885  1.1008 -1.9506 -0.6624
 4021SOL     OW13784   9.334   3.148   6.330 -0.0139  0.1428  0.6278
 4021SOL    HW113785   9.314   3.055   6.315  1.1425 -0.0500  0.1772
 4021SOL    HW213786   9.339   3.156   6.425 -2.6130  0.3228  0.8237
 4022SOL     OW13787   7.236   8.950   9.669  0.0346  0.4702  0.1645
 4022SOL    HW113788   7.311   8.902   9.705 -0.9070  0.3697  2.1261
 4022SOL    HW213789   7.237   9.034   9.715 -0.0334  1.1928 -1.1113
 4023SOL     OW13790   6.834   8.550   6.710  0.1376 -0.1947  0.5041
 4023SOL    HW113791   6.837   8.536   6.615 -1.1923 -1.7484  0.6429
 4023SOL    HW213792   6.846   8.645   6.721  1.7982 -0.1711 -1.0924
 4024SOL     OW13793   1.815   8.193   7.743 -0.4643  0.2034  0.4930
 4024SOL    HW113794   1.781   8.115   7.698 -1.2618  0.5141  0.5367
 4024SOL    HW213795   1.828   8.257   7.673  0.8456 -0.1794  0.3645
 4025SOL     OW13796   5.480   9.156   7.704  0.2636  0.5543 -0.0510
 4025SOL    HW113797   5.559   9.211   7.702  1.5990 -1.2266  0.4137
 4025SOL    HW213798   5.487   9.102   7.626  1.6048 -2.2344  1.8028
 4026SOL     OW13799   4.689   0.292   5.583  0.1547 -0.3302 -0.0575
 4026SOL    HW113800   4.753   0.340   5.635 -0.4296  1.7034 -1.0932
 4026SOL    HW213801   4.732   0.208   5.563  2.3590  0.8195 -0.4563
 4027SOL     OW13802   5.327   5.584   6.454  0.0615 -0.1299 -0.2063
 4027SOL    HW113803   5.317   5.658   6.513 -0.3453  0.8218 -1.4505
 4027SOL    HW213804   5.373   5.518   6.507  0.7892  1.1359  0.8041
 4028SOL     OW13805   7.677   1.295   9.412 -0.1233  0.2785 -0.5344
 4028SOL    HW113806   7.654   1.371   9.465 -1.5384  0.8370 -1.8553
 4028SOL    HW213807   7.773   1.293   9.413 -0.0626 -0.4504  2.9332
 4029SOL     OW13808   6.755   8.198   2.049  0.1832 -0.2384  0.0800
 4029SOL    HW113809   6.730   8.106   2.041  1.2928 -0.5359 -0.1672
 4029SOL    HW213810   6.765   8.228   1.959 -0.1843  0.1370  0.1594
 4030SOL     OW13811   7.576   7.606   2.631  0.1449  0.7792  0.7615
 4030SOL    HW113812   7.643   7.549   2.669 -0.0797  0.0523  0.0779
 4030SOL    HW213813   7.500   7.595   2.688 -0.0864 -0.0565  0.3040
 4031SOL     OW13814   6.442   7.672   4.457 -0.4955 -0.4013  0.8236
 4031SOL    HW113815   6.498   7.748   4.470 -0.3379  0.0688 -1.9703
 4031SOL    HW213816   6.355   7.709   4.439 -0.3801 -0.8014 -0.7289
 4032SOL     OW13817   7.792   2.011   2.050 -0.4324 -0.1821 -0.5388
 4032SOL    HW113818   7.763   1.920   2.048  0.4367 -0.6459  2.8633
 4032SOL    HW213819   7.784   2.038   2.141  0.6740  2.7354 -1.1678
 4033SOL     OW13820   0.266   7.836   8.975 -0.2655  0.1205 -0.2186
 4033SOL    HW113821   0.215   7.915   8.995 -0.3464 -0.0302  0.1781
 4033SOL    HW213822   0.235   7.771   9.038 -0.0814 -0.1814 -0.4358
 4034SOL     OW13823   5.312   7.531   9.020  0.7425  0.1975  0.2706
 4034SOL    HW113824   5.368   7.541   9.096  0.6019 -2.2408  0.7616
 4034SOL    HW213825   5.372   7.506   8.949  0.5478 -0.1324  0.2236
 4035SOL     OW13826   6.528   9.600   5.111 -0.3645  0.2552 -0.4888
 4035SOL    HW113827   6.602   9.622   5.168 -0.4632  0.8610 -0.5888
 4035SOL    HW213828   6.453   9.592   5.170 -0.3064  0.0653 -0.4389
 4036SOL     OW13829   8.556   2.801   8.659  0.4504  0.3784 -0.3857
 4036SOL    HW113830   8.464   2.781   8.677  0.5617  0.3976  0.1992
 4036SOL    HW213831   8.599   2.716   8.657  0.7759  0.4718  1.3033
 4037SOL     OW13832   4.732   4.239   8.787  0.3448 -0.0171  0.3904
 4037SOL    HW113833   4.697   4.166   8.735  0.4814 -1.4995  2.2733
 4037SOL    HW213834   4.656   4.271   8.836  0.1558  1.5517 -0.8584
 4038SOL     OW13835   9.653   7.653   4.586  0.4577 -0.1144  0.2970
 4038SOL    HW113836   9.676   7.683   4.674  0.4224  1.0720 -0.0851
 4038SOL    HW213837   9.557   7.652   4.585  0.4596 -0.2360  0.3115
 4039SOL     OW13838   0.318   7.715   3.053  0.7755  0.1281  0.2020
 4039SOL    HW113839   0.271   7.704   2.970  2.4064 -0.3775 -0.7006
 4039SOL    HW213840   0.280   7.649   3.111  0.3770 -0.2744 -0.4944
 4040SOL     OW13841   1.904   4.248   7.974 -0.9800  0.1557 -0.0880
 4040SOL    HW113842   1.944   4.246   8.060  0.5046  0.3132 -0.7484
 4040SOL    HW213843   1.944   4.175   7.927  0.3105  1.6666 -1.4905
 4041SOL     OW13844   7.693   3.040   5.462  0.0439 -0.4942  0.2489
 4041SOL    HW113845   7.679   2.952   5.427  1.0277 -0.7711  0.5024
 4041SOL    HW213846   7.775   3.069   5.421  0.6159 -0.3771  1.4291
 4042SOL     OW13847   0.450   4.960   1.464  0.1489 -0.2587  0.2024
 4042SOL    HW113848   0.432   4.999   1.379  2.0054 -1.3115 -0.7178
 4042SOL    HW213849   0.375   4.902   1.480 -1.2247  1.4750  0.2848
 4043SOL     OW13850   2.378   1.272   7.861  0.0794  0.1979  0.4970
 4043SOL    HW113851   2.447   1.218   7.823 -0.3000 -0.4730  0.7274
 4043SOL    HW213852   2.363   1.233   7.948 -0.1236  0.7467  0.7086
 4044SOL     OW13853   6.729   4.559   0.536  0.1191 -0.3394  0.4232
 4044SOL    HW113854   6.638   4.581   0.558  0.7501  2.0445  0.8882
 4044SOL    HW213855   6.780   4.597   0.607  1.5989 -0.1601 -0.7075
 4045SOL     OW13856   5.745   4.018   2.812 -0.4606 -0.0957  0.1750
 4045SOL    HW113857   5.674   4.077   2.837 -0.2310  0.1106  0.3405
 4045SOL    HW213858   5.715   3.931   2.840 -0.0296  0.1752  1.5551
 4046SOL     OW13859   4.291   6.632   4.648  0.5617 -0.2067 -0.0258
 4046SOL    HW113860   4.288   6.720   4.611  0.8243 -0.5155 -0.7926
 4046SOL    HW213861   4.339   6.580   4.584  1.1656 -0.7255  0.8225
 4047SOL     OW13862   9.555   6.837   9.156 -0.2559 -0.0204  0.2058
 4047SOL    HW113863   9.484   6.902   9.163 -1.6457 -1.1490 -2.1495
 4047SOL    HW213864   9.627   6.885   9.115 -0.1262  0.7710  1.2977
 4048SOL     OW13865   0.187   2.731   6.662 -0.0425 -0.1935 -0.0668
 4048SOL    HW113866   0.208   2.776   6.581 -2.4498  0.7027 -0.2843
 4048SOL    HW213867   0.146   2.649   6.635 -0.5709 -0.0323  0.2054
 4049SOL     OW13868   4.573   0.555   0.680  0.3566  0.1607 -0.1219
 4049SOL    HW113869   4.502   0.492   0.679  0.0625  0.4963 -0.4715
 4049SOL    HW213870   4.558   0.610   0.604  2.1937 -1.0683 -1.4442
 4050SOL     OW13871   7.138   8.762   1.783 -0.2896  0.0212  0.5488
 4050SOL    HW113872   7.046   8.753   1.808 -0.8955  2.2361 -0.6092
 4050SOL    HW213873   7.177   8.815   1.852  0.4702 -1.8791  1.6473
 4051SOL     OW13874   7.908   7.031   9.171  0.0103  0.0376  0.2441
 4051SOL    HW113875   7.839   7.080   9.217  0.9885  1.3463  0.3738
 4051SOL    HW213876   7.923   7.081   9.091  0.5278 -0.4688  0.0181
 4052SOL     OW13877   7.481   6.279   7.087 -0.2636 -0.1930  0.0948
 4052SOL    HW113878   7.477   6.205   7.148 -1.8302  0.4225  0.7839
 4052SOL    HW213879   7.575   6.293   7.073  0.1000 -1.2999  1.1865
 4053SOL     OW13880   8.946   0.561   1.266  0.1796 -0.0761  0.6965
 4053SOL    HW113881   8.966   0.495   1.200 -0.6467 -0.4507  0.8182
 4053SOL    HW213882   8.879   0.616   1.225  0.0974  0.0502  1.0000
 4054SOL     OW13883   4.262   8.796   8.994  0.5109 -0.3104  0.3572
 4054SOL    HW113884   4.275   8.702   9.009  0.8180 -0.8642 -2.7812
 4054SOL    HW213885   4.306   8.838   9.067 -1.3993 -2.5757  3.0378
 4055SOL     OW13886   4.786   4.259   0.344 -0.5141  0.1262 -0.3794
 4055SOL    HW113887   4.715   4.201   0.373 -0.7484  0.3435 -0.5184
 4055SOL    HW213888   4.742   4.340   0.319 -0.6619 -0.8793 -3.8797
 4056SOL     OW13889   8.222   4.970   4.505  0.3920  0.2153  0.4083
 4056SOL    HW113890   8.174   4.908   4.449 -0.3249  0.4261  0.7750
 4056SOL    HW213891   8.252   4.917   4.579  0.7600  0.0749  0.1600
 4057SOL     OW13892   7.044   4.282   7.296 -0.3144  0.2502  0.4539
 4057SOL    HW113893   7.133   4.257   7.320  0.1297  1.3135 -0.0409
 4057SOL    HW213894   6.993   4.266   7.375  0.3372 -0.2593  0.7799
 4058SOL     OW13895   3.402   7.783   2.978 -0.3879 -0.1037  0.4047
 4058SOL    HW113896   3.400   7.699   3.023  1.1855 -0.2911  0.1780
 4058SOL    HW213897   3.491   7.816   2.992 -0.1670  0.3269 -1.6513
 4059SOL     OW13898   3.780   7.872   4.642 -0.3874 -0.8725  0.5333
 4059SOL    HW113899   3.778   7.956   4.688 -1.2536  0.2563 -1.4482
 4059SOL    HW213900   3.736   7.812   4.701  1.0229 -0.2021  2.3884
 4060SOL     OW13901   3.931   6.698   2.539 -0.2865  0.3971 -0.0527
 4060SOL    HW113902   3.885   6.639   2.600  1.5106 -0.1967  0.7932
 4060SOL    HW213903   3.883   6.689   2.457 -2.8008  1.2096  1.2147
 4061SOL     OW13904   3.060   2.489   8.775  0.4018  0.3290 -0.1332
 4061SOL    HW113905   3.134   2.546   8.793  0.3172  0.7156 -0.9512
 4061SOL    HW213906   3.093   2.400   8.792  0.5462  0.6106  1.0900
 4062SOL     OW13907   7.018   4.691   0.388  0.4073 -0.4145  0.2400
 4062SOL    HW113908   7.032   4.627   0.318 -0.5301 -0.3962  0.0212
 4062SOL    HW213909   7.099   4.740   0.392  0.4993 -0.4556 -0.7978
 4063SOL     OW13910   0.674   3.813   9.167 -0.2093  0.6720  0.2901
 4063SOL    HW113911   0.598   3.833   9.112 -1.6408 -0.6123  1.6765
 4063SOL    HW213912   0.702   3.726   9.138 -1.6935 -0.5324  2.2221
 4064SOL     OW13913   6.943   0.158   6.692 -0.0005  0.0964  0.4448
 4064SOL    HW113914   6.918   0.102   6.765  0.6343 -2.9527 -1.5172
 4064SOL    HW213915   7.036   0.142   6.680 -0.5236 -1.2765 -2.3935
 4065SOL     OW13916   6.787   5.971   1.083  0.8158 -0.7562 -0.0610
 4065SOL    HW113917   6.733   5.907   1.037 -0.1146 -0.0679  0.0550
 4065SOL    HW213918   6.727   6.041   1.108  2.1256  1.2025 -1.9854
 4066SOL     OW13919   6.610   3.157   7.814 -0.5173  0.3191 -0.4355
 4066SOL    HW113920   6.591   3.103   7.737  0.1937 -1.3436  0.4880
 4066SOL    HW213921   6.610   3.247   7.781 -3.5697 -0.0377 -1.6731
 4067SOL     OW13922   7.120   2.908   7.471 -0.1169 -0.5508 -0.0824
 4067SOL    HW113923   7.154   2.822   7.446 -2.2363 -1.3751 -0.3151
 4067SOL    HW213924   7.172   2.933   7.548  0.4398 -2.0974  0.0716
 4068SOL     OW13925   3.818   0.382   5.420  0.2555  0.0304  0.0867
 4068SOL    HW113926   3.892   0.335   5.459  1.3467  1.7240  0.1215
 4068SOL    HW213927   3.757   0.394   5.493  0.8947  0.4558  0.5610
 4069SOL     OW13928   7.769   1.807   5.039 -0.2437 -0.4447 -0.6870
 4069SOL    HW113929   7.770   1.838   4.949 -2.1258  1.3041 -0.1755
 4069SOL    HW213930   7.691   1.847   5.078  0.7383 -0.7998  1.8395
 4070SOL     OW13931   3.604   3.789   0.306 -0.1952  0.5364  0.1969
 4070SOL    HW113932   3.583   3.718   0.366 -1.2124  0.4431 -0.2554
 4070SOL    HW213933   3.684   3.828   0.342  0.8729 -1.3453  0.0042
 4071SOL     OW13934   5.785   3.180   5.495 -0.1919 -0.3708  0.5827
 4071SOL    HW113935   5.821   3.171   5.583  0.2656 -1.8815  0.2678
 4071SOL    HW213936   5.861   3.203   5.441 -0.3864  0.0868  0.4993
 4072SOL     OW13937   4.661   8.796   0.679  0.0292 -0.0393 -0.4392
 4072SOL    HW113938   4.677   8.711   0.637 -1.0850  0.1183 -1.2134
 4072SOL    HW213939   4.725   8.799   0.750 -0.1472 -1.6921 -0.1617
 4073SOL     OW13940   0.222   2.816   6.388  0.2517  1.0230  0.4761
 4073SOL    HW113941   0.172   2.897   6.387 -0.3534  0.6596  0.7782
 4073SOL    HW213942   0.299   2.835   6.335 -0.6359  1.3225 -0.7643
 4074SOL     OW13943   2.179   8.405   7.491  0.0828  0.7777 -0.4352
 4074SOL    HW113944   2.176   8.497   7.465 -0.8143  1.2977  1.3847
 4074SOL    HW213945   2.261   8.396   7.539 -0.4759  1.0000  0.5938
 4075SOL     OW13946   1.282   5.940   8.608 -0.0909  0.1570 -0.2323
 4075SOL    HW113947   1.374   5.919   8.591  0.3592  2.0484 -0.2581
 4075SOL    HW213948   1.270   5.925   8.702  0.3720  0.3819 -0.1366
 4076SOL     OW13949   8.522   2.502   5.111  0.4809  0.5051 -0.2367
 4076SOL    HW113950   8.596   2.554   5.077  1.2719 -0.0901  0.5385
 4076SOL    HW213951   8.515   2.429   5.050  0.5495  0.5526 -0.3023
 4077SOL     OW13952   6.291   1.240   9.133  0.0070 -0.0933  0.0800
 4077SOL    HW113953   6.282   1.211   9.043  1.3958  1.0134 -0.4669
 4077SOL    HW213954   6.325   1.164   9.180 -1.7242 -1.0035 -0.0575
 4078SOL     OW13955   4.877   9.351   4.562 -0.5390  0.1520 -0.1351
 4078SOL    HW113956   4.867   9.446   4.561  0.1181  0.2244 -1.1186
 4078SOL    HW213957   4.969   9.337   4.539  0.0423 -0.6600  2.3577
 4079SOL     OW13958   3.336   7.087   9.094 -0.2037  0.6808  0.4569
 4079SOL    HW113959   3.374   7.022   9.035  0.5852  0.8198  0.7964
 4079SOL    HW213960   3.330   7.167   9.042  0.4504  0.7916  0.5489
 4080SOL     OW13961   2.934   2.872   1.262  0.4189 -0.3309  0.3747
 4080SOL    HW113962   2.975   2.821   1.332  0.8788 -0.6317 -0.0958
 4080SOL    HW213963   2.843   2.842   1.260 -0.4241  1.8099  2.7821
 4081SOL     OW13964   6.073   8.734   4.474 -0.1380 -0.2057 -0.3919
 4081SOL    HW113965   6.071   8.767   4.564 -0.0006  3.1641 -1.4861
 4081SOL    HW213966   6.161   8.757   4.442  0.0636 -1.9795 -1.2269
 4082SOL     OW13967   2.936   5.003   1.956  0.4416 -0.4617 -0.5704
 4082SOL    HW113968   2.928   4.980   2.049  1.2899 -0.1519 -0.4172
 4082SOL    HW213969   2.965   4.922   1.914 -0.3667 -0.7257 -0.6472
 4083SOL     OW13970   8.527   0.668   3.852  0.7565  0.2664 -0.2163
 4083SOL    HW113971   8.583   0.597   3.883  1.2804  1.3467  1.4369
 4083SOL    HW213972   8.440   0.644   3.882  1.0254  0.5739  0.8704
 4084SOL     OW13973   6.050   3.733   5.767 -0.1665  0.0570 -0.1944
 4084SOL    HW113974   5.963   3.763   5.741 -0.9886 -1.2421  0.9182
 4084SOL    HW213975   6.105   3.754   5.692 -0.9934  2.6788 -0.1841
 4085SOL     OW13976   0.680   4.765   3.417 -0.3688  0.4596 -0.0182
 4085SOL    HW113977   0.700   4.679   3.382 -1.2043  0.2862 -0.0890
 4085SOL    HW213978   0.754   4.786   3.474  1.2258  0.8940 -2.0968
 4086SOL     OW13979   3.456   0.966   3.069 -0.3695  0.2127 -0.1531
 4086SOL    HW113980   3.440   0.982   2.976 -0.6786  0.5654 -0.0415
 4086SOL    HW213981   3.521   1.032   3.094 -0.0472 -0.0870 -0.1916
 4087SOL     OW13982   1.552   0.835   7.508  0.6592  0.4945 -0.0457
 4087SOL    HW113983   1.504   0.831   7.591 -0.3662  3.8385 -0.3411
 4087SOL    HW213984   1.493   0.796   7.444  0.9896 -1.0793  0.5680
 4088SOL     OW13985   4.033   8.156   7.381 -0.2096 -0.0734  0.0536
 4088SOL    HW113986   4.018   8.148   7.475 -0.0961  2.5466  0.3566
 4088SOL    HW213987   4.123   8.126   7.368 -0.0226  0.1152  0.8789
 4089SOL     OW13988   0.846   9.586   8.575  0.3684 -0.3492 -0.2634
 4089SOL    HW113989   0.774   9.524   8.567  1.6066 -1.7093 -1.6998
 4089SOL    HW213990   0.849   9.608   8.668  0.4768 -3.2707  0.5218
 4090SOL     OW13991   2.718   3.752   4.451 -0.2566  0.2017 -0.1111
 4090SOL    HW113992   2.643   3.718   4.499 -1.3701  0.9184 -1.2827
 4090SOL    HW213993   2.704   3.846   4.448  0.0778  0.2321 -1.3279
 4091SOL     OW13994   6.628   4.538   3.674 -0.0239  0.0036  0.3192
 4091SOL    HW113995   6.580   4.615   3.704  0.5983 -0.5519  2.9435
 4091SOL    HW213996   6.719   4.555   3.698  0.8079  0.0491 -2.5339
 4092SOL     OW13997   7.255   1.836   5.235 -0.0400  0.7769  0.6971
 4092SOL    HW113998   7.234   1.890   5.159 -2.2710 -0.2726  0.4829
 4092SOL    HW213999   7.174   1.832   5.286  0.0020 -2.2602  0.7192
 4093SOL     OW14000   4.223   6.214   6.287 -0.1897  0.3415 -0.3889
 4093SOL    HW114001   4.137   6.181   6.310  0.2861 -0.8499 -0.2370
 4093SOL    HW214002   4.235   6.188   6.195  0.8695 -1.4762  0.2184
 4094SOL     OW14003   3.954   1.228   3.657 -0.3167 -0.1419 -0.0335
 4094SOL    HW114004   3.909   1.307   3.688  1.6690  1.3126 -0.6110
 4094SOL    HW214005   4.024   1.262   3.602  1.8509 -2.2086  1.2792
 4095SOL     OW14006   7.669   4.272   4.197 -0.1658 -0.6462 -0.4467
 4095SOL    HW114007   7.746   4.219   4.220  0.7308  0.4872 -0.7310
 4095SOL    HW214008   7.705   4.358   4.175 -1.7236  0.7681  2.0870
 4096SOL     OW14009   0.125   3.192   8.053 -0.0934  0.0905 -0.6943
 4096SOL    HW114010   0.063   3.157   7.989  1.4560 -0.0964 -2.1724
 4096SOL    HW214011   0.147   3.279   8.019  1.5773 -0.4419 -1.0867
 4097SOL     OW14012   7.117   2.636   6.935 -0.3916  0.1133  0.9654
 4097SOL    HW114013   7.182   2.607   6.871  0.0183 -1.2045  1.9330
 4097SOL    HW214014   7.157   2.616   7.020 -1.2894  1.0024  1.6158
 4098SOL     OW14015   7.070   4.982   8.650  0.1218 -0.0109  0.2971
 4098SOL    HW114016   6.984   4.969   8.690  0.0246 -0.0100  0.0931
 4098SOL    HW214017   7.077   4.912   8.585  0.2034  0.0899  0.1957
 4099SOL     OW14018   0.432   0.957   8.897  0.1358  0.5694 -0.1849
 4099SOL    HW114019   0.348   1.002   8.896  0.4922  1.2386 -0.5390
 4099SOL    HW214020   0.487   1.010   8.954 -0.0957 -0.6705  1.2673
 4100SOL     OW14021   0.742   2.403   7.753 -0.2468  0.2605 -0.6902
 4100SOL    HW114022   0.698   2.441   7.677 -2.0142  0.4371  0.3737
 4100SOL    HW214023   0.675   2.400   7.821  1.4486  0.7986  1.1161
 4101SOL     OW14024   9.021   7.207   2.168 -0.5746 -0.0570 -0.4524
 4101SOL    HW114025   8.928   7.226   2.175 -0.4010  1.3833 -1.4748
 4101SOL    HW214026   9.026   7.115   2.145 -1.7336 -0.1614 -0.3320
 4102SOL     OW14027   5.829   9.641   6.378 -0.4624  0.3979  0.3334
 4102SOL    HW114028   5.905   9.699   6.383  1.3200 -1.4046 -2.7889
 4102SOL    HW214029   5.761   9.694   6.337  0.3298  0.9867 -0.2516
 4103SOL     OW14030   8.945   0.805   7.430  0.3042  0.1041 -0.1986
 4103SOL    HW114031   9.008   0.829   7.363 -0.6763 -0.3778 -1.3215
 4103SOL    HW214032   8.860   0.824   7.390 -0.2916  0.0433  1.0064
 4104SOL     OW14033   2.887   4.309   7.356 -0.0980  0.5293 -0.2098
 4104SOL    HW114034   2.868   4.301   7.263 -1.0698 -1.2701  0.1055
 4104SOL    HW214035   2.802   4.324   7.398  0.3666  1.6791  0.3836
 4105SOL     OW14036   8.095   2.293   3.502  0.0438 -0.0541 -0.3153
 4105SOL    HW114037   8.129   2.327   3.585 -0.6751  1.5336 -0.6371
 4105SOL    HW214038   8.016   2.245   3.527  0.5481 -0.7336  0.0375
 4106SOL     OW14039   0.341   6.358   0.213  0.1272 -0.8247  0.7127
 4106SOL    HW114040   0.433   6.336   0.229  0.1040 -0.0739  2.0327
 4106SOL    HW214041   0.328   6.440   0.260 -0.9095 -0.2912 -0.4715
 4107SOL     OW14042   5.870   5.571   6.130 -0.0848  0.0283  0.2393
 4107SOL    HW114043   5.946   5.514   6.137 -0.0696  0.2846  3.2072
 4107SOL    HW214044   5.795   5.514   6.145 -0.4605  0.0279 -1.3563
 4108SOL     OW14045   3.721   3.572   7.159 -0.5981  0.3058  0.1170
 4108SOL    HW114046   3.777   3.540   7.089  1.3878  1.5482  1.0460
 4108SOL    HW214047   3.768   3.551   7.239 -1.0086  2.1599  0.8966
 4109SOL     OW14048   8.307   7.930   0.934 -0.1846 -0.7443  0.0958
 4109SOL    HW114049   8.395   7.937   0.896 -0.4257 -1.1867 -0.5518
 4109SOL    HW214050   8.312   7.981   1.015  0.8295 -1.2231  0.3450
 4110SOL     OW14051   2.343   5.845   4.447 -0.1786  0.3550 -0.0821
 4110SOL    HW114052   2.323   5.938   4.445  0.0902  0.4422  0.8332
 4110SOL    HW214053   2.301   5.810   4.368  1.1743  1.5108 -1.3755
 4111SOL     OW14054   9.251   5.961   9.567  0.0051 -0.4234 -0.6324
 4111SOL    HW114055   9.284   5.951   9.657  2.0308  0.4960 -1.2318
 4111SOL    HW214056   9.328   5.950   9.512 -1.4467 -2.5855 -2.4208
 4112SOL     OW14057   2.397   0.236   0.330  0.1640 -0.0284  0.0618
 4112SOL    HW114058   2.389   0.147   0.295  0.7716  0.1218 -0.4844
 4112SOL    HW214059   2.397   0.292   0.252 -0.7940  0.5013  0.4267
 4113SOL     OW14060   7.823   1.048   3.285 -0.6486  0.2221  0.2212
 4113SOL    HW114061   7.846   0.984   3.218  1.9094 -0.6751  1.7996
 4113SOL    HW214062   7.786   1.122   3.236 -0.3146 -0.9895 -1.9928
 4114SOL     OW14063   4.839   6.024   2.523  0.2175  0.2428 -0.5648
 4114SOL    HW114064   4.789   5.998   2.445  1.2937 -0.1126 -1.1614
 4114SOL    HW214065   4.854   6.117   2.511  3.8948 -0.4386 -2.9846
 4115SOL     OW14066   1.951   5.061   1.050 -0.1144  0.6116 -0.0509
 4115SOL    HW114067   1.936   5.129   0.985 -2.3810  0.4802  0.2713
 4115SOL    HW214068   1.904   4.984   1.017  0.2428 -0.0203  0.8530
 4116SOL     OW14069   1.123   3.551   8.845  0.2253  0.2160  0.4605
 4116SOL    HW114070   1.208   3.515   8.820 -0.8420 -3.4277  1.5337
 4116SOL    HW214071   1.110   3.521   8.934 -1.5877  2.0209  0.8747
 4117SOL     OW14072   4.365   5.622   5.798 -0.3838 -0.3074  0.0116
 4117SOL    HW114073   4.359   5.636   5.892  0.5843 -0.6476  0.1326
 4117SOL    HW214074   4.433   5.683   5.768  0.1298 -1.0035 -0.2777
 4118SOL     OW14075   8.469   5.375   8.757  0.4684  0.0928 -0.0520
 4118SOL    HW114076   8.406   5.444   8.736 -0.7620 -1.4407 -1.7520
 4118SOL    HW214077   8.544   5.421   8.795 -1.3470  2.0738  1.3777
 4119SOL     OW14078   2.137   5.773   0.022  0.4179 -0.2613 -0.0195
 4119SOL    HW114079   2.111   5.763   0.113  1.4627 -0.2766  0.2881
 4119SOL    HW214080   2.199   5.845   0.022 -0.7649  0.7933 -0.9752
 4120SOL     OW14081   3.878   7.259   8.388 -0.0267 -0.3113  0.4518
 4120SOL    HW114082   3.903   7.351   8.396 -3.4702  1.0489 -2.0332
 4120SOL    HW214083   3.796   7.252   8.437 -0.1710 -1.9095  0.0509
 4121SOL     OW14084   6.272   7.092   4.573  0.0598  0.0842 -0.6721
 4121SOL    HW114085   6.275   7.145   4.493 -1.5523  3.0141  1.0336
 4121SOL    HW214086   6.179   7.087   4.595  0.5011 -0.0507  1.3692
 4122SOL     OW14087   1.088   0.490   0.185 -0.2859  0.0748  0.1942
 4122SOL    HW114088   1.050   0.574   0.158 -2.0286 -1.0343 -1.0591
 4122SOL    HW214089   1.143   0.465   0.111 -1.8624 -1.0696 -0.6569
 4123SOL     OW14090   1.207   3.249   3.949  0.7998 -0.2225  0.0690
 4123SOL    HW114091   1.133   3.305   3.973  1.2181  0.4539 -0.1664
 4123SOL    HW214092   1.259   3.304   3.890  1.4346 -0.7264  0.1554
 4124SOL     OW14093   6.573   2.431   5.365 -0.2879 -0.0476  0.0438
 4124SOL    HW114094   6.541   2.422   5.455  0.1833 -0.5685  0.1668
 4124SOL    HW214095   6.664   2.459   5.374 -0.4682  0.6861 -0.2913
 4125SOL     OW14096   2.157   9.171   8.877  0.1996  0.1026  0.2250
 4125SOL    HW114097   2.172   9.126   8.794  2.0965 -1.3310  1.2528
 4125SOL    HW214098   2.067   9.201   8.872  0.7400  1.6279 -3.0394
 4126SOL     OW14099   3.619   4.711   9.682 -0.3643 -0.2713  0.6261
 4126SOL    HW114100   3.584   4.689   9.596 -0.5736 -0.5882  0.7907
 4126SOL    HW214101   3.606   4.633   9.735 -2.3153  0.6430  1.6008
 4127SOL     OW14102   3.939   3.811   1.187 -0.2019  0.4726  0.5577
 4127SOL    HW114103   3.988   3.790   1.267  0.2186 -2.7378 -0.3909
 4127SOL    HW214104   3.851   3.831   1.217  0.5982  2.0446  1.9824
 4128SOL     OW14105   2.009   5.195   2.540  0.2091  0.4232  0.4533
 4128SOL    HW114106   1.948   5.238   2.600  0.3370  1.4094 -0.1167
 4128SOL    HW214107   1.980   5.103   2.540 -0.8242  0.7286  0.7423
 4129SOL     OW14108   3.698   7.168   0.530  0.2764 -0.3441  0.0690
 4129SOL    HW114109   3.663   7.243   0.577 -0.6411 -0.6298 -0.1302
 4129SOL    HW214110   3.667   7.179   0.440  0.4940 -0.7383 -0.0586
 4130SOL     OW14111   1.474   7.768   0.525  0.1271 -0.4644 -0.2838
 4130SOL    HW114112   1.438   7.679   0.528  2.3840 -1.4096  1.3279
 4130SOL    HW214113   1.542   7.764   0.458 -0.8808  0.5979 -1.4406
 4131SOL     OW14114   2.433   3.110   4.947  0.4162  0.1094  0.1764
 4131SOL    HW114115   2.472   3.055   4.878  1.2526  0.4487  0.3609
 4131SOL    HW214116   2.455   3.064   5.028 -2.4258 -1.4628  0.1798
 4132SOL     OW14117   9.155   9.337   6.599  0.2586  0.0891 -0.5833
 4132SOL    HW114118   9.212   9.260   6.596 -0.2687 -0.3091 -0.3554
 4132SOL    HW214119   9.124   9.341   6.689  1.6013  1.5460 -0.1236
 4133SOL     OW14120   9.668   4.234   0.384  0.5635 -0.8468 -0.4547
 4133SOL    HW114121   9.620   4.296   0.329  0.8785  0.5631  0.7909
 4133SOL    HW214122   9.650   4.149   0.345  1.0474  0.0962 -2.9199
 4134SOL     OW14123   0.773   5.902   0.178  0.1873 -0.0468 -0.0008
 4134SOL    HW114124   0.693   5.866   0.216  1.4244 -0.3979  2.4932
 4134SOL    HW214125   0.841   5.879   0.241  2.6698 -1.5746 -2.9476
 4135SOL     OW14126   6.468   7.560   2.577 -0.5329  0.6045  0.2268
 4135SOL    HW114127   6.407   7.620   2.535  0.9042  0.9375 -1.5227
 4135SOL    HW214128   6.441   7.473   2.545  0.3243  0.8220 -1.1401
 4136SOL     OW14129   7.770   3.380   3.519  0.1212 -0.6707  0.0718
 4136SOL    HW114130   7.754   3.381   3.614 -1.7078  1.4438 -0.1760
 4136SOL    HW214131   7.779   3.287   3.497 -2.5281 -1.4725  1.8823
 4137SOL     OW14132   2.555   1.428   1.185  0.1083 -0.2038  0.1860
 4137SOL    HW114133   2.507   1.484   1.124 -1.5909  0.0917  1.7027
 4137SOL    HW214134   2.622   1.485   1.222 -0.9350  0.5606  0.9456
 4138SOL     OW14135   6.409   8.747   5.698  0.6050 -0.1398  0.4387
 4138SOL    HW114136   6.386   8.666   5.743 -1.2477  0.6480  1.0076
 4138SOL    HW214137   6.325   8.787   5.677  1.4290  0.2280 -2.5100
 4139SOL     OW14138   1.148   4.820   7.031 -0.1271  0.0831  0.2904
 4139SOL    HW114139   1.205   4.821   7.107 -0.4145 -0.3091  0.5181
 4139SOL    HW214140   1.094   4.741   7.042 -2.3382  1.6186  1.3038
 4140SOL     OW14141   5.736   7.016   4.866  0.1728  0.6611  0.3743
 4140SOL    HW114142   5.785   7.073   4.926  0.7305 -0.7861  1.3448
 4140SOL    HW214143   5.645   7.041   4.878  0.2260  0.1480  2.1680
 4141SOL     OW14144   8.539   6.014   8.405  0.3675  0.0217 -0.3149
 4141SOL    HW114145   8.635   6.013   8.413  0.5270 -0.9107 -1.9037
 4141SOL    HW214146   8.513   5.924   8.427 -0.0784  0.0987 -0.5211
 4142SOL     OW14147   6.840   9.669   0.582 -0.1072  0.0669  0.0043
 4142SOL    HW114148   6.776   9.609   0.619 -0.2138  1.0165  1.4386
 4142SOL    HW214149   6.904   9.683   0.652  1.3549 -0.3766 -1.1842
 4143SOL     OW14150   6.120   2.183   2.182 -0.3872 -0.0407  0.5209
 4143SOL    HW114151   6.041   2.176   2.128 -0.6441 -0.4613  0.9427
 4143SOL    HW214152   6.109   2.115   2.249  0.0966  0.2363  0.8858
 4144SOL     OW14153   0.646   2.502   0.443  0.0369 -0.1008 -0.1892
 4144SOL    HW114154   0.568   2.537   0.485  0.9583  0.2485  1.3067
 4144SOL    HW214155   0.614   2.460   0.363 -2.1840 -3.0889  2.0540
 4145SOL     OW14156   7.210   5.377   5.281 -0.9291  0.3597  0.4654
 4145SOL    HW114157   7.206   5.447   5.347 -1.3393  0.6509  0.1356
 4145SOL    HW214158   7.257   5.417   5.208 -0.1463 -0.0819  0.7205
 4146SOL     OW14159   5.860   3.662   0.569 -0.4196  0.5644 -0.2610
 4146SOL    HW114160   5.808   3.728   0.615  1.0710  1.8351 -0.2951
 4146SOL    HW214161   5.799   3.621   0.507 -2.0860 -0.1189  1.7331
 4147SOL     OW14162   8.011   3.849   0.548 -0.1903 -0.3556 -0.5902
 4147SOL    HW114163   7.961   3.911   0.601  1.3757 -0.2449  0.8744
 4147SOL    HW214164   8.085   3.825   0.604  1.7685  0.0068 -2.8436
 4148SOL     OW14165   6.075   2.648   9.637  0.4230 -0.0146 -0.1328
 4148SOL    HW114166   6.015   2.598   9.582 -0.4317  0.8151  0.0127
 4148SOL    HW214167   6.029   2.655   9.721  1.0791 -0.0428  0.2291
 4149SOL     OW14168   3.466   6.688   0.123  0.3273  0.0917 -0.3092
 4149SOL    HW114169   3.498   6.602   0.153  1.7713 -0.0729 -2.1132
 4149SOL    HW214170   3.536   6.749   0.147  0.5614  0.2867 -1.4314
 4150SOL     OW14171   3.260   0.400   3.723  0.2037  0.0919 -0.3917
 4150SOL    HW114172   3.178   0.392   3.675  0.7956 -0.6964 -1.3116
 4150SOL    HW214173   3.238   0.453   3.799 -0.9730  0.5941 -1.0471
 4151SOL     OW14174   0.132   5.363   9.468 -0.3787  0.3803 -0.6007
 4151SOL    HW114175   0.201   5.302   9.493 -1.0379 -1.0321 -2.0133
 4151SOL    HW214176   0.072   5.363   9.543  0.9887  1.4334  0.5304
 4152SOL     OW14177   1.321   4.678   1.775 -0.0486 -0.7821  0.3204
 4152SOL    HW114178   1.346   4.765   1.743 -2.8453  0.0463  0.1529
 4152SOL    HW214179   1.404   4.630   1.779  1.3788  1.3455 -1.1762
 4153SOL     OW14180   7.301   0.705   2.342 -0.0786 -0.0929 -0.1130
 4153SOL    HW114181   7.293   0.788   2.295 -0.9550 -0.1425 -0.0793
 4153SOL    HW214182   7.249   0.643   2.289  1.9774 -1.0671 -1.1106
 4154SOL     OW14183   0.894   7.299   9.522 -0.0189  0.3991 -0.0237
 4154SOL    HW114184   0.965   7.236   9.532 -0.9083 -0.7439 -0.7070
 4154SOL    HW214185   0.821   7.262   9.573 -0.3112  1.2566  0.1936
 4155SOL     OW14186   0.659   4.491   6.852  0.5054 -0.1489 -0.0197
 4155SOL    HW114187   0.719   4.467   6.782  2.4764  2.6681  0.5435
 4155SOL    HW214188   0.672   4.424   6.920  1.3103 -0.8282 -0.8239
 4156SOL     OW14189   8.178   8.402   3.525 -0.4763 -0.2705  0.2538
 4156SOL    HW114190   8.175   8.496   3.505  1.3403 -0.4046 -0.8565
 4156SOL    HW214191   8.151   8.396   3.617 -0.5863  1.3249  0.3491
 4157SOL     OW14192   1.634   8.434   5.231  0.3919 -0.3337 -0.2802
 4157SOL    HW114193   1.571   8.471   5.169  1.6902  0.1728 -1.3654
 4157SOL    HW214194   1.583   8.374   5.285 -0.9093 -0.3635 -1.4847
 4158SOL     OW14195   8.314   8.533   8.473 -0.3394  0.6241  0.2625
 4158SOL    HW114196   8.244   8.471   8.493 -0.7053  0.2075 -2.0917
 4158SOL    HW214197   8.314   8.540   8.378  2.3002  1.2239  0.2328
 4159SOL     OW14198   3.661   4.536   6.938  0.2934  0.6491  0.0803
 4159SOL    HW114199   3.728   4.586   6.984  1.0292  0.7714 -1.0777
 4159SOL    HW214200   3.641   4.588   6.860  0.1312 -0.2288 -0.4846
 4160SOL     OW14201   2.865   3.271   1.173  0.4941  0.3693  0.5860
 4160SOL    HW114202   2.831   3.234   1.091 -0.8535  1.7987  0.4464
 4160SOL    HW214203   2.829   3.214   1.241 -1.6603  1.3725  0.3815
 4161SOL     OW14204   3.570   6.244   9.028  0.1715  0.0415 -0.2022
 4161SOL    HW114205   3.591   6.326   8.985 -1.6142 -0.4759 -2.1884
 4161SOL    HW214206   3.552   6.268   9.119 -0.3416  1.8459 -0.7493
 4162SOL     OW14207   0.046   4.674   3.779  0.2127 -0.1851 -0.3351
 4162SOL    HW114208   0.086   4.754   3.745  0.2668 -0.1261 -0.1336
 4162SOL    HW214209   0.108   4.642   3.844  0.0461 -0.2276 -0.1981
 4163SOL     OW14210   2.713   3.935   1.906  0.1679  0.2485  0.5257
 4163SOL    HW114211   2.687   3.953   1.816  1.3414  0.6461  0.2416
 4163SOL    HW214212   2.742   4.020   1.940 -1.1692  0.2986  1.6078
 4164SOL     OW14213   1.173   8.220   5.551  0.2141 -0.3260  0.0198
 4164SOL    HW114214   1.239   8.152   5.565  1.0099 -0.1002 -2.1654
 4164SOL    HW214215   1.091   8.173   5.536  0.3508 -0.7183  0.5190
 4165SOL     OW14216   5.807   4.646   3.099 -0.2559 -0.5440  0.7247
 4165SOL    HW114217   5.812   4.700   3.020 -1.8415 -1.7305 -0.2369
 4165SOL    HW214218   5.796   4.709   3.170  0.4341  0.5058 -0.0644
 4166SOL     OW14219   7.628   2.814   2.446  0.1392 -0.1605  0.6703
 4166SOL    HW114220   7.552   2.767   2.413 -1.2147  1.0725  1.9323
 4166SOL    HW214221   7.610   2.906   2.426  1.8362  0.0639 -0.0013
 4167SOL     OW14222   3.597   2.230   3.754 -0.0480  0.2439  0.3988
 4167SOL    HW114223   3.645   2.302   3.795 -0.0573  1.0500 -0.9578
 4167SOL    HW214224   3.664   2.179   3.709 -0.4589  2.0390 -2.5101
 4168SOL     OW14225   2.546   5.327   6.647  0.3972 -0.5094  0.0047
 4168SOL    HW114226   2.488   5.270   6.596  0.2332  0.2364 -0.6627
 4168SOL    HW214227   2.487   5.386   6.694  0.5903  0.0247 -0.4100
 4169SOL     OW14228   2.127   2.724   0.935  0.4293  0.4440  0.1577
 4169SOL    HW114229   2.187   2.660   0.898 -0.5073 -0.2454 -0.1967
 4169SOL    HW214230   2.181   2.776   0.995  1.2900 -0.4038  0.1356
 4170SOL     OW14231   7.994   7.879   8.270 -0.1013  0.0537  0.1540
 4170SOL    HW114232   8.070   7.913   8.222 -0.5117 -0.6652 -1.0423
 4170SOL    HW214233   7.920   7.930   8.237 -0.5495 -1.1695 -0.8264
 4171SOL     OW14234   3.680   1.413   6.430 -0.3992 -0.3452  0.0847
 4171SOL    HW114235   3.775   1.416   6.418 -0.4174 -0.4961 -0.1046
 4171SOL    HW214236   3.650   1.347   6.368 -0.6468 -0.1878  0.0329
 4172SOL     OW14237   1.352   3.118   5.250 -0.5458 -0.2735 -0.1198
 4172SOL    HW114238   1.436   3.126   5.204  0.0215  1.2919  1.0889
 4172SOL    HW214239   1.368   3.050   5.316 -0.3293 -0.2312 -0.1279
 4173SOL     OW14240   2.811   5.278   6.287 -0.3703  0.1116 -0.3275
 4173SOL    HW114241   2.846   5.335   6.219 -2.3102 -0.2624 -1.7388
 4173SOL    HW214242   2.722   5.310   6.302 -1.3445 -2.1625 -0.8160
 4174SOL     OW14243   2.933   4.480   4.979 -0.3579 -0.3941 -0.0991
 4174SOL    HW114244   2.852   4.528   4.999 -0.5412 -0.3908 -0.8367
 4174SOL    HW214245   2.937   4.411   5.046 -1.8096 -1.4026 -1.0082
 4175SOL     OW14246   1.678   5.418   0.309  0.1081  0.1720 -0.4711
 4175SOL    HW114247   1.708   5.387   0.224  0.7467  0.4090 -0.3381
 4175SOL    HW214248   1.723   5.502   0.321 -0.3589  0.3769 -0.1196
 4176SOL     OW14249   6.030   6.132   2.296  0.8610  0.4555  0.3341
 4176SOL    HW114250   6.046   6.224   2.315  0.0489  0.4358  1.2333
 4176SOL    HW214251   6.114   6.098   2.265  1.1231  1.5301 -0.1705
 4177SOL     OW14252   8.551   8.431   3.492 -0.3663  0.0066 -0.5334
 4177SOL    HW114253   8.642   8.457   3.478 -0.4530 -0.4470 -2.1639
 4177SOL    HW214254   8.501   8.510   3.473 -0.3466  0.0566 -0.3748
 4178SOL     OW14255   3.913   7.475   7.024 -0.2105 -0.0979 -0.0960
 4178SOL    HW114256   4.002   7.480   6.990 -1.0757  1.2065 -2.3548
 4178SOL    HW214257   3.868   7.414   6.965 -1.0791  0.0439  0.4042
 4179SOL     OW14258   9.598   0.101   6.207  0.2287 -0.0291 -0.4367
 4179SOL    HW114259   9.636   0.096   6.295  0.2277 -0.3859 -0.4528
 4179SOL    HW214260   9.629   0.184   6.172 -0.0602  0.2829  0.0361
 4180SOL     OW14261   1.224   3.043   4.314  0.0916  0.1252 -0.0722
 4180SOL    HW114262   1.177   2.976   4.265 -0.2523 -0.7335  1.3659
 4180SOL    HW214263   1.193   3.032   4.404  2.5961 -0.1076  0.8335
 4181SOL     OW14264   0.722   3.341   4.666 -0.1796  0.8386  0.2891
 4181SOL    HW114265   0.806   3.367   4.629 -0.2827 -0.6261 -1.1177
 4181SOL    HW214266   0.659   3.359   4.596 -0.9941  1.6168  1.2060
 4182SOL     OW14267   0.605   1.971   3.410  0.0415  0.1144  0.0220
 4182SOL    HW114268   0.569   1.886   3.386  0.1834  0.0744 -0.0496
 4182SOL    HW214269   0.528   2.024   3.433 -0.0178 -0.1353  0.3949
 4183SOL     OW14270   5.838   1.589   8.938  0.2940  0.0465  0.0821
 4183SOL    HW114271   5.772   1.579   9.006  0.3989 -2.2516 -0.0984
 4183SOL    HW214272   5.788   1.607   8.858 -0.1646 -1.6720 -0.0551
 4184SOL     OW14273   6.419   2.815   9.164  0.1161  0.1007 -0.3344
 4184SOL    HW114274   6.327   2.842   9.163 -0.1990 -0.9239 -0.0913
 4184SOL    HW214275   6.460   2.869   9.232 -0.4960 -0.0418  0.1479
 4185SOL     OW14276   7.420   5.005   8.977 -0.2447  0.4499 -0.2836
 4185SOL    HW114277   7.505   5.011   9.021  0.5704  0.4586 -1.7703
 4185SOL    HW214278   7.440   5.025   8.885 -1.5063 -1.4895 -1.0400
 4186SOL     OW14279   3.011   4.366   1.288  0.2633 -0.1577  0.1528
 4186SOL    HW114280   2.996   4.442   1.345  1.8349  0.3260 -0.0198
 4186SOL    HW214281   3.069   4.399   1.220 -1.9005 -0.5957 -2.0608
 4187SOL     OW14282   2.045   8.324   4.823 -0.0667 -0.2496  0.3045
 4187SOL    HW114283   2.095   8.305   4.903  0.0960 -0.6365  0.1110
 4187SOL    HW214284   2.110   8.324   4.753 -0.2314 -0.0476  0.1504
 4188SOL     OW14285   0.439   8.977   6.370  0.6077  0.3721 -0.7026
 4188SOL    HW114286   0.409   8.891   6.340 -0.8067  1.3009 -2.0620
 4188SOL    HW214287   0.493   8.957   6.447 -1.1450 -1.6248  0.1377
 4189SOL     OW14288   0.667   3.117   0.181  0.2660  0.4246 -0.0743
 4189SOL    HW114289   0.636   3.195   0.228  0.0580 -0.9056  2.1709
 4189SOL    HW214290   0.617   3.115   0.100 -1.9888  1.0051  1.2235
 4190SOL     OW14291   8.578   6.348   4.454  0.3835 -0.1086  0.6483
 4190SOL    HW114292   8.622   6.422   4.413 -0.5376  0.3701  0.5008
 4190SOL    HW214293   8.485   6.365   4.441  0.1553 -1.3539  0.5067
 4191SOL     OW14294   5.611   4.254   1.414 -0.3680  0.4215  0.3073
 4191SOL    HW114295   5.576   4.209   1.491 -0.2901 -1.0137 -0.4709
 4191SOL    HW214296   5.581   4.345   1.425 -1.1690  0.0492  1.5391
 4192SOL     OW14297   8.599   8.276   4.249 -0.5428  0.0052 -0.1916
 4192SOL    HW114298   8.521   8.288   4.303 -0.2554 -1.1011  0.5139
 4192SOL    HW214299   8.668   8.324   4.295 -0.8476  1.2379 -0.9754
 4193SOL     OW14300   6.523   5.999   9.544  0.1677  0.5739  0.2601
 4193SOL    HW114301   6.518   6.088   9.578 -1.3323  0.9827 -0.9012
 4193SOL    HW214302   6.565   6.008   9.458  0.3384  0.1164  0.2934
 4194SOL     OW14303   6.391   7.021   1.609  0.2155  0.2134 -0.6575
 4194SOL    HW114304   6.379   7.103   1.655 -2.4223 -0.1187 -0.6263
 4194SOL    HW214305   6.387   7.044   1.516 -1.9276 -0.0042 -0.6498
 4195SOL     OW14306   2.534   3.062   6.654 -0.0282 -0.4866  0.4636
 4195SOL    HW114307   2.448   3.089   6.689  0.0980  0.3813  0.1258
 4195SOL    HW214308   2.515   2.985   6.601 -0.7272  0.1023 -0.1754
 4196SOL     OW14309   2.251   1.245   8.281 -0.1716  0.5854  1.0119
 4196SOL    HW114310   2.165   1.206   8.264  0.8387 -0.8097 -1.2902
 4196SOL    HW214311   2.250   1.327   8.231  0.3218 -0.1721 -0.3009
 4197SOL     OW14312   4.242   8.420   2.040 -0.3115  0.1468  0.8265
 4197SOL    HW114313   4.234   8.453   1.950 -0.4153 -2.0918 -0.0392
 4197SOL    HW214314   4.154   8.430   2.076 -0.6291 -0.2244  0.1876
 4198SOL     OW14315   8.351   5.614   0.340 -0.1168 -0.4133  0.2995
 4198SOL    HW114316   8.395   5.537   0.304  1.5748  0.7782 -0.2843
 4198SOL    HW214317   8.296   5.646   0.268  1.6862  0.7663 -0.6381
 4199SOL     OW14318   0.857   8.266   4.101  0.1788  0.3597 -0.0110
 4199SOL    HW114319   0.857   8.351   4.056 -1.4341 -0.9115 -2.6398
 4199SOL    HW214320   0.770   8.258   4.138  0.2464 -0.2425  0.0247
 4200SOL     OW14321   3.139   9.418   8.238  0.3531  0.2536 -0.0611
 4200SOL    HW114322   3.159   9.327   8.217 -0.3361  0.0679  0.0737
 4200SOL    HW214323   3.066   9.441   8.181 -0.7049  0.1384  1.1984
 4201SOL     OW14324   4.977   9.114   3.796  0.2025 -0.1563 -0.5168
 4201SOL    HW114325   5.026   9.114   3.714 -0.3041 -0.5499 -0.8271
 4201SOL    HW214326   4.971   9.022   3.820 -0.8609 -0.1637 -0.7804
 4202SOL     OW14327   3.861   5.888   0.337 -0.3936  0.0322 -0.4910
 4202SOL    HW114328   3.830   5.963   0.287  2.3131  2.4793  1.1847
 4202SOL    HW214329   3.823   5.898   0.424  0.2443 -0.3243 -0.1572
 4203SOL     OW14330   4.109   1.256   4.510  0.3406  0.1848 -0.2196
 4203SOL    HW114331   4.018   1.288   4.510  0.1219 -0.3976  0.4890
 4203SOL    HW214332   4.111   1.192   4.581  0.6237 -1.7519 -1.8882
 4204SOL     OW14333   5.691   7.918   6.193  0.0351  0.5395  0.5865
 4204SOL    HW114334   5.686   7.940   6.100  2.1471 -0.6155  0.1460
 4204SOL    HW214335   5.731   7.831   6.195 -2.0186 -0.4760  2.5170
 4205SOL     OW14336   4.504   9.159   8.112 -0.3006  0.4365 -0.4127
 4205SOL    HW114337   4.448   9.089   8.146  0.0977 -0.5152 -1.6508
 4205SOL    HW214338   4.445   9.233   8.100 -1.2299 -0.4365 -1.3450
 4206SOL     OW14339   1.002   3.553   6.690  0.2892  0.1656  0.9282
 4206SOL    HW114340   0.966   3.541   6.603  0.8194 -1.0925  0.8632
 4206SOL    HW214341   1.052   3.474   6.707  0.6605  0.6306  2.1561
 4207SOL     OW14342   6.650   4.053   4.994 -0.0597 -0.9300  0.3350
 4207SOL    HW114343   6.701   4.087   4.920 -0.5248  0.9093  0.8187
 4207SOL    HW214344   6.715   4.016   5.053  0.5190 -0.4742 -0.0075
 4208SOL     OW14345   0.474   5.805   2.490  0.1517 -0.9591 -0.4574
 4208SOL    HW114346   0.416   5.830   2.418 -1.1322 -1.7824  0.2439
 4208SOL    HW214347   0.474   5.882   2.547 -0.6735 -1.1139 -0.2265
 4209SOL     OW14348   7.248   0.312   1.754 -0.0478 -0.1778 -0.3546
 4209SOL    HW114349   7.192   0.238   1.730 -0.7979  0.3612 -0.3320
 4209SOL    HW214350   7.221   0.382   1.694  0.0756  0.3165  0.1596
 4210SOL     OW14351   3.634   1.614   9.140  0.4382 -0.2881  0.5698
 4210SOL    HW114352   3.712   1.646   9.094  0.4107  1.1827  1.4643
 4210SOL    HW214353   3.650   1.637   9.231 -1.8481  1.8711  0.5378
 4211SOL     OW14354   7.217   3.368   4.119  0.0925 -0.4542  0.3145
 4211SOL    HW114355   7.280   3.435   4.095 -1.2457  0.3793 -1.1145
 4211SOL    HW214356   7.265   3.308   4.175  1.7729  0.8268  0.3134
 4212SOL     OW14357   2.830   8.182   5.300  0.2807  0.1329  0.5390
 4212SOL    HW114358   2.855   8.091   5.318  0.0063 -0.1668 -0.5323
 4212SOL    HW214359   2.825   8.223   5.387  1.8686 -0.4710  0.9504
 4213SOL     OW14360   4.342   3.198   9.632  0.1162 -0.1979  0.3716
 4213SOL    HW114361   4.309   3.209   9.721  1.1502 -0.4635  0.8077
 4213SOL    HW214362   4.431   3.163   9.644  0.2581 -0.2587 -0.7632
 4214SOL     OW14363   0.575   0.748   9.182 -0.1059 -0.0051  0.1782
 4214SOL    HW114364   0.561   0.821   9.122 -0.2917  1.0518  1.4553
 4214SOL    HW214365   0.579   0.788   9.269 -0.6218 -1.5527  0.9684
 4215SOL     OW14366   2.320   1.522   0.686  0.0226 -0.2519  0.5862
 4215SOL    HW114367   2.268   1.593   0.723  0.4715 -0.1821  1.0860
 4215SOL    HW214368   2.395   1.565   0.646 -0.1925 -0.3711  0.0410
 4216SOL     OW14369   8.030   8.618   9.257  0.1822 -0.0766 -0.2542
 4216SOL    HW114370   8.053   8.565   9.333  0.7887 -1.9239 -1.6352
 4216SOL    HW214371   8.113   8.639   9.216 -0.1976 -0.5557 -1.3102
 4217SOL     OW14372   8.498   8.057   4.129  0.1198  0.1772  0.3171
 4217SOL    HW114373   8.539   8.131   4.174 -0.0019 -0.2035  1.0669
 4217SOL    HW214374   8.546   8.051   4.047 -0.3569  1.5478 -0.0963
 4218SOL     OW14375   0.321   3.671   3.822 -0.1853  0.2389  0.0386
 4218SOL    HW114376   0.319   3.575   3.814 -1.3905  0.3098 -0.7891
 4218SOL    HW214377   0.303   3.702   3.733  0.6693  1.2532  0.2000
 4219SOL     OW14378   7.013   6.982   1.198  0.1771 -0.0413  0.1726
 4219SOL    HW114379   7.082   6.923   1.166  0.1019 -1.0177  1.7435
 4219SOL    HW214380   6.968   7.010   1.118  0.5969 -1.6234 -0.6799
 4220SOL     OW14381   3.824   4.966   5.294  0.0509  0.9892 -0.3189
 4220SOL    HW114382   3.910   4.995   5.263  0.1368 -0.7021 -1.8022
 4220SOL    HW214383   3.842   4.923   5.377  0.7157  0.3822 -0.7582
 4221SOL     OW14384   7.319   3.246   6.916  0.4227 -0.0467 -0.1512
 4221SOL    HW114385   7.321   3.249   6.820 -1.9251  1.2432 -0.2190
 4221SOL    HW214386   7.254   3.179   6.937 -0.6009  1.0943  0.4648
 4222SOL     OW14387   7.821   6.455   3.870  0.0668  0.1741 -0.0464
 4222SOL    HW114388   7.837   6.525   3.807 -0.2484 -0.4138 -0.7902
 4222SOL    HW214389   7.900   6.401   3.866 -0.0845 -0.0399 -0.1751
 4223SOL     OW14390   0.275   6.139   0.823  0.5675 -0.2575  0.5191
 4223SOL    HW114391   0.293   6.052   0.858  1.8023 -1.2958 -2.3719
 4223SOL    HW214392   0.191   6.130   0.778  0.9708 -0.1807 -0.2803
 4224SOL     OW14393   8.924   7.466   7.972 -0.1629  0.0488  0.0086
 4224SOL    HW114394   8.914   7.399   8.040 -1.6894  1.3456  1.1475
 4224SOL    HW214395   8.917   7.418   7.890  2.4064 -1.6761  0.6686
 4225SOL     OW14396   3.846   0.901   4.635 -0.0750  0.0156 -0.0974
 4225SOL    HW114397   3.755   0.910   4.607  1.2055  2.0026 -4.5077
 4225SOL    HW214398   3.854   0.961   4.709 -2.3297 -0.3170  0.4742
 4226SOL     OW14399   2.495   2.990   9.079 -0.1132  0.4292  0.1329
 4226SOL    HW114400   2.536   2.911   9.114 -0.9036  0.1509  0.4533
 4226SOL    HW214401   2.428   3.013   9.143  0.7976  1.9797  0.5702
 4227SOL     OW14402   5.312   5.122   8.144 -0.0384  0.1826 -0.0032
 4227SOL    HW114403   5.233   5.155   8.185 -1.4960 -0.3050 -2.2281
 4227SOL    HW214404   5.373   5.196   8.145 -0.2772  0.3892  2.2446
 4228SOL     OW14405   8.280   5.796   6.926 -0.5138 -0.3637 -0.3367
 4228SOL    HW114406   8.263   5.759   7.013 -0.4700 -1.3594 -0.7430
 4228SOL    HW214407   8.209   5.763   6.871 -0.1903 -0.2516 -0.8315
 4229SOL     OW14408   6.523   0.545   0.063  0.1496  0.1574  0.4015
 4229SOL    HW114409   6.607   0.587   0.080 -0.3313  0.6788  1.5909
 4229SOL    HW214410   6.497   0.507   0.147 -0.4511 -0.6578 -0.1378
 4230SOL     OW14411   2.227   3.045   7.300  0.2404  0.3162 -0.4197
 4230SOL    HW114412   2.213   2.961   7.256  0.5522  0.4165 -0.7131
 4230SOL    HW214413   2.263   3.022   7.385  1.7569  0.2070 -1.0732
 4231SOL     OW14414   5.982   4.442   3.099  0.8077 -0.4755  0.8625
 4231SOL    HW114415   5.916   4.509   3.119  0.1462 -0.5570 -0.8451
 4231SOL    HW214416   6.017   4.416   3.184 -1.9439 -1.0360  1.9222
 4232SOL     OW14417   8.205   0.982   0.455 -0.2595 -0.2154  0.2030
 4232SOL    HW114418   8.118   0.946   0.439 -0.3732  0.4709 -0.8379
 4232SOL    HW214419   8.222   1.038   0.379  1.6584 -1.4063 -0.3482
 4233SOL     OW14420   3.000   6.279   8.272 -0.4184  0.1179 -0.3921
 4233SOL    HW114421   2.973   6.192   8.241  0.7952 -0.3582 -0.1788
 4233SOL    HW214422   3.083   6.295   8.227 -0.4726  1.0280 -0.1681
 4234SOL     OW14423   3.442   6.031   9.238  0.1401 -0.8133 -0.0534
 4234SOL    HW114424   3.382   6.063   9.305 -0.3192  0.0376 -0.8598
 4234SOL    HW214425   3.515   6.093   9.239  0.3269 -1.0286 -0.0748
 4235SOL     OW14426   9.623   1.737   9.031 -0.2358 -0.1288 -0.0942
 4235SOL    HW114427   9.561   1.677   9.073  1.1817 -1.8415 -0.3409
 4235SOL    HW214428   9.582   1.760   8.947  0.2393 -2.8227 -1.1585
 4236SOL     OW14429   8.309   4.008   0.680 -0.0079 -0.0085 -0.3956
 4236SOL    HW114430   8.389   4.016   0.628  1.2819 -2.0862  1.1171
 4236SOL    HW214431   8.266   3.930   0.644 -0.3779 -0.0089  0.0447
 4237SOL     OW14432   6.788   2.015   0.742 -0.3755  0.1843 -0.0829
 4237SOL    HW114433   6.736   1.989   0.666 -0.0577 -0.0491 -0.2255
 4237SOL    HW214434   6.726   2.017   0.815 -0.8092  1.0185 -0.4681
 4238SOL     OW14435   4.177   4.683   6.427 -0.1642 -0.9091 -0.0557
 4238SOL    HW114436   4.168   4.758   6.486  1.3249  0.0132 -0.9256
 4238SOL    HW214437   4.100   4.688   6.370  0.3440  0.5123 -0.6650
 4239SOL     OW14438   0.697   6.930   1.255 -0.5682 -0.4339 -0.4212
 4239SOL    HW114439   0.646   6.997   1.300 -0.8723  0.2623 -1.7436
 4239SOL    HW214440   0.781   6.972   1.236 -0.5467 -0.6182 -0.7458
 4240SOL     OW14441   1.821   1.729   1.136 -0.0689 -0.3718  0.0943
 4240SOL    HW114442   1.751   1.793   1.125  0.7644  0.4753 -0.4710
 4240SOL    HW214443   1.848   1.738   1.227  1.0638  1.2277 -0.3404
 4241SOL     OW14444   0.554   6.521   6.036  0.4504 -0.0667 -0.2323
 4241SOL    HW114445   0.490   6.531   5.966 -2.0515 -1.1118  1.7515
 4241SOL    HW214446   0.605   6.444   6.011 -1.3910 -1.3269 -0.2623
 4242SOL     OW14447   9.051   1.111   0.086 -0.6455  0.9426 -0.4049
 4242SOL    HW114448   9.033   1.172   0.015 -1.0334  1.3612  0.0454
 4242SOL    HW214449   8.986   1.041   0.077 -1.4792  1.6101  0.2407
 4243SOL     OW14450   8.430   0.897   1.762  0.2419 -0.0508  0.1196
 4243SOL    HW114451   8.426   0.930   1.852 -0.7121  0.4315 -0.0920
 4243SOL    HW214452   8.441   0.802   1.772 -0.9661 -0.1371  0.7550
 4244SOL     OW14453   3.075   8.064   8.346  0.3477  0.1186 -0.1968
 4244SOL    HW114454   3.031   7.991   8.302 -0.5056  0.6489 -0.2486
 4244SOL    HW214455   3.069   8.043   8.439 -0.0603  0.2102 -0.2013
 4245SOL     OW14456   8.879   8.738   1.426  0.3195 -0.0022  0.5238
 4245SOL    HW114457   8.916   8.826   1.432  0.4627  0.1739 -1.8489
 4245SOL    HW214458   8.910   8.693   1.504  2.5635  1.2234  0.4203
 4246SOL     OW14459   7.250   4.799   4.175  0.7990  0.0394  0.0370
 4246SOL    HW114460   7.296   4.811   4.258  0.7870 -0.1845  0.0759
 4246SOL    HW214461   7.318   4.804   4.109  0.6537  1.4810 -0.0410
 4247SOL     OW14462   7.659   7.898   5.049  0.1392 -0.1231 -0.1496
 4247SOL    HW114463   7.719   7.964   5.084  0.1620 -1.3011  2.1507
 4247SOL    HW214464   7.713   7.846   4.989  0.3038  1.3859 -1.4025
 4248SOL     OW14465   5.953   1.346   7.776  0.2356 -0.0654  0.0266
 4248SOL    HW114466   5.939   1.438   7.796 -1.2441 -0.2977  0.1335
 4248SOL    HW214467   5.954   1.302   7.862 -1.6061 -0.4650 -0.1270
 4249SOL     OW14468   6.829   6.638   8.250  0.1601 -0.7151 -0.2499
 4249SOL    HW114469   6.747   6.671   8.287  0.0992  0.0041 -0.9910
 4249SOL    HW214470   6.805   6.554   8.211 -0.1824 -0.5990 -0.2964
 4250SOL     OW14471   4.686   8.852   7.981 -0.4685  0.2071  0.4219
 4250SOL    HW114472   4.763   8.794   7.979  0.8439  1.8813 -0.6809
 4250SOL    HW214473   4.643   8.832   8.064 -0.2815 -2.5501 -0.0354
 4251SOL     OW14474   7.263   6.511   5.283  0.0458 -0.2990  0.0564
 4251SOL    HW114475   7.196   6.443   5.291 -0.3544 -0.0651 -1.0937
 4251SOL    HW214476   7.220   6.581   5.234  1.1494 -0.1668 -0.7586
 4252SOL     OW14477   6.252   2.128   9.346  0.2912 -0.5899  0.0174
 4252SOL    HW114478   6.290   2.083   9.421  0.7302 -0.0988  0.0942
 4252SOL    HW214479   6.211   2.059   9.295 -0.0728 -0.9260  0.7441
 4253SOL     OW14480   3.305   5.620   3.663 -0.8933 -1.0714  0.7626
 4253SOL    HW114481   3.305   5.562   3.586 -2.5070 -1.6396  1.1424
 4253SOL    HW214482   3.227   5.594   3.712 -1.5943  1.3414  1.0343
 4254SOL     OW14483   3.194   7.723   4.100  0.0488  0.3589  0.0531
 4254SOL    HW114484   3.273   7.776   4.106  0.1718  0.3514 -1.1399
 4254SOL    HW214485   3.225   7.637   4.074 -0.3934  0.5627 -1.2248
 4255SOL     OW14486   1.685   6.786   7.162  0.3342  0.1648  0.6417
 4255SOL    HW114487   1.686   6.701   7.119  0.9422  0.1412  0.6960
 4255SOL    HW214488   1.592   6.804   7.177 -0.2228  1.5507 -3.3356
 4256SOL     OW14489   7.823   1.946   5.612 -0.5991 -0.3933  0.0247
 4256SOL    HW114490   7.752   1.946   5.549 -1.7377  0.0122  1.2598
 4256SOL    HW214491   7.902   1.957   5.559 -1.6173  1.5151 -1.2215
 4257SOL     OW14492   3.615   1.922   8.676 -0.1508  0.3598  0.4209
 4257SOL    HW114493   3.645   1.994   8.732 -0.7250 -0.0355  1.2525
 4257SOL    HW214494   3.679   1.852   8.690  0.2659  0.6035 -0.1961
 4258SOL     OW14495   6.187   1.806   3.576 -0.0406 -0.1378 -0.7313
 4258SOL    HW114496   6.203   1.715   3.599  1.4178  0.4712  0.9372
 4258SOL    HW214497   6.252   1.855   3.626 -0.7355  1.8201 -1.6345
 4259SOL     OW14498   9.045   4.471   8.146 -0.2836 -0.0330  0.1891
 4259SOL    HW114499   9.090   4.543   8.192  0.7940 -0.1212 -0.7037
 4259SOL    HW214500   9.025   4.507   8.060 -1.1024 -0.3094  0.2621
 4260SOL     OW14501   3.048   0.349   8.302 -0.1071 -0.0202  0.3116
 4260SOL    HW114502   3.026   0.434   8.339 -3.6144 -0.1772 -1.0075
 4260SOL    HW214503   3.032   0.287   8.373  1.7166  0.2763  1.0401
 4261SOL     OW14504   3.207   8.490   4.375  0.5589 -0.2048  0.2481
 4261SOL    HW114505   3.210   8.576   4.332  0.5835  0.3695  1.3657
 4261SOL    HW214506   3.297   8.458   4.370  0.4585 -0.3778 -0.5739
 4262SOL     OW14507   5.575   3.018   8.618 -0.3376 -0.3495  0.6865
 4262SOL    HW114508   5.605   2.994   8.530  0.2790 -0.9249  1.0385
 4262SOL    HW214509   5.491   3.062   8.604 -0.6828 -1.2212 -0.1319
 4263SOL     OW14510   8.419   8.139   8.082 -0.1832 -0.0387 -0.4891
 4263SOL    HW114511   8.332   8.101   8.069  0.0981 -1.3472  1.1062
 4263SOL    HW214512   8.451   8.098   8.162  0.8070  2.4466  0.4896
 4264SOL     OW14513   5.048   7.762   4.708 -0.0192  0.2859  0.6730
 4264SOL    HW114514   5.011   7.684   4.668 -1.6568  2.4027 -2.3807
 4264SOL    HW214515   4.974   7.805   4.750  0.7589  0.4529  1.9225
 4265SOL     OW14516   2.055   0.932   6.753 -0.0577  0.2138 -0.3922
 4265SOL    HW114517   2.034   0.843   6.781  1.6308  0.2501  1.2071
 4265SOL    HW214518   1.971   0.977   6.749 -0.8698 -1.2702 -0.5985
 4266SOL     OW14519   6.586   8.776   9.176  0.5384 -0.0831 -0.5062
 4266SOL    HW114520   6.505   8.731   9.200  1.1521 -1.1063 -0.2884
 4266SOL    HW214521   6.609   8.740   9.091  0.9999 -0.1206 -0.3666
 4267SOL     OW14522   2.246   8.498   3.215 -0.1838 -0.3533 -0.3475
 4267SOL    HW114523   2.245   8.586   3.253  2.3333 -0.3670 -0.1319
 4267SOL    HW214524   2.182   8.449   3.267  0.3382  0.6558  1.3102
 4268SOL     OW14525   2.854   6.372   3.546  0.0202 -0.1607  0.2999
 4268SOL    HW114526   2.926   6.393   3.487 -0.5909  0.3544 -0.2710
 4268SOL    HW214527   2.807   6.454   3.557 -0.9466 -0.6603  0.0247
 4269SOL     OW14528   4.327   9.492   0.759 -0.6116  0.3135 -0.1842
 4269SOL    HW114529   4.266   9.429   0.798  1.2007 -2.7200 -1.9216
 4269SOL    HW214530   4.406   9.486   0.814 -0.3280  0.9726 -0.5037
 4270SOL     OW14531   4.862   3.264   1.956 -0.5779  0.0889  0.0689
 4270SOL    HW114532   4.835   3.194   2.015 -0.0161  0.1189  0.3587
 4270SOL    HW214533   4.895   3.333   2.013 -0.1350  0.1640 -0.2689
 4271SOL     OW14534   4.495   0.393   3.645 -0.2367  0.2801 -0.0481
 4271SOL    HW114535   4.562   0.339   3.603 -0.5541  0.2861 -0.5659
 4271SOL    HW214536   4.425   0.332   3.668  0.7547 -0.0716  2.2701
 4272SOL     OW14537   3.979   3.354   3.217  0.2826  0.5660  0.6979
 4272SOL    HW114538   3.994   3.299   3.293 -1.7539 -0.3591  0.4670
 4272SOL    HW214539   3.908   3.413   3.242  0.5824  1.2570  0.0013
 4273SOL     OW14540   1.277   1.903   3.488  0.6587  0.0888  0.0734
 4273SOL    HW114541   1.348   1.924   3.428  0.1713 -0.8977 -0.8784
 4273SOL    HW214542   1.212   1.857   3.434 -0.7458  1.0377  0.9001
 4274SOL     OW14543   9.446   0.852   5.332 -0.3154  0.0359  0.8134
 4274SOL    HW114544   9.377   0.866   5.396 -1.6260 -2.7061  0.1475
 4274SOL    HW214545   9.497   0.779   5.367  0.5930  0.2700  0.0243
 4275SOL     OW14546   4.527   4.670   7.794 -0.0540  0.1025  0.4534
 4275SOL    HW114547   4.473   4.597   7.764  0.2315  0.0113  0.1568
 4275SOL    HW214548   4.617   4.639   7.786  0.0857  0.6045 -0.0076
 4276SOL     OW14549   6.965   9.468   1.883 -0.6858  0.1670 -0.0602
 4276SOL    HW114550   6.898   9.510   1.830 -2.1293 -0.2378  1.3614
 4276SOL    HW214551   6.983   9.386   1.839  1.0684  1.4937 -2.0395
 4277SOL     OW14552   9.146   9.130   3.908 -0.1708 -0.1715  0.6945
 4277SOL    HW114553   9.107   9.117   3.994 -1.7608  1.8989  0.3826
 4277SOL    HW214554   9.117   9.055   3.857  1.8851 -2.1271  2.2152
 4278SOL     OW14555   8.535   2.659   6.120  0.4854  0.4115  0.4576
 4278SOL    HW114556   8.463   2.693   6.067 -0.5093  1.4680  2.3772
 4278SOL    HW214557   8.581   2.736   6.152  2.8418 -0.2485 -1.1188
 4279SOL     OW14558   0.117   8.067   3.672 -0.5235 -0.4201 -0.6818
 4279SOL    HW114559   0.199   8.103   3.639 -1.1430  0.6614 -1.0542
 4279SOL    HW214560   0.133   7.972   3.677  0.7831 -0.2105 -0.6221
 4280SOL     OW14561   1.141   0.947   9.044  0.5139 -0.7095  0.0970
 4280SOL    HW114562   1.164   0.858   9.071  1.0076 -0.7914 -0.5769
 4280SOL    HW214563   1.149   0.946   8.949  3.2816  0.7961  0.2123
 4281SOL     OW14564   0.961   3.396   2.141 -0.8644  0.2648 -0.1686
 4281SOL    HW114565   1.054   3.420   2.145 -0.3525 -0.5761 -3.5261
 4281SOL    HW214566   0.914   3.477   2.158  0.5849  1.3370 -1.0570
 4282SOL     OW14567   0.136   3.594   2.309 -0.5501 -0.0924  0.1898
 4282SOL    HW114568   0.079   3.656   2.264  0.9812  0.7488 -0.7030
 4282SOL    HW214569   0.198   3.649   2.358 -1.3752 -0.9914  2.3424
 4283SOL     OW14570   1.503   4.187   5.367  0.2626  0.5112 -0.3050
 4283SOL    HW114571   1.411   4.180   5.339  0.5048 -1.2373 -0.7651
 4283SOL    HW214572   1.498   4.212   5.459 -0.6951  0.1495 -0.2419
 4284SOL     OW14573   8.935   5.511   1.415  0.0676  0.2015 -0.3405
 4284SOL    HW114574   8.860   5.522   1.356  0.2923 -2.2058 -1.1814
 4284SOL    HW214575   9.008   5.552   1.368 -0.7111  3.0445  0.7184
 4285SOL     OW14576   2.188   6.745   8.787  0.1325  0.4032  0.1049
 4285SOL    HW114577   2.241   6.666   8.800 -2.8249 -1.6043  1.0702
 4285SOL    HW214578   2.213   6.803   8.859 -0.9607 -1.7630  2.3864
 4286SOL     OW14579   7.174   0.554   3.301 -0.0148  0.9491  0.3325
 4286SOL    HW114580   7.181   0.499   3.379  2.5531  0.8188  0.1039
 4286SOL    HW214581   7.117   0.505   3.242  0.7519 -0.6327  0.8467
 4287SOL     OW14582   5.438   3.097   3.860 -0.1992 -0.7590 -0.5632
 4287SOL    HW114583   5.516   3.151   3.862  0.9162 -2.3120  0.3248
 4287SOL    HW214584   5.378   3.139   3.923  1.0630 -1.1034  0.9269
 4288SOL     OW14585   4.247   3.147   4.149  0.1237 -0.8673  0.1806
 4288SOL    HW114586   4.202   3.126   4.231  1.1569 -0.9079  0.7556
 4288SOL    HW214587   4.339   3.161   4.175  0.1592  0.7971 -0.7048
 4289SOL     OW14588   4.382   6.399   8.261 -0.1900  0.7093 -0.3701
 4289SOL    HW114589   4.314   6.409   8.193 -0.8676 -0.6002  0.0779
 4289SOL    HW214590   4.383   6.484   8.305 -3.4442  0.0591  1.2984
 4290SOL     OW14591   3.809   3.477   7.389  0.1695  0.7183  0.1861
 4290SOL    HW114592   3.842   3.413   7.452  0.2023  1.4853  0.9613
 4290SOL    HW214593   3.719   3.493   7.416 -0.4839 -0.4046 -1.1513
 4291SOL     OW14594   2.641   8.682   2.736 -0.3921  0.3335 -0.0448
 4291SOL    HW114595   2.615   8.620   2.668 -0.5341 -0.2402  0.5226
 4291SOL    HW214596   2.715   8.640   2.780  0.9445  1.5311 -1.0360
 4292SOL     OW14597   4.394   3.315   9.357 -0.7483 -0.4895  0.8520
 4292SOL    HW114598   4.411   3.237   9.304 -1.4084 -0.7144  0.9530
 4292SOL    HW214599   4.386   3.281   9.447  0.6908 -0.0722  1.1655
 4293SOL     OW14600   7.242   4.584   4.427  0.1575 -0.0874 -0.2612
 4293SOL    HW114601   7.180   4.511   4.428 -0.1571  0.1797 -0.3979
 4293SOL    HW214602   7.326   4.543   4.406  0.2551 -0.6253  1.0544
 4294SOL     OW14603   7.425   5.827   6.484 -0.0333  0.2683 -0.5872
 4294SOL    HW114604   7.421   5.909   6.436  1.1221  0.3266 -0.6083
 4294SOL    HW214605   7.518   5.815   6.504 -0.4215  0.0217  1.2374
 4295SOL     OW14606   4.081   4.658   1.630 -0.3007 -0.1993 -0.1709
 4295SOL    HW114607   4.148   4.725   1.618  0.5409 -1.0348 -0.2942
 4295SOL    HW214608   4.113   4.584   1.579 -0.5624 -1.1277  0.9679
 4296SOL     OW14609   7.279   0.759   2.611  0.4560 -0.1412 -0.0616
 4296SOL    HW114610   7.307   0.734   2.522  0.1661  0.0335 -0.2014
 4296SOL    HW214611   7.189   0.727   2.617  0.3378  0.2104  0.0260
 4297SOL     OW14612   5.894   5.809   3.497 -0.8143 -0.3419 -0.0623
 4297SOL    HW114613   5.811   5.807   3.450 -0.7340  0.4897 -0.2469
 4297SOL    HW214614   5.960   5.824   3.429 -0.7304  1.2696  0.3312
 4298SOL     OW14615   9.512   5.291   2.743 -0.1762  0.6559  0.3487
 4298SOL    HW114616   9.542   5.377   2.713 -0.3454  0.4962 -0.2972
 4298SOL    HW214617   9.537   5.231   2.673 -0.2224  0.2051  0.7125
 4299SOL     OW14618   6.241   5.853   9.513 -0.0940 -0.0209  0.0782
 4299SOL    HW114619   6.335   5.856   9.531 -0.1936  0.4282  0.5772
 4299SOL    HW214620   6.200   5.887   9.593 -0.7660 -1.6321  0.4652
 4300SOL     OW14621   2.831   4.601   8.282  0.1953 -0.6577 -0.3778
 4300SOL    HW114622   2.901   4.666   8.291 -1.2887  1.2802 -1.8331
 4300SOL    HW214623   2.796   4.616   8.194 -1.3062 -2.3373 -0.1197
 4301SOL     OW14624   0.941   1.958   4.491  0.2951 -0.0052  1.0845
 4301SOL    HW114625   0.856   1.988   4.524 -0.7397 -3.2560  1.7111
 4301SOL    HW214626   0.961   2.017   4.419 -2.6639  0.7031  0.7231
 4302SOL     OW14627   1.275   5.711   2.214  0.3746 -0.2576  0.2499
 4302SOL    HW114628   1.324   5.630   2.230  1.1423  0.1330 -0.1012
 4302SOL    HW214629   1.188   5.694   2.252  0.6593 -1.0889  0.5508
 4303SOL     OW14630   9.471   4.464   8.456  0.3647  0.1022  0.6161
 4303SOL    HW114631   9.512   4.547   8.432 -1.1445  0.3677 -1.2479
 4303SOL    HW214632   9.530   4.397   8.422  1.1199  0.3789  1.3193
 4304SOL     OW14633   5.370   7.280   4.399  0.1197  0.6193 -0.2621
 4304SOL    HW114634   5.444   7.310   4.346  0.3178 -1.5311 -1.2795
 4304SOL    HW214635   5.293   7.308   4.350  0.1687  2.9531  0.8482
 4305SOL     OW14636   8.494   8.692   1.450 -0.0598 -0.4748 -0.2352
 4305SOL    HW114637   8.524   8.602   1.447 -1.6701 -1.0221 -0.9107
 4305SOL    HW214638   8.499   8.722   1.359 -0.5056 -0.2187 -0.1779
 4306SOL     OW14639   3.149   8.399   3.608 -0.1635  0.9500  0.1353
 4306SOL    HW114640   3.101   8.344   3.546  1.9815  0.6991 -1.4214
 4306SOL    HW214641   3.157   8.483   3.564  2.3940  0.4287 -0.5636
 4307SOL     OW14642   1.567   6.818   6.632 -0.0240 -0.5591 -0.7167
 4307SOL    HW114643   1.581   6.861   6.716  1.3572 -0.0350 -1.1853
 4307SOL    HW214644   1.514   6.880   6.582  0.1503 -0.3482 -0.6408
 4308SOL     OW14645   8.156   3.375   0.724  0.0474  0.3964  0.0843
 4308SOL    HW114646   8.207   3.323   0.786 -1.1559 -0.4893  0.3658
 4308SOL    HW214647   8.139   3.458   0.769  1.9129  1.0743 -0.3392
 4309SOL     OW14648   1.310   7.140   5.939 -0.3220 -0.0765 -0.6582
 4309SOL    HW114649   1.290   7.048   5.925  1.2188 -0.4992 -0.2472
 4309SOL    HW214650   1.275   7.184   5.862 -1.8032 -0.8759 -0.4744
 4310SOL     OW14651   8.998   8.811   6.560 -0.2228  0.3347 -0.3724
 4310SOL    HW114652   8.908   8.820   6.592 -1.1852 -1.6203 -2.2579
 4310SOL    HW214653   9.049   8.788   6.637 -1.7224 -0.5244  0.4186
 4311SOL     OW14654   5.684   8.948   3.557  0.6887  0.3825 -0.1476
 4311SOL    HW114655   5.767   8.912   3.588  0.9896 -0.2580 -1.6195
 4311SOL    HW214656   5.631   8.959   3.637  2.5435  1.8420  0.9508
 4312SOL     OW14657   7.701   3.900   3.452  0.4700  0.0505  0.5180
 4312SOL    HW114658   7.684   3.807   3.464  0.5605 -0.0459 -0.0696
 4312SOL    HW214659   7.616   3.938   3.431  0.6131 -0.0837 -0.3268
 4313SOL     OW14660   7.604   4.665   8.258  0.9088  0.9244 -0.8274
 4313SOL    HW114661   7.641   4.677   8.170  1.5098  0.6981 -0.6087
 4313SOL    HW214662   7.654   4.725   8.313  0.4154  1.1906 -0.6706
 4314SOL     OW14663   7.229   7.201   7.864  0.1170 -0.2212 -0.3580
 4314SOL    HW114664   7.243   7.107   7.876  1.0497  0.0052  0.5761
 4314SOL    HW214665   7.202   7.232   7.951 -0.1463  0.3782 -0.6487
 4315SOL     OW14666   0.807   8.367   1.032 -0.6020 -0.4499  0.4441
 4315SOL    HW114667   0.764   8.403   0.954  0.1654  1.5635  0.9045
 4315SOL    HW214668   0.892   8.336   1.001 -0.8074 -0.8452  0.2626
 4316SOL     OW14669   8.880   0.856   7.936  0.1714 -0.0055  0.1308
 4316SOL    HW114670   8.808   0.796   7.956  0.8216 -0.1390  2.3048
 4316SOL    HW214671   8.923   0.817   7.859 -0.9949 -0.8819 -0.1024
 4317SOL     OW14672   4.033   4.336   4.265  0.4012 -0.6762 -0.0807
 4317SOL    HW114673   4.039   4.382   4.182  0.5649  1.3714  0.9959
 4317SOL    HW214674   3.965   4.382   4.314  0.0391 -2.0660  0.7816
 4318SOL     OW14675   7.866   5.021   8.111 -0.4687  0.0788  0.0031
 4318SOL    HW114676   7.919   5.085   8.063 -1.2164  1.1019  0.5123
 4318SOL    HW214677   7.788   5.069   8.138 -1.2556 -1.1660  0.0364
 4319SOL     OW14678   8.948   3.700   4.199 -0.2406 -0.2283  0.0738
 4319SOL    HW114679   9.004   3.623   4.185 -2.1419 -1.8658  0.9050
 4319SOL    HW214680   8.862   3.673   4.164 -1.2684  1.0375  1.5020
 4320SOL     OW14681   1.349   8.594   4.458 -0.1885 -0.2096  0.2903
 4320SOL    HW114682   1.425   8.626   4.508 -0.8662 -0.2335  1.3557
 4320SOL    HW214683   1.311   8.526   4.513 -0.5991 -0.6656 -0.5451
 4321SOL     OW14684   8.942   6.091   4.920 -0.6668 -0.3783 -0.1891
 4321SOL    HW114685   8.923   5.998   4.910 -1.2538 -0.2443 -0.3738
 4321SOL    HW214686   8.916   6.130   4.836 -0.8365  0.0162  0.0425
 4322SOL     OW14687   2.060   9.603   5.599  0.8351 -0.3231  0.0184
 4322SOL    HW114688   2.155   9.604   5.607  0.9769 -1.9393 -1.0186
 4322SOL    HW214689   2.030   9.554   5.676  1.0322 -1.9039 -0.8908
 4323SOL     OW14690   9.019   7.065   0.332 -0.4673  0.1746  0.1627
 4323SOL    HW114691   8.938   7.057   0.384  0.1036  1.3222  1.2692
 4323SOL    HW214692   9.022   7.157   0.307  0.3758  0.0783 -0.0908
 4324SOL     OW14693   8.460   2.105   1.967  0.2435  0.2915 -0.1701
 4324SOL    HW114694   8.523   2.096   1.895  0.3529 -2.7948  0.1446
 4324SOL    HW214695   8.375   2.103   1.924  0.3243  0.7046 -0.3528
 4325SOL     OW14696   2.868   9.259   7.524 -0.0880 -0.0550  0.3755
 4325SOL    HW114697   2.824   9.340   7.549  1.5697  0.9651  0.1431
 4325SOL    HW214698   2.946   9.256   7.579  2.2474  0.8671 -2.6018
 4326SOL     OW14699   8.362   7.032   1.248  0.0014 -0.1574  0.1410
 4326SOL    HW114700   8.371   7.047   1.342  2.2235 -0.9284  0.1117
 4326SOL    HW214701   8.402   7.109   1.207 -0.2491 -0.1817 -0.1540
 4327SOL     OW14702   2.767   7.213   6.356 -0.3252  0.1369  0.0394
 4327SOL    HW114703   2.780   7.166   6.273  1.8991  0.4166  0.1812
 4327SOL    HW214704   2.793   7.150   6.423  1.5085  1.1118  0.2939
 4328SOL     OW14705   9.327   8.153   3.934 -0.5228  0.0510  0.8610
 4328SOL    HW114706   9.319   8.245   3.959 -0.5378 -0.0146  1.1052
 4328SOL    HW214707   9.311   8.105   4.015 -1.7591 -0.2101  0.4811
 4329SOL     OW14708   5.729   9.657   5.135  0.2043  0.1831 -0.0768
 4329SOL    HW114709   5.799   9.593   5.142  0.5300  0.4006 -1.1864
 4329SOL    HW214710   5.648   9.606   5.141  0.4592 -0.3842 -1.2612
 4330SOL     OW14711   9.051   4.680   4.269 -0.4730 -0.5648  0.1068
 4330SOL    HW114712   9.045   4.758   4.325  1.5150 -0.0070 -0.3596
 4330SOL    HW214713   8.983   4.692   4.203  1.2864  2.0639 -1.3955
 4331SOL     OW14714   8.157   7.334   1.167 -0.0109 -0.1879  0.1069
 4331SOL    HW114715   8.246   7.314   1.137  1.3955  3.7862  0.9924
 4331SOL    HW214716   8.156   7.305   1.258  1.4665  2.1790  0.9560
 4332SOL     OW14717   7.173   8.801   8.972 -0.2947  0.1103  0.2282
 4332SOL    HW114718   7.120   8.778   9.048 -0.2892 -0.3651  0.0904
 4332SOL    HW214719   7.164   8.896   8.964 -0.2784  0.1612  0.8340
 4333SOL     OW14720   8.720   7.188   6.107  0.2080 -0.3180  0.3968
 4333SOL    HW114721   8.715   7.282   6.089 -0.4011 -0.2230  1.0353
 4333SOL    HW214722   8.739   7.148   6.022  1.3240  0.4451  0.2612
 4334SOL     OW14723   4.064   6.307   1.401  0.8107  0.2542 -0.1884
 4334SOL    HW114724   4.145   6.257   1.413  0.7277 -0.1446 -1.2420
 4334SOL    HW214725   4.028   6.275   1.319  0.8695  2.2017 -1.0248
 4335SOL     OW14726   2.795   2.630   3.360  0.2253 -0.0377 -0.6875
 4335SOL    HW114727   2.888   2.610   3.347 -0.1917 -1.1311 -2.3856
 4335SOL    HW214728   2.755   2.613   3.274 -1.4258  1.1318 -0.1896
 4336SOL     OW14729   6.590   4.650   5.163 -0.2594 -0.1219 -0.4422
 4336SOL    HW114730   6.612   4.713   5.095 -0.3381 -0.2640 -0.6017
 4336SOL    HW214731   6.501   4.622   5.141 -0.1080 -0.5206 -0.5515
 4337SOL     OW14732   8.151   0.160   5.706 -0.5274  0.4530 -0.5776
 4337SOL    HW114733   8.135   0.253   5.725 -2.0011  0.5648 -2.1597
 4337SOL    HW214734   8.137   0.152   5.612 -1.2109 -1.5300 -0.3430
 4338SOL     OW14735   8.879   7.272   5.256 -1.0849 -0.4510  0.2076
 4338SOL    HW114736   8.876   7.324   5.175 -0.9088  0.2318  0.6339
 4338SOL    HW214737   8.787   7.260   5.280 -1.1304 -0.4759  0.0293
 4339SOL     OW14738   2.715   6.590   1.023 -0.0829 -0.0086 -0.1484
 4339SOL    HW114739   2.763   6.671   1.042  1.2585 -0.2738 -2.0750
 4339SOL    HW214740   2.630   6.620   0.992 -0.8856  0.5058  2.3698
 4340SOL     OW14741   2.278   8.374   6.331  0.1399 -0.5430 -0.2261
 4340SOL    HW114742   2.292   8.376   6.236 -0.1217  2.1568 -0.2800
 4340SOL    HW214743   2.193   8.331   6.342  0.3389 -1.2186 -1.1658
 4341SOL     OW14744   8.438   2.824   3.467 -0.1381 -0.4098  1.2082
 4341SOL    HW114745   8.516   2.874   3.490  0.3433 -1.1038  1.1388
 4341SOL    HW214746   8.442   2.815   3.372 -0.3700 -0.3284  1.1915
 4342SOL     OW14747   9.413   5.422   1.304  0.5836 -0.5190 -0.9351
 4342SOL    HW114748   9.365   5.501   1.329  1.1094 -0.9951  1.9131
 4342SOL    HW214749   9.375   5.397   1.219 -2.1496  0.7143 -0.2028
 4343SOL     OW14750   7.509   0.132   6.046  0.2574  0.7803  0.0159
 4343SOL    HW114751   7.547   0.160   5.963  0.3426  1.6343  0.3385
 4343SOL    HW214752   7.477   0.212   6.086  0.2776  0.3846  0.8414
 4344SOL     OW14753   2.178   4.075   1.625  0.1967  0.3958  0.1555
 4344SOL    HW114754   2.145   4.164   1.614  0.5181  0.6499  1.1446
 4344SOL    HW214755   2.118   4.035   1.688  0.7206  0.2861  0.5954
 4345SOL     OW14756   5.525   7.913   7.989 -0.0022 -0.5419 -0.2392
 4345SOL    HW114757   5.492   7.824   7.997  0.9568 -1.0620 -1.5467
 4345SOL    HW214758   5.607   7.903   7.941  0.2622  1.0215 -0.1566
 4346SOL     OW14759   2.373   2.671   6.736 -0.1987  0.2100  0.1121
 4346SOL    HW114760   2.416   2.594   6.700 -1.0568 -2.2755  3.8129
 4346SOL    HW214761   2.281   2.661   6.711 -0.1861  0.4224 -0.0186
 4347SOL     OW14762   9.203   3.053   5.703 -0.2508 -0.1213 -0.0980
 4347SOL    HW114763   9.125   3.000   5.720 -0.9526  0.7136 -0.6547
 4347SOL    HW214764   9.270   2.989   5.679 -0.1159 -1.0472  2.5069
 4348SOL     OW14765   9.051   6.375   1.412 -0.0466  0.2100  0.7431
 4348SOL    HW114766   9.133   6.330   1.394 -2.0295 -2.5803 -2.4089
 4348SOL    HW214767   9.009   6.323   1.480 -1.5980 -2.0422 -1.7375
 4349SOL     OW14768   5.501   7.007   7.971  0.4990 -0.3751 -0.0474
 4349SOL    HW114769   5.565   6.967   7.912  0.2697  0.1042 -0.6359
 4349SOL    HW214770   5.550   7.076   8.016 -0.2307  2.1241 -2.7373
 4350SOL     OW14771   2.227   7.046   6.365  0.2155 -0.6281 -0.6122
 4350SOL    HW114772   2.176   6.967   6.347  0.7512 -1.0669 -0.2721
 4350SOL    HW214773   2.175   7.095   6.429  0.6705 -1.5737  0.5363
 4351SOL     OW14774   5.513   0.979   9.136 -0.2367 -0.7421 -0.6507
 4351SOL    HW114775   5.594   1.029   9.129 -0.7200  0.0563 -0.7451
 4351SOL    HW214776   5.530   0.913   9.204 -0.0725  0.5462  0.6040
 4352SOL     OW14777   2.413   4.481   3.777  0.3026  0.5224  0.5002
 4352SOL    HW114778   2.322   4.508   3.770  0.0497 -0.6591 -1.6427
 4352SOL    HW214779   2.412   4.406   3.837 -0.1186  0.5339  0.5079
 4353SOL     OW14780   7.534   1.898   3.427  0.2684 -0.4892 -0.3285
 4353SOL    HW114781   7.490   1.822   3.388 -1.3305  0.5910 -0.7156
 4353SOL    HW214782   7.471   1.932   3.490  0.5845  1.0606 -0.8185
 4354SOL     OW14783   7.290   5.257   0.082  0.0450 -0.5143  0.0968
 4354SOL    HW114784   7.237   5.177   0.081  1.3840 -1.4516 -0.8650
 4354SOL    HW214785   7.255   5.309   0.154 -1.4614 -1.5583  0.1643
 4355SOL     OW14786   6.064   1.131   9.696 -0.1967 -0.2304 -0.7319
 4355SOL    HW114787   6.021   1.058   9.741  0.0087  0.5190  0.7418
 4355SOL    HW214788   6.042   1.119   9.604  0.5982 -2.6735 -0.6802
 4356SOL     OW14789   8.205   4.874   9.640 -0.5972 -0.1576 -0.1114
 4356SOL    HW114790   8.229   4.877   9.733 -0.1116  2.1988 -0.2377
 4356SOL    HW214791   8.266   4.810   9.602 -0.2773 -0.5732  1.0476
 4357SOL     OW14792   3.137   3.021   8.616 -0.0402 -0.1747 -0.1407
 4357SOL    HW114793   3.198   3.058   8.681  1.3382  0.7576 -1.8523
 4357SOL    HW214794   3.160   2.929   8.612  0.4796 -0.0583  0.0444
 4358SOL     OW14795   2.522   1.881   0.777  0.0636  0.0961 -0.6615
 4358SOL    HW114796   2.522   1.923   0.863 -0.4293 -0.1796 -0.5233
 4358SOL    HW214797   2.604   1.832   0.774 -0.3916 -0.7372  0.0771
 4359SOL     OW14798   6.802   0.505   5.150 -0.2465 -0.1903  0.5095
 4359SOL    HW114799   6.857   0.576   5.184  0.2404 -0.5961  0.5661
 4359SOL    HW214800   6.832   0.427   5.195 -1.2796 -0.3215  0.9926
 4360SOL     OW14801   8.802   2.670   8.428 -0.2824  0.2468 -0.3490
 4360SOL    HW114802   8.847   2.692   8.509 -1.0353 -0.9729  0.4455
 4360SOL    HW214803   8.745   2.744   8.410 -0.5866  0.2527  0.6104
 4361SOL     OW14804   7.071   4.028   6.821 -0.3010 -0.2177 -0.2664
 4361SOL    HW114805   6.981   3.998   6.816 -0.5820  0.1299  2.0055
 4361SOL    HW214806   7.114   3.967   6.881  0.3912  0.8947  0.4134
 4362SOL     OW14807   2.290   3.873   3.050  0.0455  0.0046 -0.2424
 4362SOL    HW114808   2.304   3.827   2.968 -0.2502 -0.7489  0.1184
 4362SOL    HW214809   2.373   3.864   3.097  0.1924  0.3789 -0.4206
 4363SOL     OW14810   2.332   5.872   3.875  0.2839  0.1962 -0.2323
 4363SOL    HW114811   2.354   5.925   3.952 -0.6320  0.0326  0.1586
 4363SOL    HW214812   2.313   5.785   3.911 -1.3650  0.4286 -0.4715
 4364SOL     OW14813   3.032   8.539   4.655 -0.2647 -0.0761  0.1745
 4364SOL    HW114814   3.072   8.513   4.572  0.8868  0.5012  0.5313
 4364SOL    HW214815   2.960   8.477   4.666  0.3861 -1.0195 -0.6035
 4365SOL     OW14816   6.547   8.419   1.815 -0.3541 -0.3424 -0.1257
 4365SOL    HW114817   6.545   8.508   1.850  1.3115 -0.0386 -0.6779
 4365SOL    HW214818   6.457   8.400   1.791 -0.7173  1.2637 -0.1443
 4366SOL     OW14819   3.051   2.336   6.565 -0.4332 -0.4969  0.1377
 4366SOL    HW114820   3.012   2.294   6.642  0.4466 -0.4571  0.6167
 4366SOL    HW214821   3.077   2.263   6.509 -1.9168 -0.5140 -0.5726
 4367SOL     OW14822   3.480   8.531   6.123 -0.1377 -0.4849  0.1239
 4367SOL    HW114823   3.455   8.474   6.051 -1.0573  0.8497 -0.6634
 4367SOL    HW214824   3.398   8.547   6.170 -0.0396  0.7303 -0.0897
 4368SOL     OW14825   0.030   7.061   0.972  0.2829  0.1757 -0.8267
 4368SOL    HW114826  -0.061   7.055   1.001  0.9483 -1.2909  1.1559
 4368SOL    HW214827   0.044   6.981   0.920  0.5484  0.1945 -0.7854
 4369SOL     OW14828   3.168   3.010   1.486  0.7706 -0.1974  0.0484
 4369SOL    HW114829   3.263   3.016   1.488  0.9062 -1.9597  0.8661
 4369SOL    HW214830   3.149   2.954   1.410  0.3563  0.4179 -0.3116
 4370SOL     OW14831   6.503   9.344   7.835 -0.0248 -0.1216 -0.2593
 4370SOL    HW114832   6.563   9.270   7.840 -1.4691 -1.3290 -0.1003
 4370SOL    HW214833   6.487   9.356   7.742 -0.9050 -0.9899 -0.2416
 4371SOL     OW14834   1.221   6.281   1.202  0.0047  0.5772  0.2745
 4371SOL    HW114835   1.198   6.240   1.119  0.0207  1.2900 -0.0885
 4371SOL    HW214836   1.272   6.358   1.177 -0.1962  0.9273  0.9353
 4372SOL     OW14837   8.102   0.436   5.513 -0.0895  0.0325 -0.2472
 4372SOL    HW114838   8.113   0.531   5.504 -0.8406 -0.0107 -2.0824
 4372SOL    HW214839   8.007   0.422   5.505  0.1320 -0.9709 -1.4003
 4373SOL     OW14840   4.853   5.645   6.628  0.7629  0.0322  0.0670
 4373SOL    HW114841   4.806   5.562   6.627  0.2331  0.3304  0.1926
 4373SOL    HW214842   4.785   5.712   6.622  1.2510  0.4425 -1.3343
 4374SOL     OW14843   3.547   9.527   7.486 -0.1114  0.2134  0.6192
 4374SOL    HW114844   3.535   9.433   7.495 -2.5804  0.4340  0.3778
 4374SOL    HW214845   3.602   9.552   7.560 -1.4543 -1.0939  2.1255
 4375SOL     OW14846   8.037   0.265   8.438 -0.3868 -0.3574  0.0464
 4375SOL    HW114847   8.090   0.306   8.370 -0.6367 -1.4646 -0.8432
 4375SOL    HW214848   8.098   0.251   8.510  0.0581  0.1559 -0.2184
 4376SOL     OW14849   4.703   4.655   9.465  0.2001  0.0502  0.3120
 4376SOL    HW114850   4.628   4.657   9.524 -0.1486  0.4385 -0.1327
 4376SOL    HW214851   4.679   4.590   9.398 -1.4445  2.8071 -1.9941
 4377SOL     OW14852   7.046   3.653   1.336  0.2572 -0.2962  0.3472
 4377SOL    HW114853   6.996   3.713   1.280 -0.9687 -0.5556  1.1435
 4377SOL    HW214854   7.126   3.702   1.357  0.0243  0.4133 -0.3454
 4378SOL     OW14855   5.895   0.900   5.553  0.2865 -0.1932  0.3644
 4378SOL    HW114856   5.858   0.888   5.465 -1.2791 -1.4875  1.1296
 4378SOL    HW214857   5.989   0.890   5.541  0.1284 -0.0522 -1.2085
 4379SOL     OW14858   9.619   4.952   0.741  0.3541  0.1272 -0.7473
 4379SOL    HW114859   9.594   5.042   0.765  1.6232  0.0483  1.1736
 4379SOL    HW214860   9.541   4.915   0.700 -0.7019  1.6312 -0.1975
 4380SOL     OW14861   7.683   3.386   4.968 -0.4206  0.2050 -0.5543
 4380SOL    HW114862   7.611   3.414   4.912 -0.4838 -0.5413 -0.8481
 4380SOL    HW214863   7.727   3.317   4.919 -0.7235 -0.7433  0.4916
 4381SOL     OW14864   9.043   7.003   4.705 -0.1677 -0.7705  0.2756
 4381SOL    HW114865   8.951   7.025   4.692 -0.0901 -1.0432 -0.7899
 4381SOL    HW214866   9.086   7.087   4.722 -0.4225 -0.4980 -0.4076
 4382SOL     OW14867   6.749   4.420   0.918 -0.2783 -0.0758  0.2322
 4382SOL    HW114868   6.689   4.456   0.984 -1.4846 -1.7930  0.1237
 4382SOL    HW214869   6.751   4.326   0.936 -0.1010 -0.4958 -1.7600
 4383SOL     OW14870   5.671   0.371   6.838 -0.1983  0.1742  0.0091
 4383SOL    HW114871   5.688   0.342   6.749 -0.2128 -3.6905  1.0957
 4383SOL    HW214872   5.577   0.387   6.842 -0.6083 -1.9719 -0.1585
 4384SOL     OW14873   7.483   0.684   4.980  0.3773  0.6578 -0.1667
 4384SOL    HW114874   7.412   0.651   5.034  2.4081 -0.3626  2.0408
 4384SOL    HW214875   7.512   0.608   4.929  0.8765  0.6788  0.0848
 4385SOL     OW14876   3.680   2.076   9.012  0.1377  0.3886  0.9217
 4385SOL    HW114877   3.627   2.000   8.988  0.1746  0.9931 -1.3930
 4385SOL    HW214878   3.702   2.064   9.104 -2.1403 -1.0026  1.3337
 4386SOL     OW14879   9.171   8.975   8.933  0.7401 -0.3270  0.3260
 4386SOL    HW114880   9.266   8.991   8.933  0.8683 -0.9361 -1.2324
 4386SOL    HW214881   9.158   8.908   8.866 -0.9085  0.4634 -0.1928
 4387SOL     OW14882   9.599   8.289   8.114  0.5273 -0.4221  0.4422
 4387SOL    HW114883   9.650   8.281   8.033  0.7241  1.7059  0.3001
 4387SOL    HW214884   9.595   8.200   8.149  1.4987 -1.1796 -1.2650
 4388SOL     OW14885   6.599   6.349   2.107  0.4816 -0.6528  0.3407
 4388SOL    HW114886   6.555   6.350   2.192 -0.0855 -1.3488  0.0691
 4388SOL    HW214887   6.686   6.315   2.126  0.4334 -0.5901  0.6825
 4389SOL     OW14888   9.159   7.589   5.390 -0.4962  0.4375 -0.4074
 4389SOL    HW114889   9.089   7.604   5.326  0.4160  1.0259 -1.3015
 4389SOL    HW214890   9.195   7.676   5.407 -0.6014  0.2636  0.7887
 4390SOL     OW14891   0.854   8.259   3.062 -0.8240 -0.2720  0.0545
 4390SOL    HW114892   0.868   8.319   2.989 -2.0554 -0.3019 -0.2273
 4390SOL    HW214893   0.765   8.275   3.090 -0.9168 -1.4163  0.4906
 4391SOL     OW14894   8.019   7.708   3.551  0.3399 -0.4995 -0.1839
 4391SOL    HW114895   8.047   7.660   3.628  1.4037 -1.0869 -0.9174
 4391SOL    HW214896   7.940   7.755   3.579 -0.9996 -2.9530  0.4673
 4392SOL     OW14897   1.107   1.585   9.329  0.2870  0.5254  0.5054
 4392SOL    HW114898   1.051   1.638   9.272  1.7122  2.2089  0.5649
 4392SOL    HW214899   1.051   1.558   9.401 -1.5260 -1.5204 -1.5304
 4393SOL     OW14900   8.785   0.005   4.666  0.3251 -0.0083  0.8724
 4393SOL    HW114901   8.802   0.041   4.579 -2.3372  0.8707  0.6307
 4393SOL    HW214902   8.800  -0.089   4.656 -1.0000 -0.0889 -0.8825
 4394SOL     OW14903   3.578   4.999   2.852  0.8310  0.6794 -0.3054
 4394SOL    HW114904   3.486   4.978   2.837  0.6579  1.7860 -0.9643
 4394SOL    HW214905   3.621   4.915   2.862 -0.1017  0.0984 -1.0051
 4395SOL     OW14906   5.649   7.668   5.944 -0.1394  0.4638 -0.0923
 4395SOL    HW114907   5.666   7.642   5.854 -0.8665 -1.0225  0.1667
 4395SOL    HW214908   5.736   7.680   5.982  0.2036 -0.1142 -0.6667
 4396SOL     OW14909   8.560   3.384   7.333  0.3754  0.1773  0.0477
 4396SOL    HW114910   8.527   3.313   7.388  1.2834  0.8125  1.4809
 4396SOL    HW214911   8.520   3.369   7.247 -0.6238 -1.1926  0.7153
 4397SOL     OW14912   7.725   4.328   7.221 -0.9860  0.0473 -0.2101
 4397SOL    HW114913   7.743   4.236   7.241 -3.3761 -0.5244 -0.3851
 4397SOL    HW214914   7.730   4.373   7.305 -0.6283 -0.3918  0.0051
 4398SOL     OW14915   6.569   4.131   9.408 -0.0982  0.6643  0.4896
 4398SOL    HW114916   6.530   4.128   9.320  1.1763 -0.9169 -0.0828
 4398SOL    HW214917   6.597   4.222   9.419 -0.3459  0.9095 -0.7173
 4399SOL     OW14918   4.784   4.685   6.765  0.3821 -0.7596  0.2391
 4399SOL    HW114919   4.708   4.712   6.713 -1.2427 -2.7393  1.4797
 4399SOL    HW214920   4.770   4.593   6.783  2.6703 -0.9758  1.2857
 4400SOL     OW14921   4.654   0.136   7.747  0.3107  0.5736  0.3310
 4400SOL    HW114922   4.672   0.057   7.798 -1.4517  0.5170  0.9358
 4400SOL    HW214923   4.672   0.110   7.656 -0.9285 -0.7911  0.4254
 4401SOL     OW14924   3.590   0.644   9.330  0.2059  0.5251 -0.2094
 4401SOL    HW114925   3.662   0.647   9.268  0.4331 -0.0121  0.0212
 4401SOL    HW214926   3.516   0.610   9.280  0.3204  0.3320 -0.2462
 4402SOL     OW14927   7.512   9.516   7.194 -0.9834 -0.4939  0.4524
 4402SOL    HW114928   7.485   9.579   7.127 -1.7024 -0.7922  0.4527
 4402SOL    HW214929   7.486   9.431   7.158  1.0790 -0.9284 -0.1092
 4403SOL     OW14930   7.871   9.326   2.810 -0.5085 -0.0910  0.2229
 4403SOL    HW114931   7.942   9.369   2.858 -0.2248  0.5399 -0.7311
 4403SOL    HW214932   7.857   9.243   2.856  0.4994  0.0081  0.7298
 4404SOL     OW14933   2.422   7.335   7.672  0.9064 -0.0000  0.0097
 4404SOL    HW114934   2.428   7.355   7.766  0.6688 -2.6655  0.6738
 4404SOL    HW214935   2.512   7.343   7.641  1.2035 -0.2929  0.7572
 4405SOL     OW14936   9.147   3.999   3.899  0.1331 -0.2864 -0.1917
 4405SOL    HW114937   9.198   3.957   3.969 -1.5783 -1.4852  0.3945
 4405SOL    HW214938   9.202   3.990   3.821  1.0729 -1.0218  0.5254
 4406SOL     OW14939   2.363   2.164   2.668  0.2037  0.4998  0.4870
 4406SOL    HW114940   2.313   2.137   2.745 -0.3035 -2.4253 -0.7227
 4406SOL    HW214941   2.308   2.230   2.625 -0.0669  1.2485  1.9252
 4407SOL     OW14942   0.699   3.328   7.624  0.0939 -0.3208  0.4895
 4407SOL    HW114943   0.751   3.408   7.617 -0.1636 -0.1241  0.8072
 4407SOL    HW214944   0.608   3.357   7.612 -0.0036 -0.5591  0.6377
 4408SOL     OW14945   6.695   6.708   0.915  0.1005  0.2267  0.2630
 4408SOL    HW114946   6.704   6.692   1.009 -2.1276 -0.1866  0.4664
 4408SOL    HW214947   6.705   6.621   0.875 -1.6443 -0.0835  0.4134
 4409SOL     OW14948   3.392   5.555   2.440 -0.6802  0.4762 -0.2558
 4409SOL    HW114949   3.410   5.462   2.431  0.0130  0.2485  2.4407
 4409SOL    HW214950   3.449   5.598   2.376  0.6492 -0.8608 -0.0205
 4410SOL     OW14951   0.170   1.670   1.429  0.1541 -0.7088  0.2557
 4410SOL    HW114952   0.203   1.677   1.339 -0.6806 -0.1577 -0.0248
 4410SOL    HW214953   0.244   1.697   1.483  0.1612  0.5848 -0.3597
 4411SOL     OW14954   8.493   5.383   8.379 -0.8234  0.1602  0.1731
 4411SOL    HW114955   8.415   5.357   8.328 -1.0057  2.6745 -0.9823
 4411SOL    HW214956   8.461   5.452   8.437  0.5601  1.4013 -0.4921
 4412SOL     OW14957   8.297   3.644   1.581  0.4342  0.2479  0.2711
 4412SOL    HW114958   8.295   3.578   1.650 -1.0783 -0.4628 -0.4213
 4412SOL    HW214959   8.306   3.727   1.628 -0.6383 -0.2164  1.3425
 4413SOL     OW14960   1.549   4.459   2.693  0.6010 -0.1118  0.0731
 4413SOL    HW114961   1.467   4.434   2.652 -1.4790  3.8695  1.2761
 4413SOL    HW214962   1.608   4.478   2.619 -0.5850 -0.1092 -0.8981
 4414SOL     OW14963   5.796   3.568   6.261  0.0392 -0.1333 -0.3183
 4414SOL    HW114964   5.734   3.512   6.309  2.5506 -1.1810  1.9359
 4414SOL    HW214965   5.791   3.652   6.306 -0.3197  0.0503 -0.6904
 4415SOL     OW14966   5.973   5.794   7.373 -0.0271  0.3871  0.7223
 4415SOL    HW114967   5.978   5.853   7.448 -1.5007 -0.1897  1.2881
 4415SOL    HW214968   5.922   5.843   7.308  1.4191  0.9738 -0.0503
 4416SOL     OW14969   0.121   4.955   3.702  0.2139 -0.0062  0.4253
 4416SOL    HW114970   0.162   5.020   3.645  0.0462 -0.2360  0.0384
 4416SOL    HW214971   0.193   4.919   3.754  0.3599  0.2367  0.3930
 4417SOL     OW14972   6.156   5.520   4.363  0.3393  0.2557 -0.1281
 4417SOL    HW114973   6.161   5.455   4.433  1.7639  0.8211  0.3436
 4417SOL    HW214974   6.237   5.571   4.372 -0.4412  1.6854 -0.8808
 4418SOL     OW14975   4.053   7.942   9.674  0.5576  0.7582 -0.1317
 4418SOL    HW114976   4.029   7.876   9.738  2.0227 -0.5475 -0.8481
 4418SOL    HW214977   4.084   8.016   9.726 -0.4983  0.6427  0.6767
 4419SOL     OW14978   2.172   4.675   6.069  0.2058  0.2531 -0.2951
 4419SOL    HW114979   2.195   4.707   6.157  1.3379 -0.1578 -0.4216
 4419SOL    HW214980   2.094   4.725   6.045  0.8400  1.5701  0.2774
 4420SOL     OW14981   0.338   7.422   4.029  0.3450 -0.0435 -0.3078
 4420SOL    HW114982   0.371   7.363   4.097  0.1620  0.4337  0.1988
 4420SOL    HW214983   0.285   7.486   4.076  0.1011  0.2092 -0.9190
 4421SOL     OW14984   8.748   2.801   9.689 -0.5578 -0.0963 -0.6911
 4421SOL    HW114985   8.807   2.864   9.730 -1.6004  0.0595  0.6800
 4421SOL    HW214986   8.797   2.765   9.616  1.1603  0.1300  0.3050
 4422SOL     OW14987   9.238   4.874   9.626  0.0480  0.3087 -0.3712
 4422SOL    HW114988   9.239   4.964   9.592  0.3101  0.7140  0.6616
 4422SOL    HW214989   9.330   4.848   9.631  0.0380  0.3693  0.2817
 4423SOL     OW14990   1.512   5.119   2.377  0.0534  0.4793 -0.4728
 4423SOL    HW114991   1.484   5.149   2.464  1.4764 -0.0714  0.1996
 4423SOL    HW214992   1.539   5.028   2.391 -0.5402  0.0905 -1.6954
 4424SOL     OW14993   6.078   7.272   3.112  0.8209  0.5530  0.6094
 4424SOL    HW114994   6.131   7.291   3.035  0.2092  0.7300  0.2266
 4424SOL    HW214995   5.994   7.315   3.095  0.5607  0.3024  1.2192
 4425SOL     OW14996   1.897   6.808   6.252  0.4681  0.1098  0.2887
 4425SOL    HW114997   1.981   6.776   6.220  0.4634 -0.5686  0.9347
 4425SOL    HW214998   1.859   6.854   6.178  1.5113  0.6251  0.0564
 4426SOL     OW14999   6.009   2.521   1.871 -0.2862  0.7038 -0.1325
 4426SOL    HW115000   6.030   2.429   1.890  0.1877  1.1723  1.8918
 4426SOL    HW215001   5.914   2.526   1.878 -0.3351  0.3248 -0.4891
 4427SOL     OW15002   7.548   7.982   5.804  0.2573 -0.0743 -0.1511
 4427SOL    HW115003   7.607   7.907   5.802  0.9623  0.4275  0.7791
 4427SOL    HW215004   7.470   7.953   5.758  1.0192 -0.9404 -0.9331
 4428SOL     OW15005   2.283   2.939   1.206 -0.2848 -0.3999  0.4221
 4428SOL    HW115006   2.265   2.949   1.300 -0.5596  1.0787  0.2490
 4428SOL    HW215007   2.244   3.017   1.166  1.2228 -0.1873 -0.7291
 4429SOL     OW15008   8.478   5.226   8.043  0.9219  0.2653  0.0002
 4429SOL    HW115009   8.391   5.264   8.033  1.1839  0.6043 -1.0843
 4429SOL    HW215010   8.539   5.296   8.018  1.4846 -0.1455  0.1865
 4430SOL     OW15011   1.707   3.041   8.150 -0.3502  0.8113  0.2655
 4430SOL    HW115012   1.729   3.134   8.149  1.3886  0.4284  0.7848
 4430SOL    HW215013   1.771   3.000   8.091 -0.2177 -0.2323  1.1074
 4431SOL     OW15014   1.448   0.480   4.527  0.0561  0.0963  0.3227
 4431SOL    HW115015   1.541   0.482   4.505 -0.1191  0.5522 -0.3885
 4431SOL    HW215016   1.406   0.534   4.460 -0.4541  1.7712  1.8947
 4432SOL     OW15017   8.546   3.946   7.296  0.0529 -0.4463 -0.0895
 4432SOL    HW115018   8.587   3.941   7.382 -1.5030  0.4852  0.7460
 4432SOL    HW215019   8.507   3.860   7.283 -2.0512  0.2011  1.4130
 4433SOL     OW15020   5.225   9.545   6.441  0.4197 -0.2562 -0.5355
 4433SOL    HW115021   5.147   9.497   6.415 -0.0762  0.3788 -0.2495
 4433SOL    HW215022   5.205   9.576   6.530  1.7756 -1.7646  0.3543
 4434SOL     OW15023   4.537   0.350   8.355  0.3844 -0.2879 -0.2465
 4434SOL    HW115024   4.531   0.445   8.370  2.5435 -0.1472  0.0538
 4434SOL    HW215025   4.576   0.343   8.267 -2.3223 -0.9846 -1.4930
 4435SOL     OW15026   0.123   1.523   3.676  0.4633 -0.5104 -0.0336
 4435SOL    HW115027   0.145   1.446   3.729  1.2041 -0.3239 -0.0583
 4435SOL    HW215028   0.198   1.534   3.617 -0.4440 -0.8506 -1.2940
 4436SOL     OW15029   8.803   8.259   6.085  0.2226  0.1421 -0.3397
 4436SOL    HW115030   8.715   8.294   6.072  0.1134  0.6754  1.5169
 4436SOL    HW215031   8.859   8.336   6.094  0.6165 -0.1804  0.0349
 4437SOL     OW15032   4.983   6.429   7.002 -0.2871  0.8142  0.4106
 4437SOL    HW115033   5.051   6.455   7.064  1.1995  0.2883 -0.9480
 4437SOL    HW215034   4.923   6.376   7.054  2.1668 -1.6137  0.9863
 4438SOL     OW15035   8.764   1.049   9.173  0.1361 -0.6505 -0.6818
 4438SOL    HW115036   8.713   0.975   9.140  1.0452 -0.6219 -2.2554
 4438SOL    HW215037   8.846   1.044   9.125  1.0282  0.1924  0.7001
 4439SOL     OW15038   1.908   4.113   3.148  0.4008  0.1136  0.1743
 4439SOL    HW115039   1.907   4.035   3.204 -1.4742 -0.7441 -0.9811
 4439SOL    HW215040   1.989   4.104   3.097 -0.3623 -1.7557 -0.8000
 4440SOL     OW15041   5.266   4.457   1.458  0.2328 -0.2284  0.7083
 4440SOL    HW115042   5.184   4.470   1.505  0.9757  0.0670  1.9556
 4440SOL    HW215043   5.249   4.382   1.400 -1.8563  1.6455 -1.3198
 4441SOL     OW15044   6.543   3.827   8.264  0.3239 -0.3293 -0.2804
 4441SOL    HW115045   6.537   3.735   8.289 -1.3181  0.3296  2.0258
 4441SOL    HW215046   6.614   3.861   8.319 -0.7509  0.3024  0.7417
 4442SOL     OW15047   6.404   2.826   8.874 -0.3184  0.0388  0.3190
 4442SOL    HW115048   6.358   2.744   8.854 -1.8338  1.0618 -0.5555
 4442SOL    HW215049   6.422   2.821   8.968 -0.2232 -1.3572  0.2543
 4443SOL     OW15050   8.166   0.133   6.712 -0.2602 -0.4406  0.6370
 4443SOL    HW115051   8.249   0.091   6.736 -1.4421 -2.7231  0.9858
 4443SOL    HW215052   8.109   0.061   6.687 -2.1655  1.0721  0.3975
 4444SOL     OW15053   8.193   2.373   6.520 -0.0317 -0.2110  0.3248
 4444SOL    HW115054   8.223   2.437   6.585  0.6423 -2.5856  2.5319
 4444SOL    HW215055   8.256   2.379   6.449  0.7896  0.6589  1.1010
 4445SOL     OW15056   1.210   7.177   0.096  0.4200 -0.1083  0.2500
 4445SOL    HW115057   1.300   7.208   0.098  0.9754 -1.6036  0.0944
 4445SOL    HW215058   1.191   7.152   0.186  0.4290 -0.4891  0.1496
 4446SOL     OW15059   3.256   1.441   7.025  0.2787  0.2149  0.3843
 4446SOL    HW115060   3.345   1.455   7.059  0.4433  0.0857  0.0128
 4446SOL    HW215061   3.232   1.526   6.987  0.2144  0.2714  0.5516
 4447SOL     OW15062   5.540   0.268   9.055  0.1189 -0.1318  0.0577
 4447SOL    HW115063   5.528   0.291   8.962  4.7041  1.2598 -0.4457
 4447SOL    HW215064   5.479   0.324   9.102 -0.5122  1.0148 -2.0110
 4448SOL     OW15065   1.360   1.734   5.719  0.6010  0.0021 -0.4413
 4448SOL    HW115066   1.344   1.739   5.813 -0.4320 -0.2626 -0.5850
 4448SOL    HW215067   1.455   1.736   5.710  0.6963  0.7740  0.5582
 4449SOL     OW15068   0.314   1.571   9.285 -0.2634 -0.5582 -0.2630
 4449SOL    HW115069   0.271   1.511   9.345 -0.3956 -0.7724 -0.5679
 4449SOL    HW215070   0.353   1.638   9.341 -1.8808  0.2340 -0.0442
 4450SOL     OW15071   7.855   0.666   0.145  0.3111  0.0114  0.0141
 4450SOL    HW115072   7.922   0.728   0.115  0.2802  0.4936  0.8826
 4450SOL    HW215073   7.855   0.597   0.079  1.2807  0.2787 -0.2938
 4451SOL     OW15074   3.761   3.406   8.137  0.0841  0.2708  0.5068
 4451SOL    HW115075   3.811   3.331   8.169  0.3246  0.9739  1.8762
 4451SOL    HW215076   3.688   3.368   8.088  0.3638 -0.8510  0.9345
 4452SOL     OW15077   3.816   5.313   5.556 -0.5553 -0.6550  0.0737
 4452SOL    HW115078   3.810   5.294   5.650 -0.4820 -1.9788 -0.1710
 4452SOL    HW215079   3.907   5.339   5.542 -1.0004  1.3889  0.6627
 4453SOL     OW15080   7.511   6.353   4.339 -0.4128 -0.3741 -0.1716
 4453SOL    HW115081   7.515   6.438   4.382  2.2253 -0.6855  0.3436
 4453SOL    HW215082   7.546   6.291   4.403 -0.0330 -1.4629 -1.3832
 4454SOL     OW15083   6.529   9.123   3.566 -0.2917 -0.2632 -0.2239
 4454SOL    HW115084   6.575   9.159   3.642  0.6251 -1.3659 -0.2284
 4454SOL    HW215085   6.600   9.100   3.505 -0.8927 -1.4232 -0.4925
 4455SOL     OW15086   6.544   8.304   2.509 -0.1924  0.2197  0.1825
 4455SOL    HW115087   6.459   8.329   2.544 -0.9045 -0.9441 -0.6276
 4455SOL    HW215088   6.589   8.260   2.581 -0.8190 -0.3408  0.2385
 4456SOL     OW15089   3.231   9.460   3.169 -0.2584  0.3661  0.2314
 4456SOL    HW115090   3.255   9.477   3.078 -0.3879  3.0865  0.6368
 4456SOL    HW215091   3.315   9.442   3.212 -0.0724  0.2059 -0.1820
 4457SOL     OW15092   2.465   1.453   5.823  0.9905 -0.3812 -0.8224
 4457SOL    HW115093   2.443   1.380   5.880  0.2079  0.4389 -0.0521
 4457SOL    HW215094   2.555   1.435   5.795  1.0046 -1.3468 -0.2120
 4458SOL     OW15095   6.897   9.656   4.153 -0.5995  0.1461 -0.0728
 4458SOL    HW115096   6.960   9.597   4.193  1.2473  2.5023  0.7435
 4458SOL    HW215097   6.947   9.705   4.088 -1.0670  3.1381  1.6125
 4459SOL     OW15098   3.613   4.926   0.957  0.0549  0.0862  0.3002
 4459SOL    HW115099   3.610   4.947   0.863  0.7569 -1.2613 -0.0627
 4459SOL    HW215100   3.576   4.837   0.962 -0.6714  0.4316  1.4171
 4460SOL     OW15101   0.728   8.068   4.981  0.0464  0.3422 -0.6249
 4460SOL    HW115102   0.666   8.022   5.039 -2.4287  1.1134 -2.5163
 4460SOL    HW215103   0.735   8.156   5.019 -0.4136  0.4047 -0.6787
 4461SOL     OW15104   2.028   6.993   9.310  0.2333 -0.2247  0.0230
 4461SOL    HW115105   2.092   7.064   9.312  0.7972 -0.7389  0.8138
 4461SOL    HW215106   1.959   7.024   9.250  0.5057  0.9384  0.2933
 4462SOL     OW15107   7.769   2.435   8.187  0.5886 -0.1585  0.0358
 4462SOL    HW115108   7.684   2.462   8.152  0.4713 -0.5780 -0.0142
 4462SOL    HW215109   7.830   2.447   8.114  0.5092 -0.1708 -0.0329
 4463SOL     OW15110   7.553   5.209   0.148  0.0482  0.4736 -0.6955
 4463SOL    HW115111   7.609   5.210   0.070  0.1779 -0.4433 -0.6217
 4463SOL    HW215112   7.466   5.231   0.115  0.3757  1.5740 -0.8648
 4464SOL     OW15113   8.582   3.185   9.114  0.2520 -0.1734  0.3986
 4464SOL    HW115114   8.559   3.213   9.026  0.2741  0.4134  0.5751
 4464SOL    HW215115   8.591   3.267   9.164  2.6065 -0.3291  0.3643
 4465SOL     OW15116   6.181   8.461   0.167  0.2488 -0.4354  0.1292
 4465SOL    HW115117   6.124   8.386   0.149  1.6395 -1.9653  1.6933
 4465SOL    HW215118   6.255   8.423   0.215  2.7728  1.3862 -2.0492
 4466SOL     OW15119   5.475   5.380   8.879 -0.4326 -0.0548  0.0862
 4466SOL    HW115120   5.410   5.339   8.936 -0.0114  0.0076  0.6146
 4466SOL    HW215121   5.437   5.465   8.856  0.8156  1.4079  2.9930
 4467SOL     OW15122   1.805   2.082   8.203 -0.0206  0.2628 -0.7350
 4467SOL    HW115123   1.792   1.996   8.245 -0.2827 -0.1549 -1.6552
 4467SOL    HW215124   1.782   2.145   8.271 -2.7232 -0.4086 -0.9283
 4468SOL     OW15125   8.166   4.414   0.801 -0.9099 -0.6008 -0.0376
 4468SOL    HW115126   8.071   4.403   0.803 -0.9398 -0.4822 -0.5717
 4468SOL    HW215127   8.194   4.406   0.892 -1.2588 -2.1609 -0.0450
 4469SOL     OW15128   4.210   6.893   9.377  0.0124  0.3947 -0.0421
 4469SOL    HW115129   4.117   6.915   9.385 -1.3535 -3.2353 -2.8966
 4469SOL    HW215130   4.226   6.831   9.448 -1.6693 -3.4945 -2.6927
 4470SOL     OW15131   6.891   4.352   9.210 -0.1782 -0.5128  0.3407
 4470SOL    HW115132   6.892   4.270   9.161 -1.5210 -1.3993  1.7281
 4470SOL    HW215133   6.808   4.394   9.185  0.2801  0.2113 -0.0001
 4471SOL     OW15134   3.838   8.279   9.403  0.2772 -0.1611  0.0363
 4471SOL    HW115135   3.864   8.198   9.359  0.9569 -0.1545  0.4143
 4471SOL    HW215136   3.823   8.341   9.332  0.1363 -0.5041 -0.2399
 4472SOL     OW15137   6.383   7.558   8.823 -0.1913 -0.3641  0.0337
 4472SOL    HW115138   6.326   7.585   8.750  0.4029  0.9114  0.0218
 4472SOL    HW215139   6.340   7.593   8.901  1.1513  1.6551 -0.0812
 4473SOL     OW15140   7.591   8.397   8.092  0.0801 -0.5152  0.3139
 4473SOL    HW115141   7.563   8.387   8.001  0.3907 -0.8338  0.2507
 4473SOL    HW215142   7.680   8.433   8.086  0.9810 -2.5488  0.4207
 4474SOL     OW15143   5.338   9.162   5.520  0.7049  0.1661  0.2534
 4474SOL    HW115144   5.244   9.178   5.516  0.3715 -1.6384  0.3407
 4474SOL    HW215145   5.358   9.117   5.438  1.5950  0.9473  0.0230
 4475SOL     OW15146   9.694   6.659   9.346  0.1869  0.3152  0.1776
 4475SOL    HW115147   9.671   6.737   9.295 -0.4298 -0.5907 -0.9993
 4475SOL    HW215148   9.626   6.595   9.323  1.0401 -0.7751  0.5986
 4476SOL     OW15149   9.315   0.162   7.804 -0.0079  0.6934 -0.0353
 4476SOL    HW115150   9.395   0.215   7.799  0.0358  0.7326  0.9545
 4476SOL    HW215151   9.319   0.120   7.890 -0.6298  0.0129 -0.3300
 4477SOL     OW15152   2.855   4.801   6.064  0.2896 -0.7918 -1.3092
 4477SOL    HW115153   2.867   4.895   6.051 -1.2888 -0.7115 -2.4008
 4477SOL    HW215154   2.944   4.767   6.072  0.9118  0.7004 -1.5506
 4478SOL     OW15155   8.444   7.736   7.148 -0.1106 -0.2256  0.1639
 4478SOL    HW115156   8.498   7.783   7.085  0.1109  0.2588  0.7058
 4478SOL    HW215157   8.391   7.804   7.191  0.2871 -0.4458  1.0262
 4479SOL     OW15158   3.065   4.430   9.252  0.3094 -0.3213 -0.2362
 4479SOL    HW115159   2.986   4.420   9.199 -0.5314 -0.2648  0.9594
 4479SOL    HW215160   3.066   4.523   9.274  0.2050 -0.4863  0.4884
 4480SOL     OW15161   7.713   3.799   0.746 -0.3566 -0.1176  0.1598
 4480SOL    HW115162   7.732   3.720   0.795 -0.1846 -0.3716 -0.3121
 4480SOL    HW215163   7.624   3.788   0.714  0.4132 -1.1716 -1.8382
 4481SOL     OW15164   4.770   6.036   0.108  0.4648  0.5656  0.0944
 4481SOL    HW115165   4.735   6.053   0.196  0.7233 -0.0043  0.3126
 4481SOL    HW215166   4.789   6.123   0.073  0.7897  0.7856  0.7835
 4482SOL     OW15167   1.257   3.986   3.925  0.0425  0.0570  0.6760
 4482SOL    HW115168   1.235   3.965   3.834  0.7602  0.2274  0.4594
 4482SOL    HW215169   1.216   4.071   3.941 -1.5069 -0.7205  1.0520
 4483SOL     OW15170   5.668   8.691   7.522  0.1429  0.3320 -0.3077
 4483SOL    HW115171   5.694   8.754   7.454  2.9449 -0.9666 -0.5523
 4483SOL    HW215172   5.731   8.704   7.592 -2.2939  1.1773  1.9222
 4484SOL     OW15173   1.827   7.288   4.165  0.0330 -0.1370  0.0253
 4484SOL    HW115174   1.905   7.249   4.206  0.8380 -2.4371 -3.2737
 4484SOL    HW215175   1.758   7.222   4.178 -0.4228  0.3246 -0.0511
 4485SOL     OW15176   2.282   1.330   3.099  0.3780 -0.3173  0.5645
 4485SOL    HW115177   2.238   1.320   3.184  1.4761 -1.3393  1.0411
 4485SOL    HW215178   2.249   1.413   3.065 -2.3603 -1.3044  0.5976
 4486SOL     OW15179   2.963   5.286   7.771  0.0992 -0.3539  0.1626
 4486SOL    HW115180   2.868   5.273   7.774 -0.3092  2.1845  0.3797
 4486SOL    HW215181   2.981   5.302   7.678  0.2991 -0.6410  0.1509
 4487SOL     OW15182   4.021   1.519   2.770  0.1710  0.0242 -0.0438
 4487SOL    HW115183   4.064   1.503   2.854  0.3689  2.2190  0.3108
 4487SOL    HW215184   4.062   1.599   2.736 -2.2443  1.0976 -0.6210
 4488SOL     OW15185   6.587   2.780   1.133 -0.2194 -0.7606 -0.1499
 4488SOL    HW115186   6.663   2.722   1.134  0.4834  0.1241 -0.5814
 4488SOL    HW215187   6.623   2.865   1.159 -1.2988 -0.5916  0.8746
 4489SOL     OW15188   1.382   5.639   2.631  0.0039 -0.4527  0.1356
 4489SOL    HW115189   1.475   5.630   2.610 -0.0799  1.1675 -1.1442
 4489SOL    HW215190   1.342   5.557   2.600  1.1423 -1.7730  1.9566
 4490SOL     OW15191   4.396   0.575   4.423 -0.4493  0.0845 -0.3229
 4490SOL    HW115192   4.470   0.618   4.465 -2.4985  1.5405  2.0348
 4490SOL    HW215193   4.392   0.613   4.335  2.2432 -0.9328 -0.9707
 4491SOL     OW15194   7.896   8.652   5.211 -0.2465 -0.0747  0.1136
 4491SOL    HW115195   7.944   8.570   5.198 -1.2995 -0.7222  0.1863
 4491SOL    HW215196   7.960   8.710   5.254  0.8734 -0.4485 -0.9893
 4492SOL     OW15197   6.985   3.632   3.689 -0.1402  0.2882 -0.2718
 4492SOL    HW115198   6.921   3.656   3.622 -0.1243  1.4165  0.0919
 4492SOL    HW215199   6.936   3.636   3.771  0.6388  2.4024  0.1544
 4493SOL     OW15200   2.811   0.958   0.620  0.2336 -0.3650 -0.0620
 4493SOL    HW115201   2.741   0.905   0.582  0.6642 -2.7192  2.1802
 4493SOL    HW215202   2.884   0.949   0.558 -0.6821  0.2763 -1.2818
 4494SOL     OW15203   3.634   1.533   3.469  0.0671  0.1254  0.1182
 4494SOL    HW115204   3.594   1.452   3.437 -1.2142  1.7294 -2.7002
 4494SOL    HW215205   3.583   1.556   3.547 -1.6235 -0.1621 -0.8786
 4495SOL     OW15206   6.146   6.534   7.470  0.4632  0.1045 -0.3027
 4495SOL    HW115207   6.221   6.499   7.518 -0.2264 -0.5408  0.3436
 4495SOL    HW215208   6.183   6.600   7.411  1.2478  1.5584  1.7121
 4496SOL     OW15209   8.435   2.261   5.882  0.1688 -0.0055 -0.4752
 4496SOL    HW115210   8.417   2.296   5.794 -0.1510  1.4015  0.1267
 4496SOL    HW215211   8.509   2.202   5.869  0.2587  0.3408 -1.6684
 4497SOL     OW15212   4.195   6.730   1.813  0.0542  0.0574 -0.4511
 4497SOL    HW115213   4.213   6.636   1.817  0.4665  0.1772  0.8944
 4497SOL    HW215214   4.143   6.748   1.892  2.1832  1.3960  0.7392
 4498SOL     OW15215   2.722   9.114   2.091 -0.2610 -0.7679  0.1184
 4498SOL    HW115216   2.653   9.157   2.042 -1.4448  0.3031  2.5622
 4498SOL    HW215217   2.688   9.026   2.110 -0.0661 -0.9592 -0.3975
 4499SOL     OW15218   2.143   2.210   4.400  0.5634  0.5008 -0.1819
 4499SOL    HW115219   2.214   2.150   4.424 -0.1582 -1.1386 -1.8504
 4499SOL    HW215220   2.076   2.196   4.467  1.7203  2.0471  1.3948
 4500SOL     OW15221   8.267   8.758   2.744  0.2689 -0.0091  0.1324
 4500SOL    HW115222   8.336   8.741   2.808  1.7907  3.0372 -0.5184
 4500SOL    HW215223   8.220   8.833   2.780 -1.0858 -0.4336 -0.7012
 4501SOL     OW15224   8.753   7.063   2.051  0.1080  0.1464  0.6825
 4501SOL    HW115225   8.701   7.038   2.128  0.1294 -0.0928  0.6185
 4501SOL    HW215226   8.761   6.983   2.000  0.8326  0.0962  0.8634
 4502SOL     OW15227   9.134   2.145   4.533  0.5471  0.2915  0.5010
 4502SOL    HW115228   9.066   2.151   4.600  0.6194 -1.2774  0.7661
 4502SOL    HW215229   9.089   2.162   4.451 -0.0049  0.0856  0.7537
 4503SOL     OW15230   6.799   0.619   6.300 -0.2999  0.2027 -0.7115
 4503SOL    HW115231   6.772   0.552   6.363  1.0553  0.4198  0.1411
 4503SOL    HW215232   6.892   0.601   6.284  0.5234  2.7428  0.6940
 4504SOL     OW15233   3.341   2.892   5.724 -0.3613  0.4714 -0.1347
 4504SOL    HW115234   3.310   2.971   5.679 -1.0138 -0.7339 -1.8695
 4504SOL    HW215235   3.424   2.870   5.682  1.1667  1.5934  2.0549
 4505SOL     OW15236   0.669   4.503   2.797 -0.0852  0.0213  0.3532
 4505SOL    HW115237   0.638   4.580   2.844 -1.2311 -0.2389  0.0439
 4505SOL    HW215238   0.592   4.469   2.753  0.2169 -1.8133  1.1834
 4506SOL     OW15239   6.458   8.594   3.159  0.5828  0.2773 -0.4753
 4506SOL    HW115240   6.433   8.539   3.085  2.5777  0.0791 -1.0832
 4506SOL    HW215241   6.421   8.680   3.140  0.8475  0.1579 -1.5880
 4507SOL     OW15242   2.504   2.042   8.178 -0.0663  0.1654  0.4015
 4507SOL    HW115243   2.420   2.060   8.137 -0.7112 -2.2366  0.5443
 4507SOL    HW215244   2.494   2.072   8.268 -0.7311 -0.0148  0.3892
 4508SOL     OW15245   5.421   6.608   7.427 -0.0258 -0.6825  0.0839
 4508SOL    HW115246   5.415   6.701   7.406  0.4859 -0.7965 -0.5831
 4508SOL    HW215247   5.337   6.587   7.468 -0.5277 -0.1550 -0.6546
 4509SOL     OW15248   2.833   7.783   7.602 -0.0497 -0.6574 -0.6377
 4509SOL    HW115249   2.772   7.856   7.603 -1.8913 -2.1184  0.5167
 4509SOL    HW215250   2.902   7.809   7.540  1.0923  3.3559  1.9467
 4510SOL     OW15251   2.949   2.444   0.784 -0.1204 -0.4454  0.2003
 4510SOL    HW115252   3.044   2.446   0.772 -0.1011  1.0019  0.4145
 4510SOL    HW215253   2.925   2.354   0.765  1.2484 -0.7504 -0.2371
 4511SOL     OW15254   4.909   5.908   3.186  0.5627 -0.0921 -0.1687
 4511SOL    HW115255   4.877   5.993   3.155 -1.6742 -0.7502  0.1868
 4511SOL    HW215256   4.999   5.903   3.153 -0.0949  1.3190 -2.3646
 4512SOL     OW15257   8.794   3.468   7.198  0.4512  0.3283  0.0786
 4512SOL    HW115258   8.874   3.438   7.241 -0.6245 -0.2651  1.8072
 4512SOL    HW215259   8.724   3.444   7.259 -1.2139 -0.5184 -2.0298
 4513SOL     OW15260   1.980   0.016   6.626 -0.1087 -0.0498  0.7687
 4513SOL    HW115261   1.918   0.065   6.572 -1.4388 -0.2286  2.0612
 4513SOL    HW215262   1.955  -0.076   6.615 -0.2069 -0.1108  1.4389
 4514SOL     OW15263   3.394   6.403   0.644  0.0704  0.3301 -0.0852
 4514SOL    HW115264   3.425   6.423   0.732  0.3113  0.3179 -0.1662
 4514SOL    HW215265   3.317   6.348   0.658 -0.3863  1.0221  0.1268
 4515SOL     OW15266   9.198   0.039   6.486 -0.0936  0.1563  0.1531
 4515SOL    HW115267   9.277  -0.003   6.451  0.4676  0.6107  0.8558
 4515SOL    HW215268   9.217   0.133   6.483  0.0501  0.2102  1.8263
 4516SOL     OW15269   2.168   0.553   6.505 -0.1623  0.2497  0.0784
 4516SOL    HW115270   2.258   0.584   6.496  0.0140 -0.3566 -0.2981
 4516SOL    HW215271   2.121   0.627   6.542  0.4984  0.5624  0.3103
 4517SOL     OW15272   0.026   6.710   0.392  0.4240  0.7323  0.1383
 4517SOL    HW115273   0.017   6.679   0.482  1.5403  2.2715  0.8457
 4517SOL    HW215274   0.115   6.686   0.367  0.2006  0.5237 -0.4685
 4518SOL     OW15275   8.085   5.071   9.494  0.0133  0.3959 -0.2304
 4518SOL    HW115276   8.147   5.128   9.448 -0.4371  0.6195 -0.5607
 4518SOL    HW215277   8.141   5.011   9.544  0.5313 -0.4310 -1.7414
 4519SOL     OW15278   0.636   6.556   2.630 -0.1232  0.7571  0.2585
 4519SOL    HW115279   0.671   6.479   2.674  1.1034  1.1703  0.0455
 4519SOL    HW215280   0.606   6.523   2.545  1.8808  0.7331 -0.5019
 4520SOL     OW15281   7.734   6.403   2.081  0.5261  0.0875  0.5120
 4520SOL    HW115282   7.726   6.444   1.996  2.8195  0.5588  0.4528
 4520SOL    HW215283   7.765   6.314   2.063 -0.9241 -0.4942  0.7900
 4521SOL     OW15284   5.937   7.914   0.291  0.8698 -0.4645  0.8376
 4521SOL    HW115285   5.981   7.829   0.299 -1.4282 -1.5245  3.7805
 4521SOL    HW215286   5.993   7.975   0.339  2.6140 -0.1053 -1.4245
 4522SOL     OW15287   1.318   8.098   7.396  0.3352  0.1615 -0.3216
 4522SOL    HW115288   1.227   8.081   7.373  1.1214 -4.6161 -0.9666
 4522SOL    HW215289   1.358   8.129   7.315  0.0288 -1.9451 -1.3618
 4523SOL     OW15290   1.147   5.721   8.488  0.0120 -0.2401  0.3529
 4523SOL    HW115291   1.072   5.733   8.545  0.3794 -0.6477  0.9331
 4523SOL    HW215292   1.200   5.799   8.500 -1.2276  0.9711 -1.5076
 4524SOL     OW15293   6.135   6.632   1.071  0.6613  0.2632 -0.4810
 4524SOL    HW115294   6.090   6.549   1.081  1.3061 -0.1657 -1.0418
 4524SOL    HW215295   6.226   6.613   1.096  0.6586  0.9720  0.1002
 4525SOL     OW15296   2.331   4.573   3.380  0.0194  0.3095  0.0478
 4525SOL    HW115297   2.423   4.546   3.384 -0.4303 -1.7372 -1.3774
 4525SOL    HW215298   2.321   4.609   3.292 -1.0046 -1.8141 -0.7945
 4526SOL     OW15299   9.074   0.904   4.747 -0.0681 -0.7584  0.6552
 4526SOL    HW115300   9.155   0.901   4.695  1.1108  0.8585  2.2845
 4526SOL    HW215301   9.031   0.985   4.720 -0.9618 -1.3899  0.1229
 4527SOL     OW15302   4.245   3.529   6.847  0.2555 -0.2839  0.2585
 4527SOL    HW115303   4.176   3.583   6.886 -0.2921 -2.3594  2.3743
 4527SOL    HW215304   4.234   3.443   6.888  2.8184 -1.2549 -0.9057
 4528SOL     OW15305   9.446   4.719   4.374  0.2058  0.2187 -0.1926
 4528SOL    HW115306   9.399   4.727   4.291 -1.4382  0.7580  0.7501
 4528SOL    HW215307   9.501   4.797   4.377 -0.4221  0.6757 -0.3667
 4529SOL     OW15308   6.925   6.041   0.843  0.5497  0.3493  0.1831
 4529SOL    HW115309   6.887   5.980   0.780  0.4183  0.4130  0.2000
 4529SOL    HW215310   6.874   6.028   0.923  0.2807  0.7393  0.0778
 4530SOL     OW15311   7.143   8.377   2.865  0.9367  0.2075 -0.3685
 4530SOL    HW115312   7.060   8.343   2.830  1.1518  1.8615 -2.7370
 4530SOL    HW215313   7.140   8.356   2.958 -2.3588  0.6205 -0.2431
 4531SOL     OW15314   2.842   1.304   8.237  0.1799 -0.1188 -0.0074
 4531SOL    HW115315   2.896   1.232   8.203  1.9584  1.7760 -1.4346
 4531SOL    HW215316   2.904   1.361   8.282 -1.0982  0.7941  0.6445
 4532SOL     OW15317   9.201   8.807   4.750  0.3962  0.0845 -0.7654
 4532SOL    HW115318   9.179   8.881   4.808 -1.1513 -1.3376  0.5752
 4532SOL    HW215319   9.278   8.767   4.790 -0.2440 -0.4684 -0.0565
 4533SOL     OW15320   5.024   6.084   5.685  0.6609 -0.5940 -0.3095
 4533SOL    HW115321   5.014   6.179   5.694 -3.8997 -0.9646  1.2834
 4533SOL    HW215322   5.049   6.071   5.594  2.1876  2.0836 -0.3885
 4534SOL     OW15323   2.241   9.522   9.590 -0.5729 -0.0811  0.0804
 4534SOL    HW115324   2.204   9.579   9.523 -0.3164 -0.7121 -0.6229
 4534SOL    HW215325   2.313   9.573   9.628 -1.6512  0.8512  0.9290
 4535SOL     OW15326   1.083   1.867   9.559  0.2371  0.1102 -0.3632
 4535SOL    HW115327   0.988   1.856   9.556  0.3500 -0.8268 -0.9424
 4535SOL    HW215328   1.113   1.793   9.612  0.7222 -0.1935 -1.0536
 4536SOL     OW15329   8.280   0.147   3.095  0.3439 -0.2848  0.0149
 4536SOL    HW115330   8.293   0.216   3.160 -1.2601  0.4999 -0.4403
 4536SOL    HW215331   8.274   0.066   3.146  3.5065 -0.3596  0.4689
 4537SOL     OW15332   8.602   5.856   7.928 -0.0208  0.2131  0.0419
 4537SOL    HW115333   8.670   5.799   7.964  0.6444  0.4981 -0.7380
 4537SOL    HW215334   8.547   5.878   8.003  0.8457  0.1131  0.7145
 4538SOL     OW15335   4.820   1.842   2.278  0.7841 -0.2195 -0.2560
 4538SOL    HW115336   4.756   1.864   2.211 -0.5039  0.0980  1.0440
 4538SOL    HW215337   4.873   1.921   2.288  0.2742  0.1026 -0.1122
 4539SOL     OW15338   5.816   3.027   2.933  0.3467  0.4879  0.4827
 4539SOL    HW115339   5.856   2.973   2.865 -0.1402  0.2332  0.3930
 4539SOL    HW215340   5.885   3.086   2.961  1.3763 -1.1572  1.6167
 4540SOL     OW15341   3.121   3.906   1.667 -0.2293  0.4571  0.5814
 4540SOL    HW115342   3.209   3.926   1.635 -0.2779 -0.1994  0.0090
 4540SOL    HW215343   3.133   3.829   1.723 -0.3055  0.9447  1.2736
 4541SOL     OW15344   8.157   0.145   4.787  0.2400  0.0875  0.3874
 4541SOL    HW115345   8.128   0.068   4.737 -0.5662  0.5209  0.1706
 4541SOL    HW215346   8.225   0.111   4.845 -1.6232 -1.2826  1.8872
 4542SOL     OW15347   1.035   1.131   8.800 -0.3144 -0.2241  0.3147
 4542SOL    HW115348   1.128   1.151   8.809 -0.2462 -0.5720  0.4068
 4542SOL    HW215349   1.029   1.082   8.718 -0.7398  1.7469 -0.8942
 4543SOL     OW15350   3.702   7.784   3.939 -0.1450 -0.4192 -0.2985
 4543SOL    HW115351   3.763   7.849   3.973  0.6665 -0.5165 -1.4988
 4543SOL    HW215352   3.693   7.720   4.009  0.3704  0.1105  0.2609
 4544SOL     OW15353   4.782   6.787   9.503  0.2522 -0.4838 -0.5900
 4544SOL    HW115354   4.688   6.777   9.486  0.6232 -1.4949 -2.2785
 4544SOL    HW215355   4.804   6.713   9.559  0.1670 -0.6153 -0.7309
 4545SOL     OW15356   4.293   8.896   1.929 -0.2756  0.4122  0.6099
 4545SOL    HW115357   4.264   8.901   1.838  0.0489  0.7581  0.5240
 4545SOL    HW215358   4.336   8.980   1.946 -1.9909  1.1333  1.6649
 4546SOL     OW15359   1.813   8.100   0.003  0.5792 -0.6007 -0.2977
 4546SOL    HW115360   1.865   8.162  -0.048  1.7316 -1.4484 -0.1961
 4546SOL    HW215361   1.775   8.041  -0.062 -0.2671  0.0243 -0.3721
 4547SOL     OW15362   1.064   7.087   4.159 -0.1322  0.4433 -0.1254
 4547SOL    HW115363   0.988   7.106   4.104  0.1858 -1.7965 -1.4579
 4547SOL    HW215364   1.035   7.017   4.216  1.3382 -1.7606 -1.8974
 4548SOL     OW15365   3.967   8.329   8.118 -0.1581  0.3747 -0.1836
 4548SOL    HW115366   3.886   8.376   8.140 -0.8872 -0.9453  0.0395
 4548SOL    HW215367   4.006   8.381   8.047 -0.8636  1.3795  0.1388
 4549SOL     OW15368   0.975   5.349   5.059 -0.1394  0.2568  1.0436
 4549SOL    HW115369   1.026   5.302   4.993 -0.0437  0.8718  0.6626
 4549SOL    HW215370   1.041   5.392   5.114 -0.1826  2.5360 -0.5319
 4550SOL     OW15371   2.573   0.084   6.453  0.4022 -0.6040 -0.0470
 4550SOL    HW115372   2.555   0.048   6.540 -0.6504 -1.0409 -0.4231
 4550SOL    HW215373   2.585   0.178   6.467  1.3482 -0.8245  0.7065
 4551SOL     OW15374   1.402   5.240   8.149 -0.3450  0.2818 -0.0120
 4551SOL    HW115375   1.355   5.303   8.203 -0.2731  0.5071 -0.2101
 4551SOL    HW215376   1.362   5.247   8.063  2.6529  3.5082 -1.4068
 4552SOL     OW15377   1.618   1.697   0.020 -0.2226  0.2811 -0.2284
 4552SOL    HW115378   1.674   1.638  -0.030  0.7859  0.4839  0.6191
 4552SOL    HW215379   1.665   1.710   0.102 -2.2943 -0.8397  1.2170
 4553SOL     OW15380   6.444   0.732   5.242 -1.3599 -0.2929  0.0611
 4553SOL    HW115381   6.363   0.728   5.191 -1.0764 -0.0271 -0.4188
 4553SOL    HW215382   6.448   0.648   5.287 -0.6062 -1.4298 -1.9583
 4554SOL     OW15383   0.948   6.208   9.573 -0.9579 -0.3329 -0.1858
 4554SOL    HW115384   0.953   6.114   9.592  1.3077 -0.2946 -0.2471
 4554SOL    HW215385   0.976   6.250   9.655  1.3345  0.1142 -1.1233
 4555SOL     OW15386   4.855   1.657   6.221  0.0300  0.2628 -0.1819
 4555SOL    HW115387   4.928   1.718   6.213  2.3722 -1.9705  2.0519
 4555SOL    HW215388   4.886   1.577   6.179 -1.8595 -0.2528 -0.7028
 4556SOL     OW15389   8.100   7.464   7.519  0.2965 -0.3161 -0.0059
 4556SOL    HW115390   8.160   7.471   7.594 -1.3234  2.4521  1.1859
 4556SOL    HW215391   8.049   7.384   7.537  0.1957  0.0848  1.6721
 4557SOL     OW15392   7.997   7.759   9.136 -0.1868 -0.0512 -0.1321
 4557SOL    HW115393   7.950   7.781   9.216  0.2304 -0.1300  0.1362
 4557SOL    HW215394   8.079   7.808   9.142 -0.9057  1.3680 -1.3544
 4558SOL     OW15395   5.974   9.429   1.669 -0.1853 -0.0849  0.3786
 4558SOL    HW115396   6.069   9.430   1.653 -0.0012 -0.5122  1.3410
 4558SOL    HW215397   5.935   9.409   1.584  0.7924 -3.9431  0.6666
 4559SOL     OW15398   7.458   1.708   4.437  0.2976  0.4108 -0.0765
 4559SOL    HW115399   7.380   1.711   4.492 -0.4656 -2.8020 -0.7747
 4559SOL    HW215400   7.427   1.733   4.350 -0.4330 -2.3138 -0.6908
 4560SOL     OW15401   4.641   6.476   9.250  0.3214 -0.0908 -0.2123
 4560SOL    HW115402   4.561   6.425   9.252 -0.1159  0.5363 -1.0870
 4560SOL    HW215403   4.690   6.447   9.327 -0.5387 -0.7969  0.0826
 4561SOL     OW15404   0.674   9.411   8.156  0.6604  0.6080 -0.0970
 4561SOL    HW115405   0.628   9.464   8.090  0.0923  0.0693 -0.1423
 4561SOL    HW215406   0.745   9.370   8.108 -0.7313 -1.1085 -0.8010
 4562SOL     OW15407   4.037   0.361   7.786 -0.3979  0.1286 -0.3785
 4562SOL    HW115408   4.110   0.357   7.724 -0.6622 -0.3042 -0.6628
 4562SOL    HW215409   4.057   0.437   7.840 -0.4662  0.8661 -1.3717
 4563SOL     OW15410   1.490   4.290   6.750 -0.0561  0.6191 -0.0331
 4563SOL    HW115411   1.542   4.361   6.713  0.7334 -0.7468 -1.6820
 4563SOL    HW215412   1.408   4.293   6.700  0.1281  0.1644 -0.3726
 4564SOL     OW15413   0.755   7.585   0.014  0.1470  0.0801 -0.1101
 4564SOL    HW115414   0.782   7.567   0.103 -0.7192 -2.0271 -0.2250
 4564SOL    HW215415   0.682   7.525  -0.002  0.0807  0.6203 -2.1325
 4565SOL     OW15416   4.389   5.052   5.027  0.2355 -0.6599  0.3353
 4565SOL    HW115417   4.364   5.100   5.106 -0.4897 -0.2104 -0.1561
 4565SOL    HW215418   4.311   5.002   5.003  0.1326 -0.0722 -0.6115
 4566SOL     OW15419   8.792   3.916   0.001  0.1602 -0.1304 -0.3919
 4566SOL    HW115420   8.826   3.987   0.056  2.3208 -1.0584 -0.4235
 4566SOL    HW215421   8.743   3.961  -0.068 -0.0938  1.2120  0.6209
 4567SOL     OW15422   3.116   6.651   5.154  0.1481  0.4651 -0.2982
 4567SOL    HW115423   3.136   6.656   5.061  1.4610 -1.5522 -0.1848
 4567SOL    HW215424   3.202   6.647   5.197 -0.4400  0.7627  0.9574
 4568SOL     OW15425   8.605   1.227   8.961  0.0234  0.5687 -0.2943
 4568SOL    HW115426   8.579   1.162   9.026 -0.9490  0.5976 -0.6450
 4568SOL    HW215427   8.673   1.279   9.005  0.7780 -0.6301  0.0087
 4569SOL     OW15428   5.939   9.207   5.092  0.0197  0.1421 -0.2314
 4569SOL    HW115429   5.864   9.205   5.033 -0.3113  0.0203  0.1826
 4569SOL    HW215430   5.989   9.129   5.070 -0.6572 -0.4739  0.3458
 4570SOL     OW15431   4.988   5.110   1.225 -0.2821  0.2036  0.4472
 4570SOL    HW115432   5.052   5.175   1.197 -1.6533  0.9070 -1.3093
 4570SOL    HW215433   5.024   5.027   1.195  0.4596  0.4160  0.7299
 4571SOL     OW15434   4.118   7.262   6.306 -0.8466 -0.4075  0.4019
 4571SOL    HW115435   4.082   7.279   6.220  0.2099  0.7013  0.1519
 4571SOL    HW215436   4.143   7.169   6.304 -0.3681 -0.2634 -0.6671
 4572SOL     OW15437   5.425   2.644   0.969 -0.0188 -0.1437 -0.1422
 4572SOL    HW115438   5.461   2.712   0.913  1.7860 -2.0799 -1.4894
 4572SOL    HW215439   5.441   2.675   1.058 -1.4157  2.2119 -0.6348
 4573SOL     OW15440   9.665   8.230   5.712 -0.2272  0.3504  0.1626
 4573SOL    HW115441   9.604   8.186   5.653  1.1810  0.3007 -1.3424
 4573SOL    HW215442   9.675   8.170   5.786 -0.5007 -0.5688 -0.5223
 4574SOL     OW15443   5.758   2.907   7.631 -0.0721  0.1590  0.1065
 4574SOL    HW115444   5.771   2.885   7.539 -2.0107 -1.1444  0.0816
 4574SOL    HW215445   5.720   2.995   7.630  0.9247  0.5937 -0.2527
 4575SOL     OW15446   1.717   4.036   6.373  0.0160  0.3126 -0.4294
 4575SOL    HW115447   1.746   4.056   6.284 -1.2008 -0.2888 -0.9892
 4575SOL    HW215448   1.796   4.041   6.426  1.0130 -0.6225 -1.7675
 4576SOL     OW15449   4.613   6.809   6.902  0.0068 -0.2526 -0.7635
 4576SOL    HW115450   4.708   6.798   6.898 -0.1588 -1.5725 -1.8388
 4576SOL    HW215451   4.600   6.903   6.912  1.4241 -0.0580 -0.5764
 4577SOL     OW15452   3.718   8.743   2.126  0.2114  0.0614  0.5422
 4577SOL    HW115453   3.703   8.795   2.205 -1.7801 -0.2819  0.4399
 4577SOL    HW215454   3.630   8.719   2.096  1.0051 -1.6615 -0.5543
 4578SOL     OW15455   6.299   1.314   0.111 -0.0620  0.2869  0.7000
 4578SOL    HW115456   6.231   1.267   0.064 -1.2607  1.2724  1.3771
 4578SOL    HW215457   6.348   1.247   0.158 -0.8636 -0.3931  0.5742
 4579SOL     OW15458   7.611   2.673   4.268  0.0705  0.4203 -0.0504
 4579SOL    HW115459   7.690   2.627   4.297 -0.0646  0.4385  0.3459
 4579SOL    HW215460   7.616   2.670   4.173 -0.4476 -1.3119 -0.0590
 4580SOL     OW15461   1.937   2.970   8.029 -0.5133  0.1038 -0.0657
 4580SOL    HW115462   1.886   2.971   7.948 -1.0493 -0.4871  0.2548
 4580SOL    HW215463   2.028   2.962   8.000 -0.7527 -0.9135 -0.6023
 4581SOL     OW15464   5.932   5.686   1.742 -0.1608  0.0440 -0.2811
 4581SOL    HW115465   5.846   5.720   1.718 -1.5728 -1.2914  2.3375
 4581SOL    HW215466   5.917   5.592   1.757  1.6832 -0.1709  0.5201
 4582SOL     OW15467   4.117   3.748   1.610 -0.3443 -0.4701 -0.3605
 4582SOL    HW115468   4.039   3.719   1.562 -1.1997  0.8652  0.1970
 4582SOL    HW215469   4.185   3.686   1.582 -1.2996 -0.9594 -1.7509
 4583SOL     OW15470   0.026   5.652   1.554 -0.0398 -0.4799  0.8894
 4583SOL    HW115471  -0.014   5.691   1.632 -1.6772  1.2261 -0.6692
 4583SOL    HW215472   0.118   5.643   1.575  0.2239  3.0604  1.9468
 4584SOL     OW15473   8.227   4.476   1.320 -0.5132 -0.1878  0.1732
 4584SOL    HW115474   8.276   4.468   1.401 -0.0063 -2.2677 -0.2837
 4584SOL    HW215475   8.136   4.489   1.348 -0.1059  0.8405  1.0393
 4585SOL     OW15476   9.495   6.816   2.256 -0.0642 -0.0109  0.8232
 4585SOL    HW115477   9.513   6.755   2.329  0.3923  0.3862  1.0524
 4585SOL    HW215478   9.573   6.871   2.252  0.4121 -0.7258 -0.6801
 4586SOL     OW15479   7.554   0.454   5.156 -0.2663  0.4319  0.0786
 4586SOL    HW115480   7.640   0.434   5.193  0.0471  0.0351 -0.8200
 4586SOL    HW215481   7.493   0.449   5.230  0.2395 -0.9394  0.4251
 4587SOL     OW15482   9.336   7.785   6.070  0.4212 -0.1937  0.4521
 4587SOL    HW115483   9.352   7.827   6.155  2.8593  1.6245 -0.7938
 4587SOL    HW215484   9.378   7.699   6.078 -0.4876 -0.5686  1.4628
 4588SOL     OW15485   4.947   5.182   4.433  0.0955  0.4908 -0.1844
 4588SOL    HW115486   4.899   5.238   4.372  1.9020  0.6392 -1.5465
 4588SOL    HW215487   5.017   5.144   4.380  1.6099  0.4461  1.7602
 4589SOL     OW15488   8.163   9.284   6.089  0.1245 -0.1206 -0.0739
 4589SOL    HW115489   8.094   9.224   6.060 -0.1997  0.2300 -0.0381
 4589SOL    HW215490   8.244   9.234   6.079 -0.0221 -0.1783 -1.1152
 4590SOL     OW15491   3.480   0.865   1.683 -0.4212  0.6538  0.1427
 4590SOL    HW115492   3.448   0.929   1.619 -0.3470  0.6892  0.1410
 4590SOL    HW215493   3.401   0.826   1.720 -0.4637  0.3759 -0.2334
 4591SOL     OW15494   7.581   5.926   5.424  0.6968  0.2906 -0.2318
 4591SOL    HW115495   7.647   5.994   5.436  0.2983  0.6627 -0.1154
 4591SOL    HW215496   7.617   5.849   5.467  0.6882  0.7229  0.5572
 4592SOL     OW15497   4.813   4.643   8.565 -0.0128  0.0390  0.4427
 4592SOL    HW115498   4.833   4.651   8.471 -1.3152  0.2136  0.1709
 4592SOL    HW215499   4.808   4.734   8.596  1.1169 -0.0223  0.8522
 4593SOL     OW15500   1.507   6.630   6.425 -0.0389  0.4294  0.2488
 4593SOL    HW115501   1.519   6.677   6.508 -0.1535  0.7995  0.0576
 4593SOL    HW215502   1.413   6.616   6.419  0.1775 -2.1819  1.5886
 4594SOL     OW15503   4.062   1.110   7.335 -0.1408 -0.7118  0.0073
 4594SOL    HW115504   4.006   1.048   7.383  0.2884 -1.2270 -0.1458
 4594SOL    HW215505   4.151   1.084   7.359  0.0499 -0.3844 -0.3514
 4595SOL     OW15506   1.030   4.797   4.746 -0.1864 -0.2271 -0.3882
 4595SOL    HW115507   1.057   4.770   4.834 -1.3648 -2.5930 -0.6766
 4595SOL    HW215508   0.934   4.798   4.750 -0.2580 -0.5625 -1.6908
 4596SOL     OW15509   7.429   9.482   2.218 -0.3545  0.2242 -0.3262
 4596SOL    HW115510   7.506   9.532   2.243 -0.6118 -0.1208  1.2276
 4596SOL    HW215511   7.366   9.497   2.288 -1.6447  0.3318 -1.4623
 4597SOL     OW15512   4.752   8.650   9.039 -0.2616  0.1059  0.8543
 4597SOL    HW115513   4.737   8.601   8.958 -1.5082  1.0039  0.5212
 4597SOL    HW215514   4.818   8.716   9.016  0.5283 -0.6103  0.9952
 4598SOL     OW15515   4.356   1.955   1.642 -0.2352 -0.1193  0.0581
 4598SOL    HW115516   4.450   1.974   1.643  0.2572 -1.7736 -3.0094
 4598SOL    HW215517   4.322   2.005   1.567 -2.0645  1.1395  1.6150
 4599SOL     OW15518   7.037   3.524   4.501 -0.2180 -0.2373  0.3679
 4599SOL    HW115519   7.060   3.467   4.574  0.9393 -0.0029  0.1934
 4599SOL    HW215520   7.109   3.585   4.493 -0.9030  0.5285 -0.1930
 4600SOL     OW15521   0.895   5.963   8.821  0.3579  0.2643  0.2515
 4600SOL    HW115522   0.847   6.031   8.774  2.4645  2.5657  1.2310
 4600SOL    HW215523   0.867   5.973   8.912 -2.1353 -2.8058  0.0251
 4601SOL     OW15524   3.794   1.458   2.649  0.3224 -0.4180  0.3173
 4601SOL    HW115525   3.794   1.460   2.553 -0.0943 -0.9273  0.2990
 4601SOL    HW215526   3.886   1.464   2.673  0.4433 -0.4581 -0.1246
 4602SOL     OW15527   6.706   0.419   8.625  0.8018 -0.3919  0.2199
 4602SOL    HW115528   6.787   0.367   8.622  0.6547 -0.6597  0.8017
 4602SOL    HW215529   6.638   0.357   8.651  0.4665 -0.0868  0.0849
 4603SOL     OW15530   3.428   9.423   2.531  0.4039  0.0603 -0.4237
 4603SOL    HW115531   3.342   9.438   2.492  0.8505  0.4030 -1.2927
 4603SOL    HW215532   3.417   9.450   2.623 -1.0033 -1.9819  0.0643
 4604SOL     OW15533   9.469   3.588   6.297 -0.3760  0.0697  0.0838
 4604SOL    HW115534   9.398   3.525   6.310 -0.4687 -0.0155 -0.7766
 4604SOL    HW215535   9.470   3.604   6.203 -0.8316  1.9295  0.3612
 4605SOL     OW15536   0.291   8.641   7.089 -0.1259 -0.3834 -0.2584
 4605SOL    HW115537   0.355   8.651   7.019  0.4529 -1.8273  0.0148
 4605SOL    HW215538   0.224   8.582   7.052 -0.5334 -0.0606 -0.0468
 4606SOL     OW15539   0.781   5.554   1.424  0.5082 -0.2588  0.1676
 4606SOL    HW115540   0.700   5.504   1.413 -0.2573  0.6457  1.4523
 4606SOL    HW215541   0.752   5.639   1.456  1.8217  0.8392 -1.3772
 4607SOL     OW15542   2.888   9.149   6.193 -0.5122  0.2213 -0.2902
 4607SOL    HW115543   2.799   9.183   6.185 -0.4336  0.4153 -0.3525
 4607SOL    HW215544   2.907   9.152   6.287  0.2077  2.2290 -0.4352
 4608SOL     OW15545   7.430   9.120   2.685 -0.3333 -0.3414 -0.4482
 4608SOL    HW115546   7.437   9.135   2.779 -0.1817  0.0797 -0.5271
 4608SOL    HW215547   7.358   9.176   2.657  1.0858  1.2995 -0.9722
 4609SOL     OW15548   6.129   8.295   8.407  0.2751  0.3781  0.3238
 4609SOL    HW115549   6.197   8.302   8.340  0.0644 -1.7255 -0.1794
 4609SOL    HW215550   6.146   8.369   8.466  0.7445  2.0325 -1.7544
 4610SOL     OW15551   8.538   7.516   3.146 -0.1752  0.6149  0.2023
 4610SOL    HW115552   8.558   7.506   3.240  0.7966 -1.5536 -0.1561
 4610SOL    HW215553   8.524   7.610   3.134  1.2822  1.1627  2.2189
 4611SOL     OW15554   2.847   6.920   7.562  0.2972 -0.5135  0.7264
 4611SOL    HW115555   2.856   6.885   7.650 -1.9469  0.1467  1.2931
 4611SOL    HW215556   2.761   6.962   7.562 -0.2809 -1.4907 -2.1060
 4612SOL     OW15557   9.195   2.382   8.593 -0.3522  0.4217  0.0499
 4612SOL    HW115558   9.264   2.402   8.530  0.1242 -0.8207  0.1559
 4612SOL    HW215559   9.196   2.456   8.654  2.0688 -0.3328  1.0383
 4613SOL     OW15560   5.333   5.175   1.525  0.0807 -0.3274 -0.3282
 4613SOL    HW115561   5.419   5.214   1.508  0.0031  0.5976  1.2948
 4613SOL    HW215562   5.344   5.128   1.608 -1.6497  2.0411  1.3350
 4614SOL     OW15563   1.533   4.512   4.663  0.1227  0.6416  0.4856
 4614SOL    HW115564   1.534   4.424   4.700  1.6556  0.8748  1.0604
 4614SOL    HW215565   1.452   4.551   4.695 -1.8714 -1.3458 -1.7827
 4615SOL     OW15566   7.532   3.954   8.665  0.1734  0.7359 -0.3570
 4615SOL    HW115567   7.490   4.003   8.735 -1.6395 -0.0561 -0.8094
 4615SOL    HW215568   7.529   4.012   8.589 -0.6410  0.4961 -0.5218
 4616SOL     OW15569   4.840   8.761   5.214 -0.8087 -0.1660  0.2956
 4616SOL    HW115570   4.903   8.689   5.221 -0.9896 -0.2248  1.6026
 4616SOL    HW215571   4.867   8.823   5.281 -2.6778 -0.6339  1.5617
 4617SOL     OW15572   8.953   8.206   2.297  0.3244  0.0499  1.0635
 4617SOL    HW115573   8.950   8.113   2.272  1.0265  0.4120 -0.5175
 4617SOL    HW215574   8.862   8.235   2.291  0.3607 -0.0615 -0.5129
 4618SOL     OW15575   3.304   8.488   7.956  0.1733  0.0590 -0.1952
 4618SOL    HW115576   3.400   8.479   7.959  0.3184  0.4936  4.7733
 4618SOL    HW215577   3.272   8.398   7.952  0.8437 -0.2300  0.6875
 4619SOL     OW15578   5.198   3.475   1.360  0.0482  0.1079 -0.1168
 4619SOL    HW115579   5.134   3.410   1.332 -0.8159  1.1165 -0.5450
 4619SOL    HW215580   5.148   3.537   1.414  1.2122 -0.5503  1.8288
 4620SOL     OW15581   4.879   6.973   3.756 -0.5170 -0.0877 -0.0282
 4620SOL    HW115582   4.955   6.998   3.809  0.5193  0.8533 -1.8572
 4620SOL    HW215583   4.887   6.879   3.744  1.3028  0.2075 -1.5115
 4621SOL     OW15584   5.387   4.122   7.414 -0.0015 -0.7073  0.2378
 4621SOL    HW115585   5.299   4.109   7.450 -0.0830  0.4413  0.5038
 4621SOL    HW215586   5.423   4.034   7.405 -1.3337 -1.2202 -0.2750
 4622SOL     OW15587   8.829   4.347   8.555  0.1045  0.2075  0.0377
 4622SOL    HW115588   8.802   4.335   8.646  0.3784  0.4719  0.1557
 4622SOL    HW215589   8.923   4.366   8.559 -0.1621  1.7333 -0.1695
 4623SOL     OW15590   7.726   6.460   4.745  0.5929 -0.2532 -0.1953
 4623SOL    HW115591   7.673   6.383   4.764  1.5277 -1.0552 -0.7770
 4623SOL    HW215592   7.767   6.483   4.828 -0.3268  0.1305  0.1652
 4624SOL     OW15593   0.410   7.237   1.731  0.3293 -0.1821  0.4566
 4624SOL    HW115594   0.318   7.262   1.730  0.4244  0.1834  0.4447
 4624SOL    HW215595   0.412   7.149   1.769 -0.0697 -0.3954 -0.0188
 4625SOL     OW15596   5.178   8.358   1.090  0.2690 -0.4580  0.4101
 4625SOL    HW115597   5.217   8.274   1.066 -0.1132 -0.3029 -0.7738
 4625SOL    HW215598   5.113   8.375   1.022 -0.4110  0.2876  1.2278
 4626SOL     OW15599   6.620   4.257   2.414  0.0460 -0.0628  0.2695
 4626SOL    HW115600   6.570   4.244   2.494  0.5018  1.0400  0.7586
 4626SOL    HW215601   6.557   4.293   2.352 -0.1613 -0.2992  0.3463
 4627SOL     OW15602   7.297   4.087   4.312 -0.4483 -0.0748  0.4417
 4627SOL    HW115603   7.218   4.081   4.259 -0.2639  0.2607  0.1212
 4627SOL    HW215604   7.279   4.034   4.389 -0.9947  0.0212  0.3823
 4628SOL     OW15605   4.567   7.930   0.604 -0.0479 -0.2035  0.1752
 4628SOL    HW115606   4.556   7.995   0.674 -1.6217 -1.9760  1.7045
 4628SOL    HW215607   4.632   7.869   0.638 -0.2343 -0.6533 -0.2645
 4629SOL     OW15608   1.704   5.923   4.294  0.0998 -0.4354  0.0887
 4629SOL    HW115609   1.666   6.006   4.322  1.3120  0.0114  0.4878
 4629SOL    HW215610   1.775   5.906   4.357 -0.2904 -1.9058  0.1711
 4630SOL     OW15611   7.316   9.398   1.966  0.4237  0.3259 -0.3824
 4630SOL    HW115612   7.229   9.372   1.997  1.2575 -2.6898 -0.2185
 4630SOL    HW215613   7.363   9.424   2.045  0.1403  0.4124 -0.2414
 4631SOL     OW15614   2.369   9.376   8.618  0.2001 -0.1380  0.6645
 4631SOL    HW115615   2.465   9.372   8.617  0.2780  0.2580  2.2980
 4631SOL    HW215616   2.341   9.287   8.597  0.8688  0.0663 -1.2615
 4632SOL     OW15617   0.467   4.477   7.857  0.4567 -0.3165  0.1122
 4632SOL    HW115618   0.476   4.406   7.921 -0.2482  0.4769  1.1117
 4632SOL    HW215619   0.408   4.540   7.898 -0.4388 -0.0211 -1.5292
 4633SOL     OW15620   3.604   7.588   4.080 -0.4237  0.4027 -0.1257
 4633SOL    HW115621   3.545   7.629   4.143 -0.8619  0.2809 -0.4477
 4633SOL    HW215622   3.658   7.528   4.132 -2.9917 -2.2161 -0.2331
 4634SOL     OW15623   0.904   5.559   2.495  0.5456 -0.2220  0.1625
 4634SOL    HW115624   0.907   5.483   2.437 -0.2695 -1.3401  1.5168
 4634SOL    HW215625   0.837   5.616   2.457  0.7137 -0.4802 -0.5278
 4635SOL     OW15626   4.073   4.573   4.959  0.3711 -0.3246  0.6698
 4635SOL    HW115627   4.152   4.522   4.937  0.2953 -0.0231 -0.3694
 4635SOL    HW215628   4.051   4.619   4.878 -1.1146 -0.7162  0.8241
 4636SOL     OW15629   4.464   7.334   1.882 -0.0555 -0.4916 -0.0506
 4636SOL    HW115630   4.379   7.353   1.842 -0.0685 -1.1493 -0.3424
 4636SOL    HW215631   4.481   7.410   1.939 -1.1014 -0.6167  0.4509
 4637SOL     OW15632   5.378   2.700   9.546 -0.0182  0.2590 -0.1128
 4637SOL    HW115633   5.387   2.608   9.571 -0.3824  0.6063  1.3845
 4637SOL    HW215634   5.429   2.708   9.466  1.0005 -0.9905  0.3735
 4638SOL     OW15635   7.324   2.905   2.212 -0.5498  0.6574  0.0706
 4638SOL    HW115636   7.388   2.959   2.259  1.4160 -1.9024  0.5121
 4638SOL    HW215637   7.354   2.906   2.122  0.7648 -1.2866  0.4320
 4639SOL     OW15638   2.318   7.493   8.142  0.8574 -0.4026  0.6436
 4639SOL    HW115639   2.278   7.569   8.099 -0.0314 -1.4688 -0.4901
 4639SOL    HW215640   2.354   7.528   8.224  0.9919  1.3389 -0.1199
 4640SOL     OW15641   7.406   6.990   9.533 -0.3505  0.1523 -0.2768
 4640SOL    HW115642   7.419   6.979   9.439 -2.5032  0.6470 -0.6928
 4640SOL    HW215643   7.366   6.908   9.562  1.4951 -0.5177  0.5121
 4641SOL     OW15644   3.518   1.630   3.706 -0.5417  0.5114  0.2608
 4641SOL    HW115645   3.519   1.552   3.761 -0.2450 -0.1824 -0.6925
 4641SOL    HW215646   3.548   1.700   3.764 -0.1990 -0.1962  0.9703
 4642SOL     OW15647   0.834   4.420   6.684 -0.3282 -0.9686 -0.2946
 4642SOL    HW115648   0.900   4.469   6.734 -1.7761  0.8717 -0.0646
 4642SOL    HW215649   0.879   4.341   6.656  1.5442 -0.4511  1.0549
 4643SOL     OW15650   2.531   7.036   3.275 -0.5177 -0.0972  0.3339
 4643SOL    HW115651   2.443   7.072   3.278 -1.2397 -1.7616  3.0828
 4643SOL    HW215652   2.577   7.080   3.347  0.6900  0.1863 -0.5774
 4644SOL     OW15653   2.482   6.662   1.806 -0.2426  0.1666  0.2961
 4644SOL    HW115654   2.564   6.640   1.851 -0.3959  1.9495  1.5323
 4644SOL    HW215655   2.423   6.590   1.827  0.0453  0.4117  2.0882
 4645SOL     OW15656   2.374   6.825   8.571 -0.1910  0.0688  0.4753
 4645SOL    HW115657   2.314   6.835   8.645 -1.2830 -0.4875 -0.3043
 4645SOL    HW215658   2.320   6.842   8.494  0.2340 -1.9634 -0.3491
 4646SOL     OW15659   3.626   1.902   0.104 -0.4282  0.5206  0.7159
 4646SOL    HW115660   3.557   1.861   0.052 -2.9263  1.3526  3.1418
 4646SOL    HW215661   3.637   1.989   0.064 -1.1572  0.5483  0.5558
 4647SOL     OW15662   8.035   6.840   7.258  0.1735 -0.9318 -0.3656
 4647SOL    HW115663   8.122   6.848   7.219  0.2659 -0.3293 -0.0545
 4647SOL    HW215664   7.987   6.914   7.223 -0.0643 -0.9878 -0.1602
 4648SOL     OW15665   8.060   0.439   8.847 -0.1452  0.5427 -0.3263
 4648SOL    HW115666   8.105   0.520   8.870  0.2846  0.2754 -0.2225
 4648SOL    HW215667   7.994   0.466   8.783  0.7186  0.8147 -1.1183
 4649SOL     OW15668   3.874   8.688   0.945 -0.6708 -0.6649 -0.1286
 4649SOL    HW115669   3.902   8.669   0.855  1.6176 -1.2015  0.6339
 4649SOL    HW215670   3.920   8.768   0.968 -1.4032 -0.4236  0.5257
 4650SOL     OW15671   3.824   1.707   7.405  0.2904 -0.2362 -0.2900
 4650SOL    HW115672   3.798   1.751   7.324 -1.3299  0.5738  0.6179
 4650SOL    HW215673   3.903   1.753   7.433  0.8329 -0.4903 -1.3806
 4651SOL     OW15674   5.570   2.002   0.243  0.3592  0.3721 -0.1820
 4651SOL    HW115675   5.532   1.943   0.308  0.0561  0.6139 -0.1402
 4651SOL    HW215676   5.507   2.073   0.234  0.8535  0.8367 -0.0304
 4652SOL     OW15677   0.468   3.433   9.435  0.3227  0.0569 -0.1127
 4652SOL    HW115678   0.444   3.522   9.408  1.7043  0.5876  0.3276
 4652SOL    HW215679   0.469   3.383   9.354  1.5395  0.9359 -0.6623
 4653SOL     OW15680   3.438   4.679   2.576 -0.5843  0.2549  0.3854
 4653SOL    HW115681   3.401   4.748   2.630 -1.9413 -0.6640  0.6953
 4653SOL    HW215682   3.436   4.714   2.487  2.5475  2.1513  0.9293
 4654SOL     OW15683   8.465   2.352   8.584  0.4742  0.3611 -0.0778
 4654SOL    HW115684   8.412   2.430   8.599 -0.2503 -0.3224  1.1008
 4654SOL    HW215685   8.546   2.384   8.545  0.5470  1.7949  1.1883
 4655SOL     OW15686   1.746   5.020   2.075  0.2001  0.0993  0.4896
 4655SOL    HW115687   1.811   5.023   2.005  0.7308  1.0745  1.0019
 4655SOL    HW215688   1.671   4.976   2.036  0.6263  0.2762 -0.5703
 4656SOL     OW15689   7.658   1.970   4.428 -0.2255 -0.7773 -0.5109
 4656SOL    HW115690   7.621   2.007   4.508  1.8746  1.0929 -0.3267
 4656SOL    HW215691   7.690   1.884   4.454 -3.4185 -2.1023 -0.4749
 4657SOL     OW15692   8.367   4.848   1.332 -0.0762 -0.5039  0.1525
 4657SOL    HW115693   8.288   4.822   1.379  0.8418  1.1570  2.9071
 4657SOL    HW215694   8.406   4.916   1.388  1.3715  1.4059 -2.9200
 4658SOL     OW15695   3.593   0.381   3.133  0.4381 -0.4243 -0.3614
 4658SOL    HW115696   3.668   0.367   3.074 -0.2543  0.7495 -1.5840
 4658SOL    HW215697   3.565   0.471   3.115  0.6405  0.2614  2.3266
 4659SOL     OW15698   6.270   5.354   8.496 -0.6039 -0.5881 -0.2132
 4659SOL    HW115699   6.320   5.428   8.461 -0.7107 -0.5984 -0.3873
 4659SOL    HW215700   6.309   5.338   8.582  1.2260 -2.0849 -1.2484
 4660SOL     OW15701   7.724   5.232   9.652  0.1210  0.2140 -0.0161
 4660SOL    HW115702   7.803   5.283   9.634  1.1188 -0.3316  2.4551
 4660SOL    HW215703   7.753   5.141   9.649  0.1355  0.0419  2.7691
 4661SOL     OW15704   7.323   3.259   8.178 -0.2501  0.4599 -0.4237
 4661SOL    HW115705   7.404   3.211   8.164  0.7901  2.1573 -0.5434
 4661SOL    HW215706   7.351   3.349   8.194 -2.1490  1.5063 -2.3454
 4662SOL     OW15707   3.015   0.261   6.732  0.3624  0.1199 -0.0209
 4662SOL    HW115708   2.966   0.307   6.801  0.2854  1.5934 -1.0066
 4662SOL    HW215709   2.951   0.202   6.693  0.1429 -0.0202  0.5341
 4663SOL     OW15710   4.415   6.118   6.993 -0.3030  0.3180  0.0273
 4663SOL    HW115711   4.460   6.068   7.062 -0.4037 -2.0672 -1.5202
 4663SOL    HW215712   4.468   6.197   6.982  1.6348 -0.8357  0.5462
 4664SOL     OW15713   5.534   8.252   3.152 -0.3765 -0.0808 -0.3677
 4664SOL    HW115714   5.550   8.250   3.246 -3.5730 -0.8773  0.2729
 4664SOL    HW215715   5.524   8.345   3.131  0.8491  0.1331 -0.0585
 4665SOL     OW15716   6.134   4.818   4.589 -0.0754  0.2785  0.7872
 4665SOL    HW115717   6.204   4.768   4.631 -0.7311 -1.6788 -0.3262
 4665SOL    HW215718   6.068   4.753   4.567 -0.7869  1.5702 -1.1738
 4666SOL     OW15719   6.044   8.184   8.665 -0.1961  0.3302  0.0438
 4666SOL    HW115720   6.005   8.228   8.740 -0.0708  0.4228  0.0556
 4666SOL    HW215721   6.044   8.249   8.595 -0.7374  0.1007 -0.1779
 4667SOL     OW15722   1.268   6.790   0.834  0.2471 -0.3465  0.0276
 4667SOL    HW115723   1.205   6.862   0.836 -0.3198 -0.8403  0.3288
 4667SOL    HW215724   1.344   6.825   0.787  0.8250  1.1078  1.9103
 4668SOL     OW15725   4.353   9.504   8.786 -0.5820  0.1862 -0.3625
 4668SOL    HW115726   4.282   9.456   8.745  0.5845 -1.2230 -0.8402
 4668SOL    HW215727   4.420   9.510   8.717 -0.1463  1.3065  0.1317
 4669SOL     OW15728   0.986   5.446   1.577 -0.5036 -0.2233  0.1450
 4669SOL    HW115729   0.918   5.484   1.522  0.6763 -0.3463 -1.4698
 4669SOL    HW215730   0.986   5.500   1.656 -1.5511  0.6090 -0.3962
 4670SOL     OW15731   5.494   0.810   8.827 -0.2205 -0.3537  0.6540
 4670SOL    HW115732   5.542   0.740   8.871 -0.1316 -0.0428  1.0567
 4670SOL    HW215733   5.405   0.778   8.819 -0.3086 -0.2900  1.3385
 4671SOL     OW15734   3.794   2.165   7.330 -0.2373  0.2171  0.1755
 4671SOL    HW115735   3.750   2.084   7.307 -0.6268  0.2756  0.7029
 4671SOL    HW215736   3.724   2.231   7.331 -0.0352  0.4291  0.4200
 4672SOL     OW15737   6.894   3.688   3.133  0.6345  0.6319 -0.1193
 4672SOL    HW115738   6.909   3.594   3.129 -0.3204  0.5001 -1.1791
 4672SOL    HW215739   6.967   3.727   3.085  0.1296  0.3046 -1.1790
 4673SOL     OW15740   1.490   7.183   4.073  0.5839  0.0015  0.1920
 4673SOL    HW115741   1.554   7.163   4.005 -0.1241 -0.2636 -0.4163
 4673SOL    HW215742   1.493   7.107   4.132 -0.8452 -1.1702 -1.1498
 4674SOL     OW15743   2.465   3.459   9.085 -0.7118  0.6571  0.0038
 4674SOL    HW115744   2.513   3.433   9.006 -2.5000 -1.1626 -0.5619
 4674SOL    HW215745   2.375   3.431   9.068 -1.2189  0.5665  2.5400
 4675SOL     OW15746   6.444   6.754   1.706 -0.7814 -0.3153 -0.9576
 4675SOL    HW115747   6.438   6.849   1.694  0.1877 -0.4049 -2.3855
 4675SOL    HW215748   6.364   6.730   1.752 -0.9596  1.2157 -0.4139
 4676SOL     OW15749   3.904   8.956   4.720 -0.0812  0.1316  0.0841
 4676SOL    HW115750   3.854   8.876   4.732 -1.4271  0.9245 -0.0472
 4676SOL    HW215751   3.953   8.942   4.639  1.6106 -1.4729  1.2930
 4677SOL     OW15752   2.426   3.027   4.219 -0.4741 -0.0962 -0.3796
 4677SOL    HW115753   2.380   2.970   4.280  0.0217 -0.4052 -0.2854
 4677SOL    HW215754   2.396   3.000   4.133  0.6430 -1.3349 -0.4144
 4678SOL     OW15755   2.129   5.858   1.194  0.5741  0.2003 -0.1129
 4678SOL    HW115756   2.095   5.882   1.107  0.5246  0.0860 -0.1244
 4678SOL    HW215757   2.183   5.781   1.178 -1.1258 -1.1432  0.2610
 4679SOL     OW15758   6.511   5.372   6.744  0.2705 -0.2833  0.0251
 4679SOL    HW115759   6.593   5.332   6.775 -0.1616 -1.5745 -0.4414
 4679SOL    HW215760   6.463   5.300   6.702 -0.9211  0.5504 -0.0945
 4680SOL     OW15761   7.064   7.415   1.232 -0.9492 -0.1628 -0.2766
 4680SOL    HW115762   7.058   7.346   1.298 -0.7377  1.0390  1.0655
 4680SOL    HW215763   6.977   7.456   1.234 -0.5889  0.5991  0.1006
 4681SOL     OW15764   5.552   2.686   0.263  0.2899 -0.3778 -0.1438
 4681SOL    HW115765   5.613   2.636   0.209 -0.7583 -2.3836  0.4125
 4681SOL    HW215766   5.511   2.748   0.202  1.0942 -0.6981 -1.0400
 4682SOL     OW15767   7.685   8.119   8.821 -0.2227 -0.4163 -0.2736
 4682SOL    HW115768   7.594   8.094   8.811 -0.3490  0.4395 -1.3852
 4682SOL    HW215769   7.704   8.173   8.744  1.7591 -2.1187 -1.0713
 4683SOL     OW15770   5.803   7.950   1.968 -0.0991  0.4516  0.1369
 4683SOL    HW115771   5.751   7.917   1.895 -0.7066 -0.6003  1.0094
 4683SOL    HW215772   5.738   7.977   2.033  0.4300  0.7459  0.5517
 4684SOL     OW15773   5.118   9.321   4.464 -0.4678 -0.4244 -0.0534
 4684SOL    HW115774   5.137   9.410   4.436 -1.0551 -0.4679 -0.6061
 4684SOL    HW215775   5.198   9.272   4.445 -0.2143 -0.0654  0.0706
 4685SOL     OW15776   5.462   1.083   8.853 -0.1215  0.3969 -0.1627
 4685SOL    HW115777   5.381   1.112   8.895 -1.9111 -0.4262 -2.7952
 4685SOL    HW215778   5.460   0.988   8.859  0.5780  0.3636 -0.3925
 4686SOL     OW15779   7.333   0.490   4.068 -0.0079 -0.0525  0.5879
 4686SOL    HW115780   7.405   0.533   4.022  0.0754 -1.2346 -0.4504
 4686SOL    HW215781   7.364   0.479   4.158  1.3010 -0.9138  0.0556
 4687SOL     OW15782   8.777   9.694   5.461  0.0547 -0.2357  0.5438
 4687SOL    HW115783   8.689   9.665   5.485  0.2541 -0.0480  1.5663
 4687SOL    HW215784   8.775   9.700   5.365 -0.5872 -1.6655  0.4378
 4688SOL     OW15785   8.435   5.704   2.700 -0.6603  0.2059 -0.3744
 4688SOL    HW115786   8.426   5.782   2.755  1.0352  0.4881 -0.4392
 4688SOL    HW215787   8.498   5.649   2.747 -1.7291 -1.0908 -0.4020
 4689SOL     OW15788   2.046   6.123   4.762 -0.7605  0.6286 -0.0082
 4689SOL    HW115789   1.973   6.118   4.700 -1.1334 -0.2857  0.4844
 4689SOL    HW215790   2.083   6.035   4.761  0.2315  1.0377 -0.1152
 4690SOL     OW15791   0.904   3.223   6.408 -0.3383  0.7272 -0.0136
 4690SOL    HW115792   0.866   3.156   6.464 -0.1897  0.2622 -0.4608
 4690SOL    HW215793   0.861   3.211   6.323  0.5373  0.4264 -0.4258
 4691SOL     OW15794   4.361   8.373   7.283 -0.2523 -0.1845  0.0908
 4691SOL    HW115795   4.396   8.394   7.370  0.4713  0.6981 -0.3988
 4691SOL    HW215796   4.419   8.305   7.249  0.3934  0.5420 -0.2982
 4692SOL     OW15797   2.147   3.835   6.052  0.7580 -0.3972 -0.1478
 4692SOL    HW115798   2.106   3.917   6.027 -0.5115 -1.7328 -2.9553
 4692SOL    HW215799   2.137   3.830   6.147 -0.3185  2.0361 -0.0852
 4693SOL     OW15800   3.276   5.871   7.391 -0.5383 -0.3260  0.0906
 4693SOL    HW115801   3.346   5.921   7.433 -0.2974 -0.9150  0.3960
 4693SOL    HW215802   3.210   5.937   7.368  0.6381  0.4100 -1.3046
 4694SOL     OW15803   7.451   2.085   1.595  0.6609 -0.0018  0.4265
 4694SOL    HW115804   7.450   1.989   1.595  0.1858 -0.0146  1.6457
 4694SOL    HW215805   7.377   2.109   1.651 -0.0015  1.0986 -0.8551
 4695SOL     OW15806   6.206   9.582   2.040  0.1540 -0.0120 -0.4461
 4695SOL    HW115807   6.286   9.600   2.089 -0.4071  0.5737  0.2818
 4695SOL    HW215808   6.228   9.604   1.950  0.5618  0.9982 -0.1184
 4696SOL     OW15809   7.862   2.088   6.356  0.5015  0.2155 -0.0275
 4696SOL    HW115810   7.797   2.158   6.364  0.5277  0.3989 -1.2435
 4696SOL    HW215811   7.817   2.010   6.387 -0.2079  0.3949 -0.5858
 4697SOL     OW15812   8.783   5.640   6.159  0.4252  0.2320  0.0432
 4697SOL    HW115813   8.844   5.707   6.127  1.1679  0.1132  1.1729
 4697SOL    HW215814   8.831   5.595   6.229 -0.8644 -0.0374  0.7769
 4698SOL     OW15815   3.776   7.359   3.704  0.2289  0.0921  0.1603
 4698SOL    HW115816   3.725   7.440   3.707 -0.1862 -0.0951 -1.1287
 4698SOL    HW215817   3.855   7.377   3.755  0.2605  1.3893 -0.3344
 4699SOL     OW15818   3.263   5.337   3.882 -0.0955 -0.0571  0.7781
 4699SOL    HW115819   3.249   5.269   3.948 -0.9129 -1.8849 -1.1539
 4699SOL    HW215820   3.354   5.326   3.856 -0.2850 -0.5830  0.3178
 4700SOL     OW15821   0.472   3.876   8.974  0.2513 -0.2126 -0.2032
 4700SOL    HW115822   0.520   3.956   8.955  0.1047 -0.3724 -1.3252
 4700SOL    HW215823   0.380   3.903   8.975  0.1963 -0.3610 -0.6512
 4701SOL     OW15824   1.841   2.035   5.592 -0.1437  0.3941  0.3954
 4701SOL    HW115825   1.770   2.004   5.535  0.8440 -0.0515 -0.6407
 4701SOL    HW215826   1.879   2.108   5.543  0.4412  0.2872  0.6858
 4702SOL     OW15827   2.112   9.511   7.600  0.0525 -0.1934 -0.1603
 4702SOL    HW115828   2.047   9.520   7.670  0.2320 -1.1622  0.1467
 4702SOL    HW215829   2.065   9.533   7.520 -0.6826 -0.9276  0.0506
 4703SOL     OW15830   2.744   9.424   3.517 -0.4907  0.7605  0.4809
 4703SOL    HW115831   2.780   9.405   3.430 -3.3826  0.8853 -0.8554
 4703SOL    HW215832   2.742   9.519   3.522 -0.2480  0.7534  0.7414
 4704SOL     OW15833   1.569   8.287   2.235 -0.0708  0.1177  0.0069
 4704SOL    HW115834   1.538   8.197   2.232 -2.0786  0.6993  0.9786
 4704SOL    HW215835   1.651   8.284   2.283  0.4767 -1.2998 -0.9661
 4705SOL     OW15836   5.332   7.964   4.524 -0.0057  0.1702 -0.1512
 4705SOL    HW115837   5.311   8.009   4.606 -1.2786 -0.2408 -0.2397
 4705SOL    HW215838   5.358   7.876   4.551  0.9708  0.4559 -0.1009
 4706SOL     OW15839   1.339   2.471   6.168  1.0571 -0.0325  0.8226
 4706SOL    HW115840   1.331   2.465   6.263 -0.1433  1.9631  0.8975
 4706SOL    HW215841   1.377   2.558   6.153 -0.9832  0.6894 -0.5618
 4707SOL     OW15842   0.297   7.720   1.166  0.1558 -0.1451 -0.0010
 4707SOL    HW115843   0.308   7.702   1.259  1.5361 -2.4197 -0.5187
 4707SOL    HW215844   0.218   7.774   1.161  0.7025  1.0330  2.5497
 4708SOL     OW15845   5.193   4.488   5.518 -0.3192  0.0580  0.4210
 4708SOL    HW115846   5.265   4.545   5.490 -0.8651  0.4239 -0.2525
 4708SOL    HW215847   5.117   4.546   5.526 -0.1788  0.0307  2.8757
 4709SOL     OW15848   1.731   3.991   5.137 -0.5283  0.6618  0.4579
 4709SOL    HW115849   1.643   4.027   5.128  0.0637  2.1944  0.4821
 4709SOL    HW215850   1.723   3.899   5.108 -2.1666  0.6966  0.7305
 4710SOL     OW15851   6.396   7.107   7.505 -0.1851 -0.4484  0.4011
 4710SOL    HW115852   6.472   7.147   7.464  0.1551 -1.1305  0.3504
 4710SOL    HW215853   6.328   7.110   7.438  0.3576 -1.5193 -0.2270
 4711SOL     OW15854   0.891   8.183   8.397  0.0305 -0.3120 -0.7247
 4711SOL    HW115855   0.890   8.250   8.328 -0.4748  0.2181 -0.2203
 4711SOL    HW215856   0.852   8.106   8.356 -2.5309  0.7028 -0.3792
 4712SOL     OW15857   1.752   6.378   5.213 -0.2035 -0.0411 -0.3224
 4712SOL    HW115858   1.693   6.410   5.145  0.5557  1.2700 -0.3818
 4712SOL    HW215859   1.834   6.360   5.168 -0.2957 -1.1333 -0.0981
 4713SOL     OW15860   8.137   2.408   4.308 -0.2636 -0.0678  0.2649
 4713SOL    HW115861   8.145   2.497   4.275  0.0085  0.8599  2.6853
 4713SOL    HW215862   8.050   2.380   4.278 -0.4068  1.0403 -0.4111
 4714SOL     OW15863   4.732   0.137   0.800 -0.6150  0.6631 -0.2946
 4714SOL    HW115864   4.732   0.233   0.802  0.3880  0.6679  0.4132
 4714SOL    HW215865   4.648   0.112   0.838 -0.2802  1.2658  0.8976
 4715SOL     OW15866   6.011   2.789   7.150 -0.1882  0.0450  0.2422
 4715SOL    HW115867   5.992   2.707   7.105  0.8793 -0.1272  0.0666
 4715SOL    HW215868   6.085   2.769   7.207  0.6852  1.0864 -0.4731
 4716SOL     OW15869   6.942   8.291   7.223  0.2584  0.5291 -0.6055
 4716SOL    HW115870   6.993   8.260   7.148  2.3592  0.8654  0.6060
 4716SOL    HW215871   6.932   8.385   7.209 -2.5804  0.1182 -2.2235
 4717SOL     OW15872   9.192   0.195   7.292  0.1013 -0.0085  0.0028
 4717SOL    HW115873   9.262   0.170   7.232  1.1752  1.8487  0.4179
 4717SOL    HW215874   9.225   0.172   7.379  0.3523  1.1389  0.2289
 4718SOL     OW15875   3.953   3.148   2.568  0.3365 -0.1349  0.7449
 4718SOL    HW115876   3.889   3.168   2.637 -0.0241 -1.1931  0.7374
 4718SOL    HW215877   4.035   3.185   2.600  0.0847 -0.2468  1.5614
 4719SOL     OW15878   1.230   0.924   4.331 -0.2213  0.3102  0.2818
 4719SOL    HW115879   1.145   0.907   4.373  0.2026 -1.3486  0.4984
 4719SOL    HW215880   1.284   0.960   4.402 -0.6962  1.3173  0.1587
 4720SOL     OW15881   8.953   5.501   4.536 -0.2822 -0.2428  0.1084
 4720SOL    HW115882   8.962   5.461   4.449  2.1861  0.7243 -0.1647
 4720SOL    HW215883   8.902   5.581   4.520  0.3213  0.0309 -0.4959
 4721SOL     OW15884   3.086   8.462   0.710  0.1163 -0.2559 -0.0761
 4721SOL    HW115885   3.048   8.420   0.787 -0.7561 -0.6148 -0.6894
 4721SOL    HW215886   3.093   8.554   0.733 -2.8661  0.1792 -0.5800
 4722SOL     OW15887   8.767   1.677   5.837 -0.0322  0.4998  0.9943
 4722SOL    HW115888   8.741   1.598   5.885 -0.3166  0.2182  0.3880
 4722SOL    HW215889   8.781   1.743   5.905 -0.1536  0.0311  1.4823
 4723SOL     OW15890   1.730   1.599   3.247  0.2273 -0.2465  0.1522
 4723SOL    HW115891   1.692   1.584   3.160  1.1416  0.0693 -0.3079
 4723SOL    HW215892   1.676   1.668   3.285 -0.1374 -0.3396 -0.1912
 4724SOL     OW15893   8.821   3.851   4.616  0.1419 -0.0106 -0.3860
 4724SOL    HW115894   8.882   3.791   4.660  0.8336  0.3276 -0.8587
 4724SOL    HW215895   8.779   3.797   4.549  1.6184  0.2788 -1.5953
 4725SOL     OW15896   5.607   4.536   4.442  0.0316  0.0265  0.1520
 4725SOL    HW115897   5.674   4.467   4.439 -1.4917 -1.6190  1.7999
 4725SOL    HW215898   5.568   4.534   4.355  0.7143 -0.4609 -0.1552
 4726SOL     OW15899   7.867   3.876   0.053 -0.7640  0.3346 -0.0185
 4726SOL    HW115900   7.889   3.941  -0.014  1.3442 -1.3924 -1.1310
 4726SOL    HW215901   7.926   3.896   0.126  1.0627 -1.1970 -0.9923
 4727SOL     OW15902   5.945   3.321   2.172 -0.1371  0.3142 -0.5597
 4727SOL    HW115903   5.863   3.343   2.216  0.0937 -1.1948  0.6939
 4727SOL    HW215904   6.008   3.385   2.205  0.2146 -1.2257  1.9816
 4728SOL     OW15905   8.174   0.624   8.293  0.3061  0.3975  0.2437
 4728SOL    HW115906   8.189   0.656   8.382  0.0597  0.9007  0.1094
 4728SOL    HW215907   8.222   0.541   8.289  2.2681  1.4547  0.1442
 4729SOL     OW15908   4.684   9.641   4.352 -0.5552  0.0034  0.0565
 4729SOL    HW115909   4.694   9.549   4.328 -1.6309 -0.4052  1.0823
 4729SOL    HW215910   4.637   9.680   4.278 -2.9837 -1.0257  0.9372
 4730SOL     OW15911   8.026   8.061   5.908 -0.0905  0.0445  0.2041
 4730SOL    HW115912   7.941   8.098   5.883 -0.0542 -0.9524 -1.5510
 4730SOL    HW215913   8.087   8.134   5.898 -0.2360 -0.0462 -1.8886
 4731SOL     OW15914   2.951   1.719   3.767 -1.0802 -0.4032  0.1964
 4731SOL    HW115915   2.913   1.784   3.825 -2.1571 -0.7361 -0.1028
 4731SOL    HW215916   3.037   1.753   3.745 -0.4007 -0.5351  2.4201
 4732SOL     OW15917   9.267   8.330   0.432  0.4410  0.5454  0.3092
 4732SOL    HW115918   9.259   8.417   0.393  0.8764  0.6182  0.3820
 4732SOL    HW215919   9.176   8.301   0.445  0.2811  1.4594  1.3465
 4733SOL     OW15920   0.621   3.980   1.103  0.5626 -0.4417  0.2941
 4733SOL    HW115921   0.631   3.889   1.077 -1.7525 -0.5836 -0.3252
 4733SOL    HW215922   0.567   4.019   1.034  0.7272  1.1659  1.0194
 4734SOL     OW15923   3.227   3.859   4.604 -0.4582  0.4940  0.1734
 4734SOL    HW115924   3.160   3.794   4.583  0.4949 -0.1566 -0.9297
 4734SOL    HW215925   3.203   3.935   4.551  0.1298 -0.0241 -0.8432
 4735SOL     OW15926   2.090   7.820   9.114 -0.1505  0.3780 -0.6399
 4735SOL    HW115927   2.065   7.894   9.059 -1.2200 -0.9068 -1.9885
 4735SOL    HW215928   2.156   7.773   9.063 -0.8482 -0.6050 -0.6779
 4736SOL     OW15929   1.324   2.616   4.867 -0.0618 -0.1534  0.2366
 4736SOL    HW115930   1.407   2.663   4.858 -0.4807  0.7077  0.7246
 4736SOL    HW215931   1.339   2.532   4.825  1.7217 -0.8204  2.0502
 4737SOL     OW15932   1.374   4.565   5.989 -0.2992 -0.5332 -0.1818
 4737SOL    HW115933   1.339   4.649   6.018 -0.7267 -0.8669  0.3091
 4737SOL    HW215934   1.301   4.524   5.943  0.3507 -0.0472 -1.6947
 4738SOL     OW15935   5.026   3.045   5.090  0.3744 -0.1771 -0.0395
 4738SOL    HW115936   4.993   3.063   5.002  1.3476 -0.8488 -0.5670
 4738SOL    HW215937   4.968   3.094   5.148  0.2494  0.9935 -1.1060
 4739SOL     OW15938   6.981   2.873   8.488 -0.2914 -0.3163  0.6119
 4739SOL    HW115939   7.067   2.916   8.478 -0.8333  0.2750 -2.4898
 4739SOL    HW215940   7.000   2.780   8.483  0.0782 -0.1859 -2.7316
 4740SOL     OW15941   2.650   1.167   7.827  0.1255 -0.3300  0.8925
 4740SOL    HW115942   2.677   1.199   7.913  0.1192 -0.5525  0.9791
 4740SOL    HW215943   2.731   1.133   7.788 -0.1514 -1.7956  1.4991
 4741SOL     OW15944   7.975   8.875   1.909  0.1985  0.0160  0.0693
 4741SOL    HW115945   8.031   8.909   1.840 -0.8900  1.8272  0.0245
 4741SOL    HW215946   7.922   8.807   1.866  1.4900 -0.8982 -0.1513
 4742SOL     OW15947   9.123   5.939   1.518  0.3940 -0.3121 -0.2186
 4742SOL    HW115948   9.082   5.990   1.587  1.2547 -1.4527  1.1788
 4742SOL    HW215949   9.190   5.997   1.481  0.2656  0.1324  0.2465
 4743SOL     OW15950   1.090   6.188   5.093  0.4304 -0.4221  0.2044
 4743SOL    HW115951   1.102   6.281   5.071 -0.8089 -0.4024 -0.4576
 4743SOL    HW215952   1.135   6.142   5.022  1.3099 -0.3407  0.6958
 4744SOL     OW15953   0.435   9.190   6.571  0.2985 -0.8745  0.0430
 4744SOL    HW115954   0.351   9.219   6.533  1.0167  0.2273 -0.7608
 4744SOL    HW215955   0.416   9.176   6.664 -0.8181 -0.8320 -0.1653
 4745SOL     OW15956   1.261   7.078   6.235  0.0204 -0.9348 -0.0777
 4745SOL    HW115957   1.259   7.101   6.142  0.7555  0.3786  0.2105
 4745SOL    HW215958   1.353   7.057   6.252  0.2415  0.5060  0.7109
 4746SOL     OW15959   3.729   0.176   1.292 -0.1821 -0.5134  0.4462
 4746SOL    HW115960   3.652   0.130   1.259 -0.3718 -0.1172  0.3360
 4746SOL    HW215961   3.724   0.263   1.252 -0.3911 -0.0411  1.4711
 4747SOL     OW15962   1.881   8.992   6.074  0.2417  0.4993  0.3216
 4747SOL    HW115963   1.837   8.978   5.990 -1.0625 -0.2288  1.0916
 4747SOL    HW215964   1.966   9.030   6.050 -0.8391  2.1526 -1.2242
 4748SOL     OW15965   0.986   6.373   3.628 -0.4137  0.0215  0.4053
 4748SOL    HW115966   0.976   6.280   3.647 -0.4148 -0.3601 -1.3427
 4748SOL    HW215967   0.945   6.417   3.703 -3.0400 -1.4131 -0.0669
 4749SOL     OW15968   2.656   5.567   7.779 -0.0260  0.2405 -0.4147
 4749SOL    HW115969   2.614   5.509   7.842  2.5809 -2.5890 -1.0501
 4749SOL    HW215970   2.617   5.542   7.695 -0.1086  0.6140 -0.4874
 4750SOL     OW15971   4.994   0.701   7.681 -0.1233 -0.3614 -0.0429
 4750SOL    HW115972   5.025   0.620   7.640 -2.0457 -0.1418 -2.1375
 4750SOL    HW215973   5.023   0.770   7.621 -1.4492  0.1674 -0.0937
 4751SOL     OW15974   0.480   3.126   7.945 -0.0513  0.0420 -0.3225
 4751SOL    HW115975   0.418   3.066   7.988 -0.6395  0.6549 -0.2856
 4751SOL    HW215976   0.424   3.194   7.907  0.6786  1.8193  1.5767
 4752SOL     OW15977   3.255   3.878   8.226 -0.2606  0.4502 -0.4216
 4752SOL    HW115978   3.191   3.848   8.161 -1.1211  1.3440 -0.0128
 4752SOL    HW215979   3.274   3.968   8.200  1.7546 -0.1553 -1.2208
 4753SOL     OW15980   9.637   0.658   7.907  0.3598  0.2466 -0.2687
 4753SOL    HW115981   9.702   0.711   7.861  1.5992 -0.1923  0.8961
 4753SOL    HW215982   9.688   0.610   7.973 -0.9252 -1.2532 -0.2981
 4754SOL     OW15983   6.112   8.696   3.332  0.3225 -0.0162 -0.1845
 4754SOL    HW115984   6.092   8.698   3.239 -1.7226  2.6946  0.1758
 4754SOL    HW215985   6.151   8.782   3.349 -3.1471  1.3205  2.0507
 4755SOL     OW15986   5.050   7.205   9.642 -0.3405 -0.0303 -0.2008
 4755SOL    HW115987   5.080   7.231   9.555 -0.1217 -0.3273 -0.2122
 4755SOL    HW215988   4.968   7.254   9.654 -0.9190 -0.7565 -0.9900
 4756SOL     OW15989   6.921   0.077   5.997  0.3270 -0.4235  0.3723
 4756SOL    HW115990   6.902   0.164   6.031 -0.7507 -0.5536  0.1172
 4756SOL    HW215991   6.879   0.017   6.059 -1.4846 -0.6749 -1.0131
 4757SOL     OW15992   7.354   0.828   4.293 -0.3836  0.2358 -0.2087
 4757SOL    HW115993   7.305   0.852   4.215 -0.5799  1.1848  0.1920
 4757SOL    HW215994   7.413   0.902   4.308 -0.4577  0.1411  0.6243
 4758SOL     OW15995   3.527   2.981   6.132 -0.3419  0.4113  0.1382
 4758SOL    HW115996   3.546   3.070   6.100  0.2189 -0.6319 -2.6907
 4758SOL    HW215997   3.589   2.968   6.204  0.4071  1.8822 -0.1989
 4759SOL     OW15998   0.081   9.532   0.674  0.5139  0.3531  0.4581
 4759SOL    HW115999   0.003   9.577   0.641  0.5841 -0.3122 -0.6585
 4759SOL    HW216000   0.125   9.597   0.729 -0.1913  1.1259  0.1352
 4760SOL     OW16001   4.107   1.685   7.264 -1.0119  0.0374 -0.1714
 4760SOL    HW116002   4.094   1.738   7.342  0.0742 -0.1386  0.1425
 4760SOL    HW216003   4.124   1.597   7.296  0.1083  0.0971 -0.5710
 4761SOL     OW16004   4.327   8.201   1.824 -0.7445  0.1539 -0.9893
 4761SOL    HW116005   4.285   8.271   1.875 -0.1986 -0.0632 -0.2189
 4761SOL    HW216006   4.419   8.207   1.848 -0.4168  0.2299 -2.1913
 4762SOL     OW16007   7.029   8.836   7.486  0.4301  0.2576  0.4076
 4762SOL    HW116008   6.994   8.750   7.461  1.3574  0.2370 -0.9260
 4762SOL    HW216009   7.022   8.888   7.406 -1.9944  2.1100  1.6962
 4763SOL     OW16010   5.916   6.347   4.057 -0.7701 -0.2786  0.4779
 4763SOL    HW116011   5.864   6.381   4.130  1.1727  1.1282  1.3052
 4763SOL    HW216012   5.927   6.254   4.077  0.7002  0.2696  2.7402
 4764SOL     OW16013   9.677   5.343   9.702 -0.4202 -0.3788  0.2972
 4764SOL    HW116014   9.675   5.265   9.757 -1.7070 -0.4030  0.2282
 4764SOL    HW216015   9.704   5.413   9.761 -0.6536 -0.6174  0.6873
 4765SOL     OW16016   2.321   0.885   5.060  0.4732 -0.0473  0.4019
 4765SOL    HW116017   2.412   0.881   5.090  0.2111  2.0098  1.6790
 4765SOL    HW216018   2.269   0.877   5.140 -0.4166  0.4428 -0.1079
 4766SOL     OW16019   4.338   4.849   3.539 -0.0450 -0.5498 -0.0400
 4766SOL    HW116020   4.351   4.852   3.634  2.0505  0.4113 -0.3022
 4766SOL    HW216021   4.382   4.928   3.506  0.6960 -1.6960 -1.9628
 4767SOL     OW16022   7.357   4.084   1.096  0.3062  0.0767 -0.4562
 4767SOL    HW116023   7.406   4.002   1.091 -0.6040 -0.5578  0.5480
 4767SOL    HW216024   7.272   4.059   1.132 -0.1798  1.3885 -0.6295
 4768SOL     OW16025   4.744   2.533   1.075  0.0752 -0.6065  0.2437
 4768SOL    HW116026   4.717   2.449   1.038 -0.2698 -0.5693  0.4086
 4768SOL    HW216027   4.694   2.598   1.027  0.8772 -0.4345 -0.3889
 4769SOL     OW16028   5.596   0.119   4.441  0.2343  0.4594 -0.2853
 4769SOL    HW116029   5.521   0.091   4.493 -0.5459  1.9237 -0.5567
 4769SOL    HW216030   5.597   0.215   4.449  0.0035  0.7829 -3.0016
 4770SOL     OW16031   0.457   5.387   7.854 -0.1681 -0.4186  0.8713
 4770SOL    HW116032   0.526   5.431   7.806 -0.4351  0.1008  0.9549
 4770SOL    HW216033   0.454   5.432   7.939  1.7374 -2.6788  2.2611
 4771SOL     OW16034   0.466   6.923   1.078  0.3435  0.1822  0.3146
 4771SOL    HW116035   0.547   6.941   1.125 -0.1275  1.4812  0.6815
 4771SOL    HW216036   0.459   6.994   1.014 -0.0678 -0.4074 -0.3103
 4772SOL     OW16037   8.506   0.918   4.494 -0.0276  0.9663 -0.3423
 4772SOL    HW116038   8.572   0.849   4.500  0.5232  1.5360  0.3469
 4772SOL    HW216039   8.519   0.971   4.573 -1.0501  1.3246 -0.3959
 4773SOL     OW16040   4.320   3.065   3.671  0.1899  0.6860 -0.1315
 4773SOL    HW116041   4.246   3.101   3.721  0.7108 -2.2795  3.1687
 4773SOL    HW216042   4.280   3.012   3.603 -0.6845  0.9001  0.2033
 4774SOL     OW16043   1.589   8.615   4.585  0.1317 -0.5876 -0.7027
 4774SOL    HW116044   1.618   8.524   4.582 -1.3889 -1.1224  0.0177
 4774SOL    HW216045   1.590   8.637   4.679  1.8537  0.6238 -0.9555
 4775SOL     OW16046   4.850   0.221   0.189 -0.0617 -0.8745 -0.0389
 4775SOL    HW116047   4.823   0.233   0.280 -0.3573  1.0675 -0.3360
 4775SOL    HW216048   4.824   0.302   0.145 -1.4537 -2.3986 -2.2607
 4776SOL     OW16049   0.330   1.669   4.803  0.1629 -0.2408 -0.3701
 4776SOL    HW116050   0.244   1.679   4.761  0.4179  2.4293 -0.4502
 4776SOL    HW216051   0.391   1.659   4.731  0.1071 -0.4182 -0.3936
 4777SOL     OW16052   6.713   6.854   3.093  0.6461  0.1763 -0.4187
 4777SOL    HW116053   6.620   6.876   3.090 -0.0889 -2.5089 -0.3040
 4777SOL    HW216054   6.743   6.859   3.002  0.1858  0.3150 -0.5630
 4778SOL     OW16055   4.928   7.830   6.239 -0.0228 -0.3610  0.3844
 4778SOL    HW116056   5.001   7.887   6.264  0.1621 -0.1948 -0.5134
 4778SOL    HW216057   4.969   7.745   6.220  0.2291  0.2072 -1.9200
 4779SOL     OW16058   6.342   5.658   8.965 -0.1921 -0.5777  0.1894
 4779SOL    HW116059   6.273   5.615   9.016  0.1024 -2.2114 -0.7345
 4779SOL    HW216060   6.423   5.636   9.010 -0.2234  2.1276  1.8346
 4780SOL     OW16061   6.064   3.125   1.868  0.5733  0.0635 -0.5149
 4780SOL    HW116062   6.016   3.048   1.899  0.3979  0.6888  0.8104
 4780SOL    HW216063   6.142   3.128   1.923 -0.0431  1.5453  0.3373
 4781SOL     OW16064   7.161   5.931   7.833 -0.0715 -0.4386  0.0515
 4781SOL    HW116065   7.067   5.948   7.838  0.2048  1.4370 -0.3748
 4781SOL    HW216066   7.171   5.874   7.757 -0.9019 -1.0109  0.3668
 4782SOL     OW16067   4.647   5.901   8.871 -0.6265  0.3204 -0.3580
 4782SOL    HW116068   4.580   5.906   8.803  0.2951 -0.8810 -1.4258
 4782SOL    HW216069   4.680   5.990   8.879 -2.5081  1.0011  0.4040
 4783SOL     OW16070   4.364   8.025   7.057  0.5127 -0.1533 -0.6818
 4783SOL    HW116071   4.319   7.950   7.096  1.9834 -0.5273  0.3848
 4783SOL    HW216072   4.294   8.089   7.042 -0.3713 -0.6181  1.1184
 4784SOL     OW16073   3.367   5.584   7.022  0.0277  0.3444 -0.4748
 4784SOL    HW116074   3.405   5.609   7.106  0.7735 -1.9720 -0.0554
 4784SOL    HW216075   3.286   5.634   7.017  1.9118  3.6468 -0.3186
 4785SOL     OW16076   3.760   5.224   4.415 -0.2053  0.6164  0.2954
 4785SOL    HW116077   3.715   5.168   4.478 -0.9361  1.4883  0.5748
 4785SOL    HW216078   3.725   5.197   4.330  0.0248  0.1321  0.3507
 4786SOL     OW16079   6.875   4.851   5.193  0.1914  0.1580  0.1242
 4786SOL    HW116080   6.895   4.857   5.099  1.6612 -0.8283  0.3298
 4786SOL    HW216081   6.921   4.925   5.232  0.4156 -0.0052  0.1729
 4787SOL     OW16082   6.658   6.501   3.544 -0.0084 -0.1337 -0.1365
 4787SOL    HW116083   6.600   6.571   3.513  0.2291 -0.4848 -1.4548
 4787SOL    HW216084   6.740   6.516   3.498 -0.1368 -1.6078 -0.9297
 4788SOL     OW16085   1.191   2.379   8.107  0.3095  0.1876 -0.5401
 4788SOL    HW116086   1.276   2.335   8.106  0.4126  0.3463  0.3652
 4788SOL    HW216087   1.197   2.441   8.179 -0.4404  0.4797 -0.7203
 4789SOL     OW16088   2.742   1.903   8.093  0.6473  0.2360 -0.2021
 4789SOL    HW116089   2.806   1.909   8.164  0.6350  2.0482 -0.3049
 4789SOL    HW216090   2.692   1.984   8.098 -0.9176 -0.6335 -0.8456
 4790SOL     OW16091   4.105   0.323   2.104 -0.4581  0.3674  0.1852
 4790SOL    HW116092   4.163   0.247   2.109  0.5578  1.0549 -0.7858
 4790SOL    HW216093   4.021   0.290   2.135  0.1955 -0.9041  0.7092
 4791SOL     OW16094   4.369   2.581   5.803 -0.4319  0.0424 -0.1362
 4791SOL    HW116095   4.274   2.576   5.809 -0.4221 -3.0498 -0.7817
 4791SOL    HW216096   4.389   2.552   5.714  1.1392  1.3580 -0.2637
 4792SOL     OW16097   4.090   0.809   4.585  0.2383 -0.2485  0.1010
 4792SOL    HW116098   4.155   0.877   4.603  1.7380 -2.2191  2.9507
 4792SOL    HW216099   4.006   0.851   4.598  0.9723  1.7679 -1.2454
 4793SOL     OW16100   2.157   5.451   7.160  0.4858 -0.2955 -0.0157
 4793SOL    HW116101   2.186   5.522   7.217  1.5182 -1.4997  1.0234
 4793SOL    HW216102   2.110   5.495   7.089  0.5727  1.3657  0.9030
 4794SOL     OW16103   4.297   3.924   0.777 -0.6507  0.2455 -0.2067
 4794SOL    HW116104   4.316   3.872   0.854  0.1400 -1.7828 -1.6918
 4794SOL    HW216105   4.376   3.919   0.724 -2.1185 -0.8457 -2.4456
 4795SOL     OW16106   8.963   4.796   6.551 -0.1687 -0.5414  0.4542
 4795SOL    HW116107   9.009   4.730   6.499 -0.4459 -0.4287  0.0634
 4795SOL    HW216108   8.872   4.765   6.554 -0.3998  0.0697 -0.1376
 4796SOL     OW16109   6.564   2.246   6.005  0.2816  0.1716  0.0089
 4796SOL    HW116110   6.544   2.317   5.945 -2.3160 -1.4339 -1.2057
 4796SOL    HW216111   6.611   2.182   5.952  1.3642  0.3616  0.7211
 4797SOL     OW16112   2.302   0.303   3.403 -0.1754  0.3796  0.6455
 4797SOL    HW116113   2.238   0.234   3.383 -0.5780  0.9859 -0.2172
 4797SOL    HW216114   2.280   0.374   3.343  1.6386  0.4107 -0.0233
 4798SOL     OW16115   4.964   7.745   5.948 -0.3367  0.0313 -0.1301
 4798SOL    HW116116   4.881   7.788   5.967  0.6412  1.4876  1.0454
 4798SOL    HW216117   5.026   7.782   6.010  1.7263  0.6438 -2.3725
 4799SOL     OW16118   7.687   3.288   2.543 -0.3715  0.3708 -0.5403
 4799SOL    HW116119   7.627   3.250   2.479 -0.3808 -1.9572  0.7358
 4799SOL    HW216120   7.632   3.304   2.620  0.0049  1.3637 -0.4671
 4800SOL     OW16121   7.599   6.030   5.016 -0.3158  0.1212 -0.5745
 4800SOL    HW116122   7.624   5.937   5.024 -0.4919  0.1194  0.0874
 4800SOL    HW216123   7.541   6.044   5.091 -0.9546  0.5546 -1.1456
 4801SOL     OW16124   9.164   3.431   9.668 -0.6458  0.1439  0.5636
 4801SOL    HW116125   9.238   3.438   9.728 -0.4653 -0.4016  0.4147
 4801SOL    HW216126   9.091   3.473   9.713 -0.4384 -0.0054  1.0368
 4802SOL     OW16127   6.347   0.868   5.650  0.4978  0.5865 -0.3940
 4802SOL    HW116128   6.262   0.900   5.678  0.6068  0.9456 -0.4712
 4802SOL    HW216129   6.330   0.780   5.616  0.2610  0.4182  0.1622
 4803SOL     OW16130   4.463   0.649   7.607  0.2727 -0.3686 -0.3478
 4803SOL    HW116131   4.507   0.604   7.535 -1.5946  0.2134 -1.9306
 4803SOL    HW216132   4.478   0.742   7.590 -0.7119 -0.1998 -0.3776
 4804SOL     OW16133   1.038   0.704   6.827 -0.0442  0.6959 -0.3614
 4804SOL    HW116134   0.974   0.766   6.863 -0.3064  0.2455 -0.0415
 4804SOL    HW216135   0.987   0.643   6.775  0.1045  0.2799 -0.0317
 4805SOL     OW16136   6.350   7.919   8.305 -0.4485  0.0538 -0.6171
 4805SOL    HW116137   6.277   7.967   8.264 -1.6783 -3.6090 -3.1959
 4805SOL    HW216138   6.422   7.931   8.244 -0.4434 -0.5112 -0.7183
 4806SOL     OW16139   3.174   8.176   8.979 -0.1868 -0.0075 -0.0701
 4806SOL    HW116140   3.265   8.205   8.987 -0.2897  0.1350  0.6014
 4806SOL    HW216141   3.130   8.247   8.932  0.2498 -0.4956 -1.2452
 4807SOL     OW16142   0.953   3.789   1.963 -0.2991  0.0527  0.6048
 4807SOL    HW116143   0.941   3.857   1.898 -1.1141 -0.0482  0.6332
 4807SOL    HW216144   0.986   3.714   1.914  0.9568  0.5682  0.6334
 4808SOL     OW16145   6.461   6.175   5.222  0.3497 -0.1460  0.1008
 4808SOL    HW116146   6.496   6.189   5.134 -0.1997  1.1105  0.0682
 4808SOL    HW216147   6.507   6.238   5.277 -1.6971  1.4643  0.0756
 4809SOL     OW16148   6.425   6.005   9.079  0.1812  0.2673 -0.7167
 4809SOL    HW116149   6.442   6.038   8.991  0.1197 -0.1103 -0.8719
 4809SOL    HW216150   6.337   5.968   9.075  0.2954 -0.0259 -0.5810
 4810SOL     OW16151   0.150   3.726   7.742  0.7295 -0.4030  0.7080
 4810SOL    HW116152   0.209   3.698   7.812  2.6470 -1.0233 -1.0660
 4810SOL    HW216153   0.205   3.730   7.664 -1.0019  1.7267 -0.5106
 4811SOL     OW16154   7.228   9.664   0.648  0.0112  0.3446  0.0832
 4811SOL    HW116155   7.266   9.621   0.724  0.6184 -0.9368 -0.8961
 4811SOL    HW216156   7.154   9.714   0.682 -0.8252 -1.6079  1.2891
 4812SOL     OW16157   7.170   3.304   0.062  0.0155  0.5273 -0.3130
 4812SOL    HW116158   7.136   3.393   0.077  1.8156  1.1649  0.2770
 4812SOL    HW216159   7.181   3.268   0.150 -0.1902 -0.0811 -0.5375
 4813SOL     OW16160   3.168   0.404   0.869  0.0509 -0.0129 -0.8145
 4813SOL    HW116161   3.109   0.437   0.937 -0.8395 -0.8579 -1.1528
 4813SOL    HW216162   3.245   0.374   0.916 -0.4699 -0.4003 -0.1948
 4814SOL     OW16163   1.021   4.167   9.570  0.0810 -0.6649 -0.2544
 4814SOL    HW116164   1.026   4.257   9.537  0.1851 -0.4759  0.2753
 4814SOL    HW216165   1.107   4.150   9.608 -0.3308 -0.5508  0.7634
 4815SOL     OW16166   2.857   4.046   0.126 -0.1195 -0.0560 -0.1223
 4815SOL    HW116167   2.811   4.051   0.210  0.9929  0.5998  0.4788
 4815SOL    HW216168   2.947   4.026   0.150 -0.0213 -1.0126 -1.2550
 4816SOL     OW16169   3.441   3.303   5.253  0.1949 -0.1865  0.2907
 4816SOL    HW116170   3.351   3.328   5.273  0.2052  0.6456 -0.6255
 4816SOL    HW216171   3.492   3.383   5.265  0.5374 -0.2166 -0.8245
 4817SOL     OW16172   1.176   5.972   5.708 -0.2784 -0.2926 -0.3020
 4817SOL    HW116173   1.175   5.965   5.803 -1.7924  0.3011 -0.2472
 4817SOL    HW216174   1.169   5.882   5.677 -0.3211 -0.4475  0.1496
 4818SOL     OW16175   0.937   4.266   8.305  0.9508  0.0374 -0.2480
 4818SOL    HW116176   0.932   4.175   8.276 -1.0330 -0.4657  1.4052
 4818SOL    HW216177   1.030   4.282   8.320  1.4263 -1.4185 -1.4270
 4819SOL     OW16178   7.668   9.483   8.914 -0.6141  0.1669 -0.1151
 4819SOL    HW116179   7.735   9.525   8.861 -1.5187  0.3985 -1.1121
 4819SOL    HW216180   7.702   9.486   9.004  0.1503  1.3625 -0.4330
 4820SOL     OW16181   6.758   3.412   4.787 -0.2389  0.3519 -0.2755
 4820SOL    HW116182   6.774   3.421   4.881  1.2246  1.7794 -0.6138
 4820SOL    HW216183   6.718   3.495   4.761 -3.8611 -1.2622 -0.3935
 4821SOL     OW16184   4.481   6.373   7.009 -0.1002  0.1831 -0.2404
 4821SOL    HW116185   4.534   6.439   7.053  1.4755 -0.0102 -1.7255
 4821SOL    HW216186   4.488   6.394   6.916 -2.3131 -0.1398 -0.5301
 4822SOL     OW16187   2.414   4.303   1.675  0.0219 -0.1713 -0.4195
 4822SOL    HW116188   2.358   4.234   1.639  0.0995 -1.6372  2.0819
 4822SOL    HW216189   2.360   4.382   1.669 -1.1263 -0.9597 -0.8852
 4823SOL     OW16190   7.187   7.730   8.354  0.4617  0.2839  1.1135
 4823SOL    HW116191   7.101   7.693   8.375 -0.1909  0.2696 -1.2913
 4823SOL    HW216192   7.245   7.654   8.349  0.4832  0.2270  2.0592
 4824SOL     OW16193   2.206   1.087   4.910 -0.2324  0.5674  0.0412
 4824SOL    HW116194   2.250   1.017   4.957  1.1773  0.8039 -0.8585
 4824SOL    HW216195   2.140   1.043   4.856  1.1668 -0.2038 -1.1164
 4825SOL     OW16196   1.728   3.159   3.384 -0.5190 -0.1869 -0.0388
 4825SOL    HW116197   1.820   3.134   3.383 -0.7671 -1.5060  2.4811
 4825SOL    HW216198   1.684   3.090   3.334 -0.1813  0.4157 -1.1984
 4826SOL     OW16199   0.491   6.277   4.151  0.0635  0.2873  0.3743
 4826SOL    HW116200   0.432   6.348   4.174  0.2753  0.4630  0.3813
 4826SOL    HW216201   0.547   6.314   4.083 -0.3412 -0.1227 -0.1866
 4827SOL     OW16202   2.905   6.454   7.307  0.4839 -0.7505 -0.1528
 4827SOL    HW116203   2.990   6.439   7.264 -0.2931 -1.3505 -1.5367
 4827SOL    HW216204   2.913   6.540   7.346  1.5531 -0.5648 -0.7395
 4828SOL     OW16205   0.909   4.400   5.904  0.0407 -0.4872  0.3571
 4828SOL    HW116206   0.837   4.350   5.941 -1.3751  2.6759  2.3113
 4828SOL    HW216207   0.984   4.383   5.961 -0.3508 -0.5534  0.8464
 4829SOL     OW16208   9.007   8.981   1.441  0.0344  0.2155  0.0690
 4829SOL    HW116209   9.078   8.981   1.505 -0.6015 -0.4121  0.7855
 4829SOL    HW216210   8.964   9.066   1.453  0.0774  0.2071  0.2851
 4830SOL     OW16211   2.813   7.797   1.468  0.4293  0.1140  0.1773
 4830SOL    HW116212   2.732   7.827   1.510  0.9877  0.9152  0.7174
 4830SOL    HW216213   2.829   7.710   1.505  0.6177  0.5817  1.2508
 4831SOL     OW16214   6.731   0.933   8.338  0.1945  0.2799  0.2808
 4831SOL    HW116215   6.716   0.965   8.249 -0.3917 -0.1319  0.2282
 4831SOL    HW216216   6.644   0.910   8.371  0.4648 -0.0765  0.7657
 4832SOL     OW16217   5.119   9.606   4.441 -0.9258  0.2688  0.3512
 4832SOL    HW116218   5.071   9.687   4.457 -0.7371  0.3895  0.3053
 4832SOL    HW216219   5.163   9.588   4.524 -1.7080 -0.2907  0.6666
 4833SOL     OW16220   4.958   6.968   9.400 -0.4545 -0.1000 -0.3680
 4833SOL    HW116221   5.039   6.949   9.448 -0.3558  1.8266  0.3179
 4833SOL    HW216222   4.888   6.937   9.458 -0.2540 -0.1469 -0.1501
 4834SOL     OW16223   1.806   9.327   6.113  0.2915 -0.4276  0.9102
 4834SOL    HW116224   1.711   9.311   6.114  0.1213  0.4177  2.6915
 4834SOL    HW216225   1.819   9.391   6.043 -0.8249  1.1981  2.1113
 4835SOL     OW16226   9.531   2.023   8.265 -0.5441 -0.3435 -0.9077
 4835SOL    HW116227   9.498   1.945   8.310  0.3495 -0.3170 -0.1748
 4835SOL    HW216228   9.453   2.062   8.224 -1.2712 -0.7768  0.0087
 4836SOL     OW16229   2.985   8.829   4.690 -0.1495  0.3927 -0.1964
 4836SOL    HW116230   2.916   8.799   4.750  0.3935 -0.9346 -0.1877
 4836SOL    HW216231   3.000   8.754   4.632  3.3990 -0.6521  1.7353
 4837SOL     OW16232   3.524   7.920   6.744  0.9371  0.9696  0.0842
 4837SOL    HW116233   3.440   7.966   6.732  1.4111  1.6504 -0.7447
 4837SOL    HW216234   3.576   7.979   6.797  1.5230  1.3817 -0.9193
 4838SOL     OW16235   4.377   0.826   9.452  0.0922  0.6465  0.6637
 4838SOL    HW116236   4.306   0.767   9.478  0.6676 -0.0992  0.5781
 4838SOL    HW216237   4.443   0.815   9.521  0.3092  1.0038  0.5117
 4839SOL     OW16238   8.115   9.226   3.219  0.2340  0.1203 -0.3303
 4839SOL    HW116239   8.183   9.226   3.152  1.1205 -1.4295  0.5314
 4839SOL    HW216240   8.159   9.198   3.299 -1.3321 -0.5431  0.3375
 4840SOL     OW16241   2.744   7.009   8.483  0.0096  0.5224  0.6069
 4840SOL    HW116242   2.819   7.057   8.518  0.4063  0.3916 -0.0562
 4840SOL    HW216243   2.692   7.075   8.437  1.2043  0.1426 -1.3993
 4841SOL     OW16244   1.031   8.188   2.783 -0.4407  0.4579  0.2294
 4841SOL    HW116245   1.069   8.110   2.824 -0.1876  0.8557  0.7660
 4841SOL    HW216246   0.936   8.174   2.787 -0.5083  1.2029  2.4401
 4842SOL     OW16247   6.809   1.444   2.178  0.2426 -0.2916 -0.7855
 4842SOL    HW116248   6.898   1.475   2.198 -0.5024  0.6847  1.3857
 4842SOL    HW216249   6.769   1.516   2.129  0.0404  0.1727  0.0335
 4843SOL     OW16250   6.585   1.222   8.575  0.5421 -0.0032 -0.0614
 4843SOL    HW116251   6.552   1.209   8.664  0.7653  0.3041  0.0700
 4843SOL    HW216252   6.565   1.141   8.530 -2.1540  0.8089 -0.5412
 4844SOL     OW16253   4.643   8.472   3.882  0.0819  0.0292 -0.0820
 4844SOL    HW116254   4.618   8.380   3.880  1.7103 -0.4582  0.6301
 4844SOL    HW216255   4.640   8.499   3.790 -1.6511 -0.3508 -0.1688
 4845SOL     OW16256   2.425   6.873   9.146  0.3591 -0.3454  0.1249
 4845SOL    HW116257   2.392   6.825   9.221  0.4392  0.8558  0.9568
 4845SOL    HW216258   2.348   6.915   9.108  0.4930  0.0488  0.2838
 4846SOL     OW16259   6.430   6.279   1.003  0.0818 -0.6539  0.6561
 4846SOL    HW116260   6.413   6.199   1.053 -0.0151 -0.7680  0.4435
 4846SOL    HW216261   6.494   6.254   0.937 -0.8650 -0.8814 -0.2167
 4847SOL     OW16262   8.725   3.442   6.715  0.6411 -0.5498  0.3055
 4847SOL    HW116263   8.655   3.406   6.661  1.9746 -1.9630 -0.5578
 4847SOL    HW216264   8.719   3.395   6.798  1.2881 -1.5599 -0.2000
 4848SOL     OW16265   6.105   8.460   4.464  0.5674 -0.2014  0.2744
 4848SOL    HW116266   6.194   8.461   4.499  0.3422  0.2901  0.8499
 4848SOL    HW216267   6.091   8.550   4.433  0.5701 -0.4910 -0.5978
 4849SOL     OW16268   6.238   7.380   1.551  0.3183  0.4714  0.0048
 4849SOL    HW116269   6.295   7.348   1.621  0.0681  0.2059  0.0879
 4849SOL    HW216270   6.282   7.353   1.470  0.3972  0.4188  0.0649
 4850SOL     OW16271   7.308   4.170   7.345  0.4810  0.4660  0.8295
 4850SOL    HW116272   7.366   4.130   7.410  0.0512  1.6441  1.9816
 4850SOL    HW216273   7.357   4.244   7.310  0.9364 -0.4986 -0.6602
 4851SOL     OW16274   8.080   1.632   1.641 -0.1467 -0.6130 -0.2667
 4851SOL    HW116275   8.143   1.600   1.705  2.1583  4.2215  0.3625
 4851SOL    HW216276   8.015   1.681   1.692 -0.4093  0.2143 -1.3450
 4852SOL     OW16277   0.063   3.376   7.851 -0.1458  0.5605  0.2856
 4852SOL    HW116278   0.057   3.450   7.911 -0.4615  0.5040  0.3273
 4852SOL    HW216279  -0.021   3.377   7.803  0.6654  1.4866 -1.1954
 4853SOL     OW16280   0.869   7.283   3.602  0.7222  0.4910 -0.3558
 4853SOL    HW116281   0.870   7.358   3.543 -0.2197 -0.5042 -1.7004
 4853SOL    HW216282   0.782   7.245   3.591  0.2918  0.5965  2.1537
 4854SOL     OW16283   3.823   7.596   2.475  0.6333 -0.1717 -0.0363
 4854SOL    HW116284   3.917   7.602   2.459  0.4280  2.1151 -0.6657
 4854SOL    HW216285   3.816   7.577   2.568  1.7003 -2.9663 -0.4327
 4855SOL     OW16286   5.313   5.206   2.672  0.4654  0.1436 -0.8835
 4855SOL    HW116287   5.281   5.116   2.666  0.8018  0.0780 -1.7366
 4855SOL    HW216288   5.234   5.260   2.673  0.2639 -0.1555 -0.4074
 4856SOL     OW16289   4.077   2.802   1.466  0.5481 -0.0871 -0.1535
 4856SOL    HW116290   4.043   2.884   1.501 -2.1670 -0.6848 -1.1821
 4856SOL    HW216291   4.029   2.734   1.513  0.4561 -0.9950 -1.5156
 4857SOL     OW16292   2.032   3.535   8.760 -0.2583  0.3788  0.1567
 4857SOL    HW116293   1.956   3.528   8.703  1.2780  1.8416 -2.2958
 4857SOL    HW216294   2.017   3.614   8.811 -0.2626  0.8438 -0.5528
 4858SOL     OW16295   0.837   5.745   7.816 -0.5638  0.2654  0.3169
 4858SOL    HW116296   0.832   5.766   7.723 -1.3228  0.9791  0.5085
 4858SOL    HW216297   0.930   5.729   7.832 -0.5610 -0.9529 -0.7865
 4859SOL     OW16298   9.702   4.432   2.389  0.5879  0.0709 -0.1672
 4859SOL    HW116299   9.629   4.436   2.328  1.0761  0.1863 -0.7545
 4859SOL    HW216300   9.719   4.338   2.400  3.0898 -0.0186 -3.4225
 4860SOL     OW16301   3.589   5.921   8.662  0.2794 -0.1312 -0.0219
 4860SOL    HW116302   3.505   5.908   8.706 -0.4666  0.5895 -1.1656
 4860SOL    HW216303   3.654   5.896   8.727 -0.7494  1.2129  1.6119
 4861SOL     OW16304   3.852   8.328   6.907  0.3666 -0.3509  0.1317
 4861SOL    HW116305   3.916   8.377   6.855 -1.2989  0.6798 -1.0541
 4861SOL    HW216306   3.809   8.395   6.959  0.6120 -1.1126  1.3437
 4862SOL     OW16307   6.555   0.466   3.749 -0.3765  0.0526  0.1042
 4862SOL    HW116308   6.623   0.490   3.811 -1.8240  0.8089  1.4814
 4862SOL    HW216309   6.526   0.549   3.712 -2.0801  0.0451  1.2793
 4863SOL     OW16310   8.712   1.205   3.900 -0.2042 -0.1106 -0.4145
 4863SOL    HW116311   8.634   1.171   3.856 -1.0075  0.7129  0.3315
 4863SOL    HW216312   8.730   1.142   3.970 -0.2322 -0.2809 -0.5622
 4864SOL     OW16313   2.685   1.126   5.889  0.2410 -0.2986  0.5866
 4864SOL    HW116314   2.620   1.058   5.872 -0.8003  0.4225  1.5609
 4864SOL    HW216315   2.767   1.089   5.857 -0.6602 -1.1730 -0.8314
 4865SOL     OW16316   1.346   1.802   8.588 -0.9713  0.6385 -0.1450
 4865SOL    HW116317   1.341   1.707   8.602 -2.2452  0.9448  1.9321
 4865SOL    HW216318   1.414   1.813   8.522 -0.9030 -1.7293 -0.5557
 4866SOL     OW16319   5.421   8.593   0.093 -0.1343 -0.5893 -0.0464
 4866SOL    HW116320   5.384   8.505   0.094 -2.3916  0.2153 -1.9434
 4866SOL    HW216321   5.515   8.580   0.079 -0.3488 -2.6694  0.1643
 4867SOL     OW16322   0.278   9.014   2.589 -0.4261 -0.1196 -0.1869
 4867SOL    HW116323   0.237   8.962   2.658 -0.9860  1.9471  1.1423
 4867SOL    HW216324   0.372   9.001   2.602 -0.4551  1.2242  1.8887
 4868SOL     OW16325   0.777   7.869   0.029  0.2340 -0.3683  0.1081
 4868SOL    HW116326   0.738   7.910  -0.049  1.4205  0.9575  0.1732
 4868SOL    HW216327   0.741   7.780   0.030 -2.5297  0.6538  0.0081
 4869SOL     OW16328   7.841   8.832   4.828  0.0219  0.3138  0.3878
 4869SOL    HW116329   7.764   8.810   4.776  1.0388 -0.6112 -0.7470
 4869SOL    HW216330   7.915   8.808   4.774  1.1337 -1.1399  2.4430
 4870SOL     OW16331   9.208   2.967   4.103  0.2606  0.0540 -0.1774
 4870SOL    HW116332   9.245   3.051   4.130 -0.0282  0.5478 -1.2716
 4870SOL    HW216333   9.138   2.990   4.042  0.5595 -0.9922 -0.9486
 4871SOL     OW16334   2.308   2.893   4.021 -0.0332  0.0525  0.1357
 4871SOL    HW116335   2.237   2.917   3.961 -0.9824  0.8203  1.5169
 4871SOL    HW216336   2.294   2.800   4.039 -0.1768 -0.0060 -0.2690
 4872SOL     OW16337   9.027   8.578   8.861  0.6400 -0.1959 -0.2929
 4872SOL    HW116338   9.085   8.650   8.837 -0.1058  0.9381  1.1478
 4872SOL    HW216339   8.958   8.580   8.795 -0.0489  1.2483  0.4310
 4873SOL     OW16340   6.278   8.405   1.787 -0.1875  0.1417 -0.1867
 4873SOL    HW116341   6.269   8.422   1.881 -0.4189 -1.4520  0.1025
 4873SOL    HW216342   6.204   8.453   1.747  0.2804  1.3476  0.3508
 4874SOL     OW16343   5.344   2.724   3.966  0.3440  0.1219 -0.0118
 4874SOL    HW116344   5.439   2.734   3.963  0.4273 -0.3324  0.7303
 4874SOL    HW216345   5.322   2.681   3.883  0.7436  0.5323 -0.3324
 4875SOL     OW16346   4.698   4.161   4.714  0.2297  0.0119 -0.2066
 4875SOL    HW116347   4.608   4.169   4.746  0.7151 -0.2565  1.3020
 4875SOL    HW216348   4.725   4.252   4.696  0.2084  0.2669  0.9689
 4876SOL     OW16349   3.349   5.721   1.906  0.2176  0.2423 -0.4141
 4876SOL    HW116350   3.275   5.733   1.847 -1.3308  0.6653  1.4913
 4876SOL    HW216351   3.352   5.627   1.923 -0.7370  0.3644  0.4998
 4877SOL     OW16352   7.301   1.682   3.036  0.1554 -0.5557 -0.0844
 4877SOL    HW116353   7.301   1.614   2.969  0.3124  1.0066 -1.7687
 4877SOL    HW216354   7.209   1.706   3.045 -0.0840 -1.8881  1.5526
 4878SOL     OW16355   5.773   9.420   0.188  0.0921  0.3859  0.3871
 4878SOL    HW116356   5.691   9.438   0.233 -0.0283  0.2208  0.2381
 4878SOL    HW216357   5.772   9.325   0.173  1.5407 -0.0868  2.7611
 4879SOL     OW16358   4.864   1.015   9.360 -0.6909  0.2206  0.1704
 4879SOL    HW116359   4.808   1.010   9.437  0.3678  0.0530  0.9435
 4879SOL    HW216360   4.822   0.957   9.296 -1.3511  0.0386  0.7593
 4880SOL     OW16361   6.542   8.556   9.472  0.5334 -0.7120  0.2084
 4880SOL    HW116362   6.452   8.556   9.441  1.0523 -2.4005 -1.4743
 4880SOL    HW216363   6.571   8.647   9.460 -0.7011 -0.3041  0.1257
 4881SOL     OW16364   1.898   5.485   5.637 -0.2185  0.9617  0.0949
 4881SOL    HW116365   1.807   5.455   5.647 -0.3434  0.1174 -2.6722
 4881SOL    HW216366   1.892   5.580   5.633 -0.7593  1.0056  1.3920
 4882SOL     OW16367   3.632   8.166   8.160  0.3328 -0.6256  0.6997
 4882SOL    HW116368   3.559   8.173   8.098 -0.0664  3.2405  1.3858
 4882SOL    HW216369   3.693   8.106   8.117 -1.0533 -0.1424 -2.2256
 4883SOL     OW16370   5.070   2.871   1.629  0.1377 -0.2243 -0.4570
 4883SOL    HW116371   5.124   2.793   1.632  0.8108  0.2530  0.6892
 4883SOL    HW216372   5.107   2.929   1.696 -1.0115  0.6347 -0.5157
 4884SOL     OW16373   1.581   7.025   8.629  0.0974 -0.3094  0.2681
 4884SOL    HW116374   1.652   6.980   8.583 -2.4584 -1.1936 -3.2447
 4884SOL    HW216375   1.608   7.117   8.631  1.6922 -0.7303 -0.1933
 4885SOL     OW16376   6.648   1.987   0.997 -0.1199 -0.1880 -0.4425
 4885SOL    HW116377   6.649   2.080   1.020  1.1800 -0.5874  1.3005
 4885SOL    HW216378   6.626   1.942   1.078 -2.9583 -1.3697 -1.7436
 4886SOL     OW16379   7.531   7.133   6.590  0.6523 -0.2821 -0.0630
 4886SOL    HW116380   7.626   7.124   6.597  0.7360 -0.7431 -1.4829
 4886SOL    HW216381   7.496   7.047   6.614  0.5945 -0.1359  0.3818
 4887SOL     OW16382   1.013   0.967   3.275 -0.0134  0.7319 -0.0163
 4887SOL    HW116383   0.998   0.917   3.194  0.1689 -0.4639  0.6623
 4887SOL    HW216384   1.082   0.919   3.320 -2.2942 -0.6048  2.3776
 4888SOL     OW16385   5.025   2.039   6.183 -0.1886 -0.2307  0.5628
 4888SOL    HW116386   4.938   2.053   6.148  0.6610  1.5146 -0.9780
 4888SOL    HW216387   5.024   2.081   6.269 -0.3443  1.4814 -0.2427
 4889SOL     OW16388   3.562   6.078   8.293  0.4104 -0.1274 -0.0955
 4889SOL    HW116389   3.535   5.987   8.281 -1.0949  0.1167  1.1152
 4889SOL    HW216390   3.628   6.093   8.225  1.8283 -2.5546  0.6167
 4890SOL     OW16391   4.157   1.517   2.997  0.6180 -0.3957 -0.1123
 4890SOL    HW116392   4.138   1.520   3.091 -1.3723 -1.3305 -0.4408
 4890SOL    HW216393   4.200   1.601   2.979 -1.4271  1.0136  1.1462
 4891SOL     OW16394   0.193   3.499   1.794  0.0006 -0.3265 -0.0258
 4891SOL    HW116395   0.244   3.568   1.837 -0.2485 -0.9961  1.4120
 4891SOL    HW216396   0.252   3.424   1.789 -0.2621 -0.5374 -0.0215
 4892SOL     OW16397   4.355   5.994   5.919 -0.2932 -0.2397  0.6799
 4892SOL    HW116398   4.407   5.939   5.861 -0.2534  1.6313 -1.1808
 4892SOL    HW216399   4.411   6.011   5.994  0.4797 -0.9602  0.2783
 4893SOL     OW16400   6.528   1.746   5.802  0.2477  0.0566  0.0235
 4893SOL    HW116401   6.548   1.835   5.775  1.0968  0.3968  1.6083
 4893SOL    HW216402   6.530   1.749   5.898 -1.0360 -1.3831  0.1423
 4894SOL     OW16403   7.296   1.196   8.418 -0.0509 -0.2477 -0.6274
 4894SOL    HW116404   7.253   1.242   8.490  0.6058 -0.8515  0.1715
 4894SOL    HW216405   7.375   1.159   8.456  0.4262 -0.4002 -1.7200
 4895SOL     OW16406   7.612   5.573   6.649 -0.2729  0.4717  0.2200
 4895SOL    HW116407   7.627   5.667   6.662  2.7447  0.4452 -1.9560
 4895SOL    HW216408   7.675   5.531   6.707  0.0906 -0.0971 -0.5694
 4896SOL     OW16409   5.683   3.627   2.514  0.2410 -0.3821  0.1974
 4896SOL    HW116410   5.741   3.694   2.477  0.6558 -0.8478 -0.0141
 4896SOL    HW216411   5.615   3.615   2.448  0.4521 -0.5310  0.0044
 4897SOL     OW16412   0.099   0.874   7.834  0.6779  0.3174 -0.8542
 4897SOL    HW116413   0.132   0.949   7.785  1.5053  1.0317  0.7281
 4897SOL    HW216414   0.140   0.881   7.921 -0.2608 -1.2195 -0.2324
 4898SOL     OW16415   4.704   8.895   0.356 -0.2111 -0.3854  0.1501
 4898SOL    HW116416   4.745   8.906   0.270  0.2650 -0.0365  0.4131
 4898SOL    HW216417   4.729   8.974   0.404  0.0996 -0.8964  0.8346
 4899SOL     OW16418   8.335   0.459   1.679  0.5229  0.0946  0.2329
 4899SOL    HW116419   8.347   0.413   1.595 -0.3008 -1.4779  0.9394
 4899SOL    HW216420   8.240   0.466   1.689  0.5524 -1.2740  1.8075
 4900SOL     OW16421   3.896   3.659   5.435  0.2637 -0.3535  0.2164
 4900SOL    HW116422   3.918   3.730   5.375  2.6502 -0.1477  1.2286
 4900SOL    HW216423   3.852   3.702   5.509 -1.3275 -0.4164 -0.6604
 4901SOL     OW16424   8.365   0.122   1.758 -0.5566 -0.0111  0.4772
 4901SOL    HW116425   8.290   0.174   1.787 -0.1530  1.9487 -1.6914
 4901SOL    HW216426   8.384   0.063   1.832 -2.0015  1.8532  2.4505
 4902SOL     OW16427   6.124   0.459   4.515 -0.4524  1.0062  0.1532
 4902SOL    HW116428   6.219   0.469   4.513 -0.5187  1.5959 -0.0339
 4902SOL    HW216429   6.090   0.534   4.467 -0.9753  0.2078 -0.7745
 4903SOL     OW16430   2.801   0.740   2.515 -0.0285 -0.1062 -0.9762
 4903SOL    HW116431   2.772   0.769   2.601  1.3401  2.3058 -1.2504
 4903SOL    HW216432   2.896   0.728   2.523  0.4947  2.1851 -2.5586
 4904SOL     OW16433   5.269   7.018   0.518 -0.6529  0.0835  0.2765
 4904SOL    HW116434   5.178   7.043   0.504 -0.6838  0.8950  1.7126
 4904SOL    HW216435   5.270   6.977   0.605  0.3711  0.1691  0.3221
 4905SOL     OW16436   3.927   1.340   4.795 -0.3030 -0.2640  0.4676
 4905SOL    HW116437   3.973   1.414   4.833  0.5815 -1.2547  1.4207
 4905SOL    HW216438   3.914   1.363   4.704  2.0765  0.0983  0.1643
 4906SOL     OW16439   5.577   8.762   2.475  0.5391 -0.5335 -0.4150
 4906SOL    HW116440   5.535   8.676   2.468 -2.6874  0.7244  1.3468
 4906SOL    HW216441   5.615   8.763   2.563 -0.1688  0.1086 -0.1085
 4907SOL     OW16442   7.302   4.819   7.741  0.1969  0.1237 -0.1196
 4907SOL    HW116443   7.348   4.776   7.669  2.1623 -0.7006  1.5139
 4907SOL    HW216444   7.273   4.747   7.797 -1.3479  0.7471 -0.0841
 4908SOL     OW16445   7.307   5.505   1.669  0.7119  0.3056 -0.5460
 4908SOL    HW116446   7.224   5.495   1.715  1.3270  1.1563  0.7999
 4908SOL    HW216447   7.352   5.577   1.714  1.4492  1.0457 -2.3373
 4909SOL     OW16448   7.125   2.168   2.123 -0.0154  0.4013 -0.0723
 4909SOL    HW116449   7.126   2.239   2.059  0.1592  0.1331 -0.3721
 4909SOL    HW216450   7.218   2.153   2.143 -0.0766  0.6548  0.4425
 4910SOL     OW16451   4.391   4.842   7.625 -0.4183  0.0813  0.2870
 4910SOL    HW116452   4.457   4.795   7.676  1.4750  3.3013  1.0968
 4910SOL    HW216453   4.310   4.831   7.676  0.1419 -1.5094  0.8845
 4911SOL     OW16454   1.965   3.410   4.898 -0.0083  0.6824  0.0634
 4911SOL    HW116455   2.058   3.404   4.922 -0.3611  2.2188  2.0724
 4911SOL    HW216456   1.955   3.499   4.865 -0.2215 -0.4003 -3.1242
 4912SOL     OW16457   8.248   0.705   8.559  0.3545  0.0796  0.4754
 4912SOL    HW116458   8.202   0.751   8.629  0.1547  0.2888  0.2057
 4912SOL    HW216459   8.329   0.754   8.546  0.5143 -0.1105  0.7369
 4913SOL     OW16460   6.926   6.870   8.179 -0.3925  0.1055 -0.0817
 4913SOL    HW116461   6.929   6.895   8.087 -0.6674  0.2656 -0.0474
 4913SOL    HW216462   6.892   6.781   8.179  0.9343 -0.4254 -0.2322
 4914SOL     OW16463   7.705   3.253   6.053  0.3292 -0.1277 -0.2756
 4914SOL    HW116464   7.689   3.343   6.083 -0.0452 -0.2617 -0.0535
 4914SOL    HW216465   7.623   3.207   6.073  0.5824 -0.5616 -0.2172
 4915SOL     OW16466   9.496   1.659   4.211  0.8585 -0.1605  0.3399
 4915SOL    HW116467   9.434   1.730   4.193  0.9503 -0.2108 -0.1966
 4915SOL    HW216468   9.543   1.686   4.290 -0.0628 -0.2636  0.9457
 4916SOL     OW16469   0.389   3.592   9.693 -0.3554 -0.3297  0.4255
 4916SOL    HW116470   0.399   3.555   9.605 -0.9192 -0.1321  0.2803
 4916SOL    HW216471   0.320   3.540   9.733  0.9339 -1.4494  1.3138
 4917SOL     OW16472   7.514   5.415   4.974  0.5357 -0.1973 -0.4760
 4917SOL    HW116473   7.510   5.427   4.879  2.5040 -0.8182 -0.6756
 4917SOL    HW216474   7.482   5.325   4.988 -0.6035  0.1944 -0.4251
 4918SOL     OW16475   4.480   8.002   3.636  0.2510 -0.0973  0.2056
 4918SOL    HW116476   4.493   8.019   3.543 -0.1166  0.0275  0.1738
 4918SOL    HW216477   4.385   8.004   3.648  0.3114  0.2870  0.6601
 4919SOL     OW16478   9.318   3.658   1.215 -0.4205 -0.5181  0.5976
 4919SOL    HW116479   9.333   3.751   1.197 -0.3877 -0.7936 -0.9128
 4919SOL    HW216480   9.237   3.656   1.266 -0.7538  0.3104  0.1260
 4920SOL     OW16481   0.064   4.682   2.228 -0.0218  0.2392 -0.0547
 4920SOL    HW116482  -0.014   4.638   2.195 -0.1210  0.1347  0.3174
 4920SOL    HW216483   0.126   4.611   2.244  0.1201  0.3143 -0.2683
 4921SOL     OW16484   0.928   8.575   3.574  0.3907 -0.2377 -0.4036
 4921SOL    HW116485   0.930   8.507   3.505  1.6116  0.2958 -0.9229
 4921SOL    HW216486   0.857   8.634   3.547  1.3437  0.3895 -1.6546
 4922SOL     OW16487   6.273   6.737   6.672 -0.1070  0.2347  0.0666
 4922SOL    HW116488   6.239   6.715   6.585 -0.8209 -1.0530  0.6520
 4922SOL    HW216489   6.198   6.773   6.719  0.6046  2.3087 -0.2619
 4923SOL     OW16490   9.598   4.698   8.512  0.0045  0.1627  0.0962
 4923SOL    HW116491   9.653   4.674   8.587  1.8476  0.1020 -1.2245
 4923SOL    HW216492   9.523   4.744   8.551  0.3636 -0.7881  2.0410
 4924SOL     OW16493   8.293   5.582   8.517  0.1102  0.2564  0.5263
 4924SOL    HW116494   8.268   5.494   8.488 -4.3083  1.9587 -1.8734
 4924SOL    HW216495   8.237   5.599   8.593  2.2868  0.4580  2.1720
 4925SOL     OW16496   6.883   4.915   6.192  0.6577 -0.8375 -0.1076
 4925SOL    HW116497   6.953   4.849   6.197  0.4355 -1.3079 -2.3091
 4925SOL    HW216498   6.926   4.992   6.156  0.0184 -1.2365 -1.8004
 4926SOL     OW16499   5.253   4.323   8.716 -0.4040 -0.2499  0.6559
 4926SOL    HW116500   5.347   4.322   8.737 -0.2263 -0.9931 -0.1082
 4926SOL    HW216501   5.220   4.242   8.753 -0.2260 -1.2321 -1.2313
 4927SOL     OW16502   3.043   1.117   8.167 -0.0975 -0.1222  0.2870
 4927SOL    HW116503   3.039   1.048   8.233 -0.1607  0.0604  0.4745
 4927SOL    HW216504   3.122   1.167   8.190 -0.2177  0.0472  0.3297
 4928SOL     OW16505   2.231   6.255   1.203  0.3782  0.4638 -0.0448
 4928SOL    HW116506   2.173   6.330   1.216 -2.6058 -1.5256 -0.8199
 4928SOL    HW216507   2.217   6.229   1.112  0.7706 -1.4150  0.3829
 4929SOL     OW16508   6.013   5.499   0.988  0.6805  0.1066 -0.1017
 4929SOL    HW116509   6.047   5.559   0.922 -0.6740 -1.3177 -2.2024
 4929SOL    HW216510   5.932   5.465   0.950 -0.0736 -0.9252  2.2444
 4930SOL     OW16511   0.695   1.215   8.627 -0.0961  0.1226 -0.2679
 4930SOL    HW116512   0.705   1.309   8.644 -1.4426 -0.0238  1.6401
 4930SOL    HW216513   0.638   1.210   8.550 -1.4103  0.9093  0.6156
 4931SOL     OW16514   8.238   7.127   3.268  0.3859  0.0601 -0.4551
 4931SOL    HW116515   8.190   7.210   3.277  0.8561  0.2105  0.7549
 4931SOL    HW216516   8.315   7.150   3.215  0.4887  0.3955 -0.1642
 4932SOL     OW16517   1.974   0.139   5.434  0.2210  0.0727  0.4116
 4932SOL    HW116518   2.048   0.115   5.489  0.8798  0.0199 -0.4857
 4932SOL    HW216519   1.900   0.091   5.472  0.7459 -0.3049  0.9765
 4933SOL     OW16520   9.153   2.505   4.332 -0.1024 -0.3737 -0.1937
 4933SOL    HW116521   9.115   2.581   4.289 -1.3257  0.7017  2.5725
 4933SOL    HW216522   9.093   2.433   4.312  1.3077 -0.8469 -3.2127
 4934SOL     OW16523   1.667   0.221   0.195  0.7383  0.5878 -0.4219
 4934SOL    HW116524   1.666   0.307   0.155 -0.4411  0.6994 -0.1652
 4934SOL    HW216525   1.736   0.227   0.262  0.4906  1.4100 -0.2285
 4935SOL     OW16526   2.277   4.747   7.366  0.5022 -0.3671  0.1862
 4935SOL    HW116527   2.187   4.724   7.388  0.0750  0.7030 -0.3988
 4935SOL    HW216528   2.274   4.775   7.275  1.5262 -0.7927  0.0053
 4936SOL     OW16529   2.475   1.367   9.571 -0.2937  0.1244  0.4929
 4936SOL    HW116530   2.438   1.433   9.512 -0.4566  0.2897  0.7804
 4936SOL    HW216531   2.487   1.413   9.654 -1.2721 -0.4451  0.9702
 4937SOL     OW16532   8.923   6.252   2.660  0.3269  0.4925 -0.4445
 4937SOL    HW116533   8.869   6.255   2.581  2.5553 -2.9355 -2.3881
 4937SOL    HW216534   9.007   6.217   2.630  0.9851 -2.0396  3.5823
 4938SOL     OW16535   0.573   1.131   9.039  0.0542  0.9547 -0.1373
 4938SOL    HW116536   0.596   1.139   9.131  0.3527 -0.8927 -0.0220
 4938SOL    HW216537   0.657   1.129   8.993  0.0680 -1.4883 -0.1081
 4939SOL     OW16538   6.040   1.184   3.553 -0.0254  0.0496 -0.0796
 4939SOL    HW116539   5.962   1.155   3.505 -0.6479  0.2846  0.7569
 4939SOL    HW216540   6.006   1.246   3.617  0.9537  0.6796 -0.1586
 4940SOL     OW16541   2.631   7.060   7.556 -0.1003  0.0845  0.6888
 4940SOL    HW116542   2.544   7.065   7.517  0.1931  1.3650  0.1223
 4940SOL    HW216543   2.655   7.151   7.573  0.8918 -0.2809  1.3817
 4941SOL     OW16544   1.188   2.261   6.401 -0.1599  0.3871 -0.4267
 4941SOL    HW116545   1.152   2.282   6.315  0.9848 -0.5230 -1.1548
 4941SOL    HW216546   1.176   2.167   6.409 -0.9748  0.5692  0.7785
 4942SOL     OW16547   1.918   2.684   1.834 -0.3894  0.1934 -0.2589
 4942SOL    HW116548   1.834   2.729   1.828  0.1378  1.2922  0.3961
 4942SOL    HW216549   1.983   2.753   1.828  0.4705 -0.5862 -0.1889
 4943SOL     OW16550   0.433   8.844   2.098 -0.2504 -0.0907 -0.2012
 4943SOL    HW116551   0.512   8.845   2.152  1.8585 -1.9623 -2.9509
 4943SOL    HW216552   0.383   8.769   2.129  1.2075 -1.4866 -1.1293
 4944SOL     OW16553   1.457   4.530   4.382 -0.0110 -0.1515 -0.3979
 4944SOL    HW116554   1.464   4.486   4.467  0.9361  1.8477  0.6140
 4944SOL    HW216555   1.510   4.476   4.323  0.8217 -0.5901  0.7081
 4945SOL     OW16556   7.792   5.718   0.578 -0.1557  0.2982  0.4444
 4945SOL    HW116557   7.780   5.813   0.581 -1.3282  0.2092 -0.7987
 4945SOL    HW216558   7.877   5.704   0.619  0.8072  2.0279 -0.8406
 4946SOL     OW16559   8.579   0.376   6.964  0.1893 -0.4895 -0.1174
 4946SOL    HW116560   8.556   0.348   6.876  1.8107 -0.5887 -0.5370
 4946SOL    HW216561   8.673   0.392   6.961  0.4475 -1.2875  1.7919
 4947SOL     OW16562   7.061   2.049   4.719 -0.5314  0.1625  0.5979
 4947SOL    HW116563   7.058   1.986   4.647  0.4163  0.9427 -0.1464
 4947SOL    HW216564   7.154   2.073   4.727 -0.4109 -0.7823  2.8703
 4948SOL     OW16565   9.247   6.839   7.141 -0.7700  0.4353  0.5572
 4948SOL    HW116566   9.256   6.934   7.134  0.9939  0.3836  1.8014
 4948SOL    HW216567   9.285   6.817   7.226 -0.7872 -1.4380  0.1109
 4949SOL     OW16568   5.271   2.595   0.733  0.0296  0.3440  0.0506
 4949SOL    HW116569   5.343   2.592   0.796  0.4659 -0.7912 -0.4669
 4949SOL    HW216570   5.232   2.507   0.737 -1.4374  0.9849  0.4364
 4950SOL     OW16571   7.840   5.532   1.586 -0.1163  0.3819  0.1703
 4950SOL    HW116572   7.768   5.475   1.613  1.1026  0.6175  4.6487
 4950SOL    HW216573   7.808   5.621   1.603 -0.0274  0.7392 -1.4150
 4951SOL     OW16574   0.283   2.429   5.395 -0.3564  0.1725 -0.1258
 4951SOL    HW116575   0.216   2.447   5.460 -1.6031 -0.0122 -1.3228
 4951SOL    HW216576   0.308   2.515   5.361  0.1326  0.2529  0.4375
 4952SOL     OW16577   0.771   3.849   1.511 -0.2719  0.5941  0.0978
 4952SOL    HW116578   0.863   3.831   1.525 -0.0506  2.6309  1.7032
 4952SOL    HW216579   0.769   3.916   1.443 -0.6516 -0.2147 -0.7065
 4953SOL     OW16580   2.149   8.196   6.103  0.4340 -0.8581  0.0883
 4953SOL    HW116581   2.072   8.229   6.150  1.1278 -0.8466  1.2430
 4953SOL    HW216582   2.128   8.210   6.011  0.7022  3.0140  0.4325
 4954SOL     OW16583   1.167   4.204   7.967  0.6458  0.5074  0.1057
 4954SOL    HW116584   1.162   4.145   8.042 -0.6627 -0.1789 -0.4922
 4954SOL    HW216585   1.152   4.148   7.891  0.5619  1.4231 -0.5682
 4955SOL     OW16586   4.949   5.222   5.797 -0.5024 -0.5416  0.1562
 4955SOL    HW116587   4.985   5.262   5.876  1.7448  0.3418 -1.2203
 4955SOL    HW216588   4.998   5.141   5.786 -1.0553 -0.8469 -0.1529
 4956SOL     OW16589   8.101   8.125   4.021 -0.1416  0.0466  0.4489
 4956SOL    HW116590   8.153   8.189   3.974 -2.1146 -0.0080 -1.9828
 4956SOL    HW216591   8.159   8.093   4.091  1.0127  4.1903  1.6222
 4957SOL     OW16592   2.311   5.155   2.652 -0.5784  0.4629 -0.3611
 4957SOL    HW116593   2.378   5.159   2.583 -1.1703 -1.5517 -1.1365
 4957SOL    HW216594   2.228   5.166   2.605 -0.9222  0.3544  0.2172
 4958SOL     OW16595   7.275   9.107   5.783 -0.0930 -0.0247 -0.7864
 4958SOL    HW116596   7.223   9.049   5.726 -0.6470 -1.1866  0.8189
 4958SOL    HW216597   7.334   9.048   5.829  0.4124  0.9076 -0.2167
 4959SOL     OW16598   7.165   9.081   7.796 -0.5158  0.4289 -0.8767
 4959SOL    HW116599   7.165   9.004   7.853  2.3467  0.4222 -0.7257
 4959SOL    HW216600   7.243   9.070   7.741 -0.1528  3.0712 -1.0321
 4960SOL     OW16601   0.676   6.670   8.616 -0.4079 -0.3393 -0.0699
 4960SOL    HW116602   0.627   6.608   8.562  0.0350 -0.3628 -0.4461
 4960SOL    HW216603   0.740   6.708   8.557 -0.9650  0.8169  0.0439
 4961SOL     OW16604   5.003   3.834   9.468 -1.0267  0.1432  0.1776
 4961SOL    HW116605   5.026   3.924   9.491 -3.0557  0.5591  0.7120
 4961SOL    HW216606   4.954   3.842   9.386 -0.7140 -0.5478 -0.0879
 4962SOL     OW16607   4.991   3.663   6.883  0.2586 -0.3767 -0.3438
 4962SOL    HW116608   5.021   3.582   6.925  1.0978  0.1456  0.1093
 4962SOL    HW216609   4.986   3.642   6.790 -0.0478 -1.0981 -0.1680
 4963SOL     OW16610   6.726   3.921   1.583  0.0583  0.3133 -0.6052
 4963SOL    HW116611   6.724   3.938   1.489  0.1903 -0.4474 -0.7494
 4963SOL    HW216612   6.717   3.826   1.591  0.1676  0.3573  0.1438
 4964SOL     OW16613   6.781   4.175   8.519 -0.1931 -0.1715  0.4984
 4964SOL    HW116614   6.846   4.149   8.584 -1.0702 -1.0925  1.0433
 4964SOL    HW216615   6.736   4.093   8.496 -0.8669  0.3729 -0.1854
 4965SOL     OW16616   9.500   0.691   5.673 -0.1810 -0.1016  0.5408
 4965SOL    HW116617   9.551   0.768   5.700 -0.1759 -0.2037  0.8189
 4965SOL    HW216618   9.533   0.670   5.586  0.8493 -0.6909  1.0614
 4966SOL     OW16619   5.671   3.156   8.038 -0.5430 -0.2415  0.0434
 4966SOL    HW116620   5.729   3.081   8.046 -0.1869 -0.1435 -1.3123
 4966SOL    HW216621   5.610   3.133   7.968 -0.7971  0.5005  0.0014
 4967SOL     OW16622   7.255   8.404   4.015 -0.3115  0.7696 -0.0753
 4967SOL    HW116623   7.197   8.456   4.071 -0.8027  0.6754 -0.5004
 4967SOL    HW216624   7.203   8.329   3.989  0.8639 -0.8134  1.8002
 4968SOL     OW16625   3.292   5.172   2.818  0.5287 -0.4332  0.2691
 4968SOL    HW116626   3.348   5.153   2.742  0.8469 -3.0591  1.0343
 4968SOL    HW216627   3.353   5.204   2.884  0.4771  0.4584 -0.1007
 4969SOL     OW16628   8.926   6.560   9.511 -0.2638 -0.2024 -0.2408
 4969SOL    HW116629   8.965   6.583   9.595 -2.4656  0.8527  0.5644
 4969SOL    HW216630   8.874   6.482   9.529 -0.9093  0.1456 -0.5633
 4970SOL     OW16631   4.028   5.997   0.852 -0.4342  0.0688 -1.0052
 4970SOL    HW116632   4.102   6.004   0.912  2.9136 -1.1998 -4.5843
 4970SOL    HW216633   3.955   5.970   0.908  2.0921 -0.0788  2.5877
 4971SOL     OW16634   0.274   6.340   7.858 -0.5428 -0.8684 -0.3749
 4971SOL    HW116635   0.189   6.373   7.830 -1.0369 -1.4658  0.3951
 4971SOL    HW216636   0.272   6.247   7.836  0.5231 -0.5984 -1.7774
 4972SOL     OW16637   4.468   5.069   7.045 -0.2643  0.4094  0.8353
 4972SOL    HW116638   4.411   5.006   7.001  1.9376 -1.0533 -0.1326
 4972SOL    HW216639   4.541   5.016   7.077  3.0934  2.5998 -2.3209
 4973SOL     OW16640   2.630   2.532   1.226  0.2803 -0.5999  0.3585
 4973SOL    HW116641   2.725   2.531   1.233  0.2992 -0.4146  0.1241
 4973SOL    HW216642   2.611   2.494   1.141  0.1901  0.2878 -0.0294
 4974SOL     OW16643   0.590   3.956   7.653  0.5485 -0.8542 -0.5585
 4974SOL    HW116644   0.583   4.051   7.645  0.8592 -0.6815  0.8895
 4974SOL    HW216645   0.670   3.934   7.604  0.2821 -0.4369 -1.2010
 4975SOL     OW16646   9.581   1.151   3.193 -0.2925  0.0295  0.5029
 4975SOL    HW116647   9.618   1.200   3.266  0.2986  0.7890 -0.2894
 4975SOL    HW216648   9.608   1.060   3.209  0.4649  0.3067  0.8430
 4976SOL     OW16649   9.591   9.021   6.518  0.4827  0.6926  0.6007
 4976SOL    HW116650   9.611   9.086   6.586  0.1026  0.5530  0.8511
 4976SOL    HW216651   9.600   8.936   6.563  1.2215  0.5526  0.2145
 4977SOL     OW16652   2.813   9.227   4.985  0.4347  0.4239  0.7318
 4977SOL    HW116653   2.885   9.288   4.970  1.0975 -0.8317 -1.6926
 4977SOL    HW216654   2.735   9.274   4.958  0.8263  0.5517 -0.2108
 4978SOL     OW16655   9.571   1.753   7.878  0.4696  0.1635 -0.8883
 4978SOL    HW116656   9.603   1.684   7.820 -2.5595 -1.3989 -0.8796
 4978SOL    HW216657   9.566   1.711   7.964 -1.3010  0.3806 -0.8544
 4979SOL     OW16658   2.335   6.463   8.611 -0.4633 -0.2067  0.3431
 4979SOL    HW116659   2.272   6.401   8.575 -1.4132  0.8687  0.0948
 4979SOL    HW216660   2.398   6.478   8.540 -0.9181  0.0307 -0.0089
 4980SOL     OW16661   0.293   4.694   5.448  0.3639 -0.1060 -0.4215
 4980SOL    HW116662   0.369   4.641   5.474  1.7848  1.6741 -0.7662
 4980SOL    HW216663   0.218   4.636   5.461  1.8575 -2.3190 -1.1023
 4981SOL     OW16664   8.227   1.668   7.109 -0.3273 -0.4063  0.0581
 4981SOL    HW116665   8.151   1.725   7.118 -0.7712 -0.8995 -0.5672
 4981SOL    HW216666   8.299   1.720   7.146 -1.0194 -0.0912  1.0168
 4982SOL     OW16667   2.519   2.208   6.698  0.3244 -0.0393  0.1405
 4982SOL    HW116668   2.510   2.128   6.750  0.9865 -0.9907 -1.1194
 4982SOL    HW216669   2.561   2.271   6.757  0.0179 -0.6980  1.0882
 4983SOL     OW16670   8.422   6.576   3.863  0.2846 -0.0014 -0.1943
 4983SOL    HW116671   8.446   6.580   3.956 -1.4355  0.5960  0.2596
 4983SOL    HW216672   8.504   6.555   3.818  1.7332  2.1539  1.2140
 4984SOL     OW16673   1.226   6.786   4.069  0.1023  0.3293  0.2375
 4984SOL    HW116674   1.208   6.694   4.049  0.3859  0.4610 -0.6923
 4984SOL    HW216675   1.157   6.833   4.022  1.2078  0.6889 -1.1001
 4985SOL     OW16676   1.569   6.129   3.715  0.2260 -0.0547 -0.1859
 4985SOL    HW116677   1.649   6.082   3.741  0.7127  0.3211 -0.9696
 4985SOL    HW216678   1.547   6.093   3.629 -1.1424 -0.9963  0.5181
 4986SOL     OW16679   5.016   3.049   4.526 -0.8280 -0.3181 -0.3165
 4986SOL    HW116680   5.002   3.007   4.440  1.4748 -0.7973 -0.5181
 4986SOL    HW216681   4.954   3.005   4.584 -1.1662 -1.2825 -1.3625
 4987SOL     OW16682   9.252   5.188   6.380  0.5802  0.6196  0.1336
 4987SOL    HW116683   9.288   5.110   6.338  0.3524  0.1109  0.8819
 4987SOL    HW216684   9.310   5.204   6.454  0.2976  0.8317  0.3094
 4988SOL     OW16685   6.134   0.477   4.870 -0.3076  0.3069 -0.5373
 4988SOL    HW116686   6.179   0.396   4.845 -0.7973 -0.1494  0.0462
 4988SOL    HW216687   6.056   0.448   4.917  0.5313  1.1322  1.4555
 4989SOL     OW16688   2.456   1.783   4.556 -0.3768  0.0993  0.1629
 4989SOL    HW116689   2.551   1.786   4.546 -0.1413 -2.5178  0.8650
 4989SOL    HW216690   2.425   1.733   4.480 -0.4498 -4.1145  2.6546
 4990SOL     OW16691   6.853   5.858   5.567  0.0462 -0.2918 -0.8047
 4990SOL    HW116692   6.835   5.936   5.619 -0.1294 -1.0474  0.2982
 4990SOL    HW216693   6.885   5.892   5.483  0.1569  0.9531 -0.2792
 4991SOL     OW16694   3.977   0.969   3.598 -0.3766  0.4768  0.0552
 4991SOL    HW116695   3.962   1.061   3.619  1.3829  0.5605  1.0912
 4991SOL    HW216696   4.063   0.949   3.635 -0.2136 -1.2826 -1.1467
 4992SOL     OW16697   4.708   1.267   3.885 -0.0863  0.3555  0.1643
 4992SOL    HW116698   4.641   1.269   3.816 -0.2934 -0.5212  0.3197
 4992SOL    HW216699   4.750   1.353   3.881  0.8722 -0.1396 -2.0251
 4993SOL     OW16700   6.177   8.401   9.106  0.1402  0.1855 -0.6273
 4993SOL    HW116701   6.239   8.366   9.170 -0.2985  0.7687  0.1465
 4993SOL    HW216702   6.092   8.365   9.132 -0.0334  0.3822 -0.9130
 4994SOL     OW16703   0.624   6.044   3.032  0.3839  0.1464 -0.0212
 4994SOL    HW116704   0.708   6.057   2.989  1.0927 -0.7130  1.0815
 4994SOL    HW216705   0.645   6.032   3.124 -1.0272  0.8542  0.4222
 4995SOL     OW16706   2.960   8.496   4.147 -0.6791 -0.6402  0.5797
 4995SOL    HW116707   2.937   8.566   4.087  0.5113 -1.7352 -1.2481
 4995SOL    HW216708   3.031   8.532   4.200 -1.6853  0.3031  1.3424
 4996SOL     OW16709   3.725   1.084   3.817  0.2501  0.5128  0.2071
 4996SOL    HW116710   3.802   1.036   3.848 -0.5387 -0.1903  1.1496
 4996SOL    HW216711   3.683   1.023   3.757 -0.4934  0.1900  1.0350
 4997SOL     OW16712   6.665   3.648   1.628  0.2105 -0.4114  0.7515
 4997SOL    HW116713   6.577   3.617   1.648 -0.3260  0.2400 -0.4614
 4997SOL    HW216714   6.702   3.580   1.572 -1.6209  1.6627 -3.4334
 4998SOL     OW16715   5.435   9.111   6.664  0.3363 -0.3164  0.0633
 4998SOL    HW116716   5.507   9.170   6.682 -0.5176  0.7749  0.0124
 4998SOL    HW216717   5.446   9.087   6.572  0.5539 -0.0447  0.0169
 4999SOL     OW16718   4.985   8.523   1.349 -0.5592  0.4712  0.4925
 4999SOL    HW116719   4.994   8.428   1.353 -0.2508  0.4057 -1.1288
 4999SOL    HW216720   5.074   8.554   1.332 -0.6294  1.0833  1.1725
 5000SOL     OW16721   3.102   8.517   2.335 -0.5742  0.4847 -0.0276
 5000SOL    HW116722   3.170   8.489   2.396  0.0945 -0.8840 -1.3455
 5000SOL    HW216723   3.058   8.589   2.381  2.5829  2.3802  0.3773
 5001SOL     OW16724   6.821   4.675   1.764 -0.4127 -0.1465 -0.6830
 5001SOL    HW116725   6.820   4.713   1.677 -0.5515  0.3173 -0.4788
 5001SOL    HW216726   6.729   4.660   1.786 -0.3642 -0.5507 -0.7385
 5002SOL     OW16727   4.851   0.438   9.391  0.1825 -0.3478 -0.4967
 5002SOL    HW116728   4.921   0.474   9.446  0.1233 -1.3125  0.2368
 5002SOL    HW216729   4.771   0.448   9.444 -0.2017  0.4221 -1.1822
 5003SOL     OW16730   3.591   2.757   5.860 -0.3011 -0.0485 -0.3962
 5003SOL    HW116731   3.557   2.839   5.894 -1.0503 -0.1067 -0.9808
 5003SOL    HW216732   3.604   2.703   5.938  0.8866  0.8548  0.0616
 5004SOL     OW16733   1.696   5.411   1.566  0.0328  0.2611  0.4525
 5004SOL    HW116734   1.753   5.435   1.639 -0.2968  1.0467  0.4638
 5004SOL    HW216735   1.608   5.436   1.595 -0.3980 -1.3059  0.6008
 5005SOL     OW16736   1.522   3.967   0.944 -0.2502 -0.0849 -0.2936
 5005SOL    HW116737   1.592   3.907   0.969 -0.6922 -0.0449  1.1119
 5005SOL    HW216738   1.550   4.052   0.978 -0.4539  0.1554 -0.7176
 5006SOL     OW16739   7.795   5.473   2.110 -0.3215  0.2344  0.0689
 5006SOL    HW116740   7.817   5.553   2.063 -0.9306 -0.0503 -0.7025
 5006SOL    HW216741   7.700   5.475   2.120 -0.2204  0.2598  1.2458
 5007SOL     OW16742   7.787   5.743   0.035 -0.5453  0.0711  0.2554
 5007SOL    HW116743   7.833   5.824   0.055 -0.1349 -0.0028 -0.3523
 5007SOL    HW216744   7.784   5.696   0.118  0.0136  0.3155  0.4225
 5008SOL     OW16745   4.742   0.101   9.482  0.1420  0.2670  0.2994
 5008SOL    HW116746   4.814   0.079   9.424  0.7530  1.5021  0.5545
 5008SOL    HW216747   4.680   0.028   9.473 -0.1900  0.8047 -2.5010
 5009SOL     OW16748   0.992   5.483   3.777 -0.1259  0.3755  0.0658
 5009SOL    HW116749   0.961   5.474   3.687 -0.7785 -0.8403  0.3937
 5009SOL    HW216750   1.086   5.501   3.769  0.1872 -1.4958 -0.8359
 5010SOL     OW16751   1.693   5.666   5.337  0.4576 -0.9297 -0.2606
 5010SOL    HW116752   1.674   5.713   5.256 -0.2255 -1.4821 -0.4230
 5010SOL    HW216753   1.621   5.604   5.347  0.6812 -1.0616  0.6235
 5011SOL     OW16754   9.516   8.242   0.516 -0.2555  0.4024 -0.2103
 5011SOL    HW116755   9.533   8.156   0.554  2.0566  0.2266 -1.4614
 5011SOL    HW216756   9.421   8.244   0.502 -0.2960 -2.2069 -0.7420
 5012SOL     OW16757   2.716   1.557   1.587  0.0139  0.3492 -0.3041
 5012SOL    HW116758   2.767   1.476   1.593 -0.6414 -0.1412 -1.2016
 5012SOL    HW216759   2.635   1.531   1.543  1.0163  2.0158 -3.4651
 5013SOL     OW16760   6.745   2.635   3.159 -0.3062  0.1247 -0.2781
 5013SOL    HW116761   6.765   2.661   3.249  0.3160  0.1362 -0.4123
 5013SOL    HW216762   6.727   2.718   3.114 -0.8428  0.0997 -0.1132
 5014SOL     OW16763   4.748   1.121   1.481 -0.0820 -0.0620  0.1564
 5014SOL    HW116764   4.792   1.203   1.506  0.8167 -0.5671  0.2760
 5014SOL    HW216765   4.785   1.099   1.395 -0.7211 -0.0661 -0.1229
 5015SOL     OW16766   0.595   3.357   3.183  0.0585  0.0240  0.0616
 5015SOL    HW116767   0.554   3.303   3.250 -0.6105 -1.1604 -1.2551
 5015SOL    HW216768   0.668   3.303   3.150 -0.7648 -0.2221 -1.4368
 5016SOL     OW16769   7.306   5.147   4.360 -0.5663 -0.1564 -0.0113
 5016SOL    HW116770   7.249   5.158   4.436  1.4076 -0.8881  1.7011
 5016SOL    HW216771   7.323   5.236   4.329 -0.7162  0.2202  0.9587
 5017SOL     OW16772   5.043   2.692   4.819  0.0018 -0.3359  0.4726
 5017SOL    HW116773   5.029   2.663   4.729 -0.9524  1.3706  0.0339
 5017SOL    HW216774   5.125   2.649   4.845  0.1522 -1.0738 -1.0932
 5018SOL     OW16775   0.576   2.068   5.282 -0.3449 -0.6052  0.2887
 5018SOL    HW116776   0.505   2.093   5.341  0.0017 -0.7249  0.7615
 5018SOL    HW216777   0.531   2.039   5.202 -0.8033 -0.1002  0.3584
 5019SOL     OW16778   9.141   5.143   8.607 -0.3848 -0.6676 -0.3272
 5019SOL    HW116779   9.162   5.050   8.605  1.9724 -0.1976 -0.6011
 5019SOL    HW216780   9.120   5.162   8.698  2.0480 -0.9504  0.3484
 5020SOL     OW16781   4.086   7.217   6.603  0.5571  0.4130 -0.0024
 5020SOL    HW116782   4.015   7.152   6.598 -2.4123  3.4265 -0.1079
 5020SOL    HW216783   4.103   7.241   6.512  1.6276 -0.0811  0.0431
 5021SOL     OW16784   9.212   3.723   3.245  0.2448 -0.1686  0.0590
 5021SOL    HW116785   9.188   3.654   3.182  0.3935 -0.9224  0.8062
 5021SOL    HW216786   9.151   3.794   3.226 -1.0103 -1.1311  0.3277
 5022SOL     OW16787   5.663   4.045   5.172 -0.2906 -0.0169  0.7110
 5022SOL    HW116788   5.758   4.054   5.179 -0.3957  0.3293  2.1004
 5022SOL    HW216789   5.628   4.129   5.201 -1.0285  0.2287 -0.7604
 5023SOL     OW16790   1.060   7.081   9.571 -0.3316  0.1137  1.0869
 5023SOL    HW116791   1.134   7.058   9.514 -1.1514  0.4044 -0.1109
 5023SOL    HW216792   1.100   7.091   9.658  1.3911  2.0853  0.1723
 5024SOL     OW16793   7.926   6.521   4.931 -0.0485  0.1028  0.3726
 5024SOL    HW116794   7.916   6.609   4.969 -1.9353 -0.0755  0.3794
 5024SOL    HW216795   7.860   6.468   4.975 -0.6378 -0.7066 -1.4104
 5025SOL     OW16796   6.106   8.632   0.449 -0.2483 -0.6728 -0.2892
 5025SOL    HW116797   6.032   8.649   0.507  0.7208 -0.9185  1.0620
 5025SOL    HW216798   6.067   8.614   0.364 -1.6344  2.0740 -0.3393
 5026SOL     OW16799   7.389   7.230   0.206 -0.0633 -0.7686  0.0169
 5026SOL    HW116800   7.416   7.140   0.226  0.0352 -0.5376  0.9849
 5026SOL    HW216801   7.470   7.281   0.212  0.0969 -0.7786 -1.6895
 5027SOL     OW16802   0.850   9.530   4.230  0.2299  0.4169  0.1537
 5027SOL    HW116803   0.867   9.452   4.284 -0.2143  0.2018 -0.0115
 5027SOL    HW216804   0.836   9.600   4.293  0.1413  0.2554  0.3161
 5028SOL     OW16805   9.082   3.968   6.867 -0.0862  0.0419  0.1264
 5028SOL    HW116806   9.062   4.044   6.813 -0.6689 -0.3607 -0.2318
 5028SOL    HW216807   9.014   3.967   6.935 -0.6303 -0.6710 -0.4111
 5029SOL     OW16808   7.175   8.219   0.178  0.8261 -0.0729  0.6547
 5029SOL    HW116809   7.206   8.273   0.106  0.4288 -1.1648 -0.3701
 5029SOL    HW216810   7.079   8.222   0.171  0.7955 -1.2098  0.3230
 5030SOL     OW16811   3.609   3.756   2.128 -0.3341  0.1804 -0.6431
 5030SOL    HW116812   3.618   3.850   2.111 -2.8194  0.7666  0.7096
 5030SOL    HW216813   3.644   3.744   2.216 -1.8550  0.2954  0.0122
 5031SOL     OW16814   7.918   9.137   3.025 -0.1117  0.0354  0.2369
 5031SOL    HW116815   7.860   9.080   3.077  0.8345 -0.6137  0.6187
 5031SOL    HW216816   7.990   9.158   3.085  1.1849 -1.0097 -0.8824
 5032SOL     OW16817   9.553   5.997   1.860  0.1246 -0.1996  0.6869
 5032SOL    HW116818   9.484   6.062   1.841  1.2912  0.7380 -0.5604
 5032SOL    HW216819   9.566   6.003   1.955 -0.1395  1.0663  0.6670
 5033SOL     OW16820   4.789   6.690   7.292  0.4231  0.1248 -0.1123
 5033SOL    HW116821   4.714   6.737   7.330  0.6510  0.0641  0.4287
 5033SOL    HW216822   4.864   6.747   7.308  0.2157  1.2211 -2.5828
 5034SOL     OW16823   4.138   8.584   4.397 -0.6569  0.0380 -0.6850
 5034SOL    HW116824   4.151   8.601   4.303 -0.0308 -1.3235 -0.8700
 5034SOL    HW216825   4.227   8.578   4.432 -0.8698 -0.5962 -0.2327
 5035SOL     OW16826   7.882   7.717   6.403 -0.2129  0.0912 -0.2674
 5035SOL    HW116827   7.833   7.704   6.322 -1.0437  1.8913 -0.1179
 5035SOL    HW216828   7.814   7.730   6.470  0.4621  0.2812  0.3964
 5036SOL     OW16829   1.174   5.972   8.844 -0.3048  0.4259 -0.4124
 5036SOL    HW116830   1.178   6.034   8.917 -1.0358 -0.4833  0.4206
 5036SOL    HW216831   1.097   5.997   8.794 -0.7391  0.0513  0.0624
 5037SOL     OW16832   2.917   5.910   0.600  0.5304  0.3499  0.1958
 5037SOL    HW116833   2.998   5.877   0.561  0.7376  1.1708 -0.0955
 5037SOL    HW216834   2.920   6.004   0.585 -0.9104  0.2988 -0.6456
 5038SOL     OW16835   1.897   9.116   4.563  0.8696 -0.1131 -0.1698
 5038SOL    HW116836   1.949   9.083   4.637 -1.3579 -2.2165  0.5677
 5038SOL    HW216837   1.858   9.197   4.596 -0.8545 -1.5007  1.4199
 5039SOL     OW16838   5.112   1.777   6.201 -0.4817 -0.0443 -0.1073
 5039SOL    HW116839   5.095   1.871   6.198 -0.2019 -0.0029 -0.4658
 5039SOL    HW216840   5.207   1.770   6.211 -0.2872 -0.2969 -1.8160
 5040SOL     OW16841   5.648   2.567   3.419  0.1548  0.2693  0.3357
 5040SOL    HW116842   5.700   2.581   3.498 -1.1708  0.0009  1.2911
 5040SOL    HW216843   5.665   2.476   3.396  1.2577  0.6039 -0.2494
 5041SOL     OW16844   6.957   1.564   5.732 -0.3350  0.1462  0.3940
 5041SOL    HW116845   7.009   1.484   5.722  0.8072  0.7795  0.9978
 5041SOL    HW216846   6.919   1.579   5.645 -1.1446 -1.4209  0.4525
 5042SOL     OW16847   2.160   6.800   1.745  0.0975  0.0993  0.1116
 5042SOL    HW116848   2.072   6.785   1.781  0.8271  1.2949  2.6152
 5042SOL    HW216849   2.220   6.770   1.814  1.6075  1.8943 -0.3386
 5043SOL     OW16850   1.595   2.923   3.263 -0.0232  0.3672 -0.0842
 5043SOL    HW116851   1.591   2.827   3.269 -1.4153  0.4381  0.4343
 5043SOL    HW216852   1.514   2.953   3.303  0.8947  1.8257  0.7704
 5044SOL     OW16853   1.848   7.513   0.260 -0.0713 -0.3584 -0.0456
 5044SOL    HW116854   1.888   7.478   0.180  3.3474  0.2213  1.2406
 5044SOL    HW216855   1.883   7.458   0.330  1.5308  2.4633  1.5474
 5045SOL     OW16856   4.923   7.499   7.691  0.0341 -0.4116 -0.1535
 5045SOL    HW116857   4.839   7.499   7.645  0.2524 -0.3154 -0.5549
 5045SOL    HW216858   4.952   7.407   7.688  0.4866 -0.2487 -1.0217
 5046SOL     OW16859   7.744   5.018   6.494 -0.6064  0.4105 -0.0976
 5046SOL    HW116860   7.692   4.986   6.421 -0.4418 -2.6140  0.9698
 5046SOL    HW216861   7.699   5.098   6.522 -1.1442  1.1724 -2.9100
 5047SOL     OW16862   4.985   0.352   7.958  0.0303 -0.2747 -0.1935
 5047SOL    HW116863   4.968   0.322   7.869  0.9690 -1.4067 -0.0253
 5047SOL    HW216864   5.068   0.400   7.952  0.8443 -1.5412  0.2532
 5048SOL     OW16865   8.412   2.429   7.508 -0.7704 -0.3739  0.2353
 5048SOL    HW116866   8.384   2.463   7.423 -2.2134 -0.3426  0.7125
 5048SOL    HW216867   8.366   2.482   7.572  0.7286 -0.0325  1.0900
 5049SOL     OW16868   5.750   4.577   4.756 -0.2303 -0.0093  0.3161
 5049SOL    HW116869   5.782   4.613   4.673 -0.4869  0.3508  0.3692
 5049SOL    HW216870   5.668   4.533   4.733  0.1265 -0.6406  0.2369
 5050SOL     OW16871   9.056   9.559   3.422 -0.0795 -0.4188 -0.1257
 5050SOL    HW116872   9.023   9.472   3.447  0.1835 -0.4205  0.2376
 5050SOL    HW216873   9.123   9.541   3.356 -0.7427 -0.4190 -0.8081
 5051SOL     OW16874   6.329   5.274   7.346 -0.0292  0.0314 -0.4535
 5051SOL    HW116875   6.347   5.320   7.264  0.4768  1.0026  0.1810
 5051SOL    HW216876   6.236   5.291   7.362 -0.8704 -2.3349 -2.1041
 5052SOL     OW16877   9.120   9.053   3.378  0.3258 -0.5308  0.4562
 5052SOL    HW116878   9.169   9.011   3.448  0.9938 -0.0959  0.2541
 5052SOL    HW216879   9.179   9.119   3.343 -0.2255 -0.3294 -0.1167
 5053SOL     OW16880   2.287   8.184   4.854 -0.0261  0.6003 -0.3058
 5053SOL    HW116881   2.318   8.109   4.803 -0.8741  0.0740 -0.0651
 5053SOL    HW216882   2.328   8.173   4.940 -1.1797 -0.3280  0.1460
 5054SOL     OW16883   0.999   2.483   6.435 -0.5267 -0.1229  0.3316
 5054SOL    HW116884   1.068   2.548   6.448  0.6569 -1.3192  0.1703
 5054SOL    HW216885   1.045   2.402   6.415 -2.0122 -0.7169 -0.8936
 5055SOL     OW16886   6.501   5.240   2.546 -0.5394 -0.8466  0.6898
 5055SOL    HW116887   6.470   5.251   2.636 -0.1490  0.1232  0.7254
 5055SOL    HW216888   6.473   5.320   2.501 -0.9758 -1.4419 -0.1358
 5056SOL     OW16889   4.955   1.861   8.993 -0.3051 -0.6075  0.1554
 5056SOL    HW116890   4.962   1.770   8.964 -1.7873 -0.9168  0.6850
 5056SOL    HW216891   4.864   1.870   9.022  0.0247  0.8325  0.8313
 5057SOL     OW16892   8.866   2.686   3.958  0.7329  0.4660  0.1390
 5057SOL    HW116893   8.891   2.748   3.889 -0.9743  2.7396  1.4289
 5057SOL    HW216894   8.909   2.720   4.037  1.7109 -1.4246  0.4723
 5058SOL     OW16895   0.089   5.912   3.674  0.0686  0.3063  0.2923
 5058SOL    HW116896   0.086   6.000   3.710  0.7434 -0.0168  1.1757
 5058SOL    HW216897   0.061   5.855   3.746  1.2708 -0.3329  0.2828
 5059SOL     OW16898   1.551   5.283   2.113  0.2043  0.9790  0.2370
 5059SOL    HW116899   1.557   5.241   2.198 -1.0374 -2.4663 -1.1863
 5059SOL    HW216900   1.635   5.265   2.071  0.6286  2.2358  0.5093
 5060SOL     OW16901   4.244   5.328   4.733 -0.0790  0.0028 -0.3123
 5060SOL    HW116902   4.325   5.277   4.730 -0.1114 -0.3159  2.2919
 5060SOL    HW216903   4.176   5.264   4.751 -0.8091  0.4113 -1.5130
 5061SOL     OW16904   4.029   9.685   0.824 -0.6637  0.4314  0.3309
 5061SOL    HW116905   3.987   9.666   0.908 -0.9188 -1.4385 -0.1803
 5061SOL    HW216906   3.959   9.726   0.772 -0.9931  0.0323  0.4581
 5062SOL     OW16907   8.792   4.137   4.136 -0.2424  0.0818  0.4454
 5062SOL    HW116908   8.844   4.176   4.066 -0.1319 -0.3607  0.2749
 5062SOL    HW216909   8.853   4.080   4.183 -0.8024 -1.2984 -0.4315
 5063SOL     OW16910   2.253   0.744   2.757 -0.2008 -0.1997  0.0942
 5063SOL    HW116911   2.323   0.763   2.695 -1.2362 -1.1839 -1.4807
 5063SOL    HW216912   2.184   0.807   2.735 -1.9867 -2.7556 -2.3173
 5064SOL     OW16913   5.828   2.282   3.843 -0.0873  0.2096  0.5392
 5064SOL    HW116914   5.765   2.330   3.897 -0.4689  0.4065 -0.0759
 5064SOL    HW216915   5.839   2.198   3.888 -1.3290 -0.1103  0.2750
 5065SOL     OW16916   3.914   7.289   1.932 -0.0259 -0.7572 -0.5108
 5065SOL    HW116917   3.919   7.366   1.988 -1.3780  0.9535 -2.6129
 5065SOL    HW216918   3.825   7.255   1.945 -0.0689 -0.8376 -0.9876
 5066SOL     OW16919   6.263   4.175   0.290  0.1530  0.1053  0.1577
 5066SOL    HW116920   6.276   4.142   0.201  2.0714 -2.0137  1.1266
 5066SOL    HW216921   6.183   4.132   0.320 -0.7702  1.1977 -0.6533
 5067SOL     OW16922   2.699   8.965   9.471  0.5507  0.0194 -0.3214
 5067SOL    HW116923   2.635   8.954   9.401 -1.5236  0.1983  1.4097
 5067SOL    HW216924   2.768   8.902   9.451 -0.8060 -1.1454 -1.6172
 5068SOL     OW16925   6.099   3.473   4.393  0.2551 -0.0150 -0.4051
 5068SOL    HW116926   6.075   3.460   4.301 -1.1524 -0.7545  0.0337
 5068SOL    HW216927   6.016   3.485   4.438  0.7618 -1.5662  1.0505
 5069SOL     OW16928   5.051   7.443   1.495  0.2404  0.4954 -0.1455
 5069SOL    HW116929   5.071   7.533   1.470 -2.5564  0.7488 -1.9123
 5069SOL    HW216930   4.985   7.451   1.564 -1.2933 -0.1238 -1.4773
 5070SOL     OW16931   9.072   0.965   9.488  0.4519 -0.3568  0.2139
 5070SOL    HW116932   9.065   0.877   9.451 -0.8260 -0.2321  0.1060
 5070SOL    HW216933   8.982   0.988   9.510  0.9218  0.4704  1.3208
 5071SOL     OW16934   9.328   9.695   8.024 -0.2315  0.2524 -0.0506
 5071SOL    HW116935   9.340   9.707   8.119 -0.6797 -1.3910  0.2476
 5071SOL    HW216936   9.348   9.603   8.009 -2.2035 -0.0398 -1.2007
 5072SOL     OW16937   6.799   8.050   5.334  0.2075  0.1964  0.4743
 5072SOL    HW116938   6.828   8.133   5.298  0.8694 -0.3130 -0.1836
 5072SOL    HW216939   6.878   8.009   5.369  0.3607 -1.1991 -1.3323
 5073SOL     OW16940   6.759   7.572   3.614  0.2994 -0.6829  0.2591
 5073SOL    HW116941   6.712   7.648   3.649 -0.2695 -0.6374 -0.5443
 5073SOL    HW216942   6.737   7.501   3.674  1.9135  0.0438  1.7852
 5074SOL     OW16943   2.257   0.630   3.141 -0.3367 -0.1165 -0.3653
 5074SOL    HW116944   2.305   0.600   3.064 -0.6328 -2.2674  0.2092
 5074SOL    HW216945   2.241   0.723   3.125  3.0357  0.4571 -1.0517
 5075SOL     OW16946   8.755   2.152   3.446 -0.5652  0.3497 -0.5442
 5075SOL    HW116947   8.718   2.201   3.520  1.3331  1.9836 -0.5690
 5075SOL    HW216948   8.712   2.067   3.450 -1.9139  1.0297  1.2854
 5076SOL     OW16949   6.045   0.697   6.472  0.0460  0.1338 -0.2685
 5076SOL    HW116950   5.963   0.735   6.502  0.1236  0.5342 -0.5640
 5076SOL    HW216951   6.098   0.771   6.446  0.5083 -0.1248 -0.0709
 5077SOL     OW16952   6.348   3.054   0.501  0.0766  0.1850  0.0738
 5077SOL    HW116953   6.270   3.055   0.557 -0.2748  0.4647 -0.4099
 5077SOL    HW216954   6.370   3.146   0.488  0.2045  0.1203 -0.1781
 5078SOL     OW16955   4.378   6.015   6.379 -0.5945 -0.4299  0.5546
 5078SOL    HW116956   4.408   6.032   6.469 -1.1328 -3.1623  1.3402
 5078SOL    HW216957   4.306   6.077   6.366  0.4569  1.0464  1.4116
 5079SOL     OW16958   5.779   1.193   8.926  0.2004 -0.0425  0.0718
 5079SOL    HW116959   5.855   1.248   8.907  0.4266  0.6820  2.6648
 5079SOL    HW216960   5.706   1.254   8.937 -0.0021 -0.4048  0.8757
 5080SOL     OW16961   1.729   2.611   8.623 -0.4198 -0.3141  0.5392
 5080SOL    HW116962   1.679   2.612   8.541 -1.2811 -0.0486  1.0548
 5080SOL    HW216963   1.662   2.610   8.692  0.2725  0.6789  1.2543
 5081SOL     OW16964   3.905   1.782   8.113 -0.5759  0.2099 -0.5977
 5081SOL    HW116965   3.814   1.806   8.130 -0.9099 -0.1083 -1.8786
 5081SOL    HW216966   3.907   1.759   8.020  0.3808 -1.7062 -0.1610
 5082SOL     OW16967   4.916   5.217   1.848 -0.3184  0.2763 -0.3037
 5082SOL    HW116968   4.878   5.165   1.918 -0.1850 -2.0000 -1.7922
 5082SOL    HW216969   4.842   5.264   1.809 -0.9052 -0.7620 -0.4764
 5083SOL     OW16970   9.217   7.871   4.847  0.0610  0.2017  0.0690
 5083SOL    HW116971   9.281   7.893   4.779 -0.1072 -1.3278 -0.6329
 5083SOL    HW216972   9.174   7.792   4.814 -0.1990 -0.4428  1.8451
 5084SOL     OW16973   2.712   2.716   4.765  0.4147 -0.2536 -0.0841
 5084SOL    HW116974   2.703   2.648   4.831  3.6890 -0.5694  0.1896
 5084SOL    HW216975   2.653   2.689   4.695 -0.9806 -1.4381  1.4652
 5085SOL     OW16976   3.314   1.847   8.728 -0.1897 -0.0131 -0.2868
 5085SOL    HW116977   3.282   1.863   8.817 -0.5202 -0.5251 -0.3121
 5085SOL    HW216978   3.398   1.804   8.740 -0.6222 -0.8599 -0.2124
 5086SOL     OW16979   0.242   4.277   6.763 -0.1041 -0.0214 -0.1683
 5086SOL    HW116980   0.165   4.329   6.788  0.0586  0.2707 -0.2671
 5086SOL    HW216981   0.225   4.250   6.673 -0.3082 -0.3629 -0.0287
 5087SOL     OW16982   5.698   0.929   8.371  0.8679  0.4978 -0.4425
 5087SOL    HW116983   5.637   0.921   8.298  0.8213 -1.6580 -0.2309
 5087SOL    HW216984   5.648   0.974   8.440 -0.4815 -1.1529 -0.2999
 5088SOL     OW16985   6.249   3.309   0.478 -0.5005  0.5522 -0.5082
 5088SOL    HW116986   6.262   3.345   0.566  1.7787 -2.3219  0.5289
 5088SOL    HW216987   6.154   3.299   0.470 -0.7378 -0.7877  2.4766
 5089SOL     OW16988   6.555   3.121   2.206  0.3313  0.4816  0.2554
 5089SOL    HW116989   6.571   3.151   2.296  2.3953 -0.0709  0.1182
 5089SOL    HW216990   6.639   3.132   2.162  0.0535 -1.6293 -0.9311
 5090SOL     OW16991   7.358   8.172   0.397 -0.0666  0.9147  0.2809
 5090SOL    HW116992   7.293   8.189   0.329  0.6718  1.3483 -0.3351
 5090SOL    HW216993   7.441   8.165   0.349  0.0552 -1.9586  0.7683
 5091SOL     OW16994   2.813   3.123   6.330 -0.4797 -0.5105 -0.0236
 5091SOL    HW116995   2.760   3.069   6.271 -0.7214  0.5751 -0.8164
 5091SOL    HW216996   2.753   3.191   6.360  0.5679  1.0488 -1.3393
 5092SOL     OW16997   1.218   0.404   4.648 -0.0758 -0.0364  0.2221
 5092SOL    HW116998   1.300   0.419   4.601  0.6468 -0.6736  1.2523
 5092SOL    HW216999   1.163   0.357   4.585  0.2040  0.6967 -0.5925
 5093SOL     OW17000   9.379   6.820   0.222 -0.8591 -0.1983 -0.1832
 5093SOL    HW117001   9.396   6.890   0.158  1.1412 -1.7726 -1.5251
 5093SOL    HW217002   9.390   6.862   0.307  0.9826  1.0256 -0.9581
 5094SOL     OW17003   0.973   5.473   7.215 -0.2391  0.0165 -0.1309
 5094SOL    HW117004   0.999   5.461   7.123 -2.6628 -3.0013 -0.5943
 5094SOL    HW217005   1.032   5.416   7.264  1.2067  1.8014  0.3381
 5095SOL     OW17006   7.144   9.622   3.503  0.1740 -0.4519 -0.6709
 5095SOL    HW117007   7.169   9.661   3.587  2.8272 -2.6019 -0.3388
 5095SOL    HW217008   7.181   9.682   3.437  1.5669 -0.7730 -0.2144
 5096SOL     OW17009   0.011   1.668   4.956 -0.2161 -0.0876 -0.3872
 5096SOL    HW117010   0.074   1.691   5.025 -1.9507 -0.5887  1.4708
 5096SOL    HW217011  -0.047   1.743   4.951 -0.3077 -0.2013 -1.0721
 5097SOL     OW17012   7.349   4.060   7.851 -0.1175 -0.2743  0.0861
 5097SOL    HW117013   7.255   4.055   7.831 -0.6579  0.5787  2.1513
 5097SOL    HW217014   7.374   4.150   7.830 -0.1826 -0.0173  1.0371
 5098SOL     OW17015   0.146   7.778   5.504 -0.4793  0.1880 -0.3820
 5098SOL    HW117016   0.171   7.711   5.569 -1.2188 -0.2301 -0.5155
 5098SOL    HW217017   0.050   7.778   5.506 -0.4943  0.6708 -0.9751
 5099SOL     OW17018   1.493   5.523   1.695  0.3194  0.1363 -0.3194
 5099SOL    HW117019   1.422   5.461   1.711  0.0620 -0.2701 -2.7824
 5099SOL    HW217020   1.533   5.535   1.782 -0.0368 -2.9319  0.4143
 5100SOL     OW17021   6.827   0.779   7.232 -0.6034 -0.3476  0.1561
 5100SOL    HW117022   6.773   0.700   7.238 -0.1268 -0.6725  0.2584
 5100SOL    HW217023   6.906   0.750   7.185 -0.6533  0.1906 -0.2632
 5101SOL     OW17024   0.357   4.538   9.080 -0.6642 -0.0560  0.0541
 5101SOL    HW117025   0.392   4.449   9.079 -0.1699  0.0005  2.8112
 5101SOL    HW217026   0.385   4.573   9.165 -1.6477  2.4145 -0.5519
 5102SOL     OW17027   8.427   7.500   0.353  0.0757  0.1171 -0.4411
 5102SOL    HW117028   8.495   7.563   0.330 -0.5342  0.5045 -1.1959
 5102SOL    HW217029   8.470   7.414   0.342  0.2174  0.3311 -1.6965
 5103SOL     OW17030   8.121   0.224   0.258 -0.0634 -0.3953 -0.1753
 5103SOL    HW117031   8.075   0.140   0.257 -0.6151 -0.0850 -0.9280
 5103SOL    HW217032   8.212   0.201   0.235  0.6407 -1.2474  2.9646
 5104SOL     OW17033   7.373   2.143   2.597  0.1446  0.3013  0.0820
 5104SOL    HW117034   7.434   2.136   2.671 -1.4164  0.6239  1.4380
 5104SOL    HW217035   7.340   2.232   2.601 -2.4794 -0.6374  1.0980
 5105SOL     OW17036   3.965   7.504   4.973 -0.3347 -0.3143  0.1719
 5105SOL    HW117037   3.878   7.538   4.951  0.0630  0.9410  0.4548
 5105SOL    HW217038   3.960   7.487   5.067 -0.2437 -0.1325  0.2101
 5106SOL     OW17039   2.032   1.682   5.677 -0.7098 -0.2328 -0.3981
 5106SOL    HW117040   2.059   1.592   5.694  0.5030 -0.1307 -1.6085
 5106SOL    HW217041   2.054   1.729   5.757  2.5656 -0.2275 -1.1567
 5107SOL     OW17042   8.068   5.140   4.358 -0.1567 -0.1510 -0.5408
 5107SOL    HW117043   8.145   5.194   4.339 -0.1579  0.2119  0.4203
 5107SOL    HW217044   8.103   5.065   4.407 -0.5354  0.6527  1.0338
 5108SOL     OW17045   2.297   0.191   2.330 -0.2512  0.0138  0.0721
 5108SOL    HW117046   2.255   0.191   2.416 -1.9019 -0.2548 -0.6991
 5108SOL    HW217047   2.368   0.128   2.338 -1.2572 -1.0496  0.8394
 5109SOL     OW17048   0.405   9.058   8.620  0.2746 -0.2739  0.2978
 5109SOL    HW117049   0.466   9.105   8.676 -0.9788 -0.2262  1.6810
 5109SOL    HW217050   0.347   9.126   8.586 -0.2591 -0.5637  0.6257
 5110SOL     OW17051   5.997   7.834   6.968  0.1814 -0.6214 -0.6436
 5110SOL    HW117052   6.073   7.802   7.015  0.4307 -1.7740 -1.7714
 5110SOL    HW217053   5.997   7.785   6.885 -1.6190 -0.4671 -0.7910
 5111SOL     OW17054   6.323   2.550   9.123 -0.3264  0.3667  0.2361
 5111SOL    HW117055   6.378   2.623   9.150  2.2908 -0.9728 -1.1185
 5111SOL    HW217056   6.268   2.587   9.054 -0.8953  1.6403  1.3318
 5112SOL     OW17057   9.070   6.353   0.169  0.8182  0.1696  0.1755
 5112SOL    HW117058   8.981   6.317   0.161  0.3593  1.1668  0.6506
 5112SOL    HW217059   9.115   6.291   0.226  1.2155 -1.6982 -2.0267
 5113SOL     OW17060   5.414   3.387   9.149 -0.1355  0.4139 -0.0646
 5113SOL    HW117061   5.334   3.381   9.098 -0.2174  1.1192 -0.0280
 5113SOL    HW217062   5.482   3.351   9.092 -0.6334 -1.1818  0.3019
 5114SOL     OW17063   3.083   0.947   7.937  0.3544 -0.3123 -0.4309
 5114SOL    HW117064   3.075   1.007   8.012 -0.3317 -0.2098 -0.5780
 5114SOL    HW217065   3.073   0.860   7.976 -3.2692 -0.1779 -0.7429
 5115SOL     OW17066   5.040   4.718   5.525  0.5234  0.2886  0.5211
 5115SOL    HW117067   5.039   4.788   5.460 -1.4777 -0.4165 -0.2990
 5115SOL    HW217068   4.992   4.753   5.600 -0.4725 -0.1566  0.1139
 5116SOL     OW17069   5.586   0.985   5.412  0.1007  0.7274  0.6120
 5116SOL    HW117070   5.621   1.057   5.464  2.0295  2.4193 -2.6731
 5116SOL    HW217071   5.543   1.028   5.338  0.3902 -1.4921 -0.9520
 5117SOL     OW17072   5.676   6.108   1.439 -0.0718  0.2600  0.3049
 5117SOL    HW117073   5.670   6.034   1.379 -1.3267  0.9220 -0.4309
 5117SOL    HW217074   5.745   6.083   1.501  0.2853 -1.0374 -0.5684
 5118SOL     OW17075   1.908   2.009   5.858  0.5282 -0.0461 -0.1012
 5118SOL    HW117076   2.003   2.012   5.847  0.6329  1.4093  0.9421
 5118SOL    HW217077   1.873   2.030   5.771  1.1858  0.6810 -0.2039
 5119SOL     OW17078   5.650   3.066   0.385  0.2094 -0.3029  0.2337
 5119SOL    HW117079   5.567   3.088   0.426  0.6585  1.4082  0.3068
 5119SOL    HW217080   5.691   3.004   0.445 -0.6984 -0.6224  0.5416
 5120SOL     OW17081   6.619   1.871   9.400  0.2430 -0.1571  0.2326
 5120SOL    HW117082   6.607   1.911   9.486  3.1753  0.9491  0.2339
 5120SOL    HW217083   6.632   1.778   9.419  0.3763  0.0000  0.9454
 5121SOL     OW17084   5.042   4.790   6.706  0.1153 -0.3310 -0.1113
 5121SOL    HW117085   5.094   4.709   6.714 -1.4177 -1.1936  2.5005
 5121SOL    HW217086   4.951   4.761   6.718 -0.6328  1.5858 -0.8380
 5122SOL     OW17087   1.316   7.161   0.700  0.2986 -0.1865 -0.2389
 5122SOL    HW117088   1.248   7.112   0.745 -0.0263  0.8556  0.4418
 5122SOL    HW217089   1.391   7.159   0.759  0.1146  0.5579  0.0261
 5123SOL     OW17090   7.540   7.745   0.534 -0.7008  0.5709 -0.0523
 5123SOL    HW117091   7.591   7.701   0.466  0.4938  1.7729  0.0162
 5123SOL    HW217092   7.452   7.752   0.498 -0.4148 -0.0260 -0.8990
 5124SOL     OW17093   7.595   9.701   4.101  0.7008  0.0131 -0.3640
 5124SOL    HW117094   7.630   9.672   4.017  0.2798 -0.0432 -0.5256
 5124SOL    HW217095   7.669   9.698   4.161  1.3276  1.3552 -1.0318
 5125SOL     OW17096   5.164   4.479   3.674  0.2349 -0.5475  0.0793
 5125SOL    HW117097   5.208   4.448   3.752 -0.4888 -1.5501  0.1189
 5125SOL    HW217098   5.167   4.575   3.680  0.9207 -0.6123  0.8941
 5126SOL     OW17099   0.608   7.564   0.490  0.2642  0.1485  0.2426
 5126SOL    HW117100   0.628   7.641   0.543  1.8409 -0.1814  0.1727
 5126SOL    HW217101   0.623   7.490   0.549 -1.4215 -0.1385  0.3688
 5127SOL     OW17102   4.993   8.328   6.935 -0.0722 -0.5822  0.5314
 5127SOL    HW117103   4.920   8.336   6.997 -0.5689 -0.8121 -0.0190
 5127SOL    HW217104   5.011   8.234   6.933  1.3797 -0.3862  1.9537
 5128SOL     OW17105   1.052   3.883   2.355  0.6568  0.2246 -0.3579
 5128SOL    HW117106   1.003   3.882   2.437  0.3932 -1.8154 -0.4940
 5128SOL    HW217107   0.998   3.934   2.295  0.1489  0.5042  0.3198
 5129SOL     OW17108   7.646   6.613   8.624  0.1639 -0.4392 -0.9391
 5129SOL    HW117109   7.688   6.567   8.551  1.3898  1.1894 -1.3328
 5129SOL    HW217110   7.555   6.621   8.598  0.2970 -1.0905 -1.6544
 5130SOL     OW17111   1.103   2.508   7.011  0.3193  0.0449 -0.4072
 5130SOL    HW117112   1.193   2.515   7.044  0.5742  0.1599 -1.1071
 5130SOL    HW217113   1.057   2.583   7.047  0.0455 -0.9019  1.3347
 5131SOL     OW17114   8.822   8.563   3.736 -0.4013  0.3320 -0.8166
 5131SOL    HW117115   8.830   8.536   3.644 -0.4493 -0.1607 -0.6785
 5131SOL    HW217116   8.755   8.505   3.772 -0.1339  0.2891 -0.3813
 5132SOL     OW17117   5.519   7.759   5.368  0.2493 -0.0781 -0.4080
 5132SOL    HW117118   5.586   7.801   5.313  0.3445 -1.3190 -1.2706
 5132SOL    HW217119   5.557   7.758   5.456  1.2297 -0.4602 -0.8264
 5133SOL     OW17120   0.236   7.524   2.585 -0.8020 -0.0502  0.7712
 5133SOL    HW117121   0.250   7.436   2.619  0.6032 -0.4039 -0.6022
 5133SOL    HW217122   0.152   7.520   2.539  0.0603 -1.2070 -0.7994
 5134SOL     OW17123   7.719   7.654   2.281 -0.1919  0.6350  0.4814
 5134SOL    HW117124   7.656   7.616   2.342 -0.0423  0.9692  0.8445
 5134SOL    HW217125   7.683   7.741   2.261  0.7485  1.3133  1.6182
 5135SOL     OW17126   2.891   4.911   5.669 -0.2635 -0.2332 -0.3194
 5135SOL    HW117127   2.909   4.987   5.615 -0.7846 -0.6794 -1.1451
 5135SOL    HW217128   2.805   4.880   5.639 -1.5178  0.6411  2.0809
 5136SOL     OW17129   9.020   6.782   6.567  0.0063  0.6411  0.1506
 5136SOL    HW117130   9.007   6.693   6.535  1.4320  0.2417  0.6052
 5136SOL    HW217131   9.039   6.834   6.489 -1.5192  0.7077 -0.1974
 5137SOL     OW17132   3.567   5.880   0.928 -0.6409 -0.1443 -0.0406
 5137SOL    HW117133   3.495   5.939   0.950 -0.3842 -0.0558  0.5855
 5137SOL    HW217134   3.547   5.850   0.839 -1.2841  0.1183  0.0088
 5138SOL     OW17135   9.451   6.251   9.488 -0.0670 -0.1129  0.0833
 5138SOL    HW117136   9.409   6.173   9.453  0.3744 -0.6114  0.6588
 5138SOL    HW217137   9.522   6.270   9.426  0.3660 -0.6739  0.3965
 5139SOL     OW17138   8.708   7.346   2.815  0.0873 -0.2074 -0.6678
 5139SOL    HW117139   8.641   7.287   2.850  1.5827 -0.5858  1.7728
 5139SOL    HW217140   8.688   7.431   2.854  0.8616 -0.2763 -0.0883
 5140SOL     OW17141   7.673   6.785   5.257 -0.1153  0.4512  0.1213
 5140SOL    HW117142   7.684   6.730   5.334  0.8183  1.1872  0.5427
 5140SOL    HW217143   7.673   6.875   5.292 -1.3802  0.7334 -0.5627
 5141SOL     OW17144   0.037   1.202   6.192 -0.1079  0.3810 -0.2371
 5141SOL    HW117145   0.028   1.273   6.255  1.5734  1.0142 -0.6686
 5141SOL    HW217146   0.131   1.184   6.190 -0.1056  0.4231 -2.6103
 5142SOL     OW17147   7.947   4.365   3.505  0.0444 -0.1800  1.0710
 5142SOL    HW117148   7.865   4.397   3.543 -1.9358 -2.5888 -0.8068
 5142SOL    HW217149   7.960   4.279   3.544  0.7592 -0.5143  0.1395
 5143SOL     OW17150   5.807   7.598   0.118  0.2263 -0.1623 -0.1934
 5143SOL    HW117151   5.759   7.617   0.038  1.9215  0.0062 -1.2102
 5143SOL    HW217152   5.815   7.683   0.162  2.1540  0.4236 -1.5316
 5144SOL     OW17153   3.775   5.249   0.749 -0.2010 -0.1362  0.1616
 5144SOL    HW117154   3.705   5.205   0.701 -1.1585 -0.5082  1.8253
 5144SOL    HW217155   3.750   5.342   0.749 -0.0623 -0.0947 -0.2454
 5145SOL     OW17156   5.786   0.952   0.279 -0.1820  0.1264 -0.3452
 5145SOL    HW117157   5.825   0.906   0.354 -0.5293 -0.1804 -0.3505
 5145SOL    HW217158   5.810   1.044   0.293  1.6350 -0.1910 -1.0206
 5146SOL     OW17159   5.958   2.248   2.452 -0.3853 -0.5598 -0.0307
 5146SOL    HW117160   5.904   2.169   2.461 -0.7786 -0.2448  0.3903
 5146SOL    HW217161   6.046   2.220   2.478 -0.7476 -0.5870  1.2437
 5147SOL     OW17162   2.907   9.656   9.655  0.7076  0.5763  0.1543
 5147SOL    HW117163   2.848   9.668   9.581  2.5481  1.7383 -1.2253
 5147SOL    HW217164   2.979   9.603   9.619 -0.3270 -2.5919  2.3133
 5148SOL     OW17165   7.779   5.182   9.296 -0.5856 -0.2163 -0.1139
 5148SOL    HW117166   7.812   5.253   9.242 -0.8682  0.7230  0.9226
 5148SOL    HW217167   7.768   5.109   9.235 -0.3699  0.6432 -1.2106
 5149SOL     OW17168   1.707   8.936   4.461  0.3794 -0.0557  0.2806
 5149SOL    HW117169   1.696   8.911   4.553  1.1388 -0.9059  0.1489
 5149SOL    HW217170   1.778   9.000   4.461  0.3746 -0.0502  0.2778
 5150SOL     OW17171   6.070   3.734   0.418  0.8520  0.4183 -0.2184
 5150SOL    HW117172   6.141   3.735   0.482  1.6329 -3.2561 -0.7839
 5150SOL    HW217173   5.992   3.711   0.469  1.4272 -2.2490 -0.4089
 5151SOL     OW17174   4.598   8.976   3.777 -0.3855 -0.1056 -0.0889
 5151SOL    HW117175   4.642   8.922   3.711  0.8292 -0.5008  0.9980
 5151SOL    HW217176   4.566   9.052   3.729  0.9259 -0.1283 -1.0452
 5152SOL     OW17177   4.550   8.538   4.217  0.1863  0.0043  0.1939
 5152SOL    HW117178   4.574   8.445   4.223 -0.8104 -0.2576  0.2735
 5152SOL    HW217179   4.511   8.559   4.301  2.2420  1.0739  0.9511
 5153SOL     OW17180   1.287   5.867   6.450  0.7031  0.2208  0.1617
 5153SOL    HW117181   1.231   5.944   6.450 -0.3839 -0.5440  0.8849
 5153SOL    HW217182   1.325   5.865   6.538  1.8384  0.6880 -0.2964
 5154SOL     OW17183   5.245   3.844   2.710  0.4090  0.2144 -0.9767
 5154SOL    HW117184   5.187   3.796   2.769  0.0891  0.3460 -1.1790
 5154SOL    HW217185   5.192   3.918   2.679  0.8143  0.5544 -0.8623
 5155SOL     OW17186   4.247   4.003   3.784 -0.4691  0.2388 -0.5535
 5155SOL    HW117187   4.177   3.979   3.724 -2.2830  1.0584  1.1114
 5155SOL    HW217188   4.299   4.068   3.737 -1.2118  0.0973 -1.5963
 5156SOL     OW17189   3.204   0.383   6.372  0.1127  0.0018  0.2669
 5156SOL    HW117190   3.278   0.388   6.311 -0.8477  0.1583 -0.9086
 5156SOL    HW217191   3.198   0.290   6.394 -1.3911 -0.5842 -2.2794
 5157SOL     OW17192   4.445   7.815   5.834 -0.0821 -0.1537 -0.3528
 5157SOL    HW117193   4.482   7.813   5.922 -2.0482  0.8615  0.5528
 5157SOL    HW217194   4.472   7.732   5.795 -0.3756 -1.2887  1.7179
 5158SOL     OW17195   8.818   8.095   5.507  0.5568 -0.0970  0.6260
 5158SOL    HW117196   8.753   8.140   5.453  0.6882 -0.4428  0.1761
 5158SOL    HW217197   8.816   8.142   5.591 -0.6019 -0.4019  0.7815
 5159SOL     OW17198   2.105   5.419   6.612 -0.3475  0.5748 -0.3344
 5159SOL    HW117199   2.092   5.390   6.522 -0.6372 -1.7453  0.3790
 5159SOL    HW217200   2.035   5.483   6.627 -3.1638 -2.2370 -0.4967
 5160SOL     OW17201   0.857   4.917   4.420 -0.3191  0.5354  0.4164
 5160SOL    HW117202   0.946   4.939   4.450 -0.1044 -0.0861  0.2649
 5160SOL    HW217203   0.869   4.838   4.368 -0.9838  0.3788  0.4939
 5161SOL     OW17204   4.002   8.690   2.677 -0.4361 -0.1378  0.8638
 5161SOL    HW117205   4.065   8.744   2.630  0.3414 -1.9113 -0.2325
 5161SOL    HW217206   3.923   8.693   2.623 -0.3234 -0.2851  0.6918
 5162SOL     OW17207   4.937   3.444   8.441 -0.7850 -0.2232  0.3656
 5162SOL    HW117208   4.861   3.408   8.397 -0.2402  1.5055 -2.2157
 5162SOL    HW217209   4.932   3.538   8.425  2.4270 -0.1495 -0.9284
 5163SOL     OW17210   7.661   4.816   3.545 -0.3046  0.2814  0.3524
 5163SOL    HW117211   7.728   4.866   3.591  0.9520 -0.4088 -0.6274
 5163SOL    HW217212   7.583   4.822   3.600  0.5679  1.0949  1.5471
 5164SOL     OW17213   4.539   0.436   5.997  0.0083  0.2136 -0.2541
 5164SOL    HW117214   4.573   0.423   6.086  0.1968 -0.3494 -0.4064
 5164SOL    HW217215   4.495   0.521   6.001 -0.5779 -0.1105  0.5584
 5165SOL     OW17216   3.444   8.034   6.328  0.2571 -0.4333 -0.6624
 5165SOL    HW117217   3.503   8.108   6.312 -0.4304  0.3482  0.2200
 5165SOL    HW217218   3.356   8.073   6.324 -0.0866 -0.9890  0.7779
 5166SOL     OW17219   6.750   8.137   7.341  0.1720 -0.3581  0.2897
 5166SOL    HW117220   6.818   8.129   7.408  0.3510  0.9987  0.3061
 5166SOL    HW217221   6.776   8.214   7.290 -3.1486  2.5522  2.4788
 5167SOL     OW17222   7.874   0.520   3.682  0.1387  0.1335  0.6763
 5167SOL    HW117223   7.780   0.533   3.690 -0.1690 -1.1378 -0.4409
 5167SOL    HW217224   7.888   0.503   3.589  1.2549 -1.1107  1.0329
 5168SOL     OW17225   5.940   8.923   2.753 -0.1139  0.1003  0.0759
 5168SOL    HW117226   5.904   8.997   2.704 -1.3029 -1.2860 -1.2337
 5168SOL    HW217227   6.020   8.899   2.705  0.2181  0.4691  0.4423
 5169SOL     OW17228   4.654   2.709   1.519 -0.3134 -0.3011  0.6938
 5169SOL    HW117229   4.653   2.688   1.425 -0.4077 -1.2725  0.9033
 5169SOL    HW217230   4.564   2.735   1.539  0.2138  2.3500  0.0146
 5170SOL     OW17231   0.751   5.684   6.185 -0.1732  0.1035  0.3805
 5170SOL    HW117232   0.707   5.609   6.144 -1.3007  1.0717 -0.2533
 5170SOL    HW217233   0.821   5.645   6.238 -1.0007 -1.4214  0.4109
 5171SOL     OW17234   2.705   6.288   2.965 -0.2979  0.3156 -0.0317
 5171SOL    HW117235   2.787   6.240   2.946 -0.5322  0.4044 -1.4221
 5171SOL    HW217236   2.703   6.296   3.060  1.8573  1.2502 -0.0085
 5172SOL     OW17237   4.804   0.545   4.181  0.0187  0.6417  0.1306
 5172SOL    HW117238   4.870   0.613   4.194 -0.4093  0.9748  0.5972
 5172SOL    HW217239   4.846   0.483   4.121  1.4321 -0.0404  1.7152
 5173SOL     OW17240   1.444   8.749   2.313 -0.0769  0.2877 -0.6055
 5173SOL    HW117241   1.524   8.723   2.358 -0.3112 -1.0205 -0.8969
 5173SOL    HW217242   1.453   8.713   2.225 -1.2868 -0.4980 -0.4239
 5174SOL     OW17243   5.077   5.256   2.131  0.9093 -0.2596  0.1871
 5174SOL    HW117244   5.139   5.194   2.091  0.4582  0.3320 -1.5076
 5174SOL    HW217245   4.993   5.210   2.128  0.8983 -0.2688  0.6134
 5175SOL     OW17246   8.170   1.413   4.647 -0.9102 -0.2985  0.4577
 5175SOL    HW117247   8.191   1.426   4.555 -0.4465  1.6785  0.7969
 5175SOL    HW217248   8.127   1.494   4.673 -1.2017 -0.9034  1.9489
 5176SOL     OW17249   9.093   4.125   2.050 -0.2518 -0.2992 -0.2611
 5176SOL    HW117250   9.143   4.048   2.024  2.7641  1.5869 -0.6125
 5176SOL    HW217251   9.105   4.131   2.145  0.4836  0.2870 -0.3771
 5177SOL     OW17252   2.127   3.233   4.001  0.2114 -0.0027  0.0265
 5177SOL    HW117253   2.106   3.312   3.950  0.2517  0.5684  0.8741
 5177SOL    HW217254   2.147   3.266   4.088  0.7625 -0.9125  0.2535
 5178SOL     OW17255   4.651   2.062   0.028 -0.3820  0.0166 -0.1686
 5178SOL    HW117256   4.728   2.011   0.004  0.0032 -0.6421  2.2693
 5178SOL    HW217257   4.590   1.998   0.065 -1.3372  0.8176 -0.3201
 5179SOL     OW17258   6.818   8.413   5.769  0.1977 -0.3056  0.9112
 5179SOL    HW117259   6.770   8.441   5.846  0.2086  0.4586  0.6526
 5179SOL    HW217260   6.824   8.318   5.776 -1.0042 -0.3680  1.1468
 5180SOL     OW17261   8.134   8.162   3.244  0.0041  0.4726  0.1326
 5180SOL    HW117262   8.167   8.102   3.177  1.6842  0.0206  1.2700
 5180SOL    HW217263   8.213   8.205   3.278 -0.7493  0.5651  1.9021
 5181SOL     OW17264   9.590   6.567   4.907  0.3540  0.5928  0.4803
 5181SOL    HW117265   9.544   6.650   4.919 -1.3583 -0.0892 -1.0152
 5181SOL    HW217266   9.540   6.521   4.840  2.9343 -0.4254 -0.8995
 5182SOL     OW17267   7.588   2.337   4.018  0.3623  0.2891  0.6058
 5182SOL    HW117268   7.573   2.248   3.987  0.5851  0.2650  0.5672
 5182SOL    HW217269   7.662   2.330   4.079  0.0151  0.3587  1.0374
 5183SOL     OW17270   7.994   3.594   6.978 -0.2739 -0.7523  0.1255
 5183SOL    HW117271   8.080   3.592   7.020 -0.3780 -0.6345  0.3445
 5183SOL    HW217272   7.995   3.520   6.917  0.1435 -0.4861 -0.1925
 5184SOL     OW17273   4.824   1.534   1.071  0.2350  0.2234  0.1041
 5184SOL    HW117274   4.846   1.625   1.054  0.7066 -0.0325 -0.7006
 5184SOL    HW217275   4.898   1.484   1.038  0.4396 -0.4140  1.4522
 5185SOL     OW17276   0.221   0.095   5.183  0.1116  0.1567  0.0026
 5185SOL    HW117277   0.235   0.157   5.111 -1.8380  0.9896  0.2740
 5185SOL    HW217278   0.248   0.143   5.261  0.6034 -0.1178  0.0017
 5186SOL     OW17279   6.980   5.545   1.512  0.0022 -0.0379  0.7151
 5186SOL    HW117280   6.909   5.481   1.506  1.2771 -1.4914  0.3682
 5186SOL    HW217281   7.010   5.556   1.421  0.8220 -0.1890  0.9543
 5187SOL     OW17282   4.715   1.731   2.528  0.3450  0.4259 -0.7928
 5187SOL    HW117283   4.757   1.768   2.450  0.9883  1.1813 -0.0899
 5187SOL    HW217284   4.647   1.673   2.492 -0.7086  2.2543 -1.9429
 5188SOL     OW17285   0.197   0.800   0.561  0.5056 -0.1015  0.8222
 5188SOL    HW117286   0.289   0.789   0.585  0.3184  0.5731  1.9255
 5188SOL    HW217287   0.185   0.745   0.484  1.4553 -1.4254  1.5848
 5189SOL     OW17288   2.618   4.551   3.418 -0.4701  0.1543 -0.1914
 5189SOL    HW117289   2.678   4.512   3.354 -1.2831 -0.2406 -0.7319
 5189SOL    HW217290   2.638   4.506   3.500  1.2016  1.2937  0.0617
 5190SOL     OW17291   5.706   8.547   1.666 -0.1405 -0.7302  0.0136
 5190SOL    HW117292   5.751   8.564   1.584 -1.5770 -1.9069 -1.0780
 5190SOL    HW217293   5.751   8.602   1.730  2.1947 -1.1592 -1.1629
 5191SOL     OW17294   6.656   9.173   4.210 -0.4114  0.7733  0.2532
 5191SOL    HW117295   6.663   9.116   4.133 -0.9286  1.9803 -0.7087
 5191SOL    HW217296   6.693   9.256   4.181 -1.2750  1.4566  1.0820
 5192SOL     OW17297   6.469   5.705   2.254 -0.1690  0.4161  0.5603
 5192SOL    HW117298   6.519   5.690   2.174  0.1986 -1.0015  1.0343
 5192SOL    HW217299   6.536   5.725   2.320 -0.3014 -0.4475  0.9625
 5193SOL     OW17300   4.907   0.043   1.117  0.9106 -0.6122  0.0238
 5193SOL    HW117301   4.820   0.019   1.086  0.4708 -0.0252  0.7601
 5193SOL    HW217302   4.938  -0.034   1.164  1.6407 -1.5602 -1.9241
 5194SOL     OW17303   1.950   7.571   2.313 -0.1458 -0.0333  0.0269
 5194SOL    HW117304   1.933   7.536   2.225 -0.2244 -0.4922  0.2215
 5194SOL    HW217305   1.955   7.494   2.369  1.4337  0.1504  0.1891
 5195SOL     OW17306   8.603   1.695   2.201  0.4268  0.0935 -0.2625
 5195SOL    HW117307   8.605   1.656   2.114  0.0649  0.3383 -0.3838
 5195SOL    HW217308   8.540   1.767   2.194 -0.7886 -0.8553  0.6234
 5196SOL     OW17309   3.138   4.888   0.504 -0.2173 -0.5805 -0.4277
 5196SOL    HW117310   3.220   4.931   0.479 -0.3897 -1.2757 -2.3366
 5196SOL    HW217311   3.073   4.958   0.505 -0.1226 -0.4572 -1.6342
 5197SOL     OW17312   1.161   4.295   4.389 -0.0460  0.0686  0.0787
 5197SOL    HW117313   1.147   4.388   4.407 -1.7054 -0.2382  0.6606
 5197SOL    HW217314   1.242   4.273   4.434  0.7388  1.3705 -0.6546
 5198SOL     OW17315   7.558   7.870   8.628 -0.0980 -0.1848  0.0654
 5198SOL    HW117316   7.616   7.876   8.552 -1.4420 -2.1313 -1.2079
 5198SOL    HW217317   7.472   7.895   8.595 -0.6681 -0.8195  1.0109
 5199SOL     OW17318   1.298   0.233   0.224  0.7328  0.2431 -0.0046
 5199SOL    HW117319   1.360   0.173   0.264  0.5615 -0.4745 -0.7683
 5199SOL    HW217320   1.349   0.311   0.204  1.3119 -0.2035 -0.3059
 5200SOL     OW17321   1.174   8.991   2.352  0.3369  0.4941  0.1723
 5200SOL    HW117322   1.211   9.079   2.344  1.9710 -0.1727 -0.0787
 5200SOL    HW217323   1.219   8.953   2.427  1.7779 -1.0689 -1.3908
 5201SOL     OW17324   1.745   1.988   3.879  0.4295  0.8300  0.4170
 5201SOL    HW117325   1.820   1.939   3.844  0.4411  0.2691  1.1885
 5201SOL    HW217326   1.738   1.958   3.970 -0.5571  1.0871  0.4360
 5202SOL     OW17327   0.772   0.100   6.018 -1.1674 -0.5441 -0.0788
 5202SOL    HW117328   0.712   0.035   6.054 -0.8619 -0.1328  1.2298
 5202SOL    HW217329   0.718   0.152   5.959 -2.1136 -0.2317  1.0068
 5203SOL     OW17330   2.056   3.125   0.637  0.7910  0.4676 -0.1635
 5203SOL    HW117331   2.075   3.218   0.625 -0.7684  0.9975  1.1257
 5203SOL    HW217332   2.142   3.086   0.654  1.3742  1.8154  0.1660
 5204SOL     OW17333   3.649   9.415   0.459  0.1790 -0.8825 -0.3386
 5204SOL    HW117334   3.670   9.395   0.368  0.4646  0.2834 -0.5459
 5204SOL    HW217335   3.734   9.423   0.503  0.2251  1.8711 -0.7452
 5205SOL     OW17336   8.026   5.487   7.030  0.4358  1.1647 -0.6460
 5205SOL    HW117337   8.016   5.582   7.023 -0.8576  1.2551  1.5454
 5205SOL    HW217338   8.080   5.474   7.108 -0.5934  0.1221 -0.0660
 5206SOL     OW17339   3.952   0.677   4.818 -0.0040  0.4091 -0.5385
 5206SOL    HW117340   3.861   0.659   4.794 -0.2989  2.7777 -1.4758
 5206SOL    HW217341   3.990   0.716   4.740  1.8376 -0.5237 -0.1469
 5207SOL     OW17342   0.839   1.489   5.132  0.6109  0.1013 -0.7670
 5207SOL    HW117343   0.802   1.400   5.136  0.9120  0.0220  1.0731
 5207SOL    HW217344   0.765   1.544   5.106 -0.7523 -0.1567  2.1890
 5208SOL     OW17345   9.194   6.659   3.181 -0.0214 -0.2470  0.1088
 5208SOL    HW117346   9.211   6.566   3.163  0.9011  0.2148 -1.7093
 5208SOL    HW217347   9.100   6.669   3.166  0.2472 -0.4722 -2.0434
 5209SOL     OW17348   3.612   0.383   4.149  0.2569  0.9861 -0.1808
 5209SOL    HW117349   3.560   0.334   4.212  2.0655  1.1880  1.5967
 5209SOL    HW217350   3.561   0.382   4.069 -1.8243  0.0836  1.0799
 5210SOL     OW17351   7.055   8.991   7.254  0.5457  0.2556  0.4544
 5210SOL    HW117352   7.093   9.074   7.227  3.1761 -0.4491  1.7184
 5210SOL    HW217353   7.062   8.935   7.177 -1.1064  1.0849 -0.3551
 5211SOL     OW17354   1.392   0.477   3.617  0.2507 -0.1265 -0.1479
 5211SOL    HW117355   1.426   0.413   3.679  1.5369  0.2704 -0.4142
 5211SOL    HW217356   1.365   0.552   3.670  0.2007 -0.2669  0.0253
 5212SOL     OW17357   1.331   4.651   1.188 -0.6731 -0.2296  0.1000
 5212SOL    HW117358   1.247   4.666   1.144 -2.7383 -0.1301  3.7599
 5212SOL    HW217359   1.368   4.739   1.198  0.9997 -0.3910 -3.1963
 5213SOL     OW17360   9.646   7.675   6.317 -0.3012  0.1966 -0.3264
 5213SOL    HW117361   9.688   7.743   6.263 -0.8598  0.7522 -0.0679
 5213SOL    HW217362   9.673   7.695   6.406 -0.3312 -0.0246 -0.2672
 5214SOL     OW17363   1.753   1.920   2.523 -0.2157  0.1791  0.2130
 5214SOL    HW117364   1.715   1.876   2.447  2.5225 -1.5788 -0.2837
 5214SOL    HW217365   1.753   2.013   2.499 -1.2061 -0.1210 -1.0594
 5215SOL     OW17366   1.201   5.769   0.298  0.3967  0.0564  0.5633
 5215SOL    HW117367   1.222   5.707   0.228  1.5465  2.5197 -1.4468
 5215SOL    HW217368   1.244   5.734   0.376  3.3998 -0.2871 -1.1324
 5216SOL     OW17369   8.463   0.647   4.832 -0.0322  0.0126 -0.3159
 5216SOL    HW117370   8.540   0.631   4.778  0.4141  1.2365 -0.0845
 5216SOL    HW217371   8.451   0.566   4.882  0.5078 -0.5452 -1.0718
 5217SOL     OW17372   0.434   9.149   5.699  0.3727  0.0111 -0.1123
 5217SOL    HW117373   0.410   9.117   5.786  0.0202  0.1076 -0.1684
 5217SOL    HW217374   0.378   9.226   5.686  1.0346  0.5081 -0.0748
 5218SOL     OW17375   1.187   3.035   6.615  0.4384  0.3776  0.1161
 5218SOL    HW117376   1.123   2.969   6.642  0.3078  0.9524  1.2917
 5218SOL    HW217377   1.144   3.081   6.543 -0.5892  0.8876  1.0218
 5219SOL     OW17378   1.269   6.300   7.391 -0.2148  1.1711  0.2189
 5219SOL    HW117379   1.173   6.301   7.397 -0.4283  0.3591 -1.9629
 5219SOL    HW217380   1.288   6.225   7.334  1.7776  0.9353  1.1076
 5220SOL     OW17381   8.368   0.000   6.508 -0.3685  0.2112  0.2892
 5220SOL    HW117382   8.390  -0.022   6.598 -0.4368 -1.0764  0.0039
 5220SOL    HW217383   8.453   0.008   6.464 -0.3229  1.1308  0.5086
 5221SOL     OW17384   7.563   7.406   5.261  0.4824  0.0002  0.2384
 5221SOL    HW117385   7.543   7.347   5.188  1.2593  1.0853 -0.8793
 5221SOL    HW217386   7.505   7.481   5.248 -0.5308 -0.4680  1.6819
 5222SOL     OW17387   3.684   5.110   7.559 -0.4576  0.3655 -0.2275
 5222SOL    HW117388   3.648   5.127   7.646  0.7489 -0.7148  0.5249
 5222SOL    HW217389   3.752   5.045   7.574  0.3986  0.8260 -1.8624
 5223SOL     OW17390   9.054   7.178   3.245  0.1814 -0.3161  0.4834
 5223SOL    HW117391   9.004   7.211   3.170  0.0349 -1.3176  0.1274
 5223SOL    HW217392   8.994   7.189   3.319 -1.3595 -3.1313 -0.1954
 5224SOL     OW17393   3.468   1.593   7.100 -0.0527 -0.1039 -0.6026
 5224SOL    HW117394   3.553   1.552   7.116 -0.0138 -0.2734 -1.2355
 5224SOL    HW217395   3.460   1.658   7.169  0.1779 -0.7210  0.0249
 5225SOL     OW17396   1.118   7.207   3.644  0.2708 -0.3977 -0.2984
 5225SOL    HW117397   1.033   7.249   3.649  0.4616 -0.1590  2.5299
 5225SOL    HW217398   1.101   7.115   3.665  0.6721 -0.3558  0.2505
 5226SOL     OW17399   8.562   4.453   4.661  0.4418 -0.1067 -0.3641
 5226SOL    HW117400   8.654   4.431   4.674  0.5280 -0.2514 -1.1475
 5226SOL    HW217401   8.514   4.381   4.701  0.5416  1.5761  3.1488
 5227SOL     OW17402   4.292   6.864   5.669  0.0084 -0.3374 -0.0631
 5227SOL    HW117403   4.295   6.939   5.610  1.4329 -1.0822 -0.9945
 5227SOL    HW217404   4.269   6.901   5.755  1.2274  1.2337 -0.3754
 5228SOL     OW17405   2.394   9.137   3.272 -0.1240  0.0156 -0.5991
 5228SOL    HW117406   2.481   9.119   3.307 -0.2494  0.5662  0.0150
 5228SOL    HW217407   2.396   9.101   3.183  0.1032 -1.6791  0.0600
 5229SOL     OW17408   2.038   0.327   1.943 -0.2365  0.7884  0.3111
 5229SOL    HW117409   2.097   0.323   2.018  1.0127  1.2329 -0.6201
 5229SOL    HW217410   2.094   0.348   1.869 -1.5916  1.4351 -0.5798
 5230SOL     OW17411   1.269   1.492   0.654  0.2742  0.3740 -0.0985
 5230SOL    HW117412   1.273   1.573   0.604 -0.5076  0.9456  0.7244
 5230SOL    HW217413   1.256   1.424   0.588 -1.0750  1.1437 -0.6727
 5231SOL     OW17414   0.965   9.500   7.098 -0.5563 -0.3888  0.2020
 5231SOL    HW117415   0.890   9.526   7.044 -0.8900 -1.1064  0.3045
 5231SOL    HW217416   0.940   9.525   7.187  0.1291  1.0915  0.0165
 5232SOL     OW17417   7.511   6.818   8.324  0.6058 -0.4165  0.0442
 5232SOL    HW117418   7.605   6.826   8.340  1.0735 -1.7095 -1.8179
 5232SOL    HW217419   7.501   6.832   8.230 -1.1200  0.0582  0.2702
 5233SOL     OW17420   6.364   6.696   0.794  0.1037 -0.2088  0.0156
 5233SOL    HW117421   6.390   6.607   0.770  1.4890  0.3705 -0.7957
 5233SOL    HW217422   6.324   6.688   0.880 -0.1292 -1.6656 -0.2112
 5234SOL     OW17423   6.446   8.526   4.366 -0.7237  0.3253 -0.0188
 5234SOL    HW117424   6.391   8.448   4.351 -0.6585  0.6749 -2.4690
 5234SOL    HW217425   6.514   8.496   4.425 -0.1067 -1.8278 -1.6990
 5235SOL     OW17426   0.217   0.392   4.456  0.1529  0.3605  0.0493
 5235SOL    HW117427   0.252   0.311   4.494 -0.4541  0.1713  0.2208
 5235SOL    HW217428   0.265   0.403   4.374  0.3887 -0.0601  0.1294
 5236SOL     OW17429   0.908   0.654   9.249 -0.0041 -0.1528 -0.1622
 5236SOL    HW117430   0.899   0.572   9.296  0.5611  0.2524  0.6610
 5236SOL    HW217431   0.817   0.685   9.238 -0.2128 -0.8564 -0.4387
 5237SOL     OW17432   5.382   8.925   1.335  0.1006 -0.0353 -0.4208
 5237SOL    HW117433   5.427   8.844   1.312  1.2652 -0.0733  1.7530
 5237SOL    HW217434   5.384   8.977   1.254  2.0024 -0.9971 -1.0641
 5238SOL     OW17435   9.665   8.176   4.442  0.1700 -0.7166  0.0343
 5238SOL    HW117436   9.683   8.261   4.482  0.4804 -0.3871 -0.8059
 5238SOL    HW217437   9.622   8.126   4.512 -1.8401  0.7770 -0.0306
 5239SOL     OW17438   7.662   6.002   1.176  0.2737  0.2841  0.3715
 5239SOL    HW117439   7.750   6.030   1.201  0.0664  0.2491  1.1663
 5239SOL    HW217440   7.665   5.907   1.176  0.9554  0.2275 -2.2524
 5240SOL     OW17441   1.167   0.932   0.443  0.2108 -1.0254  0.0250
 5240SOL    HW117442   1.171   0.934   0.347  2.1934 -0.0363  0.0711
 5240SOL    HW217443   1.198   0.845   0.467  1.5953 -0.6443 -0.2423
 5241SOL     OW17444   2.184   2.424   9.321  0.1946 -0.2196  0.3364
 5241SOL    HW117445   2.250   2.421   9.391  1.6882 -2.2173 -1.0372
 5241SOL    HW217446   2.177   2.517   9.299  1.9447  0.1445  1.1208
 5242SOL     OW17447   3.976   4.035   5.827 -0.3642  0.2403 -0.6269
 5242SOL    HW117448   3.999   4.031   5.920  1.4007 -2.4171 -1.0771
 5242SOL    HW217449   4.027   4.109   5.793  0.1209  0.3219  0.2369
 5243SOL     OW17450   4.316   4.121   4.028  0.4104  0.5013 -0.5815
 5243SOL    HW117451   4.240   4.179   4.032 -1.0599 -1.2968 -0.8209
 5243SOL    HW217452   4.314   4.085   3.939  1.4452  0.2678 -0.5282
 5244SOL     OW17453   5.552   7.505   2.899  0.1327  0.4445 -0.2677
 5244SOL    HW117454   5.613   7.533   2.967 -1.0772  0.6355  0.7860
 5244SOL    HW217455   5.491   7.578   2.890 -1.2371 -0.5730  0.2982
 5245SOL     OW17456   1.488   6.193   1.503  0.0782  0.7519 -0.0835
 5245SOL    HW117457   1.515   6.255   1.436 -0.1403 -0.3837 -1.2639
 5245SOL    HW217458   1.546   6.118   1.491 -0.5986  0.1470  0.3460
 5246SOL     OW17459   4.842   7.174   0.633  0.2252 -0.1463 -0.4440
 5246SOL    HW117460   4.869   7.255   0.589 -1.2276 -0.3646 -1.8308
 5246SOL    HW217461   4.864   7.104   0.572  0.5300 -0.7204  0.3049
 5247SOL     OW17462   9.606   8.225   1.386  0.0658 -0.0343 -0.1155
 5247SOL    HW117463   9.521   8.184   1.372  0.0206 -0.2827  0.8074
 5247SOL    HW217464   9.648   8.223   1.301 -1.0938  0.6465 -0.7333
 5248SOL     OW17465   4.103   1.242   3.046  0.8359 -0.1308  0.0153
 5248SOL    HW117466   4.107   1.213   2.955  1.5406  0.3931 -0.1244
 5248SOL    HW217467   4.127   1.334   3.043 -2.8089  0.9829  0.2448
 5249SOL     OW17468   0.960   2.103   5.462  0.0115 -0.3034 -0.3312
 5249SOL    HW117469   0.934   2.019   5.426  0.3977 -0.5255 -0.0939
 5249SOL    HW217470   0.881   2.136   5.506 -0.2360 -0.3799 -0.7219
 5250SOL     OW17471   6.091   1.142   8.474  0.2535 -0.2330  0.1547
 5250SOL    HW117472   5.995   1.142   8.481 -0.0712  3.0863 -2.1669
 5250SOL    HW217473   6.109   1.090   8.396  0.4961 -1.6655  1.1248
 5251SOL     OW17474   1.920   6.638   5.831 -0.2926  0.3006 -0.5793
 5251SOL    HW117475   2.012   6.663   5.817 -0.6208  1.2592 -1.0678
 5251SOL    HW217476   1.904   6.570   5.766  0.5762 -1.1732  0.6846
 5252SOL     OW17477   8.528   7.344   9.629  0.0318  0.2277  0.1846
 5252SOL    HW117478   8.586   7.323   9.556 -1.8086 -5.4650 -0.1896
 5252SOL    HW217479   8.568   7.301   9.705 -0.9218  1.0050  1.1693
 5253SOL     OW17480   1.505   2.420   0.774  0.2556  0.1336 -0.6235
 5253SOL    HW117481   1.429   2.365   0.794  0.4703 -0.0395 -0.2730
 5253SOL    HW217482   1.471   2.509   0.777  0.7065  0.3282  2.8699
 5254SOL     OW17483   8.146   0.017   8.267 -0.0588  0.1222 -0.3267
 5254SOL    HW117484   8.172   0.084   8.331  0.0108 -0.7407  0.5622
 5254SOL    HW217485   8.171  -0.066   8.307  1.1063 -0.3885 -2.0110
 5255SOL     OW17486   4.021   3.655   4.736 -0.4329  0.5597  0.1368
 5255SOL    HW117487   4.059   3.743   4.736 -0.9865  0.8008 -0.0688
 5255SOL    HW217488   4.007   3.634   4.644  0.7321 -0.2091  0.1045
 5256SOL     OW17489   8.352   3.687   1.989  0.3494  0.0558 -0.3048
 5256SOL    HW117490   8.286   3.752   1.965  1.1373  0.5331 -1.2198
 5256SOL    HW217491   8.426   3.705   1.932  0.4550 -1.9138 -0.8770
 5257SOL     OW17492   5.866   7.326   2.124  0.1864  0.7727 -0.1356
 5257SOL    HW117493   5.916   7.407   2.128 -1.3079  1.7113  0.0213
 5257SOL    HW217494   5.787   7.343   2.176 -0.5297 -0.5097 -0.7469
 5258SOL     OW17495   6.379   0.728   7.575 -0.7563 -0.2748  0.1675
 5258SOL    HW117496   6.415   0.762   7.494 -1.6582 -0.6942 -0.4334
 5258SOL    HW217497   6.448   0.741   7.640 -0.1253  0.3140 -0.6016
 5259SOL     OW17498   8.977   6.208   0.821  0.0712 -0.7534 -0.0630
 5259SOL    HW117499   9.030   6.214   0.901 -1.7107  0.1402  1.1141
 5259SOL    HW217500   8.979   6.115   0.797 -1.4854 -1.5518  2.5626
 5260SOL     OW17501   4.212   0.597   2.557  0.5257  0.5489  0.3206
 5260SOL    HW117502   4.220   0.551   2.474 -0.0452 -0.4211  0.7802
 5260SOL    HW217503   4.130   0.646   2.549  0.1220 -0.0733  0.5438
 5261SOL     OW17504   4.292   0.194   3.282 -0.0941  0.4139 -0.0503
 5261SOL    HW117505   4.264   0.184   3.191  4.1267 -1.9830 -1.4116
 5261SOL    HW217506   4.270   0.110   3.323 -1.0441  1.0973  0.8868
 5262SOL     OW17507   5.256   9.440   0.654 -0.4264  0.6119 -0.5853
 5262SOL    HW117508   5.316   9.372   0.684 -0.1407  1.0120 -0.2398
 5262SOL    HW217509   5.308   9.494   0.594 -0.1047  1.6011  0.5407
 5263SOL     OW17510   5.247   9.005   9.672 -0.9635  0.3681 -0.0772
 5263SOL    HW117511   5.246   8.909   9.665  1.0187  0.1433  1.8036
 5263SOL    HW217512   5.185   9.024   9.742 -0.1827  0.3126  0.6384
 5264SOL     OW17513   8.534   4.484   9.426  0.5253 -0.2768 -0.1505
 5264SOL    HW117514   8.574   4.441   9.351  0.9947 -1.5388  0.7847
 5264SOL    HW217515   8.603   4.486   9.492 -0.3431 -0.6535  0.7967
 5265SOL     OW17516   4.789   3.103   4.917  0.1595 -0.3876  0.4828
 5265SOL    HW117517   4.820   3.189   4.887 -0.4128 -0.6709 -0.9997
 5265SOL    HW217518   4.729   3.124   4.989 -0.2441  0.4832 -0.0852
 5266SOL     OW17519   2.881   4.721   0.983 -0.5624  0.3354 -0.3638
 5266SOL    HW117520   2.969   4.742   0.953 -1.0627  1.4319 -1.0926
 5266SOL    HW217521   2.881   4.625   0.988  0.8675  0.3355  0.3060
 5267SOL     OW17522   0.503   0.766   7.972 -0.5945  0.1145 -0.4599
 5267SOL    HW117523   0.574   0.828   7.986 -1.0113  0.6134 -0.5342
 5267SOL    HW217524   0.451   0.770   8.052 -0.0718 -0.8843 -0.0520
 5268SOL     OW17525   4.658   8.918   6.204 -0.4425 -0.2661  0.2517
 5268SOL    HW117526   4.572   8.958   6.211 -0.2025  0.5986 -1.2847
 5268SOL    HW217527   4.650   8.835   6.251 -2.9967 -1.6257 -2.2763
 5269SOL     OW17528   9.219   7.387   7.357  0.0757 -0.0950 -0.6769
 5269SOL    HW117529   9.205   7.452   7.426 -1.0558 -0.2603 -0.7246
 5269SOL    HW217530   9.309   7.357   7.369 -0.0728 -0.0454  0.6755
 5270SOL     OW17531   4.973   9.653   5.814 -0.2134  0.2536 -0.2222
 5270SOL    HW117532   5.045   9.712   5.835  0.8756 -0.2239 -2.2950
 5270SOL    HW217533   4.989   9.576   5.868  0.5900  0.3347 -0.3302
 5271SOL     OW17534   3.569   8.768   4.241 -0.0617  0.5844 -0.6912
 5271SOL    HW117535   3.593   8.860   4.227  1.6644  0.1783 -0.5679
 5271SOL    HW217536   3.574   8.729   4.154 -1.7317  0.7774 -0.9078
 5272SOL     OW17537   6.841   6.576   9.041  0.6458  0.3465  0.2182
 5272SOL    HW117538   6.775   6.509   9.055 -1.4354  2.5960  2.2924
 5272SOL    HW217539   6.900   6.568   9.116 -0.5141  1.6498  1.3526
 5273SOL     OW17540   8.074   8.796   4.668 -0.1305 -0.1994 -0.2944
 5273SOL    HW117541   8.157   8.821   4.627 -0.1433 -0.7007 -0.6401
 5273SOL    HW217542   8.007   8.818   4.602 -0.2182 -0.3423 -0.2528
 5274SOL     OW17543   7.909   0.868   4.399 -0.3667 -0.1310 -0.0114
 5274SOL    HW117544   7.929   0.864   4.493  0.7984  0.9687 -0.1782
 5274SOL    HW217545   7.879   0.780   4.377  1.4483 -1.0388  0.9516
 5275SOL     OW17546   1.458   3.606   8.230  0.1863 -0.0400 -0.1206
 5275SOL    HW117547   1.469   3.540   8.298 -2.1724  0.6056  1.0208
 5275SOL    HW217548   1.494   3.686   8.268  1.8225 -0.3225 -0.9775
 5276SOL     OW17549   1.220   2.492   4.586 -0.1981  0.0083 -0.7116
 5276SOL    HW117550   1.133   2.452   4.597 -1.2334  1.9514 -1.3408
 5276SOL    HW217551   1.280   2.428   4.625 -1.9094 -1.3181 -0.0717
 5277SOL     OW17552   1.991   7.943   3.449  0.2480 -0.0998  0.2070
 5277SOL    HW117553   1.921   7.942   3.383  2.7692 -3.0443 -2.7774
 5277SOL    HW217554   1.978   7.863   3.499  0.2000  0.5214  1.2122
 5278SOL     OW17555   3.999   3.418   4.873  0.3376 -0.6729  0.0356
 5278SOL    HW117556   3.950   3.405   4.954  3.1802 -2.4225  1.6464
 5278SOL    HW217557   3.998   3.513   4.860 -0.8993 -0.4228  1.6454
 5279SOL     OW17558   6.505   5.987   3.178 -0.8001  0.1416 -0.2678
 5279SOL    HW117559   6.540   6.055   3.120 -0.9533  0.4682  0.0174
 5279SOL    HW217560   6.463   5.924   3.119 -1.8337  0.9757 -0.4656
 5280SOL     OW17561   0.635   6.198   2.402  0.4163 -0.2065  0.2517
 5280SOL    HW117562   0.674   6.178   2.317  0.6003 -1.4366  0.5951
 5280SOL    HW217563   0.671   6.283   2.426  0.8900 -0.1617 -0.5911
 5281SOL     OW17564   5.698   7.774   1.489  0.6271 -0.2450  0.0593
 5281SOL    HW117565   5.625   7.712   1.483  0.2822  0.1597  0.0068
 5281SOL    HW217566   5.703   7.814   1.402  1.3720 -0.7785 -0.1476
 5282SOL     OW17567   4.503   6.935   5.313 -0.2430 -0.7651  0.2566
 5282SOL    HW117568   4.563   6.909   5.384 -1.8032 -0.8934  1.5828
 5282SOL    HW217569   4.481   7.026   5.333  0.3897 -0.3464 -0.8848
 5283SOL     OW17570   0.352   0.440   4.230  0.1185  0.0484  0.3978
 5283SOL    HW117571   0.447   0.428   4.219  0.5366  0.9064  2.4503
 5283SOL    HW217572   0.338   0.532   4.209 -0.0487  0.1944  1.1171
 5284SOL     OW17573   1.314   1.135   7.691 -0.2674 -0.5878 -0.4492
 5284SOL    HW117574   1.228   1.158   7.725 -0.0134 -0.2982  0.0058
 5284SOL    HW217575   1.331   1.047   7.724  0.2143 -0.0998  0.6630
 5285SOL     OW17576   7.179   6.435   1.321  0.3018 -0.5452 -0.0555
 5285SOL    HW117577   7.212   6.458   1.234 -2.8744  0.0674 -1.2276
 5285SOL    HW217578   7.207   6.345   1.335  1.3141 -0.4811 -1.4689
 5286SOL     OW17579   9.580   3.478   6.501 -0.5194 -0.0117  0.2621
 5286SOL    HW117580   9.546   3.528   6.427  2.6781  2.2141  0.0865
 5286SOL    HW217581   9.612   3.397   6.462  0.9890  1.0687 -0.9089
 5287SOL     OW17582   1.325   8.856   3.940  0.0967  0.6462 -0.0355
 5287SOL    HW117583   1.352   8.859   3.848  0.6436  1.3977  0.1420
 5287SOL    HW217584   1.327   8.947   3.969  3.5785  0.1498  1.7667
 5288SOL     OW17585   3.998   4.270   3.751  0.4819 -0.1824  0.1465
 5288SOL    HW117586   3.922   4.299   3.701  0.8791 -0.7885 -0.8274
 5288SOL    HW217587   4.061   4.241   3.686  0.1488 -3.1981  0.9973
 5289SOL     OW17588   9.680   3.629   3.730 -0.2762  0.2129 -0.8688
 5289SOL    HW117589   9.747   3.655   3.667 -0.1797  0.3948 -0.6928
 5289SOL    HW217590   9.643   3.712   3.761  0.7272  0.1990  0.4589
 5290SOL     OW17591   1.812   9.445   4.368  0.3974  0.4445 -0.1901
 5290SOL    HW117592   1.731   9.396   4.353  1.6320 -1.8058  0.0536
 5290SOL    HW217593   1.858   9.394   4.435  1.8312  1.9104 -0.0178
 5291SOL     OW17594   7.710   7.537   1.093  0.1085 -0.3912 -0.1541
 5291SOL    HW117595   7.698   7.613   1.149 -0.4864 -0.4148 -0.2481
 5291SOL    HW217596   7.805   7.523   1.093  0.3745  1.1754 -1.2457
 5292SOL     OW17597   2.369   4.839   3.966  0.1480  0.2892 -0.6895
 5292SOL    HW117598   2.284   4.855   4.006 -0.5433 -1.4795 -1.3631
 5292SOL    HW217599   2.406   4.766   4.016  0.7175  0.2203 -1.1992
 5293SOL     OW17600   1.245   5.014   2.711 -0.2076  0.1169  0.2373
 5293SOL    HW117601   1.253   5.035   2.804 -1.8412  1.7785  0.0570
 5293SOL    HW217602   1.259   4.919   2.706  3.1057  0.3917  1.7046
 5294SOL     OW17603   9.479   6.700   3.281 -0.3032 -0.1652 -0.5082
 5294SOL    HW117604   9.518   6.628   3.232  0.4777  0.7670 -1.3067
 5294SOL    HW217605   9.386   6.696   3.262  0.0451  0.5090 -2.5643
 5295SOL     OW17606   1.043   3.381   0.675  0.0872 -0.4512 -0.0752
 5295SOL    HW117607   1.038   3.292   0.712 -2.4524  0.1023  1.1895
 5295SOL    HW217608   1.133   3.408   0.690  0.6444 -2.4293  0.4979
 5296SOL     OW17609   5.440   3.700   1.971  0.1353 -0.2401  0.1271
 5296SOL    HW117610   5.491   3.754   1.910 -1.0720  1.5250  0.6059
 5296SOL    HW217611   5.408   3.762   2.036 -1.7191 -1.4747  0.4431
 5297SOL     OW17612   2.802   5.892   2.274  0.6631  0.5450 -0.5347
 5297SOL    HW117613   2.806   5.825   2.205  0.6742  0.5649 -0.5535
 5297SOL    HW217614   2.857   5.963   2.242  0.1036  0.8522 -0.8342
 5298SOL     OW17615   4.512   1.650   0.204  0.0571 -0.1743  0.4475
 5298SOL    HW117616   4.467   1.566   0.193 -0.1096 -0.2992  1.8613
 5298SOL    HW217617   4.585   1.630   0.262  1.6335  0.1494 -1.3350
 5299SOL     OW17618   2.411   9.298   9.551 -0.0539 -0.0552  0.6617
 5299SOL    HW117619   2.353   9.369   9.578 -0.4651 -0.0824 -0.1392
 5299SOL    HW217620   2.425   9.247   9.631 -0.9187  0.1066  0.9204
 5300SOL     OW17621   0.619   4.851   3.866 -0.1413  0.2260 -0.6314
 5300SOL    HW117622   0.673   4.821   3.940 -0.8050  1.4771  0.3833
 5300SOL    HW217623   0.653   4.938   3.846 -3.0085  1.9331  1.3565
 5301SOL     OW17624   5.127   5.867   4.465  0.4736  0.2884 -0.6720
 5301SOL    HW117625   5.048   5.878   4.414  0.3260 -1.1735 -0.8166
 5301SOL    HW217626   5.117   5.781   4.506  0.9995  1.0168  1.0841
 5302SOL     OW17627   0.008   2.645   2.874  0.9354  0.3757  0.3700
 5302SOL    HW117628   0.054   2.669   2.794 -0.3683  0.8726 -0.2584
 5302SOL    HW217629  -0.079   2.616   2.845  0.6224  0.0638  1.5540
 5303SOL     OW17630   0.174   1.925   0.282 -0.0680  0.6165  0.0491
 5303SOL    HW117631   0.259   1.894   0.252 -0.7069  0.0509 -1.3016
 5303SOL    HW217632   0.188   2.018   0.302  1.3840  0.0007  2.1422
 5304SOL     OW17633   7.100   5.672   8.305  0.0618  0.2384  0.1074
 5304SOL    HW117634   7.103   5.764   8.278  0.8667  0.2527  0.2231
 5304SOL    HW217635   7.007   5.655   8.320 -0.3398  0.4688 -1.8320
 5305SOL     OW17636   2.170   9.594   8.588 -0.2516  0.0170  0.2924
 5305SOL    HW117637   2.210   9.517   8.628  0.4093 -0.5480 -1.3827
 5305SOL    HW217638   2.184   9.664   8.652 -0.6634 -1.1722  1.7387
 5306SOL     OW17639   0.071   9.504   6.345  0.0879 -0.3453 -0.1818
 5306SOL    HW117640   0.130   9.533   6.275 -1.2178  0.2120 -1.1084
 5306SOL    HW217641  -0.012   9.488   6.300 -0.5032 -0.9753  1.0960
 5307SOL     OW17642   2.129   6.898   4.303  0.3987 -0.2314  0.1228
 5307SOL    HW117643   2.146   6.861   4.389 -3.0903  0.5208  1.3236
 5307SOL    HW217644   2.118   6.992   4.319  1.2252  0.1716 -1.4497
 5308SOL     OW17645   3.695   3.279   3.668 -0.0807 -0.1217 -0.4539
 5308SOL    HW117646   3.646   3.361   3.668  0.9448  0.5068 -0.3607
 5308SOL    HW217647   3.755   3.286   3.743 -0.1514 -1.0632 -0.2877
 5309SOL     OW17648   3.382   5.841   9.569 -0.1393  0.5100  0.5251
 5309SOL    HW117649   3.387   5.874   9.659  1.1207 -0.0064  0.6718
 5309SOL    HW217650   3.449   5.891   9.522 -0.5390  0.5145 -0.0531
 5310SOL     OW17651   5.802   6.426   0.752  0.6506 -0.0328 -0.0111
 5310SOL    HW117652   5.738   6.448   0.819  0.7512  1.2866 -0.3130
 5310SOL    HW217653   5.763   6.458   0.670  0.7043 -1.2538 -0.5394
 5311SOL     OW17654   5.858   4.225   6.377  0.3526  0.5799 -0.3901
 5311SOL    HW117655   5.911   4.148   6.359 -1.2207 -0.8187  0.6689
 5311SOL    HW217656   5.869   4.241   6.470  2.8005  3.3992 -1.0100
 5312SOL     OW17657   1.549   7.866   0.762 -0.3616 -0.5252 -0.8129
 5312SOL    HW117658   1.553   7.775   0.791 -0.7450  0.0436  1.1736
 5312SOL    HW217659   1.521   7.861   0.671  1.4327 -2.4550 -1.3358
 5313SOL     OW17660   5.531   1.862   5.278  0.2600 -0.6532 -0.6010
 5313SOL    HW117661   5.593   1.843   5.348 -0.0681  0.0741 -0.1031
 5313SOL    HW217662   5.559   1.807   5.205  1.3425 -0.5162 -0.3010
 5314SOL     OW17663   3.928   3.179   9.219  0.4671  0.9070 -0.2105
 5314SOL    HW117664   3.864   3.247   9.240 -0.4713 -0.2431  0.8819
 5314SOL    HW217665   3.907   3.154   9.129 -0.8387  0.3762  0.2119
 5315SOL     OW17666   2.193   8.886   6.452  0.2171 -0.1180  0.3074
 5315SOL    HW117667   2.115   8.891   6.397  1.1508  0.4824 -1.0223
 5315SOL    HW217668   2.230   8.800   6.434  0.8989  0.3422 -0.5738
 5316SOL     OW17669   2.700   6.392   8.770 -0.6131 -0.1324 -0.1407
 5316SOL    HW117670   2.651   6.311   8.763 -3.3840  1.5029 -1.0973
 5316SOL    HW217671   2.738   6.390   8.858 -2.1585 -1.6289  0.5365
 5317SOL     OW17672   4.456   5.848   3.767  0.2875  0.0169  0.3130
 5317SOL    HW117673   4.481   5.860   3.859 -0.9878  0.1277  0.6736
 5317SOL    HW217674   4.390   5.917   3.752  0.7072  0.1896 -0.7739
 5318SOL     OW17675   1.261   3.781   0.640  0.0767  0.1243 -0.2345
 5318SOL    HW117676   1.314   3.761   0.563 -0.2582  1.0444 -0.7115
 5318SOL    HW217677   1.278   3.873   0.658 -0.8908  0.2732 -0.0255
 5319SOL     OW17678   3.958   0.695   5.099  0.8592 -0.1901  0.3262
 5319SOL    HW117679   3.922   0.778   5.129  0.0970 -0.9052  1.4688
 5319SOL    HW217680   3.962   0.704   5.004  0.8754  1.1762  0.4361
 5320SOL     OW17681   1.918   7.781   6.341  0.0016  0.1250  0.3685
 5320SOL    HW117682   1.989   7.845   6.334 -0.5573  1.1442  2.9357
 5320SOL    HW217683   1.954   7.712   6.396 -0.4289 -0.2221  0.2204
 5321SOL     OW17684   7.027   7.738   6.072  0.1593  0.3125 -0.6327
 5321SOL    HW117685   7.117   7.709   6.056  0.5154  0.1483  1.4419
 5321SOL    HW217686   7.034   7.834   6.079  0.2967  0.2533  0.1332
 5322SOL     OW17687   4.545   1.855   5.263 -0.0127  0.3577  0.0301
 5322SOL    HW117688   4.586   1.861   5.349  0.4747 -0.9838 -0.0793
 5322SOL    HW217689   4.594   1.916   5.208  0.3262  0.4741  0.4601
 5323SOL     OW17690   4.799   6.632   4.400 -0.3158 -0.2344 -0.5660
 5323SOL    HW117691   4.764   6.572   4.334 -0.2552  1.8311 -2.6154
 5323SOL    HW217692   4.734   6.632   4.470 -1.2209 -1.2682 -1.3742
 5324SOL     OW17693   8.432   5.095   3.103  0.1378  0.4916 -0.4274
 5324SOL    HW117694   8.458   5.037   3.032  1.2449 -1.9292  1.7750
 5324SOL    HW217695   8.512   5.145   3.123 -0.2795  1.4438 -1.1102
 5325SOL     OW17696   0.511   7.227   3.833 -0.0555 -0.3486  0.3698
 5325SOL    HW117697   0.554   7.150   3.871 -0.9565 -0.9792  0.1553
 5325SOL    HW217698   0.466   7.193   3.756 -2.4673 -0.1274  1.5781
 5326SOL     OW17699   1.372   2.658   0.693 -0.3615  0.0907  0.1360
 5326SOL    HW117700   1.394   2.636   0.603  1.9817  1.1846  0.3645
 5326SOL    HW217701   1.413   2.744   0.707 -1.7316  0.5186  1.8728
 5327SOL     OW17702   6.968   0.373   1.261  0.1809  0.5111  0.7624
 5327SOL    HW117703   7.003   0.451   1.219 -1.1268  1.1431  0.8279
 5327SOL    HW217704   6.873   0.383   1.257 -0.0172  0.2399  3.1867
 5328SOL     OW17705   0.565   0.552   3.870  0.2087  0.0391  0.3197
 5328SOL    HW117706   0.648   0.526   3.910  0.2790 -0.3241 -0.0549
 5328SOL    HW217707   0.508   0.574   3.944  0.3957 -0.4448  0.6113
 5329SOL     OW17708   6.357   7.626   7.963  0.0011 -0.5246 -0.0774
 5329SOL    HW117709   6.342   7.713   7.927 -0.4992  0.1554  1.6571
 5329SOL    HW217710   6.276   7.605   8.010  0.8201 -1.0642  1.1598
 5330SOL     OW17711   3.349   1.878   5.371 -0.0302  0.1525 -0.1391
 5330SOL    HW117712   3.355   1.923   5.287  1.0217  2.2100  0.9626
 5330SOL    HW217713   3.260   1.841   5.372  0.3971 -1.1578 -2.6897
 5331SOL     OW17714   3.329   6.149   9.457 -0.4773  0.1934 -0.0284
 5331SOL    HW117715   3.275   6.151   9.536  1.6143  1.0663  1.4587
 5331SOL    HW217716   3.337   6.241   9.431 -1.0527 -0.0723 -1.2408
 5332SOL     OW17717   4.955   3.305   3.307  0.3029  0.3294  0.3391
 5332SOL    HW117718   4.859   3.314   3.310  0.3545  0.6892  1.4378
 5332SOL    HW217719   4.971   3.214   3.332  0.2794  0.5855  1.3489
 5333SOL     OW17720   2.751   5.319   0.653 -0.3479 -0.5147  0.3075
 5333SOL    HW117721   2.798   5.242   0.622 -1.3358 -1.3637  0.8567
 5333SOL    HW217722   2.817   5.389   0.654  0.0435 -0.7305 -2.4112
 5334SOL     OW17723   3.157   7.252   1.296  0.7260  0.1925  0.3208
 5334SOL    HW117724   3.108   7.250   1.378 -1.0034 -0.2059 -0.6821
 5334SOL    HW217725   3.186   7.162   1.284 -1.0016 -0.2748 -0.6160
 5335SOL     OW17726   7.485   0.890   3.478 -0.2945  0.0252  0.2246
 5335SOL    HW117727   7.567   0.856   3.442 -1.4195 -1.2926 -1.2568
 5335SOL    HW217728   7.493   0.985   3.471  0.9618 -0.0963 -0.2325
 5336SOL     OW17729   2.301   0.633   3.758  0.3238  0.0626 -0.3406
 5336SOL    HW117730   2.307   0.716   3.712 -0.0327 -0.9987 -2.3858
 5336SOL    HW217731   2.213   0.633   3.797  0.7765  1.1373  0.7322
 5337SOL     OW17732   5.783   7.696   7.146  0.2365 -0.2216 -0.0265
 5337SOL    HW117733   5.863   7.723   7.100  0.2326  0.8958  0.5706
 5337SOL    HW217734   5.715   7.700   7.079  0.4287  0.2986 -0.1977
 5338SOL     OW17735   8.452   4.718   5.640  0.2886 -0.4112  0.2098
 5338SOL    HW117736   8.390   4.774   5.686 -0.5485 -0.8507 -0.3717
 5338SOL    HW217737   8.496   4.776   5.578 -1.9666 -0.7156 -1.7932
 5339SOL     OW17738   3.979   2.705   2.005 -0.9450 -0.2541 -0.1044
 5339SOL    HW117739   4.048   2.657   1.958 -0.7045  0.4836 -0.5128
 5339SOL    HW217740   3.898   2.678   1.962 -0.8879 -0.8724  0.1625
 5340SOL     OW17741   4.267   7.045   1.963  0.3183  0.7073 -0.4568
 5340SOL    HW117742   4.261   7.093   1.880 -0.7947  0.3156 -0.6134
 5340SOL    HW217743   4.310   6.963   1.940  1.4170  1.2253 -0.3477
 5341SOL     OW17744   0.559   9.706   8.344 -0.2274 -0.0964  0.5139
 5341SOL    HW117745   0.589   9.653   8.418  0.8968  0.1860  0.2713
 5341SOL    HW217746   0.639   9.732   8.299 -0.9104 -0.7164 -1.1267
 5342SOL     OW17747   8.514   9.574   5.467 -0.2307  0.5106 -0.1518
 5342SOL    HW117748   8.422   9.603   5.469  0.0370  1.3968  1.6889
 5342SOL    HW217749   8.539   9.571   5.559  1.3088 -0.7135 -0.5839
 5343SOL     OW17750   0.499   8.116   3.215 -0.5154 -0.3321  0.1366
 5343SOL    HW117751   0.520   8.063   3.139 -2.2425  1.0607 -1.4277
 5343SOL    HW217752   0.533   8.067   3.290  1.7570 -1.4792 -1.5383
 5344SOL     OW17753   2.924   0.693   5.621  0.1917 -0.2794  0.0328
 5344SOL    HW117754   2.918   0.692   5.717  1.4600  0.9483  0.1591
 5344SOL    HW217755   2.945   0.602   5.598  1.0702 -0.3637  1.0469
 5345SOL     OW17756   1.777   4.019   7.163 -0.1888 -0.1643 -0.5606
 5345SOL    HW117757   1.777   4.028   7.068 -0.1296 -0.0370 -0.5490
 5345SOL    HW217758   1.711   4.081   7.194  2.0516  2.3128 -0.3046
 5346SOL     OW17759   0.926   8.520   6.105  0.3034  0.1650  0.5719
 5346SOL    HW117760   0.907   8.495   6.195  0.8550  0.0445  0.6574
 5346SOL    HW217761   1.006   8.572   6.111 -0.0510  0.7610  0.2318
 5347SOL     OW17762   9.282   2.760   3.944  0.0625 -0.1473  0.0338
 5347SOL    HW117763   9.236   2.822   4.001 -0.8059  0.8128 -1.6365
 5347SOL    HW217764   9.372   2.792   3.940 -0.3399  0.9365 -0.6782
 5348SOL     OW17765   9.614   4.131   6.165 -0.4338 -0.0114 -0.3626
 5348SOL    HW117766   9.642   4.041   6.180  1.4137  0.4401 -0.9126
 5348SOL    HW217767   9.600   4.137   6.071 -0.9694  0.1676 -0.2744
 5349SOL     OW17768   7.572   3.101   0.074  0.1241  0.4516  0.5082
 5349SOL    HW117769   7.544   3.191   0.058 -1.6619 -0.0561  0.5274
 5349SOL    HW217770   7.501   3.047   0.039  1.2235 -0.9631  0.3626
 5350SOL     OW17771   7.941   7.216   4.898  0.0920  0.0882 -0.3337
 5350SOL    HW117772   7.881   7.141   4.903  0.3644 -0.0682  2.2613
 5350SOL    HW217773   8.026   7.177   4.877  0.0033 -0.1816 -0.2028
 5351SOL     OW17774   1.220   5.496   7.476 -0.6516  0.3317 -0.3149
 5351SOL    HW117775   1.270   5.457   7.548 -0.7602 -0.3879 -0.6113
 5351SOL    HW217776   1.168   5.423   7.441 -2.5510  1.2017  0.4976
 5352SOL     OW17777   5.632   7.168   7.295  0.3409 -0.2908  0.2114
 5352SOL    HW117778   5.640   7.073   7.289  0.4086 -0.2194 -0.9614
 5352SOL    HW217779   5.623   7.185   7.389  1.3506 -1.3665  0.5275
 5353SOL     OW17780   2.100   5.876   2.444  0.4644  0.1053 -0.1496
 5353SOL    HW117781   2.169   5.938   2.470  0.2329  0.6930 -0.9032
 5353SOL    HW217782   2.082   5.827   2.524  0.0098  1.6307  0.7402
 5354SOL     OW17783   1.103   3.537   8.160  0.0162  0.9585  0.1070
 5354SOL    HW117784   1.165   3.476   8.120  0.0441  2.1981 -1.8422
 5354SOL    HW217785   1.145   3.623   8.153 -1.7680  1.7986 -1.0243
 5355SOL     OW17786   5.403   0.665   3.679 -0.3526  0.3498  0.2752
 5355SOL    HW117787   5.464   0.739   3.685 -0.5846  0.5103  0.7429
 5355SOL    HW217788   5.354   0.680   3.598  1.1906 -0.5353 -0.8715
 5356SOL     OW17789   1.715   5.679   3.366 -0.6855  0.6047  0.1080
 5356SOL    HW117790   1.783   5.744   3.349  0.5422 -1.0568 -1.8324
 5356SOL    HW217791   1.664   5.676   3.284 -1.8651  0.4129  0.8228
 5357SOL     OW17792   5.040   0.302   8.210  0.1855 -0.4621 -0.4876
 5357SOL    HW117793   5.099   0.376   8.225  1.2653 -1.3647 -0.1309
 5357SOL    HW217794   5.006   0.315   8.122  0.9340  0.0841 -0.7022
 5358SOL     OW17795   1.429   6.271   8.787 -0.4045  0.5944  0.0817
 5358SOL    HW117796   1.354   6.321   8.819 -0.7679  1.6655 -2.2361
 5358SOL    HW217797   1.418   6.269   8.692  1.5933 -0.7511 -0.1922
 5359SOL     OW17798   8.719   4.280   8.808  0.1476 -0.3454  0.3381
 5359SOL    HW117799   8.696   4.195   8.770  0.6730 -0.4671  0.2877
 5359SOL    HW217800   8.683   4.276   8.897 -0.7251 -0.2155 -0.0028
 5360SOL     OW17801   8.330   0.328   4.673  0.0984  0.5818  0.0775
 5360SOL    HW117802   8.359   0.371   4.754 -0.7727  0.1426  0.6317
 5360SOL    HW217803   8.271   0.258   4.702 -0.0715  0.2907 -0.9263
 5361SOL     OW17804   5.978   1.313   9.369  0.1573 -0.0793 -0.6091
 5361SOL    HW117805   6.070   1.335   9.378  0.4526 -1.7868  1.2670
 5361SOL    HW217806   5.974   1.219   9.389 -2.3823  0.5798  3.0318
 5362SOL     OW17807   8.074   4.709   1.864 -0.4781  0.2867  0.2654
 5362SOL    HW117808   8.033   4.730   1.949  0.4425 -0.8711  1.0266
 5362SOL    HW217809   8.167   4.721   1.879 -0.4126  2.3014 -1.2889
 5363SOL     OW17810   0.563   2.866   5.125  0.7090  0.2407  0.5221
 5363SOL    HW117811   0.531   2.827   5.044 -0.2182 -0.2621  1.1106
 5363SOL    HW217812   0.646   2.821   5.142 -0.6401 -2.0846  1.5481
 5364SOL     OW17813   5.614   6.831   6.767 -0.3430  0.3189  0.1989
 5364SOL    HW117814   5.672   6.869   6.700  1.2692 -1.7827  0.2841
 5364SOL    HW217815   5.553   6.777   6.717 -0.9679  0.9691  0.2513
 5365SOL     OW17816   7.778   0.441   4.645 -0.4783 -0.1785 -0.3049
 5365SOL    HW117817   7.748   0.528   4.618 -1.2972 -0.2831  0.2054
 5365SOL    HW217818   7.744   0.431   4.734 -0.2871 -0.9685 -0.3125
 5366SOL     OW17819   5.343   1.537   4.692 -0.2028 -0.5395  0.0471
 5366SOL    HW117820   5.341   1.625   4.728  0.0526 -0.7830  0.6747
 5366SOL    HW217821   5.264   1.532   4.638 -1.0988 -0.4399  1.2737
 5367SOL     OW17822   6.538   9.032   0.818 -0.1046 -0.1039  0.6383
 5367SOL    HW117823   6.539   8.938   0.800 -0.8327  0.1256 -0.7545
 5367SOL    HW217824   6.474   9.043   0.889 -0.4847 -0.5899  0.3677
 5368SOL     OW17825   3.592   3.022   2.793 -0.7191 -0.1201 -0.2907
 5368SOL    HW117826   3.543   3.023   2.875 -0.3892 -2.4703  0.0196
 5368SOL    HW217827   3.684   3.025   2.820 -0.6167 -0.6090 -0.5614
 5369SOL     OW17828   3.755   8.087   4.805 -0.1340  0.6575 -0.6659
 5369SOL    HW117829   3.669   8.065   4.843  0.6431  0.0206  0.8445
 5369SOL    HW217830   3.803   8.129   4.877  2.1708 -2.5041 -0.1318
 5370SOL     OW17831   2.717   2.867   7.277  0.3995 -0.1433 -0.7315
 5370SOL    HW117832   2.791   2.927   7.273  0.5225 -0.3063 -0.9765
 5370SOL    HW217833   2.651   2.907   7.221  0.2669  0.0483 -0.4393
 5371SOL     OW17834   7.777   0.510   9.274  0.0330 -0.2443 -0.3911
 5371SOL    HW117835   7.791   0.605   9.270  2.1922 -0.4112  1.1491
 5371SOL    HW217836   7.842   0.474   9.213 -1.3805 -0.7442 -1.6539
 5372SOL     OW17837   6.466   3.918   6.079  0.3839  0.2072  0.1389
 5372SOL    HW117838   6.519   3.908   6.158 -0.2206  0.1372  0.5463
 5372SOL    HW217839   6.386   3.868   6.097 -0.6344  1.7884  0.3132
 5373SOL     OW17840   4.683   4.493   2.232  0.1628 -0.2707  0.4825
 5373SOL    HW117841   4.662   4.476   2.140  0.0766  0.0366  0.4439
 5373SOL    HW217842   4.703   4.586   2.235  0.2196 -0.2913  0.7663
 5374SOL     OW17843   5.992   4.114   5.173  0.3383  0.0742  0.1331
 5374SOL    HW117844   6.040   4.069   5.243  0.3462  1.2639  0.9106
 5374SOL    HW217845   6.060   4.142   5.112  0.3201 -1.0893 -0.4599
 5375SOL     OW17846   6.719   3.373   5.865 -0.1710  0.0715 -1.0494
 5375SOL    HW117847   6.629   3.371   5.896 -0.4011  0.1490 -1.6864
 5375SOL    HW217848   6.765   3.431   5.926 -0.5080 -0.1205 -0.6158
 5376SOL     OW17849   7.725   1.356   6.130 -0.5557  0.2979 -0.3502
 5376SOL    HW117850   7.641   1.362   6.175  0.7616  1.1807  2.1449
 5376SOL    HW217851   7.765   1.276   6.163 -0.2713  0.0064 -1.3451
 5377SOL     OW17852   0.644   5.852   1.971  0.1355  0.4552 -0.6646
 5377SOL    HW117853   0.703   5.894   1.909 -1.3373  0.3509 -2.2114
 5377SOL    HW217854   0.572   5.819   1.918  0.3905 -2.6418  0.6551
 5378SOL     OW17855   1.295   7.096   9.217  0.5472  0.6803 -0.2846
 5378SOL    HW117856   1.367   7.092   9.155  1.8967  0.6494  1.2180
 5378SOL    HW217857   1.276   7.004   9.237 -0.8049  0.6219 -1.5901
 5379SOL     OW17858   6.459   5.615   2.735  0.7454  0.1007  0.0204
 5379SOL    HW117859   6.401   5.680   2.775  4.0340  3.5745 -0.2230
 5379SOL    HW217860   6.452   5.631   2.641  0.8991 -0.5605 -0.1094
 5380SOL     OW17861   5.731   4.052   8.696  0.5436 -0.5650  0.1073
 5380SOL    HW117862   5.732   3.991   8.622  0.9096 -0.0697 -0.3143
 5380SOL    HW217863   5.788   4.012   8.762  0.3304 -0.9446  0.0582
 5381SOL     OW17864   3.552   7.920   0.515  1.0581  0.3439 -0.8517
 5381SOL    HW117865   3.592   7.896   0.599  0.6078  2.1592 -0.0760
 5381SOL    HW217866   3.485   7.853   0.501  0.5118  0.5114  0.7238
 5382SOL     OW17867   6.815   6.979   5.019  0.2878 -0.4689  0.0739
 5382SOL    HW117868   6.755   6.958   4.947  1.0621  0.1586 -0.7859
 5382SOL    HW217869   6.759   7.017   5.087 -0.3920 -0.6084 -0.3945
 5383SOL     OW17870   2.259   1.525   2.904 -0.8528 -0.6628  0.6267
 5383SOL    HW117871   2.256   1.548   2.811 -0.8757  0.0906  0.8033
 5383SOL    HW217872   2.293   1.604   2.946 -0.6887 -1.0593  1.2387
 5384SOL     OW17873   4.475   6.086   6.624 -0.5851 -0.4059 -0.3130
 5384SOL    HW117874   4.430   6.154   6.674  0.6229  0.2139 -0.0288
 5384SOL    HW217875   4.547   6.058   6.680  0.9080  0.4238 -1.6996
 5385SOL     OW17876   2.079   7.373   1.896  0.0920  0.3687  0.2471
 5385SOL    HW117877   2.153   7.336   1.849 -0.4954 -0.0960 -0.3412
 5385SOL    HW217878   2.116   7.412   1.975  0.9009 -0.2118  0.1561
 5386SOL     OW17879   3.263   4.036   3.688 -0.1006 -0.3548 -0.2551
 5386SOL    HW117880   3.171   4.015   3.706 -0.5064  0.0079 -1.7103
 5386SOL    HW217881   3.299   3.957   3.649 -0.3728  0.1175 -1.5248
 5387SOL     OW17882   1.637   4.046   7.528  0.2629  0.4679  0.0859
 5387SOL    HW117883   1.598   4.132   7.513 -0.8430 -0.3590 -2.4015
 5387SOL    HW217884   1.588   3.987   7.470  0.5823 -1.9792  2.1061
 5388SOL     OW17885   7.899   1.150   8.138 -0.0616 -0.1552  0.7976
 5388SOL    HW117886   7.810   1.142   8.172 -0.3292 -0.5705  0.0477
 5388SOL    HW217887   7.899   1.096   8.059  0.2920  1.4110 -0.3238
 5389SOL     OW17888   6.455   4.272   7.056  0.1073  0.0431 -0.0238
 5389SOL    HW117889   6.445   4.278   6.961 -0.5842  2.5180  0.1162
 5389SOL    HW217890   6.384   4.215   7.085  0.0593 -0.3782 -0.9590
 5390SOL     OW17891   2.370   1.065   7.153  0.0111  0.0993 -0.3728
 5390SOL    HW117892   2.355   1.081   7.059  0.2268 -0.0565 -0.4338
 5390SOL    HW217893   2.464   1.082   7.165 -0.1943  1.0694  0.0039
 5391SOL     OW17894   7.590   1.653   8.929 -0.2722  0.1665  0.0961
 5391SOL    HW117895   7.516   1.714   8.918 -0.9358 -0.3974  1.2146
 5391SOL    HW217896   7.580   1.621   9.018  1.0796 -0.2762  0.0981
 5392SOL     OW17897   1.283   1.976   1.384  0.0359 -0.2735 -0.4402
 5392SOL    HW117898   1.287   2.039   1.312 -0.8475 -1.1812 -1.3420
 5392SOL    HW217899   1.318   2.022   1.460 -0.3101  1.1830 -1.1339
 5393SOL     OW17900   2.161   2.603   8.587  0.3453 -0.1962 -0.2045
 5393SOL    HW117901   2.154   2.517   8.629  2.7773 -0.6241 -0.5153
 5393SOL    HW217902   2.170   2.665   8.659  1.6229 -0.5948  0.0084
 5394SOL     OW17903   8.968   7.937   7.740 -0.0486  0.2397 -0.5563
 5394SOL    HW117904   9.017   7.910   7.661 -0.7143 -0.3410 -0.7863
 5394SOL    HW217905   8.982   7.865   7.801 -0.5958  0.0834 -0.6159
 5395SOL     OW17906   3.141   3.043   7.505  0.3564 -0.1403 -0.2800
 5395SOL    HW117907   3.096   3.056   7.588 -0.1017 -0.5220 -0.4601
 5395SOL    HW217908   3.178   3.128   7.483  0.6377 -0.0818  0.4037
 5396SOL     OW17909   5.371   7.333   7.507 -0.4729  0.1764  0.1315
 5396SOL    HW117910   5.393   7.241   7.498 -1.6403 -0.0563 -0.5117
 5396SOL    HW217911   5.397   7.356   7.596  2.7969  0.0966 -0.6895
 5397SOL     OW17912   5.925   7.350   0.191 -0.1887 -0.0702  0.0965
 5397SOL    HW117913   5.857   7.321   0.252  0.3522 -0.8575  0.3498
 5397SOL    HW217914   5.899   7.438   0.165 -0.7773  0.0173  0.9522
 5398SOL     OW17915   1.247   8.788   8.233  0.3985 -0.3109  0.2753
 5398SOL    HW117916   1.285   8.872   8.209 -0.7470  1.0415  2.7681
 5398SOL    HW217917   1.161   8.788   8.192  0.5893 -0.5170 -0.1334
 5399SOL     OW17918   8.180   9.432   6.888 -0.0098 -0.3910 -0.4339
 5399SOL    HW117919   8.155   9.509   6.837 -1.2967 -0.2896  0.3052
 5399SOL    HW217920   8.232   9.379   6.828 -2.5135 -0.8840 -2.3272
 5400SOL     OW17921   4.555   7.631   2.532  0.3333  0.3001 -0.7033
 5400SOL    HW117922   4.538   7.567   2.463  2.3357  1.3976 -2.3496
 5400SOL    HW217923   4.650   7.647   2.526  0.3095  1.5298  1.3438
 5401SOL     OW17924   1.143   2.781   8.686 -0.4070  0.0165 -0.2459
 5401SOL    HW117925   1.110   2.865   8.654 -0.6583 -0.1375 -0.3848
 5401SOL    HW217926   1.067   2.736   8.721 -0.8916 -1.4498 -2.9233
 5402SOL     OW17927   1.085   4.792   0.572 -0.1516  0.3582 -0.2860
 5402SOL    HW117928   1.039   4.778   0.655 -0.3693  0.2546 -0.4219
 5402SOL    HW217929   1.127   4.708   0.553 -0.3990  0.2711 -0.4589
 5403SOL     OW17930   8.162   7.712   0.787 -0.1157 -0.0890 -0.1935
 5403SOL    HW117931   8.119   7.794   0.762  0.9575  0.9017  1.0766
 5403SOL    HW217932   8.210   7.734   0.867  0.2627 -1.9473  0.1168
 5404SOL     OW17933   7.038   4.354   2.512 -0.0675  0.5881 -0.3057
 5404SOL    HW117934   6.996   4.386   2.432  0.5400 -0.3931 -1.0405
 5404SOL    HW217935   7.129   4.338   2.487  0.4170  1.3511  0.9024
 5405SOL     OW17936   4.504   5.431   9.158  0.0739  0.0881  0.2650
 5405SOL    HW117937   4.561   5.395   9.090 -0.6690 -0.8635  0.1305
 5405SOL    HW217938   4.564   5.470   9.221  0.8342 -0.1627 -0.2856
 5406SOL     OW17939   4.422   3.508   3.281 -0.5162 -0.1876 -0.2714
 5406SOL    HW117940   4.414   3.413   3.267  0.8792 -0.2078 -1.1927
 5406SOL    HW217941   4.370   3.547   3.211  1.8235 -0.3185 -2.2298
 5407SOL     OW17942   4.117   5.694   0.432  0.1900 -0.0703 -0.2607
 5407SOL    HW117943   4.034   5.720   0.394  0.3204 -0.2324 -0.6551
 5407SOL    HW217944   4.136   5.762   0.497 -0.2949 -0.0859 -0.1021
 5408SOL     OW17945   0.841   4.113   1.921 -0.7164 -0.7511  0.1417
 5408SOL    HW117946   0.799   4.171   1.857  0.0540  1.0075  1.1627
 5408SOL    HW217947   0.907   4.066   1.870 -0.1651  0.5620 -0.4236
 5409SOL     OW17948   3.985   5.624   0.194  0.3028  0.2122 -0.2606
 5409SOL    HW117949   4.044   5.579   0.134  1.9744  0.8644  0.8067
 5409SOL    HW217950   4.011   5.716   0.189 -0.8994  0.5829 -0.0429
 5410SOL     OW17951   5.148   4.030   7.555  0.4659  0.5445 -0.1432
 5410SOL    HW117952   5.073   4.063   7.604  1.0580 -0.1908  1.3300
 5410SOL    HW217953   5.113   4.008   7.469 -0.9936  0.3145  0.4814
 5411SOL     OW17954   2.636   8.032   5.581 -0.0462  0.0157  0.5969
 5411SOL    HW117955   2.692   7.961   5.612 -0.8391 -1.4189 -1.1002
 5411SOL    HW217956   2.621   8.085   5.659  1.6762 -0.8935  1.6252
 5412SOL     OW17957   1.537   1.157   5.732 -0.2322  0.1071  0.3413
 5412SOL    HW117958   1.519   1.247   5.705 -0.0607  0.2907  0.8389
 5412SOL    HW217959   1.627   1.158   5.763  0.0199 -0.4015 -0.3363
 5413SOL     OW17960   7.303   0.287   0.081 -0.1557  0.3609  0.0105
 5413SOL    HW117961   7.223   0.235   0.077 -0.0743  0.2641 -0.3462
 5413SOL    HW217962   7.342   0.278  -0.005  0.8729 -0.5743  0.5610
 5414SOL     OW17963   8.215   3.241   8.889  0.5385  0.4911  0.0878
 5414SOL    HW117964   8.174   3.207   8.968  2.6990  1.3589  1.6721
 5414SOL    HW217965   8.304   3.206   8.891  0.6992  0.6325 -1.9373
 5415SOL     OW17966   9.059   8.896   1.771  0.0044 -0.1256 -0.6905
 5415SOL    HW117967   9.043   8.912   1.864 -0.8218 -0.0287 -0.8418
 5415SOL    HW217968   9.126   8.827   1.769  1.5047  1.2554 -0.0280
 5416SOL     OW17969   2.847   6.017   3.183  0.0648  0.2688 -0.2401
 5416SOL    HW117970   2.760   5.977   3.186  0.4535 -0.5815  0.1336
 5416SOL    HW217971   2.873   6.026   3.275  0.8778 -0.6619 -0.3612
 5417SOL     OW17972   3.536   3.410   8.582  0.1736 -0.1655  0.6932
 5417SOL    HW117973   3.547   3.323   8.545 -1.5255 -0.8206  1.6165
 5417SOL    HW217974   3.537   3.396   8.677  1.7774  1.1050  0.9183
 5418SOL     OW17975   3.728   2.294   1.602 -0.4736 -0.2672  0.1770
 5418SOL    HW117976   3.780   2.375   1.603  0.4510 -0.8390 -0.2861
 5418SOL    HW217977   3.761   2.244   1.677 -1.5137  0.0694  0.8655
 5419SOL     OW17978   9.274   8.866   4.495  0.1522  0.0896 -0.3254
 5419SOL    HW117979   9.263   8.829   4.583  0.2308  1.3634  0.2427
 5419SOL    HW217980   9.336   8.807   4.452  0.3298 -0.3945  0.5677
 5420SOL     OW17981   5.537   1.772   7.399  0.2517  0.2491 -0.3838
 5420SOL    HW117982   5.493   1.774   7.485  0.8654  1.3344 -0.0692
 5420SOL    HW217983   5.624   1.737   7.417 -0.0719 -0.7972 -0.8077
 5421SOL     OW17984   2.856   1.277   3.821 -0.0881 -0.7729 -0.6558
 5421SOL    HW117985   2.857   1.306   3.730 -0.5744  1.1915 -0.0990
 5421SOL    HW217986   2.948   1.283   3.849 -0.3186  1.7334 -0.1900
 5422SOL     OW17987   6.607   1.585   4.562  0.1942  0.5605  0.6587
 5422SOL    HW117988   6.556   1.504   4.558  0.2346  0.5556  0.2118
 5422SOL    HW217989   6.543   1.654   4.545  0.4049  0.5279 -0.2870
 5423SOL     OW17990   4.879   0.568   8.776 -0.0152 -0.8052 -0.2974
 5423SOL    HW117991   4.944   0.551   8.844  0.4261 -0.2532 -0.5697
 5423SOL    HW217992   4.867   0.484   8.732  1.8000 -0.5623 -1.3528
 5424SOL     OW17993   4.997   0.694   2.068  0.1237 -0.5748 -0.6022
 5424SOL    HW117994   5.007   0.709   2.162  1.0019  1.6580 -0.9872
 5424SOL    HW217995   5.026   0.604   2.054 -1.2712 -1.4247  1.4087
 5425SOL     OW17996   5.164   0.994   5.648 -0.4644 -0.0271  0.0772
 5425SOL    HW117997   5.179   1.072   5.595  2.3680 -0.8138 -0.4621
 5425SOL    HW217998   5.209   1.011   5.731 -1.1569 -0.4946  0.5671
 5426SOL     OW17999   6.624   5.304   7.553  0.2031 -0.1953  0.6764
 5426SOL    HW118000   6.592   5.295   7.463  0.5612  0.0062  0.5262
 5426SOL    HW218001   6.656   5.216   7.576  1.0674 -0.0068  0.2336
 5427SOL     OW18002   7.405   8.474   6.974  0.1406  0.1080  0.1101
 5427SOL    HW118003   7.405   8.568   6.955 -1.3380 -0.0075 -0.6193
 5427SOL    HW218004   7.435   8.468   7.064 -2.5497  1.5658  1.2019
 5428SOL     OW18005   3.726   7.793   0.765  0.0180  0.6767  0.1503
 5428SOL    HW118006   3.665   7.749   0.824  0.9890 -0.9796 -0.0075
 5428SOL    HW218007   3.713   7.886   0.782 -2.1026  0.3701  0.5480
 5429SOL     OW18008   7.218   7.241   8.132  0.1657  0.0022 -0.3649
 5429SOL    HW118009   7.238   7.318   8.185  0.5351 -0.5130  0.2647
 5429SOL    HW218010   7.206   7.171   8.196  0.8269 -0.6820 -0.9730
 5430SOL     OW18011   2.938   0.408   4.794 -0.5707 -0.4683 -0.6221
 5430SOL    HW118012   2.906   0.393   4.705  1.1520  2.7256 -1.9329
 5430SOL    HW218013   2.860   0.436   4.843 -1.4482 -1.8181 -1.1832
 5431SOL     OW18014   4.178   6.612   6.183  0.1716  0.3584  0.3541
 5431SOL    HW118015   4.126   6.531   6.178 -0.2746  0.5992  0.8854
 5431SOL    HW218016   4.165   6.654   6.098  0.8014 -0.3516 -0.1121
 5432SOL     OW18017   1.465   4.366   9.232  0.1348  0.0182  0.2879
 5432SOL    HW118018   1.400   4.394   9.167 -1.6926 -1.4107  1.3985
 5432SOL    HW218019   1.474   4.272   9.217  1.0594 -0.0024  0.9272
 5433SOL     OW18020   9.707   4.369   7.810  0.0366  0.3734 -0.0518
 5433SOL    HW118021   9.636   4.407   7.759 -0.1196  0.5002  0.2592
 5433SOL    HW218022   9.727   4.287   7.765  0.4429  0.8711 -0.7760
 5434SOL     OW18023   9.670   0.234   3.433  0.2561 -0.1160 -0.3201
 5434SOL    HW118024   9.600   0.291   3.463 -0.9179 -1.5711 -0.1979
 5434SOL    HW218025   9.628   0.173   3.372  2.1039  1.1886 -3.1146
 5435SOL     OW18026   6.832   3.085   6.280 -0.5842  0.4791  0.3553
 5435SOL    HW118027   6.893   3.142   6.325  0.0239  0.4431 -0.3930
 5435SOL    HW218028   6.885   3.041   6.213 -1.3200  0.0600  0.0297
 5436SOL     OW18029   7.006   8.234   3.140 -0.4969  0.1880  0.4768
 5436SOL    HW118030   6.917   8.209   3.163 -0.2438 -0.7947  0.4690
 5436SOL    HW218031   7.035   8.165   3.080  0.3062  0.4212  0.5805
 5437SOL     OW18032   3.928   6.843   9.426 -0.3554 -1.1023 -0.2716
 5437SOL    HW118033   3.912   6.841   9.520  1.8575 -1.4646  0.1534
 5437SOL    HW218034   3.904   6.756   9.395 -0.6781 -1.1206  0.0328
 5438SOL     OW18035   0.628   7.343   9.681 -0.0265 -0.0959 -0.1752
 5438SOL    HW118036   0.640   7.283   9.755 -0.7238  0.2579  0.2393
 5438SOL    HW218037   0.559   7.303   9.629 -0.3658  0.2474  0.0048
 5439SOL     OW18038   7.295   4.693   0.454  0.1279 -0.5260 -0.4475
 5439SOL    HW118039   7.385   4.707   0.424  0.0555  1.4616  0.0940
 5439SOL    HW218040   7.301   4.622   0.517  1.5060  0.2077  0.3012
 5440SOL     OW18041   8.556   7.924   0.830 -0.3652  0.0769  0.1922
 5440SOL    HW118042   8.625   7.891   0.887 -0.2754  0.7775  0.4995
 5440SOL    HW218043   8.587   8.010   0.801 -1.1535  0.4587  0.4346
 5441SOL     OW18044   3.556   3.347   4.768 -0.3421 -0.6939 -0.3397
 5441SOL    HW118045   3.471   3.378   4.798 -0.7200 -0.5405 -1.5366
 5441SOL    HW218046   3.595   3.306   4.845 -1.5187 -0.8258  0.2029
 5442SOL     OW18047   3.219   6.363   4.041  0.2043  0.1695  0.0520
 5442SOL    HW118048   3.179   6.279   4.018  0.4478  0.2615 -0.7172
 5442SOL    HW218049   3.164   6.428   3.999  0.2742  0.3793  0.2815
 5443SOL     OW18050   7.981   8.023   4.372 -0.3338  0.4144  0.0786
 5443SOL    HW118051   7.940   8.064   4.295  0.8061  1.3580 -0.0472
 5443SOL    HW218052   8.050   7.968   4.335 -0.2973  0.2476  0.3961
 5444SOL     OW18053   7.578   6.998   7.625  0.3570 -0.0539  0.4759
 5444SOL    HW118054   7.571   6.905   7.603 -3.0954 -0.2817  1.8399
 5444SOL    HW218055   7.658   7.006   7.677  1.8364 -1.7778 -1.3790
 5445SOL     OW18056   0.369   6.355   1.170 -0.1261 -0.2360 -0.2427
 5445SOL    HW118057   0.423   6.277   1.154 -0.4946 -0.9385  1.6164
 5445SOL    HW218058   0.395   6.384   1.258  0.4029  2.1230 -1.1021
 5446SOL     OW18059   4.770   9.181   8.096  0.2070  0.5451 -0.4068
 5446SOL    HW118060   4.684   9.140   8.090  0.9488 -0.8964 -2.0878
 5446SOL    HW218061   4.820   9.144   8.023  1.3934  3.4423 -1.2285
 5447SOL     OW18062   1.122   2.937   1.916 -0.0305  0.3121  0.3041
 5447SOL    HW118063   1.084   3.020   1.946 -1.2066  0.0248 -0.3346
 5447SOL    HW218064   1.055   2.900   1.859  0.7476 -0.7870  0.0916
 5448SOL     OW18065   3.823   3.515   2.710 -0.5421  0.2170  0.3376
 5448SOL    HW118066   3.821   3.469   2.626  0.0287 -1.6704  1.2988
 5448SOL    HW218067   3.901   3.571   2.704 -0.0754 -0.4599 -0.1165
 5449SOL     OW18068   7.938   5.201   5.549 -0.2868 -0.3251 -0.0876
 5449SOL    HW118069   7.872   5.239   5.606  0.9790  0.9084  0.6402
 5449SOL    HW218070   7.990   5.145   5.607  1.2676  1.2631  0.1441
 5450SOL     OW18071   6.927   1.367   1.414 -0.1335 -0.2782 -0.1747
 5450SOL    HW118072   6.840   1.408   1.412 -0.4541 -0.9579 -0.4957
 5450SOL    HW218073   6.940   1.333   1.326  0.8830  0.6444 -0.4022
 5451SOL     OW18074   9.350   5.410   2.229  0.1326 -0.3412 -0.2826
 5451SOL    HW118075   9.305   5.486   2.193  0.9752 -0.0395 -0.7113
 5451SOL    HW218076   9.301   5.335   2.196 -0.6553 -0.0014  0.0799
 5452SOL     OW18077   4.874   3.460   3.002 -0.7557  0.3307  0.0707
 5452SOL    HW118078   4.915   3.487   3.084 -1.0820 -1.2283  0.7977
 5452SOL    HW218079   4.841   3.372   3.020  0.0307 -0.4661 -2.0300
 5453SOL     OW18080   1.147   0.912   8.085  0.7149 -0.1566 -0.0005
 5453SOL    HW118081   1.194   0.996   8.088  1.7507 -0.6552  4.0763
 5453SOL    HW218082   1.201   0.857   8.028  1.0540  1.3335 -1.2081
 5454SOL     OW18083   7.420   3.998   1.738  0.5834  0.4072  0.1652
 5454SOL    HW118084   7.482   4.070   1.725  0.1115  0.7709 -0.0802
 5454SOL    HW218085   7.337   4.030   1.703  0.6878 -0.7710 -1.2650
 5455SOL     OW18086   5.969   0.823   0.446 -0.8240 -0.1755 -0.0120
 5455SOL    HW118087   6.042   0.879   0.475 -0.4676  0.6675 -2.3487
 5455SOL    HW218088   6.001   0.734   0.457  0.0885  0.1620  0.1355
 5456SOL     OW18089   9.373   7.662   7.534 -0.9370 -0.0585 -0.1183
 5456SOL    HW118090   9.412   7.583   7.496 -2.7044  0.1857 -2.7878
 5456SOL    HW218091   9.439   7.730   7.521 -0.1209 -0.7002  0.5334
 5457SOL     OW18092   8.386   0.109   4.454  0.1496 -0.3513 -0.1401
 5457SOL    HW118093   8.356   0.053   4.526  1.2235 -1.0517 -0.2149
 5457SOL    HW218094   8.307   0.153   4.424 -0.3181  0.0835  1.5637
 5458SOL     OW18095   1.730   6.378   5.963  0.6443  0.1833 -0.0012
 5458SOL    HW118096   1.721   6.429   5.882 -1.3758  0.0373  0.0779
 5458SOL    HW218097   1.646   6.333   5.972  2.0945 -2.7232  0.2748
 5459SOL     OW18098   6.676   3.956   2.157  0.5655 -0.7037 -0.1109
 5459SOL    HW118099   6.722   3.995   2.231  1.2154  1.1211 -1.4014
 5459SOL    HW218100   6.718   3.871   2.145  1.4353 -0.4184  0.7422
 5460SOL     OW18101   2.732   2.152   3.048  0.2038  0.5850  0.6990
 5460SOL    HW118102   2.694   2.211   3.113 -1.3343  0.4566 -0.0366
 5460SOL    HW218103   2.656   2.115   3.003  1.1129 -2.0341  1.1786
 5461SOL     OW18104   5.883   9.151   2.306 -0.0057  0.8984 -0.8323
 5461SOL    HW118105   5.811   9.092   2.282 -0.8662  1.6252 -0.0932
 5461SOL    HW218106   5.864   9.232   2.259 -1.1686  2.0058  1.4040
 5462SOL     OW18107   0.031   3.769   7.117 -0.0564 -0.0838 -0.0537
 5462SOL    HW118108   0.024   3.695   7.177  0.4595  0.6319  0.9206
 5462SOL    HW218109  -0.021   3.838   7.158  1.2834  0.8036  0.2190
 5463SOL     OW18110   1.816   7.032   8.847  0.3727 -0.3273  0.1560
 5463SOL    HW118111   1.765   6.954   8.868  0.4757 -0.6342 -0.7222
 5463SOL    HW218112   1.871   7.006   8.774  0.0938  0.6892 -0.4332
 5464SOL     OW18113   8.274   1.075   0.849  0.1815  0.0606  0.3222
 5464SOL    HW118114   8.212   1.021   0.800  0.1800  2.6492 -2.8882
 5464SOL    HW218115   8.348   1.087   0.790  1.9514  0.4075  2.4632
 5465SOL     OW18116   1.675   8.786   7.876 -0.4491  0.1789 -0.0491
 5465SOL    HW118117   1.623   8.719   7.831  1.4241  0.9488 -3.7447
 5465SOL    HW218118   1.714   8.739   7.950 -0.8404 -2.2820 -1.2841
 5466SOL     OW18119   6.755   8.063   6.073 -0.1472 -0.0738  0.2979
 5466SOL    HW118120   6.736   8.022   5.989 -1.3584 -0.3756  0.6996
 5466SOL    HW218121   6.691   8.134   6.081  1.6606  1.6965 -0.1968
 5467SOL     OW18122   8.672   8.480   1.022  0.4233 -0.3552 -0.4347
 5467SOL    HW118123   8.727   8.432   0.960 -0.0237  0.4215 -1.4818
 5467SOL    HW218124   8.732   8.509   1.090  0.9701 -1.0565 -0.6084
 5468SOL     OW18125   3.027   1.742   4.403  0.0392 -0.3415  0.6731
 5468SOL    HW118126   3.004   1.769   4.314  0.6879 -0.6147  0.4145
 5468SOL    HW218127   3.100   1.799   4.427 -0.1499 -0.2521  1.0475
 5469SOL     OW18128   5.758   6.438   2.399  0.4716  0.1700 -0.3990
 5469SOL    HW118129   5.776   6.488   2.478 -0.9303  0.4364 -0.2271
 5469SOL    HW218130   5.755   6.347   2.429  2.5446 -0.0215 -0.6310
 5470SOL     OW18131   1.185   8.086   4.404  0.0899 -0.0811  0.3274
 5470SOL    HW118132   1.276   8.077   4.378  0.1518 -0.6656  0.7173
 5470SOL    HW218133   1.153   8.163   4.357  0.3258 -0.8223 -1.0792
 5471SOL     OW18134   0.255   7.858   4.664 -0.5017  0.9840 -0.1904
 5471SOL    HW118135   0.277   7.860   4.757 -0.7961  1.1650 -0.1264
 5471SOL    HW218136   0.161   7.875   4.661 -0.9400 -1.1172 -0.3639
 5472SOL     OW18137   2.380   0.250   1.420  0.3532  1.0261 -0.4652
 5472SOL    HW118138   2.426   0.208   1.493 -1.3865 -2.1116 -0.9899
 5472SOL    HW218139   2.322   0.313   1.461 -0.2528 -0.3435  0.9047
 5473SOL     OW18140   0.779   4.036   3.691 -0.3430  0.0018  0.2872
 5473SOL    HW118141   0.695   4.027   3.735 -0.1294 -0.0103  0.6901
 5473SOL    HW218142   0.786   4.129   3.670 -0.3895  0.0253  0.3821
 5474SOL     OW18143   8.721   4.671   1.595 -0.2606  0.4768  0.2421
 5474SOL    HW118144   8.766   4.594   1.631  0.6849  0.0733 -1.6640
 5474SOL    HW218145   8.793   4.729   1.567 -0.9414  0.7032 -1.0852
 5475SOL     OW18146   0.837   1.391   6.527  0.0892 -0.6248  0.2110
 5475SOL    HW118147   0.743   1.394   6.508 -0.2038  1.5395  1.6584
 5475SOL    HW218148   0.876   1.356   6.447 -1.8332 -0.4877 -0.8553
 5476SOL     OW18149   6.687   1.978   8.570  0.4992 -0.1305 -0.0818
 5476SOL    HW118150   6.682   1.928   8.488 -1.5387  0.0917 -0.1591
 5476SOL    HW218151   6.778   2.008   8.575  0.7392 -0.3716 -2.1432
 5477SOL     OW18152   7.912   8.256   9.283  0.0893 -0.0393  0.0305
 5477SOL    HW118153   7.937   8.212   9.202  0.7193 -0.7761  0.6078
 5477SOL    HW218154   7.991   8.254   9.336 -0.2478  0.6585  0.5657
 5478SOL     OW18155   0.852   5.531   2.106 -0.1347  0.0302 -0.0192
 5478SOL    HW118156   0.857   5.541   2.011 -0.9103  0.4357 -0.0238
 5478SOL    HW218157   0.828   5.439   2.119  0.2259 -0.0930 -0.2032
 5479SOL     OW18158   2.309   9.567   7.188  0.1596  0.0097  0.0770
 5479SOL    HW118159   2.276   9.527   7.108  0.6645  0.5636 -0.4099
 5479SOL    HW218160   2.276   9.657   7.186 -0.7729 -0.2871  1.0502
 5480SOL     OW18161   5.595   6.042   5.841  0.1412  0.0396  0.2886
 5480SOL    HW118162   5.573   6.135   5.842 -0.4927 -0.0922 -0.5898
 5480SOL    HW218163   5.574   6.013   5.752 -0.3681 -1.1047  0.7631
 5481SOL     OW18164   7.910   8.694   4.110  0.0902  0.0979 -0.5971
 5481SOL    HW118165   7.902   8.619   4.050  2.3669  1.1193 -2.3667
 5481SOL    HW218166   7.900   8.656   4.197  0.0009 -2.0787 -1.4822
 5482SOL     OW18167   5.257   3.711   1.738  0.4689 -0.4019 -0.1701
 5482SOL    HW118168   5.299   3.709   1.824  4.0539  1.3296 -1.7089
 5482SOL    HW218169   5.270   3.623   1.703  1.6173 -0.2796 -0.0733
 5483SOL     OW18170   9.535   6.990   3.262  0.6502  0.1460 -0.0763
 5483SOL    HW118171   9.601   7.027   3.320 -0.5457 -1.0233  2.1535
 5483SOL    HW218172   9.548   6.895   3.268 -1.3780 -0.1334  0.6828
 5484SOL     OW18173   7.107   1.702   6.295  0.1596  0.3415  0.2866
 5484SOL    HW118174   7.037   1.711   6.360 -0.4167 -0.5840 -0.1847
 5484SOL    HW218175   7.095   1.614   6.259  1.1258  0.4427 -0.3215
 5485SOL     OW18176   5.507   4.542   2.061  0.5916  0.0906 -0.1279
 5485SOL    HW118177   5.524   4.498   2.144  1.5259 -2.7445 -1.6864
 5485SOL    HW218178   5.594   4.566   2.028  0.1952  1.7549 -0.0498
 5486SOL     OW18179   8.101   8.024   1.944 -0.4341  0.1048 -0.5842
 5486SOL    HW118180   8.186   7.981   1.937  0.4061  1.6497 -0.4455
 5486SOL    HW218181   8.123   8.116   1.960 -2.0844 -0.0140  3.6162
 5487SOL     OW18182   2.777   3.048   1.627 -0.5889 -0.7359 -0.1910
 5487SOL    HW118183   2.868   3.058   1.656 -0.3139 -0.4489 -1.0910
 5487SOL    HW218184   2.728   3.110   1.681  0.3816  2.2316 -2.4106
 5488SOL     OW18185   8.460   4.903   7.301 -0.1754 -0.5466 -0.2795
 5488SOL    HW118186   8.507   4.866   7.375  1.7997  0.5382 -0.9072
 5488SOL    HW218187   8.386   4.949   7.340  0.5058 -0.4717  0.9918
 5489SOL     OW18188   6.438   0.900   7.369  0.2860  0.6115 -0.6233
 5489SOL    HW118189   6.354   0.946   7.371  1.6585  3.2913  1.5634
 5489SOL    HW218190   6.498   0.962   7.328  1.2162 -1.4439 -2.5897
 5490SOL     OW18191   1.452   2.865   5.816 -0.2062 -1.0260 -0.0084
 5490SOL    HW118192   1.459   2.956   5.844  0.9499 -0.8933 -0.6464
 5490SOL    HW218193   1.376   2.864   5.757 -0.4362 -0.5546  0.2687
 5491SOL     OW18194   4.657   8.132   4.612  0.2225  0.3604  0.6050
 5491SOL    HW118195   4.675   8.066   4.545  0.8694  0.6349  0.5018
 5491SOL    HW218196   4.689   8.214   4.574 -1.2580  0.8901  0.4100
 5492SOL     OW18197   7.238   8.666   9.473 -0.6722 -0.4226 -0.5940
 5492SOL    HW118198   7.160   8.721   9.481 -0.8437 -0.8262  0.6354
 5492SOL    HW218199   7.228   8.599   9.540  0.6136 -0.6408 -0.5864
 5493SOL     OW18200   2.798   9.509   0.146  0.5723  0.3022  0.1976
 5493SOL    HW118201   2.797   9.420   0.111  1.3865 -0.2380  1.4591
 5493SOL    HW218202   2.830   9.563   0.074  1.0410 -0.5782 -0.2712
 5494SOL     OW18203   6.510   3.851   2.594  0.0616  0.0135 -0.1365
 5494SOL    HW118204   6.489   3.919   2.530 -0.6145 -0.6312 -0.6292
 5494SOL    HW218205   6.605   3.845   2.592  0.3477  2.6081  1.7098
 5495SOL     OW18206   1.575   8.128   5.106 -0.0245  0.1251  0.1708
 5495SOL    HW118207   1.650   8.184   5.084  0.4933 -0.6239 -0.0258
 5495SOL    HW218208   1.610   8.063   5.167 -0.3847 -0.5374 -0.3040
 5496SOL     OW18209   7.032   5.955   3.379 -0.1911 -0.2604 -0.3248
 5496SOL    HW118210   6.965   5.915   3.323  0.3897 -0.5041 -0.8523
 5496SOL    HW218211   7.099   5.986   3.318  1.0543 -1.6379  0.2763
 5497SOL     OW18212   0.958   3.447   7.207 -0.3353 -0.2032 -0.1867
 5497SOL    HW118213   0.894   3.381   7.234 -0.4422 -0.2000 -0.4313
 5497SOL    HW218214   1.043   3.405   7.223 -0.3927 -1.0861 -1.9576
 5498SOL     OW18215   2.392   7.081   7.424  0.7048 -0.1112 -0.3335
 5498SOL    HW118216   2.313   7.028   7.421  0.7788 -0.2365 -0.0618
 5498SOL    HW218217   2.375   7.153   7.363  1.0689 -1.0721 -1.6129
 5499SOL     OW18218   3.013   9.407   5.000  0.2342 -0.0801  0.2001
 5499SOL    HW118219   3.000   9.460   4.921  1.0571 -0.6805 -0.3625
 5499SOL    HW218220   3.106   9.418   5.020  0.2591 -0.7552  0.4803
 5500SOL     OW18221   1.383   3.330   6.281 -0.0924 -0.0964 -0.1597
 5500SOL    HW118222   1.445   3.394   6.246  2.4724 -1.9524  0.6553
 5500SOL    HW218223   1.415   3.245   6.250 -1.4612 -1.2717  1.3833
 5501SOL     OW18224   7.321   1.764   2.577 -0.0267 -0.2635 -0.2376
 5501SOL    HW118225   7.249   1.711   2.542  0.3790 -1.0121  0.0262
 5501SOL    HW218226   7.396   1.705   2.576  0.4787  0.3703 -0.0897
 5502SOL     OW18227   3.915   2.352   6.824  0.2618 -0.5202 -0.0810
 5502SOL    HW118228   3.902   2.306   6.741  3.1008 -0.6088 -0.5606
 5502SOL    HW218229   3.882   2.291   6.891 -0.8210 -1.0079 -1.0213
 5503SOL     OW18230   9.303   4.254   2.695 -0.2623 -0.0468 -0.4151
 5503SOL    HW118231   9.344   4.268   2.610 -1.8871 -0.2267 -1.2687
 5503SOL    HW218232   9.366   4.202   2.744  1.1421  0.9096 -1.1319
 5504SOL     OW18233   0.027   8.973   6.166 -0.1791  0.1350 -0.3770
 5504SOL    HW118234   0.064   8.995   6.252 -1.8122  0.3277  0.3167
 5504SOL    HW218235  -0.068   8.976   6.180 -0.4673 -0.0867 -2.1382
 5505SOL     OW18236   2.854   6.094   5.744  0.4959 -0.4913  0.7206
 5505SOL    HW118237   2.917   6.024   5.762 -0.0444 -0.9624  0.8017
 5505SOL    HW218238   2.826   6.079   5.654  1.2272  0.3037  0.3494
 5506SOL     OW18239   4.105   8.646   4.139 -0.5135 -0.5451  0.8534
 5506SOL    HW118240   4.025   8.596   4.153 -0.2900 -1.1568  0.0485
 5506SOL    HW218241   4.076   8.734   4.117 -0.9414 -0.5554  1.3825
 5507SOL     OW18242   1.137   8.788   1.080  0.1184 -0.6284  0.1059
 5507SOL    HW118243   1.072   8.757   1.017  1.2922  1.0858 -2.0931
 5507SOL    HW218244   1.212   8.814   1.027  1.9838 -0.9563  2.4197
 5508SOL     OW18245   4.705   8.993   9.697  0.7240  0.6240  0.4348
 5508SOL    HW118246   4.772   9.043   9.649 -0.1358  1.2945 -0.0906
 5508SOL    HW218247   4.731   8.901   9.685  0.6052  0.7811 -1.2253
 5509SOL     OW18248   7.903   9.299   7.603 -0.4957 -0.7539 -0.0562
 5509SOL    HW118249   7.961   9.331   7.535 -1.0616 -0.0294 -0.2091
 5509SOL    HW218250   7.958   9.242   7.657  0.1357 -0.7482 -0.6821
 5510SOL     OW18251   5.080   1.255   8.631  0.6445  0.5648 -0.0324
 5510SOL    HW118252   5.135   1.327   8.662  0.3774  0.6224  0.3179
 5510SOL    HW218253   5.117   1.231   8.546  1.4903  0.2931  0.4064
 5511SOL     OW18254   9.663   6.382   0.424 -0.0316 -0.2087  0.2211
 5511SOL    HW118255   9.690   6.391   0.516  2.3816 -1.5782 -0.2713
 5511SOL    HW218256   9.606   6.458   0.409  0.6197  0.8255  2.4546
 5512SOL     OW18257   9.548   0.606   0.100 -0.7615  0.2276 -0.0145
 5512SOL    HW118258   9.586   0.692   0.083 -2.9421  1.1953 -0.3398
 5512SOL    HW218259   9.454   0.618   0.085 -1.7119 -1.1988  3.7069
 5513SOL     OW18260   3.555   7.113   0.022  0.1100 -0.0132  0.4376
 5513SOL    HW118261   3.478   7.102  -0.033  1.3796  0.6608 -1.6031
 5513SOL    HW218262   3.625   7.136  -0.039  1.3722  1.9592  2.4656
 5514SOL     OW18263   2.476   4.940   3.219 -0.0720  0.0719 -0.0241
 5514SOL    HW118264   2.509   5.005   3.280  0.8072 -0.7433  0.3920
 5514SOL    HW218265   2.444   4.991   3.145  2.8532  0.9008 -0.8342
 5515SOL     OW18266   3.933   2.068   6.700 -0.0846 -0.3324 -0.4745
 5515SOL    HW118267   3.928   1.977   6.670  1.7101 -0.4087 -0.6258
 5515SOL    HW218268   3.918   2.064   6.794 -1.6884 -0.5672 -0.7171
 5516SOL     OW18269   6.153   9.698   0.169  0.4701  0.1621  0.0373
 5516SOL    HW118270   6.158   9.793   0.172 -1.0142  0.2436  0.5806
 5516SOL    HW218271   6.065   9.679   0.137  0.6890 -1.0270  0.0773
 5517SOL     OW18272   5.452   0.147   2.515 -0.2550  0.1344 -0.1938
 5517SOL    HW118273   5.541   0.114   2.504  0.2485  1.1510  0.6802
 5517SOL    HW218274   5.455   0.237   2.483 -1.3077 -0.2186 -1.3777
 5518SOL     OW18275   9.619   9.390   5.059 -0.3613 -0.0551  0.1068
 5518SOL    HW118276   9.707   9.354   5.066 -0.1650  0.4140  0.1187
 5518SOL    HW218277   9.565   9.336   5.116  0.4488  1.3023  2.2705
 5519SOL     OW18278   1.365   0.840   7.731 -0.1836  0.5104  0.3310
 5519SOL    HW118279   1.286   0.807   7.775  0.1817 -0.9226 -0.0374
 5519SOL    HW218280   1.431   0.842   7.801  0.7117 -2.8594 -0.2548
 5520SOL     OW18281   9.364   8.019   7.540 -0.1268  0.4590  0.0715
 5520SOL    HW118282   9.288   7.963   7.553 -0.4057  1.3508  2.8076
 5520SOL    HW218283   9.439   7.961   7.548 -0.4075 -0.5317 -3.1888
 5521SOL     OW18284   2.854   7.039   6.809  0.5399  0.0485  0.1485
 5521SOL    HW118285   2.794   7.030   6.883 -0.5391  1.6765 -0.4786
 5521SOL    HW218286   2.904   7.118   6.828 -0.5076  1.1206 -1.3200
 5522SOL     OW18287   6.868   6.993   4.390  0.4914  0.2233 -0.0812
 5522SOL    HW118288   6.842   7.021   4.477  1.0620  0.2153  0.0955
 5522SOL    HW218289   6.859   6.898   4.391  0.8759  0.1843  0.1042
 5523SOL     OW18290   7.460   7.531   4.638  0.0228  0.1902 -0.0044
 5523SOL    HW118291   7.461   7.496   4.548 -1.3580  1.7029 -0.6653
 5523SOL    HW218292   7.403   7.472   4.686  2.2581 -1.7395  0.4268
 5524SOL     OW18293   5.568   7.199   4.985  0.7082  0.3531 -0.2183
 5524SOL    HW118294   5.649   7.181   5.033  0.8877  2.4169  0.3201
 5524SOL    HW218295   5.594   7.257   4.914 -0.5513  2.8156  1.2078
 5525SOL     OW18296   7.060   7.128   4.949 -0.1116  0.1953  0.7644
 5525SOL    HW118297   6.979   7.079   4.959 -0.7267  1.1763  0.7468
 5525SOL    HW218298   7.072   7.173   5.033  0.1717  0.4169  0.6099
 5526SOL     OW18299   7.815   9.163   8.945 -0.5667 -0.3921  0.6791
 5526SOL    HW118300   7.759   9.086   8.949 -2.3847  0.7674 -0.4110
 5526SOL    HW218301   7.758   9.235   8.974 -0.3470  1.1238 -2.2066
 5527SOL     OW18302   2.670   1.715   9.398  0.4582 -0.6208  0.0244
 5527SOL    HW118303   2.672   1.799   9.352 -1.2881 -0.1561  0.7004
 5527SOL    HW218304   2.734   1.725   9.469  1.6263 -0.5801 -1.0012
 5528SOL     OW18305   6.362   4.542   0.575 -0.4138  0.1546 -0.2193
 5528SOL    HW118306   6.326   4.456   0.595 -0.0752 -0.2346 -1.2395
 5528SOL    HW218307   6.417   4.564   0.650 -0.1516 -0.7119 -0.1547
 5529SOL     OW18308   5.530   9.021   7.283 -0.5583 -0.0916 -0.0960
 5529SOL    HW118309   5.557   9.110   7.307 -0.1426 -0.6422  1.5964
 5529SOL    HW218310   5.506   8.980   7.366  3.1452 -2.8483 -0.1135
 5530SOL     OW18311   6.837   0.441   8.971  0.4295  0.0198  0.1491
 5530SOL    HW118312   6.892   0.488   8.907  1.1624 -0.4194  0.4431
 5530SOL    HW218313   6.748   0.456   8.941  0.7938 -1.1709 -1.7135
 5531SOL     OW18314   3.548   0.071   1.057  0.7481 -0.2591  0.3926
 5531SOL    HW118315   3.529   0.020   0.979  3.0359  0.5150 -0.7383
 5531SOL    HW218316   3.504   0.155   1.042 -1.6340 -1.2000  1.5281
 5532SOL     OW18317   2.226   7.470   7.447 -0.6128  0.4845  0.0009
 5532SOL    HW118318   2.197   7.383   7.475 -0.7021 -0.6941 -3.3682
 5532SOL    HW218319   2.190   7.530   7.513 -0.5154 -1.9678  2.4467
 5533SOL     OW18320   4.543   8.544   0.096 -0.6475 -0.7104  0.0816
 5533SOL    HW118321   4.543   8.531   0.191  1.3429 -0.3748  0.1573
 5533SOL    HW218322   4.602   8.617   0.081 -0.9456 -0.7456 -1.4361
 5534SOL     OW18323   0.420   8.382   3.620 -0.2630 -0.0888 -0.7630
 5534SOL    HW118324   0.364   8.405   3.695  0.3113  1.0799 -0.6621
 5534SOL    HW218325   0.394   8.293   3.597 -0.2931 -0.5757  0.9809
 5535SOL     OW18326   6.338   3.939   7.391 -0.4693 -0.5590 -0.3145
 5535SOL    HW118327   6.374   3.968   7.475 -0.7313  1.6509 -0.9101
 5535SOL    HW218328   6.410   3.949   7.329 -1.0555  0.5088 -0.8504
 5536SOL     OW18329   4.878   3.055   5.526 -0.2134 -0.4670  0.3282
 5536SOL    HW118330   4.812   2.989   5.549 -0.7086  0.6809  2.3934
 5536SOL    HW218331   4.862   3.128   5.585  0.2559  1.6136 -1.9462
 5537SOL     OW18332   1.206   4.077   7.316  0.3780 -0.1994 -0.0897
 5537SOL    HW118333   1.173   4.087   7.227 -0.0560  0.1811  0.1100
 5537SOL    HW218334   1.132   4.041   7.365 -0.0291  1.3766  0.5326
 5538SOL     OW18335   1.619   9.154   5.672  0.3393  0.1609 -0.0772
 5538SOL    HW118336   1.665   9.106   5.742  0.8699 -1.0835 -1.2336
 5538SOL    HW218337   1.687   9.172   5.607 -0.5194 -0.4873 -1.1871
 5539SOL     OW18338   5.267   5.883   7.011  0.2405 -0.0239  0.1262
 5539SOL    HW118339   5.199   5.819   7.033  0.6955 -1.6388 -2.6676
 5539SOL    HW218340   5.346   5.851   7.055  0.4014 -1.2970 -1.0379
 5540SOL     OW18341   6.957   7.189   4.015 -0.0179  0.1323 -0.5107
 5540SOL    HW118342   6.941   7.127   3.944  1.0165 -0.0045 -0.6470
 5540SOL    HW218343   7.053   7.189   4.025 -0.0454  1.2746 -0.1276
 5541SOL     OW18344   1.101   0.328   0.513 -0.2948 -0.1384 -0.3579
 5541SOL    HW118345   1.154   0.407   0.503 -0.0563 -0.4594 -2.0564
 5541SOL    HW218346   1.134   0.285   0.591  1.5459 -0.0248 -1.0435
 5542SOL     OW18347   1.618   2.201   3.067  0.3075  0.3776 -0.1454
 5542SOL    HW118348   1.695   2.257   3.062  0.8195 -0.3527 -0.7118
 5542SOL    HW218349   1.549   2.250   3.022  1.4234 -0.4849 -3.0242
 5543SOL     OW18350   0.855   3.400   5.038 -0.4695 -0.5680  0.5846
 5543SOL    HW118351   0.773   3.431   5.075 -1.1451 -0.2676 -1.0940
 5543SOL    HW218352   0.920   3.465   5.066 -1.6682  1.9596 -1.9834
 5544SOL     OW18353   9.017   4.081   7.535  0.0229  0.1568  0.7010
 5544SOL    HW118354   8.962   4.114   7.606 -1.8355 -1.2583 -0.0195
 5544SOL    HW218355   9.102   4.065   7.577 -0.5165  0.9801  2.1965
 5545SOL     OW18356   1.957   8.997   0.935  0.5093 -0.3211 -0.1649
 5545SOL    HW118357   1.909   8.950   1.003 -0.0236  0.8692  0.3215
 5545SOL    HW218358   1.982   9.079   0.977 -0.6866  0.8867 -1.6744
 5546SOL     OW18359   0.914   4.080   2.194 -0.2306 -0.3507 -0.0318
 5546SOL    HW118360   1.000   4.122   2.185  1.1208 -2.5840  1.3538
 5546SOL    HW218361   0.880   4.075   2.105  1.2100  0.3226 -0.6575
 5547SOL     OW18362   2.698   1.381   8.480 -0.7551  0.6127  0.6541
 5547SOL    HW118363   2.654   1.465   8.466  0.9530  1.5431  0.6242
 5547SOL    HW218364   2.710   1.346   8.392  0.3750  1.3459  0.4998
 5548SOL     OW18365   8.748   5.246   6.862 -0.0049 -0.2520  0.0013
 5548SOL    HW118366   8.731   5.156   6.835 -0.9124  0.1877 -0.9583
 5548SOL    HW218367   8.679   5.297   6.820 -0.0260  0.7908  1.2305
 5549SOL     OW18368   0.251   8.040   2.989 -0.1408 -0.3066  0.0556
 5549SOL    HW118369   0.170   8.041   2.937 -0.4612 -0.9804  0.5391
 5549SOL    HW218370   0.264   7.948   3.012 -0.7268  0.1085  2.2829
 5550SOL     OW18371   4.263   6.760   6.407 -0.0735 -0.2985 -0.5679
 5550SOL    HW118372   4.290   6.689   6.349  1.0009  1.3009 -2.1221
 5550SOL    HW218373   4.345   6.788   6.449 -0.6460 -0.6033  0.8288
 5551SOL     OW18374   1.546   4.068   9.702 -0.3270  0.0672 -0.2098
 5551SOL    HW118375   1.526   3.986   9.746  2.0434 -1.1137 -1.1468
 5551SOL    HW218376   1.615   4.108   9.755  0.1972  0.2740 -1.0186
 5552SOL     OW18377   3.613   5.788   9.186 -0.1915  0.0029  0.6450
 5552SOL    HW118378   3.534   5.768   9.134  1.4560 -0.0238 -2.0426
 5552SOL    HW218379   3.588   5.863   9.240 -1.5370  1.2353 -1.5496
 5553SOL     OW18380   3.380   8.196   5.125 -0.0499  0.0222 -0.5243
 5553SOL    HW118381   3.434   8.275   5.126  0.9175 -0.6282 -0.0629
 5553SOL    HW218382   3.290   8.229   5.131  0.3640  1.0616  0.4545
 5554SOL     OW18383   8.904   3.942   7.068  0.0590 -0.0350  0.2892
 5554SOL    HW118384   8.983   3.950   7.122  0.4074 -0.5466 -0.1395
 5554SOL    HW218385   8.851   3.876   7.113 -0.9979  1.6281  1.6117
 5555SOL     OW18386   2.899   2.123   3.447  0.5177 -0.8136 -0.7660
 5555SOL    HW118387   2.809   2.097   3.464  0.0777  0.3681 -1.2043
 5555SOL    HW218388   2.893   2.194   3.383  1.6703  0.1434  0.1231
 5556SOL     OW18389   1.651   8.111   3.953 -0.4055  0.1449  0.1236
 5556SOL    HW118390   1.578   8.170   3.934 -0.2924  0.0094 -0.7731
 5556SOL    HW218391   1.612   8.024   3.956 -0.3910  0.1443  0.3717
 5557SOL     OW18392   6.797   5.274   6.340  0.1689  0.0307  0.5138
 5557SOL    HW118393   6.826   5.276   6.248  1.3467  0.6708  0.8820
 5557SOL    HW218394   6.770   5.183   6.354  1.1118 -0.3748 -0.1357
 5558SOL     OW18395   1.049   5.525   6.341  0.5126 -0.0435 -0.3664
 5558SOL    HW118396   1.145   5.527   6.338  0.5593  0.4796  0.8085
 5558SOL    HW218397   1.029   5.511   6.433 -0.5479  2.2695 -0.1931
 5559SOL     OW18398   9.496   0.485   8.412  0.5952 -0.6987 -0.1520
 5559SOL    HW118399   9.543   0.495   8.495 -1.3088  1.1233  0.7985
 5559SOL    HW218400   9.407   0.512   8.432 -0.4944 -2.4368 -2.2769
 5560SOL     OW18401   4.923   9.463   3.333  0.6330  0.8839  0.0207
 5560SOL    HW118402   4.961   9.453   3.420 -1.2053 -0.2251  0.7554
 5560SOL    HW218403   4.918   9.374   3.299  0.5564  1.2266 -0.8978
 5561SOL     OW18404   8.243   9.051   1.148 -0.4978 -0.8697 -0.3070
 5561SOL    HW118405   8.218   9.138   1.117 -1.3088 -1.1288 -0.3990
 5561SOL    HW218406   8.195   8.990   1.092 -0.7146 -1.3684  0.3999
 5562SOL     OW18407   2.732   1.564   8.189 -0.3980 -0.0466  0.3188
 5562SOL    HW118408   2.783   1.483   8.181  1.5507  1.2432 -1.2217
 5562SOL    HW218409   2.781   1.618   8.250 -0.9231  0.5098  0.2561
 5563SOL     OW18410   4.540   0.976   9.205  0.9840  0.4755 -0.3068
 5563SOL    HW118411   4.501   0.954   9.289  2.4040 -2.5918 -0.3086
 5563SOL    HW218412   4.504   0.912   9.144  1.3386  1.5162 -1.6672
 5564SOL     OW18413   8.207   8.756   1.369 -0.0046  0.0895  0.1211
 5564SOL    HW118414   8.134   8.723   1.316 -0.7502  1.2276  0.4187
 5564SOL    HW218415   8.182   8.734   1.459  0.0445  0.4363  0.2176
 5565SOL     OW18416   5.870   0.363   5.455 -0.2603  0.3736 -0.0840
 5565SOL    HW118417   5.856   0.445   5.502 -0.6701  0.1311  0.2245
 5565SOL    HW218418   5.839   0.381   5.366 -0.3717  0.5436 -0.0113
 5566SOL     OW18419   6.385   0.039   6.764 -0.6365  0.6386  0.0643
 5566SOL    HW118420   6.313   0.084   6.719 -1.4582 -0.6369  0.0211
 5566SOL    HW218421   6.345   0.005   6.844 -0.3280 -0.8227 -0.3681
 5567SOL     OW18422   7.894   3.045   8.133  0.3951 -0.5580 -0.0883
 5567SOL    HW118423   7.951   3.029   8.058 -0.1611 -1.7814 -0.2873
 5567SOL    HW218424   7.899   3.139   8.148 -0.1031 -0.1441 -2.1730
 5568SOL     OW18425   8.297   8.193   6.193  0.8797  0.6141 -0.6773
 5568SOL    HW118426   8.247   8.120   6.156  1.8029 -0.8454  0.7936
 5568SOL    HW218427   8.312   8.252   6.119 -0.8619 -0.1136 -1.6731
 5569SOL     OW18428   2.818   6.052   5.437 -0.2462  0.1387  0.1086
 5569SOL    HW118429   2.885   5.985   5.424 -0.1787  0.4440 -1.3266
 5569SOL    HW218430   2.735   6.004   5.441 -0.0337 -0.1681  0.9995
 5570SOL     OW18431   0.167   3.392   0.288  0.0955 -0.1438  0.0125
 5570SOL    HW118432   0.131   3.433   0.210 -2.9030 -2.4125  0.0237
 5570SOL    HW218433   0.247   3.350   0.259  0.2200  0.9297 -1.2819
 5571SOL     OW18434   3.070   7.580   2.738 -0.7740  0.1002 -0.2730
 5571SOL    HW118435   3.052   7.639   2.812 -0.3908  0.2435 -0.2953
 5571SOL    HW218436   3.037   7.495   2.766 -0.4952  0.1226  0.1211
 5572SOL     OW18437   2.184   0.732   0.659  0.1105  0.0686  0.2725
 5572SOL    HW118438   2.270   0.767   0.637 -0.0740 -0.1625 -0.9018
 5572SOL    HW218439   2.133   0.741   0.578 -0.4208 -1.4095  0.4027
 5573SOL     OW18440   2.230   5.861   2.903 -0.4389 -0.5665  0.1934
 5573SOL    HW118441   2.322   5.880   2.921 -0.7003 -0.0057  1.0141
 5573SOL    HW218442   2.201   5.933   2.846 -0.7939  0.2088  1.3160
 5574SOL     OW18443   5.869   5.880   9.212  0.2086  0.3576  0.3710
 5574SOL    HW118444   5.850   5.802   9.264 -1.7427  0.6894  0.2513
 5574SOL    HW218445   5.887   5.847   9.124 -0.5486  0.0196  0.3338
 5575SOL     OW18446   6.181   1.951   4.168  0.2213  0.1121  0.2459
 5575SOL    HW118447   6.268   1.943   4.128  0.3990  0.1869  0.6158
 5575SOL    HW218448   6.159   2.044   4.155  0.3586  0.1786  0.4840
 5576SOL     OW18449   7.836   9.677   1.356  0.8093 -0.4179  0.4248
 5576SOL    HW118450   7.800   9.602   1.309  0.7692 -1.0609  1.4558
 5576SOL    HW218451   7.926   9.651   1.379  0.4846 -0.5493  1.6125
 5577SOL     OW18452   5.497   2.418   7.872  0.5774 -0.0365 -0.1669
 5577SOL    HW118453   5.480   2.478   7.799 -0.8751 -2.1195 -1.6521
 5577SOL    HW218454   5.411   2.403   7.911  0.8810 -1.2461  0.0805
 5578SOL     OW18455   7.843   2.520   4.640 -0.1237 -0.2814  0.0518
 5578SOL    HW118456   7.906   2.587   4.666 -0.4832  0.6846 -1.4002
 5578SOL    HW218457   7.854   2.450   4.704  1.2347  0.5765  0.8122
 5579SOL     OW18458   1.982   6.436   6.007 -0.0613 -0.2051  0.3459
 5579SOL    HW118459   1.891   6.407   6.008  0.0359 -0.6903 -1.3643
 5579SOL    HW218460   1.984   6.506   5.941  0.6463  0.4360  1.0163
 5580SOL     OW18461   1.774   6.488   2.262  0.3591  0.1416  0.2134
 5580SOL    HW118462   1.806   6.397   2.265  0.4209  0.0038 -2.2783
 5580SOL    HW218463   1.687   6.483   2.301  1.2288 -0.4817  2.2637
 5581SOL     OW18464   1.924   7.835   2.211 -0.0655  0.1841  0.2554
 5581SOL    HW118465   1.962   7.753   2.244  0.0196 -0.9414 -2.3821
 5581SOL    HW218466   1.999   7.893   2.199  0.4818 -0.8882 -1.8552
 5582SOL     OW18467   2.015   5.831   1.733 -0.1211  0.8049 -0.0559
 5582SOL    HW118468   2.110   5.843   1.744  0.1131 -0.3262 -0.7169
 5582SOL    HW218469   2.000   5.839   1.639 -0.4041 -0.7517 -0.1713
 5583SOL     OW18470   6.674   8.782   4.787  0.0603  0.3046  0.1288
 5583SOL    HW118471   6.758   8.802   4.827  0.4088  1.0078 -0.9109
 5583SOL    HW218472   6.626   8.733   4.854  1.3140 -0.1550  0.7174
 5584SOL     OW18473   1.226   7.694   2.061 -0.1969 -0.6851  0.0037
 5584SOL    HW118474   1.150   7.663   2.012 -0.5292 -0.1560  0.1733
 5584SOL    HW218475   1.189   7.750   2.129  0.3533 -0.2932 -0.0127
 5585SOL     OW18476   8.616   7.730   5.988 -0.6687  0.3833 -0.0062
 5585SOL    HW118477   8.660   7.780   5.919  2.3450 -3.9127 -1.6622
 5585SOL    HW218478   8.534   7.702   5.949 -0.6714  0.9960 -0.4524
 5586SOL     OW18479   2.644   5.222   6.912  0.1314  0.5025  0.2002
 5586SOL    HW118480   2.548   5.224   6.913  0.1409  0.8539  0.3407
 5586SOL    HW218481   2.666   5.189   6.824 -0.1420 -1.1602  0.7191
 5587SOL     OW18482   8.021   2.887   6.339  0.3370 -0.3642 -0.3248
 5587SOL    HW118483   8.072   2.874   6.419  0.9435  0.3432 -0.5922
 5587SOL    HW218484   8.023   2.801   6.296  1.6623 -0.2492 -0.5368
 5588SOL     OW18485   9.698   8.517   7.582  0.3437 -0.1813 -0.4558
 5588SOL    HW118486   9.792   8.527   7.568  0.4661 -1.7311 -0.9774
 5588SOL    HW218487   9.687   8.424   7.604 -1.3945 -0.8407 -3.4740
 5589SOL     OW18488   8.923   0.280   7.616 -0.2839 -0.2212  0.1540
 5589SOL    HW118489   8.938   0.203   7.561  1.0341 -2.8568  3.7245
 5589SOL    HW218490   8.984   0.345   7.584 -0.9391 -0.8307 -2.5937
 5590SOL     OW18491   7.100   3.997   3.549 -0.3667 -0.0373  0.2924
 5590SOL    HW118492   7.111   3.934   3.620 -0.7998  0.5848  0.9251
 5590SOL    HW218493   7.086   4.081   3.593  0.8717  0.6353 -0.5235
 5591SOL     OW18494   8.829   7.301   7.783  0.2393  0.1415  0.1577
 5591SOL    HW118495   8.742   7.268   7.807  0.9437 -1.4119  0.7012
 5591SOL    HW218496   8.822   7.317   7.688 -1.2077  2.0097  0.5069
 5592SOL     OW18497   7.323   1.981   3.982  0.4836 -0.3728  0.2478
 5592SOL    HW118498   7.401   2.023   3.947 -0.4823  0.6195 -0.7993
 5592SOL    HW218499   7.257   2.050   3.983 -0.5302 -1.3181  0.6041
 5593SOL     OW18500   0.007   2.827   1.786 -0.0056  0.1460 -0.5464
 5593SOL    HW118501   0.070   2.886   1.828  1.0157 -2.4826  1.9765
 5593SOL    HW218502  -0.040   2.786   1.858  0.5628 -3.3297 -1.9155
 5594SOL     OW18503   8.594   6.805   4.678  0.4238  0.6457 -0.4597
 5594SOL    HW118504   8.554   6.862   4.744 -0.0227 -1.4818  1.2389
 5594SOL    HW218505   8.521   6.757   4.640  1.0396 -1.8548  1.2714
 5595SOL     OW18506   7.709   7.924   4.370  0.0572 -0.2549 -0.2106
 5595SOL    HW118507   7.671   7.932   4.283 -1.4257  1.9409  0.5538
 5595SOL    HW218508   7.791   7.973   4.365 -1.3239  2.2283  0.2630
 5596SOL     OW18509   2.925   3.974   4.164  0.3197 -0.9569  0.1545
 5596SOL    HW118510   2.830   3.962   4.164  0.4553 -2.6225 -2.1365
 5596SOL    HW218511   2.938   4.066   4.188 -1.9638 -0.2532 -1.0349
 5597SOL     OW18512   7.511   1.537   9.159 -0.0293  0.1363  0.4927
 5597SOL    HW118513   7.429   1.493   9.136  0.2586 -0.8391  1.2548
 5597SOL    HW218514   7.498   1.565   9.250  0.5663 -0.2313  0.6924
 5598SOL     OW18515   1.971   7.515   7.075 -0.0066 -0.6304 -0.1338
 5598SOL    HW118516   2.003   7.526   7.164  0.1798 -0.9435 -0.1619
 5598SOL    HW218517   1.998   7.426   7.050 -0.8548 -0.8960 -0.1653
 5599SOL     OW18518   5.331   5.508   7.974 -0.0087  0.1032  0.0487
 5599SOL    HW118519   5.279   5.499   8.054  1.4797 -0.4633  0.9837
 5599SOL    HW218520   5.289   5.579   7.926 -0.6907  0.7320  1.5259
 5600SOL     OW18521   7.542   4.666   0.975 -0.2370 -0.7512 -0.0586
 5600SOL    HW118522   7.558   4.756   0.944 -1.7894 -0.7313 -0.8972
 5600SOL    HW218523   7.539   4.674   1.071 -2.0542  0.4357 -0.1703
 5601SOL     OW18524   4.127   9.137   5.216 -0.2316  0.0940 -0.2435
 5601SOL    HW118525   4.061   9.174   5.158  0.0841 -1.0039 -1.3612
 5601SOL    HW218526   4.097   9.048   5.233  1.5853 -0.9092 -1.9079
 5602SOL     OW18527   0.904   3.933   0.884  0.0930 -0.4357 -0.1055
 5602SOL    HW118528   0.969   3.936   0.955  1.0903 -0.6290 -0.9850
 5602SOL    HW218529   0.822   3.913   0.928  0.3589  1.1282  1.2130
 5603SOL     OW18530   1.298   6.373   5.552 -0.0787  0.9689  0.2886
 5603SOL    HW118531   1.352   6.323   5.613 -1.7579  1.1723  2.0456
 5603SOL    HW218532   1.358   6.437   5.514  1.1648  0.4318  1.2573
 5604SOL     OW18533   6.300   1.394   8.822 -0.4389 -0.0917  0.0865
 5604SOL    HW118534   6.344   1.309   8.835  3.0127  1.3005 -1.2106
 5604SOL    HW218535   6.251   1.382   8.741  0.5207 -0.7182 -0.4326
 5605SOL     OW18536   1.746   9.523   9.009  0.3284  0.1352  0.3983
 5605SOL    HW118537   1.825   9.471   9.019  0.4941  0.6641  2.0350
 5605SOL    HW218538   1.726   9.556   9.097 -1.0730  0.9386 -0.1747
 5606SOL     OW18539   3.305   2.823   4.599 -0.0028  0.0814 -0.9435
 5606SOL    HW118540   3.230   2.823   4.659  0.0025  2.1933 -0.8892
 5606SOL    HW218541   3.381   2.838   4.656  0.1836  0.4606 -1.2888
 5607SOL     OW18542   4.746   6.973   1.576  0.5256  0.2512 -0.1061
 5607SOL    HW118543   4.828   6.924   1.585  0.0978 -0.7313 -1.3663
 5607SOL    HW218544   4.771   7.063   1.599  1.7642 -0.1701  0.3352
 5608SOL     OW18545   0.436   3.071   7.167  0.0015  0.0065 -0.0096
 5608SOL    HW118546   0.466   3.060   7.258  1.6808 -1.7082 -0.7015
 5608SOL    HW218547   0.436   2.982   7.131 -3.3003  0.2667 -0.9618
 5609SOL     OW18548   1.061   3.775   4.964  0.0580  0.2511 -0.1471
 5609SOL    HW118549   1.072   3.688   5.001 -1.1079 -0.6471 -1.7581
 5609SOL    HW218550   0.966   3.788   4.962  0.1861  1.2295 -0.6389
 5610SOL     OW18551   2.808   0.019   4.765 -0.0450 -0.4501 -0.5597
 5610SOL    HW118552   2.754   0.095   4.788 -0.1532 -0.3520 -1.1111
 5610SOL    HW218553   2.777  -0.006   4.678 -0.2111 -1.3097 -0.2677
 5611SOL     OW18554   8.779   8.895   6.338 -0.2652  0.0023  0.3391
 5611SOL    HW118555   8.699   8.946   6.326 -1.6779 -1.8254  1.5845
 5611SOL    HW218556   8.840   8.955   6.381 -0.9815  1.3622 -0.4673
 5612SOL     OW18557   9.181   1.630   5.049  0.5543  0.5726  0.1544
 5612SOL    HW118558   9.087   1.617   5.035  0.3666  1.4084  0.5749
 5612SOL    HW218559   9.193   1.725   5.048  1.3249  0.4894  0.5408
 5613SOL     OW18560   0.724   7.941   4.586  0.2064  0.1220  0.2205
 5613SOL    HW118561   0.794   7.991   4.628  1.5105 -1.7220  0.3383
 5613SOL    HW218562   0.765   7.859   4.559 -1.5207 -0.3332 -1.2418
 5614SOL     OW18563   6.769   1.337   6.283 -0.1005 -0.6158 -0.1511
 5614SOL    HW118564   6.696   1.360   6.226  0.3522 -0.5130 -0.6952
 5614SOL    HW218565   6.780   1.243   6.270 -0.6841 -0.7994  0.5881
 5615SOL     OW18566   4.296   0.930   4.944 -0.1644  0.0639 -0.3635
 5615SOL    HW118567   4.324   0.842   4.920  2.5224  0.0079  2.3882
 5615SOL    HW218568   4.343   0.988   4.884 -0.7454 -0.2797 -1.1700
 5616SOL     OW18569   4.333   0.351   4.316 -0.0886  0.1519  0.6784
 5616SOL    HW118570   4.344   0.385   4.227  0.9467  0.8253  1.0398
 5616SOL    HW218571   4.362   0.423   4.372 -0.7641 -0.2522  1.5669
 5617SOL     OW18572   2.830   3.539   7.041  0.1182  0.2665 -0.3349
 5617SOL    HW118573   2.844   3.444   7.043 -0.0540  0.2253 -0.9842
 5617SOL    HW218574   2.858   3.569   7.128 -0.5062 -0.4697  0.1307
 5618SOL     OW18575   3.693   7.740   1.103 -0.6655  0.6216 -0.6714
 5618SOL    HW118576   3.634   7.683   1.153 -0.2991  1.0586  0.2804
 5618SOL    HW218577   3.660   7.829   1.118  0.1934  0.8664 -0.1820
 5619SOL     OW18578   4.242   4.545   2.008 -0.0463 -0.2489  0.1814
 5619SOL    HW118579   4.253   4.451   2.021 -0.1139 -0.3103 -0.1976
 5619SOL    HW218580   4.290   4.564   1.928 -0.2159  0.0036  0.1386
 5620SOL     OW18581   8.117   8.598   4.868 -0.0218  0.4417  0.4590
 5620SOL    HW118582   8.097   8.669   4.808  2.5345  1.7728  1.0346
 5620SOL    HW218583   8.176   8.541   4.820 -0.5058 -0.2497  0.6639
 5621SOL     OW18584   4.179   8.540   1.823 -0.4967  0.2382  0.8378
 5621SOL    HW118585   4.141   8.616   1.780  0.0463  0.6131  1.0015
 5621SOL    HW218586   4.167   8.468   1.761  0.4510  0.8112 -0.0490
 5622SOL     OW18587   0.937   1.945   0.205 -0.0180  0.0053 -0.2319
 5622SOL    HW118588   0.943   1.921   0.113 -0.8190  0.5043 -0.4235
 5622SOL    HW218589   0.993   1.882   0.250  3.0787  1.7189 -1.3893
 5623SOL     OW18590   3.545   5.559   6.827 -0.0835 -0.3682 -0.1760
 5623SOL    HW118591   3.478   5.563   6.896  0.3015 -2.3218  0.3985
 5623SOL    HW218592   3.627   5.550   6.875  0.3532 -0.2439 -0.8948
 5624SOL     OW18593   2.136   2.303   9.693 -0.2501  0.0109 -0.9493
 5624SOL    HW118594   2.179   2.352   9.623  1.3014 -0.8541 -0.6576
 5624SOL    HW218595   2.169   2.342   9.774  0.7963 -1.2801 -0.7171
 5625SOL     OW18596   6.815   1.243   2.843 -0.3347 -0.1918  0.4473
 5625SOL    HW118597   6.837   1.269   2.933 -0.7921 -0.0213  0.5091
 5625SOL    HW218598   6.900   1.219   2.804 -0.0008  0.6949  0.6084
 5626SOL     OW18599   5.641   8.015   5.579 -0.0526 -0.6328 -0.1238
 5626SOL    HW118600   5.632   8.084   5.513 -0.1836  0.4053  0.9507
 5626SOL    HW218601   5.551   7.994   5.604  0.0234 -0.4614  0.2935
 5627SOL     OW18602   6.805   7.526   4.274  0.0075 -0.1264  0.0952
 5627SOL    HW118603   6.832   7.435   4.260  0.0047 -0.1119 -0.0080
 5627SOL    HW218604   6.829   7.544   4.365 -0.1127 -0.2717  0.1556
 5628SOL     OW18605   1.530   4.502   1.787 -0.2356  0.2000 -0.4109
 5628SOL    HW118606   1.551   4.479   1.696 -2.2772 -0.0363 -0.8693
 5628SOL    HW218607   1.481   4.426   1.820 -0.2966  0.6604  0.5942
 5629SOL     OW18608   8.485   0.636   1.796 -0.0709 -0.4754 -0.3030
 5629SOL    HW118609   8.465   0.612   1.886  2.3272  0.6719  0.5959
 5629SOL    HW218610   8.439   0.570   1.743 -0.1328 -2.1995  1.7861
 5630SOL     OW18611   6.705   3.442   8.021 -0.4351 -0.2881 -0.2097
 5630SOL    HW118612   6.639   3.487   8.074 -1.1859 -1.8282  0.2255
 5630SOL    HW218613   6.681   3.349   8.027  1.4489 -0.8298 -0.5193
 5631SOL     OW18614   8.671   8.388   7.745  0.1073  0.4693 -0.1346
 5631SOL    HW118615   8.601   8.338   7.786 -1.0659  2.1166  0.0023
 5631SOL    HW218616   8.734   8.323   7.715  0.3501 -0.9027  2.9878
 5632SOL     OW18617   9.203   0.490   1.060  0.7736 -0.4857  0.2088
 5632SOL    HW118618   9.275   0.497   1.123  2.2854  0.7863 -1.5355
 5632SOL    HW218619   9.168   0.579   1.055  0.1321 -0.7532 -0.1538
 5633SOL     OW18620   9.616   3.496   2.803  0.0692 -0.1038  0.3345
 5633SOL    HW118621   9.560   3.475   2.878  0.7683 -0.4607  0.7676
 5633SOL    HW218622   9.674   3.420   2.794  0.4960  0.2675 -0.0976
 5634SOL     OW18623   3.747   0.766   8.013 -0.0542  0.5861  0.2578
 5634SOL    HW118624   3.777   0.842   8.063 -2.3043  1.2330  0.7431
 5634SOL    HW218625   3.686   0.721   8.072 -1.1266  0.1651 -1.1175
 5635SOL     OW18626   3.356   9.528   8.882  0.0685  0.3109 -0.3705
 5635SOL    HW118627   3.281   9.581   8.910  0.9278  0.4018  1.9534
 5635SOL    HW218628   3.321   9.439   8.879 -0.4110  0.4960 -0.4312
 5636SOL     OW18629   4.274   5.806   7.799  0.6642  0.4718  1.0571
 5636SOL    HW118630   4.203   5.779   7.857  0.5384  3.6490  2.6267
 5636SOL    HW218631   4.233   5.814   7.713  0.2193 -1.8088  0.9970
 5637SOL     OW18632   2.704   8.500   1.044 -0.4839 -0.1497 -0.3490
 5637SOL    HW118633   2.718   8.510   1.138 -2.1542 -0.0428 -0.0891
 5637SOL    HW218634   2.633   8.437   1.037 -2.0103  1.6005 -1.4390
 5638SOL     OW18635   1.385   5.360   1.913 -0.0968 -0.5968 -0.4313
 5638SOL    HW118636   1.430   5.357   1.998  0.0969  0.2706 -0.4891
 5638SOL    HW218637   1.309   5.416   1.928  0.5006  0.4113 -1.0697
 5639SOL     OW18638   0.437   2.326   8.464  0.6150 -0.5637 -0.1364
 5639SOL    HW118639   0.435   2.347   8.370 -0.1704  0.6243  0.1181
 5639SOL    HW218640   0.344   2.324   8.489  0.8510  0.5073  0.8898
 5640SOL     OW18641   2.428   3.058   1.952  0.1538  0.0833 -0.0270
 5640SOL    HW118642   2.461   3.011   2.029 -0.7738 -1.8343 -0.7579
 5640SOL    HW218643   2.507   3.082   1.903  0.6690 -0.3008  0.5963
 5641SOL     OW18644   6.126   8.697   6.005  0.3082 -0.2750 -0.5163
 5641SOL    HW118645   6.064   8.647   6.058  1.4295 -0.0556  1.0685
 5641SOL    HW218646   6.089   8.694   5.916 -1.9706 -0.1155  0.3546
 5642SOL     OW18647   5.720   9.567   0.926  0.4198  0.0814 -0.2766
 5642SOL    HW118648   5.652   9.628   0.896  1.2018  0.8129 -0.6306
 5642SOL    HW218649   5.780   9.622   0.977  0.5266 -0.6326  0.3699
 5643SOL     OW18650   1.849   2.359   3.340  0.0753  0.0780 -0.0808
 5643SOL    HW118651   1.856   2.263   3.341  2.2620  0.1533 -2.0656
 5643SOL    HW218652   1.812   2.379   3.254 -2.0785  1.0282  0.9765
 5644SOL     OW18653   1.420   2.807   6.644  0.5490  0.9996 -0.0680
 5644SOL    HW118654   1.372   2.727   6.622  0.8678  0.8552 -0.2360
 5644SOL    HW218655   1.352   2.874   6.648  0.4837  1.0997 -1.7767
 5645SOL     OW18656   0.015   1.672   9.662 -0.3464 -0.1194  0.1613
 5645SOL    HW118657   0.002   1.764   9.684 -2.5508 -0.2339 -0.3702
 5645SOL    HW218658   0.109   1.663   9.647  0.1904  1.6130  2.0157
 5646SOL     OW18659   0.684   7.620   1.823 -0.3142  0.4364  0.1412
 5646SOL    HW118660   0.739   7.542   1.834 -0.4675  0.3765  0.5013
 5646SOL    HW218661   0.596   7.591   1.847 -0.0559  1.1871  2.1663
 5647SOL     OW18662   5.895   1.811   0.426  0.4897  0.2825  0.2710
 5647SOL    HW118663   5.958   1.822   0.354  0.0981 -0.8769 -0.2810
 5647SOL    HW218664   5.810   1.810   0.382  0.3476 -2.3478  0.4802
 5648SOL     OW18665   3.146   8.019   1.761  0.0804 -0.0520  0.6643
 5648SOL    HW118666   3.103   8.103   1.779 -0.1328 -0.1046  0.4117
 5648SOL    HW218667   3.097   7.956   1.814 -0.4437 -0.1814  0.0355
 5649SOL     OW18668   0.172   6.390   0.990 -0.0349 -0.1852 -0.5457
 5649SOL    HW118669   0.233   6.392   1.063 -0.4235 -2.6939 -0.0699
 5649SOL    HW218670   0.223   6.355   0.917 -0.9442 -2.9101  0.0203
 5650SOL     OW18671   6.481   9.546   7.128 -0.4016  0.0405  0.2721
 5650SOL    HW118672   6.542   9.567   7.199  0.7265 -1.4259 -0.2049
 5650SOL    HW218673   6.537   9.512   7.058 -1.3928  2.0150 -1.6068
 5651SOL     OW18674   8.078   1.667   4.724  0.1379  0.0610 -0.1788
 5651SOL    HW118675   8.165   1.701   4.747  1.4303 -0.4824 -3.6655
 5651SOL    HW218676   8.035   1.739   4.678  0.3905 -0.8761 -1.9878
 5652SOL     OW18677   6.880   1.436   8.201  0.4800  0.1643 -0.4569
 5652SOL    HW118678   6.969   1.403   8.214 -0.6446 -2.5254  1.2825
 5652SOL    HW218679   6.840   1.434   8.288 -0.5583  3.9519 -0.6693
 5653SOL     OW18680   5.305   7.524   7.316 -0.1800  0.0815 -0.6318
 5653SOL    HW118681   5.400   7.533   7.306 -0.0562 -1.6602 -1.4897
 5653SOL    HW218682   5.295   7.461   7.388 -0.6278 -0.7195 -1.3813
 5654SOL     OW18683   3.133   6.393   5.302 -0.0256 -0.0653  0.5474
 5654SOL    HW118684   3.159   6.455   5.234  3.0815  1.0831  2.5510
 5654SOL    HW218685   3.039   6.404   5.311 -0.3528  0.6293 -2.6160
 5655SOL     OW18686   3.772   8.687   6.807 -0.0017  0.0536 -0.2326
 5655SOL    HW118687   3.703   8.622   6.795  0.0761 -0.0752  0.0052
 5655SOL    HW218688   3.726   8.771   6.807 -0.4559 -0.1384  2.0894
 5656SOL     OW18689   8.525   6.425   5.842 -0.5319  0.3533 -0.1357
 5656SOL    HW118690   8.520   6.517   5.820 -0.1194  0.6912  1.0762
 5656SOL    HW218691   8.594   6.420   5.909 -1.4448 -0.6212  0.7729
 5657SOL     OW18692   8.189   3.782   3.847 -0.2021 -0.1723  0.2487
 5657SOL    HW118693   8.237   3.851   3.891  0.6256 -0.3292 -0.3784
 5657SOL    HW218694   8.148   3.825   3.772 -0.9018 -0.0738  0.6835
 5658SOL     OW18695   6.197   9.389   9.619 -0.3088 -0.2749 -0.1925
 5658SOL    HW118696   6.158   9.407   9.534 -2.6263 -2.5875  0.2369
 5658SOL    HW218697   6.250   9.311   9.605  1.1228  0.6096  0.0783
 5659SOL     OW18698   1.194   6.124   4.862  0.1152 -0.3771 -0.3860
 5659SOL    HW118699   1.160   6.061   4.799 -0.0633 -2.0162  1.2581
 5659SOL    HW218700   1.192   6.208   4.816  0.4253 -1.5613 -2.6755
 5660SOL     OW18701   7.796   6.945   2.102  0.0740  0.1508  0.0963
 5660SOL    HW118702   7.740   7.020   2.085  0.5522  0.3236 -0.7760
 5660SOL    HW218703   7.884   6.973   2.075  0.3276 -0.5885  0.1124
 5661SOL     OW18704   2.778   3.927   3.433 -0.0550 -0.4074  1.0698
 5661SOL    HW118705   2.743   3.921   3.344  0.5678  0.3443  0.7656
 5661SOL    HW218706   2.746   4.012   3.465  0.2647 -0.3835  1.3256
 5662SOL     OW18707   9.463   6.568   0.371 -0.0432  0.5089  0.3518
 5662SOL    HW118708   9.411   6.523   0.437  1.1509  0.0505  0.9998
 5662SOL    HW218709   9.472   6.657   0.405 -0.1286  0.5019  0.3945
 5663SOL     OW18710   0.732   3.012   0.834 -0.2737 -1.1759  0.8524
 5663SOL    HW118711   0.737   3.064   0.754 -3.0566 -2.7970 -0.5489
 5663SOL    HW218712   0.804   2.950   0.828 -0.2156 -1.0128 -0.2223
 5664SOL     OW18713   3.160   4.108   0.722  0.3849  0.0757  0.4029
 5664SOL    HW118714   3.237   4.094   0.778 -0.6234  0.1064  1.8751
 5664SOL    HW218715   3.118   4.022   0.716  1.6714 -0.4710 -2.2841
 5665SOL     OW18716   2.073   8.038   0.925  0.0413 -0.4828  0.1603
 5665SOL    HW118717   1.982   8.011   0.910 -0.4526  1.5613 -0.7899
 5665SOL    HW218718   2.098   7.991   1.005 -1.4156 -2.0573 -0.2358
 5666SOL     OW18719   1.683   2.325   0.544 -0.4661 -0.0418  0.1481
 5666SOL    HW118720   1.630   2.354   0.618 -1.0089  3.0493 -1.2777
 5666SOL    HW218721   1.621   2.318   0.471  0.1891 -2.2101 -0.2589
 5667SOL     OW18722   0.883   3.660   2.203  0.0245  0.2664  0.0530
 5667SOL    HW118723   0.922   3.711   2.274 -0.6676  3.9438 -1.9448
 5667SOL    HW218724   0.889   3.717   2.127 -2.7960 -1.8563 -1.9808
 5668SOL     OW18725   4.862   0.750   5.946  0.1271  0.0515  0.3445
 5668SOL    HW118726   4.807   0.679   5.912  0.5715  1.1813 -3.1040
 5668SOL    HW218727   4.944   0.742   5.898  1.0430  1.5796  1.5655
 5669SOL     OW18728   4.927   0.020   7.891 -0.5371  0.3365  0.4763
 5669SOL    HW118729   4.904   0.041   7.982  0.9239 -1.0674  1.2059
 5669SOL    HW218730   4.854  -0.034   7.860 -1.4943  1.5814  0.4692
 5670SOL     OW18731   7.147   3.543   1.576 -0.4041 -0.4670  0.0430
 5670SOL    HW118732   7.140   3.449   1.557  1.9614 -0.5481 -0.7957
 5670SOL    HW218733   7.100   3.585   1.505 -0.5582 -1.0070 -0.1840
 5671SOL     OW18734   3.319   7.152   0.776 -0.0485 -0.3544 -0.6037
 5671SOL    HW118735   3.393   7.117   0.825  0.7832 -1.0636 -2.2599
 5671SOL    HW218736   3.345   7.143   0.684 -1.7641  0.3498 -1.2047
 5672SOL     OW18737   3.728   5.172   8.689 -0.0572 -0.4443 -0.4455
 5672SOL    HW118738   3.721   5.093   8.742  1.0391 -0.4252 -0.2462
 5672SOL    HW218739   3.820   5.197   8.695 -0.3225  0.6726 -0.7644
 5673SOL     OW18740   7.445   7.333   3.905  0.1576  0.6881  0.3452
 5673SOL    HW118741   7.397   7.383   3.839  1.4501  1.3741 -0.0931
 5673SOL    HW218742   7.461   7.248   3.864  1.2940  1.2410 -0.4098
 5674SOL     OW18743   7.095   6.167   6.198 -0.3203 -0.7561  0.0998
 5674SOL    HW118744   7.136   6.081   6.195 -0.8192 -1.0262  0.6908
 5674SOL    HW218745   7.023   6.157   6.261  0.0939  0.2910  0.7836
 5675SOL     OW18746   0.845   4.108   5.952  0.1083  0.8138  0.3349
 5675SOL    HW118747   0.851   4.032   5.894 -1.8444 -0.8648  2.1560
 5675SOL    HW218748   0.936   4.132   5.970  0.7967 -1.1997 -0.1693
 5676SOL     OW18749   6.748   3.926   5.222 -0.1230  0.4779  0.0083
 5676SOL    HW118750   6.725   3.987   5.292 -1.7094  0.7849 -0.7346
 5676SOL    HW218751   6.701   3.845   5.245  1.1399 -0.1551  0.4419
 5677SOL     OW18752   1.432   8.762   7.668 -0.1837  0.3883  0.1306
 5677SOL    HW118753   1.444   8.701   7.595 -1.7612  0.5894 -0.3392
 5677SOL    HW218754   1.479   8.841   7.641 -0.9346  0.5402 -0.8020
 5678SOL     OW18755   8.300   8.128   0.109  0.2821  0.1924 -0.4715
 5678SOL    HW118756   8.286   8.048   0.159  0.3674 -0.8182 -2.0088
 5678SOL    HW218757   8.222   8.181   0.125 -0.5058 -0.8827 -0.6976
 5679SOL     OW18758   1.728   5.503   6.022 -0.5815  0.6037 -0.1150
 5679SOL    HW118759   1.649   5.496   5.970 -1.0339  1.6631  0.4066
 5679SOL    HW218760   1.760   5.591   6.006  0.8669 -0.0154 -0.8228
 5680SOL     OW18761   8.734   7.278   4.525 -0.2908  0.3330 -0.7851
 5680SOL    HW118762   8.775   7.332   4.592 -0.5219 -0.0580 -0.3271
 5680SOL    HW218763   8.696   7.204   4.572 -0.2780 -0.0569 -1.3660
 5681SOL     OW18764   6.892   3.523   6.042 -0.1489 -0.1591  0.4304
 5681SOL    HW118765   6.880   3.603   6.093 -2.6596 -0.3056  0.1824
 5681SOL    HW218766   6.951   3.469   6.095  1.1679  1.6029  0.8432
 5682SOL     OW18767   7.540   2.520   8.080 -0.1273 -0.5899 -0.0132
 5682SOL    HW118768   7.465   2.492   8.027 -0.2562 -0.1843 -0.0529
 5682SOL    HW218769   7.537   2.616   8.075  1.6917 -0.5590 -1.8533
 5683SOL     OW18770   7.334   8.707   0.734  0.3517 -0.3958  0.0369
 5683SOL    HW118771   7.317   8.773   0.801  0.0101  3.2583 -3.3011
 5683SOL    HW218772   7.422   8.725   0.703 -0.0016 -1.0355 -1.4400
 5684SOL     OW18773   6.190   6.628   3.929 -0.0188  0.2628 -0.1548
 5684SOL    HW118774   6.190   6.571   3.852  0.0023  0.1153 -0.0437
 5684SOL    HW218775   6.264   6.688   3.914  0.2667 -0.0588 -0.0287
 5685SOL     OW18776   6.027   6.369   3.531 -0.5872  0.1003  0.2211
 5685SOL    HW118777   5.985   6.413   3.458  0.1126  0.5861  0.1021
 5685SOL    HW218778   5.958   6.317   3.571 -1.1873  0.5365 -0.2379
 5686SOL     OW18779   8.277   7.091   7.727  0.0183  0.3633 -1.2478
 5686SOL    HW118780   8.208   7.050   7.675  0.8030 -0.1165 -1.9295
 5686SOL    HW218781   8.274   7.044   7.811 -1.1604  1.0520 -0.8731
 5687SOL     OW18782   7.158   5.244   0.838 -0.2798 -0.1820 -0.3790
 5687SOL    HW118783   7.079   5.294   0.821 -0.2620 -0.3356 -0.9645
 5687SOL    HW218784   7.222   5.309   0.867 -1.3438 -0.4048  2.7621
 5688SOL     OW18785   5.232   4.978   2.108  0.0612  0.6402 -0.2088
 5688SOL    HW118786   5.259   4.899   2.061 -0.3130 -0.4205  1.2648
 5688SOL    HW218787   5.182   4.945   2.183 -0.3291  2.2995  0.3082
 5689SOL     OW18788   6.802   8.571   0.621  0.1423  0.2431 -0.2750
 5689SOL    HW118789   6.868   8.521   0.573  0.3072  0.1213  0.0780
 5689SOL    HW218790   6.846   8.653   0.643 -0.6021  1.2028 -2.1740
 5690SOL     OW18791   2.149   3.538   2.666  0.1524 -0.3389  0.1752
 5690SOL    HW118792   2.225   3.481   2.682  2.2421  1.8529 -1.2010
 5690SOL    HW218793   2.113   3.506   2.583 -0.6887 -1.6125  1.0097
 5691SOL     OW18794   1.936   2.175   4.605 -0.0850  0.0038  0.4160
 5691SOL    HW118795   1.939   2.149   4.697  1.2028 -0.9569  0.1329
 5691SOL    HW218796   1.888   2.258   4.605  0.4999  0.3814  2.0378
 5692SOL     OW18797   1.714   0.045   7.192 -0.4032 -0.2937  0.0911
 5692SOL    HW118798   1.801   0.085   7.188 -0.0416 -1.1312 -0.8720
 5692SOL    HW218799   1.693   0.043   7.285  0.0572  1.0692  0.2443
 5693SOL     OW18800   4.047   3.471   8.957  0.3057  0.1388  0.2034
 5693SOL    HW118801   3.986   3.418   8.906 -0.6457  1.7738 -0.4535
 5693SOL    HW218802   4.095   3.408   9.010 -0.9800 -1.3368 -0.2923
 5694SOL     OW18803   1.521   0.254   3.019 -0.0543  0.5662  0.3651
 5694SOL    HW118804   1.515   0.226   3.110  0.7318  1.9862  0.8879
 5694SOL    HW218805   1.589   0.198   2.981 -0.4970 -0.1338  0.5994
 5695SOL     OW18806   0.650   4.688   3.009 -0.1542 -0.1344  0.0034
 5695SOL    HW118807   0.717   4.641   3.058 -0.6172 -0.4793  0.3070
 5695SOL    HW218808   0.668   4.780   3.028  0.8236 -0.1613 -0.6866
 5696SOL     OW18809   6.012   4.867   0.412  0.0388 -0.2394 -0.2743
 5696SOL    HW118810   5.975   4.779   0.414  0.5435 -0.4385  0.2079
 5696SOL    HW218811   6.082   4.866   0.477  0.6091  0.2709 -0.8697
 5697SOL     OW18812   0.605   8.133   8.330 -0.4533  0.0998 -0.1780
 5697SOL    HW118813   0.571   8.083   8.404  1.2379  0.0091  0.5768
 5697SOL    HW218814   0.582   8.224   8.349  0.8436  0.2046  0.9939
 5698SOL     OW18815   4.211   7.277   8.211 -0.5103  0.0042 -0.1604
 5698SOL    HW118816   4.153   7.236   8.275 -1.2634 -0.9090 -1.3889
 5698SOL    HW218817   4.225   7.210   8.144  0.9962  0.6230 -0.5145
 5699SOL     OW18818   6.366   1.731   7.540  0.7506  0.1733  0.6742
 5699SOL    HW118819   6.333   1.771   7.460  0.8947  0.1765  0.6163
 5699SOL    HW218820   6.293   1.679   7.573  0.6111  0.3662  0.6710
 5700SOL     OW18821   1.772   5.634   1.187 -0.5547 -0.5291 -0.1231
 5700SOL    HW118822   1.724   5.554   1.210 -1.1748 -0.4306 -1.0253
 5700SOL    HW218823   1.801   5.619   1.096 -0.5847  0.2285 -0.2626
 5701SOL     OW18824   1.674   4.049   6.903  0.1022 -0.4588  0.0707
 5701SOL    HW118825   1.659   4.132   6.859 -0.4323  0.0233  1.1295
 5701SOL    HW218826   1.588   4.007   6.905 -0.0318 -0.1468  1.2844
 5702SOL     OW18827   5.665   0.065   4.179  0.3807  0.7628  0.0432
 5702SOL    HW118828   5.596   0.111   4.132  0.2341 -0.4654 -1.0037
 5702SOL    HW218829   5.645   0.077   4.271  0.7427  3.3571 -0.1558
 5703SOL     OW18830   2.327   2.048   4.501  0.0029  0.0811 -0.3793
 5703SOL    HW118831   2.312   1.958   4.472 -0.2912  0.2036 -0.6243
 5703SOL    HW218832   2.361   2.040   4.590  1.1369 -0.3109 -0.8399
 5704SOL     OW18833   4.006   4.787   7.952  0.0513  0.6995  0.8254
 5704SOL    HW118834   4.003   4.869   8.001  1.7225  1.2228  0.1149
 5704SOL    HW218835   3.926   4.741   7.977 -0.4413  2.1188  1.9707
 5705SOL     OW18836   4.275   5.650   2.316  0.3690  0.0829  0.4744
 5705SOL    HW118837   4.267   5.718   2.383  1.7363  1.4391 -0.6534
 5705SOL    HW218838   4.208   5.672   2.252  0.8662  0.4196  0.0683
 5706SOL     OW18839   4.454   1.515   8.815  0.1166  0.0256 -0.1110
 5706SOL    HW118840   4.364   1.522   8.783 -0.0904 -1.4127  0.1044
 5706SOL    HW218841   4.492   1.443   8.765  0.3764 -1.0044  1.5086
 5707SOL     OW18842   5.435   9.011   1.067 -0.9893  0.0453 -0.2947
 5707SOL    HW118843   5.368   8.999   1.000 -0.1542  0.6031 -1.2729
 5707SOL    HW218844   5.517   8.988   1.023 -0.3404  1.1376  0.3015
 5708SOL     OW18845   8.150   6.471   3.427  0.0898  0.0782 -0.5357
 5708SOL    HW118846   8.128   6.563   3.410 -1.4745 -0.1350  0.2039
 5708SOL    HW218847   8.157   6.465   3.522 -3.1292 -1.1963 -0.2461
 5709SOL     OW18848   7.640   6.729   7.928 -0.6878 -0.2520 -0.9151
 5709SOL    HW118849   7.724   6.775   7.935 -0.9124  0.1931 -1.1209
 5709SOL    HW218850   7.608   6.724   8.018 -0.9281  0.4963 -0.9530
 5710SOL     OW18851   0.200   6.462   2.092 -0.0010 -0.0569 -0.1228
 5710SOL    HW118852   0.215   6.505   2.008 -0.4514  0.7837  0.2168
 5710SOL    HW218853   0.115   6.420   2.083  0.2278 -0.4872 -0.2938
 5711SOL     OW18854   5.570   5.401   1.122  0.1557  0.3582  0.1087
 5711SOL    HW118855   5.567   5.496   1.126 -3.1226  0.3496  0.3913
 5711SOL    HW218856   5.512   5.378   1.049  1.5421 -1.4487 -0.5067
 5712SOL     OW18857   7.520   4.996   7.564  0.4192 -0.1351 -0.1454
 5712SOL    HW118858   7.469   4.927   7.520 -2.5504  0.7683  1.5647
 5712SOL    HW218859   7.459   5.070   7.570  2.6153  1.7415  0.4581
 5713SOL     OW18860   5.190   1.800   5.152 -0.0541  0.7009 -0.1816
 5713SOL    HW118861   5.258   1.753   5.201  0.3735 -0.8264 -2.1195
 5713SOL    HW218862   5.238   1.861   5.097 -0.1158 -0.7918 -1.9892
 5714SOL     OW18863   4.644   4.209   7.701 -0.0553 -0.8819 -0.1975
 5714SOL    HW118864   4.629   4.234   7.609 -0.4133  1.4053  0.4287
 5714SOL    HW218865   4.556   4.188   7.734 -0.0140 -1.0223 -0.1747
 5715SOL     OW18866   8.762   6.036   1.808  0.1195 -0.1825 -0.2894
 5715SOL    HW118867   8.738   6.015   1.899  0.8469  1.7939  0.4123
 5715SOL    HW218868   8.682   6.068   1.769 -0.3310 -1.5454 -0.5493
 5716SOL     OW18869   5.939   5.333   3.778  0.2273 -0.4575 -0.7380
 5716SOL    HW118870   5.934   5.239   3.794  1.3928 -0.3456  0.3762
 5716SOL    HW218871   5.869   5.370   3.832  0.4663 -0.5890 -0.3372
 5717SOL     OW18872   9.237   5.335   1.078  0.1764  0.0413  0.2980
 5717SOL    HW118873   9.226   5.407   1.016 -0.8768  0.2402  0.6901
 5717SOL    HW218874   9.262   5.260   1.024  0.7846  0.5702 -0.1734
 5718SOL     OW18875   3.963   4.858   9.079  0.1547  0.2641  0.6675
 5718SOL    HW118876   4.029   4.790   9.091 -1.0539 -0.6854  2.5174
 5718SOL    HW218877   3.883   4.819   9.115 -1.2557  1.6304 -0.8440
 5719SOL     OW18878   5.549   9.498   6.516  0.2044  0.0127 -0.3464
 5719SOL    HW118879   5.640   9.513   6.543 -0.1758  1.4539  0.2301
 5719SOL    HW218880   5.506   9.466   6.595 -0.2374  1.3505 -0.0186
 5720SOL     OW18881   8.883   5.663   5.593  0.0514  0.2081  0.2939
 5720SOL    HW118882   8.877   5.751   5.630  2.1258  0.8549 -0.7520
 5720SOL    HW218883   8.964   5.627   5.630  0.1839 -0.5568 -0.7039
 5721SOL     OW18884   7.028   3.284   4.668 -0.4679 -0.4759 -0.3217
 5721SOL    HW118885   6.945   3.306   4.626 -1.0672 -0.6981  0.7144
 5721SOL    HW218886   7.013   3.197   4.705  0.2510 -0.5469 -0.1923
 5722SOL     OW18887   4.525   5.700   3.325  0.0127 -0.1657  0.2636
 5722SOL    HW118888   4.482   5.618   3.349  1.3053 -0.9758 -0.0774
 5722SOL    HW218889   4.619   5.679   3.326  0.3096  0.3997 -2.8573
 5723SOL     OW18890   2.490   0.538   1.082  0.2495 -0.4721  0.6115
 5723SOL    HW118891   2.470   0.594   1.157 -0.7952 -0.9578  0.7186
 5723SOL    HW218892   2.566   0.579   1.041 -0.0634  0.6265  1.0884
 5724SOL     OW18893   5.906   0.430   7.776  0.4094  0.4967 -0.0012
 5724SOL    HW118894   5.894   0.391   7.689 -0.5124 -0.9856  0.7507
 5724SOL    HW218895   5.817   0.437   7.811  0.5475  3.1522  0.0000
 5725SOL     OW18896   0.014   7.168   3.376 -0.2987  0.4161  0.5118
 5725SOL    HW118897  -0.028   7.231   3.317 -1.3398 -0.1719  0.6007
 5725SOL    HW218898   0.107   7.189   3.371 -0.5113  1.2338 -0.3167
 5726SOL     OW18899   1.492   3.316   3.275  0.0376 -0.4386 -0.4521
 5726SOL    HW118900   1.417   3.301   3.331  0.7102  0.4150  0.7221
 5726SOL    HW218901   1.566   3.277   3.321  0.8030  1.2861 -0.1107
 5727SOL     OW18902   3.661   0.687   4.434 -0.2472 -0.1922  0.4156
 5727SOL    HW118903   3.747   0.646   4.429  0.6721  1.7593 -1.5003
 5727SOL    HW218904   3.600   0.616   4.414  1.1633 -1.0037 -1.3072
 5728SOL     OW18905   9.093   0.326   0.566 -0.7792  0.4629  0.6650
 5728SOL    HW118906   9.172   0.272   0.561 -1.3040 -0.4744  1.7742
 5728SOL    HW218907   9.123   0.408   0.605 -0.0313  0.8789 -0.7151
 5729SOL     OW18908   1.401   2.527   5.135  0.0240 -0.4210  0.5122
 5729SOL    HW118909   1.415   2.555   5.045 -0.7572 -1.3847  0.0692
 5729SOL    HW218910   1.422   2.604   5.188  0.0660  0.2934 -0.5125
 5730SOL     OW18911   5.833   1.124   3.367  0.5760  0.1451  0.3479
 5730SOL    HW118912   5.839   1.055   3.301  2.4045 -0.2640  0.8772
 5730SOL    HW218913   5.825   1.205   3.316  0.0175 -0.3236 -0.3255
 5731SOL     OW18914   9.536   3.794   4.017  0.1351 -0.3453 -0.3093
 5731SOL    HW118915   9.565   3.713   4.059  0.0431  0.4118  1.2952
 5731SOL    HW218916   9.447   3.775   3.986  0.5116 -1.1700 -0.9019
 5732SOL     OW18917   7.334   7.108   7.585  0.6110  0.1072  0.4768
 5732SOL    HW118918   7.333   7.177   7.651  3.4245  0.1669  0.6090
 5732SOL    HW218919   7.415   7.060   7.602  1.0137 -0.4239 -2.3755
 5733SOL     OW18920   2.813   4.761   2.752 -0.1786 -0.2135  0.4775
 5733SOL    HW118921   2.905   4.748   2.728 -0.3014 -0.5644  0.2017
 5733SOL    HW218922   2.766   4.753   2.669 -0.2693  1.9336  0.2565
 5734SOL     OW18923   6.313   6.068   0.189 -0.3258  0.4650 -0.7451
 5734SOL    HW118924   6.390   6.025   0.152 -0.6688  0.2500 -1.2184
 5734SOL    HW218925   6.239   6.033   0.139 -1.1129 -1.7381  1.6924
 5735SOL     OW18926   6.925   5.475   5.150  0.3217 -0.6616 -0.0967
 5735SOL    HW118927   6.928   5.520   5.234 -1.9893  0.7783 -0.6807
 5735SOL    HW218928   6.897   5.386   5.171 -0.3668 -0.2722  0.6684
 5736SOL     OW18929   4.267   4.710   8.999 -0.1780 -0.3083  0.4198
 5736SOL    HW118930   4.209   4.680   9.069  0.1811 -0.1226  0.7995
 5736SOL    HW218931   4.321   4.777   9.040  0.7775 -0.9674  0.2557
 5737SOL     OW18932   0.595   5.917   7.090 -0.1141 -0.3972  0.2097
 5737SOL    HW118933   0.572   6.000   7.134  0.1099 -0.4852  0.5003
 5737SOL    HW218934   0.511   5.878   7.067 -0.2208 -0.0596  0.0183
 5738SOL     OW18935   0.836   8.919   7.536  0.0542  0.5305 -0.0854
 5738SOL    HW118936   0.873   8.886   7.454  0.8265 -0.3091  0.5857
 5738SOL    HW218937   0.890   8.994   7.559 -0.4739  1.0770 -0.5890
 5739SOL     OW18938   7.424   8.720   1.902  0.5080  0.3561 -0.4329
 5739SOL    HW118939   7.379   8.752   1.980  1.4512  0.3370  0.1352
 5739SOL    HW218940   7.443   8.799   1.852 -0.3679  0.3425 -0.7994
 5740SOL     OW18941   7.973   3.092   4.360  0.5044  0.1067  0.1321
 5740SOL    HW118942   7.944   3.126   4.275  1.7126  0.1869 -0.2613
 5740SOL    HW218943   7.957   2.998   4.355  1.2336  0.0091 -0.4650
 5741SOL     OW18944   3.175   2.048   4.885  0.8850  0.0840  0.5108
 5741SOL    HW118945   3.159   2.142   4.881 -0.3900 -0.1578 -2.0733
 5741SOL    HW218946   3.262   2.037   4.846  2.0947  0.3008  2.9398
 5742SOL     OW18947   6.716   3.892   9.421  0.2147  0.1284  0.0136
 5742SOL    HW118948   6.665   3.837   9.362  0.0950 -0.9716  1.1018
 5742SOL    HW218949   6.662   3.970   9.434 -0.2900 -0.1522 -0.3730
 5743SOL     OW18950   3.657   1.917   9.498  0.4223  0.0087  0.3443
 5743SOL    HW118951   3.578   1.956   9.459 -0.4929 -0.5783  1.5373
 5743SOL    HW218952   3.714   1.991   9.516 -0.8293  0.7161  1.5549
 5744SOL     OW18953   3.428   1.237   1.230 -0.4648 -0.0116  0.0867
 5744SOL    HW118954   3.485   1.300   1.273 -1.5237  2.2337 -1.5652
 5744SOL    HW218955   3.483   1.194   1.165 -0.4039  1.6674 -1.0477
 5745SOL     OW18956   4.783   6.716   2.539  0.5463  0.2800 -0.4737
 5745SOL    HW118957   4.705   6.661   2.542  0.2250  0.7547  0.3682
 5745SOL    HW218958   4.792   6.750   2.628  0.3650  2.0794 -1.0979
 5746SOL     OW18959   8.640   1.733   1.666  0.0705  0.1650  0.3768
 5746SOL    HW118960   8.736   1.734   1.661  0.0086  0.5767 -1.5243
 5746SOL    HW218961   8.612   1.707   1.578 -1.5927  1.5604  0.4529
 5747SOL     OW18962   8.707   5.666   9.339 -0.4656 -0.1159 -0.4059
 5747SOL    HW118963   8.716   5.713   9.422  0.1096 -0.1622 -0.4393
 5747SOL    HW218964   8.732   5.576   9.360 -1.4749 -0.3989 -0.3606
 5748SOL     OW18965   7.589   0.216   7.454  0.3351  0.6851 -0.7341
 5748SOL    HW118966   7.671   0.237   7.410  0.8734  2.1574  0.8569
 5748SOL    HW218967   7.608   0.228   7.547 -0.9805 -1.4919 -0.1089
 5749SOL     OW18968   7.628   4.152   3.687 -0.0005  0.4839 -0.0709
 5749SOL    HW118969   7.626   4.228   3.629  0.6417  0.7806  0.2839
 5749SOL    HW218970   7.712   4.110   3.669 -0.4083 -0.2263 -0.3608
 5750SOL     OW18971   0.347   6.249   1.937 -0.0181 -0.3873  0.0918
 5750SOL    HW118972   0.412   6.200   1.886 -0.6952  0.6686 -1.8954
 5750SOL    HW218973   0.398   6.298   2.001  1.0832 -0.1869 -0.9127
 5751SOL     OW18974   9.540   4.776   4.929  0.4357 -0.5059  0.3724
 5751SOL    HW118975   9.505   4.865   4.920  0.2700 -0.4623  1.3405
 5751SOL    HW218976   9.467   4.719   4.904 -0.1030 -0.3973  1.6066
 5752SOL     OW18977   8.781   0.044   2.298 -0.6434 -0.1853 -0.5784
 5752SOL    HW118978   8.779  -0.044   2.335  0.2937  0.5549  1.4065
 5752SOL    HW218979   8.744   0.100   2.366 -1.4471  0.9468 -1.8910
 5753SOL     OW18980   3.681   1.925   1.646 -0.3978 -0.2846 -0.1906
 5753SOL    HW118981   3.753   1.987   1.654  0.8925 -1.8851  1.9337
 5753SOL    HW218982   3.661   1.921   1.553 -0.8092  3.5062 -0.3980
 5754SOL     OW18983   4.558   3.015   7.400 -0.2407  0.5597  0.1693
 5754SOL    HW118984   4.549   2.930   7.357 -0.5732  0.4539  0.4423
 5754SOL    HW218985   4.469   3.037   7.428 -0.2747  1.3328 -0.5263
 5755SOL     OW18986   9.204   1.396   0.341 -0.1010  0.5439 -0.7955
 5755SOL    HW118987   9.282   1.434   0.382 -0.1841  0.7642 -0.8399
 5755SOL    HW218988   9.161   1.470   0.299 -1.4750  0.8619  1.0285
 5756SOL     OW18989   0.324   6.808   1.302  0.3177 -0.3884  0.1487
 5756SOL    HW118990   0.396   6.810   1.239  0.2366 -2.2151 -0.0614
 5756SOL    HW218991   0.246   6.791   1.250 -0.1387  0.5379  0.4964
 5757SOL     OW18992   9.226   3.206   7.166  0.3597 -0.2189 -0.0902
 5757SOL    HW118993   9.223   3.214   7.261  1.3021 -0.7054 -0.0042
 5757SOL    HW218994   9.230   3.296   7.134 -0.0436 -0.0504  0.3287
 5758SOL     OW18995   4.533   0.610   5.129 -0.2985 -0.3514  0.5394
 5758SOL    HW118996   4.510   0.694   5.168  0.8751  0.3794 -0.2654
 5758SOL    HW218997   4.473   0.601   5.055  0.8339  0.7728 -0.5805
 5759SOL     OW18998   1.242   3.064   3.053 -0.5229  0.4301 -0.4706
 5759SOL    HW118999   1.228   3.031   3.142  0.7608  0.7128 -0.1403
 5759SOL    HW219000   1.179   3.135   3.043 -0.8184  0.2594  0.1383
 5760SOL     OW19001   6.911   4.837   7.090 -0.5337  0.2877 -0.2429
 5760SOL    HW119002   6.820   4.843   7.118 -0.1503  0.8043  0.9357
 5760SOL    HW219003   6.950   4.919   7.118 -0.2136  1.0470 -2.7156
 5761SOL     OW19004   5.496   5.844   8.303  0.0744 -0.2680 -0.4073
 5761SOL    HW119005   5.509   5.927   8.256  2.4100  0.6645  1.6486
 5761SOL    HW219006   5.454   5.870   8.385 -1.4179 -1.4915 -0.7520
 5762SOL     OW19007   9.346   0.473   9.146 -0.0086  0.0044 -0.0630
 5762SOL    HW119008   9.430   0.466   9.099 -0.6368  1.6400 -1.5587
 5762SOL    HW219009   9.297   0.395   9.118 -0.6247  1.2558 -2.8150
 5763SOL     OW19010   2.220   5.363   4.997 -0.1519 -0.1490 -0.0602
 5763SOL    HW119011   2.194   5.454   4.979 -0.1327  0.0291  0.7868
 5763SOL    HW219012   2.137   5.318   5.015 -0.0242  0.0763  1.1420
 5764SOL     OW19013   1.628   1.417   9.396  0.0872 -0.0747  0.2009
 5764SOL    HW119014   1.545   1.455   9.426 -0.6573 -2.1030  0.8819
 5764SOL    HW219015   1.691   1.438   9.465 -0.5584 -0.8981  1.0627
 5765SOL     OW19016   1.445   2.667   4.535 -0.0690  0.4684  0.2518
 5765SOL    HW119017   1.438   2.620   4.618  0.3760  1.8392  1.1156
 5765SOL    HW219018   1.369   2.638   4.484 -0.1070 -0.7286  0.9535
 5766SOL     OW19019   3.633   3.160   3.171 -0.0803 -0.7730 -0.4754
 5766SOL    HW119020   3.690   3.229   3.204 -1.9799  0.7878 -0.2589
 5766SOL    HW219021   3.617   3.103   3.246 -2.1127  1.1681  0.6881
 5767SOL     OW19022   4.030   2.128   3.507 -0.1548 -0.5873 -0.1981
 5767SOL    HW119023   4.109   2.165   3.547  0.2747 -0.1960 -1.3550
 5767SOL    HW219024   4.062   2.055   3.454 -0.4823 -0.0251 -1.1846
 5768SOL     OW19025   5.007   1.348   6.622 -0.9942  0.1967 -0.2674
 5768SOL    HW119026   4.925   1.373   6.665 -2.0311  0.4214 -2.2509
 5768SOL    HW219027   5.054   1.431   6.609 -1.0036  0.2173 -0.1659
 5769SOL     OW19028   2.413   2.022   2.188  0.2450  0.8256  0.6237
 5769SOL    HW119029   2.401   2.115   2.206 -0.3150  0.6032  1.4895
 5769SOL    HW219030   2.328   1.993   2.154  0.4186  0.6339  0.3521
 5770SOL     OW19031   6.111   5.479   0.402  0.6735 -0.4808  0.6004
 5770SOL    HW119032   6.206   5.489   0.390  0.9140 -2.2027  0.8367
 5770SOL    HW219033   6.089   5.398   0.356 -0.9183  0.5126 -0.4857
 5771SOL     OW19034   3.495   8.597   1.752  0.7283  0.5640 -0.8798
 5771SOL    HW119035   3.474   8.526   1.812 -1.5614  1.6520 -0.2704
 5771SOL    HW219036   3.587   8.584   1.729  0.7287 -1.7849  0.2460
 5772SOL     OW19037   4.805   3.977   2.505 -0.7561  0.4756  0.4038
 5772SOL    HW119038   4.713   3.959   2.482 -0.6694 -0.8165  0.9947
 5772SOL    HW219039   4.815   4.071   2.491 -2.5017  0.8568  1.4071
 5773SOL     OW19040   8.497   9.680   3.389 -0.0845 -0.4236  0.2865
 5773SOL    HW119041   8.587   9.711   3.388 -0.3703  0.4300  0.2703
 5773SOL    HW219042   8.503   9.589   3.419  0.7178 -0.1805  0.8977
 5774SOL     OW19043   0.089   8.591   4.413 -0.6037 -0.6336  0.6131
 5774SOL    HW119044   0.062   8.669   4.363 -1.0037  0.4235  2.3997
 5774SOL    HW219045   0.110   8.526   4.346 -2.6123  0.2001 -0.9408
 5775SOL     OW19046   5.341   2.014   9.584  0.0201 -0.2080 -0.2669
 5775SOL    HW119047   5.286   1.938   9.564 -0.2300  0.0617 -0.6153
 5775SOL    HW219048   5.324   2.075   9.513 -1.4338  1.0867  1.1288
 5776SOL     OW19049   9.263   6.108   8.804 -0.1792  0.0570  0.2581
 5776SOL    HW119050   9.334   6.077   8.747 -2.5290 -0.6043 -2.5280
 5776SOL    HW219051   9.274   6.203   8.807  0.8645 -0.0407 -0.0459
 5777SOL     OW19052   5.354   8.991   8.947 -0.4326  0.1788 -0.4015
 5777SOL    HW119053   5.407   9.042   8.885 -1.2984 -0.6833 -1.9065
 5777SOL    HW219054   5.264   9.002   8.916 -0.8906 -0.2334  0.7512
 5778SOL     OW19055   9.117   1.542   9.277  0.1765  0.3555  0.2482
 5778SOL    HW119056   9.118   1.521   9.183 -1.2388  0.7296  0.1247
 5778SOL    HW219057   9.175   1.618   9.285  1.3638 -0.4840 -0.0921
 5779SOL     OW19058   6.061   8.531   2.636  0.3829 -0.1333  0.3634
 5779SOL    HW119059   5.981   8.502   2.591  0.3657 -0.5010  0.6205
 5779SOL    HW219060   6.085   8.612   2.593 -0.4416  0.2712  0.6359
 5780SOL     OW19061   5.512   6.734   1.590 -0.0058  0.5073  0.0265
 5780SOL    HW119062   5.575   6.695   1.650  0.4893  0.1063 -0.7261
 5780SOL    HW219063   5.458   6.791   1.644  0.9947  0.8394  0.7044
 5781SOL     OW19064   0.340   0.286   0.490  1.0169  0.1845 -0.7108
 5781SOL    HW119065   0.331   0.276   0.584 -1.4375  0.0604 -0.9119
 5781SOL    HW219066   0.398   0.362   0.479  0.6992  0.6888  0.8976
 5782SOL     OW19067   5.454   3.332   3.509  0.3387  0.4074 -0.0680
 5782SOL    HW119068   5.506   3.255   3.484 -1.4523 -1.4787  1.6191
 5782SOL    HW219069   5.373   3.324   3.460  0.2500  1.4433 -0.1153
 5783SOL     OW19070   8.525   4.227   7.429 -0.2929 -0.1737  0.1330
 5783SOL    HW119071   8.587   4.156   7.444 -0.3152 -0.7889 -2.2449
 5783SOL    HW219072   8.452   4.210   7.489 -0.2254 -2.0902 -0.2791
 5784SOL     OW19073   6.099   9.442   2.346 -0.3082  0.4588  0.3345
 5784SOL    HW119074   6.098   9.535   2.327 -0.2102  0.1602 -1.2261
 5784SOL    HW219075   6.010   9.423   2.376 -1.2283  0.5474 -2.1100
 5785SOL     OW19076   6.368   2.187   8.147  0.2481  0.0044  0.5246
 5785SOL    HW119077   6.289   2.222   8.106  1.2957  0.2364 -1.4236
 5785SOL    HW219078   6.421   2.265   8.167 -0.1539 -0.1206  2.1939
 5786SOL     OW19079   0.570   6.791   0.088 -0.7073  0.2808  0.5279
 5786SOL    HW119080   0.549   6.839   0.008  0.2822  1.2187  0.8245
 5786SOL    HW219081   0.655   6.750   0.070 -0.5197  0.4281  1.0649
 5787SOL     OW19082   0.092   2.570   1.829 -0.0010 -0.4673 -0.0783
 5787SOL    HW119083   0.068   2.645   1.775 -2.3337 -0.2235  1.1712
 5787SOL    HW219084   0.154   2.606   1.893  1.7292 -0.4708 -1.6720
 5788SOL     OW19085   7.618   9.112   3.242 -0.1058  0.2887 -0.6284
 5788SOL    HW119086   7.579   9.031   3.276  1.8233 -0.6877 -0.5901
 5788SOL    HW219087   7.702   9.119   3.287  0.1737  1.8330 -1.3163
 5789SOL     OW19088   0.178   8.477   2.242 -0.5650  0.0636 -0.5013
 5789SOL    HW119089   0.218   8.562   2.262 -1.5335  0.3730  0.2040
 5789SOL    HW219090   0.203   8.460   2.152  1.0894  0.2703 -0.1269
 5790SOL     OW19091   0.333   8.120   3.516  0.2256 -0.4661 -0.8923
 5790SOL    HW119092   0.286   8.125   3.433  1.0761 -1.5160 -1.4673
 5790SOL    HW219093   0.405   8.060   3.499  0.8654 -0.1035  0.4037
 5791SOL     OW19094   6.372   8.723   7.285  0.3072 -0.2228 -0.0571
 5791SOL    HW119095   6.362   8.818   7.274  1.0959 -0.1430 -0.1490
 5791SOL    HW219096   6.394   8.691   7.198  5.6032  0.2814  0.7932
 5792SOL     OW19097   6.386   4.686   3.847 -0.9354  0.1067 -0.4012
 5792SOL    HW119098   6.313   4.666   3.906 -1.2935  0.6224 -0.6584
 5792SOL    HW219099   6.422   4.768   3.880  0.4990 -0.8936  0.6263
 5793SOL     OW19100   8.250   2.392   3.705 -0.2891  0.5000 -0.2274
 5793SOL    HW119101   8.294   2.477   3.706 -2.1114  1.6593  4.0024
 5793SOL    HW219102   8.288   2.345   3.780 -1.6734 -1.0839 -0.4626
 5794SOL     OW19103   2.095   9.477   0.093  0.1235 -0.1607  0.2170
 5794SOL    HW119104   2.148   9.496   0.015  0.1570  0.3402  0.3560
 5794SOL    HW219105   2.147   9.413   0.141  1.6405  1.8128  1.3728
 5795SOL     OW19106   5.905   2.837   6.737  0.4245 -0.4375 -0.1298
 5795SOL    HW119107   5.915   2.930   6.757 -0.3509 -0.4441  0.3032
 5795SOL    HW219108   5.990   2.798   6.758  0.1736 -0.1507  1.5177
 5796SOL     OW19109   9.442   3.190   2.109 -0.2168  0.8753  0.4727
 5796SOL    HW119110   9.383   3.249   2.155 -0.4808  1.9467 -1.1781
 5796SOL    HW219111   9.517   3.180   2.168 -1.6299  0.1628  2.2222
 5797SOL     OW19112   5.270   1.445   7.766  0.2767  0.3019 -0.4250
 5797SOL    HW119113   5.237   1.504   7.697 -0.7539 -1.7673 -1.7965
 5797SOL    HW219114   5.214   1.463   7.841 -2.1645 -1.0470 -1.7958
 5798SOL     OW19115   7.510   5.276   3.431 -0.1178 -0.2612 -0.0002
 5798SOL    HW119116   7.414   5.269   3.423 -0.2690 -0.3943  1.6460
 5798SOL    HW219117   7.543   5.225   3.357 -1.3075  0.4766 -1.0913
 5799SOL     OW19118   8.315   0.399   8.243  0.3587  0.3268 -0.0431
 5799SOL    HW119119   8.328   0.383   8.150  0.5320  1.3863 -0.2178
 5799SOL    HW219120   8.402   0.388   8.281  0.5295  1.0373 -0.2023
 5800SOL     OW19121   2.942   9.655   6.907 -0.3583  0.5772  0.6394
 5800SOL    HW119122   3.020   9.696   6.945  0.0075 -1.1064  1.7943
 5800SOL    HW219123   2.880   9.649   6.980 -0.7613 -0.0423  0.2552
 5801SOL     OW19124   7.974   8.378   9.666 -0.2200 -0.3872 -0.0583
 5801SOL    HW119125   8.023   8.427   9.600  0.7313 -2.1958 -0.7804
 5801SOL    HW219126   7.973   8.288   9.633  1.6416 -1.7343  3.0788
 5802SOL     OW19127   8.587   8.457   0.248 -0.3254 -0.3413 -0.2261
 5802SOL    HW119128   8.564   8.487   0.336 -0.9814 -0.7071 -0.2608
 5802SOL    HW219129   8.624   8.533   0.205 -1.0739  0.1583 -0.0020
 5803SOL     OW19130   2.144   1.995   0.019 -0.2364 -0.0668  0.1416
 5803SOL    HW119131   2.108   1.949  -0.057  0.0299  1.1276 -0.7471
 5803SOL    HW219132   2.140   2.088  -0.005  0.5868  0.2863  1.2699
 5804SOL     OW19133   3.830   2.808   9.235 -0.1220  0.2134  0.2329
 5804SOL    HW119134   3.755   2.866   9.241  0.9421  1.5931  0.6941
 5804SOL    HW219135   3.898   2.850   9.288  0.9578 -1.0260 -0.1019
 5805SOL     OW19136   7.113   8.697   4.645 -0.4185 -0.1484 -0.8537
 5805SOL    HW119137   7.104   8.785   4.682 -2.2416 -0.0462 -1.4449
 5805SOL    HW219138   7.108   8.638   4.721  0.2208  0.2137 -0.5203
 5806SOL     OW19139   6.474   1.241   3.458 -0.5292  0.0567  0.0634
 5806SOL    HW119140   6.397   1.263   3.405  0.1505 -1.3150 -1.5784
 5806SOL    HW219141   6.543   1.299   3.426 -0.6117  0.6603  0.9214
 5807SOL     OW19142   4.764   6.856   2.830 -0.0059 -0.3376 -0.3494
 5807SOL    HW119143   4.708   6.780   2.818  1.2225 -1.4549  0.7310
 5807SOL    HW219144   4.725   6.905   2.902  0.3415 -1.0622  0.3360
 5808SOL     OW19145   3.021   8.961   2.487 -0.5610 -0.0449 -0.1812
 5808SOL    HW119146   3.041   9.051   2.461  0.8113  0.4260  2.1138
 5808SOL    HW219147   3.064   8.906   2.422  2.3965  1.0215  0.7234
 5809SOL     OW19148   2.461   6.754   8.896  0.0098  0.1670  0.2996
 5809SOL    HW119149   2.458   6.801   8.979 -0.9652  0.7173 -0.0363
 5809SOL    HW219150   2.516   6.809   8.840  0.7612 -0.2605  0.5995
 5810SOL     OW19151   7.799   2.989   6.114 -0.5180 -0.5890 -0.1957
 5810SOL    HW119152   7.812   3.081   6.092 -2.4385 -0.4808 -1.0095
 5810SOL    HW219153   7.877   2.966   6.165 -0.0182  1.4848  0.0721
 5811SOL     OW19154   6.708   8.308   7.735 -0.1220  0.0399  0.3778
 5811SOL    HW119155   6.736   8.396   7.759  0.5893 -0.0971  0.0861
 5811SOL    HW219156   6.656   8.320   7.656  0.4474  0.1405  0.0185
 5812SOL     OW19157   2.542   2.829   1.735 -0.2890  0.3348  0.4362
 5812SOL    HW119158   2.527   2.878   1.654 -3.2078  1.8810  1.7689
 5812SOL    HW219159   2.625   2.865   1.769  0.3185  0.5671 -1.1770
 5813SOL     OW19160   7.652   1.265   8.875 -0.2659  0.5068 -0.9131
 5813SOL    HW119161   7.735   1.256   8.827 -0.0442 -1.6764 -0.2295
 5813SOL    HW219162   7.674   1.317   8.952  0.3249  0.4704 -1.0512
 5814SOL     OW19163   0.117   0.936   0.313 -0.0309  0.6083 -0.1832
 5814SOL    HW119164   0.168   1.007   0.272 -0.1611  1.4488  1.0442
 5814SOL    HW219165   0.163   0.918   0.395  0.4462 -1.3060 -0.8277
 5815SOL     OW19166   5.742   8.334   0.311  0.0485 -0.1594  0.3074
 5815SOL    HW119167   5.718   8.392   0.238  0.2262 -3.1039 -2.2891
 5815SOL    HW219168   5.676   8.265   0.310 -0.0327 -0.2326  3.1358
 5816SOL     OW19169   8.274   6.332   2.681 -0.3444 -0.4867 -0.0468
 5816SOL    HW119170   8.209   6.311   2.615 -1.8035 -0.2144  1.2516
 5816SOL    HW219171   8.272   6.257   2.741 -1.0099  0.4325  1.1359
 5817SOL     OW19172   6.013   7.749   4.944 -0.7930  0.0011 -0.1905
 5817SOL    HW119173   6.016   7.654   4.960 -1.0081 -0.0071 -0.1951
 5817SOL    HW219174   6.098   7.769   4.906 -1.0114 -0.3098 -0.8543
 5818SOL     OW19175   7.241   3.616   0.475 -0.1803  0.1042 -0.1305
 5818SOL    HW119176   7.218   3.707   0.493 -0.7314 -0.1093  0.2685
 5818SOL    HW219177   7.286   3.619   0.391  3.0064  1.2417  1.4257
 5819SOL     OW19178   0.871   2.582   3.481 -0.3398  0.2650  0.0776
 5819SOL    HW119179   0.912   2.550   3.401  0.1983  1.4168 -0.1362
 5819SOL    HW219180   0.944   2.616   3.533 -0.7901  0.3832  0.6408
 5820SOL     OW19181   8.233   0.945   7.312 -0.0913 -0.3082 -0.0735
 5820SOL    HW119182   8.249   0.887   7.238 -2.1830 -1.0424 -0.0113
 5820SOL    HW219183   8.267   1.030   7.284  0.9612 -1.0289 -1.0576
 5821SOL     OW19184   0.098   2.506   4.408  0.2202 -0.3289  0.2140
 5821SOL    HW119185   0.101   2.538   4.498 -0.1881  1.0363 -0.2288
 5821SOL    HW219186   0.162   2.435   4.406  1.7703  0.9739  1.0731
 5822SOL     OW19187   1.924   8.633   3.323 -0.7092 -0.8898 -0.1265
 5822SOL    HW119188   1.936   8.728   3.326  1.7161 -1.0807 -1.7034
 5822SOL    HW219189   1.926   8.606   3.415  1.3883  0.3265  0.2504
 5823SOL     OW19190   3.757   1.136   7.388 -0.1522  0.1408 -0.4670
 5823SOL    HW119191   3.779   1.135   7.481 -0.9150  1.0776 -0.2601
 5823SOL    HW219192   3.807   1.063   7.351 -0.5384 -0.8211  0.8302
 5824SOL     OW19193   7.056   9.242   8.290  0.1049 -0.1799  0.2892
 5824SOL    HW119194   6.990   9.173   8.298  1.3279 -1.6840 -1.5764
 5824SOL    HW219195   7.020   9.303   8.226 -1.0997  1.1799  2.1405
 5825SOL     OW19196   5.036   6.690   5.295  0.3296  0.8973  0.5324
 5825SOL    HW119197   5.088   6.764   5.326  2.4132  0.3378 -1.3763
 5825SOL    HW219198   5.100   6.623   5.271 -0.9208  0.9863 -4.1250
 5826SOL     OW19199   5.953   4.032   2.133  0.0584  0.3741 -0.1668
 5826SOL    HW119200   5.885   4.093   2.107 -1.6413 -0.5755  1.7781
 5826SOL    HW219201   5.982   4.063   2.219 -1.6772 -2.0273  1.4383
 5827SOL     OW19202   1.824   6.910   3.408 -0.0684  0.2693  0.0887
 5827SOL    HW119203   1.829   6.938   3.317  1.1560 -2.7142 -0.8943
 5827SOL    HW219204   1.914   6.885   3.431 -0.6338 -0.5941  1.5355
 5828SOL     OW19205   2.638   2.587   5.805 -0.0726 -0.1593 -0.0231
 5828SOL    HW119206   2.728   2.566   5.781 -0.1757  0.0291 -0.5892
 5828SOL    HW219207   2.588   2.576   5.724 -0.9173 -2.2357  0.7144
 5829SOL     OW19208   5.583   7.595   7.344 -0.3494  0.6421 -0.0269
 5829SOL    HW119209   5.579   7.662   7.412  0.1811  0.5253  0.1212
 5829SOL    HW219210   5.646   7.629   7.280 -1.3655  1.0828 -0.8233
 5830SOL     OW19211   4.492   4.045   1.519  0.1650  0.4500  0.3111
 5830SOL    HW119212   4.580   4.050   1.555  0.3286  0.5075 -0.0915
 5830SOL    HW219213   4.484   3.956   1.486 -0.1136  0.2869  0.8111
 5831SOL     OW19214   7.676   3.976   3.873  0.1771  0.0894  0.2825
 5831SOL    HW119215   7.642   4.051   3.824 -1.6525 -0.5044  0.5806
 5831SOL    HW219216   7.770   3.975   3.853 -0.2461  0.7181 -2.0580
 5832SOL     OW19217   0.137   4.027   7.945 -0.2046  0.5980  0.1562
 5832SOL    HW119218   0.206   4.086   7.975 -0.3960  0.1594  1.4898
 5832SOL    HW219219   0.181   3.969   7.883  1.1702 -1.0142  2.5098
 5833SOL     OW19220   2.475   1.716   8.134 -0.1708  0.2480  0.3769
 5833SOL    HW119221   2.567   1.691   8.135 -0.1734  0.0972  2.5272
 5833SOL    HW219222   2.475   1.806   8.101  0.9936  0.8733  1.9370
 5834SOL     OW19223   6.865   2.922   6.847  0.5677  0.6436  0.4191
 5834SOL    HW119224   6.853   2.856   6.916  1.1011  0.0368 -0.0633
 5834SOL    HW219225   6.828   2.882   6.769  1.1111  0.8241  0.0676
 5835SOL     OW19226   2.340   3.543   6.277 -0.4717  0.2081  0.0737
 5835SOL    HW119227   2.368   3.573   6.190 -2.6205 -0.4379 -0.8954
 5835SOL    HW219228   2.247   3.564   6.281 -0.4802 -0.0101  2.1597
 5836SOL     OW19229   0.708   8.212   5.655 -0.4087  0.1644 -0.1297
 5836SOL    HW119230   0.615   8.214   5.632 -0.5164  1.3315  0.3113
 5836SOL    HW219231   0.714   8.147   5.725 -0.8175 -0.2390 -0.4636
 5837SOL     OW19232   1.645   1.246   6.846 -0.0924 -0.4519 -0.5766
 5837SOL    HW119233   1.635   1.219   6.937  2.9261 -1.0005 -0.3110
 5837SOL    HW219234   1.623   1.339   6.846 -0.4847 -0.5287  0.6417
 5838SOL     OW19235   8.485   7.434   5.322  0.0701  0.6850 -0.1040
 5838SOL    HW119236   8.446   7.508   5.276  0.8278  1.0682 -0.1460
 5838SOL    HW219237   8.566   7.469   5.360  0.9235 -0.3216 -0.9058
 5839SOL     OW19238   8.626   5.295   3.494  0.3868 -0.1664  0.0797
 5839SOL    HW119239   8.588   5.213   3.462  2.2695 -1.2688  0.4799
 5839SOL    HW219240   8.643   5.278   3.587 -0.6779  1.2796  0.5542
 5840SOL     OW19241   3.287   1.507   1.982 -0.1275 -0.2510  0.3972
 5840SOL    HW119242   3.193   1.493   1.980  0.1364 -2.4857  0.6134
 5840SOL    HW219243   3.303   1.555   2.063 -1.1663  1.4110 -0.3227
 5841SOL     OW19244   5.151   7.332   5.804  0.7994  0.1101 -0.1219
 5841SOL    HW119245   5.073   7.386   5.817  0.7968 -0.0213  0.4241
 5841SOL    HW219246   5.224   7.395   5.807  0.5659  0.9795 -4.9760
 5842SOL     OW19247   8.829   1.187   5.465  0.0753  0.3425  0.4027
 5842SOL    HW119248   8.751   1.134   5.448  0.0474  1.4394 -4.5205
 5842SOL    HW219249   8.902   1.131   5.439  0.3389  1.2970 -1.0495
 5843SOL     OW19250   6.845   8.265   0.779  0.8150 -0.4532  0.0648
 5843SOL    HW119251   6.915   8.295   0.722  0.6330  0.6560  0.4088
 5843SOL    HW219252   6.889   8.208   0.843  1.0640 -1.4382 -0.9445
 5844SOL     OW19253   3.689   9.407   6.057 -0.2171  0.1537  0.1623
 5844SOL    HW119254   3.619   9.465   6.087 -0.4245 -0.3322  0.6262
 5844SOL    HW219255   3.659   9.319   6.081  1.7777  0.0980  3.0178
 5845SOL     OW19256   0.167   8.184   2.069 -0.1966 -1.0431 -0.0520
 5845SOL    HW119257   0.143   8.221   2.154  0.6230 -0.2999 -0.1202
 5845SOL    HW219258   0.105   8.113   2.055 -2.3448  0.7299 -0.2337
 5846SOL     OW19259   7.015   4.821   1.172 -0.3050  0.4841 -0.5599
 5846SOL    HW119260   7.047   4.756   1.235  0.1801  0.7472 -0.5312
 5846SOL    HW219261   6.963   4.882   1.225 -0.8942  0.0318 -0.6133
 5847SOL     OW19262   1.987   4.989   8.479 -0.1981  0.0572 -0.0909
 5847SOL    HW119263   2.037   5.016   8.402  1.7479 -3.9774 -0.4928
 5847SOL    HW219264   2.043   5.009   8.553 -0.6927  0.9822  0.0601
 5848SOL     OW19265   1.684   8.804   8.661 -0.5256  0.0469  0.3917
 5848SOL    HW119266   1.596   8.793   8.626 -0.2026 -1.3911 -0.0205
 5848SOL    HW219267   1.694   8.733   8.725  0.9800 -0.9911 -0.9232
 5849SOL     OW19268   4.910   0.870   5.314  0.8270  0.1314 -0.2201
 5849SOL    HW119269   4.821   0.848   5.289  0.3402  3.1238 -1.4977
 5849SOL    HW219270   4.918   0.840   5.404 -0.4953 -2.6145 -0.9186
 5850SOL     OW19271   2.949   2.854   1.988 -0.3420 -0.0032  0.0287
 5850SOL    HW119272   2.972   2.908   1.913  1.7315 -0.5329  0.2187
 5850SOL    HW219273   2.943   2.916   2.061  1.3015  0.1063  0.1064
 5851SOL     OW19274   2.681   2.721   7.512 -0.2384 -0.1613  0.1484
 5851SOL    HW119275   2.653   2.632   7.488  0.7015 -0.3700 -0.2211
 5851SOL    HW219276   2.661   2.773   7.434 -1.9797  0.2341  0.8243
 5852SOL     OW19277   3.375   1.826   6.562  0.0796 -0.0073 -0.0128
 5852SOL    HW119278   3.444   1.871   6.610 -1.3465  0.5967  1.5774
 5852SOL    HW219279   3.419   1.753   6.518  1.5363 -0.3691  1.9158
 5853SOL     OW19280   4.889   4.814   6.393 -0.1879 -0.3950 -0.1741
 5853SOL    HW119281   4.799   4.835   6.368 -0.6658 -0.8812  1.0261
 5853SOL    HW219282   4.904   4.727   6.358 -0.3755 -0.5207  0.0528
 5854SOL     OW19283   0.363   4.126   0.571 -0.3184  0.0813  0.1154
 5854SOL    HW119284   0.310   4.173   0.507  0.7536  0.0014 -0.8426
 5854SOL    HW219285   0.350   4.175   0.653 -0.6394  0.9679 -0.4540
 5855SOL     OW19286   3.761   5.307   5.847 -0.3924 -0.2266 -0.1059
 5855SOL    HW119287   3.787   5.219   5.873  0.4263 -0.0661 -0.3428
 5855SOL    HW219288   3.788   5.363   5.920 -1.7647 -0.2688  0.4723
 5856SOL     OW19289   3.635   2.276   3.006  0.3012 -0.0074 -0.5350
 5856SOL    HW119290   3.633   2.292   2.911 -3.8340 -0.9344 -0.8117
 5856SOL    HW219291   3.631   2.181   3.014 -0.1715  0.0903  0.5418
 5857SOL     OW19292   2.516   0.055   2.901  0.4754 -0.0267  0.1851
 5857SOL    HW119293   2.576  -0.010   2.864 -1.0864 -2.2188  1.2664
 5857SOL    HW219294   2.503   0.119   2.831  0.1894 -2.2216 -1.8851
 5858SOL     OW19295   0.864   2.557   5.591  0.0504 -0.2225 -0.2797
 5858SOL    HW119296   0.870   2.462   5.601 -0.7655 -0.2197  0.3303
 5858SOL    HW219297   0.955   2.587   5.596  0.1812 -0.7636  1.9274
 5859SOL     OW19298   6.413   2.099   2.332  0.0937  0.6796  0.0224
 5859SOL    HW119299   6.329   2.058   2.314  0.0627  0.7631 -0.0247
 5859SOL    HW219300   6.476   2.052   2.278  0.1347  0.3745  0.3383
 5860SOL     OW19301   5.415   0.580   5.913  0.2598  0.0835 -0.1003
 5860SOL    HW119302   5.432   0.519   5.841 -0.3166  1.0533 -1.0913
 5860SOL    HW219303   5.484   0.562   5.976 -0.2766 -2.0610 -0.0296
 5861SOL     OW19304   3.520   3.491   3.749  0.2948  0.1118  0.2859
 5861SOL    HW119305   3.513   3.586   3.736 -0.2155  0.5680  3.2183
 5861SOL    HW219306   3.430   3.462   3.763  0.6558 -0.3969  1.6283
 5862SOL     OW19307   0.162   1.936   2.917  0.6206 -0.5846  0.1007
 5862SOL    HW119308   0.089   1.997   2.917  0.5245 -0.6971  0.5073
 5862SOL    HW219309   0.221   1.968   2.848 -0.1726 -0.9246 -0.7486
 5863SOL     OW19310   3.985   7.996   5.747  0.0495 -0.0315  0.2466
 5863SOL    HW119311   4.017   8.041   5.825 -0.1349  0.1076  0.2421
 5863SOL    HW219312   4.057   7.937   5.722  0.2565  0.1969  0.3003
 5864SOL     OW19313   1.846   5.554   7.872  0.4875  0.1277 -0.0941
 5864SOL    HW119314   1.803   5.531   7.790 -0.5921  1.1165  0.1691
 5864SOL    HW219315   1.864   5.647   7.865 -2.2637  0.9487  1.8579
 5865SOL     OW19316   0.930   9.496   6.244  0.2383  0.7082  0.1683
 5865SOL    HW119317   0.899   9.499   6.334 -0.3633  0.9260 -0.0453
 5865SOL    HW219318   0.972   9.581   6.231  0.1887  0.7370  0.1944
 5866SOL     OW19319   2.393   3.114   0.487  0.0484 -0.2995 -0.3180
 5866SOL    HW119320   2.467   3.133   0.544  1.8974 -0.5371 -2.5177
 5866SOL    HW219321   2.332   3.064   0.543  2.7601 -2.5548  0.8668
 5867SOL     OW19322   8.746   3.387   4.236  0.1670  0.3564 -0.4474
 5867SOL    HW119323   8.703   3.444   4.299  0.0141 -0.0706 -0.1643
 5867SOL    HW219324   8.765   3.444   4.161  0.3406  0.8593 -0.0251
 5868SOL     OW19325   6.415   8.466   2.926 -0.3703 -0.3102 -0.2392
 5868SOL    HW119326   6.326   8.453   2.893 -0.0454  0.7834 -1.6368
 5868SOL    HW219327   6.465   8.494   2.849  0.4224  2.4210  1.1361
 5869SOL     OW19328   3.422   3.427   1.654  0.1221 -0.2021 -0.0882
 5869SOL    HW119329   3.438   3.441   1.748 -2.6192 -1.3815  0.6459
 5869SOL    HW219330   3.406   3.515   1.619  2.9103  0.4751  0.0743
 5870SOL     OW19331   2.710   6.321   5.779 -0.3457  0.0105 -0.0030
 5870SOL    HW119332   2.654   6.290   5.849  0.6468 -0.1065  0.7613
 5870SOL    HW219333   2.775   6.252   5.768 -0.5009  0.0211 -1.0548
 5871SOL     OW19334   9.543   1.578   1.101  0.0614 -0.4166 -0.2493
 5871SOL    HW119335   9.448   1.588   1.094  0.2189  0.8754 -0.7669
 5871SOL    HW219336   9.578   1.611   1.018  1.0417  0.4724  0.4839
 5872SOL     OW19337   8.976   9.246   5.866 -0.5047  0.1265  0.1921
 5872SOL    HW119338   8.958   9.178   5.801  0.2985  1.2365 -1.2437
 5872SOL    HW219339   9.029   9.202   5.933  0.2721 -0.5943 -0.8740
 5873SOL     OW19340   7.111   3.899   3.297 -0.3412  0.3828  0.1834
 5873SOL    HW119341   7.149   3.983   3.269 -0.1073 -0.1357 -1.0891
 5873SOL    HW219342   7.109   3.905   3.393 -0.8582  2.0729  0.1035
 5874SOL     OW19343   3.315   2.868   0.416 -0.2472  0.0988  0.0567
 5874SOL    HW119344   3.242   2.930   0.406 -1.4243 -1.5821 -3.2380
 5874SOL    HW219345   3.391   2.915   0.381 -0.5272  0.6002  0.1122
 5875SOL     OW19346   4.641   5.108   8.293 -0.1358  0.2583  0.0515
 5875SOL    HW119347   4.593   5.034   8.332  0.1799 -0.2066 -0.4216
 5875SOL    HW219348   4.718   5.119   8.349  0.1479 -0.1945 -0.2428
 5876SOL     OW19349   8.154   6.389   0.136 -0.1614 -0.0615  0.0377
 5876SOL    HW119350   8.106   6.321   0.088  0.3395  0.2137 -0.8661
 5876SOL    HW219351   8.234   6.345   0.165  0.8162  0.4706 -1.7220
 5877SOL     OW19352   7.976   0.036   2.610 -0.0816  0.8000 -0.7173
 5877SOL    HW119353   7.963  -0.058   2.612 -1.0567  0.9296  0.4339
 5877SOL    HW219354   7.889   0.072   2.591 -0.3900  1.5280  1.7390
 5878SOL     OW19355   3.101   8.758   5.153  0.1759 -0.3102 -0.5827
 5878SOL    HW119356   3.048   8.830   5.119  0.4410  0.2793  0.2381
 5878SOL    HW219357   3.037   8.689   5.172 -0.5876  0.9866  2.0078
 5879SOL     OW19358   7.886   8.864   4.500  0.1190  0.4257 -0.0344
 5879SOL    HW119359   7.796   8.833   4.498 -0.3367  1.7183 -0.8530
 5879SOL    HW219360   7.895   8.920   4.423  0.9524  2.0684  1.1718
 5880SOL     OW19361   9.005   3.247   1.025 -0.2444  0.1759  0.2217
 5880SOL    HW119362   9.056   3.327   1.037 -1.0510  0.7476 -0.1106
 5880SOL    HW219363   8.958   3.261   0.943 -1.7466  0.1111  1.0555
 5881SOL     OW19364   0.301   2.531   8.967 -0.2064  0.5899 -0.3364
 5881SOL    HW119365   0.395   2.551   8.974 -0.0373  0.1719 -1.3306
 5881SOL    HW219366   0.282   2.537   8.873 -1.1592  0.5772 -0.1529
 5882SOL     OW19367   4.631   6.309   1.741 -0.5130  0.4084 -0.3131
 5882SOL    HW119368   4.624   6.370   1.667 -1.0933  0.3483 -0.3147
 5882SOL    HW219369   4.546   6.266   1.743 -0.0117 -0.6058 -0.4881
 5883SOL     OW19370   4.557   5.168   4.829  0.5728 -0.1701 -0.3807
 5883SOL    HW119371   4.505   5.135   4.903  1.8878 -1.8766 -0.1767
 5883SOL    HW219372   4.587   5.254   4.858  1.2903 -0.9174  1.2123
 5884SOL     OW19373   6.368   6.830   3.839  0.0843  0.3244  0.3258
 5884SOL    HW119374   6.368   6.924   3.826 -0.2681  0.1516 -1.0898
 5884SOL    HW219375   6.447   6.799   3.796  0.0871 -0.0612  0.5941
 5885SOL     OW19376   8.210   4.836   2.980  0.6682  0.4166  0.2611
 5885SOL    HW119377   8.175   4.862   3.065 -0.3217 -1.3517  0.4198
 5885SOL    HW219378   8.137   4.796   2.934  1.3775  0.6722 -1.1661
 5886SOL     OW19379   5.362   2.025   5.726  0.1991  0.0444  0.0011
 5886SOL    HW119380   5.281   2.068   5.753  0.3602  0.7376 -0.5872
 5886SOL    HW219381   5.334   1.949   5.675 -0.1027  1.0980 -1.4704
 5887SOL     OW19382   8.363   1.364   7.906 -1.0514 -0.3127 -0.5532
 5887SOL    HW119383   8.349   1.371   7.811  0.3817  1.2419 -0.6948
 5887SOL    HW219384   8.458   1.374   7.917 -1.1438 -0.9494  1.0180
 5888SOL     OW19385   9.141   4.818   6.781 -0.2374  0.0895  0.2716
 5888SOL    HW119386   9.139   4.723   6.798 -1.6134 -0.0278 -0.4202
 5888SOL    HW219387   9.088   4.829   6.702 -0.1282  1.4618  0.3733
 5889SOL     OW19388   8.797   5.610   5.322 -0.0844  0.0470 -0.0543
 5889SOL    HW119389   8.777   5.655   5.404 -0.1536  0.3334 -0.2270
 5889SOL    HW219390   8.811   5.680   5.259  0.3479 -0.1675 -0.2013
 5890SOL     OW19391   2.083   7.521   8.404 -0.2045 -0.1918 -0.2568
 5890SOL    HW119392   2.101   7.612   8.426 -2.6550  0.7402 -1.7168
 5890SOL    HW219393   2.037   7.486   8.480 -3.5192  1.3042 -1.4009
 5891SOL     OW19394   3.810   4.005   9.680 -0.3530 -0.1360 -0.0219
 5891SOL    HW119395   3.736   4.033   9.625 -0.3563 -0.1307 -0.0145
 5891SOL    HW219396   3.875   4.074   9.668 -1.2073  1.0359  1.7037
 5892SOL     OW19397   1.506   8.303   3.679 -0.3072 -0.0184  0.3488
 5892SOL    HW119398   1.593   8.337   3.700 -0.6723  0.4946  1.0907
 5892SOL    HW219399   1.522   8.214   3.650  0.6408  0.6510 -1.3059
 5893SOL     OW19400   4.678   9.285   0.084  0.7824  0.1893 -0.5374
 5893SOL    HW119401   4.611   9.351   0.063  0.6670  1.7248  3.7738
 5893SOL    HW219402   4.635   9.201   0.067 -0.7201  1.1358 -1.7318
 5894SOL     OW19403   3.011   0.260   5.033 -0.5400  0.2981 -0.6431
 5894SOL    HW119404   3.096   0.247   5.075 -1.4746  0.5121  1.4418
 5894SOL    HW219405   3.032   0.293   4.945  1.5273 -0.9709 -0.6848
 5895SOL     OW19406   3.214   3.699   3.803 -0.0933 -0.3130  0.6684
 5895SOL    HW119407   3.138   3.725   3.855 -0.9393 -0.1451 -0.6003
 5895SOL    HW219408   3.241   3.779   3.758  0.1043 -0.6253  0.2185
 5896SOL     OW19409   3.268   3.208   1.682  0.1555 -0.0428  0.5057
 5896SOL    HW119410   3.312   3.292   1.691 -1.3779  0.8321  0.1109
 5896SOL    HW219411   3.227   3.211   1.596  1.8378 -2.0795 -0.4640
 5897SOL     OW19412   2.652   3.574   0.374 -0.0028 -0.3701  0.1596
 5897SOL    HW119413   2.712   3.639   0.337 -1.1498 -0.0382 -1.2100
 5897SOL    HW219414   2.626   3.610   0.459  0.3457  0.3468 -0.0325
 5898SOL     OW19415   8.029   6.943   3.354 -0.0675 -0.2861  0.2223
 5898SOL    HW119416   8.098   6.990   3.307 -0.1334 -0.1523  0.2576
 5898SOL    HW219417   7.965   7.011   3.375  0.1729 -0.2699  0.9038
 5899SOL     OW19418   9.618   4.064   3.079  0.3015  0.2916 -0.0085
 5899SOL    HW119419   9.547   4.105   3.128 -0.4863 -1.0441  0.0073
 5899SOL    HW219420   9.660   4.006   3.142 -0.6718 -1.3785 -0.8221
 5900SOL     OW19421   3.107   5.816   5.007  0.1181 -0.5094  0.6977
 5900SOL    HW119422   3.193   5.837   4.970  0.1992 -1.4804  0.3023
 5900SOL    HW219423   3.094   5.723   4.986 -2.2214  0.2427 -1.7032
 5901SOL     OW19424   0.291   0.864   7.550 -0.2610 -0.7629 -0.0580
 5901SOL    HW119425   0.357   0.932   7.554 -0.9833 -0.1101  1.0805
 5901SOL    HW219426   0.341   0.782   7.559  0.7141 -0.5014 -2.3570
 5902SOL     OW19427   3.815   7.013   6.038 -0.1413  0.1368  0.0437
 5902SOL    HW119428   3.842   7.075   5.971  0.6742 -0.0309  0.2104
 5902SOL    HW219429   3.773   6.942   5.989  1.1722 -0.3789 -0.3839
 5903SOL     OW19430   7.440   0.952   1.270  0.1096  0.1329  0.0220
 5903SOL    HW119431   7.451   0.905   1.187  1.6370 -1.0257  0.8266
 5903SOL    HW219432   7.475   1.039   1.253  0.6209 -0.1670 -0.5063
 5904SOL     OW19433   4.182   3.781   9.170 -0.1046  0.2268 -0.3779
 5904SOL    HW119434   4.130   3.741   9.100 -1.7850 -0.9672  1.4467
 5904SOL    HW219435   4.272   3.773   9.140 -0.7539 -0.3595 -2.3378
 5905SOL     OW19436   6.046   2.076   4.425  0.5457  0.1545  0.0333
 5905SOL    HW119437   6.019   2.020   4.498 -0.1860  0.1992 -0.1856
 5905SOL    HW219438   6.102   2.021   4.371  0.5994 -0.0675  0.3152
 5906SOL     OW19439   6.133   5.210   3.399  0.9788 -0.3867  0.3279
 5906SOL    HW119440   6.228   5.217   3.392  0.7346  1.8920 -2.5019
 5906SOL    HW219441   6.109   5.142   3.336  0.6112  0.4993 -0.5046
 5907SOL     OW19442   8.709   1.657   4.612  0.3112  0.0630 -0.4594
 5907SOL    HW119443   8.626   1.610   4.606 -0.4120  1.4484 -1.8777
 5907SOL    HW219444   8.774   1.593   4.581  0.0665 -1.5229  1.9993
 5908SOL     OW19445   8.291   0.211   9.554  0.4454  0.3433 -0.6404
 5908SOL    HW119446   8.248   0.295   9.539  1.3665  0.9462 -0.0088
 5908SOL    HW219447   8.334   0.221   9.639  1.4828 -0.3659 -1.0681
 5909SOL     OW19448   3.663   1.805   4.775 -0.7266  0.2937 -0.2736
 5909SOL    HW119449   3.656   1.717   4.812  4.4315 -0.0199  0.7078
 5909SOL    HW219450   3.677   1.790   4.681  1.2528 -0.1644  0.0430
 5910SOL     OW19451   0.579   2.608   0.759  0.0671  0.4783 -0.3541
 5910SOL    HW119452   0.546   2.667   0.826  0.3637 -0.6464  0.8103
 5910SOL    HW219453   0.542   2.523   0.781  1.4237 -0.2268 -0.6902
 5911SOL     OW19454   0.262   5.587   4.614 -0.2684 -0.0236 -1.0485
 5911SOL    HW119455   0.329   5.587   4.545  1.9170  3.4504  0.7280
 5911SOL    HW219456   0.199   5.653   4.586 -0.6171 -0.2571 -0.8094
 5912SOL     OW19457   5.238   3.829   6.910 -0.3804 -0.3481  0.1179
 5912SOL    HW119458   5.154   3.793   6.880 -0.3863 -0.7114  0.5673
 5912SOL    HW219459   5.295   3.753   6.921 -0.2524 -0.1831  0.6250
 5913SOL     OW19460   5.640   1.938   9.566 -0.0667 -0.4171 -0.1399
 5913SOL    HW119461   5.631   1.846   9.591 -0.1814 -0.1978  0.6498
 5913SOL    HW219462   5.551   1.972   9.567  0.1229  0.1317  1.3196
 5914SOL     OW19463   2.942   6.963   6.535 -0.3438 -0.1937 -0.0469
 5914SOL    HW119464   3.003   7.029   6.568 -0.0079 -0.3008 -0.4399
 5914SOL    HW219465   2.994   6.911   6.473 -0.5960 -0.8310  0.2585
 5915SOL     OW19466   4.607   0.990   6.139  0.4831  0.5271 -0.2624
 5915SOL    HW119467   4.651   1.073   6.159 -0.3407  1.4061 -1.8837
 5915SOL    HW219468   4.628   0.973   6.047  3.8801 -3.1779  0.9052
 5916SOL     OW19469   7.631   5.700   2.627  0.2554 -0.6055 -0.2066
 5916SOL    HW119470   7.641   5.758   2.703  1.8558 -0.6192 -0.3824
 5916SOL    HW219471   7.653   5.613   2.660  1.1293 -0.5860 -0.7142
 5917SOL     OW19472   3.874   6.023   5.715  0.2255  0.0095 -0.3081
 5917SOL    HW119473   3.934   5.951   5.732  0.8171  0.4609 -0.4618
 5917SOL    HW219474   3.842   6.008   5.626 -0.1694 -0.4224 -0.0995
 5918SOL     OW19475   6.053   8.034   3.557  0.2359 -0.0727 -0.0903
 5918SOL    HW119476   6.104   8.081   3.624 -0.1905  1.0801 -0.5485
 5918SOL    HW219477   5.972   8.010   3.602  0.7818 -1.0928  0.3741
 5919SOL     OW19478   3.258   8.048   1.223 -0.1659 -0.8888  0.0923
 5919SOL    HW119479   3.238   7.958   1.198  0.0327 -0.7113 -0.7161
 5919SOL    HW219480   3.282   8.092   1.141 -0.4710 -0.0402  0.4388
 5920SOL     OW19481   0.274   5.409   3.020 -0.6554 -0.2881  0.2136
 5920SOL    HW119482   0.273   5.314   3.023  0.8278 -0.3817 -0.9202
 5920SOL    HW219483   0.346   5.434   3.077 -0.7289  0.1240  0.1305
 5921SOL     OW19484   0.590   7.072   8.693  0.4871 -0.0246  0.5680
 5921SOL    HW119485   0.592   6.978   8.675  3.5602  0.0754 -0.0690
 5921SOL    HW219486   0.629   7.112   8.615 -1.1085  1.8549  0.6674
 5922SOL     OW19487   5.711   3.455   1.549 -0.3456  0.5455 -0.2047
 5922SOL    HW119488   5.753   3.515   1.487 -1.3379  0.1295 -1.3073
 5922SOL    HW219489   5.629   3.431   1.507  0.1382 -1.7955  0.0823
 5923SOL     OW19490   5.020   6.788   2.771 -0.2604 -0.7389  0.4212
 5923SOL    HW119491   4.946   6.848   2.784  0.9847  0.4627  2.6901
 5923SOL    HW219492   5.033   6.786   2.677 -2.0096  0.4990  0.1010
 5924SOL     OW19493   1.898   0.954   5.566 -0.2178 -0.3988  0.3199
 5924SOL    HW119494   1.958   0.880   5.561  1.8121  1.0786  1.1824
 5924SOL    HW219495   1.919   1.007   5.488 -0.3540  0.1593  0.6559
 5925SOL     OW19496   3.034   7.170   2.333 -0.0685  0.6267  0.1025
 5925SOL    HW119497   2.964   7.230   2.309 -0.2266 -0.0970 -1.3702
 5925SOL    HW219498   3.046   7.115   2.256  2.0585  0.6656  0.3446
 5926SOL     OW19499   2.663   1.925   2.399  0.0127  0.6462 -0.3599
 5926SOL    HW119500   2.593   1.956   2.457  0.5576  0.3903  0.4567
 5926SOL    HW219501   2.691   2.004   2.352  1.9822  1.7115  2.3204
 5927SOL     OW19502   0.376   1.969   9.393 -0.2464  0.3474 -0.3190
 5927SOL    HW119503   0.290   1.943   9.358 -0.7003 -1.0953  1.7086
 5927SOL    HW219504   0.356   2.038   9.455 -0.0362 -0.4283  0.6282
 5928SOL     OW19505   2.567   9.368   6.464 -0.2261 -0.3711 -0.1240
 5928SOL    HW119506   2.612   9.419   6.396  1.2890  0.6112  1.5253
 5928SOL    HW219507   2.561   9.428   6.539  0.2544 -2.1073  1.3843
 5929SOL     OW19508   3.327   1.611   0.602  0.3262  0.7810 -0.0321
 5929SOL    HW119509   3.345   1.618   0.508  0.5697  0.1123 -0.0429
 5929SOL    HW219510   3.325   1.702   0.633  1.4865  0.9638 -0.4537
 5930SOL     OW19511   2.167   4.111   3.053  0.4378 -0.4886 -0.0674
 5930SOL    HW119512   2.202   4.025   3.029  3.1715  0.4434  0.2277
 5930SOL    HW219513   2.171   4.162   2.972 -1.8747 -0.7545 -0.4316
 5931SOL     OW19514   1.821   5.429   3.149 -0.5456  0.3704 -0.3315
 5931SOL    HW119515   1.737   5.385   3.154 -1.2189  1.5206 -1.1578
 5931SOL    HW219516   1.807   5.503   3.090  1.1319  0.3914 -0.7691
 5932SOL     OW19517   7.340   5.605   5.102 -0.2798 -0.4878  0.5340
 5932SOL    HW119518   7.407   5.550   5.063 -0.4613 -0.8385  0.7163
 5932SOL    HW219519   7.384   5.646   5.177  0.6153  1.5752 -1.0196
 5933SOL     OW19520   2.727   6.861   1.814 -0.3138  0.0112  0.4826
 5933SOL    HW119521   2.800   6.921   1.795  0.1857 -1.4153 -3.0547
 5933SOL    HW219522   2.752   6.780   1.770 -3.5111 -0.9275  0.1709
 5934SOL     OW19523   4.039   5.251   1.485  0.2594 -0.1990 -0.0511
 5934SOL    HW119524   4.007   5.291   1.404  2.1001  0.6029 -0.4204
 5934SOL    HW219525   3.960   5.225   1.532 -0.9219  1.7789 -0.8616
 5935SOL     OW19526   4.384   6.533   8.796 -0.2096 -0.2817  0.7308
 5935SOL    HW119527   4.470   6.542   8.754 -0.4595 -0.6943  0.1234
 5935SOL    HW219528   4.378   6.440   8.818 -0.2469 -0.1397  1.3308
 5936SOL     OW19529   8.272   3.308   3.822  0.2977  0.2246  0.2893
 5936SOL    HW119530   8.221   3.383   3.792  0.5936  0.1729 -0.3548
 5936SOL    HW219531   8.248   3.297   3.914 -0.7119  0.3176  0.0427
 5937SOL     OW19532   8.489   6.341   7.915 -0.5270  0.2740  0.5737
 5937SOL    HW119533   8.543   6.267   7.943 -0.1677  0.2082 -0.2527
 5937SOL    HW219534   8.529   6.369   7.832 -0.4073  1.6401  1.0603
 5938SOL     OW19535   3.415   5.989   7.630 -0.6446  0.2795  0.2922
 5938SOL    HW119536   3.488   5.940   7.667 -2.0076 -1.0912  1.2674
 5938SOL    HW219537   3.441   6.081   7.640  0.3985 -0.1401  1.7625
 5939SOL     OW19538   8.170   4.862   0.553  0.2792  0.4238  0.1497
 5939SOL    HW119539   8.114   4.828   0.623 -0.4603  0.5698 -0.3567
 5939SOL    HW219540   8.203   4.784   0.508 -0.5965  0.3445 -0.3751
 5940SOL     OW19541   3.736   7.496   7.657  0.2022 -0.2474 -0.6872
 5940SOL    HW119542   3.733   7.444   7.737  1.3945 -1.7393 -1.5656
 5940SOL    HW219543   3.699   7.581   7.683  0.5813 -0.6649  1.4384
 5941SOL     OW19544   1.625   7.640   8.062  0.0522 -0.4264  0.1637
 5941SOL    HW119545   1.543   7.669   8.021 -0.3157 -0.5048  0.8330
 5941SOL    HW219546   1.655   7.569   8.006 -0.5835 -0.7100  0.1757
 5942SOL     OW19547   7.497   1.518   5.660 -0.4308  0.6631  0.2025
 5942SOL    HW119548   7.421   1.550   5.612 -0.8193  1.9986  1.6038
 5942SOL    HW219549   7.572   1.556   5.615 -0.6125 -0.1187 -0.7888
 5943SOL     OW19550   0.416   6.752   4.481 -0.2162 -0.2741 -0.0709
 5943SOL    HW119551   0.492   6.718   4.433  0.6841  0.0009  1.1125
 5943SOL    HW219552   0.341   6.722   4.431  0.6582 -1.0820 -0.9394
 5944SOL     OW19553   5.658   7.926   0.412 -0.5565  0.0336  0.1799
 5944SOL    HW119554   5.610   8.008   0.400  0.1513  0.4915  0.4383
 5944SOL    HW219555   5.728   7.930   0.348 -0.0609 -0.0179  0.7167
 5945SOL     OW19556   7.380   8.743   7.208 -0.4385  0.3563 -0.3721
 5945SOL    HW119557   7.390   8.758   7.114 -1.2506  3.0005 -0.1030
 5945SOL    HW219558   7.461   8.776   7.246 -0.2906 -0.3155 -0.0927
 5946SOL     OW19559   0.975   3.168   4.992 -0.3044  0.0474 -0.1181
 5946SOL    HW119560   0.938   3.105   5.054 -0.5711 -0.2527 -0.5748
 5946SOL    HW219561   0.916   3.243   4.996 -0.5001 -0.0976 -0.2325
 5947SOL     OW19562   5.056   5.250   5.480  0.3137 -0.3322 -0.1367
 5947SOL    HW119563   5.143   5.281   5.455  0.5932 -0.3683  0.7556
 5947SOL    HW219564   5.072   5.185   5.548 -0.3591 -1.2095 -0.7928
 5948SOL     OW19565   1.854   8.605   5.197  0.2676 -0.4625  0.9077
 5948SOL    HW119566   1.790   8.535   5.213  1.9040 -2.3175 -0.1560
 5948SOL    HW219567   1.883   8.591   5.107  1.0899  1.2592  0.8628
 5949SOL     OW19568   3.592   5.251   4.177  0.4190  0.7232  0.1449
 5949SOL    HW119569   3.539   5.172   4.170  1.1885  0.3089 -2.0408
 5949SOL    HW219570   3.534   5.316   4.216 -1.6092  0.1794 -1.7624
 5950SOL     OW19571   5.488   6.688   3.392  0.1354 -0.0505  0.1294
 5950SOL    HW119572   5.474   6.783   3.382  3.0040  0.4435 -0.0078
 5950SOL    HW219573   5.560   6.668   3.332 -0.3562 -2.3268  0.2242
 5951SOL     OW19574   9.495   0.168   5.262 -0.3426  0.4038  0.1111
 5951SOL    HW119575   9.403   0.146   5.249 -0.2272  0.7555 -1.4564
 5951SOL    HW219576   9.540   0.084   5.264 -0.7504  0.1951  1.5435
 5952SOL     OW19577   0.153   8.642   7.321 -0.2415 -0.0209 -0.0865
 5952SOL    HW119578   0.188   8.644   7.232  0.4309 -2.2907  0.0583
 5952SOL    HW219579   0.212   8.697   7.372 -0.8785  1.6538 -1.0850
 5953SOL     OW19580   4.445   4.730   2.763  0.1985  0.2909  0.1635
 5953SOL    HW119581   4.456   4.767   2.676  1.2530  1.1303  0.6277
 5953SOL    HW219582   4.364   4.680   2.758 -0.5475  1.5536 -0.8859
 5954SOL     OW19583   1.929   8.165   5.358 -0.7994  0.2548  0.4760
 5954SOL    HW119584   1.949   8.258   5.348 -0.2407 -0.0260 -1.2528
 5954SOL    HW219585   2.001   8.131   5.412 -0.3554  0.5876  0.1010
 5955SOL     OW19586   2.348   0.883   2.043 -0.1974 -0.0144 -0.5238
 5955SOL    HW119587   2.330   0.791   2.024  1.1252 -0.6700  1.1527
 5955SOL    HW219588   2.443   0.891   2.032 -0.0962  0.7729  0.7303
 5956SOL     OW19589   5.876   7.248   1.645 -0.2442  0.4430  0.3425
 5956SOL    HW119590   5.839   7.252   1.733  0.6863 -1.8742  0.8857
 5956SOL    HW219591   5.855   7.160   1.614  0.7813  0.6904 -1.1571
 5957SOL     OW19592   6.654   1.423   3.344 -0.1701  0.2700  0.2283
 5957SOL    HW119593   6.707   1.364   3.291  0.5202 -0.1624  1.3679
 5957SOL    HW219594   6.640   1.499   3.288  2.4712  0.8171  0.1666
 5958SOL     OW19595   1.844   9.658   1.142 -0.0486 -0.1950 -0.2438
 5958SOL    HW119596   1.750   9.657   1.161 -0.1557  0.3549 -0.7225
 5958SOL    HW219597   1.885   9.624   1.222 -0.5997  0.3851  0.2922
 5959SOL     OW19598   8.083   2.205   1.425 -0.2951 -0.6846  0.2052
 5959SOL    HW119599   8.058   2.124   1.379 -0.5024 -1.0671  0.9747
 5959SOL    HW219600   8.064   2.187   1.517 -0.2759  0.2227  0.3938
 5960SOL     OW19601   6.702   2.868   0.683  0.3927 -0.3200  0.0903
 5960SOL    HW119602   6.769   2.814   0.725 -0.0925  1.4669  3.5173
 5960SOL    HW219603   6.625   2.856   0.738 -1.1509  0.1855 -1.8841
 5961SOL     OW19604   2.899   9.026   0.588 -0.1132  0.0069  0.4702
 5961SOL    HW119605   2.965   9.002   0.652 -1.9764 -1.0897  2.0969
 5961SOL    HW219606   2.885   8.946   0.537  0.4445  0.5028 -0.4850
 5962SOL     OW19607   8.185   1.108   4.580  0.4287  0.0065  0.2179
 5962SOL    HW119608   8.194   1.098   4.675  1.4036  0.1947  0.1554
 5962SOL    HW219609   8.174   1.202   4.567 -2.2707 -0.2133  0.3095
 5963SOL     OW19610   7.312   1.597   1.507  0.3130 -0.3268 -0.7977
 5963SOL    HW119611   7.229   1.574   1.547  0.1685  1.3535 -0.0374
 5963SOL    HW219612   7.363   1.516   1.510 -0.1064 -0.5991  1.7689
 5964SOL     OW19613   6.879   0.902   3.746 -0.2652 -0.1864 -0.0072
 5964SOL    HW119614   6.915   0.954   3.817 -0.2356 -2.6452  1.9278
 5964SOL    HW219615   6.816   0.843   3.788 -0.3194 -1.6730 -1.9982
 5965SOL     OW19616   5.359   4.660   5.932  0.4839  0.0860 -0.3671
 5965SOL    HW119617   5.348   4.725   5.862 -1.2564  1.6253  1.2286
 5965SOL    HW219618   5.283   4.604   5.925 -0.0046  0.6006  0.5956
 5966SOL     OW19619   7.998   5.744   7.008 -0.0294 -0.3973 -0.5205
 5966SOL    HW119620   7.979   5.789   6.925 -1.2025 -0.9933 -0.5941
 5966SOL    HW219621   7.959   5.800   7.075  1.1508  0.2214 -0.3262
 5967SOL     OW19622   9.541   4.447   0.200  0.4653 -0.1334 -0.0220
 5967SOL    HW119623   9.552   4.495   0.282  3.0155  1.7986 -1.3679
 5967SOL    HW219624   9.485   4.503   0.146  0.2276 -0.5725 -0.2437
 5968SOL     OW19625   9.572   8.313   2.891 -0.0179 -0.3937 -0.2044
 5968SOL    HW119626   9.593   8.391   2.942  1.0426  0.9662 -2.6148
 5968SOL    HW219627   9.504   8.269   2.943  0.2693  1.4083  1.8482
 5969SOL     OW19628   4.839   3.148   5.260 -0.0129  0.4914 -0.8986
 5969SOL    HW119629   4.892   3.114   5.333  1.8196  1.1148 -1.8708
 5969SOL    HW219630   4.816   3.237   5.287  1.6539  1.1517 -1.4998
 5970SOL     OW19631   2.563   3.455   1.328 -0.1338 -0.1296 -0.3276
 5970SOL    HW119632   2.507   3.456   1.405  1.8460 -0.3840  1.2217
 5970SOL    HW219633   2.564   3.363   1.301 -1.4979  0.0928 -1.2279
 5971SOL     OW19634   5.188   6.357   4.187 -0.2665 -0.4220 -0.0933
 5971SOL    HW119635   5.272   6.381   4.147 -0.0584 -0.0612  0.5368
 5971SOL    HW219636   5.181   6.416   4.263 -0.4463 -1.3681  0.6400
 5972SOL     OW19637   2.762   4.696   2.475  0.5488 -0.2341 -0.0382
 5972SOL    HW119638   2.827   4.766   2.481 -0.1500  0.5712 -1.5584
 5972SOL    HW219639   2.785   4.648   2.396  0.1562 -0.8619  0.2186
 5973SOL     OW19640   5.129   5.269   1.016 -0.2991  0.0238  0.3785
 5973SOL    HW119641   5.189   5.342   1.027 -0.3216  0.0723  0.1871
 5973SOL    HW219642   5.094   5.280   0.927  0.1310 -0.5382  0.1342
 5974SOL     OW19643   0.479   5.405   5.697  0.2509 -0.0028  0.4428
 5974SOL    HW119644   0.461   5.471   5.631  0.4610 -0.7766 -0.4094
 5974SOL    HW219645   0.575   5.404   5.704  0.2541 -0.2897  0.3704
 5975SOL     OW19646   9.615   2.325   3.000 -0.1929 -0.6897 -0.3165
 5975SOL    HW119647   9.594   2.411   3.037 -0.3741 -1.1154  0.6021
 5975SOL    HW219648   9.607   2.264   3.074  1.3674 -1.2981 -0.6100
 5976SOL     OW19649   4.471   7.094   4.546 -0.4703  0.6192 -0.2470
 5976SOL    HW119650   4.561   7.061   4.547 -0.4574  0.5102  2.2196
 5976SOL    HW219651   4.468   7.152   4.470  1.1707 -0.6439 -1.3650
 5977SOL     OW19652   3.995   6.150   2.979 -0.2525  0.4091  0.1999
 5977SOL    HW119653   3.901   6.166   2.976 -0.1403  0.9964 -0.8132
 5977SOL    HW219654   4.014   6.136   3.071 -1.5078 -0.8240  0.3085
 5978SOL     OW19655   3.461   4.453   3.733 -0.3229  0.3995  0.7663
 5978SOL    HW119656   3.445   4.394   3.659  0.6303  1.4813 -0.3644
 5978SOL    HW219657   3.474   4.395   3.808  1.5886 -0.9147 -0.4877
 5979SOL     OW19658   3.435   7.732   1.415 -0.2379  0.2755 -0.1481
 5979SOL    HW119659   3.464   7.822   1.404 -0.2481  0.2519 -0.3842
 5979SOL    HW219660   3.361   7.738   1.476  0.5238  0.2832  0.8045
 5980SOL     OW19661   6.409   7.222   6.047  0.0297 -0.2638 -0.1469
 5980SOL    HW119662   6.427   7.308   6.009 -0.5909 -1.1946 -2.7688
 5980SOL    HW219663   6.317   7.227   6.073 -0.0025 -0.1157 -0.2819
 5981SOL     OW19664   2.325   8.452   0.058 -0.1679 -0.5114  0.5633
 5981SOL    HW119665   2.266   8.527   0.060 -0.6462 -0.8625 -0.2598
 5981SOL    HW219666   2.327   8.421   0.149 -0.5938 -0.0073  0.7511
 5982SOL     OW19667   0.960   9.053   1.441 -0.7341 -0.1373 -0.2493
 5982SOL    HW119668   0.922   9.095   1.363 -0.3127 -0.7156 -0.7786
 5982SOL    HW219669   0.994   8.970   1.408 -0.3421 -0.2829  0.5179
 5983SOL     OW19670   4.823   0.916   7.832 -0.2370 -0.4607  0.1890
 5983SOL    HW119671   4.784   0.998   7.806 -0.3760 -1.0272 -1.4761
 5983SOL    HW219672   4.812   0.858   7.757  0.3901 -1.8216  1.0896
 5984SOL     OW19673   3.696   2.330   8.446 -0.7191  0.3114  0.2712
 5984SOL    HW119674   3.721   2.238   8.434 -2.8322 -0.2325 -0.3678
 5984SOL    HW219675   3.695   2.366   8.358 -1.0560  0.6239  0.4015
 5985SOL     OW19676   8.647   3.457   0.742  0.2478  0.1356 -0.0524
 5985SOL    HW119677   8.728   3.463   0.792  0.2478 -1.1142  0.1263
 5985SOL    HW219678   8.579   3.487   0.802  0.7066  2.5724 -0.6625
 5986SOL     OW19679   2.532   9.182   8.839  0.0837 -0.2761 -0.3529
 5986SOL    HW119680   2.539   9.146   8.927  2.7142 -0.3829 -0.5092
 5986SOL    HW219681   2.518   9.275   8.852  1.1197 -0.1831  0.2390
 5987SOL     OW19682   3.238   8.089   4.731  0.6186 -0.3537  0.4589
 5987SOL    HW119683   3.238   8.140   4.650  0.6395  0.1826  0.7890
 5987SOL    HW219684   3.182   8.139   4.791  3.0919  1.0310  1.8381
 5988SOL     OW19685   5.704   3.452   8.650  0.3474 -0.4065  0.1694
 5988SOL    HW119686   5.704   3.411   8.736  2.5502 -0.5951  0.1509
 5988SOL    HW219687   5.797   3.465   8.630 -0.1678  1.2328 -1.4308
 5989SOL     OW19688   6.543   7.283   7.828 -0.0685 -0.8856 -0.5000
 5989SOL    HW119689   6.471   7.238   7.873 -0.8187  1.6224  1.0560
 5989SOL    HW219690   6.499   7.346   7.770  0.7685  0.9566  0.7620
 5990SOL     OW19691   6.878   5.939   9.528  0.3286 -0.3232 -0.0231
 5990SOL    HW119692   6.852   6.020   9.484  0.3525  0.4948  1.4292
 5990SOL    HW219693   6.799   5.884   9.525 -0.6694  0.9201  1.5753
 5991SOL     OW19694   1.838   7.820   5.434 -0.3031 -0.1362  0.6291
 5991SOL    HW119695   1.755   7.810   5.482  0.1195 -0.3733  1.3282
 5991SOL    HW219696   1.884   7.890   5.481 -0.1549  0.0747  0.1690
 5992SOL     OW19697   1.036   1.852   2.593  0.2693 -0.1821  0.2360
 5992SOL    HW119698   1.124   1.885   2.577  0.6257  0.0146  2.3377
 5992SOL    HW219699   1.015   1.801   2.514  1.1469  1.9744 -1.5070
 5993SOL     OW19700   3.956   0.286   4.020 -0.7423  0.1384 -0.2024
 5993SOL    HW119701   3.922   0.199   4.038 -0.0484 -0.3934 -1.3922
 5993SOL    HW219702   3.935   0.336   4.099  0.5972 -1.6063  1.3271
 5994SOL     OW19703   5.433   7.109   2.270 -0.5142 -0.0723 -0.1749
 5994SOL    HW119704   5.511   7.099   2.324 -0.7586 -0.3079  0.1395
 5994SOL    HW219705   5.453   7.183   2.212  0.3092 -0.7200 -0.7463
 5995SOL     OW19706   4.896   0.182   3.075 -0.3365 -0.3418  0.1250
 5995SOL    HW119707   4.869   0.127   3.149 -0.1685 -1.1485 -0.3961
 5995SOL    HW219708   4.991   0.189   3.084 -0.3644 -0.0894  0.2218
 5996SOL     OW19709   2.894   6.092   4.429  0.4047  0.8895  0.0489
 5996SOL    HW119710   2.882   6.168   4.486 -0.1557 -0.1848  1.4207
 5996SOL    HW219711   2.893   6.017   4.488 -1.1526 -0.3610 -1.4481
 5997SOL     OW19712   3.121   2.010   6.859 -0.2669  0.3789 -0.3311
 5997SOL    HW119713   3.035   1.990   6.822  0.1439  1.3058 -1.8469
 5997SOL    HW219714   3.182   2.002   6.785  1.3174 -2.2338  1.0757
 5998SOL     OW19715   6.978   5.336   0.152  0.1455  0.0545 -0.7478
 5998SOL    HW119716   6.989   5.242   0.133 -0.3545  0.4206 -3.1766
 5998SOL    HW219717   6.897   5.340   0.204 -1.1038 -0.7213 -2.5369
 5999SOL     OW19718   2.628   6.195   2.146 -0.3215 -0.7703 -0.1346
 5999SOL    HW119719   2.674   6.120   2.109 -0.7223 -0.5287 -1.1618
 5999SOL    HW219720   2.688   6.269   2.135 -0.2667 -0.7760  0.1104
 6000SOL     OW19721   9.270   1.656   8.792  0.2473  0.0982  0.4727
 6000SOL    HW119722   9.192   1.693   8.752  1.0271 -0.1741 -1.4469
 6000SOL    HW219723   9.238   1.583   8.845 -0.9662  1.3311  1.4839
 6001SOL     OW19724   8.641   4.068   3.679  1.0647 -0.4070  0.0302
 6001SOL    HW119725   8.723   4.108   3.649  0.6971 -2.1574 -3.8117
 6001SOL    HW219726   8.584   4.068   3.602 -2.5386  0.3902  2.4378
 6002SOL     OW19727   6.102   8.971   2.994  0.4231  0.7363  0.0026
 6002SOL    HW119728   6.046   8.964   3.071  0.6679 -0.4534  0.0952
 6002SOL    HW219729   6.041   8.983   2.921  0.1516  1.2362  0.3117
 6003SOL     OW19730   5.854   2.198   6.874 -0.1794 -0.6918 -0.3506
 6003SOL    HW119731   5.785   2.141   6.841 -0.2315 -0.5652 -0.4628
 6003SOL    HW219732   5.809   2.263   6.929 -0.0920 -0.9023 -0.0313
 6004SOL     OW19733   0.948   3.404   3.985  0.3377  0.4207 -0.6461
 6004SOL    HW119734   0.921   3.495   4.000  3.0286  1.1167  0.5877
 6004SOL    HW219735   0.953   3.365   4.072  1.9241 -0.0269 -0.9135
 6005SOL     OW19736   3.988   3.561   2.155  0.2620 -1.1984 -0.9545
 6005SOL    HW119737   3.934   3.497   2.109 -2.2443  0.3122 -0.3545
 6005SOL    HW219738   4.000   3.632   2.091 -1.0984 -0.2044 -0.1575
 6006SOL     OW19739   0.111   9.044   3.330  0.0290  0.1414  0.5605
 6006SOL    HW119740   0.031   9.010   3.291  1.0911  0.1814 -1.8818
 6006SOL    HW219741   0.085   9.125   3.374 -1.5228 -0.7347  1.3074
 6007SOL     OW19742   3.636   8.537   0.359 -0.6520 -0.1796  0.3609
 6007SOL    HW119743   3.566   8.600   0.371 -1.0500 -0.9113  2.3220
 6007SOL    HW219744   3.667   8.550   0.269 -2.7954  0.6437 -0.2949
 6008SOL     OW19745   2.093   9.595   4.476 -0.3276 -0.3000 -0.3817
 6008SOL    HW119746   2.163   9.534   4.454  0.9048  0.6591  0.7166
 6008SOL    HW219747   2.134   9.681   4.474 -2.0192  0.5368 -1.8586
 6009SOL     OW19748   3.639   8.252   6.214  0.3821 -0.0270  0.1390
 6009SOL    HW119749   3.659   8.268   6.121  1.1645  1.2831  0.5164
 6009SOL    HW219750   3.658   8.334   6.257 -0.6322 -0.4129  1.3891
 6010SOL     OW19751   0.792   1.921   9.383 -0.0844 -0.0428 -0.1348
 6010SOL    HW119752   0.773   1.888   9.471  0.5418  0.0782  0.0499
 6010SOL    HW219753   0.727   1.989   9.369 -0.4760 -0.3744  0.0530
 6011SOL     OW19754   3.815   3.617   6.522 -0.8082 -0.1191  0.0529
 6011SOL    HW119755   3.845   3.562   6.450 -1.7497 -1.5500  0.6978
 6011SOL    HW219756   3.752   3.676   6.483 -0.8147 -0.4339 -0.4226
 6012SOL     OW19757   3.695   4.164   7.706  0.1763 -0.6866  0.4205
 6012SOL    HW119758   3.622   4.160   7.767  0.2220 -2.2227  0.4190
 6012SOL    HW219759   3.772   4.181   7.762 -0.0639  0.1708  0.5061
 6013SOL     OW19760   8.636   2.672   5.882  0.4469  0.1995 -0.8445
 6013SOL    HW119761   8.627   2.635   5.970 -0.5569  1.8321 -0.2113
 6013SOL    HW219762   8.693   2.610   5.835  2.8486  0.3774  1.5905
 6014SOL     OW19763   8.774   8.363   7.141 -0.4482 -0.3328  0.5233
 6014SOL    HW119764   8.768   8.282   7.090  0.4217 -0.6268  0.8698
 6014SOL    HW219765   8.763   8.433   7.076  2.1559 -0.6662 -0.3884
 6015SOL     OW19766   0.099   5.362   8.906 -0.4606  0.6647  0.0172
 6015SOL    HW119767   0.080   5.336   8.816  0.3361 -1.3425  0.3823
 6015SOL    HW219768   0.077   5.455   8.909 -2.5544  0.3052 -1.6605
 6016SOL     OW19769   4.249   8.462   5.188 -0.0814  0.0677  0.4540
 6016SOL    HW119770   4.261   8.539   5.134 -0.3219 -0.1665  0.0636
 6016SOL    HW219771   4.266   8.388   5.130 -1.7583 -0.2289  0.2897
 6017SOL     OW19772   7.393   3.589   4.058 -0.5513  0.0157  0.2587
 6017SOL    HW119773   7.471   3.596   4.113  0.1057 -1.6725 -0.3710
 6017SOL    HW219774   7.327   3.642   4.103  1.1664  2.2129  0.3415
 6018SOL     OW19775   5.802   3.717   5.491 -0.1036 -0.4491 -0.2584
 6018SOL    HW119776   5.837   3.805   5.504 -1.7341 -0.0737  2.3004
 6018SOL    HW219777   5.811   3.701   5.397  2.5345  1.4005 -0.4284
 6019SOL     OW19778   2.512   8.964   8.675 -0.6724 -0.0552 -0.4146
 6019SOL    HW119779   2.512   9.044   8.727 -1.1486 -0.4267  0.1768
 6019SOL    HW219780   2.594   8.921   8.697 -0.6026  0.0736 -0.4234
 6020SOL     OW19781   9.476   7.193   8.445  0.2605 -0.1876  0.5278
 6020SOL    HW119782   9.415   7.262   8.418 -0.9308 -1.1009  0.7761
 6020SOL    HW219783   9.538   7.236   8.503 -0.6242  0.6194  0.8849
 6021SOL     OW19784   7.310   1.169   8.981 -0.1018  1.1048 -0.0443
 6021SOL    HW119785   7.353   1.247   8.948  1.1078 -0.1204 -1.5469
 6021SOL    HW219786   7.224   1.199   9.011  0.5797  3.0792  0.0339
 6022SOL     OW19787   3.444   4.663   1.870 -0.0676 -0.2727 -0.4936
 6022SOL    HW119788   3.520   4.614   1.901 -1.2209 -1.4931  0.5216
 6022SOL    HW219789   3.412   4.613   1.794 -0.4646 -0.3475 -0.2795
 6023SOL     OW19790   9.517   0.240   8.877  0.1098 -0.7714 -0.2928
 6023SOL    HW119791   9.576   0.185   8.929  1.4704 -1.0947 -2.1027
 6023SOL    HW219792   9.435   0.241   8.927  1.7601  0.2066  2.6447
 6024SOL     OW19793   7.863   5.122   4.129 -0.6877 -0.0683 -0.0114
 6024SOL    HW119794   7.940   5.141   4.183 -0.5111  0.2689 -0.3739
 6024SOL    HW219795   7.819   5.049   4.173 -0.9783  0.7103  1.0297
 6025SOL     OW19796   5.710   9.221   6.494 -0.0293  0.1003 -0.9695
 6025SOL    HW119797   5.788   9.256   6.451  0.3983 -0.6850 -0.8597
 6025SOL    HW219798   5.670   9.297   6.537  1.7474  0.2209  0.5956
 6026SOL     OW19799   0.937   0.542   3.018  0.1875  0.5651 -0.1152
 6026SOL    HW119800   0.977   0.576   2.938  0.0661  0.5588 -0.1789
 6026SOL    HW219801   0.997   0.568   3.088  0.2836  0.5879 -0.2057
 6027SOL     OW19802   7.319   5.470   2.587  0.3749 -0.0787  0.1864
 6027SOL    HW119803   7.366   5.463   2.504  0.7556 -2.9586  0.5403
 6027SOL    HW219804   7.271   5.553   2.581  2.7448  1.2870 -1.6193
 6028SOL     OW19805   5.058   6.122   3.537  0.0023 -0.0483  0.1368
 6028SOL    HW119806   5.080   6.190   3.474  0.1608  0.8603  1.1370
 6028SOL    HW219807   4.973   6.088   3.507 -0.2480  0.8359 -0.1833
 6029SOL     OW19808   1.342   9.505   2.177  0.2716 -0.2028 -0.1211
 6029SOL    HW119809   1.285   9.511   2.101 -1.1456  0.5183  0.9491
 6029SOL    HW219810   1.363   9.596   2.199  0.7900 -0.4049  0.2526
 6030SOL     OW19811   0.282   5.775   6.426  0.3116  0.1391  0.4656
 6030SOL    HW119812   0.326   5.854   6.396  0.9442 -0.0986  0.7413
 6030SOL    HW219813   0.206   5.807   6.475  0.1934  0.5550  0.0180
 6031SOL     OW19814   4.369   4.591   6.253 -0.7395  0.0430 -0.2530
 6031SOL    HW119815   4.365   4.498   6.228 -0.4729 -0.0542  0.0471
 6031SOL    HW219816   4.283   4.609   6.291 -0.6989 -0.1604 -0.0589
 6032SOL     OW19817   5.816   8.426   5.486 -0.1236  0.1068  0.4146
 6032SOL    HW119818   5.809   8.519   5.504 -2.3574 -0.0176  0.4781
 6032SOL    HW219819   5.870   8.391   5.557 -0.1021  1.1918  0.9467
 6033SOL     OW19820   7.475   4.917   4.397  0.8220 -0.3982 -0.1504
 6033SOL    HW119821   7.430   5.001   4.391  0.4103 -0.7134 -2.0972
 6033SOL    HW219822   7.439   4.875   4.475 -1.8289 -0.3432 -1.2255
 6034SOL     OW19823   2.761   6.822   5.677 -0.4730 -0.2690  0.5781
 6034SOL    HW119824   2.669   6.810   5.654 -0.6692  1.4456  0.3402
 6034SOL    HW219825   2.804   6.845   5.595  0.0325 -0.4002  0.8040
 6035SOL     OW19826   7.314   2.077   2.325 -0.7667 -0.2684 -0.3400
 6035SOL    HW119827   7.334   2.085   2.418  1.4351 -1.7802 -0.5880
 6035SOL    HW219828   7.382   2.130   2.282 -2.0499  0.8175 -1.1259
 6036SOL     OW19829   5.173   6.286   3.361  0.7146  0.8227 -0.0215
 6036SOL    HW119830   5.223   6.361   3.329  0.3286  0.7564 -0.7771
 6036SOL    HW219831   5.168   6.226   3.286  0.7862  0.1548  0.4918
 6037SOL     OW19832   0.333   5.543   1.260 -0.0618  0.1802  0.2621
 6037SOL    HW119833   0.359   5.512   1.173  0.4554  1.0948  0.0733
 6037SOL    HW219834   0.238   5.552   1.254 -0.1171 -0.4895  0.0404
 6038SOL     OW19835   2.587   5.288   2.179  0.1783 -0.4301 -0.0638
 6038SOL    HW119836   2.645   5.260   2.108  1.7015  0.3770  0.8111
 6038SOL    HW219837   2.521   5.342   2.136  0.6633 -0.5345 -0.9595
 6039SOL     OW19838   2.383   1.332   3.954 -0.6099  0.1121  0.2462
 6039SOL    HW119839   2.320   1.295   3.892  2.7072 -4.6739 -0.8573
 6039SOL    HW219840   2.446   1.378   3.899  0.4716 -1.1402  0.3894
 6040SOL     OW19841   8.599   6.899   1.520  0.4833 -0.0404  0.2081
 6040SOL    HW119842   8.605   6.857   1.434 -0.0280 -0.9238  0.5884
 6040SOL    HW219843   8.690   6.912   1.547  0.6648 -1.0708  0.1432
 6041SOL     OW19844   6.457   4.376   2.211  0.1621 -0.2055 -0.8168
 6041SOL    HW119845   6.435   4.469   2.206 -0.0545 -0.1086  1.1586
 6041SOL    HW219846   6.392   4.333   2.156 -1.4674  0.5900  0.4135
 6042SOL     OW19847   0.030   6.410   3.937 -0.3736 -0.5420 -0.1345
 6042SOL    HW119848  -0.065   6.422   3.936 -0.1836  1.3389  0.3742
 6042SOL    HW219849   0.064   6.494   3.968  1.3718 -1.8908  1.7935
 6043SOL     OW19850   6.782   1.663   7.899 -0.1864  0.7423  0.4039
 6043SOL    HW119851   6.845   1.630   7.963 -3.3552 -2.1500  2.3271
 6043SOL    HW219852   6.758   1.750   7.932  2.0032  1.5078  0.1285
 6044SOL     OW19853   8.210   9.242   9.247 -0.0780 -0.3932  0.1579
 6044SOL    HW119854   8.167   9.219   9.165  1.3629  1.1575 -1.1017
 6044SOL    HW219855   8.139   9.267   9.306 -1.0860 -0.9015 -0.8174
 6045SOL     OW19856   8.085   0.181   8.986  0.3758 -0.5451 -0.4915
 6045SOL    HW119857   8.071   0.263   8.939 -0.3647 -0.2826  0.1664
 6045SOL    HW219858   8.177   0.160   8.970  0.9222  1.0563  0.3349
 6046SOL     OW19859   7.934   6.195   1.087 -0.0393  0.2797  0.0462
 6046SOL    HW119860   7.851   6.218   1.044 -0.0770 -0.3140 -0.2026
 6046SOL    HW219861   7.916   6.203   1.180 -0.8774 -1.4760  0.0682
 6047SOL     OW19862   8.290   5.205   8.673 -0.7175 -0.4091  0.2707
 6047SOL    HW119863   8.368   5.252   8.703 -2.6926  1.6453  2.6843
 6047SOL    HW219864   8.264   5.250   8.593 -1.7824  1.8840  1.8014
 6048SOL     OW19865   5.173   5.344   4.542  0.6985 -0.2831 -0.2105
 6048SOL    HW119866   5.097   5.286   4.531  0.7292 -0.3143 -0.2602
 6048SOL    HW219867   5.243   5.300   4.494  0.4318  0.3629 -1.2309
 6049SOL     OW19868   0.109   4.137   8.502 -0.4471  0.0962 -0.5784
 6049SOL    HW119869   0.205   4.136   8.502 -0.4179  0.0574 -2.3830
 6049SOL    HW219870   0.086   4.201   8.570  0.8705  0.4735 -0.4581
 6050SOL     OW19871   6.535   9.655   6.110 -0.0913 -0.0101 -0.1457
 6050SOL    HW119872   6.575   9.569   6.120  1.0366  0.5134  0.0402
 6050SOL    HW219873   6.589   9.713   6.164 -0.8518  0.8111 -0.2341
 6051SOL     OW19874   9.249   6.095   7.871  0.2149 -0.3098  0.1156
 6051SOL    HW119875   9.290   6.011   7.892  0.6109  0.0093  0.6529
 6051SOL    HW219876   9.259   6.104   7.777  4.0037  1.0763  0.4837
 6052SOL     OW19877   6.400   2.713   3.878  0.0096  0.2841 -0.4694
 6052SOL    HW119878   6.332   2.653   3.848 -0.6989  0.8497 -0.0171
 6052SOL    HW219879   6.435   2.752   3.797 -0.5300  0.3383 -0.6824
 6053SOL     OW19880   3.123   0.888   9.210  0.3269 -0.3259  0.8993
 6053SOL    HW119881   3.182   0.951   9.252  2.0011 -2.1178  1.3392
 6053SOL    HW219882   3.084   0.840   9.283  3.4143 -3.6069  0.6385
 6054SOL     OW19883   4.279   6.960   8.132  0.3614  0.2167  0.4129
 6054SOL    HW119884   4.204   6.984   8.077 -0.0800  2.5650  1.8798
 6054SOL    HW219885   4.241   6.903   8.199  0.0582  0.6570  0.6218
 6055SOL     OW19886   2.611   3.194   2.978 -0.2877 -0.6860 -0.0986
 6055SOL    HW119887   2.685   3.136   2.998  0.6332  0.4515 -0.0736
 6055SOL    HW219888   2.628   3.272   3.030  1.7912  2.0901 -4.4291
 6056SOL     OW19889   2.663   0.005   2.107  0.1060 -0.2948 -0.5128
 6056SOL    HW119890   2.687  -0.017   2.017  0.3286  0.3648 -0.6159
 6056SOL    HW219891   2.629   0.094   2.102 -0.5377 -0.5055 -0.0505
 6057SOL     OW19892   5.663   0.759   3.234  0.2609 -0.2607 -0.0487
 6057SOL    HW119893   5.572   0.729   3.236 -0.2426  0.9857  3.9018
 6057SOL    HW219894   5.713   0.685   3.268  0.8258 -0.9201 -2.1547
 6058SOL     OW19895   0.026   4.982   5.454  0.1505 -0.3080 -0.4751
 6058SOL    HW119896  -0.038   4.921   5.491  0.5496 -1.3490 -1.4226
 6058SOL    HW219897   0.036   4.954   5.363 -0.3947  1.8181 -1.2539
 6059SOL     OW19898   2.360   7.722   7.745 -0.0661  0.7932  0.0848
 6059SOL    HW119899   2.427   7.681   7.691  0.0494  0.6824  0.3088
 6059SOL    HW219900   2.405   7.797   7.786  0.0439  0.4624  0.5748
 6060SOL     OW19901   9.500   6.075   2.581 -0.3006  0.0868 -0.1117
 6060SOL    HW119902   9.441   6.149   2.566  1.4877  1.2764 -1.6721
 6060SOL    HW219903   9.573   6.089   2.521  1.2664 -1.7105  1.2395
 6061SOL     OW19904   4.398   6.331   7.290  0.4908 -0.1146 -0.5729
 6061SOL    HW119905   4.423   6.332   7.197 -0.0162 -1.3440 -0.7371
 6061SOL    HW219906   4.478   6.305   7.335  0.2638 -1.3620 -0.8524
 6062SOL     OW19907   0.366   9.026   6.795 -0.5263  0.1556  0.1240
 6062SOL    HW119908   0.431   9.059   6.857 -0.8763  0.1966  0.4712
 6062SOL    HW219909   0.361   8.932   6.812  0.2236 -0.0393 -0.6374
 6063SOL     OW19910   0.838   8.434   5.562 -0.3226 -0.2784  0.5847
 6063SOL    HW119911   0.799   8.346   5.562 -0.3523 -0.2902 -0.5977
 6063SOL    HW219912   0.848   8.456   5.654  1.6619 -2.3836  0.9648
 6064SOL     OW19913   5.955   9.645   2.174 -0.2358 -0.0067  0.3164
 6064SOL    HW119914   6.011   9.587   2.123  0.7910  2.1697 -1.2155
 6064SOL    HW219915   6.009   9.723   2.189 -1.0278  0.0766  3.4995
 6065SOL     OW19916   8.115   0.190   7.226  0.3177 -0.2797  0.0561
 6065SOL    HW119917   8.176   0.127   7.187  0.0789  0.4479 -1.5873
 6065SOL    HW219918   8.042   0.194   7.164  0.1079  1.2634  0.3576
 6066SOL     OW19919   8.568   5.413   6.740 -0.0624  0.2769  0.2181
 6066SOL    HW119920   8.621   5.468   6.681  0.8262  2.2319  2.6421
 6066SOL    HW219921   8.478   5.434   6.717  0.2357  0.4103 -0.9194
 6067SOL     OW19922   6.228   6.519   3.645 -0.4000  0.0025 -0.5561
 6067SOL    HW119923   6.288   6.457   3.685  0.0347  0.5704 -0.3148
 6067SOL    HW219924   6.160   6.464   3.605  1.0122 -0.7214 -2.0800
 6068SOL     OW19925   1.689   1.937   4.131  0.2150 -0.4623  0.3323
 6068SOL    HW119926   1.636   1.858   4.119  0.1404 -0.3481 -0.0826
 6068SOL    HW219927   1.738   1.921   4.212  0.2324 -0.9519  0.2256
 6069SOL     OW19928   5.044   1.639   2.102 -0.5416  0.2645  0.5783
 6069SOL    HW119929   5.074   1.630   2.193 -0.6053  1.7491  0.7726
 6069SOL    HW219930   5.029   1.733   2.091  0.7706  0.2954 -1.4042
 6070SOL     OW19931   5.696   5.731   9.467 -0.7120  0.1156 -0.6264
 6070SOL    HW119932   5.631   5.662   9.451 -0.7879  0.2216 -0.7863
 6070SOL    HW219933   5.648   5.812   9.449 -0.4362  0.1789 -1.0907
 6071SOL     OW19934   2.906   0.161   3.110  0.0550  0.2225 -0.3169
 6071SOL    HW119935   2.918   0.077   3.065  0.9149 -0.2060  0.6617
 6071SOL    HW219936   2.995   0.195   3.122 -0.2832  1.3217 -0.7657
 6072SOL     OW19937   8.869   3.504   5.741  0.1269  0.1910 -0.3115
 6072SOL    HW119938   8.786   3.517   5.787 -0.5261  1.6811 -1.8117
 6072SOL    HW219939   8.860   3.419   5.699 -0.5679  0.2547 -0.2955
 6073SOL     OW19940   9.309   4.121   7.587 -0.1756  0.3387  0.3422
 6073SOL    HW119941   9.345   4.200   7.548  0.3934  1.3364  2.7702
 6073SOL    HW219942   9.384   4.074   7.622 -0.7793  0.2045  1.5047
 6074SOL     OW19943   2.672   5.523   8.989 -0.1773  0.2821 -0.5050
 6074SOL    HW119944   2.666   5.431   9.015 -1.8324  0.9874  1.9871
 6074SOL    HW219945   2.581   5.555   8.992  0.4284  2.1603 -0.6973
 6075SOL     OW19946   7.442   1.937   8.458  0.0008 -0.0176  0.2632
 6075SOL    HW119947   7.375   1.936   8.526 -1.6008  0.5644 -1.2362
 6075SOL    HW219948   7.397   1.910   8.378  1.4136  0.8552 -0.8983
 6076SOL     OW19949   1.442   3.994   0.480 -0.0701  0.3150 -0.0560
 6076SOL    HW119950   1.501   4.048   0.427  2.6455 -0.7323  1.6727
 6076SOL    HW219951   1.499   3.955   0.546 -2.7019 -1.1492  1.4987
 6077SOL     OW19952   9.421   7.013   0.014 -0.3095  0.0507 -0.0585
 6077SOL    HW119953   9.370   6.980  -0.059  0.7579 -0.0920 -0.7729
 6077SOL    HW219954   9.505   7.037  -0.025  0.0554  0.5786  1.0137
 6078SOL     OW19955   3.201   5.989   2.292  0.4843  0.5380  0.3255
 6078SOL    HW119956   3.192   5.897   2.318  0.0036  0.2462 -0.8238
 6078SOL    HW219957   3.296   6.004   2.291  0.7198 -0.7004 -1.9188
 6079SOL     OW19958   5.104   0.163   0.826  0.7599 -0.4867  0.1891
 6079SOL    HW119959   5.044   0.207   0.886  2.1486  0.0138  1.2749
 6079SOL    HW219960   5.047   0.117   0.765 -0.7626  1.9860 -0.3886
 6080SOL     OW19961   9.526   7.279   1.902 -0.1585  0.0373 -0.4223
 6080SOL    HW119962   9.473   7.280   1.823 -0.6477  1.9167 -0.1178
 6080SOL    HW219963   9.510   7.194   1.941 -0.7247 -0.5064 -1.7927
 6081SOL     OW19964   4.792   4.171   9.365  0.0018 -0.2276  0.3711
 6081SOL    HW119965   4.757   4.138   9.282 -0.6694  2.3281 -0.4389
 6081SOL    HW219966   4.859   4.235   9.339 -0.3948  0.8058  1.7817
 6082SOL     OW19967   3.798   8.400   4.756  0.7587 -0.1207 -0.3310
 6082SOL    HW119968   3.755   8.455   4.821  0.5124  0.6028 -1.0947
 6082SOL    HW219969   3.887   8.434   4.750  0.8772 -0.3957 -0.1351
 6083SOL     OW19970   6.496   9.079   1.405  0.1817  0.3041 -0.4206
 6083SOL    HW119971   6.535   8.998   1.440  0.6974  0.3036 -0.9710
 6083SOL    HW219972   6.565   9.145   1.416  0.0852  0.4654 -0.7752
 6084SOL     OW19973   5.495   6.556   8.129  0.0024 -0.1011 -0.4302
 6084SOL    HW119974   5.447   6.631   8.094 -1.4918 -0.5562  0.5736
 6084SOL    HW219975   5.487   6.565   8.224  0.9897 -0.7942 -0.2671
 6085SOL     OW19976   1.793   3.013   5.255 -0.3162  0.0021  0.4509
 6085SOL    HW119977   1.704   3.017   5.219  0.5231  0.2691 -1.7015
 6085SOL    HW219978   1.849   2.992   5.181  1.5182  0.4549  1.6274
 6086SOL     OW19979   5.910   8.288   6.005 -0.4945  0.4625  0.5157
 6086SOL    HW119980   5.981   8.226   6.023  0.2985  0.9015 -0.9868
 6086SOL    HW219981   5.871   8.304   6.091  0.5072 -0.6441  1.2131
 6087SOL     OW19982   5.057   9.298   4.796 -0.1713  0.2121 -0.0964
 6087SOL    HW119983   5.127   9.244   4.835 -0.6422  0.6704  1.4502
 6087SOL    HW219984   5.041   9.257   4.711  1.9218  0.0500 -0.4858
 6088SOL     OW19985   4.092   1.273   2.524  0.3300  0.5487  0.2039
 6088SOL    HW119986   4.107   1.179   2.519 -0.3014  0.4634 -0.0968
 6088SOL    HW219987   4.161   1.305   2.582  0.4449 -0.1181  0.4385
 6089SOL     OW19988   5.964   8.369   9.263  0.0515  0.1944 -0.3570
 6089SOL    HW119989   5.953   8.359   9.357 -1.0344  0.5478 -0.4292
 6089SOL    HW219990   5.901   8.437   9.239  1.0037  0.7999 -1.1927
 6090SOL     OW19991   0.741   8.768   4.745  0.2518 -0.2127  0.4868
 6090SOL    HW119992   0.807   8.701   4.758  0.6226  0.0577  0.0418
 6090SOL    HW219993   0.695   8.741   4.665 -1.3752 -1.3578  1.7437
 6091SOL     OW19994   8.283   9.075   0.530 -0.0534 -0.1823 -0.4097
 6091SOL    HW119995   8.205   9.128   0.516  0.4735  0.8949  0.5791
 6091SOL    HW219996   8.329   9.117   0.603  1.0886 -1.2015 -0.4957
 6092SOL     OW19997   0.743   8.158   9.352 -0.3250 -0.2008 -0.1331
 6092SOL    HW119998   0.800   8.233   9.333 -0.5299 -0.2627 -1.0653
 6092SOL    HW219999   0.703   8.137   9.267 -1.6939 -0.1860  0.4781
 6093SOL     OW20000   4.115   6.560   6.592  0.3916 -0.7092 -0.5385
 6093SOL    HW120001   4.170   6.534   6.518 -0.8996  0.0350 -1.7893
 6093SOL    HW220002   4.062   6.632   6.559 -1.1810 -1.2463  0.7044
 6094SOL     OW20003   6.473   3.984   9.672  0.3043 -0.3124 -0.1754
 6094SOL    HW120004   6.506   4.033   9.598  1.8323 -1.2901 -0.1856
 6094SOL    HW220005   6.414   3.919   9.634 -1.9251  1.5680 -0.1386
 6095SOL     OW20006   1.976   5.856   4.465  0.7096 -0.2746  0.0609
 6095SOL    HW120007   1.983   5.946   4.433  1.8126 -0.7045 -0.9986
 6095SOL    HW220008   2.017   5.857   4.551  1.9381 -0.0076 -0.5018
 6096SOL     OW20009   4.898   0.433   2.481 -0.3821 -0.2886 -0.2573
 6096SOL    HW120010   4.951   0.354   2.494 -0.3100 -0.0886  0.7441
 6096SOL    HW220011   4.928   0.493   2.549 -2.2813 -0.3616  0.6971
 6097SOL     OW20012   4.073   3.760   1.963 -0.0630 -0.0028 -0.3653
 6097SOL    HW120013   4.161   3.783   1.931  0.6239 -1.0130  0.7119
 6097SOL    HW220014   4.017   3.769   1.887  0.1242  4.7753 -0.2640
 6098SOL     OW20015   3.159   1.917   9.707  0.5885  0.1383 -0.2640
 6098SOL    HW120016   3.233   1.971   9.677 -0.5640  1.8964 -0.0805
 6098SOL    HW220017   3.180   1.896   9.798  0.9064  0.5653 -0.2351
 6099SOL     OW20018   9.102   2.043   9.582 -0.3462  0.0121 -0.5512
 6099SOL    HW120019   9.179   1.996   9.616 -0.8275 -0.2167  0.2509
 6099SOL    HW220020   9.070   2.093   9.657 -2.7456 -2.2075  0.0536
 6100SOL     OW20021   5.241   7.832   3.693  0.9944 -0.4045  0.4059
 6100SOL    HW120022   5.300   7.803   3.763  0.4962  0.4244  1.1968
 6100SOL    HW220023   5.247   7.928   3.695  0.4060 -0.3483 -0.1914
 6101SOL     OW20024   4.239   4.411   4.818  0.1826 -0.3915  0.3483
 6101SOL    HW120025   4.245   4.460   4.736 -1.0156 -0.7784  0.0033
 6101SOL    HW220026   4.303   4.340   4.809  0.8077  0.1808  0.2035
 6102SOL     OW20027   6.797   6.567   4.044  0.0723 -0.5221 -0.3160
 6102SOL    HW120028   6.762   6.536   3.960  0.5281 -0.1201 -0.6544
 6102SOL    HW220029   6.741   6.641   4.067 -0.3083 -0.8813 -0.0584
 6103SOL     OW20030   1.931   2.561   0.169 -0.5042  0.1433 -0.1123
 6103SOL    HW120031   1.949   2.632   0.231  0.4563 -0.8181  0.7462
 6103SOL    HW220032   1.984   2.582   0.092  1.6683 -0.8129  1.0415
 6104SOL     OW20033   7.863   5.461   5.216 -0.4629 -0.5452 -0.3788
 6104SOL    HW120034   7.827   5.484   5.130 -1.3344  0.6920  0.2701
 6104SOL    HW220035   7.794   5.487   5.278  0.3352 -0.9812  0.7215
 6105SOL     OW20036   5.275   3.480   9.595  0.4295 -0.2280  0.0288
 6105SOL    HW120037   5.289   3.526   9.513 -0.3759 -1.3592 -0.7648
 6105SOL    HW220038   5.312   3.393   9.581  0.9450 -0.2132  1.1299
 6106SOL     OW20039   4.488   3.790   0.445  0.0599 -0.0104  0.7298
 6106SOL    HW120040   4.417   3.792   0.381  0.1454  1.1608  0.6635
 6106SOL    HW220041   4.468   3.714   0.500 -0.1536 -0.8872 -0.5052
 6107SOL     OW20042   5.693   0.082   0.540 -0.3631 -0.7830 -0.2406
 6107SOL    HW120043   5.749   0.004   0.543  0.5785 -0.1159  0.2690
 6107SOL    HW220044   5.705   0.122   0.626 -0.6243  0.0677 -0.5930
 6108SOL     OW20045   8.869   2.809   2.922  0.5242  0.5375  0.0846
 6108SOL    HW120046   8.914   2.878   2.872  3.2014 -0.6640  0.6870
 6108SOL    HW220047   8.878   2.731   2.868 -3.9766  0.7628 -1.4213
 6109SOL     OW20048   5.845   8.354   6.454  0.4956  0.2252  0.0632
 6109SOL    HW120049   5.777   8.322   6.513 -2.3298  5.0436  0.0107
 6109SOL    HW220050   5.915   8.383   6.512  0.8038 -1.1911  0.4348
 6110SOL     OW20051   4.952   7.106   5.842 -0.2073  0.0533 -0.1792
 6110SOL    HW120052   5.022   7.154   5.797  0.4686  1.8411  2.5190
 6110SOL    HW220053   4.984   7.016   5.847  1.3165  0.5550 -0.2278
 6111SOL     OW20054   7.965   5.713   8.424  0.1121 -0.3320  0.0220
 6111SOL    HW120055   7.956   5.634   8.478  2.3756  0.0437  1.0208
 6111SOL    HW220056   7.896   5.771   8.456  0.3062 -0.7875  1.3214
 6112SOL     OW20057   8.481   3.530   0.946  0.1372  0.5899  0.0159
 6112SOL    HW120058   8.476   3.625   0.945 -1.7196  0.5232 -1.0020
 6112SOL    HW220059   8.433   3.505   1.025 -0.0506  0.4800 -0.1327
 6113SOL     OW20060   1.251   0.133   8.051  0.6033  0.0458 -0.1053
 6113SOL    HW120061   1.160   0.116   8.075  0.7200  0.6351  0.8059
 6113SOL    HW220062   1.292   0.165   8.131  0.9051  2.5457 -1.1456
 6114SOL     OW20063   1.120   6.497   3.092  0.0666  0.1331 -0.0911
 6114SOL    HW120064   1.088   6.579   3.054 -0.9351 -0.6673 -1.0784
 6114SOL    HW220065   1.069   6.486   3.173  0.8101  0.8853  0.4894
 6115SOL     OW20066   0.444   3.446   7.619 -0.5838  0.2355 -0.0479
 6115SOL    HW120067   0.402   3.418   7.701  0.3436  1.0963  0.7365
 6115SOL    HW220068   0.447   3.541   7.625  1.9588  0.1983  0.1848
 6116SOL     OW20069   6.852   4.741   1.495 -0.4158 -0.3268 -0.6043
 6116SOL    HW120070   6.928   4.798   1.491  1.5006 -2.6715  0.1731
 6116SOL    HW220071   6.836   4.715   1.404  0.6257 -0.9215 -0.6265
 6117SOL     OW20072   7.796   6.843   4.180  0.6598  0.3570  0.5529
 6117SOL    HW120073   7.800   6.931   4.141  0.6333  0.2739  0.3630
 6117SOL    HW220074   7.749   6.856   4.263 -0.1382  0.3727  0.1047
 6118SOL     OW20075   8.917   8.130   6.824 -0.2756  0.3036 -0.1286
 6118SOL    HW120076   8.926   8.144   6.730 -0.5181  0.9198 -0.0634
 6118SOL    HW220077   8.826   8.152   6.843  0.5804  3.6325  0.8092
 6119SOL     OW20078   8.281   4.559   8.638  0.2465 -0.0369  0.3549
 6119SOL    HW120079   8.276   4.515   8.723  0.8531 -1.3331 -0.2381
 6119SOL    HW220080   8.358   4.520   8.597  0.5082  1.2617 -0.4180
 6120SOL     OW20081   5.321   7.977   6.592 -0.9086 -0.3671 -0.3772
 6120SOL    HW120082   5.392   7.925   6.630 -0.8256  0.1172  0.1401
 6120SOL    HW220083   5.352   8.068   6.600  0.9550 -0.2907 -5.0792
 6121SOL     OW20084   2.762   9.115   5.585  0.3035 -0.7752 -0.0542
 6121SOL    HW120085   2.670   9.118   5.612  0.1343 -2.1224 -0.4116
 6121SOL    HW220086   2.787   9.207   5.577 -0.8525 -0.3786  0.5742
 6122SOL     OW20087   0.438   5.113   1.257 -0.2710 -0.2330  0.7030
 6122SOL    HW120088   0.403   5.193   1.297 -0.7367 -0.5486  0.9311
 6122SOL    HW220089   0.477   5.143   1.175 -1.0295  0.1312  0.4694
 6123SOL     OW20090   2.694   8.385   5.493  0.0388  0.1753  0.2266
 6123SOL    HW120091   2.765   8.448   5.506  0.2200  0.1587 -0.6124
 6123SOL    HW220092   2.655   8.374   5.579  1.0300  0.2193  0.6906
 6124SOL     OW20093   2.544   0.507   5.600 -0.4634  0.2358 -0.3776
 6124SOL    HW120094   2.629   0.464   5.586 -0.4836 -0.2589  0.9221
 6124SOL    HW220095   2.479   0.439   5.580 -0.5263  0.1903 -0.0224
 6125SOL     OW20096   7.319   7.451   8.268  0.2186 -0.1285  0.2705
 6125SOL    HW120097   7.337   7.441   8.362  1.6250  0.8189  0.1324
 6125SOL    HW220098   7.389   7.509   8.236  0.0803 -0.8595 -1.4700
 6126SOL     OW20099   6.847   2.224   4.967  0.3010  0.2851 -0.9239
 6126SOL    HW120100   6.813   2.134   4.973  0.9168  0.0085 -1.4049
 6126SOL    HW220101   6.942   2.212   4.965  0.5188  1.0937  1.5973
 6127SOL     OW20102   5.416   7.014   4.205 -0.2023 -0.2912  0.2896
 6127SOL    HW120103   5.443   7.104   4.226 -0.0606 -0.2278 -0.1476
 6127SOL    HW220104   5.370   6.984   4.284 -2.1099  0.9101 -0.2917
 6128SOL     OW20105   7.257   5.992   4.290 -0.3996 -0.2859  0.0989
 6128SOL    HW120106   7.289   5.917   4.340 -0.9373 -0.6484 -0.0934
 6128SOL    HW220107   7.162   5.986   4.295 -0.4513  0.1600 -0.2505
 6129SOL     OW20108   9.003   3.554   2.045  0.4065 -0.0611  0.4444
 6129SOL    HW120109   9.035   3.640   2.075 -0.0255 -0.2573  1.5254
 6129SOL    HW220110   8.929   3.535   2.103 -0.4548 -0.4924 -0.7605
 6130SOL     OW20111   6.856   5.401   5.625  0.0552 -0.2318  0.1378
 6130SOL    HW120112   6.782   5.354   5.663 -1.1854  0.4351 -1.3453
 6130SOL    HW220113   6.933   5.363   5.667 -1.1442 -0.3156  2.4215
 6131SOL     OW20114   2.697   0.709   2.815  0.6974 -0.4868  0.0379
 6131SOL    HW120115   2.685   0.767   2.890 -0.6761  1.4098 -1.5309
 6131SOL    HW220116   2.789   0.684   2.818  0.9876  0.6414  1.5917
 6132SOL     OW20117   6.165   3.709   2.987 -0.0293  1.1401 -0.2035
 6132SOL    HW120118   6.167   3.804   3.000  0.0333  1.6625 -3.3322
 6132SOL    HW220119   6.201   3.696   2.900  0.1275 -1.8184  0.2091
 6133SOL     OW20120   4.010   7.255   1.506 -0.3474  0.5627 -0.0446
 6133SOL    HW120121   4.002   7.350   1.518  0.3567  0.3818  2.2315
 6133SOL    HW220122   4.083   7.246   1.444  0.5522  1.5083  0.8304
 6134SOL     OW20123   1.509   7.129   9.013  0.4996 -0.0087 -0.0126
 6134SOL    HW120124   1.457   7.180   8.950 -1.2193 -0.9978  0.5403
 6134SOL    HW220125   1.545   7.057   8.961 -0.6509 -0.6439  0.0376
 6135SOL     OW20126   3.183   9.136   9.225 -0.6362 -0.3644 -0.4363
 6135SOL    HW120127   3.162   9.192   9.300  0.1661  1.8473 -1.7597
 6135SOL    HW220128   3.168   9.192   9.149  2.4534 -1.1422 -1.7557
 6136SOL     OW20129   3.159   9.191   8.478  0.3970 -0.1528 -0.3584
 6136SOL    HW120130   3.125   9.133   8.410  2.4603  0.6999 -2.2709
 6136SOL    HW220131   3.247   9.157   8.497  0.1952  0.1539  1.2907
 6137SOL     OW20132   0.614   4.705   1.640 -0.2468  0.0952 -0.0040
 6137SOL    HW120133   0.523   4.676   1.635  0.0431 -0.5836 -2.3127
 6137SOL    HW220134   0.610   4.788   1.686 -1.8896 -0.4305  0.8936
 6138SOL     OW20135   1.452   2.532   7.726 -0.8428  0.0584  0.1833
 6138SOL    HW120136   1.373   2.536   7.780 -1.9802  1.4643 -1.4735
 6138SOL    HW220137   1.515   2.484   7.779 -2.7733 -1.0395  1.6096
 6139SOL     OW20138   4.309   2.044   4.279 -0.2032  0.3974 -0.0285
 6139SOL    HW120139   4.310   2.119   4.339  2.3273  1.4315 -1.2189
 6139SOL    HW220140   4.234   1.991   4.308 -1.0773  2.5202  1.8988
 6140SOL     OW20141   9.362   0.973   6.508 -0.3046 -0.2816 -0.3486
 6140SOL    HW120142   9.444   0.998   6.549 -0.4673 -0.4322  0.0666
 6140SOL    HW220143   9.366   1.013   6.421  1.2055 -2.1212 -1.1924
 6141SOL     OW20144   7.761   8.107   5.713  0.0573  0.8884  0.7081
 6141SOL    HW120145   7.819   8.032   5.699 -0.3694  0.7541 -0.3974
 6141SOL    HW220146   7.697   8.076   5.777 -0.9062 -0.1443 -0.7098
 6142SOL     OW20147   0.887   6.227   8.402 -0.0597 -0.3084  0.3099
 6142SOL    HW120148   0.897   6.322   8.398  1.3509 -0.4470  0.0046
 6142SOL    HW220149   0.923   6.203   8.488 -0.9590 -0.5105  0.6341
 6143SOL     OW20150   3.083   9.361   3.680  0.0228 -0.3494  0.1274
 6143SOL    HW120151   3.047   9.272   3.670 -1.2899  0.2039 -0.3363
 6143SOL    HW220152   3.156   9.365   3.618  1.0590 -1.5646  1.2078
 6144SOL     OW20153   1.002   5.010   6.899  0.5866  0.0442  0.0840
 6144SOL    HW120154   0.999   4.983   6.808 -2.4524 -0.3980  0.2095
 6144SOL    HW220155   1.057   4.944   6.942  0.1683 -1.0702 -1.0387
 6145SOL     OW20156   9.182   0.002   6.946 -0.5150 -0.5193  0.3967
 6145SOL    HW120157   9.133   0.083   6.960  1.1769  0.3275  1.8633
 6145SOL    HW220158   9.150  -0.032   6.862  0.4736  3.0122 -1.5859
 6146SOL     OW20159   0.079   0.194   6.854  0.3685 -0.0610  0.1134
 6146SOL    HW120160  -0.009   0.200   6.890  0.3246 -1.1100  0.2053
 6146SOL    HW220161   0.068   0.206   6.760 -0.1337 -2.0343 -0.1179
 6147SOL     OW20162   5.691   1.311   6.771  0.3147 -0.0416 -0.4057
 6147SOL    HW120163   5.618   1.249   6.763 -0.1152  0.6780 -3.1717
 6147SOL    HW220164   5.759   1.262   6.817 -1.1438 -1.4414  0.3653
 6148SOL     OW20165   1.404   3.582   4.807  0.5496 -0.4526 -0.3099
 6148SOL    HW120166   1.405   3.674   4.832 -0.8267 -0.5193  0.0888
 6148SOL    HW220167   1.457   3.577   4.728  1.3482  0.5298  0.1545
 6149SOL     OW20168   7.505   3.349   0.010 -0.6252 -0.0790 -0.4275
 6149SOL    HW120169   7.578   3.385  -0.040  0.0121 -0.1654  0.4029
 6149SOL    HW220170   7.431   3.408  -0.007  0.0477  0.8822 -0.1094
 6150SOL     OW20171   7.580   7.588   3.960  0.2764  0.0542  0.1299
 6150SOL    HW120172   7.570   7.605   3.866 -1.2745 -1.4035 -0.0048
 6150SOL    HW220173   7.518   7.518   3.979  2.6844 -1.8444  1.6451
 6151SOL     OW20174   2.148   5.376   6.029  0.1188  0.2461  0.4366
 6151SOL    HW120175   2.118   5.466   6.018  2.0056  0.7173 -1.4665
 6151SOL    HW220176   2.229   5.382   6.078  0.1759 -0.4361  0.4434
 6152SOL     OW20177   3.820   1.695   8.747  0.2748  0.0052  0.8360
 6152SOL    HW120178   3.910   1.683   8.716  0.2649  1.6276  0.0891
 6152SOL    HW220179   3.769   1.628   8.700  0.6721  0.8382 -0.8355
 6153SOL     OW20180   2.805   9.272   3.257 -0.4898  0.0577 -0.0027
 6153SOL    HW120181   2.896   9.264   3.230  0.0982  2.5603  0.8793
 6153SOL    HW220182   2.776   9.355   3.219 -2.0546 -0.1469  0.6554
 6154SOL     OW20183   0.213   7.365   9.469  0.1205  0.2855  0.0783
 6154SOL    HW120184   0.289   7.374   9.412  0.5815  0.4684  0.7047
 6154SOL    HW220185   0.162   7.444   9.455  0.0484  0.1642 -0.3415
 6155SOL     OW20186   2.656   9.441   8.459  0.3472  0.1870  0.1952
 6155SOL    HW120187   2.571   9.484   8.450 -0.5545 -1.0397  2.1462
 6155SOL    HW220188   2.670   9.397   8.376 -1.0133  0.2858 -0.1067
 6156SOL     OW20189   6.951   4.842   8.164 -0.3989 -0.2024  0.1935
 6156SOL    HW120190   6.959   4.746   8.171  0.2125 -0.1425  0.3651
 6156SOL    HW220191   6.874   4.863   8.218 -0.4257 -0.5782  0.3105
 6157SOL     OW20192   2.278   4.176   8.307 -0.1581  0.3909  0.3785
 6157SOL    HW120193   2.237   4.113   8.366  1.0622 -0.9697 -0.1701
 6157SOL    HW220194   2.215   4.187   8.236  1.1949 -3.4817 -1.6749
 6158SOL     OW20195   3.099   6.309   5.929  0.0319 -0.2207 -0.0930
 6158SOL    HW120196   3.118   6.349   5.844 -1.8374  1.9116  0.3948
 6158SOL    HW220197   3.055   6.227   5.908  1.0769 -0.5324 -1.1545
 6159SOL     OW20198   7.604   0.434   6.839  0.2771  0.0700 -0.4806
 6159SOL    HW120199   7.593   0.484   6.920 -0.4757 -1.6008  0.4975
 6159SOL    HW220200   7.623   0.500   6.773 -2.2211  1.8672  0.4203
 6160SOL     OW20201   4.362   6.732   8.610 -0.6159  0.6534  0.0163
 6160SOL    HW120202   4.351   6.657   8.669 -0.8886 -0.0864 -0.9565
 6160SOL    HW220203   4.288   6.789   8.631 -0.7464  0.3661  0.3499
 6161SOL     OW20204   8.384   5.729   1.446  0.0244 -0.1940 -0.1791
 6161SOL    HW120205   8.408   5.640   1.420  0.8562 -0.2931  0.8239
 6161SOL    HW220206   8.459   5.782   1.419 -1.2007  0.5301 -2.3431
 6162SOL     OW20207   4.681   9.465   6.921  0.1201 -0.1794  0.6654
 6162SOL    HW120208   4.740   9.393   6.946 -0.5005 -0.5744  1.0306
 6162SOL    HW220209   4.594   9.433   6.945 -0.2399  0.4004  0.1322
 6163SOL     OW20210   7.129   4.865   8.885  0.1454 -0.4099  0.1893
 6163SOL    HW120211   7.037   4.849   8.864 -0.8909  2.4621  2.0382
 6163SOL    HW220212   7.162   4.919   8.814 -0.2283  0.3391  0.5826
 6164SOL     OW20213   6.439   2.811   6.853  0.3864  0.1381  0.1857
 6164SOL    HW120214   6.493   2.862   6.913  0.6427  2.1106 -1.6159
 6164SOL    HW220215   6.467   2.838   6.766 -0.8995 -1.6255 -0.8477
 6165SOL     OW20216   4.612   9.253   3.355  0.1651  0.1739  0.0487
 6165SOL    HW120217   4.587   9.313   3.426  0.1505  0.6025 -0.3114
 6165SOL    HW220218   4.637   9.172   3.400 -1.9241 -0.3233  0.4410
 6166SOL     OW20219   5.253   1.564   5.007 -0.3941 -0.2549 -0.0380
 6166SOL    HW120220   5.268   1.595   5.096 -0.5472 -3.2346  1.1287
 6166SOL    HW220221   5.177   1.614   4.977  1.0379  2.4748  0.5279
 6167SOL     OW20222   9.085   8.263   3.591 -0.0595  1.1066  0.3311
 6167SOL    HW120223   9.148   8.191   3.598 -1.0951  0.0904 -0.4752
 6167SOL    HW220224   9.135   8.340   3.616  1.4413  0.2985 -0.0419
 6168SOL     OW20225   7.136   2.073   9.488  0.0111 -0.0958  0.2187
 6168SOL    HW120226   7.211   2.129   9.508 -0.6706  0.4746  1.2927
 6168SOL    HW220227   7.067   2.134   9.461  0.3042 -0.7096 -2.1307
 6169SOL     OW20228   3.254   6.170   8.049  0.0390  0.1745 -0.3179
 6169SOL    HW120229   3.313   6.121   7.992 -1.8278  0.3747 -2.5701
 6169SOL    HW220230   3.276   6.262   8.033  1.6632  0.2591  1.8312
 6170SOL     OW20231   2.946   8.815   4.241  0.6162 -0.1483  0.0022
 6170SOL    HW120232   3.026   8.868   4.242  0.9935 -0.7108  0.2614
 6170SOL    HW220233   2.903   8.836   4.324  0.0101  0.8622 -0.5491
 6171SOL     OW20234   6.693   4.475   7.540 -0.3191 -0.3077 -0.9435
 6171SOL    HW120235   6.638   4.519   7.605  1.1059 -0.1385  0.2233
 6171SOL    HW220236   6.654   4.497   7.456 -1.3355  0.7777 -0.2211
 6172SOL     OW20237   4.187   6.923   4.985 -0.4438 -0.1856 -0.2770
 6172SOL    HW120238   4.121   6.971   4.935 -1.4830 -2.5272 -1.3206
 6172SOL    HW220239   4.146   6.906   5.069  1.1572  3.4062  1.4529
 6173SOL     OW20240   1.029   6.468   5.344  0.0769 -0.2698  0.0699
 6173SOL    HW120241   1.053   6.449   5.253 -0.7893 -1.9140  0.1490
 6173SOL    HW220242   1.051   6.560   5.355  1.8821 -0.4889 -1.2573
 6174SOL     OW20243   0.036   6.434   5.567  0.5853 -0.0798 -0.3669
 6174SOL    HW120244  -0.022   6.377   5.618 -1.1632  0.3943 -1.7221
 6174SOL    HW220245   0.114   6.381   5.551 -1.1164 -2.2686 -1.8640
 6175SOL     OW20246   8.349   8.558   1.086 -0.0292 -0.4439 -0.1081
 6175SOL    HW120247   8.330   8.554   0.992 -0.0349  0.8189 -0.1795
 6175SOL    HW220248   8.263   8.555   1.128  0.0325 -3.0151 -0.0046
 6176SOL     OW20249   6.260   8.578   6.983 -0.2233 -0.0060 -0.1317
 6176SOL    HW120250   6.351   8.597   7.007 -0.2437  0.4682 -0.4176
 6176SOL    HW220251   6.208   8.634   7.041 -0.3658 -0.8159  0.5431
 6177SOL     OW20252   0.896   4.155   4.070 -0.1944  0.6784  0.0951
 6177SOL    HW120253   0.911   4.153   4.165 -0.1291 -0.1075  0.0780
 6177SOL    HW220254   0.982   4.172   4.032 -0.2474  1.1417  0.1817
 6178SOL     OW20255   2.391   1.556   1.842  0.4970  0.3602 -0.4465
 6178SOL    HW120256   2.297   1.572   1.847  0.4213  0.1328 -1.0219
 6178SOL    HW220257   2.403   1.510   1.759  0.7639 -1.9938  0.7875
 6179SOL     OW20258   8.408   5.726   2.104  0.4933 -0.4717  0.1610
 6179SOL    HW120259   8.340   5.727   2.036  0.6499 -0.5477  0.0039
 6179SOL    HW220260   8.359   5.728   2.187  0.3106  1.4615  0.0586
 6180SOL     OW20261   1.350   0.617   5.289 -0.1430 -0.0477  0.5865
 6180SOL    HW120262   1.359   0.661   5.204 -0.7915 -0.1779  0.4398
 6180SOL    HW220263   1.438   0.615   5.325  0.1272  0.0823 -0.0523
 6181SOL     OW20264   0.979   7.627   4.769  0.3130  0.0343  0.5659
 6181SOL    HW120265   1.065   7.670   4.770 -0.1030  0.8840  0.4483
 6181SOL    HW220266   0.928   7.673   4.836 -0.5082  0.5179 -0.3685
 6182SOL     OW20267   9.633   6.221   8.157 -0.3827  0.7203 -0.0985
 6182SOL    HW120268   9.539   6.209   8.143 -0.4580  1.0437  0.1047
 6182SOL    HW220269   9.644   6.316   8.164  0.0699  0.7324 -0.8679
 6183SOL     OW20270   7.721   6.060   7.911 -0.1183 -0.3699 -0.0297
 6183SOL    HW120271   7.769   5.981   7.935 -1.3953 -1.4982 -0.9622
 6183SOL    HW220272   7.716   6.057   7.815 -0.2631  0.8048 -0.0778
 6184SOL     OW20273   1.474   7.437   4.709 -0.2807 -0.5930 -0.0267
 6184SOL    HW120274   1.566   7.460   4.704 -0.3969  0.0116  0.4460
 6184SOL    HW220275   1.435   7.504   4.765 -0.8530 -1.3068  0.4612
 6185SOL     OW20276   4.561   4.343   7.995  1.0088 -0.3776  0.3258
 6185SOL    HW120277   4.491   4.346   8.060  0.8406  3.1281  0.1344
 6185SOL    HW220278   4.520   4.304   7.918 -0.4205  0.5177  0.5984
 6186SOL     OW20279   9.104   3.268   5.586  0.2784 -0.3609  0.2366
 6186SOL    HW120280   9.152   3.202   5.636  2.3032  0.7993 -0.0960
 6186SOL    HW220281   9.035   3.218   5.541  1.6482 -2.2479  0.0982
 6187SOL     OW20282   8.975   3.619   8.503  0.6116  0.4297 -0.6309
 6187SOL    HW120283   9.054   3.586   8.460 -0.2698  0.2553 -2.2044
 6187SOL    HW220284   8.935   3.676   8.437 -0.6548  0.3733  0.0664
 6188SOL     OW20285   9.527   5.200   5.096  0.0206  0.2065 -0.2886
 6188SOL    HW120286   9.564   5.270   5.043 -2.4225  1.4934 -0.4385
 6188SOL    HW220287   9.507   5.131   5.032  1.5403 -0.2893 -0.2753
 6189SOL     OW20288   1.980   5.232   4.935 -0.4104 -0.1395 -0.4669
 6189SOL    HW120289   2.003   5.144   4.966  0.3984  0.6769  1.3803
 6189SOL    HW220290   1.889   5.223   4.905 -0.5816 -1.4611  0.3300
 6190SOL     OW20291   9.478   4.289   8.919  0.2171  0.2001  0.5640
 6190SOL    HW120292   9.550   4.336   8.961  0.4982  2.6105 -2.2964
 6190SOL    HW220293   9.409   4.354   8.908 -0.7682 -0.9519 -0.4996
 6191SOL     OW20294   2.383   1.119   2.212  0.2700 -0.0416 -0.2581
 6191SOL    HW120295   2.418   1.146   2.127  2.6346  0.9569  0.9283
 6191SOL    HW220296   2.356   1.029   2.199  1.6951 -0.3015 -1.7914
 6192SOL     OW20297   1.629   4.474   3.708 -0.5982  0.1739  0.0661
 6192SOL    HW120298   1.691   4.528   3.659 -0.8930 -0.5090 -1.0887
 6192SOL    HW220299   1.546   4.522   3.703 -0.8037 -0.2528 -0.7556
 6193SOL     OW20300   6.794   3.350   0.049  0.7174  0.3828 -0.9704
 6193SOL    HW120301   6.754   3.284   0.105  0.6459  0.7799 -0.5503
 6193SOL    HW220302   6.859   3.302  -0.002  1.2063  0.1265 -0.1153
 6194SOL     OW20303   0.062   4.218   5.028  0.1993 -0.0872 -0.3001
 6194SOL    HW120304   0.099   4.148   4.974 -0.6347 -1.1684  0.4899
 6194SOL    HW220305  -0.016   4.179   5.067 -0.7245  1.5362 -0.4513
 6195SOL     OW20306   4.077   8.378   7.221  0.4500  0.3601 -0.2899
 6195SOL    HW120307   4.058   8.312   7.288  0.7649  0.4349 -0.1278
 6195SOL    HW220308   4.170   8.396   7.230  0.3464  0.9119 -0.2528
 6196SOL     OW20309   3.001   7.554   7.527  0.0077  0.4027  0.2397
 6196SOL    HW120310   2.952   7.625   7.568 -0.5559  1.1514 -1.6396
 6196SOL    HW220311   2.959   7.541   7.442 -0.5292 -2.8531  0.8547
 6197SOL     OW20312   7.026   4.799   2.500 -0.5698  0.2196 -0.0337
 6197SOL    HW120313   7.072   4.879   2.473 -0.3467  0.1464  0.1275
 6197SOL    HW220314   7.077   4.728   2.462 -1.2671  0.1798 -0.9284
 6198SOL     OW20315   3.465   1.489   6.783 -0.4526 -0.0597  0.0564
 6198SOL    HW120316   3.470   1.395   6.802 -1.4784 -0.0055  0.6454
 6198SOL    HW220317   3.446   1.529   6.868  0.6091  0.7494 -0.0689
 6199SOL     OW20318   6.293   7.499   0.183 -0.0872  0.0399 -0.1381
 6199SOL    HW120319   6.379   7.461   0.166  0.9549  2.2551 -0.1181
 6199SOL    HW220320   6.306   7.555   0.260 -1.5087  0.5296 -0.2313
 6200SOL     OW20321   4.559   3.248   5.596  0.4949  0.2295 -0.3413
 6200SOL    HW120322   4.540   3.154   5.603  2.2555 -0.1675 -0.6220
 6200SOL    HW220323   4.483   3.284   5.549 -0.2441 -1.0272 -0.1488
 6201SOL     OW20324   1.860   5.092   0.510  0.4110 -0.5020 -0.5466
 6201SOL    HW120325   1.865   5.120   0.418 -0.8155  0.8458 -0.2481
 6201SOL    HW220326   1.948   5.060   0.530  0.5080 -1.5346 -2.3890
 6202SOL     OW20327   6.379   3.593   2.135  0.5155 -0.1717 -0.6370
 6202SOL    HW120328   6.326   3.598   2.055 -0.1608 -0.4509 -0.2148
 6202SOL    HW220329   6.458   3.546   2.109  1.2513  1.5110 -1.6390
 6203SOL     OW20330   3.988   6.133   3.743 -0.2795  0.1087 -0.1424
 6203SOL    HW120331   3.897   6.154   3.762 -0.7710 -1.2325 -0.9583
 6203SOL    HW220332   4.035   6.216   3.757 -1.4782  0.6093  1.0864
 6204SOL     OW20333   6.960   7.118   6.591 -0.3231 -0.0420 -0.2221
 6204SOL    HW120334   6.988   7.186   6.529  2.2821 -0.0640  0.8183
 6204SOL    HW220335   6.936   7.044   6.536 -0.0395  0.6309 -1.2822
 6205SOL     OW20336   0.625   6.340   0.543  0.0925  0.1026  0.2995
 6205SOL    HW120337   0.587   6.333   0.631 -0.4073 -0.4095  0.0480
 6205SOL    HW220338   0.664   6.254   0.527 -1.3815 -0.4187 -0.6827
 6206SOL     OW20339   9.035   3.420   4.172  0.0719  0.0992 -0.1408
 6206SOL    HW120340   9.048   3.357   4.101 -1.1593 -0.7574  0.3576
 6206SOL    HW220341   8.954   3.393   4.214 -1.1313  2.7057 -0.5805
 6207SOL     OW20342   4.613   4.384   6.108  0.1732 -0.2851 -0.1532
 6207SOL    HW120343   4.565   4.303   6.093  1.1048 -0.7840 -0.5372
 6207SOL    HW220344   4.582   4.444   6.040  1.1771 -1.1029 -1.3846
 6208SOL     OW20345   9.438   0.433   5.371 -0.7676 -0.2122 -0.0635
 6208SOL    HW120346   9.406   0.480   5.294  2.7847  1.6110 -0.6729
 6208SOL    HW220347   9.465   0.347   5.338 -0.3622  0.1262 -0.6310
 6209SOL     OW20348   7.929   8.073   8.500 -0.1053 -0.2730 -0.4580
 6209SOL    HW120349   7.919   8.003   8.436 -0.5210  2.3801 -3.5761
 6209SOL    HW220350   7.841   8.110   8.509  0.0434 -0.2903  1.3418
 6210SOL     OW20351   3.395   0.323   1.037  0.5017 -0.2650  0.0546
 6210SOL    HW120352   3.355   0.329   1.124 -1.1337  0.2962 -0.6999
 6210SOL    HW220353   3.482   0.361   1.048  0.5946 -0.8420  1.5914
 6211SOL     OW20354   8.124   5.468   1.295 -0.9559  0.0861  0.5212
 6211SOL    HW120355   8.122   5.439   1.386  2.2936  1.6279  1.2309
 6211SOL    HW220356   8.098   5.560   1.298 -2.8110 -0.3461 -0.4822
 6212SOL     OW20357   6.109   6.311   2.001 -0.0218  0.4678 -0.2428
 6212SOL    HW120358   6.099   6.339   1.910  0.2226  0.0297 -0.4049
 6212SOL    HW220359   6.019   6.292   2.030 -0.3641  2.5888  0.2629
 6213SOL     OW20360   1.112   4.014   3.703  0.2587 -0.3054  0.3623
 6213SOL    HW120361   1.135   3.987   3.614  1.0312 -0.0501  0.4750
 6213SOL    HW220362   1.038   4.074   3.692  1.2381  0.8407 -0.2438
 6214SOL     OW20363   6.138   4.479   5.410 -0.0047 -0.4549 -0.4285
 6214SOL    HW120364   6.059   4.482   5.357  0.4601 -0.4939 -1.1401
 6214SOL    HW220365   6.112   4.517   5.494 -0.2364  1.5963 -1.3670
 6215SOL     OW20366   9.457   8.397   9.264 -0.9206  0.1618  0.5689
 6215SOL    HW120367   9.481   8.305   9.250 -1.8718 -0.0391  0.1304
 6215SOL    HW220368   9.475   8.413   9.357  2.3897  0.5310 -0.0107
 6216SOL     OW20369   0.698   0.134   6.687 -0.1942  0.2605  0.0376
 6216SOL    HW120370   0.716   0.181   6.768  0.4439  1.4260 -0.7483
 6216SOL    HW220371   0.603   0.143   6.675 -0.7420 -2.0724  1.8945
 6217SOL     OW20372   5.269   7.500   0.522 -1.0925  0.1909  0.4401
 6217SOL    HW120373   5.338   7.563   0.503 -1.8543  1.1085  0.6423
 6217SOL    HW220374   5.306   7.443   0.589  0.4177 -0.9909 -1.2837
 6218SOL     OW20375   3.912   8.339   5.825 -0.4868  0.1183 -0.1281
 6218SOL    HW120376   3.972   8.286   5.877  1.1309  0.1294 -1.8733
 6218SOL    HW220377   3.921   8.306   5.736 -0.9193  2.0022 -0.9337
 6219SOL     OW20378   6.360   7.740   3.980  0.2862  0.1382  0.2716
 6219SOL    HW120379   6.426   7.689   4.027  1.3127 -0.2147 -1.4761
 6219SOL    HW220380   6.359   7.703   3.892 -0.8475  1.4392 -0.2969
 6220SOL     OW20381   1.927   2.780   0.312 -0.0808 -0.2850 -0.4501
 6220SOL    HW120382   1.972   2.839   0.252  0.7553 -0.1757  0.2552
 6220SOL    HW220383   1.886   2.837   0.376  0.0642 -0.4290 -0.2230
 6221SOL     OW20384   9.561   1.724   4.515  0.2441 -0.5249 -0.4924
 6221SOL    HW120385   9.536   1.805   4.559 -0.7420 -0.1497 -1.6840
 6221SOL    HW220386   9.556   1.657   4.584  1.9163  0.5151  0.7223
 6222SOL     OW20387   5.467   8.455   2.095  0.2444  0.1302 -0.1963
 6222SOL    HW120388   5.540   8.425   2.040  0.9191 -0.1792  0.8397
 6222SOL    HW220389   5.429   8.527   2.046 -0.1638 -1.1298 -1.8076
 6223SOL     OW20390   6.391   5.935   5.593  0.1801 -0.0406 -0.1145
 6223SOL    HW120391   6.363   5.870   5.657 -2.9086 -0.1396 -1.4020
 6223SOL    HW220392   6.325   5.931   5.524  2.0494  1.7322 -2.1703
 6224SOL     OW20393   3.324   2.543   9.563 -0.3431 -0.8943  0.5533
 6224SOL    HW120394   3.240   2.583   9.584  0.5990  1.4096  0.2070
 6224SOL    HW220395   3.356   2.591   9.486  2.1983 -0.2425  1.8918
 6225SOL     OW20396   9.611   2.468   5.548  0.5181 -0.1014 -0.2646
 6225SOL    HW120397   9.547   2.474   5.478  1.6464 -0.5905 -1.3841
 6225SOL    HW220398   9.683   2.525   5.521  0.8254 -0.0314  0.6576
 6226SOL     OW20399   2.522   2.672   0.284 -0.9322  0.6974  0.0217
 6226SOL    HW120400   2.475   2.631   0.356 -1.2728  0.5481 -0.2778
 6226SOL    HW220401   2.507   2.766   0.296  1.8198  0.9654  2.0661
 6227SOL     OW20402   5.701   0.209   5.118  0.3000 -0.3817 -0.3362
 6227SOL    HW120403   5.625   0.214   5.176 -1.2292 -0.7469 -2.2173
 6227SOL    HW220404   5.736   0.121   5.131 -0.1704 -0.5424 -0.1353
 6228SOL     OW20405   2.011   7.276   5.932  0.1911 -0.0490 -0.3374
 6228SOL    HW120406   1.999   7.183   5.954  0.6152  0.5959  3.4075
 6228SOL    HW220407   1.935   7.320   5.972  1.4827  1.4569  0.5855
 6229SOL     OW20408   6.636   4.056   4.389  0.0395 -0.1932  0.1148
 6229SOL    HW120409   6.683   3.978   4.358 -0.0270 -0.6388  1.0936
 6229SOL    HW220410   6.667   4.127   4.332  1.7160 -0.5232  0.5563
 6230SOL     OW20411   4.244   8.952   9.646 -0.1043 -0.1883 -0.2566
 6230SOL    HW120412   4.254   9.010   9.570 -1.6155 -0.5716 -0.7755
 6230SOL    HW220413   4.182   8.996   9.703 -1.3846 -1.3220 -0.7203
 6231SOL     OW20414   7.885   0.804   6.984 -0.1758  0.3802  0.1684
 6231SOL    HW120415   7.946   0.875   6.965  0.7225 -0.5081 -0.3262
 6231SOL    HW220416   7.900   0.783   7.076 -0.7137  1.0604  0.4261
 6232SOL     OW20417   0.054   2.925   5.580  0.2068 -0.4493  0.0635
 6232SOL    HW120418   0.139   2.880   5.580 -0.7822 -2.5156 -2.6869
 6232SOL    HW220419  -0.005   2.864   5.625 -0.9290 -1.6547 -2.8456
 6233SOL     OW20420   0.722   4.628   5.992  0.1645 -0.1118  0.1282
 6233SOL    HW120421   0.689   4.622   6.081 -2.5621 -3.0899 -0.8672
 6233SOL    HW220422   0.802   4.575   5.992  0.8586  0.9171  1.0222
 6234SOL     OW20423   0.847   6.134   1.388  0.0974 -0.1277 -0.4690
 6234SOL    HW120424   0.774   6.076   1.408  0.4294 -0.4059 -0.0562
 6234SOL    HW220425   0.924   6.092   1.428  0.2706  0.8005  0.2103
 6235SOL     OW20426   2.817   9.384   7.873  0.2286  0.3748 -0.4709
 6235SOL    HW120427   2.827   9.423   7.960 -0.3585  1.1696 -0.7396
 6235SOL    HW220428   2.903   9.393   7.832 -0.4658  3.8427 -1.4764
 6236SOL     OW20429   7.662   6.460   9.314 -0.1102  0.2074  0.2736
 6236SOL    HW120430   7.722   6.399   9.272 -0.2144  0.2285  0.0940
 6236SOL    HW220431   7.713   6.500   9.385  0.3677  0.8875 -0.4433
 6237SOL     OW20432   7.595   3.485   0.609 -0.7567  0.6705  0.4520
 6237SOL    HW120433   7.607   3.573   0.574  0.0299  0.5397  0.3591
 6237SOL    HW220434   7.684   3.455   0.626 -0.9454 -0.5185 -0.5380
 6238SOL     OW20435   6.130   1.133   3.197  0.1507  0.1919 -0.6646
 6238SOL    HW120436   6.166   1.047   3.173  0.5522  0.8808 -2.7748
 6238SOL    HW220437   6.044   1.134   3.154 -0.4921  0.3044  0.5877
 6239SOL     OW20438   6.509   3.807   0.399 -0.3104  0.5042  0.2990
 6239SOL    HW120439   6.488   3.734   0.341  0.4281  1.0559 -0.7034
 6239SOL    HW220440   6.559   3.868   0.344  0.6206  0.9426  1.5776
 6240SOL     OW20441   4.410   8.621   7.192 -0.3594  0.2109  0.3818
 6240SOL    HW120442   4.397   8.539   7.240 -0.0119 -0.4785 -0.6710
 6240SOL    HW220443   4.331   8.633   7.140  0.6715 -0.9412 -1.5751
 6241SOL     OW20444   8.879   8.686   8.150 -0.2451  0.5829  0.1917
 6241SOL    HW120445   8.820   8.614   8.128 -0.1531  0.2153  1.1247
 6241SOL    HW220446   8.909   8.719   8.065 -2.4837  1.3735 -0.3766
 6242SOL     OW20447   3.487   8.808   3.504  1.0193  0.8027  0.3741
 6242SOL    HW120448   3.451   8.750   3.437  3.3927  0.1375 -0.4292
 6242SOL    HW220449   3.479   8.758   3.585 -1.9570  1.6465  0.7239
 6243SOL     OW20450   0.987   1.348   1.821 -0.3504  0.1808  0.2115
 6243SOL    HW120451   1.006   1.410   1.751 -1.1317  0.6873  0.4402
 6243SOL    HW220452   0.896   1.365   1.845 -0.4605 -0.7877  0.5461
 6244SOL     OW20453   6.780   0.662   5.712 -0.3256 -0.1342 -0.4347
 6244SOL    HW120454   6.869   0.689   5.694 -0.3100  0.3025  0.2342
 6244SOL    HW220455   6.764   0.589   5.653  1.4230 -2.0373  1.2585
 6245SOL     OW20456   7.313   2.479   1.449  0.3021  0.1979  0.4858
 6245SOL    HW120457   7.390   2.531   1.427  0.0949 -0.1940 -1.3030
 6245SOL    HW220458   7.306   2.415   1.378 -1.5883  0.1251  0.6858
 6246SOL     OW20459   1.185   5.046   1.068 -0.0173 -0.0218  0.0597
 6246SOL    HW120460   1.176   5.084   1.156  0.9064  0.3737 -0.0076
 6246SOL    HW220461   1.128   5.100   1.013  1.2261  1.2463 -0.0214
 6247SOL     OW20462   4.204   6.770   8.352  0.6361  0.5285  0.0101
 6247SOL    HW120463   4.155   6.852   8.362 -1.5838 -0.7175 -0.0862
 6247SOL    HW220464   4.212   6.737   8.442 -1.8916 -0.9583 -0.2083
 6248SOL     OW20465   2.326   5.621   3.668  0.2885 -0.6002  0.4045
 6248SOL    HW120466   2.247   5.662   3.633 -1.0458 -1.2644  2.4664
 6248SOL    HW220467   2.337   5.542   3.614  0.2477  0.0901 -0.6463
 6249SOL     OW20468   0.864   5.741   5.643 -0.1357 -0.0910  0.8160
 6249SOL    HW120469   0.943   5.689   5.659  0.3117  0.9305  2.1633
 6249SOL    HW220470   0.846   5.729   5.550  1.3847 -0.6515  0.5612
 6250SOL     OW20471   6.226   4.208   0.935 -0.0217 -0.4940 -0.1340
 6250SOL    HW120472   6.148   4.170   0.975 -1.0793 -0.4413 -2.0464
 6250SOL    HW220473   6.227   4.299   0.965 -0.4227 -0.6143  0.2515
 6251SOL     OW20474   4.349   1.138   8.633  0.6264  0.2387  0.0415
 6251SOL    HW120475   4.387   1.054   8.660 -1.4673 -0.2600  1.7450
 6251SOL    HW220476   4.424   1.195   8.618  2.0622 -1.0905  1.7463
 6252SOL     OW20477   5.444   2.901   4.832 -0.1889 -0.2267  0.2218
 6252SOL    HW120478   5.398   2.881   4.751  0.2318  1.4439 -0.4641
 6252SOL    HW220479   5.375   2.924   4.894 -0.3605  2.3029 -0.8132
 6253SOL     OW20480   0.798   6.102   7.214  1.1150  0.4758 -0.8483
 6253SOL    HW120481   0.782   6.122   7.122  0.8827  1.0079 -0.6910
 6253SOL    HW220482   0.727   6.145   7.261  1.0716 -0.0356 -0.4411
 6254SOL     OW20483   0.461   2.619   2.623 -0.1658  0.1212  0.7007
 6254SOL    HW120484   0.449   2.528   2.651 -0.6062  0.2637  0.9868
 6254SOL    HW220485   0.519   2.657   2.690  2.4524 -0.7034 -0.9504
 6255SOL     OW20486   1.744   7.968   6.343  0.0300 -0.0032 -0.3087
 6255SOL    HW120487   1.820   7.913   6.363  1.5440  2.2762  0.7021
 6255SOL    HW220488   1.699   7.978   6.427 -1.5497 -1.4701 -0.9343
 6256SOL     OW20489   5.387   2.895   3.526 -0.2544 -0.4661 -0.3301
 6256SOL    HW120490   5.456   2.860   3.582  2.8964  3.5258 -1.2226
 6256SOL    HW220491   5.314   2.911   3.586  0.5661 -2.2402  1.2503
 6257SOL     OW20492   6.447   6.230   8.648  0.9445 -0.2188  0.1372
 6257SOL    HW120493   6.426   6.160   8.586  0.3216 -0.8912  1.0767
 6257SOL    HW220494   6.472   6.304   8.593  0.9748 -0.9757 -0.8983
 6258SOL     OW20495   2.440   6.202   7.156  0.4827 -0.3012  0.2225
 6258SOL    HW120496   2.471   6.272   7.214  1.4141  0.6697 -1.3725
 6258SOL    HW220497   2.503   6.201   7.084 -3.2426  2.1248 -3.5379
 6259SOL     OW20498   6.183   1.719   2.717 -0.0142 -0.4890  0.1176
 6259SOL    HW120499   6.139   1.721   2.802 -0.9162  0.0154 -0.3517
 6259SOL    HW220500   6.200   1.626   2.702 -0.7520 -0.6742  0.3912
 6260SOL     OW20501   1.101   7.732   8.405 -0.4731  0.1038  0.4375
 6260SOL    HW120502   1.191   7.757   8.423 -0.3816  0.6342 -0.6268
 6260SOL    HW220503   1.053   7.752   8.485  0.4677 -0.8552  1.2607
 6261SOL     OW20504   6.190   1.811   3.292  0.9862 -0.1690  0.3672
 6261SOL    HW120505   6.199   1.824   3.386 -0.6192 -0.0848  0.5350
 6261SOL    HW220506   6.148   1.726   3.283 -1.3017  0.9325 -0.1140
 6262SOL     OW20507   7.863   8.589   3.739  0.0392  0.0240 -0.3294
 6262SOL    HW120508   7.838   8.533   3.666 -1.0586  0.3484 -0.2176
 6262SOL    HW220509   7.928   8.650   3.702 -0.2856 -0.0059 -0.9594
 6263SOL     OW20510   4.809   5.948   5.803 -0.0289 -0.3447  0.0686
 6263SOL    HW120511   4.793   5.964   5.896  0.8554 -1.2133  0.3902
 6263SOL    HW220512   4.889   5.997   5.784 -0.5869  0.4015 -0.4246
 6264SOL     OW20513   2.716   9.093   4.641 -0.0934  0.4101  0.1327
 6264SOL    HW120514   2.740   9.059   4.555 -2.4133 -0.2081 -0.3352
 6264SOL    HW220515   2.777   9.165   4.656  2.5320 -1.5347 -0.5135
 6265SOL     OW20516   4.947   0.106   9.661  0.1647 -0.4894  0.2237
 6265SOL    HW120517   4.921   0.135   9.749  0.1843 -0.4230  0.2083
 6265SOL    HW220518   4.864   0.092   9.615  0.0718  2.3038 -0.6825
 6266SOL     OW20519   2.156   6.359   7.271 -0.1587  0.0307 -0.0571
 6266SOL    HW120520   2.091   6.289   7.278  1.0752 -1.2915 -1.2202
 6266SOL    HW220521   2.222   6.337   7.336 -0.0321  0.4014 -0.0603
 6267SOL     OW20522   1.766   8.355   3.504  0.4041 -0.4514  0.6658
 6267SOL    HW120523   1.803   8.272   3.535 -0.3664 -0.8745  0.4612
 6267SOL    HW220524   1.698   8.330   3.443  0.8300  0.3529 -0.1685
 6268SOL     OW20525   1.276   6.494   6.015 -0.2327  0.5901  0.0794
 6268SOL    HW120526   1.325   6.412   6.024 -0.6316  0.3302 -0.1055
 6268SOL    HW220527   1.216   6.478   5.943 -1.1290  0.6390  0.8043
 6269SOL     OW20528   6.640   8.696   5.529 -0.7593 -0.0791 -0.0424
 6269SOL    HW120529   6.566   8.676   5.587 -1.0280 -1.3133 -0.7720
 6269SOL    HW220530   6.684   8.612   5.516  1.2018  0.7361  0.9019
 6270SOL     OW20531   1.986   5.941   3.202 -0.7681  0.7950  0.1590
 6270SOL    HW120532   1.983   6.008   3.271  0.3227  0.4654  0.5496
 6270SOL    HW220533   2.031   5.867   3.243  1.3941  1.1743 -1.3770
 6271SOL     OW20534   4.737   4.168   9.683  0.3463 -0.1106 -0.1886
 6271SOL    HW120535   4.730   4.179   9.588 -1.2677 -0.9575 -0.2059
 6271SOL    HW220536   4.687   4.241   9.719  1.6224  0.6720  0.0613
 6272SOL     OW20537   5.612   3.935   6.401 -0.3876 -0.0658  0.3831
 6272SOL    HW120538   5.526   3.893   6.400 -0.8750  0.8670 -0.8769
 6272SOL    HW220539   5.608   3.995   6.475 -0.4776 -0.6832  0.8857
 6273SOL     OW20540   1.009   3.487   3.346 -0.4665  0.2611 -0.3828
 6273SOL    HW120541   1.047   3.489   3.434  1.0557 -0.5969 -0.9791
 6273SOL    HW220542   1.003   3.394   3.325 -1.6096  0.4316 -0.8731
 6274SOL     OW20543   2.227   3.533   0.980 -0.0833  0.0675 -0.1193
 6274SOL    HW120544   2.211   3.547   1.074  1.8324 -0.7346  0.3748
 6274SOL    HW220545   2.271   3.613   0.951  0.5264 -0.2130  0.0053
 6275SOL     OW20546   9.024   3.617   0.438  0.2768 -0.1839  0.4782
 6275SOL    HW120547   9.099   3.615   0.378 -1.8369 -0.4754 -2.3028
 6275SOL    HW220548   9.030   3.702   0.481  1.6801  0.1933 -0.3920
 6276SOL     OW20549   4.931   5.603   1.394 -0.5414 -0.2475 -0.3336
 6276SOL    HW120550   4.886   5.587   1.311  0.0495  0.5577 -0.8160
 6276SOL    HW220551   5.016   5.639   1.369  1.0883 -3.1701  0.4758
 6277SOL     OW20552   2.405   8.234   3.996 -0.7902 -0.4162 -0.0562
 6277SOL    HW120553   2.366   8.291   4.062 -1.6813 -2.1408  1.0023
 6277SOL    HW220554   2.485   8.201   4.037 -0.8736 -0.7874 -0.1810
 6278SOL     OW20555   7.775   3.181   4.819  0.2485  0.6032  0.4366
 6278SOL    HW120556   7.778   3.129   4.899  0.2138 -0.6616 -0.3569
 6278SOL    HW220557   7.867   3.191   4.793  0.2243  0.4384  0.2829
 6279SOL     OW20558   1.830   9.003   5.462 -0.2159  0.3080 -0.0841
 6279SOL    HW120559   1.892   8.946   5.416 -0.9133  0.5056 -1.3005
 6279SOL    HW220560   1.838   9.088   5.418  0.5591  1.0772  1.4849
 6280SOL     OW20561   0.639   4.793   8.668  0.9046  0.1281  0.2512
 6280SOL    HW120562   0.566   4.809   8.608  0.1810  1.5322  1.4320
 6280SOL    HW220563   0.598   4.776   8.752  1.9367  0.5854  0.8682
 6281SOL     OW20564   7.303   0.042   6.832 -0.5584 -0.1365  0.1427
 6281SOL    HW120565   7.382   0.069   6.878 -1.3671  1.2322  0.8153
 6281SOL    HW220566   7.285   0.114   6.770 -1.0222 -0.6377 -0.3198
 6282SOL     OW20567   3.379   6.778   2.334 -0.0612  0.5460 -0.3988
 6282SOL    HW120568   3.297   6.826   2.340 -0.2869  0.0691  0.5751
 6282SOL    HW220569   3.388   6.735   2.419  0.3041 -0.8578 -1.1136
 6283SOL     OW20570   1.490   6.423   0.905 -0.3273 -0.2931 -0.4165
 6283SOL    HW120571   1.534   6.369   0.839 -0.9674 -1.1356 -0.1577
 6283SOL    HW220572   1.538   6.506   0.902  1.1436 -1.0860 -0.3167
 6284SOL     OW20573   9.641   5.583   4.134 -0.2448 -0.0682 -0.4531
 6284SOL    HW120574   9.605   5.663   4.174  1.2650  0.4099  0.0433
 6284SOL    HW220575   9.683   5.538   4.207  2.2990  0.6541 -1.3724
 6285SOL     OW20576   2.513   8.868   4.245 -0.5954  0.2309  0.3952
 6285SOL    HW120577   2.449   8.937   4.226  0.5188  1.2854  0.3454
 6285SOL    HW220578   2.508   8.809   4.169  0.7647  2.0786 -1.2193
 6286SOL     OW20579   5.863   6.716   1.107 -0.3203  0.8539  0.9894
 6286SOL    HW120580   5.959   6.721   1.100 -0.3904  4.0628  0.8724
 6286SOL    HW220581   5.847   6.661   1.183  1.6281  0.5421  1.2217
 6287SOL     OW20582   4.436   3.859   4.550  0.0583 -0.2520  0.0549
 6287SOL    HW120583   4.368   3.917   4.585 -1.7530 -1.1322 -1.7354
 6287SOL    HW220584   4.449   3.890   4.460  0.0954 -1.6883 -0.4655
 6288SOL     OW20585   0.732   7.603   7.183 -0.1814 -0.0516 -0.0993
 6288SOL    HW120586   0.780   7.536   7.133 -1.9095 -0.5503 -1.1584
 6288SOL    HW220587   0.760   7.589   7.274  0.5796 -1.2716 -0.4898
 6289SOL     OW20588   6.767   7.099   8.296 -0.1000 -0.1556 -0.0784
 6289SOL    HW120589   6.731   7.028   8.348 -0.6451  0.5954  0.6069
 6289SOL    HW220590   6.825   7.057   8.233 -2.1850 -1.4379 -1.2712
 6290SOL     OW20591   3.911   0.957   2.954  0.1338 -0.2319 -0.4431
 6290SOL    HW120592   3.905   1.049   2.930 -1.1741 -0.3242 -0.5285
 6290SOL    HW220593   3.855   0.912   2.890  0.3466 -1.0259 -0.0861
 6291SOL     OW20594   6.750   5.346   0.318 -0.7867  0.4973  0.0957
 6291SOL    HW120595   6.686   5.291   0.362 -1.9835  0.4949 -1.5712
 6291SOL    HW220596   6.725   5.436   0.343 -1.4113  0.4926 -0.4822
 6292SOL     OW20597   6.458   7.975   0.593 -0.3109  0.1336  0.0734
 6292SOL    HW120598   6.503   7.891   0.594  1.2173  0.7811 -2.9481
 6292SOL    HW220599   6.528   8.040   0.591 -1.4566  1.4541  0.8028
 6293SOL     OW20600   1.783   1.588   4.382 -0.0501 -0.7813  0.2589
 6293SOL    HW120601   1.749   1.611   4.469 -2.2502 -1.4676 -0.3596
 6293SOL    HW220602   1.813   1.671   4.346 -1.1541 -0.0837  0.8604
 6294SOL     OW20603   1.682   9.579   5.009 -0.5423  0.0216  0.0419
 6294SOL    HW120604   1.660   9.500   4.960  0.5315  0.0615 -0.5165
 6294SOL    HW220605   1.734   9.632   4.949 -1.2115  1.1578  0.4164
 6295SOL     OW20606   3.882   1.315   5.589  0.2913  0.1052  0.0432
 6295SOL    HW120607   3.956   1.327   5.648 -0.7074 -0.4174  1.4557
 6295SOL    HW220608   3.890   1.387   5.526  1.1743  0.9307  1.0547
 6296SOL     OW20609   7.290   7.214   0.826  0.3824  0.0634 -0.9473
 6296SOL    HW120610   7.340   7.277   0.878 -2.1595  1.0257  0.5045
 6296SOL    HW220611   7.356   7.154   0.791  2.3839 -0.1437  2.7165
 6297SOL     OW20612   6.308   8.674   8.937  0.2997  0.1710 -0.5833
 6297SOL    HW120613   6.238   8.622   8.898  1.2251 -1.5481 -0.0834
 6297SOL    HW220614   6.291   8.671   9.031 -0.2214  1.7255 -0.5959
 6298SOL     OW20615   3.757   2.435   4.954 -0.1487 -0.1154 -0.3220
 6298SOL    HW120616   3.817   2.370   4.992 -1.0342 -0.6412  0.2033
 6298SOL    HW220617   3.670   2.399   4.970 -0.6063 -0.8474 -3.6927
 6299SOL     OW20618   7.732   1.067   3.548 -0.1080 -0.2627  0.4892
 6299SOL    HW120619   7.813   1.098   3.588 -0.1043  0.7681 -0.2643
 6299SOL    HW220620   7.758   1.043   3.458 -0.4697 -0.7630  0.5144
 6300SOL     OW20621   3.322   6.623   8.871 -0.3886 -0.2016 -0.1342
 6300SOL    HW120622   3.319   6.534   8.835  1.4678 -0.8058  1.0800
 6300SOL    HW220623   3.357   6.613   8.959 -0.5400  1.7162  0.2027
 6301SOL     OW20624   0.502   7.644   3.914  1.1761  0.0005  0.5299
 6301SOL    HW120625   0.551   7.678   3.840  2.2772 -0.8146  0.8580
 6301SOL    HW220626   0.439   7.713   3.935 -0.1992 -0.3552 -2.0878
 6302SOL     OW20627   5.181   8.314   5.891 -0.2224 -0.2088 -0.0068
 6302SOL    HW120628   5.192   8.409   5.883 -2.9562  0.2056  0.2321
 6302SOL    HW220629   5.248   8.287   5.954  0.2560  1.6398  0.3334
 6303SOL     OW20630   8.373   8.501   7.193 -0.0889  0.1299  0.3663
 6303SOL    HW120631   8.308   8.470   7.256 -0.4173 -0.1979 -0.1237
 6303SOL    HW220632   8.455   8.505   7.242 -0.2837 -0.3895  0.7399
 6304SOL     OW20633   1.148   5.145   4.483  0.4264 -0.3192  0.1462
 6304SOL    HW120634   1.220   5.112   4.429  0.3062  1.7312 -1.3712
 6304SOL    HW220635   1.135   5.235   4.454 -2.4341 -0.4423  0.7167
 6305SOL     OW20636   9.222   8.628   6.147  0.0735 -0.3574 -0.2010
 6305SOL    HW120637   9.182   8.685   6.082 -0.4473 -1.4191 -0.8279
 6305SOL    HW220638   9.316   8.647   6.142  0.0422 -0.4774 -1.2937
 6306SOL     OW20639   0.391   6.649   5.542 -0.0881  0.3478 -0.8986
 6306SOL    HW120640   0.297   6.638   5.526 -0.0261 -0.1305 -0.9562
 6306SOL    HW220641   0.430   6.647   5.454 -0.1003  1.4163 -0.9472
 6307SOL     OW20642   4.551   5.664   8.082  0.2491  0.5372 -0.5127
 6307SOL    HW120643   4.473   5.619   8.116  0.4718  1.3327  1.1826
 6307SOL    HW220644   4.611   5.594   8.057 -0.8803 -0.0895 -1.5658
 6308SOL     OW20645   9.116   6.239   1.024 -0.0094 -0.1126  0.0116
 6308SOL    HW120646   9.093   6.183   1.099 -1.8675 -0.2072 -0.5827
 6308SOL    HW220647   9.192   6.289   1.054 -1.0243  0.2427  2.1668
 6309SOL     OW20648   2.073   5.643   6.092  0.4235 -0.1352  0.7611
 6309SOL    HW120649   2.045   5.666   6.181 -2.6437  0.5920 -0.2641
 6309SOL    HW220650   2.085   5.727   6.049 -0.2260 -0.4537 -0.0650
 6310SOL     OW20651   1.259   0.291   4.318  0.4450  0.2483  0.0613
 6310SOL    HW120652   1.198   0.342   4.264  1.1012  0.7298 -0.2311
 6310SOL    HW220653   1.206   0.264   4.393  0.2507  2.0567  0.6466
 6311SOL     OW20654   9.684   9.203   9.175  0.2143 -0.6704  0.7934
 6311SOL    HW120655   9.602   9.216   9.222  0.1025  0.9328  0.2040
 6311SOL    HW220656   9.699   9.108   9.179 -1.3906 -0.9304  1.3549
 6312SOL     OW20657   4.660   9.331   2.814  0.4205 -0.1750  0.5408
 6312SOL    HW120658   4.747   9.307   2.783  0.8648 -0.2282  1.7885
 6312SOL    HW220659   4.619   9.248   2.838  0.1088 -0.1293  0.1742
 6313SOL     OW20660   0.111   6.738   2.096 -0.2839 -0.2802 -0.4836
 6313SOL    HW120661   0.136   6.646   2.100  0.3777 -0.1943 -1.8253
 6313SOL    HW220662   0.144   6.776   2.177 -2.2308 -1.5614  1.0142
 6314SOL     OW20663   6.095   9.404   3.271  0.2632 -0.1989 -0.3545
 6314SOL    HW120664   6.035   9.477   3.258  0.5549  0.0372 -0.3749
 6314SOL    HW220665   6.099   9.360   3.186 -1.2270 -1.2603  0.0762
 6315SOL     OW20666   9.522   9.227   2.675  0.1153 -1.2769 -0.0176
 6315SOL    HW120667   9.449   9.216   2.615 -0.3149 -0.5796  0.3576
 6315SOL    HW220668   9.583   9.284   2.629  0.1586 -1.3978 -0.1088
 6316SOL     OW20669   6.493   3.929   1.209  0.0999 -0.1908 -0.1885
 6316SOL    HW120670   6.524   3.847   1.248 -1.7069 -0.0623  1.7226
 6316SOL    HW220671   6.428   3.961   1.271  0.0620  2.2207 -1.3693
 6317SOL     OW20672   8.221   6.829   0.961 -0.3587 -0.2642  0.0043
 6317SOL    HW120673   8.172   6.849   0.881 -0.0850  0.2934 -0.0281
 6317SOL    HW220674   8.203   6.902   1.020  1.0406  0.3512 -0.2945
 6318SOL     OW20675   1.666   6.647   0.812 -0.4018  0.4099  0.6235
 6318SOL    HW120676   1.687   6.722   0.756  0.7060 -2.1833 -2.7677
 6318SOL    HW220677   1.740   6.641   0.873  1.2268  0.2155 -1.2668
 6319SOL     OW20678   5.142   3.798   0.320  0.7757  0.2281 -0.1076
 6319SOL    HW120679   5.130   3.703   0.312  2.2450  0.0440 -0.3977
 6319SOL    HW220680   5.174   3.810   0.410 -0.3320  0.5697  0.2554
 6320SOL     OW20681   6.075   1.539   6.503 -0.4773  0.8172 -0.0052
 6320SOL    HW120682   6.148   1.480   6.523 -0.5434  1.0020  0.8151
 6320SOL    HW220683   5.998   1.482   6.505 -0.3725  0.6339 -0.8114
 6321SOL     OW20684   8.900   4.978   4.888  0.3887  0.0055  0.3203
 6321SOL    HW120685   8.814   5.020   4.885 -0.7929 -2.2599 -0.4862
 6321SOL    HW220686   8.902   4.935   4.974  0.7189  0.0620  0.3415
 6322SOL     OW20687   5.589   8.964   4.054  0.7606  0.4977  0.4759
 6322SOL    HW120688   5.577   8.916   4.136  0.3152  0.3852  0.3473
 6322SOL    HW220689   5.682   8.990   4.054  0.5129  1.4862  1.5518
 6323SOL     OW20690   8.001   5.028   6.566  0.4448  0.4998 -0.1544
 6323SOL    HW120691   8.057   4.951   6.554  1.0329  0.8392  0.3276
 6323SOL    HW220692   7.919   5.005   6.523  1.3964  0.5003 -2.0901
 6324SOL     OW20693   2.328   2.846   6.953 -0.1663  0.5208 -0.1737
 6324SOL    HW120694   2.355   2.786   6.884  1.3741  1.8967 -0.8282
 6324SOL    HW220695   2.238   2.871   6.928  0.2518  0.7727 -1.5514
 6325SOL     OW20696   9.435   2.419   7.473 -0.4413  0.5613 -0.4313
 6325SOL    HW120697   9.464   2.510   7.461 -1.5854  0.9882 -0.1191
 6325SOL    HW220698   9.461   2.375   7.392 -1.4919  1.6245 -1.3852
 6326SOL     OW20699   0.419   2.382   1.919  0.6223 -0.2399  0.2779
 6326SOL    HW120700   0.472   2.303   1.912 -2.8931 -2.8563  0.2507
 6326SOL    HW220701   0.418   2.402   2.013  0.3521 -1.2021  0.4948
 6327SOL     OW20702   8.901   4.629   4.053 -0.0164  0.5102 -0.3433
 6327SOL    HW120703   8.841   4.558   4.076 -1.3632  1.5918 -0.3416
 6327SOL    HW220704   8.932   4.608   3.965 -0.8598  0.2133 -0.5743
 6328SOL     OW20705   5.083   2.686   4.503  0.0843  0.2384 -0.0182
 6328SOL    HW120706   5.049   2.681   4.413  1.5757  1.5402 -0.6971
 6328SOL    HW220707   5.101   2.594   4.526 -0.6195 -0.1428 -0.9143
 6329SOL     OW20708   3.265   2.092   1.723  0.0606 -0.3451 -0.0827
 6329SOL    HW120709   3.229   2.068   1.638 -0.8053 -0.5584  0.3421
 6329SOL    HW220710   3.266   2.010   1.773  1.8384 -0.5165 -0.3230
 6330SOL     OW20711   1.972   3.382   9.463 -0.3746  0.3058 -0.4324
 6330SOL    HW120712   1.979   3.297   9.505 -0.2955  0.3516 -0.3527
 6330SOL    HW220713   1.917   3.367   9.386 -0.0863  0.1159 -0.6018
 6331SOL     OW20714   5.285   1.271   6.595  0.3064  0.0865  0.5566
 6331SOL    HW120715   5.358   1.318   6.556 -0.6781  1.5978  0.4526
 6331SOL    HW220716   5.287   1.296   6.688 -1.4356  2.1273  0.1461
 6332SOL     OW20717   7.150   3.675   5.186 -0.3011  0.8569 -0.6717
 6332SOL    HW120718   7.083   3.687   5.119 -3.0934 -0.1084  1.7257
 6332SOL    HW220719   7.107   3.702   5.267  1.9008 -0.7427  1.1410
 6333SOL     OW20720   0.088   4.069   0.736 -0.2220 -0.2561  0.0113
 6333SOL    HW120721   0.085   3.976   0.759 -0.5255 -0.4432 -0.7299
 6333SOL    HW220722   0.149   4.108   0.798  0.7818 -1.1581 -0.3755
 6334SOL     OW20723   0.260   2.644   2.063  0.4645 -0.5349 -0.0367
 6334SOL    HW120724   0.309   2.562   2.056 -0.3182 -0.9007 -1.7452
 6334SOL    HW220725   0.324   2.712   2.042  1.1643 -0.6474  1.5655
 6335SOL     OW20726   5.235   6.477   1.997 -0.0148  0.0280 -0.4402
 6335SOL    HW120727   5.256   6.453   1.906  0.5703  0.2288 -0.3627
 6335SOL    HW220728   5.194   6.398   2.033 -1.1878  0.2883 -1.1702
 6336SOL     OW20729   4.816   6.308   0.149 -1.0553  0.2816 -0.5121
 6336SOL    HW120730   4.820   6.307   0.244  0.1497 -0.4983 -0.5466
 6336SOL    HW220731   4.735   6.354   0.129 -0.7199  1.5397  0.8645
 6337SOL     OW20732   0.166   2.660   3.960  0.3581 -0.3839  0.6435
 6337SOL    HW120733   0.232   2.604   3.920  0.7008 -0.3235  1.1156
 6337SOL    HW220734   0.196   2.672   4.050  0.2863  0.5591  0.5542
 6338SOL     OW20735   5.479   9.464   2.598  0.2825 -0.3409 -0.5225
 6338SOL    HW120736   5.396   9.418   2.599 -0.6078  1.1802 -0.9649
 6338SOL    HW220737   5.472   9.529   2.668  0.3636  0.9527 -1.6493
 6339SOL     OW20738   0.425   4.213   1.714  0.4033 -0.0555 -0.2202
 6339SOL    HW120739   0.448   4.306   1.709  1.2711 -0.2869 -0.8374
 6339SOL    HW220740   0.506   4.168   1.693  0.0673 -0.9667  0.3956
 6340SOL     OW20741   6.429   7.801   6.386  0.6633  0.3842  0.0330
 6340SOL    HW120742   6.512   7.815   6.342  1.2600 -1.7751  0.3459
 6340SOL    HW220743   6.450   7.801   6.479  0.4684 -0.7982  0.0981
 6341SOL     OW20744   9.153   4.793   5.271 -0.1760  0.2307  0.2205
 6341SOL    HW120745   9.231   4.773   5.218 -1.6253  0.5124 -2.1717
 6341SOL    HW220746   9.187   4.842   5.346  2.2147 -1.7845  0.5949
 6342SOL     OW20747   8.399   7.678   5.846 -0.2985 -0.0375 -0.5356
 6342SOL    HW120748   8.315   7.725   5.839  0.4638  1.1729 -1.9756
 6342SOL    HW220749   8.373   7.588   5.865 -1.9135  0.4013 -0.4323
 6343SOL     OW20750   0.214   3.644   4.764 -0.2766 -0.3774  0.0602
 6343SOL    HW120751   0.186   3.719   4.816 -0.6418  0.0780 -0.7722
 6343SOL    HW220752   0.137   3.587   4.763  0.1632 -1.0332  1.1230
 6344SOL     OW20753   0.608   5.800   5.434 -0.3925  0.0662  0.5031
 6344SOL    HW120754   0.554   5.872   5.468 -1.1097  0.2747 -0.9612
 6344SOL    HW220755   0.634   5.830   5.347  0.9301 -0.6563  0.6271
 6345SOL     OW20756   6.807   0.582   2.050  0.4565  0.0858 -0.1160
 6345SOL    HW120757   6.757   0.634   1.987 -0.0823  2.1688  1.8692
 6345SOL    HW220758   6.880   0.547   2.000 -1.8483 -1.4379 -2.7007
 6346SOL     OW20759   4.268   2.916   6.352 -0.2167  0.0707 -0.3196
 6346SOL    HW120760   4.237   2.826   6.366 -0.4535 -0.2424 -2.4766
 6346SOL    HW220761   4.278   2.952   6.440 -1.7910 -1.4942  0.5709
 6347SOL     OW20762   5.805   2.914   0.533 -0.0943 -0.2273 -0.2800
 6347SOL    HW120763   5.793   2.961   0.616 -1.8081 -0.3205 -0.4475
 6347SOL    HW220764   5.895   2.883   0.536 -0.5605 -1.6196  2.3016
 6348SOL     OW20765   8.568   4.362   1.692  0.0883  0.6205 -0.0201
 6348SOL    HW120766   8.536   4.432   1.749  1.0689  0.1421  1.1783
 6348SOL    HW220767   8.620   4.306   1.750 -0.0118 -0.6643 -1.1124
 6349SOL     OW20768   2.316   2.597   7.941 -0.0407 -0.0340  0.0446
 6349SOL    HW120769   2.409   2.581   7.923 -0.5726 -1.4282 -1.7671
 6349SOL    HW220770   2.292   2.528   8.003 -0.3444 -1.0847 -1.1994
 6350SOL     OW20771   9.162   4.798   7.208  0.3521  0.1423  0.1916
 6350SOL    HW120772   9.183   4.852   7.132 -0.2316  0.0348 -0.0554
 6350SOL    HW220773   9.242   4.795   7.259  0.8149  0.0463 -0.5255
 6351SOL     OW20774   0.892   6.558   0.605 -0.0447  0.4656  0.4022
 6351SOL    HW120775   0.800   6.552   0.581 -1.1301  1.3769  3.7178
 6351SOL    HW220776   0.910   6.477   0.653  0.1185  1.3279  1.8491
 6352SOL     OW20777   9.098   4.661   7.658 -0.3819  0.1590  0.5388
 6352SOL    HW120778   9.109   4.575   7.618  0.8704  0.9008 -0.8387
 6352SOL    HW220779   9.119   4.723   7.588  0.8784  1.5479  2.0598
 6353SOL     OW20780   2.727   3.406   4.110 -0.2281 -0.5677  0.2637
 6353SOL    HW120781   2.771   3.491   4.099 -0.4653 -0.5990 -1.2146
 6353SOL    HW220782   2.645   3.416   4.063  0.1848 -1.9268 -0.8102
 6354SOL     OW20783   5.758   1.077   4.548  0.5776  0.3846 -0.4295
 6354SOL    HW120784   5.843   1.117   4.568  0.3589  1.7973 -2.0662
 6354SOL    HW220785   5.778   1.007   4.486  0.6305  0.1513 -0.1498
 6355SOL     OW20786   2.086   4.599   4.949  0.0997 -0.5858  0.1683
 6355SOL    HW120787   2.065   4.570   4.860  1.8857 -3.4716  0.5746
 6355SOL    HW220788   2.181   4.609   4.949  0.1555 -0.8114  1.7944
 6356SOL     OW20789   7.658   0.407   1.837 -0.2020 -0.0572 -0.1252
 6356SOL    HW120790   7.748   0.412   1.868 -0.9258 -2.5118  2.9384
 6356SOL    HW220791   7.630   0.319   1.860 -3.0974  0.2645 -1.9387
 6357SOL     OW20792   0.321   7.152   4.660  0.1655 -0.2025  0.5464
 6357SOL    HW120793   0.356   7.123   4.745  0.1743  0.1047  0.6486
 6357SOL    HW220794   0.226   7.147   4.670  0.1753 -1.1294  0.2368
 6358SOL     OW20795   9.411   5.460   9.588  0.0467  0.0522  0.5543
 6358SOL    HW120796   9.458   5.389   9.633 -0.1344  1.1435  2.5560
 6358SOL    HW220797   9.478   5.506   9.538  0.4288 -0.5734  0.4777
 6359SOL     OW20798   5.827   2.853   3.145  0.2770  0.5072  0.2155
 6359SOL    HW120799   5.816   2.918   3.075  0.5876 -0.5468 -0.8499
 6359SOL    HW220800   5.738   2.827   3.168  0.1986 -0.3849 -1.0167
 6360SOL     OW20801   3.271   7.962   5.569  0.0929  0.1400  0.1249
 6360SOL    HW120802   3.277   8.029   5.501  2.8079 -0.8085 -0.6950
 6360SOL    HW220803   3.338   7.986   5.633 -0.2227 -0.7533  0.8225
 6361SOL     OW20804   3.529   6.359   5.120  0.0130  0.7455 -0.1484
 6361SOL    HW120805   3.466   6.295   5.154  1.4273 -0.8445 -0.4141
 6361SOL    HW220806   3.500   6.376   5.030  0.6422 -0.9349 -0.6939
 6362SOL     OW20807   4.555   2.268   5.368 -0.2541  0.1552 -0.3646
 6362SOL    HW120808   4.478   2.321   5.346 -0.6649  0.2552  1.2297
 6362SOL    HW220809   4.624   2.332   5.384  0.0732  0.0773 -1.3560
 6363SOL     OW20810   4.999   7.881   4.348  0.1335 -0.4717 -0.2647
 6363SOL    HW120811   5.072   7.943   4.343 -1.9419  2.0547 -0.7519
 6363SOL    HW220812   5.027   7.818   4.415  1.4724  2.2403  1.9351
 6364SOL     OW20813   9.068   9.349   5.098 -0.0531  0.1248 -0.4962
 6364SOL    HW120814   9.143   9.308   5.141  1.6200  3.5876  0.3444
 6364SOL    HW220815   9.096   9.362   5.007  0.1260  0.7562 -0.3619
 6365SOL     OW20816   2.257   0.390   4.160  0.1144 -0.0923  0.2787
 6365SOL    HW120817   2.314   0.409   4.086 -0.5939 -0.7187 -0.4410
 6365SOL    HW220818   2.224   0.476   4.187  0.5921  0.1687  0.0584
 6366SOL     OW20819   2.265   5.066   5.942 -0.0857  0.3605 -0.3241
 6366SOL    HW120820   2.318   4.991   5.915 -0.8979 -0.3392 -0.0220
 6366SOL    HW220821   2.287   5.135   5.879  0.5320 -0.1846 -0.7199
 6367SOL     OW20822   2.506   9.467   8.873  0.3059 -0.7330 -0.3309
 6367SOL    HW120823   2.478   9.520   8.799  0.3370  1.6200  1.2104
 6367SOL    HW220824   2.425   9.435   8.913  0.0846  0.7365  0.4572
 6368SOL     OW20825   0.494   1.350   6.589  0.0086 -0.1836 -0.0136
 6368SOL    HW120826   0.488   1.440   6.622  1.2217 -0.8137  2.0883
 6368SOL    HW220827   0.468   1.295   6.663 -1.5740 -1.5892 -1.5259
 6369SOL     OW20828   5.145   1.069   5.304 -0.2433 -0.0007  0.0941
 6369SOL    HW120829   5.098   0.987   5.320 -0.8735  0.4185  0.4419
 6369SOL    HW220830   5.085   1.121   5.252  1.4546 -1.0105 -3.1323
 6370SOL     OW20831   2.735   4.404   8.046 -0.7495  0.2519 -0.0599
 6370SOL    HW120832   2.714   4.399   7.953  1.0838  0.2284 -0.5119
 6370SOL    HW220833   2.650   4.394   8.090 -1.3688 -2.5276 -1.6364
 6371SOL     OW20834   1.216   7.423   5.452 -0.2210 -0.0820 -0.2442
 6371SOL    HW120835   1.285   7.418   5.386  0.6121  0.7543  0.5345
 6371SOL    HW220836   1.145   7.368   5.417  0.5598 -0.4017 -1.3793
 6372SOL     OW20837   2.543   1.066   6.572 -0.2377 -0.0204 -0.0910
 6372SOL    HW120838   2.448   1.052   6.564 -0.0074 -1.0020 -1.3302
 6372SOL    HW220839   2.578   1.044   6.486  1.4036 -2.1804  1.0505
 6373SOL     OW20840   8.768   6.814   4.349  0.1125 -0.1155 -0.8238
 6373SOL    HW120841   8.791   6.906   4.364 -2.3261  0.1850  1.9546
 6373SOL    HW220842   8.675   6.817   4.323 -0.7045 -1.8248  1.5695
 6374SOL     OW20843   4.302   0.636   8.752  0.2909 -0.0587 -0.0754
 6374SOL    HW120844   4.372   0.697   8.775 -0.7892  0.7313  1.2777
 6374SOL    HW220845   4.347   0.555   8.728  1.8204  1.4436 -2.7585
 6375SOL     OW20846   7.892   1.505   8.551  0.3454  0.7295 -0.4408
 6375SOL    HW120847   7.976   1.542   8.522  0.6961  0.1609 -0.1898
 6375SOL    HW220848   7.832   1.521   8.479  0.4408  1.9238 -0.2721
 6376SOL     OW20849   1.731   8.914   1.680 -0.5297 -0.0379 -0.3145
 6376SOL    HW120850   1.812   8.934   1.728 -0.8005  1.5363 -0.4847
 6376SOL    HW220851   1.758   8.910   1.588 -1.0109  2.9913 -0.6699
 6377SOL     OW20852   4.393   3.836   5.895 -0.2883 -0.1879 -0.2748
 6377SOL    HW120853   4.445   3.794   5.826  1.4097  0.0940  0.7654
 6377SOL    HW220854   4.317   3.871   5.850  0.2184 -0.9735 -1.8178
 6378SOL     OW20855   6.059   6.717   8.035  0.4724 -0.1533  0.2897
 6378SOL    HW120856   6.048   6.746   8.126 -0.9698 -2.7118  1.0368
 6378SOL    HW220857   6.130   6.654   8.038  0.4444 -0.2260 -0.3845
 6379SOL     OW20858   0.927   8.683   3.010  0.1131  0.2205 -0.1046
 6379SOL    HW120859   0.877   8.666   3.090  0.5725  0.1204  0.1625
 6379SOL    HW220860   0.902   8.612   2.950 -0.6905  0.6340 -0.2718
 6380SOL     OW20861   7.526   6.124   8.593 -0.3175 -0.4631  0.1832
 6380SOL    HW120862   7.561   6.086   8.673 -0.0741 -0.4747  0.0745
 6380SOL    HW220863   7.458   6.184   8.622  0.6962  0.5748  0.5054
 6381SOL     OW20864   1.510   6.318   5.364  0.2684  0.2609 -0.1974
 6381SOL    HW120865   1.602   6.332   5.341  0.2850 -1.9571 -1.8823
 6381SOL    HW220866   1.461   6.353   5.290 -0.1456 -0.0731 -0.0869
 6382SOL     OW20867   9.248   8.418   1.953  0.5163 -0.1273 -0.0395
 6382SOL    HW120868   9.226   8.379   2.037 -0.2514  0.6785  0.1417
 6382SOL    HW220869   9.252   8.512   1.970  1.2792 -0.0284 -0.7006
 6383SOL     OW20870   9.219   3.374   1.346 -0.4054 -0.0101 -0.2333
 6383SOL    HW120871   9.162   3.450   1.331 -0.4905 -0.6942 -4.8444
 6383SOL    HW220872   9.159   3.302   1.366 -0.8006  0.1033 -0.9845
 6384SOL     OW20873   6.868   5.440   8.076 -0.0309  0.0210  0.1518
 6384SOL    HW120874   6.918   5.520   8.062  0.3849  0.0948  1.8550
 6384SOL    HW220875   6.933   5.370   8.069 -0.4334 -0.2255 -1.5727
 6385SOL     OW20876   6.819   9.037   2.986  0.0052  0.6070 -0.2522
 6385SOL    HW120877   6.892   8.999   2.937  1.3095  1.2553  1.1099
 6385SOL    HW220878   6.745   9.030   2.927  1.1443 -0.1621 -1.6611
 6386SOL     OW20879   9.585   2.174   3.791 -0.0845  0.2521 -0.5522
 6386SOL    HW120880   9.657   2.154   3.852  0.0396  0.9698 -0.4535
 6386SOL    HW220881   9.584   2.270   3.787 -0.2834  0.2143 -1.4572
 6387SOL     OW20882   3.911   3.879   0.203  0.5212 -0.0754 -0.0794
 6387SOL    HW120883   3.908   3.794   0.160  2.6121 -0.1057 -0.2838
 6387SOL    HW220884   3.879   3.941   0.137  1.2957 -0.4357 -0.8135
 6388SOL     OW20885   5.883   7.948   1.049  0.6555  0.3117 -0.3334
 6388SOL    HW120886   5.839   7.864   1.051 -0.1653  0.6623 -2.0018
 6388SOL    HW220887   5.949   7.939   0.980  2.1407  0.3269  1.0209
 6389SOL     OW20888   1.688   4.950   8.537  0.4703 -0.5865  0.7210
 6389SOL    HW120889   1.699   4.856   8.524  2.2596 -0.3944  0.5115
 6389SOL    HW220890   1.776   4.986   8.525 -0.4320  1.3035 -0.7563
 6390SOL     OW20891   0.504   1.203   1.043  0.3006  0.7548 -0.1261
 6390SOL    HW120892   0.438   1.271   1.031  0.0499  0.2799 -1.5842
 6390SOL    HW220893   0.585   1.251   1.060 -0.2552  1.3562  0.9654
 6391SOL     OW20894   6.171   5.150   2.101 -0.4295  0.8689 -0.0443
 6391SOL    HW120895   6.256   5.135   2.143 -0.2265  0.5642 -0.5606
 6391SOL    HW220896   6.140   5.062   2.078 -0.3287  1.0629 -0.9419
 6392SOL     OW20897   3.281   5.237   1.589 -0.1315 -0.1344 -0.3593
 6392SOL    HW120898   3.245   5.198   1.669 -1.7412 -2.3965 -2.0551
 6392SOL    HW220899   3.223   5.310   1.568 -0.8148 -0.6979 -0.4398
 6393SOL     OW20900   0.485   7.160   5.399  0.0197 -0.1116 -0.5420
 6393SOL    HW120901   0.421   7.114   5.347  1.0386 -3.6369  1.0087
 6393SOL    HW220902   0.568   7.148   5.352  0.6574 -1.8949  0.9142
 6394SOL     OW20903   9.013   6.845   1.335  0.0780  0.5398  0.8240
 6394SOL    HW120904   9.036   6.766   1.286  0.0879  0.6332  0.6784
 6394SOL    HW220905   8.923   6.864   1.310  0.1530  0.7089  0.6790
 6395SOL     OW20906   5.763   2.750   1.468  0.0340  0.0928 -0.5476
 6395SOL    HW120907   5.823   2.804   1.520  1.2046 -0.6193 -1.1001
 6395SOL    HW220908   5.719   2.812   1.410 -0.6850  0.7872  0.7131
 6396SOL     OW20909   4.139   0.894   0.564 -0.2244  0.7028  0.2833
 6396SOL    HW120910   4.189   0.813   0.577 -0.5507  0.5248  0.4358
 6396SOL    HW220911   4.089   0.904   0.645  0.6780  1.6667  0.7479
 6397SOL     OW20912   1.115   0.446   4.903 -0.2256  0.3060  0.0993
 6397SOL    HW120913   1.143   0.436   4.812  0.5349 -0.7490  0.4282
 6397SOL    HW220914   1.055   0.373   4.918  2.1559 -1.5684  1.3341
 6398SOL     OW20915   1.472   6.368   6.257 -0.0961 -0.5650 -0.3254
 6398SOL    HW120916   1.393   6.314   6.260 -0.7608  0.3971 -0.1137
 6398SOL    HW220917   1.489   6.391   6.348  0.9135 -1.4098 -0.2706
 6399SOL     OW20918   3.086   6.342   6.883 -0.0174 -0.0150 -0.0816
 6399SOL    HW120919   3.068   6.405   6.813 -2.5048 -0.3581  0.1430
 6399SOL    HW220920   3.013   6.279   6.878  0.7054 -1.0748  1.6772
 6400SOL     OW20921   1.968   1.992   7.585  0.2269 -0.0178 -0.5847
 6400SOL    HW120922   1.980   1.904   7.548  1.8506 -0.0792  0.0230
 6400SOL    HW220923   2.057   2.026   7.597 -0.3487  1.3236  0.1142
 6401SOL     OW20924   6.133   3.273   7.494  0.3311  0.3662  0.1109
 6401SOL    HW120925   6.131   3.185   7.456  0.6651 -0.2800  1.5490
 6401SOL    HW220926   6.079   3.325   7.434 -0.4007 -0.9487 -0.4266
 6402SOL     OW20927   5.969   3.101   0.312 -0.1649  0.0874  0.3157
 6402SOL    HW120928   6.001   3.147   0.390 -0.9495  2.1135 -0.4943
 6402SOL    HW220929   5.875   3.090   0.328 -0.3146  0.4472 -0.2994
 6403SOL     OW20930   1.379   0.486   8.650 -0.3805 -0.6063 -0.0082
 6403SOL    HW120931   1.382   0.542   8.728 -0.4782 -1.3600  0.5506
 6403SOL    HW220932   1.356   0.545   8.579  1.4302  0.4421  0.2059
 6404SOL     OW20933   4.172   4.786   5.418  0.6163  0.5775 -0.0852
 6404SOL    HW120934   4.263   4.758   5.420  0.1541 -1.0913 -0.4942
 6404SOL    HW220935   4.153   4.801   5.325  0.2041 -0.0907 -0.1159
 6405SOL     OW20936   9.612   3.331   8.524 -0.3500  1.0599 -0.3285
 6405SOL    HW120937   9.643   3.295   8.442  1.1441 -0.2051  0.7285
 6405SOL    HW220938   9.533   3.280   8.545  0.3411  0.0862 -0.0687
 6406SOL     OW20939   4.355   2.305   2.058  0.0671 -0.2660  0.6958
 6406SOL    HW120940   4.407   2.266   2.128 -0.0817 -0.4438  0.7062
 6406SOL    HW220941   4.288   2.240   2.038  0.4367 -0.4577  0.0119
 6407SOL     OW20942   5.457   2.404   5.219  0.7714  0.0573 -0.4000
 6407SOL    HW120943   5.544   2.380   5.187  0.5819 -0.9263 -0.2057
 6407SOL    HW220944   5.407   2.423   5.140  1.1398  0.5483 -0.5176
 6408SOL     OW20945   9.637   5.954   5.673  0.7372  0.0161 -0.6426
 6408SOL    HW120946   9.689   5.896   5.617  1.3262 -0.6025  0.4995
 6408SOL    HW220947   9.675   5.943   5.760 -2.0863 -1.4661  0.5428
 6409SOL     OW20948   5.781   3.714   2.768  0.0897  0.1259  0.1565
 6409SOL    HW120949   5.717   3.686   2.703  0.4916 -0.8103  0.1457
 6409SOL    HW220950   5.738   3.700   2.853  0.9766 -2.5762  0.2690
 6410SOL     OW20951   8.931   8.246   3.310  0.0849  0.7808 -0.4122
 6410SOL    HW120952   8.848   8.216   3.348 -0.1402 -1.4432 -2.4084
 6410SOL    HW220953   8.996   8.230   3.378 -0.7972  0.3828  0.3664
 6411SOL     OW20954   2.703   0.761   1.357 -0.2464  0.3230  0.4954
 6411SOL    HW120955   2.701   0.689   1.420 -0.1279 -0.0681  0.0558
 6411SOL    HW220956   2.767   0.733   1.291 -1.0298  0.3203 -0.2784
 6412SOL     OW20957   6.432   2.895   2.607  0.1217 -0.2718  0.4866
 6412SOL    HW120958   6.417   2.899   2.513 -1.5976 -0.2925  0.7407
 6412SOL    HW220959   6.441   2.987   2.634 -1.1491 -0.1500  0.5491
 6413SOL     OW20960   9.200   6.498   9.265 -0.2961  0.0031 -0.3921
 6413SOL    HW120961   9.160   6.576   9.227 -0.9311 -0.3463 -0.4670
 6413SOL    HW220962   9.176   6.502   9.358  0.9157  0.6518 -0.0940
 6414SOL     OW20963   8.913   4.780   3.762 -0.0740 -0.2596  0.1343
 6414SOL    HW120964   8.957   4.814   3.684 -0.4702 -1.3463 -0.5821
 6414SOL    HW220965   8.944   4.690   3.770 -0.7751 -0.4609  0.6751
 6415SOL     OW20966   8.416   3.490   0.367  0.0773  0.0877 -0.3068
 6415SOL    HW120967   8.452   3.557   0.425  1.1162  0.4693 -1.3501
 6415SOL    HW220968   8.403   3.414   0.424  1.3468  0.3560  0.3916
 6416SOL     OW20969   3.603   2.402   0.727  0.5925  0.2770 -0.0212
 6416SOL    HW120970   3.536   2.340   0.698  0.9651 -0.4417  0.6336
 6416SOL    HW220971   3.632   2.444   0.646 -0.6022  0.5690 -0.3189
 6417SOL     OW20972   7.491   4.645   7.592  0.0924 -0.4239 -0.0112
 6417SOL    HW120973   7.583   4.635   7.569  0.2891 -2.1274  1.3966
 6417SOL    HW220974   7.453   4.691   7.516  1.9226 -0.3231 -0.9241
 6418SOL     OW20975   0.138   2.866   4.790 -0.0914  0.0980  0.1990
 6418SOL    HW120976   0.122   2.951   4.830 -0.2304  0.1310  0.0720
 6418SOL    HW220977   0.080   2.806   4.838 -2.2891  0.5789 -1.7110
 6419SOL     OW20978   4.650   1.947   2.071 -0.1147 -0.0453  0.5003
 6419SOL    HW120979   4.611   2.005   2.137  0.9600  0.7750  0.4492
 6419SOL    HW220980   4.671   2.005   1.998  2.3003 -0.1792  1.0062
 6420SOL     OW20981   3.656   2.207   4.759  0.2391 -0.3298  0.4072
 6420SOL    HW120982   3.731   2.162   4.720 -0.9387 -0.8388 -1.4127
 6420SOL    HW220983   3.650   2.290   4.711 -0.3849 -0.3152  0.4964
 6421SOL     OW20984   8.751   2.769   4.868 -0.6762  0.2082  0.4755
 6421SOL    HW120985   8.845   2.778   4.883 -0.6007  2.1591 -0.7842
 6421SOL    HW220986   8.744   2.728   4.782 -0.9990 -0.1124  0.6499
 6422SOL     OW20987   4.100   5.478   3.121  0.4106  0.2335 -0.0009
 6422SOL    HW120988   4.100   5.427   3.202  1.4660  0.1781 -0.0173
 6422SOL    HW220989   4.116   5.568   3.149  0.1073  0.3202 -0.0998
 6423SOL     OW20990   1.839   5.800   9.642 -0.0949 -0.3187 -0.1025
 6423SOL    HW120991   1.927   5.833   9.626 -0.3238 -0.9563 -3.4396
 6423SOL    HW220992   1.852   5.721   9.694  1.1154  0.5922  1.0350
 6424SOL     OW20993   5.131   5.538   7.598  0.1942 -0.3551  0.0292
 6424SOL    HW120994   5.055   5.534   7.656 -0.9031  1.8733 -1.1066
 6424SOL    HW220995   5.137   5.631   7.574  3.0231 -0.5377 -0.2904
 6425SOL     OW20996   9.533   5.103   2.977  0.0444 -0.1588 -0.9098
 6425SOL    HW120997   9.510   5.168   2.911 -1.8226  0.8184  0.6226
 6425SOL    HW220998   9.602   5.145   3.029 -0.5490  0.2458 -0.4501
 6426SOL     OW20999   6.237   5.531   1.284 -0.7954 -0.7491 -0.6123
 6426SOL    HW121000   6.165   5.572   1.332  0.1423 -0.0886  0.2836
 6426SOL    HW221001   6.260   5.594   1.216 -0.4258 -0.5017 -0.2663
 6427SOL     OW21002   8.964   0.905   8.222  0.2613  0.1471  0.0178
 6427SOL    HW121003   8.988   0.874   8.134  0.6682  0.0032  0.1758
 6427SOL    HW221004   8.950   0.825   8.272 -2.0268  0.1975 -0.4364
 6428SOL     OW21005   4.081   7.802   5.125 -0.0464 -0.2885 -0.0814
 6428SOL    HW121006   4.086   7.740   5.198 -1.4693  0.4833  0.7399
 6428SOL    HW221007   4.105   7.886   5.164 -1.4626  0.2500 -0.3017
 6429SOL     OW21008   0.419   4.707   0.428 -0.4143 -0.6951  0.0816
 6429SOL    HW121009   0.395   4.639   0.365  0.7588 -1.1758  0.1382
 6429SOL    HW221010   0.511   4.725   0.410 -0.5861  0.5712  0.3676
 6430SOL     OW21011   5.369   1.559   5.578 -0.3981  0.1056 -0.1722
 6430SOL    HW121012   5.329   1.483   5.621  0.9305 -0.3469  0.3113
 6430SOL    HW221013   5.454   1.569   5.621  0.2972  0.6367 -1.6203
 6431SOL     OW21014   6.113   8.111   6.785 -0.2403 -0.5315 -0.0966
 6431SOL    HW121015   6.139   8.202   6.771 -0.2106 -0.6157 -0.6166
 6431SOL    HW221016   6.067   8.087   6.704 -0.3707 -0.9332  0.0963
 6432SOL     OW21017   6.651   8.812   9.480 -0.0939 -0.1831  0.8532
 6432SOL    HW121018   6.701   8.890   9.505  1.0404 -0.9148  0.9703
 6432SOL    HW221019   6.628   8.827   9.388  1.8306 -0.5267  0.2557
 6433SOL     OW21020   5.928   7.065   9.547  0.0046 -0.0376  0.3084
 6433SOL    HW121021   5.882   6.997   9.498  0.7465  0.5267 -1.2229
 6433SOL    HW221022   5.868   7.140   9.547 -0.5443 -0.4413  1.4500
 6434SOL     OW21023   0.821   5.495   7.451 -0.0051  0.6411 -0.0115
 6434SOL    HW121024   0.879   5.561   7.488 -0.7314  1.2161  0.1330
 6434SOL    HW221025   0.861   5.472   7.367  0.3662  1.1035  0.0356
 6435SOL     OW21026   7.767   2.696   3.224  0.0163 -0.1314  0.4571
 6435SOL    HW121027   7.833   2.628   3.241  1.0980  1.1558  1.6808
 6435SOL    HW221028   7.813   2.761   3.170 -1.3761 -0.8913 -1.7615
 6436SOL     OW21029   4.863   0.109   2.291 -0.2984 -0.0536 -0.2000
 6436SOL    HW121030   4.920   0.095   2.367 -2.5648 -0.2940  1.5405
 6436SOL    HW221031   4.775   0.095   2.324 -1.5136  1.6787 -2.4480
 6437SOL     OW21032   8.430   4.097   6.259  0.4616  0.2929 -0.2030
 6437SOL    HW121033   8.339   4.075   6.281  0.2879 -0.6515 -1.7140
 6437SOL    HW221034   8.481   4.059   6.330 -0.3003  0.6546  0.5608
 6438SOL     OW21035   4.901   1.836   3.353  0.5104  0.3130  0.4898
 6438SOL    HW121036   4.926   1.923   3.385  0.8008  0.3381  0.2013
 6438SOL    HW221037   4.900   1.845   3.257 -1.6517  0.6138  0.4828
 6439SOL     OW21038   4.941   0.532   1.034 -0.0852 -0.3226  0.0816
 6439SOL    HW121039   4.884   0.555   1.108  1.5842 -0.4343  1.4662
 6439SOL    HW221040   5.018   0.493   1.075 -0.0228 -2.4143 -1.8541
 6440SOL     OW21041   3.170   2.920   2.434 -0.3713 -0.3085 -0.5581
 6440SOL    HW121042   3.154   3.015   2.431  0.5444 -0.1618 -1.1934
 6440SOL    HW221043   3.179   2.894   2.343 -1.6966 -1.2295 -0.4568
 6441SOL     OW21044   5.192   4.046   4.394 -0.1253  0.0811  0.5551
 6441SOL    HW121045   5.233   4.053   4.308 -0.7592 -0.8250  0.1582
 6441SOL    HW221046   5.100   4.069   4.380 -0.8148 -2.3928  0.4339
 6442SOL     OW21047   3.881   2.360   1.850 -0.8117  0.0104 -0.0804
 6442SOL    HW121048   3.974   2.353   1.871 -0.5182  0.8768 -1.0087
 6442SOL    HW221049   3.876   2.435   1.790 -1.6895 -1.8195 -2.4269
 6443SOL     OW21050   6.270   2.791   0.835 -0.0311  0.1113 -0.2724
 6443SOL    HW121051   6.248   2.825   0.922  0.4709  0.2258 -0.1869
 6443SOL    HW221052   6.363   2.772   0.840  0.0048  0.1403 -0.7960
 6444SOL     OW21053   4.870   6.489   2.298  0.4893  0.1704  0.5901
 6444SOL    HW121054   4.958   6.519   2.324  0.6633 -1.5892  2.2819
 6444SOL    HW221055   4.814   6.511   2.372 -0.3172  0.4074 -0.0730
 6445SOL     OW21056   5.011   0.757   4.205 -0.2379 -0.0486  0.4689
 6445SOL    HW121057   4.980   0.764   4.114  0.5839  0.2261  0.2052
 6445SOL    HW221058   5.052   0.841   4.223  0.9337 -0.6233  0.5847
 6446SOL     OW21059   2.066   3.472   2.403 -0.8008 -0.2989  0.5342
 6446SOL    HW121060   2.122   3.463   2.326 -0.3583 -1.6112  0.9808
 6446SOL    HW221061   1.994   3.528   2.374 -2.1017 -2.9085 -1.6654
 6447SOL     OW21062   2.056   0.419   3.854  0.1820  0.4706  0.0845
 6447SOL    HW121063   2.037   0.469   3.934 -2.4356  0.4873 -0.4744
 6447SOL    HW221064   2.010   0.466   3.785  0.0997 -1.0841 -0.9571
 6448SOL     OW21065   1.344   8.081   2.925 -0.0247 -0.0822 -0.0082
 6448SOL    HW121066   1.267   8.025   2.911  0.1366 -0.6991  1.3979
 6448SOL    HW221067   1.385   8.045   3.004  0.4333  1.6625  0.5847
 6449SOL     OW21068   2.691   9.601   4.555  0.5340 -0.0069  0.5649
 6449SOL    HW121069   2.767   9.574   4.502  0.9274  1.9826  0.0404
 6449SOL    HW221070   2.638   9.522   4.561  0.7381 -0.4932 -2.3631
 6450SOL     OW21071   8.173   2.548   4.694 -0.0528  0.0605  0.2304
 6450SOL    HW121072   8.126   2.604   4.632 -2.2575  0.0554  1.7867
 6450SOL    HW221073   8.240   2.605   4.731  0.8796  0.2489 -1.5951
 6451SOL     OW21074   2.325   2.995   3.665 -0.1324 -0.3611 -0.5517
 6451SOL    HW121075   2.251   3.016   3.721 -0.1552  0.1054 -0.7506
 6451SOL    HW221076   2.373   2.927   3.712  0.2979  0.5867  0.4082
 6452SOL     OW21077   6.900   1.784   7.617 -0.2442  0.4538 -0.1265
 6452SOL    HW121078   6.904   1.712   7.554  1.1558  2.8633 -3.0593
 6452SOL    HW221079   6.952   1.754   7.692  1.3567 -1.1686 -1.7772
 6453SOL     OW21080   7.603   2.164   6.149 -0.4537  0.4708 -0.0287
 6453SOL    HW121081   7.592   2.196   6.238 -0.9492  2.6342 -0.7853
 6453SOL    HW221082   7.547   2.221   6.096 -0.7154 -1.1810 -1.6565
 6454SOL     OW21083   3.849   5.685   2.902 -0.1473 -0.9309 -0.1318
 6454SOL    HW121084   3.811   5.609   2.946 -0.5418  0.4597  2.0812
 6454SOL    HW221085   3.824   5.759   2.956  0.9330  0.7169 -1.7575
 6455SOL     OW21086   1.031   7.487   8.707 -0.9301 -0.2658 -0.7288
 6455SOL    HW121087   1.022   7.477   8.801 -1.1678 -0.0207 -0.7258
 6455SOL    HW221088   0.988   7.569   8.687  1.0183  0.8108 -0.7474
 6456SOL     OW21089   1.788   1.110   7.787 -0.0282  0.3597 -0.3265
 6456SOL    HW121090   1.710   1.089   7.839  0.5683  1.4866  1.0664
 6456SOL    HW221091   1.840   1.168   7.843  1.4077  0.3300 -1.5701
 6457SOL     OW21092   3.156   7.532   1.296  0.1986  0.0485 -0.0273
 6457SOL    HW121093   3.163   7.438   1.282 -0.0513  0.2523 -1.6558
 6457SOL    HW221094   3.092   7.541   1.367  0.3649 -1.0115  0.2642
 6458SOL     OW21095   0.597   7.948   8.536 -0.6370  0.0125 -0.6558
 6458SOL    HW121096   0.506   7.917   8.544 -0.7599  0.2953 -0.9757
 6458SOL    HW221097   0.637   7.887   8.474 -0.5590 -0.2169 -0.3831
 6459SOL     OW21098   7.313   5.228   6.258  0.5187 -0.0251  0.4755
 6459SOL    HW121099   7.281   5.296   6.318 -0.0044  0.7391 -0.6524
 6459SOL    HW221100   7.255   5.232   6.183  0.8960 -1.2822  0.0933
 6460SOL     OW21101   4.667   3.393   3.349 -0.5060 -0.4874 -0.1150
 6460SOL    HW121102   4.635   3.428   3.432  0.3986 -0.9392  0.4397
 6460SOL    HW221103   4.619   3.442   3.282 -2.0576 -0.8982  0.6678
 6461SOL     OW21104   8.709   8.116   3.433  0.7769 -0.0308  0.4496
 6461SOL    HW121105   8.639   8.163   3.480  0.6561  0.7759 -0.4965
 6461SOL    HW221106   8.727   8.039   3.487  0.0347  0.4112  1.3570
 6462SOL     OW21107   0.767   7.797   8.388  0.4163  0.2677 -0.2207
 6462SOL    HW121108   0.724   7.771   8.307  1.5759 -0.3515 -0.6602
 6462SOL    HW221109   0.842   7.849   8.360  0.9901 -0.1892  0.4162
 6463SOL     OW21110   0.967   4.734   0.815 -0.1204  0.0022  0.5221
 6463SOL    HW121111   0.879   4.703   0.836  0.1892 -1.2914  0.0059
 6463SOL    HW221112   1.019   4.713   0.893  0.5692 -2.9065 -0.5850
 6464SOL     OW21113   9.302   0.108   7.535 -0.1565  0.0568 -0.1766
 6464SOL    HW121114   9.381   0.152   7.502  0.9533 -3.1471 -2.2738
 6464SOL    HW221115   9.309   0.116   7.631  0.7704  2.8374 -0.3766
 6465SOL     OW21116   0.324   6.771   2.305  0.6216  0.2783  0.1900
 6465SOL    HW121117   0.407   6.791   2.349  0.3109  0.4675  0.7059
 6465SOL    HW221118   0.275   6.719   2.369 -0.2321  1.3939  0.4715
 6466SOL     OW21119   3.308   5.064   1.389 -0.5875 -0.0017 -0.3690
 6466SOL    HW121120   3.219   5.049   1.358 -0.7580  2.3461 -1.1764
 6466SOL    HW221121   3.300   5.138   1.450  0.8336  0.3984 -0.6436
 6467SOL     OW21122   1.101   2.767   2.139 -0.4402  0.0037 -0.2182
 6467SOL    HW121123   1.118   2.808   2.054 -0.7613  0.5212 -0.0433
 6467SOL    HW221124   1.180   2.784   2.190  0.3262 -1.5368 -0.8609
 6468SOL     OW21125   4.942   6.488   4.087  0.0549 -0.5029  0.4388
 6468SOL    HW121126   5.034   6.469   4.069 -0.1152 -1.1634  0.2286
 6468SOL    HW221127   4.899   6.485   4.002 -0.9910 -4.9583  0.8902
 6469SOL     OW21128   8.119   1.182   3.019 -0.0799 -0.5695  0.2016
 6469SOL    HW121129   8.185   1.171   3.088 -0.0419  0.0875  0.2862
 6469SOL    HW221130   8.052   1.237   3.061  0.9073  1.5818 -0.8852
 6470SOL     OW21131   6.361   2.626   2.730  0.1271 -0.0791 -0.0544
 6470SOL    HW121132   6.291   2.633   2.666  0.5250  0.3672 -0.4459
 6470SOL    HW221133   6.418   2.701   2.712  0.0516  0.2629  1.0549
 6471SOL     OW21134   1.240   3.262   5.019  0.0000  0.0851  0.1676
 6471SOL    HW121135   1.156   3.218   5.027  0.7554 -1.8570 -1.7811
 6471SOL    HW221136   1.287   3.238   5.100 -0.3129 -1.1477  0.0031
 6472SOL     OW21137   1.664   5.726   8.193 -0.0495  0.4133 -0.4690
 6472SOL    HW121138   1.638   5.749   8.104 -0.2178  2.2247 -0.0044
 6472SOL    HW221139   1.582   5.728   8.243  0.0907 -0.2646 -0.2044
 6473SOL     OW21140   9.513   0.378   0.717  0.5806 -0.4505 -0.4584
 6473SOL    HW121141   9.441   0.432   0.750  0.3156 -2.1609  1.9886
 6473SOL    HW221142   9.517   0.399   0.624 -1.5703  1.3871 -0.2323
 6474SOL     OW21143   9.686   4.943   5.153  0.1519 -0.4476 -0.0058
 6474SOL    HW121144   9.698   4.993   5.073  1.8191 -0.3723  0.2682
 6474SOL    HW221145   9.669   4.853   5.123 -0.5728 -0.1686 -0.4498
 6475SOL     OW21146   3.338   0.229   9.199  0.6893 -0.4490 -0.6487
 6475SOL    HW121147   3.267   0.284   9.232  0.7933 -0.3022 -0.6721
 6475SOL    HW221148   3.361   0.172   9.272  0.1165 -0.9312 -0.8332
 6476SOL     OW21149   1.324   7.436   3.305  0.2152  0.3695 -0.0541
 6476SOL    HW121150   1.345   7.399   3.391  1.2469 -0.0296 -0.4742
 6476SOL    HW221151   1.229   7.426   3.298  0.2232 -0.3553  0.6927
 6477SOL     OW21152   2.877   7.230   8.590 -0.3521 -0.6001  0.5120
 6477SOL    HW121153   2.944   7.220   8.523  0.1151 -2.1767  1.1877
 6477SOL    HW221154   2.924   7.266   8.665 -0.1556 -2.0787  1.1171
 6478SOL     OW21155   3.089   1.131   7.565  0.0624  0.1661  0.5117
 6478SOL    HW121156   3.142   1.051   7.560  1.3611  1.0112  0.0401
 6478SOL    HW221157   3.096   1.170   7.477  0.3722  1.3430  1.0370
 6479SOL     OW21158   4.333   7.835   1.315  0.5841  0.4374  0.6911
 6479SOL    HW121159   4.261   7.894   1.338 -2.1209 -1.4944 -1.9308
 6479SOL    HW221160   4.314   7.755   1.364  0.2674 -0.4300 -0.7931
 6480SOL     OW21161   1.907   3.626   8.052 -0.4041  0.1700 -0.0593
 6480SOL    HW121162   1.931   3.715   8.079  0.0436  0.4190 -1.2162
 6480SOL    HW221163   1.925   3.572   8.128  0.2894  0.9280  0.3232
 6481SOL     OW21164   1.523   0.131   6.997  0.0466 -0.4160 -0.1694
 6481SOL    HW121165   1.568   0.118   7.080  1.2215  0.3507 -0.6441
 6481SOL    HW221166   1.442   0.082   7.005  0.2621 -0.5804  1.3205
 6482SOL     OW21167   3.085   5.478   1.582 -0.0266  0.2969 -0.6563
 6482SOL    HW121168   3.025   5.476   1.507  0.3891  0.0243 -0.9822
 6482SOL    HW221169   3.104   5.571   1.594 -0.0128  0.3337 -0.9550
 6483SOL     OW21170   9.698   9.316   3.359 -0.3476  0.1527  0.2306
 6483SOL    HW121171   9.699   9.412   3.360  0.4343  0.1802 -0.7991
 6483SOL    HW221172   9.606   9.292   3.348 -0.4768  0.8054 -0.1416
 6484SOL     OW21173   3.489   3.783   6.138 -0.1007 -0.4917  0.4036
 6484SOL    HW121174   3.459   3.699   6.104 -0.5672 -0.8062  1.5488
 6484SOL    HW221175   3.505   3.836   6.060  0.1444 -1.6163 -0.3318
 6485SOL     OW21176   8.956   2.307   4.363 -0.6927 -0.2803  0.1579
 6485SOL    HW121177   8.935   2.275   4.276 -0.6229 -0.5675  0.2442
 6485SOL    HW221178   8.893   2.377   4.379 -1.7185 -1.2526  0.4899
 6486SOL     OW21179   3.369   6.020   1.055 -0.7571 -0.1118  0.9280
 6486SOL    HW121180   3.405   6.108   1.060 -1.1851  0.3165 -1.7590
 6486SOL    HW221181   3.279   6.033   1.023  0.0206 -1.5265 -2.2278
 6487SOL     OW21182   4.463   0.798   1.689  0.5672 -0.3047 -0.1541
 6487SOL    HW121183   4.491   0.727   1.746  0.3738  0.5764  1.0598
 6487SOL    HW221184   4.538   0.856   1.683  0.4041 -0.1094 -0.3417
 6488SOL     OW21185   1.162   0.457   6.614  0.8304 -0.0624  0.2379
 6488SOL    HW121186   1.166   0.536   6.559  1.3030  0.4018  0.9235
 6488SOL    HW221187   1.069   0.447   6.636  0.4381 -0.9626 -1.6343
 6489SOL     OW21188   5.470   0.434   4.964 -0.7659 -0.0433  0.5780
 6489SOL    HW121189   5.439   0.411   5.052  0.8478 -0.8239  0.9767
 6489SOL    HW221190   5.518   0.516   4.977 -2.1722  0.9044  0.0453
 6490SOL     OW21191   1.221   3.794   0.930  0.5962  0.0301 -0.0692
 6490SOL    HW121192   1.225   3.762   0.839  2.4177 -3.0043  0.9491
 6490SOL    HW221193   1.310   3.820   0.950  0.0354  1.4944  0.6472
 6491SOL     OW21194   4.437   0.117   1.997  0.7986  0.1474  0.4793
 6491SOL    HW121195   4.466   0.065   1.922 -1.3120 -0.9388  0.3508
 6491SOL    HW221196   4.407   0.200   1.960  0.0302 -0.2776  0.1355
 6492SOL     OW21197   1.188   9.273   5.211 -0.3489  0.1853  0.3958
 6492SOL    HW121198   1.101   9.294   5.244 -1.4309  0.1839 -2.1645
 6492SOL    HW221199   1.234   9.356   5.207 -1.4055  0.7535 -1.1545
 6493SOL     OW21200   5.404   9.259   1.186 -0.4092 -0.0413  0.5346
 6493SOL    HW121201   5.482   9.274   1.240  1.3216  0.7555 -1.9925
 6493SOL    HW221202   5.429   9.186   1.129 -2.1477 -0.8119  0.6877
 6494SOL     OW21203   5.057   6.182   0.094  0.6606 -0.2126  0.4111
 6494SOL    HW121204   4.977   6.227   0.121  0.5595  0.1479 -0.4466
 6494SOL    HW221205   5.080   6.223   0.010  0.6872 -1.5996 -0.2836
 6495SOL     OW21206   6.715   1.913   7.953 -0.3969 -0.1959 -0.1072
 6495SOL    HW121207   6.633   1.940   7.994  0.2947 -0.5427  1.5934
 6495SOL    HW221208   6.783   1.947   8.011  0.6506 -0.6166 -1.0514
 6496SOL     OW21209   0.196   0.284   4.975 -1.1024 -0.5568  0.2014
 6496SOL    HW121210   0.133   0.346   4.939 -1.1114 -0.6921 -0.0165
 6496SOL    HW221211   0.230   0.238   4.899  0.7609  0.9016  0.0909
 6497SOL     OW21212   9.511   2.679   7.453  0.3162 -0.3352  0.2310
 6497SOL    HW121213   9.452   2.753   7.470 -0.0527 -0.5615 -0.0360
 6497SOL    HW221214   9.548   2.696   7.367 -0.6847 -1.0424 -0.3643
 6498SOL     OW21215   2.873   2.726   9.322  0.1838  0.5813  0.8278
 6498SOL    HW121216   2.929   2.695   9.251  0.7126  2.2800  0.4459
 6498SOL    HW221217   2.867   2.653   9.383 -1.0395 -1.2670 -1.3739
 6499SOL     OW21218   5.731   1.828   8.251 -0.1901 -0.2784 -0.0502
 6499SOL    HW121219   5.675   1.861   8.182 -0.8907  0.9689  1.0652
 6499SOL    HW221220   5.771   1.906   8.290 -0.6723 -0.8327  1.6498
 6500SOL     OW21221   1.957   0.722   2.108  0.1541  0.0798  0.3054
 6500SOL    HW121222   2.045   0.722   2.071  0.0027  1.7131 -0.1751
 6500SOL    HW221223   1.901   0.746   2.035 -0.7202 -1.0875  0.5752
 6501SOL     OW21224   0.503   5.383   8.547  0.1114  0.3132 -0.4035
 6501SOL    HW121225   0.464   5.455   8.496  0.8368  1.5366  0.7123
 6501SOL    HW221226   0.428   5.334   8.580 -0.3833  0.0382 -1.8525
 6502SOL     OW21227   5.719   1.572   5.412  0.5167  0.2249 -0.4954
 6502SOL    HW121228   5.695   1.540   5.499  2.3690 -1.2593 -0.4570
 6502SOL    HW221229   5.727   1.666   5.422  0.4196  0.1074  0.8700
 6503SOL     OW21230   9.704   3.513   4.872  0.4553  0.0890 -0.5480
 6503SOL    HW121231   9.694   3.509   4.967  2.5035 -1.5548 -0.3485
 6503SOL    HW221232   9.720   3.423   4.845  2.5700  0.8414 -2.1107
 6504SOL     OW21233   8.746   7.462   1.354  0.5300 -0.5517 -0.4131
 6504SOL    HW121234   8.840   7.455   1.364  0.7087  1.3198 -0.4271
 6504SOL    HW221235   8.729   7.439   1.263  1.1284  0.1345 -0.7095
 6505SOL     OW21236   5.472   5.425   4.129  0.0121 -0.3481  0.2733
 6505SOL    HW121237   5.439   5.430   4.039  0.4204 -1.5687  0.0332
 6505SOL    HW221238   5.435   5.344   4.164  3.3003 -2.2558 -0.2895
 6506SOL     OW21239   4.016   0.188   5.905  0.4069 -0.7708  0.1315
 6506SOL    HW121240   4.105   0.223   5.903 -0.3803  1.4934  1.4461
 6506SOL    HW221241   3.999   0.171   5.997 -1.5346  1.8775  0.3881
 6507SOL     OW21242   9.248   7.424   6.894  0.3252  0.5186  0.2379
 6507SOL    HW121243   9.247   7.333   6.866  1.1065 -0.0013  1.7634
 6507SOL    HW221244   9.158   7.442   6.923  0.0462  0.3998 -0.5543
 6508SOL     OW21245   5.139   7.234   3.679 -0.6234  0.3434 -0.4259
 6508SOL    HW121246   5.118   7.311   3.731 -1.7998  0.2369 -0.7061
 6508SOL    HW221247   5.135   7.161   3.741  2.4701  0.6495  0.2936
 6509SOL     OW21248   3.051   0.863   1.725  0.2348 -0.1463 -0.3092
 6509SOL    HW121249   3.054   0.944   1.674  0.6946 -0.3929 -0.6733
 6509SOL    HW221250   3.060   0.892   1.816  0.4231  0.2081 -0.4396
 6510SOL     OW21251   8.331   8.595   6.015  0.3063 -0.0351 -0.1152
 6510SOL    HW121252   8.311   8.531   5.946  0.8350  0.2695 -0.5562
 6510SOL    HW221253   8.365   8.671   5.968  2.3162 -0.4452  0.5828
 6511SOL     OW21254   9.466   9.684   2.961 -0.1931  0.0450 -0.6999
 6511SOL    HW121255   9.498   9.767   2.924  2.1307 -0.5007 -0.0948
 6511SOL    HW221256   9.456   9.703   3.054  1.5123 -0.6109 -0.3448
 6512SOL     OW21257   6.005   0.210   8.388  0.0580 -0.1863 -0.1908
 6512SOL    HW121258   6.026   0.121   8.360  1.0009  0.3597 -1.2561
 6512SOL    HW221259   6.008   0.262   8.308  0.0277  0.9034  0.5040
 6513SOL     OW21260   0.191   8.107   3.275 -0.1665  0.0567 -0.0016
 6513SOL    HW121261   0.149   8.022   3.282  0.6905 -0.5081 -1.3832
 6513SOL    HW221262   0.262   8.094   3.212 -0.6724  2.0393 -1.0653
 6514SOL     OW21263   8.674   6.699   4.052 -0.4202  0.2437 -0.1944
 6514SOL    HW121264   8.679   6.779   3.999  1.2911 -1.1413 -2.2867
 6514SOL    HW221265   8.733   6.638   4.008 -2.0223 -2.3500  1.0481
 6515SOL     OW21266   6.157   6.785   4.546 -0.0291  0.0428  0.7434
 6515SOL    HW121267   6.091   6.835   4.595  0.4667  0.2066  1.2632
 6515SOL    HW221268   6.156   6.824   4.458 -1.3821 -0.6828  0.4185
 6516SOL     OW21269   7.820   7.133   6.513 -0.1272 -0.3515 -1.2721
 6516SOL    HW121270   7.907   7.168   6.495 -0.8194  2.9006  0.7846
 6516SOL    HW221271   7.767   7.158   6.437 -0.1490  1.4924 -0.6891
 6517SOL     OW21272   3.287   6.640   0.334 -0.7009 -0.3306  0.1479
 6517SOL    HW121273   3.339   6.691   0.271 -1.4944 -0.2340 -0.4369
 6517SOL    HW221274   3.234   6.582   0.280 -3.2911  1.5321  0.5373
 6518SOL     OW21275   9.519   3.984   2.332  0.2771 -0.6129  0.4360
 6518SOL    HW121276   9.464   3.925   2.280 -2.6726  0.0303  2.5218
 6518SOL    HW221277   9.506   3.955   2.423  2.3598  0.4852  1.1384
 6519SOL     OW21278   1.302   1.242   8.850  0.2942 -0.1174  0.5076
 6519SOL    HW121279   1.286   1.254   8.756 -1.7852 -0.0396  0.8113
 6519SOL    HW221280   1.307   1.330   8.886 -0.7195 -0.1319  0.7088
 6520SOL     OW21281   6.392   6.543   1.041  0.5266  0.1194 -0.3163
 6520SOL    HW121282   6.469   6.583   0.999  1.0192 -0.7706 -0.2690
 6520SOL    HW221283   6.392   6.453   1.010 -0.5830  0.1385 -0.4144
 6521SOL     OW21284   7.960   0.716   2.356 -0.7326 -0.0743  0.3433
 6521SOL    HW121285   8.005   0.749   2.278  0.0214  1.2130  1.2897
 6521SOL    HW221286   7.985   0.776   2.426  0.1799 -2.2860  2.0330
 6522SOL     OW21287   3.664   8.325   8.361 -0.2457 -0.0916  0.0845
 6522SOL    HW121288   3.657   8.247   8.306 -1.4705  0.9589 -1.3573
 6522SOL    HW221289   3.611   8.306   8.438 -1.4722 -0.2975 -0.7780
 6523SOL     OW21290   6.168   6.746   3.105  0.0593 -0.4587  0.2458
 6523SOL    HW121291   6.104   6.688   3.063 -0.7903  0.6529 -0.0625
 6523SOL    HW221292   6.117   6.824   3.128  1.1401  0.1100  0.7668
 6524SOL     OW21293   3.270   2.897   0.982 -1.1357  0.2536 -0.0780
 6524SOL    HW121294   3.175   2.896   0.984 -1.1743  1.6482  1.3599
 6524SOL    HW221295   3.292   2.975   0.931 -0.7483 -0.3672 -0.8736
 6525SOL     OW21296   5.536   3.736   1.439 -0.1310 -0.7531  0.6531
 6525SOL    HW121297   5.582   3.815   1.468 -1.5259  0.5522 -0.4850
 6525SOL    HW221298   5.450   3.742   1.480 -1.1080 -0.3755 -1.3352
 6526SOL     OW21299   2.666   0.714   3.849  0.2471  0.3557 -0.3334
 6526SOL    HW121300   2.744   0.661   3.832  0.9259  1.4116 -0.6591
 6526SOL    HW221301   2.627   0.675   3.927  0.7072 -0.6300 -0.5850
 6527SOL     OW21302   4.779   3.677   5.906  0.0416 -0.0450 -0.8235
 6527SOL    HW121303   4.767   3.635   5.821  1.3073  2.7837 -2.5256
 6527SOL    HW221304   4.865   3.717   5.902 -0.4141  1.3589  1.2725
 6528SOL     OW21305   7.890   8.671   2.163  0.3835 -0.1954  0.0133
 6528SOL    HW121306   7.940   8.651   2.242  0.0561  1.2709  0.6356
 6528SOL    HW221307   7.932   8.620   2.094  1.2625 -0.7840  0.9511
 6529SOL     OW21308   7.581   0.333   4.335 -0.1080  0.3509  0.4685
 6529SOL    HW121309   7.568   0.428   4.338  2.0295  0.6995  0.7490
 6529SOL    HW221310   7.662   0.322   4.285 -1.0208 -1.4446 -0.7269
 6530SOL     OW21311   5.271   3.629   1.135 -0.4609  0.1041  0.3857
 6530SOL    HW121312   5.269   3.577   1.216  1.5243  0.7265  0.8929
 6530SOL    HW221313   5.342   3.591   1.084 -1.6939 -0.2724 -1.1156
 6531SOL     OW21314   0.024   1.138   8.246 -0.2583 -0.7361  0.1905
 6531SOL    HW121315  -0.046   1.079   8.275 -0.3950  0.2421  1.9832
 6531SOL    HW221316   0.048   1.187   8.324  1.4778 -0.0506 -0.7194
 6532SOL     OW21317   1.558   6.978   8.340 -0.4316  0.4805  0.4002
 6532SOL    HW121318   1.592   7.039   8.406 -0.5351 -1.1046  2.0062
 6532SOL    HW221319   1.463   6.988   8.346 -0.5209 -0.7525  1.6732
 6533SOL     OW21320   4.663   2.935   5.228 -0.0708  0.3856 -0.0687
 6533SOL    HW121321   4.728   2.999   5.256  0.9144  0.1715 -1.7071
 6533SOL    HW221322   4.608   2.983   5.165 -1.1277  0.3873  0.8307
 6534SOL     OW21323   7.374   3.937   2.732  0.0394  0.1006 -0.3975
 6534SOL    HW121324   7.358   4.016   2.783 -1.6959 -0.6241  0.2558
 6534SOL    HW221325   7.360   3.865   2.794  4.0407 -0.7813 -0.2627
 6535SOL     OW21326   5.653   1.264   7.718 -0.2928 -0.4372  0.6811
 6535SOL    HW121327   5.619   1.340   7.671 -1.7652 -0.5206  1.5498
 6535SOL    HW221328   5.614   1.189   7.674 -1.6377 -0.5187  1.9479
 6536SOL     OW21329   8.834   0.709   5.177 -0.0493 -0.0191  0.3854
 6536SOL    HW121330   8.851   0.626   5.132 -0.2368 -0.2429  0.7165
 6536SOL    HW221331   8.881   0.701   5.260 -1.8916 -0.7492  1.4215
 6537SOL     OW21332   8.703   7.509   3.653 -0.3311  0.1648  0.0224
 6537SOL    HW121333   8.781   7.471   3.695 -0.9428 -0.7691  0.3572
 6537SOL    HW221334   8.633   7.495   3.717 -0.7790  0.9900 -0.2812
 6538SOL     OW21335   4.498   9.111   1.972 -0.2014 -0.4503 -0.2154
 6538SOL    HW121336   4.441   9.158   1.911  0.4642  0.4739 -0.1453
 6538SOL    HW221337   4.584   9.109   1.928  0.5344  1.0737  1.0720
 6539SOL     OW21338   4.286   3.574   4.899 -0.2526  0.1590 -0.1438
 6539SOL    HW121339   4.207   3.530   4.869 -0.1909  0.3900 -0.6557
 6539SOL    HW221340   4.268   3.594   4.991  0.3485 -2.3345  0.5884
 6540SOL     OW21341   5.677   0.300   0.056  0.3717 -0.2949  0.6275
 6540SOL    HW121342   5.755   0.253   0.086  1.0828 -0.3524 -1.1857
 6540SOL    HW221343   5.611   0.231   0.045  1.1348 -0.7959 -1.1315
 6541SOL     OW21344   4.902   2.965   9.704  0.0962  0.4286  0.0582
 6541SOL    HW121345   4.917   2.881   9.748  1.2256  0.2334 -0.6468
 6541SOL    HW221346   4.887   2.941   9.613  0.5119  0.9858 -0.1655
 6542SOL     OW21347   6.674   0.696   1.839 -0.2024  0.4481  0.2481
 6542SOL    HW121348   6.612   0.626   1.858  0.3387 -0.4066 -0.9831
 6542SOL    HW221349   6.688   0.691   1.745  0.9597  1.2836  0.3506
 6543SOL     OW21350   5.435   7.496   3.743 -0.0148 -0.1055 -0.1614
 6543SOL    HW121351   5.439   7.592   3.744  1.5316 -0.0689 -2.4129
 6543SOL    HW221352   5.525   7.469   3.760 -0.1595 -1.0981 -0.8931
 6544SOL     OW21353   7.496   2.107   3.834  0.1597 -0.6726  0.1436
 6544SOL    HW121354   7.560   2.043   3.802  0.3654 -0.2308 -0.3402
 6544SOL    HW221355   7.454   2.140   3.755  0.1713 -0.0866  0.3767
 6545SOL     OW21356   2.751   4.174   1.682  0.4593  0.2948  0.1279
 6545SOL    HW121357   2.713   4.257   1.653 -0.0155  0.3156  0.7857
 6545SOL    HW221358   2.812   4.198   1.751 -1.5052 -0.0603  2.1064
 6546SOL     OW21359   7.516   9.706   4.687 -0.0985 -0.3715  0.4954
 6546SOL    HW121360   7.475   9.622   4.664  0.7609 -0.4613 -0.8290
 6546SOL    HW221361   7.539   9.697   4.779 -1.1554 -1.1114  0.7060
 6547SOL     OW21362   4.821   2.770   7.489 -0.0073  0.3581 -0.1584
 6547SOL    HW121363   4.882   2.817   7.433  0.5224 -0.6300 -0.4327
 6547SOL    HW221364   4.773   2.712   7.429  1.4597 -1.6639  0.5144
 6548SOL     OW21365   8.244   5.695   1.029 -0.3547  0.4626 -0.4452
 6548SOL    HW121366   8.272   5.604   1.032 -0.7145  0.3183 -1.2674
 6548SOL    HW221367   8.306   5.738   0.970 -0.4874  0.6394 -0.4571
 6549SOL     OW21368   1.752   5.664   4.453  0.0625 -0.4384 -0.2337
 6549SOL    HW121369   1.831   5.717   4.455  0.2454 -0.6883  2.1009
 6549SOL    HW221370   1.693   5.706   4.516 -0.8636 -1.4120 -0.4189
 6550SOL     OW21371   2.926   2.876   4.672  0.3935 -0.1937 -0.2320
 6550SOL    HW121372   2.894   2.965   4.656  0.4956 -0.0056  0.5569
 6550SOL    HW221373   2.848   2.828   4.700  0.8719  0.4982  2.6252
 6551SOL     OW21374   3.064   5.457   8.583  0.0178 -0.4695 -0.2040
 6551SOL    HW121375   3.053   5.448   8.677  1.0819  1.4781  0.1632
 6551SOL    HW221376   2.993   5.515   8.555  0.6554  0.3092 -0.2755
 6552SOL     OW21377   0.978   7.413   5.728  0.1414  1.1233  0.1095
 6552SOL    HW121378   0.974   7.505   5.701  0.6856  1.2018  0.2685
 6552SOL    HW221379   0.887   7.386   5.736 -0.0227  1.5879 -0.1499
 6553SOL     OW21380   5.521   2.059   8.336  0.4628  0.0579  0.4778
 6553SOL    HW121381   5.498   2.152   8.343  1.0811  0.2146  0.4817
 6553SOL    HW221382   5.611   2.054   8.368  1.7012  0.0243 -2.6846
 6554SOL     OW21383   1.379   2.497   5.731  0.2395 -0.1611  0.6846
 6554SOL    HW121384   1.388   2.469   5.640  2.6588  1.3469  0.3710
 6554SOL    HW221385   1.467   2.491   5.767 -0.7109 -0.9941  3.0714
 6555SOL     OW21386   6.065   5.402   4.645 -0.1340  0.3919 -0.4785
 6555SOL    HW121387   6.055   5.495   4.624 -0.3890  0.5845  0.4398
 6555SOL    HW221388   6.143   5.398   4.701  0.4294 -0.0799 -1.2783
 6556SOL     OW21389   6.458   8.212   0.873  0.0219  0.3820  0.1260
 6556SOL    HW121390   6.390   8.229   0.808 -0.4105  0.0740  0.4902
 6556SOL    HW221391   6.519   8.153   0.829 -0.2383  0.2196 -0.0180
 6557SOL     OW21392   1.142   9.160   1.601  0.1379 -0.3993 -0.2180
 6557SOL    HW121393   1.072   9.108   1.562 -0.6604  0.4716  0.0205
 6557SOL    HW221394   1.189   9.098   1.657 -0.0266 -1.1450 -0.8827
 6558SOL     OW21395   2.180   6.099   2.778 -0.1743 -0.2025 -0.3436
 6558SOL    HW121396   2.121   6.132   2.845  1.7001  0.4968  1.0614
 6558SOL    HW221397   2.211   6.177   2.732 -1.0822 -0.6416 -1.7677
 6559SOL     OW21398   0.003   4.368   3.737  1.0546 -0.1298 -0.1629
 6559SOL    HW121399  -0.027   4.436   3.676  1.4525  0.4559  0.2868
 6559SOL    HW221400   0.080   4.406   3.779  0.6650 -0.4469  0.8643
 6560SOL     OW21401   1.859   2.662   0.968  0.1823 -0.2675 -0.0114
 6560SOL    HW121402   1.951   2.685   0.949  0.6395 -1.8419  0.1538
 6560SOL    HW221403   1.827   2.733   1.023  1.3591  0.2403  0.0436
 6561SOL     OW21404   0.315   7.308   3.216 -0.1660  0.2501  0.1025
 6561SOL    HW121405   0.384   7.299   3.150 -0.8835 -2.2119 -0.4364
 6561SOL    HW221406   0.276   7.394   3.199  0.2993  0.0830 -2.1049
 6562SOL     OW21407   4.072   5.462   5.187  0.0995  0.4903  0.1995
 6562SOL    HW121408   4.117   5.489   5.107 -0.0061  2.2928  0.7086
 6562SOL    HW221409   4.093   5.531   5.251 -0.3109 -0.5931  1.5518
 6563SOL     OW21410   6.004   4.083   7.202  0.1812 -0.0331  0.3945
 6563SOL    HW121411   6.086   4.116   7.239 -1.0474  0.8924  2.4802
 6563SOL    HW221412   6.022   3.990   7.184  2.3169  0.6393 -1.3093
 6564SOL     OW21413   5.548   5.260   8.336 -0.0235  0.2957 -0.0259
 6564SOL    HW121414   5.582   5.308   8.411  1.9976 -1.0220  0.0087
 6564SOL    HW221415   5.584   5.305   8.260 -2.7632  2.1471 -0.3510
 6565SOL     OW21416   4.657   2.050   2.547  0.1077  0.4445 -0.0233
 6565SOL    HW121417   4.562   2.037   2.552  0.1064  0.3704 -0.2646
 6565SOL    HW221418   4.684   2.064   2.638 -0.0069 -0.4478  0.1516
 6566SOL     OW21419   8.366   6.178   5.189  0.0088  0.2573 -0.7887
 6566SOL    HW121420   8.312   6.176   5.110  0.1629  2.6414 -1.0147
 6566SOL    HW221421   8.444   6.129   5.166 -0.4035  0.0400 -1.7541
 6567SOL     OW21422   6.838   9.329   1.491 -0.0317 -0.2940 -0.1993
 6567SOL    HW121423   6.893   9.406   1.506 -1.0211  0.4384 -0.2133
 6567SOL    HW221424   6.827   9.291   1.578 -1.0830  0.6815  0.1200
 6568SOL     OW21425   1.737   7.808   0.383 -0.1854  0.3396  0.3695
 6568SOL    HW121426   1.775   7.775   0.464  1.0454 -0.5235 -0.5278
 6568SOL    HW221427   1.786   7.889   0.365 -0.6361  0.6712  0.6093
 6569SOL     OW21428   7.898   8.452   5.529  0.3600 -0.6179  0.0180
 6569SOL    HW121429   7.983   8.483   5.498  0.1148  1.7789  1.4718
 6569SOL    HW221430   7.834   8.492   5.470  0.0949  1.0980  1.3565
 6570SOL     OW21431   8.701   8.464   8.967 -0.5435 -0.3045  0.3685
 6570SOL    HW121432   8.783   8.456   9.015  0.2349  1.4200 -0.5810
 6570SOL    HW221433   8.650   8.387   8.993  0.6071 -0.4455  2.4083
 6571SOL     OW21434   5.227   9.322   7.946 -0.5487 -0.2229 -0.0562
 6571SOL    HW121435   5.289   9.301   8.016 -0.8061 -0.3178  0.1445
 6571SOL    HW221436   5.262   9.402   7.906 -0.3493 -0.2221  0.1163
 6572SOL     OW21437   1.925   5.030   1.863 -0.1372 -0.0946 -0.1225
 6572SOL    HW121438   1.962   4.956   1.815  0.3086 -0.7221  1.1653
 6572SOL    HW221439   1.854   5.062   1.807 -0.6458 -1.7846 -0.4821
 6573SOL     OW21440   0.463   7.857   2.662 -0.4457  0.2656 -0.3105
 6573SOL    HW121441   0.484   7.944   2.696  0.5193 -0.9338  2.4685
 6573SOL    HW221442   0.371   7.863   2.637 -0.0082  2.4651 -1.7157
 6574SOL     OW21443   0.168   9.186   0.248 -0.2265  0.5038  0.5680
 6574SOL    HW121444   0.116   9.207   0.170 -0.2486 -1.0474  0.1212
 6574SOL    HW221445   0.241   9.247   0.245 -1.7744  2.4862  0.9959
 6575SOL     OW21446   3.808   6.256   7.855 -0.0895 -0.1806  0.4786
 6575SOL    HW121447   3.804   6.297   7.942  0.1790  0.4955  0.1834
 6575SOL    HW221448   3.717   6.253   7.826 -0.1435 -0.0754  0.6327
 6576SOL     OW21449   8.858   9.309   7.201 -0.3736  0.3857 -0.6147
 6576SOL    HW121450   8.918   9.382   7.218 -0.8690  0.8766 -0.9440
 6576SOL    HW221451   8.829   9.281   7.288  0.5700 -0.0696 -0.4334
 6577SOL     OW21452   5.000   2.865   0.413 -0.1415 -0.4399 -0.3829
 6577SOL    HW121453   5.062   2.807   0.457  1.4949 -0.5314 -2.6107
 6577SOL    HW221454   5.010   2.843   0.320 -0.9693  2.0141 -1.1128
 6578SOL     OW21455   0.175   1.040   5.786  0.6895  0.2565 -0.0859
 6578SOL    HW121456   0.229   1.076   5.857 -1.9675  0.4767  1.9999
 6578SOL    HW221457   0.114   1.110   5.765 -0.9549 -1.0667  0.0753
 6579SOL     OW21458   5.193   6.331   8.999 -0.7597 -0.0099 -0.6475
 6579SOL    HW121459   5.234   6.330   9.085  1.3318  0.2442 -1.5850
 6579SOL    HW221460   5.161   6.242   8.986 -1.3615  0.0256  0.4820
 6580SOL     OW21461   2.510   6.724   0.745  0.1586  0.3673  0.2591
 6580SOL    HW121462   2.604   6.738   0.757  0.1799  1.0786 -0.6380
 6580SOL    HW221463   2.470   6.760   0.825  0.6348  0.2529  0.5487
 6581SOL     OW21464   2.508   2.604   1.519  0.4391  0.4596  0.1715
 6581SOL    HW121465   2.414   2.613   1.509  0.2567 -0.6555  0.7321
 6581SOL    HW221466   2.526   2.636   1.608  0.5941  0.6745  0.0647
 6582SOL     OW21467   5.560   2.525   8.887 -0.2056  0.3899 -0.7645
 6582SOL    HW121468   5.492   2.584   8.920 -0.7392 -0.3609 -0.4724
 6582SOL    HW221469   5.585   2.562   8.802 -0.3752  1.1445 -0.4969
 6583SOL     OW21470   5.220   3.156   6.600  0.3359  0.3826 -0.3752
 6583SOL    HW121471   5.295   3.177   6.657  0.2003 -0.5746  0.1869
 6583SOL    HW221472   5.239   3.201   6.518  0.5407  1.8146  0.4153
 6584SOL     OW21473   5.445   4.690   1.238  0.1165  0.0799 -0.9885
 6584SOL    HW121474   5.374   4.627   1.229 -0.7537  0.7810  0.6529
 6584SOL    HW221475   5.466   4.716   1.148 -0.2754 -1.6705 -1.6166
 6585SOL     OW21476   6.579   7.096   3.310  0.3120 -0.2613  0.0418
 6585SOL    HW121477   6.603   7.006   3.330 -0.4569 -0.2697  0.9745
 6585SOL    HW221478   6.496   7.110   3.355  0.8303  1.1733  0.6028
 6586SOL     OW21479   2.073   5.215   1.603 -0.3349 -0.4269  0.2814
 6586SOL    HW121480   2.026   5.258   1.532 -1.3837  0.2487  1.3440
 6586SOL    HW221481   2.008   5.207   1.673  0.4814 -1.6733  0.9336
 6587SOL     OW21482   4.973   5.341   0.297 -0.4769 -0.3074 -0.2160
 6587SOL    HW121483   5.027   5.262   0.295 -1.0602 -0.7174 -0.1168
 6587SOL    HW221484   5.036   5.413   0.292  0.0470 -0.7779 -0.6720
 6588SOL     OW21485   7.036   8.860   3.291  1.3831  0.1603  0.2268
 6588SOL    HW121486   7.076   8.944   3.270  1.3540 -0.4552 -2.7344
 6588SOL    HW221487   7.110   8.804   3.316  1.7887  0.2790 -0.6832
 6589SOL     OW21488   3.424   4.857   6.185  0.1438  0.6101  0.0136
 6589SOL    HW121489   3.472   4.837   6.265 -0.4047 -0.9088 -0.0047
 6589SOL    HW221490   3.491   4.860   6.117  0.8041  3.2868  0.6882
 6590SOL     OW21491   1.323   0.021   1.211 -0.0141 -0.4796 -0.0359
 6590SOL    HW121492   1.297   0.100   1.164  2.2283 -0.2912 -1.0967
 6590SOL    HW221493   1.298  -0.051   1.153  1.3610 -0.3099 -0.9182
 6591SOL     OW21494   3.960   0.666   8.210  0.0461 -0.3589 -0.5414
 6591SOL    HW121495   3.918   0.683   8.126 -1.7745  1.1724  0.5879
 6591SOL    HW221496   4.020   0.740   8.221  0.1213 -0.4411 -0.4072
 6592SOL     OW21497   9.035   5.237   5.512 -0.1965  0.1200  0.1252
 6592SOL    HW121498   8.996   5.150   5.503 -0.0907  0.0360  0.4558
 6592SOL    HW221499   9.015   5.262   5.602  0.8442 -0.0914  0.4317
 6593SOL     OW21500   8.867   2.644   9.483  0.2002  0.4740 -0.7503
 6593SOL    HW121501   8.864   2.685   9.396  1.2479  2.3629  0.0459
 6593SOL    HW221502   8.936   2.578   9.476  1.3365  1.6523 -0.9632
 6594SOL     OW21503   9.489   7.005   1.047  0.5102 -0.0125  0.1028
 6594SOL    HW121504   9.488   6.913   1.022 -2.3115 -0.2972  0.8687
 6594SOL    HW221505   9.409   7.041   1.009  1.4869  2.1476 -0.0952
 6595SOL     OW21506   6.187   4.246   5.033 -0.0031 -0.8225  0.1902
 6595SOL    HW121507   6.278   4.250   5.063  0.1245 -0.7513 -0.1969
 6595SOL    HW221508   6.178   4.321   4.975 -0.5539 -0.3390  0.8788
 6596SOL     OW21509   7.778   1.128   9.199  0.2038 -0.1090 -0.2157
 6596SOL    HW121510   7.742   1.077   9.271 -0.0059 -0.0814 -0.2999
 6596SOL    HW221511   7.734   1.213   9.204  1.0482  0.3106  0.3403
 6597SOL     OW21512   2.435   5.385   8.473 -0.3250  0.0469  0.0774
 6597SOL    HW121513   2.490   5.409   8.548 -1.6122  0.1707  1.0054
 6597SOL    HW221514   2.352   5.430   8.489 -0.5126  0.3470 -1.6088
 6598SOL     OW21515   0.849   3.959   6.734  0.2514 -0.6558 -0.2778
 6598SOL    HW121516   0.768   3.997   6.769  0.9518  0.8058 -0.1633
 6598SOL    HW221517   0.911   3.962   6.807 -0.1420 -3.8117  0.3379
 6599SOL     OW21518   7.677   1.315   2.797 -0.1319 -0.1952  0.2682
 6599SOL    HW121519   7.608   1.341   2.736 -0.0021 -1.4716 -0.4732
 6599SOL    HW221520   7.714   1.236   2.758  2.2578  0.8447  0.2507
 6600SOL     OW21521   5.317   8.343   6.318 -0.3737  0.1111  0.1155
 6600SOL    HW121522   5.332   8.365   6.225  2.5421  0.6036  0.6103
 6600SOL    HW221523   5.226   8.367   6.333 -0.4815  1.5653 -2.2357
 6601SOL     OW21524   7.935   3.786   4.466 -0.1109  0.7617  0.0101
 6601SOL    HW121525   7.953   3.863   4.520 -0.6228  0.6459  0.3531
 6601SOL    HW221526   8.018   3.768   4.422  0.4900  0.5005  1.2197
 6602SOL     OW21527   0.284   5.926   9.675  0.2123  0.0511 -0.5489
 6602SOL    HW121528   0.290   5.928   9.770  1.0306 -0.5886 -0.5787
 6602SOL    HW221529   0.351   5.988   9.645  1.6519 -1.4864 -0.7264
 6603SOL     OW21530   1.704   9.523   7.052  0.1172  0.1006 -0.1727
 6603SOL    HW121531   1.684   9.607   7.092  0.5466  1.0897 -1.8977
 6603SOL    HW221532   1.630   9.505   6.994  0.9336  0.3089 -1.3135
 6604SOL     OW21533   2.201   1.739   6.374 -0.0347  0.1255 -0.1008
 6604SOL    HW121534   2.128   1.683   6.400 -0.3757  1.1197  1.2039
 6604SOL    HW221535   2.221   1.791   6.452  1.7535  0.2331 -0.5827
 6605SOL     OW21536   3.694   5.424   1.057 -0.1484  0.0181 -0.0815
 6605SOL    HW121537   3.617   5.480   1.054 -1.1732 -1.1195  2.1553
 6605SOL    HW221538   3.667   5.344   1.012  0.0030 -0.0647 -0.0252
 6606SOL     OW21539   6.783   2.230   0.284 -0.1220  0.7337 -0.4609
 6606SOL    HW121540   6.862   2.216   0.337  0.1422  0.1004 -1.0040
 6606SOL    HW221541   6.817   2.263   0.200 -0.4269  0.3943 -0.7186
 6607SOL     OW21542   1.866   8.930   1.441 -0.2324 -0.8477 -0.5656
 6607SOL    HW121543   1.953   8.890   1.446  1.6125  2.8614  0.2521
 6607SOL    HW221544   1.872   8.993   1.370 -1.9150  0.2433  0.1828
 6608SOL     OW21545   7.282   5.412   0.313  0.2576 -0.4748  0.5676
 6608SOL    HW121546   7.255   5.480   0.374  1.8611  0.0294  0.7534
 6608SOL    HW221547   7.295   5.335   0.368 -0.2406 -0.5750  0.5529
 6609SOL     OW21548   8.882   1.479   4.500  0.0420 -0.6363 -0.0280
 6609SOL    HW121549   8.933   1.515   4.427  1.2224 -0.6839  0.7353
 6609SOL    HW221550   8.854   1.393   4.469  1.4920 -1.1302 -0.0519
 6610SOL     OW21551   8.420   2.014   5.163 -0.3129  0.1118  0.0564
 6610SOL    HW121552   8.507   2.012   5.203 -0.6347 -0.7710  0.7713
 6610SOL    HW221553   8.433   1.978   5.076  0.0553  0.0498  0.1342
 6611SOL     OW21554   9.637   8.267   7.691  0.2339  0.0621  0.2795
 6611SOL    HW121555   9.608   8.249   7.602 -0.0857  1.0826  0.1719
 6611SOL    HW221556   9.557   8.266   7.743  0.3924 -0.2815  0.5255
 6612SOL     OW21557   6.293   6.557   8.012  0.0354 -0.4600  0.0551
 6612SOL    HW121558   6.381   6.592   8.022  0.2413 -0.5064 -1.3582
 6612SOL    HW221559   6.290   6.482   8.072  1.1261 -0.7420 -0.2215
 6613SOL     OW21560   8.697   1.788   5.245  0.3523 -0.4042  0.4847
 6613SOL    HW121561   8.670   1.753   5.330  1.5123 -0.2894  0.9195
 6613SOL    HW221562   8.692   1.883   5.256 -0.6385 -0.3955  0.0301
 6614SOL     OW21563   0.491   1.719   9.466 -0.1308 -0.1404 -0.2802
 6614SOL    HW121564   0.467   1.806   9.434  0.1468  0.3496  0.8018
 6614SOL    HW221565   0.456   1.717   9.555  0.0259 -1.0735 -0.2372
 6615SOL     OW21566   5.691   5.858   6.264 -0.2515  0.1386  0.7939
 6615SOL    HW121567   5.738   5.780   6.293 -0.9005 -0.2151  0.9164
 6615SOL    HW221568   5.599   5.840   6.285 -0.4323  0.8545  0.6446
 6616SOL     OW21569   0.514   1.495   4.170 -0.0419 -0.2160 -0.4154
 6616SOL    HW121570   0.529   1.588   4.154  0.8490  0.0629  1.7076
 6616SOL    HW221571   0.439   1.492   4.229 -0.7644 -0.9324 -1.3431
 6617SOL     OW21572   6.599   6.828   9.491 -0.1791 -0.1886  0.3269
 6617SOL    HW121573   6.525   6.888   9.487  0.0289  0.0321 -0.2487
 6617SOL    HW221574   6.628   6.819   9.401  1.0392  0.3968  0.6457
 6618SOL     OW21575   3.370   2.533   3.122 -0.2526  0.2034 -0.3068
 6618SOL    HW121576   3.450   2.584   3.104  0.5171 -0.4542  1.0814
 6618SOL    HW221577   3.364   2.532   3.217 -0.8558 -1.3868 -0.3435
 6619SOL     OW21578   7.291   2.449   9.051 -0.1686 -0.4678  0.1263
 6619SOL    HW121579   7.203   2.467   9.019 -0.3177 -2.7383 -0.9611
 6619SOL    HW221580   7.280   2.429   9.143 -0.4866  1.0560  0.4434
 6620SOL     OW21581   1.214   2.384   6.756 -0.1390 -0.4237  0.2859
 6620SOL    HW121582   1.281   2.330   6.799 -0.3376  0.6511  2.0419
 6620SOL    HW221583   1.159   2.415   6.828 -0.0806  2.0271 -0.6486
 6621SOL     OW21584   7.420   4.468   2.638  0.5022 -0.0185 -0.1859
 6621SOL    HW121585   7.447   4.413   2.711 -2.3907  1.3312  2.1372
 6621SOL    HW221586   7.375   4.409   2.578  3.7817 -1.3280 -1.5447
 6622SOL     OW21587   9.350   2.879   7.517 -0.3521 -0.0551  0.0109
 6622SOL    HW121588   9.254   2.882   7.506 -0.2230  0.2387 -1.1450
 6622SOL    HW221589   9.377   2.971   7.519  0.1106 -0.1026 -1.8732
 6623SOL     OW21590   3.963   3.003   1.655 -0.1247  0.3067 -0.1892
 6623SOL    HW121591   3.874   2.974   1.636  0.2617 -0.5172 -0.8326
 6623SOL    HW221592   3.972   2.993   1.750 -0.9632  1.1577 -0.0071
 6624SOL     OW21593   7.024   4.186   5.345 -0.1838 -0.1033  0.2482
 6624SOL    HW121594   7.069   4.111   5.384 -0.3496  0.7390  2.2099
 6624SOL    HW221595   6.935   4.181   5.380  0.2045  1.7887  1.6627
 6625SOL     OW21596   2.964   8.890   8.479  0.2281  0.9302  0.4386
 6625SOL    HW121597   3.040   8.906   8.423 -1.0131  2.3919 -0.9296
 6625SOL    HW221598   2.939   8.799   8.460  1.2884  0.5993  0.5228
 6626SOL     OW21599   3.012   7.306   2.785  0.4230  0.5255  0.2788
 6626SOL    HW121600   2.944   7.270   2.842  0.5835 -1.3885 -0.6446
 6626SOL    HW221601   2.974   7.302   2.697  0.3323  3.0370  0.1473
 6627SOL     OW21602   3.090   4.007   1.062 -0.2105 -0.2924 -0.0998
 6627SOL    HW121603   3.094   3.954   1.142 -0.2726  0.3855  0.3627
 6627SOL    HW221604   3.180   4.037   1.049 -0.1494 -0.6066 -0.4363
 6628SOL     OW21605   1.009   0.277   9.656  0.5089  0.1595  0.0144
 6628SOL    HW121606   1.023   0.193   9.613  1.0370  0.4986 -0.4800
 6628SOL    HW221607   1.079   0.333   9.624 -0.3133  1.0382 -0.2823
 6629SOL     OW21608   0.974   3.889   5.800  0.3375 -0.3179  0.0712
 6629SOL    HW121609   0.978   3.821   5.733 -1.4144 -1.9358  1.4631
 6629SOL    HW221610   1.000   3.844   5.881 -2.3359  0.1568  1.3034
 6630SOL     OW21611   3.250   9.066   6.318 -0.0395  0.6166 -0.4723
 6630SOL    HW121612   3.165   9.039   6.282  0.4868  0.4263 -1.6453
 6630SOL    HW221613   3.313   9.006   6.277  0.5634  0.0310  1.2190
 6631SOL     OW21614   6.951   1.876   8.780  0.3391 -0.5323 -0.2594
 6631SOL    HW121615   6.955   1.900   8.687  1.0264 -0.7917 -0.3005
 6631SOL    HW221616   6.860   1.848   8.793 -0.0861  0.6689 -0.5591
 6632SOL     OW21617   4.565   5.594   1.482  0.3452 -0.0168  0.1086
 6632SOL    HW121618   4.563   5.500   1.465  0.0808  0.2645 -1.6161
 6632SOL    HW221619   4.536   5.602   1.573  1.2881 -1.6431  0.6033
 6633SOL     OW21620   1.612   2.140   2.153 -0.3589 -1.0577 -0.1102
 6633SOL    HW121621   1.565   2.223   2.169 -1.1849 -1.1441 -1.9013
 6633SOL    HW221622   1.697   2.167   2.119 -0.3255 -0.9385  0.0647
 6634SOL     OW21623   0.914   4.733   6.443  0.6269  0.1582 -0.0294
 6634SOL    HW121624   0.862   4.799   6.397 -0.8087 -0.9388 -0.0282
 6634SOL    HW221625   0.959   4.783   6.511  1.3792  1.5052 -1.4428
 6635SOL     OW21626   3.357   4.136   8.073  0.3998  0.1016 -0.3301
 6635SOL    HW121627   3.443   4.167   8.101 -0.0848  0.0736  1.3200
 6635SOL    HW221628   3.376   4.068   8.009  1.6149  0.0009  0.1052
 6636SOL     OW21629   5.970   2.688   0.187  0.8435 -0.4429  0.2261
 6636SOL    HW121630   6.006   2.658   0.271 -0.5734 -0.2596  0.9313
 6636SOL    HW221631   6.007   2.775   0.175  0.8424 -0.3507  0.8269
 6637SOL     OW21632   5.411   3.983   6.183  0.1153 -0.2858 -0.1837
 6637SOL    HW121633   5.477   4.040   6.222  1.3056 -1.9804  0.4175
 6637SOL    HW221634   5.388   3.922   6.253  0.5030 -1.8965 -1.4034
 6638SOL     OW21635   0.389   8.513   8.884 -0.3896  0.3620 -0.1949
 6638SOL    HW121636   0.346   8.580   8.937 -0.4742  0.2960 -0.1799
 6638SOL    HW221637   0.324   8.443   8.876  0.2939 -0.4719  1.2274
 6639SOL     OW21638   5.951   1.084   1.809  0.4433 -0.5763  0.4989
 6639SOL    HW121639   5.974   1.011   1.866  1.0830 -0.6370  0.1675
 6639SOL    HW221640   5.878   1.052   1.757  1.5258 -1.4242 -0.5259
 6640SOL     OW21641   4.269   4.849   1.571 -0.2591  0.1996  0.2739
 6640SOL    HW121642   4.264   4.913   1.500 -0.4467 -0.1888 -0.0748
 6640SOL    HW221643   4.351   4.803   1.556 -0.3575  0.0340  0.2321
 6641SOL     OW21644   8.229   8.261   2.005 -0.2471  0.1165  0.6910
 6641SOL    HW121645   8.210   8.343   1.959  0.8500  0.3357  0.6034
 6641SOL    HW221646   8.225   8.283   2.098 -1.1394 -0.0180  0.6918
 6642SOL     OW21647   2.916   2.732   5.745 -0.4385  0.5469 -0.0476
 6642SOL    HW121648   2.953   2.678   5.816  0.2245  1.4867  0.3378
 6642SOL    HW221649   2.904   2.818   5.784 -0.7312  0.8949 -0.8887
 6643SOL     OW21650   3.333   0.525   5.113  0.3181  0.2014  0.3174
 6643SOL    HW121651   3.312   0.433   5.126  0.9459  0.0808  0.5296
 6643SOL    HW221652   3.274   0.554   5.044  1.0265 -0.7128 -0.7057
 6644SOL     OW21653   6.070   1.967   8.196 -0.2081 -0.5403  0.4054
 6644SOL    HW121654   6.159   2.001   8.202  0.7266 -2.2767 -2.0256
 6644SOL    HW221655   6.022   2.032   8.147  0.6322 -1.0406 -1.1402
 6645SOL     OW21656   5.349   5.820   0.856 -0.0477  0.5185  0.3796
 6645SOL    HW121657   5.295   5.814   0.777  1.4336 -0.3119 -0.6253
 6645SOL    HW221658   5.287   5.807   0.928 -1.5553  1.9892 -0.5782
 6646SOL     OW21659   1.436   8.275   3.980  0.0841 -0.3859 -0.1433
 6646SOL    HW121660   1.379   8.326   3.922  0.1898 -1.5689 -1.3254
 6646SOL    HW221661   1.395   8.284   4.066 -2.1675 -1.5298 -1.0091
 6647SOL     OW21662   6.312   6.670   0.515  0.3067 -0.1488  0.1054
 6647SOL    HW121663   6.317   6.688   0.609  3.1540 -0.5099  0.1012
 6647SOL    HW221664   6.351   6.748   0.474  0.0814 -0.4581 -0.7125
 6648SOL     OW21665   1.230   3.974   1.509 -0.2862 -0.0380 -0.4422
 6648SOL    HW121666   1.200   3.934   1.427  0.5250  0.4302 -0.9897
 6648SOL    HW221667   1.294   3.911   1.544 -1.7340 -0.9646  0.6446
 6649SOL     OW21668   7.638   2.796   6.575  0.2150 -0.4951  0.1384
 6649SOL    HW121669   7.634   2.823   6.483  1.2630  1.8792  0.7057
 6649SOL    HW221670   7.728   2.764   6.586  0.6076  0.7369  0.6711
 6650SOL     OW21671   8.797   6.859   1.892 -0.3658 -0.4970  0.6627
 6650SOL    HW121672   8.860   6.792   1.919 -0.2944 -0.9412 -0.5068
 6650SOL    HW221673   8.833   6.893   1.810 -0.6728  0.6199  0.9776
 6651SOL     OW21674   9.513   4.080   9.249  0.3952  0.1634 -0.3693
 6651SOL    HW121675   9.457   4.044   9.180  0.1573 -1.5519  0.6547
 6651SOL    HW221676   9.487   4.172   9.256 -1.6675 -0.3529 -0.5456
 6652SOL     OW21677   8.403   8.807   4.963  0.7853  0.6807 -0.0947
 6652SOL    HW121678   8.472   8.815   4.897 -0.2991  0.4646 -1.2842
 6652SOL    HW221679   8.429   8.868   5.032  1.5861  1.4360 -1.0369
 6653SOL     OW21680   3.176   9.360   4.481  0.3596  0.3339 -0.7465
 6653SOL    HW121681   3.081   9.345   4.473  0.0095  2.0721 -0.3025
 6653SOL    HW221682   3.198   9.415   4.406  1.0605 -0.1684 -0.9203
 6654SOL     OW21683   9.183   5.349   9.663  0.8029  0.0202  1.2867
 6654SOL    HW121684   9.255   5.399   9.625 -0.4425  0.3921 -0.7313
 6654SOL    HW221685   9.111   5.411   9.670 -0.1009 -0.9287  0.8265
 6655SOL     OW21686   1.533   1.816   8.392 -0.6267  0.2617 -0.1910
 6655SOL    HW121687   1.627   1.813   8.376 -0.1170 -0.1808  2.3315
 6655SOL    HW221688   1.496   1.857   8.314  1.8521  2.0073 -0.5866
 6656SOL     OW21689   7.045   3.331   1.437  0.2457 -0.4383 -0.4245
 6656SOL    HW121690   7.102   3.364   1.368 -1.0429 -1.4995 -2.0723
 6656SOL    HW221691   6.998   3.257   1.397 -1.7731 -0.0404  1.0273
 6657SOL     OW21692   6.935   3.073   9.110 -0.4686 -0.0898 -0.6934
 6657SOL    HW121693   6.974   3.040   9.191 -1.5967  0.7051  0.2251
 6657SOL    HW221694   6.914   2.995   9.059 -0.8780 -0.6840  0.3452
 6658SOL     OW21695   0.738   7.904   2.683  0.0418  0.2682  0.4096
 6658SOL    HW121696   0.791   7.831   2.649  0.8924 -0.3245  2.8075
 6658SOL    HW221697   0.648   7.871   2.680  0.2842 -0.4067  0.3305
 6659SOL     OW21698   7.401   8.132   8.774 -0.0611 -0.1253  0.0237
 6659SOL    HW121699   7.410   8.213   8.724 -0.6566 -0.1061 -0.0619
 6659SOL    HW221700   7.370   8.161   8.860  0.8793 -0.1657  0.3874
 6660SOL     OW21701   5.741   6.308   8.449 -0.2640 -0.4243  0.4011
 6660SOL    HW121702   5.674   6.321   8.516  1.3509  1.4363  1.8044
 6660SOL    HW221703   5.795   6.386   8.455  0.2309 -0.4063 -2.8458
 6661SOL     OW21704   8.529   8.809   0.805 -0.3089  0.3344  0.5118
 6661SOL    HW121705   8.611   8.761   0.813 -0.3322  0.2911  0.4876
 6661SOL    HW221706   8.478   8.761   0.740 -0.7135 -0.1507  1.1692
 6662SOL     OW21707   1.534   5.640   0.734  0.1022 -0.0925 -0.3487
 6662SOL    HW121708   1.619   5.606   0.705  0.6858 -0.0047  1.1716
 6662SOL    HW221709   1.555   5.723   0.777 -0.7014 -0.2609  0.3823
 6663SOL     OW21710   8.769   3.537   8.183 -0.3852 -0.2243  0.2100
 6663SOL    HW121711   8.715   3.556   8.260 -0.4337  1.9090 -0.2834
 6663SOL    HW221712   8.825   3.464   8.209  0.2706  1.0513  2.6310
 6664SOL     OW21713   5.368   1.392   4.075  0.0831  0.2341 -0.4516
 6664SOL    HW121714   5.305   1.385   4.146 -0.2679  0.2428 -0.7588
 6664SOL    HW221715   5.453   1.400   4.119  0.2918 -3.0455 -0.0267
 6665SOL     OW21716   3.806   4.926   8.418  0.5725  0.6334  0.3970
 6665SOL    HW121717   3.832   4.880   8.498  0.6190  1.5194  0.9080
 6665SOL    HW221718   3.735   4.873   8.382  0.3615  0.3677  1.1736
 6666SOL     OW21719   8.033   8.043   2.577  0.4996 -0.1388 -0.0357
 6666SOL    HW121720   7.964   8.108   2.564  2.2699  1.9528  0.4527
 6666SOL    HW221721   8.013   7.973   2.515 -2.7933 -0.3128  1.0627
 6667SOL     OW21722   4.225   1.490   7.426 -0.1830 -0.5720  0.1536
 6667SOL    HW121723   4.203   1.471   7.517 -0.4890  0.8481  0.3874
 6667SOL    HW221724   4.317   1.516   7.428 -0.5085  0.6247  0.2507
 6668SOL     OW21725   4.660   0.831   0.285 -0.1646 -0.0323  0.1574
 6668SOL    HW121726   4.691   0.909   0.332  1.6720  0.2092 -1.3283
 6668SOL    HW221727   4.718   0.761   0.315  0.5725 -0.0177 -1.1877
 6669SOL     OW21728   6.171   8.836   0.846  0.1633  0.2681  0.0527
 6669SOL    HW121729   6.253   8.787   0.844  0.6166  1.0322 -0.7074
 6669SOL    HW221730   6.181   8.896   0.920  0.6447  0.9448 -0.5536
 6670SOL     OW21731   8.384   3.101   0.138  0.2791  1.0794  0.0276
 6670SOL    HW121732   8.408   3.012   0.111 -1.3613  0.2267  1.2156
 6670SOL    HW221733   8.467   3.149   0.137  1.2225 -0.4608 -0.5695
 6671SOL     OW21734   2.164   8.070   4.462 -0.5006  0.2059 -0.5203
 6671SOL    HW121735   2.227   8.139   4.440  0.3132 -0.4761 -0.3683
 6671SOL    HW221736   2.202   8.025   4.537 -1.0742 -0.3430 -0.5499
 6672SOL     OW21737   2.445   2.543   2.499 -0.4778 -0.3832  0.1480
 6672SOL    HW121738   2.476   2.536   2.590 -0.2852 -0.3398  0.0853
 6672SOL    HW221739   2.418   2.634   2.489  0.2850 -0.1816 -0.0913
 6673SOL     OW21740   7.929   1.463   6.596  0.3494 -0.2564  0.0991
 6673SOL    HW121741   7.922   1.507   6.511 -0.0670 -2.1060 -0.8593
 6673SOL    HW221742   7.884   1.522   6.657 -0.0766  0.7040 -1.1092
 6674SOL     OW21743   3.983   8.799   1.783 -0.3969 -0.1148  0.3520
 6674SOL    HW121744   4.009   8.766   1.869 -1.4288 -0.1171  0.6744
 6674SOL    HW221745   4.063   8.837   1.747 -0.0177  0.1535  1.4344
 6675SOL     OW21746   9.481   0.666   5.976 -0.0208 -0.3971 -0.4042
 6675SOL    HW121747   9.434   0.583   5.970 -0.6540 -0.1445  0.7243
 6675SOL    HW221748   9.510   0.684   5.887 -1.5796 -0.8593 -1.0417
 6676SOL     OW21749   7.194   4.162   3.242  0.3102 -0.0069 -0.0356
 6676SOL    HW121750   7.158   4.225   3.179 -0.1089  0.8672  1.0434
 6676SOL    HW221751   7.223   4.216   3.316 -1.5760 -1.1803  1.6504
 6677SOL     OW21752   7.852   6.755   1.341  0.7652  0.2065 -0.0550
 6677SOL    HW121753   7.844   6.849   1.354  3.0104  0.2922  1.3340
 6677SOL    HW221754   7.922   6.745   1.278  1.2115 -0.5281  0.5388
 6678SOL     OW21755   6.684   8.792   4.467 -0.2452  0.0692  0.2149
 6678SOL    HW121756   6.645   8.753   4.546  0.0759 -1.0890 -0.1783
 6678SOL    HW221757   6.656   8.883   4.469 -1.4587 -0.2954  0.9125
 6679SOL     OW21758   2.494   0.346   6.015 -0.4440  0.4880 -0.2170
 6679SOL    HW121759   2.493   0.410   5.945 -0.1650 -0.2335 -0.8981
 6679SOL    HW221760   2.493   0.261   5.970 -0.4923  0.0126  0.6531
 6680SOL     OW21761   2.436   1.332   1.652 -0.1385 -0.3814 -0.2880
 6680SOL    HW121762   2.443   1.395   1.581  0.3298 -0.5799 -0.4214
 6680SOL    HW221763   2.462   1.249   1.612  1.6647 -0.2259  0.5039
 6681SOL     OW21764   6.200   7.246   5.664  0.2940  0.2471 -0.0831
 6681SOL    HW121765   6.188   7.156   5.696  0.7724 -0.2592 -1.2821
 6681SOL    HW221766   6.275   7.240   5.605 -0.7760  1.0806 -1.5724
 6682SOL     OW21767   8.148   5.745   1.314 -0.1736  0.3532 -0.0377
 6682SOL    HW121768   8.170   5.775   1.226 -0.7334  1.8069  0.2895
 6682SOL    HW221769   8.232   5.736   1.358  0.2603 -2.0518 -1.1782
 6683SOL     OW21770   8.873   1.224   8.001  0.2279 -0.1791 -0.4264
 6683SOL    HW121771   8.926   1.153   7.966  0.0555 -1.7146  2.2175
 6683SOL    HW221772   8.937   1.286   8.036  0.3534  0.7703 -2.1925
 6684SOL     OW21773   5.890   7.117   7.761 -0.2534  0.5763  0.1773
 6684SOL    HW121774   5.949   7.116   7.686  1.0059 -0.6934  1.1169
 6684SOL    HW221775   5.940   7.074   7.831 -1.3282  1.8371  1.7882
 6685SOL     OW21776   8.395   2.968   0.445  0.0876  0.2569 -0.6535
 6685SOL    HW121777   8.475   3.020   0.436  0.4908 -0.2797 -0.2392
 6685SOL    HW221778   8.351   2.976   0.360 -0.1981  1.8061 -0.3909
 6686SOL     OW21779   3.079   0.701   3.046  0.0155 -0.2386  0.0689
 6686SOL    HW121780   3.005   0.672   3.099  0.6816 -0.1365  1.0789
 6686SOL    HW221781   3.089   0.794   3.068  0.0138 -0.0725 -0.5976
 6687SOL     OW21782   9.210   7.729   9.645  0.3645 -0.2649  0.0630
 6687SOL    HW121783   9.209   7.799   9.711 -0.9316 -1.8625  1.8826
 6687SOL    HW221784   9.118   7.717   9.622  0.7780  0.1214 -1.9903
 6688SOL     OW21785   3.387   5.341   2.179 -0.7287  0.5650  0.1723
 6688SOL    HW121786   3.482   5.352   2.174 -0.0543 -2.8163  2.3727
 6688SOL    HW221787   3.365   5.291   2.101 -0.0574 -1.4453  1.1931
 6689SOL     OW21788   6.147   1.262   6.577 -0.3119 -0.0104  0.3693
 6689SOL    HW121789   6.173   1.254   6.669 -0.4808 -0.9522  0.3519
 6689SOL    HW221790   6.226   1.242   6.528 -0.4664 -0.5142  0.3170
 6690SOL     OW21791   9.122   9.063   4.894  0.2537 -0.4769 -0.3267
 6690SOL    HW121792   9.185   9.131   4.917  2.2447 -2.0625 -0.8157
 6690SOL    HW221793   9.103   9.018   4.976  0.3232 -0.4497 -0.2957
 6691SOL     OW21794   0.947   8.442   2.138  0.7609 -0.1991 -0.3259
 6691SOL    HW121795   0.964   8.499   2.063 -0.1086  1.3802  0.6248
 6691SOL    HW221796   0.873   8.388   2.111  0.5769  0.2221 -0.6667
 6692SOL     OW21797   2.576   0.904   5.204  0.0179  0.1405 -0.1210
 6692SOL    HW121798   2.589   0.996   5.180  0.1279 -0.0186 -0.6851
 6692SOL    HW221799   2.662   0.864   5.195  0.1774  0.1760  1.0473
 6693SOL     OW21800   7.329   4.134   1.493 -0.2047 -0.4036  0.1204
 6693SOL    HW121801   7.313   4.045   1.527 -0.2049  0.1185  1.5606
 6693SOL    HW221802   7.242   4.174   1.490 -0.1186 -0.2128  0.1930
 6694SOL     OW21803   7.111   5.714   3.003 -0.4136 -0.8449  0.5772
 6694SOL    HW121804   7.105   5.667   2.920  0.0113 -0.5670  0.3858
 6694SOL    HW221805   7.079   5.802   2.982 -3.0174 -1.5258  1.3569
 6695SOL     OW21806   5.163   8.899   5.501  0.0808  0.4025 -0.0132
 6695SOL    HW121807   5.095   8.910   5.435 -0.5602  0.3392  0.6270
 6695SOL    HW221808   5.163   8.981   5.550 -0.7242 -0.2218  1.0784
 6696SOL     OW21809   0.422   7.174   8.413  0.1712 -0.5119 -0.0796
 6696SOL    HW121810   0.408   7.205   8.323 -2.3449  0.5077  0.5624
 6696SOL    HW221811   0.415   7.079   8.407  1.5036 -0.5702 -1.1485
 6697SOL     OW21812   2.356   3.877   4.948  0.2581 -0.2014 -0.3429
 6697SOL    HW121813   2.341   3.950   4.888  0.0185 -1.1703 -1.4860
 6697SOL    HW221814   2.283   3.883   5.010  0.2396  0.5222 -0.4222
 6698SOL     OW21815   3.218   7.243   2.952  0.2447  0.7889 -0.1561
 6698SOL    HW121816   3.158   7.268   2.881 -0.1002  1.6511  0.4305
 6698SOL    HW221817   3.187   7.292   3.028  1.9966  1.6396  0.0403
 6699SOL     OW21818   0.565   2.186   0.369 -0.7220  0.2067 -0.0194
 6699SOL    HW121819   0.593   2.108   0.321  0.7173 -0.7930  2.3032
 6699SOL    HW221820   0.562   2.158   0.461 -0.3604  2.8348  0.8721
 6700SOL     OW21821   7.052   4.005   0.988 -0.5413 -0.1121 -0.1635
 6700SOL    HW121822   7.133   3.957   0.970 -0.4027 -0.9177  2.3117
 6700SOL    HW221823   6.984   3.956   0.942 -0.0811 -1.4230  0.5241
 6701SOL     OW21824   5.636   5.438   6.170  0.4469 -0.8508  0.8910
 6701SOL    HW121825   5.597   5.374   6.230 -2.5608 -2.8828 -2.7582
 6701SOL    HW221826   5.565   5.500   6.152  1.3357 -0.1336 -0.2991
 6702SOL     OW21827   3.198   7.047   4.023  0.6558  0.0868  0.0071
 6702SOL    HW121828   3.197   7.138   3.993 -0.9189  0.4178  0.9269
 6702SOL    HW221829   3.267   7.043   4.089  0.9314  0.5489 -0.2576
 6703SOL     OW21830   6.103   8.879   6.325 -0.2223  0.2288 -0.1737
 6703SOL    HW121831   6.095   8.973   6.341 -1.0443  0.0385  0.6591
 6703SOL    HW221832   6.161   8.848   6.395 -0.3343  0.0500 -0.1599
 6704SOL     OW21833   1.032   0.176   6.373 -0.0369  0.2416 -0.1997
 6704SOL    HW121834   1.037   0.116   6.298 -0.2535  0.0495 -0.0601
 6704SOL    HW221835   1.004   0.121   6.446  0.6740  0.3234  0.1426
 6705SOL     OW21836   7.979   6.052   5.980 -0.0921  0.0375 -0.0143
 6705SOL    HW121837   8.075   6.061   5.986  0.0724 -1.6406  0.4240
 6705SOL    HW221838   7.960   6.057   5.886  0.3954  0.5098 -0.0964
 6706SOL     OW21839   4.212   8.504   1.054 -0.8325  0.3154 -0.1312
 6706SOL    HW121840   4.220   8.418   1.096  2.3072  0.8399  0.6226
 6706SOL    HW221841   4.168   8.486   0.970 -0.6267 -1.9521  0.1850
 6707SOL     OW21842   4.512   8.746   5.884  0.4373  0.1385 -0.1220
 6707SOL    HW121843   4.434   8.780   5.839  0.0837  0.1517  0.4904
 6707SOL    HW221844   4.521   8.802   5.961 -0.6511 -1.6315  1.3698
 6708SOL     OW21845   8.994   8.614   4.414  0.7209 -0.2200  0.2046
 6708SOL    HW121846   8.968   8.706   4.419  1.1749 -0.1529  2.0817
 6708SOL    HW221847   9.049   8.610   4.335  0.7553  1.1211  0.1251
 6709SOL     OW21848   6.299   1.373   7.325 -0.4639 -0.6279  0.1329
 6709SOL    HW121849   6.304   1.459   7.283 -1.0771 -0.4182  0.4671
 6709SOL    HW221850   6.222   1.379   7.382  0.1834 -0.9881  1.0795
 6710SOL     OW21851   5.504   2.639   8.642  0.0697  0.2272 -0.1129
 6710SOL    HW121852   5.477   2.725   8.674  0.8561  0.5524 -0.2959
 6710SOL    HW221853   5.552   2.657   8.561  1.5400 -0.2175  0.6129
 6711SOL     OW21854   3.449   7.328   9.434  0.1820  0.6034  0.1560
 6711SOL    HW121855   3.522   7.333   9.496  0.1144 -0.5725  0.3347
 6711SOL    HW221856   3.492   7.325   9.348  0.2784  2.0431  0.1292
 6712SOL     OW21857   2.664   6.549   5.603  0.6107 -0.1216  0.1888
 6712SOL    HW121858   2.680   6.460   5.636  1.2239  0.3951  1.3238
 6712SOL    HW221859   2.679   6.606   5.678 -0.9743  0.8728 -0.1847
 6713SOL     OW21860   0.976   7.839   0.611 -0.2530  0.8271  0.6122
 6713SOL    HW121861   0.995   7.782   0.537  1.1468  0.5060  1.1908
 6713SOL    HW221862   1.054   7.833   0.667 -1.3131  0.9726  2.1679
 6714SOL     OW21863   2.714   6.756   8.276  0.3285  1.1261  0.5840
 6714SOL    HW121864   2.709   6.832   8.335  0.5578 -0.4821  2.7998
 6714SOL    HW221865   2.642   6.699   8.305  0.8957 -0.0340 -0.2281
 6715SOL     OW21866   9.627   7.728   6.646  0.2723  0.1563  0.2587
 6715SOL    HW121867   9.578   7.802   6.611 -0.0595 -0.8868 -1.6446
 6715SOL    HW221868   9.564   7.681   6.701 -0.5264 -0.4523 -1.1258
 6716SOL     OW21869   7.526   2.719   6.979  0.1475 -0.3458 -0.0059
 6716SOL    HW121870   7.607   2.685   6.941 -0.1418 -1.3675  0.2793
 6716SOL    HW221871   7.463   2.718   6.906  0.0164 -0.8522  0.1121
 6717SOL     OW21872   5.735   5.539   4.510 -0.3672  0.8603  0.5229
 6717SOL    HW121873   5.738   5.449   4.478 -1.4322  0.8591  0.3684
 6717SOL    HW221874   5.824   5.558   4.539 -0.0905 -0.1757  0.3825
 6718SOL     OW21875   4.361   4.559   6.610 -0.1648 -0.0525  0.0706
 6718SOL    HW121876   4.288   4.530   6.665 -0.2762  1.8226  1.0310
 6718SOL    HW221877   4.320   4.598   6.534 -0.2056  0.9598  0.5887
 6719SOL     OW21878   0.927   2.041   1.773  0.3192  0.1926 -0.1226
 6719SOL    HW121879   0.938   2.125   1.728  1.1649  0.2008  0.0856
 6719SOL    HW221880   0.919   1.977   1.701 -1.2077  0.5337 -0.2911
 6720SOL     OW21881   0.700   5.591   6.479 -0.2878 -0.2849  0.0423
 6720SOL    HW121882   0.644   5.664   6.505 -0.8008 -0.3155 -0.9098
 6720SOL    HW221883   0.737   5.619   6.396  1.4685 -0.0900  0.8618
 6721SOL     OW21884   3.519   3.958   9.317 -0.2019  0.5836 -0.2773
 6721SOL    HW121885   3.478   4.031   9.271 -0.4061  1.2639  0.9433
 6721SOL    HW221886   3.571   3.914   9.250 -2.8647 -0.3204 -1.9187
 6722SOL     OW21887   6.407   5.089   2.215  0.4161  0.0937 -0.0510
 6722SOL    HW121888   6.503   5.085   2.213  0.3890 -0.4683 -0.4931
 6722SOL    HW221889   6.386   5.107   2.307  0.9440  0.2771  0.0384
 6723SOL     OW21890   8.698   8.964   5.948 -0.3902 -0.1735  0.1807
 6723SOL    HW121891   8.620   8.994   5.900  0.0787  0.6645 -0.0900
 6723SOL    HW221892   8.683   8.871   5.962 -2.3640  0.3220  1.8737
 6724SOL     OW21893   4.479   0.409   8.747  0.1219 -0.2533 -0.1106
 6724SOL    HW121894   4.565   0.376   8.721  0.2141 -3.1194  3.0527
 6724SOL    HW221895   4.427   0.330   8.763 -1.8015  1.2849  1.8775
 6725SOL     OW21896   3.730   5.461   0.453 -0.2290  0.0292 -0.1509
 6725SOL    HW121897   3.820   5.436   0.431 -0.4894 -2.2229  1.1081
 6725SOL    HW221898   3.678   5.426   0.380 -0.2622 -0.2074 -0.0135
 6726SOL     OW21899   8.956   7.771   8.848 -0.1909  0.4844  0.0426
 6726SOL    HW121900   8.995   7.858   8.837  0.5897  0.4739  2.3421
 6726SOL    HW221901   8.861   7.788   8.850 -0.0555  1.2672  0.2372
 6727SOL     OW21902   3.663   5.485   2.752  0.1643  0.6163  0.1047
 6727SOL    HW121903   3.751   5.513   2.775  0.2131 -0.6618  1.6513
 6727SOL    HW221904   3.675   5.429   2.676  0.2962  2.8420 -1.6127
 6728SOL     OW21905   6.262   5.298   1.073  0.0968 -0.0324  0.3827
 6728SOL    HW121906   6.205   5.221   1.066 -0.5457 -0.0403  3.9811
 6728SOL    HW221907   6.216   5.365   1.022 -1.8127 -0.7631  1.0320
 6729SOL     OW21908   2.073   8.552   0.275 -0.5649  0.6176 -0.4317
 6729SOL    HW121909   2.128   8.603   0.216 -1.5857  1.7820 -0.4205
 6729SOL    HW221910   2.007   8.614   0.306 -0.2788 -0.0550  1.6516
 6730SOL     OW21911   4.806   7.961   4.782  0.6686 -0.0257 -0.1270
 6730SOL    HW121912   4.811   8.009   4.864 -0.3410  1.1098 -0.6997
 6730SOL    HW221913   4.769   8.023   4.720 -0.2422 -1.4150 -1.0273
 6731SOL     OW21914   3.971   7.337   3.128 -0.0788  0.1644 -0.8323
 6731SOL    HW121915   3.982   7.337   3.223  0.2978 -0.0961 -0.8721
 6731SOL    HW221916   3.897   7.279   3.112  1.4893 -1.9474 -0.8566
 6732SOL     OW21917   3.107   0.986   1.949  0.0455 -0.3476 -0.2176
 6732SOL    HW121918   3.099   1.004   2.043  1.3364 -1.6367  0.1590
 6732SOL    HW221919   3.188   1.029   1.923  0.3725 -1.0923 -0.4547
 6733SOL     OW21920   7.874   0.952   8.740 -0.1863  0.0024 -0.4067
 6733SOL    HW121921   7.836   0.896   8.673 -1.9538 -0.1349  0.6464
 6733SOL    HW221922   7.805   0.961   8.806  1.5172 -0.0342  1.4930
 6734SOL     OW21923   6.354   6.586   4.182  0.6689 -0.0432 -0.1927
 6734SOL    HW121924   6.286   6.582   4.249 -0.2298 -0.0528 -1.0673
 6734SOL    HW221925   6.305   6.583   4.099  1.8759 -3.6584 -0.9276
 6735SOL     OW21926   7.299   4.569   9.528  0.8189 -0.1373 -0.0818
 6735SOL    HW121927   7.250   4.500   9.483  3.3909 -2.3683  0.2653
 6735SOL    HW221928   7.296   4.644   9.468 -1.8353 -0.5413 -0.6023
 6736SOL     OW21929   6.622   3.309   6.863 -0.1745  0.6179  0.0825
 6736SOL    HW121930   6.650   3.400   6.865  2.0798 -0.0140  0.4517
 6736SOL    HW221931   6.633   3.278   6.952  0.2214 -0.3241 -0.2829
 6737SOL     OW21932   5.306   2.114   9.027 -0.4210 -0.0438  0.2580
 6737SOL    HW121933   5.360   2.188   9.000 -0.4318 -0.1498 -0.0602
 6737SOL    HW221934   5.329   2.044   8.965 -0.3808 -0.3194  0.5771
 6738SOL     OW21935   7.388   0.315   2.270 -0.1090 -0.4098  0.2103
 6738SOL    HW121936   7.300   0.311   2.307  0.2459  1.3719  1.3811
 6738SOL    HW221937   7.376   0.352   2.183 -0.5359 -0.5116  0.2235
 6739SOL     OW21938   8.015   2.149   1.666 -0.2894  0.5913 -0.1008
 6739SOL    HW121939   8.085   2.108   1.716  0.3927  1.0548 -0.6347
 6739SOL    HW221940   7.934   2.123   1.709  0.1595 -0.7325 -0.0303
 6740SOL     OW21941   8.980   9.363   1.540 -0.2108 -0.5534 -0.1893
 6740SOL    HW121942   8.920   9.415   1.592 -0.5898 -0.5570 -0.6139
 6740SOL    HW221943   9.043   9.328   1.603 -0.3997 -0.1983  0.1972
 6741SOL     OW21944   6.199   5.373   9.042 -0.1178  0.3337  0.1865
 6741SOL    HW121945   6.117   5.419   9.026  0.4495  0.4574 -2.7691
 6741SOL    HW221946   6.196   5.296   8.986  1.1488 -0.5181  1.2084
 6742SOL     OW21947   0.131   4.170   6.525 -0.0088 -0.2540 -0.4985
 6742SOL    HW121948   0.110   4.077   6.536  1.5777 -0.8133 -1.7408
 6742SOL    HW221949   0.114   4.187   6.432  2.7276 -0.2047 -1.0726
 6743SOL     OW21950   1.015   5.908   3.560  0.0090  0.1197  0.3209
 6743SOL    HW121951   0.964   5.881   3.636  2.2262 -2.7293  0.9963
 6743SOL    HW221952   0.985   5.850   3.489  0.7391 -0.0913  0.1667
 6744SOL     OW21953   2.369   3.901   6.791  0.6579  0.2025  0.4886
 6744SOL    HW121954   2.428   3.945   6.729 -0.0419 -1.3968 -1.3966
 6744SOL    HW221955   2.375   3.809   6.768 -0.2752 -0.3475  2.3011
 6745SOL     OW21956   0.962   8.426   2.598  0.3295  0.0134 -0.2710
 6745SOL    HW121957   0.961   8.454   2.506  0.9083 -1.6924 -0.8531
 6745SOL    HW221958   1.007   8.341   2.596 -1.2922 -0.9626  1.3240
 6746SOL     OW21959   8.320   8.890   7.753 -0.5889 -0.1675  0.0880
 6746SOL    HW121960   8.271   8.864   7.675 -1.5022 -0.5432  0.7754
 6746SOL    HW221961   8.275   8.846   7.826 -1.1683  1.9847  1.1107
 6747SOL     OW21962   0.292   8.666   4.137 -0.1893 -0.3442 -0.2350
 6747SOL    HW121963   0.257   8.596   4.192 -2.1750  1.0843  0.4270
 6747SOL    HW221964   0.361   8.707   4.190  1.3582 -2.0392 -0.8320
 6748SOL     OW21965   7.936   0.556   6.869 -0.2078 -0.0428 -0.0594
 6748SOL    HW121966   7.915   0.644   6.900 -1.8270 -0.2165 -0.5945
 6748SOL    HW221967   7.900   0.553   6.780  1.8851 -0.4825 -0.9575
 6749SOL     OW21968   7.904   9.537   6.402 -0.0160 -0.3599 -0.0666
 6749SOL    HW121969   7.865   9.624   6.391  0.8048  0.1504  0.8896
 6749SOL    HW221970   7.952   9.522   6.320 -0.7017 -0.2048 -0.5037
 6750SOL     OW21971   1.241   0.952   7.010 -0.0647  0.2131 -0.4847
 6750SOL    HW121972   1.241   0.910   6.924 -1.4427  0.0671 -0.4387
 6750SOL    HW221973   1.207   0.885   7.069 -1.5117  1.1045 -0.2707
 6751SOL     OW21974   0.783   6.278   5.829  0.5448 -0.1280 -0.0328
 6751SOL    HW121975   0.711   6.336   5.805 -0.2356  0.1732  2.7749
 6751SOL    HW221976   0.779   6.207   5.764 -2.1496 -0.0178 -0.1036
 6752SOL     OW21977   8.586   9.109   0.134  0.1899 -0.5527  0.0389
 6752SOL    HW121978   8.648   9.114   0.207 -0.9491  0.0871  1.0004
 6752SOL    HW221979   8.537   9.191   0.138 -1.0781 -1.2514 -0.3578
 6753SOL     OW21980   6.970   7.852   4.962  0.4478  0.3286 -0.1451
 6753SOL    HW121981   6.953   7.764   4.928 -1.1226  0.3310  0.5543
 6753SOL    HW221982   6.994   7.903   4.884  1.1258 -0.6259 -0.5969
 6754SOL     OW21983   9.080   5.401   3.194 -0.3482  0.4350  0.0088
 6754SOL    HW121984   9.129   5.484   3.188  0.1344  0.0715 -1.2516
 6754SOL    HW221985   9.133   5.338   3.146 -1.3719 -0.3127 -0.1665
 6755SOL     OW21986   3.494   6.080   1.724 -0.5783  0.0203 -0.2138
 6755SOL    HW121987   3.529   6.118   1.644  0.0274  0.1362  0.1003
 6755SOL    HW221988   3.541   5.997   1.735 -0.4834  0.1189  0.1476
 6756SOL     OW21989   5.689   6.849   7.839  0.0889  0.1410  0.3375
 6756SOL    HW121990   5.693   6.754   7.851 -0.0164  0.1113  0.1360
 6756SOL    HW221991   5.740   6.866   7.760 -1.6280  0.0088 -0.8662
 6757SOL     OW21992   1.431   3.907   0.186  0.5729  0.2297 -0.2560
 6757SOL    HW121993   1.337   3.923   0.194  0.2118 -1.6635 -0.4592
 6757SOL    HW221994   1.466   3.930   0.272  0.0449  1.5084 -0.3538
 6758SOL     OW21995   1.506   1.944   9.497 -0.2402  0.3869  0.4224
 6758SOL    HW121996   1.495   2.039   9.499 -0.7000  0.3425  2.8198
 6758SOL    HW221997   1.425   1.911   9.460 -0.7937  0.8893  1.1437
 6759SOL     OW21998   0.814   5.231   4.307 -0.4580 -0.1793 -0.0482
 6759SOL    HW121999   0.807   5.212   4.400  1.2659 -1.4639 -0.1178
 6759SOL    HW222000   0.885   5.174   4.276  1.2109  2.4561 -1.4861
 6760SOL     OW22001   2.629   5.517   2.504 -0.0211  0.0308  0.2626
 6760SOL    HW122002   2.706   5.510   2.448 -0.0504 -1.7414  0.3899
 6760SOL    HW222003   2.639   5.446   2.568 -1.0050  0.7294  1.2359
 6761SOL     OW22004   5.087   4.303   8.419  0.5518  0.2720 -0.6767
 6761SOL    HW122005   5.005   4.337   8.385  0.6483  1.7867  0.5091
 6761SOL    HW222006   5.078   4.308   8.514  1.6844 -0.3693 -0.5078
 6762SOL     OW22007   9.243   4.262   3.012 -0.3691  0.0478 -0.2361
 6762SOL    HW122008   9.337   4.276   3.004  0.2676 -2.2000  2.1251
 6762SOL    HW222009   9.204   4.333   2.961  2.5721  0.8921 -1.5123
 6763SOL     OW22010   1.979   2.963   3.637  0.8597  0.4580  0.0809
 6763SOL    HW122011   1.959   2.959   3.544 -0.9388 -0.3703  0.4694
 6763SOL    HW222012   1.903   3.005   3.677 -0.2604 -2.7210  1.6145
 6764SOL     OW22013   7.044   7.142   9.294 -0.1649  0.7570  0.2127
 6764SOL    HW122014   7.097   7.096   9.228 -1.1384  1.0482 -0.7878
 6764SOL    HW222015   7.106   7.201   9.337  0.5236  0.4305 -0.3100
 6765SOL     OW22016   5.788   5.738   3.834 -0.5682 -0.3356  0.1446
 6765SOL    HW122017   5.848   5.713   3.763  1.1216  0.5873  1.1651
 6765SOL    HW222018   5.771   5.656   3.881 -1.8520 -0.9932 -1.3609
 6766SOL     OW22019   4.405   4.262   2.884 -0.0465 -0.1141  0.1067
 6766SOL    HW122020   4.391   4.351   2.916  0.0984 -0.4193  1.0744
 6766SOL    HW222021   4.347   4.253   2.809 -1.1499  0.3333  0.8767
 6767SOL     OW22022   9.244   3.788   9.628 -0.0841  0.0019  0.1458
 6767SOL    HW122023   9.306   3.832   9.570 -0.0738 -1.1473 -0.7743
 6767SOL    HW222024   9.159   3.797   9.583 -0.1600 -0.4711  0.1851
 6768SOL     OW22025   3.346   5.630   2.911 -0.0081  0.3701 -0.6514
 6768SOL    HW122026   3.370   5.540   2.889 -0.2469 -0.3036  1.5210
 6768SOL    HW222027   3.302   5.664   2.833 -0.0362 -1.4493 -1.4681
 6769SOL     OW22028   8.337   1.421   1.501  0.2685  0.0850 -0.3702
 6769SOL    HW122029   8.282   1.462   1.568  0.2132 -0.0227 -0.3495
 6769SOL    HW222030   8.386   1.494   1.463 -0.2545  0.2560 -0.7283
 6770SOL     OW22031   0.808   7.249   0.820  0.0108 -0.0410  0.3470
 6770SOL    HW122032   0.859   7.309   0.765 -0.5465 -0.6629 -0.8714
 6770SOL    HW222033   0.820   7.163   0.779 -1.6481 -0.2701  0.2885
 6771SOL     OW22034   3.215   4.929   5.595 -1.1449 -0.4044 -0.1514
 6771SOL    HW122035   3.144   4.958   5.537  0.1842  3.4069 -0.1441
 6771SOL    HW222036   3.201   4.979   5.676  0.3926 -1.1607  0.6134
 6772SOL     OW22037   4.137   9.497   8.629 -0.2474  0.1406  0.0233
 6772SOL    HW122038   4.198   9.563   8.594 -0.2134 -0.3125 -0.7906
 6772SOL    HW222039   4.064   9.497   8.568 -0.8354  0.2986  0.7099
 6773SOL     OW22040   0.210   7.627   4.270  0.1109 -0.2108 -0.0963
 6773SOL    HW122041   0.284   7.688   4.264  0.2107 -0.3680 -0.5247
 6773SOL    HW222042   0.235   7.566   4.339  0.5851 -0.5269 -0.5380
 6774SOL     OW22043   8.719   1.148   2.032 -0.5965 -0.4672 -0.0798
 6774SOL    HW122044   8.635   1.192   2.023 -0.0791  0.6610  0.3456
 6774SOL    HW222045   8.719   1.115   2.122  0.7677  2.6439  1.2192
 6775SOL     OW22046   8.273   1.345   8.513 -0.0163 -0.0127 -0.5189
 6775SOL    HW122047   8.224   1.405   8.571  2.0736  1.5073 -0.1982
 6775SOL    HW222048   8.246   1.370   8.425 -1.7827 -1.0371 -0.3119
 6776SOL     OW22049   7.836   5.852   8.022 -0.3098  0.7138 -0.3645
 6776SOL    HW122050   7.918   5.845   8.070  0.0311  1.4125 -0.8243
 6776SOL    HW222051   7.797   5.765   8.027 -0.8519  0.9905  2.1590
 6777SOL     OW22052   5.869   4.400   4.361  0.0768  0.0462 -0.7944
 6777SOL    HW122053   5.907   4.312   4.355  1.1301  0.1359  2.4645
 6777SOL    HW222054   5.918   4.443   4.431 -2.8595  1.9297  0.3191
 6778SOL     OW22055   3.992   4.390   6.422  0.5197 -0.5345  0.5470
 6778SOL    HW122056   3.917   4.393   6.481  0.6987  1.5651  0.7158
 6778SOL    HW222057   4.017   4.297   6.420 -0.3097 -0.8605  2.7252
 6779SOL     OW22058   9.417   6.017   3.042  0.3759  0.6836 -0.0499
 6779SOL    HW122059   9.442   6.031   3.133 -0.5095 -0.5026  0.4099
 6779SOL    HW222060   9.327   6.052   3.036  0.1201  0.0100 -0.2371
 6780SOL     OW22061   7.293   3.370   6.644  0.5141  0.2571  0.7382
 6780SOL    HW122062   7.321   3.307   6.578  1.1993  0.9058  0.3909
 6780SOL    HW222063   7.355   3.443   6.635 -1.0115  1.5408  0.2936
 6781SOL     OW22064   4.221   8.064   5.089 -0.7384  0.2071 -0.4951
 6781SOL    HW122065   4.281   7.989   5.083 -1.4962 -0.4533  0.0132
 6781SOL    HW222066   4.272   8.137   5.054  0.1924 -0.4389 -0.5513
 6782SOL     OW22067   4.522   1.028   0.512  0.3883 -0.1701 -0.4684
 6782SOL    HW122068   4.606   1.018   0.468  0.1995  0.9146 -1.0950
 6782SOL    HW222069   4.457   1.031   0.442 -0.1974 -1.0634  0.0062
 6783SOL     OW22070   1.123   7.055   3.009 -0.3003 -0.0535  1.1086
 6783SOL    HW122071   1.038   7.034   3.048 -1.3498  1.4010 -0.2509
 6783SOL    HW222072   1.140   6.983   2.949 -1.3498  0.3571  0.2777
 6784SOL     OW22073   1.635   2.025   5.412  0.2552 -0.3792  0.0268
 6784SOL    HW122074   1.592   2.106   5.439 -0.9260 -1.1825  0.6705
 6784SOL    HW222075   1.654   2.038   5.319  0.2642  0.7044  0.1704
 6785SOL     OW22076   2.814   6.261   7.977 -0.3207  0.2495  0.0139
 6785SOL    HW122077   2.884   6.196   7.966 -2.2000 -1.8521 -0.0971
 6785SOL    HW222078   2.861   6.341   8.001  2.1752 -0.8768 -0.6826
 6786SOL     OW22079   3.277   4.810   3.553 -0.4534  0.2027  0.1040
 6786SOL    HW122080   3.360   4.764   3.567 -0.1717  0.7548  0.2670
 6786SOL    HW222081   3.224   4.788   3.629  0.1570  1.1831  0.8412
 6787SOL     OW22082   9.609   1.676   5.854 -0.0783 -0.4673 -0.4117
 6787SOL    HW122083   9.651   1.756   5.885 -1.9625 -0.3449  2.0847
 6787SOL    HW222084   9.675   1.608   5.868  0.2607  0.1042  0.9009
 6788SOL     OW22085   1.602   6.897   7.738  0.6113 -0.8286 -0.5713
 6788SOL    HW122086   1.578   6.842   7.664 -0.6377 -0.3099 -0.5818
 6788SOL    HW222087   1.551   6.977   7.725  2.2820  0.3053 -0.4994
 6789SOL     OW22088   6.118   7.600   9.006 -0.4368  0.0299 -0.4226
 6789SOL    HW122089   6.038   7.555   9.034 -0.0173  0.0557  0.9042
 6789SOL    HW222090   6.087   7.677   8.959 -1.1711 -0.8257 -1.3909
 6790SOL     OW22091   4.097   1.182   8.375 -0.6045 -0.1946  0.0158
 6790SOL    HW122092   4.175   1.168   8.321 -0.6975  0.2583 -0.2401
 6790SOL    HW222093   4.102   1.115   8.442 -0.4246 -0.6928 -0.4866
 6791SOL     OW22094   9.328   5.579   0.319  0.2184  0.3732 -0.1311
 6791SOL    HW122095   9.361   5.500   0.361 -1.4939  0.2872  1.1860
 6791SOL    HW222096   9.387   5.649   0.349 -0.0732  0.0576  1.2435
 6792SOL     OW22097   6.888   2.334   1.368 -0.2376  0.0447  0.1128
 6792SOL    HW122098   6.942   2.411   1.384  1.3132 -1.3098  1.8724
 6792SOL    HW222099   6.946   2.272   1.324 -0.4007 -1.2941  1.6724
 6793SOL     OW22100   1.544   2.889   6.410 -0.3493  0.3001 -0.2203
 6793SOL    HW122101   1.617   2.943   6.439 -0.7921  1.6987 -1.5380
 6793SOL    HW222102   1.497   2.866   6.490  0.5421  0.8455  0.4741
 6794SOL     OW22103   2.202   0.976   3.503 -0.5535 -0.3881 -0.3370
 6794SOL    HW122104   2.237   0.909   3.444 -0.9731  0.3178 -1.3980
 6794SOL    HW222105   2.280   1.017   3.541 -0.2458 -0.0740 -1.2801
 6795SOL     OW22106   8.668   7.669   7.629  0.1519  0.6032  0.0148
 6795SOL    HW122107   8.651   7.742   7.570  0.3440  0.1691 -0.5944
 6795SOL    HW222108   8.757   7.641   7.606  0.2742  0.5064  0.5971
 6796SOL     OW22109   7.404   7.924   2.555  0.2469  0.4209  0.7263
 6796SOL    HW122110   7.337   7.992   2.554 -1.4283 -1.1301  0.3837
 6796SOL    HW222111   7.436   7.923   2.645 -1.7560 -0.1670  1.5037
 6797SOL     OW22112   4.203   1.077   2.184 -0.0697 -0.1387  0.9780
 6797SOL    HW122113   4.258   1.152   2.207  0.2425 -0.4228  1.1741
 6797SOL    HW222114   4.204   1.075   2.089 -0.3921  0.3333  0.9617
 6798SOL     OW22115   1.294   4.404   9.472 -0.2481 -0.0133 -0.1639
 6798SOL    HW122116   1.249   4.482   9.440  0.1371 -0.9811 -3.4318
 6798SOL    HW222117   1.348   4.375   9.399  1.3157 -2.1492  1.6787
 6799SOL     OW22118   5.908   0.017   8.202 -0.2997  0.0911 -0.2977
 6799SOL    HW122119   5.822   0.005   8.242 -1.3223  1.6711 -1.8597
 6799SOL    HW222120   5.954  -0.065   8.219 -0.8989  0.3521  3.3358
 6800SOL     OW22121   1.402   4.866   1.541 -0.1890 -0.0987 -0.3862
 6800SOL    HW122122   1.320   4.829   1.509  0.0056 -0.8778 -0.0120
 6800SOL    HW222123   1.387   4.961   1.543 -1.5762 -0.3193  1.0188
 6801SOL     OW22124   9.246   4.643   8.650 -0.2733  0.3662  0.4743
 6801SOL    HW122125   9.226   4.551   8.635  1.4819 -0.1931  1.2401
 6801SOL    HW222126   9.161   4.684   8.666 -0.9214 -1.7115  3.0623
 6802SOL     OW22127   0.980   1.320   4.476 -0.0166 -0.1829 -0.5752
 6802SOL    HW122128   1.045   1.311   4.407 -0.0945 -1.6431 -0.4787
 6802SOL    HW222129   0.900   1.347   4.431 -0.1604 -1.4523 -1.1292
 6803SOL     OW22130   3.033   0.574   8.413 -0.3337 -0.4891  0.2457
 6803SOL    HW122131   3.111   0.585   8.467 -0.3534  0.3993  0.1113
 6803SOL    HW222132   2.962   0.613   8.464 -0.2255  1.0223 -0.6960
 6804SOL     OW22133   9.455   6.783   6.387  0.1862 -0.6468  0.4332
 6804SOL    HW122134   9.392   6.848   6.357 -0.5560 -1.0993  0.9806
 6804SOL    HW222135   9.402   6.715   6.428  1.0395 -0.9724  1.0344
 6805SOL     OW22136   4.411   7.388   5.190  0.0729  0.2276  0.2147
 6805SOL    HW122137   4.413   7.434   5.106 -0.2021 -0.2230 -0.0403
 6805SOL    HW222138   4.320   7.361   5.201  0.1918 -0.0874  0.4525
 6806SOL     OW22139   4.746   4.792   5.119 -0.5173  0.1779 -0.2681
 6806SOL    HW122140   4.800   4.842   5.057 -1.6602  1.5884 -0.1750
 6806SOL    HW222141   4.659   4.791   5.080 -0.4287 -2.3292 -0.5631
 6807SOL     OW22142   2.264   0.109   5.428  0.0707 -0.0449  0.3717
 6807SOL    HW122143   2.219   0.051   5.367  1.8866 -1.0888 -0.0505
 6807SOL    HW222144   2.308   0.050   5.489  1.6976  0.8799  0.1474
 6808SOL     OW22145   8.483   9.079   7.877  1.0001 -0.0390 -0.3617
 6808SOL    HW122146   8.476   9.160   7.825 -0.2069  0.1419  0.0448
 6808SOL    HW222147   8.417   9.021   7.839  0.0361  0.1305  1.0017
 6809SOL     OW22148   4.757   4.050   3.282  0.1911  0.1451 -0.0172
 6809SOL    HW122149   4.801   4.122   3.237  0.9089  1.1928  2.2020
 6809SOL    HW222150   4.826   3.987   3.301 -0.2485 -0.6727 -1.0088
 6810SOL     OW22151   7.321   5.710   7.473 -0.1598  0.5577  0.0803
 6810SOL    HW122152   7.259   5.703   7.547  0.4013  2.5353  0.8057
 6810SOL    HW222153   7.370   5.791   7.491  2.2002 -0.5883 -0.8182
 6811SOL     OW22154   3.541   0.409   7.053 -0.2367 -0.2478  0.3246
 6811SOL    HW122155   3.491   0.419   6.972 -0.0190 -0.2356  0.1917
 6811SOL    HW222156   3.605   0.341   7.034 -0.2332 -0.2981  0.5109
 6812SOL     OW22157   6.054   6.617   0.453 -0.1408 -0.8155  0.1401
 6812SOL    HW122158   6.149   6.627   0.456 -0.3586  1.6354  0.3239
 6812SOL    HW222159   6.019   6.697   0.493 -2.3071 -1.1233 -0.9617
 6813SOL     OW22160   6.309   5.689   1.621 -0.5375  0.4188 -0.3510
 6813SOL    HW122161   6.332   5.756   1.686 -0.6062  0.1127 -0.0124
 6813SOL    HW222162   6.269   5.619   1.671  1.1814 -0.6887 -0.4515
 6814SOL     OW22163   2.373   8.963   7.240  0.0689 -0.3760  0.5801
 6814SOL    HW122164   2.390   9.035   7.179  2.6576  0.3961  2.0845
 6814SOL    HW222165   2.444   8.901   7.224 -0.1506 -0.9340  1.7007
 6815SOL     OW22166   2.758   5.679   5.812 -0.3345  0.3223  0.1212
 6815SOL    HW122167   2.827   5.744   5.803 -0.1217 -0.1690 -2.3379
 6815SOL    HW222168   2.715   5.676   5.727 -1.5376 -1.4479  0.7189
 6816SOL     OW22169   7.263   4.951   6.312 -0.1039  0.3445  0.2524
 6816SOL    HW122170   7.280   5.034   6.269  0.1226 -0.0371 -0.4216
 6816SOL    HW222171   7.236   4.893   6.240  1.6506 -0.7032  0.3959
 6817SOL     OW22172   2.732   0.446   8.606  0.3953 -0.3166 -0.3714
 6817SOL    HW122173   2.798   0.377   8.603 -0.7357 -1.4456 -0.4524
 6817SOL    HW222174   2.653   0.404   8.571 -0.3816  0.9532 -0.1877
 6818SOL     OW22175   1.458   6.093   0.745 -0.0525 -0.2440  0.2792
 6818SOL    HW122176   1.498   6.022   0.796 -0.6490 -0.1180  0.9411
 6818SOL    HW222177   1.368   6.065   0.730 -0.5587  0.7361  1.3084
 6819SOL     OW22178   4.696   2.843   8.982  0.2597  0.3989  0.1748
 6819SOL    HW122179   4.687   2.938   8.990  2.0124  0.4789  2.0443
 6819SOL    HW222180   4.609   2.809   9.000 -0.1792  1.6187  0.4512
 6820SOL     OW22181   6.744   7.836   9.680  0.0089  0.2121 -0.7803
 6820SOL    HW122182   6.727   7.930   9.690  0.7781  0.2501  0.4383
 6820SOL    HW222183   6.722   7.799   9.765 -0.1115 -0.6923 -1.1967
 6821SOL     OW22184   4.156   6.673   1.101  0.2169  0.5584  0.2656
 6821SOL    HW122185   4.188   6.752   1.058  0.4732 -0.5727 -1.7415
 6821SOL    HW222186   4.231   6.642   1.152  1.3959 -0.3295 -1.8638
 6822SOL     OW22187   6.027   6.992   3.151  0.1226  0.5076 -0.2736
 6822SOL    HW122188   6.003   6.998   3.244  2.4267  0.9501  0.3425
 6822SOL    HW222189   6.021   7.082   3.119 -0.0368  0.4569 -0.3871
 6823SOL     OW22190   3.664   8.181   1.164 -0.0979  0.3641  0.5462
 6823SOL    HW122191   3.631   8.239   1.095  0.7764 -0.9893 -1.0767
 6823SOL    HW222192   3.609   8.103   1.159  0.1709  0.1251  1.1860
 6824SOL     OW22193   6.743   0.989   2.921 -0.8618 -0.0958 -0.0355
 6824SOL    HW122194   6.661   0.992   2.971  0.4514  2.1508  2.2055
 6824SOL    HW222195   6.764   1.081   2.905  1.8006 -0.5397  0.5146
 6825SOL     OW22196   7.579   7.082   7.359  0.0376  0.2243  0.7558
 6825SOL    HW122197   7.540   7.167   7.337 -0.5226 -0.4142 -0.9172
 6825SOL    HW222198   7.607   7.091   7.449 -0.6561  1.9586  0.8400
 6826SOL     OW22199   6.890   8.611   4.466 -0.1553  0.2612  0.0552
 6826SOL    HW122200   6.966   8.649   4.509 -1.1140  0.2161  1.8804
 6826SOL    HW222201   6.837   8.686   4.439  0.5858  0.2971 -1.3773
 6827SOL     OW22202   3.972   4.161   0.548  0.2693 -0.4879  0.0557
 6827SOL    HW122203   4.029   4.167   0.625  0.3189 -1.3948  0.0940
 6827SOL    HW222204   3.953   4.068   0.539  0.0209 -0.3550 -0.8622
 6828SOL     OW22205   8.358   0.541   4.473  0.0108 -0.0945 -0.2695
 6828SOL    HW122206   8.303   0.617   4.495 -0.0635  0.2402 -1.5237
 6828SOL    HW222207   8.343   0.479   4.544  2.2111  2.1063  2.3785
 6829SOL     OW22208   1.979   6.459   7.037 -0.6510  0.1708 -0.0482
 6829SOL    HW122209   2.062   6.413   7.018  0.0394  1.7317 -0.9751
 6829SOL    HW222210   1.951   6.494   6.952 -2.6494 -0.8789  0.1241
 6830SOL     OW22211   4.414   8.332   1.588 -0.1294  0.0625 -0.0542
 6830SOL    HW122212   4.367   8.297   1.663  1.0794  0.0829  0.7490
 6830SOL    HW222213   4.485   8.383   1.626  1.2361 -0.9083 -1.1924
 6831SOL     OW22214   0.847   4.892   3.047 -0.1478  0.5292  0.5425
 6831SOL    HW122215   0.925   4.836   3.041 -0.2587  0.2905  1.2918
 6831SOL    HW222216   0.840   4.932   2.960  0.7821  0.5138  0.4504
 6832SOL     OW22217   6.164   0.581   7.517  0.3092 -0.0442  0.1463
 6832SOL    HW122218   6.231   0.641   7.548  2.3496 -1.8344 -0.5024
 6832SOL    HW222219   6.083   0.632   7.515  2.2003  3.1701 -2.0065
 6833SOL     OW22220   5.309   0.439   0.934  0.4057 -0.4984 -0.1571
 6833SOL    HW122221   5.373   0.457   1.003 -1.1202  0.4863  1.0684
 6833SOL    HW222222   5.346   0.480   0.856  1.9315 -1.2061  0.1568
 6834SOL     OW22223   9.025   7.300   4.981 -0.6483  0.7437  0.3785
 6834SOL    HW122224   9.101   7.273   5.032 -0.0822  1.6036  0.0164
 6834SOL    HW222225   9.061   7.326   4.896 -1.1145  2.6698  0.7165
 6835SOL     OW22226   3.200   9.302   6.422  0.2779  0.1733 -0.4946
 6835SOL    HW122227   3.227   9.363   6.353  1.2309  0.0973 -0.1963
 6835SOL    HW222228   3.226   9.216   6.389 -1.1596 -0.1055 -0.9623
 6836SOL     OW22229   1.481   4.951   6.589  0.2359 -0.2493  0.7379
 6836SOL    HW122230   1.400   4.976   6.545 -0.0945  1.5201  2.2378
 6836SOL    HW222231   1.457   4.877   6.644 -0.3007  0.1013  0.9816
 6837SOL     OW22232   4.750   6.153   9.366  0.1463  0.1005  0.0615
 6837SOL    HW122233   4.773   6.079   9.422  0.3273 -1.3464 -1.8167
 6837SOL    HW222234   4.655   6.157   9.370  0.1834  0.3579  0.8668
 6838SOL     OW22235   6.114   0.220   2.740  0.2864 -0.0824 -0.3827
 6838SOL    HW122236   6.114   0.139   2.688  0.0204 -0.1854 -0.2231
 6838SOL    HW222237   6.148   0.194   2.825 -0.6188 -0.2098 -0.0518
 6839SOL     OW22238   7.044   1.127   5.273 -0.1484 -0.1063  0.6771
 6839SOL    HW122239   7.079   1.081   5.349  0.2459  0.7986  1.0599
 6839SOL    HW222240   7.120   1.143   5.217 -0.5768 -1.6476 -0.4250
 6840SOL     OW22241   4.641   7.060   7.728 -0.0331  0.0225  0.0236
 6840SOL    HW122242   4.610   7.131   7.784 -1.4903 -1.1669  0.8203
 6840SOL    HW222243   4.661   6.988   7.789 -0.3587 -0.8466 -0.8673
 6841SOL     OW22244   6.625   3.532   2.578  0.0013 -0.3878 -1.1769
 6841SOL    HW122245   6.640   3.588   2.501 -0.1415  1.2935 -0.0414
 6841SOL    HW222246   6.556   3.576   2.626  1.5736 -0.1797  1.0290
 6842SOL     OW22247   0.143   7.360   5.412  0.1736 -0.0992  0.3722
 6842SOL    HW122248   0.087   7.306   5.468 -2.0151  1.9348  0.2825
 6842SOL    HW222249   0.232   7.329   5.430 -0.8899 -3.5963  0.4168
 6843SOL     OW22250   7.668   9.580   2.026 -0.3509 -0.4587 -0.0321
 6843SOL    HW122251   7.673   9.489   1.994 -1.2438 -0.1694 -1.0639
 6843SOL    HW222252   7.676   9.573   2.121 -0.0388 -1.5797 -0.1262
 6844SOL     OW22253   2.538   0.604   0.696  0.0702 -0.0994  0.2555
 6844SOL    HW122254   2.538   0.698   0.682  0.6296 -0.2336 -0.7486
 6844SOL    HW222255   2.521   0.567   0.609  2.5670 -0.9647  0.0725
 6845SOL     OW22256   1.155   1.063   7.417 -0.2261  0.8924 -0.0042
 6845SOL    HW122257   1.237   1.100   7.451 -0.2652  0.7714  0.2303
 6845SOL    HW222258   1.095   1.137   7.412 -0.2947  0.8723  0.4338
 6846SOL     OW22259   6.204   4.785   9.416  0.0475 -0.0373 -0.9275
 6846SOL    HW122260   6.257   4.861   9.393  0.2458  0.2882  0.5200
 6846SOL    HW222261   6.127   4.822   9.458 -1.1736 -0.5273 -2.6142
 6847SOL     OW22262   2.443   3.409   8.789 -0.0753 -0.1427  0.3388
 6847SOL    HW122263   2.366   3.371   8.747  0.2827  0.4134 -0.8896
 6847SOL    HW222264   2.430   3.503   8.782  1.0543 -0.0287 -0.6023
 6848SOL     OW22265   5.212   7.871   2.173 -0.4331  0.1598 -0.2977
 6848SOL    HW122266   5.225   7.787   2.129  3.6520  0.7009 -0.5036
 6848SOL    HW222267   5.177   7.847   2.259  0.4664 -1.7747 -0.4149
 6849SOL     OW22268   7.467   8.853   4.889 -0.0098  0.7231 -0.1190
 6849SOL    HW122269   7.527   8.821   4.957 -1.1648 -0.9816  0.1622
 6849SOL    HW222270   7.414   8.919   4.933 -2.7160 -2.3476  1.6565
 6850SOL     OW22271   1.432   3.831   1.625 -0.2984 -0.0075 -0.0201
 6850SOL    HW122272   1.521   3.796   1.632 -0.4072 -0.3790 -0.4431
 6850SOL    HW222273   1.387   3.799   1.703  0.0446  0.5035  0.3937
 6851SOL     OW22274   3.925   6.250   2.113 -0.9045  0.4688 -0.0252
 6851SOL    HW122275   3.859   6.209   2.058 -1.2040  2.1535 -0.9869
 6851SOL    HW222276   3.991   6.183   2.125 -2.0933 -0.7820 -0.2494
 6852SOL     OW22277   8.171   7.728   0.462 -0.3170 -0.1056  0.4805
 6852SOL    HW122278   8.243   7.754   0.520 -1.9549 -0.5626  2.8468
 6852SOL    HW222279   8.093   7.764   0.504 -1.6133 -0.6317 -1.3846
 6853SOL     OW22280   1.104   7.551   0.158  0.7792 -0.0536  0.7772
 6853SOL    HW122281   1.082   7.515   0.073 -1.2540  0.1346  1.1806
 6853SOL    HW222282   1.184   7.601   0.143  1.4102 -1.4049 -0.6274
 6854SOL     OW22283   2.049   0.009   4.079 -0.6584 -0.1072  0.4376
 6854SOL    HW122284   2.012   0.023   3.992 -0.7561 -2.5333  0.0254
 6854SOL    HW222285   2.135   0.049   4.076 -0.7743  0.0725 -0.6788
 6855SOL     OW22286   8.863   5.534   4.808  0.5377  0.4625  0.2906
 6855SOL    HW122287   8.790   5.595   4.819 -1.1164 -0.8891 -2.0788
 6855SOL    HW222288   8.834   5.474   4.739  3.0256 -1.5512  0.8165
 6856SOL     OW22289   0.944   1.045   7.740 -0.8574  0.0094  0.4381
 6856SOL    HW122290   0.977   0.972   7.688 -0.1027 -0.3043  1.3216
 6856SOL    HW222291   0.987   1.122   7.704 -0.4340 -0.1894  0.5066
 6857SOL     OW22292   0.679   9.083   3.798  0.1473 -0.1294 -0.5314
 6857SOL    HW122293   0.710   9.171   3.816 -0.2887 -0.2073  0.6593
 6857SOL    HW222294   0.584   9.091   3.796  0.0625 -0.7494  0.5946
 6858SOL     OW22295   3.990   1.247   0.283  0.2544  0.0647  0.1145
 6858SOL    HW122296   4.039   1.292   0.352  0.4380  0.2997 -0.1716
 6858SOL    HW222297   3.914   1.210   0.329  2.2551 -3.0748  1.2722
 6859SOL     OW22298   5.599   9.420   7.901 -0.2601  0.3287 -0.1868
 6859SOL    HW122299   5.521   9.448   7.853 -0.4301  0.0984 -0.0473
 6859SOL    HW222300   5.651   9.372   7.836 -0.4572  0.0774 -0.1583
 6860SOL     OW22301   2.816   1.678   5.720  0.4152  0.0862  0.5198
 6860SOL    HW122302   2.801   1.586   5.702 -1.7109  0.7003 -1.3410
 6860SOL    HW222303   2.735   1.708   5.761  0.3337  1.4852 -0.5729
 6861SOL     OW22304   2.146   1.610   1.554  0.5648 -0.1806 -0.5944
 6861SOL    HW122305   2.128   1.519   1.530 -0.9076  0.0414 -0.4566
 6861SOL    HW222306   2.214   1.638   1.494  0.5536 -1.1784 -1.0890
 6862SOL     OW22307   4.658   8.069   5.517  0.4604  0.6453  0.3128
 6862SOL    HW122308   4.675   8.164   5.516  3.6283  0.2496  2.5251
 6862SOL    HW222309   4.705   8.037   5.594 -4.2042 -2.2036  2.4459
 6863SOL     OW22310   6.307   6.417   8.347 -0.0649 -0.0363 -0.0231
 6863SOL    HW122311   6.238   6.428   8.412 -0.0736  2.0720 -0.3069
 6863SOL    HW222312   6.261   6.414   8.263  0.1540  3.3584 -0.3999
 6864SOL     OW22313   9.514   6.705   8.439  0.1518  0.2109 -0.0668
 6864SOL    HW122314   9.592   6.725   8.490  1.0205  0.1410 -1.3078
 6864SOL    HW222315   9.471   6.789   8.426 -1.3487 -0.0180  2.6345
 6865SOL     OW22316   1.324   5.554   6.282  0.4297  0.0978  0.3485
 6865SOL    HW122317   1.416   5.561   6.255  0.8211 -2.4712  0.8061
 6865SOL    HW222318   1.327   5.562   6.377  0.1354  0.3263  0.3378
 6866SOL     OW22319   1.407   7.648   9.254 -0.2072 -0.0684  0.2316
 6866SOL    HW122320   1.368   7.609   9.332 -1.8528 -0.8903 -0.9344
 6866SOL    HW222321   1.475   7.586   9.227 -2.3428 -1.9737 -1.2168
 6867SOL     OW22322   2.851   9.379   5.608  0.8833  0.0787 -0.2267
 6867SOL    HW122323   2.768   9.422   5.587 -0.0358 -0.2911  2.3400
 6867SOL    HW222324   2.908   9.450   5.637  0.9250  0.1301 -0.4329
 6868SOL     OW22325   6.669   5.556   0.905 -0.0787 -0.3593 -0.1654
 6868SOL    HW122326   6.686   5.561   0.811  0.2028  0.6317 -0.0824
 6868SOL    HW222327   6.593   5.499   0.913 -2.6409  2.6008 -1.3516
 6869SOL     OW22328   5.952   6.678   5.721  0.2971 -0.7808 -0.1914
 6869SOL    HW122329   5.904   6.632   5.790  0.1321 -1.6782 -0.8811
 6869SOL    HW222330   5.924   6.636   5.640 -0.7126  1.3111 -0.9840
 6870SOL     OW22331   0.049   1.662   8.738  0.2867  0.2690 -0.3040
 6870SOL    HW122332  -0.033   1.709   8.750 -0.4313 -0.8452 -0.6571
 6870SOL    HW222333   0.046   1.629   8.649  1.0695  0.1108 -0.2840
 6871SOL     OW22334   0.239   8.302   8.897  0.1872 -0.3650  0.1500
 6871SOL    HW122335   0.200   8.264   8.975 -0.2730  0.2416  0.2215
 6871SOL    HW222336   0.196   8.257   8.824 -0.8017  0.4387  0.2246
 6872SOL     OW22337   6.713   6.304   7.411  0.3326 -0.0297  0.0918
 6872SOL    HW122338   6.663   6.266   7.483 -0.5645  2.5789  0.9847
 6872SOL    HW222339   6.647   6.323   7.344  0.8718 -0.6687 -0.6402
 6873SOL     OW22340   2.723   7.562   4.496 -0.1513 -0.2244  0.6826
 6873SOL    HW122341   2.721   7.657   4.509 -0.5398  0.1969 -2.0296
 6873SOL    HW222342   2.814   7.541   4.479 -0.2707 -0.0958 -0.1493
 6874SOL     OW22343   1.281   0.088   5.802  0.0712  0.2624  0.2885
 6874SOL    HW122344   1.186   0.092   5.806  0.0371  0.3000 -0.5225
 6874SOL    HW222345   1.303   0.119   5.714  0.8441  0.5191  0.5666
 6875SOL     OW22346   6.367   0.221   6.491  0.3513  0.4155  0.2314
 6875SOL    HW122347   6.301   0.254   6.552  0.1628  1.0740 -0.3222
 6875SOL    HW222348   6.433   0.181   6.547  1.0198  2.4799  1.0161
 6876SOL     OW22349   7.283   1.730   3.611  1.2229  0.4989  0.0635
 6876SOL    HW122350   7.330   1.706   3.532  0.2054  0.3883 -0.5239
 6876SOL    HW222351   7.268   1.646   3.657  1.5054  0.5221  0.1977
 6877SOL     OW22352   8.558   8.379   8.242 -0.0936  0.1281  0.1944
 6877SOL    HW122353   8.561   8.322   8.319  0.4183  0.5270  0.4751
 6877SOL    HW222354   8.526   8.463   8.275  2.0811  0.9362  0.3976
 6878SOL     OW22355   2.055   3.716   7.301  0.1774  0.6721  0.4915
 6878SOL    HW122356   1.964   3.703   7.330 -0.0093 -0.4988 -0.5587
 6878SOL    HW222357   2.108   3.695   7.377 -0.2157 -3.8544 -0.2521
 6879SOL     OW22358   8.924   3.480   6.090 -0.2027  0.3855  0.3541
 6879SOL    HW122359   8.829   3.486   6.080 -0.2556 -1.3967 -0.7448
 6879SOL    HW222360   8.948   3.557   6.141 -2.0966  1.4711 -0.2875
 6880SOL     OW22361   1.053   5.563   4.734 -0.1923  0.4089 -0.4281
 6880SOL    HW122362   1.103   5.601   4.661 -0.1547  1.4268  0.0990
 6880SOL    HW222363   1.101   5.484   4.758  0.6946  0.9072 -0.4993
 6881SOL     OW22364   6.787   1.367   1.690  0.5610 -0.0087  0.3244
 6881SOL    HW122365   6.849   1.369   1.762  0.2044 -3.4944  0.8914
 6881SOL    HW222366   6.835   1.327   1.618  0.3412  1.7159 -0.8557
 6882SOL     OW22367   5.325   4.801   0.441 -0.4364  0.1275  0.2167
 6882SOL    HW122368   5.357   4.712   0.424 -1.6370 -0.4135  0.6428
 6882SOL    HW222369   5.232   4.789   0.459 -0.4352  1.3726  1.1500
 6883SOL     OW22370   1.638   9.524   4.132 -0.0484 -0.0773 -0.4598
 6883SOL    HW122371   1.594   9.463   4.190 -2.2440  1.2541 -0.5976
 6883SOL    HW222372   1.664   9.597   4.188 -0.0659  0.1605 -0.7542
 6884SOL     OW22373   0.432   9.608   0.055 -0.0532 -0.2572  0.6332
 6884SOL    HW122374   0.496   9.583  -0.012 -0.3063  0.3113  0.1793
 6884SOL    HW222375   0.407   9.697   0.034 -0.9822 -0.4610  0.8243
 6885SOL     OW22376   1.274   5.405   8.340 -0.2588  0.1243  0.1068
 6885SOL    HW122377   1.293   5.497   8.319 -0.1353  0.1188  0.1952
 6885SOL    HW222378   1.292   5.397   8.434  1.2582 -0.3691 -0.1984
 6886SOL     OW22379   2.152   2.497   6.070 -0.2556 -0.1518  0.8812
 6886SOL    HW122380   2.152   2.532   6.159 -0.0060 -2.0496  1.6750
 6886SOL    HW222381   2.091   2.423   6.073 -2.0548  1.1106 -1.1466
 6887SOL     OW22382   7.042   2.502   0.466 -0.7824  0.4011  0.1239
 6887SOL    HW122383   7.006   2.414   0.472 -1.7937  0.8262  0.5308
 6887SOL    HW222384   6.992   2.545   0.397 -2.3126  1.5365  1.8425
 6888SOL     OW22385   0.900   4.518   0.265 -0.1174  0.2162  0.6923
 6888SOL    HW122386   0.903   4.612   0.245  2.1005  0.2678  0.9945
 6888SOL    HW222387   0.898   4.475   0.180  1.1153  0.5271  0.4952
 6889SOL     OW22388   6.782   7.319   1.337 -0.5104 -0.2219  0.4034
 6889SOL    HW122389   6.732   7.267   1.275  0.8503 -0.4268 -0.5670
 6889SOL    HW222390   6.857   7.264   1.360  1.3662  1.4904 -1.1986
 6890SOL     OW22391   1.042   4.554   6.773 -0.5308  0.0748  0.0736
 6890SOL    HW122392   1.054   4.589   6.862 -0.6144  0.9766 -0.2572
 6890SOL    HW222393   1.125   4.572   6.729 -0.1953 -1.1085  0.1994
 6891SOL     OW22394   7.934   0.996   9.524 -0.6178 -0.2228 -0.5778
 6891SOL    HW122395   7.934   1.087   9.493 -1.3173 -0.0467 -0.0812
 6891SOL    HW222396   7.865   0.993   9.590  0.0982 -0.8667  0.1563
 6892SOL     OW22397   7.506   1.129   8.601 -0.6150  0.3351 -0.1396
 6892SOL    HW122398   7.569   1.177   8.548 -0.3264  0.7676  0.5836
 6892SOL    HW222399   7.530   1.149   8.691 -1.2415 -0.2061  0.1579
 6893SOL     OW22400   2.834   1.835   6.031 -0.7158  0.7860 -0.4102
 6893SOL    HW122401   2.870   1.753   5.997 -0.7113  0.5669  0.1159
 6893SOL    HW222402   2.910   1.885   6.059 -0.8039  0.3118  0.7260
 6894SOL     OW22403   6.543   0.139   5.394 -0.2635  0.0257 -0.0574
 6894SOL    HW122404   6.597   0.070   5.355  0.6801  0.2799  0.7382
 6894SOL    HW222405   6.478   0.092   5.446  0.7165 -0.2916  0.9239
 6895SOL     OW22406   8.967   3.341   7.376  0.2579 -0.0546  0.0211
 6895SOL    HW122407   8.913   3.338   7.456 -1.2992 -0.5427 -0.9932
 6895SOL    HW222408   9.057   3.341   7.408 -0.3174  0.8062  1.8043
 6896SOL     OW22409   6.031   0.570   8.933  0.3626 -0.6372  0.2592
 6896SOL    HW122410   6.065   0.625   9.004  1.0767  0.0862 -0.6107
 6896SOL    HW222411   6.035   0.481   8.968  1.2931 -0.3658  0.9132
 6897SOL     OW22412   6.207   7.728   7.610  0.1663  0.1550 -0.3180
 6897SOL    HW122413   6.275   7.677   7.565 -0.5348  0.1334 -1.3788
 6897SOL    HW222414   6.216   7.816   7.574  0.5028  0.4843  0.5399
 6898SOL     OW22415   2.854   5.391   4.829 -0.5312  0.2769  0.0428
 6898SOL    HW122416   2.834   5.367   4.919 -0.2614  0.3761  0.1318
 6898SOL    HW222417   2.839   5.311   4.778  2.9481 -0.9626  0.6914
 6899SOL     OW22418   3.297   8.719   4.229  0.2694  0.3869  0.5427
 6899SOL    HW122419   3.256   8.805   4.221 -0.5846 -0.0581  0.0084
 6899SOL    HW222420   3.390   8.738   4.241  0.1784  1.3738 -0.1843
 6900SOL     OW22421   8.489   3.499   8.902 -0.0694  0.1483  0.5049
 6900SOL    HW122422   8.581   3.485   8.880 -0.3860  0.3458 -1.0345
 6900SOL    HW222423   8.444   3.421   8.868 -0.7073  0.9348 -0.5190
 6901SOL     OW22424   6.659   6.996   2.711  0.2770 -0.5710 -0.1261
 6901SOL    HW122425   6.694   6.922   2.760 -1.5855 -2.0224 -0.8680
 6901SOL    HW222426   6.606   6.957   2.641 -0.4238  1.4538 -0.8328
 6902SOL     OW22427   7.831   2.240   5.038  0.6178 -0.1448  0.3685
 6902SOL    HW122428   7.795   2.240   5.126  0.0979  1.2916  0.1812
 6902SOL    HW222429   7.870   2.327   5.027  0.8369 -0.3598 -0.7566
 6903SOL     OW22430   6.931   9.436   7.833  0.2076  0.2303  0.2073
 6903SOL    HW122431   6.989   9.414   7.906  1.4885  1.2158 -0.4623
 6903SOL    HW222432   6.976   9.507   7.788 -1.3274  0.7177 -0.6247
 6904SOL     OW22433   4.785   0.734   9.338 -0.3715 -0.3840 -0.2744
 6904SOL    HW122434   4.731   0.662   9.371  0.4215 -0.8314  0.0886
 6904SOL    HW222435   4.853   0.691   9.285  1.4165 -0.1557  1.6762
 6905SOL     OW22436   0.158   8.918   7.426 -0.3499 -0.7473  0.4433
 6905SOL    HW122437   0.210   8.990   7.464  0.8451 -1.8492  0.9692
 6905SOL    HW222438   0.101   8.889   7.497 -0.8063 -0.3586  0.2416
 6906SOL     OW22439   4.829   5.120   7.452 -0.2999 -0.1432 -0.1187
 6906SOL    HW122440   4.884   5.107   7.530  0.4007  2.0462 -0.1754
 6906SOL    HW222441   4.740   5.103   7.482  0.1493 -1.2184  0.6509
 6907SOL     OW22442   0.241   6.187   0.514  0.1954  0.1178  1.0044
 6907SOL    HW122443   0.243   6.243   0.436 -0.4318 -1.0376  0.1264
 6907SOL    HW222444   0.331   6.186   0.545  0.7655 -0.5331 -0.5617
 6908SOL     OW22445   0.663   8.977   5.957 -0.8028  0.2788 -0.8876
 6908SOL    HW122446   0.748   9.008   5.989  0.1515  0.0302 -3.0428
 6908SOL    HW222447   0.648   8.895   6.004  0.0302  0.4426 -0.3088
 6909SOL     OW22448   1.896   6.552   4.488  0.5333  0.4389  0.1123
 6909SOL    HW122449   1.839   6.479   4.464  1.4848 -1.1958  2.5115
 6909SOL    HW222450   1.980   6.532   4.447  0.6111  0.5547  0.2142
 6910SOL     OW22451   4.277   9.574   7.263 -0.1914 -0.1378 -0.4326
 6910SOL    HW122452   4.292   9.663   7.230  0.2679  0.2772  0.8254
 6910SOL    HW222453   4.224   9.587   7.342 -0.5756 -1.0311 -0.5323
 6911SOL     OW22454   2.371   5.961   6.924 -0.4610 -0.1171 -0.1706
 6911SOL    HW122455   2.445   5.994   6.975  0.0752 -0.4191 -0.7383
 6911SOL    HW222456   2.401   5.876   6.892 -1.0754 -0.2593 -0.3778
 6912SOL     OW22457   7.258   8.620   1.387 -0.5244  0.4094  0.4667
 6912SOL    HW122458   7.299   8.598   1.303 -1.2756  0.0934  0.1788
 6912SOL    HW222459   7.304   8.699   1.416 -0.0428  0.3379 -0.0800
 6913SOL     OW22460   5.379   9.007   6.402  0.3215  0.6473 -0.3273
 6913SOL    HW122461   5.339   8.920   6.400 -1.6905  1.4298  1.4360
 6913SOL    HW222462   5.306   9.067   6.382  1.8988  1.9423 -2.7215
 6914SOL     OW22463   3.538   0.007   9.035 -0.5545 -0.2394  0.4390
 6914SOL    HW122464   3.555   0.098   9.058 -1.7075  0.0089  0.3579
 6914SOL    HW222465   3.452   0.008   8.992 -0.7793 -1.4157  0.8068
 6915SOL     OW22466   2.993   4.607   6.563 -0.6630 -0.5180 -0.5120
 6915SOL    HW122467   2.973   4.514   6.547 -1.0748 -0.2319 -1.7643
 6915SOL    HW222468   2.915   4.653   6.535 -0.3486  0.2368 -0.1576
 6916SOL     OW22469   5.978   9.075   5.340  0.6066  0.0828 -0.6412
 6916SOL    HW122470   6.016   8.997   5.299 -0.4208  0.4324 -2.3487
 6916SOL    HW222471   5.949   9.129   5.266  2.2975  2.6404  0.4481
 6917SOL     OW22472   9.480   9.136   5.526  0.7523 -0.6234 -0.7380
 6917SOL    HW122473   9.524   9.150   5.610  0.3172 -0.0727 -0.6023
 6917SOL    HW222474   9.395   9.100   5.549  0.3654  0.1628 -0.9043
 6918SOL     OW22475   9.418   7.192   0.220 -0.3086 -0.4672  0.2346
 6918SOL    HW122476   9.418   7.115   0.276  1.1092 -0.9375 -0.3681
 6918SOL    HW222477   9.411   7.157   0.131  1.6065 -0.0368 -0.1348
 6919SOL     OW22478   4.127   0.275   1.553 -0.4872  0.4369 -0.1089
 6919SOL    HW122479   4.096   0.187   1.576  1.5053 -0.4526 -0.5775
 6919SOL    HW222480   4.146   0.316   1.638 -1.0735  0.2760  0.1019
 6920SOL     OW22481   9.143   3.807   8.092 -0.1194  0.2176 -0.4600
 6920SOL    HW122482   9.100   3.738   8.041 -0.2916 -0.0248  0.0085
 6920SOL    HW222483   9.074   3.871   8.110  0.1609  0.7935 -1.3590
 6921SOL     OW22484   6.186   5.791   4.513  0.1670  0.3799 -0.2089
 6921SOL    HW122485   6.167   5.884   4.499 -1.4301  0.1176 -0.0022
 6921SOL    HW222486   6.219   5.759   4.429 -3.3752  0.2002 -1.6727
 6922SOL     OW22487   3.351   1.866   1.130 -0.3324  0.4861  0.1473
 6922SOL    HW122488   3.295   1.835   1.059 -0.1302 -1.3883  0.7459
 6922SOL    HW222489   3.425   1.907   1.086  0.0724 -1.1424 -0.7750
 6923SOL     OW22490   4.152   7.647   4.586 -0.5506 -0.1245  0.4986
 6923SOL    HW122491   4.112   7.635   4.672 -0.1758 -1.6698  0.4920
 6923SOL    HW222492   4.084   7.622   4.524 -0.7586  0.8084  0.3319
 6924SOL     OW22493   8.448   0.080   7.367  0.0911 -0.6150  0.5452
 6924SOL    HW122494   8.435   0.175   7.371 -0.4077 -0.6300 -0.5363
 6924SOL    HW222495   8.470   0.062   7.276  0.0704 -1.5560  0.7167
 6925SOL     OW22496   3.441   5.291   4.843 -0.5700 -0.2907  0.3285
 6925SOL    HW122497   3.393   5.278   4.925 -1.3837  1.0998  0.0884
 6925SOL    HW222498   3.531   5.305   4.870 -0.8381  0.1788  0.9845
 6926SOL     OW22499   8.047   1.368   7.571  0.2433 -0.2434 -0.2024
 6926SOL    HW122500   8.089   1.295   7.527  1.1639  0.2499 -0.1751
 6926SOL    HW222501   7.985   1.328   7.631  1.0566 -1.0191  0.1408
 6927SOL     OW22502   7.965   7.647   9.514 -0.1917  0.3785 -0.3737
 6927SOL    HW122503   7.906   7.665   9.587  0.0148 -1.8965  0.4268
 6927SOL    HW222504   7.918   7.679   9.437 -2.2662 -0.8515  0.3036
 6928SOL     OW22505   4.425   1.099   3.072  0.0886 -0.4995 -0.0621
 6928SOL    HW122506   4.386   1.012   3.077 -0.8271 -0.0462  1.1494
 6928SOL    HW222507   4.503   1.093   3.128  2.3802 -1.6390 -3.1105
 6929SOL     OW22508   4.010   2.586   3.210 -0.0653  0.3757 -0.2370
 6929SOL    HW122509   3.916   2.569   3.211 -0.5714  2.1003 -3.7368
 6929SOL    HW222510   4.049   2.505   3.177 -0.6402  0.4221 -1.0672
 6930SOL     OW22511   1.368   5.968   3.190 -0.2835 -0.5216  0.5265
 6930SOL    HW122512   1.399   5.969   3.099 -0.4466 -2.7958  0.4069
 6930SOL    HW222513   1.353   6.061   3.210  0.3916  0.1010 -1.5268
 6931SOL     OW22514   6.605   7.476   6.699  0.0387 -0.3173  0.4039
 6931SOL    HW122515   6.620   7.401   6.756  0.1488 -1.3038 -0.9004
 6931SOL    HW222516   6.686   7.527   6.707  0.7707 -1.3513 -0.2029
 6932SOL     OW22517   2.782   2.944   0.500  0.6348 -0.0166  0.3045
 6932SOL    HW122518   2.775   3.018   0.439  3.1901 -0.1970 -0.2892
 6932SOL    HW222519   2.820   2.874   0.448 -0.1322 -1.2384  1.3309
 6933SOL     OW22520   5.213   6.161   4.427 -0.3181 -0.0996 -0.0021
 6933SOL    HW122521   5.190   6.071   4.404  1.3519 -0.2874 -1.0749
 6933SOL    HW222522   5.210   6.209   4.345 -1.2467  0.8889  0.5648
 6934SOL     OW22523   8.054   3.468   4.938  0.1131  0.3604 -0.0635
 6934SOL    HW122524   7.975   3.503   4.979  0.5519  0.0827  1.0838
 6934SOL    HW222525   8.045   3.487   4.845 -1.1958  0.5258  0.0884
 6935SOL     OW22526   2.744   5.247   5.952 -0.4396 -0.2115 -0.2248
 6935SOL    HW122527   2.667   5.259   5.896 -1.0232 -0.1974  0.5512
 6935SOL    HW222528   2.761   5.334   5.989 -1.2136 -0.5779  1.0493
 6936SOL     OW22529   8.696   1.731   8.583  0.0645  0.2388 -0.8313
 6936SOL    HW122530   8.652   1.815   8.567 -0.4985 -0.0708 -0.9485
 6936SOL    HW222531   8.641   1.666   8.539  0.3984 -0.2131 -0.5949
 6937SOL     OW22532   7.280   0.277   7.526 -0.6391 -0.1507 -0.8787
 6937SOL    HW122533   7.292   0.363   7.486 -0.5078 -0.0813 -0.6899
 6937SOL    HW222534   7.353   0.225   7.494  0.9232  0.6086  1.2040
 6938SOL     OW22535   6.009   4.024   8.813 -0.0995  0.2729  0.3232
 6938SOL    HW122536   6.023   4.060   8.900 -1.6026  1.3824  0.1503
 6938SOL    HW222537   6.048   4.089   8.754  0.2041 -0.0787  0.1329
 6939SOL     OW22538   4.072   5.825   3.285  0.4984 -0.1252  0.5252
 6939SOL    HW122539   4.009   5.889   3.250  1.6369  0.6341 -0.2206
 6939SOL    HW222540   4.120   5.794   3.208  1.7967  0.1661  1.1814
 6940SOL     OW22541   1.276   1.236   4.931  0.7344 -0.5140  0.0809
 6940SOL    HW122542   1.350   1.177   4.919  1.4688  0.0963  1.3424
 6940SOL    HW222543   1.224   1.196   5.001  0.2961 -0.5374 -0.2529
 6941SOL     OW22544   8.783   3.146   3.673  0.0745  0.2550  0.2086
 6941SOL    HW122545   8.703   3.172   3.718 -0.9833  0.3724 -1.6287
 6941SOL    HW222546   8.850   3.206   3.707 -1.1704  1.8607 -0.0378
 6942SOL     OW22547   9.262   0.721   7.696 -0.3459 -0.1048  0.5812
 6942SOL    HW122548   9.297   0.674   7.620 -0.9810  2.1632 -1.2209
 6942SOL    HW222549   9.339   0.762   7.736 -0.1640 -0.1745  0.3080
 6943SOL     OW22550   8.238   1.841   8.273 -0.3136 -0.4949 -0.6852
 6943SOL    HW122551   8.214   1.776   8.207 -0.7042  0.6306 -1.7120
 6943SOL    HW222552   8.153   1.873   8.306 -0.1437 -0.1927 -0.5350
 6944SOL     OW22553   7.257   7.913   8.684  0.3727 -0.5708 -0.0782
 6944SOL    HW122554   7.305   7.986   8.723  0.2768 -0.3902 -0.2978
 6944SOL    HW222555   7.168   7.945   8.675 -0.1402 -1.3950  1.6546
 6945SOL     OW22556   7.250   3.870   8.572  0.0123  0.4667  0.1238
 6945SOL    HW122557   7.342   3.884   8.595  0.1785  0.6440 -0.6090
 6945SOL    HW222558   7.253   3.841   8.481 -0.5759 -0.7719  0.4824
 6946SOL     OW22559   1.328   6.544   9.539 -0.4427 -0.8212  0.1776
 6946SOL    HW122560   1.348   6.499   9.621 -0.4507  0.5169  0.9394
 6946SOL    HW222561   1.320   6.636   9.563 -0.8710 -0.4526 -1.2600
 6947SOL     OW22562   6.200   3.823   2.332 -0.2331  0.6725 -0.3296
 6947SOL    HW122563   6.230   3.834   2.242 -2.0110  1.3644 -0.8842
 6947SOL    HW222564   6.156   3.906   2.352 -0.2524  0.3524  1.0234
 6948SOL     OW22565   8.392   9.296   2.690 -0.6850 -0.2258  0.2408
 6948SOL    HW122566   8.329   9.351   2.738 -2.3404 -1.6535 -0.1900
 6948SOL    HW222567   8.356   9.292   2.601  0.4149 -0.5344 -0.2069
 6949SOL     OW22568   3.092   0.884   7.034 -0.0058 -0.0272  0.3451
 6949SOL    HW122569   3.083   0.814   7.099  1.5865 -1.3904 -0.8114
 6949SOL    HW222570   3.179   0.920   7.050 -0.4826  1.1714  0.3802
 6950SOL     OW22571   1.197   4.017   4.292 -0.1868  0.0693 -0.0748
 6950SOL    HW122572   1.103   4.032   4.304  0.0094  0.2215  1.5903
 6950SOL    HW222573   1.203   3.955   4.220 -1.4828  1.1752 -1.1772
 6951SOL     OW22574   7.052   0.571   0.911 -0.3561 -0.0762 -0.4429
 6951SOL    HW122575   6.974   0.627   0.909 -2.0731 -2.2802  0.4732
 6951SOL    HW222576   7.069   0.557   1.005  2.0418  1.4261 -0.5661
 6952SOL     OW22577   3.552   2.926   2.404 -0.1242  0.3581  0.2132
 6952SOL    HW122578   3.484   2.989   2.380 -0.5016 -0.3547 -0.6391
 6952SOL    HW222579   3.516   2.879   2.479 -0.1992  0.5747  0.3133
 6953SOL     OW22580   9.381   5.576   5.712 -0.1934  0.2790  0.0570
 6953SOL    HW122581   9.451   5.512   5.698 -0.0582  0.2587  0.7820
 6953SOL    HW222582   9.413   5.632   5.783 -1.9887 -1.4014  2.3715
 6954SOL     OW22583   9.239   7.452   9.159  0.1615  0.5288  0.1522
 6954SOL    HW122584   9.253   7.437   9.252  1.0773 -0.6909 -0.1598
 6954SOL    HW222585   9.290   7.530   9.139  2.0257 -0.6171  0.2029
 6955SOL     OW22586   5.863   5.128   0.327 -0.6970 -0.0544  0.5025
 6955SOL    HW122587   5.956   5.134   0.350 -0.7915  2.2735  0.5655
 6955SOL    HW222588   5.842   5.035   0.334  1.2110 -0.4278  2.1459
 6956SOL     OW22589   7.715   4.483   2.357 -0.6473 -0.9594  0.1833
 6956SOL    HW122590   7.677   4.571   2.356  0.0472 -0.6574 -0.4055
 6956SOL    HW222591   7.809   4.497   2.351 -0.4522 -1.7143  1.2141
 6957SOL     OW22592   3.731   3.581   1.942 -0.1045  0.0293  0.0608
 6957SOL    HW122593   3.699   3.496   1.972 -3.0071  0.7282 -0.7619
 6957SOL    HW222594   3.709   3.641   2.013 -1.7826  0.7115 -0.9759
 6958SOL     OW22595   0.472   7.760   3.538 -0.1031  0.0799 -0.4171
 6958SOL    HW122596   0.517   7.820   3.478  0.1823 -0.0523 -0.3305
 6958SOL    HW222597   0.532   7.747   3.610 -1.1969  1.7858  0.8932
 6959SOL     OW22598   4.634   1.060   3.256 -0.1808 -0.8769 -0.0766
 6959SOL    HW122599   4.719   1.104   3.251 -0.2179 -0.9356 -2.6502
 6959SOL    HW222600   4.655   0.968   3.266 -0.0351 -0.6723  1.8227
 6960SOL     OW22601   8.981   4.360   2.464  0.6455 -0.1441 -0.1087
 6960SOL    HW122602   8.919   4.309   2.516  1.0679 -0.0144  0.5315
 6960SOL    HW222603   8.940   4.446   2.456  0.9784  0.1176  0.7951
 6961SOL     OW22604   2.070   8.036   6.860 -0.1054  0.1022 -0.3470
 6961SOL    HW122605   2.070   8.047   6.955 -2.4713 -1.6180 -0.0493
 6961SOL    HW222606   1.991   8.082   6.830  0.8020  0.9394 -1.5604
 6962SOL     OW22607   3.978   4.497   1.295  0.3201 -0.2930 -0.2597
 6962SOL    HW122608   3.915   4.443   1.343  0.3537 -1.7795 -1.7915
 6962SOL    HW222609   3.934   4.581   1.284 -0.5082 -0.6024  0.5543
 6963SOL     OW22610   8.337   6.891   1.539  0.1628 -0.2285  0.1290
 6963SOL    HW122611   8.324   6.855   1.452  1.0844 -0.0079 -0.1159
 6963SOL    HW222612   8.432   6.892   1.551  0.0293 -2.3202  2.0124
 6964SOL     OW22613   1.918   3.163   1.661  0.2379 -0.0626  0.5185
 6964SOL    HW122614   1.923   3.157   1.757  0.7117 -0.4842  0.4715
 6964SOL    HW222615   1.828   3.137   1.640 -0.6988  2.4210  1.0101
 6965SOL     OW22616   0.192   4.952   9.179 -0.1643 -0.1261  0.5120
 6965SOL    HW122617   0.206   5.035   9.133  0.0120 -0.0280  0.7424
 6965SOL    HW222618   0.280   4.924   9.204 -0.3146  0.1887  1.4343
 6966SOL     OW22619   9.130   6.089   3.054  0.3941 -0.2035  0.0213
 6966SOL    HW122620   9.092   6.069   3.140  0.1095  0.4458  0.0509
 6966SOL    HW222621   9.056   6.080   2.993  0.1371  1.2248  0.0993
 6967SOL     OW22622   5.638   3.903   5.660 -0.1491  0.5511 -0.2340
 6967SOL    HW122623   5.621   3.865   5.746 -1.2133  1.9409  0.1968
 6967SOL    HW222624   5.635   3.828   5.600 -0.3976 -0.2934  0.7966
 6968SOL     OW22625   9.637   8.808   8.186 -0.4709 -0.5269 -0.0947
 6968SOL    HW122626   9.573   8.850   8.243 -0.6794  0.8220 -1.2768
 6968SOL    HW222627   9.687   8.750   8.244 -0.8660  0.5713  1.3937
 6969SOL     OW22628   5.797   0.905   4.334 -0.9543 -0.4802 -0.4097
 6969SOL    HW122629   5.848   0.837   4.290 -1.2239 -0.8141 -0.2045
 6969SOL    HW222630   5.727   0.858   4.379  0.2369 -0.3135  1.7471
 6970SOL     OW22631   7.817   5.262   3.912 -0.0408 -1.0610  0.7733
 6970SOL    HW122632   7.842   5.227   3.998  1.8287 -0.8584  0.3620
 6970SOL    HW222633   7.760   5.195   3.875 -0.5480 -1.3432  1.9950
 6971SOL     OW22634   3.282   0.352   6.652  0.5030 -0.1716  0.4124
 6971SOL    HW122635   3.202   0.302   6.665 -0.9989  2.2294  1.1265
 6971SOL    HW222636   3.272   0.392   6.566  1.0018  0.0163  0.4391
 6972SOL     OW22637   6.587   9.634   4.245  0.0910  0.0469 -0.7464
 6972SOL    HW122638   6.660   9.630   4.183  0.9987  2.4594  0.0189
 6972SOL    HW222639   6.629   9.652   4.329 -1.3319  0.3307 -0.0694
 6973SOL     OW22640   4.274   7.016   3.190  0.4056  0.3935 -0.1891
 6973SOL    HW122641   4.325   6.951   3.238 -0.6710 -1.5867 -1.5344
 6973SOL    HW222642   4.232   7.069   3.257  2.0068  0.2707  0.9517
 6974SOL     OW22643   0.902   5.702   4.131 -0.7381 -0.5989 -0.3305
 6974SOL    HW122644   0.932   5.612   4.144 -0.4198 -0.3130  1.1184
 6974SOL    HW222645   0.806   5.696   4.132 -0.7371 -0.7259  1.5770
 6975SOL     OW22646   8.052   4.110   9.663 -0.1431  0.1766  0.1570
 6975SOL    HW122647   8.123   4.114   9.728  0.0420 -0.0586 -0.0313
 6975SOL    HW222648   7.997   4.186   9.684  1.2461  1.5671 -0.9496
 6976SOL     OW22649   5.847   7.452   3.909  0.2825 -0.2204  0.7402
 6976SOL    HW122650   5.929   7.457   3.958 -0.0691 -1.6535  1.5431
 6976SOL    HW222651   5.844   7.362   3.876 -1.7691 -0.7868  2.2618
 6977SOL     OW22652   3.576   4.364   6.366  0.3445 -0.1095 -0.0540
 6977SOL    HW122653   3.482   4.380   6.378  0.1888 -1.1627  0.2724
 6977SOL    HW222654   3.618   4.427   6.424 -0.1209  0.9038 -0.7827
 6978SOL     OW22655   7.310   5.374   8.973 -0.2204  1.1531  0.2825
 6978SOL    HW122656   7.276   5.298   9.021  0.0500  0.8411 -0.0130
 6978SOL    HW222657   7.389   5.398   9.021  1.2130 -0.4318 -1.1398
 6979SOL     OW22658   3.508   5.598   0.449  0.3171 -0.3937  0.4443
 6979SOL    HW122659   3.601   5.575   0.456  0.4130  0.2762  1.8860
 6979SOL    HW222660   3.465   5.541   0.513 -0.3419 -1.0110 -0.5296
 6980SOL     OW22661   5.903   8.007   2.401 -0.7087  0.5405  0.3797
 6980SOL    HW122662   5.951   7.996   2.319  0.2566  0.3171  0.9521
 6980SOL    HW222663   5.826   7.950   2.392 -0.2391 -0.0321 -0.0861
 6981SOL     OW22664   4.834   7.780   0.206  0.6984  0.2035  0.2484
 6981SOL    HW122665   4.894   7.828   0.263 -0.0548  0.4524  0.8570
 6981SOL    HW222666   4.883   7.767   0.125  1.9091 -0.4262  1.0483
 6982SOL     OW22667   3.889   2.840   7.250 -0.3861  0.3734 -0.3141
 6982SOL    HW122668   3.919   2.920   7.293  1.9554  0.6639 -2.2186
 6982SOL    HW222669   3.914   2.852   7.158  2.1380 -3.3530 -0.3454
 6983SOL     OW22670   4.338   0.843   3.060 -0.0271  0.2640  0.3409
 6983SOL    HW122671   4.260   0.835   3.115 -1.1205  0.0772 -1.1698
 6983SOL    HW222672   4.400   0.779   3.095 -0.9429 -0.3176  0.9358
 6984SOL     OW22673   9.318   3.985   3.672 -0.4094  0.7219 -0.1546
 6984SOL    HW122674   9.403   3.968   3.633 -1.3232 -0.2013 -1.8526
 6984SOL    HW222675   9.301   4.077   3.652 -0.1073  0.7287 -0.3801
 6985SOL     OW22676   5.822   4.261   6.859  0.3311  0.4102 -0.2370
 6985SOL    HW122677   5.878   4.318   6.911  0.9917 -0.8586  0.4932
 6985SOL    HW222678   5.802   4.187   6.917 -1.6951  0.5819 -0.6530
 6986SOL     OW22679   0.059   0.558   0.715  0.5418 -0.2200 -0.0374
 6986SOL    HW122680  -0.008   0.493   0.736  1.4883 -1.7017 -1.3307
 6986SOL    HW222681   0.078   0.544   0.622  2.5545  0.2111  0.2610
 6987SOL     OW22682   7.730   5.038   1.269  0.0791  0.1608 -0.5392
 6987SOL    HW122683   7.818   5.009   1.246  0.3589 -0.1889  0.8308
 6987SOL    HW222684   7.708   5.104   1.204  0.9591 -0.4408 -1.4748
 6988SOL     OW22685   3.069   7.584   3.532  0.2629 -0.1790  0.3524
 6988SOL    HW122686   2.993   7.568   3.588 -0.2804  0.8828 -0.0636
 6988SOL    HW222687   3.125   7.642   3.584  1.4353 -1.9707  1.1825
 6989SOL     OW22688   5.830   1.412   6.515  0.0897  0.4894  0.1266
 6989SOL    HW122689   5.761   1.372   6.568 -0.3804  0.7564 -0.2825
 6989SOL    HW222690   5.817   1.378   6.427 -0.3454  1.5670 -0.2395
 6990SOL     OW22691   2.362   1.645   5.983  0.3051 -0.5427 -0.5723
 6990SOL    HW122692   2.380   1.571   5.926 -0.8976 -0.4004 -1.1645
 6990SOL    HW222693   2.353   1.607   6.070 -1.8575 -1.3577 -1.0872
 6991SOL     OW22694   4.923   4.788   1.527  0.5643 -0.0280  0.1012
 6991SOL    HW122695   4.906   4.879   1.551  2.1905  0.0071  1.2690
 6991SOL    HW222696   5.017   4.776   1.541  0.4672 -1.7558 -0.4884
 6992SOL     OW22697   5.701   5.010   4.118 -0.8883 -0.3521 -0.1763
 6992SOL    HW122698   5.707   5.105   4.129  1.7271 -0.4210 -0.3636
 6992SOL    HW222699   5.719   4.974   4.204 -0.8244 -0.6821 -0.3246
 6993SOL     OW22700   8.261   6.983   4.620 -0.1194  0.6902 -0.1306
 6993SOL    HW122701   8.298   6.993   4.532 -1.8539  0.3032 -0.9551
 6993SOL    HW222702   8.337   6.974   4.677  1.0561 -0.2830 -1.7451
 6994SOL     OW22703   0.885   0.904   4.283 -0.3286 -0.6444  0.0337
 6994SOL    HW122704   0.955   0.932   4.223 -0.5782 -0.0340  0.0179
 6994SOL    HW222705   0.930   0.884   4.365 -0.2412  0.8317  0.3763
 6995SOL     OW22706   0.222   7.606   5.091  0.0496  0.2529 -0.3652
 6995SOL    HW122707   0.315   7.585   5.077 -0.1434 -0.9118 -0.0090
 6995SOL    HW222708   0.215   7.699   5.069  1.2983  0.3559 -0.4026
 6996SOL     OW22709   8.365   9.610   4.648 -0.2099  0.2505  0.3841
 6996SOL    HW122710   8.336   9.528   4.607  2.0236 -0.3127 -0.1829
 6996SOL    HW222711   8.423   9.582   4.719  0.6388  1.3480  0.1407
 6997SOL     OW22712   3.594   7.520   3.014 -0.1912  0.1515 -0.2009
 6997SOL    HW122713   3.660   7.465   3.056 -0.2632 -0.5525 -0.9737
 6997SOL    HW222714   3.617   7.609   3.038  0.1191 -0.1944  0.8199
 6998SOL     OW22715   6.793   6.636   7.043 -0.7414  0.3227 -0.0322
 6998SOL    HW122716   6.741   6.602   6.970 -0.5900  1.2316 -0.5808
 6998SOL    HW222717   6.875   6.664   7.003  1.5661 -3.7874  1.2010
 6999SOL     OW22718   6.583   2.367   6.776  0.4773 -0.3803  0.0045
 6999SOL    HW122719   6.601   2.417   6.696 -1.2102 -1.0383 -0.8401
 6999SOL    HW222720   6.560   2.434   6.841 -2.1859  0.0590 -1.2239
 7000SOL     OW22721   0.353   4.025   4.668 -0.0041  0.0973 -0.1484
 7000SOL    HW122722   0.390   4.112   4.656 -2.5675  1.2961 -0.0165
 7000SOL    HW222723   0.427   3.965   4.654  2.0569  2.2867  0.7448
 7001SOL     OW22724   4.236   3.736   3.859 -0.1650 -0.0074 -0.6434
 7001SOL    HW122725   4.247   3.827   3.831  0.7305  0.9062  2.3845
 7001SOL    HW222726   4.173   3.741   3.931 -0.0665 -1.8107 -0.3948
 7002SOL     OW22727   0.836   2.942   7.356  0.3073 -0.0099 -0.5475
 7002SOL    HW122728   0.869   2.949   7.446 -0.7904 -0.1078 -0.1292
 7002SOL    HW222729   0.799   3.028   7.337  2.5267  0.7497 -1.7386
 7003SOL     OW22730   2.966   6.890   4.715  0.1508 -0.2399  0.6013
 7003SOL    HW122731   2.964   6.850   4.802  3.4741  0.9372  1.3777
 7003SOL    HW222732   2.912   6.968   4.723 -1.1657 -1.1643  0.9756
 7004SOL     OW22733   2.471   7.452   2.077 -0.8961  0.3962 -0.5260
 7004SOL    HW122734   2.388   7.501   2.074 -0.0653  1.8422 -1.7439
 7004SOL    HW222735   2.480   7.416   1.988 -0.3093  0.0938 -0.3456
 7005SOL     OW22736   1.739   6.305   7.450  0.2949  0.1964  0.2162
 7005SOL    HW122737   1.750   6.368   7.378 -1.1647  1.1153  0.7354
 7005SOL    HW222738   1.645   6.306   7.468  0.6655  0.3490  2.4526
 7006SOL     OW22739   3.334   5.842   9.082 -0.3450  0.1634 -0.4313
 7006SOL    HW122740   3.385   5.912   9.123  1.4777 -1.9137  1.0988
 7006SOL    HW222741   3.254   5.837   9.135  0.7968 -0.7379  1.2750
 7007SOL     OW22742   3.497   2.125   2.082  0.2226  0.6252 -0.1343
 7007SOL    HW122743   3.507   2.138   1.988  0.9645  3.2138  0.2126
 7007SOL    HW222744   3.573   2.072   2.107 -0.4812 -0.9048 -1.0656
 7008SOL     OW22745   3.489   1.464   9.541  0.2112  0.2949  0.2552
 7008SOL    HW122746   3.528   1.532   9.487 -0.0195  0.5974  0.4648
 7008SOL    HW222747   3.395   1.468   9.521  0.4993 -2.1064 -2.1526
 7009SOL     OW22748   8.263   1.348   5.303  0.0699 -0.2769  0.7887
 7009SOL    HW122749   8.209   1.388   5.371  0.5827  0.4975  0.7444
 7009SOL    HW222750   8.232   1.258   5.298 -0.5245 -0.1157  1.4777
 7010SOL     OW22751   4.694   9.500   3.170  0.1103 -0.0418  0.1441
 7010SOL    HW122752   4.657   9.415   3.194  0.8355 -0.0896  1.1392
 7010SOL    HW222753   4.778   9.503   3.215  0.3632  0.9532 -0.3770
 7011SOL     OW22754   2.689   1.408   5.599 -0.3382 -0.1300  0.2739
 7011SOL    HW122755   2.742   1.359   5.536  1.0690  0.3631  1.0270
 7011SOL    HW222756   2.641   1.471   5.547 -1.9599 -2.0393 -0.6951
 7012SOL     OW22757   8.090   0.870   2.554  0.5719 -0.0676 -0.2554
 7012SOL    HW122758   8.108   0.936   2.621 -0.0871  0.1379 -0.2713
 7012SOL    HW222759   8.175   0.829   2.537  0.9227  0.5422 -0.0011
 7013SOL     OW22760   1.279   3.168   0.128 -0.3583 -0.2125  0.0941
 7013SOL    HW122761   1.368   3.135   0.111  0.6541  2.3776 -0.1189
 7013SOL    HW222762   1.222   3.110   0.076  1.3528 -0.9801 -1.0361
 7014SOL     OW22763   7.143   5.712   2.494  0.0612 -0.0125  0.8098
 7014SOL    HW122764   7.221   5.756   2.461 -0.1013 -0.3701 -0.0747
 7014SOL    HW222765   7.106   5.668   2.417 -1.8512  1.3818  0.8567
 7015SOL     OW22766   0.381   4.664   3.061  0.0735  0.6978  0.0688
 7015SOL    HW122767   0.476   4.670   3.070  0.5475 -2.0113 -1.8046
 7015SOL    HW222768   0.356   4.590   3.117 -0.6168  0.1720 -0.8974
 7016SOL     OW22769   4.404   5.706   4.896 -0.4197  0.3792 -0.3149
 7016SOL    HW122770   4.497   5.707   4.873  0.2281  0.4242  2.0501
 7016SOL    HW222771   4.367   5.781   4.849  1.0142  1.1077 -0.3505
 7017SOL     OW22772   1.613   4.871   3.200 -0.3833  0.0084  0.1874
 7017SOL    HW122773   1.555   4.870   3.124 -1.4749 -1.6608  0.9815
 7017SOL    HW222774   1.634   4.963   3.213 -1.5186  0.4879 -1.1191
 7018SOL     OW22775   5.892   2.480   9.494  0.3303  0.7175 -0.3893
 7018SOL    HW122776   5.858   2.437   9.416 -1.3833 -1.2096  1.3192
 7018SOL    HW222777   5.888   2.414   9.562  1.4062  2.4457  1.4681
 7019SOL     OW22778   6.805   3.172   8.233  0.2939 -0.0745  0.5685
 7019SOL    HW122779   6.894   3.161   8.268  1.1235  2.7286 -0.4164
 7019SOL    HW222780   6.811   3.141   8.142  0.1573 -0.2373  0.6149
 7020SOL     OW22781   3.409   2.631   2.171  0.2210  0.1558  0.2298
 7020SOL    HW122782   3.445   2.542   2.172 -1.0170 -0.3875 -0.5148
 7020SOL    HW222783   3.474   2.682   2.123 -0.4760 -1.0848 -2.2650
 7021SOL     OW22784   8.102   6.271   4.987  0.2852 -0.0239 -0.7843
 7021SOL    HW122785   8.058   6.189   5.004 -0.1132  0.8012  3.0066
 7021SOL    HW222786   8.060   6.334   5.045  2.3866  2.2414 -1.5191
 7022SOL     OW22787   9.037   7.606   1.166 -0.4137  0.3823  0.6325
 7022SOL    HW122788   9.083   7.687   1.146 -0.5620  0.5053  0.7894
 7022SOL    HW222789   9.010   7.573   1.080  0.3596  0.0722  0.5049
 7023SOL     OW22790   1.264   1.017   4.728  0.0452 -0.1845  1.0708
 7023SOL    HW122791   1.183   1.023   4.778  0.7415  0.1449  2.1771
 7023SOL    HW222792   1.265   1.097   4.675 -0.4723 -0.3166  0.8542
 7024SOL     OW22793   5.988   6.769   1.556  0.2334 -0.2592  0.3635
 7024SOL    HW122794   6.058   6.743   1.497  1.1412  0.5277  1.0642
 7024SOL    HW222795   5.961   6.688   1.599  0.1118 -0.7019 -0.5235
 7025SOL     OW22796   2.351   8.038   8.363 -0.4244 -0.2554 -0.0927
 7025SOL    HW122797   2.388   8.088   8.436  0.5687  2.4635 -2.2958
 7025SOL    HW222798   2.274   7.995   8.400  0.5526  0.2333  2.7407
 7026SOL     OW22799   7.494   2.156   3.037  0.2412 -0.1546  0.3100
 7026SOL    HW122800   7.495   2.175   2.943 -0.3889 -0.0513  0.3261
 7026SOL    HW222801   7.581   2.183   3.067  0.2882  0.2232 -0.1584
 7027SOL     OW22802   7.953   3.494   2.190 -0.1520 -0.8675  0.5889
 7027SOL    HW122803   7.874   3.478   2.242  0.3599 -0.7660  1.4110
 7027SOL    HW222804   7.965   3.589   2.194 -0.8193 -0.6877 -0.7988
 7028SOL     OW22805   8.685   0.442   7.695 -0.3380 -0.1116  0.0318
 7028SOL    HW122806   8.767   0.401   7.668 -0.1382 -1.1487  1.9909
 7028SOL    HW222807   8.667   0.507   7.628  0.9686 -1.3158 -1.5611
 7029SOL     OW22808   5.915   8.326   4.145  0.3722 -0.1064 -0.0535
 7029SOL    HW122809   5.821   8.337   4.156  0.3556  0.4509 -0.6963
 7029SOL    HW222810   5.940   8.262   4.211 -0.2068  0.8598  1.1480
 7030SOL     OW22811   0.549   6.539   8.427  0.1734 -0.1682 -0.3822
 7030SOL    HW122812   0.463   6.496   8.425 -0.6231  1.3293 -2.1019
 7030SOL    HW222813   0.602   6.491   8.364  0.9202 -1.6047  1.2753
 7031SOL     OW22814   3.712   1.658   7.667  0.2080  0.6339 -0.1807
 7031SOL    HW122815   3.747   1.654   7.578 -0.3844 -1.7827 -0.3758
 7031SOL    HW222816   3.664   1.576   7.678 -0.2812  1.1459  2.1639
 7032SOL     OW22817   1.678   8.895   7.095  0.0687 -0.7863 -0.0917
 7032SOL    HW122818   1.693   8.883   7.189  0.6596 -0.6713 -0.1689
 7032SOL    HW222819   1.765   8.895   7.056  0.0435  1.6390 -0.3301
 7033SOL     OW22820   1.395   4.263   1.509  0.1256  0.5343 -0.3015
 7033SOL    HW122821   1.395   4.210   1.429  2.4998  2.4324 -1.6910
 7033SOL    HW222822   1.339   4.338   1.488  0.8496  1.0955 -0.2663
 7034SOL     OW22823   6.060   1.200   5.702 -0.2295  0.5633  0.1125
 7034SOL    HW122824   6.065   1.105   5.716 -1.4768  0.5392  0.4850
 7034SOL    HW222825   6.037   1.236   5.788  0.9634  1.2964  0.1540
 7035SOL     OW22826   0.919   1.398   3.274 -0.0838  0.1478 -0.5210
 7035SOL    HW122827   0.923   1.470   3.336 -0.3030  0.8370 -1.2840
 7035SOL    HW222828   0.907   1.440   3.189 -0.5173 -0.8070 -0.9496
 7036SOL     OW22829   9.270   6.776   1.792  0.2423  0.1506  0.0319
 7036SOL    HW122830   9.200   6.718   1.763  1.3711 -0.8127 -0.8777
 7036SOL    HW222831   9.299   6.741   1.875  1.8887 -1.5445 -1.1794
 7037SOL     OW22832   6.679   4.530   9.201 -0.0231 -0.2656  0.1606
 7037SOL    HW122833   6.686   4.624   9.187  1.0586 -0.5121 -1.2085
 7037SOL    HW222834   6.604   4.503   9.146  0.2727 -0.3354 -0.2115
 7038SOL     OW22835   5.447   7.661   6.108 -0.5879  0.4126  0.5292
 7038SOL    HW122836   5.518   7.670   6.045 -0.9388  2.2396  0.3499
 7038SOL    HW222837   5.478   7.708   6.186 -1.0336 -0.0148  0.9765
 7039SOL     OW22838   0.856   1.117   7.310  0.6094  0.2006  1.0667
 7039SOL    HW122839   0.801   1.119   7.389  0.8372 -0.9441  1.2621
 7039SOL    HW222840   0.840   1.202   7.268 -0.0877  0.5216  1.9492
 7040SOL     OW22841   8.307   9.421   5.065  0.5889 -0.3814  0.1853
 7040SOL    HW122842   8.222   9.433   5.106  0.6103 -3.4665  1.3893
 7040SOL    HW222843   8.288   9.377   4.982  0.9358 -0.2011  0.0080
 7041SOL     OW22844   8.141   1.416   5.057  0.5942 -0.0553 -0.2184
 7041SOL    HW122845   8.081   1.485   5.084 -0.3205 -0.9103 -0.0016
 7041SOL    HW222846   8.192   1.396   5.136 -0.4925 -0.9636  0.2763
 7042SOL     OW22847   7.951   3.786   4.142 -0.1304  0.3771 -0.2668
 7042SOL    HW122848   8.026   3.799   4.201 -0.2661  1.1400 -0.2510
 7042SOL    HW222849   7.879   3.763   4.200  0.3299 -1.5687 -0.3728
 7043SOL     OW22850   8.644   4.131   7.090  0.2519  0.0130  0.0015
 7043SOL    HW122851   8.729   4.094   7.065 -0.6068 -2.0027 -0.0643
 7043SOL    HW222852   8.611   4.072   7.158 -1.0480  0.8396  0.1234
 7044SOL     OW22853   1.227   4.390   5.825  0.1327  0.5928  0.2259
 7044SOL    HW122854   1.192   4.302   5.831  2.9066 -0.6500 -0.1890
 7044SOL    HW222855   1.171   4.435   5.762  0.5502 -1.9472 -2.1343
 7045SOL     OW22856   7.533   9.265   4.543 -0.8312 -0.2490 -0.0837
 7045SOL    HW122857   7.592   9.271   4.468 -2.0147  0.3747 -1.0057
 7045SOL    HW222858   7.541   9.174   4.573 -0.5104 -0.5709 -1.1143
 7046SOL     OW22859   5.318   8.468   8.208  0.3944 -0.5107 -0.2850
 7046SOL    HW122860   5.240   8.419   8.234  0.1319 -1.3422 -2.4450
 7046SOL    HW222861   5.300   8.498   8.119  0.7516  3.2301  0.7353
 7047SOL     OW22862   9.060   8.124   8.741 -0.3717  0.3256 -0.3930
 7047SOL    HW122863   9.057   8.166   8.655  1.7504 -0.4141 -0.8930
 7047SOL    HW222864   8.982   8.156   8.786 -0.6907  1.9912 -2.0057
 7048SOL     OW22865   6.217   9.005   5.684 -0.1200  0.1849  0.7255
 7048SOL    HW122866   6.139   8.981   5.633  0.9089 -1.1055 -0.3078
 7048SOL    HW222867   6.280   9.034   5.619  0.4087  0.8524  1.5220
 7049SOL     OW22868   7.034   4.590   1.324  0.0068 -0.1986 -0.3108
 7049SOL    HW122869   7.083   4.545   1.256  1.4744 -0.5532  0.9098
 7049SOL    HW222870   7.024   4.525   1.394  0.7859  0.8593  0.8353
 7050SOL     OW22871   8.194   1.607   3.937  0.5343 -0.1123 -0.1056
 7050SOL    HW122872   8.270   1.623   3.993 -0.1770 -1.1284  1.2099
 7050SOL    HW222873   8.119   1.636   3.989 -0.0788 -0.2329 -0.9015
 7051SOL     OW22874   3.717   6.401   1.171  0.1467  1.0286 -0.1093
 7051SOL    HW122875   3.739   6.494   1.163  0.0425  1.0173 -0.5546
 7051SOL    HW222876   3.798   6.355   1.150 -0.0500  1.0052 -0.8792
 7052SOL     OW22877   0.483   1.811   0.844 -0.4154 -0.6877 -0.1785
 7052SOL    HW122878   0.414   1.790   0.781  0.5460 -1.6776 -0.9505
 7052SOL    HW222879   0.561   1.823   0.790 -0.1145  1.1777  0.6144
 7053SOL     OW22880   8.489   5.535   4.986  0.2566 -0.2085  0.7470
 7053SOL    HW122881   8.407   5.552   5.032  0.5328  3.6210  0.1044
 7053SOL    HW222882   8.464   5.477   4.913 -1.4564 -0.6566  1.6241
 7054SOL     OW22883   3.893   4.487   3.164  0.6040 -0.1149 -0.8040
 7054SOL    HW122884   3.814   4.493   3.111  0.1788 -0.0426 -0.1724
 7054SOL    HW222885   3.964   4.478   3.101  0.4204  2.6611 -1.5234
 7055SOL     OW22886   4.533   6.035   7.547  0.3320  0.4883 -0.6540
 7055SOL    HW122887   4.462   6.008   7.489 -0.8775 -1.0087  1.4079
 7055SOL    HW222888   4.604   5.974   7.529 -0.6818 -1.1428  0.6087
 7056SOL     OW22889   1.550   8.550   2.152 -0.1465  0.2837  0.1710
 7056SOL    HW122890   1.536   8.458   2.173  2.1322  0.1940  1.7426
 7056SOL    HW222891   1.646   8.558   2.145 -0.0545  2.9363  2.4893
 7057SOL     OW22892   8.150   8.476   9.485  0.1467  0.7727  0.4182
 7057SOL    HW122893   8.179   8.414   9.418 -1.0253  1.5132 -0.8330
 7057SOL    HW222894   8.231   8.507   9.526  0.7833 -1.1589  0.7269
 7058SOL     OW22895   7.390   3.725   2.919 -0.2961 -0.2195 -0.1633
 7058SOL    HW122896   7.437   3.793   2.966 -1.0943 -0.9809  1.8619
 7058SOL    HW222897   7.457   3.661   2.896  0.0292 -0.1485  0.5597
 7059SOL     OW22898   4.761   5.049   7.209 -0.1794 -0.1668 -0.1061
 7059SOL    HW122899   4.776   5.092   7.293 -0.7122  2.0781 -1.1131
 7059SOL    HW222900   4.720   4.965   7.233  0.8692 -0.1802  1.9075
 7060SOL     OW22901   4.749   0.806   2.313  0.2734  0.0375  0.2155
 7060SOL    HW122902   4.721   0.806   2.404 -0.0373  0.9033  0.1318
 7060SOL    HW222903   4.769   0.714   2.294  1.5604  0.0134  1.5042
 7061SOL     OW22904   7.041   2.335   6.047  0.0678  0.3596  0.3441
 7061SOL    HW122905   7.108   2.274   6.079  0.6149  1.6094  1.7068
 7061SOL    HW222906   6.958   2.287   6.057  0.5865 -0.6090  0.1687
 7062SOL     OW22907   5.310   5.049   7.339 -0.1788  0.2558  0.6737
 7062SOL    HW122908   5.229   5.098   7.349 -1.7262 -2.1122  0.6925
 7062SOL    HW222909   5.287   4.977   7.279  1.8655 -0.5666  0.7917
 7063SOL     OW22910   1.077   6.947   3.754 -0.0999 -0.0234  0.5466
 7063SOL    HW122911   1.161   6.903   3.749  0.0644  0.1902  1.3561
 7063SOL    HW222912   1.022   6.900   3.690  0.4971 -0.4401  0.3295
 7064SOL     OW22913   5.281   1.111   9.100  0.0139  0.5684  0.7220
 7064SOL    HW122914   5.226   1.036   9.125  1.1907 -0.8145 -0.6323
 7064SOL    HW222915   5.370   1.077   9.105  0.4472  0.8808 -2.8692
 7065SOL     OW22916   0.808   2.901   0.179 -0.4815 -0.0918 -0.3024
 7065SOL    HW122917   0.783   2.992   0.193 -1.0511 -0.5945  2.6084
 7065SOL    HW222918   0.875   2.883   0.245 -0.4670 -1.7940 -0.7156
 7066SOL     OW22919   9.383   8.567   8.986 -0.0163 -0.5866 -0.5576
 7066SOL    HW122920   9.317   8.630   9.016  0.7560  0.3686 -0.7971
 7066SOL    HW222921   9.395   8.507   9.060 -0.7813 -0.4603 -0.3283
 7067SOL     OW22922   6.777   3.050   8.640  0.1601 -0.1832  0.1523
 7067SOL    HW122923   6.828   2.986   8.590  0.6614 -0.1914  0.6668
 7067SOL    HW222924   6.687   3.018   8.635  0.2100 -0.1998 -0.7184
 7068SOL     OW22925   9.435   2.512   5.343  0.1414 -0.4431 -0.2998
 7068SOL    HW122926   9.452   2.590   5.292 -1.6224  0.2917  0.1623
 7068SOL    HW222927   9.339   2.507   5.349  0.2454 -1.2370  1.7536
 7069SOL     OW22928   6.251   6.274   5.912  0.3221 -0.3667 -0.3605
 7069SOL    HW122929   6.203   6.218   5.850  0.2151  1.6697 -2.2329
 7069SOL    HW222930   6.187   6.338   5.942  0.9022 -0.0605  0.2532
 7070SOL     OW22931   7.567   9.440   7.895 -0.1359  0.2070 -0.4411
 7070SOL    HW122932   7.651   9.413   7.934 -1.0625  1.2619  2.6434
 7070SOL    HW222933   7.585   9.526   7.858  0.3986 -0.0458 -0.7758
 7071SOL     OW22934   3.466   0.692   0.978 -0.1565 -0.0247 -0.4463
 7071SOL    HW122935   3.547   0.678   0.929 -0.2205  0.1558 -0.6057
 7071SOL    HW222936   3.484   0.656   1.065  0.6444  1.3996  0.0182
 7072SOL     OW22937   6.768   0.890   2.660  0.1624 -0.5420 -0.1567
 7072SOL    HW122938   6.747   0.917   2.750  0.0207 -0.9582 -0.0633
 7072SOL    HW222939   6.806   0.969   2.620  1.0125 -0.5902  0.5243
 7073SOL     OW22940   0.551   1.976   2.527  0.7331  0.3377 -0.0805
 7073SOL    HW122941   0.582   2.062   2.558  0.3498  1.3484 -2.3277
 7073SOL    HW222942   0.599   1.962   2.446 -0.3100 -0.8860 -0.5071
 7074SOL     OW22943   0.400   4.303   5.963 -0.0992 -0.3875 -0.5126
 7074SOL    HW122944   0.426   4.339   5.878  1.1733 -2.0206 -0.8700
 7074SOL    HW222945   0.333   4.238   5.941 -0.7071  0.1004 -0.1190
 7075SOL     OW22946   6.318   0.892   6.674 -0.9391 -0.4897  0.0332
 7075SOL    HW122947   6.378   0.966   6.681 -0.7126 -0.7004  0.3520
 7075SOL    HW222948   6.301   0.866   6.765 -2.3608  0.2447  0.0064
 7076SOL     OW22949   3.236   0.885   0.296  0.1269  0.2861 -0.1461
 7076SOL    HW122950   3.325   0.851   0.305  0.1594  0.6871  1.2826
 7076SOL    HW222951   3.211   0.864   0.206  1.2195 -0.8932 -0.1933
 7077SOL     OW22952   8.060   3.188   1.621  0.3513 -0.5018 -0.2255
 7077SOL    HW122953   7.993   3.126   1.590 -0.2581  0.0556 -0.0588
 7077SOL    HW222954   8.009   3.261   1.656  1.0239 -0.8950  1.6752
 7078SOL     OW22955   1.307   9.689   7.075 -0.2960 -0.2922 -0.1488
 7078SOL    HW122956   1.286   9.609   7.123 -0.9665  0.2611  0.4939
 7078SOL    HW222957   1.222   9.725   7.050  0.0065  0.1693 -0.5289
 7079SOL     OW22958   3.313   2.244   0.959  0.2816  0.5924 -0.1100
 7079SOL    HW122959   3.332   2.336   0.976  0.3679  0.4953  0.3409
 7079SOL    HW222960   3.218   2.240   0.952  0.3757  1.1580 -2.8370
 7080SOL     OW22961   0.863   6.678   8.941 -0.0781  0.1824  0.5973
 7080SOL    HW122962   0.956   6.678   8.917 -0.0507 -1.8071  0.4843
 7080SOL    HW222963   0.836   6.769   8.934  2.0681  0.9481  1.4334
 7081SOL     OW22964   5.221   0.819   1.378  1.4691 -0.3710 -0.0396
 7081SOL    HW122965   5.160   0.883   1.414  1.0133  0.2961 -1.8667
 7081SOL    HW222966   5.224   0.839   1.284  0.1795 -3.9017 -0.9763
 7082SOL     OW22967   1.846   2.213   1.534 -0.3195  0.3551  0.0047
 7082SOL    HW122968   1.880   2.132   1.573  0.8969  0.6744 -0.3397
 7082SOL    HW222969   1.783   2.183   1.469 -1.7435 -0.2139  1.5659
 7083SOL     OW22970   2.251   9.549   6.630 -0.0706 -0.4471  0.0567
 7083SOL    HW122971   2.183   9.609   6.661  1.4668  1.2413  0.3601
 7083SOL    HW222972   2.273   9.582   6.542  1.0071 -0.3633  0.3510
 7084SOL     OW22973   7.032   5.749   6.613 -0.0842 -0.1267 -0.3489
 7084SOL    HW122974   7.123   5.749   6.641 -0.6627  1.4284  1.7053
 7084SOL    HW222975   7.036   5.767   6.519  1.6669  0.8238 -0.1291
 7085SOL     OW22976   6.009   5.796   6.506 -0.0153  0.5832  0.3976
 7085SOL    HW122977   5.968   5.830   6.586 -3.5352  0.5179 -1.1999
 7085SOL    HW222978   6.027   5.874   6.453  0.7522  0.5021  0.5166
 7086SOL     OW22979   2.411   1.974   5.010  0.1842  0.1233  0.1291
 7086SOL    HW122980   2.409   2.036   5.083 -2.2144  1.5973 -1.0506
 7086SOL    HW222981   2.446   2.025   4.937 -0.2608 -0.3802 -0.4481
 7087SOL     OW22982   4.623   5.093   0.038 -0.0937 -0.3573  0.1327
 7087SOL    HW122983   4.577   5.147  -0.026  0.1509 -1.1026 -0.6885
 7087SOL    HW222984   4.716   5.110   0.022 -0.0402  0.5709  1.2875
 7088SOL     OW22985   1.485   8.126   1.438  0.1560  0.5601  0.1757
 7088SOL    HW122986   1.449   8.212   1.461 -1.0871 -0.1645  1.0992
 7088SOL    HW222987   1.426   8.064   1.481 -0.1020 -0.8219 -2.0056
 7089SOL     OW22988   8.984   4.576   0.592  0.0165 -0.0464  0.3716
 7089SOL    HW122989   8.978   4.561   0.686  1.4546  2.0606  0.8642
 7089SOL    HW222990   8.893   4.579   0.562 -0.4519 -1.1406  1.5948
 7090SOL     OW22991   4.640   5.474   9.537 -0.8647  0.4353  0.4437
 7090SOL    HW122992   4.668   5.408   9.474  0.0396  0.9297  0.3145
 7090SOL    HW222993   4.611   5.424   9.614 -1.3803 -0.1447 -0.1130
 7091SOL     OW22994   9.168   6.537   8.384  0.2470  0.2092  0.1326
 7091SOL    HW122995   9.144   6.523   8.292  2.3131 -0.5689 -0.3377
 7091SOL    HW222996   9.167   6.450   8.423 -1.1319  0.5976  1.0100
 7092SOL     OW22997   1.800   7.595   7.512  0.6131 -0.1830 -0.0333
 7092SOL    HW122998   1.887   7.597   7.470  0.7175 -2.9292 -0.1666
 7092SOL    HW222999   1.749   7.660   7.465  2.4656  1.1565 -0.2828
 7093SOL     OW23000   8.412   4.363   4.447 -0.0153  0.1165  0.1678
 7093SOL    HW123001   8.322   4.333   4.457 -0.5240  1.7655  0.8576
 7093SOL    HW223002   8.429   4.414   4.526  1.6161 -0.3576  0.1585
 7094SOL     OW23003   3.868   5.788   6.587  0.0122  0.2160 -0.0933
 7094SOL    HW123004   3.870   5.720   6.519  1.2985 -0.6232  0.7492
 7094SOL    HW223005   3.951   5.834   6.576  0.8726 -0.8136  1.7639
 7095SOL     OW23006   7.820   0.589   0.496  0.0063 -0.4252 -0.2351
 7095SOL    HW123007   7.859   0.508   0.530  0.4579  0.1895  0.7583
 7095SOL    HW223008   7.779   0.630   0.572  0.4916  0.6757 -0.5330
 7096SOL     OW23009   7.350   7.751   3.882  0.1968 -0.2646 -0.4767
 7096SOL    HW123010   7.301   7.823   3.921 -2.2020 -2.1644  0.2760
 7096SOL    HW223011   7.342   7.764   3.788 -0.6556  0.1963 -0.3535
 7097SOL     OW23012   2.771   0.334   6.901 -0.9526  0.4104 -0.2786
 7097SOL    HW123013   2.727   0.417   6.883 -1.4742  0.2430  0.1777
 7097SOL    HW223014   2.736   0.274   6.835 -0.2983  0.6414 -0.8407
 7098SOL     OW23015   3.711   5.328   4.938 -0.5512  0.3192  0.1273
 7098SOL    HW123016   3.744   5.269   5.006  0.0872 -0.2019 -0.6120
 7098SOL    HW223017   3.756   5.300   4.859 -2.0522  0.2470 -0.7288
 7099SOL     OW23018   3.397   7.273   3.515  0.4324  0.0047 -0.3862
 7099SOL    HW123019   3.418   7.206   3.449  0.2994  0.3298 -0.7627
 7099SOL    HW223020   3.423   7.233   3.598  2.1078  0.1901 -0.7680
 7100SOL     OW23021   6.168   1.169   3.970 -0.3079  0.9858  0.2295
 7100SOL    HW123022   6.225   1.092   3.962 -0.8166  0.6701 -0.4770
 7100SOL    HW223023   6.169   1.190   4.063  0.6639  0.7576  0.2824
 7101SOL     OW23024   5.015   5.132   3.383 -0.0476  0.4503 -0.1050
 7101SOL    HW123025   5.003   5.096   3.295 -1.2051 -1.3991  0.7346
 7101SOL    HW223026   4.980   5.220   3.379 -1.3187 -0.0796 -1.1735
 7102SOL     OW23027   4.154   2.496   8.978  0.2059  0.1280  0.2043
 7102SOL    HW123028   4.222   2.507   9.045  0.5943 -2.0365  0.2540
 7102SOL    HW223029   4.075   2.532   9.018  1.1669  2.1881  0.3645
 7103SOL     OW23030   6.236   4.177   7.282  0.4126  0.4687 -0.3611
 7103SOL    HW123031   6.208   4.226   7.359  1.8753  1.2788 -0.3251
 7103SOL    HW223032   6.284   4.102   7.317  0.2767  0.3314 -0.4663
 7104SOL     OW23033   0.615   8.475   0.825  0.3181  0.4637 -0.4022
 7104SOL    HW123034   0.603   8.549   0.765 -0.3792 -1.0807 -2.2777
 7104SOL    HW223035   0.616   8.398   0.768 -0.1699 -1.0809  1.5717
 7105SOL     OW23036   5.284   2.159   2.622 -0.0037 -0.1435 -0.0489
 7105SOL    HW123037   5.254   2.072   2.598 -1.8214  0.5268 -0.3297
 7105SOL    HW223038   5.346   2.183   2.553 -1.1824 -0.3315 -1.1881
 7106SOL     OW23039   0.742   7.052   0.126 -0.5072 -0.7631  0.0580
 7106SOL    HW123040   0.677   7.051   0.056 -0.3993 -1.3548 -0.0353
 7106SOL    HW223041   0.756   6.960   0.148  0.6641 -0.6872 -0.2661
 7107SOL     OW23042   7.240   1.870   7.968 -0.0997  0.5433 -0.2339
 7107SOL    HW123043   7.264   1.849   8.058 -0.8908  1.6930  0.2761
 7107SOL    HW223044   7.294   1.946   7.945 -1.6035  1.7865  0.1645
 7108SOL     OW23045   3.236   8.888   4.740 -0.2429  0.2335  0.5882
 7108SOL    HW123046   3.147   8.857   4.726 -0.3953  0.0802  1.8065
 7108SOL    HW223047   3.291   8.814   4.713 -0.5150  0.0199  0.6086
 7109SOL     OW23048   0.054   7.738   7.282  0.3924  0.5945  0.2713
 7109SOL    HW123049   0.128   7.776   7.235  1.1579 -1.2438 -0.0983
 7109SOL    HW223050   0.071   7.644   7.281 -0.6345  0.3144  2.4096
 7110SOL     OW23051   3.062   9.016   8.713  0.3487  0.2897  0.0199
 7110SOL    HW123052   3.149   9.009   8.674  0.1514  0.6048 -0.4942
 7110SOL    HW223053   3.003   8.979   8.647  0.1082 -0.0870  0.4386
 7111SOL     OW23054   3.643   2.369   6.139  0.0291 -0.9678  0.1344
 7111SOL    HW123055   3.568   2.335   6.187  0.9536 -1.0813  1.5390
 7111SOL    HW223056   3.605   2.407   6.060 -1.9652  2.3118  2.4285
 7112SOL     OW23057   6.745   9.682   8.955  0.5854 -0.0771  0.2298
 7112SOL    HW123058   6.734   9.624   9.030  1.4653 -0.1518  0.3108
 7112SOL    HW223059   6.834   9.716   8.963  0.1213  1.2125  0.1178
 7113SOL     OW23060   0.352   2.238   9.027  0.3640  0.1715  0.4925
 7113SOL    HW123061   0.346   2.334   9.024  0.1609  0.1854  1.1058
 7113SOL    HW223062   0.279   2.208   8.973  1.1571  0.3558 -0.7142
 7114SOL     OW23063   6.375   9.677   5.533 -0.1598 -0.1117 -0.0383
 7114SOL    HW123064   6.451   9.627   5.563  0.6466 -0.1909 -2.0310
 7114SOL    HW223065   6.300   9.622   5.553  0.5472 -1.2628 -0.4182
 7115SOL     OW23066   0.599   7.331   0.663 -0.6724 -0.2640 -0.3678
 7115SOL    HW123067   0.557   7.246   0.677 -1.3404  0.0226 -0.5925
 7115SOL    HW223068   0.687   7.321   0.700 -0.0099 -1.6923 -2.1980
 7116SOL     OW23069   0.324   2.967   5.216  0.3180  0.2371  0.2266
 7116SOL    HW123070   0.406   2.939   5.176  1.5884  0.1631  2.6452
 7116SOL    HW223071   0.296   3.042   5.164  3.8762  2.5703  1.3102
 7117SOL     OW23072   8.540   4.288   3.377 -0.3496 -0.0012 -0.0794
 7117SOL    HW123073   8.476   4.220   3.355 -1.9036  1.3605  0.0434
 7117SOL    HW223074   8.611   4.277   3.313  0.6237 -3.1747  1.3393
 7118SOL     OW23075   2.860   2.474   8.179 -0.7374  1.4652 -0.6389
 7118SOL    HW123076   2.868   2.396   8.124  2.3830  1.4359 -0.3145
 7118SOL    HW223077   2.858   2.440   8.268  1.5815  1.6750 -0.4391
 7119SOL     OW23078   9.347   2.903   3.641 -0.2241  0.2722 -0.2735
 7119SOL    HW123079   9.314   2.813   3.637 -1.0639  0.6079 -1.2867
 7119SOL    HW223080   9.348   2.924   3.734  1.7135 -1.3952  0.1388
 7120SOL     OW23081   9.337   3.348   4.746  0.4377  0.0321 -0.4005
 7120SOL    HW123082   9.259   3.399   4.771  2.0836  2.0657  0.9274
 7120SOL    HW223083   9.344   3.282   4.815  1.8205  2.1418  1.6476
 7121SOL     OW23084   4.572   7.356   8.580  0.6014 -0.1786 -0.3323
 7121SOL    HW123085   4.489   7.364   8.533 -0.3616 -1.2332  1.0869
 7121SOL    HW223086   4.555   7.399   8.664  1.0004 -1.6538  0.5312
 7122SOL     OW23087   2.754   8.637   3.327  0.1612  0.1206  0.7577
 7122SOL    HW123088   2.682   8.699   3.318 -0.1034 -0.4309 -2.1041
 7122SOL    HW223089   2.832   8.687   3.303  0.2951 -0.0483  0.8403
 7123SOL     OW23090   8.017   1.901   4.269 -0.3223 -0.2614  0.6516
 7123SOL    HW123091   7.950   1.942   4.214  0.6719  0.3953 -0.1037
 7123SOL    HW223092   8.013   1.950   4.352 -1.5008 -0.9435  1.0226
 7124SOL     OW23093   1.278   6.063   2.553 -0.7803 -0.4649  0.1988
 7124SOL    HW123094   1.268   6.155   2.578  1.3817 -0.1039 -0.0956
 7124SOL    HW223095   1.299   6.066   2.460  0.7200 -1.1382  0.4948
 7125SOL     OW23096   5.762   2.885   6.047  0.2411 -0.0060  0.1503
 7125SOL    HW123097   5.754   2.839   5.964 -0.8787 -1.5000  1.0280
 7125SOL    HW223098   5.850   2.861   6.079 -0.0337 -0.9451  0.2360
 7126SOL     OW23099   7.317   2.515   6.740  0.1215 -0.1156 -0.5613
 7126SOL    HW123100   7.398   2.480   6.777  0.9820  0.8467 -1.4618
 7126SOL    HW223101   7.264   2.438   6.720  0.7334 -0.7533  0.1944
 7127SOL     OW23102   7.165   4.369   3.056 -0.1730  0.0000  0.3198
 7127SOL    HW123103   7.087   4.415   3.085 -0.8323 -0.7848 -0.1614
 7127SOL    HW223104   7.199   4.422   2.983 -1.4781 -0.7493 -0.8739
 7128SOL     OW23105   1.840   6.049   7.407 -0.1313 -0.6022  0.4180
 7128SOL    HW123106   1.838   6.138   7.442 -1.7282 -0.1058 -0.7657
 7128SOL    HW223107   1.921   6.010   7.441  0.9676  1.5338  0.3852
 7129SOL     OW23108   8.432   1.629   6.032 -0.4474  0.4572  0.0663
 7129SOL    HW123109   8.386   1.582   6.102 -2.2841  1.8823 -0.1034
 7129SOL    HW223110   8.474   1.560   5.981 -2.0935 -0.9350  0.4719
 7130SOL     OW23111   6.959   7.496   5.720 -0.1780 -0.7478  0.0020
 7130SOL    HW123112   6.902   7.563   5.757  1.7778  1.2611 -0.4543
 7130SOL    HW223113   6.949   7.421   5.779  1.2077  1.5681  3.5172
 7131SOL     OW23114   3.840   7.818   6.326  0.5204 -0.1428 -0.1065
 7131SOL    HW123115   3.807   7.729   6.338  1.1772 -0.4434 -0.4675
 7131SOL    HW223116   3.795   7.869   6.393 -0.9519 -0.4540 -0.8205
 7132SOL     OW23117   8.035   1.189   0.958  0.1572 -0.0287  0.1828
 7132SOL    HW123118   8.112   1.154   0.912  1.2623  0.1051  1.8288
 7132SOL    HW223119   7.998   1.254   0.898  0.2230 -1.3953 -1.4072
 7133SOL     OW23120   2.160   7.244   7.584 -0.4560 -0.6315  0.0092
 7133SOL    HW123121   2.115   7.202   7.657 -1.3405  1.1574  0.5581
 7133SOL    HW223122   2.249   7.262   7.617 -0.2858 -1.4379 -0.0004
 7134SOL     OW23123   3.802   8.861   8.799  0.4111  0.3018 -0.4974
 7134SOL    HW123124   3.873   8.907   8.843 -0.8551  0.9276  0.9969
 7134SOL    HW223125   3.844   8.815   8.726  2.1734  1.4024 -0.2231
 7135SOL     OW23126   1.693   8.492   1.587  0.4576  0.2044 -0.3646
 7135SOL    HW123127   1.750   8.511   1.661  0.7862  3.6861 -1.3276
 7135SOL    HW223128   1.751   8.456   1.520  0.8985  0.5608 -0.1790
 7136SOL     OW23129   9.023   9.179   0.204 -0.7861 -0.1777  0.5153
 7136SOL    HW123130   8.997   9.155   0.115 -1.4866 -0.5591  0.8215
 7136SOL    HW223131   8.942   9.176   0.255 -0.5662  0.9617  0.9759
 7137SOL     OW23132   5.259   0.318   6.251  0.3205 -0.3244 -0.1091
 7137SOL    HW123133   5.171   0.282   6.257 -0.3532  1.0252 -1.2018
 7137SOL    HW223134   5.282   0.342   6.341 -0.3340 -0.8692  0.2113
 7138SOL     OW23135   5.164   2.826   3.346  0.3095 -0.2217 -0.5154
 7138SOL    HW123136   5.167   2.731   3.339  0.5280 -0.1144 -2.3236
 7138SOL    HW223137   5.250   2.850   3.381  0.6930 -0.6267 -1.1600
 7139SOL     OW23138   7.205   2.130   6.256 -0.0561  0.5675 -0.4349
 7139SOL    HW123139   7.261   2.054   6.248  0.1126  0.7189 -0.6908
 7139SOL    HW223140   7.123   2.096   6.291  0.9802  0.6812  2.3548
 7140SOL     OW23141   6.471   5.359   4.214  0.2979 -0.5301  0.2648
 7140SOL    HW123142   6.404   5.391   4.154 -0.0046 -1.2690  0.1969
 7140SOL    HW223143   6.423   5.339   4.295  0.6351  0.0705  0.6239
 7141SOL     OW23144   3.750   7.997   8.993  0.0464  0.2389  0.3217
 7141SOL    HW123145   3.815   8.008   9.062  2.1802 -1.4852 -1.2870
 7141SOL    HW223146   3.734   7.903   8.990 -2.3294  0.5806  0.4176
 7142SOL     OW23147   2.903   6.792   0.097 -0.1729  0.0716  0.3300
 7142SOL    HW123148   2.853   6.757   0.171 -1.1681  0.9739  0.1160
 7142SOL    HW223149   2.859   6.875   0.076  0.0108 -0.2241 -1.3481
 7143SOL     OW23150   2.010   5.781   7.627  0.0671 -0.2588  0.4619
 7143SOL    HW123151   2.082   5.841   7.607 -0.7320  0.8563  0.8381
 7143SOL    HW223152   2.026   5.754   7.718  0.9165 -1.3561  0.0151
 7144SOL     OW23153   4.240   8.218   8.759  0.0310 -0.1345  0.5897
 7144SOL    HW123154   4.161   8.176   8.728 -0.1732  0.6056  0.0697
 7144SOL    HW223155   4.214   8.309   8.777  1.1151  0.6046 -1.2661
 7145SOL     OW23156   3.979   0.839   0.827 -0.7396  0.6503 -0.2806
 7145SOL    HW123157   3.951   0.802   0.911 -0.9161  2.2293  0.3944
 7145SOL    HW223158   3.954   0.773   0.762  1.0108 -1.4206  1.0300
 7146SOL     OW23159   8.479   8.784   7.368 -0.3186  0.5520  0.6660
 7146SOL    HW123160   8.401   8.770   7.423  0.7267 -1.9255  1.6721
 7146SOL    HW223161   8.551   8.748   7.419  1.1223  0.4835 -1.3034
 7147SOL     OW23162   4.661   6.030   6.792 -0.3346  0.3470 -0.2026
 7147SOL    HW123163   4.724   5.957   6.794 -0.8849 -0.1304  0.0238
 7147SOL    HW223164   4.715   6.108   6.778  0.2911 -0.0737 -0.1773
 7148SOL     OW23165   2.149   3.840   2.766 -0.1759 -0.0363 -0.0961
 7148SOL    HW123166   2.173   3.882   2.683  1.7970 -0.7590  0.0427
 7148SOL    HW223167   2.174   3.749   2.755 -2.0168 -0.6568  0.5229
 7149SOL     OW23168   5.773   4.499   5.874 -0.3462  0.0234  0.0422
 7149SOL    HW123169   5.691   4.474   5.832 -0.3399 -0.8573  0.5368
 7149SOL    HW223170   5.790   4.588   5.842 -0.6908 -0.3676 -1.2645
 7150SOL     OW23171   3.179   2.304   0.511 -0.0937  0.1071  0.2892
 7150SOL    HW123172   3.119   2.230   0.509 -0.2508  0.2044  1.0786
 7150SOL    HW223173   3.252   2.275   0.566 -0.7869  0.9744  1.7580
 7151SOL     OW23174   8.601   9.699   6.347  0.1855 -0.1560  0.1171
 7151SOL    HW123175   8.577   9.739   6.263  1.8895 -0.9104 -0.7883
 7151SOL    HW223176   8.639   9.771   6.397  1.4012 -0.1734 -0.7321
 7152SOL     OW23177   0.950   8.641   5.201 -0.2748  0.0663  0.4273
 7152SOL    HW123178   0.953   8.567   5.262  0.4442  0.5743  1.0156
 7152SOL    HW223179   0.859   8.671   5.205  0.3613  2.0421  3.6621
 7153SOL     OW23180   8.100   2.752   5.439  0.2581 -0.1913  0.1843
 7153SOL    HW123181   8.072   2.823   5.498 -2.1049 -1.2248  0.4398
 7153SOL    HW223182   8.070   2.780   5.352 -0.5659 -0.7919  0.2659
 7154SOL     OW23183   4.071   9.320   3.958  0.2599 -0.0655  0.6581
 7154SOL    HW123184   4.133   9.254   3.927  1.5343  0.6859  1.5708
 7154SOL    HW223185   4.106   9.349   4.042 -1.5032  0.1444  1.3656
 7155SOL     OW23186   3.077   1.443   1.641 -0.0420 -0.0604  0.0634
 7155SOL    HW123187   3.025   1.515   1.676  0.5864  1.0915 -1.2586
 7155SOL    HW223188   3.166   1.460   1.672 -0.0488 -0.7999  0.5097
 7156SOL     OW23189   4.498   0.183   8.576  0.3583  0.3837 -0.7204
 7156SOL    HW123190   4.590   0.167   8.595  0.4016  0.5934 -0.7586
 7156SOL    HW223191   4.498   0.255   8.514  0.1959  0.0168 -1.1575
 7157SOL     OW23192   9.674   8.616   6.112  0.5926  0.2771 -0.6271
 7157SOL    HW123193   9.765   8.589   6.119  1.4002  2.4034 -2.1276
 7157SOL    HW223194   9.640   8.568   6.036  1.2447  1.3580 -1.6373
 7158SOL     OW23195   7.131   8.914   0.307  0.3795  0.9836  0.4524
 7158SOL    HW123196   7.127   8.866   0.225  0.9582  1.6872  0.0009
 7158SOL    HW223197   7.119   8.847   0.375  0.1604  0.3625 -0.1930
 7159SOL     OW23198   4.077   1.618   9.030 -0.5561 -0.2042  0.1326
 7159SOL    HW123199   4.056   1.560   8.957 -0.7030  0.7824 -0.6298
 7159SOL    HW223200   4.168   1.598   9.052 -0.6948 -0.9153  0.0787
 7160SOL     OW23201   4.978   5.375   2.440 -0.2520  0.0930  0.4795
 7160SOL    HW123202   4.969   5.293   2.391  0.4810  1.3186 -1.8682
 7160SOL    HW223203   4.910   5.432   2.404  0.2064  0.9905  1.0071
 7161SOL     OW23204   1.716   0.071   5.582 -0.2830  0.0035 -0.2089
 7161SOL    HW123205   1.718  -0.012   5.629 -1.4940  0.4890  0.7485
 7161SOL    HW223206   1.628   0.074   5.543  0.1886  0.2791 -1.3050
 7162SOL     OW23207   7.643   5.631   8.200  0.2870  0.1346 -0.3305
 7162SOL    HW123208   7.665   5.538   8.198  0.0903  0.0618  0.4729
 7162SOL    HW223209   7.568   5.636   8.260 -0.5104  0.6496 -1.3384
 7163SOL     OW23210   4.683   3.366   2.580 -0.0587  0.1907  0.0879
 7163SOL    HW123211   4.742   3.409   2.641 -0.5293  0.1526  0.5843
 7163SOL    HW223212   4.703   3.404   2.495 -1.8116  2.9473  0.7694
 7164SOL     OW23213   0.586   8.475   1.897 -0.3595 -0.4479 -0.2689
 7164SOL    HW123214   0.591   8.524   1.979 -1.8600  0.1715 -0.5171
 7164SOL    HW223215   0.655   8.409   1.905 -1.2053 -1.1789  2.0109
 7165SOL     OW23216   2.214   7.646   5.015 -0.1889  0.1539  0.2604
 7165SOL    HW123217   2.262   7.606   5.088 -0.6968  0.7885  0.9515
 7165SOL    HW223218   2.279   7.700   4.971 -0.2881  1.1743  1.3151
 7166SOL     OW23219   5.872   8.316   2.314 -0.1019 -0.1558 -0.0517
 7166SOL    HW123220   5.891   8.229   2.350  0.9179  0.0794  0.0119
 7166SOL    HW223221   5.874   8.303   2.219 -1.8288 -0.5765 -0.0598
 7167SOL     OW23222   3.242   9.462   8.494 -0.2972  0.1520  0.2913
 7167SOL    HW123223   3.197   9.451   8.410 -0.0904  0.2348  0.1666
 7167SOL    HW223224   3.233   9.378   8.538 -0.8632  0.2726  0.4134
 7168SOL     OW23225   8.268   5.784   7.340 -0.0624  0.1713 -0.4798
 7168SOL    HW123226   8.192   5.772   7.397 -1.2554 -0.4294 -2.1205
 7168SOL    HW223227   8.317   5.702   7.346  0.0503  0.2729  0.0004
 7169SOL     OW23228   2.457   6.504   9.276 -0.1487  0.4480 -0.0449
 7169SOL    HW123229   2.444   6.587   9.322  0.6190  0.3861  0.2942
 7169SOL    HW223230   2.527   6.522   9.214 -0.3853  0.2075 -0.3846
 7170SOL     OW23231   9.326   0.220   6.703 -0.0282 -0.2237  0.6084
 7170SOL    HW123232   9.304   0.220   6.610  1.0666  1.2135  0.3162
 7170SOL    HW223233   9.242   0.231   6.748 -0.2248  3.1434 -0.3813
 7171SOL     OW23234   7.787   3.798   3.186  0.6103 -0.3550  0.1291
 7171SOL    HW123235   7.876   3.820   3.155  0.5796  1.2509  1.0320
 7171SOL    HW223236   7.773   3.858   3.259 -0.9804 -1.0641  0.4296
 7172SOL     OW23237   7.393   4.549   4.689  0.0492  0.5140 -0.2595
 7172SOL    HW123238   7.420   4.633   4.728 -0.9346  0.5768  0.3090
 7172SOL    HW223239   7.360   4.572   4.602  0.1668  0.6629 -0.2653
 7173SOL     OW23240   1.410   7.509   0.489  0.1213 -0.6324 -0.6918
 7173SOL    HW123241   1.491   7.467   0.462  0.8157  0.1161  0.1612
 7173SOL    HW223242   1.362   7.440   0.536  0.4981 -0.9346 -0.7486
 7174SOL     OW23243   1.242   9.192   7.881 -0.0057 -0.1994  0.2049
 7174SOL    HW123244   1.252   9.216   7.973  1.8846  0.6597 -0.1590
 7174SOL    HW223245   1.257   9.098   7.879 -1.6783 -0.5041  0.9503
 7175SOL     OW23246   2.440   4.046   7.818 -0.1690  0.3971  0.0730
 7175SOL    HW123247   2.488   4.127   7.801 -1.2067  0.8553 -0.8555
 7175SOL    HW223248   2.439   4.038   7.914  0.1418  1.3617  0.1675
 7176SOL     OW23249   8.646   0.502   5.979  1.2023 -0.7636 -0.1435
 7176SOL    HW123250   8.650   0.412   5.946  1.0676 -0.6563 -0.4562
 7176SOL    HW223251   8.659   0.557   5.902  0.4542 -0.5068 -0.0989
 7177SOL     OW23252   7.563   6.087   2.158 -0.3173  0.7363 -0.1834
 7177SOL    HW123253   7.476   6.095   2.198 -0.6257 -1.0593 -0.4034
 7177SOL    HW223254   7.553   6.126   2.071 -0.9329  0.4642 -0.2430
 7178SOL     OW23255   3.719   9.200   2.125  0.0318  0.1343  0.1131
 7178SOL    HW123256   3.746   9.155   2.204 -1.1674  0.4067  0.6966
 7178SOL    HW223257   3.628   9.223   2.140 -0.2995 -0.0460 -1.4583
 7179SOL     OW23258   9.399   4.616   0.046 -0.6666  0.2141 -0.6279
 7179SOL    HW123259   9.439   4.643  -0.037  1.3102 -2.0507 -0.5199
 7179SOL    HW223260   9.317   4.664   0.049 -0.9688  0.1737 -4.0434
 7180SOL     OW23261   7.138   3.681   5.791  0.5975  0.2923  0.1667
 7180SOL    HW123262   7.188   3.616   5.840 -0.7314 -1.2869 -0.4944
 7180SOL    HW223263   7.192   3.701   5.715  0.8900 -0.2488  0.2289
 7181SOL     OW23264   7.439   6.873   2.313  0.0426  0.1688  0.0853
 7181SOL    HW123265   7.375   6.943   2.303 -0.1306 -0.0428 -0.3209
 7181SOL    HW223266   7.423   6.815   2.238 -0.5050 -0.8411  0.9567
 7182SOL     OW23267   6.211   3.171   9.437 -0.3656 -0.2359 -0.3060
 7182SOL    HW123268   6.201   3.252   9.487  1.3235  0.3018 -0.8100
 7182SOL    HW223269   6.209   3.102   9.504 -1.8412  0.1791  0.1227
 7183SOL     OW23270   5.710   6.192   3.878 -0.3252  0.0260 -0.0194
 7183SOL    HW123271   5.761   6.208   3.958  0.1842 -0.7057 -0.1916
 7183SOL    HW223272   5.703   6.097   3.872  1.0482 -0.0404 -1.6836
 7184SOL     OW23273   0.601   7.000   0.777  0.6196 -0.5949  0.3031
 7184SOL    HW123274   0.568   7.062   0.842  2.0841 -1.1827  1.6924
 7184SOL    HW223275   0.545   6.923   0.785  1.1111 -0.8718  1.3062
 7185SOL     OW23276   9.479   9.254   9.342 -0.1070 -0.6159  0.5237
 7185SOL    HW123277   9.449   9.343   9.360  0.6717  0.1028 -1.4594
 7185SOL    HW223278   9.435   9.200   9.408 -1.6684  1.0397  0.9238
 7186SOL     OW23279   2.090   5.720   3.551 -0.1806  0.1730  0.1294
 7186SOL    HW123280   2.026   5.649   3.558  0.1305 -0.0109  1.4509
 7186SOL    HW223281   2.043   5.790   3.505 -0.6980 -0.6367 -0.6137
 7187SOL     OW23282   0.162   8.640   0.022  0.0820  0.3271 -0.2047
 7187SOL    HW123283   0.193   8.702   0.087  0.7491 -0.9693  0.7472
 7187SOL    HW223284   0.084   8.601   0.062  0.8080 -0.8671  0.0701
 7188SOL     OW23285   6.084   7.589   3.136 -0.0948 -0.0249 -0.5268
 7188SOL    HW123286   6.125   7.503   3.128  2.2612  0.8287  1.1729
 7188SOL    HW223287   6.015   7.577   3.201  1.9954 -0.2014  1.8464
 7189SOL     OW23288   2.644   4.339   8.669 -0.0438 -0.9294  0.1471
 7189SOL    HW123289   2.589   4.261   8.657 -0.0038 -0.7814 -1.2565
 7189SOL    HW223290   2.675   4.359   8.580 -1.0495  1.4107  0.2610
 7190SOL     OW23291   2.819   6.518   1.459 -0.3208 -0.4085  0.7640
 7190SOL    HW123292   2.852   6.544   1.545  0.8393 -0.9448  0.5070
 7190SOL    HW223293   2.798   6.601   1.415 -1.1827 -0.1444  1.6508
 7191SOL     OW23294   1.603   1.100   1.945 -0.1750 -0.2877 -0.9791
 7191SOL    HW123295   1.571   1.182   1.908  0.2527 -0.6111 -2.1067
 7191SOL    HW223296   1.687   1.084   1.901  0.3567 -0.7063  0.1298
 7192SOL     OW23297   2.240   3.293   4.957  0.2684  0.4488 -1.0727
 7192SOL    HW123298   2.263   3.287   5.050  0.4381  0.3546 -1.1194
 7192SOL    HW223299   2.298   3.229   4.915 -1.0543 -0.8226 -1.0359
 7193SOL     OW23300   2.980   7.542   3.051  0.4352  0.0254 -0.2649
 7193SOL    HW123301   2.950   7.470   3.107  2.3056 -2.2852 -2.0255
 7193SOL    HW223302   2.904   7.599   3.042 -1.6873 -2.6130 -0.1373
 7194SOL     OW23303   7.124   5.906   5.219 -0.2394  0.1246  0.0371
 7194SOL    HW123304   7.046   5.884   5.168 -0.0684  2.0636 -1.1509
 7194SOL    HW223305   7.090   5.952   5.296 -0.2673  2.1534 -1.1294
 7195SOL     OW23306   8.704   1.713   9.155  0.1281 -0.3172 -0.0940
 7195SOL    HW123307   8.614   1.744   9.142  0.3730  0.3534 -0.1780
 7195SOL    HW223308   8.732   1.755   9.236  0.4174 -0.4270 -0.1375
 7196SOL     OW23309   6.023   1.984   7.553  0.2837  0.0121 -0.3107
 7196SOL    HW123310   6.041   1.901   7.508 -1.4967 -0.0841 -0.8934
 7196SOL    HW223311   5.995   2.043   7.484  3.7485  1.9280 -0.3178
 7197SOL     OW23312   3.614   3.975   5.015 -0.4657 -0.7439  0.0456
 7197SOL    HW123313   3.557   3.994   4.940 -0.2927  2.4539  0.6080
 7197SOL    HW223314   3.702   3.994   4.983 -0.3434  0.1489  0.8984
 7198SOL     OW23315   6.283   5.240   1.409 -0.0990 -0.0520 -0.1697
 7198SOL    HW123316   6.233   5.295   1.469  1.5473  0.5971  0.6916
 7198SOL    HW223317   6.291   5.156   1.453  2.1139  0.7777  1.1738
 7199SOL     OW23318   4.266   8.032   7.339  0.1433 -0.2049  0.0810
 7199SOL    HW123319   4.330   8.076   7.395  1.3003 -0.8087 -0.7247
 7199SOL    HW223320   4.250   7.948   7.382 -1.3398  0.5770  1.1165
 7200SOL     OW23321   9.009   2.767   4.932  0.0426  0.0375  0.4758
 7200SOL    HW123322   9.066   2.795   5.004 -0.8756  1.8845  0.5392
 7200SOL    HW223323   9.063   2.706   4.882  2.1755  1.8016  0.4446
 7201SOL     OW23324   5.833   2.809   9.105 -0.1291  0.4035  0.2557
 7201SOL    HW123325   5.844   2.886   9.049  0.8174  0.0747 -0.0318
 7201SOL    HW223326   5.872   2.835   9.189 -0.0731  0.3311  0.2511
 7202SOL     OW23327   5.634   7.382   4.309 -0.0237  0.4523  0.6741
 7202SOL    HW123328   5.665   7.321   4.242 -0.1617  0.2708  0.7746
 7202SOL    HW223329   5.599   7.456   4.259  0.8729  0.8138  0.5675
 7203SOL     OW23330   2.020   4.548   5.698 -0.4358  0.0648  0.4242
 7203SOL    HW123331   2.025   4.480   5.632 -2.5187 -0.6618  0.9340
 7203SOL    HW223332   1.963   4.615   5.660 -0.1692  0.4939  0.7693
 7204SOL     OW23333   7.660   5.175   6.922 -0.2559  0.2564  0.3407
 7204SOL    HW123334   7.642   5.222   7.003 -1.1896  0.5851 -0.0492
 7204SOL    HW223335   7.712   5.237   6.869  1.8359 -0.5621  1.3190
 7205SOL     OW23336   7.272   4.986   0.374 -0.5944 -0.5075 -0.0859
 7205SOL    HW123337   7.302   4.912   0.427 -0.5453  0.0733  0.7128
 7205SOL    HW223338   7.324   5.060   0.403 -0.7861 -0.1078 -0.7349
 7206SOL     OW23339   0.635   3.835   2.020  0.1141 -0.1356 -0.4524
 7206SOL    HW123340   0.608   3.827   2.111 -1.4119 -3.1965 -1.0293
 7206SOL    HW223341   0.662   3.926   2.010 -1.5280  0.7938  2.5427
 7207SOL     OW23342   4.878   2.630   8.903  0.1345 -0.2530 -0.4345
 7207SOL    HW123343   4.843   2.648   8.816 -1.0542  0.7749  0.2227
 7207SOL    HW223344   4.837   2.695   8.960 -0.6885 -2.1243  1.2589
 7208SOL     OW23345   6.160   8.098   0.397  0.8025 -0.2082 -0.6370
 7208SOL    HW123346   6.153   8.120   0.490  1.0090  2.6611 -1.1985
 7208SOL    HW223347   6.255   8.093   0.382  0.7826 -0.0109 -0.8229
 7209SOL     OW23348   8.892   0.127   1.475  0.0210  0.0255  0.7478
 7209SOL    HW123349   8.861   0.040   1.502  0.4194  0.0791  1.3923
 7209SOL    HW223350   8.985   0.129   1.501  0.1209  0.4957  0.3760
 7210SOL     OW23351   1.684   2.813   2.123 -0.0350  0.1428  0.7200
 7210SOL    HW123352   1.668   2.800   2.216  2.3789 -0.4582  1.1200
 7210SOL    HW223353   1.712   2.904   2.116  0.3150  0.0327  0.6736
 7211SOL     OW23354   3.928   7.040   4.537 -0.2219  0.4795  0.0541
 7211SOL    HW123355   3.833   7.046   4.535 -0.2584  0.4728 -2.6322
 7211SOL    HW223356   3.946   6.946   4.545 -0.4419  0.4844  0.6082
 7212SOL     OW23357   7.880   0.553   8.661 -0.7102  0.6873  0.7720
 7212SOL    HW123358   7.787   0.564   8.645 -0.4178  0.8360 -1.0170
 7212SOL    HW223359   7.916   0.641   8.660  0.1282  0.5076 -3.5916
 7213SOL     OW23360   5.857   7.982   3.713 -0.4903 -0.2161  0.6559
 7213SOL    HW123361   5.802   8.051   3.750  1.1366  0.9362  1.0267
 7213SOL    HW223362   5.803   7.943   3.644 -2.2336 -0.0181  1.8429
 7214SOL     OW23363   0.472   3.173   1.633 -0.8387 -0.6742 -0.4458
 7214SOL    HW123364   0.388   3.133   1.612 -0.5401 -2.6273  1.6568
 7214SOL    HW223365   0.449   3.247   1.690 -1.1868 -3.4270  3.3748
 7215SOL     OW23366   5.981   6.944   3.417 -0.0636  0.5794 -0.0372
 7215SOL    HW123367   5.899   6.926   3.464 -0.9636  0.7957 -1.4533
 7215SOL    HW223368   6.039   6.872   3.442 -1.3423 -0.6380 -0.4523
 7216SOL     OW23369   3.522   4.627   4.391  0.3131 -0.2985 -0.5553
 7216SOL    HW123370   3.501   4.600   4.480 -1.5941 -0.8669 -1.1254
 7216SOL    HW223371   3.602   4.679   4.400 -0.6595  0.9791  1.6974
 7217SOL     OW23372   5.608   2.183   6.351  0.4315 -0.5159 -0.1647
 7217SOL    HW123373   5.645   2.261   6.309  2.1925 -1.6458 -0.8141
 7217SOL    HW223374   5.590   2.211   6.441 -0.6580  1.1179 -0.8427
 7218SOL     OW23375   1.541   1.683   7.751  0.1668 -0.3291  0.1820
 7218SOL    HW123376   1.578   1.744   7.815  0.4017 -0.7781  0.4823
 7218SOL    HW223377   1.504   1.739   7.683  1.8567  0.1391 -0.4046
 7219SOL     OW23378   1.805   3.150   6.079 -0.0962 -0.7058 -0.1889
 7219SOL    HW123379   1.885   3.125   6.031  0.9995  2.9534 -0.5667
 7219SOL    HW223380   1.828   3.140   6.171  0.8576  0.3803 -0.2936
 7220SOL     OW23381   0.066   8.474   7.014 -0.2241  0.4732 -0.0163
 7220SOL    HW123382   0.018   8.391   7.019  0.7763 -0.1624 -0.6297
 7220SOL    HW223383   0.018   8.533   7.073 -0.6253 -0.7034  0.8858
 7221SOL     OW23384   5.295   0.482   2.802  0.3608 -0.7947 -0.6299
 7221SOL    HW123385   5.318   0.437   2.883  0.3490 -0.5111 -0.4700
 7221SOL    HW223386   5.199   0.477   2.799  0.0247  2.2174  1.1528
 7222SOL     OW23387   2.993   6.471   4.542 -0.6026  0.0307  0.1099
 7222SOL    HW123388   2.901   6.482   4.568 -0.2290 -0.0915  1.5692
 7222SOL    HW223389   3.020   6.388   4.583  0.0631 -0.1293 -0.6200
 7223SOL     OW23390   1.361   2.696   5.350  0.0630  0.3367  0.4660
 7223SOL    HW123391   1.441   2.654   5.382 -0.1326 -1.7199 -1.4181
 7223SOL    HW223392   1.337   2.759   5.418  1.9411 -0.7115  2.2094
 7224SOL     OW23393   6.275   1.766   6.919  0.0994  0.0270  0.7767
 7224SOL    HW123394   6.230   1.704   6.977 -0.7685  0.9086  1.0691
 7224SOL    HW223395   6.209   1.789   6.853  0.7808 -0.2354 -0.0077
 7225SOL     OW23396   6.796   6.633   1.177 -0.0479 -0.2976  0.9060
 7225SOL    HW123397   6.839   6.548   1.173  0.0695 -0.2032 -0.0101
 7225SOL    HW223398   6.843   6.681   1.245 -0.1358 -0.9711  1.4496
 7226SOL     OW23399   1.481   4.408   8.313 -0.1701  0.7188 -0.9333
 7226SOL    HW123400   1.563   4.429   8.359  0.3457  2.4473 -2.4950
 7226SOL    HW223401   1.489   4.316   8.291  0.1477  0.1696  1.2139
 7227SOL     OW23402   1.739   4.925   7.139  0.4242 -0.4878  0.5981
 7227SOL    HW123403   1.694   4.995   7.092 -0.3766 -0.7106  1.0215
 7227SOL    HW223404   1.790   4.969   7.206  1.7629 -0.1437 -0.5939
 7228SOL     OW23405   8.838   0.560   8.132  0.4313  0.4955  0.4977
 7228SOL    HW123406   8.917   0.508   8.146 -0.0770 -0.1494  1.0208
 7228SOL    HW223407   8.777   0.501   8.089 -0.2362  0.5682  1.3067
 7229SOL     OW23408   2.038   8.649   7.783 -0.2900  0.2382 -0.0046
 7229SOL    HW123409   2.133   8.649   7.794 -0.0029 -0.3772 -1.9855
 7229SOL    HW223410   2.012   8.740   7.799  0.5283  0.2816  1.1729
 7230SOL     OW23411   3.385   4.975   0.441 -0.2503  0.1212 -0.4137
 7230SOL    HW123412   3.422   4.943   0.359  2.4240  0.1321  0.7073
 7230SOL    HW223413   3.413   5.066   0.446 -1.0095  0.3371  0.2057
 7231SOL     OW23414   1.545   1.411   2.099 -0.3202 -0.4612 -0.2504
 7231SOL    HW123415   1.637   1.387   2.101 -0.4139 -0.9169 -1.1143
 7231SOL    HW223416   1.514   1.382   2.013 -0.9082  1.0873 -0.5837
 7232SOL     OW23417   4.846   4.689   8.299 -0.0624  0.1910  0.3577
 7232SOL    HW123418   4.876   4.603   8.268 -0.4596 -0.4871  1.7780
 7232SOL    HW223419   4.774   4.712   8.239 -0.8923 -1.1347  0.8100
 7233SOL     OW23420   4.824   5.191   2.091  0.3801 -0.0078 -0.3669
 7233SOL    HW123421   4.768   5.122   2.055  0.1843 -0.0269 -0.0323
 7233SOL    HW223422   4.763   5.258   2.122  0.5649  0.2579 -0.5729
 7234SOL     OW23423   1.152   6.872   6.647  0.7031 -0.0395 -0.1912
 7234SOL    HW123424   1.166   6.863   6.552 -0.7802  0.3377 -0.4711
 7234SOL    HW223425   1.183   6.789   6.683  4.9137  1.1692 -0.4860
 7235SOL     OW23426   7.700   9.146   7.719  0.3258 -0.2904 -0.6276
 7235SOL    HW123427   7.615   9.169   7.682 -0.4024 -1.7688  0.0653
 7235SOL    HW223428   7.759   9.215   7.688 -1.2347  1.1082 -0.6028
 7236SOL     OW23429   7.018   8.327   0.597  0.0842 -0.1662  0.2407
 7236SOL    HW123430   7.072   8.389   0.548  0.1158 -0.2908  0.1159
 7236SOL    HW223431   7.056   8.241   0.577 -0.9045 -0.3860 -0.8476
 7237SOL     OW23432   4.772   3.226   3.847 -0.3092  0.2557 -0.3268
 7237SOL    HW123433   4.796   3.195   3.935  1.0621  0.1743 -0.6961
 7237SOL    HW223434   4.687   3.186   3.830 -0.3453 -0.1732  0.7535
 7238SOL     OW23435   3.035   2.427   3.585  0.0884 -0.5728  0.3634
 7238SOL    HW123436   2.943   2.445   3.604  0.3130 -0.1791  1.1121
 7238SOL    HW223437   3.084   2.480   3.649  0.8239 -1.1492  0.2944
 7239SOL     OW23438   5.904   1.280   8.041  0.2573  0.5063  0.0611
 7239SOL    HW123439   5.935   1.330   8.116  0.6221 -0.0804  0.3052
 7239SOL    HW223440   5.926   1.189   8.061 -0.6539  0.2054 -0.2495
 7240SOL     OW23441   4.641   6.697   3.305  0.0197 -0.3724 -0.1033
 7240SOL    HW123442   4.713   6.756   3.328 -1.2602  1.9423 -1.5710
 7240SOL    HW223443   4.610   6.663   3.389  1.3209  0.4442  0.7399
 7241SOL     OW23444   7.616   0.220   2.122 -0.0570  0.7863 -0.2142
 7241SOL    HW123445   7.584   0.189   2.037  0.5897  0.7874 -0.4680
 7241SOL    HW223446   7.537   0.235   2.174 -0.4217 -0.3925 -0.3969
 7242SOL     OW23447   0.504   6.985   9.613 -0.1030  0.2169  0.3842
 7242SOL    HW123448   0.413   7.007   9.634 -1.2072 -2.8050 -0.7053
 7242SOL    HW223449   0.534   7.058   9.559 -0.3641  3.3526  4.0017
 7243SOL     OW23450   2.907   8.559   4.947  0.5173 -0.0533  0.0006
 7243SOL    HW123451   2.832   8.546   5.004  1.1325 -0.7535  0.6786
 7243SOL    HW223452   2.878   8.530   4.861  0.2396 -1.0599  0.4184
 7244SOL     OW23453   9.029   8.998   2.359 -0.3280  0.2111  0.0408
 7244SOL    HW123454   9.058   8.994   2.450 -0.2173  1.8064  0.1061
 7244SOL    HW223455   8.970   9.074   2.356 -0.5893 -0.0155 -1.1438
 7245SOL     OW23456   5.278   8.763   9.490  0.5579  0.5785  0.3617
 7245SOL    HW123457   5.325   8.835   9.447  0.8074  0.1600 -0.0672
 7245SOL    HW223458   5.324   8.684   9.462 -0.3555  0.1671  0.0018
 7246SOL     OW23459   9.660   5.451   0.508 -0.4132 -0.5674 -0.6884
 7246SOL    HW123460   9.577   5.405   0.498 -1.7712  1.1374  1.5645
 7246SOL    HW223461   9.719   5.387   0.548 -1.1466 -1.3398 -0.8185
 7247SOL     OW23462   9.009   9.485   5.760  0.5136 -0.4754 -0.6636
 7247SOL    HW123463   8.975   9.539   5.831  1.5581  1.0722 -1.2741
 7247SOL    HW223464   9.002   9.395   5.792 -0.8566  0.0386  0.5840
 7248SOL     OW23465   8.769   9.076   8.737  0.0753  0.1951  0.2674
 7248SOL    HW123466   8.807   9.162   8.726  1.1976  0.1746  3.0296
 7248SOL    HW223467   8.675   9.092   8.746 -0.0092  0.8235 -1.4690
 7249SOL     OW23468   5.260   1.593   6.968 -0.5690 -0.3362 -0.1245
 7249SOL    HW123469   5.283   1.505   6.938 -0.9633 -0.8624  1.0632
 7249SOL    HW223470   5.195   1.579   7.037 -0.3328  0.8670  0.3721
 7250SOL     OW23471   7.128   7.243   0.300  0.2086 -0.3976  0.2660
 7250SOL    HW123472   7.068   7.169   0.287  0.5931 -0.7138  0.2857
 7250SOL    HW223473   7.213   7.211   0.269  0.3237  0.1241  0.0300
 7251SOL     OW23474   5.083   8.116   3.970  0.5516 -0.0965 -0.3294
 7251SOL    HW123475   5.080   8.117   3.874  0.1007 -0.6583 -0.3245
 7251SOL    HW223476   5.168   8.077   3.991  0.7166  0.1625 -0.4906
 7252SOL     OW23477   8.507   1.535   7.539 -0.0156 -0.1905 -0.2929
 7252SOL    HW123478   8.561   1.556   7.614 -1.0371  5.8300 -0.7186
 7252SOL    HW223479   8.442   1.473   7.572  0.6163  0.8719  3.3524
 7253SOL     OW23480   1.546   5.446   3.509 -0.3937  0.2766  0.2462
 7253SOL    HW123481   1.555   5.540   3.498 -2.6835  0.2687 -3.4230
 7253SOL    HW223482   1.451   5.431   3.512 -0.0834 -1.8894  1.8911
 7254SOL     OW23483   0.788   0.233   6.933 -0.0231  0.4071  0.0504
 7254SOL    HW123484   0.705   0.224   6.979  0.0637  2.5239  0.6947
 7254SOL    HW223485   0.853   0.194   6.992 -0.1948  1.2769  0.8366
 7255SOL     OW23486   1.209   6.598   1.256  0.1254 -0.1568  0.0722
 7255SOL    HW123487   1.249   6.601   1.343  2.4553  1.0709 -0.9505
 7255SOL    HW223488   1.159   6.516   1.255  0.4856 -0.4711  2.3438
 7256SOL     OW23489   2.036   5.641   2.273  0.3577 -0.7182 -0.4738
 7256SOL    HW123490   2.041   5.555   2.232 -1.9347 -1.5659  0.8436
 7256SOL    HW223491   2.019   5.622   2.365 -0.1481  1.1469 -0.1528
 7257SOL     OW23492   3.124   3.808   8.004  0.1908  0.9295  0.0310
 7257SOL    HW123493   3.031   3.786   8.000  0.3692 -0.0240  0.6910
 7257SOL    HW223494   3.166   3.747   7.944  0.2505  2.3102 -1.3711
 7258SOL     OW23495   5.967   7.018   7.049 -0.1104  0.4373  0.1247
 7258SOL    HW123496   5.876   7.024   7.077 -0.0417 -1.7599  0.9915
 7258SOL    HW223497   5.989   7.107   7.021 -3.0112  0.6952 -1.7472
 7259SOL     OW23498   5.112   8.012   1.922 -0.5596 -0.2260 -0.1740
 7259SOL    HW123499   5.088   8.060   1.843  1.7473 -0.0706 -0.8672
 7259SOL    HW223500   5.032   7.967   1.948 -1.9386  1.3906 -1.3662
 7260SOL     OW23501   3.779   5.625   5.699 -1.0546 -0.1606 -0.2034
 7260SOL    HW123502   3.746   5.674   5.775 -0.5981  0.8780 -0.6672
 7260SOL    HW223503   3.702   5.577   5.668 -1.0947 -1.1927  1.3308
 7261SOL     OW23504   2.450   0.963   3.145 -0.0195  0.7285 -0.1613
 7261SOL    HW123505   2.524   0.910   3.114  0.1189  0.4500  0.6238
 7261SOL    HW223506   2.413   0.913   3.217 -1.4210  0.5299 -0.9917
 7262SOL     OW23507   3.287   4.757   1.071  0.1700  0.0010 -0.0133
 7262SOL    HW123508   3.358   4.739   1.009 -0.4699  0.1919 -0.8180
 7262SOL    HW223509   3.331   4.798   1.146  0.8593  0.5029 -0.6731
 7263SOL     OW23510   7.771   6.227   4.283  0.0686  0.2410  0.0406
 7263SOL    HW123511   7.684   6.265   4.288  0.8207  1.9856  1.0689
 7263SOL    HW223512   7.819   6.268   4.356  1.7431 -0.6473 -0.5058
 7264SOL     OW23513   3.064   0.955   6.065  0.1951  0.0862  0.0762
 7264SOL    HW123514   3.106   1.037   6.089 -0.4257  0.2067  0.8149
 7264SOL    HW223515   2.976   0.962   6.103  0.5110 -1.3941  1.1734
 7265SOL     OW23516   5.162   6.228   2.804  0.0434  0.0323 -0.6551
 7265SOL    HW123517   5.082   6.212   2.855  0.7612  3.0400  1.7128
 7265SOL    HW223518   5.130   6.259   2.719 -1.2630 -0.9830 -0.5744
 7266SOL     OW23519   4.896   3.608   8.120  0.3438  0.3280 -0.3731
 7266SOL    HW123520   4.991   3.611   8.109  0.1742  1.5824 -2.1054
 7266SOL    HW223521   4.871   3.522   8.086  0.9757 -0.7830  1.8095
 7267SOL     OW23522   2.120   0.802   0.009 -0.0344  0.4194  0.6002
 7267SOL    HW123523   2.176   0.725   0.010 -2.0589 -1.1405  1.0118
 7267SOL    HW223524   2.151   0.856   0.082  0.6354 -0.6180  1.1024
 7268SOL     OW23525   5.092   2.104   5.786  0.1797 -0.0328  0.4594
 7268SOL    HW123526   5.082   2.160   5.863  0.7203 -0.3265  0.7454
 7268SOL    HW223527   5.062   2.018   5.815 -0.1699 -0.0117  0.1683
 7269SOL     OW23528   7.464   0.815   5.917  0.1154 -0.5841  0.3713
 7269SOL    HW123529   7.391   0.801   5.856  1.1783  0.3942 -1.1901
 7269SOL    HW223530   7.515   0.885   5.877  0.7929  0.1899  2.4891
 7270SOL     OW23531   5.724   7.144   3.060  0.2247 -0.0880  0.0645
 7270SOL    HW123532   5.746   7.051   3.068 -0.4665 -0.4884 -2.1686
 7270SOL    HW223533   5.662   7.148   2.987 -1.4007  1.8864  1.4293
 7271SOL     OW23534   8.212   2.989   5.954 -0.1543  0.3434  0.1982
 7271SOL    HW123535   8.173   3.049   5.890  1.7120 -1.2474 -2.6796
 7271SOL    HW223536   8.304   2.983   5.928  0.4986 -1.0986  2.5455
 7272SOL     OW23537   8.436   3.425   7.067  0.2338 -0.3549 -0.0490
 7272SOL    HW123538   8.352   3.380   7.052  0.5318 -1.0042  0.1875
 7272SOL    HW223539   8.452   3.472   6.985 -0.9486  0.7717  0.3272
 7273SOL     OW23540   2.184   2.100   2.893 -0.1372  0.0814 -0.6389
 7273SOL    HW123541   2.171   2.134   2.982 -1.3027  0.2705 -0.8567
 7273SOL    HW223542   2.197   2.006   2.905  1.0273  0.2869 -0.1807
 7274SOL     OW23543   8.809   4.805   5.892  0.0596 -0.1977  0.0349
 7274SOL    HW123544   8.733   4.760   5.928  0.3326  0.3194  1.3467
 7274SOL    HW223545   8.788   4.820   5.800 -1.5031  0.1315  0.4296
 7275SOL     OW23546   3.239   2.050   6.616  0.1218 -0.2120  0.0942
 7275SOL    HW123547   3.281   1.969   6.590  1.9095  0.6843  0.0461
 7275SOL    HW223548   3.198   2.084   6.536 -2.3919 -1.9850  0.5141
 7276SOL     OW23549   1.016   7.757   0.961  0.2260 -0.0445  0.4291
 7276SOL    HW123550   0.980   7.738   1.048  0.4889 -0.5017  0.4393
 7276SOL    HW223551   0.951   7.814   0.920  0.3050  0.5423  1.0938
 7277SOL     OW23552   0.345   6.370   2.315  0.7830 -0.9962  0.8987
 7277SOL    HW123553   0.282   6.410   2.254 -0.5890 -1.6206  1.8367
 7277SOL    HW223554   0.423   6.354   2.262  0.4230  0.4737 -0.1320
 7278SOL     OW23555   4.106   1.983   4.786 -0.2699 -0.7040  0.2688
 7278SOL    HW123556   4.144   1.956   4.869 -0.9298 -0.6598  0.5899
 7278SOL    HW223557   4.171   2.043   4.748 -1.7172  2.7607  2.7272
 7279SOL     OW23558   9.406   0.367   3.522 -0.0020 -0.2750 -0.0689
 7279SOL    HW123559   9.392   0.460   3.543 -0.7668  0.1843 -2.3123
 7279SOL    HW223560   9.364   0.320   3.593 -1.0717  1.1342  0.2933
 7280SOL     OW23561   8.639   7.204   4.232 -0.8580  0.2448 -0.1992
 7280SOL    HW123562   8.556   7.227   4.274 -0.5633 -0.4995  0.8194
 7280SOL    HW223563   8.700   7.190   4.304  0.0048  0.1846 -0.9180
 7281SOL     OW23564   5.216   3.745   7.316 -0.2314 -1.0298  0.3228
 7281SOL    HW123565   5.297   3.776   7.356  0.3083 -0.8900 -0.8507
 7281SOL    HW223566   5.158   3.821   7.318  0.3579 -0.5338 -0.6099
 7282SOL     OW23567   7.257   9.059   2.272 -0.0017  0.0393  0.3130
 7282SOL    HW123568   7.164   9.037   2.262  0.1755 -0.1207 -1.0443
 7282SOL    HW223569   7.299   8.976   2.294 -0.1373  0.0779  0.7382
 7283SOL     OW23570   6.870   3.660   8.125 -0.3017  0.0781 -0.1952
 7283SOL    HW123571   6.894   3.717   8.052 -0.4240 -0.4222 -0.6301
 7283SOL    HW223572   6.808   3.597   8.087  0.2838 -0.7082  0.1420
 7284SOL     OW23573   5.742   8.021   7.600  0.6911  0.3592  0.1507
 7284SOL    HW123574   5.670   8.083   7.613  0.0149 -0.2559 -0.5204
 7284SOL    HW223575   5.781   8.047   7.516 -0.1464 -0.6206 -0.5708
 7285SOL     OW23576   6.138   3.332   7.200  0.0347  0.1054 -0.0457
 7285SOL    HW123577   6.182   3.368   7.123 -2.4347  1.1635 -1.0737
 7285SOL    HW223578   6.058   3.292   7.165 -1.2564  0.7739  1.9587
 7286SOL     OW23579   2.572   1.397   4.601  0.1936 -0.0826 -0.1578
 7286SOL    HW123580   2.615   1.452   4.666 -0.3214  0.2690 -0.1050
 7286SOL    HW223581   2.544   1.319   4.649 -0.6560  0.4136  0.1674
 7287SOL     OW23582   4.252   7.774   7.145  0.0607 -0.0522 -0.0164
 7287SOL    HW123583   4.308   7.729   7.081 -0.1343  0.5396 -0.6121
 7287SOL    HW223584   4.301   7.769   7.227  0.7094 -0.0708 -0.3986
 7288SOL     OW23585   7.882   3.008   6.796  0.0813 -0.3739 -0.3693
 7288SOL    HW123586   7.877   3.085   6.852 -0.4744 -1.8476  1.7572
 7288SOL    HW223587   7.817   3.024   6.728  2.0451  2.2796 -1.8088
 7289SOL     OW23588   8.541   2.371   7.868 -0.2269 -0.4332 -0.2530
 7289SOL    HW123589   8.610   2.333   7.922  0.3488  0.0099 -0.6726
 7289SOL    HW223590   8.499   2.296   7.827  0.5614 -0.6608 -0.6602
 7290SOL     OW23591   1.603   8.004   2.820 -0.7675 -0.1917 -0.3941
 7290SOL    HW123592   1.533   8.010   2.885 -1.1909 -0.8057 -0.7816
 7290SOL    HW223593   1.684   8.015   2.871 -1.0727 -1.0804  0.3035
 7291SOL     OW23594   6.105   0.307   0.504 -0.1477  0.0436 -0.0548
 7291SOL    HW123595   6.188   0.341   0.471 -0.3530  1.4917  0.8392
 7291SOL    HW223596   6.038   0.349   0.449 -0.4845  2.3380  1.9319
 7292SOL     OW23597   5.041   2.963   0.745  0.4004 -0.1724 -0.2448
 7292SOL    HW123598   5.090   3.045   0.735 -0.0759  0.2699  0.8657
 7292SOL    HW223599   4.978   2.964   0.673  1.3038 -0.2290 -1.0411
 7293SOL     OW23600   8.098   6.659   6.253 -0.2564 -0.2078 -0.0677
 7293SOL    HW123601   8.020   6.701   6.290 -2.2185 -2.3493 -1.5398
 7293SOL    HW223602   8.111   6.582   6.308 -0.4718 -0.9709 -1.0614
 7294SOL     OW23603   1.336   3.186   5.629  0.2793  0.7981  0.1643
 7294SOL    HW123604   1.351   3.278   5.606 -1.5454  1.1451  0.2606
 7294SOL    HW223605   1.356   3.181   5.722 -0.7168  1.3714  0.4191
 7295SOL     OW23606   4.387   8.285   8.443 -0.2321  0.4934 -0.0642
 7295SOL    HW123607   4.334   8.278   8.522 -1.4018  0.9435 -0.7888
 7295SOL    HW223608   4.358   8.366   8.401  0.2077  0.1501 -1.0643
 7296SOL     OW23609   5.618   1.265   4.975 -0.1887  0.1469 -0.0814
 7296SOL    HW123610   5.565   1.231   5.048 -2.1315  0.9107 -1.0559
 7296SOL    HW223611   5.556   1.273   4.902  1.1850  1.5437 -1.1741
 7297SOL     OW23612   1.806   6.562   6.407  0.4082 -0.1135  0.5756
 7297SOL    HW123613   1.856   6.631   6.363  1.5247 -1.9032 -1.1210
 7297SOL    HW223614   1.728   6.550   6.352  1.9679 -2.5869 -1.3108
 7298SOL     OW23615   1.092   4.585   3.442 -0.0266 -0.1561  0.3889
 7298SOL    HW123616   1.071   4.587   3.349  0.5925 -0.1067  0.2463
 7298SOL    HW223617   1.166   4.525   3.449  0.6543  0.6910  0.6919
 7299SOL     OW23618   7.345   4.861   6.946 -0.8614 -0.2924 -0.8276
 7299SOL    HW123619   7.313   4.910   7.021  0.4785 -0.4433 -0.1181
 7299SOL    HW223620   7.322   4.915   6.870  0.4350  1.3880 -0.0869
 7300SOL     OW23621   3.484   8.671   3.237 -0.6143  0.1603  0.1683
 7300SOL    HW123622   3.521   8.706   3.157  2.1047 -0.7372  0.9302
 7300SOL    HW223623   3.453   8.584   3.214  0.8250 -0.3792  0.2183
 7301SOL     OW23624   7.979   0.197   4.083 -0.3341  0.3756 -0.1239
 7301SOL    HW123625   8.073   0.204   4.064 -0.5413  1.4301 -0.8123
 7301SOL    HW223626   7.948   0.287   4.087 -1.0482  0.0842  1.5966
 7302SOL     OW23627   7.266   6.458   8.597 -0.2234 -0.6774  0.1060
 7302SOL    HW123628   7.312   6.541   8.615 -0.5015 -0.3285 -0.7472
 7302SOL    HW223629   7.178   6.485   8.569 -0.9229 -1.3357  1.5863
 7303SOL     OW23630   3.157   5.104   9.023  0.2231 -0.5502  0.2802
 7303SOL    HW123631   3.158   5.031   8.962  1.6115 -0.0816 -0.2936
 7303SOL    HW223632   3.250   5.122   9.041 -0.0039  2.0049 -0.7304
 7304SOL     OW23633   4.095   3.906   8.271  0.2832 -0.0711 -0.0736
 7304SOL    HW123634   4.033   3.839   8.299  0.2763  0.3820  1.0176
 7304SOL    HW223635   4.117   3.954   8.350 -1.1196  2.4214 -1.0732
 7305SOL     OW23636   4.798   4.202   6.972  0.3481  0.1974 -0.1991
 7305SOL    HW123637   4.865   4.134   6.971  3.2796  2.7851  2.0420
 7305SOL    HW223638   4.816   4.254   6.894 -0.0785  0.0127 -0.4224
 7306SOL     OW23639   3.836   3.882   6.270  0.1837 -0.6094 -0.3993
 7306SOL    HW123640   3.760   3.824   6.259  1.3908 -2.0154 -1.8091
 7306SOL    HW223641   3.806   3.967   6.237 -0.3954 -1.4852 -2.2702
 7307SOL     OW23642   0.075   4.008   2.146 -0.1748  0.0577 -0.1623
 7307SOL    HW123643   0.170   4.013   2.155 -0.0943  0.7636 -1.2016
 7307SOL    HW223644   0.042   4.007   2.236  0.8274 -0.7344  0.2097
 7308SOL     OW23645   2.919   6.134   0.445  0.0831  0.2629 -0.2477
 7308SOL    HW123646   2.890   6.225   0.431  0.0029  0.4027  0.7774
 7308SOL    HW223647   2.870   6.084   0.381 -1.6308  0.6483  0.7025
 7309SOL     OW23648   0.615   2.921   1.576 -0.2681  0.0711 -0.1250
 7309SOL    HW123649   0.559   2.996   1.593 -0.0255  0.5359 -1.3343
 7309SOL    HW223650   0.668   2.946   1.500 -0.1884 -1.3145 -0.5557
 7310SOL     OW23651   5.348   7.242   5.134  0.0531 -0.0180  0.0636
 7310SOL    HW123652   5.390   7.258   5.219 -0.1921 -0.1802  0.2155
 7310SOL    HW223653   5.420   7.217   5.076  0.5049  1.7851 -0.2335
 7311SOL     OW23654   8.390   5.980   0.624  0.1081 -0.3691 -0.6703
 7311SOL    HW123655   8.321   6.023   0.574  0.7135 -1.2346 -2.3167
 7311SOL    HW223656   8.464   6.041   0.619 -0.2144  0.1200  0.2809
 7312SOL     OW23657   8.535   1.952   6.195 -0.1322 -0.2227 -0.2946
 7312SOL    HW123658   8.485   1.978   6.273 -2.1905  2.8491 -2.4445
 7312SOL    HW223659   8.469   1.930   6.130  1.5368 -2.5942 -1.3202
 7313SOL     OW23660   2.634   5.108   2.824  0.4910  0.7031 -0.5925
 7313SOL    HW123661   2.669   5.063   2.901 -1.0659  1.0352  0.3451
 7313SOL    HW223662   2.602   5.039   2.767 -2.6065  0.5203  1.1825
 7314SOL     OW23663   6.880   4.048   8.271 -0.4453 -0.2671 -0.5241
 7314SOL    HW123664   6.907   3.996   8.347  0.8573  1.6987  0.4637
 7314SOL    HW223665   6.928   4.009   8.197 -0.0693 -0.9050  0.0463
 7315SOL     OW23666   7.577   3.957   7.428  0.0314  0.4000  0.1511
 7315SOL    HW123667   7.664   3.918   7.426  0.4050  1.1006  1.3209
 7315SOL    HW223668   7.534   3.914   7.502 -0.9127 -0.4826 -0.8684
 7316SOL     OW23669   7.021   2.390   3.664  0.0872  0.0126 -0.0562
 7316SOL    HW123670   7.094   2.397   3.603  0.1885  0.6691  0.1337
 7316SOL    HW223671   6.987   2.479   3.671  1.2243  0.3474  2.2434
 7317SOL     OW23672   2.628   8.260   4.269 -0.8433  0.4155  0.3212
 7317SOL    HW123673   2.614   8.308   4.187 -2.0637 -0.4342 -0.0052
 7317SOL    HW223674   2.714   8.220   4.259 -1.3794 -0.4708 -0.9938
 7318SOL     OW23675   7.951   9.482   2.587  0.4336 -0.3439 -0.2777
 7318SOL    HW123676   7.958   9.435   2.503  0.9500  1.5565 -1.3513
 7318SOL    HW223677   7.913   9.418   2.647  0.4954 -1.9175 -1.8365
 7319SOL     OW23678   1.950   2.488   2.463 -0.3849  0.4976  0.0560
 7319SOL    HW123679   1.908   2.410   2.426  1.8745 -0.1711 -1.3117
 7319SOL    HW223680   1.960   2.547   2.388  0.8245  0.7244  0.3684
 7320SOL     OW23681   4.178   8.469   8.805 -0.3235 -0.2988 -0.3174
 7320SOL    HW123682   4.084   8.475   8.823 -0.7461 -0.9348 -2.0734
 7320SOL    HW223683   4.220   8.485   8.889 -2.0036  0.1081  0.4795
 7321SOL     OW23684   8.749   4.168   1.741  0.2576 -0.8111  0.7707
 7321SOL    HW123685   8.828   4.171   1.687 -0.2444 -3.1872 -0.2067
 7321SOL    HW223686   8.778   4.130   1.824  1.2387  3.7274  2.8351
 7322SOL     OW23687   6.217   3.879   8.539 -0.2292  0.2780  0.1438
 7322SOL    HW123688   6.131   3.867   8.498  0.1098  1.6812 -1.0356
 7322SOL    HW223689   6.261   3.944   8.485  1.0463  0.6497  1.5649
 7323SOL     OW23690   0.806   3.656   6.219  0.3965  0.6243 -0.3060
 7323SOL    HW123691   0.881   3.699   6.262 -0.1417  2.5670 -1.1854
 7323SOL    HW223692   0.752   3.729   6.189 -2.2069 -0.7199  0.8509
 7324SOL     OW23693   8.792   5.145   8.600  0.8498  0.3417  0.2592
 7324SOL    HW123694   8.761   5.129   8.510 -0.1271  0.4245  0.5722
 7324SOL    HW223695   8.864   5.207   8.590  1.1589 -0.1278 -0.5191
 7325SOL     OW23696   6.266   3.641   4.129  0.5359  0.4211  0.4474
 7325SOL    HW123697   6.204   3.572   4.152  0.0297  0.8040  0.2846
 7325SOL    HW223698   6.293   3.620   4.040  1.3334 -0.2346  0.8360
 7326SOL     OW23699   2.955   4.963   3.459  0.4657  0.2492  0.1216
 7326SOL    HW123700   2.890   4.930   3.397  1.0306  0.7832 -0.7823
 7326SOL    HW223701   3.039   4.929   3.426  0.7117  0.0409  0.9452
 7327SOL     OW23702   1.662   0.534   3.967 -0.2081  0.1198 -0.0556
 7327SOL    HW123703   1.609   0.553   4.045 -0.2473  0.7708 -0.2374
 7327SOL    HW223704   1.752   0.548   3.995 -0.0181 -1.9287  0.5351
 7328SOL     OW23705   7.357   4.053   8.860  0.0054 -0.0708  0.0405
 7328SOL    HW123706   7.269   4.076   8.829 -0.1803 -0.9339 -0.1028
 7328SOL    HW223707   7.342   4.007   8.943  0.3422  0.0913  0.1902
 7329SOL     OW23708   3.371   5.272   5.673 -0.2014  0.0490 -0.2843
 7329SOL    HW123709   3.364   5.262   5.578  2.0927 -0.9899 -0.3906
 7329SOL    HW223710   3.281   5.259   5.704 -0.7812 -0.9414 -2.1953
 7330SOL     OW23711   1.926   3.959   7.567 -0.1094  0.3799  0.0229
 7330SOL    HW123712   1.904   4.017   7.495 -0.1383  0.2539 -0.0708
 7330SOL    HW223713   1.861   3.978   7.634  0.8330  1.5991  0.6385
 7331SOL     OW23714   0.317   0.976   6.878  0.6037  0.0596 -0.1297
 7331SOL    HW123715   0.373   0.927   6.818 -0.2382 -0.9268 -0.1421
 7331SOL    HW223716   0.231   0.935   6.868  0.6072 -0.7358  2.3917
 7332SOL     OW23717   1.597   9.648   1.270 -0.1052 -0.2789 -0.3572
 7332SOL    HW123718   1.509   9.683   1.252 -0.5183 -0.9642  0.2572
 7332SOL    HW223719   1.583   9.554   1.280  0.6154 -0.3228  0.2874
 7333SOL     OW23720   8.327   2.716   4.834  0.1573  0.4349 -0.4137
 7333SOL    HW123721   8.372   2.734   4.916  0.5068  0.6205 -0.6442
 7333SOL    HW223722   8.309   2.802   4.797 -0.7298  0.3728 -0.1429
 7334SOL     OW23723   9.254   0.697   4.649 -0.0700 -0.3677 -0.1995
 7334SOL    HW123724   9.283   0.662   4.734 -1.3410 -0.7426  0.1122
 7334SOL    HW223725   9.288   0.786   4.647 -0.4511 -0.1714  0.9611
 7335SOL     OW23726   1.036   3.964   1.765  0.0905 -0.5157  0.1311
 7335SOL    HW123727   1.076   4.050   1.756 -3.1250  0.9679 -1.7609
 7335SOL    HW223728   1.061   3.917   1.685 -3.3796  1.2177 -2.1728
 7336SOL     OW23729   7.835   9.457   5.573 -0.0387  0.3911 -0.1370
 7336SOL    HW123730   7.748   9.440   5.610  0.4804  0.5798  1.2180
 7336SOL    HW223731   7.817   9.512   5.496 -1.0900  0.9149  0.4468
 7337SOL     OW23732   8.644   7.498   7.120  0.1186 -0.2180  0.0184
 7337SOL    HW123733   8.591   7.538   7.189 -0.7641 -0.5955 -0.4218
 7337SOL    HW223734   8.620   7.405   7.122 -1.0173 -0.0150 -1.7241
 7338SOL     OW23735   4.059   7.175   5.738 -0.2513 -0.1621 -0.2096
 7338SOL    HW123736   4.024   7.224   5.813  3.4742  1.2914  0.7834
 7338SOL    HW223737   4.080   7.241   5.673 -0.9021 -1.1706 -1.5156
 7339SOL     OW23738   2.270   0.258   3.732 -0.4892  0.3093 -0.1965
 7339SOL    HW123739   2.248   0.283   3.642  0.8451 -0.3742 -0.7420
 7339SOL    HW223740   2.240   0.332   3.786  0.2272  1.5043 -1.3819
 7340SOL     OW23741   3.731   0.465   8.306 -0.6154  0.0102  0.0929
 7340SOL    HW123742   3.699   0.535   8.248  1.2924  0.5457 -0.3924
 7340SOL    HW223743   3.749   0.392   8.247 -0.9878 -0.3089  0.3690
 7341SOL     OW23744   5.633   9.101   8.169  0.2741  0.3994 -0.2327
 7341SOL    HW123745   5.703   9.160   8.141  0.0830  0.5658 -0.3613
 7341SOL    HW223746   5.561   9.117   8.107 -0.2904  1.0334  0.5635
 7342SOL     OW23747   1.005   8.662   7.450 -0.4424 -0.0214 -0.1652
 7342SOL    HW123748   1.054   8.609   7.512  1.2038 -0.5648 -1.8271
 7342SOL    HW223749   0.934   8.606   7.419 -0.0795 -0.4524 -0.2182
 7343SOL     OW23750   7.416   1.239   6.736 -0.1039 -0.1567  0.1586
 7343SOL    HW123751   7.340   1.294   6.754  0.8686  0.8590  1.2771
 7343SOL    HW223752   7.480   1.263   6.802  0.6664 -2.0654  0.1699
 7344SOL     OW23753   6.631   1.449   5.821 -0.1899  0.4216 -0.0932
 7344SOL    HW123754   6.579   1.529   5.822  0.2014  0.7171 -1.4166
 7344SOL    HW223755   6.656   1.438   5.729  2.0351  0.2672  0.4851
 7345SOL     OW23756   0.764   6.152   4.165 -0.2296 -0.2281  0.4586
 7345SOL    HW123757   0.679   6.126   4.130  0.2928 -0.7679 -0.4675
 7345SOL    HW223758   0.788   6.083   4.227 -0.1232 -0.4915  0.1295
 7346SOL     OW23759   6.293   1.283   3.739 -0.2391  0.1519  0.2292
 7346SOL    HW123760   6.257   1.238   3.815  1.5192 -2.6583 -0.4504
 7346SOL    HW223761   6.269   1.228   3.665  0.3121  1.4377 -0.9494
 7347SOL     OW23762   5.548   8.166   7.245 -0.3220 -0.9998  0.1127
 7347SOL    HW123763   5.452   8.159   7.247 -0.2787 -1.5478  0.3826
 7347SOL    HW223764   5.575   8.158   7.336 -0.1713  1.7694  0.3921
 7348SOL     OW23765   0.666   1.038   8.080 -0.5946 -0.0378  0.2527
 7348SOL    HW123766   0.744   1.088   8.056 -0.1631 -1.0138 -0.4403
 7348SOL    HW223767   0.696   0.978   8.148 -0.9371  0.1566  0.5732
 7349SOL     OW23768   8.672   8.697   6.030 -0.3537 -0.0547  0.5930
 7349SOL    HW123769   8.720   8.661   6.104  1.0821  0.1712 -0.2008
 7349SOL    HW223770   8.635   8.621   5.986  1.0638 -0.4369  0.0149
 7350SOL     OW23771   7.162   2.515   0.757  0.0765 -0.1497 -0.1816
 7350SOL    HW123772   7.249   2.552   0.772  0.3056 -0.7683  0.0404
 7350SOL    HW223773   7.163   2.486   0.666 -0.0990  0.3617 -0.3518
 7351SOL     OW23774   4.143   9.368   8.161 -0.2596  0.3214 -0.0391
 7351SOL    HW123775   4.095   9.394   8.082 -0.2301 -2.6561 -1.2074
 7351SOL    HW223776   4.082   9.311   8.208  0.9794 -0.9678  0.0792
 7352SOL     OW23777   8.907   9.471   5.264  0.1798  0.3521  0.7216
 7352SOL    HW123778   8.970   9.420   5.214  0.9126 -0.4939  2.4272
 7352SOL    HW223779   8.830   9.477   5.207  1.6969  1.3062 -1.3591
 7353SOL     OW23780   8.973   2.212   7.136  0.5183 -0.4467 -0.4938
 7353SOL    HW123781   9.031   2.167   7.198  0.1595  0.3617  0.4633
 7353SOL    HW223782   8.947   2.145   7.073  0.1593 -1.5225  0.7722
 7354SOL     OW23783   6.179   7.873   2.865 -0.0741 -0.0327  0.4188
 7354SOL    HW123784   6.127   7.908   2.938 -0.9914  0.0086 -0.2323
 7354SOL    HW223785   6.131   7.900   2.786  1.1957  0.3988 -0.2379
 7355SOL     OW23786   3.843   0.614   8.522  0.1397  0.4761  0.3840
 7355SOL    HW123787   3.926   0.582   8.558  0.8607  1.8405 -0.0369
 7355SOL    HW223788   3.816   0.546   8.460  1.0906  0.1688  0.3013
 7356SOL     OW23789   8.574   7.815   7.412  0.2384  0.0046  0.0216
 7356SOL    HW123790   8.582   7.908   7.431 -0.8980 -0.0108  0.6406
 7356SOL    HW223791   8.577   7.809   7.317  0.5741  0.6380 -0.0090
 7357SOL     OW23792   5.054   5.851   4.988  0.3899  0.1011 -0.0752
 7357SOL    HW123793   5.088   5.933   5.025 -1.8614  1.7722 -1.4523
 7357SOL    HW223794   5.053   5.866   4.894  0.0896 -1.6150 -0.3695
 7358SOL     OW23795   2.248   1.073   4.528 -0.5893  0.0978 -0.7484
 7358SOL    HW123796   2.295   1.009   4.582 -0.7979  0.3195 -0.2962
 7358SOL    HW223797   2.304   1.085   4.451  0.4558  0.8666  0.0920
 7359SOL     OW23798   0.461   4.524   1.801 -0.1278 -0.1022 -0.5813
 7359SOL    HW123799   0.451   4.613   1.834  0.7778  0.4096 -1.6117
 7359SOL    HW223800   0.536   4.488   1.849 -0.9686 -0.5923  0.3843
 7360SOL     OW23801   6.571   1.052   7.955  0.0981  0.0383 -0.8325
 7360SOL    HW123802   6.520   0.995   7.898 -1.4320  0.0172  0.4613
 7360SOL    HW223803   6.509   1.121   7.981  1.5858  1.7062 -1.5014
 7361SOL     OW23804   5.157   5.543   8.228  0.3248 -0.4452  0.2690
 7361SOL    HW123805   5.104   5.622   8.217 -1.3545 -1.4578  0.6774
 7361SOL    HW223806   5.164   5.531   8.322 -0.2350 -1.2629  0.2237
 7362SOL     OW23807   5.131   6.444   3.606 -0.3366  0.1698 -0.0423
 7362SOL    HW123808   5.122   6.536   3.582  0.3983  0.3341  0.3055
 7362SOL    HW223809   5.180   6.405   3.534  1.4937  0.5736  0.9375
 7363SOL     OW23810   7.869   4.764   6.795  0.2627  1.0015 -1.2119
 7363SOL    HW123811   7.951   4.716   6.802 -0.1258  0.4718  0.4115
 7363SOL    HW223812   7.806   4.700   6.763  0.2985  1.1538 -1.5845
 7364SOL     OW23813   9.269   7.728   0.810  0.1523  0.4234 -0.3871
 7364SOL    HW123814   9.258   7.694   0.721  0.8392 -1.1090  0.0979
 7364SOL    HW223815   9.351   7.692   0.840  0.5296  1.9012  0.4718
 7365SOL     OW23816   6.692   2.810   9.409  0.7672  0.4987 -0.2418
 7365SOL    HW123817   6.682   2.889   9.356  1.9762  0.5413 -0.4342
 7365SOL    HW223818   6.754   2.835   9.478  2.3000 -0.6496 -1.1246
 7366SOL     OW23819   5.499   4.895   1.940 -0.0292  0.0617  0.0363
 7366SOL    HW123820   5.528   4.934   2.022  0.1084 -0.6616  0.3465
 7366SOL    HW223821   5.424   4.840   1.965 -0.3960  0.3451 -0.4278
 7367SOL     OW23822   3.564   8.146   2.069 -0.0160 -0.0395  0.4096
 7367SOL    HW123823   3.593   8.056   2.058  0.9392 -0.0830  2.6881
 7367SOL    HW223824   3.590   8.169   2.158 -0.1016  2.5366 -0.1403
 7368SOL     OW23825   1.307   4.409   3.515  0.3270  0.6520 -0.3465
 7368SOL    HW123826   1.378   4.353   3.482 -0.0146 -0.1688  0.2584
 7368SOL    HW223827   1.351   4.484   3.553  1.2375 -1.5079  3.3706
 7369SOL     OW23828   8.276   0.330   0.746 -0.0843 -0.3998 -0.8328
 7369SOL    HW123829   8.185   0.301   0.746 -0.3672  0.4640 -1.5213
 7369SOL    HW223830   8.325   0.253   0.718 -0.5451 -1.0138 -0.0036
 7370SOL     OW23831   0.879   7.256   4.390  0.2562 -0.1694  0.2956
 7370SOL    HW123832   0.882   7.333   4.333 -0.0549 -0.1542  0.2955
 7370SOL    HW223833   0.886   7.292   4.479  0.2865 -0.1544  0.2872
 7371SOL     OW23834   6.758   6.339   6.476 -0.1281  0.3117  0.2277
 7371SOL    HW123835   6.751   6.361   6.569  1.7895  1.2770  0.2075
 7371SOL    HW223836   6.732   6.419   6.430 -1.2018 -0.2037 -0.0973
 7372SOL     OW23837   1.152   8.206   3.715 -0.3956  0.5891 -0.1273
 7372SOL    HW123838   1.096   8.204   3.792 -1.1522  0.0544 -0.6783
 7372SOL    HW223839   1.203   8.125   3.719 -0.2749  0.6665 -0.0787
 7373SOL     OW23840   0.103   0.957   3.477  0.0919  0.2336  0.1585
 7373SOL    HW123841   0.158   1.033   3.495  0.3687  0.1641 -0.3804
 7373SOL    HW223842   0.060   0.939   3.561 -0.9863  1.7670 -0.0172
 7374SOL     OW23843   7.965   1.911   8.915  0.3507  0.2628 -0.5100
 7374SOL    HW123844   8.049   1.942   8.947  0.6954 -0.8268 -0.3262
 7374SOL    HW223845   7.915   1.891   8.994  1.6007 -3.5138 -0.4697
 7375SOL     OW23846   9.622   8.639   1.070 -0.5502 -0.0206  0.1790
 7375SOL    HW123847   9.618   8.641   1.165 -2.3875  0.7482  0.1249
 7375SOL    HW223848   9.533   8.617   1.042  0.3649 -2.2226 -1.3507
 7376SOL     OW23849   8.906   4.094   4.512 -0.2751 -0.4372  0.1481
 7376SOL    HW123850   8.910   4.069   4.420 -1.3424  0.3260 -0.1278
 7376SOL    HW223851   8.905   4.010   4.559 -0.9495 -0.8687 -0.6049
 7377SOL     OW23852   3.376   2.431   4.855 -0.5476 -0.3457 -0.4062
 7377SOL    HW123853   3.410   2.346   4.884 -1.0366 -0.3399  0.1908
 7377SOL    HW223854   3.375   2.485   4.933 -1.6995 -0.2700 -0.4515
 7378SOL     OW23855   5.215   8.708   6.413  0.5327  0.1526 -0.1887
 7378SOL    HW123856   5.262   8.674   6.337 -1.1374 -0.0161 -1.1983
 7378SOL    HW223857   5.132   8.741   6.377 -0.1404  0.4159  1.5151
 7379SOL     OW23858   0.205   3.156   3.630 -0.2136  0.2811 -0.6638
 7379SOL    HW123859   0.176   3.076   3.675  1.2435 -0.1910 -0.5187
 7379SOL    HW223860   0.216   3.129   3.539  1.2884  0.0199 -0.4241
 7380SOL     OW23861   2.902   0.426   4.299  0.1626  0.6262 -0.4621
 7380SOL    HW123862   2.971   0.374   4.259  0.8173  0.3502  0.9631
 7380SOL    HW223863   2.911   0.513   4.261  0.9218  0.4361 -0.7203
 7381SOL     OW23864   7.793   6.670   2.538 -0.0578  0.0387  0.4684
 7381SOL    HW123865   7.787   6.763   2.519 -0.0103  0.0261  0.3922
 7381SOL    HW223866   7.777   6.664   2.632 -2.7037 -0.1343  0.0580
 7382SOL     OW23867   5.097   9.045   9.409 -0.3243 -0.1467 -0.3107
 7382SOL    HW123868   5.162   9.038   9.339  0.9406 -2.0915  0.9570
 7382SOL    HW223869   5.147   9.032   9.490 -1.9674  0.5249  0.8804
 7383SOL     OW23870   7.189   9.540   7.872 -0.2914  0.2435 -0.1581
 7383SOL    HW123871   7.254   9.521   7.805 -0.0962  0.7282 -0.1156
 7383SOL    HW223872   7.225   9.503   7.953  0.2517  1.0784 -0.0045
 7384SOL     OW23873   4.944   0.568   9.167  0.2916  0.2822  0.3334
 7384SOL    HW123874   4.909   0.498   9.222 -0.1470 -0.0076 -0.3024
 7384SOL    HW223875   4.946   0.530   9.079  0.6494  0.8585  0.0856
 7385SOL     OW23876   9.474   9.392   6.837  0.0015  0.0323  0.4741
 7385SOL    HW123877   9.501   9.465   6.781  0.9501 -0.1742  0.6343
 7385SOL    HW223878   9.556   9.363   6.877  0.3203 -3.3973 -2.2295
 7386SOL     OW23879   0.863   5.605   1.161 -0.0956  0.2166 -0.1369
 7386SOL    HW123880   0.836   5.577   1.248  0.7771 -1.8120 -0.4854
 7386SOL    HW223881   0.920   5.680   1.177 -1.8557  1.4221  0.8628
 7387SOL     OW23882   7.323   4.283   3.463  0.8191 -0.0234 -0.0742
 7387SOL    HW123883   7.268   4.276   3.541  1.8404 -0.5309  0.6231
 7387SOL    HW223884   7.411   4.298   3.497  1.1076  0.9306 -1.1697
 7388SOL     OW23885   3.346   9.306   4.815  0.3584 -0.2771 -0.3381
 7388SOL    HW123886   3.418   9.247   4.792  0.8569  0.4738 -0.7414
 7388SOL    HW223887   3.267   9.258   4.790  0.7491 -0.8247 -0.5408
 7389SOL     OW23888   2.142   5.080   0.623  0.3145 -0.2828 -0.1762
 7389SOL    HW123889   2.160   5.015   0.555  2.1749 -0.4848  0.4636
 7389SOL    HW223890   2.157   5.034   0.705  2.6170  1.1245  0.2834
 7390SOL     OW23891   6.271   8.526   7.689  0.2970 -0.1324 -0.0727
 7390SOL    HW123892   6.342   8.589   7.682 -1.5734  2.2386  0.5840
 7390SOL    HW223893   6.240   8.513   7.600 -0.1541  0.9769 -0.0861
 7391SOL     OW23894   4.134   1.105   4.279  0.1225  0.4031 -0.1361
 7391SOL    HW123895   4.124   1.154   4.361 -0.9336  0.6965 -0.4241
 7391SOL    HW223896   4.171   1.021   4.306  0.3242  0.7094  0.5707
 7392SOL     OW23897   7.810   5.823   3.401  0.1343  0.0182 -0.4488
 7392SOL    HW123898   7.720   5.796   3.382  0.6613 -1.0545 -1.6179
 7392SOL    HW223899   7.833   5.775   3.481 -0.6601  1.1483  0.4976
 7393SOL     OW23900   7.356   0.511   1.003  0.4455 -0.2598 -0.2666
 7393SOL    HW123901   7.396   0.439   0.954  0.3129 -1.5543  1.4323
 7393SOL    HW223902   7.267   0.517   0.968 -0.1229 -2.1342  0.6980
 7394SOL     OW23903   7.248   1.525   0.626  1.0286 -0.0658 -0.0390
 7394SOL    HW123904   7.156   1.544   0.645  1.1417  0.9019 -0.4471
 7394SOL    HW223905   7.274   1.590   0.561  1.6350 -1.1553 -0.9229
 7395SOL     OW23906   4.742   7.954   3.076 -0.0207 -0.4301  0.4502
 7395SOL    HW123907   4.648   7.939   3.070 -0.2563  0.0983  2.2130
 7395SOL    HW223908   4.779   7.866   3.088 -0.1478 -0.7543 -1.2636
 7396SOL     OW23909   6.445   1.938   7.719 -0.0943 -0.2093  0.4638
 7396SOL    HW123910   6.419   1.857   7.674 -2.1229  1.0458 -0.8278
 7396SOL    HW223911   6.538   1.947   7.700  0.1731 -2.1922  0.5980
 7397SOL     OW23912   8.638   8.066   7.454  0.9598  0.0780 -0.5879
 7397SOL    HW123913   8.687   8.075   7.536  1.7220 -0.4649 -0.9680
 7397SOL    HW223914   8.589   8.148   7.446  0.6473  0.0151  0.5501
 7398SOL     OW23915   1.689   2.392   7.806 -0.3203  0.0855 -0.0961
 7398SOL    HW123916   1.760   2.351   7.856 -0.7324 -3.1791 -1.8678
 7398SOL    HW223917   1.728   2.411   7.721 -0.1227  3.8286  0.6935
 7399SOL     OW23918   2.400   1.725   2.347  0.9871 -0.1268  0.1759
 7399SOL    HW123919   2.381   1.796   2.287  0.3203 -0.2848  0.1889
 7399SOL    HW223920   2.431   1.768   2.427  0.0312  0.1992  0.3929
 7400SOL     OW23921   7.607   1.920   2.658 -0.0771  0.5893 -0.4228
 7400SOL    HW123922   7.659   1.984   2.708  0.3817 -0.7921  0.9552
 7400SOL    HW223923   7.527   1.910   2.709  0.3301 -0.7319 -0.0018
 7401SOL     OW23924   6.933   4.471   8.912  0.4790  0.2347 -0.6474
 7401SOL    HW123925   6.917   4.544   8.973  1.3856  0.8425 -1.1148
 7401SOL    HW223926   6.847   4.432   8.898  0.0608  0.8986  0.0157
 7402SOL     OW23927   4.241   4.924   9.413  0.3304 -0.2476 -1.0049
 7402SOL    HW123928   4.250   4.861   9.484 -1.3532  1.6380  1.0355
 7402SOL    HW223929   4.147   4.941   9.407  0.7509  2.8539 -0.6445
 7403SOL     OW23930   6.379   3.471   4.846 -0.2416  0.3918  0.2315
 7403SOL    HW123931   6.352   3.395   4.896  2.3267 -0.1276  1.0088
 7403SOL    HW223932   6.352   3.452   4.756 -1.6484 -0.3577  0.7844
 7404SOL     OW23933   1.210   8.784   4.332  0.3644  0.4933 -0.5508
 7404SOL    HW123934   1.285   8.724   4.337  1.3295  1.6785 -0.1981
 7404SOL    HW223935   1.165   8.775   4.416  1.0694  0.9338 -0.1098
 7405SOL     OW23936   9.290   6.955   9.479  0.2099 -0.1803  0.4534
 7405SOL    HW123937   9.352   6.958   9.407  0.1500 -2.7433  0.2368
 7405SOL    HW223938   9.209   6.992   9.443  0.0170 -1.9247 -0.9961
 7406SOL     OW23939   1.174   8.626   6.390 -0.4321  0.4070 -0.3602
 7406SOL    HW123940   1.201   8.545   6.431  1.0405  1.3464  0.5996
 7406SOL    HW223941   1.151   8.601   6.300 -0.6905 -1.1562  0.1181
 7407SOL     OW23942   5.563   5.039   6.265 -0.2742  0.1672  0.6315
 7407SOL    HW123943   5.568   5.135   6.274  1.1017  0.0244  1.7010
 7407SOL    HW223944   5.520   5.010   6.345  0.1032 -0.1761  0.7102
 7408SOL     OW23945   4.068   4.621   9.203  0.1891 -0.0927 -0.1566
 7408SOL    HW123946   4.060   4.527   9.188  0.4662 -0.0159 -0.8150
 7408SOL    HW223947   4.072   4.630   9.299  0.4791 -0.7704 -0.1029
 7409SOL     OW23948   3.341   5.151   4.625  0.9977  0.3673 -0.0504
 7409SOL    HW123949   3.368   5.210   4.695  0.0146  1.0394 -0.2121
 7409SOL    HW223950   3.252   5.180   4.603  1.6500  0.8370 -2.2756
 7410SOL     OW23951   3.817   6.356   8.441  0.2858  0.5705 -0.6530
 7410SOL    HW123952   3.725   6.369   8.417 -0.1476  1.2299  1.2127
 7410SOL    HW223953   3.818   6.273   8.489  0.2131  1.6069  1.2565
 7411SOL     OW23954   6.610   4.987   4.158  0.0696  0.3508  0.1893
 7411SOL    HW123955   6.645   5.076   4.158  1.1032  0.0045 -1.5987
 7411SOL    HW223956   6.662   4.941   4.091 -0.6909 -1.4892  0.7990
 7412SOL     OW23957   0.532   8.240   6.514 -0.5043 -0.4330 -0.0770
 7412SOL    HW123958   0.493   8.161   6.477 -0.2425 -0.9937  0.8228
 7412SOL    HW223959   0.568   8.212   6.598 -1.3784  0.8664  0.7720
 7413SOL     OW23960   7.874   8.322   6.831  0.0068 -0.2117 -0.4991
 7413SOL    HW123961   7.924   8.293   6.755 -1.2907 -0.6744 -1.1878
 7413SOL    HW223962   7.791   8.353   6.795 -0.3863  0.1387  0.6755
 7414SOL     OW23963   5.894   8.312   8.847  0.3604 -0.1289 -0.0048
 7414SOL    HW123964   5.809   8.341   8.812  0.2647  2.0686  1.7841
 7414SOL    HW223965   5.875   8.284   8.937  1.6637  1.8609  0.9713
 7415SOL     OW23966   3.188   1.389   3.572 -0.6150  0.0130 -0.3279
 7415SOL    HW123967   3.256   1.356   3.632  0.4241 -0.6382 -1.8045
 7415SOL    HW223968   3.172   1.317   3.512 -3.2793 -0.1561  0.4490
 7416SOL     OW23969   2.303   2.705   6.023  0.7434  0.5020  0.3023
 7416SOL    HW123970   2.254   2.623   6.032  1.8964 -0.6096 -2.3999
 7416SOL    HW223971   2.386   2.689   6.066  0.5770  0.6433  0.6802
 7417SOL     OW23972   4.950   4.922   4.182  0.0387  0.6219 -0.6120
 7417SOL    HW123973   4.864   4.889   4.156  0.0345  0.6392 -0.6202
 7417SOL    HW223974   5.012   4.862   4.141  0.0431  0.9197 -1.0475
 7418SOL     OW23975   1.243   4.073   0.624  0.0504  0.2112 -0.1404
 7418SOL    HW123976   1.300   4.037   0.555  2.3140  1.0309  1.1889
 7418SOL    HW223977   1.271   4.163   0.634 -1.3648  0.5805  0.7624
 7419SOL     OW23978   8.759   0.397   0.656 -0.3410 -0.0942 -0.1141
 7419SOL    HW123979   8.741   0.491   0.658 -1.5601 -0.3071 -0.2959
 7419SOL    HW223980   8.847   0.391   0.620  0.3914  1.0428  1.3648
 7420SOL     OW23981   4.186   4.078   9.115  0.1250  0.1163 -0.2056
 7420SOL    HW123982   4.115   4.048   9.059  0.9058  0.7520 -1.5755
 7420SOL    HW223983   4.202   4.004   9.174 -0.9019 -0.4584 -0.6193
 7421SOL     OW23984   1.890   5.512   1.717 -0.0717 -0.2285  0.0357
 7421SOL    HW123985   1.845   5.596   1.724  1.1093  0.3285  1.7123
 7421SOL    HW223986   1.979   5.534   1.689  0.1033 -0.9544 -0.0006
 7422SOL     OW23987   4.497   7.502   3.185  0.0010 -0.2345  0.2143
 7422SOL    HW123988   4.563   7.434   3.192 -0.3864 -0.6142  0.2322
 7422SOL    HW223989   4.479   7.509   3.091  1.3145  1.0902  0.0348
 7423SOL     OW23990   2.406   6.427   2.335 -0.2989  0.3229 -0.1927
 7423SOL    HW123991   2.436   6.508   2.294 -0.8165  0.7430  0.2472
 7423SOL    HW223992   2.481   6.395   2.384 -0.4382  1.1485  0.5686
 7424SOL     OW23993   3.596   1.317   3.727 -0.1192  0.3689 -0.1487
 7424SOL    HW123994   3.676   1.367   3.715  0.4092  0.6766  3.4906
 7424SOL    HW223995   3.626   1.228   3.749 -0.7330  0.3887  0.8496
 7425SOL     OW23996   2.919   9.205   5.228 -0.1178  0.3706 -0.1476
 7425SOL    HW123997   2.993   9.144   5.228 -0.9915 -0.7536  0.9544
 7425SOL    HW223998   2.882   9.198   5.140 -0.5144 -1.1528  0.0979
 7426SOL     OW23999   6.478   1.631   1.062  0.0800 -0.1833 -0.7202
 7426SOL    HW124000   6.431   1.712   1.082 -0.1569 -0.2117 -1.1385
 7426SOL    HW224001   6.475   1.625   0.966  2.9593  1.0373 -0.9982
 7427SOL     OW24002   8.671   0.992   8.810  0.1161 -0.0806  0.2014
 7427SOL    HW124003   8.667   0.903   8.775 -1.8947 -0.1584  0.4969
 7427SOL    HW224004   8.756   0.999   8.852  1.7906 -0.6839 -2.8415
 7428SOL     OW24005   7.594   8.912   4.161 -0.2303 -0.5876 -0.2793
 7428SOL    HW124006   7.565   8.856   4.234 -0.4988 -1.3354 -0.9453
 7428SOL    HW224007   7.585   8.856   4.084  0.5488  0.0276 -0.8234
 7429SOL     OW24008   6.929   8.013   4.315  0.2195 -0.3643 -1.0240
 7429SOL    HW124009   6.908   8.054   4.399  0.4210 -2.2085 -0.0172
 7429SOL    HW224010   6.981   8.079   4.268  0.6500  0.4723  0.5532
 7430SOL     OW24011   4.768   5.884   4.589 -0.1950 -0.2802  0.0884
 7430SOL    HW124012   4.821   5.857   4.514  1.7131 -0.2580  1.3464
 7430SOL    HW224013   4.692   5.928   4.551 -0.7045 -2.6610 -1.8812
 7431SOL     OW24014   1.365   3.412   3.698  0.3864  0.0972  0.6532
 7431SOL    HW124015   1.305   3.481   3.671 -0.3231  0.7967  3.5772
 7431SOL    HW224016   1.450   3.455   3.706  0.3010  0.2306  0.8557
 7432SOL     OW24017   4.293   3.075   2.726  0.5435  0.2099  0.2595
 7432SOL    HW124018   4.347   3.153   2.716  0.2895  0.3496 -0.0248
 7432SOL    HW224019   4.337   3.009   2.673 -1.1362  1.1114 -2.5036
 7433SOL     OW24020   0.555   6.668   8.871  0.2211 -0.0958  0.2938
 7433SOL    HW124021   0.607   6.636   8.945  1.0655 -2.4600 -1.2091
 7433SOL    HW224022   0.612   6.658   8.795 -1.4255  0.0598 -1.0221
 7434SOL     OW24023   2.242   2.693   9.412  0.3217 -0.2951  0.0357
 7434SOL    HW124024   2.298   2.718   9.339  0.5815  0.2880  0.4336
 7434SOL    HW224025   2.296   2.635   9.466  0.0190 -1.0063 -0.3985
 7435SOL     OW24026   3.255   1.677   1.340 -0.2890  0.6564  0.1396
 7435SOL    HW124027   3.322   1.695   1.274 -0.2350  0.5110  0.1534
 7435SOL    HW224028   3.235   1.584   1.329  0.4899  0.3738  1.0361
 7436SOL     OW24029   6.034   1.910   5.239  0.9446  0.3001 -0.3834
 7436SOL    HW124030   6.086   1.867   5.307 -1.3905 -0.2612  1.1772
 7436SOL    HW224031   6.020   1.841   5.173 -0.6336 -0.6343  0.8680
 7437SOL     OW24032   8.812   2.528   6.247 -0.4791  0.2951 -0.7540
 7437SOL    HW124033   8.815   2.558   6.338 -2.3500  1.3709 -1.0011
 7437SOL    HW224034   8.832   2.606   6.195 -0.6933 -0.0029 -1.2955
 7438SOL     OW24035   3.660   6.809   2.295 -0.3430  0.4891  0.1533
 7438SOL    HW124036   3.664   6.904   2.285 -2.0653  0.4557 -1.3163
 7438SOL    HW224037   3.567   6.789   2.302  0.0191 -1.0467  1.1672
 7439SOL     OW24038   8.396   5.100   8.274 -0.6851 -0.2653 -0.1008
 7439SOL    HW124039   8.433   5.150   8.201 -0.6599  0.9121  0.6750
 7439SOL    HW224040   8.380   5.013   8.239 -0.0777  0.0960 -1.3237
 7440SOL     OW24041   7.326   2.083   4.719 -0.6423  0.4142  0.0172
 7440SOL    HW124042   7.384   2.155   4.747  0.4306 -0.9452  1.4834
 7440SOL    HW224043   7.353   2.064   4.629  1.9743 -0.8259  0.9651
 7441SOL     OW24044   7.920   9.174   6.674 -0.3233 -0.3969  0.1283
 7441SOL    HW124045   7.835   9.176   6.629 -0.0035  0.7288 -0.4543
 7441SOL    HW224046   7.906   9.228   6.752 -0.9201 -2.4621  1.5272
 7442SOL     OW24047   5.988   2.351   3.359  0.0911 -0.4982 -0.0151
 7442SOL    HW124048   5.996   2.281   3.294 -0.4124 -1.4823  0.9539
 7442SOL    HW224049   5.970   2.306   3.441 -0.4066  0.7781  0.6069
 7443SOL     OW24050   8.170   0.035   7.439  0.1599 -0.2562  0.3475
 7443SOL    HW124051   8.266   0.034   7.441  0.1970  1.0842 -0.1685
 7443SOL    HW224052   8.147   0.103   7.376 -1.1440 -1.0456 -0.0749
 7444SOL     OW24053   3.287   3.410   2.337  0.2013 -0.1751 -0.6487
 7444SOL    HW124054   3.252   3.494   2.305 -0.3441  0.4166  1.3772
 7444SOL    HW224055   3.367   3.433   2.383 -0.6493 -0.5254  1.1079
 7445SOL     OW24056   9.177   2.438   4.596 -0.0882 -0.0736  0.0366
 7445SOL    HW124057   9.240   2.382   4.642 -0.1780  0.7958  1.2945
 7445SOL    HW224058   9.210   2.444   4.507 -0.8579 -3.2644 -0.5687
 7446SOL     OW24059   1.980   9.064   2.236 -0.0924  0.7553 -0.1181
 7446SOL    HW124060   1.930   8.984   2.251  0.7167  0.2759  0.1033
 7446SOL    HW224061   2.044   9.066   2.307  0.1410  1.4073 -0.3370
 7447SOL     OW24062   3.424   7.531   3.877 -0.0703  0.2392 -0.1821
 7447SOL    HW124063   3.417   7.437   3.866 -0.0935  0.4376 -2.2095
 7447SOL    HW224064   3.502   7.544   3.931 -0.3304 -0.9338  0.4963
 7448SOL     OW24065   2.592   6.927   8.691 -0.7063  0.4246  0.2878
 7448SOL    HW124066   2.519   6.903   8.634  0.3326 -1.6688 -0.2761
 7448SOL    HW224067   2.659   6.961   8.631 -0.8589  1.4455  0.6855
 7449SOL     OW24068   0.353   1.189   8.250  0.2246  0.8010 -0.2083
 7449SOL    HW124069   0.364   1.250   8.323  0.0195 -0.5486  1.0090
 7449SOL    HW224070   0.410   1.115   8.273 -2.3796 -1.1660  0.3433
 7450SOL     OW24071   1.182   5.442   6.074  0.6312  0.7489  0.1096
 7450SOL    HW124072   1.234   5.487   6.140 -1.5294  2.3434  0.8482
 7450SOL    HW224073   1.101   5.417   6.120 -0.6550  1.3158 -1.7322
 7451SOL     OW24074   6.746   4.667   4.103 -0.8475  0.0421 -0.3983
 7451SOL    HW124075   6.840   4.663   4.122 -1.1888  0.4665  1.6682
 7451SOL    HW224076   6.737   4.734   4.036  0.3378 -0.1893 -0.8105
 7452SOL     OW24077   2.807   1.267   4.416 -0.1266  0.0300 -0.4654
 7452SOL    HW124078   2.821   1.354   4.453 -0.5712 -0.3312  0.5953
 7452SOL    HW224079   2.807   1.280   4.321  1.8595  0.8758 -0.3965
 7453SOL     OW24080   7.703   1.070   4.931 -0.0619 -0.3051  0.1795
 7453SOL    HW124081   7.684   1.021   5.011  1.1422 -0.0251  0.6588
 7453SOL    HW224082   7.680   1.161   4.951  2.3621  0.1834  1.0438
 7454SOL     OW24083   1.292   4.608   2.050  0.5338 -0.0928 -0.3801
 7454SOL    HW124084   1.216   4.615   2.108  1.5125 -0.0886  0.9587
 7454SOL    HW224085   1.268   4.659   1.973 -0.6850  0.1892  0.1545
 7455SOL     OW24086   4.185   4.075   5.166 -0.1719 -0.6717  0.4871
 7455SOL    HW124087   4.203   4.124   5.246 -0.3861 -1.2624  0.9058
 7455SOL    HW224088   4.152   4.140   5.104  0.5399 -0.1061  0.6832
 7456SOL     OW24089   2.550   9.413   8.164  0.6378  0.1045  0.8646
 7456SOL    HW124090   2.493   9.338   8.182  1.0578 -1.1266 -2.2901
 7456SOL    HW224091   2.490   9.482   8.135  0.4972 -0.4805 -0.3359
 7457SOL     OW24092   6.051   0.085   1.495 -0.0381 -0.4475 -0.2560
 7457SOL    HW124093   5.966   0.054   1.463  0.4142 -1.4163 -0.5367
 7457SOL    HW224094   6.038   0.179   1.509 -1.0105 -0.4932 -0.7753
 7458SOL     OW24095   3.536   5.749   7.818  0.4826 -0.1656 -0.4783
 7458SOL    HW124096   3.449   5.715   7.799  1.3024 -1.8504 -1.5217
 7458SOL    HW224097   3.571   5.689   7.884  0.8620  0.4716 -0.0985
 7459SOL     OW24098   9.403   8.659   7.599  0.3951  0.0524  0.1463
 7459SOL    HW124099   9.335   8.591   7.594  0.2297  0.2150  0.1792
 7459SOL    HW224100   9.485   8.610   7.610  0.1735 -0.1130  1.1563
 7460SOL     OW24101   5.702   2.409   6.258  0.4239  0.7572 -0.4236
 7460SOL    HW124102   5.620   2.458   6.256  0.0409  0.1202 -0.6740
 7460SOL    HW224103   5.765   2.465   6.214 -0.1348  0.8069 -1.1748
 7461SOL     OW24104   3.264   7.424   4.156  0.0501  0.4257  0.6057
 7461SOL    HW124105   3.215   7.376   4.224  0.2680 -0.8198 -0.0804
 7461SOL    HW224106   3.329   7.474   4.205 -1.2125  1.3016  1.4647
 7462SOL     OW24107   9.589   0.465   9.011  0.4891 -0.3100 -0.5847
 7462SOL    HW124108   9.578   0.411   8.933  1.2511 -0.8739 -0.3178
 7462SOL    HW224109   9.679   0.496   9.006  0.6985 -0.7427  0.3083
 7463SOL     OW24110   9.398   3.074   4.543  0.3500  0.2227  1.0621
 7463SOL    HW124111   9.455   3.116   4.608  1.3686  1.4902 -0.5820
 7463SOL    HW224112   9.395   3.135   4.470 -0.7304 -1.1800 -0.1292
 7464SOL     OW24113   7.283   2.420   7.894  0.6283 -0.4579  0.0002
 7464SOL    HW124114   7.228   2.493   7.921  0.0540 -0.7425 -0.4013
 7464SOL    HW224115   7.260   2.404   7.803  3.8775  1.7085 -1.3644
 7465SOL     OW24116   2.545   0.026   6.978 -0.0834 -0.2455  0.7366
 7465SOL    HW124117   2.537   0.093   7.045  1.5024  1.1401 -0.3742
 7465SOL    HW224118   2.521  -0.056   7.022  0.5107  0.6673  2.8499
 7466SOL     OW24119   6.314   9.628   4.597  0.2462  0.4398  0.5605
 7466SOL    HW124120   6.288   9.668   4.514  0.0634  1.5994  1.1564
 7466SOL    HW224121   6.377   9.689   4.635  2.0836 -1.1704  0.2698
 7467SOL     OW24122   3.116   0.532   4.948 -0.1515 -0.6045  0.3212
 7467SOL    HW124123   3.066   0.490   4.878 -0.0955 -1.0995  0.5698
 7467SOL    HW224124   3.091   0.624   4.944 -0.5523 -0.7236 -0.0067
 7468SOL     OW24125   4.789   7.287   4.320  0.3807  0.2470  0.0578
 7468SOL    HW124126   4.775   7.366   4.373 -0.3230  0.5307 -0.5315
 7468SOL    HW224127   4.723   7.293   4.251 -0.0089 -1.1187  0.2955
 7469SOL     OW24128   2.809   1.616   7.755 -0.1814  0.5241 -0.1081
 7469SOL    HW124129   2.739   1.567   7.799  1.1693 -0.5428  0.9372
 7469SOL    HW224130   2.855   1.550   7.702  3.5322 -0.2849  3.5716
 7470SOL     OW24131   3.872   8.094   8.025  0.2196  0.5792  0.9583
 7470SOL    HW124132   3.896   8.180   8.058  1.5337  0.1989  1.0405
 7470SOL    HW224133   3.952   8.061   7.984 -1.0433  0.6535 -1.8192
 7471SOL     OW24134   2.613   7.253   9.563  0.0004  0.3414  0.7330
 7471SOL    HW124135   2.696   7.241   9.518 -0.1574  1.0239  0.2470
 7471SOL    HW224136   2.553   7.193   9.519 -0.1869  1.1011 -0.0692
 7472SOL     OW24137   9.591   3.698   0.994 -0.5480  0.5422  0.4874
 7472SOL    HW124138   9.557   3.772   1.044 -1.9603  0.3217 -0.0833
 7472SOL    HW224139   9.685   3.698   1.012 -0.8442  1.1397  2.2092
 7473SOL     OW24140   0.659   7.102   3.596 -0.4834 -0.3105  0.0854
 7473SOL    HW124141   0.649   7.026   3.654 -1.3328  0.5497  1.1330
 7473SOL    HW224142   0.571   7.115   3.558  0.1437 -1.0761 -1.7148
 7474SOL     OW24143   1.137   5.327   1.302  0.0375  0.2240  0.0197
 7474SOL    HW124144   1.086   5.395   1.345  0.0392  0.1898  0.0772
 7474SOL    HW224145   1.202   5.374   1.249  0.0658  0.2666  0.0921
 7475SOL     OW24146   4.706   3.376   5.303 -0.0789 -0.2671  0.3404
 7475SOL    HW124147   4.663   3.391   5.387 -0.4584  1.2799 -0.1004
 7475SOL    HW224148   4.633   3.370   5.240  0.2103 -1.2009  0.0827
 7476SOL     OW24149   1.540   8.808   8.319 -0.2417  0.2007  0.1485
 7476SOL    HW124150   1.636   8.801   8.316 -0.2503 -1.2250  1.5942
 7476SOL    HW224151   1.520   8.820   8.412 -1.4528  1.0402 -0.1991
 7477SOL     OW24152   8.402   5.434   4.053  0.6761  0.2428  0.1845
 7477SOL    HW124153   8.362   5.408   3.969  0.5926  0.3775  0.1821
 7477SOL    HW224154   8.489   5.395   4.051  0.0316 -1.3050  0.8275
 7478SOL     OW24155   8.935   2.627   8.152 -0.3632  0.3302  0.1481
 7478SOL    HW124156   8.850   2.646   8.113 -0.5776  0.0037  0.4579
 7478SOL    HW224157   8.922   2.641   8.246 -0.1951 -0.1618  0.2447
 7479SOL     OW24158   2.656   3.932   4.186  0.2364 -0.4652  0.0902
 7479SOL    HW124159   2.639   3.846   4.149  0.5095 -0.1109 -0.8837
 7479SOL    HW224160   2.573   3.979   4.178  0.4203 -0.2330 -0.5270
 7480SOL     OW24161   4.599   0.605   9.539 -0.2113  0.0180  0.1063
 7480SOL    HW124162   4.551   0.523   9.555 -0.3235 -0.1962 -1.2424
 7480SOL    HW224163   4.645   0.621   9.621 -1.1790 -0.7262  0.8282
 7481SOL     OW24164   5.154   0.799   1.847 -0.1806 -0.1604  0.9740
 7481SOL    HW124165   5.115   0.716   1.874  0.0477 -1.0876 -1.3088
 7481SOL    HW224166   5.242   0.797   1.884 -0.1500 -1.0014  0.8778
 7482SOL     OW24167   7.715   3.762   8.532  0.2890  0.8309 -0.7558
 7482SOL    HW124168   7.622   3.781   8.522 -0.8060 -2.9708  0.3555
 7482SOL    HW224169   7.739   3.801   8.616 -1.4625 -1.2327  0.8342
 7483SOL     OW24170   8.088   2.150   0.892  0.1745  0.3614 -0.1930
 7483SOL    HW124171   8.106   2.147   0.986  1.5469 -0.6491 -0.4519
 7483SOL    HW224172   8.013   2.092   0.880  0.5338 -0.1983  0.1863
 7484SOL     OW24173   3.565   1.015   8.667  0.0360  0.2714  0.2827
 7484SOL    HW124174   3.651   1.049   8.689  0.2285  0.8473 -1.2846
 7484SOL    HW224175   3.504   1.081   8.699  0.0188 -0.7610  2.6559
 7485SOL     OW24176   5.075   8.713   4.116  0.0741  0.6139 -0.1943
 7485SOL    HW124177   5.159   8.731   4.159  0.1095  1.4982 -0.6144
 7485SOL    HW224178   5.098   8.667   4.036  0.1336  0.5868 -0.1622
 7486SOL     OW24179   4.140   3.218   2.048  0.2528 -0.3556  0.4466
 7486SOL    HW124180   4.225   3.182   2.023 -0.0784 -0.9236  0.1086
 7486SOL    HW224181   4.122   3.182   2.135  0.5397  0.0917  0.6935
 7487SOL     OW24182   4.382   7.601   0.700  0.5700  0.1444  0.2824
 7487SOL    HW124183   4.422   7.665   0.759  1.1584  0.3813 -0.3600
 7487SOL    HW224184   4.292   7.631   0.688  1.0429  1.2701 -0.5802
 7488SOL     OW24185   3.189   1.070   1.137  0.3577 -0.0423 -0.2256
 7488SOL    HW124186   3.198   1.015   1.060  2.0144  0.3779 -0.3832
 7488SOL    HW224187   3.278   1.102   1.154 -0.3459  1.6604  0.5258
 7489SOL     OW24188   8.091   4.597   6.815  0.1284 -0.4794 -0.8616
 7489SOL    HW124189   8.103   4.516   6.864  0.0613 -0.1542 -0.3053
 7489SOL    HW224190   8.175   4.642   6.821 -0.4031  0.3994  0.5033
 7490SOL     OW24191   4.326   9.245   7.837 -0.4285  0.1699  0.2608
 7490SOL    HW124192   4.369   9.309   7.894  0.9672  1.0207 -1.6270
 7490SOL    HW224193   4.335   9.282   7.749 -2.7497 -0.9502 -0.5068
 7491SOL     OW24194   0.033   0.551   4.319  0.2133  0.5646 -0.8774
 7491SOL    HW124195   0.097   0.496   4.364 -0.2683  1.4217  0.9252
 7491SOL    HW224196   0.029   0.515   4.230 -0.5183 -2.7106  0.3321
 7492SOL     OW24197   6.061   6.878   0.586 -0.2024  0.8490  0.2424
 7492SOL    HW124198   6.127   6.944   0.607  0.9947  0.0929 -1.0061
 7492SOL    HW224199   6.039   6.839   0.670 -0.1996  2.1439  0.8734
 7493SOL     OW24200   6.211   3.090   8.794  0.1119  0.2178  0.5060
 7493SOL    HW124201   6.249   3.166   8.838 -0.8079 -0.4251  2.5579
 7493SOL    HW224202   6.263   3.016   8.825 -0.3027 -0.2249  0.1606
 7494SOL     OW24203   7.192   0.978   7.348  0.4381 -0.5468  0.7560
 7494SOL    HW124204   7.202   1.053   7.407  1.6327 -0.5342  0.5737
 7494SOL    HW224205   7.219   1.010   7.262 -1.1350 -0.6126  0.2073
 7495SOL     OW24206   6.441   8.086   0.308 -0.2984 -0.6769  0.5219
 7495SOL    HW124207   6.471   8.028   0.238  1.2606  0.2391  0.3989
 7495SOL    HW224208   6.466   8.041   0.388  0.1339 -0.5746  0.4448
 7496SOL     OW24209   5.503   7.691   0.443 -0.2335  0.5392 -0.2205
 7496SOL    HW124210   5.557   7.768   0.425 -1.2511  1.3010 -0.1130
 7496SOL    HW224211   5.450   7.680   0.364  0.4006 -0.4954 -0.5191
 7497SOL     OW24212   4.060   7.304   2.271 -0.0512 -0.7729 -0.1923
 7497SOL    HW124213   4.035   7.249   2.197 -0.1142  0.1590 -0.8838
 7497SOL    HW224214   4.012   7.385   2.258  1.1656  0.0096 -0.0029
 7498SOL     OW24215   7.067   1.916   2.794  0.2670  0.3233  0.3050
 7498SOL    HW124216   7.005   1.893   2.726 -0.0248  1.3636  0.2045
 7498SOL    HW224217   7.020   1.977   2.851 -0.2963 -2.2589  2.8071
 7499SOL     OW24218   1.640   7.059   5.901  0.1888  0.3845  0.0613
 7499SOL    HW124219   1.581   7.025   5.833  1.7785  0.1511 -1.2719
 7499SOL    HW224220   1.582   7.106   5.961 -1.0827  2.8620 -2.7987
 7500SOL     OW24221   3.125   1.450   1.040 -0.2005 -0.4335  0.5942
 7500SOL    HW124222   3.104   1.358   1.020 -2.3154 -0.6347  3.2433
 7500SOL    HW224223   3.139   1.451   1.134 -0.1948  1.9851  0.6159
 7501SOL     OW24224   5.966   4.573   0.448 -0.1053  0.3316 -0.2460
 7501SOL    HW124225   6.043   4.522   0.421  0.4042  0.5836  0.6881
 7501SOL    HW224226   5.892   4.528   0.408  0.4218 -0.6317 -0.1682
 7502SOL     OW24227   4.412   5.765   1.710  0.0700  0.4500 -0.2590
 7502SOL    HW124228   4.381   5.735   1.796 -0.7817  0.2289 -0.6249
 7502SOL    HW224229   4.351   5.835   1.686 -0.3835 -0.2283 -1.1611
 7503SOL     OW24230   6.246   3.241   4.264 -0.8321  0.4395 -0.0235
 7503SOL    HW124231   6.186   3.169   4.243 -0.1370  0.3522 -1.9006
 7503SOL    HW224232   6.202   3.289   4.334 -0.7785 -2.4645  2.2061
 7504SOL     OW24233   7.635   3.817   5.078  0.1221  0.2812  0.0951
 7504SOL    HW124234   7.599   3.884   5.020 -1.0105 -1.0061 -0.7275
 7504SOL    HW224235   7.559   3.783   5.126  0.0613 -2.6609 -1.8520
 7505SOL     OW24236   4.236   5.383   8.852  0.0767  0.0957  0.3670
 7505SOL    HW124237   4.248   5.456   8.912  1.2582  0.3624 -0.1568
 7505SOL    HW224238   4.166   5.410   8.793 -0.7334  0.0407  1.2911
 7506SOL     OW24239   9.416   8.024   4.163 -0.0772 -0.4181 -0.0041
 7506SOL    HW124240   9.503   8.064   4.165 -1.0822  1.9294 -0.2413
 7506SOL    HW224241   9.395   8.006   4.254  0.6639 -1.0816  0.0477
 7507SOL     OW24242   4.763   6.964   2.289 -0.3991  0.0988  0.6111
 7507SOL    HW124243   4.735   6.872   2.288  0.1723 -0.0869  1.1508
 7507SOL    HW224244   4.832   6.969   2.223  0.4413 -0.1540  1.4483
 7508SOL     OW24245   5.611   8.976   2.825 -0.5255 -0.4085 -0.5024
 7508SOL    HW124246   5.690   8.924   2.809  1.5113  2.6579 -1.1848
 7508SOL    HW224247   5.574   8.990   2.738 -0.8306 -0.3374 -0.3615
 7509SOL     OW24248   8.890   6.675   2.138  0.0024 -0.0414 -0.0741
 7509SOL    HW124249   8.801   6.709   2.146 -0.2447 -1.0203  2.1161
 7509SOL    HW224250   8.880   6.592   2.091  0.1199  0.9892 -2.0050
 7510SOL     OW24251   0.090   0.554   4.887 -0.1437 -0.0789  0.2561
 7510SOL    HW124252   0.018   0.553   4.824  0.1582 -0.7333 -0.0951
 7510SOL    HW224253   0.051   0.588   4.968 -0.9935 -0.9620  0.2390
 7511SOL     OW24254   3.898   0.304   3.452  0.4376 -0.0222 -0.3780
 7511SOL    HW124255   3.885   0.269   3.364  1.2306 -0.6532 -0.2517
 7511SOL    HW224256   3.993   0.310   3.462  0.3410  1.1041  0.0274
 7512SOL     OW24257   2.222   0.110   7.201  0.2223  0.2339  0.6202
 7512SOL    HW124258   2.132   0.126   7.229 -0.1500 -0.5491 -0.0669
 7512SOL    HW224259   2.246   0.189   7.152  0.6116  1.2811  2.4150
 7513SOL     OW24260   7.218   6.221   3.634  0.2640  0.0546  0.3351
 7513SOL    HW124261   7.124   6.229   3.618  0.5920  1.2178 -1.2359
 7513SOL    HW224262   7.242   6.136   3.598  0.2106  0.8082 -1.5981
 7514SOL     OW24263   3.661   3.298   4.229 -0.7007 -0.3075 -0.6488
 7514SOL    HW124264   3.572   3.281   4.262 -0.8193  0.4728 -0.5547
 7514SOL    HW224265   3.651   3.300   4.133 -0.2549 -3.1557 -0.8310
 7515SOL     OW24266   5.113   8.617   0.340  0.1194  0.0170  0.3707
 7515SOL    HW124267   5.105   8.529   0.303 -0.0589  0.8437 -1.6745
 7515SOL    HW224268   5.032   8.629   0.390  0.1167 -0.9393  0.6153
 7516SOL     OW24269   8.873   7.076   4.381 -0.3062  0.4908  0.0614
 7516SOL    HW124270   8.931   7.149   4.362 -1.9254  1.6953 -0.4146
 7516SOL    HW224271   8.853   7.083   4.474  1.2763 -0.6972  0.5380
 7517SOL     OW24272   8.670   8.626   4.556 -0.0298 -0.2277  0.1851
 7517SOL    HW124273   8.608   8.698   4.565 -0.2515 -0.4004  0.0469
 7517SOL    HW224274   8.753   8.662   4.589 -0.3891 -0.2605  1.1641
 7518SOL     OW24275   8.985   3.657   2.495  0.3708 -0.2085 -0.7527
 7518SOL    HW124276   8.891   3.647   2.511  0.9014 -0.8846  2.5713
 7518SOL    HW224277   8.998   3.752   2.491 -0.0539  0.0830  2.4950
 7519SOL     OW24278   9.175   8.831   6.803 -0.1336 -0.3421 -0.4611
 7519SOL    HW124279   9.207   8.876   6.724  0.1485 -0.4836 -0.4295
 7519SOL    HW224280   9.253   8.790   6.840 -0.3312 -0.5770 -0.3026
 7520SOL     OW24281   5.709   8.152   7.950 -0.1524  0.5648 -0.6527
 7520SOL    HW124282   5.708   8.088   7.879  0.6082  0.4849 -0.6060
 7520SOL    HW224283   5.720   8.100   8.030  1.4249  0.7837 -0.6914
 7521SOL     OW24284   4.974   9.314   8.263 -0.0208  0.2335  0.3857
 7521SOL    HW124285   4.922   9.392   8.245 -0.9892 -0.3092  0.7997
 7521SOL    HW224286   4.939   9.247   8.204  0.4805 -0.0267  0.3781
 7522SOL     OW24287   2.816   3.952   1.022  0.0672  0.3415 -0.3451
 7522SOL    HW124288   2.910   3.969   1.021  0.1128  0.0796 -1.4064
 7522SOL    HW224289   2.776   4.036   1.002 -0.0084  0.7835  1.4538
 7523SOL     OW24290   0.336   9.186   6.233 -0.6784 -0.0989  0.3952
 7523SOL    HW124291   0.369   9.097   6.234 -1.3533 -0.3848 -0.7972
 7523SOL    HW224292   0.309   9.203   6.323  2.0730 -0.0558  1.2884
 7524SOL     OW24293   3.742   3.315   1.688  0.3025  0.1967 -0.0257
 7524SOL    HW124294   3.755   3.251   1.759  0.3377 -0.3827 -0.5446
 7524SOL    HW224295   3.650   3.305   1.664 -0.3247  1.9709  1.4209
 7525SOL     OW24296   9.040   9.700   5.600  0.3710  0.0834 -0.1793
 7525SOL    HW124297   8.960   9.697   5.548  0.4042  0.2270 -0.2394
 7525SOL    HW224298   9.047   9.613   5.639 -1.3733  0.8610  2.1441
 7526SOL     OW24299   4.314   6.359   4.291 -0.0711 -0.1952 -0.4744
 7526SOL    HW124300   4.316   6.278   4.341 -0.6508  1.2649  2.0909
 7526SOL    HW224301   4.347   6.426   4.351  0.7777  1.4582 -2.6142
 7527SOL     OW24302   6.802   0.910   1.991  0.0463 -0.4349 -0.6797
 7527SOL    HW124303   6.826   0.963   1.915  2.7916 -1.6752 -0.7830
 7527SOL    HW224304   6.756   0.835   1.954  1.2721 -0.9764 -1.1482
 7528SOL     OW24305   1.291   0.403   6.889  0.5291 -0.2921  0.0823
 7528SOL    HW124306   1.230   0.443   6.827 -0.1735  1.8200  1.9814
 7528SOL    HW224307   1.376   0.443   6.869  0.1657  0.9334  0.8601
 7529SOL     OW24308   5.412   1.166   8.115  0.1616 -0.0424 -0.1025
 7529SOL    HW124309   5.365   1.188   8.035 -0.1797 -0.1528  0.0641
 7529SOL    HW224310   5.495   1.213   8.109  0.7435 -1.1369 -1.1766
 7530SOL     OW24311   3.135   3.263   5.442  0.0067  0.6490  0.1728
 7530SOL    HW124312   3.043   3.248   5.420 -0.3581  0.5931  1.6593
 7530SOL    HW224313   3.147   3.357   5.434 -0.0944  0.6264 -0.2959
 7531SOL     OW24314   2.700   8.657   4.564 -0.3004  0.1110 -0.3878
 7531SOL    HW124315   2.730   8.632   4.476 -0.4885 -0.8190 -0.2017
 7531SOL    HW224316   2.616   8.701   4.549 -0.4198 -0.2047 -0.6654
 7532SOL     OW24317   3.569   1.642   0.876 -0.2897  0.0198 -0.3020
 7532SOL    HW124318   3.532   1.558   0.849  0.2374 -0.0417 -0.8686
 7532SOL    HW224319   3.535   1.705   0.812 -0.5525  0.2051  0.0221
 7533SOL     OW24320   1.133   0.479   1.277  0.0263 -0.3712 -0.2690
 7533SOL    HW124321   1.111   0.562   1.234  1.4938  0.3705  0.3363
 7533SOL    HW224322   1.217   0.496   1.320  0.9774 -2.5331 -1.1325
 7534SOL     OW24323   6.408   6.957   5.940 -0.4632  0.1954  0.2955
 7534SOL    HW124324   6.407   7.039   5.989  0.9615  0.4897 -0.1235
 7534SOL    HW224325   6.329   6.961   5.886  0.0126  1.7048 -0.3555
 7535SOL     OW24326   8.000   2.286   3.914 -0.3674 -0.3766  0.1359
 7535SOL    HW124327   7.959   2.264   3.997  0.2926  1.4015  0.9864
 7535SOL    HW224328   7.983   2.379   3.902 -0.9779 -0.7087 -2.0524
 7536SOL     OW24329   2.476   7.262   6.611 -0.1064  0.6900 -0.1370
 7536SOL    HW124330   2.488   7.177   6.568 -1.1590 -0.4431  1.6636
 7536SOL    HW224331   2.546   7.316   6.576  2.3786 -1.7618  0.6357
 7537SOL     OW24332   1.889   8.132   8.242  0.3706  0.1120 -0.4180
 7537SOL    HW124333   1.839   8.166   8.167 -0.3197  2.7647  1.1009
 7537SOL    HW224334   1.837   8.157   8.318  1.0939 -2.4081  1.0293
 7538SOL     OW24335   4.396   5.124   1.652 -0.0914 -0.1202  0.2613
 7538SOL    HW124336   4.459   5.055   1.631 -0.0449 -0.3472  1.1080
 7538SOL    HW224337   4.355   5.145   1.568 -1.3884 -2.4388  0.2362
 7539SOL     OW24338   1.244   3.581   1.182  0.3481  0.1576 -0.4511
 7539SOL    HW124339   1.283   3.591   1.269 -0.8598 -0.1978  0.1471
 7539SOL    HW224340   1.176   3.648   1.178 -0.8035 -0.9611 -0.4072
 7540SOL     OW24341   2.559   2.992   1.486 -0.3015 -0.0722  0.1488
 7540SOL    HW124342   2.635   3.013   1.541 -1.7910  0.7979  1.9898
 7540SOL    HW224343   2.541   3.073   1.438 -0.2541 -0.1908 -0.0716
 7541SOL     OW24344   6.000   4.317   6.112 -0.1673  0.0168  0.2725
 7541SOL    HW124345   5.938   4.367   6.165  1.2733  0.6374  1.4696
 7541SOL    HW224346   6.084   4.330   6.156  0.7097 -1.2980 -0.9321
 7542SOL     OW24347   7.497   4.974   7.976  0.3904  0.5964  0.4866
 7542SOL    HW124348   7.428   4.910   7.958 -0.4921  1.6754 -0.0718
 7542SOL    HW224349   7.560   4.962   7.905  1.0079 -0.6675  1.2202
 7543SOL     OW24350   6.810   2.324   0.792 -0.4637 -0.1947  0.0874
 7543SOL    HW124351   6.767   2.246   0.828  0.5547 -0.9862 -0.3585
 7543SOL    HW224352   6.892   2.329   0.840  0.3596 -0.5536 -1.2460
 7544SOL     OW24353   7.693   6.252   0.907 -0.0039 -0.0128  0.3653
 7544SOL    HW124354   7.666   6.167   0.874  1.1670 -0.5872  0.8583
 7544SOL    HW224355   7.697   6.308   0.829  0.1667 -0.6554 -0.0880
 7545SOL     OW24356   6.698   3.545   3.892 -0.0873  0.0863 -0.0657
 7545SOL    HW124357   6.652   3.517   3.972  0.3176 -0.9699 -0.1797
 7545SOL    HW224358   6.782   3.578   3.924 -0.1324  0.1581 -0.0193
 7546SOL     OW24359   7.280   7.300   2.569 -0.3498 -0.2592  0.0572
 7546SOL    HW124360   7.231   7.264   2.495  0.1852 -1.0071  0.0606
 7546SOL    HW224361   7.370   7.307   2.537 -0.1131 -0.6119  0.6470
 7547SOL     OW24362   4.582   3.722   6.277  0.4448 -0.2740 -0.8200
 7547SOL    HW124363   4.554   3.813   6.266  0.3688  0.1924  2.4151
 7547SOL    HW224364   4.573   3.684   6.189 -1.6066  2.2404 -1.8331
 7548SOL     OW24365   8.149   8.993   7.341 -0.4524 -0.4044 -0.2282
 7548SOL    HW124366   8.218   8.958   7.285 -0.6066 -0.9057 -0.1054
 7548SOL    HW224367   8.193   9.062   7.391  0.0488 -0.9547  0.1013
 7549SOL     OW24368   0.986   4.497   9.256 -0.0672 -0.2204 -0.3988
 7549SOL    HW124369   1.066   4.533   9.218 -0.0505  0.6623  0.4446
 7549SOL    HW224370   0.974   4.413   9.211  0.7678  0.1041 -1.2592
 7550SOL     OW24371   1.543   2.173   7.711 -0.3495 -0.1787 -0.0388
 7550SOL    HW124372   1.452   2.180   7.680  0.4529  1.3799 -2.3031
 7550SOL    HW224373   1.561   2.259   7.750  0.0713 -0.5864  0.6818
 7551SOL     OW24374   9.478   5.603   3.335  0.5270 -0.3767  0.3231
 7551SOL    HW124375   9.499   5.607   3.241 -2.9647  0.0988 -0.5690
 7551SOL    HW224376   9.483   5.510   3.357 -2.2769 -1.0696 -1.4290
 7552SOL     OW24377   0.872   3.046   8.534  0.2877 -0.1353  0.6019
 7552SOL    HW124378   0.877   3.120   8.472 -1.3299 -0.4874  0.0204
 7552SOL    HW224379   0.784   3.012   8.524  0.5356 -1.2463  1.9473
 7553SOL     OW24380   0.340   4.476   3.262  0.2166 -0.2161  0.0335
 7553SOL    HW124381   0.398   4.404   3.285  0.0176 -0.5852 -0.6076
 7553SOL    HW224382   0.277   4.480   3.334 -0.4645 -1.4296 -0.4754
 7554SOL     OW24383   2.395   6.015   7.532  0.2003 -0.4112  1.1358
 7554SOL    HW124384   2.443   5.973   7.461 -0.0813 -0.0415  0.7244
 7554SOL    HW224385   2.463   6.033   7.598  1.2019  2.3402 -0.4412
 7555SOL     OW24386   7.325   1.858   6.318  0.2577 -0.0246  0.1546
 7555SOL    HW124387   7.346   1.889   6.406 -1.5091 -0.6995  0.8568
 7555SOL    HW224388   7.252   1.797   6.331 -0.7947  0.7123 -1.8793
 7556SOL     OW24389   8.994   5.926   1.774 -0.3609  0.4265  0.9277
 7556SOL    HW124390   8.902   5.949   1.778 -0.7353 -0.8742  0.2075
 7556SOL    HW224391   9.004   5.853   1.836 -0.7412 -2.2284 -1.9217
 7557SOL     OW24392   4.443   2.414   3.139  0.3919  0.4920  0.0874
 7557SOL    HW124393   4.371   2.425   3.201  1.9740  1.5532  1.8222
 7557SOL    HW224394   4.467   2.504   3.114  3.3857  0.4583  2.3410
 7558SOL     OW24395   2.272   3.751   7.964  0.2018  0.0986 -0.2002
 7558SOL    HW124396   2.327   3.741   8.042  2.4658 -1.9389 -1.8824
 7558SOL    HW224397   2.294   3.837   7.930  1.0533  0.0189  0.1259
 7559SOL     OW24398   7.382   0.914   8.894 -0.4209 -0.1647 -0.2376
 7559SOL    HW124399   7.308   0.855   8.881 -0.0439 -0.6089 -0.3939
 7559SOL    HW224400   7.342   0.998   8.917 -1.0970  0.3700 -3.0749
 7560SOL     OW24401   3.383   1.508   4.629 -0.7795  0.4753  0.1368
 7560SOL    HW124402   3.363   1.586   4.681 -1.0972  0.3196  0.2454
 7560SOL    HW224403   3.316   1.506   4.561 -0.7378  0.3306  0.0988
 7561SOL     OW24404   8.064   0.787   2.121 -0.1324 -0.7784 -0.7658
 7561SOL    HW124405   8.072   0.700   2.083  1.4726 -1.0547  0.1368
 7561SOL    HW224406   8.152   0.823   2.119  0.0173 -0.6634  2.2616
 7562SOL     OW24407   7.725   6.751   5.944 -0.1832 -0.0110 -0.0650
 7562SOL    HW124408   7.676   6.735   6.024 -0.6252 -1.9890 -0.6821
 7562SOL    HW224409   7.666   6.802   5.889 -0.2826  0.4181  0.4349
 7563SOL     OW24410   1.516   5.575   1.014 -0.1980 -0.1059 -0.0136
 7563SOL    HW124411   1.456   5.647   1.000 -1.2152 -1.0975 -0.9912
 7563SOL    HW224412   1.568   5.570   0.934 -0.2919 -0.5882 -0.0506
 7564SOL     OW24413   2.131   1.195   6.649 -0.1910  0.4477  0.7849
 7564SOL    HW124414   2.053   1.238   6.612  0.7775 -0.5230 -2.7820
 7564SOL    HW224415   2.097   1.115   6.690 -1.1728  0.2261 -0.3857
 7565SOL     OW24416   7.161   1.361   8.243  0.0562 -0.1939  0.0793
 7565SOL    HW124417   7.190   1.306   8.316  2.1748  0.2666 -0.3572
 7565SOL    HW224418   7.240   1.404   8.213 -0.8882  0.1359 -2.0920
 7566SOL     OW24419   2.289   7.843   6.882  0.4172  0.0825 -0.0729
 7566SOL    HW124420   2.208   7.889   6.903 -0.6633 -2.5013  1.8163
 7566SOL    HW224421   2.262   7.755   6.858  2.6184 -0.6207 -0.1794
 7567SOL     OW24422   4.558   5.962   9.626 -0.3888  0.0185  0.0825
 7567SOL    HW124423   4.591   5.983   9.713  2.2879 -1.6425 -0.4242
 7567SOL    HW224424   4.520   5.875   9.635  1.3665 -0.8674 -0.6851
 7568SOL     OW24425   2.808   1.295   2.781 -0.4343 -0.1849  0.6078
 7568SOL    HW124426   2.806   1.206   2.815  1.7981 -1.0517 -1.3292
 7568SOL    HW224427   2.778   1.288   2.691  0.0330  0.9748  0.3365
 7569SOL     OW24428   1.900   0.404   3.176  0.1329  0.0084  0.4545
 7569SOL    HW124429   1.982   0.426   3.221  0.6433  0.2328 -0.5742
 7569SOL    HW224430   1.860   0.489   3.156 -0.0357 -0.0897  0.3703
 7570SOL     OW24431   7.319   6.334   6.048  0.2101 -0.1607  0.3776
 7570SOL    HW124432   7.252   6.372   6.106 -0.2689 -0.8168  0.2686
 7570SOL    HW224433   7.269   6.277   5.989  0.5257  1.2997 -1.4048
 7571SOL     OW24434   2.159   0.150   1.291 -0.3766  0.4289  0.4788
 7571SOL    HW124435   2.112   0.167   1.372 -0.1891  0.6724  0.5393
 7571SOL    HW224436   2.251   0.153   1.316 -0.3321 -0.2064  0.3920
 7572SOL     OW24437   4.606   6.542   0.116 -0.3202 -0.3611  0.3676
 7572SOL    HW124438   4.529   6.486   0.105 -1.3361  1.2273 -1.0258
 7572SOL    HW224439   4.605   6.565   0.209 -2.5060  0.8977  0.1010
 7573SOL     OW24440   2.761   1.548   7.302 -0.5167 -0.1104 -0.0177
 7573SOL    HW124441   2.709   1.519   7.227 -1.1246  0.1459  0.2959
 7573SOL    HW224442   2.794   1.634   7.275 -0.3000 -0.2479 -0.1953
 7574SOL     OW24443   0.574   6.657   6.949 -0.1204  0.4172  0.0887
 7574SOL    HW124444   0.500   6.687   6.897  1.4101  1.8235 -1.4204
 7574SOL    HW224445   0.594   6.730   7.008  0.7515  0.5222 -0.3217
 7575SOL     OW24446   6.555   7.988   4.221 -0.0160  0.1619 -0.0073
 7575SOL    HW124447   6.506   7.988   4.139  0.3322  0.0564 -0.2139
 7575SOL    HW224448   6.639   7.949   4.199  0.1866  0.4029  0.3356
 7576SOL     OW24449   5.158   5.356   1.436  0.1524 -0.6202  0.4235
 7576SOL    HW124450   5.222   5.292   1.467  0.2992 -0.4870  0.3967
 7576SOL    HW224451   5.203   5.402   1.366  0.1723 -0.2489  0.6790
 7577SOL     OW24452   6.136   7.704   8.317  0.1401 -0.5349  0.4864
 7577SOL    HW124453   6.179   7.624   8.290 -0.4012 -0.6707  0.0007
 7577SOL    HW224454   6.168   7.771   8.256  0.0241 -0.5368  0.4236
 7578SOL     OW24455   1.857   2.975   9.202  0.2722  0.5388 -0.4453
 7578SOL    HW124456   1.924   3.015   9.146  0.1827  2.0524  0.4608
 7578SOL    HW224457   1.775   2.996   9.158  0.2022  1.7226  0.2122
 7579SOL     OW24458   3.933   2.613   1.153 -0.0347  0.2659  0.1481
 7579SOL    HW124459   3.981   2.545   1.106  0.8980  0.7390  0.3807
 7579SOL    HW224460   3.851   2.624   1.104 -0.4558 -1.3907  0.4150
 7580SOL     OW24461   5.716   0.541   5.291 -0.7031 -0.2646 -0.4915
 7580SOL    HW124462   5.783   0.606   5.314 -1.3680 -0.3562  2.0492
 7580SOL    HW224463   5.696   0.559   5.199  0.1616  2.2026 -0.2850
 7581SOL     OW24464   8.088   6.668   5.600 -0.3242 -0.1985  0.2197
 7581SOL    HW124465   8.112   6.736   5.663 -0.2649  0.6850 -0.7229
 7581SOL    HW224466   8.155   6.675   5.532 -0.1678 -1.4013  0.2427
 7582SOL     OW24467   9.437   7.112   5.455  0.2181 -0.1544 -0.0525
 7582SOL    HW124468   9.504   7.075   5.397 -1.3724 -0.5681 -1.6869
 7582SOL    HW224469   9.393   7.179   5.403 -1.2888 -0.5698  0.6314
 7583SOL     OW24470   1.555   3.305   2.246  0.4381 -0.0379 -0.2048
 7583SOL    HW124471   1.569   3.293   2.340 -0.5557 -1.4074 -0.2048
 7583SOL    HW224472   1.642   3.293   2.208  0.6231 -0.8287  0.4297
 7584SOL     OW24473   2.616   7.024   4.399 -0.1745 -0.1295 -0.8702
 7584SOL    HW124474   2.604   7.015   4.493 -0.6186  2.8228 -0.5566
 7584SOL    HW224475   2.705   6.991   4.383 -0.6727 -2.1740  0.2681
 7585SOL     OW24476   2.256   0.658   6.824  0.4388 -0.6614  0.0920
 7585SOL    HW124477   2.290   0.578   6.864  1.5900 -0.2397 -0.0122
 7585SOL    HW224478   2.333   0.715   6.815 -0.1407 -0.0174 -0.9660
 7586SOL     OW24479   4.916   2.015   0.602  0.5394 -0.3010 -0.0300
 7586SOL    HW124480   4.841   2.057   0.559  0.7379  0.3352  0.2451
 7586SOL    HW224481   4.993   2.057   0.563  0.7634 -1.0690 -0.4333
 7587SOL     OW24482   9.628   4.198   8.058 -0.1830  0.0992  0.1677
 7587SOL    HW124483   9.680   4.129   8.017 -0.1778  0.4992 -0.5103
 7587SOL    HW224484   9.578   4.236   7.986 -0.6308  0.4111  0.6385
 7588SOL     OW24485   8.388   9.115   2.319  0.7342 -0.2082  0.1293
 7588SOL    HW124486   8.473   9.085   2.352  0.0147 -1.5866  0.8033
 7588SOL    HW224487   8.355   9.042   2.266 -1.0208 -0.6795  1.7405
 7589SOL     OW24488   8.765   9.693   3.629  0.3782  0.5162  0.3058
 7589SOL    HW124489   8.769   9.743   3.547  0.3280  0.1247  0.0614
 7589SOL    HW224490   8.852   9.704   3.668 -0.4123  2.9836  1.5830
 7590SOL     OW24491   6.496   8.376   7.541 -0.4394 -0.2954 -0.1067
 7590SOL    HW124492   6.523   8.458   7.499 -0.0850 -0.8903 -1.0877
 7590SOL    HW224493   6.423   8.400   7.597 -1.5264  0.4137 -1.7431
 7591SOL     OW24494   7.946   1.730   5.399  0.0974  0.5269  0.2116
 7591SOL    HW124495   7.952   1.715   5.305  0.7758 -0.7559  0.4282
 7591SOL    HW224496   7.973   1.821   5.411  1.2030  0.3497 -0.7210
 7592SOL     OW24497   4.315   4.435   0.071 -0.8645  0.0493  0.9298
 7592SOL    HW124498   4.239   4.398   0.116 -1.8347  2.0081  1.0081
 7592SOL    HW224499   4.314   4.528   0.095  0.7521  0.4038 -0.2085
 7593SOL     OW24500   4.951   2.811   3.649 -0.0809 -0.1978 -0.3309
 7593SOL    HW124501   5.041   2.836   3.668 -0.2736 -0.2791  0.7530
 7593SOL    HW224502   4.913   2.887   3.604  1.0134 -0.8272 -2.4356
 7594SOL     OW24503   1.067   5.268   1.891  0.2159 -0.3491 -0.0370
 7594SOL    HW124504   1.075   5.352   1.936 -2.0804  0.3328 -0.7986
 7594SOL    HW224505   1.037   5.207   1.959  1.3822 -0.4801  0.3928
 7595SOL     OW24506   1.478   6.902   1.920  0.3823  0.8817  0.0000
 7595SOL    HW124507   1.399   6.954   1.905 -1.0925 -1.4366 -0.9099
 7595SOL    HW224508   1.508   6.927   2.007 -1.7035  1.4342  0.6058
 7596SOL     OW24509   9.326   1.522   3.740  0.0216 -0.3816 -0.1963
 7596SOL    HW124510   9.269   1.469   3.683  0.4915 -1.0138 -0.0970
 7596SOL    HW224511   9.413   1.484   3.727  0.0652 -0.8371  1.2841
 7597SOL     OW24512   9.540   2.028   9.177  0.2989  0.3173 -0.5623
 7597SOL    HW124513   9.563   2.030   9.270 -1.6613  1.7401 -0.0551
 7597SOL    HW224514   9.592   1.955   9.142  0.1421 -1.1113  1.8958
 7598SOL     OW24515   4.390   3.497   8.584  0.1605 -0.1057  0.5274
 7598SOL    HW124516   4.408   3.425   8.524 -1.8973  1.6220 -2.4186
 7598SOL    HW224517   4.473   3.546   8.586 -0.1182  0.7170 -2.4505
 7599SOL     OW24518   4.714   5.328   6.048  0.0903 -0.0418 -0.5985
 7599SOL    HW124519   4.634   5.349   6.000  0.2631 -1.0761 -1.3615
 7599SOL    HW224520   4.739   5.241   6.017  0.4425 -0.5758  1.0500
 7600SOL     OW24521   8.985   3.252   4.915 -0.2472  0.3012 -0.4013
 7600SOL    HW124522   9.024   3.330   4.955 -0.3529  0.2079 -0.1140
 7600SOL    HW224523   8.970   3.193   4.988 -1.8544  0.7138 -0.3755
 7601SOL     OW24524   3.481   2.728   8.701  0.2959  0.3086 -0.0823
 7601SOL    HW124525   3.510   2.820   8.701 -1.8187  1.0177  0.4367
 7601SOL    HW224526   3.486   2.702   8.609  0.4903  1.0773 -0.2989
 7602SOL     OW24527   2.276   5.106   2.216 -0.4222  0.1343 -0.3758
 7602SOL    HW124528   2.369   5.118   2.233  0.0551  0.6732 -2.9174
 7602SOL    HW224529   2.234   5.181   2.258  0.4185  0.4758 -0.1218
 7603SOL     OW24530   3.727   9.576   7.996 -0.4167  0.4659 -0.2596
 7603SOL    HW124531   3.720   9.638   8.069 -0.4094 -1.1612  1.1648
 7603SOL    HW224532   3.670   9.503   8.021  2.4689 -1.8758 -0.0210
 7604SOL     OW24533   4.138   0.945   7.769 -0.5034 -0.0793 -0.2787
 7604SOL    HW124534   4.161   0.930   7.677 -1.2625  1.8320 -0.8260
 7604SOL    HW224535   4.155   0.861   7.812  1.3586 -0.5644 -1.8501
 7605SOL     OW24536   8.327   9.046   6.414 -0.5943  0.4020 -0.4590
 7605SOL    HW124537   8.296   9.136   6.401  1.8401  1.2495 -0.7823
 7605SOL    HW224538   8.421   9.054   6.427 -0.4391 -2.0382  0.5125
 7606SOL     OW24539   3.905   7.291   3.443  0.0983  0.2559  1.1647
 7606SOL    HW124540   3.884   7.359   3.507  1.4198  0.2061  1.6868
 7606SOL    HW224541   3.866   7.211   3.479 -1.5516  0.7271  0.4945
 7607SOL     OW24542   5.768   9.247   4.873 -0.6150  0.2642  0.4578
 7607SOL    HW124543   5.758   9.309   4.801  0.4425 -1.8134 -1.5912
 7607SOL    HW224544   5.716   9.171   4.848  0.1592 -0.6990  1.6483
 7608SOL     OW24545   1.055   1.926   8.897 -0.7414 -0.2259  0.0623
 7608SOL    HW124546   1.104   1.946   8.818  0.8807 -1.4582  0.7086
 7608SOL    HW224547   1.081   1.993   8.960  0.7792 -1.2998  0.6398
 7609SOL     OW24548   3.882   1.015   8.767 -0.6351  0.3193 -0.0889
 7609SOL    HW124549   3.971   0.983   8.751 -1.6451 -2.8120 -0.2078
 7609SOL    HW224550   3.875   1.019   8.862  0.2646  2.9077 -0.0420
 7610SOL     OW24551   4.272   9.128   0.824  0.3403 -0.4536 -0.3142
 7610SOL    HW124552   4.331   9.099   0.755  1.4929 -1.6514  1.1326
 7610SOL    HW224553   4.314   9.101   0.906 -1.4514  0.0490  0.8344
 7611SOL     OW24554   6.421   3.067   6.361 -0.2358 -0.0768  0.7993
 7611SOL    HW124555   6.425   3.129   6.288  0.4924  0.0111  0.9113
 7611SOL    HW224556   6.498   3.087   6.414  1.0326 -2.2710 -0.0920
 7612SOL     OW24557   3.211   7.196   9.360 -0.1307 -0.8692  0.4379
 7612SOL    HW124558   3.272   7.261   9.394  0.7147 -1.3231 -0.1692
 7612SOL    HW224559   3.247   7.171   9.274 -1.9176 -0.1261 -0.5889
 7613SOL     OW24560   7.063   8.594   7.824  0.3849 -0.2560  0.6288
 7613SOL    HW124561   6.980   8.601   7.872  0.8917 -0.0418  1.4961
 7613SOL    HW224562   7.111   8.525   7.869  0.9509  0.0768  0.5430
 7614SOL     OW24563   8.534   8.568   5.282  0.6252 -0.0240 -0.1095
 7614SOL    HW124564   8.620   8.607   5.267  0.7053 -0.7256 -1.6183
 7614SOL    HW224565   8.498   8.556   5.194 -1.2783  0.8055  0.5036
 7615SOL     OW24566   4.939   8.807   8.916  0.5972 -0.2682 -0.5256
 7615SOL    HW124567   4.903   8.792   8.829 -1.7354  1.2676  0.0704
 7615SOL    HW224568   4.991   8.887   8.907 -1.2823  1.0633 -0.1871
 7616SOL     OW24569   7.658   3.556   3.229 -0.0875  0.3033 -0.2166
 7616SOL    HW124570   7.698   3.641   3.208 -0.5311  0.4994 -0.2856
 7616SOL    HW224571   7.624   3.567   3.318 -2.2273  1.0043 -1.0570
 7617SOL     OW24572   8.146   7.742   6.767  0.1400 -0.0800 -0.4443
 7617SOL    HW124573   8.236   7.713   6.782 -0.2683 -0.6353  1.1582
 7617SOL    HW224574   8.124   7.711   6.679  1.6185  0.3871 -1.0036
 7618SOL     OW24575   5.360   4.914   9.202 -0.7943  0.5555 -0.1674
 7618SOL    HW124576   5.334   4.848   9.137  1.6760  0.0185 -0.7166
 7618SOL    HW224577   5.289   4.978   9.200 -1.4778 -0.1725 -2.3841
 7619SOL     OW24578   0.095   4.074   1.844 -0.2204  0.8303 -0.4220
 7619SOL    HW124579   0.130   4.043   1.760 -0.3877 -0.5486 -0.0166
 7619SOL    HW224580   0.088   3.994   1.897 -2.4143  1.2921  0.0805
 7620SOL     OW24581   6.002   9.616   7.653  0.4472  0.1127  0.4659
 7620SOL    HW124582   5.974   9.642   7.740  1.2770 -2.6666  1.6622
 7620SOL    HW224583   6.043   9.695   7.616 -0.2645  1.4499  2.4095
 7621SOL     OW24584   1.338   2.545   6.561  0.3522  0.3916 -0.0406
 7621SOL    HW124585   1.293   2.492   6.626  1.0459 -1.8875 -1.2994
 7621SOL    HW224586   1.431   2.535   6.583  0.4723  1.5444  0.0070
 7622SOL     OW24587   8.703   2.456   7.608 -0.3890  0.2660  0.3896
 7622SOL    HW124588   8.638   2.434   7.541 -0.8982  2.7032  0.0043
 7622SOL    HW224589   8.660   2.435   7.691 -0.8435 -0.1326  0.0603
 7623SOL     OW24590   0.631   3.295   9.627  0.4015 -0.7109  0.0070
 7623SOL    HW124591   0.599   3.209   9.599 -1.2543  0.2938 -1.4395
 7623SOL    HW224592   0.588   3.357   9.567  0.0626  1.2889  2.1824
 7624SOL     OW24593   0.374   5.917   0.924 -0.0346  0.4961  0.4795
 7624SOL    HW124594   0.434   5.950   0.991  0.7604 -0.4020  0.2325
 7624SOL    HW224595   0.427   5.860   0.870 -0.8245  0.7011 -0.5436
 7625SOL     OW24596   5.850   8.164   5.261 -0.4276 -0.2534  0.1032
 7625SOL    HW124597   5.922   8.119   5.307 -1.9924 -0.7173  2.2481
 7625SOL    HW224598   5.843   8.249   5.305 -1.8608 -0.6372  0.6665
 7626SOL     OW24599   9.568   8.185   9.091  0.1152 -0.4091  0.1222
 7626SOL    HW124600   9.505   8.129   9.137 -0.2424  0.7541  1.1147
 7626SOL    HW224601   9.535   8.189   9.001 -0.0036 -1.5464  0.0982
 7627SOL     OW24602   1.480   3.609   7.203 -0.6363 -0.1851  0.1032
 7627SOL    HW124603   1.447   3.538   7.257 -1.2912 -0.4599 -0.6417
 7627SOL    HW224604   1.405   3.668   7.192  0.2884  1.4585  2.0043
 7628SOL     OW24605   6.474   2.361   9.687  0.3848 -0.4389  0.1857
 7628SOL    HW124606   6.500   2.418   9.615  1.4748  1.1823  1.7548
 7628SOL    HW224607   6.382   2.380   9.702  0.0225 -1.1467 -1.0493
 7629SOL     OW24608   0.157   4.947   4.057  0.0976 -0.5220 -0.1964
 7629SOL    HW124609   0.156   4.941   4.153  0.1394 -0.3270 -0.1839
 7629SOL    HW224610   0.068   4.927   4.031 -0.0279 -0.1022 -0.0898
 7630SOL     OW24611   5.453   6.855   7.654  0.6313 -0.0003 -0.4916
 7630SOL    HW124612   5.364   6.833   7.681  0.8040 -1.7046 -1.1636
 7630SOL    HW224613   5.504   6.850   7.735  0.1139  1.1885 -0.0676
 7631SOL     OW24614   0.531   8.942   2.599  0.5731 -0.6743  0.0631
 7631SOL    HW124615   0.558   8.868   2.653  1.2147  0.4215  1.2953
 7631SOL    HW224616   0.577   8.929   2.516 -0.0080 -2.1038 -0.0685
 7632SOL     OW24617   8.852   3.785   6.556 -0.0797 -0.5617  0.1615
 7632SOL    HW124618   8.770   3.774   6.605 -0.2719  0.2016  0.0347
 7632SOL    HW224619   8.918   3.799   6.624 -0.4470  1.1189  0.2190
 7633SOL     OW24620   2.016   7.197   3.265  0.5360  0.2720 -0.3806
 7633SOL    HW124621   2.030   7.170   3.356 -1.0436 -0.6605 -0.3791
 7633SOL    HW224622   2.029   7.292   3.266  0.6970  0.2530  0.7790
 7634SOL     OW24623   2.560   3.754   2.064 -0.7068  0.1080 -0.0675
 7634SOL    HW124624   2.511   3.709   1.995 -1.4596  0.4212  0.2534
 7634SOL    HW224625   2.612   3.820   2.017 -1.0560  0.1784 -0.3565
 7635SOL     OW24626   5.013   4.189   0.147 -0.2151 -0.8266  0.0500
 7635SOL    HW124627   5.036   4.196   0.240 -2.4543  0.2548  0.5751
 7635SOL    HW224628   4.919   4.206   0.144  0.1809  1.5534 -2.6704
 7636SOL     OW24629   1.283   5.311   7.913  0.9009 -0.3231  0.4280
 7636SOL    HW124630   1.190   5.307   7.888  0.6752 -0.4103  1.2572
 7636SOL    HW224631   1.322   5.373   7.851  0.2710 -0.2149  0.1313
 7637SOL     OW24632   5.720   6.218   6.742  0.0520 -0.0866  0.3993
 7637SOL    HW124633   5.779   6.294   6.749 -0.5999  0.7671 -2.1846
 7637SOL    HW224634   5.637   6.249   6.777 -0.6311  1.0041 -1.9621
 7638SOL     OW24635   4.363   8.301   4.999  0.0680  0.0327 -0.0726
 7638SOL    HW124636   4.433   8.365   4.990  0.9005 -0.5521  1.8103
 7638SOL    HW224637   4.387   8.230   4.939  1.2698 -0.2729  0.7297
 7639SOL     OW24638   2.424   6.706   2.253  0.4947  0.6218 -0.0460
 7639SOL    HW124639   2.373   6.676   2.177  1.4838 -0.1805 -0.4202
 7639SOL    HW224640   2.423   6.802   2.246 -3.8073  0.9435  1.8840
 7640SOL     OW24641   7.551   6.212   2.420 -0.4423 -0.0238  0.3064
 7640SOL    HW124642   7.607   6.253   2.355 -0.4047 -0.8315 -0.1848
 7640SOL    HW224643   7.606   6.208   2.499 -0.3539  0.5989  0.2847
 7641SOL     OW24644   5.892   0.405   4.973  0.7038  0.4956  0.3810
 7641SOL    HW124645   5.825   0.362   4.920  1.7023 -0.0140 -0.5211
 7641SOL    HW224646   5.901   0.350   5.051 -0.5064  1.0400  0.9354
 7642SOL     OW24647   2.898   3.035   8.766 -0.0195 -0.3833 -0.0572
 7642SOL    HW124648   2.888   3.129   8.757 -0.5908 -0.1969  2.0225
 7642SOL    HW224649   2.970   3.013   8.707 -0.3312  1.2196 -1.1022
 7643SOL     OW24650   0.215   2.098   6.326  0.0783  0.0818 -0.8794
 7643SOL    HW124651   0.294   2.053   6.298  1.3705  1.3729  0.5299
 7643SOL    HW224652   0.143   2.043   6.293  1.4982 -0.6452 -2.9944
 7644SOL     OW24653   3.098   1.487   3.870 -0.1530  0.0303  0.2847
 7644SOL    HW124654   3.061   1.525   3.791 -1.6300  0.2273  1.0372
 7644SOL    HW224655   3.186   1.460   3.844 -0.0251  1.5077 -0.9829
 7645SOL     OW24656   5.322   1.576   5.300  0.1615  0.8476  0.5108
 7645SOL    HW124657   5.393   1.524   5.262 -0.5484 -0.3942  0.8053
 7645SOL    HW224658   5.330   1.562   5.395  0.1932  1.5995  0.6254
 7646SOL     OW24659   3.118   7.671   6.985  0.5045 -0.2100  0.5655
 7646SOL    HW124660   3.095   7.592   7.033 -1.1596 -0.9666 -1.3150
 7646SOL    HW224661   3.151   7.640   6.901 -0.2042  1.0558 -0.2274
 7647SOL     OW24662   2.176   6.319   0.143  0.2889 -0.1939  0.4633
 7647SOL    HW124663   2.200   6.409   0.118  1.8018 -0.8860 -0.6793
 7647SOL    HW224664   2.104   6.331   0.205 -0.4261  1.7739 -0.6391
 7648SOL     OW24665   8.270   2.613   2.223 -0.3128  0.3795 -0.4603
 7648SOL    HW124666   8.213   2.580   2.292 -0.9566  2.0771 -0.1390
 7648SOL    HW224667   8.337   2.545   2.213 -0.0378  0.1982  2.0123
 7649SOL     OW24668   4.227   8.402   0.165 -0.1016 -0.0853  0.3416
 7649SOL    HW124669   4.321   8.391   0.153 -0.1821 -0.1589 -0.2745
 7649SOL    HW224670   4.216   8.417   0.259  0.4229 -1.1045  0.5849
 7650SOL     OW24671   0.504   7.532   8.261  0.1425  0.4147  0.0919
 7650SOL    HW124672   0.498   7.436   8.260  0.1108  0.3780  1.6527
 7650SOL    HW224673   0.415   7.561   8.284  0.3148  0.7830  0.3046
 7651SOL     OW24674   3.868   7.031   5.312  0.5874  0.4534  0.3817
 7651SOL    HW124675   3.855   7.047   5.219  1.2511  0.7214  0.3321
 7651SOL    HW224676   3.960   7.008   5.320  0.0031 -2.0890  0.6363
 7652SOL     OW24677   1.673   8.693   1.875 -0.0515  0.1282  0.5412
 7652SOL    HW124678   1.578   8.696   1.861 -0.4574  1.4247  3.0358
 7652SOL    HW224679   1.708   8.759   1.815 -0.6133 -0.8488 -0.9114
 7653SOL     OW24680   4.635   4.828   7.080 -0.3047 -0.0999 -0.1616
 7653SOL    HW124681   4.618   4.755   7.021 -0.1509 -0.8081  0.6500
 7653SOL    HW224682   4.719   4.863   7.052 -1.2542  1.0221 -1.7892
 7654SOL     OW24683   4.472   4.523   1.537 -0.4113  0.0124 -0.4272
 7654SOL    HW124684   4.386   4.507   1.497 -0.1080  1.4193 -1.7305
 7654SOL    HW224685   4.535   4.498   1.469  0.2315 -0.7599  0.4247
 7655SOL     OW24686   2.014   9.478   4.162 -0.2103 -0.2521 -0.7283
 7655SOL    HW124687   1.941   9.478   4.224  0.2990  1.6181 -0.0516
 7655SOL    HW224688   2.035   9.570   4.150  1.0276 -0.6810 -2.1391
 7656SOL     OW24689   7.404   6.785   4.734  0.3789 -0.5956 -0.3770
 7656SOL    HW124690   7.319   6.817   4.764  1.2907  3.1815 -1.2151
 7656SOL    HW224691   7.460   6.787   4.811  0.2850 -0.7323 -0.3058
 7657SOL     OW24692   0.669   2.501   4.934  0.4396 -0.3341 -0.1453
 7657SOL    HW124693   0.693   2.574   4.992 -1.3211  1.5260 -1.6251
 7657SOL    HW224694   0.748   2.447   4.931  1.5636  1.0600  1.6421
 7658SOL     OW24695   6.009   1.377   8.298 -0.5091  0.2773  0.6113
 7658SOL    HW124696   6.023   1.460   8.343  0.2952 -0.5986  2.0148
 7658SOL    HW224697   6.028   1.310   8.363 -0.6832 -1.0285 -0.6304
 7659SOL     OW24698   3.422   7.509   3.342  0.3735 -0.0599 -0.1824
 7659SOL    HW124699   3.371   7.444   3.390 -0.1795  0.6814  0.2619
 7659SOL    HW224700   3.509   7.471   3.335 -0.5646 -2.0699 -2.2918
 7660SOL     OW24701   5.947   3.277   0.769  0.4136 -0.0705 -0.0239
 7660SOL    HW124702   5.948   3.341   0.840  0.7697 -1.3177  1.1379
 7660SOL    HW224703   5.860   3.286   0.729  0.0699  0.3859  0.8107
 7661SOL     OW24704   2.342   6.574   2.740 -0.2327  0.0397 -0.4976
 7661SOL    HW124705   2.388   6.612   2.665  0.8177 -0.0776  0.0715
 7661SOL    HW224706   2.411   6.552   2.802 -1.0717 -0.0709  0.4202
 7662SOL     OW24707   3.948   1.166   7.059  0.1882  0.1932 -0.4848
 7662SOL    HW124708   3.915   1.199   7.143 -1.7693 -2.1867 -0.2227
 7662SOL    HW224709   4.038   1.138   7.079  0.1352  0.6958  0.5277
 7663SOL     OW24710   7.024   6.042   8.476  0.9149  0.5009 -0.2032
 7663SOL    HW124711   7.048   6.045   8.569  1.0987 -0.9727 -0.1891
 7663SOL    HW224712   7.008   6.134   8.453  1.1159  0.9169  1.2131
 7664SOL     OW24713   9.618   3.185   6.456 -0.0589  0.6688  0.0794
 7664SOL    HW124714   9.561   3.211   6.528  0.2148  2.4695 -0.3069
 7664SOL    HW224715   9.558   3.148   6.390 -0.8216  2.4172 -0.2708
 7665SOL     OW24716   2.370   0.142   6.668 -0.7606  0.5697 -0.1146
 7665SOL    HW124717   2.304   0.155   6.599 -1.9097 -0.1609  0.8046
 7665SOL    HW224718   2.330   0.079   6.728  1.3951 -1.0697 -0.2703
 7666SOL     OW24719   8.821   3.666   3.138 -0.2014 -0.2419 -0.6186
 7666SOL    HW124720   8.798   3.604   3.206 -0.4499  1.0100  0.4876
 7666SOL    HW224721   8.916   3.679   3.148 -0.4888  1.1973  0.6509
 7667SOL     OW24722   1.520   8.610   4.244 -0.0764  0.4633  0.7167
 7667SOL    HW124723   1.446   8.591   4.187 -0.3791 -0.7406  1.4759
 7667SOL    HW224724   1.483   8.617   4.331  0.9337 -3.0478  1.6019
 7668SOL     OW24725   0.188   2.828   6.959  0.2971 -0.1674  0.1076
 7668SOL    HW124726   0.111   2.879   6.933  0.3497  1.0843  2.2093
 7668SOL    HW224727   0.228   2.802   6.876 -0.3326  2.3325 -1.0907
 7669SOL     OW24728   3.960   3.185   0.027 -0.0520 -0.2627  0.0116
 7669SOL    HW124729   4.043   3.185   0.075 -0.0776 -0.1148  0.0542
 7669SOL    HW224730   3.978   3.235  -0.052 -0.4792  0.9626  0.6698
 7670SOL     OW24731   7.873   9.123   6.309 -0.4673  0.2379  0.6369
 7670SOL    HW124732   7.878   9.047   6.367  0.9468  0.8014  1.2992
 7670SOL    HW224733   7.887   9.086   6.221 -1.3861 -0.4610  0.7719
 7671SOL     OW24734   5.990   7.019   5.499  0.2754  0.5019 -0.1316
 7671SOL    HW124735   5.929   6.988   5.566 -1.6314  0.6915 -1.6942
 7671SOL    HW224736   6.073   6.978   5.522 -1.2397 -2.7607  0.0779
 7672SOL     OW24737   8.760   9.646   9.226  0.0311  0.6309  0.4176
 7672SOL    HW124738   8.697   9.581   9.192  1.6012 -0.3671 -0.7013
 7672SOL    HW224739   8.718   9.730   9.208 -0.9227  0.0083 -0.4756
 7673SOL     OW24740   2.010   8.146   7.326 -0.0323  0.6869  0.2518
 7673SOL    HW124741   1.947   8.212   7.355 -0.7836 -0.0205  0.2897
 7673SOL    HW224742   2.090   8.195   7.308 -0.7489  1.6924 -0.3223
 7674SOL     OW24743   2.675   2.390   0.368  0.6545 -0.0829  0.1941
 7674SOL    HW124744   2.698   2.357   0.455  2.2528 -0.2962 -0.2815
 7674SOL    HW224745   2.724   2.472   0.360 -1.2046  1.1082  0.3209
 7675SOL     OW24746   3.076   0.518   9.651 -0.0897 -0.4767 -0.3677
 7675SOL    HW124747   3.069   0.481   9.739 -1.1122  0.5231 -0.0109
 7675SOL    HW224748   3.161   0.561   9.650 -0.2259 -0.1778  0.2717
 7676SOL     OW24749   4.040   6.442   5.402 -0.7434 -0.4539  0.1764
 7676SOL    HW124750   4.030   6.430   5.307  0.3524 -1.1429  0.1315
 7676SOL    HW224751   4.125   6.403   5.422 -0.5010  0.5824  1.2873
 7677SOL     OW24752   0.092   5.641   9.591 -0.3718 -0.4202 -0.1379
 7677SOL    HW124753   0.073   5.658   9.684  0.2353  3.1808 -0.5331
 7677SOL    HW224754   0.007   5.647   9.548 -0.2964  1.1217 -0.1378
 7678SOL     OW24755   7.101   4.400   9.360 -0.4977 -0.4471  0.3884
 7678SOL    HW124756   7.169   4.382   9.295 -0.8388  0.2369 -0.1714
 7678SOL    HW224757   7.019   4.400   9.309 -0.8466 -0.5925  0.9414
 7679SOL     OW24758   3.018   0.588   7.692  0.2120 -0.0219  0.0705
 7679SOL    HW124759   3.100   0.626   7.725  0.1074  0.2297  0.0378
 7679SOL    HW224760   3.046   0.510   7.645  0.4678  0.2625 -0.2530
 7680SOL     OW24761   6.832   7.342   9.121 -0.1092  0.0964 -0.0415
 7680SOL    HW124762   6.896   7.411   9.139 -2.7968  2.3687  1.7484
 7680SOL    HW224763   6.801   7.361   9.033  1.7263 -1.1812 -1.0280
 7681SOL     OW24764   2.767   0.225   8.840 -0.7137 -0.4411  0.1015
 7681SOL    HW124765   2.841   0.280   8.867  0.1988 -0.4872 -2.1325
 7681SOL    HW224766   2.699   0.287   8.814 -0.8502 -0.3963  0.5548
 7682SOL     OW24767   0.298   8.242   8.207 -0.1557 -0.1695  0.6051
 7682SOL    HW124768   0.260   8.329   8.214 -0.8425 -0.2825 -1.1575
 7682SOL    HW224769   0.376   8.254   8.153  0.9822 -0.3337  2.1499
 7683SOL     OW24770   3.521   6.505   2.755 -0.3102  0.3153  0.0536
 7683SOL    HW124771   3.468   6.541   2.826  0.5243  1.0757  0.3117
 7683SOL    HW224772   3.482   6.420   2.737 -2.2109  1.2054 -0.4052
 7684SOL     OW24773   4.923   8.933   8.438  0.0626  0.4306  0.2753
 7684SOL    HW124774   4.874   8.852   8.430  0.4062 -0.0852  2.6614
 7684SOL    HW224775   5.010   8.912   8.405  0.0330 -0.0413  0.5020
 7685SOL     OW24776   3.163   4.980   6.603  0.0025 -0.1153  0.2296
 7685SOL    HW124777   3.096   5.021   6.550 -0.5440  0.4546  1.3180
 7685SOL    HW224778   3.205   5.053   6.650  0.6516 -0.5658  0.3712
 7686SOL     OW24779   7.464   5.783   3.750 -0.1369 -0.0561  0.3023
 7686SOL    HW124780   7.482   5.692   3.775 -0.6571 -0.4135 -0.5780
 7686SOL    HW224781   7.520   5.835   3.807  0.5883 -0.9565  0.4356
 7687SOL     OW24782   7.671   3.939   5.975 -0.2046 -0.4401  0.1727
 7687SOL    HW124783   7.739   3.923   5.909  0.7758 -1.1296  1.3114
 7687SOL    HW224784   7.638   3.851   5.995  0.3878 -0.3846  1.4824
 7688SOL     OW24785   1.149   9.146   5.632  0.2033  0.7171 -0.0904
 7688SOL    HW124786   1.069   9.190   5.606  0.4776  1.6881  0.6548
 7688SOL    HW224787   1.158   9.164   5.726  0.4883 -0.6761  0.1791
 7689SOL     OW24788   2.008   6.137   7.198 -0.4002  0.4346  0.5789
 7689SOL    HW124789   1.950   6.074   7.241 -0.4102  0.0154 -0.0392
 7689SOL    HW224790   2.093   6.092   7.195 -0.5234  0.2424 -0.3056
 7690SOL     OW24791   4.456   0.632   1.930 -0.0387 -0.0215 -0.4922
 7690SOL    HW124792   4.452   0.538   1.948 -0.6561 -0.0777 -0.8727
 7690SOL    HW224793   4.409   0.673   2.003  1.2493  0.0922  0.2964
 7691SOL     OW24794   6.783   2.467   4.957 -0.0479 -0.0289 -0.8336
 7691SOL    HW124795   6.852   2.509   5.009 -0.6980  1.1938 -0.9076
 7691SOL    HW224796   6.809   2.375   4.951  0.7497  0.0876  0.4828
 7692SOL     OW24797   0.497   4.628   3.752 -0.1596  0.0901  0.2530
 7692SOL    HW124798   0.564   4.560   3.744 -0.2279 -0.1355  1.4701
 7692SOL    HW224799   0.537   4.696   3.807 -0.1411  0.9954 -0.8330
 7693SOL     OW24800   3.881   4.242   5.125  0.1773  0.0544 -0.3730
 7693SOL    HW124801   3.896   4.333   5.100  2.1428 -0.4797 -1.3115
 7693SOL    HW224802   3.890   4.241   5.220  2.6507  0.4781 -0.5348
 7694SOL     OW24803   8.635   1.632   7.802  0.1489  0.3836 -0.3130
 7694SOL    HW124804   8.637   1.715   7.754  0.4825  0.3034 -0.4459
 7694SOL    HW224805   8.686   1.649   7.882 -0.5264  0.5579  0.0851
 7695SOL     OW24806   9.513   2.383   6.633 -0.3595 -0.8703 -0.0969
 7695SOL    HW124807   9.524   2.288   6.633  0.5545 -0.7741  0.0386
 7695SOL    HW224808   9.580   2.415   6.694  0.5160 -0.0295 -1.4428
 7696SOL     OW24809   6.639   6.564   6.333  0.2575  0.5574  0.6931
 7696SOL    HW124810   6.577   6.492   6.323  0.9719  0.0213 -0.0043
 7696SOL    HW224811   6.595   6.626   6.391 -1.5175  0.8651 -0.8920
 7697SOL     OW24812   7.434   8.846   2.662  0.4822 -0.1954 -0.3997
 7697SOL    HW124813   7.424   8.810   2.750  0.2922 -0.8529 -0.6851
 7697SOL    HW224814   7.437   8.941   2.675  2.6139 -0.3341  0.5254
 7698SOL     OW24815   2.031   2.664   4.843  0.0443 -0.1805  0.5532
 7698SOL    HW124816   2.111   2.709   4.815 -0.3139  1.5910  2.1967
 7698SOL    HW224817   2.024   2.683   4.936 -1.5712 -1.4872  0.7399
 7699SOL     OW24818   5.854   4.837   7.074  0.0072 -0.2169  0.1054
 7699SOL    HW124819   5.759   4.842   7.085 -0.0558  0.2188 -0.6123
 7699SOL    HW224820   5.880   4.761   7.126 -1.0465 -1.9540 -1.7988
 7700SOL     OW24821   4.137   7.818   7.516  0.0449 -0.3584  0.1036
 7700SOL    HW124822   4.102   7.878   7.582 -0.6410  1.9078 -2.1727
 7700SOL    HW224823   4.060   7.774   7.481  0.2072 -0.2750 -0.3568
 7701SOL     OW24824   0.617   0.836   7.674  0.0548  0.4028  0.4757
 7701SOL    HW124825   0.601   0.768   7.610  0.6851 -1.5652  2.2982
 7701SOL    HW224826   0.560   0.814   7.748  2.5717 -0.1090  2.4134
 7702SOL     OW24827   2.559   1.128   1.512 -0.4663  0.1977  0.0333
 7702SOL    HW124828   2.641   1.082   1.494 -0.4046  0.4432 -0.3045
 7702SOL    HW224829   2.502   1.106   1.438 -0.7540 -0.0842  0.3340
 7703SOL     OW24830   8.163   4.414   7.648  0.0132  0.4577  0.2781
 7703SOL    HW124831   8.142   4.431   7.740  0.8400 -0.1925  0.5946
 7703SOL    HW224832   8.246   4.459   7.633  0.7819 -0.8773  0.3495
 7704SOL     OW24833   7.199   0.086   6.572 -0.1969  0.3247 -0.0602
 7704SOL    HW124834   7.242   0.149   6.515  0.6857 -0.0818  0.1460
 7704SOL    HW224835   7.247   0.005   6.559 -1.2524 -0.2913 -0.2405
 7705SOL     OW24836   6.733   3.135   3.601 -0.7610  0.1227 -0.2391
 7705SOL    HW124837   6.743   3.195   3.675  0.9805 -0.8250  0.3285
 7705SOL    HW224838   6.747   3.190   3.524 -1.1798  0.8346  0.1765
 7706SOL     OW24839   5.158   7.008   1.459  0.1476 -0.2824 -0.0060
 7706SOL    HW124840   5.216   7.079   1.489  0.3497 -0.2227 -0.5209
 7706SOL    HW224841   5.130   6.964   1.539  2.5279 -1.5872  0.2015
 7707SOL     OW24842   0.175   5.090   7.254 -0.1964 -0.2838  0.2691
 7707SOL    HW124843   0.263   5.071   7.223 -0.1894 -0.0001  0.1115
 7707SOL    HW224844   0.184   5.172   7.302 -0.0225 -1.2147  1.8734
 7708SOL     OW24845   1.376   2.119   1.066 -0.0305 -0.0195 -0.4503
 7708SOL    HW124846   1.436   2.193   1.057 -1.6212  1.1459 -2.0837
 7708SOL    HW224847   1.310   2.149   1.129 -0.0331 -0.5276 -0.2007
 7709SOL     OW24848   2.939   5.140   8.101  0.2345  0.4196  0.3992
 7709SOL    HW124849   2.943   5.235   8.115  0.7560  0.1899  2.1147
 7709SOL    HW224850   3.029   5.115   8.082 -0.1898  0.4724 -1.9335
 7710SOL     OW24851   0.157   2.112   0.965  0.0343  0.1639 -0.1734
 7710SOL    HW124852   0.111   2.115   0.881 -1.6418 -0.1666  0.6721
 7710SOL    HW224853   0.109   2.174   1.021  1.3768  0.6978  0.4226
 7711SOL     OW24854   8.533   8.380   6.024 -0.5541  0.4586  0.1199
 7711SOL    HW124855   8.553   8.452   5.964 -1.6740 -0.6777 -1.7332
 7711SOL    HW224856   8.449   8.346   5.992 -0.3403 -1.2693  1.3101
 7712SOL     OW24857   6.707   6.122   1.533  0.1966 -0.1326  0.1252
 7712SOL    HW124858   6.766   6.181   1.579  1.1677 -1.0770  0.1282
 7712SOL    HW224859   6.762   6.078   1.468 -0.6640 -0.4968 -0.3743
 7713SOL     OW24860   2.544   6.484   7.276 -0.6196 -0.0765  0.1185
 7713SOL    HW124861   2.623   6.458   7.323  0.7746  2.1643 -0.7904
 7713SOL    HW224862   2.488   6.523   7.342  0.2621  0.8054  0.3794
 7714SOL     OW24863   4.166   7.261   9.505 -0.6441 -0.2835 -0.0445
 7714SOL    HW124864   4.161   7.322   9.579 -1.6374 -1.4047  0.8345
 7714SOL    HW224865   4.225   7.305   9.443 -2.3862  2.2695 -0.0911
 7715SOL     OW24866   9.092   5.905   2.441 -0.0117 -0.2740 -0.5539
 7715SOL    HW124867   9.100   5.985   2.494  0.1192  0.7598 -2.0661
 7715SOL    HW224868   9.182   5.880   2.423 -0.0252 -1.5036  0.9286
 7716SOL     OW24869   3.943   8.918   9.300  0.0057  0.4493 -0.5755
 7716SOL    HW124870   3.915   8.899   9.211 -2.0604  0.5545 -0.0037
 7716SOL    HW224871   3.869   8.966   9.339  0.6247 -0.0507  1.3484
 7717SOL     OW24872   1.070   3.807   3.068  0.1819 -0.5560 -0.4922
 7717SOL    HW124873   1.067   3.777   3.159  2.3242 -0.8768 -0.4859
 7717SOL    HW224874   1.155   3.849   3.060 -0.2401  0.0218 -2.2027
 7718SOL     OW24875   6.136   0.993   7.551  0.0374 -0.1306 -0.0098
 7718SOL    HW124876   6.157   1.052   7.479 -0.9258 -0.1991 -0.3621
 7718SOL    HW224877   6.147   0.905   7.515 -1.3557 -0.1742 -0.3782
 7719SOL     OW24878   8.262   4.024   4.390  0.4676 -0.1284 -0.2839
 7719SOL    HW124879   8.337   4.019   4.449  0.6120 -1.1435 -0.5322
 7719SOL    HW224880   8.256   3.936   4.352 -1.1798 -0.2267  0.1398
 7720SOL     OW24881   2.543   8.826   6.304  0.0213 -0.1603  0.6079
 7720SOL    HW124882   2.557   8.901   6.362 -1.4649  0.7854 -0.1892
 7720SOL    HW224883   2.482   8.859   6.237 -1.0365 -2.2149  0.4892
 7721SOL     OW24884   5.582   5.276   1.460 -0.1279  0.2821 -0.3995
 7721SOL    HW124885   5.634   5.207   1.502  0.6947  0.8663 -0.4423
 7721SOL    HW224886   5.637   5.354   1.464 -0.5229  0.6380 -1.4949
 7722SOL     OW24887   2.529   1.580   8.416  0.6876  0.2406  0.6920
 7722SOL    HW124888   2.548   1.661   8.463  1.7510  0.2805  0.2142
 7722SOL    HW224889   2.535   1.605   8.323  1.6538 -0.5208  0.5411
 7723SOL     OW24890   5.192   3.883   0.608  0.0606  0.0458 -0.4313
 7723SOL    HW124891   5.245   3.960   0.587  0.4725 -0.3634 -0.9218
 7723SOL    HW224892   5.241   3.838   0.676  0.1529 -0.1331 -0.6162
 7724SOL     OW24893   2.034   2.024   7.898 -0.5737 -0.2254  0.6753
 7724SOL    HW124894   1.980   2.045   7.822 -0.6452 -0.3301  0.6970
 7724SOL    HW224895   1.983   1.959   7.946 -1.2324  0.9266  1.6105
 7725SOL     OW24896   6.939   9.668   3.018 -0.7050 -0.6049 -0.3525
 7725SOL    HW124897   7.005   9.658   2.949 -1.1376 -0.7938 -0.7428
 7725SOL    HW224898   6.937   9.583   3.062  0.0848 -0.2621  0.3627
 7726SOL     OW24899   5.802   6.066   6.008 -0.2590  0.1069 -0.2129
 7726SOL    HW124900   5.825   5.975   6.028  2.1118  0.8953  1.0849
 7726SOL    HW224901   5.720   6.060   5.959 -0.6862 -2.6497  0.6670
 7727SOL     OW24902   0.780   4.044   9.648  0.1692 -0.1837  0.4861
 7727SOL    HW124903   0.860   4.091   9.625 -0.4421  0.2680 -0.8861
 7727SOL    HW224904   0.794   4.013   9.737  0.9154  1.9873  1.2008
 7728SOL     OW24905   3.243   3.742   7.478  0.4224 -0.1469  0.4740
 7728SOL    HW124906   3.313   3.774   7.420  0.5260  1.7344  1.5678
 7728SOL    HW224907   3.227   3.815   7.538 -1.5889 -1.0393  1.0793
 7729SOL     OW24908   7.426   6.125   5.869 -0.5380 -0.0877  0.6336
 7729SOL    HW124909   7.337   6.150   5.843  0.0774 -0.5007 -2.1757
 7729SOL    HW224910   7.481   6.196   5.836  0.2799 -0.2959  1.5127
 7730SOL     OW24911   7.265   4.204   7.001 -0.1541  0.0326 -0.1670
 7730SOL    HW124912   7.194   4.267   7.012 -0.8723 -0.9126  0.7460
 7730SOL    HW224913   7.225   4.129   6.958  0.5153 -0.1233 -0.5353
 7731SOL     OW24914   3.971   6.442   6.106  0.4083  0.1995  0.1895
 7731SOL    HW124915   4.015   6.358   6.091  0.7332 -0.4329  3.7247
 7731SOL    HW224916   3.905   6.422   6.173 -0.2566  2.5825  0.3204
 7732SOL     OW24917   9.063   3.192   1.462 -0.2484  0.3531  0.2942
 7732SOL    HW124918   8.990   3.235   1.507 -0.9429  0.0133 -0.4768
 7732SOL    HW224919   9.022   3.147   1.388  0.9225  1.4342 -1.0649
 7733SOL     OW24920   7.475   2.106   5.657  0.5402 -0.3589  1.0083
 7733SOL    HW124921   7.412   2.131   5.724 -0.0001  0.0036  0.3695
 7733SOL    HW224922   7.501   2.188   5.617  1.0067 -0.5583  0.8943
 7734SOL     OW24923   3.227   5.527   4.145 -0.2825  0.3242 -0.3391
 7734SOL    HW124924   3.248   5.459   4.081  0.7499 -0.6558  0.9810
 7734SOL    HW224925   3.133   5.516   4.161 -0.7346  1.0751 -2.1666
 7735SOL     OW24926   0.901   1.129   2.954  0.1471 -0.0437  0.4856
 7735SOL    HW124927   0.965   1.168   2.896 -0.3035  1.2193  0.7881
 7735SOL    HW224928   0.950   1.066   3.007  0.5981 -1.0308 -1.0684
 7736SOL     OW24929   5.079   8.787   7.566  0.0553  0.0531  0.0975
 7736SOL    HW124930   5.041   8.849   7.503 -0.4233  1.9142  2.1032
 7736SOL    HW224931   5.003   8.742   7.603 -0.0261  1.4663  1.7794
 7737SOL     OW24932   4.854   5.330   4.179 -0.2475  0.4416  0.2250
 7737SOL    HW124933   4.800   5.331   4.100  0.1609 -1.2918 -0.1122
 7737SOL    HW224934   4.886   5.420   4.187 -0.9555  0.8408 -1.1191
 7738SOL     OW24935   5.743   8.272   2.969  0.0492  0.1670  0.6686
 7738SOL    HW124936   5.706   8.211   2.905  0.1989  1.0180 -0.2523
 7738SOL    HW224937   5.679   8.272   3.041  0.1468 -1.2088  0.7811
 7739SOL     OW24938   6.635   1.432   8.053  0.2253 -0.1210 -0.4305
 7739SOL    HW124939   6.717   1.480   8.044  0.7559 -0.6702  1.1308
 7739SOL    HW224940   6.661   1.345   8.081 -0.8122 -0.9355 -1.8778
 7740SOL     OW24941   0.815   2.356   2.670  0.2214 -0.3696  0.0801
 7740SOL    HW124942   0.822   2.272   2.717 -0.2569 -0.1496  0.5563
 7740SOL    HW224943   0.744   2.342   2.607  0.8531 -0.6599 -0.5762
 7741SOL     OW24944   9.578   0.455   7.510 -0.0888  0.1894 -0.1337
 7741SOL    HW124945   9.555   0.369   7.477  1.2028 -0.3098  0.2024
 7741SOL    HW224946   9.671   0.448   7.533 -0.6653  0.7389  2.7804
 7742SOL     OW24947   6.545   2.451   3.194  0.1209 -0.4950 -0.4677
 7742SOL    HW124948   6.474   2.504   3.230 -0.3600 -0.5386 -1.3443
 7742SOL    HW224949   6.619   2.513   3.187  0.0648 -0.3578  0.0808
 7743SOL     OW24950   3.711   0.936   8.224  0.5244 -0.0007 -0.5593
 7743SOL    HW124951   3.727   0.876   8.297  1.1066 -0.6885 -1.2305
 7743SOL    HW224952   3.762   1.014   8.246  1.2231 -0.4532 -0.5261
 7744SOL     OW24953   6.315   2.368   6.741 -0.1690 -0.1403  0.2553
 7744SOL    HW124954   6.396   2.319   6.727 -0.9346 -0.8916 -1.8833
 7744SOL    HW224955   6.331   2.452   6.698 -1.1349 -0.9997 -1.9317
 7745SOL     OW24956   7.210   8.830   2.081 -1.0615  0.4853  0.0194
 7745SOL    HW124957   7.186   8.738   2.068 -1.1535  0.3106  1.3347
 7745SOL    HW224958   7.144   8.864   2.141  1.4350  0.1839  3.2087
 7746SOL     OW24959   3.294   8.657   6.811  0.5939 -0.1865  0.1882
 7746SOL    HW124960   3.274   8.750   6.802  0.5146 -0.1865  0.3730
 7746SOL    HW224961   3.289   8.640   6.905  2.8065  0.1328  0.4357
 7747SOL     OW24962   3.839   6.941   2.803 -0.3189 -0.8217  0.0204
 7747SOL    HW124963   3.819   6.872   2.866 -2.0190  1.5338  2.2993
 7747SOL    HW224964   3.766   6.942   2.742 -0.8267 -0.3917  0.6271
 7748SOL     OW24965   7.333   1.526   7.135 -0.7159 -0.2409 -0.4149
 7748SOL    HW124966   7.260   1.557   7.189  0.0217  1.0394 -0.1120
 7748SOL    HW224967   7.393   1.486   7.197  0.3301  1.6028 -0.1505
 7749SOL     OW24968   2.550   0.120   7.825  0.9660 -0.3629  0.7468
 7749SOL    HW124969   2.543   0.031   7.861  0.8112 -0.3647  0.7134
 7749SOL    HW224970   2.644   0.137   7.823  0.9676 -0.2502  1.4344
 7750SOL     OW24971   8.250   2.363   7.114  0.5929  0.0928  0.1699
 7750SOL    HW124972   8.273   2.434   7.174  0.0494 -0.2395  0.7782
 7750SOL    HW224973   8.167   2.389   7.075  0.8136  0.1820 -0.2566
 7751SOL     OW24974   7.481   9.057   6.399  0.7444  0.0216  0.4566
 7751SOL    HW124975   7.446   8.968   6.400  0.6142  0.0786  1.0069
 7751SOL    HW224976   7.513   9.069   6.309  1.2964 -0.7853  0.5405
 7752SOL     OW24977   4.511   0.390   2.401  0.0175 -0.2349 -0.0390
 7752SOL    HW124978   4.570   0.327   2.442 -0.1736  0.1647  0.8740
 7752SOL    HW224979   4.568   0.460   2.370 -0.0128  0.4868  1.4621
 7753SOL     OW24980   7.634   6.847   0.290 -0.2039 -0.4479 -0.7821
 7753SOL    HW124981   7.689   6.922   0.315 -1.9016  0.2567  1.0648
 7753SOL    HW224982   7.586   6.878   0.212 -1.3642  0.6831  0.3338
 7754SOL     OW24983   7.090   7.947   7.791  0.2646 -0.3128 -0.3068
 7754SOL    HW124984   7.092   7.988   7.878  4.6379 -2.0736  0.6952
 7754SOL    HW224985   7.147   8.002   7.738  0.6703 -1.3178 -0.9285
 7755SOL     OW24986   6.017   1.820   2.074 -0.1887 -0.2980  0.6288
 7755SOL    HW124987   5.938   1.806   2.126  0.5007 -0.7483  1.5777
 7755SOL    HW224988   6.044   1.732   2.047 -0.3377 -0.0984 -0.2092
 7756SOL     OW24989   0.999   0.451   6.381  0.2814 -0.8707  0.0229
 7756SOL    HW124990   1.002   0.356   6.389 -1.4675 -0.9999 -0.5013
 7756SOL    HW224991   0.906   0.473   6.382  0.6576  0.8925  0.6490
 7757SOL     OW24992   4.829   8.284   4.435 -0.6894 -0.1702 -0.6525
 7757SOL    HW124993   4.822   8.235   4.353  0.8437 -0.6570 -0.5333
 7757SOL    HW224994   4.923   8.294   4.448 -0.9468  1.3651  0.2056
 7758SOL     OW24995   4.420   2.138   3.483  0.1808 -0.2160 -0.6462
 7758SOL    HW124996   4.385   2.124   3.395  1.0766  0.2551 -1.0926
 7758SOL    HW224997   4.494   2.077   3.489 -0.0138 -0.4097 -0.1281
 7759SOL     OW24998   5.408   1.930   6.419 -0.3401  0.1185 -0.0437
 7759SOL    HW124999   5.449   2.010   6.387 -1.1099  0.6398  0.2401
 7759SOL    HW225000   5.480   1.879   6.456 -0.1227  1.7350  1.9169
 7760SOL     OW25001   6.643   2.818   7.494 -0.0848 -0.7871 -0.2803
 7760SOL    HW125002   6.644   2.743   7.554 -4.9332 -1.5556 -0.8174
 7760SOL    HW225003   6.703   2.791   7.423  0.6286 -2.7740  0.9706
 7761SOL     OW25004   4.247   3.832   0.311 -0.0771  0.2590 -0.2034
 7761SOL    HW125005   4.165   3.822   0.360  0.2049 -1.5525 -0.0136
 7761SOL    HW225006   4.242   3.919   0.272 -1.6403  0.5698  0.6246
 7762SOL     OW25007   8.110   7.173   8.123 -0.4473 -0.4318  0.5274
 7762SOL    HW125008   8.194   7.190   8.166  0.2838 -2.6940  0.1097
 7762SOL    HW225009   8.098   7.248   8.064  0.5321  0.6621  1.6663
 7763SOL     OW25010   7.006   4.556   8.638  0.1579 -0.6821 -0.4381
 7763SOL    HW125011   6.930   4.522   8.590 -0.2703 -0.7755  0.2773
 7763SOL    HW225012   6.994   4.522   8.727 -0.3012  1.3213  0.3210
 7764SOL     OW25013   0.148   3.331   8.712 -0.2941  0.3985  0.1173
 7764SOL    HW125014   0.221   3.384   8.681  0.2852 -0.1939  0.4681
 7764SOL    HW225015   0.074   3.358   8.658  0.1270  1.1653 -0.0807
 7765SOL     OW25016   2.536   8.865   2.946  0.0424  0.4844 -0.1620
 7765SOL    HW125017   2.577   8.795   2.896  1.2882  0.7780  0.4096
 7765SOL    HW225018   2.590   8.943   2.926 -0.1348  0.8432  0.7298
 7766SOL     OW25019   2.081   6.170   2.450 -0.0871 -0.0054  0.6453
 7766SOL    HW125020   2.018   6.160   2.522 -0.6409  0.0995  0.1887
 7766SOL    HW225021   2.146   6.231   2.483 -0.9606  0.9412  0.6611
 7767SOL     OW25022   2.666   5.142   9.344  0.7910  0.1995  0.6280
 7767SOL    HW125023   2.588   5.196   9.327 -0.0196 -1.3092 -0.7116
 7767SOL    HW225024   2.635   5.052   9.333  2.8695 -0.4165 -0.5344
 7768SOL     OW25025   5.672   6.919   7.216  0.1445 -0.4004  0.3358
 7768SOL    HW125026   5.724   6.840   7.226  0.1429 -0.5279 -0.5766
 7768SOL    HW225027   5.672   6.937   7.122 -1.9139 -0.7128  0.2163
 7769SOL     OW25028   5.107   2.177   6.597  0.0957  0.1250  0.2715
 7769SOL    HW125029   5.130   2.125   6.674 -1.7742 -1.5603 -0.2293
 7769SOL    HW225030   5.053   2.248   6.631  1.2141  0.7746  0.7507
 7770SOL     OW25031   7.235   8.072   3.696  0.1424  0.9478  0.2878
 7770SOL    HW125032   7.302   8.105   3.636 -0.6317  1.3028 -0.3893
 7770SOL    HW225033   7.170   8.141   3.701 -1.4342 -0.3645 -1.0428
 7771SOL     OW25034   8.448   5.108   7.760 -0.2537  0.2780  0.1262
 7771SOL    HW125035   8.400   5.065   7.831 -1.1965  1.5877  0.3074
 7771SOL    HW225036   8.534   5.126   7.799 -0.5841  0.5201  0.7656
 7772SOL     OW25037   5.116   8.505   1.699  0.3052 -0.0526 -0.4996
 7772SOL    HW125038   5.164   8.583   1.728  0.8256 -0.9040  1.0754
 7772SOL    HW225039   5.176   8.460   1.640  0.4741  0.1362 -0.4718
 7773SOL     OW25040   5.870   5.884   7.814 -0.0745 -0.2198 -0.6278
 7773SOL    HW125041   5.876   5.798   7.855  0.0380  0.7507  1.5520
 7773SOL    HW225042   5.960   5.907   7.792  0.0772 -0.1130  0.0701
 7774SOL     OW25043   5.079   6.423   5.017  0.3685 -0.0674  0.0100
 7774SOL    HW125044   4.991   6.415   5.053  0.4388  1.9197  0.7531
 7774SOL    HW225045   5.068   6.414   4.922 -0.5334 -0.4755  0.1508
 7775SOL     OW25046   5.551   3.552   0.154  0.1582 -0.2846 -0.2535
 7775SOL    HW125047   5.554   3.474   0.099 -0.3792  0.0728 -0.8120
 7775SOL    HW225048   5.469   3.595   0.130 -0.3743 -0.4179  1.2659
 7776SOL     OW25049   9.528   0.456   0.447  0.2741  0.1545 -0.1871
 7776SOL    HW125050   9.469   0.426   0.378  0.1733 -1.5678  0.5874
 7776SOL    HW225051   9.609   0.478   0.402 -0.2943  0.5846 -1.0292
 7777SOL     OW25052   8.517   5.790   5.919 -0.0004  0.0597 -0.3709
 7777SOL    HW125053   8.529   5.847   5.995 -0.1991  0.5398 -0.6908
 7777SOL    HW225054   8.575   5.715   5.935 -0.2479  0.0267  0.3760
 7778SOL     OW25055   2.608   8.928   3.595  0.0694  0.0723  0.4731
 7778SOL    HW125056   2.519   8.911   3.564  0.5026 -1.3477 -0.0372
 7778SOL    HW225057   2.613   9.024   3.600 -0.8161  0.2669 -1.4761
 7779SOL     OW25058   8.955   5.255   1.483 -0.1217  0.7047 -0.4921
 7779SOL    HW125059   8.867   5.230   1.455 -0.5465  1.5937  0.0147
 7779SOL    HW225060   8.954   5.350   1.484  0.0560  0.7312  1.9499
 7780SOL     OW25061   3.021   4.817   4.844  0.0903 -0.4721 -0.3374
 7780SOL    HW125062   2.972   4.757   4.788  1.4919 -0.6370 -1.4479
 7780SOL    HW225063   3.112   4.788   4.837  0.6815  1.2236 -0.1828
 7781SOL     OW25064   0.075   1.511   6.622  0.1610 -0.6814 -0.2483
 7781SOL    HW125065   0.013   1.556   6.680 -0.1479 -1.3010 -0.0881
 7781SOL    HW225066   0.114   1.443   6.678  1.9290  0.4868  0.0296
 7782SOL     OW25067   2.261   2.951   0.649 -0.0182 -0.0899 -0.5820
 7782SOL    HW125068   2.329   2.892   0.617 -1.0038 -1.9366  0.5202
 7782SOL    HW225069   2.284   2.967   0.741 -1.3329 -1.2621 -0.0021
 7783SOL     OW25070   4.260   0.685   1.188 -0.0997 -0.2687 -0.4671
 7783SOL    HW125071   4.193   0.747   1.214  0.8928  0.8004 -0.4039
 7783SOL    HW225072   4.339   0.713   1.234  0.1760 -2.1141  0.2867
 7784SOL     OW25073   0.385   6.809   9.231 -0.5866 -0.0361 -0.5255
 7784SOL    HW125074   0.330   6.734   9.210 -0.6367 -0.5791  1.4302
 7784SOL    HW225075   0.467   6.792   9.184 -0.6918 -1.1754 -0.3110
 7785SOL     OW25076   2.093   9.224   5.459  0.3281 -0.6458  0.2021
 7785SOL    HW125077   2.014   9.252   5.412  1.6514  1.1014 -1.1352
 7785SOL    HW225078   2.073   9.238   5.551 -1.2338 -1.1171 -0.0416
 7786SOL     OW25079   0.431   6.174   6.612 -0.5455  0.2319 -0.1562
 7786SOL    HW125080   0.366   6.162   6.542 -0.0467 -2.0220 -0.3031
 7786SOL    HW225081   0.510   6.130   6.580  0.0992  0.2671  1.2907
 7787SOL     OW25082   5.382   2.332   6.098 -0.0583  0.0439  0.0861
 7787SOL    HW125083   5.313   2.326   6.164  0.7367  0.2431  0.9571
 7787SOL    HW225084   5.445   2.393   6.135  0.0833  0.7039 -1.1794
 7788SOL     OW25085   7.322   6.461   7.771  0.9142  0.2596 -0.0193
 7788SOL    HW125086   7.233   6.440   7.743  0.7424  0.6266  0.2409
 7788SOL    HW225087   7.318   6.553   7.796  1.3764  0.2880 -0.0397
 7789SOL     OW25088   4.573   4.856   8.419  0.0972 -0.4488 -0.3377
 7789SOL    HW125089   4.491   4.834   8.462  0.6402  0.3287  1.1537
 7789SOL    HW225090   4.640   4.844   8.486  1.1267 -0.3303 -1.3044
 7790SOL     OW25091   2.276   7.322   2.593  0.4273  0.2994 -0.0367
 7790SOL    HW125092   2.362   7.352   2.564  0.7085 -1.1175 -0.7483
 7790SOL    HW225093   2.281   7.227   2.588 -1.4246  0.2027 -0.8246
 7791SOL     OW25094   9.481   0.891   7.822 -0.0185  0.1375  0.1659
 7791SOL    HW125095   9.543   0.818   7.818  0.2627  0.3419  0.7121
 7791SOL    HW225096   9.516   0.956   7.762 -0.6492 -0.4541 -0.8747
 7792SOL     OW25097   7.986   5.976   6.289  0.6877  0.3659  0.1159
 7792SOL    HW125098   7.948   6.042   6.347  0.9981 -0.3625  1.1774
 7792SOL    HW225099   7.960   6.003   6.201 -1.4314  0.4541  0.7239
 7793SOL     OW25100   8.509   2.117   3.709  0.5604 -0.0199 -0.2861
 7793SOL    HW125101   8.575   2.060   3.750 -0.8117 -1.3753  0.1403
 7793SOL    HW225102   8.472   2.167   3.782  0.9717  0.6122 -0.5006
 7794SOL     OW25103   0.392   1.311   9.328 -0.0579 -0.1479  0.0373
 7794SOL    HW125104   0.383   1.404   9.307 -0.0977  0.3612  2.1132
 7794SOL    HW225105   0.305   1.284   9.358  0.0270 -0.7827 -0.2646
 7795SOL     OW25106   8.313   7.276   6.945 -0.1077  0.0384  0.6977
 7795SOL    HW125107   8.218   7.264   6.951 -0.0254 -0.3332  1.2545
 7795SOL    HW225108   8.334   7.335   7.018 -0.1058  1.3049 -0.2868
 7796SOL     OW25109   8.943   9.672   9.418  0.1519  0.2861 -0.3820
 7796SOL    HW125110   8.993   9.597   9.384  0.8988  0.9521 -0.7800
 7796SOL    HW225111   8.879   9.690   9.350 -0.9765 -0.8680  0.3359
 7797SOL     OW25112   4.040   2.737   9.051  0.1641 -0.3355  0.1435
 7797SOL    HW125113   3.948   2.749   9.074  0.3528  2.5416 -0.3098
 7797SOL    HW225114   4.045   2.761   8.958  1.3304 -0.9155  0.0283
 7798SOL     OW25115   4.931   6.277   2.987 -0.2479 -0.3266 -0.4590
 7798SOL    HW125116   4.949   6.332   3.063 -0.1867  1.1260 -1.4879
 7798SOL    HW225117   4.886   6.201   3.022  1.0246 -0.3642  1.2045
 7799SOL     OW25118   3.880   9.517   9.649 -0.2235 -0.0181  0.8163
 7799SOL    HW125119   3.831   9.495   9.570  0.3861 -3.6179  1.2615
 7799SOL    HW225120   3.823   9.576   9.697 -1.1037  1.3307 -1.7225
 7800SOL     OW25121   0.646   0.163   7.478  0.7798  0.2209 -0.8759
 7800SOL    HW125122   0.636   0.097   7.410  1.4642 -0.1455 -0.6264
 7800SOL    HW225123   0.664   0.244   7.431 -0.3379  0.3034 -1.1988
 7801SOL     OW25124   2.343   9.677   4.638  0.2326  0.4060 -0.0872
 7801SOL    HW125125   2.365   9.669   4.545  0.7214  1.3330 -0.0655
 7801SOL    HW225126   2.380   9.599   4.679 -1.3107 -0.7936 -0.8884
 7802SOL     OW25127   7.601   1.846   2.399  0.2589 -0.7165 -0.0926
 7802SOL    HW125128   7.664   1.902   2.355 -1.6211  1.2168 -0.4729
 7802SOL    HW225129   7.580   1.891   2.480 -1.5218 -0.6413 -0.5451
 7803SOL     OW25130   0.986   8.199   0.952 -0.9035 -0.2364 -0.3533
 7803SOL    HW125131   0.948   8.120   0.991  2.1605 -1.3882  0.6173
 7803SOL    HW225132   1.014   8.171   0.864 -0.2568 -0.0996 -0.1940
 7804SOL     OW25133   4.165   8.253   5.611 -0.0824  0.6932 -0.1449
 7804SOL    HW125134   4.223   8.329   5.609 -1.2233  1.6042 -0.1936
 7804SOL    HW225135   4.213   8.186   5.659  0.9708  1.4341 -0.1428
 7805SOL     OW25136   5.156   1.024   4.116 -0.6326 -0.0740 -0.5726
 7805SOL    HW125137   5.171   0.952   4.055 -1.6663  1.1336 -2.3301
 7805SOL    HW225138   5.125   1.097   4.062 -2.5126  0.7926  1.4841
 7806SOL     OW25139   2.800   4.009   6.245  0.3035  0.0701  0.2149
 7806SOL    HW125140   2.777   4.048   6.161  0.9156 -1.7272 -0.8550
 7806SOL    HW225141   2.754   3.925   6.246  2.9323 -1.4686  0.1297
 7807SOL     OW25142   0.653   4.243   9.207 -0.6582 -0.6014 -0.3467
 7807SOL    HW125143   0.607   4.258   9.290 -1.5792 -1.4556 -0.6822
 7807SOL    HW225144   0.720   4.179   9.227  1.4369  1.7027  0.4719
 7808SOL     OW25145   4.102   6.924   1.201  0.6261  0.5187  0.0521
 7808SOL    HW125146   4.073   6.838   1.232 -1.4129  1.4932  0.9879
 7808SOL    HW225147   4.065   6.932   1.113 -0.3984  0.9856  0.5111
 7809SOL     OW25148   0.064   8.116   6.681 -0.1467 -0.1605 -0.2267
 7809SOL    HW125149   0.018   8.053   6.737  0.4903  0.4407  0.9998
 7809SOL    HW225150   0.123   8.062   6.629 -0.1070 -0.6592  0.3218
 7810SOL     OW25151   1.749   2.815   6.991 -0.6309 -0.0504  0.6113
 7810SOL    HW125152   1.814   2.809   7.061 -0.6171 -2.2402  0.4966
 7810SOL    HW225153   1.665   2.817   7.036 -0.5811 -0.2287  0.7127
 7811SOL     OW25154   6.244   5.351   2.255 -0.4020  0.2117 -0.0314
 7811SOL    HW125155   6.172   5.414   2.261 -1.1160 -0.5563 -0.2926
 7811SOL    HW225156   6.220   5.295   2.181 -0.8519 -1.6797  1.4825
 7812SOL     OW25157   6.417   0.908   0.091 -0.0486 -0.2240 -0.4598
 7812SOL    HW125158   6.375   0.823   0.104  1.7272 -0.8866  1.4480
 7812SOL    HW225159   6.396   0.931  -0.000 -1.4576 -2.1741 -0.6952
 7813SOL     OW25160   7.654   3.498   8.954 -0.6208 -0.5840 -0.0403
 7813SOL    HW125161   7.604   3.442   8.894 -2.1551 -0.8250  1.3613
 7813SOL    HW225162   7.692   3.436   9.017  1.1876 -0.3614 -0.8655
 7814SOL     OW25163   6.610   8.571   2.152  0.0407 -0.0124 -0.4933
 7814SOL    HW125164   6.553   8.597   2.080  1.0279 -0.7344 -1.5525
 7814SOL    HW225165   6.575   8.487   2.181 -0.7378  0.5690  0.3156
 7815SOL     OW25166   8.472   5.049   1.473 -0.3892  0.2319  0.2016
 7815SOL    HW125167   8.546   5.109   1.480  0.7008 -0.9895 -0.3236
 7815SOL    HW225168   8.407   5.096   1.420  0.2861  1.0686  0.1049
 7816SOL     OW25169   4.388   5.838   6.885  0.3146  0.2865 -0.0164
 7816SOL    HW125170   4.387   5.839   6.790  1.6581  0.7426 -0.0560
 7816SOL    HW225171   4.404   5.929   6.910 -1.3883  0.4238  0.7092
 7817SOL     OW25172   1.179   4.598   2.494 -0.1402  0.2844  1.1454
 7817SOL    HW125173   1.144   4.686   2.482  5.1456  2.6169  0.4271
 7817SOL    HW225174   1.209   4.596   2.585  1.9642  0.2215  0.4843
 7818SOL     OW25175   4.388   6.817   0.443 -0.5045  0.1551  0.4680
 7818SOL    HW125176   4.312   6.808   0.386 -0.6692  0.4229  0.6449
 7818SOL    HW225177   4.390   6.910   0.467  0.6368  0.4358 -0.5926
 7819SOL     OW25178   3.649   6.340   1.445  0.2017  0.1645 -0.2334
 7819SOL    HW125179   3.691   6.369   1.365 -2.5838 -0.6605 -2.1434
 7819SOL    HW225180   3.666   6.246   1.448 -0.3219  0.0681 -0.2680
 7820SOL     OW25181   5.638   4.417   2.287 -0.0624 -0.1248  0.2594
 7820SOL    HW125182   5.698   4.346   2.309  0.1509  0.0213  0.1489
 7820SOL    HW225183   5.649   4.481   2.357  0.0090 -0.0366  0.1675
 7821SOL     OW25184   2.271   7.589   7.104 -0.7346 -0.8878  0.6084
 7821SOL    HW125185   2.251   7.571   7.012  0.3538  0.3981  0.0751
 7821SOL    HW225186   2.367   7.595   7.106 -0.8540  1.8222  1.2465
 7822SOL     OW25187   7.046   4.004   4.146 -0.3188  0.1091  0.1694
 7822SOL    HW125188   6.968   4.052   4.119 -1.2759 -2.1025 -1.2255
 7822SOL    HW225189   7.013   3.922   4.184  1.2467  0.4077  2.4305
 7823SOL     OW25190   2.311   7.087   0.204  0.5676  0.5018  0.0319
 7823SOL    HW125191   2.385   7.135   0.167 -0.3288  2.3689  0.5607
 7823SOL    HW225192   2.268   7.150   0.262 -1.9046 -0.2556 -0.8507
 7824SOL     OW25193   2.847   3.631   5.268 -0.1975 -0.0213 -0.8743
 7824SOL    HW125194   2.937   3.617   5.295 -0.2366 -1.0547 -1.2227
 7824SOL    HW225195   2.844   3.723   5.240  0.8943 -0.1408 -1.4226
 7825SOL     OW25196   7.647   9.175   5.776 -0.3775 -0.4898  0.2182
 7825SOL    HW125197   7.667   9.267   5.795  2.6016 -0.9755 -0.0257
 7825SOL    HW225198   7.603   9.178   5.691 -0.0695  0.7039  0.0769
 7826SOL     OW25199   3.779   2.064   3.613 -0.2737 -0.7390 -0.3642
 7826SOL    HW125200   3.746   1.975   3.613 -0.6454 -0.6105 -1.7101
 7826SOL    HW225201   3.869   2.057   3.582 -0.2685 -0.6561 -0.3701
 7827SOL     OW25202   5.805   2.430   6.615  0.5959 -0.0125 -0.3102
 7827SOL    HW125203   5.838   2.497   6.555 -0.1937  0.8642  0.2197
 7827SOL    HW225204   5.878   2.413   6.674  0.1719  1.8444  0.7984
 7828SOL     OW25205   6.504   1.687   4.258  0.0172  0.3098 -0.1814
 7828SOL    HW125206   6.481   1.711   4.347 -0.6640  0.0045 -0.2708
 7828SOL    HW225207   6.594   1.654   4.265 -0.3326 -0.5213  0.5443
 7829SOL     OW25208   6.090   6.522   4.640  0.2561  0.6996  0.6119
 7829SOL    HW125209   6.092   6.582   4.565  0.2867 -0.7459 -0.5780
 7829SOL    HW225210   5.997   6.507   4.656  0.2633 -0.6524 -0.5245
 7830SOL     OW25211   6.449   0.324   7.046 -0.0940  0.1415 -0.7878
 7830SOL    HW125212   6.475   0.342   7.136  0.8269 -1.8237 -0.6117
 7830SOL    HW225213   6.497   0.245   7.022 -2.9319 -1.3843 -1.8499
 7831SOL     OW25214   1.326   9.491   5.252 -0.8834 -0.0030 -0.7123
 7831SOL    HW125215   1.344   9.495   5.346 -0.9052  0.1753 -0.7145
 7831SOL    HW225216   1.363   9.572   5.217  0.6615 -0.8542 -1.1236
 7832SOL     OW25217   4.165   9.108   4.203 -0.3374  0.2158  0.0797
 7832SOL    HW125218   4.249   9.151   4.185 -0.6832  0.3975 -1.2057
 7832SOL    HW225219   4.152   9.121   4.297  0.2561  1.6957 -0.0080
 7833SOL     OW25220   7.976   1.884   6.566 -0.6088 -0.3630 -0.2389
 7833SOL    HW125221   8.022   1.882   6.650 -1.7177 -0.8328  0.3813
 7833SOL    HW225222   7.996   1.970   6.529  1.6191 -0.9382 -0.5132
 7834SOL     OW25223   9.562   9.426   5.700  0.2689 -0.4588 -0.0654
 7834SOL    HW125224   9.560   9.482   5.778  0.1984 -1.5605  0.7382
 7834SOL    HW225225   9.545   9.487   5.628  1.3879  0.7704  0.6522
 7835SOL     OW25226   0.294   6.854   7.567 -0.3785 -0.0822 -0.8242
 7835SOL    HW125227   0.313   6.939   7.607  0.1142 -0.0395 -1.1410
 7835SOL    HW225228   0.285   6.872   7.474 -0.6272 -0.3256 -0.8496
 7836SOL     OW25229   9.153   0.515   3.706  0.2828  0.6557 -0.0060
 7836SOL    HW125230   9.082   0.579   3.713 -1.2236 -1.0674  1.9688
 7836SOL    HW225231   9.117   0.446   3.650  1.0704  0.5492 -0.3873
 7837SOL     OW25232   0.282   3.112   2.523 -0.2223  0.3509 -0.2317
 7837SOL    HW125233   0.224   3.057   2.470 -1.3840  1.0396  0.2923
 7837SOL    HW225234   0.281   3.072   2.610  1.4405 -0.5971 -0.5918
 7838SOL     OW25235   1.529   9.038   3.282  0.3643 -0.2205  0.6981
 7838SOL    HW125236   1.445   9.081   3.269  0.8385  0.9707  1.4168
 7838SOL    HW225237   1.508   8.945   3.293 -0.9576  0.1824  1.8293
 7839SOL     OW25238   3.029   6.502   2.872 -0.4403 -0.0201 -0.0562
 7839SOL    HW125239   3.013   6.592   2.901  3.9090  0.8663  0.3503
 7839SOL    HW225240   3.019   6.449   2.952  1.2894  0.8750  0.8216
 7840SOL     OW25241   2.686   9.506   4.866 -0.0041  0.2376 -0.0614
 7840SOL    HW125242   2.680   9.439   4.798 -3.2662  0.0705  0.2269
 7840SOL    HW225243   2.742   9.574   4.828 -0.0428 -0.7810 -2.0600
 7841SOL     OW25244   9.040   2.359   5.627  0.0602  0.0310  0.0615
 7841SOL    HW125245   9.072   2.305   5.555 -0.6624 -0.0482 -0.2138
 7841SOL    HW225246   9.053   2.305   5.705 -2.7086 -1.5571 -0.4322
 7842SOL     OW25247   8.350   7.380   5.947  0.7254 -0.3503  0.4955
 7842SOL    HW125248   8.266   7.345   5.976  1.7692 -1.9070  1.7778
 7842SOL    HW225249   8.411   7.307   5.955  2.2583  0.7977 -0.2213
 7843SOL     OW25250   9.394   1.328   3.345  0.2374  0.1435  0.1088
 7843SOL    HW125251   9.463   1.261   3.343  0.4587  0.3846 -1.1494
 7843SOL    HW225252   9.324   1.288   3.397  0.7795 -0.6537  0.2460
 7844SOL     OW25253   6.210   0.173   3.241  0.3634 -0.1342 -0.4039
 7844SOL    HW125254   6.254   0.131   3.167 -0.2979 -0.1568 -0.7929
 7844SOL    HW225255   6.178   0.100   3.294  0.6274 -0.1165 -0.2154
 7845SOL     OW25256   1.793   1.136   5.833  0.4431  0.2192 -0.1795
 7845SOL    HW125257   1.841   1.060   5.802 -0.0102 -0.2562  0.2510
 7845SOL    HW225258   1.860   1.198   5.859  0.8348  0.6598 -2.1147
 7846SOL     OW25259   0.021   6.222   8.518 -0.4162  0.7273  0.3406
 7846SOL    HW125260  -0.027   6.279   8.458  1.0109  0.7937 -0.7752
 7846SOL    HW225261   0.042   6.144   8.467 -0.4709  0.1250  1.2063
 7847SOL     OW25262   8.950   7.726   9.558 -0.3313  0.4771  0.6965
 7847SOL    HW125263   8.936   7.818   9.578 -2.6541  0.4487 -0.5211
 7847SOL    HW225264   8.865   7.685   9.570  0.7781 -1.6684  1.7861
 7848SOL     OW25265   2.855   3.806   1.655  0.3977 -0.2395  0.5938
 7848SOL    HW125266   2.937   3.778   1.615  0.1452  0.1740 -0.2388
 7848SOL    HW225267   2.860   3.902   1.655 -1.7308  0.0570 -3.1973
 7849SOL     OW25268   6.428   7.308   6.985  0.1275 -0.3413 -0.1719
 7849SOL    HW125269   6.524   7.313   6.989  0.0962  0.5373 -0.4164
 7849SOL    HW225270   6.409   7.276   6.897  0.2598 -3.4293  0.7847
 7850SOL     OW25271   8.158   9.337   1.684 -0.3733  0.2401 -0.1089
 7850SOL    HW125272   8.072   9.301   1.704  0.0889  0.2413  2.1515
 7850SOL    HW225273   8.210   9.320   1.763  0.7146  3.2332 -0.0478
 7851SOL     OW25274   8.257   7.459   6.648 -0.0778 -0.3982 -0.1565
 7851SOL    HW125275   8.208   7.518   6.589 -1.7966 -0.4175  1.1706
 7851SOL    HW225276   8.278   7.513   6.724  1.9214 -0.4413 -0.6119
 7852SOL     OW25277   4.253   2.312   9.434  0.2228  0.0719 -0.2661
 7852SOL    HW125278   4.228   2.224   9.462  2.2545  0.0556  1.7924
 7852SOL    HW225279   4.329   2.299   9.379  0.2445  0.5155 -0.3457
 7853SOL     OW25280   0.281   1.949   5.321 -0.2999  0.1644 -0.2621
 7853SOL    HW125281   0.353   1.959   5.383  0.4472  0.7020 -1.1913
 7853SOL    HW225282   0.218   2.017   5.346  0.5979  1.2612 -0.8796
 7854SOL     OW25283   9.686   8.195   3.471 -0.0444  0.1454 -0.2259
 7854SOL    HW125284   9.734   8.155   3.399 -1.6991 -2.3074 -0.0870
 7854SOL    HW225285   9.725   8.158   3.550 -1.1668 -0.7852 -0.0709
 7855SOL     OW25286   4.456   8.878   7.572  0.3839 -0.5910 -0.1070
 7855SOL    HW125287   4.484   8.942   7.507 -1.7590 -0.2648 -0.7974
 7855SOL    HW225288   4.470   8.921   7.656  0.1013  0.3221 -0.5139
 7856SOL     OW25289   8.243   7.894   3.588  0.5707 -0.9267  0.2688
 7856SOL    HW125290   8.193   7.814   3.577  1.2627 -1.5644  1.6257
 7856SOL    HW225291   8.303   7.876   3.661  1.5891  0.3905 -0.1953
 7857SOL     OW25292   6.083   8.825   0.126  0.5054 -0.2444  0.5519
 7857SOL    HW125293   6.094   8.866   0.211 -0.1722 -1.4170  1.2274
 7857SOL    HW225294   6.111   8.892   0.063  1.0944  0.6050  1.6835
 7858SOL     OW25295   8.547   4.057   0.519  0.0835  0.2387  0.1684
 7858SOL    HW125296   8.614   4.121   0.541  0.2266  0.2838 -0.3688
 7858SOL    HW225297   8.596   3.978   0.496 -0.0693  0.1111  0.2775
 7859SOL     OW25298   2.529   3.723   0.581  0.4882  0.7765 -0.8916
 7859SOL    HW125299   2.440   3.757   0.590  0.7185  1.5124 -1.2501
 7859SOL    HW225300   2.585   3.796   0.609  0.9837  0.4850 -1.1140
 7860SOL     OW25301   1.138   1.207   6.417  0.8155  0.0422 -0.2562
 7860SOL    HW125302   1.052   1.197   6.375  0.9332  0.2855 -0.5542
 7860SOL    HW225303   1.121   1.264   6.492  0.8508  0.6854 -0.7315
 7861SOL     OW25304   4.308   4.224   1.036  0.4804 -0.6438 -0.5171
 7861SOL    HW125305   4.244   4.295   1.045  0.7867 -0.2373 -1.4232
 7861SOL    HW225306   4.341   4.210   1.125  0.0721  0.0284 -0.2539
 7862SOL     OW25307   0.703   3.699   1.750 -0.3300  0.0325  0.5861
 7862SOL    HW125308   0.695   3.760   1.677 -0.5228  0.4737  0.9715
 7862SOL    HW225309   0.679   3.750   1.827 -2.4986 -1.0581  0.7147
 7863SOL     OW25310   1.126   3.254   2.570 -0.3458 -0.1204 -0.8499
 7863SOL    HW125311   1.045   3.230   2.526 -0.8504 -0.6090  0.3159
 7863SOL    HW225312   1.159   3.173   2.606  0.3598  0.1807 -0.8017
 7864SOL     OW25313   5.489   6.940   9.619  0.5004 -0.1155  0.0590
 7864SOL    HW125314   5.480   6.891   9.537  0.8101 -0.0356 -0.0258
 7864SOL    HW225315   5.557   6.892   9.667  1.4814  0.7482 -0.4159
 7865SOL     OW25316   1.053   1.630   5.240  0.1756 -0.4731 -0.3096
 7865SOL    HW125317   1.050   1.721   5.208  1.7229 -0.7899 -1.4753
 7865SOL    HW225318   0.971   1.591   5.209 -0.5592  0.5258  0.3010
 7866SOL     OW25319   2.333   7.713   2.573  0.2020  0.4441  0.1283
 7866SOL    HW125320   2.320   7.666   2.655 -0.2024  1.4152  0.6297
 7866SOL    HW225321   2.420   7.751   2.580 -0.1212  1.1363  0.4206
 7867SOL     OW25322   0.337   7.593   6.721 -0.1479  0.4681 -0.4197
 7867SOL    HW125323   0.370   7.682   6.717  1.2137 -0.0505 -2.9516
 7867SOL    HW225324   0.332   7.572   6.814  2.6780  2.0652  0.1880
 7868SOL     OW25325   1.422   7.656   6.738  0.3498  0.1498  0.4355
 7868SOL    HW125326   1.391   7.681   6.825  2.4712  0.8186  1.0686
 7868SOL    HW225327   1.504   7.704   6.727  1.5665 -2.0425 -0.7844
 7869SOL     OW25328   3.572   6.679   4.971  0.0714  0.1848  0.0564
 7869SOL    HW125329   3.535   6.764   4.997 -0.3087 -0.2203  0.8607
 7869SOL    HW225330   3.547   6.670   4.879  0.5924  1.1964 -0.2041
 7870SOL     OW25331   6.651   1.363   5.563 -0.1140  0.4758  0.0526
 7870SOL    HW125332   6.607   1.281   5.539  0.6225 -0.5197  1.9305
 7870SOL    HW225333   6.731   1.363   5.511 -0.8083  0.7832 -1.0672
 7871SOL     OW25334   6.788   9.588   7.046  0.2720  0.7320  0.1863
 7871SOL    HW125335   6.839   9.591   7.127 -1.3784  2.1480  1.2390
 7871SOL    HW225336   6.735   9.509   7.053  0.0779  0.8918  0.5231
 7872SOL     OW25337   0.409   2.335   2.616 -0.0458  0.0001 -0.2525
 7872SOL    HW125338   0.482   2.325   2.554  0.4859  0.3474  0.3119
 7872SOL    HW225339   0.331   2.311   2.565  0.6268 -2.1599 -0.3595
 7873SOL     OW25340   0.525   3.967   5.927 -0.0538 -0.6664 -0.1118
 7873SOL    HW125341   0.577   3.959   5.847  1.1832 -0.2236  0.6224
 7873SOL    HW225342   0.524   4.061   5.946 -0.9752 -0.6875 -0.0008
 7874SOL     OW25343   6.822   3.959   6.808 -0.2236 -0.2810  0.4503
 7874SOL    HW125344   6.824   3.892   6.877  2.7936  0.3763  1.1359
 7874SOL    HW225345   6.780   4.035   6.850  0.2902 -0.3559  1.1251
 7875SOL     OW25346   0.954   7.462   0.640 -0.0579 -0.1271 -0.3989
 7875SOL    HW125347   0.974   7.427   0.553  0.3839  0.1949 -0.4294
 7875SOL    HW225348   1.039   7.465   0.685 -0.3063 -0.4489  0.1042
 7876SOL     OW25349   5.957   8.378   5.755 -0.7490 -0.6008 -0.3611
 7876SOL    HW125350   5.966   8.327   5.835  1.6836 -0.4289 -0.4753
 7876SOL    HW225351   5.982   8.319   5.685 -1.3365 -0.2663 -0.8677
 7877SOL     OW25352   7.056   0.903   2.104 -0.0541 -0.5847  0.6939
 7877SOL    HW125353   7.085   0.836   2.043 -2.5622 -0.5142 -0.7141
 7877SOL    HW225354   6.963   0.883   2.119  0.0271  0.4900  3.0717
 7878SOL     OW25355   6.751   8.379   8.389 -0.0682 -0.0930  0.0853
 7878SOL    HW125356   6.753   8.474   8.376  0.3673 -0.0759  0.2432
 7878SOL    HW225357   6.828   8.361   8.443 -0.0730 -0.5553 -0.0570
 7879SOL     OW25358   5.180   2.706   7.570 -0.4064 -0.0891  0.0432
 7879SOL    HW125359   5.208   2.788   7.531 -2.4821  0.7604  0.1983
 7879SOL    HW225360   5.203   2.639   7.506 -0.0674  0.8023 -0.7871
 7880SOL     OW25361   0.731   1.921   5.466  0.1434  0.2722 -0.6325
 7880SOL    HW125362   0.708   1.967   5.547  1.8874  0.3629 -0.1510
 7880SOL    HW225363   0.672   1.958   5.400 -0.6685  0.8728  0.4069
 7881SOL     OW25364   5.637   4.747   9.032 -0.0872  0.1689  0.2919
 7881SOL    HW125365   5.612   4.729   9.123  0.4029  1.5593  0.7365
 7881SOL    HW225366   5.585   4.824   9.008 -0.2930 -0.2527 -0.6511
 7882SOL     OW25367   2.012   2.784   1.328 -0.0957  0.0592  0.2683
 7882SOL    HW125368   2.088   2.813   1.277 -0.2898  0.5393  0.2421
 7882SOL    HW225369   1.988   2.700   1.290 -2.3134  1.8396 -2.8091
 7883SOL     OW25370   4.655   7.540   3.774  0.0182 -0.2157  0.4264
 7883SOL    HW125371   4.572   7.546   3.821  0.6745 -0.7731  1.7064
 7883SOL    HW225372   4.696   7.626   3.787 -0.7397  0.3914 -1.0018
 7884SOL     OW25373   9.659   7.132   1.541 -0.0570 -0.6449 -0.0771
 7884SOL    HW125374   9.683   7.092   1.457 -0.1854  0.5237 -0.6862
 7884SOL    HW225375   9.659   7.226   1.524  0.1373 -0.3740  1.3023
 7885SOL     OW25376   9.313   4.724   7.874  0.1703  0.1878 -0.6695
 7885SOL    HW125377   9.239   4.702   7.817  1.0281 -1.3550 -1.2508
 7885SOL    HW225378   9.389   4.727   7.816  1.3661 -3.0978  0.5085
 7886SOL     OW25379   6.086   6.045   9.371 -0.0890 -0.6652 -0.1707
 7886SOL    HW125380   6.124   5.969   9.416 -0.4889 -0.8479 -0.1413
 7886SOL    HW225381   6.012   6.009   9.323  0.8881 -0.6603 -1.7513
 7887SOL     OW25382   4.964   0.058   7.612 -0.2925  0.8708 -0.1003
 7887SOL    HW125383   4.955   0.153   7.617  2.3973  1.2053 -0.5294
 7887SOL    HW225384   4.974   0.030   7.703 -1.2543  0.9424  0.0407
 7888SOL     OW25385   6.491   3.347   9.114 -0.5786  0.0085 -0.2771
 7888SOL    HW125386   6.451   3.271   9.156 -0.4360 -0.9157 -1.7262
 7888SOL    HW225387   6.584   3.340   9.134 -0.2355 -1.4206 -2.1091
 7889SOL     OW25388   5.324   0.181   5.593  0.0070 -0.6117 -0.0229
 7889SOL    HW125389   5.358   0.115   5.653  1.1131 -0.9789 -0.9979
 7889SOL    HW225390   5.352   0.264   5.630 -0.8252 -0.7047  0.8636
 7890SOL     OW25391   7.003   5.554   9.484 -0.7440  0.6485  0.3461
 7890SOL    HW125392   7.041   5.593   9.562 -0.1785  1.7673 -0.4538
 7890SOL    HW225393   7.053   5.473   9.470 -0.0234  1.0712  0.4542
 7891SOL     OW25394   5.048   5.580   5.008  0.3836  0.0139 -0.3673
 7891SOL    HW125395   5.118   5.553   5.068 -0.5467  0.7835  1.1201
 7891SOL    HW225396   5.048   5.675   5.013 -2.5440  0.0422  1.9165
 7892SOL     OW25397   5.534   1.194   0.310  0.7612  0.1003 -0.2051
 7892SOL    HW125398   5.462   1.181   0.247 -1.8402 -1.6052  2.8285
 7892SOL    HW225399   5.598   1.128   0.286 -0.9904 -1.7381 -0.1103
 7893SOL     OW25400   3.379   0.527   6.848 -0.3174  0.2730 -0.1824
 7893SOL    HW125401   3.301   0.583   6.843 -0.1282  0.6186  0.6654
 7893SOL    HW225402   3.361   0.457   6.785 -0.7695  1.0154 -0.9069
 7894SOL     OW25403   1.949   0.170   7.311 -0.1422  0.0150  0.5154
 7894SOL    HW125404   1.991   0.181   7.397 -0.0698  0.5074  0.4189
 7894SOL    HW225405   1.887   0.242   7.306 -0.4332 -0.2480  0.3177
 7895SOL     OW25406   4.943   1.207   7.072  0.1672  0.8032  0.1782
 7895SOL    HW125407   4.941   1.139   7.138  2.8665 -2.1270 -2.4348
 7895SOL    HW225408   5.017   1.263   7.096  0.8204  0.0483 -0.0490
 7896SOL     OW25409   6.403   3.184   2.610 -0.0260  0.0168 -0.2872
 7896SOL    HW125410   6.402   3.243   2.685 -2.0577  0.8502 -0.9129
 7896SOL    HW225411   6.323   3.204   2.562  0.8590 -0.9778 -2.3138
 7897SOL     OW25412   3.453   4.290   4.844  0.6269 -0.6195  0.9349
 7897SOL    HW125413   3.536   4.333   4.863  0.3117 -0.2386  1.4793
 7897SOL    HW225414   3.393   4.322   4.911  0.0709 -0.9909  0.6282
 7898SOL     OW25415   1.577   4.084   8.167  0.3361 -0.3567 -0.5800
 7898SOL    HW125416   1.534   4.141   8.103  0.7561  0.9705  0.2659
 7898SOL    HW225417   1.510   4.068   8.234  0.5885  0.1952 -0.1873
 7899SOL     OW25418   6.277   7.992   7.489 -0.5464  0.4368  0.1759
 7899SOL    HW125419   6.306   7.920   7.433 -2.1689  0.8097 -1.2019
 7899SOL    HW225420   6.358   8.026   7.527  0.4330 -0.9145 -0.6048
 7900SOL     OW25421   1.736   5.193   5.871 -0.0965 -0.0055 -0.7694
 7900SOL    HW125422   1.814   5.239   5.903 -0.2976  0.5901 -1.1178
 7900SOL    HW225423   1.662   5.247   5.901 -0.3486 -0.2977 -0.8625
 7901SOL     OW25424   8.358   1.342   9.296 -0.2016 -0.4119 -0.4811
 7901SOL    HW125425   8.339   1.287   9.220  2.8087 -1.7214 -0.4168
 7901SOL    HW225426   8.427   1.402   9.266  0.4259 -0.3747  0.9606
 7902SOL     OW25427   3.535   3.067   5.336  0.1130 -0.3750 -0.1780
 7902SOL    HW125428   3.458   3.034   5.380  1.2860  0.6993  2.9460
 7902SOL    HW225429   3.507   3.150   5.297 -0.3661 -0.0198  0.8848
 7903SOL     OW25430   0.997   2.725   4.680  0.8982 -0.4372 -0.0591
 7903SOL    HW125431   1.083   2.696   4.712  0.6394 -0.7373  0.3833
 7903SOL    HW225432   0.965   2.784   4.748  0.0811 -1.5508  0.5582
 7904SOL     OW25433   6.026   9.447   0.770 -0.5114 -0.0171  0.2458
 7904SOL    HW125434   5.957   9.381   0.773 -0.8737  0.3089 -0.5513
 7904SOL    HW225435   5.985   9.523   0.728  0.1780  0.3718  0.2588
 7905SOL     OW25436   3.760   8.121   7.646  0.2090  0.2882  0.1377
 7905SOL    HW125437   3.731   8.201   7.604  0.3542  0.8524  1.0728
 7905SOL    HW225438   3.723   8.051   7.594  0.4025  0.9562 -0.9238
 7906SOL     OW25439   7.418   9.314   6.998  0.4982 -0.4435 -0.4395
 7906SOL    HW125440   7.343   9.373   6.988  0.9851  0.3846  0.5711
 7906SOL    HW225441   7.461   9.316   6.913 -0.2064 -0.3289 -0.7980
 7907SOL     OW25442   5.142   5.739   9.401 -0.1738 -0.3062 -0.3770
 7907SOL    HW125443   5.061   5.689   9.412  0.2657 -1.1232 -0.7435
 7907SOL    HW225444   5.148   5.794   9.479 -0.0234 -1.7670  0.6713
 7908SOL     OW25445   7.951   1.375   2.262 -0.5560 -0.2111  0.1205
 7908SOL    HW125446   7.930   1.466   2.282 -0.6497 -0.5445  1.6091
 7908SOL    HW225447   7.871   1.327   2.280  0.1166 -0.8744  1.4691
 7909SOL     OW25448   5.874   6.293   6.137  0.1141  0.0493  0.8556
 7909SOL    HW125449   5.782   6.316   6.151 -0.5677 -2.0434  0.0880
 7909SOL    HW225450   5.873   6.199   6.118  2.3523  0.1084  0.1843
 7910SOL     OW25451   2.222   8.321   7.222  0.0363  0.6496 -0.7519
 7910SOL    HW125452   2.232   8.382   7.295 -0.7487  0.1630 -0.2145
 7910SOL    HW225453   2.312   8.305   7.191  0.3886  0.8254  0.1444
 7911SOL     OW25454   9.206   1.510   6.178  0.2244 -0.0856  0.9004
 7911SOL    HW125455   9.286   1.472   6.213  0.6561  1.0074  1.1283
 7911SOL    HW225456   9.137   1.449   6.204  1.0715 -1.5100 -0.0811
 7912SOL     OW25457   4.743   4.994   1.135  0.0151  0.2406 -0.5823
 7912SOL    HW125458   4.826   5.040   1.145  0.3103 -0.2363 -0.8022
 7912SOL    HW225459   4.749   4.954   1.048 -0.2110 -0.2576 -0.3715
 7913SOL     OW25460   9.316   5.239   4.362 -0.0638 -0.4241  0.4036
 7913SOL    HW125461   9.379   5.276   4.424 -0.8863  1.2709  0.3159
 7913SOL    HW225462   9.270   5.171   4.411 -0.6323  0.8194  1.6612
 7914SOL     OW25463   7.923   6.880   3.837  0.9510  0.4341  0.3338
 7914SOL    HW125464   7.900   6.799   3.792  0.6759  0.9787 -0.5422
 7914SOL    HW225465   8.006   6.861   3.882 -0.6835 -1.3181  2.8731
 7915SOL     OW25466   1.360   8.866   3.670  0.1315  0.3958 -0.0069
 7915SOL    HW125467   1.313   8.912   3.600 -0.6613  1.3383  1.1002
 7915SOL    HW225468   1.312   8.785   3.682  0.0942  0.3650 -0.3422
 7916SOL     OW25469   7.990   1.930   8.326 -0.1102  0.4222  0.3240
 7916SOL    HW125470   7.907   1.891   8.296  0.5786 -0.4917 -0.4594
 7916SOL    HW225471   7.985   2.021   8.297  0.2396 -0.2614 -2.1369
 7917SOL     OW25472   6.799   0.184   2.887 -0.1671  0.0859 -0.4905
 7917SOL    HW125473   6.830   0.122   2.954  0.6751  0.5716 -0.4133
 7917SOL    HW225474   6.716   0.148   2.857 -0.7458  0.0320  1.0771
 7918SOL     OW25475   8.750   9.122   5.047  0.5216 -0.3214 -0.1984
 7918SOL    HW125476   8.675   9.068   5.071 -0.2716  1.2610  1.1596
 7918SOL    HW225477   8.824   9.084   5.095  0.0062 -0.3070  0.6347
 7919SOL     OW25478   4.508   6.011   2.609  0.0032 -0.1356  0.2328
 7919SOL    HW125479   4.545   5.932   2.570  0.0148  0.5910 -1.3136
 7919SOL    HW225480   4.414   5.994   2.614 -0.1432  0.1493 -1.1479
 7920SOL     OW25481   1.630   0.839   5.751  0.0959  0.4863  0.0914
 7920SOL    HW125482   1.583   0.878   5.677 -0.0698 -0.0123 -0.0693
 7920SOL    HW225483   1.621   0.903   5.822 -1.4718  0.0709  0.2955
 7921SOL     OW25484   3.678   9.700   1.629 -0.0796  0.1532 -0.5471
 7921SOL    HW125485   3.716   9.621   1.591  0.0857 -0.5888  1.0831
 7921SOL    HW225486   3.651   9.674   1.717 -1.8217  1.4102 -0.6667
 7922SOL     OW25487   3.219   2.182   3.825 -0.1862  0.4043 -0.7648
 7922SOL    HW125488   3.202   2.172   3.731 -0.9546 -4.4688 -0.3633
 7922SOL    HW225489   3.133   2.175   3.866  0.3859 -0.1035  0.4027
 7923SOL     OW25490   6.364   9.619   9.681 -0.2121  0.0072  0.7984
 7923SOL    HW125491   6.340   9.533   9.648 -2.2020  1.6097 -2.4575
 7923SOL    HW225492   6.292   9.644   9.740 -1.1212  0.4978 -0.4771
 7924SOL     OW25493   5.755   9.127   0.107  0.2693 -0.6483  0.4176
 7924SOL    HW125494   5.737   9.081   0.189 -2.4982 -1.8266 -0.7480
 7924SOL    HW225495   5.728   9.066   0.038  1.7216  0.6265 -1.3877
 7925SOL     OW25496   5.102   5.141   8.315 -0.2938 -0.0554 -0.7453
 7925SOL    HW125497   5.119   5.198   8.390 -0.9118 -0.2676 -0.4341
 7925SOL    HW225498   5.082   5.056   8.354 -0.2411 -0.2638 -1.1708
 7926SOL     OW25499   7.933   8.913   7.477 -0.2122  0.1238  0.0279
 7926SOL    HW125500   8.005   8.961   7.436 -0.1635 -1.5069 -1.9617
 7926SOL    HW225501   7.854   8.960   7.449 -0.1308 -0.5331 -1.3770
 7927SOL     OW25502   3.839   8.366   2.911 -0.2352  0.1023 -0.2263
 7927SOL    HW125503   3.878   8.328   2.833  1.1140  1.0680 -0.0576
 7927SOL    HW225504   3.880   8.320   2.984 -1.0542 -0.3922 -0.0743
 7928SOL     OW25505   7.933   0.103   0.576 -0.3386  0.0811  0.1657
 7928SOL    HW125506   7.879   0.050   0.635  0.6331  0.3751  1.3634
 7928SOL    HW225507   7.881   0.111   0.497 -1.2044 -1.2936  0.5534
 7929SOL     OW25508   6.426   0.459   5.752  0.1140  0.2164  0.1668
 7929SOL    HW125509   6.448   0.368   5.733 -0.8604 -0.1149  0.5605
 7929SOL    HW225510   6.373   0.455   5.832 -0.5138  1.0630 -0.1867
 7930SOL     OW25511   4.617   6.990   2.574 -0.1279  0.4399 -0.3377
 7930SOL    HW125512   4.674   7.008   2.499 -0.4953 -0.1871 -0.7730
 7930SOL    HW225513   4.669   6.931   2.629 -0.6269 -0.8007 -1.1323
 7931SOL     OW25514   8.332   8.235   5.901 -0.1928  0.2270 -0.1331
 7931SOL    HW125515   8.369   8.151   5.876  0.7372  1.1516 -2.0902
 7931SOL    HW225516   8.274   8.258   5.829  1.1767  2.1800 -0.7060
 7932SOL     OW25517   8.184   4.295   4.582  0.1038 -0.2058  0.1682
 7932SOL    HW125518   8.243   4.242   4.636  1.1845  0.0192 -0.7621
 7932SOL    HW225519   8.120   4.329   4.644 -1.2234 -3.3171  0.6680
 7933SOL     OW25520   1.741   5.617   9.327  0.5334  0.5793  0.1551
 7933SOL    HW125521   1.760   5.710   9.342 -1.9753  1.5540 -2.0214
 7933SOL    HW225522   1.705   5.586   9.410  0.3051  1.8847  0.5627
 7934SOL     OW25523   0.199   1.620   7.516  0.5535  0.5918  0.1408
 7934SOL    HW125524   0.210   1.525   7.507  1.2600  0.6513  0.3142
 7934SOL    HW225525   0.135   1.644   7.449 -0.5629 -0.1886  0.8923
 7935SOL     OW25526   2.175   1.934   2.076 -0.7281  0.0464  0.1917
 7935SOL    HW125527   2.125   1.971   2.148 -1.8960  0.0707 -0.5963
 7935SOL    HW225528   2.108   1.903   2.014  0.2363 -0.5915 -0.5608
 7936SOL     OW25529   7.043   9.567   2.779 -0.2323 -0.2952  0.1490
 7936SOL    HW125530   7.049   9.478   2.815  1.8030  0.2280  1.2839
 7936SOL    HW225531   7.131   9.602   2.788  0.0510  0.5064 -4.0094
 7937SOL     OW25532   7.868   8.581   4.359  0.0382  0.0436  0.2405
 7937SOL    HW125533   7.864   8.486   4.368  1.2929  0.0457  1.0865
 7937SOL    HW225534   7.859   8.614   4.449 -1.3510  0.7905 -0.1424
 7938SOL     OW25535   5.536   0.930   3.798  0.1906 -0.2074  0.1804
 7938SOL    HW125536   5.608   0.958   3.741 -0.7583  0.8567 -0.5428
 7938SOL    HW225537   5.571   0.939   3.887  0.9536  0.3243 -0.1643
 7939SOL     OW25538   8.361   6.701   4.511  0.5865  0.0906  0.4837
 7939SOL    HW125539   8.337   6.782   4.466  3.6882  2.1358  2.1996
 7939SOL    HW225540   8.301   6.696   4.586 -0.7757 -0.2479 -0.5781
 7940SOL     OW25541   9.644   3.069   3.851 -0.0247 -0.1612 -0.8525
 7940SOL    HW125542   9.666   3.027   3.767 -0.3811 -1.3114 -0.3872
 7940SOL    HW225543   9.553   3.095   3.842 -0.0806 -0.3379 -0.8128
 7941SOL     OW25544   2.957   2.927   5.452  0.0687 -0.2008  0.0859
 7941SOL    HW125545   2.881   2.872   5.433  0.3219 -0.5752  0.1537
 7941SOL    HW225546   2.969   2.920   5.547  0.1498 -0.0960  0.0830
 7942SOL     OW25547   8.591   1.316   1.008 -0.1344 -0.1265  0.0793
 7942SOL    HW125548   8.537   1.373   1.063  0.3069 -1.4256  1.9673
 7942SOL    HW225549   8.604   1.237   1.061 -1.4955 -2.4612 -2.7284
 7943SOL     OW25550   2.827   6.200   7.667  0.3810 -0.2842 -0.1397
 7943SOL    HW125551   2.885   6.181   7.741 -0.4100  0.5744  0.7388
 7943SOL    HW225552   2.831   6.295   7.657 -2.0116  0.0073  0.9822
 7944SOL     OW25553   5.203   2.553   1.366  0.2141  0.4166  0.5629
 7944SOL    HW125554   5.223   2.558   1.460  0.2989  1.1389  0.5172
 7944SOL    HW225555   5.136   2.485   1.359  1.5298 -0.9714  0.9085
 7945SOL     OW25556   3.916   5.115   6.867 -0.7342 -0.2579 -0.1950
 7945SOL    HW125557   3.900   5.033   6.913 -1.4015  0.5812  1.1359
 7945SOL    HW225558   3.973   5.165   6.926  0.3005 -0.0457 -1.3221
 7946SOL     OW25559   6.910   6.143   3.130  0.1258  0.4942  0.1342
 7946SOL    HW125560   6.822   6.167   3.100 -0.6129 -1.3641  0.6954
 7946SOL    HW225561   6.896   6.104   3.216  0.8833 -3.6799 -1.4183
 7947SOL     OW25562   6.573   3.747   8.926 -0.0239 -0.1569 -0.0601
 7947SOL    HW125563   6.648   3.689   8.939  0.1554 -0.0626 -0.6467
 7947SOL    HW225564   6.499   3.700   8.964  0.5659  0.3629  1.8516
 7948SOL     OW25565   6.474   5.540   1.151 -0.2670 -0.8748 -0.1285
 7948SOL    HW125566   6.419   5.618   1.147  0.1371 -0.5647  0.2685
 7948SOL    HW225567   6.553   5.569   1.197 -0.5040 -1.7433  0.8739
 7949SOL     OW25568   2.726   6.320   8.404  0.1782 -0.2848 -0.6703
 7949SOL    HW125569   2.716   6.395   8.463 -0.9383 -1.1011  0.2221
 7949SOL    HW225570   2.788   6.350   8.338 -0.4170  1.5111 -0.4767
 7950SOL     OW25571   9.671   2.405   2.578  0.3218 -0.0993  0.1771
 7950SOL    HW125572   9.718   2.323   2.563  1.1519  0.5546 -0.9333
 7950SOL    HW225573   9.735   2.473   2.557 -0.9341  0.8200 -0.8007
 7951SOL     OW25574   3.683   0.085   5.603  0.4488  0.5501  0.2726
 7951SOL    HW125575   3.730   0.046   5.677  2.8448  1.1284 -0.8345
 7951SOL    HW225576   3.691   0.180   5.618 -1.8115  0.7086  0.8506
 7952SOL     OW25577   2.924   6.003   6.454  0.9579 -0.1635 -0.3171
 7952SOL    HW125578   2.919   5.908   6.463  0.8647 -0.1696 -0.4308
 7952SOL    HW225579   2.941   6.035   6.543  2.5398 -0.3839 -0.5255
 7953SOL     OW25580   7.893   4.092   3.598 -0.0421 -0.7541 -0.2960
 7953SOL    HW125581   7.988   4.087   3.610 -0.0928 -1.7765 -0.2115
 7953SOL    HW225582   7.871   4.013   3.550 -1.0120 -1.2103  0.8383
 7954SOL     OW25583   1.541   1.465   4.133  0.2595  0.0304 -0.1441
 7954SOL    HW125584   1.628   1.439   4.163  1.0109  1.1062 -1.2861
 7954SOL    HW225585   1.481   1.404   4.176  1.5043 -0.2295  1.2764
 7955SOL     OW25586   1.536   0.355   9.485 -0.1841 -0.0033  0.2088
 7955SOL    HW125587   1.481   0.310   9.549  1.1133  0.3369  1.6145
 7955SOL    HW225588   1.534   0.299   9.408 -1.2507 -0.7741  0.7765
 7956SOL     OW25589   8.024   2.921   7.345 -0.5997  0.4170 -0.4018
 7956SOL    HW125590   7.935   2.911   7.311 -0.9762  0.5307  0.5053
 7956SOL    HW225591   8.034   3.015   7.360 -0.5586  0.3363  0.0896
 7957SOL     OW25592   7.439   0.479   5.437  0.2657 -0.3174  0.1126
 7957SOL    HW125593   7.510   0.419   5.462  0.4071 -0.1808  0.0436
 7957SOL    HW225594   7.391   0.495   5.518 -0.7040 -1.7376 -0.1479
 7958SOL     OW25595   3.490   5.244   9.564  0.2288  0.8816 -0.2429
 7958SOL    HW125596   3.506   5.326   9.610  0.4466  0.9459 -0.4282
 7958SOL    HW225597   3.399   5.249   9.536  0.1360  0.9011  0.0603
 7959SOL     OW25598   9.353   4.100   5.579  0.5156  0.1779 -0.1810
 7959SOL    HW125599   9.313   4.183   5.606 -0.1418 -0.3896  0.6272
 7959SOL    HW225600   9.301   4.073   5.503  0.8166  0.5519 -0.5337
 7960SOL     OW25601   1.855   6.970   7.244 -0.1571  0.1657 -0.0669
 7960SOL    HW125602   1.805   6.892   7.217 -0.2946  0.6639 -1.3258
 7960SOL    HW225603   1.807   7.003   7.320  0.9743 -2.0098  1.7112
 7961SOL     OW25604   3.383   3.712   6.374 -0.0388 -0.4329 -0.3690
 7961SOL    HW125605   3.403   3.754   6.291 -0.0612  0.5016  0.0836
 7961SOL    HW225606   3.384   3.618   6.355 -0.3513 -0.2174 -1.4841
 7962SOL     OW25607   7.658   0.837   7.375  0.3277  0.0415 -0.0100
 7962SOL    HW125608   7.672   0.768   7.440  2.8162  1.0460  0.6064
 7962SOL    HW225609   7.708   0.808   7.298  0.7358  0.7600 -0.0250
 7963SOL     OW25610   0.314   9.168   7.132  0.5677  0.0431  0.7279
 7963SOL    HW125611   0.357   9.226   7.195  0.4853 -0.4663  1.2612
 7963SOL    HW225612   0.385   9.132   7.079  0.5828  0.9717  0.0892
 7964SOL     OW25613   8.059   0.538   1.735 -0.5688  0.0907 -0.1215
 7964SOL    HW125614   7.990   0.502   1.791 -0.8384  0.4846 -0.2002
 7964SOL    HW225615   8.043   0.632   1.734  0.4450  0.2824  0.5047
 7965SOL     OW25616   2.179   4.136   0.637  1.0198  0.5302 -0.3723
 7965SOL    HW125617   2.237   4.077   0.589  2.1006  2.1725 -1.1507
 7965SOL    HW225618   2.134   4.187   0.570 -1.5163 -0.7887  0.2056
 7966SOL     OW25619   6.604   4.213   8.292 -0.7470  0.1608  0.3274
 7966SOL    HW125620   6.691   4.188   8.325 -1.2054 -0.4010  1.1532
 7966SOL    HW225621   6.596   4.306   8.314 -0.8092 -0.0679  1.3022
 7967SOL     OW25622   7.023   0.942   1.437  0.4988 -0.3161  0.6783
 7967SOL    HW125623   7.002   0.859   1.480 -0.3692 -0.6050 -0.2649
 7967SOL    HW225624   7.033   1.004   1.508  1.0110 -1.1946  1.3948
 7968SOL     OW25625   0.125   0.126   8.554  0.4552 -0.1925  0.4535
 7968SOL    HW125626   0.056   0.189   8.531  2.1861  1.9313  0.7169
 7968SOL    HW225627   0.200   0.153   8.501  0.7416 -3.4450 -1.0863
 7969SOL     OW25628   7.497   6.705   3.614  0.7582  0.1375 -0.6339
 7969SOL    HW125629   7.565   6.719   3.680  1.5667  0.4731 -1.5213
 7969SOL    HW225630   7.478   6.611   3.617 -0.3406  0.3671  1.1423
 7970SOL     OW25631   9.041   2.000   8.932 -0.3883 -0.0506 -0.2190
 7970SOL    HW125632   8.995   2.084   8.931 -0.1893  0.0550 -1.2706
 7970SOL    HW225633   8.972   1.934   8.925 -0.5763 -0.0140  0.9893
 7971SOL     OW25634   0.770   4.980   7.475  0.0462 -0.0858 -0.1892
 7971SOL    HW125635   0.759   5.041   7.403 -0.3756  0.3268  0.2194
 7971SOL    HW225636   0.722   5.019   7.548  1.8123  0.3496  0.8183
 7972SOL     OW25637   4.227   5.194   8.191  0.3084 -0.3163  0.0894
 7972SOL    HW125638   4.248   5.133   8.262  0.1548  0.0175  0.4234
 7972SOL    HW225639   4.311   5.210   8.148  0.8668  1.3519  1.6934
 7973SOL     OW25640   1.005   0.681   4.048  0.1596 -0.3190 -0.1553
 7973SOL    HW125641   0.921   0.686   4.093  0.4515  0.3815  0.3441
 7973SOL    HW225642   1.019   0.770   4.014  1.4219  0.0127  1.1408
 7974SOL     OW25643   2.306   1.470   2.402 -0.1544 -0.0165 -0.4428
 7974SOL    HW125644   2.342   1.471   2.491 -0.6348 -0.2244 -0.2414
 7974SOL    HW225645   2.310   1.561   2.373 -2.3608  0.5536  0.7765
 7975SOL     OW25646   8.920   1.322   5.154  0.5317 -0.6639  0.7709
 7975SOL    HW125647   8.979   1.282   5.090  1.1779  3.7833 -1.8952
 7975SOL    HW225648   8.973   1.329   5.234  1.2390 -2.5898  0.5194
 7976SOL     OW25649   1.375   5.880   7.081 -0.0969  0.1606  0.2406
 7976SOL    HW125650   1.337   5.800   7.118  0.6148  0.0659  0.7889
 7976SOL    HW225651   1.303   5.922   7.035 -0.2510 -1.3157 -0.9405
 7977SOL     OW25652   5.021   8.625   7.331 -0.0905 -0.3479  0.6019
 7977SOL    HW125653   5.116   8.616   7.338 -0.1434 -0.4485  1.3200
 7977SOL    HW225654   5.003   8.714   7.360 -0.0964  0.1633 -0.9077
 7978SOL     OW25655   0.892   6.984   3.150 -0.0868  0.4809 -0.5469
 7978SOL    HW125656   0.807   7.000   3.191 -0.5963  2.9745 -2.3279
 7978SOL    HW225657   0.947   6.949   3.220 -1.3084  3.0675  1.9005
 7979SOL     OW25658   3.825   7.537   0.767 -0.2519 -0.3665  0.5666
 7979SOL    HW125659   3.912   7.509   0.795  0.4929 -0.8772 -2.0407
 7979SOL    HW225660   3.818   7.628   0.796  0.7160 -0.6136  1.6626
 7980SOL     OW25661   6.537   2.172   4.905  0.0309 -0.5650  0.1733
 7980SOL    HW125662   6.464   2.141   4.960 -2.5052  2.3128 -1.2493
 7980SOL    HW225663   6.609   2.184   4.966 -1.5809 -0.8208  2.2539
 7981SOL     OW25664   6.289   8.440   1.491 -0.6181 -0.3241 -0.1643
 7981SOL    HW125665   6.349   8.474   1.557  0.1803 -1.1447 -0.4471
 7981SOL    HW225666   6.258   8.357   1.527  0.1965 -1.0210 -0.9895
 7982SOL     OW25667   0.719   6.381   2.956 -0.2552 -0.4514  0.0176
 7982SOL    HW125668   0.685   6.470   2.950 -0.4119 -0.5027  0.1382
 7982SOL    HW225669   0.661   6.337   3.019  0.3808 -0.3742  0.6755
 7983SOL     OW25670   9.071   3.836   1.119  0.6676  0.3380  0.0404
 7983SOL    HW125671   9.151   3.886   1.134  1.0035  0.4358 -1.8483
 7983SOL    HW225672   9.003   3.902   1.107  0.7159  0.2938 -0.4664
 7984SOL     OW25673   7.011   3.160   0.601 -0.0462  0.5081  0.2222
 7984SOL    HW125674   7.062   3.222   0.549 -0.7114  0.7355 -0.1592
 7984SOL    HW225675   7.077   3.106   0.644  0.5332 -0.5074 -1.8088
 7985SOL     OW25676   1.040   4.648   8.084  0.3759  0.7321 -0.6327
 7985SOL    HW125677   1.045   4.589   8.009 -2.5657 -1.0579  0.3689
 7985SOL    HW225678   1.114   4.624   8.139  0.5014 -0.4909 -1.3065
 7986SOL     OW25679   2.539   6.930   3.666 -0.0398  0.2119  0.2226
 7986SOL    HW125680   2.558   6.987   3.592 -1.2730  1.3603  0.7378
 7986SOL    HW225681   2.568   6.843   3.639  1.4625  0.9781 -0.7757
 7987SOL     OW25682   2.922   4.909   8.488 -0.1104 -0.0541  0.2746
 7987SOL    HW125683   2.920   4.994   8.531  2.4597 -0.0404  0.5215
 7987SOL    HW225684   2.976   4.854   8.546 -0.4116 -1.3780 -0.6615
 7988SOL     OW25685   1.721   0.318   1.198  0.0405 -0.1978  0.7978
 7988SOL    HW125686   1.749   0.262   1.125  0.5132 -0.0336  0.8518
 7988SOL    HW225687   1.732   0.407   1.164 -0.3368 -0.1291  0.8517
 7989SOL     OW25688   1.162   8.013   7.833 -0.3978  0.0295 -0.0509
 7989SOL    HW125689   1.249   8.021   7.872 -0.1567 -0.9460 -0.3605
 7989SOL    HW225690   1.134   8.103   7.818  0.3680  0.3664  0.4656
 7990SOL     OW25691   1.730   3.794   8.618  0.0469  0.2250  0.3157
 7990SOL    HW125692   1.635   3.789   8.612  0.1158 -0.3554 -0.4313
 7990SOL    HW225693   1.747   3.829   8.706 -0.7960 -2.5848  1.7187
 7991SOL     OW25694   8.345   1.469   7.287 -0.2520 -0.3789  0.0882
 7991SOL    HW125695   8.367   1.534   7.354 -2.4611 -0.3836  0.9011
 7991SOL    HW225696   8.285   1.515   7.228  1.0395 -0.6255 -1.4732
 7992SOL     OW25697   8.134   4.772   8.570 -0.1847 -0.1555  0.1446
 7992SOL    HW125698   8.180   4.705   8.620  2.1114  0.9218 -0.4150
 7992SOL    HW225699   8.149   4.749   8.478 -0.0316  0.6912 -0.0510
 7993SOL     OW25700   1.384   9.194   1.938  0.2770 -0.1988  0.1508
 7993SOL    HW125701   1.468   9.239   1.929  0.0894  0.7285  2.3346
 7993SOL    HW225702   1.407   9.107   1.971  0.4157 -0.0204  0.5348
 7994SOL     OW25703   3.653   3.159   7.722 -0.1301 -0.0222  0.4121
 7994SOL    HW125704   3.639   3.076   7.768  0.6903  0.9887  2.6219
 7994SOL    HW225705   3.569   3.178   7.681 -0.9954 -0.8972  1.6977
 7995SOL     OW25706   8.766   8.950   8.442 -0.3988  0.4512 -0.1771
 7995SOL    HW125707   8.817   9.005   8.382  0.4570 -0.1642 -0.0285
 7995SOL    HW225708   8.786   8.986   8.529  0.1713 -0.0748 -0.0777
 7996SOL     OW25709   2.860   7.562   8.980 -0.4155 -0.2701 -0.0210
 7996SOL    HW125710   2.767   7.571   9.003 -0.6973 -1.2110 -0.7289
 7996SOL    HW225711   2.882   7.645   8.939 -1.0932 -0.2164 -0.2989
 7997SOL     OW25712   8.751   6.914   0.244  0.1327  0.1455  0.0269
 7997SOL    HW125713   8.696   6.839   0.225  1.4690 -0.6793 -0.7421
 7997SOL    HW225714   8.839   6.888   0.214  1.2422  0.8646  2.3851
 7998SOL     OW25715   7.658   8.620   5.827 -0.2612  0.0590 -0.1383
 7998SOL    HW125716   7.696   8.538   5.795 -0.4554 -0.3333  0.5962
 7998SOL    HW225717   7.592   8.643   5.762 -1.2832 -1.1950  0.3911
 7999SOL     OW25718   7.349   5.534   1.177 -0.1712  0.2833 -0.0409
 7999SOL    HW125719   7.431   5.565   1.139  0.7207  0.5584  1.9701
 7999SOL    HW225720   7.364   5.442   1.199 -0.4052  0.3145  0.2751
 8000SOL     OW25721   4.129   5.865   6.673 -0.2421  0.0288  0.4685
 8000SOL    HW125722   4.142   5.807   6.598 -2.0298 -0.7311  0.6816
 8000SOL    HW225723   4.127   5.953   6.635 -0.1228 -0.2689 -0.2476
 8001SOL     OW25724   6.754   9.456   6.497 -0.2250  0.0444  0.0056
 8001SOL    HW125725   6.772   9.477   6.588  0.6687  0.3163 -0.2271
 8001SOL    HW225726   6.680   9.512   6.474  0.7835  1.4327  0.0058
 8002SOL     OW25727   8.297   3.896   7.872  0.6493  0.2963 -0.4559
 8002SOL    HW125728   8.306   3.991   7.862 -0.2448  0.2662 -1.7585
 8002SOL    HW225729   8.248   3.885   7.954 -0.0186  1.0039 -0.7446
 8003SOL     OW25730   6.942   8.972   5.132  0.1537 -0.5242  0.6015
 8003SOL    HW125731   7.033   8.946   5.116 -0.3215 -2.0614  0.2196
 8003SOL    HW225732   6.892   8.922   5.068 -0.7739  2.5053 -1.2746
 8004SOL     OW25733   0.227   7.103   1.327 -0.0482  0.0595 -0.3167
 8004SOL    HW125734   0.135   7.076   1.323 -0.0274 -0.0034 -0.3546
 8004SOL    HW225735   0.272   7.029   1.367  0.2190 -0.4732 -1.5738
 8005SOL     OW25736   7.574   5.676   3.389 -0.7767  0.2661 -0.5132
 8005SOL    HW125737   7.490   5.635   3.370 -1.0935  0.7484 -0.1687
 8005SOL    HW225738   7.618   5.613   3.447 -0.9792  0.1037 -0.5354
 8006SOL     OW25739   4.736   7.918   4.432 -0.3061 -0.4010 -0.6055
 8006SOL    HW125740   4.710   7.833   4.468  2.7265 -0.3747  2.0744
 8006SOL    HW225741   4.825   7.905   4.400 -0.1711  1.5081 -1.1638
 8007SOL     OW25742   4.001   9.222   9.414  0.2480 -0.0033  0.3314
 8007SOL    HW125743   3.942   9.240   9.341  1.0650  0.5415 -0.2081
 8007SOL    HW225744   4.075   9.177   9.374  0.1777 -0.7714  1.0191
 8008SOL     OW25745   8.183   0.216   2.606  0.4699 -0.5478 -0.0299
 8008SOL    HW125746   8.117   0.146   2.612 -0.6923  0.5710  1.2500
 8008SOL    HW225747   8.160   0.264   2.526  0.5931 -0.9889 -0.3308
 8009SOL     OW25748   7.606   3.605   2.777 -0.1279  0.6081 -0.0881
 8009SOL    HW125749   7.609   3.655   2.696  0.6088  1.4033  0.4171
 8009SOL    HW225750   7.698   3.584   2.795 -0.3123  0.1945  0.3926
 8010SOL     OW25751   2.474   6.906   1.274 -0.1480 -0.2740 -0.1461
 8010SOL    HW125752   2.418   6.972   1.314 -1.2485 -1.6539  0.7128
 8010SOL    HW225753   2.514   6.861   1.348 -0.1772 -1.1899 -0.6702
 8011SOL     OW25754   0.774   8.333   5.067  0.1799  0.4862  0.0476
 8011SOL    HW125755   0.714   8.402   5.035  2.9546  3.7153  1.2056
 8011SOL    HW225756   0.748   8.319   5.158 -0.2733  0.0920 -0.1366
 8012SOL     OW25757   2.073   9.054   4.331 -0.1232 -0.0440  0.6162
 8012SOL    HW125758   2.014   9.084   4.401 -0.5601 -1.4633  0.8827
 8012SOL    HW225759   2.015   9.017   4.265  0.4235 -1.3394  0.8200
 8013SOL     OW25760   6.167   2.065   1.433  0.8505 -0.1291 -0.3118
 8013SOL    HW125761   6.097   2.116   1.392 -0.0018 -0.9364  0.1237
 8013SOL    HW225762   6.191   2.116   1.511 -1.1770 -1.1750  1.0738
 8014SOL     OW25763   1.039   3.100   6.003 -0.9390 -0.1446  0.1317
 8014SOL    HW125764   1.089   3.176   6.033 -0.9225 -0.1159  0.0289
 8014SOL    HW225765   1.029   3.113   5.909  0.5594 -1.1428 -0.1969
 8015SOL     OW25766   8.072   1.259   0.586 -0.2659  0.7297 -0.1291
 8015SOL    HW125767   8.129   1.311   0.530  0.7515  1.6065  1.6187
 8015SOL    HW225768   8.072   1.306   0.670  0.8912 -2.1580  1.6295
 8016SOL     OW25769   5.072   5.519   0.857 -0.4354 -0.0368  0.5215
 8016SOL    HW125770   5.042   5.499   0.769 -1.0071 -1.7204  1.0742
 8016SOL    HW225771   5.012   5.587   0.888  0.1077  0.9763 -0.5491
 8017SOL     OW25772   8.380   1.792   0.325 -0.1609  0.0317  0.3272
 8017SOL    HW125773   8.406   1.862   0.265 -0.0559  0.9603  1.4084
 8017SOL    HW225774   8.293   1.817   0.355  0.4950  0.5415  1.8958
 8018SOL     OW25775   3.963   6.440   3.593  0.3496 -0.1414  0.5946
 8018SOL    HW125776   4.029   6.439   3.662 -0.5408 -0.9495  1.4733
 8018SOL    HW225777   3.904   6.367   3.615 -0.8923  0.6209 -0.0759
 8019SOL     OW25778   8.559   8.257   2.536  0.1763  0.5728 -0.6400
 8019SOL    HW125779   8.509   8.299   2.606  0.8565 -0.1088  0.2812
 8019SOL    HW225780   8.594   8.178   2.577  0.9116  0.3653 -1.6515
 8020SOL     OW25781   3.405   3.720   6.679 -0.1511 -0.5060 -0.3785
 8020SOL    HW125782   3.394   3.761   6.593 -0.7984 -1.6300 -0.8635
 8020SOL    HW225783   3.318   3.686   6.700 -0.1082  0.1742  0.9621
 8021SOL     OW25784   0.659   1.077   4.350  0.1008 -1.0121 -0.2386
 8021SOL    HW125785   0.741   1.029   4.355 -0.0422 -1.2692 -0.3645
 8021SOL    HW225786   0.603   1.024   4.294 -0.5582 -1.4400  0.7937
 8022SOL     OW25787   3.040   4.630   2.603 -0.3554 -0.1956 -0.4304
 8022SOL    HW125788   3.061   4.589   2.519  1.0528  0.6231 -0.4926
 8022SOL    HW225789   3.092   4.582   2.667  0.8129  1.0455 -0.4212
 8023SOL     OW25790   4.592   1.522   1.650  0.6348 -0.0298  0.0539
 8023SOL    HW125791   4.605   1.464   1.726  1.9402 -1.1445 -0.9712
 8023SOL    HW225792   4.538   1.593   1.684 -2.3372 -2.5163  1.0658
 8024SOL     OW25793   8.565   3.804   7.025  0.7364  0.2882  0.0316
 8024SOL    HW125794   8.587   3.870   6.960 -0.4300  0.6190 -0.0497
 8024SOL    HW225795   8.470   3.806   7.031  0.5703 -2.0194 -0.6580
 8025SOL     OW25796   7.000   6.626   2.560 -0.2700 -0.6216 -0.2317
 8025SOL    HW125797   6.958   6.629   2.646  2.9350 -0.4225  1.4525
 8025SOL    HW225798   7.033   6.537   2.552  0.7952 -0.2109 -0.5448
 8026SOL     OW25799   6.691   1.258   6.570 -0.2611  0.2119 -0.6584
 8026SOL    HW125800   6.686   1.290   6.660 -0.7684  1.7049 -1.1822
 8026SOL    HW225801   6.772   1.295   6.536  0.2354 -0.8392 -0.6586
 8027SOL     OW25802   7.169   3.916   1.564 -0.5063  0.0840  0.4707
 8027SOL    HW125803   7.107   3.947   1.497  0.7692  0.3748 -0.6077
 8027SOL    HW225804   7.218   3.846   1.521  0.8911  0.8174  0.8042
 8028SOL     OW25805   1.830   2.727   4.651  0.2378  0.5514  0.6949
 8028SOL    HW125806   1.877   2.750   4.731 -0.4226  1.6079  0.8099
 8028SOL    HW225807   1.841   2.633   4.642  0.7603  0.5037  1.7468
 8029SOL     OW25808   2.197   4.164   6.553  0.0191 -0.3005  0.0393
 8029SOL    HW125809   2.198   4.210   6.469 -1.1775 -0.6596 -0.1740
 8029SOL    HW225810   2.173   4.232   6.617  0.1030 -0.2163 -0.0189
 8030SOL     OW25811   0.831   4.019   9.253 -0.3103  0.5452  0.1134
 8030SOL    HW125812   0.778   3.948   9.217 -1.3424  1.2562  0.1915
 8030SOL    HW225813   0.887   3.977   9.318 -1.7400 -0.0334  1.0073
 8031SOL     OW25814   6.193   5.151   4.173 -0.4176  0.6435  0.5965
 8031SOL    HW125815   6.226   5.196   4.251 -0.0770  0.6413  0.4548
 8031SOL    HW225816   6.110   5.195   4.153 -0.5476  0.5897  1.0047
 8032SOL     OW25817   8.729   3.287   0.546  0.3178  0.1102  0.2737
 8032SOL    HW125818   8.769   3.352   0.489 -0.2450  0.0483 -0.2021
 8032SOL    HW225819   8.692   3.339   0.618  0.8583  0.2066  0.4857
 8033SOL     OW25820   8.793   5.558   7.329  0.2343 -0.1910 -0.1295
 8033SOL    HW125821   8.720   5.607   7.365  0.8213  1.2358 -0.8034
 8033SOL    HW225822   8.795   5.582   7.236  0.3386 -1.7723 -0.5756
 8034SOL     OW25823   2.779   5.974   6.205  0.4693  0.0781 -0.4172
 8034SOL    HW125824   2.705   5.931   6.250  1.9637 -1.8553  0.3290
 8034SOL    HW225825   2.832   6.011   6.276 -0.0155  1.9721 -0.9825
 8035SOL     OW25826   5.348   0.585   7.349  0.4049 -0.0421 -0.3701
 8035SOL    HW125827   5.391   0.509   7.309  1.6073 -0.3188  1.3568
 8035SOL    HW225828   5.286   0.615   7.282  2.3231 -0.4397 -2.4448
 8036SOL     OW25829   1.405   5.077   4.427 -0.6894 -0.1102 -0.7215
 8036SOL    HW125830   1.438   5.010   4.487 -0.4233  1.5833  1.1085
 8036SOL    HW225831   1.454   5.062   4.346  0.3213 -1.2848  0.0694
 8037SOL     OW25832   2.674   9.182   7.775 -0.1218 -0.3712 -0.7596
 8037SOL    HW125833   2.739   9.235   7.821 -0.1075 -1.3154  0.3471
 8037SOL    HW225834   2.595   9.191   7.827  0.7807 -4.2927  1.6795
 8038SOL     OW25835   4.043   2.422   4.638 -0.1113  0.2844 -0.3771
 8038SOL    HW125836   4.086   2.450   4.558  0.4303  3.2342  0.8349
 8038SOL    HW225837   4.011   2.503   4.678 -2.0173 -1.2618  1.4935
 8039SOL     OW25838   0.246   8.081   8.422  0.2880 -0.4940  0.0524
 8039SOL    HW125839   0.279   8.126   8.344  1.5126 -2.2212 -0.4852
 8039SOL    HW225840   0.153   8.070   8.407  0.5231 -0.8513 -1.2169
 8040SOL     OW25841   4.548   4.397   3.213 -0.4828 -0.4904  0.0013
 8040SOL    HW125842   4.501   4.401   3.297 -2.0796  2.2760 -0.8963
 8040SOL    HW225843   4.590   4.483   3.205 -0.4803 -0.6401 -2.0899
 8041SOL     OW25844   3.519   6.882   8.091 -0.3456 -0.1963 -0.0078
 8041SOL    HW125845   3.446   6.820   8.087  1.4170 -2.3544 -1.8867
 8041SOL    HW225846   3.539   6.901   7.999  1.0010  0.9179  0.4712
 8042SOL     OW25847   5.072   8.335   9.589  0.0611 -0.3506 -0.0258
 8042SOL    HW125848   5.135   8.291   9.532  1.4596  1.0650  0.3500
 8042SOL    HW225849   5.100   8.427   9.589 -2.1464  0.3991 -0.0128
 8043SOL     OW25850   5.114   4.455   3.408  0.1794 -0.5549  0.1437
 8043SOL    HW125851   5.131   4.470   3.502  1.5446 -1.2252  0.0298
 8043SOL    HW225852   5.198   4.475   3.366 -0.5237  0.0814 -0.9934
 8044SOL     OW25853   0.518   9.661   7.627 -0.0875 -0.3014 -0.0529
 8044SOL    HW125854   0.544   9.742   7.584 -0.4401 -0.6045 -0.8577
 8044SOL    HW225855   0.440   9.684   7.677  0.1977  0.0041  0.2560
 8045SOL     OW25856   6.418   1.539   5.544 -0.1253  0.3578  0.2363
 8045SOL    HW125857   6.493   1.530   5.485 -1.1297  1.1352 -1.2468
 8045SOL    HW225858   6.403   1.451   5.577  2.7997  0.5574  2.4100
 8046SOL     OW25859   0.545   7.089   6.288  0.0085 -0.4306 -0.4024
 8046SOL    HW125860   0.526   6.995   6.290  0.0560 -0.4528 -0.9719
 8046SOL    HW225861   0.583   7.104   6.202  1.3479 -0.1401  0.2064
 8047SOL     OW25862   8.209   5.902   4.097 -0.0082 -0.2975  0.1931
 8047SOL    HW125863   8.224   5.974   4.036 -0.7284  0.7420  1.1914
 8047SOL    HW225864   8.119   5.874   4.078  0.5326 -1.5264 -0.7449
 8048SOL     OW25865   8.895   3.152   4.222 -0.3983  0.6695  0.0951
 8048SOL    HW125866   8.840   3.226   4.244 -1.4879  0.0689 -0.5322
 8048SOL    HW225867   8.834   3.081   4.204  0.5938 -0.1397 -0.1886
 8049SOL     OW25868   5.963   5.202   6.893 -0.0418 -0.3133  0.1028
 8049SOL    HW125869   5.892   5.172   6.835  1.5586 -1.6890 -1.2383
 8049SOL    HW225870   5.936   5.172   6.980 -0.6078 -1.8288 -0.5498
 8050SOL     OW25871   0.520   2.797   0.152  0.1345  0.1078  0.0614
 8050SOL    HW125872   0.602   2.818   0.196  1.4759 -1.5280 -1.5067
 8050SOL    HW225873   0.512   2.863   0.083 -0.2979  0.7359  0.7012
 8051SOL     OW25874   0.287   7.455   0.465  0.3392  0.1378  0.7367
 8051SOL    HW125875   0.364   7.482   0.415  1.1734 -0.9265  1.4036
 8051SOL    HW225876   0.232   7.533   0.467  1.9370  1.3172  1.2577
 8052SOL     OW25877   8.014   8.718   7.073 -0.2561 -0.4824  0.0770
 8052SOL    HW125878   7.974   8.790   7.025  0.3713 -1.0268 -1.3127
 8052SOL    HW225879   8.108   8.734   7.067 -0.0951 -1.5502 -0.5093
 8053SOL     OW25880   0.437   8.316   5.595  0.3227  0.0885 -0.0144
 8053SOL    HW125881   0.483   8.380   5.541  0.4248  1.0511  1.1680
 8053SOL    HW225882   0.412   8.364   5.674 -0.0649 -1.1954  0.6811
 8054SOL     OW25883   2.037   4.228   6.911 -0.1839 -0.3120  0.3023
 8054SOL    HW125884   2.080   4.150   6.877  0.4765 -1.2314  2.9786
 8054SOL    HW225885   2.100   4.263   6.975 -1.5444  0.9054  1.0208
 8055SOL     OW25886   4.506   3.400   7.714  0.4020  0.7148 -0.1209
 8055SOL    HW125887   4.437   3.376   7.776  0.8355  0.9859  0.4675
 8055SOL    HW225888   4.556   3.320   7.701  0.3542  0.6760 -0.0667
 8056SOL     OW25889   6.699   9.297   1.057  0.1478 -0.2969 -0.3947
 8056SOL    HW125890   6.732   9.250   1.133  0.1797  0.6242  0.1824
 8056SOL    HW225891   6.666   9.229   0.998 -1.8398 -0.9477  1.3583
 8057SOL     OW25892   5.465   7.253   9.057  0.2794  0.0445 -0.0728
 8057SOL    HW125893   5.386   7.208   9.089  0.2148  0.6983  0.7148
 8057SOL    HW225894   5.450   7.345   9.076  0.8814  0.2801 -0.6852
 8058SOL     OW25895   2.223   4.307   6.302  0.4626 -0.0367  0.4287
 8058SOL    HW125896   2.315   4.304   6.278 -0.0912  0.1779 -1.9230
 8058SOL    HW225897   2.207   4.398   6.328  1.2464 -0.4498  2.6224
 8059SOL     OW25898   3.742   6.648   1.428  0.3282 -0.7995 -0.0978
 8059SOL    HW125899   3.830   6.668   1.461 -0.7779  2.2125  1.4723
 8059SOL    HW225900   3.737   6.695   1.345 -0.3534  0.6902  0.7451
 8060SOL     OW25901   7.229   2.586   1.684 -0.3114 -0.3395  0.2481
 8060SOL    HW125902   7.274   2.670   1.677  1.6462 -1.1618  1.9859
 8060SOL    HW225903   7.259   2.536   1.608  0.4579 -0.3183  0.5314
 8061SOL     OW25904   8.831   7.487   0.453 -0.6178  0.1278 -0.2415
 8061SOL    HW125905   8.784   7.565   0.423  1.0773  0.5822 -1.9016
 8061SOL    HW225906   8.924   7.508   0.441 -0.0475 -1.5832  0.7432
 8062SOL     OW25907   0.692   8.753   7.860 -0.5944  0.3613 -0.2264
 8062SOL    HW125908   0.658   8.739   7.949 -0.4581  0.4601 -0.1569
 8062SOL    HW225909   0.747   8.831   7.868 -0.2815  0.1540 -0.3175
 8063SOL     OW25910   1.682   4.370   7.827 -0.2424 -0.2710  0.1594
 8063SOL    HW125911   1.616   4.306   7.852 -0.4160 -0.9010 -1.7868
 8063SOL    HW225912   1.759   4.346   7.878 -2.0399  2.0668  4.5954
 8064SOL     OW25913   2.964   5.063   6.454  0.3223  0.1861 -0.3340
 8064SOL    HW125914   3.016   5.076   6.375  0.0161 -0.8440 -0.7121
 8064SOL    HW225915   2.889   5.012   6.426  0.2012 -0.1842  0.6181
 8065SOL     OW25916   2.607   6.022   7.692  0.1839 -0.1371 -0.5653
 8065SOL    HW125917   2.615   5.939   7.738  2.1945  1.2004  1.7074
 8065SOL    HW225918   2.694   6.062   7.700 -1.0462  2.7058 -0.5020
 8066SOL     OW25919   4.263   7.762   3.375  0.6291  1.3563 -0.3185
 8066SOL    HW125920   4.359   7.761   3.379  0.6545  1.4325 -0.9225
 8066SOL    HW225921   4.239   7.673   3.352  0.6103  1.6370 -1.4050
 8067SOL     OW25922   7.222   6.425   1.777  0.5821 -0.1102  0.1200
 8067SOL    HW125923   7.230   6.481   1.854 -2.7339  1.9295 -0.7889
 8067SOL    HW225924   7.263   6.476   1.707 -1.4914  0.8015 -0.4980
 8068SOL     OW25925   4.104   0.890   8.200 -0.2591  0.4056 -0.4322
 8068SOL    HW125926   4.174   0.882   8.264  0.1134 -0.8946 -0.9807
 8068SOL    HW225927   4.028   0.918   8.251 -0.0534 -0.9216  0.6528
 8069SOL     OW25928   7.996   9.474   3.002 -0.0543  0.0621 -0.0750
 8069SOL    HW125929   7.951   9.424   3.070  1.6013  0.6550  1.5353
 8069SOL    HW225930   7.950   9.558   2.999 -0.6402 -0.2611 -0.2942
 8070SOL     OW25931   1.361   5.589   0.155 -0.4606  0.3207 -0.7405
 8070SOL    HW125932   1.450   5.604   0.124 -0.6979  3.4939 -0.1810
 8070SOL    HW225933   1.366   5.508   0.206  1.8341 -0.1414 -1.6091
 8071SOL     OW25934   3.205   3.841   2.085  0.1413 -0.1328 -0.8572
 8071SOL    HW125935   3.126   3.820   2.035  0.3139 -4.6574  0.2770
 8071SOL    HW225936   3.273   3.854   2.018 -1.1620  2.5110 -1.8016
 8072SOL     OW25937   5.055   6.893   0.756  0.9219  0.0838 -0.1715
 8072SOL    HW125938   5.003   6.868   0.679  0.2261  0.3119  0.2087
 8072SOL    HW225939   5.084   6.810   0.793  0.2517 -0.0822 -0.0087
 8073SOL     OW25940   3.209   1.590   0.050  0.3592 -0.3013 -0.6610
 8073SOL    HW125941   3.224   1.672   0.003  2.0885  0.1735  0.6402
 8073SOL    HW225942   3.274   1.590   0.120 -0.6588 -2.0455  0.3479
 8074SOL     OW25943   9.646   3.687   5.220 -0.6881 -0.7715  0.0554
 8074SOL    HW125944   9.667   3.595   5.234 -0.7300 -0.9764 -1.1727
 8074SOL    HW225945   9.568   3.702   5.274 -0.6960 -1.4557  0.2426
 8075SOL     OW25946   2.018   2.540   6.315 -0.1316 -0.3881 -0.2512
 8075SOL    HW125947   1.951   2.473   6.306 -1.2087  0.6156  0.0681
 8075SOL    HW225948   1.986   2.598   6.384  1.5747 -0.4572  0.6756
 8076SOL     OW25949   4.311   7.313   7.578 -0.2973 -0.0977 -0.0929
 8076SOL    HW125950   4.312   7.408   7.571 -0.0133 -0.0701  0.3188
 8076SOL    HW225951   4.318   7.295   7.672 -1.3115 -0.5140 -0.0801
 8077SOL     OW25952   9.313   1.067   3.664 -0.0835 -0.2854  0.2828
 8077SOL    HW125953   9.383   1.126   3.694 -1.2385  1.8601 -0.9935
 8077SOL    HW225954   9.277   1.029   3.745 -0.9683  2.7692  1.4612
 8078SOL     OW25955   1.588   0.792   7.909  0.4439  0.8268  0.4680
 8078SOL    HW125956   1.518   0.769   7.971 -0.0979  2.9908  0.7188
 8078SOL    HW225957   1.627   0.871   7.945  1.0937  1.3010 -1.2089
 8079SOL     OW25958   3.785   7.088   8.123 -0.0197 -0.0644 -0.1687
 8079SOL    HW125959   3.775   6.994   8.139  0.1110 -0.2610 -1.1360
 8079SOL    HW225960   3.696   7.121   8.118 -0.0687  0.1518  1.6407
 8080SOL     OW25961   8.980   3.800   2.895 -0.1199 -0.1243  0.1125
 8080SOL    HW125962   8.957   3.878   2.944 -1.0794 -1.6174  2.1808
 8080SOL    HW225963   8.901   3.780   2.844  0.3627  0.5918 -0.9554
 8081SOL     OW25964   6.782   8.137   7.949 -0.2468  0.6925 -0.8602
 8081SOL    HW125965   6.717   8.161   8.015 -1.1717 -0.4803 -1.3164
 8081SOL    HW225966   6.756   8.185   7.871  0.4784  1.5820 -0.5753
 8082SOL     OW25967   3.811   5.662   8.366  0.3529 -0.3928  0.0252
 8082SOL    HW125968   3.768   5.731   8.316 -0.3345 -2.4475 -2.4368
 8082SOL    HW225969   3.740   5.620   8.416  0.2850 -0.9370 -0.5179
 8083SOL     OW25970   2.264   5.115   8.563 -0.2233 -0.3061 -0.1063
 8083SOL    HW125971   2.259   5.182   8.632 -0.3463 -0.6255  0.1949
 8083SOL    HW225972   2.320   5.155   8.496 -1.4212  0.6635 -0.5715
 8084SOL     OW25973   8.025   4.554   4.565 -0.1421 -0.2984 -0.3184
 8084SOL    HW125974   8.108   4.600   4.553 -0.1403 -0.0046  0.7167
 8084SOL    HW225975   8.034   4.475   4.512  0.1365  0.5317 -1.5477
 8085SOL     OW25976   5.220   2.537   3.702  0.1503  0.1280 -0.3983
 8085SOL    HW125977   5.130   2.512   3.680 -0.1208  1.3667 -0.7821
 8085SOL    HW225978   5.259   2.563   3.618  0.4384  0.8906 -0.0384
 8086SOL     OW25979   5.635   2.708   3.996  0.5654 -0.4047 -0.2857
 8086SOL    HW125980   5.689   2.629   4.004 -0.1395 -0.7868  0.9693
 8086SOL    HW225981   5.622   2.738   4.086 -1.4700 -0.4620 -0.5127
 8087SOL     OW25982   4.255   5.883   2.660  0.3980  0.2324 -0.5667
 8087SOL    HW125983   4.213   5.905   2.743  1.1522  1.4303 -0.4904
 8087SOL    HW225984   4.182   5.874   2.599 -0.2060 -1.1169  0.2856
 8088SOL     OW25985   5.875   9.372   1.417 -0.0696  0.0308  0.5288
 8088SOL    HW125986   5.952   9.347   1.366 -0.3528 -0.5986  0.3993
 8088SOL    HW225987   5.801   9.336   1.367 -0.4333  0.4573  0.7557
 8089SOL     OW25988   2.459   0.509   2.315 -0.0532 -0.1256  0.2041
 8089SOL    HW125989   2.524   0.572   2.281  0.4745 -0.1006  1.2238
 8089SOL    HW225990   2.464   0.519   2.410 -0.6247 -1.0655  0.3397
 8090SOL     OW25991   9.043   4.402   1.506  0.5268 -0.0051 -0.0275
 8090SOL    HW125992   8.962   4.392   1.456  1.3148 -0.8607 -1.1805
 8090SOL    HW225993   9.070   4.492   1.490 -0.4066  0.4421  0.7476
 8091SOL     OW25994   3.228   7.297   3.923  0.3817  0.4429  0.3056
 8091SOL    HW125995   3.253   7.336   4.007  1.9011 -0.0157  0.0901
 8091SOL    HW225996   3.212   7.372   3.866 -0.2372  0.7527  0.8593
 8092SOL     OW25997   1.451   2.277   5.224  0.3014 -0.5677 -0.2395
 8092SOL    HW125998   1.446   2.371   5.206 -2.5935 -0.6981 -0.7037
 8092SOL    HW225999   1.505   2.270   5.302 -1.3233  1.7669  1.2295
 8093SOL     OW26000   7.916   8.556   2.437  0.2113 -0.5749  0.3377
 8093SOL    HW126001   7.893   8.467   2.411  1.0332 -1.0058  1.0350
 8093SOL    HW226002   7.838   8.588   2.483 -0.8325 -0.2040 -1.5940
 8094SOL     OW26003   2.559   1.299   6.062  0.0270 -0.2890 -0.5581
 8094SOL    HW126004   2.502   1.247   6.117  1.2585 -0.5340  0.5314
 8094SOL    HW226005   2.593   1.237   5.997 -0.6954 -0.1990 -1.0419
 8095SOL     OW26006   4.259   7.050   3.971 -0.7831  0.3707 -0.3380
 8095SOL    HW126007   4.304   7.054   3.887 -1.7483 -3.0763 -1.1596
 8095SOL    HW226008   4.316   6.996   4.026 -0.3140  2.3232  1.2372
 8096SOL     OW26009   7.575   1.183   5.244 -0.1300 -0.3035  0.1961
 8096SOL    HW126010   7.650   1.127   5.267 -0.0490 -0.2567  0.0509
 8096SOL    HW226011   7.611   1.248   5.183 -0.3933 -0.5885 -0.2726
 8097SOL     OW26012   3.269   3.428   8.449  0.2052 -0.1463 -0.5462
 8097SOL    HW126013   3.283   3.490   8.377 -0.7648 -0.3219 -0.8930
 8097SOL    HW226014   3.346   3.439   8.505  0.1982  1.1399 -0.7653
 8098SOL     OW26015   9.014   2.610   2.121  0.6610  0.2125 -0.3850
 8098SOL    HW126016   8.927   2.590   2.086  1.1680 -0.8243 -1.0908
 8098SOL    HW226017   9.011   2.704   2.139  0.4934  0.9622 -3.6683
 8099SOL     OW26018   7.182   2.460   1.163 -0.2738  0.3412  0.5240
 8099SOL    HW126019   7.137   2.407   1.097  0.3994  0.7934 -0.3161
 8099SOL    HW226020   7.251   2.505   1.114  1.6714 -0.9772  1.8863
 8100SOL     OW26021   7.272   5.289   5.593 -0.5519  0.1347 -0.2172
 8100SOL    HW126022   7.317   5.340   5.526 -0.4032  0.0947 -0.1495
 8100SOL    HW226023   7.336   5.282   5.664  0.0817 -1.6171 -0.9125
 8101SOL     OW26024   2.436   6.090   0.455  0.1874 -0.0134  0.2166
 8101SOL    HW126025   2.507   6.028   0.473  0.2935  0.2417  0.6947
 8101SOL    HW226026   2.371   6.073   0.524 -0.7643 -1.0534 -0.9042
 8102SOL     OW26027   9.505   9.269   4.540 -0.1593 -0.4392  0.1424
 8102SOL    HW126028   9.417   9.232   4.547  0.4580 -1.9114  0.3989
 8102SOL    HW226029   9.525   9.299   4.629 -0.4413  0.0302  0.0531
 8103SOL     OW26030   3.124   7.902   2.691 -0.3780  0.3149 -0.4722
 8103SOL    HW126031   3.036   7.912   2.656 -0.1093 -0.9411 -1.5860
 8103SOL    HW226032   3.112   7.861   2.777 -0.8609 -0.5011 -0.9179
 8104SOL     OW26033   4.380   0.832   5.205 -0.1502 -0.8337 -0.0989
 8104SOL    HW126034   4.313   0.853   5.140  0.4375  1.1897 -0.1228
 8104SOL    HW226035   4.331   0.801   5.281 -1.4329  2.7853  0.7443
 8105SOL     OW26036   0.686   2.077   7.937  0.0175  0.4519  0.3876
 8105SOL    HW126037   0.647   2.119   8.014  1.6150  0.3134  1.3171
 8105SOL    HW226038   0.780   2.084   7.951  0.3366 -0.5972 -1.0093
 8106SOL     OW26039   9.532   5.136   3.535  0.5513 -0.2580  0.3078
 8106SOL    HW126040   9.605   5.075   3.549 -0.0618 -0.7046  1.6847
 8106SOL    HW226041   9.460   5.098   3.585 -0.5909  0.2669 -0.8952
 8107SOL     OW26042   7.235   3.363   5.549 -0.6371 -0.2404 -0.0765
 8107SOL    HW126043   7.185   3.374   5.468 -1.1041 -0.1796  0.2181
 8107SOL    HW226044   7.310   3.309   5.523 -1.7408 -1.7936 -0.1761
 8108SOL     OW26045   3.921   3.806   2.412 -0.2421  0.0228 -0.5134
 8108SOL    HW126046   3.942   3.892   2.376  0.7778  0.0564  0.1004
 8108SOL    HW226047   3.963   3.744   2.352  1.9943  0.0976  0.8462
 8109SOL     OW26048   9.431   9.702   3.602  0.0657  0.2243  0.2711
 8109SOL    HW126049   9.446   9.699   3.508 -1.5826  0.5542 -0.0312
 8109SOL    HW226050   9.352   9.650   3.616  0.2833  0.1718  1.4901
 8110SOL     OW26051   5.585   1.616   4.596 -0.1124 -0.4697  0.3419
 8110SOL    HW126052   5.658   1.571   4.637 -0.2304 -0.9009  0.0879
 8110SOL    HW226053   5.509   1.591   4.647 -0.0017  0.5197  1.0237
 8111SOL     OW26054   0.198   9.633   4.961 -0.3961  0.2128  0.3097
 8111SOL    HW126055   0.105   9.640   4.938 -0.0943  0.4526 -0.9472
 8111SOL    HW226056   0.203   9.664   5.051 -1.3998  1.0525  0.1003
 8112SOL     OW26057   2.557   4.525   6.591  0.6519  0.4299 -0.1094
 8112SOL    HW126058   2.568   4.430   6.595 -1.4180  0.0858 -1.4003
 8112SOL    HW226059   2.622   4.554   6.526  0.9270 -0.1765 -0.1088
 8113SOL     OW26060   8.372   2.787   8.091 -0.6161 -0.0673  0.2881
 8113SOL    HW126061   8.353   2.697   8.066 -0.4928  0.0316 -0.1766
 8113SOL    HW226062   8.404   2.828   8.010  0.9631 -0.0601  0.8886
 8114SOL     OW26063   6.963   1.381   1.890  0.4795  0.2517 -0.5108
 8114SOL    HW126064   7.009   1.299   1.911 -1.1380 -0.4403  0.5105
 8114SOL    HW226065   7.027   1.450   1.909  1.3968 -0.7069 -0.0138
 8115SOL     OW26066   7.204   4.275   5.164  0.1389 -0.4975 -0.1402
 8115SOL    HW126067   7.176   4.363   5.137  0.8567 -0.5061 -0.9648
 8115SOL    HW226068   7.139   4.248   5.228  0.8884  1.3454  1.4941
 8116SOL     OW26069   5.483   3.769   8.160  0.0186 -0.6197  0.0325
 8116SOL    HW126070   5.400   3.770   8.207  0.4577  1.3283  0.9103
 8116SOL    HW226071   5.462   3.801   8.072 -0.1531  0.0014  0.2947
 8117SOL     OW26072   4.807   3.369   0.912  0.5891  0.1344  0.5211
 8117SOL    HW126073   4.773   3.306   0.975  1.7102 -1.0179  0.0244
 8117SOL    HW226074   4.890   3.398   0.949  0.8731  0.0440 -0.0286
 8118SOL     OW26075   0.736   8.461   9.053  0.7951  0.0411 -0.2431
 8118SOL    HW126076   0.813   8.421   9.095  0.0289 -0.1532  1.0139
 8118SOL    HW226077   0.703   8.394   8.993 -0.5198 -1.3086  1.8976
 8119SOL     OW26078   2.469   1.500   1.441  0.1127  0.2702  0.0710
 8119SOL    HW126079   2.482   1.460   1.355  1.5672  1.7575 -0.4456
 8119SOL    HW226080   2.437   1.588   1.422  0.0168  0.4668  1.0905
 8120SOL     OW26081   8.396   0.086   4.952  0.4067 -0.5362 -0.1555
 8120SOL    HW126082   8.431   0.007   4.911  1.5436  0.1230 -0.5040
 8120SOL    HW226083   8.471   0.145   4.958 -0.5605  0.7760 -0.5315
 8121SOL     OW26084   1.157   9.500   7.384 -0.2004 -0.0272  0.1743
 8121SOL    HW126085   1.072   9.544   7.382 -1.0650 -1.6280  0.3224
 8121SOL    HW226086   1.179   9.487   7.292 -1.0026 -1.1905  0.1210
 8122SOL     OW26087   2.165   8.641   3.567  0.0238 -0.7130 -0.5961
 8122SOL    HW126088   2.081   8.595   3.570 -1.2237  1.4254 -0.4019
 8122SOL    HW226089   2.147   8.726   3.607  2.5566 -0.5283  0.3536
 8123SOL     OW26090   7.516   0.105   6.971 -0.1547  0.5249 -0.4568
 8123SOL    HW126091   7.511   0.147   7.057  1.7672  1.3757 -0.7064
 8123SOL    HW226092   7.609   0.110   6.947 -0.3880 -1.1190 -1.8895
 8124SOL     OW26093   8.875   0.275   9.216  0.3514  0.2455 -0.1116
 8124SOL    HW126094   8.790   0.241   9.185  0.6230 -0.3271 -0.2372
 8124SOL    HW226095   8.880   0.363   9.177  1.1036 -0.7907 -2.5625
 8125SOL     OW26096   8.024   7.468   0.693  0.6078 -0.4061 -0.3686
 8125SOL    HW126097   8.078   7.403   0.737 -0.1745 -0.8993 -0.1310
 8125SOL    HW226098   8.051   7.552   0.731  1.8772 -0.5403 -0.9432
 8126SOL     OW26099   6.929   7.913   3.263 -0.4403 -0.5263 -0.0728
 8126SOL    HW126100   6.986   7.962   3.323  1.9040 -1.8695 -1.0510
 8126SOL    HW226101   6.868   7.866   3.320 -0.1195  0.4128  1.0830
 8127SOL     OW26102   8.887   1.117   3.111  0.1568  0.2209  0.5394
 8127SOL    HW126103   8.804   1.164   3.111 -0.0600 -0.0760 -1.1443
 8127SOL    HW226104   8.944   1.168   3.054 -0.3501 -1.8470 -2.0500
 8128SOL     OW26105   2.586   8.971   0.851  0.4664 -0.1699  0.0660
 8128SOL    HW126106   2.635   8.925   0.919  0.3629  1.1680  1.0910
 8128SOL    HW226107   2.568   9.057   0.889 -0.7768  0.1343 -1.1352
 8129SOL     OW26108   8.882   8.242   6.490 -0.3917 -0.2873  1.1387
 8129SOL    HW126109   8.846   8.164   6.448 -0.3416  0.6597 -0.7567
 8129SOL    HW226110   8.806   8.290   6.522 -0.7537  0.6020 -0.8821
 8130SOL     OW26111   8.183   5.129   0.728  0.1683 -0.1075  0.3568
 8130SOL    HW126112   8.202   5.141   0.635  0.6550  1.0236  0.5920
 8130SOL    HW226113   8.106   5.183   0.744  0.8859  0.7603  0.8974
 8131SOL     OW26114   1.048   4.606   5.379  0.2029 -0.1096 -0.6566
 8131SOL    HW126115   1.137   4.642   5.371  0.8184 -1.5988 -1.0039
 8131SOL    HW226116   1.041   4.582   5.471 -0.3502  1.1716 -0.3389
 8132SOL     OW26117   0.853   2.157   9.613 -0.2472 -0.1802  0.3753
 8132SOL    HW126118   0.785   2.150   9.547  0.7791 -0.3411 -0.7067
 8132SOL    HW226119   0.933   2.176   9.563  0.9381 -2.2124  1.3569
 8133SOL     OW26120   7.766   2.033   8.543 -0.0303  0.3477  0.1360
 8133SOL    HW126121   7.676   2.010   8.523  0.4233 -0.5461 -0.9755
 8133SOL    HW226122   7.790   2.098   8.477  0.0718  0.7859  0.5928
 8134SOL     OW26123   8.828   1.939   9.303  0.0759 -0.2837 -0.2881
 8134SOL    HW126124   8.771   1.991   9.247 -0.4384  0.0135  0.4978
 8134SOL    HW226125   8.910   1.989   9.307  0.2795 -0.5339 -1.1245
 8135SOL     OW26126   1.295   5.955   9.570  0.2451  0.1575  0.3974
 8135SOL    HW126127   1.212   5.939   9.615 -1.4877 -0.5379 -2.7463
 8135SOL    HW226128   1.306   5.880   9.512  0.7794  2.2597 -2.4234
 8136SOL     OW26129   1.039   8.804   7.748 -0.1735 -0.6274  0.1055
 8136SOL    HW126130   1.050   8.717   7.709 -0.8960 -0.4992 -0.4004
 8136SOL    HW226131   0.969   8.845   7.697  1.1925  0.8425 -0.6941
 8137SOL     OW26132   0.232   5.938   2.639 -0.0591  0.6761 -0.4288
 8137SOL    HW126133   0.196   5.867   2.691  3.4853 -1.5036 -0.6185
 8137SOL    HW226134   0.288   5.987   2.699  0.2184  1.1654 -1.0657
 8138SOL     OW26135   7.884   2.316   8.670  0.1191 -0.3139 -0.1488
 8138SOL    HW126136   7.908   2.323   8.578 -0.3430  1.5130 -0.1634
 8138SOL    HW226137   7.793   2.287   8.669  0.0002  0.0599 -0.2834
 8139SOL     OW26138   6.165   7.013   5.810 -0.2937 -0.3721  0.3967
 8139SOL    HW126139   6.119   6.946   5.760 -0.3457 -1.6865  2.1260
 8139SOL    HW226140   6.120   7.016   5.894  0.7456  0.6732  0.9430
 8140SOL     OW26141   7.883   3.551   5.629  0.3913  0.2023  0.1549
 8140SOL    HW126142   7.891   3.644   5.606 -1.0036  0.0687 -1.0402
 8140SOL    HW226143   7.803   3.546   5.681  1.2212 -0.1556  1.4494
 8141SOL     OW26144   1.382   5.951   2.281  0.3891  0.1374 -0.9370
 8141SOL    HW126145   1.317   5.883   2.299 -0.4346  0.5552 -2.2213
 8141SOL    HW226146   1.455   5.904   2.239 -0.0953  0.0072 -1.6496
 8142SOL     OW26147   5.154   0.271   3.083 -1.0326  0.1263 -0.3666
 8142SOL    HW126148   5.191   0.188   3.113 -0.0453  0.1900 -1.3329
 8142SOL    HW226149   5.191   0.336   3.141  3.2923  0.6440 -3.2510
 8143SOL     OW26150   2.745   6.718   9.283 -0.3883  0.9995 -0.5056
 8143SOL    HW126151   2.819   6.767   9.246  1.5054 -0.5295  0.9932
 8143SOL    HW226152   2.727   6.649   9.219 -1.1811  1.9193 -1.3043
 8144SOL     OW26153   2.903   2.645   4.079 -0.1868 -0.2373 -0.1499
 8144SOL    HW126154   2.941   2.691   4.004 -0.9556  0.4476 -0.1345
 8144SOL    HW226155   2.906   2.708   4.150 -2.0885  0.1594 -0.3609
 8145SOL     OW26156   8.659   7.112   7.433 -0.6953 -0.2624  0.1462
 8145SOL    HW126157   8.627   7.086   7.519 -0.8779 -0.6165 -0.0264
 8145SOL    HW226158   8.659   7.031   7.382 -1.4340  0.0966 -0.4488
 8146SOL     OW26159   1.003   0.503   8.511 -0.2777 -0.1569  0.0118
 8146SOL    HW126160   1.030   0.557   8.585 -2.0254 -0.6351  1.0476
 8146SOL    HW226161   0.954   0.431   8.550  0.6097 -1.6409 -1.4686
 8147SOL     OW26162   5.879   3.245   1.650  0.4537 -0.6855  0.4832
 8147SOL    HW126163   5.865   3.192   1.728  0.2740 -1.3088  0.0374
 8147SOL    HW226164   5.796   3.292   1.637 -0.5980 -2.7706 -0.9510
 8148SOL     OW26165   8.397   1.384   8.217 -0.9082 -0.4184  0.1059
 8148SOL    HW126166   8.465   1.332   8.259 -0.3356 -0.7800 -1.2015
 8148SOL    HW226167   8.445   1.448   8.164 -1.6006  0.2645  0.2779
 8149SOL     OW26168   3.622   2.899   1.649 -0.0289 -0.0245 -0.5369
 8149SOL    HW126169   3.614   2.804   1.648 -1.0731  0.0542 -0.5404
 8149SOL    HW226170   3.540   2.930   1.688 -0.5975  0.9540 -2.3717
 8150SOL     OW26171   8.722   9.380   9.015 -0.2377  0.0597  0.2789
 8150SOL    HW126172   8.755   9.319   8.949 -0.6311 -0.7497  0.8040
 8150SOL    HW226173   8.762   9.351   9.097  0.6423  1.3604  0.3336
 8151SOL     OW26174   4.029   6.744   1.423 -0.9741 -0.1922  0.0458
 8151SOL    HW126175   4.045   6.658   1.461 -2.5280 -0.0308  1.1991
 8151SOL    HW226176   4.050   6.806   1.493 -1.4093  0.2524 -0.2056
 8152SOL     OW26177   1.932   6.353   9.606  0.5490  0.4332 -1.0233
 8152SOL    HW126178   1.933   6.270   9.653 -0.1375  0.8872 -0.1861
 8152SOL    HW226179   2.004   6.345   9.543  0.7903 -0.6073 -0.6448
 8153SOL     OW26180   3.516   6.962   1.877 -0.0717  0.5615  0.3456
 8153SOL    HW126181   3.425   6.940   1.856 -0.1099  1.5184 -0.5436
 8153SOL    HW226182   3.563   6.879   1.866 -0.6338  0.3301 -0.4377
 8154SOL     OW26183   0.363   9.537   5.239  0.0150  0.4912  0.6157
 8154SOL    HW126184   0.369   9.601   5.167 -1.3314 -0.1850 -0.1328
 8154SOL    HW226185   0.304   9.578   5.302  0.2292  0.5611  0.7719
 8155SOL     OW26186   3.303   6.429   9.462 -0.0390 -0.5373  0.0923
 8155SOL    HW126187   3.216   6.444   9.426  0.1897 -0.2301 -0.3542
 8155SOL    HW226188   3.307   6.484   9.541 -0.4215 -0.9372  0.3909
 8156SOL     OW26189   1.412   8.633   8.805 -0.0329  0.1540  0.5071
 8156SOL    HW126190   1.462   8.553   8.794  0.7837  0.9365 -2.1446
 8156SOL    HW226191   1.453   8.677   8.880  1.0928 -0.7452  0.4459
 8157SOL     OW26192   6.200   5.809   2.230  0.5587 -0.1735 -0.2733
 8157SOL    HW126193   6.283   5.761   2.231 -0.2606 -1.6691  1.0984
 8157SOL    HW226194   6.225   5.901   2.238  2.1301 -0.4222 -1.7546
 8158SOL     OW26195   5.298   6.820   8.876  0.0184  0.2137 -0.1811
 8158SOL    HW126196   5.340   6.888   8.928  1.7950 -0.0052 -1.2361
 8158SOL    HW226197   5.226   6.789   8.931  0.6731  1.2491  1.3402
 8159SOL     OW26198   5.465   4.350   0.690 -0.1663  0.4506  0.2569
 8159SOL    HW126199   5.439   4.264   0.657 -0.0468  0.4702  0.1052
 8159SOL    HW226200   5.422   4.359   0.774  1.8918 -0.8770  1.5286
 8160SOL     OW26201   3.547   4.820   8.394 -0.3518  0.0616  0.1327
 8160SOL    HW126202   3.518   4.729   8.385  0.7645 -0.5650  2.2480
 8160SOL    HW226203   3.483   4.859   8.454 -0.8789  0.7134 -0.8410
 8161SOL     OW26204   3.797   3.376   2.412  0.3255  0.0263  0.2190
 8161SOL    HW126205   3.779   3.292   2.453  1.1545  0.2101  1.0177
 8161SOL    HW226206   3.891   3.375   2.395  0.1086  0.2411 -1.0654
 8162SOL     OW26207   2.919   1.979   2.827  0.1591  0.6202 -0.6826
 8162SOL    HW126208   3.005   1.964   2.866 -0.3285  2.0122  1.1032
 8162SOL    HW226209   2.929   2.061   2.779 -0.5154  1.6879  0.9000
 8163SOL     OW26210   3.157   9.491   2.239 -0.5860  0.1758  0.2011
 8163SOL    HW126211   3.157   9.490   2.335  0.4953  0.2810  0.2101
 8163SOL    HW226212   3.069   9.521   2.215 -0.8161  0.2806  1.1557
 8164SOL     OW26213   7.865   5.273   7.190  0.1870  0.3598  0.2800
 8164SOL    HW126214   7.882   5.362   7.158 -0.8105  0.0011 -1.3001
 8164SOL    HW226215   7.905   5.216   7.125 -0.0548 -0.3795  0.7681
 8165SOL     OW26216   9.593   9.016   8.499 -0.4353 -0.4620 -0.2129
 8165SOL    HW126217   9.675   8.965   8.499  0.1364  0.4319  0.0408
 8165SOL    HW226218   9.621   9.105   8.521 -1.6279 -0.3800  1.0676
 8166SOL     OW26219   2.559   0.761   9.681 -0.3977  0.2852 -1.0584
 8166SOL    HW126220   2.544   0.806   9.597  1.1091  1.4234 -0.7513
 8166SOL    HW226221   2.492   0.797   9.739 -0.5009  0.6012 -1.3687
 8167SOL     OW26222   7.882   4.426   5.435 -0.5413 -0.0492 -0.1161
 8167SOL    HW126223   7.936   4.394   5.363  1.1067 -0.2278  1.1525
 8167SOL    HW226224   7.837   4.348   5.469 -0.2865 -0.1890 -0.1027
 8168SOL     OW26225   2.273   1.447   3.595 -0.2783  0.2149 -0.0810
 8168SOL    HW126226   2.242   1.385   3.661 -1.3455  1.1308  0.3009
 8168SOL    HW226227   2.359   1.474   3.627  0.8235 -2.0163 -0.9230
 8169SOL     OW26228   1.803   2.880   5.916  0.4226  0.0543 -0.0838
 8169SOL    HW126229   1.767   2.792   5.910  1.1184 -0.2578  0.2233
 8169SOL    HW226230   1.743   2.935   5.865 -0.2116 -0.5331  0.0295
 8170SOL     OW26231   1.440   3.126   8.014  0.4250  0.3453  0.3064
 8170SOL    HW126232   1.526   3.163   7.995  0.8041  0.1367  1.5008
 8170SOL    HW226233   1.440   3.040   7.972  0.5020  0.6546 -0.3384
 8171SOL     OW26234   1.747   1.784   8.865 -0.2848 -0.1565  0.6999
 8171SOL    HW126235   1.660   1.805   8.898 -0.3009  0.1286  0.4791
 8171SOL    HW226236   1.803   1.854   8.901 -0.0172 -0.7207  1.4178
 8172SOL     OW26237   8.424   8.618   4.241  0.2036  0.4722 -0.1726
 8172SOL    HW126238   8.407   8.633   4.147 -0.0046 -0.7697 -0.3436
 8172SOL    HW226239   8.374   8.687   4.285 -1.2824 -0.0791 -0.9079
 8173SOL     OW26240   5.422   8.792   7.951 -0.2140  0.0179  0.4283
 8173SOL    HW126241   5.510   8.781   7.915  0.4581 -0.8343  2.2274
 8173SOL    HW226242   5.364   8.755   7.884  0.7469  0.7705 -0.8743
 8174SOL     OW26243   0.355   6.521   3.723  0.5312 -0.3240 -0.4485
 8174SOL    HW126244   0.344   6.610   3.688  0.4148 -1.2216 -2.8860
 8174SOL    HW226245   0.318   6.464   3.656 -0.7782 -2.1869  1.7179
 8175SOL     OW26246   0.258   0.940   3.727 -0.3331  1.0933 -0.3351
 8175SOL    HW126247   0.226   0.883   3.797 -0.8389  2.9627  1.0606
 8175SOL    HW226248   0.352   0.944   3.741 -0.4451  1.5478  0.3389
 8176SOL     OW26249   6.510   0.112   9.100 -0.0548  0.1843  0.1933
 8176SOL    HW126250   6.441   0.045   9.099 -1.8138  1.7899  2.3826
 8176SOL    HW226251   6.590   0.063   9.117 -0.9522 -1.5459 -0.2568
 8177SOL     OW26252   3.673   3.370   9.186 -0.1578 -0.3328  0.6391
 8177SOL    HW126253   3.655   3.417   9.268 -0.0571  0.5542  0.1689
 8177SOL    HW226254   3.713   3.436   9.130 -0.9642 -0.7118 -0.4081
 8178SOL     OW26255   7.415   8.571   3.041 -0.2619 -0.4361 -0.1549
 8178SOL    HW126256   7.353   8.512   3.084  0.3489 -0.7961  0.2504
 8178SOL    HW226257   7.427   8.534   2.954  1.0437 -1.6513  0.4884
 8179SOL     OW26258   7.637   0.284   7.721  0.0843 -0.1511  0.2500
 8179SOL    HW126259   7.688   0.338   7.783  1.5406 -1.4041  0.2057
 8179SOL    HW226260   7.546   0.297   7.748  0.2591  2.8229 -0.1644
 8180SOL     OW26261   6.875   2.152   9.169 -0.5961 -0.3577  0.4319
 8180SOL    HW126262   6.802   2.163   9.108  1.0671  0.9828 -1.4600
 8180SOL    HW226263   6.924   2.077   9.136  1.0808  1.2037 -0.8211
 8181SOL     OW26264   3.137   4.021   5.913 -0.1478  0.1382  0.0139
 8181SOL    HW126265   3.104   3.946   5.962  0.0856  0.5003  0.7531
 8181SOL    HW226266   3.085   4.023   5.833 -0.5202 -0.4899  0.2354
 8182SOL     OW26267   5.808   8.992   0.491  0.0984  0.1221  0.6423
 8182SOL    HW126268   5.784   8.914   0.442  3.1686 -1.7996  1.8917
 8182SOL    HW226269   5.879   9.031   0.440  0.3642  0.6082  1.3667
 8183SOL     OW26270   4.396   3.345   4.713  0.2672  0.3897 -0.0391
 8183SOL    HW126271   4.410   3.431   4.753  1.2192  0.8734 -1.3665
 8183SOL    HW226272   4.359   3.364   4.627 -3.1275 -0.6748  1.0071
 8184SOL     OW26273   5.554   7.420   0.151 -0.0640 -0.0190 -0.1441
 8184SOL    HW126274   5.574   7.333   0.186  0.6957  0.3644  0.3982
 8184SOL    HW226275   5.640   7.460   0.137 -0.3601  0.0421 -1.9542
 8185SOL     OW26276   2.006   4.001   0.817 -0.2042 -0.2703 -0.2387
 8185SOL    HW126277   2.065   4.069   0.784  1.8714 -2.1423 -0.5972
 8185SOL    HW226278   1.975   3.956   0.738  0.0674 -1.0308  0.0858
 8186SOL     OW26279   7.126   8.582   4.198 -0.0252  0.6336 -0.0056
 8186SOL    HW126280   7.035   8.609   4.190  0.1197  0.7713 -1.3629
 8186SOL    HW226281   7.176   8.663   4.200  0.1824  0.5474 -1.0339
 8187SOL     OW26282   5.085   1.272   5.972 -0.0103 -0.3049 -0.3065
 8187SOL    HW126283   5.122   1.265   5.884 -0.9066 -0.6398 -0.6631
 8187SOL    HW226284   5.137   1.341   6.014  2.2111 -1.9606 -0.1735
 8188SOL     OW26285   0.424   0.687   8.859 -0.2333 -0.3244  0.4909
 8188SOL    HW126286   0.407   0.781   8.856 -0.8437 -0.3649  2.0075
 8188SOL    HW226287   0.472   0.669   8.778 -1.3795  1.0193 -0.5213
 8189SOL     OW26288   6.587   6.563   9.562  0.6943  0.4292  0.1441
 8189SOL    HW126289   6.508   6.555   9.616 -0.3136  2.3226 -0.9467
 8189SOL    HW226290   6.590   6.655   9.537  1.2874 -0.2704 -2.7644
 8190SOL     OW26291   8.392   7.573   9.692  0.4736  0.7184  0.4366
 8190SOL    HW126292   8.413   7.483   9.668 -1.4942  0.2487  0.3369
 8190SOL    HW226293   8.444   7.588   9.771  0.9810 -0.4277  0.3520
 8191SOL     OW26294   4.176   6.477   8.555  0.6788 -0.2329 -0.8142
 8191SOL    HW126295   4.132   6.530   8.621 -0.2618 -1.8877 -0.0534
 8191SOL    HW226296   4.139   6.506   8.472 -0.9924 -0.7433 -0.2819
 8192SOL     OW26297   0.469   7.248   4.245 -0.7840 -0.4929 -0.2587
 8192SOL    HW126298   0.528   7.172   4.246 -0.1459 -0.0090 -0.6918
 8192SOL    HW226299   0.433   7.250   4.334 -1.3769 -1.7357 -0.4523
 8193SOL     OW26300   1.407   2.220   6.552  0.8053 -0.2194 -0.0551
 8193SOL    HW126301   1.416   2.286   6.621  1.4542  0.4347 -0.7467
 8193SOL    HW226302   1.319   2.234   6.516  1.3081  1.0099 -0.9051
 8194SOL     OW26303   3.723   5.176   2.999  0.0005  0.4952  0.4295
 8194SOL    HW126304   3.669   5.118   2.946  0.4547 -1.2218  1.7580
 8194SOL    HW226305   3.723   5.137   3.086  2.0676  1.3096  0.8734
 8195SOL     OW26306   1.987   3.898   8.119 -0.0053 -0.3900 -0.0478
 8195SOL    HW126307   2.075   3.875   8.148 -0.2469  0.0165  1.0410
 8195SOL    HW226308   2.000   3.943   8.036  1.0262  1.8316  1.2411
 8196SOL     OW26309   8.327   5.408   3.412 -0.4164  0.3556  1.0154
 8196SOL    HW126310   8.233   5.394   3.410 -0.4387  0.4545  1.2970
 8196SOL    HW226311   8.355   5.374   3.497 -0.0732 -0.4275  0.6084
 8197SOL     OW26312   4.431   5.789   4.490  0.0130  0.1985 -0.1057
 8197SOL    HW126313   4.420   5.838   4.571  1.2707  0.0886  0.1430
 8197SOL    HW226314   4.433   5.697   4.517  6.7741  0.1072  0.7949
 8198SOL     OW26315   3.153   6.146   2.872 -0.6885 -0.4636 -0.0083
 8198SOL    HW126316   3.124   6.077   2.933 -0.1474 -0.4499  0.2759
 8198SOL    HW226317   3.092   6.140   2.798 -2.1501  0.3583  1.0827
 8199SOL     OW26318   3.845   9.462   7.443 -0.5353  0.1129  0.2688
 8199SOL    HW126319   3.801   9.459   7.528 -0.6517  1.3035  0.2671
 8199SOL    HW226320   3.852   9.555   7.422  1.1341 -0.0726 -0.1809
 8200SOL     OW26321   0.086   1.409   9.127 -0.2490 -0.3513  0.0545
 8200SOL    HW126322   0.050   1.389   9.041  1.3570 -0.6220 -0.5786
 8200SOL    HW226323   0.012   1.396   9.187 -0.7394 -2.7595 -0.9715
 8201SOL     OW26324   0.847   7.706   4.549 -0.7961 -0.1966 -0.3153
 8201SOL    HW126325   0.911   7.673   4.612 -0.9450 -1.8347 -0.9640
 8201SOL    HW226326   0.764   7.666   4.575 -1.2201  0.5587 -0.4849
 8202SOL     OW26327   5.037   0.822   0.978 -0.0197  0.3021 -0.2065
 8202SOL    HW126328   5.041   0.859   0.890  0.7906 -0.5130 -0.5213
 8202SOL    HW226329   5.014   0.730   0.966  1.9514 -0.3092  0.2587
 8203SOL     OW26330   1.105   6.700   6.074 -0.1001 -0.1168  0.0970
 8203SOL    HW126331   1.022   6.658   6.053 -0.9446  0.6316  1.7248
 8203SOL    HW226332   1.169   6.629   6.072 -1.1808 -1.1632  1.0133
 8204SOL     OW26333   4.551   3.868   2.709 -0.3486  0.7160 -0.7531
 8204SOL    HW126334   4.583   3.819   2.633  1.8454  2.0925 -0.8069
 8204SOL    HW226335   4.484   3.926   2.673 -0.3255  0.3664 -1.3814
 8205SOL     OW26336   5.204   6.076   4.019  0.1212  0.5483  0.5342
 8205SOL    HW126337   5.132   6.118   4.066 -0.7017 -0.4743  0.2180
 8205SOL    HW226338   5.203   6.116   3.932 -1.0512 -0.5147  0.0317
 8206SOL     OW26339   7.735   4.368   7.502 -0.0122  0.0906 -0.0127
 8206SOL    HW126340   7.785   4.326   7.572  1.5481  0.6659 -0.7134
 8206SOL    HW226341   7.721   4.457   7.534  2.8942  1.1695 -1.3048
 8207SOL     OW26342   5.757   0.236   6.264 -0.0200 -0.2061 -0.0035
 8207SOL    HW126343   5.712   0.317   6.239  0.6414 -0.1449 -1.0462
 8207SOL    HW226344   5.754   0.182   6.185  0.5245 -0.7485  0.3457
 8208SOL     OW26345   1.819   8.682   9.414  0.3042  0.0842  0.1015
 8208SOL    HW126346   1.837   8.770   9.447  0.1260 -0.2024  0.9836
 8208SOL    HW226347   1.894   8.662   9.358  0.1713  0.9332 -0.4076
 8209SOL     OW26348   9.694   1.418   5.977  0.4980  0.4653 -0.2105
 8209SOL    HW126349   9.756   1.356   5.938 -0.6854 -0.6633 -0.3425
 8209SOL    HW226350   9.737   1.447   6.058  1.4284  0.1283 -0.5751
 8210SOL     OW26351   6.376   2.874   3.524  0.0624 -0.2245  0.0440
 8210SOL    HW126352   6.431   2.925   3.583  1.2149 -0.8124 -0.4897
 8210SOL    HW226353   6.290   2.872   3.566  0.0418  1.8874  0.2391
 8211SOL     OW26354   4.400   9.549   6.194 -0.0809  0.1699  0.0241
 8211SOL    HW126355   4.386   9.543   6.289  0.0404  0.7682  0.0826
 8211SOL    HW226356   4.332   9.493   6.156 -1.7238  1.8436  0.3616
 8212SOL     OW26357   0.305   6.398   3.100 -0.3745  0.1809  0.2961
 8212SOL    HW126358   0.263   6.312   3.091  0.9755 -0.5965  1.0369
 8212SOL    HW226359   0.399   6.379   3.096 -0.0523  1.8406 -1.1141
 8213SOL     OW26360   0.529   8.660   1.621 -0.5167  0.1610 -0.1325
 8213SOL    HW126361   0.475   8.592   1.662  0.1659 -0.0279  0.4845
 8213SOL    HW226362   0.580   8.614   1.554  0.3851 -0.0809  0.6856
 8214SOL     OW26363   5.909   2.533   6.129 -0.1287 -0.0877  0.8691
 8214SOL    HW126364   5.996   2.508   6.160  1.3061  1.4227 -1.5831
 8214SOL    HW226365   5.916   2.528   6.034 -2.5802  0.6282  0.5885
 8215SOL     OW26366   4.942   7.928   0.485 -0.1725 -0.0101  0.1345
 8215SOL    HW126367   4.992   7.847   0.497 -0.5047  0.0221  1.9780
 8215SOL    HW226368   4.967   7.983   0.559 -1.1197  0.9586 -0.2423
 8216SOL     OW26369   4.106   5.463   1.946  0.1792 -0.2110  0.2599
 8216SOL    HW126370   4.141   5.408   1.876 -1.0071 -0.2580 -0.3057
 8216SOL    HW226371   4.063   5.402   2.006  1.8408 -0.2636  1.4695
 8217SOL     OW26372   3.941   4.878   1.745 -0.2133  0.3319  0.0554
 8217SOL    HW126373   3.865   4.838   1.787  0.1165  1.2394  1.5931
 8217SOL    HW226374   3.983   4.806   1.698 -1.4360 -0.3923  0.0186
 8218SOL     OW26375   7.665   2.735   0.448 -0.0957  0.8747 -0.0440
 8218SOL    HW126376   7.737   2.690   0.493  0.4154  0.7375 -0.9850
 8218SOL    HW226377   7.604   2.664   0.426 -1.0080  1.0928  1.5654
 8219SOL     OW26378   2.222   4.316   4.546  0.0888  0.0897  0.4243
 8219SOL    HW126379   2.139   4.269   4.539 -0.8456  1.5360  1.2479
 8219SOL    HW226380   2.273   4.286   4.471 -1.7521  0.2611 -0.9659
 8220SOL     OW26381   3.226   3.083   4.800 -0.0128  0.4686  0.2579
 8220SOL    HW126382   3.144   3.133   4.801  0.5875  1.4772  0.4488
 8220SOL    HW226383   3.268   3.105   4.884  0.3651 -0.1850  0.2427
 8221SOL     OW26384   7.197   2.123   0.631  0.1282  0.5203  0.3987
 8221SOL    HW126385   7.252   2.051   0.602 -1.0609 -1.2168  2.1636
 8221SOL    HW226386   7.202   2.119   0.727 -1.4612  1.5595  0.5557
 8222SOL     OW26387   5.713   4.477   8.388  0.3431 -0.6955  0.1768
 8222SOL    HW126388   5.695   4.414   8.458 -0.3686 -1.1462 -0.3981
 8222SOL    HW226389   5.629   4.488   8.343  0.7309 -0.2082 -0.4487
 8223SOL     OW26390   0.198   1.527   0.403  0.3886 -0.0341  0.5882
 8223SOL    HW126391   0.159   1.525   0.316  2.4104 -0.2595 -0.3934
 8223SOL    HW226392   0.166   1.608   0.442 -1.4110 -0.4645  0.0934
 8224SOL     OW26393   4.393   7.588   7.006 -0.1219 -0.6218  0.2921
 8224SOL    HW126394   4.488   7.582   7.015 -0.2010 -0.0525  1.7857
 8224SOL    HW226395   4.378   7.586   6.911  1.4076 -0.2502  0.0133
 8225SOL     OW26396   0.333   4.845   3.869  0.1364  0.0866 -0.7027
 8225SOL    HW126397   0.292   4.864   3.953 -2.0142  0.1807 -1.7273
 8225SOL    HW226398   0.426   4.862   3.885 -0.1920  0.0958  1.6382
 8226SOL     OW26399   8.844   3.324   1.570 -0.1055  0.2852 -0.2905
 8226SOL    HW126400   8.863   3.380   1.645  1.2849  1.1689 -1.2427
 8226SOL    HW226401   8.815   3.384   1.501  1.3527 -0.1229 -1.3163
 8227SOL     OW26402   4.761   0.496   5.786  0.1691 -0.3709 -0.5386
 8227SOL    HW126403   4.702   0.570   5.773  0.7953  0.1132 -0.7093
 8227SOL    HW226404   4.749   0.471   5.878 -0.3096 -0.2839 -0.5788
 8228SOL     OW26405   4.544   4.169   0.475 -0.5031  0.1990  0.2223
 8228SOL    HW126406   4.494   4.247   0.499 -0.3011  1.0012 -1.8239
 8228SOL    HW226407   4.492   4.127   0.406  0.2698 -0.4937  0.0439
 8229SOL     OW26408   1.500   1.804   1.240  0.2289 -0.3622  0.2478
 8229SOL    HW126409   1.557   1.871   1.202  0.5894 -0.6647  0.2500
 8229SOL    HW226410   1.484   1.835   1.330 -0.4861  0.2654 -0.0908
 8230SOL     OW26411   4.484   4.502   5.240  0.2598 -0.8674  0.5452
 8230SOL    HW126412   4.507   4.416   5.275 -0.8561 -1.7299 -0.6977
 8230SOL    HW226413   4.526   4.504   5.154 -2.2857 -1.5739 -0.8241
 8231SOL     OW26414   1.930   1.679   6.066 -0.2032 -0.1419 -0.4236
 8231SOL    HW126415   1.867   1.743   6.101 -0.2859 -1.3950  1.8820
 8231SOL    HW226416   1.987   1.732   6.009 -1.8658  1.4551 -0.7404
 8232SOL     OW26417   5.484   6.425   6.781 -0.3559 -0.5089 -0.7355
 8232SOL    HW126418   5.446   6.337   6.777 -0.7426 -0.3449 -0.7195
 8232SOL    HW226419   5.412   6.481   6.809 -0.2951 -0.0699 -1.4480
 8233SOL     OW26420   1.709   9.298   7.237  1.0379 -0.1545  0.2647
 8233SOL    HW126421   1.716   9.363   7.307  1.4518  1.6435 -1.3602
 8233SOL    HW226422   1.700   9.350   7.157  0.5691 -2.1337 -1.0263
 8234SOL     OW26423   5.644   9.286   0.963  0.5194 -0.4967  0.5093
 8234SOL    HW126424   5.724   9.272   0.912  0.0761  1.8152 -0.9694
 8234SOL    HW226425   5.633   9.381   0.964 -2.2318 -0.7371  0.6225
 8235SOL     OW26426   7.407   0.042   5.024  0.3291  0.0699 -0.3614
 8235SOL    HW126427   7.414   0.113   5.088  2.1157 -1.2981  1.1047
 8235SOL    HW226428   7.496   0.034   4.988 -0.0870 -0.7764 -1.2383
 8236SOL     OW26429   5.377   3.697   4.136  0.3139  0.4403  0.5615
 8236SOL    HW126430   5.394   3.652   4.219 -0.7032 -2.4164 -0.6721
 8236SOL    HW226431   5.282   3.698   4.129  0.3773  1.0776 -0.3755
 8237SOL     OW26432   7.497   5.763   0.251 -0.0814  0.2473  0.3816
 8237SOL    HW126433   7.443   5.702   0.200 -1.5555  1.0546  0.9185
 8237SOL    HW226434   7.549   5.708   0.308 -1.8869 -0.5250  1.3447
 8238SOL     OW26435   3.554   9.174   6.141  0.0621 -0.2678 -0.5136
 8238SOL    HW126436   3.470   9.167   6.095 -0.1270 -2.0625  0.0178
 8238SOL    HW226437   3.541   9.125   6.222  1.2714  0.4506  0.1440
 8239SOL     OW26438   6.782   5.464   7.783 -0.2569 -0.0269 -0.5663
 8239SOL    HW126439   6.847   5.534   7.775 -1.7009  1.8466  2.1462
 8239SOL    HW226440   6.820   5.404   7.848  0.7257 -1.5649 -2.4681
 8240SOL     OW26441   4.660   1.879   6.286  0.7952 -0.2998 -0.5137
 8240SOL    HW126442   4.742   1.925   6.303  1.1577 -0.9505 -0.4832
 8240SOL    HW226443   4.686   1.788   6.272  0.1587 -0.3870 -1.2106
 8241SOL     OW26444   5.964   2.449   5.831 -0.2386  0.0762  0.1406
 8241SOL    HW126445   6.025   2.518   5.805 -2.1995  1.9881  0.3572
 8241SOL    HW226446   5.906   2.439   5.755 -0.2898 -1.0063  0.3083
 8242SOL     OW26447   1.624   3.226   4.205  0.0960  0.0349 -0.1190
 8242SOL    HW126448   1.529   3.232   4.199  0.0706  1.2594  1.0674
 8242SOL    HW226449   1.642   3.209   4.298  1.0433  0.1059 -0.2750
 8243SOL     OW26450   9.104   9.135   5.437 -0.2707  0.3665 -0.1001
 8243SOL    HW126451   9.118   9.221   5.476  1.2347 -0.6279  1.7290
 8243SOL    HW226452   9.184   9.087   5.456 -1.1851 -1.5359 -0.8100
 8244SOL     OW26453   3.834   6.865   6.833  0.8055  0.0916 -0.3283
 8244SOL    HW126454   3.884   6.889   6.911  1.3066 -1.8700 -0.0065
 8244SOL    HW226455   3.798   6.779   6.853 -3.1093  1.4901 -0.3600
 8245SOL     OW26456   7.698   3.817   4.321  0.4661 -0.2624 -0.0569
 8245SOL    HW126457   7.633   3.773   4.377  0.7874 -1.6209 -0.7016
 8245SOL    HW226458   7.782   3.798   4.362  0.4554  2.9881  1.7890
 8246SOL     OW26459   1.811   3.500   7.304  0.3211  0.3998  0.2394
 8246SOL    HW126460   1.771   3.495   7.391  1.8109 -0.9963  0.9024
 8246SOL    HW226461   1.800   3.591   7.277  1.5389  1.3871  2.7579
 8247SOL     OW26462   3.914   9.189   1.042  0.2647  0.0673 -0.0929
 8247SOL    HW126463   3.993   9.236   1.013 -0.6218 -0.0572 -3.0585
 8247SOL    HW226464   3.947   9.122   1.103  2.6074 -0.4816 -1.8219
 8248SOL     OW26465   7.401   1.486   8.207 -0.1693 -0.2572  0.3553
 8248SOL    HW126466   7.490   1.476   8.239 -0.1855  1.4665  1.0760
 8248SOL    HW226467   7.371   1.569   8.245 -1.5467 -0.0326 -1.0853
 8249SOL     OW26468   8.666   3.386   4.751 -0.2308  0.3878 -0.2725
 8249SOL    HW126469   8.650   3.319   4.818  0.7186 -0.4235 -0.8292
 8249SOL    HW226470   8.754   3.367   4.719 -0.6836  0.7321 -1.7889
 8250SOL     OW26471   4.131   2.213   4.026 -0.3802 -0.0849  0.1252
 8250SOL    HW126472   4.197   2.279   4.050 -0.3893  0.6066 -1.6105
 8250SOL    HW226473   4.183   2.136   4.002 -0.3436 -0.4964  1.4253
 8251SOL     OW26474   7.628   2.897   6.312 -0.2026  0.1155 -0.0603
 8251SOL    HW126475   7.648   2.937   6.227  1.6618  0.5760  0.5517
 8251SOL    HW226476   7.536   2.920   6.328  0.1437  2.2439 -0.7896
 8252SOL     OW26477   2.616   3.252   0.754  0.4960 -0.3799 -0.3801
 8252SOL    HW126478   2.639   3.249   0.661 -0.3466  0.0516 -0.6100
 8252SOL    HW226479   2.596   3.344   0.771  0.3418 -0.5082  0.1569
 8253SOL     OW26480   0.950   1.956   6.534 -0.1409  0.1389  0.3921
 8253SOL    HW126481   0.861   1.919   6.536  0.6571 -1.9917 -0.4579
 8253SOL    HW226482   0.965   1.986   6.624 -1.2471 -0.6853  0.8823
 8254SOL     OW26483   4.532   3.919   3.525  0.0823  0.4517 -0.1239
 8254SOL    HW126484   4.500   3.976   3.455  1.1101  0.0269 -0.9770
 8254SOL    HW226485   4.612   3.962   3.556  0.5592 -0.2351 -0.3907
 8255SOL     OW26486   4.298   5.628   7.243 -0.0850 -0.1785  0.2132
 8255SOL    HW126487   4.362   5.572   7.286  0.6887 -0.0269 -0.7112
 8255SOL    HW226488   4.316   5.618   7.150 -2.9552 -2.0390 -0.2786
 8256SOL     OW26489   0.273   8.585   2.784  0.5604  0.4974 -0.1072
 8256SOL    HW126490   0.245   8.541   2.704 -0.4326  1.0424 -0.0886
 8256SOL    HW226491   0.289   8.515   2.847 -1.8829  0.1438  0.2109
 8257SOL     OW26492   7.618   2.743   3.965  0.4366  0.0492 -0.0034
 8257SOL    HW126493   7.653   2.697   3.889  0.5816  0.6301 -0.2925
 8257SOL    HW226494   7.525   2.757   3.945  0.7603  1.4176 -0.7042
 8258SOL     OW26495   2.752   1.426   2.487  0.3738 -0.2415 -0.1114
 8258SOL    HW126496   2.686   1.358   2.472  0.4616  0.0515 -2.1293
 8258SOL    HW226497   2.720   1.501   2.437  1.4052  0.4556  0.2469
 8259SOL     OW26498   4.385   3.071   3.024 -0.0877 -0.1498  0.0431
 8259SOL    HW126499   4.346   3.121   2.952  1.7498 -1.7486 -2.2408
 8259SOL    HW226500   4.461   3.122   3.051  0.1530 -0.3071 -0.3197
 8260SOL     OW26501   0.627   1.188   2.996  0.2443 -0.0525 -0.3241
 8260SOL    HW126502   0.631   1.232   3.081 -0.9083  0.6933 -0.6454
 8260SOL    HW226503   0.719   1.174   2.973  0.6016  0.7226  0.5383
 8261SOL     OW26504   2.940   5.678   0.269 -1.0255 -0.0871  0.1606
 8261SOL    HW126505   2.895   5.601   0.235 -0.3097  0.0338 -1.1002
 8261SOL    HW226506   2.998   5.706   0.198 -0.2265  0.7761  1.1184
 8262SOL     OW26507   3.548   4.997   6.847  0.8267 -0.0257 -0.4296
 8262SOL    HW126508   3.508   5.068   6.796  1.2389  0.7477  0.3070
 8262SOL    HW226509   3.540   5.026   6.938  0.8475 -1.0133 -0.1101
 8263SOL     OW26510   7.848   3.531   1.455 -0.1948 -0.0106 -0.6029
 8263SOL    HW126511   7.823   3.489   1.373 -1.7227 -0.4071  0.0491
 8263SOL    HW226512   7.850   3.625   1.434  0.1892 -0.1612 -1.2760
 8264SOL     OW26513   2.570   0.284   2.182  0.3690 -0.3398 -0.5314
 8264SOL    HW126514   2.522   0.355   2.223 -0.5938 -1.0764 -0.3447
 8264SOL    HW226515   2.650   0.276   2.235 -0.5901 -0.9014  0.9123
 8265SOL     OW26516   3.204   2.359   7.799  0.6202  0.0719 -0.3280
 8265SOL    HW126517   3.113   2.386   7.785  0.4886  0.8526  1.7708
 8265SOL    HW226518   3.197   2.274   7.844  1.0056 -1.0979 -2.3406
 8266SOL     OW26519   3.114   6.984   0.701  0.1599 -0.0072 -0.4491
 8266SOL    HW126520   3.181   7.052   0.704 -0.6081  0.7858  2.3272
 8266SOL    HW226521   3.159   6.906   0.671  1.3985  1.3548 -2.3328
 8267SOL     OW26522   3.708   2.884   7.485  0.4581 -0.2979 -0.4291
 8267SOL    HW126523   3.770   2.827   7.439  0.1329 -1.7909  0.8758
 8267SOL    HW226524   3.646   2.912   7.418  1.6521 -0.0403 -1.4432
 8268SOL     OW26525   0.941   2.216   7.607 -0.0720 -0.2489 -0.6774
 8268SOL    HW126526   0.969   2.254   7.524  1.2804  1.0225  0.3254
 8268SOL    HW226527   0.890   2.285   7.650  3.4643  1.1671  1.7233
 8269SOL     OW26528   1.841   8.141   4.724  0.6458  0.7074 -0.1926
 8269SOL    HW126529   1.778   8.195   4.676  1.3879  0.9914 -0.8704
 8269SOL    HW226530   1.905   8.204   4.759  0.4633  0.4425  0.6415
 8270SOL     OW26531   8.249   9.480   9.556  1.0973  0.7808 -0.3033
 8270SOL    HW126532   8.187   9.541   9.595 -0.0664  0.4781 -1.5816
 8270SOL    HW226533   8.199   9.436   9.487  1.1004 -3.3555  1.9923
 8271SOL     OW26534   6.649   2.797   1.646  0.0968 -0.0937  0.0138
 8271SOL    HW126535   6.557   2.795   1.622  0.5053  0.4499 -1.7762
 8271SOL    HW226536   6.685   2.715   1.612  0.4957  0.2294 -0.3677
 8272SOL     OW26537   4.386   9.462   4.772  0.4492 -0.2189  0.0663
 8272SOL    HW126538   4.473   9.434   4.800  0.2876  1.0610  2.0961
 8272SOL    HW226539   4.379   9.552   4.804 -0.8043  0.4927 -2.0122
 8273SOL     OW26540   3.362   8.941   1.540  0.2941 -0.2205 -0.1285
 8273SOL    HW126541   3.281   8.962   1.494  0.2079  0.2162  0.2134
 8273SOL    HW226542   3.391   8.858   1.502  0.2802  0.1737 -1.0334
 8274SOL     OW26543   8.142   9.698   0.981  0.5720  0.2261  0.3882
 8274SOL    HW126544   8.091   9.778   0.993 -0.3465 -0.2500 -0.2081
 8274SOL    HW226545   8.092   9.647   0.917  0.1705 -1.6028  2.0367
 8275SOL     OW26546   1.841   1.698   2.723  0.0940 -1.0071 -0.1310
 8275SOL    HW126547   1.812   1.778   2.679  0.4016 -0.5988  0.3989
 8275SOL    HW226548   1.845   1.633   2.653  1.7751 -0.0575 -0.9817
 8276SOL     OW26549   8.322   2.373   3.370 -0.1032  0.8827 -0.7041
 8276SOL    HW126550   8.385   2.316   3.415  0.4705  2.3427  0.4111
 8276SOL    HW226551   8.236   2.339   3.396  0.2167  1.4235  1.1913
 8277SOL     OW26552   7.710   5.089   2.082 -1.1751 -0.3456  0.3393
 8277SOL    HW126553   7.651   5.105   2.156 -2.1325 -0.2491 -0.4339
 8277SOL    HW226554   7.687   5.155   2.017 -1.4860 -1.4399 -0.7083
 8278SOL     OW26555   2.015   4.690   4.430 -0.2596 -0.5270  0.1906
 8278SOL    HW126556   2.003   4.783   4.450 -1.6241 -0.6932  0.1992
 8278SOL    HW226557   1.927   4.653   4.435  0.3808 -2.0090  1.1074
 8279SOL     OW26558   5.897   4.497   6.374  0.1250  0.5146 -0.2091
 8279SOL    HW126559   5.854   4.415   6.400 -0.7269  1.7950  2.7145
 8279SOL    HW226560   5.863   4.513   6.285 -0.5136 -1.7127 -0.4538
 8280SOL     OW26561   1.872   2.056   4.867 -0.0896 -0.5402  0.1906
 8280SOL    HW126562   1.901   2.106   4.943  0.3665 -2.3474  1.2618
 8280SOL    HW226563   1.776   2.063   4.869 -0.0145  0.7580 -0.0471
 8281SOL     OW26564   0.916   1.950   5.858 -0.3577  0.3495 -0.1081
 8281SOL    HW126565   0.906   1.878   5.795 -0.0022 -0.5080  0.7889
 8281SOL    HW226566   1.005   1.941   5.891 -1.0657 -0.2831  1.7624
 8282SOL     OW26567   8.950   5.584   1.000  0.2388  0.0219  0.1555
 8282SOL    HW126568   9.043   5.599   0.982  0.4757 -0.3574  0.9806
 8282SOL    HW226569   8.925   5.512   0.942 -0.1495  1.5733 -1.7104
 8283SOL     OW26570   0.268   9.373   4.985 -0.6515 -0.3197  0.0234
 8283SOL    HW126571   0.228   9.458   4.968  1.6819  0.7757 -0.3986
 8283SOL    HW226572   0.243   9.319   4.910 -2.4371 -0.1651  0.4623
 8284SOL     OW26573   7.163   2.041   8.937 -0.0609  0.1366 -0.2525
 8284SOL    HW126574   7.083   1.995   8.909  0.0469  0.2179 -0.7107
 8284SOL    HW226575   7.156   2.127   8.895 -0.0187  0.3572  0.1935
 8285SOL     OW26576   5.860   1.448   3.436  0.6597 -0.5285  0.4347
 8285SOL    HW126577   5.804   1.377   3.470  0.1110 -0.2766  0.0718
 8285SOL    HW226578   5.806   1.491   3.371  0.8507  0.4694  0.9213
 8286SOL     OW26579   6.664   4.387   8.783  0.5790  0.1279  0.5926
 8286SOL    HW126580   6.608   4.312   8.761 -0.0034  0.8051 -0.3004
 8286SOL    HW226581   6.691   4.423   8.698  1.8352  0.2285  1.0053
 8287SOL     OW26582   8.085   0.194   1.792  0.4528  0.4928 -0.0624
 8287SOL    HW126583   8.043   0.109   1.807  0.7256  0.7652  2.8491
 8287SOL    HW226584   8.055   0.221   1.705  0.0541 -2.3740 -0.8963
 8288SOL     OW26585   7.279   5.326   3.885  0.3876  0.4241 -0.0638
 8288SOL    HW126586   7.224   5.404   3.878 -0.4569 -0.2512 -1.2713
 8288SOL    HW226587   7.235   5.272   3.952  0.5722  0.6619  0.2507
 8289SOL     OW26588   1.094   1.170   2.648 -0.5570 -0.9475  0.9390
 8289SOL    HW126589   1.169   1.212   2.605 -2.0026 -0.4716 -1.2328
 8289SOL    HW226590   1.033   1.242   2.665 -1.6771 -1.6798  0.1554
 8290SOL     OW26591   1.777   2.425   0.843 -0.5434  0.3149 -0.4896
 8290SOL    HW126592   1.686   2.397   0.837 -0.0462 -1.8069  0.9629
 8290SOL    HW226593   1.774   2.503   0.899 -1.4228  0.0262 -0.1215
 8291SOL     OW26594   1.027   7.436   3.917  0.5583  0.7551 -0.4080
 8291SOL    HW126595   1.043   7.347   3.948 -0.9094  0.2650 -0.9338
 8291SOL    HW226596   1.109   7.463   3.876  0.3094 -1.3045 -2.4209
 8292SOL     OW26597   7.720   0.816   8.560 -0.1009 -0.2084  0.3351
 8292SOL    HW126598   7.763   0.835   8.476  0.0437 -0.7001  0.2939
 8292SOL    HW226599   7.630   0.847   8.548 -0.1002 -0.3402 -0.0259
 8293SOL     OW26600   1.988   5.569   2.538 -0.1551 -0.1803 -0.3018
 8293SOL    HW126601   2.071   5.600   2.576 -1.7637  1.1743  2.4444
 8293SOL    HW226602   1.932   5.552   2.613 -2.7932  0.1410 -2.0502
 8294SOL     OW26603   8.858   9.536   0.888 -0.0392  0.2689  0.3536
 8294SOL    HW126604   8.788   9.587   0.848  0.4465  0.5572 -0.1543
 8294SOL    HW226605   8.826   9.446   0.887 -0.2833  0.3555 -0.1519
 8295SOL     OW26606   8.220   5.320   8.117 -0.2828 -0.4460  0.2390
 8295SOL    HW126607   8.136   5.360   8.139 -0.3740 -1.1727  1.3036
 8295SOL    HW226608   8.220   5.237   8.164  1.5699  0.1198  1.3345
 8296SOL     OW26609   3.991   1.549   6.957  0.5351 -0.3406 -0.2659
 8296SOL    HW126610   4.041   1.631   6.958  0.4141 -0.2696  0.1503
 8296SOL    HW226611   4.017   1.505   7.038 -0.7882  0.1292  0.4344
 8297SOL     OW26612   1.475   2.409   2.878 -0.1925  0.5913 -0.1263
 8297SOL    HW126613   1.419   2.439   2.807 -0.7348 -1.4634 -0.6590
 8297SOL    HW226614   1.442   2.321   2.898  2.2731 -0.3605  0.1424
 8298SOL     OW26615   2.337   1.262   5.560  0.2735 -0.0155 -0.2901
 8298SOL    HW126616   2.383   1.178   5.558 -0.7018 -0.5589 -1.9168
 8298SOL    HW226617   2.379   1.314   5.492 -1.4513 -0.5482 -1.8498
 8299SOL     OW26618   7.770   8.901   9.462  0.4646  0.1937  0.2257
 8299SOL    HW126619   7.704   8.924   9.527 -0.8285 -1.4833 -0.4126
 8299SOL    HW226620   7.738   8.941   9.381  0.3411 -0.4034 -0.0291
 8300SOL     OW26621   2.514   3.322   4.764 -0.2353  0.1582  0.1318
 8300SOL    HW126622   2.562   3.310   4.846 -1.8964 -2.3432  0.8722
 8300SOL    HW226623   2.451   3.391   4.783  0.0545  0.2948  0.6259
 8301SOL     OW26624   8.420   6.508   0.628 -0.1485  0.6516  0.0625
 8301SOL    HW126625   8.446   6.559   0.705 -0.0600  0.3312  0.2497
 8301SOL    HW226626   8.333   6.474   0.650  0.1355  0.0438  0.2892
 8302SOL     OW26627   9.656   4.212   0.971  0.2577 -0.0900  0.3759
 8302SOL    HW126628   9.613   4.231   0.888 -0.4080 -0.5393  0.6105
 8302SOL    HW226629   9.703   4.293   0.992 -0.0645  0.2361 -0.1344
 8303SOL     OW26630   0.002   3.097   5.231  0.2974  0.0161  0.2449
 8303SOL    HW126631  -0.038   3.073   5.314 -0.7396 -0.9488 -0.4958
 8303SOL    HW226632   0.086   3.136   5.255 -1.1489  2.3346  1.8708
 8304SOL     OW26633   5.156   3.091   3.166 -0.1710 -1.0158 -0.6831
 8304SOL    HW126634   5.145   3.003   3.204 -0.6780 -0.3538  0.7791
 8304SOL    HW226635   5.108   3.088   3.084 -0.2136 -2.0991 -0.6330
 8305SOL     OW26636   7.159   4.387   4.791  0.5695 -0.3193 -0.1332
 8305SOL    HW126637   7.119   4.414   4.874 -0.6249  0.9616 -1.0842
 8305SOL    HW226638   7.229   4.451   4.777  1.0713 -0.8102  0.0959
 8306SOL     OW26639   8.799   9.407   7.603 -0.4372  0.4027 -0.2522
 8306SOL    HW126640   8.861   9.436   7.537 -0.4297  1.5664  0.2402
 8306SOL    HW226641   8.810   9.468   7.675 -2.4400  0.9391 -0.3177
 8307SOL     OW26642   2.168   2.444   3.134 -0.0359  0.5795  0.4178
 8307SOL    HW126643   2.143   2.351   3.134  0.5319  0.4217 -0.2620
 8307SOL    HW226644   2.140   2.476   3.220 -0.4791 -0.1553  0.5543
 8308SOL     OW26645   1.542   0.210   1.653 -1.0688  0.0395  0.0650
 8308SOL    HW126646   1.610   0.206   1.585 -1.0968  0.1606  0.0306
 8308SOL    HW226647   1.494   0.291   1.635 -0.0266  0.9541  1.2429
 8309SOL     OW26648   3.522   7.757   5.906  0.3205 -0.6832  0.3085
 8309SOL    HW126649   3.534   7.768   6.000  1.3339  3.1669 -0.1234
 8309SOL    HW226650   3.610   7.753   5.870 -0.0341 -0.5091 -0.6150
 8310SOL     OW26651   2.295   9.288   1.922  0.8024  0.8276 -0.8190
 8310SOL    HW126652   2.286   9.355   1.990  0.4207 -0.5349  0.5395
 8310SOL    HW226653   2.293   9.336   1.840  0.4761  2.4657  0.1082
 8311SOL     OW26654   7.438   8.103   1.441 -0.5676  0.1134 -0.2387
 8311SOL    HW126655   7.472   8.014   1.442  0.9109  0.6516  0.2119
 8311SOL    HW226656   7.357   8.098   1.491 -0.1706 -0.8638  0.3323
 8312SOL     OW26657   1.207   5.777   1.092  0.2156 -0.3052 -0.3956
 8312SOL    HW126658   1.290   5.825   1.086 -0.0892  0.7707  2.2247
 8312SOL    HW226659   1.224   5.710   1.159 -1.0735  0.1164  0.3779
 8313SOL     OW26660   6.094   4.429   2.607 -0.2465  0.0818  0.1271
 8313SOL    HW126661   6.099   4.525   2.614 -0.6168  0.1418 -0.4555
 8313SOL    HW226662   6.079   4.400   2.697  0.9635  0.4984  0.4906
 8314SOL     OW26663   2.762   7.098   6.105 -0.4711  0.0192  0.2016
 8314SOL    HW126664   2.846   7.091   6.060 -1.1242 -1.0720 -0.9145
 8314SOL    HW226665   2.738   7.190   6.095  0.6924  0.4065  0.7659
 8315SOL     OW26666   9.695   2.559   3.364  0.0783  0.4128 -0.3115
 8315SOL    HW126667   9.723   2.471   3.391 -1.2813  0.6430  2.1393
 8315SOL    HW226668   9.600   2.556   3.371 -0.0725  1.7024 -1.5587
 8316SOL     OW26669   5.550   0.925   8.132  0.4772 -0.4198  0.9665
 8316SOL    HW126670   5.484   0.992   8.114 -0.0731 -0.8453  1.3996
 8316SOL    HW226671   5.612   0.934   8.059  0.5566  0.7255  1.1472
 8317SOL     OW26672   1.263   1.724   3.927  0.0164  0.0198  0.3137
 8317SOL    HW126673   1.200   1.657   3.956 -0.0646 -0.1162 -0.1696
 8317SOL    HW226674   1.215   1.775   3.862  0.8046 -0.8712 -0.9916
 8318SOL     OW26675   2.274   5.431   6.820  0.1642  0.0903  0.1639
 8318SOL    HW126676   2.228   5.514   6.837  1.3944  0.8750 -0.2324
 8318SOL    HW226677   2.232   5.396   6.742 -0.2721  0.4148  0.2498
 8319SOL     OW26678   1.060   8.846   5.771 -0.5590 -0.3060 -0.4569
 8319SOL    HW126679   1.030   8.839   5.861  0.4496 -0.3906 -0.1199
 8319SOL    HW226680   1.056   8.940   5.752 -0.7435 -0.2847 -0.3178
 8320SOL     OW26681   2.485   8.380   2.181 -0.0466 -0.0991 -0.0063
 8320SOL    HW126682   2.542   8.350   2.251  0.1225  0.7114  0.2176
 8320SOL    HW226683   2.414   8.427   2.226 -1.1788 -1.5009 -0.2452
 8321SOL     OW26684   1.713   4.318   5.820 -0.1334 -0.9637 -0.3840
 8321SOL    HW126685   1.632   4.267   5.816  0.8950 -2.5692 -1.4129
 8321SOL    HW226686   1.769   4.282   5.752  1.1385  0.7248 -0.3149
 8322SOL     OW26687   0.605   9.394   7.803 -0.1398  0.0823  1.0915
 8322SOL    HW126688   0.694   9.420   7.778  0.7666 -2.3247  1.5210
 8322SOL    HW226689   0.575   9.464   7.860  0.7258  1.8781 -0.5411
 8323SOL     OW26690   1.225   1.882   3.142  0.1035  0.4553  0.3286
 8323SOL    HW126691   1.173   1.934   3.080  0.4804  1.0272  0.4812
 8323SOL    HW226692   1.161   1.848   3.204 -0.1645  0.6698  0.1765
 8324SOL     OW26693   0.283   5.168   9.600  0.7916  0.9633  0.0390
 8324SOL    HW126694   0.345   5.161   9.528  0.2135 -0.1856 -0.3676
 8324SOL    HW226695   0.335   5.147   9.678  0.7363 -0.9988 -0.3997
 8325SOL     OW26696   7.523   2.048   7.613  0.2996 -0.0410  0.4908
 8325SOL    HW126697   7.511   2.032   7.707  0.6738  1.9382  0.9374
 8325SOL    HW226698   7.452   2.108   7.589  0.1659 -0.5786 -0.5258
 8326SOL     OW26699   6.994   9.495   7.420  0.0357  0.4394  0.4658
 8326SOL    HW126700   6.980   9.405   7.448  4.4457 -0.6613 -0.2377
 8326SOL    HW226701   7.012   9.543   7.501  1.4373 -0.2096  0.5658
 8327SOL     OW26702   7.459   1.832   7.226  0.1367 -0.4192  0.5053
 8327SOL    HW126703   7.365   1.817   7.236  0.1833  0.1109  1.9497
 8327SOL    HW226704   7.479   1.799   7.138 -1.5074  0.0165 -0.0797
 8328SOL     OW26705   2.244   6.440   1.540  0.3679  0.0797 -0.3057
 8328SOL    HW126706   2.253   6.360   1.489  1.1182  0.3854 -0.6742
 8328SOL    HW226707   2.288   6.507   1.487  2.7034  0.0881  1.4697
 8329SOL     OW26708   6.400   8.948   7.086 -0.7941  0.2771  0.0068
 8329SOL    HW126709   6.419   8.910   7.000 -0.7977 -1.1364  0.6140
 8329SOL    HW226710   6.351   9.028   7.066  0.2200  0.6005 -1.3383
 8330SOL     OW26711   7.666   1.915   3.712 -0.2552  0.3221  0.3578
 8330SOL    HW126712   7.645   1.870   3.630  0.1124  0.7793  0.0059
 8330SOL    HW226713   7.675   1.845   3.777  0.1775 -0.0995 -0.1523
 8331SOL     OW26714   5.334   1.620   3.032  0.1194  0.5379  0.3385
 8331SOL    HW126715   5.365   1.567   2.959 -0.2961 -0.2037  0.6880
 8331SOL    HW226716   5.309   1.556   3.099 -2.7333  1.0451 -0.1416
 8332SOL     OW26717   5.802   1.276   2.698  0.4550  0.5445  0.3191
 8332SOL    HW126718   5.779   1.232   2.616 -1.1743  0.9137  0.5376
 8332SOL    HW226719   5.751   1.230   2.764 -1.1331  2.5576  0.5825
 8333SOL     OW26720   8.253   8.985   8.783  0.6157 -0.1868  0.5271
 8333SOL    HW126721   8.255   8.937   8.866  2.9609  1.1753  1.3585
 8333SOL    HW226722   8.310   8.935   8.725  2.4086  1.0434  1.1414
 8334SOL     OW26723   9.014   0.292   5.788 -0.3101  0.3470  0.7627
 8334SOL    HW126724   9.104   0.281   5.818  0.5896  0.6926 -1.6195
 8334SOL    HW226725   8.992   0.209   5.746 -1.0004  0.3671  1.0692
 8335SOL     OW26726   8.472   3.931   0.008 -0.5855  0.1017 -0.4053
 8335SOL    HW126727   8.512   3.858  -0.039 -0.3160  0.8381 -1.3760
 8335SOL    HW226728   8.386   3.900   0.035  0.1563 -1.1157  0.6584
 8336SOL     OW26729   4.489   1.211   9.071  0.0339 -0.4247 -0.4132
 8336SOL    HW126730   4.484   1.133   9.125 -0.2726 -0.4281 -0.4433
 8336SOL    HW226731   4.583   1.226   9.059  0.0935 -0.7879 -0.4134
 8337SOL     OW26732   5.884   0.555   8.708 -0.0523  0.8449 -0.4338
 8337SOL    HW126733   5.858   0.636   8.664  1.5469  2.1168  0.8103
 8337SOL    HW226734   5.931   0.585   8.786 -3.3665 -1.2230  2.6546
 8338SOL     OW26735   5.271   5.916   1.590 -0.3807  0.2625 -0.1386
 8338SOL    HW126736   5.205   5.968   1.544 -1.3938 -0.2532  0.7085
 8338SOL    HW226737   5.224   5.872   1.660  0.8702 -0.1046  0.5136
 8339SOL     OW26738   1.322   3.014   3.671  0.0169 -0.0899 -0.1424
 8339SOL    HW126739   1.398   2.963   3.697  0.3613 -0.8706 -2.4319
 8339SOL    HW226740   1.355   3.103   3.659  0.3585 -0.2234 -0.2038
 8340SOL     OW26741   6.330   3.720   4.600 -0.2218 -0.3938 -0.1861
 8340SOL    HW126742   6.337   3.647   4.538 -0.1318  0.2376 -0.9323
 8340SOL    HW226743   6.322   3.678   4.685 -1.9208 -1.3085 -0.7587
 8341SOL     OW26744   2.328   1.142   2.935  0.1703  0.6733 -0.0441
 8341SOL    HW126745   2.399   1.088   2.972 -0.6557  0.1637  0.8468
 8341SOL    HW226746   2.335   1.225   2.981 -1.5183 -0.3044  2.1834
 8342SOL     OW26747   2.513   7.426   1.168 -0.1851 -0.3101 -0.3510
 8342SOL    HW126748   2.483   7.355   1.111 -0.6984 -0.1923 -0.2347
 8342SOL    HW226749   2.552   7.382   1.243 -1.5060 -0.5026  0.2587
 8343SOL     OW26750   7.252   3.152   4.531 -0.2466  0.6209 -0.1272
 8343SOL    HW126751   7.189   3.212   4.571 -0.9861  1.0884 -1.8913
 8343SOL    HW226752   7.206   3.117   4.454  1.3609  0.3910 -1.0310
 8344SOL     OW26753   5.550   6.612   0.507 -0.8858 -0.5391 -0.1776
 8344SOL    HW126754   5.536   6.668   0.430 -0.0982 -0.6175 -0.3888
 8344SOL    HW226755   5.584   6.530   0.471 -1.7690 -1.0680  0.1537
 8345SOL     OW26756   2.408   3.280   4.290 -0.4391  0.7925  0.1621
 8345SOL    HW126757   2.441   3.192   4.271  2.2433  2.1413 -2.1435
 8345SOL    HW226758   2.318   3.280   4.258 -0.0663 -0.7630 -1.0062
 8346SOL     OW26759   9.275   8.504   5.077 -0.1718  0.5664 -0.4783
 8346SOL    HW126760   9.309   8.466   4.996 -0.0680 -1.3305  0.4130
 8346SOL    HW226761   9.184   8.527   5.056 -0.2553 -0.2463 -1.0276
 8347SOL     OW26762   4.135   8.830   3.851 -0.3919 -0.4569 -0.0544
 8347SOL    HW126763   4.107   8.738   3.854  0.5469 -0.7512  0.2362
 8347SOL    HW226764   4.102   8.868   3.932  0.4084 -0.9201  0.5085
 8348SOL     OW26765   3.125   2.682   6.496 -0.0547 -0.7905 -0.8242
 8348SOL    HW126766   3.189   2.611   6.488  0.1248 -0.4360 -3.1499
 8348SOL    HW226767   3.169   2.749   6.549  0.6547 -1.4369 -0.5785
 8349SOL     OW26768   3.226   0.577   8.621 -0.0831  0.3148 -0.3656
 8349SOL    HW126769   3.304   0.618   8.660 -0.2550 -0.2240  0.5864
 8349SOL    HW226770   3.249   0.484   8.616  0.1202  0.4309 -2.0510
 8350SOL     OW26771   1.131   8.535   1.713  0.6611 -0.0905  0.1309
 8350SOL    HW126772   1.149   8.599   1.644 -0.6754  0.2952  0.1177
 8350SOL    HW226773   1.088   8.462   1.668  0.7456 -0.3080  0.3980
 8351SOL     OW26774   4.982   6.859   7.903 -0.1304  0.1059  0.3572
 8351SOL    HW126775   4.952   6.792   7.964  1.2014  0.7607  1.7883
 8351SOL    HW226776   4.961   6.942   7.947  0.7323  0.5954 -0.1276
 8352SOL     OW26777   1.797   2.522   5.070  0.4236  0.0326  0.3454
 8352SOL    HW126778   1.790   2.450   5.133  0.0871 -0.0858  0.1728
 8352SOL    HW226779   1.816   2.599   5.123 -1.1328  0.1796  0.7294
 8353SOL     OW26780   1.372   0.504   2.889  0.3142 -0.0968  0.3892
 8353SOL    HW126781   1.423   0.426   2.914  0.4815  0.0681  0.5593
 8353SOL    HW226782   1.427   0.578   2.913  1.3074  0.0852 -2.1134
 8354SOL     OW26783   6.930   0.572   8.433  0.1734 -0.0378  0.4951
 8354SOL    HW126784   7.007   0.524   8.464  0.5304 -0.6279 -1.1691
 8354SOL    HW226785   6.856   0.519   8.460  0.5343 -1.2254 -0.7061
 8355SOL     OW26786   3.268   7.962   7.637 -0.3682 -0.5521 -0.2665
 8355SOL    HW126787   3.305   7.893   7.692 -0.2717  0.7212  1.3606
 8355SOL    HW226788   3.193   7.994   7.687  0.5590  1.5952 -0.1472
 8356SOL     OW26789   4.004   0.353   6.877  0.1722  0.1502 -0.1863
 8356SOL    HW126790   4.039   0.310   6.798  0.3233  0.7820 -0.4712
 8356SOL    HW226791   4.038   0.442   6.873  0.2030  0.1820  0.6174
 8357SOL     OW26792   2.616   4.435   4.857  0.0066  0.3314  0.0977
 8357SOL    HW126793   2.599   4.341   4.867  1.0578  0.2839  1.8933
 8357SOL    HW226794   2.586   4.455   4.769 -0.6518 -1.5985 -0.1774
 8358SOL     OW26795   0.257   2.291   4.433  0.2803 -0.2892  0.0312
 8358SOL    HW126796   0.334   2.251   4.474  1.5813 -1.3180 -3.0925
 8358SOL    HW226797   0.238   2.235   4.357 -1.7585  1.5930 -0.9660
 8359SOL     OW26798   9.399   9.091   7.462 -0.5811  0.4041  0.4137
 8359SOL    HW126799   9.319   9.123   7.421  0.0134  1.1469 -0.2143
 8359SOL    HW226800   9.417   9.007   7.419 -0.3322  0.8548 -0.3746
 8360SOL     OW26801   2.276   8.647   7.368 -0.3478 -0.2312 -0.6830
 8360SOL    HW126802   2.202   8.686   7.415  0.9643  1.1431  0.3409
 8360SOL    HW226803   2.351   8.661   7.426  1.3105  1.2490 -2.9977
 8361SOL     OW26804   7.908   5.012   1.762 -0.3005  0.4675 -0.1987
 8361SOL    HW126805   7.866   4.932   1.792  0.1439  0.1361 -0.4394
 8361SOL    HW226806   7.953   5.047   1.839 -1.1973  0.9491  0.1160
 8362SOL     OW26807   1.327   5.669   8.300 -0.3308  0.2074 -0.6682
 8362SOL    HW126808   1.283   5.706   8.224 -1.5724  0.5591  0.1897
 8362SOL    HW226809   1.267   5.685   8.373  0.0797 -1.5766  0.1162
 8363SOL     OW26810   8.498   1.892   3.156 -0.5508 -0.5728 -0.0712
 8363SOL    HW126811   8.578   1.857   3.195 -0.2020 -0.9636 -1.0882
 8363SOL    HW226812   8.430   1.830   3.181 -0.5721 -0.1478  0.9421
 8364SOL     OW26813   3.574   8.482   3.725  0.7050 -0.6091 -0.5334
 8364SOL    HW126814   3.526   8.412   3.682  0.9439 -0.9923 -0.1820
 8364SOL    HW226815   3.516   8.558   3.720  0.3109 -0.9161 -0.6262
 8365SOL     OW26816   1.819   2.091   0.324 -0.5364 -0.2107 -0.7469
 8365SOL    HW126817   1.864   2.173   0.347  1.0269 -0.8967 -1.2475
 8365SOL    HW226818   1.856   2.026   0.383 -1.3228 -0.6887 -0.7683
 8366SOL     OW26819   3.858   2.425   9.570  0.3523 -0.2653  0.0727
 8366SOL    HW126820   3.927   2.490   9.580 -0.6389  0.9353 -0.5266
 8366SOL    HW226821   3.782   2.464   9.613 -0.5074 -0.6069 -1.0772
 8367SOL     OW26822   0.871   0.553   6.662  0.0149 -0.2949 -0.3788
 8367SOL    HW126823   0.836   0.484   6.607  0.2063 -0.7371  0.0478
 8367SOL    HW226824   0.889   0.626   6.602  1.2570 -1.1453 -1.0854
 8368SOL     OW26825   8.051   4.168   8.108 -0.0265 -0.3957 -0.2762
 8368SOL    HW126826   8.121   4.232   8.117 -0.5193  0.6224 -2.8272
 8368SOL    HW226827   7.993   4.184   8.183  1.7960 -0.4579  1.2032
 8369SOL     OW26828   7.551   0.426   0.317  0.1579 -0.3533  0.5482
 8369SOL    HW126829   7.569   0.491   0.385 -0.8733  0.3260  0.1910
 8369SOL    HW226830   7.628   0.428   0.261  0.1081  0.6178  0.4996
 8370SOL     OW26831   8.180   4.122   6.414  0.4756 -0.6628  0.4121
 8370SOL    HW126832   8.169   4.205   6.368 -0.6358 -0.5566  0.8305
 8370SOL    HW226833   8.116   4.063   6.372  0.1909 -0.8600  1.1093
 8371SOL     OW26834   0.297   6.204   4.459  0.6234  0.0447  0.1096
 8371SOL    HW126835   0.258   6.128   4.416  0.1568  0.7650 -0.7634
 8371SOL    HW226836   0.356   6.166   4.525  0.2271 -1.0655 -0.1480
 8372SOL     OW26837   4.843   0.225   9.164 -0.3269  0.0290 -0.6946
 8372SOL    HW126838   4.781   0.297   9.155 -1.5789 -0.9209  0.0359
 8372SOL    HW226839   4.882   0.237   9.251 -0.7319 -0.3170 -0.4631
 8373SOL     OW26840   7.887   8.286   4.854  0.1816 -0.0071  0.2936
 8373SOL    HW126841   7.885   8.307   4.760  1.0010  2.8877  0.8367
 8373SOL    HW226842   7.957   8.221   4.862 -2.0156 -2.8752 -1.4144
 8374SOL     OW26843   5.945   4.604   1.173  0.2218  1.2154  0.4318
 8374SOL    HW126844   5.896   4.525   1.152 -0.6230  2.1688 -1.3640
 8374SOL    HW226845   5.959   4.599   1.268  0.0247 -0.9635  0.3935
 8375SOL     OW26846   7.649   1.140   4.503  0.5385 -0.0322  0.3287
 8375SOL    HW126847   7.636   1.232   4.524 -1.9769 -0.2353 -0.0740
 8375SOL    HW226848   7.721   1.139   4.440  0.4922  1.6694  0.2154
 8376SOL     OW26849   6.831   5.387   4.820  0.4060  0.2367  0.0759
 8376SOL    HW126850   6.859   5.455   4.759  0.2643  0.1489 -0.0870
 8376SOL    HW226851   6.841   5.427   4.907 -0.2452  0.6745 -0.0466
 8377SOL     OW26852   2.485   9.216   4.727  0.4238 -0.3569  0.3284
 8377SOL    HW126853   2.560   9.163   4.698  1.7568  1.1158  0.9095
 8377SOL    HW226854   2.486   9.208   4.823 -0.9156 -1.2449  0.2953
 8378SOL     OW26855   6.355   5.036   7.514  0.1160  0.3088 -0.2353
 8378SOL    HW126856   6.364   5.054   7.608 -0.5774 -2.9825  0.5839
 8378SOL    HW226857   6.375   5.119   7.472  1.7113  1.6066  2.7621
 8379SOL     OW26858   1.034   5.982   7.313  0.3706  0.5836 -0.9430
 8379SOL    HW126859   0.995   5.903   7.274 -1.4699  0.2030  1.4192
 8379SOL    HW226860   0.985   6.054   7.275 -0.6168  0.2974 -0.2488
 8380SOL     OW26861   3.228   4.634   0.588 -0.4309  0.3558 -0.3690
 8380SOL    HW126862   3.169   4.596   0.523  0.7226  0.8301 -1.7482
 8380SOL    HW226863   3.220   4.728   0.576  2.2775  0.4656 -2.2813
 8381SOL     OW26864   4.176   3.769   2.244  0.0658  0.6147 -0.3331
 8381SOL    HW126865   4.236   3.708   2.287  0.3006  2.0458  1.4843
 8381SOL    HW226866   4.132   3.716   2.178  0.7113 -1.3709  0.7394
 8382SOL     OW26867   4.116   4.892   4.954  0.1785 -0.3066 -0.3022
 8382SOL    HW126868   4.132   4.847   4.870  0.1633 -0.1702 -0.3772
 8382SOL    HW226869   4.155   4.834   5.019  1.8215  0.4578 -0.5579
 8383SOL     OW26870   7.803   0.320   5.750 -0.9120  0.7146  0.3336
 8383SOL    HW126871   7.712   0.340   5.772 -0.8185 -0.8048  2.4983
 8383SOL    HW226872   7.810   0.225   5.760  0.8806  0.7744  0.0522
 8384SOL     OW26873   0.887   2.057   9.120  0.2395 -0.2641  0.7337
 8384SOL    HW126874   0.889   2.010   9.203 -1.4511 -0.4125  0.7335
 8384SOL    HW226875   0.877   1.989   9.053 -1.4751 -0.0087  0.6789
 8385SOL     OW26876   1.543   4.916   0.651  0.2439  0.3555  0.2496
 8385SOL    HW126877   1.529   4.853   0.581 -0.7542  0.2254  0.5491
 8385SOL    HW226878   1.532   5.002   0.608  2.0469  0.3632 -0.2515
 8386SOL     OW26879   2.947   6.567   1.713 -0.1650  0.3720  0.1417
 8386SOL    HW126880   2.927   6.510   1.787  1.2942  0.1384  0.3994
 8386SOL    HW226881   3.040   6.589   1.724  0.6806 -1.2600 -2.6453
 8387SOL     OW26882   2.546   1.115   9.657 -0.5090  0.0740 -0.2953
 8387SOL    HW126883   2.547   1.200   9.613 -0.7320  0.8517  1.1662
 8387SOL    HW226884   2.570   1.053   9.588  0.1548  1.3677 -1.2798
 8388SOL     OW26885   7.468   6.272   1.927 -0.4429 -0.6523 -0.2305
 8388SOL    HW126886   7.517   6.354   1.925  2.1030 -2.0669 -2.9496
 8388SOL    HW226887   7.428   6.265   1.840  2.3508 -3.7991 -1.4614
 8389SOL     OW26888   3.732   3.819   4.663  0.3551 -0.0257 -0.2223
 8389SOL    HW126889   3.720   3.903   4.706 -1.4701  0.2033 -1.0785
 8389SOL    HW226890   3.788   3.838   4.587  1.3177  0.0752  0.4972
 8390SOL     OW26891   9.600   1.378   8.908 -0.3141 -0.4665 -0.6284
 8390SOL    HW126892   9.631   1.290   8.889  2.0181 -0.0669  0.8531
 8390SOL    HW226893   9.627   1.430   8.832  1.1272 -0.4876 -0.1649
 8391SOL     OW26894   6.487   0.664   4.526  0.9135 -0.0222  0.2017
 8391SOL    HW126895   6.508   0.706   4.609  0.4533 -0.4529  0.5415
 8391SOL    HW226896   6.473   0.572   4.548  1.1385 -0.2066 -0.4081
 8392SOL     OW26897   2.527   1.187   4.763  0.1576  0.6104 -0.4703
 8392SOL    HW126898   2.456   1.127   4.785  0.4006  0.5386  0.1261
 8392SOL    HW226899   2.565   1.152   4.683 -1.1657  1.2367 -1.4071
 8393SOL     OW26900   0.744   2.090   1.095  0.0475 -0.1942  0.3252
 8393SOL    HW126901   0.687   2.065   1.167 -1.2939  1.5013 -0.0559
 8393SOL    HW226902   0.811   2.146   1.135 -1.0637  1.2691  0.2388
 8394SOL     OW26903   5.113   3.078   3.878  0.4891  0.3124  0.4171
 8394SOL    HW126904   5.174   3.117   3.940 -0.4479  1.7949  0.4470
 8394SOL    HW226905   5.086   3.149   3.821  0.5488 -0.8128 -1.0764
 8395SOL     OW26906   4.280   8.470   8.293  0.1550  0.2108 -0.1435
 8395SOL    HW126907   4.254   8.536   8.228 -1.1610 -0.6281 -0.4969
 8395SOL    HW226908   4.277   8.517   8.377 -0.0576  0.7882 -0.4707
 8396SOL     OW26909   4.201   8.164   9.052 -0.1717 -0.1828 -0.7385
 8396SOL    HW126910   4.202   8.148   8.958  0.3908 -2.8842 -0.3729
 8396SOL    HW226911   4.293   8.176   9.075 -0.2297 -0.2967 -0.4380
 8397SOL     OW26912   5.897   8.736   5.276 -0.2734 -0.5777 -0.1483
 8397SOL    HW126913   5.941   8.717   5.193  0.1859 -2.0270  0.3879
 8397SOL    HW226914   5.807   8.707   5.262 -0.2271 -0.7089 -0.1787
 8398SOL     OW26915   6.009   5.408   8.683 -0.6463  0.1279  0.1140
 8398SOL    HW126916   5.976   5.492   8.713 -0.2268  0.3416 -0.0224
 8398SOL    HW226917   6.038   5.423   8.593 -0.0494 -0.0179  0.2748
 8399SOL     OW26918   2.809   4.942   2.949  0.3147  0.1771  0.0500
 8399SOL    HW126919   2.897   4.970   2.922  1.3358 -2.1448  0.7054
 8399SOL    HW226920   2.793   4.862   2.900 -1.6322  0.7138 -0.2938
 8400SOL     OW26921   9.278   1.648   8.258  0.0695 -0.0470 -0.3538
 8400SOL    HW126922   9.186   1.653   8.283  0.0603 -0.0407 -0.3892
 8400SOL    HW226923   9.276   1.641   8.163  0.1286  0.5646 -0.4000
 8401SOL     OW26924   6.554   1.380   6.074 -0.0756  0.4387 -0.0178
 8401SOL    HW126925   6.586   1.406   5.987 -0.1696  2.3578  0.4690
 8401SOL    HW226926   6.511   1.296   6.060  1.5205 -0.1905 -1.4705
 8402SOL     OW26927   4.700   1.746   7.653  0.1309 -0.0950  0.0474
 8402SOL    HW126928   4.631   1.750   7.719  1.1368  0.1869  1.1076
 8402SOL    HW226929   4.664   1.793   7.578 -1.0695 -0.5082  0.3447
 8403SOL     OW26930   9.413   5.078   4.162  0.3387  0.5526 -0.0130
 8403SOL    HW126931   9.484   5.040   4.214  1.2742  2.3323  0.0908
 8403SOL    HW226932   9.387   5.156   4.211 -0.4897  0.8949 -0.9585
 8404SOL     OW26933   9.147   3.378   7.752  0.1964  0.3232  0.2955
 8404SOL    HW126934   9.187   3.293   7.738  1.2141  0.9957 -1.0775
 8404SOL    HW226935   9.093   3.393   7.675  1.0885  1.4787 -0.1357
 8405SOL     OW26936   9.299   7.685   6.513  0.0348  0.1880 -0.0093
 8405SOL    HW126937   9.349   7.618   6.466  1.4129  1.4555 -0.4232
 8405SOL    HW226938   9.342   7.691   6.598  0.0359  0.6654 -0.0433
 8406SOL     OW26939   5.976   4.345   3.391 -0.1950  0.0239 -0.0767
 8406SOL    HW126940   6.013   4.433   3.389 -1.4358  0.5613 -1.7011
 8406SOL    HW226941   5.969   4.324   3.485 -0.6274  1.9956  0.3736
 8407SOL     OW26942   1.204   4.486   7.064 -0.2447  0.2819 -0.5043
 8407SOL    HW126943   1.133   4.488   7.128  1.2340 -0.4746  1.2577
 8407SOL    HW226944   1.281   4.515   7.113  0.5909  1.6331 -2.4902
 8408SOL     OW26945   5.624   0.788   3.550  0.3559  0.0097 -0.1077
 8408SOL    HW126946   5.669   0.866   3.581 -1.7591  1.5348 -0.6801
 8408SOL    HW226947   5.650   0.780   3.458  0.4893  0.0781 -0.0766
 8409SOL     OW26948   3.744   1.142   2.611 -0.3308  1.0546  0.4207
 8409SOL    HW126949   3.683   1.215   2.604  0.9421  2.1911  0.6065
 8409SOL    HW226950   3.829   1.180   2.587  0.9205  0.4301  3.3398
 8410SOL     OW26951   4.217   9.372   9.554 -0.1655  0.2450 -0.0556
 8410SOL    HW126952   4.142   9.322   9.587  0.9359 -0.3797  1.6651
 8410SOL    HW226953   4.180   9.454   9.524 -1.4568  0.3174  1.5961
 8411SOL     OW26954   6.188   4.322   7.871  0.0176 -1.0844  0.0313
 8411SOL    HW126955   6.278   4.350   7.889 -0.1853  0.5770 -1.3255
 8411SOL    HW226956   6.197   4.235   7.833  0.9523 -1.4388  1.0208
 8412SOL     OW26957   4.177   5.883   7.553 -0.7687 -0.0894  0.3229
 8412SOL    HW126958   4.192   5.872   7.460  1.4137  1.0617  0.4929
 8412SOL    HW226959   4.191   5.977   7.569  0.0830 -0.4746  1.9977
 8413SOL     OW26960   9.560   4.660   3.002  0.1489  0.0563 -0.3190
 8413SOL    HW126961   9.607   4.742   2.982  0.5772 -0.1343 -0.1038
 8413SOL    HW226962   9.469   4.679   2.980  0.3279  0.4298 -0.7485
 8414SOL     OW26963   5.853   3.787   1.786  0.0485 -0.2725  0.3715
 8414SOL    HW126964   5.908   3.844   1.731 -3.3016  2.2938 -0.6561
 8414SOL    HW226965   5.865   3.700   1.748  1.6738  0.5470 -1.1740
 8415SOL     OW26966   4.441   4.374   8.596  0.2562 -0.0027 -0.4578
 8415SOL    HW126967   4.513   4.403   8.540  1.4667 -1.3668  0.2949
 8415SOL    HW226968   4.466   4.404   8.683 -1.0022  1.0501 -0.4434
 8416SOL     OW26969   2.937   8.127   0.572 -0.1375  0.0019 -0.2657
 8416SOL    HW126970   2.911   8.062   0.507 -0.6920  0.6067 -0.6535
 8416SOL    HW226971   2.976   8.198   0.521  0.2166  0.1047  0.1379
 8417SOL     OW26972   6.510   8.062   7.224  0.1451  0.3455  0.7512
 8417SOL    HW126973   6.471   8.023   7.302  1.7723  0.2722  1.5739
 8417SOL    HW226974   6.600   8.083   7.250  0.9574 -0.3415 -1.3128
 8418SOL     OW26975   4.386   1.527   3.851 -0.6966 -0.2466 -0.0909
 8418SOL    HW126976   4.319   1.557   3.913  1.3707  1.5505  1.4268
 8418SOL    HW226977   4.345   1.538   3.765 -2.2089  1.2419  0.7380
 8419SOL     OW26978   4.038   5.128   4.826 -0.2212  0.6858  0.1677
 8419SOL    HW126979   3.944   5.145   4.819 -0.1307  1.5130  0.8193
 8419SOL    HW226980   4.043   5.045   4.874 -0.6274 -0.0231 -0.9781
 8420SOL     OW26981   6.656   2.325   9.435 -0.2008  0.6851 -0.2299
 8420SOL    HW126982   6.593   2.274   9.383 -0.3265 -0.3064  0.8418
 8420SOL    HW226983   6.614   2.410   9.446 -1.6850 -0.1399  0.9642
 8421SOL     OW26984   7.329   1.014   0.093 -0.1207 -0.1971 -0.2559
 8421SOL    HW126985   7.420   0.997   0.117  0.3932  1.8592 -0.5593
 8421SOL    HW226986   7.333   1.083   0.028 -1.8701 -0.8521 -1.1381
 8422SOL     OW26987   1.770   1.261   3.595  0.1629 -0.4979 -0.0011
 8422SOL    HW126988   1.830   1.248   3.522 -1.3182  0.3254 -1.4352
 8422SOL    HW226989   1.799   1.341   3.638 -0.3244  0.3189 -1.1554
 8423SOL     OW26990   7.607   6.696   0.507  0.3529 -0.7093  0.3327
 8423SOL    HW126991   7.642   6.740   0.429 -0.2241 -0.6841  0.0808
 8423SOL    HW226992   7.604   6.764   0.574  2.1421 -1.0493  0.8009
 8424SOL     OW26993   9.372   5.427   9.246  0.1636  0.4225 -0.7288
 8424SOL    HW126994   9.368   5.463   9.157  1.1687 -1.4744 -1.6001
 8424SOL    HW226995   9.458   5.385   9.251 -1.1853 -2.5479 -0.1151
 8425SOL     OW26996   8.288   4.873   5.803  0.1514 -0.1242 -0.5774
 8425SOL    HW126997   8.362   4.919   5.842 -0.1155  0.4211 -0.7034
 8425SOL    HW226998   8.256   4.815   5.872  0.4762 -0.1034 -0.4092
 8426SOL     OW26999   0.559   1.759   4.127  0.3593 -0.2518  0.1295
 8426SOL    HW127000   0.485   1.794   4.176 -0.6308  0.6401 -1.8787
 8426SOL    HW227001   0.637   1.792   4.173 -0.4366 -0.9563  2.0996
 8427SOL     OW27002   6.951   8.963   1.370 -0.0228 -0.1456  0.1914
 8427SOL    HW127003   6.923   8.877   1.338  0.8952 -0.3044 -0.1945
 8427SOL    HW227004   6.978   8.947   1.461  0.1749 -0.2745  0.1105
 8428SOL     OW27005   1.690   3.327   2.489 -0.2251 -0.2161 -0.2235
 8428SOL    HW127006   1.738   3.273   2.551 -0.1070  0.9846  0.7726
 8428SOL    HW227007   1.623   3.371   2.542 -0.5115  0.3775 -1.0498
 8429SOL     OW27008   0.894   8.199   6.728 -0.4685  0.0886 -0.1498
 8429SOL    HW127009   0.896   8.188   6.633  0.9945 -0.3281 -0.0936
 8429SOL    HW227010   0.952   8.272   6.745 -0.5496  0.0203  0.4519
 8430SOL     OW27011   8.371   0.317   5.383 -0.3693 -0.2306 -0.4397
 8430SOL    HW127012   8.276   0.315   5.374 -0.3822  1.7259 -1.3244
 8430SOL    HW227013   8.386   0.342   5.475 -0.7516  0.4872 -0.5640
 8431SOL     OW27014   3.659   9.304   4.096 -0.0539  0.4408  0.2392
 8431SOL    HW127015   3.701   9.336   4.017 -0.8276 -1.4424 -1.0121
 8431SOL    HW227016   3.588   9.366   4.113  1.4299  2.0837  0.7934
 8432SOL     OW27017   6.454   8.666   1.923 -0.2467 -0.0449  0.3550
 8432SOL    HW127018   6.377   8.715   1.952  0.3153  1.5183 -0.6627
 8432SOL    HW227019   6.448   8.667   1.828  1.9063  1.7031  0.1476
 8433SOL     OW27020   8.180   6.135   0.492 -0.6833 -0.6354  0.4696
 8433SOL    HW127021   8.196   6.222   0.527  0.1961 -0.0505 -1.2512
 8433SOL    HW227022   8.085   6.133   0.476 -0.7985 -0.2284  1.0717
 8434SOL     OW27023   7.744   7.929   2.237 -0.4082  0.1197  0.3777
 8434SOL    HW127024   7.717   7.960   2.151  1.0620 -0.1476 -0.2085
 8434SOL    HW227025   7.839   7.915   2.229 -0.5516 -1.7576  1.4777
 8435SOL     OW27026   1.657   0.716   8.747  0.2621  0.0106 -0.2326
 8435SOL    HW127027   1.619   0.745   8.665 -1.8210  0.1289  0.6944
 8435SOL    HW227028   1.684   0.796   8.791  0.1442  0.0627 -0.2530
 8436SOL     OW27029   6.755   5.193   0.749  0.0429  0.5719  0.0457
 8436SOL    HW127030   6.698   5.238   0.687 -0.3114 -0.3080 -0.2913
 8436SOL    HW227031   6.716   5.106   0.758  1.5783 -0.2348 -0.5860
 8437SOL     OW27032   0.647   8.695   2.713 -0.3080  0.4173  0.3717
 8437SOL    HW127033   0.731   8.733   2.739 -0.4140  0.7621  0.2185
 8437SOL    HW227034   0.648   8.607   2.751  1.0894 -0.4594 -1.5685
 8438SOL     OW27035   7.995   4.537   8.578 -0.1545  0.2125  0.7962
 8438SOL    HW127036   8.072   4.590   8.597  0.3185 -0.0626 -0.2409
 8438SOL    HW227037   7.988   4.477   8.652  0.3419  0.5653  1.1314
 8439SOL     OW27038   7.456   6.571   5.851  0.2107  0.2406 -0.1640
 8439SOL    HW127039   7.513   6.556   5.926 -0.4192  1.8317  0.6925
 8439SOL    HW227040   7.378   6.518   5.869  0.0652  0.6079  0.3320
 8440SOL     OW27041   7.552   1.264   3.648 -0.0227  0.3567  0.3408
 8440SOL    HW127042   7.621   1.199   3.659 -0.7563 -0.9389 -2.2050
 8440SOL    HW227043   7.492   1.247   3.720  0.7945 -0.4453  0.8578
 8441SOL     OW27044   7.801   9.404   3.683 -0.4646  0.4077  0.3989
 8441SOL    HW127045   7.829   9.334   3.742 -0.6525 -0.3539 -0.3964
 8441SOL    HW227046   7.766   9.472   3.740  0.8577  0.3940  1.2713
 8442SOL     OW27047   1.686   6.428   2.547  0.4217 -0.2168  0.4772
 8442SOL    HW127048   1.771   6.432   2.591  0.3389 -1.3388  0.7918
 8442SOL    HW227049   1.677   6.336   2.521 -1.7959 -0.7793  2.7462
 8443SOL     OW27050   3.042   0.347   5.715  0.0840 -0.0515  0.7908
 8443SOL    HW127051   3.009   0.416   5.772  0.0497  1.1895 -0.6684
 8443SOL    HW227052   3.010   0.371   5.628  1.2790 -1.1328  0.0185
 8444SOL     OW27053   5.522   5.703   7.059  0.3264  0.1466  0.4660
 8444SOL    HW127054   5.591   5.639   7.040 -0.7593 -1.1087  0.5698
 8444SOL    HW227055   5.441   5.651   7.059 -0.7185  1.7144 -0.4356
 8445SOL     OW27056   7.202   1.039   2.574  0.0465  0.1084  0.2641
 8445SOL    HW127057   7.138   0.999   2.515  0.1570  0.6446 -0.2280
 8445SOL    HW227058   7.270   0.973   2.585  0.7054  0.4644 -1.2963
 8446SOL     OW27059   9.003   7.893   6.927  0.4509 -0.5228  0.0376
 8446SOL    HW127060   8.953   7.811   6.924  1.4818 -1.1428 -1.4582
 8446SOL    HW227061   8.948   7.956   6.879 -1.3834  0.3601  3.0365
 8447SOL     OW27062   2.275   0.140   4.053 -0.6769  0.3731 -0.3904
 8447SOL    HW127063   2.308   0.191   4.126  0.1753  0.5151 -0.8681
 8447SOL    HW227064   2.238   0.205   3.993 -0.1413  0.3751 -0.7179
 8448SOL     OW27065   2.461   8.755   5.189 -1.2284  0.3159 -0.2285
 8448SOL    HW127066   2.507   8.833   5.221 -1.2625 -0.3140  1.5156
 8448SOL    HW227067   2.482   8.751   5.096  2.7767 -0.2248  0.4917
 8449SOL     OW27068   8.276   8.446   4.725 -0.4123 -0.0409  0.1704
 8449SOL    HW127069   8.242   8.398   4.650  1.7002 -1.1693 -0.1448
 8449SOL    HW227070   8.368   8.419   4.732  0.3096  2.3648  1.2833
 8450SOL     OW27071   2.164   4.883   4.152 -0.3394 -0.1058 -0.2477
 8450SOL    HW127072   2.132   4.822   4.218  0.9593 -0.4767  0.0764
 8450SOL    HW227073   2.102   4.956   4.154  0.0336  0.2322  1.9287
 8451SOL     OW27074   9.118   4.241   0.831  0.4432 -0.0037  0.2203
 8451SOL    HW127075   9.080   4.319   0.870  1.6051  0.7337 -0.0536
 8451SOL    HW227076   9.092   4.245   0.739  2.0477  1.1179 -0.2310
 8452SOL     OW27077   2.486   4.589   4.071  0.2231  0.2840 -0.8925
 8452SOL    HW127078   2.578   4.614   4.083  0.2410  0.9330 -2.2278
 8452SOL    HW227079   2.481   4.562   3.979 -0.6306 -1.0868 -0.4683
 8453SOL     OW27080   6.311   5.493   7.585  0.2374 -0.2260  0.0328
 8453SOL    HW127081   6.327   5.413   7.634 -1.9302 -0.3224  0.7191
 8453SOL    HW227082   6.224   5.480   7.546  0.2166  1.4297 -0.5767
 8454SOL     OW27083   8.936   5.731   3.122 -0.2253 -0.0735 -0.6535
 8454SOL    HW127084   9.011   5.675   3.142 -1.1152 -1.4886 -1.1611
 8454SOL    HW227085   8.952   5.811   3.173 -0.0260 -1.6333  1.9031
 8455SOL     OW27086   2.540   1.635   0.580 -0.2326  0.1040  0.3518
 8455SOL    HW127087   2.625   1.594   0.597 -0.4516 -1.0107 -1.0604
 8455SOL    HW227088   2.559   1.729   0.578  1.2813 -0.1763 -1.3570
 8456SOL     OW27089   4.596   0.239   4.315  0.1498 -0.0305  0.0608
 8456SOL    HW127090   4.555   0.324   4.302  0.1585 -0.1387 -0.7131
 8456SOL    HW227091   4.592   0.224   4.410 -0.3986  0.5529  0.1299
 8457SOL     OW27092   8.009   1.842   9.303 -0.6111  0.1911 -0.5976
 8457SOL    HW127093   8.079   1.781   9.323  0.5272  1.2384 -1.2740
 8457SOL    HW227094   7.992   1.887   9.386 -0.0572  0.3569 -0.5718
 8458SOL     OW27095   6.138   9.499   6.138  0.3977  0.0797  0.0758
 8458SOL    HW127096   6.207   9.475   6.200 -2.2841 -2.2200  2.4667
 8458SOL    HW227097   6.116   9.590   6.160  0.3392 -0.3098  1.7673
 8459SOL     OW27098   4.726   9.166   4.358  0.3224  0.3036  0.1399
 8459SOL    HW127099   4.798   9.134   4.304  0.0332  0.2641 -0.2245
 8459SOL    HW227100   4.726   9.108   4.435  0.4884  0.1187  0.0004
 8460SOL     OW27101   6.791   0.294   7.714  0.7130  0.0349 -0.4733
 8460SOL    HW127102   6.831   0.380   7.701  1.2686  0.0428  1.0333
 8460SOL    HW227103   6.820   0.267   7.802 -1.5844 -0.5303  0.1921
 8461SOL     OW27104   1.363   0.682   3.174  0.1101 -0.0521 -0.6809
 8461SOL    HW127105   1.420   0.706   3.101  1.6746 -1.7882 -0.1244
 8461SOL    HW227106   1.418   0.625   3.228 -1.5729 -0.2125  0.9343
 8462SOL     OW27107   5.273   8.028   4.772  0.6167 -0.0513  0.1214
 8462SOL    HW127108   5.188   7.989   4.790  0.5685 -0.4554 -0.9243
 8462SOL    HW227109   5.309   8.048   4.859 -1.3832  2.0607  0.5682
 8463SOL     OW27110   8.470   6.348   1.762 -0.1975 -0.1791 -0.8259
 8463SOL    HW127111   8.520   6.424   1.731 -0.8136  0.2738 -0.7143
 8463SOL    HW227112   8.492   6.279   1.700  0.0151  0.2130 -1.1981
 8464SOL     OW27113   7.300   0.751   8.437  0.4775  0.0335  0.5824
 8464SOL    HW127114   7.343   0.739   8.352 -0.5215  1.6335 -0.1875
 8464SOL    HW227115   7.370   0.783   8.494  1.2212 -1.3159  0.4724
 8465SOL     OW27116   8.962   6.584   7.836 -0.4899 -0.2944 -0.2528
 8465SOL    HW127117   8.881   6.539   7.859 -1.5769  1.7292  0.0806
 8465SOL    HW227118   8.966   6.578   7.740 -0.8691 -0.6745 -0.2490
 8466SOL     OW27119   1.852   0.477   6.416 -0.7720 -0.3936  0.0122
 8466SOL    HW127120   1.807   0.535   6.476 -1.2054  0.5953 -1.2243
 8466SOL    HW227121   1.932   0.452   6.462  0.2959  2.5499 -0.0189
 8467SOL     OW27122   7.674   7.096   4.956 -0.6296  0.2194 -0.0215
 8467SOL    HW127123   7.617   7.170   4.980  0.1787  1.3702 -1.4662
 8467SOL    HW227124   7.729   7.083   5.033  0.7030  2.6368 -0.4531
 8468SOL     OW27125   7.911   4.395   6.608  0.0227  0.2488 -0.3441
 8468SOL    HW127126   7.852   4.394   6.532 -0.0836 -2.0059 -0.2813
 8468SOL    HW227127   7.859   4.432   6.679 -0.7701 -0.1291 -0.7206
 8469SOL     OW27128   9.369   3.107   6.593 -0.2873 -0.7237  0.7938
 8469SOL    HW127129   9.360   3.133   6.685  0.2550 -0.1778  0.6971
 8469SOL    HW227130   9.374   3.011   6.597  0.9977 -0.6667  1.4724
 8470SOL     OW27131   8.053   2.734   8.191 -0.3482  0.1924 -0.4350
 8470SOL    HW127132   8.063   2.810   8.133 -1.5733 -0.7607 -1.9669
 8470SOL    HW227133   8.007   2.769   8.268 -2.0723  0.8021 -1.6773
 8471SOL     OW27134   6.216   8.569   4.968  0.1921  0.7861 -0.2790
 8471SOL    HW127135   6.156   8.597   5.037  0.5533  0.1177  0.3163
 8471SOL    HW227136   6.198   8.476   4.957 -0.5944  1.0842 -1.8403
 8472SOL     OW27137   0.828   9.613   3.979  0.0079 -0.0037 -0.1554
 8472SOL    HW127138   0.838   9.576   4.066 -0.5953 -0.4637 -0.2767
 8472SOL    HW227139   0.833   9.538   3.919  3.1397  0.5547 -0.7684
 8473SOL     OW27140   1.518   1.251   1.101  0.4877  0.6169 -0.2301
 8473SOL    HW127141   1.519   1.158   1.123  0.4907  0.7679  0.4240
 8473SOL    HW227142   1.492   1.254   1.009  1.1044 -0.0692 -0.4397
 8474SOL     OW27143   5.458   2.011   7.588 -0.5413 -0.4081 -0.3665
 8474SOL    HW127144   5.405   1.982   7.662  0.6475  0.9649  1.1077
 8474SOL    HW227145   5.397   2.012   7.514 -2.5937  1.0306  1.2098
 8475SOL     OW27146   3.125   8.999   7.691  0.3067 -0.1219  0.2633
 8475SOL    HW127147   3.150   9.004   7.599 -0.9721 -1.1731 -0.1863
 8475SOL    HW227148   3.154   8.912   7.719 -0.2800 -0.2428  0.5217
 8476SOL     OW27149   3.717   0.317   7.774 -0.1307  0.4064 -0.0544
 8476SOL    HW127150   3.769   0.394   7.797 -0.1627 -0.4343  3.4273
 8476SOL    HW227151   3.782   0.247   7.767 -0.1848  0.5247 -2.4717
 8477SOL     OW27152   1.780   5.664   7.210 -1.1017 -0.7065  0.0821
 8477SOL    HW127153   1.727   5.731   7.167  0.9917  0.9571 -0.1228
 8477SOL    HW227154   1.870   5.684   7.183 -0.2012 -2.5434  1.4602
 8478SOL     OW27155   7.983   7.545   1.062  0.3660 -0.9066  0.0520
 8478SOL    HW127156   7.989   7.640   1.063 -1.1583 -0.7328 -1.8871
 8478SOL    HW227157   8.059   7.515   1.112  2.2797  1.2700 -1.3794
 8479SOL     OW27158   4.711   3.837   4.573  0.2995 -0.2992  0.5038
 8479SOL    HW127159   4.616   3.839   4.564  0.2668 -2.0920  0.1302
 8479SOL    HW227160   4.742   3.797   4.492  1.4185  0.6194  0.4509
 8480SOL     OW27161   7.697   9.032   2.243  0.0036  0.0413 -0.3903
 8480SOL    HW127162   7.624   9.092   2.228 -0.1273 -0.4493 -1.8291
 8480SOL    HW227163   7.660   8.945   2.225  0.3635 -0.4415  1.0347
 8481SOL     OW27164   2.479   3.145   2.725 -0.2052 -0.3805 -0.8609
 8481SOL    HW127165   2.530   3.178   2.799 -2.7125  0.2730  0.6782
 8481SOL    HW227166   2.474   3.050   2.739  3.1200 -1.0350 -2.8061
 8482SOL     OW27167   6.378   4.464   7.545 -0.2592  0.3392  0.3579
 8482SOL    HW127168   6.315   4.530   7.575  0.2244  1.9049 -1.8007
 8482SOL    HW227169   6.384   4.478   7.450  1.1201 -1.7444  0.0680
 8483SOL     OW27170   4.139   0.718   9.485 -0.0818 -0.2806  0.4262
 8483SOL    HW127171   4.105   0.774   9.416 -0.7356  1.1636  1.8480
 8483SOL    HW227172   4.159   0.635   9.442 -0.3493  0.6120 -1.4885
 8484SOL     OW27173   2.391   5.823   3.435  0.0064 -0.2449  0.5807
 8484SOL    HW127174   2.369   5.738   3.398  0.9685 -0.3088  0.1190
 8484SOL    HW227175   2.331   5.884   3.393 -1.0540 -0.7527  1.3163
 8485SOL     OW27176   3.555   5.711   3.113  0.0230  0.3503 -0.5590
 8485SOL    HW127177   3.556   5.626   3.157  1.6058  1.2706  1.3110
 8485SOL    HW227178   3.513   5.694   3.028 -2.7501 -1.5938  1.0652
 8486SOL     OW27179   1.946   1.234   1.668 -0.2153 -0.7047 -0.3199
 8486SOL    HW127180   1.871   1.290   1.648 -1.9085 -2.2374  1.3070
 8486SOL    HW227181   1.976   1.264   1.753 -0.6625 -1.7254  0.2180
 8487SOL     OW27182   5.472   3.315   4.960  0.4542  0.7929 -0.3610
 8487SOL    HW127183   5.455   3.291   5.051 -0.8191  2.3671 -0.1461
 8487SOL    HW227184   5.403   3.272   4.911  0.2198  1.1888 -0.3838
 8488SOL     OW27185   6.854   6.621   8.787 -0.3894  0.7305  0.3948
 8488SOL    HW127186   6.857   6.716   8.779 -3.6279  0.8470 -0.9461
 8488SOL    HW227187   6.848   6.605   8.881  1.0636  1.7459  0.6883
 8489SOL     OW27188   4.207   1.530   8.352 -0.5898 -0.0375 -0.5757
 8489SOL    HW127189   4.158   1.518   8.270 -1.2707  0.8519 -0.3240
 8489SOL    HW227190   4.276   1.464   8.349 -1.0893 -0.5422 -1.5005
 8490SOL     OW27191   2.655   8.074   7.969  0.1451 -0.2538 -0.0934
 8490SOL    HW127192   2.591   8.076   8.040 -0.2752  1.4973 -0.4716
 8490SOL    HW227193   2.608   8.038   7.894  0.0351 -0.3316  0.0135
 8491SOL     OW27194   4.535   4.615   1.156 -0.0571  0.5576 -0.2250
 8491SOL    HW127195   4.546   4.685   1.221 -0.6758  0.2191  0.2566
 8491SOL    HW227196   4.447   4.629   1.121  0.0951  0.4512 -0.6542
 8492SOL     OW27197   5.353   5.728   5.901 -0.2103 -0.6277 -0.1513
 8492SOL    HW127198   5.438   5.764   5.926 -0.4541 -1.3226  1.8523
 8492SOL    HW227199   5.372   5.671   5.827  0.6826  0.9728 -1.2228
 8493SOL     OW27200   1.295   3.635   4.295 -0.6375 -0.0552 -0.4453
 8493SOL    HW127201   1.299   3.586   4.376 -0.0061  0.6998 -0.0046
 8493SOL    HW227202   1.202   3.655   4.283 -0.7789 -0.5155 -0.1255
 8494SOL     OW27203   5.011   6.972   6.496  0.2600 -0.3333 -0.0159
 8494SOL    HW127204   5.022   7.059   6.459 -0.8535 -0.2531 -0.1877
 8494SOL    HW227205   5.041   6.980   6.586  0.1209  0.2360 -0.0169
 8495SOL     OW27206   1.264   1.548   3.325  0.3887  0.4751 -0.7491
 8495SOL    HW127207   1.323   1.594   3.385  0.5708  2.3834 -2.2506
 8495SOL    HW227208   1.284   1.455   3.337  3.1487  1.0059 -0.5980
 8496SOL     OW27209   7.482   1.471   0.979  0.5472  0.0659  0.6233
 8496SOL    HW127210   7.449   1.394   1.025  1.3982 -0.8514 -0.2421
 8496SOL    HW227211   7.404   1.519   0.952  0.0171  0.6548  2.9876
 8497SOL     OW27212   2.177   4.147   3.632  0.3607  0.5766  0.6001
 8497SOL    HW127213   2.159   4.207   3.560  1.4158 -1.6549 -1.6951
 8497SOL    HW227214   2.099   4.152   3.688 -0.5894  2.2790 -0.7821
 8498SOL     OW27215   7.803   8.293   1.968 -0.2138  0.0162  0.4769
 8498SOL    HW127216   7.719   8.326   1.999 -0.4520  2.1848 -2.1348
 8498SOL    HW227217   7.784   8.205   1.935 -1.4281  0.3873  0.1412
 8499SOL     OW27218   2.678   8.203   8.982  0.3132 -0.5344 -0.1958
 8499SOL    HW127219   2.672   8.148   8.904  0.6441  0.3611 -0.8668
 8499SOL    HW227220   2.742   8.158   9.038  0.5407 -0.8552 -0.7066
 8500SOL     OW27221   4.799   4.147   9.097  0.3321 -0.1312  0.6114
 8500SOL    HW127222   4.823   4.231   9.059 -0.3426 -0.1793  0.0633
 8500SOL    HW227223   4.708   4.134   9.071 -0.3388  0.0868  2.6928
 8501SOL     OW27224   0.981   7.324   1.812  0.3663  0.3897  0.2706
 8501SOL    HW127225   0.940   7.384   1.750  0.7711  0.5393  0.1463
 8501SOL    HW227226   1.066   7.303   1.773 -0.0652 -0.8392 -0.0411
 8502SOL     OW27227   9.256   8.523   8.580 -0.0229  0.0528  0.0218
 8502SOL    HW127228   9.296   8.514   8.493 -3.5821  1.2134 -1.9678
 8502SOL    HW227229   9.256   8.434   8.615  2.6758 -0.2382 -0.4947
 8503SOL     OW27230   5.473   4.142   1.187 -0.0615  0.2781  0.6366
 8503SOL    HW127231   5.412   4.075   1.217 -1.0562  1.3919  1.1551
 8503SOL    HW227232   5.489   4.197   1.264  0.7380  0.6435  0.2246
 8504SOL     OW27233   5.448   8.548   7.579 -0.5358 -0.6058  0.1768
 8504SOL    HW127234   5.528   8.598   7.568 -1.1270  0.3817  0.2782
 8504SOL    HW227235   5.404   8.555   7.494 -0.9809 -0.3050  0.4290
 8505SOL     OW27236   2.125   4.679   2.206  0.1065  0.2264  0.3632
 8505SOL    HW127237   2.129   4.756   2.263  1.2641  0.0571  0.5330
 8505SOL    HW227238   2.216   4.657   2.189 -0.2157 -0.6993 -0.2522
 8506SOL     OW27239   3.519   8.876   6.523  0.6303 -1.0254 -0.4459
 8506SOL    HW127240   3.529   8.887   6.618  0.5990 -0.5826 -0.4923
 8506SOL    HW227241   3.580   8.940   6.485 -1.7524  1.2533 -0.7239
 8507SOL     OW27242   8.373   3.520   2.917  0.4627 -0.0926 -0.4901
 8507SOL    HW127243   8.454   3.565   2.940  0.8467 -1.0430  0.0530
 8507SOL    HW227244   8.311   3.591   2.900  1.0484  0.6471  0.3638
 8508SOL     OW27245   8.147   8.276   4.519 -0.0184 -0.1809 -0.4592
 8508SOL    HW127246   8.120   8.186   4.536  0.8593 -0.9802 -2.8594
 8508SOL    HW227247   8.090   8.305   4.448  2.3801 -0.3999 -2.6257
 8509SOL     OW27248   1.253   3.127   0.628 -1.4792  0.1682  0.1760
 8509SOL    HW127249   1.215   3.147   0.542  1.5100 -0.6120 -1.4961
 8509SOL    HW227250   1.328   3.186   0.635 -2.0457  0.6984  2.6375
 8510SOL     OW27251   1.393   9.179   6.962 -0.6277 -0.2387 -0.2258
 8510SOL    HW127252   1.396   9.254   6.902  0.8493  1.2167  1.5431
 8510SOL    HW227253   1.313   9.191   7.012 -0.7267 -0.2223 -0.3858
 8511SOL     OW27254   8.121   1.047   4.334 -0.9555 -0.3867 -0.3805
 8511SOL    HW127255   8.043   0.992   4.335 -0.2394 -1.4279 -0.0784
 8511SOL    HW227256   8.139   1.065   4.426 -0.4519 -0.7342 -0.4065
 8512SOL     OW27257   4.934   7.499   5.907 -0.2553  0.2395  0.0520
 8512SOL    HW127258   4.974   7.461   5.986 -2.2741  0.2260  1.1259
 8512SOL    HW227259   4.945   7.593   5.918 -1.0424  0.2696  0.6624
 8513SOL     OW27260   6.421   5.531   3.506 -0.1525  0.1773 -0.2079
 8513SOL    HW127261   6.471   5.605   3.473  0.2726  0.5049  1.1010
 8513SOL    HW227262   6.330   5.559   3.501  0.0814  1.4574  1.7443
 8514SOL     OW27263   0.453   5.791   1.366  0.2994  0.3679 -0.3357
 8514SOL    HW127264   0.431   5.735   1.291  0.3886  1.7911 -1.4707
 8514SOL    HW227265   0.370   5.808   1.409  0.0877  0.3927 -0.7502
 8515SOL     OW27266   0.107   8.143   8.699 -0.3684 -0.2423  0.1868
 8515SOL    HW127267   0.130   8.227   8.661  1.4985 -0.3255  1.0483
 8515SOL    HW227268   0.036   8.110   8.644  0.5588  0.7664 -1.6798
 8516SOL     OW27269   1.457   8.041   7.898 -0.1978 -0.2130 -0.2198
 8516SOL    HW127270   1.544   8.055   7.933  0.8096 -1.7140 -1.9481
 8516SOL    HW227271   1.439   8.120   7.846  1.4830 -1.1050 -2.3296
 8517SOL     OW27272   4.011   2.718   2.280 -0.4776 -0.1722  0.1420
 8517SOL    HW127273   3.953   2.788   2.310  0.3353  0.8887 -0.6643
 8517SOL    HW227274   3.999   2.716   2.185  1.3751  0.6718 -0.1672
 8518SOL     OW27275   2.169   4.872   9.667 -0.0583  0.3874  0.3696
 8518SOL    HW127276   2.124   4.788   9.674 -0.7769  0.7848  0.7016
 8518SOL    HW227277   2.099   4.935   9.651  0.2004  1.2173  2.2449
 8519SOL     OW27278   8.036   3.204   4.798 -0.5287 -0.1193 -0.3030
 8519SOL    HW127279   8.092   3.265   4.846 -0.8178 -0.4501  0.4695
 8519SOL    HW227280   8.030   3.241   4.710  2.2887 -0.9774 -0.9423
 8520SOL     OW27281   2.809   2.178   0.817  0.2986 -0.6486 -0.3497
 8520SOL    HW127282   2.875   2.152   0.881 -0.0005 -0.0378  0.2205
 8520SOL    HW227283   2.726   2.161   0.861  0.0541 -1.6686 -1.1636
 8521SOL     OW27284   5.631   2.696   8.388 -0.3763  0.1619 -0.1386
 8521SOL    HW127285   5.557   2.718   8.330  0.1549  2.4682 -0.0413
 8521SOL    HW227286   5.707   2.696   8.331 -0.0895  0.5828  0.2420
 8522SOL     OW27287   1.521   8.819   6.027 -0.1410 -0.3494 -0.7047
 8522SOL    HW127288   1.574   8.786   6.101 -0.4157  0.0572 -0.3239
 8522SOL    HW227289   1.550   8.766   5.953 -1.4163 -2.3351  0.1156
 8523SOL     OW27290   6.124   3.267   8.249 -0.3723  0.1313  0.5389
 8523SOL    HW127291   6.200   3.273   8.307 -0.9341 -0.0510  1.3001
 8523SOL    HW227292   6.065   3.206   8.293  0.2074 -1.9549 -1.3760
 8524SOL     OW27293   9.064   8.373   1.703  0.0162 -0.2318  0.3614
 8524SOL    HW127294   8.996   8.396   1.766  0.0664  2.8040 -0.4937
 8524SOL    HW227295   9.015   8.341   1.627 -0.7003  2.8833 -0.6357
 8525SOL     OW27296   0.779   5.208   5.154 -0.4549 -0.1700  0.0647
 8525SOL    HW127297   0.839   5.271   5.115 -2.6451  1.3669 -1.0197
 8525SOL    HW227298   0.802   5.207   5.247  3.4469 -2.2719 -0.7376
 8526SOL     OW27299   5.950   4.979   2.393 -0.0072 -0.0468  0.2550
 8526SOL    HW127300   5.899   5.053   2.360  0.4569 -0.4059 -1.3940
 8526SOL    HW227301   5.935   4.979   2.487 -2.9763 -0.0588 -0.1248
 8527SOL     OW27302   0.331   5.522   0.770  0.4902  0.1247  0.0574
 8527SOL    HW127303   0.263   5.578   0.733 -0.1987 -0.9238 -0.3037
 8527SOL    HW227304   0.399   5.583   0.799 -0.6349  1.1897  0.5168
 8528SOL     OW27305   1.003   9.577   1.017  0.0751 -0.2555 -0.2452
 8528SOL    HW127306   1.090   9.568   0.978  0.0171 -0.4027 -0.3419
 8528SOL    HW227307   0.972   9.662   0.987 -0.1046 -0.5132 -0.7893
 8529SOL     OW27308   2.220   4.705   1.801 -0.6832 -0.3557  0.1564
 8529SOL    HW127309   2.150   4.667   1.854 -0.1723  0.2588  1.3229
 8529SOL    HW227310   2.235   4.791   1.840 -0.9134  0.5177 -1.5902
 8530SOL     OW27311   3.413   7.386   4.701 -0.1650  0.1439  0.0322
 8530SOL    HW127312   3.348   7.429   4.757  0.2873  1.1674 -0.2077
 8530SOL    HW227313   3.437   7.307   4.750 -0.4058  0.5836  0.8890
 8531SOL     OW27314   7.609   8.235   9.146 -0.1330 -0.6549  0.3933
 8531SOL    HW127315   7.678   8.302   9.148 -0.4819 -0.2936  1.7023
 8531SOL    HW227316   7.593   8.219   9.053  0.4142  0.6217  0.0553
 8532SOL     OW27317   4.515   1.144   4.131 -0.0301  0.0999  0.4034
 8532SOL    HW127318   4.463   1.063   4.131  0.2257 -0.0833 -1.1404
 8532SOL    HW227319   4.503   1.180   4.044  1.1581  0.9045  0.5578
 8533SOL     OW27320   2.340   6.110   6.358 -0.2845 -0.1762  0.3193
 8533SOL    HW127321   2.278   6.175   6.392 -0.2666  0.2103 -0.3597
 8533SOL    HW227322   2.331   6.117   6.263  0.0980 -0.8085  0.2339
 8534SOL     OW27323   2.109   6.678   4.813  0.8438 -0.4589 -0.3164
 8534SOL    HW127324   2.150   6.662   4.728 -0.8549 -2.1994 -0.8844
 8534SOL    HW227325   2.071   6.594   4.837 -0.0933  0.4088  1.4155
 8535SOL     OW27326   5.117   4.503   5.919  0.2226 -0.2276 -0.4009
 8535SOL    HW127327   5.024   4.494   5.937  0.4219 -0.8319  0.3909
 8535SOL    HW227328   5.152   4.414   5.929  0.6964 -0.2300 -1.8608
 8536SOL     OW27329   7.927   7.956   7.225  0.2188  0.2336  0.0088
 8536SOL    HW127330   7.985   7.956   7.149 -0.0057 -1.3536 -0.1963
 8536SOL    HW227331   7.937   7.869   7.263  0.1728  0.9259  1.7105
 8537SOL     OW27332   7.791   9.636   0.718  0.6863  0.0243 -0.8191
 8537SOL    HW127333   7.823   9.549   0.739  2.2905  0.9868  1.0091
 8537SOL    HW227334   7.701   9.638   0.752  0.4819 -1.0280 -1.2659
 8538SOL     OW27335   5.609   2.592   6.808 -0.1760  0.9215 -0.5480
 8538SOL    HW127336   5.670   2.572   6.737 -0.4519 -0.4720 -0.4158
 8538SOL    HW227337   5.665   2.626   6.878  0.2427  1.2094 -1.0125
 8539SOL     OW27338   1.114   6.439   5.065 -0.6018 -0.1289 -0.1800
 8539SOL    HW127339   1.201   6.467   5.036 -0.2505 -2.3014 -1.4135
 8539SOL    HW227340   1.054   6.499   5.021  0.2353  1.6727  1.0141
 8540SOL     OW27341   6.188   2.424   6.199 -0.4806 -0.1202 -0.0453
 8540SOL    HW127342   6.179   2.490   6.267  0.5278 -0.4941  0.4654
 8540SOL    HW227343   6.276   2.389   6.210 -1.7208 -3.2058  1.2459
 8541SOL     OW27344   4.691   8.334   1.464  0.6480  1.3182 -0.4064
 8541SOL    HW127345   4.643   8.376   1.534  0.4031  1.3830 -0.6120
 8541SOL    HW227346   4.750   8.402   1.431  1.1611  1.1252  0.1013
 8542SOL     OW27347   3.182   3.241   3.173 -0.0246  0.6772  0.4965
 8542SOL    HW127348   3.232   3.298   3.230  0.8128  0.2760  0.1874
 8542SOL    HW227349   3.129   3.188   3.232 -0.1666  1.1868  0.8271
 8543SOL     OW27350   3.744   2.597   0.572 -0.3765 -0.0558 -0.3281
 8543SOL    HW127351   3.743   2.640   0.486  1.8388 -0.3093 -0.5506
 8543SOL    HW227352   3.768   2.667   0.633 -0.7320 -0.1425 -0.0860
 8544SOL     OW27353   4.908   1.541   1.329 -0.1216 -0.0692 -0.0895
 8544SOL    HW127354   4.866   1.541   1.242 -2.5428 -0.3410  0.9987
 8544SOL    HW227355   4.884   1.457   1.367  1.9170 -0.4573  0.4403
 8545SOL     OW27356   8.976   1.552   9.660 -0.5539 -0.4154 -0.7601
 8545SOL    HW127357   9.002   1.463   9.636 -0.2254 -0.3355 -0.6944
 8545SOL    HW227358   8.967   1.598   9.577  0.5849 -0.1392 -0.7385
 8546SOL     OW27359   0.180   5.250   1.376  0.3422  0.2418 -0.1089
 8546SOL    HW127360   0.125   5.319   1.413  1.7845  0.7936  1.1121
 8546SOL    HW227361   0.131   5.169   1.393 -1.1813  0.8860 -1.2009
 8547SOL     OW27362   6.473   7.182   4.913 -0.3057  0.2920  0.6914
 8547SOL    HW127363   6.383   7.163   4.886 -0.2242  0.4731  0.2782
 8547SOL    HW227364   6.526   7.161   4.836  0.0864 -0.5294  1.1792
 8548SOL     OW27365   2.049   1.205   5.120 -1.0013 -0.4980 -0.0168
 8548SOL    HW127366   2.106   1.175   5.049 -1.9631 -0.9230 -0.6268
 8548SOL    HW227367   1.975   1.246   5.076 -1.9001 -1.2823  0.7102
 8549SOL     OW27368   7.989   3.572   3.052  0.2062 -0.0154  0.1316
 8549SOL    HW127369   8.080   3.590   3.077  0.2539 -0.9910  0.6791
 8549SOL    HW227370   7.938   3.596   3.129  0.0586 -0.0906  0.0560
 8550SOL     OW27371   0.582   0.142   0.909  0.0980  0.2163 -0.0019
 8550SOL    HW127372   0.638   0.204   0.957 -0.3219  1.2773 -0.8521
 8550SOL    HW227373   0.527   0.102   0.977 -2.1909  3.4276  0.2402
 8551SOL     OW27374   9.394   6.776   8.146 -0.0323 -0.1731  0.2025
 8551SOL    HW127375   9.374   6.685   8.171 -0.3883 -0.0097  0.5273
 8551SOL    HW227376   9.326   6.798   8.083 -0.6119  0.2274  0.9508
 8552SOL     OW27377   0.960   6.507   0.328 -0.2257 -0.6208 -0.0867
 8552SOL    HW127378   0.911   6.548   0.399 -0.5269 -0.2968 -0.4823
 8552SOL    HW227379   0.897   6.497   0.257  0.0850 -0.9069 -0.3308
 8553SOL     OW27380   8.744   2.704   6.443 -0.2740  0.6267 -0.6015
 8553SOL    HW127381   8.768   2.663   6.526 -1.8679 -2.3611 -1.4707
 8553SOL    HW227382   8.812   2.770   6.428 -0.2078  1.6870  3.2585
 8554SOL     OW27383   7.788   1.592   6.246 -0.0824  0.0553 -0.1296
 8554SOL    HW127384   7.881   1.607   6.261 -0.0695  0.7910 -0.8574
 8554SOL    HW227385   7.784   1.511   6.196  0.3017  0.8836 -1.5604
 8555SOL     OW27386   8.954   6.921   6.090  0.1007 -0.3713 -0.1243
 8555SOL    HW127387   8.981   6.989   6.028 -1.1738  0.0122 -0.2867
 8555SOL    HW227388   9.012   6.847   6.070  0.0742 -0.0778 -1.4303
 8556SOL     OW27389   3.631   6.716   7.411 -0.2086  0.1052  0.6660
 8556SOL    HW127390   3.705   6.758   7.455 -0.4050  0.8452  0.3164
 8556SOL    HW227391   3.656   6.713   7.319  0.1314 -1.2903  0.7830
 8557SOL     OW27392   9.170   8.537   2.610  0.1971  0.2802 -0.5779
 8557SOL    HW127393   9.252   8.554   2.656  0.9856  2.2583 -2.5128
 8557SOL    HW227394   9.102   8.569   2.670  0.6722 -1.9172  1.3015
 8558SOL     OW27395   1.320   3.741   3.676 -0.4762  0.0449  0.0156
 8558SOL    HW127396   1.357   3.702   3.755 -1.4392  2.0923  1.5521
 8558SOL    HW227397   1.387   3.800   3.643  0.2676 -1.4395 -1.2718
 8559SOL     OW27398   0.004   6.886   1.672  0.3007  0.0919 -0.2189
 8559SOL    HW127399  -0.004   6.959   1.611  0.9539  0.1973 -0.1860
 8559SOL    HW227400   0.073   6.831   1.635  1.2037  0.5168  0.7668
 8560SOL     OW27401   3.823   1.949   9.212 -0.0015  0.5717 -0.5348
 8560SOL    HW127402   3.828   1.881   9.145 -2.0786 -0.0838 -0.0947
 8560SOL    HW227403   3.902   1.936   9.265 -1.0019 -2.5229  0.4224
 8561SOL     OW27404   8.729   3.427   1.339 -0.7206 -0.0003 -0.0651
 8561SOL    HW127405   8.784   3.488   1.289  0.9862 -0.7320  0.8358
 8561SOL    HW227406   8.640   3.446   1.310 -0.0422  1.4772 -1.3374
 8562SOL     OW27407   3.287   8.405   9.572  0.5068 -0.0876 -0.2544
 8562SOL    HW127408   3.258   8.473   9.633  0.4903 -0.7626  0.5185
 8562SOL    HW227409   3.229   8.331   9.589  1.2344 -0.6751 -0.2805
 8563SOL     OW27410   8.057   9.550   6.135 -0.6478  0.6408  0.8583
 8563SOL    HW127411   8.116   9.599   6.192  1.3625  1.8169 -2.0247
 8563SOL    HW227412   8.105   9.470   6.114 -1.4419  0.1404  0.8922
 8564SOL     OW27413   2.869   3.242   8.280  0.3098  0.1521  0.0116
 8564SOL    HW127414   2.879   3.196   8.364 -1.6344 -0.6726 -0.1441
 8564SOL    HW227415   2.859   3.172   8.216  1.2200  0.7843 -0.8458
 8565SOL     OW27416   0.434   7.420   5.360 -0.4871 -0.3151  0.3926
 8565SOL    HW127417   0.454   7.429   5.267  1.1893 -1.0499  0.6405
 8565SOL    HW227418   0.449   7.327   5.379 -0.0025 -0.0242  1.5564
 8566SOL     OW27419   6.437   6.838   6.205  0.2308  0.3854  0.3546
 8566SOL    HW127420   6.347   6.835   6.237  0.2125  2.6369  0.6758
 8566SOL    HW227421   6.428   6.865   6.113  0.5799  0.8788  0.4634
 8567SOL     OW27422   0.354   5.787   7.007 -0.3264  0.3881 -0.0900
 8567SOL    HW127423   0.327   5.715   7.064  1.8153 -0.9964 -0.7133
 8567SOL    HW227424   0.329   5.759   6.919 -0.3327  0.8354 -0.2351
 8568SOL     OW27425   9.643   4.905   2.350 -0.2464 -0.9566  0.4771
 8568SOL    HW127426   9.679   4.819   2.329 -1.0965 -1.2110  0.0389
 8568SOL    HW227427   9.567   4.915   2.293  1.2000  1.1085 -1.2669
 8569SOL     OW27428   3.809   5.355   0.038 -0.0941  0.7353 -0.1716
 8569SOL    HW127429   3.860   5.278   0.066 -0.7024  0.1238 -0.7026
 8569SOL    HW227430   3.845   5.427   0.089  1.7896  0.4480 -1.0138
 8570SOL     OW27431   8.027   8.925   6.848  0.3505  0.3621  0.1974
 8570SOL    HW127432   8.024   8.993   6.781  1.2339 -0.0756 -0.3050
 8570SOL    HW227433   8.078   8.854   6.808  0.0081 -0.3293  0.9521
 8571SOL     OW27434   6.292   2.108   5.385 -0.1276 -0.9303  0.4624
 8571SOL    HW127435   6.260   2.101   5.295  1.4208 -0.6880 -0.1278
 8571SOL    HW227436   6.259   2.030   5.428 -2.3469 -0.2192  0.1767
 8572SOL     OW27437   4.884   8.080   3.329 -0.7189  0.1108 -0.6314
 8572SOL    HW127438   4.817   8.099   3.263 -1.9424 -0.5981  0.3576
 8572SOL    HW227439   4.905   7.987   3.315 -0.1113  0.2659 -0.7729
 8573SOL     OW27440   5.119   4.846   9.385  0.4788  0.1285  0.6797
 8573SOL    HW127441   5.029   4.833   9.354  0.6629  0.2865  0.0793
 8573SOL    HW227442   5.174   4.804   9.318  0.8199 -0.7147  1.4604
 8574SOL     OW27443   5.880   4.535   5.292  0.3061  0.8698 -0.0847
 8574SOL    HW127444   5.827   4.582   5.358 -0.4768  1.6232 -1.2154
 8574SOL    HW227445   5.841   4.559   5.209  1.1973 -0.1919 -0.8350
 8575SOL     OW27446   5.457   2.257   6.842  0.4563 -0.3631  0.5165
 8575SOL    HW127447   5.519   2.184   6.837  0.6353 -0.3332  2.0244
 8575SOL    HW227448   5.413   2.246   6.926  0.3718  1.1822  0.7062
 8576SOL     OW27449   5.190   6.030   9.003  0.6198 -0.0646  0.4855
 8576SOL    HW127450   5.097   6.032   9.026  0.6470  0.1337  0.5779
 8576SOL    HW227451   5.231   5.976   9.071  0.6090  0.0430  0.5771
 8577SOL     OW27452   0.396   0.237   0.005  0.1051  0.0392  0.0268
 8577SOL    HW127453   0.375   0.170  -0.061 -1.0971  0.8832 -0.4862
 8577SOL    HW227454   0.435   0.309  -0.044 -0.9334  0.7347  0.1778
 8578SOL     OW27455   9.152   0.544   7.966 -0.5329  0.3248 -0.6722
 8578SOL    HW127456   9.086   0.481   7.939 -0.2691  0.4638 -1.6827
 8578SOL    HW227457   9.128   0.625   7.920 -0.1256  0.5993 -0.4112
 8579SOL     OW27458   8.644   3.712   6.703  0.5110  0.0452  0.3234
 8579SOL    HW127459   8.555   3.704   6.736 -0.2257 -0.4187 -1.6676
 8579SOL    HW227460   8.680   3.624   6.709  0.7002  0.1432  0.6987
 8580SOL     OW27461   8.973   8.743   8.650 -0.3428 -0.1338 -0.4356
 8580SOL    HW127462   8.945   8.697   8.572 -0.9506 -1.4468  0.5174
 8580SOL    HW227463   9.026   8.816   8.618 -1.5012  0.0191 -2.1081
 8581SOL     OW27464   2.298   0.399   7.480  0.7137 -0.3651 -0.1376
 8581SOL    HW127465   2.208   0.428   7.463  1.1453  0.3254 -1.3654
 8581SOL    HW227466   2.344   0.412   7.397  1.7869 -1.3788  0.2695
 8582SOL     OW27467   3.332   9.622   4.352 -0.5859  0.0251  0.5640
 8582SOL    HW127468   3.398   9.557   4.328  1.3844  1.9746  0.3542
 8582SOL    HW227469   3.322   9.676   4.273  0.2017  1.8570  1.6574
 8583SOL     OW27470   6.076   3.631   6.473 -0.4806  0.6090 -0.0413
 8583SOL    HW127471   6.090   3.570   6.546 -0.5342  0.5183 -0.1052
 8583SOL    HW227472   6.001   3.684   6.500 -0.0662  1.0407  0.2679
 8584SOL     OW27473   6.146   7.319   6.486 -0.2711 -0.3464  0.4452
 8584SOL    HW127474   6.181   7.326   6.398  1.7545 -0.3556  1.2094
 8584SOL    HW227475   6.076   7.254   6.478 -2.0806  1.6864 -1.6585
 8585SOL     OW27476   8.038   8.077   3.671 -0.6835  0.4558  0.5602
 8585SOL    HW127477   7.983   8.096   3.594 -2.1556  0.6400  1.6110
 8585SOL    HW227478   8.103   8.015   3.639  0.4564  2.5407 -1.5029
 8586SOL     OW27479   1.907   7.127   9.614  0.4929  0.0372  0.2445
 8586SOL    HW127480   1.890   7.215   9.649 -1.7116  0.0008 -0.5715
 8586SOL    HW227481   1.992   7.103   9.650  2.1192  3.2727 -1.0402
 8587SOL     OW27482   5.894   7.002   0.188  0.3233 -0.5261 -0.2021
 8587SOL    HW127483   5.978   6.960   0.172  0.4436 -0.2136 -0.3942
 8587SOL    HW227484   5.890   7.073   0.125 -0.1060 -0.5658 -0.2232
 8588SOL     OW27485   2.858   2.358   2.015 -0.2271  0.0723  0.1674
 8588SOL    HW127486   2.799   2.284   2.004  0.7358 -0.7044  0.0794
 8588SOL    HW227487   2.870   2.393   1.927 -0.7164  0.3652  0.2147
 8589SOL     OW27488   3.022   2.797   7.336 -0.7341  0.4912 -0.4357
 8589SOL    HW127489   3.038   2.799   7.430 -0.8374  3.4105 -0.4046
 8589SOL    HW227490   2.927   2.788   7.328 -0.6645 -0.5342 -0.3286
 8590SOL     OW27491   6.479   1.107   2.171  0.4294 -0.3243  0.4672
 8590SOL    HW127492   6.506   1.036   2.230  2.0045 -2.5075 -2.6023
 8590SOL    HW227493   6.561   1.149   2.145 -0.0293 -0.5661 -1.4742
 8591SOL     OW27494   7.745   0.738   5.551 -0.1362 -0.1510 -0.1103
 8591SOL    HW127495   7.686   0.793   5.499  0.6434  1.5342  0.7262
 8591SOL    HW227496   7.767   0.791   5.627  1.1701 -1.3932  0.4283
 8592SOL     OW27497   3.651   7.125   8.808 -0.1806  0.0166  0.5808
 8592SOL    HW127498   3.560   7.137   8.837 -0.6899 -1.2997 -0.3360
 8592SOL    HW227499   3.679   7.045   8.850 -0.9103 -1.8903 -2.2634
 8593SOL     OW27500   2.655   1.124   1.171  0.2918 -0.2665  0.0404
 8593SOL    HW127501   2.563   1.098   1.172 -0.4943  2.2662  0.3254
 8593SOL    HW227502   2.701   1.053   1.217 -1.7124 -0.9100  1.1591
 8594SOL     OW27503   3.222   2.283   8.215 -0.1338 -0.2459 -0.2447
 8594SOL    HW127504   3.298   2.237   8.178 -0.1556  0.4665 -1.2016
 8594SOL    HW227505   3.146   2.243   8.174 -0.1360  0.9004 -1.4320
 8595SOL     OW27506   5.297   7.219   1.578 -0.0433 -0.1719  0.1558
 8595SOL    HW127507   5.289   7.213   1.674  0.6708 -1.7915  0.1438
 8595SOL    HW227508   5.228   7.280   1.552  0.2148  0.8671  1.7681
 8596SOL     OW27509   2.146   4.337   3.431 -0.4924 -0.3418  0.0210
 8596SOL    HW127510   2.157   4.275   3.359 -0.8103  0.1851 -0.4931
 8596SOL    HW227511   2.191   4.416   3.403 -0.2717 -0.2660  0.5786
 8597SOL     OW27512   2.066   5.907   8.749 -0.4282  0.6567 -0.0744
 8597SOL    HW127513   2.023   5.878   8.668  0.5748  1.8807 -1.0957
 8597SOL    HW227514   2.159   5.904   8.729 -0.1405  0.6159  1.1820
 8598SOL     OW27515   6.583   7.447   4.422  0.0914 -0.0771 -0.0869
 8598SOL    HW127516   6.522   7.518   4.443 -0.9605 -0.7492 -0.7739
 8598SOL    HW227517   6.650   7.488   4.367 -0.1031  0.5413  0.1322
 8599SOL     OW27518   3.863   7.425   1.246 -0.2628  0.2117  0.1069
 8599SOL    HW127519   3.807   7.422   1.324  0.8665  1.4013  0.9990
 8599SOL    HW227520   3.888   7.517   1.238  1.4618 -0.2689 -0.3317
 8600SOL     OW27521   8.295   6.900   8.198  0.4673 -0.0763 -0.2476
 8600SOL    HW127522   8.307   6.937   8.110 -0.1240  0.4596 -0.1175
 8600SOL    HW227523   8.228   6.832   8.186  1.0912 -0.6765 -0.3753
 8601SOL     OW27524   3.911   5.335   9.468  0.4900 -0.1656 -0.0380
 8601SOL    HW127525   3.820   5.314   9.445 -0.2111  2.5040 -0.0966
 8601SOL    HW227526   3.920   5.307   9.559 -0.5769 -0.0277  0.1284
 8602SOL     OW27527   7.035   9.632   9.161  0.4608 -0.2108 -0.4610
 8602SOL    HW127528   7.106   9.652   9.222  1.4383 -2.9001 -0.5961
 8602SOL    HW227529   6.969   9.699   9.180  1.3251 -0.0216  2.5361
 8603SOL     OW27530   0.349   5.539   5.912 -0.1091  0.5922  0.2928
 8603SOL    HW127531   0.401   5.501   5.841 -1.0894  0.3367 -0.2980
 8603SOL    HW227532   0.408   5.538   5.987  0.5427 -0.2729 -0.2066
 8604SOL     OW27533   3.303   1.828   1.827 -0.1248 -0.4095  0.1138
 8604SOL    HW127534   3.235   1.778   1.871  0.2492 -1.4095 -0.4050
 8604SOL    HW227535   3.383   1.810   1.876  0.1356 -0.8537 -0.4625
 8605SOL     OW27536   7.221   5.193   8.335 -0.0767  0.3906 -0.3510
 8605SOL    HW127537   7.142   5.188   8.389  1.0682 -0.8927  1.3238
 8605SOL    HW227538   7.225   5.283   8.305  0.1612  1.7581  3.2841
 8606SOL     OW27539   4.143   2.385   3.523 -0.5524 -0.4482  0.9309
 8606SOL    HW127540   4.055   2.402   3.557  0.0016 -0.5814  2.5003
 8606SOL    HW227541   4.191   2.349   3.598  0.8802 -0.2486  0.1349
 8607SOL     OW27542   0.737   6.456   1.777 -0.2654 -0.0719  0.1163
 8607SOL    HW127543   0.674   6.491   1.840  0.5917 -0.1840  1.0506
 8607SOL    HW227544   0.685   6.396   1.723 -1.0630  0.2169  0.5406
 8608SOL     OW27545   7.035   3.115   4.092 -0.4489  0.2823  0.4391
 8608SOL    HW127546   7.100   3.184   4.075  2.1279 -1.9654  0.5778
 8608SOL    HW227547   7.020   3.120   4.186 -0.1600  0.5505  0.4763
 8609SOL     OW27548   9.258   9.607   3.917  0.4073  0.1167 -0.0193
 8609SOL    HW127549   9.192   9.564   3.972  0.3927 -0.5958 -0.5813
 8609SOL    HW227550   9.264   9.696   3.952  1.0774 -0.5871  1.7295
 8610SOL     OW27551   6.908   4.284   7.951 -0.0173 -0.4223  0.2670
 8610SOL    HW127552   6.919   4.311   8.042  1.1009 -1.2553  0.4002
 8610SOL    HW227553   6.928   4.363   7.900  0.0634 -0.1467  0.7191
 8611SOL     OW27554   7.025   5.552   2.735 -0.9173 -0.4680  0.0908
 8611SOL    HW127555   7.041   5.459   2.715 -0.6880 -0.3761 -0.1704
 8611SOL    HW227556   7.068   5.599   2.663  1.0670 -0.0769  1.4512
 8612SOL     OW27557   3.125   6.403   7.138  0.7237  0.0063 -0.5890
 8612SOL    HW127558   3.126   6.386   7.044 -0.3275 -1.5006 -0.3584
 8612SOL    HW227559   3.202   6.357   7.172  0.8649  0.1979 -0.6447
 8613SOL     OW27560   5.444   2.806   5.810 -0.1622 -0.1620  0.0571
 8613SOL    HW127561   5.393   2.727   5.830  0.2761 -0.8253 -1.2819
 8613SOL    HW227562   5.393   2.850   5.742  0.2438  0.0160 -0.1350
 8614SOL     OW27563   1.906   2.514   1.393  0.0868 -0.7274 -0.3885
 8614SOL    HW127564   1.968   2.441   1.390 -0.3019 -1.0361 -1.3938
 8614SOL    HW227565   1.864   2.507   1.479  1.1779 -0.7289  0.1542
 8615SOL     OW27566   2.675   7.887   3.859  0.0107 -0.2652 -0.1275
 8615SOL    HW127567   2.605   7.844   3.909  1.1788 -0.6174  1.2933
 8615SOL    HW227568   2.635   7.910   3.776 -1.6625 -0.8683  0.4711
 8616SOL     OW27569   5.277   7.741   1.175 -0.0733 -0.3720  0.6408
 8616SOL    HW127570   5.283   7.651   1.143  0.3449 -0.4276  0.8596
 8616SOL    HW227571   5.361   7.781   1.151  0.0480 -0.2678  1.2101
 8617SOL     OW27572   2.760   3.001   3.069 -0.5155  0.1594  0.0022
 8617SOL    HW127573   2.848   2.978   3.041 -0.9084 -0.7702 -0.5045
 8617SOL    HW227574   2.761   2.989   3.164 -0.7085 -2.0620 -0.2311
 8618SOL     OW27575   3.463   7.944   7.163  0.1149 -0.8071 -0.6178
 8618SOL    HW127576   3.547   7.980   7.135  0.9173 -1.4281  0.8660
 8618SOL    HW227577   3.485   7.884   7.234 -1.6635 -0.4583  0.2930
 8619SOL     OW27578   0.672   4.780   8.080 -0.1560  0.3513  0.5863
 8619SOL    HW127579   0.686   4.873   8.064  1.4959  0.0392  0.0625
 8619SOL    HW227580   0.752   4.750   8.123 -0.3836 -0.9720  0.1455
 8620SOL     OW27581   4.821   0.600   7.058  0.4214 -0.2364 -0.4112
 8620SOL    HW127582   4.896   0.660   7.053  0.1968  0.0736 -0.1098
 8620SOL    HW227583   4.846   0.535   7.123 -0.1773  0.7559  0.8775
 8621SOL     OW27584   8.237   1.289   1.149 -0.1373  0.1394 -0.4661
 8621SOL    HW127585   8.235   1.214   1.090 -2.0961  0.4363 -0.8498
 8621SOL    HW227586   8.175   1.268   1.218 -0.2650  1.1423 -0.2533
 8622SOL     OW27587   1.101   8.448   1.069  0.2630 -0.1507  0.3176
 8622SOL    HW127588   1.029   8.460   1.131 -0.7933 -1.0011 -0.6814
 8622SOL    HW227589   1.179   8.440   1.123 -0.4023  0.6574  1.4450
 8623SOL     OW27590   8.461   6.546   3.386  0.3113 -0.1781 -0.1048
 8623SOL    HW127591   8.405   6.477   3.422  2.0276 -1.7352 -0.2562
 8623SOL    HW227592   8.471   6.608   3.458 -1.4156  0.0443 -0.0204
 8624SOL     OW27593   4.407   3.632   5.458 -0.6339  0.3818  0.0512
 8624SOL    HW127594   4.402   3.699   5.390 -1.4154  0.1813 -0.0907
 8624SOL    HW227595   4.335   3.651   5.517 -1.2197 -0.6609 -0.2950
 8625SOL     OW27596   4.033   8.331   9.585  0.1693  0.3448 -0.1183
 8625SOL    HW127597   3.951   8.313   9.539  0.2680  1.1842 -0.6321
 8625SOL    HW227598   4.023   8.286   9.669 -1.3448  1.4781  0.3496
 8626SOL     OW27599   1.960   5.356   1.393  0.3423  0.0379  0.0223
 8626SOL    HW127600   2.008   5.335   1.313  0.6034  1.4548 -0.2198
 8626SOL    HW227601   1.887   5.411   1.364  0.0975  0.0836  0.6939
 8627SOL     OW27602   7.194   9.003   5.109  0.2537  0.0260  0.2427
 8627SOL    HW127603   7.188   9.053   5.028  1.4777 -1.9321 -1.1468
 8627SOL    HW227604   7.288   8.991   5.122  0.0155 -0.9867  1.1025
 8628SOL     OW27605   1.773   7.416   0.654  0.1797  0.0715  0.0087
 8628SOL    HW127606   1.848   7.369   0.691  1.0568  0.5167 -1.1470
 8628SOL    HW227607   1.715   7.347   0.623 -0.2697 -0.2961  1.5818
 8629SOL     OW27608   6.952   3.859   8.764  0.1630 -0.2196 -0.1341
 8629SOL    HW127609   6.864   3.888   8.788 -0.2258 -1.2151 -0.3164
 8629SOL    HW227610   6.962   3.774   8.806  0.9880 -0.1901 -0.2436
 8630SOL     OW27611   1.882   2.128   9.428 -0.1698 -0.3832  0.3207
 8630SOL    HW127612   1.928   2.165   9.353 -2.0137 -1.0399 -1.2146
 8630SOL    HW227613   1.934   2.052   9.453 -0.2285 -0.9519 -1.1961
 8631SOL     OW27614   8.796   2.214   6.636  0.1718  0.2211  0.2087
 8631SOL    HW127615   8.868   2.165   6.596  0.3367  0.1609  0.5734
 8631SOL    HW227616   8.828   2.305   6.638 -0.0644  0.3165 -0.3088
 8632SOL     OW27617   8.390   2.629   0.388  0.4358  0.0374 -1.1371
 8632SOL    HW127618   8.375   2.716   0.350  0.2342  0.7016  0.4114
 8632SOL    HW227619   8.463   2.593   0.337  0.6089  1.1643 -1.7160
 8633SOL     OW27620   3.398   9.092   1.944  0.1610 -0.3132  0.4246
 8633SOL    HW127621   3.483   9.082   1.901 -0.3225 -0.7110 -0.4685
 8633SOL    HW227622   3.415   9.151   2.017  0.6803  1.9260 -1.3792
 8634SOL     OW27623   8.539   8.183   0.244 -0.5848  0.5422 -0.1513
 8634SOL    HW127624   8.555   8.278   0.249 -0.9287  0.5499  1.0322
 8634SOL    HW227625   8.449   8.176   0.210 -0.1558  0.5987 -1.3563
 8635SOL     OW27626   8.468   6.571   6.516  0.4439  0.5103 -0.8749
 8635SOL    HW127627   8.387   6.551   6.563  1.3776  1.1540  1.0857
 8635SOL    HW227628   8.518   6.490   6.518 -0.0720  0.1332 -2.0266
 8636SOL     OW27629   8.563   3.885   3.885 -0.0297 -0.2726  0.4212
 8636SOL    HW127630   8.597   3.966   3.846  0.5756  0.9794  3.2724
 8636SOL    HW227631   8.479   3.910   3.923  0.4164 -0.7889  1.8114
 8637SOL     OW27632   0.147   2.188   5.374  0.8457 -0.7087  0.0780
 8637SOL    HW127633   0.195   2.268   5.395  1.5787 -0.7824 -1.2210
 8637SOL    HW227634   0.087   2.176   5.448 -0.7469  2.1604 -0.5886
 8638SOL     OW27635   1.589   7.605   0.261  0.1252  0.0115 -0.1238
 8638SOL    HW127636   1.678   7.583   0.289  0.5374 -0.9239 -1.9929
 8638SOL    HW227637   1.601   7.670   0.192 -0.7636  1.1456  0.7451
 8639SOL     OW27638   7.767   1.027   0.027  0.1507  0.0095  0.1049
 8639SOL    HW127639   7.742   0.969   0.098  1.8758 -0.2107  0.5541
 8639SOL    HW227640   7.698   1.094   0.026  0.8103  0.8762  2.9607
 8640SOL     OW27641   7.040   5.330   7.809 -0.8206  0.3493  0.1913
 8640SOL    HW127642   7.002   5.304   7.725 -0.4544  0.7417 -0.0964
 8640SOL    HW227643   7.023   5.255   7.866 -1.5754  0.3119 -0.0708
 8641SOL     OW27644   2.781   5.566   1.754  0.6192 -0.1106  0.1333
 8641SOL    HW127645   2.711   5.502   1.767  0.2837  0.7732  3.3270
 8641SOL    HW227646   2.747   5.625   1.686 -0.7210 -1.0286 -0.0345
 8642SOL     OW27647   3.884   3.434   6.319  0.1083  0.4613 -0.5588
 8642SOL    HW127648   3.978   3.419   6.318 -0.2973 -2.6783 -0.0059
 8642SOL    HW227649   3.855   3.418   6.229 -0.1677 -0.8523 -0.2470
 8643SOL     OW27650   0.398   3.485   3.427  0.0770 -0.6381  0.2463
 8643SOL    HW127651   0.416   3.391   3.429 -1.4741 -0.9760 -0.3071
 8643SOL    HW227652   0.310   3.494   3.463  0.4341  0.6866  0.8652
 8644SOL     OW27653   0.639   5.065   7.709  0.4446 -0.0077  0.1952
 8644SOL    HW127654   0.620   5.154   7.677 -0.0897  0.0315  0.6094
 8644SOL    HW227655   0.685   5.079   7.791 -2.4717 -0.0568  1.9776
 8645SOL     OW27656   3.291   9.272   8.930  0.0900 -0.3934 -0.7771
 8645SOL    HW127657   3.346   9.195   8.938 -1.3032 -1.3952 -0.5516
 8645SOL    HW227658   3.203   9.238   8.917 -0.4758  1.1609 -1.2657
 8646SOL     OW27659   4.758   8.019   1.830 -0.1335 -0.0236  0.2994
 8646SOL    HW127660   4.792   7.944   1.880 -0.5800 -1.4616 -1.4591
 8646SOL    HW227661   4.801   8.012   1.745 -0.8169  1.2459 -0.1656
 8647SOL     OW27662   2.396   8.286   2.909  0.2506  0.5227 -0.2981
 8647SOL    HW127663   2.397   8.368   2.958 -1.0791  0.4203 -0.0722
 8647SOL    HW227664   2.366   8.221   2.972 -0.9698  0.2976 -1.0797
 8648SOL     OW27665   4.813   1.766   4.580 -0.6513 -0.5396 -0.8730
 8648SOL    HW127666   4.751   1.804   4.518  0.6130 -0.3587 -2.0762
 8648SOL    HW227667   4.895   1.763   4.532  0.1891 -1.1269  0.5564
 8649SOL     OW27668   7.390   0.514   9.041 -0.4216  0.9362  0.5778
 8649SOL    HW127669   7.326   0.577   9.008  1.5928  2.7828 -0.0417
 8649SOL    HW227670   7.422   0.469   8.963  0.5451  1.5585  0.5945
 8650SOL     OW27671   0.250   8.520   6.121 -0.2379 -0.5479  0.0140
 8650SOL    HW127672   0.234   8.430   6.092  0.1647 -0.8502  0.6811
 8650SOL    HW227673   0.340   8.518   6.155 -0.1351  0.1735 -0.2125
 8651SOL     OW27674   6.787   7.099   9.345 -0.5955 -0.2026  0.3159
 8651SOL    HW127675   6.745   7.174   9.386 -0.6777 -0.8161  1.3971
 8651SOL    HW227676   6.875   7.130   9.322 -0.8047  0.3661  0.2602
 8652SOL     OW27677   7.124   1.187   2.029  0.0958  0.3028  0.1563
 8652SOL    HW127678   7.058   1.117   2.029 -0.2349  0.5791 -1.4981
 8652SOL    HW227679   7.206   1.142   2.010 -0.4230  0.5143 -3.2538
 8653SOL     OW27680   6.719   2.787   3.844  0.5041  0.0026 -0.2222
 8653SOL    HW127681   6.663   2.824   3.776  0.1646  1.5907  0.8584
 8653SOL    HW227682   6.773   2.861   3.874  1.4893 -0.9395  0.4044
 8654SOL     OW27683   2.084   3.834   1.055 -0.1666  0.2700  0.3384
 8654SOL    HW127684   2.006   3.782   1.075 -0.6359  0.9176  0.2130
 8654SOL    HW227685   2.067   3.871   0.968  1.7552 -2.3444 -1.3140
 8655SOL     OW27686   4.466   2.229   9.265  0.3322 -0.4943 -0.2141
 8655SOL    HW127687   4.481   2.159   9.329  1.0890 -0.0923  0.0662
 8655SOL    HW227688   4.554   2.259   9.242  0.0043  1.0508  0.4378
 8656SOL     OW27689   1.018   8.531   6.771 -0.1187 -0.0248 -0.5990
 8656SOL    HW127690   1.080   8.603   6.783 -0.4353 -0.0234  1.3522
 8656SOL    HW227691   1.068   8.464   6.723  1.1943  0.2336  0.3494
 8657SOL     OW27692   9.566   3.266   4.654  0.0007  0.4670  0.2549
 8657SOL    HW127693   9.652   3.306   4.661 -0.2579  1.3067 -1.1133
 8657SOL    HW227694   9.505   3.337   4.675 -0.3845  0.0298  0.6454
 8658SOL     OW27695   2.542   2.507   5.563 -0.4763  0.3999  0.5990
 8658SOL    HW127696   2.497   2.433   5.604  2.5454 -1.2194  1.2594
 8658SOL    HW227697   2.581   2.470   5.484  0.2047  1.5617  0.3770
 8659SOL     OW27698   9.152   1.132   0.764 -0.3346 -0.2880  0.2933
 8659SOL    HW127699   9.137   1.214   0.716 -0.2763 -0.0672  0.6485
 8659SOL    HW227700   9.092   1.136   0.838 -1.6976 -1.4302 -0.6951
 8660SOL     OW27701   0.778   6.467   0.126  0.1310 -0.6965  0.3331
 8660SOL    HW127702   0.844   6.506   0.069 -0.6020 -1.4760 -1.1028
 8660SOL    HW227703   0.695   6.494   0.088 -0.4057 -0.1490  1.8271
 8661SOL     OW27704   9.582   9.399   6.169  0.1075  0.0676  0.9129
 8661SOL    HW127705   9.561   9.317   6.214 -1.6760 -0.9701 -1.5880
 8661SOL    HW227706   9.625   9.371   6.088  0.6770  1.6840  0.6251
 8662SOL     OW27707   3.571   4.705   5.186  0.0128  0.4121 -0.1133
 8662SOL    HW127708   3.480   4.707   5.154 -0.5680 -2.1982  1.0797
 8662SOL    HW227709   3.621   4.752   5.119 -1.9361  0.1483 -1.8629
 8663SOL     OW27710   7.971   3.402   5.866 -0.1162  0.3819  0.5777
 8663SOL    HW127711   7.947   3.441   5.782  0.0490 -0.0454  0.3325
 8663SOL    HW227712   8.026   3.468   5.908 -1.3226  1.1882  0.9563
 8664SOL     OW27713   7.604   2.515   8.393 -0.2526 -1.1219  0.0126
 8664SOL    HW127714   7.568   2.427   8.403  1.1266 -1.6116  1.0204
 8664SOL    HW227715   7.628   2.521   8.300 -1.6309 -1.2627 -0.3750
 8665SOL     OW27716   8.827   6.711   7.430  0.2214 -0.3132 -0.1714
 8665SOL    HW127717   8.859   6.634   7.478 -1.1037  0.1187  1.5101
 8665SOL    HW227718   8.881   6.783   7.462 -1.1078  0.0981  1.3079
 8666SOL     OW27719   7.702   5.818   6.672  0.0541 -0.0615 -0.1813
 8666SOL    HW127720   7.755   5.856   6.741  0.7268  1.3874 -1.4365
 8666SOL    HW227721   7.708   5.880   6.599 -0.8173 -1.3971 -1.4654
 8667SOL     OW27722   4.202   0.596   9.052 -0.3486 -0.1668  0.1491
 8667SOL    HW127723   4.151   0.625   8.977  0.2250 -1.6370 -0.8627
 8667SOL    HW227724   4.137   0.581   9.121 -1.0364 -0.0727 -0.4715
 8668SOL     OW27725   5.901   1.772   3.455 -0.3943  0.2443  0.1496
 8668SOL    HW127726   5.985   1.751   3.496 -0.7132 -0.0584  0.6588
 8668SOL    HW227727   5.850   1.691   3.462 -0.9251  0.5906  0.3574
 8669SOL     OW27728   7.914   6.333   3.314  0.0528  0.5333  0.1092
 8669SOL    HW127729   7.974   6.401   3.345  0.3756  0.0724  0.5170
 8669SOL    HW227730   7.916   6.267   3.383  0.3736 -0.2722 -0.6656
 8670SOL     OW27731   5.634   5.341   5.363 -0.3423  0.8144 -0.3286
 8670SOL    HW127732   5.725   5.345   5.390 -0.1263 -1.3456 -0.5367
 8670SOL    HW227733   5.589   5.299   5.437 -0.5242 -1.1500 -1.4767
 8671SOL     OW27734   5.587   8.659   5.714 -0.2578 -0.3244  0.2597
 8671SOL    HW127735   5.496   8.676   5.688 -0.3149 -0.8881  0.0833
 8671SOL    HW227736   5.637   8.728   5.671 -0.9270  1.9647  2.8696
 8672SOL     OW27737   2.067   8.824   8.813  0.1943 -0.3713 -0.0305
 8672SOL    HW127738   2.134   8.771   8.771  0.0205 -0.8336  0.2685
 8672SOL    HW227739   2.005   8.761   8.849 -0.0543  0.0332  0.2665
 8673SOL     OW27740   3.951   3.121   0.467  0.0221 -0.2099 -0.3937
 8673SOL    HW127741   3.993   3.042   0.433 -0.5590 -0.7370  0.0913
 8673SOL    HW227742   4.022   3.172   0.506  0.3728 -0.5615 -0.5712
 8674SOL     OW27743   8.377   1.967   4.197  0.0429  0.3239 -0.5423
 8674SOL    HW127744   8.370   2.060   4.220 -0.4544  0.6232 -1.7937
 8674SOL    HW227745   8.354   1.964   4.104  1.7216 -0.8302 -0.9655
 8675SOL     OW27746   8.519   4.206   8.995 -0.0008  0.0766  0.4600
 8675SOL    HW127747   8.450   4.237   9.053 -0.9649 -1.3582  0.1328
 8675SOL    HW227748   8.474   4.152   8.930  0.9793  1.8344 -1.8587
 8676SOL     OW27749   9.546   6.805   6.068  0.1875  0.1762 -0.2462
 8676SOL    HW127750   9.577   6.852   5.991  1.3336 -2.7698 -1.7436
 8676SOL    HW227751   9.500   6.871   6.120  0.4667  2.5656 -2.8142
 8677SOL     OW27752   2.824   8.237   7.801  0.3419  0.4716 -0.0385
 8677SOL    HW127753   2.750   8.185   7.832  0.4454 -0.8173 -1.8267
 8677SOL    HW227754   2.813   8.322   7.844 -1.7433  0.0776  0.3135
 8678SOL     OW27755   3.805   3.075   8.733  0.0817  0.0045  0.0879
 8678SOL    HW127756   3.876   3.012   8.744  0.0160 -0.3560 -1.3537
 8678SOL    HW227757   3.844   3.148   8.686 -0.6600 -0.5848 -1.5262
 8679SOL     OW27758   5.767   5.429   9.214 -0.0365  0.5571 -0.1771
 8679SOL    HW127759   5.737   5.355   9.162  0.3243  1.3044 -1.4741
 8679SOL    HW227760   5.763   5.397   9.305  2.4463 -1.9238 -0.8070
 8680SOL     OW27761   4.630   6.683   6.643 -0.0468  0.0538 -0.1274
 8680SOL    HW127762   4.554   6.639   6.683  1.2084 -0.9969  1.1913
 8680SOL    HW227763   4.680   6.717   6.717 -1.0544  4.1039 -1.0434
 8681SOL     OW27764   7.823   3.870   7.972  0.0680  0.4922  0.5708
 8681SOL    HW127765   7.743   3.898   7.927  1.8751  1.9010 -1.9972
 8681SOL    HW227766   7.808   3.893   8.064 -3.2569 -1.2814  0.6252
 8682SOL     OW27767   4.789   5.091   7.880 -0.6318 -0.1410 -0.2227
 8682SOL    HW127768   4.849   5.042   7.824 -0.8391 -1.0458  0.3167
 8682SOL    HW227769   4.843   5.159   7.920 -0.1832 -0.3416 -0.4768
 8683SOL     OW27770   0.616   7.146   9.444 -0.1695  0.5259  0.1354
 8683SOL    HW127771   0.649   7.198   9.370 -1.5706  0.4176 -0.6000
 8683SOL    HW227772   0.691   7.093   9.471  0.3424  0.4615 -1.3225
 8684SOL     OW27773   7.552   6.394   3.903 -0.3511  0.1407 -0.0478
 8684SOL    HW127774   7.540   6.475   3.953  1.7982 -0.0547  0.9300
 8684SOL    HW227775   7.641   6.401   3.869 -0.5229 -1.3339 -0.8608
 8685SOL     OW27776   3.823   3.043   6.755  0.5928 -0.0976 -0.4331
 8685SOL    HW127777   3.798   2.963   6.709  0.3723  0.0252 -0.5312
 8685SOL    HW227778   3.740   3.086   6.776  0.6759 -0.3538  0.4486
 8686SOL     OW27779   8.397   1.687   1.355 -0.3461  0.2204 -0.1322
 8686SOL    HW127780   8.365   1.716   1.270 -1.6511 -0.4656  0.0822
 8686SOL    HW227781   8.365   1.753   1.417  0.3853  0.5861 -0.1371
 8687SOL     OW27782   4.083   4.044   7.105 -0.0330 -0.8348  0.0373
 8687SOL    HW127783   4.019   3.974   7.104 -1.3129  0.3031 -0.0605
 8687SOL    HW227784   4.059   4.098   7.180  0.3658  0.0094 -0.4202
 8688SOL     OW27785   3.267   3.910   3.240  0.6043 -0.1401 -0.4690
 8688SOL    HW127786   3.230   3.960   3.312 -1.4479 -0.7695 -1.0189
 8688SOL    HW227787   3.286   3.824   3.278 -0.1043 -0.3445 -0.5603
 8689SOL     OW27788   4.711   6.877   6.222 -0.0046 -1.1765  0.3342
 8689SOL    HW127789   4.805   6.881   6.201  0.0791  0.5905  0.9216
 8689SOL    HW227790   4.688   6.966   6.247 -1.6351 -1.7932  1.1673
 8690SOL     OW27791   7.793   2.072   1.788  0.2682  0.1501 -0.3894
 8690SOL    HW127792   7.744   2.155   1.785 -1.9148 -1.0188  0.7267
 8690SOL    HW227793   7.805   2.055   1.882 -0.7822 -1.5864 -0.5308
 8691SOL     OW27794   6.853   7.846   7.879 -0.3780 -0.1904 -0.4893
 8691SOL    HW127795   6.814   7.906   7.943  0.4713 -1.3968  1.2301
 8691SOL    HW227796   6.925   7.896   7.840  0.1706  0.0016  0.7480
 8692SOL     OW27797   6.125   9.284   8.213 -0.0768 -0.0140 -0.3501
 8692SOL    HW127798   6.141   9.353   8.149  0.2856 -0.2219 -0.4832
 8692SOL    HW227799   6.110   9.330   8.296 -1.7716  0.3293 -0.8078
 8693SOL     OW27800   6.817   1.127   7.472  0.3767  0.1326  0.3521
 8693SOL    HW127801   6.772   1.057   7.519  0.8353 -0.4883 -0.1095
 8693SOL    HW227802   6.810   1.102   7.380  0.7218  0.5936  0.1969
 8694SOL     OW27803   0.235   5.755   8.248 -0.0823  0.3722  0.3444
 8694SOL    HW127804   0.281   5.839   8.245 -0.5445  0.6561  0.9782
 8694SOL    HW227805   0.155   5.770   8.198  0.5413 -0.1557 -0.8537
 8695SOL     OW27806   2.863   0.426   8.009 -0.2711 -0.2014 -0.0591
 8695SOL    HW127807   2.801   0.400   8.078 -1.7232  1.4960 -0.6648
 8695SOL    HW227808   2.845   0.366   7.937 -1.5076  0.5261 -0.3733
 8696SOL     OW27809   0.030   6.079   6.757 -0.8944 -0.8837  0.1565
 8696SOL    HW127810   0.021   6.151   6.820 -2.9789 -1.1658  0.2575
 8696SOL    HW227811  -0.058   6.041   6.751 -0.3713 -1.9475 -1.6600
 8697SOL     OW27812   7.171   5.579   4.723  0.0633  0.3327 -0.3653
 8697SOL    HW127813   7.161   5.578   4.818  1.4836 -0.5600 -0.1977
 8697SOL    HW227814   7.131   5.662   4.696 -1.2504  0.1418  0.8842
 8698SOL     OW27815   2.320   2.606   0.788  0.0623 -0.4265 -0.7233
 8698SOL    HW127816   2.378   2.566   0.853 -1.3853 -0.7389  0.4491
 8698SOL    HW227817   2.368   2.683   0.757  1.6530 -1.4058 -0.8273
 8699SOL     OW27818   3.336   8.748   7.271 -0.0147 -0.1704 -0.4062
 8699SOL    HW127819   3.264   8.685   7.273  0.6679 -0.9620  1.5876
 8699SOL    HW227820   3.409   8.702   7.313  0.9268  1.4726 -0.1751
 8700SOL     OW27821   8.100   4.362   2.837 -0.0571 -0.1767 -0.0421
 8700SOL    HW127822   8.142   4.328   2.916 -1.4351 -0.3555  0.6537
 8700SOL    HW227823   8.043   4.432   2.868 -1.4711 -0.9941 -0.6965
 8701SOL     OW27824   2.955   9.132   2.754 -0.3678  0.7427  0.2633
 8701SOL    HW127825   2.989   9.110   2.667 -2.2895  0.6257 -0.5095
 8701SOL    HW227826   3.030   9.122   2.812  0.6505 -0.5251 -1.1754
 8702SOL     OW27827   0.510   3.328   8.359 -0.5708 -0.1361  0.2485
 8702SOL    HW127828   0.507   3.286   8.445  1.7887  0.1667  0.5490
 8702SOL    HW227829   0.506   3.255   8.297 -1.2988 -0.4270  0.6280
 8703SOL     OW27830   1.029   8.460   3.797 -0.5287 -0.5292 -0.2170
 8703SOL    HW127831   1.095   8.401   3.759  0.2101  0.7710 -1.0538
 8703SOL    HW227832   0.987   8.501   3.721 -1.4335 -0.4046  0.3382
 8704SOL     OW27833   3.022   2.552   7.197  0.0913 -0.3957  0.7758
 8704SOL    HW127834   3.023   2.610   7.121  0.0744 -0.7010  0.5425
 8704SOL    HW227835   3.068   2.602   7.266  1.5479 -0.7615  0.1046
 8705SOL     OW27836   1.130   6.611   8.456 -0.1514 -0.5220  0.0882
 8705SOL    HW127837   1.208   6.572   8.494 -0.7199 -2.0886 -0.2697
 8705SOL    HW227838   1.083   6.537   8.416 -2.0186  0.2896  0.6559
 8706SOL     OW27839   0.217   3.962   8.993  0.1746 -0.1305 -0.1452
 8706SOL    HW127840   0.129   3.984   8.962  0.2405 -0.0874 -0.2992
 8706SOL    HW227841   0.232   4.022   9.066 -0.4931 -1.0922  0.8207
 8707SOL     OW27842   7.011   8.368   6.823  0.2711 -0.2175  0.1744
 8707SOL    HW127843   6.962   8.449   6.810 -2.0349 -0.9446  3.0441
 8707SOL    HW227844   6.971   8.306   6.762 -1.7952 -0.4948  1.6961
 8708SOL     OW27845   7.653   8.687   6.377  0.1857  0.4303  0.3475
 8708SOL    HW127846   7.629   8.762   6.322  0.2972  0.0285 -0.2677
 8708SOL    HW227847   7.571   8.658   6.415 -0.3541 -0.8060 -1.5761
 8709SOL     OW27848   0.028   3.376   6.066 -0.0983 -0.3838 -0.3294
 8709SOL    HW127849   0.071   3.295   6.092  1.4808  0.6001  0.3153
 8709SOL    HW227850   0.084   3.445   6.103 -1.3813  0.9914 -0.8700
 8710SOL     OW27851   5.214   3.377   8.964  0.1594  0.0533  0.1930
 8710SOL    HW127852   5.184   3.436   8.895 -1.4035 -0.5410  0.3216
 8710SOL    HW227853   5.156   3.301   8.957  0.3721 -0.2800  1.7676
 8711SOL     OW27854   3.609   0.696   2.405 -0.0938  0.4592 -0.3942
 8711SOL    HW127855   3.517   0.678   2.387  0.0252  0.8310 -1.3915
 8711SOL    HW227856   3.622   0.787   2.377  0.1075  1.0856  1.5644
 8712SOL     OW27857   5.747   3.471   7.264  0.0004 -0.1132  0.0268
 8712SOL    HW127858   5.764   3.415   7.188 -1.0110 -0.6727  0.2008
 8712SOL    HW227859   5.833   3.506   7.287 -0.0037  2.7478 -3.3702
 8713SOL     OW27860   0.684   1.736   1.733  0.1034 -0.4411  0.2486
 8713SOL    HW127861   0.625   1.804   1.764  0.1476 -0.4170  0.2798
 8713SOL    HW227862   0.765   1.782   1.711  0.9415 -0.7738  2.4374
 8714SOL     OW27863   1.386   5.641   2.912  0.0551  0.1395  0.2825
 8714SOL    HW127864   1.303   5.680   2.940  0.0952  0.3526  0.1093
 8714SOL    HW227865   1.375   5.627   2.818 -0.5911 -1.8473  0.6105
 8715SOL     OW27866   1.574   9.239   5.307  0.2573  0.2701  0.1365
 8715SOL    HW127867   1.511   9.256   5.237 -1.3744  2.4996  1.9940
 8715SOL    HW227868   1.543   9.158   5.348  0.0722  0.0144 -0.4993
 8716SOL     OW27869   3.580   2.141   6.997  0.9485  0.1394 -0.3756
 8716SOL    HW127870   3.490   2.113   7.014  0.7738  1.4060  1.0717
 8716SOL    HW227871   3.573   2.236   6.984  2.1631  0.3999  0.6430
 8717SOL     OW27872   2.277   7.645   2.288  0.3197 -0.5003 -0.3553
 8717SOL    HW127873   2.211   7.634   2.356  0.4612 -1.3165 -0.3498
 8717SOL    HW227874   2.354   7.676   2.334 -0.0345  0.4225 -0.3560
 8718SOL     OW27875   5.931   5.451   2.877  0.0148  0.1742 -0.1248
 8718SOL    HW127876   5.836   5.457   2.885  0.1317 -0.3177  2.0586
 8718SOL    HW227877   5.965   5.517   2.936  1.0460 -0.0102 -0.4868
 8719SOL     OW27878   7.899   2.691   6.601 -0.3430  0.3575  0.4132
 8719SOL    HW127879   7.970   2.755   6.600 -0.7207  0.7900  0.7446
 8719SOL    HW227880   7.925   2.625   6.537 -0.1096  1.0280 -0.1974
 8720SOL     OW27881   5.377   7.107   6.258  0.0630 -0.3048  0.5464
 8720SOL    HW127882   5.368   7.071   6.346 -0.3390  0.7473  0.9499
 8720SOL    HW227883   5.460   7.154   6.258 -2.0233  3.9327  2.0151
 8721SOL     OW27884   6.779   5.603   6.648  0.2483 -0.5290 -0.1337
 8721SOL    HW127885   6.782   5.509   6.635  1.6296 -0.5902  0.4021
 8721SOL    HW227886   6.870   5.632   6.637 -0.2239  0.8137 -0.7933
 8722SOL     OW27887   0.324   6.424   8.396  0.1286  0.3239  0.3095
 8722SOL    HW127888   0.315   6.331   8.421  0.1902  0.0949 -0.5058
 8722SOL    HW227889   0.325   6.423   8.301 -2.2047  1.3726  0.2027
 8723SOL     OW27890   6.509   2.438   8.201 -0.0995 -0.5421  0.1581
 8723SOL    HW127891   6.598   2.429   8.168  0.5609 -0.2140  1.7547
 8723SOL    HW227892   6.499   2.531   8.221 -0.0629 -0.8770  1.8779
 8724SOL     OW27893   6.267   1.595   7.772  0.3586  0.8794 -0.5527
 8724SOL    HW127894   6.182   1.586   7.814  0.4545 -1.0946 -0.6532
 8724SOL    HW227895   6.328   1.611   7.844  0.1251  0.5297 -0.2728
 8725SOL     OW27896   2.903   2.155   7.300 -0.2066 -0.4363 -0.4931
 8725SOL    HW127897   2.921   2.139   7.392  0.2129  1.8359 -0.1234
 8725SOL    HW227898   2.859   2.239   7.298 -1.1709 -0.9222 -2.3095
 8726SOL     OW27899   3.256   4.675   2.114 -0.1330  0.2064  0.3404
 8726SOL    HW127900   3.242   4.612   2.043  2.0742 -1.8503  1.5745
 8726SOL    HW227901   3.305   4.747   2.073 -0.4823 -0.0578 -0.5737
 8727SOL     OW27902   3.281   7.041   2.670  0.1809 -0.6197 -0.1437
 8727SOL    HW127903   3.356   7.069   2.619 -0.0950 -0.1213 -0.2787
 8727SOL    HW227904   3.272   7.107   2.739 -0.6925 -0.1563 -0.6812
 8728SOL     OW27905   8.974   0.314   4.847 -0.0292 -0.5933 -0.1237
 8728SOL    HW127906   9.018   0.400   4.846 -2.2567  0.6510  1.1049
 8728SOL    HW227907   9.013   0.267   4.774  0.4619  1.8933 -1.5913
 8729SOL     OW27908   2.434   3.677   9.245  0.3313  0.0709 -0.0079
 8729SOL    HW127909   2.368   3.717   9.189 -0.9422 -1.9758 -0.0492
 8729SOL    HW227910   2.473   3.608   9.191  0.9467 -0.2043  0.7658
 8730SOL     OW27911   6.864   1.206   3.747 -0.5538 -0.2066 -0.1550
 8730SOL    HW127912   6.862   1.298   3.720  2.6326  0.0300 -0.0125
 8730SOL    HW227913   6.857   1.157   3.665  0.8953  0.3013 -0.6144
 8731SOL     OW27914   9.090   8.556   3.686  0.4392  0.1634 -0.0896
 8731SOL    HW127915   9.034   8.568   3.763 -0.1377 -3.2851  0.2229
 8731SOL    HW227916   9.048   8.606   3.617 -1.2822  0.1951  0.9126
 8732SOL     OW27917   2.760   2.286   3.696  0.0844 -0.1927 -0.3866
 8732SOL    HW127918   2.762   2.255   3.787 -0.3178 -0.3706 -0.4375
 8732SOL    HW227919   2.831   2.239   3.653  0.5423  0.1948 -0.0691
 8733SOL     OW27920   1.661   7.211   5.498  0.1837 -0.0605  0.3031
 8733SOL    HW127921   1.682   7.123   5.467  0.0449 -0.0755  0.2532
 8733SOL    HW227922   1.730   7.266   5.462 -1.1433  0.2928 -1.8358
 8734SOL     OW27923   0.643   3.549   8.463  0.2699 -0.1553 -0.4637
 8734SOL    HW127924   0.575   3.484   8.444 -1.7245  1.9894 -1.0525
 8734SOL    HW227925   0.642   3.558   8.558  3.3728 -3.7169  0.1467
 8735SOL     OW27926   8.937   8.524   7.302 -0.4051  0.2307 -0.1274
 8735SOL    HW127927   9.014   8.474   7.329  0.6473  1.8220 -0.1064
 8735SOL    HW227928   8.900   8.474   7.229 -1.3860 -2.3955  1.9817
 8736SOL     OW27929   9.259   5.676   4.432  0.1630 -0.0946 -0.7542
 8736SOL    HW127930   9.195   5.733   4.474  0.6879 -0.5381  0.6765
 8736SOL    HW227931   9.214   5.644   4.353 -2.0786 -1.7943  1.0857
 8737SOL     OW27932   1.657   3.276   7.912  0.1579 -0.1222 -0.3708
 8737SOL    HW127933   1.641   3.326   7.992 -0.3116  0.3976 -0.7838
 8737SOL    HW227934   1.683   3.341   7.847 -0.3255 -0.4232 -0.8734
 8738SOL     OW27935   8.176   1.129   7.937  0.3308 -0.3137 -0.4497
 8738SOL    HW127936   8.189   1.036   7.917  1.0557  0.0367 -1.7279
 8738SOL    HW227937   8.167   1.171   7.851  1.6334  1.0218  0.0241
 8739SOL     OW27938   3.676   6.707   6.592 -0.0778 -0.2094  0.1377
 8739SOL    HW127939   3.768   6.699   6.618 -0.2230 -1.2672  0.4134
 8739SOL    HW227940   3.628   6.664   6.663 -0.6117 -1.6955 -1.0493
 8740SOL     OW27941   7.746   7.892   7.973  0.0229 -1.0037 -0.0593
 8740SOL    HW127942   7.759   7.799   7.989 -1.2163 -0.9789  1.2304
 8740SOL    HW227943   7.651   7.902   7.964 -0.2936  0.6183  3.4699
 8741SOL     OW27944   1.246   8.389   6.512 -0.7308  0.1310  0.2412
 8741SOL    HW127945   1.231   8.321   6.446 -2.0068  1.0415 -0.4422
 8741SOL    HW227946   1.227   8.346   6.595 -2.3407 -0.1504 -0.2371
 8742SOL     OW27947   6.756   6.862   2.455  0.6585 -0.1147  0.4779
 8742SOL    HW127948   6.754   6.767   2.468  0.7911 -0.1585  0.2025
 8742SOL    HW227949   6.701   6.876   2.378  1.3994 -0.0729 -0.0524
 8743SOL     OW27950   9.036   3.449   2.364  0.3978 -0.2744 -0.0728
 8743SOL    HW127951   9.025   3.539   2.394  1.6514 -0.8416  2.3423
 8743SOL    HW227952   9.124   3.447   2.326  0.6316 -0.5882  0.4641
 8744SOL     OW27953   6.185   7.115   2.388  0.7233 -0.2339  0.0616
 8744SOL    HW127954   6.196   7.032   2.341  0.2056  0.6165 -1.6620
 8744SOL    HW227955   6.091   7.125   2.398  0.7751 -1.9686  4.4151
 8745SOL     OW27956   1.005   2.273   1.945  0.2958  0.0379 -0.0333
 8745SOL    HW127957   1.058   2.248   2.021 -0.1377  1.8678  0.9265
 8745SOL    HW227958   1.030   2.364   1.928 -1.3360  0.4073 -0.5870
 8746SOL     OW27959   5.531   0.230   7.852  0.6056 -0.0747 -1.0664
 8746SOL    HW127960   5.490   0.290   7.789  1.0524 -0.7971 -2.0683
 8746SOL    HW227961   5.507   0.266   7.937 -3.9370 -1.5667 -1.4692
 8747SOL     OW27962   2.839   3.888   9.337 -0.4104  0.0740  0.1283
 8747SOL    HW127963   2.796   3.888   9.251 -0.6695 -0.1306  0.2584
 8747SOL    HW227964   2.863   3.796   9.351 -3.0663 -0.4744  1.6305
 8748SOL     OW27965   3.475   4.182   1.472 -0.3353  0.7725  0.5191
 8748SOL    HW127966   3.391   4.167   1.429 -0.5907  1.1583  0.8683
 8748SOL    HW227967   3.527   4.104   1.454  0.7727  2.1885 -3.2818
 8749SOL     OW27968   6.672   0.782   0.124 -0.0701  0.2907 -0.1398
 8749SOL    HW127969   6.722   0.826   0.055  0.7763  0.4948  0.5837
 8749SOL    HW227970   6.594   0.836   0.134 -0.8991 -0.5039 -1.8774
 8750SOL     OW27971   2.277   1.098   8.498 -0.2640  0.1809 -0.4899
 8750SOL    HW127972   2.276   1.146   8.415  0.5180 -0.3547 -0.8129
 8750SOL    HW227973   2.369   1.092   8.521 -0.4386 -0.1691  0.1384
 8751SOL     OW27974   5.643   7.260   7.755  0.3015  0.1833 -0.1803
 8751SOL    HW127975   5.718   7.204   7.772  0.4194  0.6446  0.8723
 8751SOL    HW227976   5.675   7.324   7.691  0.5782 -0.0845 -0.3117
 8752SOL     OW27977   4.236   4.268   3.613  0.0204  0.0770  0.2052
 8752SOL    HW127978   4.320   4.263   3.658 -0.2234 -0.2921  0.6253
 8752SOL    HW227979   4.258   4.290   3.522  0.6864 -1.6018 -0.0725
 8753SOL     OW27980   1.507   5.544   7.022 -0.2041  0.4536 -0.3076
 8753SOL    HW127981   1.600   5.529   7.042  0.1390  1.8297 -0.7780
 8753SOL    HW227982   1.465   5.551   7.108  0.0866 -0.3822 -0.0919
 8754SOL     OW27983   9.112   4.282   4.516  0.7975 -0.1368 -0.2314
 8754SOL    HW127984   9.073   4.196   4.529  1.4528 -0.6301 -1.3948
 8754SOL    HW227985   9.066   4.318   4.440  1.7898 -0.2509 -0.9033
 8755SOL     OW27986   8.501   2.933   2.598  0.4610 -1.0475  0.5495
 8755SOL    HW127987   8.416   2.967   2.627  0.0390 -1.0885 -0.6078
 8755SOL    HW227988   8.563   2.970   2.661 -0.6053 -2.6744  2.7065
 8756SOL     OW27989   3.026   5.653   1.875 -0.3007 -0.8048  0.4510
 8756SOL    HW127990   2.947   5.608   1.848 -0.7036 -0.1092  0.4550
 8756SOL    HW227991   3.055   5.700   1.796 -1.1544  0.7564  1.0435
 8757SOL     OW27992   0.155   9.225   2.451  0.4859  0.0605 -0.0146
 8757SOL    HW127993   0.188   9.136   2.436  1.1120  0.1451  0.8007
 8757SOL    HW227994   0.233   9.280   2.451  0.1616  0.5303  0.1108
 8758SOL     OW27995   7.013   3.428   5.684  0.0729 -0.0462 -0.3498
 8758SOL    HW127996   7.047   3.471   5.763  0.6847 -1.2878  0.0863
 8758SOL    HW227997   7.090   3.411   5.631  0.1321 -2.1889  0.3001
 8759SOL     OW27998   6.899   4.328   4.378  0.8197 -0.2256  0.1122
 8759SOL    HW127999   6.977   4.309   4.430  1.2843  1.4795  0.0977
 8759SOL    HW228000   6.843   4.380   4.436  2.3057  3.6340 -1.6170
 8760SOL     OW28001   5.953   5.931   0.282 -0.0428 -0.3576  0.2845
 8760SOL    HW128002   5.905   5.999   0.329  0.7563 -0.4996  1.3661
 8760SOL    HW228003   5.909   5.849   0.306  0.7436 -0.4949  1.3329
 8761SOL     OW28004   2.517   7.412   4.556 -0.2875 -0.0675  0.1610
 8761SOL    HW128005   2.593   7.464   4.531  0.2412 -1.0723 -0.3794
 8761SOL    HW228006   2.467   7.469   4.614  1.0868  0.4672  0.8691
 8762SOL     OW28007   0.128   2.493   9.205  0.1295  0.0498  0.1414
 8762SOL    HW128008   0.151   2.409   9.245 -1.4346  0.3330  1.7507
 8762SOL    HW228009   0.203   2.514   9.148  0.2933 -2.6946 -0.8095
 8763SOL     OW28010   3.832   5.334   5.210  0.2351  0.3814 -0.7795
 8763SOL    HW128011   3.831   5.344   5.306 -2.9843  2.0548 -0.8604
 8763SOL    HW228012   3.904   5.389   5.181 -0.8315  2.6523  0.5657
 8764SOL     OW28013   4.869   7.907   1.345  0.3986  0.3408  0.0966
 8764SOL    HW128014   4.774   7.904   1.330  0.3198  3.5165 -0.9336
 8764SOL    HW228015   4.903   7.957   1.271  2.8274 -0.2511  0.7394
 8765SOL     OW28016   2.892   8.938   9.046  0.0507  0.0793  0.1091
 8765SOL    HW128017   2.875   8.893   8.963 -1.7439  0.4020  0.2665
 8765SOL    HW228018   2.806   8.953   9.084  0.5862  3.0949  0.3804
 8766SOL     OW28019   4.950   2.543   7.667 -0.1355 -0.6056 -0.7521
 8766SOL    HW128020   4.880   2.605   7.687 -0.4499 -1.4117  0.7287
 8766SOL    HW228021   5.027   2.598   7.654 -0.7141  0.1900 -0.9181
 8767SOL     OW28022   7.984   4.456   3.784 -0.1625 -0.5167 -0.1072
 8767SOL    HW128023   8.033   4.448   3.702  0.0435 -2.4497  0.1672
 8767SOL    HW228024   8.051   4.449   3.852 -0.3940  0.6038  0.2580
 8768SOL     OW28025   5.665   2.041   3.215  0.3240  0.0636 -0.0138
 8768SOL    HW128026   5.590   2.039   3.275  1.6122  0.8185  1.7296
 8768SOL    HW228027   5.627   2.046   3.128 -1.6567  1.6826  0.8796
 8769SOL     OW28028   1.644   4.449   9.419  0.1827  0.0396  0.1123
 8769SOL    HW128029   1.601   4.419   9.339 -1.3972 -0.7874  1.2153
 8769SOL    HW228030   1.621   4.542   9.424  0.0536  0.0293 -0.2388
 8770SOL     OW28031   5.223   9.434   1.782 -0.3259 -0.2250 -0.0745
 8770SOL    HW128032   5.304   9.482   1.798  0.9962 -1.9237 -1.2946
 8770SOL    HW228033   5.202   9.453   1.691 -1.8801  0.9371  0.4784
 8771SOL     OW28034   6.139   3.576   2.440  0.1872  0.5655 -0.8657
 8771SOL    HW128035   6.185   3.657   2.419 -1.0069  1.1453 -1.3506
 8771SOL    HW228036   6.051   3.589   2.405 -0.3999 -0.4299  0.1653
 8772SOL     OW28037   5.040   2.353   3.401  0.0809  0.2238  0.1850
 8772SOL    HW128038   5.051   2.408   3.324  0.3560  0.7793  0.6218
 8772SOL    HW228039   4.976   2.399   3.456  1.3751  0.8587  1.2226
 8773SOL     OW28040   0.830   9.540   9.347  0.4509 -0.4516  0.3415
 8773SOL    HW128041   0.817   9.522   9.254  0.2529  0.7356  0.1275
 8773SOL    HW228042   0.754   9.499   9.390  0.4799 -0.8961 -0.0241
 8774SOL     OW28043   8.082   8.564   7.594 -0.1286 -0.0642  0.5067
 8774SOL    HW128044   8.147   8.566   7.664  0.6386  0.2216 -0.2082
 8774SOL    HW228045   7.998   8.575   7.640  0.1464 -2.1768  1.6129
 8775SOL     OW28046   4.109   3.429   0.807  0.0113 -0.3224 -0.3620
 8775SOL    HW128047   4.202   3.436   0.829 -0.9889  1.9013  4.2350
 8775SOL    HW228048   4.086   3.517   0.775 -0.9566  0.0021  1.1323
 8776SOL     OW28049   5.667   9.374   5.655 -0.9341 -0.3923  0.2399
 8776SOL    HW128050   5.704   9.445   5.708  0.8605 -0.6427 -0.6001
 8776SOL    HW228051   5.743   9.334   5.612 -1.8384 -2.9931  0.8467
 8777SOL     OW28052   8.212   3.227   8.479  0.1638 -0.7631 -0.4219
 8777SOL    HW128053   8.305   3.229   8.502  0.0137  3.1475  0.6272
 8777SOL    HW228054   8.209   3.256   8.388  0.0085  1.1479  0.1291
 8778SOL     OW28055   2.451   1.961   3.227 -0.6165  0.0421  0.1283
 8778SOL    HW128056   2.424   2.021   3.296  2.4969  0.9257  0.7361
 8778SOL    HW228057   2.493   1.889   3.273 -1.9693 -1.3600 -0.7329
 8779SOL     OW28058   8.095   9.155   9.018  0.2644  0.1594 -0.2727
 8779SOL    HW128059   8.140   9.127   8.938 -0.1960 -0.6302 -0.2605
 8779SOL    HW228060   8.005   9.173   8.990  0.2713  0.5276 -0.0602
 8780SOL     OW28061   2.226   5.536   9.592  0.3786 -0.1862 -0.3468
 8780SOL    HW128062   2.195   5.617   9.633  0.5879 -0.3672  0.1659
 8780SOL    HW228063   2.294   5.504   9.650  0.2964 -0.7340 -0.5508
 8781SOL     OW28064   8.074   3.737   5.150  0.6329 -0.2559  0.1119
 8781SOL    HW128065   8.007   3.798   5.120  1.2250 -0.1354 -1.0199
 8781SOL    HW228066   8.055   3.655   5.105  0.2507 -0.7269  1.1026
 8782SOL     OW28067   4.762   3.310   6.393  0.0604  0.3667  0.1272
 8782SOL    HW128068   4.797   3.293   6.305 -1.1517  0.6863 -0.4421
 8782SOL    HW228069   4.667   3.300   6.383  0.0190 -1.3768  1.8273
 8783SOL     OW28070   1.805   8.722   3.927 -0.1878  0.2741  0.4429
 8783SOL    HW128071   1.742   8.658   3.959 -0.0405  0.7105  1.6592
 8783SOL    HW228072   1.883   8.709   3.981  0.1665  0.8673  0.0908
 8784SOL     OW28073   8.821   1.041   3.553 -0.5714  0.0256  0.0563
 8784SOL    HW128074   8.871   1.083   3.483 -0.7579 -1.0237 -0.7269
 8784SOL    HW228075   8.836   1.097   3.629  2.1181 -0.4030 -0.0325
 8785SOL     OW28076   1.704   2.702   9.617  0.3683 -0.4357  0.1534
 8785SOL    HW128077   1.800   2.713   9.619  0.4927 -1.5216  1.8390
 8785SOL    HW228078   1.688   2.623   9.668 -1.6496  1.4602  2.7502
 8786SOL     OW28079   6.724   4.734   6.050  0.1005 -0.1171  0.6797
 8786SOL    HW128080   6.760   4.795   6.115  0.5676  1.3718 -0.8938
 8786SOL    HW228081   6.756   4.768   5.966  0.2812 -2.5123 -0.2730
 8787SOL     OW28082   4.905   9.376   1.623  0.0514  0.5801  0.7490
 8787SOL    HW128083   4.909   9.467   1.593 -0.0443  0.5675  0.6981
 8787SOL    HW228084   4.966   9.329   1.566 -0.1487  0.5515  0.5567
 8788SOL     OW28085   7.524   4.290   4.757  0.4858 -0.0914 -0.3760
 8788SOL    HW128086   7.442   4.243   4.748  0.2855  0.2275 -0.2530
 8788SOL    HW228087   7.501   4.382   4.744  0.4916  0.1981  1.4055
 8789SOL     OW28088   1.871   8.209   6.199  0.1328  0.2198 -0.6125
 8789SOL    HW128089   1.810   8.282   6.192  0.2669  0.3812 -0.1559
 8789SOL    HW228090   1.821   8.139   6.241  0.5303  0.6800  0.6619
 8790SOL     OW28091   4.365   3.718   9.644  0.1106  0.2768  1.0638
 8790SOL    HW128092   4.388   3.800   9.601  1.0282  0.6726  2.2606
 8790SOL    HW228093   4.350   3.656   9.573 -2.1867  1.8561  0.0656
 8791SOL     OW28094   8.117   9.667   2.314 -0.0610 -0.0323 -0.4924
 8791SOL    HW128095   8.162   9.690   2.395 -0.1140  0.5167 -0.6134
 8791SOL    HW228096   8.176   9.604   2.271 -0.5647 -1.2132  0.4947
 8792SOL     OW28097   9.019   0.123   6.259 -0.1258  0.2865  0.1452
 8792SOL    HW128098   9.066   0.098   6.339 -0.2092 -0.0703  0.0878
 8792SOL    HW228099   8.982   0.040   6.227 -1.2882  0.6405  0.5114
 8793SOL     OW28100   9.530   2.772   9.362  0.1177  0.9641 -0.4145
 8793SOL    HW128101   9.488   2.694   9.327  1.1714  0.4288 -0.5194
 8793SOL    HW228102   9.623   2.754   9.357  0.3520  1.7737  0.6267
 8794SOL     OW28103   5.607   8.200   4.700  0.4720 -0.1343  0.6921
 8794SOL    HW128104   5.648   8.173   4.618 -0.8006 -0.5979  0.1749
 8794SOL    HW228105   5.669   8.175   4.768  0.3043 -2.4437  0.0718
 8795SOL     OW28106   8.122   1.949   6.813 -0.1841  0.3733 -0.7435
 8795SOL    HW128107   8.212   1.979   6.828 -0.1547 -0.0364 -0.1197
 8795SOL    HW228108   8.070   1.997   6.877 -0.3580  0.3007 -0.8307
 8796SOL     OW28109   2.426   8.966   0.373 -0.3658 -0.6572 -0.4010
 8796SOL    HW128110   2.488   8.921   0.430 -1.7148 -1.9928  0.0514
 8796SOL    HW228111   2.396   9.041   0.425  1.1841  0.2817 -0.8048
 8797SOL     OW28112   1.125   1.504   2.605  0.3078 -0.1412 -0.0600
 8797SOL    HW128113   1.201   1.558   2.586  0.7701 -0.5208  0.6440
 8797SOL    HW228114   1.085   1.488   2.520  0.3236  1.0555 -0.3125
 8798SOL     OW28115   9.445   5.101   9.469  0.2403  0.3923 -0.5762
 8798SOL    HW128116   9.465   5.032   9.405  0.2512 -0.8994  0.7638
 8798SOL    HW228117   9.510   5.169   9.451  0.1344  0.1572 -2.0367
 8799SOL     OW28118   4.979   7.638   3.420 -0.7643  0.0874 -0.0987
 8799SOL    HW128119   4.977   7.643   3.515 -1.7324  1.2299 -0.1515
 8799SOL    HW228120   5.004   7.548   3.401  1.0540  0.2615  1.2165
 8800SOL     OW28121   4.962   0.128   6.593 -0.0763  0.0727  0.3655
 8800SOL    HW128122   5.014   0.207   6.582  1.0516 -0.4652  1.5117
 8800SOL    HW228123   4.873   0.154   6.568  0.8976  0.6810 -2.9035
 8801SOL     OW28124   2.326   8.109   2.435 -0.0249 -0.3475  0.0043
 8801SOL    HW128125   2.260   8.178   2.445 -1.0630 -1.4630  1.2287
 8801SOL    HW228126   2.299   8.062   2.356  0.5001  0.4296 -0.6492
 8802SOL     OW28127   8.707   8.656   4.221  0.2249  0.4899 -0.0880
 8802SOL    HW128128   8.618   8.641   4.253 -0.5034 -1.8731 -2.8075
 8802SOL    HW228129   8.762   8.598   4.275 -0.2616  0.0850 -0.0179
 8803SOL     OW28130   1.776   0.784   0.571 -0.7608  0.0655  0.3485
 8803SOL    HW128131   1.804   0.831   0.492 -1.9531  0.2548  0.0142
 8803SOL    HW228132   1.681   0.775   0.561 -0.7781 -0.9417  1.2111
 8804SOL     OW28133   7.257   9.146   4.603 -0.0962 -0.3996 -0.0451
 8804SOL    HW128134   7.348   9.176   4.611  0.6944 -2.5439 -0.3629
 8804SOL    HW228135   7.206   9.227   4.594  1.6660  0.9081  1.0154
 8805SOL     OW28136   0.282   6.592   3.280 -0.7065 -0.8274 -0.6315
 8805SOL    HW128137   0.371   6.629   3.274 -0.1915 -1.7209  0.9514
 8805SOL    HW228138   0.283   6.517   3.220  0.3375 -2.1218  0.9126
 8806SOL     OW28139   4.099   3.059   5.578 -0.6275  0.3699  0.4796
 8806SOL    HW128140   4.112   2.990   5.642 -2.4749  0.0896  0.5923
 8806SOL    HW228141   4.145   3.135   5.614  0.5537 -0.4823  0.8390
 8807SOL     OW28142   5.622   5.990   1.987  0.4057 -0.0762 -0.1260
 8807SOL    HW128143   5.533   5.953   1.985  0.0373  0.6382  1.4257
 8807SOL    HW228144   5.671   5.936   1.925 -1.0171 -0.7130 -0.7628
 8808SOL     OW28145   9.695   1.762   7.388  0.0647  0.1559 -0.0961
 8808SOL    HW128146   9.631   1.832   7.401  1.4286  1.2794  1.0078
 8808SOL    HW228147   9.764   1.803   7.335 -0.0611 -0.9989 -1.1854
 8809SOL     OW28148   1.289   1.824   9.113  0.5220  0.5564 -0.0806
 8809SOL    HW128149   1.257   1.914   9.110  1.7666  1.0162 -0.0093
 8809SOL    HW228150   1.227   1.775   9.058  0.8787  1.8045 -1.6757
 8810SOL     OW28151   2.882   4.132   5.013  0.2071 -0.4826  0.0946
 8810SOL    HW128152   2.873   4.214   5.061  0.6968  0.0704 -0.7422
 8810SOL    HW228153   2.793   4.106   4.992  0.0366 -0.2980  0.5917
 8811SOL     OW28154   0.277   0.170   7.862  0.4237 -0.8784 -0.2706
 8811SOL    HW128155   0.342   0.203   7.800  0.1597 -2.1606 -1.2692
 8811SOL    HW228156   0.325   0.157   7.943  2.0614 -3.9762 -1.5805
 8812SOL     OW28157   5.727   8.765   2.715  0.0792  0.5274  0.3126
 8812SOL    HW128158   5.725   8.694   2.780 -1.7712  0.7524  0.5550
 8812SOL    HW228159   5.810   8.811   2.733  0.8142 -0.9279  0.8277
 8813SOL     OW28160   5.667   7.154   3.620 -0.2995  0.5783  0.6551
 8813SOL    HW128161   5.577   7.187   3.622  0.2562  2.1719  1.7768
 8813SOL    HW228162   5.660   7.063   3.647 -1.5604  0.7293  0.9143
 8814SOL     OW28163   8.103   0.421   0.444  0.0247 -0.6195  0.3728
 8814SOL    HW128164   8.199   0.419   0.450  0.2030  1.1558 -1.1590
 8814SOL    HW228165   8.082   0.360   0.374 -0.0180 -1.2703  0.9387
 8815SOL     OW28166   5.715   4.358   1.679  0.0142 -0.3625  0.7171
 8815SOL    HW128167   5.625   4.342   1.707 -0.6741  1.1266 -0.5211
 8815SOL    HW228168   5.731   4.450   1.701  0.5097 -0.0433 -0.8776
 8816SOL     OW28169   2.753   7.939   8.327  0.2736 -0.6295 -0.2547
 8816SOL    HW128170   2.747   7.894   8.411  1.3668 -0.6220 -0.1649
 8816SOL    HW228171   2.754   7.869   8.261  0.7200 -0.6921 -0.1846
 8817SOL     OW28172   4.686   2.420   9.570 -0.0320  0.2259 -0.2680
 8817SOL    HW128173   4.605   2.369   9.579 -0.5347  1.0959  0.2338
 8817SOL    HW228174   4.658   2.504   9.535  0.4049  1.1890  1.5686
 8818SOL     OW28175   9.468   2.874   8.572 -0.1770 -0.1675 -0.1969
 8818SOL    HW128176   9.400   2.892   8.508 -0.5618  2.9443  0.9356
 8818SOL    HW228177   9.452   2.936   8.643  1.7269 -1.7615  1.7838
 8819SOL     OW28178   0.218   8.235   1.811  0.2916 -0.4548 -0.2358
 8819SOL    HW128179   0.271   8.312   1.791  1.3134 -1.1790 -0.4522
 8819SOL    HW228180   0.215   8.231   1.906  0.6229 -0.3857 -0.2202
 8820SOL     OW28181   5.434   1.846   0.450  0.3484 -0.2990 -0.1783
 8820SOL    HW128182   5.447   1.781   0.382 -1.1021 -1.2767  0.4109
 8820SOL    HW228183   5.370   1.806   0.510  0.2853  1.1980  0.8333
 8821SOL     OW28184   1.097   6.430   4.476  0.2161 -0.4450 -0.0065
 8821SOL    HW128185   1.045   6.424   4.556  1.8694 -1.3108  1.0593
 8821SOL    HW228186   1.099   6.524   4.455 -1.2859 -0.3479  0.2303
 8822SOL     OW28187   8.499   6.258   0.507 -0.1486  0.4409 -0.7788
 8822SOL    HW128188   8.586   6.286   0.536 -0.6427 -0.0419  1.3535
 8822SOL    HW228189   8.439   6.292   0.574 -1.3907 -0.7155 -1.2595
 8823SOL     OW28190   5.595   5.318   2.336 -0.0033 -0.1067  0.3134
 8823SOL    HW128191   5.576   5.401   2.379 -0.6393 -2.1000  4.5012
 8823SOL    HW228192   5.509   5.278   2.322  0.3351 -0.8922  0.4090
 8824SOL     OW28193   0.375   2.300   4.023  0.3752  0.1316 -0.0656
 8824SOL    HW128194   0.463   2.337   4.027  0.7583 -0.6767 -0.6469
 8824SOL    HW228195   0.368   2.247   4.102  0.0574  0.9386  0.4524
 8825SOL     OW28196   4.540   9.145   0.967 -0.1013  0.8704 -0.1490
 8825SOL    HW128197   4.474   9.104   1.022 -1.7793  1.5017 -1.5844
 8825SOL    HW228198   4.607   9.078   0.954  0.2531  0.6432  2.4081
 8826SOL     OW28199   8.894   6.284   9.257  0.7064  0.0875  0.5488
 8826SOL    HW128200   8.896   6.341   9.181  0.6676 -0.0656  0.4324
 8826SOL    HW228201   8.876   6.196   9.222  0.5803  0.0339  0.7417
 8827SOL     OW28202   6.579   2.145   4.246 -0.1215  0.1752  0.0531
 8827SOL    HW128203   6.655   2.165   4.302 -1.2907  1.7595  1.1854
 8827SOL    HW228204   6.588   2.206   4.172 -0.2871  0.3864  0.2040
 8828SOL     OW28205   3.940   7.687   1.413  0.4134 -0.1485 -0.1233
 8828SOL    HW128206   3.986   7.726   1.339 -0.5723 -2.7377 -2.2804
 8828SOL    HW228207   3.859   7.737   1.420  0.6209  0.2745 -0.6495
 8829SOL     OW28208   2.390   8.538   3.473 -0.2975  0.0192  0.0655
 8829SOL    HW128209   2.395   8.574   3.385  0.6093  2.4022  1.0100
 8829SOL    HW228210   2.300   8.554   3.501 -1.5036 -3.3473 -1.3334
 8830SOL     OW28211   9.582   7.296   2.769  0.6177 -0.4134 -0.2731
 8830SOL    HW128212   9.584   7.217   2.823 -3.1957 -1.2185 -1.0725
 8830SOL    HW228213   9.519   7.353   2.811 -0.1237  0.2397 -2.1461
 8831SOL     OW28214   8.137   8.507   5.429 -0.2840 -0.1497  0.0257
 8831SOL    HW128215   8.224   8.481   5.460  0.7897  0.9829 -1.8612
 8831SOL    HW228216   8.142   8.603   5.423 -0.7675 -0.2143 -2.4806
 8832SOL     OW28217   0.816   2.749   2.446  0.4335  0.0732  0.0362
 8832SOL    HW128218   0.892   2.754   2.504  1.6504 -1.7368 -1.2999
 8832SOL    HW228219   0.838   2.804   2.371 -0.3420  0.9223  0.4098
 8833SOL     OW28220   4.795   2.330   0.137  0.0609  0.2722  0.1781
 8833SOL    HW128221   4.746   2.247   0.138  0.5997 -0.0608  1.5010
 8833SOL    HW228222   4.857   2.321   0.065 -2.4777  1.1472 -2.2936
 8834SOL     OW28223   2.524   8.428   5.743 -0.1473 -0.1895  0.0012
 8834SOL    HW128224   2.432   8.420   5.717  0.1825 -0.0201 -1.2491
 8834SOL    HW228225   2.532   8.519   5.773 -0.4365 -0.2740  0.3442
 8835SOL     OW28226   2.432   7.930   1.209  0.2309 -0.6588 -0.2357
 8835SOL    HW128227   2.424   7.991   1.136  0.7383 -0.3047  0.0013
 8835SOL    HW228228   2.409   7.845   1.171  0.4181 -0.4677 -0.7896
 8836SOL     OW28229   7.890   6.461   7.320  0.3933  0.5020 -0.2116
 8836SOL    HW128230   7.959   6.496   7.378 -0.6672  1.7762  0.3301
 8836SOL    HW228231   7.826   6.531   7.315 -0.3082 -0.2107 -1.6812
 8837SOL     OW28232   2.668   7.141   3.510 -0.3383  0.1043 -0.0081
 8837SOL    HW128233   2.625   7.208   3.563 -1.7111 -0.6366 -0.1444
 8837SOL    HW228234   2.754   7.130   3.550 -1.2880 -0.3557  2.0106
 8838SOL     OW28235   5.067   3.150   9.294  0.1214  0.1251 -0.1665
 8838SOL    HW128236   5.084   3.186   9.381  3.5988  1.8215 -1.3698
 8838SOL    HW228237   5.074   3.055   9.307  0.1481  0.3109  1.4588
 8839SOL     OW28238   7.313   6.148   1.663  0.0426  0.5331 -0.0793
 8839SOL    HW128239   7.250   6.088   1.623 -0.4954  1.1455 -0.1727
 8839SOL    HW228240   7.270   6.234   1.659  1.2055  1.1124 -0.8672
 8840SOL     OW28241   9.118   3.555   9.214  0.1581 -0.4980 -0.1454
 8840SOL    HW128242   9.181   3.616   9.252 -1.3919  0.7680  0.4730
 8840SOL    HW228243   9.141   3.551   9.121  0.6918  0.5056 -0.0616
 8841SOL     OW28244   0.178   7.020   0.327 -0.0979  0.1940  0.5610
 8841SOL    HW128245   0.133   6.943   0.361 -1.6444 -0.0228 -1.7505
 8841SOL    HW228246   0.269   6.991   0.317 -0.6910 -1.4783 -0.5238
 8842SOL     OW28247   3.587   3.662   8.519  0.6095  0.4729 -0.3066
 8842SOL    HW128248   3.600   3.688   8.428  0.8077  0.8425 -0.1715
 8842SOL    HW228249   3.545   3.576   8.513  0.3479  0.6289 -0.7477
 8843SOL     OW28250   8.047   5.353   1.559 -0.2502 -0.1256 -0.2276
 8843SOL    HW128251   7.966   5.404   1.570 -0.5578 -0.5109 -0.6718
 8843SOL    HW228252   8.072   5.329   1.648 -0.5487  0.1227 -0.0751
 8844SOL     OW28253   4.148   4.277   5.810  0.8016  0.1960  0.6814
 8844SOL    HW128254   4.221   4.314   5.761  0.3335  0.2712  0.0194
 8844SOL    HW228255   4.108   4.352   5.854 -0.1234  0.4976 -0.6272
 8845SOL     OW28256   0.201   1.048   8.064  0.3379  0.6880  0.3300
 8845SOL    HW128257   0.264   1.118   8.080 -0.0348  1.2776 -0.6867
 8845SOL    HW228258   0.129   1.065   8.125 -0.0092  1.5286 -0.3041
 8846SOL     OW28259   4.302   3.404   0.406 -0.1724 -0.3881 -0.1700
 8846SOL    HW128260   4.331   3.430   0.318  0.3914 -1.1209 -0.2090
 8846SOL    HW228261   4.381   3.404   0.459 -0.1446 -1.9232 -0.1594
 8847SOL     OW28262   5.413   2.846   0.075 -0.5087  0.2957 -0.3865
 8847SOL    HW128263   5.421   2.797  -0.006 -0.8847  0.3279 -0.4468
 8847SOL    HW228264   5.350   2.916   0.055 -1.6853 -0.5263  0.3088
 8848SOL     OW28265   6.687   9.152   2.606 -0.0713  0.6975  0.3344
 8848SOL    HW128266   6.669   9.071   2.558  1.0006  0.9103 -0.4694
 8848SOL    HW228267   6.672   9.221   2.542 -0.4250  1.1043  0.8507
 8849SOL     OW28268   8.800   9.436   1.821 -0.0796  1.0156  0.3817
 8849SOL    HW128269   8.719   9.386   1.832 -0.7178  1.5695 -1.4342
 8849SOL    HW228270   8.857   9.405   1.891 -0.3927 -2.3505 -0.6669
 8850SOL     OW28271   4.544   0.232   6.797 -0.2820 -0.4711 -0.0512
 8850SOL    HW128272   4.581   0.285   6.869 -0.2045  0.4388 -0.7352
 8850SOL    HW228273   4.460   0.274   6.777  0.5800  0.5303 -1.7937
 8851SOL     OW28274   3.660   0.549   6.789  0.1495 -0.2828 -0.0325
 8851SOL    HW128275   3.702   0.464   6.778  0.3812 -0.0513 -0.9981
 8851SOL    HW228276   3.568   0.528   6.805  0.4037 -0.7450  0.9234
 8852SOL     OW28277   9.020   8.160   1.086 -0.6017 -0.3168 -0.1074
 8852SOL    HW128278   8.988   8.171   0.996 -2.8068 -1.3537  0.4670
 8852SOL    HW228279   9.034   8.066   1.094 -0.0689 -0.1828  0.5328
 8853SOL     OW28280   2.281   5.917   0.288  0.1419  0.5227 -0.0188
 8853SOL    HW128281   2.334   5.968   0.349 -0.0240  0.6980 -0.0196
 8853SOL    HW228282   2.262   5.836   0.335  0.4504  0.4371 -0.0384
 8854SOL     OW28283   6.114   1.274   1.952 -0.2373  0.5994 -0.5027
 8854SOL    HW128284   6.056   1.252   1.878 -0.6065 -0.5433  0.0983
 8854SOL    HW228285   6.186   1.210   1.945  0.0155  0.8496 -0.1928
 8855SOL     OW28286   8.664   0.736   5.429  0.4598 -0.2755 -0.4374
 8855SOL    HW128287   8.753   0.725   5.395  0.1102 -1.0827 -1.1500
 8855SOL    HW228288   8.608   0.695   5.362 -0.4193 -0.0731  0.1568
 8856SOL     OW28289   7.552   0.618   2.318  0.8215  0.5240 -0.2462
 8856SOL    HW128290   7.576   0.626   2.410  0.7004 -2.7601  0.1834
 8856SOL    HW228291   7.463   0.652   2.314  0.6433  0.2656  0.9681
 8857SOL     OW28292   1.307   1.642   1.737 -0.2393 -0.1112  0.1963
 8857SOL    HW128293   1.360   1.562   1.737  0.8182  0.5613  1.0659
 8857SOL    HW228294   1.359   1.706   1.785 -1.4915  0.8328  0.3692
 8858SOL     OW28295   1.571   9.325   6.488  0.1005  0.1074 -0.3999
 8858SOL    HW128296   1.550   9.413   6.457  0.3251  0.3997  0.2604
 8858SOL    HW228297   1.501   9.270   6.454  0.3142  0.4195 -1.3854
 8859SOL     OW28298   2.549   0.203   7.178 -0.4302  0.2880 -0.2161
 8859SOL    HW128299   2.572   0.152   7.256  0.3687  0.6564 -0.2001
 8859SOL    HW228300   2.508   0.283   7.212 -1.4592 -0.2129 -0.2334
 8860SOL     OW28301   1.091   4.927   6.158 -0.4118  0.3544  0.4151
 8860SOL    HW128302   1.051   4.841   6.142  1.1837 -0.2383 -0.5912
 8860SOL    HW228303   1.023   4.990   6.135 -1.4072 -0.6185  0.5907
 8861SOL     OW28304   5.215   3.000   0.016 -0.4257  0.6396 -0.2925
 8861SOL    HW128305   5.173   3.067  -0.037 -1.5935  0.2903  0.1386
 8861SOL    HW228306   5.143   2.941   0.041  0.4221 -0.2938  0.0365
 8862SOL     OW28307   0.775   1.469   4.723 -0.4239 -0.8369 -0.6287
 8862SOL    HW128308   0.739   1.558   4.720 -0.0111 -0.6079  0.7613
 8862SOL    HW228309   0.702   1.414   4.753 -0.2909 -0.7536 -0.1556
 8863SOL     OW28310   0.670   2.146   4.009  0.5868  0.2724 -0.2247
 8863SOL    HW128311   0.662   2.192   4.092 -1.2971  2.0146 -1.2867
 8863SOL    HW228312   0.721   2.068   4.030 -0.9730 -0.0817  2.8565
 8864SOL     OW28313   2.748   4.180   9.114 -0.0941 -0.2189  0.0936
 8864SOL    HW128314   2.663   4.191   9.071  1.0582 -0.5713 -2.4396
 8864SOL    HW228315   2.763   4.086   9.114 -0.0416 -0.2337  1.3416
 8865SOL     OW28316   3.929   5.176   6.583 -0.2577  0.0981 -0.2376
 8865SOL    HW128317   3.919   5.268   6.557 -2.1121  0.1117  0.3663
 8865SOL    HW228318   3.928   5.178   6.679  0.2442 -0.5007 -0.2144
 8866SOL     OW28319   5.366   2.786   9.065 -0.0808  0.0666 -0.0686
 8866SOL    HW128320   5.273   2.768   9.055 -0.1694 -0.2231  1.1082
 8866SOL    HW228321   5.397   2.807   8.977 -0.7628 -2.1722 -0.8907
 8867SOL     OW28322   2.027   0.425   5.491  0.1908 -0.6313 -0.2117
 8867SOL    HW128323   2.013   0.330   5.497 -0.0113 -0.5007  2.1718
 8867SOL    HW228324   1.950   0.457   5.444 -0.6116 -1.4792  0.4616
 8868SOL     OW28325   2.643   4.801   8.372 -0.2348  0.1632 -0.0792
 8868SOL    HW128326   2.646   4.788   8.466 -1.9778  1.2579  0.1784
 8868SOL    HW228327   2.714   4.863   8.354 -0.8050  1.0798  0.7504
 8869SOL     OW28328   3.539   8.717   2.692 -0.7611 -0.0688  0.3468
 8869SOL    HW128329   3.515   8.776   2.620 -0.6402  0.2323  0.5518
 8869SOL    HW228330   3.614   8.667   2.658 -0.1305  0.7055  0.5860
 8870SOL     OW28331   7.670   0.816   5.121  0.1860  0.3315  0.7001
 8870SOL    HW128332   7.599   0.783   5.066  0.2308 -0.9477  1.3726
 8870SOL    HW228333   7.731   0.743   5.128  2.2169  1.7465 -0.8232
 8871SOL     OW28334   6.224   1.552   3.672  0.6984  0.5548 -0.0559
 8871SOL    HW128335   6.166   1.573   3.745 -1.3651  0.6673 -1.6245
 8871SOL    HW228336   6.248   1.460   3.687 -2.7358 -0.6772 -1.0201
 8872SOL     OW28337   3.755   5.897   3.081  0.3746  0.2079 -0.4786
 8872SOL    HW128338   3.676   5.844   3.085  0.6690 -0.1827  0.3699
 8872SOL    HW228339   3.725   5.986   3.102  0.1547  0.0751 -0.2264
 8873SOL     OW28340   5.186   0.408   1.180 -0.3240  0.4831  0.2539
 8873SOL    HW128341   5.213   0.421   1.089 -2.7367 -0.8590 -0.7546
 8873SOL    HW228342   5.207   0.317   1.199 -1.5782  0.1739  0.3054
 8874SOL     OW28343   9.438   8.979   5.918  0.0950  0.0054 -0.0393
 8874SOL    HW128344   9.421   9.072   5.901  2.4089  0.4959 -0.0175
 8874SOL    HW228345   9.514   8.959   5.864 -0.8463 -2.1384 -0.6692
 8875SOL     OW28346   5.151   1.023   8.748  0.5548  0.0657  0.1037
 8875SOL    HW128347   5.113   1.105   8.716  0.0203 -0.1800  0.1022
 8875SOL    HW228348   5.084   0.986   8.806  0.8667 -0.2808  0.2491
 8876SOL     OW28349   6.909   8.971   7.685  0.2796  0.1081  0.0549
 8876SOL    HW128350   6.949   8.949   7.769  0.5895  1.0609  0.1607
 8876SOL    HW228351   6.962   8.924   7.620  0.2067 -0.4075  0.3601
 8877SOL     OW28352   3.278   5.226   4.119  0.3159 -0.2476 -0.0488
 8877SOL    HW128353   3.295   5.264   4.205 -0.2128 -0.3954  0.1261
 8877SOL    HW228354   3.310   5.136   4.126 -2.8119 -1.3883  1.1535
 8878SOL     OW28355   5.507   8.668   4.696 -0.0299  0.6071 -0.1032
 8878SOL    HW128356   5.429   8.611   4.700  1.3255 -1.5133 -1.6270
 8878SOL    HW228357   5.529   8.684   4.788 -2.0333  0.9746  0.3653
 8879SOL     OW28358   0.362   4.319   7.292 -0.0736  0.6677 -0.0853
 8879SOL    HW128359   0.385   4.233   7.257  0.2312  1.1052 -0.9900
 8879SOL    HW228360   0.342   4.372   7.215 -2.0228  0.9295  0.5398
 8880SOL     OW28361   4.446   9.012   0.627  0.0269  0.6796 -0.1766
 8880SOL    HW128362   4.520   8.956   0.651 -1.3078  0.0537  2.9823
 8880SOL    HW228363   4.399   8.961   0.561 -0.8778 -1.9488  2.2298
 8881SOL     OW28364   0.156   0.607   7.151 -0.1184  0.0976 -0.3608
 8881SOL    HW128365   0.153   0.595   7.056 -0.8836  1.5908 -0.5606
 8881SOL    HW228366   0.137   0.520   7.187  0.0879 -0.4645 -1.5713
 8882SOL     OW28367   4.664   8.827   4.003  0.1589 -0.0321  0.0415
 8882SOL    HW128368   4.628   8.859   3.920  0.2285 -0.0175  0.0165
 8882SOL    HW228369   4.750   8.870   4.010  0.2655 -0.2394 -0.0073
 8883SOL     OW28370   1.847   1.783   8.374  0.4668  0.0678  0.0131
 8883SOL    HW128371   1.938   1.809   8.363  0.6279  0.6613  2.2694
 8883SOL    HW228372   1.845   1.691   8.349  1.3971  0.3650 -1.2400
 8884SOL     OW28373   7.234   7.812   4.203  0.0977 -0.2135  0.0379
 8884SOL    HW128374   7.211   7.755   4.277  1.0069 -0.8553 -0.1575
 8884SOL    HW228375   7.155   7.816   4.150 -0.1371 -0.8843  0.3275
 8885SOL     OW28376   6.757   9.193   3.205 -0.1635  0.5268 -0.3613
 8885SOL    HW128377   6.763   9.136   3.281  0.0545  0.7473 -0.2115
 8885SOL    HW228378   6.782   9.137   3.131  0.4902  0.5445 -0.1598
 8886SOL     OW28379   0.952   3.100   7.165  0.0460  0.2616 -0.4204
 8886SOL    HW128380   0.933   3.047   7.088  0.5413  1.9915 -1.7883
 8886SOL    HW228381   1.028   3.057   7.205 -0.7566 -1.1660 -0.3446
 8887SOL     OW28382   4.607   1.810   7.154  0.3626 -0.3764  0.6581
 8887SOL    HW128383   4.663   1.745   7.197  1.1520  0.7443  1.3729
 8887SOL    HW228384   4.631   1.893   7.194  2.1021  0.9780 -2.7972
 8888SOL     OW28385   4.360   4.417   8.187  0.5238  0.3696 -0.1918
 8888SOL    HW128386   4.296   4.451   8.125 -0.5819 -0.9107  0.2028
 8888SOL    HW228387   4.345   4.468   8.267 -0.7922 -0.6542  0.2449
 8889SOL     OW28388   3.114   7.174   8.455 -0.2386 -0.3455  0.3754
 8889SOL    HW128389   3.153   7.256   8.484 -1.2715 -0.0650  1.0451
 8889SOL    HW228390   3.186   7.111   8.456 -0.1142 -0.2934  3.3182
 8890SOL     OW28391   0.513   4.816   7.698  0.0707 -0.2081  0.3063
 8890SOL    HW128392   0.558   4.899   7.686  0.4382 -0.3422  0.7141
 8890SOL    HW228393   0.473   4.822   7.785 -0.6854 -0.1042 -0.0360
 8891SOL     OW28394   9.206   7.164   6.846 -0.1491 -0.2321 -0.4452
 8891SOL    HW128395   9.126   7.121   6.817  1.4497 -2.6700 -1.5980
 8891SOL    HW228396   9.221   7.130   6.934  0.4147 -1.0421 -0.8421
 8892SOL     OW28397   5.488   4.320   9.535  0.3677  0.6896 -0.4702
 8892SOL    HW128398   5.547   4.262   9.488 -0.5503  0.6290 -1.5982
 8892SOL    HW228399   5.415   4.264   9.562  1.3646  0.4663  2.0682
 8893SOL     OW28400   0.987   3.344   8.299  0.1396  0.1023  0.3498
 8893SOL    HW128401   1.029   3.398   8.232  0.3736  0.3695  0.7071
 8893SOL    HW228402   1.040   3.358   8.378  0.1737 -0.6076  0.4643
 8894SOL     OW28403   3.868   7.487   5.663 -0.0960 -0.6024 -0.0581
 8894SOL    HW128404   3.799   7.505   5.599 -1.3550  1.5872  1.7481
 8894SOL    HW228405   3.947   7.524   5.623 -0.8699  0.7978 -0.3778
 8895SOL     OW28406   0.519   0.378   6.300  0.1192  0.3398  0.1874
 8895SOL    HW128407   0.598   0.401   6.251 -0.1387  3.2580  0.9165
 8895SOL    HW228408   0.448   0.392   6.237  0.0571 -0.1407  0.1533
 8896SOL     OW28409   1.909   8.769   4.767  0.2863 -0.1386 -0.5426
 8896SOL    HW128410   1.883   8.728   4.684 -1.3089  1.1191 -0.6998
 8896SOL    HW228411   1.827   8.801   4.804  1.0408 -0.2741  1.3188
 8897SOL     OW28412   8.178   4.367   1.052 -0.2362  0.6568  0.1642
 8897SOL    HW128413   8.114   4.317   1.102  0.0580  1.8280  1.7868
 8897SOL    HW228414   8.192   4.447   1.103  1.3129  1.1670 -0.9662
 8898SOL     OW28415   8.563   9.562   4.826  0.3945 -0.4992  0.1541
 8898SOL    HW128416   8.649   9.574   4.786  0.9290 -0.3598  1.3029
 8898SOL    HW228417   8.561   9.469   4.849 -0.6132 -0.9942 -1.7078
 8899SOL     OW28418   0.079   5.105   0.399 -0.4397 -0.1653 -0.2108
 8899SOL    HW128419   0.172   5.081   0.395 -0.2174  0.3816  1.2799
 8899SOL    HW228420   0.070   5.155   0.480 -2.3749 -1.7273  0.6482
 8900SOL     OW28421   7.880   4.197   4.370  0.5052 -0.1092 -0.3452
 8900SOL    HW128422   7.898   4.155   4.454 -0.0948 -0.1019 -0.2083
 8900SOL    HW228423   7.933   4.149   4.307 -2.4871 -3.2912 -0.7742
 8901SOL     OW28424   0.627   1.310   8.335  0.3214 -0.0436  0.2676
 8901SOL    HW128425   0.569   1.292   8.261  1.7593  0.9319 -1.1890
 8901SOL    HW228426   0.628   1.405   8.343  0.5907 -0.1151  1.2019
 8902SOL     OW28427   2.581   5.913   0.137 -0.1589 -0.3587 -0.1287
 8902SOL    HW128428   2.486   5.921   0.145 -0.5015 -2.1280 -1.6294
 8902SOL    HW228429   2.594   5.849   0.067  2.1311 -1.9248  1.5684
 8903SOL     OW28430   9.113   5.932   8.945 -0.0545  0.2232  0.5485
 8903SOL    HW128431   9.154   5.983   8.875  0.3848 -1.8448 -0.7748
 8903SOL    HW228432   9.057   5.869   8.900 -1.6111  0.3324  2.1832
 8904SOL     OW28433   4.486   4.191   3.738  0.0340 -0.5316 -0.2074
 8904SOL    HW128434   4.559   4.158   3.791 -0.1217 -2.6565 -1.2151
 8904SOL    HW228435   4.527   4.222   3.657  0.3381  3.2310  1.2249
 8905SOL     OW28436   0.783   7.924   0.908 -0.3204 -0.2823 -0.2102
 8905SOL    HW128437   0.727   7.958   0.839 -0.0554 -0.5789 -0.5709
 8905SOL    HW228438   0.723   7.887   0.973 -0.5127 -1.8500 -1.2379
 8906SOL     OW28439   5.763   1.278   7.118 -0.2050  0.5514 -0.1116
 8906SOL    HW128440   5.770   1.183   7.103  1.4519  0.8033 -1.0811
 8906SOL    HW228441   5.739   1.285   7.210 -1.8089 -0.8310 -0.3692
 8907SOL     OW28442   8.373   6.910   7.939 -0.2195  0.1121 -0.1898
 8907SOL    HW128443   8.369   6.816   7.923  0.0042 -0.3281  2.0089
 8907SOL    HW228444   8.465   6.932   7.926  0.0137 -0.2937  0.6480
 8908SOL     OW28445   9.022   0.154   8.398 -0.1771  0.2082 -0.0004
 8908SOL    HW128446   9.003   0.066   8.364 -2.1330  0.2207  0.9579
 8908SOL    HW228447   9.073   0.138   8.477 -0.4646 -0.0519  0.1328
 8909SOL     OW28448   1.876   1.991   9.023  0.1079 -0.0239 -0.4624
 8909SOL    HW128449   1.968   2.004   9.045 -0.4418  0.1649  2.0504
 8909SOL    HW228450   1.832   2.069   9.058 -1.2064 -0.9539  0.0260
 8910SOL     OW28451   7.007   0.297   9.623  0.1833  0.1154  0.2021
 8910SOL    HW128452   6.975   0.232   9.685  1.9173 -0.8341  0.1380
 8910SOL    HW228453   6.997   0.256   9.537 -1.7641  1.2414 -0.1644
 8911SOL     OW28454   6.891   2.640   5.849 -0.2302  0.8993 -0.1960
 8911SOL    HW128455   6.825   2.595   5.797  1.6915 -0.5286 -1.5598
 8911SOL    HW228456   6.905   2.723   5.804 -0.8390  1.0708 -0.0772
 8912SOL     OW28457   3.265   8.432   6.363 -0.0384 -0.1686 -0.0822
 8912SOL    HW128458   3.246   8.429   6.457 -1.2961 -0.1451 -0.3281
 8912SOL    HW228459   3.208   8.366   6.325  0.2581  0.0217 -0.8713
 8913SOL     OW28460   4.915   4.280   3.557  0.5328  0.2614 -0.7781
 8913SOL    HW128461   4.849   4.310   3.619  0.1234  0.1338 -1.1385
 8913SOL    HW228462   4.932   4.356   3.501  0.4494  0.2003 -0.8875
 8914SOL     OW28463   3.089   6.013   8.490  0.3445 -0.4244 -0.1012
 8914SOL    HW128464   3.165   6.025   8.433 -1.1012  0.3884 -1.9430
 8914SOL    HW228465   3.015   6.007   8.430 -1.1312 -0.6315  1.6742
 8915SOL     OW28466   1.098   2.153   9.465  0.2125 -0.1983  0.0492
 8915SOL    HW128467   1.099   2.066   9.506 -0.8911  0.2302  1.0351
 8915SOL    HW228468   1.185   2.161   9.425  0.7171 -1.3224  0.8495
 8916SOL     OW28469   0.557   1.300   4.869  0.3979 -0.7187 -0.1571
 8916SOL    HW128470   0.484   1.294   4.808 -0.1050  0.2121  0.3448
 8916SOL    HW228471   0.565   1.212   4.905  0.7949 -1.3272 -1.6503
 8917SOL     OW28472   3.497   0.818   6.469  0.3834  0.4288 -0.7271
 8917SOL    HW128473   3.499   0.899   6.521  0.4949 -0.4700  0.7511
 8917SOL    HW228474   3.587   0.786   6.471 -0.1167 -1.0927  1.0611
 8918SOL     OW28475   4.448   1.847   6.466 -0.5184  0.1496 -0.1409
 8918SOL    HW128476   4.486   1.912   6.525 -1.2314  1.1355 -0.7585
 8918SOL    HW228477   4.487   1.866   6.381 -0.1992 -0.6864 -0.1951
 8919SOL     OW28478   0.304   0.066   6.931 -0.1302  0.3454 -0.0994
 8919SOL    HW128479   0.305   0.041   7.024  0.6815  1.0497  0.1035
 8919SOL    HW228480   0.218   0.107   6.919  0.4878  2.0483  0.8814
 8920SOL     OW28481   0.221   8.117   7.173 -0.0106 -0.0240 -0.1685
 8920SOL    HW128482   0.161   8.141   7.102 -0.9614 -0.4156  0.4740
 8920SOL    HW228483   0.186   8.162   7.250  1.0837  0.4979  0.0337
 8921SOL     OW28484   1.568   0.813   6.729 -0.8112 -0.6118 -0.2303
 8921SOL    HW128485   1.495   0.800   6.669 -1.0781 -0.4107  0.0478
 8921SOL    HW228486   1.529   0.811   6.817 -0.4942 -0.4543 -0.0792
 8922SOL     OW28487   1.794   2.103   0.649 -0.2667  0.4452  0.1625
 8922SOL    HW128488   1.774   2.194   0.630  0.0116  0.5761  0.4834
 8922SOL    HW228489   1.709   2.063   0.667 -0.4442  0.5098 -0.5299
 8923SOL     OW28490   1.809   9.630   6.226  0.2365 -0.3974  0.1830
 8923SOL    HW128491   1.797   9.581   6.144  2.4444  1.3257 -1.3007
 8923SOL    HW228492   1.895   9.601   6.258 -1.2089 -2.1497  2.8170
 8924SOL     OW28493   7.433   7.451   9.033  0.7889  0.2818  0.4540
 8924SOL    HW128494   7.396   7.433   9.119 -0.1942  1.1027  0.2233
 8924SOL    HW228495   7.398   7.537   9.009 -0.2784 -0.6257 -1.4631
 8925SOL     OW28496   5.523   5.693   0.506 -0.4259 -0.0292 -0.3509
 8925SOL    HW128497   5.430   5.676   0.523 -0.2064 -0.6557  0.3048
 8925SOL    HW228498   5.559   5.606   0.486 -0.0855  0.2889 -1.1454
 8926SOL     OW28499   0.357   6.227   8.957  0.2559  0.2036  0.5577
 8926SOL    HW128500   0.412   6.289   8.908 -0.2074 -0.0498 -0.3075
 8926SOL    HW228501   0.419   6.169   9.000  0.7318 -1.0817 -1.6797
 8927SOL     OW28502   3.284   7.023   7.726  0.0380  0.2555 -1.3098
 8927SOL    HW128503   3.353   7.086   7.747  1.3431 -0.8896 -1.9908
 8927SOL    HW228504   3.320   6.971   7.654 -1.5968 -0.3044 -1.7554
 8928SOL     OW28505   3.810   7.044   4.187  0.4604 -0.0306 -0.1519
 8928SOL    HW128506   3.783   7.009   4.102 -2.7446 -0.5451  0.9349
 8928SOL    HW228507   3.904   7.027   4.191  0.2593 -2.4050 -2.4825
 8929SOL     OW28508   0.819   3.825   2.936 -0.1944 -0.3762  0.0540
 8929SOL    HW128509   0.825   3.755   2.872  0.2795 -0.9168  0.6774
 8929SOL    HW228510   0.905   3.827   2.979 -0.7110 -0.4817  1.1371
 8930SOL     OW28511   7.084   7.187   2.373 -0.0890  0.1378 -0.3026
 8930SOL    HW128512   7.014   7.122   2.384 -0.5579  0.9615  2.2204
 8930SOL    HW228513   7.043   7.258   2.325 -0.9703  0.4724  0.8750
 8931SOL     OW28514   5.155   3.768   4.300  0.0073  0.4402  0.1036
 8931SOL    HW128515   5.092   3.787   4.230 -0.2874 -0.2778  0.1656
 8931SOL    HW228516   5.186   3.854   4.329  0.9764  0.7419 -1.6668
 8932SOL     OW28517   6.779   9.153   1.686  0.5089 -0.7765  0.1100
 8932SOL    HW128518   6.855   9.146   1.744  0.9559 -2.7648 -0.6445
 8932SOL    HW228519   6.743   9.065   1.682 -1.4638 -0.0106 -0.0963
 8933SOL     OW28520   5.300   0.657   7.600  0.2004  0.2288  0.4485
 8933SOL    HW128521   5.329   0.631   7.513 -2.1236 -1.1102 -0.0176
 8933SOL    HW228522   5.218   0.703   7.585  0.0302  0.4332  1.8978
 8934SOL     OW28523   5.692   2.840   2.517 -0.1370  0.0323  0.1900
 8934SOL    HW128524   5.698   2.882   2.431  1.4371 -0.0579  0.2273
 8934SOL    HW228525   5.616   2.782   2.511 -0.2024  0.2330 -1.0375
 8935SOL     OW28526   1.540   1.607   2.755  0.1213  0.0810 -0.0834
 8935SOL    HW128527   1.636   1.604   2.758  0.2093  0.6438 -1.4268
 8935SOL    HW228528   1.512   1.556   2.831  1.4703  1.9974  1.8088
 8936SOL     OW28529   8.566   6.099   5.907  0.6082 -0.3465  0.2157
 8936SOL    HW128530   8.490   6.149   5.875  1.7012  0.9634 -0.4168
 8936SOL    HW228531   8.572   6.024   5.848 -0.7670 -1.0239  0.8782
 8937SOL     OW28532   3.020   5.340   5.691  0.3619  0.2608  0.1680
 8937SOL    HW128533   2.945   5.318   5.746 -0.5708  0.6119 -0.9186
 8937SOL    HW228534   3.016   5.277   5.618  0.4894  0.9408 -0.4430
 8938SOL     OW28535   1.522   5.708   7.486 -0.1355  0.7374 -0.3088
 8938SOL    HW128536   1.616   5.721   7.469 -0.7217  3.9448 -1.9511
 8938SOL    HW228537   1.490   5.660   7.410  0.1512 -0.4094  0.2797
 8939SOL     OW28538   4.396   9.183   1.228  0.0999 -0.1999 -0.0316
 8939SOL    HW128539   4.407   9.246   1.299  1.6881  0.3248 -0.6719
 8939SOL    HW228540   4.484   9.148   1.214 -0.3856 -1.0760 -1.0276
 8940SOL     OW28541   5.999   0.719   7.066 -0.2515  0.3923  0.0114
 8940SOL    HW128542   5.946   0.715   6.987 -0.6447 -0.9524  0.3166
 8940SOL    HW228543   6.089   0.706   7.036 -0.5608 -1.9478 -0.0881
 8941SOL     OW28544   6.563   1.119   0.500  0.0752 -0.3557 -0.4811
 8941SOL    HW128545   6.644   1.169   0.487 -1.2887  1.9838 -0.3390
 8941SOL    HW228546   6.590   1.045   0.554  2.1297  0.3432 -0.4546
 8942SOL     OW28547   4.047   0.176   2.597  0.2485  0.5692  0.5171
 8942SOL    HW128548   4.120   0.203   2.541 -1.1541  1.3921 -0.9969
 8942SOL    HW228549   3.969   0.196   2.546 -1.0520 -0.5679  1.9705
 8943SOL     OW28550   6.291   5.719   1.104  0.2055  0.1126  0.3932
 8943SOL    HW128551   6.227   5.725   1.034 -0.6701 -1.4565  1.0065
 8943SOL    HW228552   6.269   5.791   1.164 -2.5058 -1.6764  1.7367
 8944SOL     OW28553   3.676   2.265   2.743 -0.6353  0.9677 -0.1813
 8944SOL    HW128554   3.748   2.205   2.725 -0.9806 -0.5448  2.7941
 8944SOL    HW228555   3.609   2.242   2.679  0.4984  0.5485 -1.2655
 8945SOL     OW28556   0.848   2.247   6.954  0.3393  0.2811  0.3039
 8945SOL    HW128557   0.857   2.261   6.859 -0.2109  1.1902  0.3752
 8945SOL    HW228558   0.832   2.334   6.989  0.5933 -0.0452  1.2503
 8946SOL     OW28559   5.952   9.330   9.041  0.2410 -0.1574 -0.1031
 8946SOL    HW128560   6.021   9.306   9.103  0.5672 -1.3718 -0.9105
 8946SOL    HW228561   5.939   9.252   8.988 -1.4212  0.2184 -0.2946
 8947SOL     OW28562   6.585   5.471   4.644 -0.0108  0.3791  0.2478
 8947SOL    HW128563   6.508   5.446   4.695  0.6205  0.0503  1.0515
 8947SOL    HW228564   6.659   5.448   4.699  0.6555  1.9014  0.0376
 8948SOL     OW28565   3.007   4.579   7.949 -0.3340  0.3324  0.2262
 8948SOL    HW128566   2.916   4.607   7.959 -0.7914 -1.1031  0.3618
 8948SOL    HW228567   3.041   4.633   7.877 -1.9962 -0.6499 -1.3864
 8949SOL     OW28568   3.977   9.411   5.651  0.0464 -0.4310  0.3874
 8949SOL    HW128569   4.073   9.407   5.643  0.0995  0.0536  0.7038
 8949SOL    HW228570   3.944   9.370   5.571  0.5292  2.4617 -1.4554
 8950SOL     OW28571   4.362   0.339   1.036  0.3633  0.5135  0.6868
 8950SOL    HW128572   4.357   0.368   1.127 -1.3318 -1.3388  1.2715
 8950SOL    HW228573   4.451   0.307   1.025  0.7472  1.2789  1.5197
 8951SOL     OW28574   6.133   1.531   1.405 -0.1995  0.2298 -0.1698
 8951SOL    HW128575   6.180   1.599   1.455 -1.2937  0.5609  0.4273
 8951SOL    HW228576   6.096   1.578   1.330 -3.2079  0.9441  1.5996
 8952SOL     OW28577   7.550   3.063   5.739  0.0135 -0.7474  0.3022
 8952SOL    HW128578   7.544   3.040   5.647 -0.8946  1.4961 -0.2811
 8952SOL    HW228579   7.643   3.076   5.756  0.3125 -2.4371  0.0852
 8953SOL     OW28580   8.232   9.686   6.286 -0.0458  0.1565  0.2661
 8953SOL    HW128581   8.266   9.684   6.376 -2.2509 -0.1571  1.1743
 8953SOL    HW228582   8.293   9.742   6.238  1.6852 -0.3814  1.7340
 8954SOL     OW28583   2.427   3.408   1.664  0.2480 -0.0669  0.7700
 8954SOL    HW128584   2.428   3.482   1.603 -0.1630 -0.4228  0.3223
 8954SOL    HW228585   2.337   3.374   1.659 -0.7147  1.6253  3.6939
 8955SOL     OW28586   4.570   1.924   3.197  0.0717  0.2437  0.7777
 8955SOL    HW128587   4.520   1.986   3.144  1.5672  0.2273 -0.7263
 8955SOL    HW228588   4.654   1.968   3.212  0.2404 -0.4027  1.8285
 8956SOL     OW28589   7.069   3.012   9.326 -0.4056 -0.1266  0.0172
 8956SOL    HW128590   7.104   2.941   9.380 -2.8860  0.0026  2.0348
 8956SOL    HW228591   7.126   3.087   9.345  1.7042 -1.2676 -1.4567
 8957SOL     OW28592   1.495   0.557   6.112  0.3403  0.6217 -0.2424
 8957SOL    HW128593   1.448   0.546   6.194  2.0032 -1.3407  0.5510
 8957SOL    HW228594   1.479   0.475   6.064  0.7124  1.0567 -1.1299
 8958SOL     OW28595   1.962   4.063   9.630  0.1448 -0.2330 -0.2996
 8958SOL    HW128596   1.943   4.074   9.537  1.9790 -2.3328 -1.0291
 8958SOL    HW228597   1.895   4.002   9.661 -1.8872  2.1943  0.4410
 8959SOL     OW28598   0.100   5.159   3.386  0.0901  0.5178 -0.0706
 8959SOL    HW128599   0.138   5.071   3.391  0.0296  0.4488 -0.7313
 8959SOL    HW228600   0.160   5.214   3.436  0.5897  0.2562 -0.3773
 8960SOL     OW28601   2.841   8.960   7.853 -0.2685 -0.2730 -0.1579
 8960SOL    HW128602   2.787   9.037   7.834 -2.0765 -1.6774 -1.0520
 8960SOL    HW228603   2.917   8.970   7.796 -0.4845  0.8452 -0.2684
 8961SOL     OW28604   9.423   8.420   0.167 -0.9026 -0.6453  0.3373
 8961SOL    HW128605   9.437   8.457   0.254  0.2188  2.5645 -1.0485
 8961SOL    HW228606   9.338   8.455   0.139 -0.5979 -0.4434 -0.3698
 8962SOL     OW28607   9.263   7.181   2.281 -0.5138  0.0127 -0.8265
 8962SOL    HW128608   9.252   7.105   2.339  2.3730  0.4663  0.4857
 8962SOL    HW228609   9.178   7.190   2.238 -1.2784 -3.3764 -0.3664
 8963SOL     OW28610   2.857   2.418   5.877 -0.3529  0.3201 -0.3480
 8963SOL    HW128611   2.812   2.353   5.931  1.9158 -1.2511 -0.2214
 8963SOL    HW228612   2.903   2.367   5.811  0.1392  1.9382 -1.3111
 8964SOL     OW28613   3.080   8.287   6.874 -0.5346 -0.5625 -0.2776
 8964SOL    HW128614   3.127   8.295   6.791 -0.0473  0.7844  0.1026
 8964SOL    HW228615   2.991   8.313   6.854 -0.3493  0.0500 -0.3376
 8965SOL     OW28616   4.653   3.594   8.557  0.0886  0.5316  0.4078
 8965SOL    HW128617   4.718   3.650   8.514  0.8552  0.2667  1.1789
 8965SOL    HW228618   4.694   3.569   8.640 -0.4734 -0.6988  0.3426
 8966SOL     OW28619   8.980   8.357   9.459  0.2421 -0.1804  0.3164
 8966SOL    HW128620   8.888   8.342   9.437  0.1594 -1.0994  1.2251
 8966SOL    HW228621   9.024   8.362   9.374 -0.4242 -1.1886 -0.1135
 8967SOL     OW28622   2.391   3.382   6.752  0.2430 -0.0076 -0.6395
 8967SOL    HW128623   2.486   3.387   6.752  0.5768 -3.8672 -0.5653
 8967SOL    HW228624   2.363   3.470   6.778  3.7441  1.0600  0.0564
 8968SOL     OW28625   4.661   1.986   3.520 -0.0348  0.5738  0.4302
 8968SOL    HW128626   4.753   1.995   3.494 -0.8427  3.1924 -2.0823
 8968SOL    HW228627   4.638   1.897   3.493  1.1066  0.7979 -1.5405
 8969SOL     OW28628   4.759   5.758   3.003 -0.0559 -0.1128 -0.3067
 8969SOL    HW128629   4.758   5.824   2.934  1.0467 -0.9773 -1.1970
 8969SOL    HW228630   4.830   5.787   3.062 -1.0670  0.6827  0.5614
 8970SOL     OW28631   3.411   3.977   5.923  0.0151  0.2652 -0.1213
 8970SOL    HW128632   3.316   3.987   5.921  0.0321  0.6494  0.5922
 8970SOL    HW228633   3.444   4.047   5.867 -0.1517 -0.4911 -1.1898
 8971SOL     OW28634   0.550   5.002   6.407 -0.1141 -0.2739  0.4759
 8971SOL    HW128635   0.603   4.982   6.329 -1.0994  0.7268 -0.4850
 8971SOL    HW228636   0.613   4.998   6.479  1.3142  0.9375 -0.6222
 8972SOL     OW28637   6.934   2.236   8.483 -0.2610 -0.2128 -0.1730
 8972SOL    HW128638   6.934   2.289   8.404  1.2664  0.8875  0.4987
 8972SOL    HW228639   6.890   2.290   8.549  0.3914 -0.1809  0.2547
 8973SOL     OW28640   1.691   3.557   7.851 -0.0840  0.3418  0.6213
 8973SOL    HW128641   1.728   3.561   7.939 -0.0071  0.3779  0.5870
 8973SOL    HW228642   1.717   3.639   7.810  0.6853 -0.0831  0.2413
 8974SOL     OW28643   3.792   8.825   2.386 -0.0085  0.2579  0.3098
 8974SOL    HW128644   3.730   8.754   2.403  1.0248 -0.3687  1.6140
 8974SOL    HW228645   3.863   8.783   2.338 -0.3264  0.8615 -0.7099
 8975SOL     OW28646   4.076   7.907   7.972  0.3722  0.1740  0.1848
 8975SOL    HW128647   4.033   7.823   7.986 -1.0501  0.8414  0.0610
 8975SOL    HW228648   4.128   7.922   8.051  1.0510 -1.0404 -0.0166
 8976SOL     OW28649   8.242   1.541   9.030  0.3216  0.9115 -0.2145
 8976SOL    HW128650   8.177   1.556   8.961  0.3881 -2.8867 -1.3282
 8976SOL    HW228651   8.281   1.457   9.008  1.7476  0.4443  3.4600
 8977SOL     OW28652   1.386   2.107   8.119  0.3893 -0.4268 -0.1585
 8977SOL    HW128653   1.328   2.094   8.044  0.5792  0.9669 -0.5719
 8977SOL    HW228654   1.432   2.024   8.129 -0.5195 -1.0255 -0.8195
 8978SOL     OW28655   9.097   7.616   4.687 -0.0547 -0.2586  0.3565
 8978SOL    HW128656   9.148   7.573   4.756  0.2784  0.6852  0.7215
 8978SOL    HW228657   9.009   7.625   4.724 -0.2403 -1.0025  0.1087
 8979SOL     OW28658   7.157   1.125   0.575  0.7530  0.0587  0.0426
 8979SOL    HW128659   7.153   1.161   0.663 -0.2367  0.3568 -0.1111
 8979SOL    HW228660   7.216   1.050   0.582  0.4550 -0.0953  1.0256
 8980SOL     OW28661   3.101   3.006   4.030 -0.0029  0.0317  0.2049
 8980SOL    HW128662   3.127   3.074   3.968  0.3334  0.0772  0.3954
 8980SOL    HW228663   3.016   2.975   3.997  1.2982 -1.7339 -1.7791
 8981SOL     OW28664   8.654   5.825   0.277  0.0745  0.3828  0.0701
 8981SOL    HW128665   8.595   5.814   0.352 -1.3827  0.4721 -1.0141
 8981SOL    HW228666   8.685   5.736   0.258 -1.8706 -0.1185 -0.9958
 8982SOL     OW28667   9.616   0.235   8.436 -0.5893 -0.2702 -0.5034
 8982SOL    HW128668   9.550   0.201   8.496  0.3270 -1.3823 -0.0842
 8982SOL    HW228669   9.581   0.319   8.407 -1.2352  0.1292  1.2929
 8983SOL     OW28670   7.704   5.701   7.389 -0.0771 -0.0267  0.4613
 8983SOL    HW128671   7.707   5.612   7.422 -1.0221 -0.5255 -0.7094
 8983SOL    HW228672   7.680   5.692   7.297  0.5839  1.3995  0.1106
 8984SOL     OW28673   5.710   9.347   5.207 -0.1203  0.8627 -0.5619
 8984SOL    HW128674   5.792   9.322   5.165 -0.0620 -1.8618  0.9338
 8984SOL    HW228675   5.736   9.388   5.289 -0.2198  0.4221 -0.3040
 8985SOL     OW28676   2.212   6.290   0.700  0.4677 -0.0386  0.8173
 8985SOL    HW128677   2.213   6.212   0.644  1.8485 -0.1748  0.9970
 8985SOL    HW228678   2.196   6.256   0.788 -0.2334  0.0313  0.7269
 8986SOL     OW28679   8.469   6.868   3.867  0.0357  0.1517 -0.1427
 8986SOL    HW128680   8.559   6.898   3.862 -0.3795  1.5696  0.4711
 8986SOL    HW228681   8.465   6.795   3.805  1.5002  0.2961 -0.4477
 8987SOL     OW28682   4.166   2.196   2.373 -0.0167 -0.6351 -0.0036
 8987SOL    HW128683   4.109   2.272   2.360  0.3808 -0.5534 -1.4293
 8987SOL    HW228684   4.118   2.122   2.336  0.4797 -0.6846 -0.5809
 8988SOL     OW28685   1.824   1.651   8.650 -0.0299 -0.1571 -0.1580
 8988SOL    HW128686   1.795   1.689   8.733 -0.7297 -3.2436  1.1660
 8988SOL    HW228687   1.838   1.726   8.592 -4.0814  1.9535  1.2386
 8989SOL     OW28688   7.731   5.778   5.061  0.1064  0.0832 -0.1357
 8989SOL    HW128689   7.758   5.694   5.025 -0.4873 -0.6053  0.9518
 8989SOL    HW228690   7.788   5.790   5.138 -0.2852  0.3282  0.1203
 8990SOL     OW28691   5.998   2.017   3.386 -0.4625 -0.2816  0.3568
 8990SOL    HW128692   5.946   1.943   3.419  0.8414 -1.5571 -0.3390
 8990SOL    HW228693   6.059   1.978   3.324  0.4439  1.3613  0.1542
 8991SOL     OW28694   1.265   9.275   4.621  0.1906  0.4837  0.4249
 8991SOL    HW128695   1.181   9.230   4.627 -0.0559  1.1311  2.9400
 8991SOL    HW228696   1.242   9.366   4.604  0.5493  0.2735 -1.3978
 8992SOL     OW28697   3.974   3.835   3.018 -0.7262  0.6576  0.2357
 8992SOL    HW128698   3.893   3.786   3.008 -0.6491  0.6825 -0.5836
 8992SOL    HW228699   4.006   3.811   3.105 -1.2998  0.1817  0.3201
 8993SOL     OW28700   8.962   4.928   4.421  0.1854 -0.1108 -0.0599
 8993SOL    HW128701   8.924   4.876   4.491  1.3963  0.3941  1.0178
 8993SOL    HW228702   8.922   5.014   4.430 -0.0184 -0.1781 -0.3044
 8994SOL     OW28703   3.385   6.580   5.184 -0.2575 -0.2580 -0.4784
 8994SOL    HW128704   3.454   6.630   5.140  0.8537 -0.6312  0.7740
 8994SOL    HW228705   3.416   6.490   5.181 -0.3244 -0.3382  0.7197
 8995SOL     OW28706   6.132   6.082   3.260 -0.0979  0.1929  0.0613
 8995SOL    HW128707   6.146   6.174   3.235  1.8639 -0.2890 -0.8798
 8995SOL    HW228708   6.164   6.076   3.350 -0.9429  0.5856  0.3891
 8996SOL     OW28709   5.511   2.139   5.345  0.3630 -0.5798  0.2427
 8996SOL    HW128710   5.489   2.055   5.303  0.1598 -0.1691 -0.4875
 8996SOL    HW228711   5.482   2.205   5.282  1.6286  0.0207  0.2618
 8997SOL     OW28712   3.973   8.974   1.210  0.3403  0.6842 -0.4561
 8997SOL    HW128713   3.899   8.916   1.231  1.1072 -1.3566 -2.8521
 8997SOL    HW228714   4.039   8.953   1.276  0.1587 -0.3399 -0.5761
 8998SOL     OW28715   7.340   8.391   2.149 -0.3516  0.2305  0.4960
 8998SOL    HW128716   7.367   8.403   2.240  1.1820  1.0513 -0.0242
 8998SOL    HW228717   7.290   8.470   2.128 -1.3889 -0.3241  0.8457
 8999SOL     OW28718   6.628   0.352   0.680 -0.6643  0.5833 -0.3225
 8999SOL    HW128719   6.679   0.399   0.614  0.3637  2.1064  1.4309
 8999SOL    HW228720   6.561   0.306   0.631  0.3874  1.1902 -2.4519
 9000SOL     OW28721   3.885   0.091   7.703  0.0040 -0.1386 -0.3674
 9000SOL    HW128722   3.943   0.121   7.633  1.5080 -0.4971  0.6733
 9000SOL    HW228723   3.944   0.072   7.776 -1.5419  0.6689  1.1646
 9001SOL     OW28724   1.062   5.043   1.402  0.6281 -0.0631 -0.1465
 9001SOL    HW128725   1.068   5.128   1.358  0.9962 -0.4913 -0.9483
 9001SOL    HW228726   1.079   5.062   1.494  0.4094  0.7729 -0.2763
 9002SOL     OW28727   2.182   9.239   4.673 -0.0267  0.3449 -0.3784
 9002SOL    HW128728   2.118   9.193   4.727  0.3476  0.3593  0.0833
 9002SOL    HW228729   2.267   9.211   4.707  0.2518 -0.7396 -1.8536
 9003SOL     OW28730   4.730   9.042   2.143  0.2671 -0.4393 -0.3444
 9003SOL    HW128731   4.691   9.024   2.228 -0.1969  0.9384 -0.2300
 9003SOL    HW228732   4.656   9.068   2.088  0.7294 -0.0427 -0.7883
 9004SOL     OW28733   6.992   6.398   2.961 -0.1268  0.4750  0.1716
 9004SOL    HW128734   7.004   6.344   3.039 -0.3679  0.4324  0.1803
 9004SOL    HW228735   7.068   6.378   2.906  0.0372  0.4951  0.3901
 9005SOL     OW28736   6.436   5.465   2.407  0.4228 -0.7369 -0.3580
 9005SOL    HW128737   6.456   5.551   2.370  0.3501 -0.3898  0.3915
 9005SOL    HW228738   6.376   5.425   2.344 -1.5562  0.7540  0.4586
 9006SOL     OW28739   6.280   8.855   5.230  0.1315  0.8113  0.8099
 9006SOL    HW128740   6.319   8.906   5.301 -2.2928  1.0953  2.0394
 9006SOL    HW228741   6.336   8.777   5.223  1.3575  1.5595  1.9027
 9007SOL     OW28742   9.372   2.083   5.191 -0.0087 -0.1865 -0.0344
 9007SOL    HW128743   9.418   2.166   5.191  1.8608 -1.1079 -2.1320
 9007SOL    HW228744   9.363   2.059   5.283  0.8667  1.5427  0.5243
 9008SOL     OW28745   4.187   6.652   7.035  0.3972  0.3376  0.5255
 9008SOL    HW128746   4.259   6.592   7.056 -0.6610 -1.3620 -0.4285
 9008SOL    HW228747   4.207   6.683   6.946 -0.1943 -0.4304  0.1085
 9009SOL     OW28748   8.538   8.387   4.624 -0.2002  0.6012  0.0352
 9009SOL    HW128749   8.480   8.372   4.550 -0.9977 -0.8320  0.8990
 9009SOL    HW228750   8.596   8.458   4.596 -0.9929  0.6241 -1.6381
 9010SOL     OW28751   8.239   8.981   5.275  0.6297 -0.5686 -0.8757
 9010SOL    HW128752   8.320   9.020   5.242 -0.0487 -0.2890 -2.2618
 9010SOL    HW228753   8.213   8.918   5.208 -0.6001 -0.2602 -0.7187
 9011SOL     OW28754   4.902   1.804   2.722 -0.5241  0.7506 -0.5579
 9011SOL    HW128755   4.905   1.722   2.771  0.7406  0.3401 -1.2764
 9011SOL    HW228756   4.820   1.801   2.674 -0.8419  0.2589  0.0015
 9012SOL     OW28757   2.733   0.483   4.508  0.2743  0.5487  0.4357
 9012SOL    HW128758   2.804   0.486   4.443  0.8186  1.6144  1.0492
 9012SOL    HW228759   2.725   0.391   4.531 -0.5095 -0.0102 -1.7428
 9013SOL     OW28760   3.624   7.359   7.128 -0.1185  0.0021  0.1064
 9013SOL    HW128761   3.577   7.421   7.184 -0.4451 -0.5759  0.4789
 9013SOL    HW228762   3.557   7.328   7.066  0.1577  0.3760 -0.3925
 9014SOL     OW28763   7.259   3.056   5.089 -0.1884  0.1307 -0.3023
 9014SOL    HW128764   7.283   2.993   5.021  0.0251 -2.0568  1.6756
 9014SOL    HW228765   7.343   3.092   5.119 -0.0221 -0.8732  0.5250
 9015SOL     OW28766   0.266   2.533   2.892  0.3105 -0.1857 -0.0762
 9015SOL    HW128767   0.249   2.442   2.915 -0.8600  0.0157 -0.0758
 9015SOL    HW228768   0.181   2.566   2.861  0.8134  0.7903 -0.4543
 9016SOL     OW28769   3.986   6.443   5.145  0.3408  0.0421  0.0347
 9016SOL    HW128770   3.908   6.406   5.106 -0.4289  1.3696  0.2592
 9016SOL    HW228771   4.024   6.499   5.077  1.0301 -0.4822 -0.0278
 9017SOL     OW28772   8.462   1.704   8.879 -0.0487 -0.2143 -0.3363
 9017SOL    HW128773   8.473   1.799   8.872 -0.2188 -0.2549 -1.2822
 9017SOL    HW228774   8.391   1.692   8.942 -0.5970  0.3175 -0.8401
 9018SOL     OW28775   4.729   4.073   3.714 -0.7005  0.3618 -0.2557
 9018SOL    HW128776   4.766   3.985   3.725  0.3624  0.9227  0.9406
 9018SOL    HW228777   4.804   4.128   3.691 -0.8717  1.3888  1.4401
 9019SOL     OW28778   3.337   8.136   0.978 -0.0344 -0.8179 -0.2285
 9019SOL    HW128779   3.274   8.111   0.911  0.1971 -2.9643  0.2492
 9019SOL    HW228780   3.410   8.174   0.929 -0.3089 -1.3834 -1.1103
 9020SOL     OW28781   8.453   9.685   1.441  0.1077  0.0122 -0.1607
 9020SOL    HW128782   8.387   9.643   1.496  0.7800 -1.4812 -0.4434
 9020SOL    HW228783   8.493   9.613   1.392  1.0064  1.0494 -1.0069
 9021SOL     OW28784   2.129   2.362   1.616  0.0717  0.1834  0.0863
 9021SOL    HW128785   2.179   2.298   1.667 -0.0800  1.3603  1.8290
 9021SOL    HW228786   2.040   2.327   1.613  0.4122 -0.6431 -0.7423
 9022SOL     OW28787   0.409   2.797   7.130 -0.5465 -0.5350  0.5526
 9022SOL    HW128788   0.400   2.702   7.141 -0.5994 -0.8716 -1.8240
 9022SOL    HW228789   0.341   2.820   7.066 -1.4504  1.3786  2.0994
 9023SOL     OW28790   9.077   8.288   3.088  0.2489 -0.6596  0.1772
 9023SOL    HW128791   9.012   8.305   3.019 -0.2544  0.1422  0.8275
 9023SOL    HW228792   9.025   8.269   3.166  0.7696  0.2688  0.7714
 9024SOL     OW28793   2.961   3.478   0.348 -0.5464  0.8337  0.1500
 9024SOL    HW128794   2.978   3.567   0.377 -1.5751  1.0937  0.0001
 9024SOL    HW228795   2.918   3.488   0.263 -0.6727  0.2039  0.1329
 9025SOL     OW28796   8.721   5.219   6.290 -0.3072  0.1184  0.2647
 9025SOL    HW128797   8.648   5.180   6.339 -0.7246  0.5769  0.0137
 9025SOL    HW228798   8.797   5.204   6.345 -1.1005  2.7927  2.3146
 9026SOL     OW28799   3.934   2.221   5.927 -0.5852 -0.1457 -0.2979
 9026SOL    HW128800   3.999   2.282   5.962 -0.6047  0.6632 -1.5732
 9026SOL    HW228801   3.864   2.219   5.992  0.2263 -0.1970  0.5887
 9027SOL     OW28802   3.880   6.677   3.225  0.2551  0.2819  0.6059
 9027SOL    HW128803   3.875   6.585   3.201 -0.7962  0.4209  0.2176
 9027SOL    HW228804   3.850   6.680   3.316 -0.1717  0.2876  0.4688
 9028SOL     OW28805   7.308   2.228   0.359  0.5176  0.3528 -0.6976
 9028SOL    HW128806   7.240   2.295   0.360 -0.7295 -0.8721  0.1281
 9028SOL    HW228807   7.275   2.160   0.417  2.3832 -0.3682 -0.4146
 9029SOL     OW28808   5.119   4.519   8.887 -0.3144  0.5119  0.1062
 9029SOL    HW128809   5.195   4.468   8.859 -1.3393 -2.0971  1.6935
 9029SOL    HW228810   5.050   4.494   8.825 -0.4081  1.3227 -0.1269
 9030SOL     OW28811   8.752   6.867   1.239 -0.7763  0.0314  0.2208
 9030SOL    HW128812   8.729   6.781   1.205 -2.7085 -0.0927  1.6783
 9030SOL    HW228813   8.742   6.927   1.165  0.3486 -0.9240 -0.7393
 9031SOL     OW28814   5.668   7.642   7.757 -0.4938  0.2647 -0.4212
 9031SOL    HW128815   5.646   7.596   7.839  0.7156 -0.1973 -0.3406
 9031SOL    HW228816   5.711   7.575   7.703  2.2957  1.4906  0.1045
 9032SOL     OW28817   1.004   8.116   3.933  0.0042  0.6990 -0.1591
 9032SOL    HW128818   0.953   8.170   3.994  0.4094  0.5657  0.3020
 9032SOL    HW228819   1.083   8.094   3.981  0.4082  0.7344 -0.8014
 9033SOL     OW28820   3.822   9.369   1.763 -0.3299  0.4733 -0.0025
 9033SOL    HW128821   3.876   9.291   1.746  1.0267  1.6005 -1.2128
 9033SOL    HW228822   3.784   9.390   1.677 -1.0850  0.8588  0.4198
 9034SOL     OW28823   2.154   3.588   1.728  0.8627 -0.1515  0.5994
 9034SOL    HW128824   2.081   3.632   1.770  0.6662 -0.9130  1.0684
 9034SOL    HW228825   2.169   3.638   1.648  0.2457  0.3927  0.8162
 9035SOL     OW28826   8.943   3.089   1.224  0.0980  0.4243 -0.1303
 9035SOL    HW128827   8.984   3.009   1.190  1.1242  0.1776  1.5964
 9035SOL    HW228828   8.968   3.157   1.161 -0.6225 -0.5368 -1.5232
 9036SOL     OW28829   4.794   1.003   5.715  0.0171  0.6841  0.5948
 9036SOL    HW128830   4.741   0.948   5.657  1.6849  0.5811 -0.9030
 9036SOL    HW228831   4.872   0.951   5.733  0.4646  1.5621  1.2451
 9037SOL     OW28832   9.214   1.081   3.322  0.5025 -0.5520 -0.3094
 9037SOL    HW128833   9.244   1.074   3.231 -1.8888 -0.2778 -1.1826
 9037SOL    HW228834   9.240   0.997   3.361 -0.0713 -1.4609 -1.7832
 9038SOL     OW28835   7.443   7.986   6.075 -0.0927 -0.1527  0.2458
 9038SOL    HW128836   7.510   8.049   6.103 -0.8772  0.4028  0.9449
 9038SOL    HW228837   7.450   7.984   5.980  0.5773  0.2817  0.2782
 9039SOL     OW28838   4.558   3.804   5.061  0.0707  0.2027  0.1705
 9039SOL    HW128839   4.636   3.848   5.028  2.0147 -1.6522  1.9146
 9039SOL    HW228840   4.584   3.711   5.065 -1.3936 -0.1767  2.9334
 9040SOL     OW28841   2.305   6.878   4.544  0.2286  0.0949  0.0232
 9040SOL    HW128842   2.304   6.956   4.489  2.7695  1.4268  1.6437
 9040SOL    HW228843   2.276   6.910   4.630  1.8418 -0.5473  0.8496
 9041SOL     OW28844   7.655   8.446   3.387 -0.0309  0.2898 -0.4431
 9041SOL    HW128845   7.727   8.507   3.374  0.8283 -0.7622 -0.7510
 9041SOL    HW228846   7.669   8.411   3.474 -0.1728  0.0845 -0.5023
 9042SOL     OW28847   1.959   8.885   7.102  0.3067 -0.5802 -0.0279
 9042SOL    HW128848   1.955   8.816   7.168  0.4824 -1.2274 -0.6789
 9042SOL    HW228849   1.991   8.962   7.149  0.6611 -1.0980  0.5851
 9043SOL     OW28850   4.071   0.860   2.740 -0.0010  0.6121 -0.6576
 9043SOL    HW128851   4.022   0.801   2.797  1.6489 -1.3800 -1.1673
 9043SOL    HW228852   4.022   0.862   2.659  0.5515 -1.1958 -1.0925
 9044SOL     OW28853   9.686   3.228   2.265  0.0886 -1.0106  0.0208
 9044SOL    HW128854   9.752   3.166   2.295  0.1328 -0.3278  1.4260
 9044SOL    HW228855   9.673   3.288   2.339  0.4563  1.0014 -1.4365
 9045SOL     OW28856   3.086   4.483   7.507 -0.2051 -0.0457 -0.1074
 9045SOL    HW128857   3.027   4.427   7.456 -0.0728  0.8214 -1.2463
 9045SOL    HW228858   3.173   4.446   7.492 -0.0721  0.6626 -1.1651
 9046SOL     OW28859   2.796   1.712   8.441 -0.4742  0.2815 -0.1168
 9046SOL    HW128860   2.834   1.674   8.521 -1.9171 -1.9599 -0.4324
 9046SOL    HW228861   2.730   1.774   8.473 -0.9748 -0.5297  0.4415
 9047SOL     OW28862   8.115   8.718   1.630  0.0574 -0.0610 -0.0063
 9047SOL    HW128863   8.022   8.720   1.656  0.2230 -1.4772  0.7807
 9047SOL    HW228864   8.143   8.629   1.648  1.0762 -0.2289 -2.1060
 9048SOL     OW28865   3.932   6.711   7.346 -0.1730 -0.4096 -0.3114
 9048SOL    HW128866   4.007   6.656   7.321 -0.7173 -1.4061  0.1862
 9048SOL    HW228867   3.969   6.799   7.355  0.9585 -0.8939 -0.0204
 9049SOL     OW28868   3.373   3.428   2.738  0.1639  0.2333  0.4987
 9049SOL    HW128869   3.331   3.385   2.813 -0.8219 -0.6818 -0.5361
 9049SOL    HW228870   3.303   3.478   2.697  0.6020  0.4327 -0.0155
 9050SOL     OW28871   2.548   7.604   5.131 -0.0606 -0.0658  0.0726
 9050SOL    HW128872   2.505   7.688   5.150 -0.4218 -0.5449  1.4718
 9050SOL    HW228873   2.626   7.604   5.187  0.7521 -0.0489 -1.0174
 9051SOL     OW28874   9.563   1.572   5.545 -0.2706  0.0044  0.0500
 9051SOL    HW128875   9.565   1.476   5.548  0.5487 -0.0498 -1.3973
 9051SOL    HW228876   9.601   1.599   5.629 -1.1490 -0.9139  0.7658
 9052SOL     OW28877   9.011   0.437   3.466  0.2612 -0.1067 -0.9448
 9052SOL    HW128878   9.049   0.520   3.439  0.1237 -0.6086 -2.8474
 9052SOL    HW228879   8.986   0.394   3.384 -0.2559 -1.7477  0.0135
 9053SOL     OW28880   8.837   8.910   8.916 -0.2513  0.2435 -0.3996
 9053SOL    HW128881   8.869   8.850   8.849 -0.8346 -0.2959 -0.2072
 9053SOL    HW228882   8.799   8.983   8.867 -1.5924 -0.6233 -0.6996
 9054SOL     OW28883   2.673   8.890   1.685  1.0591  0.4798 -0.5980
 9054SOL    HW128884   2.639   8.832   1.616 -0.3221  0.9865 -0.3859
 9054SOL    HW228885   2.760   8.914   1.655  0.7760  0.0913 -1.8053
 9055SOL     OW28886   7.199   2.138   3.425 -0.0294  0.1740 -0.1140
 9055SOL    HW128887   7.226   2.174   3.340 -0.9446 -0.7347 -0.8207
 9055SOL    HW228888   7.156   2.055   3.403 -1.7875  0.7160  1.1004
 9056SOL     OW28889   1.644   9.188   8.358  0.0369  0.1008  0.5439
 9056SOL    HW128890   1.684   9.190   8.271  1.6681 -1.6030  1.2047
 9056SOL    HW228891   1.559   9.145   8.345  0.2283 -0.0488 -0.2147
 9057SOL     OW28892   5.108   5.393   2.670  0.3628 -0.1474  0.0275
 9057SOL    HW128893   5.026   5.401   2.719  1.6441  2.4453  2.0360
 9057SOL    HW228894   5.084   5.409   2.579 -1.4689 -0.3138  0.4528
 9058SOL     OW28895   4.449   6.238   5.788  0.1666  0.1351 -0.4754
 9058SOL    HW128896   4.470   6.144   5.784  1.3179  0.3678 -0.2650
 9058SOL    HW228897   4.374   6.249   5.729  0.1133 -0.8863 -0.6140
 9059SOL     OW28898   4.068   0.897   9.283  0.4929  0.4904  0.0863
 9059SOL    HW128899   3.978   0.917   9.311  0.6168  0.2177  0.6726
 9059SOL    HW228900   4.120   0.970   9.315  0.6396  0.1612  0.6110
 9060SOL     OW28901   3.444   8.017   5.347 -0.0163  0.0068 -0.3493
 9060SOL    HW128902   3.424   8.092   5.290  0.2513  0.5021  0.1903
 9060SOL    HW228903   3.463   7.945   5.287 -1.1214  0.1406 -0.8811
 9061SOL     OW28904   7.446   9.070   0.939  0.0985  0.2139 -0.0763
 9061SOL    HW128905   7.469   9.132   1.008  0.4550  2.3126 -1.9607
 9061SOL    HW228906   7.403   9.123   0.872 -1.1779 -1.9076 -1.0451
 9062SOL     OW28907   2.955   8.505   0.151  0.2131  0.5227 -0.6433
 9062SOL    HW128908   2.920   8.572   0.093 -1.4694  1.0363  0.8503
 9062SOL    HW228909   2.897   8.508   0.228  1.4843 -1.0732  0.4429
 9063SOL     OW28910   7.728   2.530   6.837 -0.4511 -0.0621  0.0734
 9063SOL    HW128911   7.762   2.601   6.782 -0.4773 -0.4900 -0.4967
 9063SOL    HW228912   7.798   2.513   6.899 -0.0404 -0.2201 -0.4268
 9064SOL     OW28913   3.270   7.595   2.566 -0.2594  0.0078 -0.2057
 9064SOL    HW128914   3.338   7.545   2.610  1.2528  2.1207 -0.0029
 9064SOL    HW228915   3.196   7.594   2.627  0.6722  0.2209  0.9425
 9065SOL     OW28916   6.329   2.164   5.788 -0.0584 -0.7130  0.2362
 9065SOL    HW128917   6.241   2.129   5.773 -1.0323  1.2283  1.0216
 9065SOL    HW228918   6.340   2.161   5.883  0.1876  0.2235  0.2456
 9066SOL     OW28919   1.888   8.570   3.623  0.0592 -0.1810  0.2802
 9066SOL    HW128920   1.837   8.500   3.582  0.8166  0.1262 -1.2702
 9066SOL    HW228921   1.825   8.617   3.678 -0.8207 -1.0961  0.0859
 9067SOL     OW28922   8.871   5.868   3.515 -0.0769 -0.1936 -0.6197
 9067SOL    HW128923   8.899   5.776   3.512 -1.4551 -0.6539 -0.3270
 9067SOL    HW228924   8.819   5.874   3.595  2.6722  1.6941  1.2325
 9068SOL     OW28925   8.014   4.826   5.188 -0.1337 -0.4851 -0.4846
 9068SOL    HW128926   7.946   4.790   5.130 -1.4728  0.0184  0.7143
 9068SOL    HW228927   7.985   4.915   5.207  0.5426 -0.4690  0.5449
 9069SOL     OW28928   8.789   5.760   0.630  0.8584 -0.4769 -0.9169
 9069SOL    HW128929   8.702   5.770   0.590 -0.1433  1.3807  1.4694
 9069SOL    HW228930   8.771   5.726   0.718  2.5195  0.3312 -0.2283
 9070SOL     OW28931   1.193   3.635   2.785 -0.4224  0.1227 -0.7688
 9070SOL    HW128932   1.287   3.618   2.791 -0.6322 -0.6873  0.9155
 9070SOL    HW228933   1.175   3.695   2.858 -1.0773  1.0306 -1.6448
 9071SOL     OW28934   1.747   8.585   2.894 -0.2209 -0.0920 -0.6337
 9071SOL    HW128935   1.734   8.613   2.984 -2.6288  0.0935 -0.9726
 9071SOL    HW228936   1.794   8.657   2.852  2.5261 -0.9114  0.8143
 9072SOL     OW28937   0.945   2.864   1.383  0.0026  0.0635  0.1322
 9072SOL    HW128938   0.920   2.784   1.430  0.0445 -0.7469 -1.1545
 9072SOL    HW228939   0.982   2.921   1.450 -0.2745 -0.8952  1.1319
 9073SOL     OW28940   9.583   0.085   7.666  0.3852 -0.3261  0.2968
 9073SOL    HW128941   9.608  -0.004   7.641  1.3766  0.7041 -2.8613
 9073SOL    HW228942   9.666   0.130   7.682 -0.0406  0.3478  0.6775
 9074SOL     OW28943   0.447   7.779   4.223 -0.2299  0.4948 -0.5098
 9074SOL    HW128944   0.454   7.852   4.161 -0.8945  0.6802 -0.3837
 9074SOL    HW228945   0.520   7.722   4.201  1.1746  1.8980  0.3237
 9075SOL     OW28946   8.712   2.921   3.528  0.5547 -0.0440 -0.0071
 9075SOL    HW128947   8.715   2.995   3.590  1.6974 -1.3793  1.6194
 9075SOL    HW228948   8.802   2.910   3.499  0.1885 -0.0817 -1.1729
 9076SOL     OW28949   7.674   2.494   9.534 -0.1769  0.1016  0.2592
 9076SOL    HW128950   7.739   2.451   9.590 -1.3041  0.4757  1.9451
 9076SOL    HW228951   7.660   2.432   9.462  0.6034 -0.8795  0.9142
 9077SOL     OW28952   7.637   2.416   5.813 -0.9858  0.7480 -0.9876
 9077SOL    HW128953   7.688   2.490   5.847  1.2671 -0.6361 -1.1670
 9077SOL    HW228954   7.622   2.439   5.721 -0.7045  1.1809 -0.9316
 9078SOL     OW28955   8.286   4.662   4.521  0.2835 -0.2676 -0.2770
 9078SOL    HW128956   8.299   4.646   4.427 -1.3291 -0.4794 -0.5061
 9078SOL    HW228957   8.352   4.726   4.544  1.1835 -0.7536 -1.3928
 9079SOL     OW28958   9.646   8.553   8.632 -0.0345 -0.1553  0.0697
 9079SOL    HW128959   9.568   8.608   8.625 -1.2753 -1.5430  2.1142
 9079SOL    HW228960   9.645   8.521   8.722  1.7733 -1.8941 -0.4582
 9080SOL     OW28961   5.188   0.617   4.400 -0.0282  0.5888  0.7405
 9080SOL    HW128962   5.225   0.550   4.342 -0.7852  1.0768 -0.3437
 9080SOL    HW228963   5.123   0.663   4.346  2.4241  4.1342  0.4581
 9081SOL     OW28964   0.351   0.159   6.425 -0.1839  0.7392  0.0672
 9081SOL    HW128965   0.278   0.155   6.363 -0.8546  3.7914  0.5054
 9081SOL    HW228966   0.405   0.232   6.393 -0.2411  2.0385  2.6732
 9082SOL     OW28967   8.217   3.852   0.068 -0.2888 -0.1931 -0.2217
 9082SOL    HW128968   8.210   3.773   0.016 -1.3321 -0.1416 -0.1859
 9082SOL    HW228969   8.168   3.833   0.148 -1.4830  0.8378 -0.6746
 9083SOL     OW28970   7.024   5.803   7.553 -0.7248  0.1151 -0.3357
 9083SOL    HW128971   7.060   5.890   7.564 -0.6266  0.1358 -0.8064
 9083SOL    HW228972   6.944   5.816   7.501 -0.7807 -0.0600 -0.2966
 9084SOL     OW28973   1.005   9.137   4.636 -0.2547 -0.1528 -0.0130
 9084SOL    HW128974   0.997   9.067   4.701  1.2399 -1.1600 -0.8793
 9084SOL    HW228975   0.963   9.212   4.678 -0.9898 -1.2728  1.3538
 9085SOL     OW28976   9.502   1.936   4.674  0.1801  0.0973 -0.7138
 9085SOL    HW128977   9.571   2.002   4.673  0.7252 -0.4546 -1.9925
 9085SOL    HW228978   9.493   1.912   4.766  2.7412 -0.8808 -0.6517
 9086SOL     OW28979   7.586   3.879   5.665 -0.2426 -0.1889 -0.0859
 9086SOL    HW128980   7.522   3.905   5.732  0.1512  2.7719 -0.6906
 9086SOL    HW228981   7.670   3.909   5.701 -0.0448  1.6195 -1.8972
 9087SOL     OW28982   7.499   3.192   3.241  0.3067  0.0454 -0.3801
 9087SOL    HW128983   7.517   3.240   3.160 -0.1441  0.6354 -0.1387
 9087SOL    HW228984   7.584   3.184   3.284  0.6161 -0.6076 -1.0858
 9088SOL     OW28985   0.437   2.957   4.470 -0.5919 -0.4707 -0.7430
 9088SOL    HW128986   0.348   2.932   4.497 -0.3268  0.1636  0.8771
 9088SOL    HW228987   0.486   2.959   4.552  0.6704  0.1962 -1.4933
 9089SOL     OW28988   7.875   2.875   9.281  0.4850 -0.4208  0.5974
 9089SOL    HW128989   7.844   2.908   9.365 -0.2698 -1.1002  0.5955
 9089SOL    HW228990   7.799   2.833   9.242  0.0319  2.1807 -1.6330
 9090SOL     OW28991   2.314   4.211   0.874 -0.2914 -0.3213 -0.4255
 9090SOL    HW128992   2.256   4.188   0.802  0.7456  1.6799 -2.0332
 9090SOL    HW228993   2.302   4.306   0.885  2.0441  0.0317 -0.3223
 9091SOL     OW28994   9.646   2.457   6.206 -0.3075  0.4702  0.7192
 9091SOL    HW128995   9.655   2.507   6.286 -1.9638 -0.5385  1.5927
 9091SOL    HW228996   9.647   2.365   6.234 -1.8732  0.1137 -0.2700
 9092SOL     OW28997   5.450   4.607   3.663  0.0439  0.3420  0.4623
 9092SOL    HW128998   5.407   4.687   3.634  0.8739  0.4588 -0.4890
 9092SOL    HW228999   5.428   4.542   3.596 -1.3461 -0.4999  1.6608
 9093SOL     OW29000   3.913   3.149   6.385  0.0888 -0.4835 -0.1386
 9093SOL    HW129001   3.880   3.239   6.377  0.5077 -0.2934  0.2150
 9093SOL    HW229002   3.968   3.151   6.464  0.2857 -0.9921 -0.2622
 9094SOL     OW29003   4.293   8.768   8.132  0.8685  0.2839  0.1631
 9094SOL    HW129004   4.303   8.721   8.050  0.5819 -0.4233  0.5194
 9094SOL    HW229005   4.379   8.765   8.173  0.6345 -0.7802  0.6147
 9095SOL     OW29006   3.397   4.475   4.666 -0.2775  0.0575 -0.4784
 9095SOL    HW129007   3.326   4.460   4.605 -0.7792  1.2514 -0.2107
 9095SOL    HW229008   3.400   4.395   4.719 -0.7272 -0.4234 -1.1660
 9096SOL     OW29009   9.641   4.760   1.624  0.3151 -0.7575 -0.4416
 9096SOL    HW129010   9.616   4.668   1.635 -1.3867 -0.1208  1.7471
 9096SOL    HW229011   9.679   4.785   1.708  1.3689  0.3813 -1.2294
 9097SOL     OW29012   0.110   6.350   7.209 -0.2970  0.1945 -0.0013
 9097SOL    HW129013   0.034   6.376   7.156 -1.6597 -1.4698  1.0035
 9097SOL    HW229014   0.144   6.431   7.245 -1.9073  0.9455 -0.1026
 9098SOL     OW29015   2.579   0.020   5.350  0.0048 -0.1341 -0.1735
 9098SOL    HW129016   2.510   0.086   5.349 -0.1483 -0.2142  1.3577
 9098SOL    HW229017   2.616   0.021   5.262  0.5322  2.5500  0.0038
 9099SOL     OW29018   2.987   2.575   5.086 -0.2395 -0.2484 -0.3752
 9099SOL    HW129019   3.055   2.515   5.116 -0.2377 -0.0243  0.0754
 9099SOL    HW229020   3.020   2.662   5.109 -0.5895 -0.1252 -0.3278
 9100SOL     OW29021   8.782   8.600   2.154  0.0144 -0.3564 -0.4055
 9100SOL    HW129022   8.705   8.554   2.119 -0.5341 -0.4089  0.8003
 9100SOL    HW229023   8.804   8.550   2.233  1.5419 -0.5704 -0.9410
 9101SOL     OW29024   7.413   2.086   8.757 -0.3573  0.4569 -0.4423
 9101SOL    HW129025   7.362   2.046   8.828 -0.4194  1.1936 -0.0666
 9101SOL    HW229026   7.348   2.106   8.689 -0.3658  0.1922 -0.5166
 9102SOL     OW29027   0.948   5.545   0.449 -0.6990  0.3477 -0.3781
 9102SOL    HW129028   1.014   5.550   0.517 -0.4672 -2.2590 -0.3002
 9102SOL    HW229029   0.871   5.508   0.492 -1.2284  0.5684 -1.1061
 9103SOL     OW29030   0.930   9.336   0.757 -0.3499 -0.0885 -0.0997
 9103SOL    HW129031   1.023   9.355   0.766 -0.9237  2.6284  1.4576
 9103SOL    HW229032   0.899   9.399   0.692 -1.5591  1.2810  1.6892
 9104SOL     OW29033   0.249   8.065   8.029  0.0507  0.0099  0.2684
 9104SOL    HW129034   0.267   8.107   8.113  0.3176  0.2733  0.0797
 9104SOL    HW229035   0.165   8.103   8.001  0.9427  1.4780 -0.5602
 9105SOL     OW29036   5.122   6.515   6.437  0.3694  0.0923 -0.1862
 9105SOL    HW129037   5.148   6.445   6.377  0.3954  1.2605 -1.6057
 9105SOL    HW229038   5.113   6.472   6.522 -0.3992 -1.7863 -1.1513
 9106SOL     OW29039   8.244   5.834   5.867  0.2837  0.3474  0.2127
 9106SOL    HW129040   8.335   5.830   5.894  0.7139 -0.5793 -1.2631
 9106SOL    HW229041   8.217   5.924   5.886  1.9054  1.0186 -0.4975
 9107SOL     OW29042   4.688   0.271   2.133  0.0562 -0.0191 -0.1786
 9107SOL    HW129043   4.646   0.200   2.085 -0.3371 -0.2441  0.4824
 9107SOL    HW229044   4.768   0.232   2.168  0.0254 -0.0364 -0.1264
 9108SOL     OW29045   6.117   9.003   0.646  0.1062 -0.3228  0.4951
 9108SOL    HW129046   6.036   9.054   0.652  0.2535  0.2145 -1.4183
 9108SOL    HW229047   6.113   8.943   0.721 -1.3732  0.6442  1.2395
 9109SOL     OW29048   7.987   1.405   3.160 -0.3323 -0.0029  0.0946
 9109SOL    HW129049   7.947   1.485   3.126  0.4441  1.3598  2.1656
 9109SOL    HW229050   8.080   1.425   3.165  0.3586 -2.2400 -2.3183
 9110SOL     OW29051   5.143   1.699   2.647  0.3803 -0.2162  0.6926
 9110SOL    HW129052   5.078   1.752   2.692 -0.8693 -2.8170  2.2006
 9110SOL    HW229053   5.216   1.692   2.708 -0.0609 -1.3307  1.1149
 9111SOL     OW29054   5.523   8.738   8.856 -0.0396 -0.4305  0.7475
 9111SOL    HW129055   5.508   8.656   8.904  1.0114 -2.3942 -2.0416
 9111SOL    HW229056   5.441   8.752   8.808 -0.6539  0.8951  2.0799
 9112SOL     OW29057   4.376   6.710   7.506 -0.0750  0.5840  0.2284
 9112SOL    HW129058   4.460   6.722   7.462 -0.9407  1.6452 -1.2312
 9112SOL    HW229059   4.351   6.798   7.535 -1.3539  0.5574 -0.6925
 9113SOL     OW29060   1.544   9.632   6.045 -0.8477  0.4003  0.4616
 9113SOL    HW129061   1.617   9.586   6.005 -0.4626  1.3892 -0.0125
 9113SOL    HW229062   1.568   9.640   6.137 -0.2817  0.8473  0.2818
 9114SOL     OW29063   5.531   1.169   7.415  0.1881 -0.1712  0.3522
 9114SOL    HW129064   5.620   1.202   7.401  0.5314 -0.1291  2.3353
 9114SOL    HW229065   5.477   1.247   7.414  0.3431 -0.0626  0.3706
 9115SOL     OW29066   7.541   4.731   6.791 -0.0943 -0.0384  0.3038
 9115SOL    HW129067   7.471   4.763   6.849 -0.2013 -0.3914  0.3723
 9115SOL    HW229068   7.621   4.766   6.829  0.0488 -1.9588  1.8771
 9116SOL     OW29069   5.396   5.861   8.580 -0.1307  0.2851  0.1065
 9116SOL    HW129070   5.333   5.927   8.551  0.1626  0.0489 -1.1580
 9116SOL    HW229071   5.457   5.908   8.636 -0.0863  1.0420 -0.5609
 9117SOL     OW29072   7.805   6.714   6.521 -0.2611 -0.3861  0.4150
 9117SOL    HW129073   7.747   6.769   6.574 -0.9448  0.2563 -0.9395
 9117SOL    HW229074   7.745   6.660   6.469  0.3725 -2.8703  2.0863
 9118SOL     OW29075   3.750   1.405   0.678  0.2696  0.3172  0.0476
 9118SOL    HW129076   3.788   1.419   0.765 -0.2169  0.5901  0.2145
 9118SOL    HW229077   3.677   1.345   0.694  0.2964  0.2178 -0.2029
 9119SOL     OW29078   9.651   2.453   4.178 -0.6093 -0.6330 -0.3448
 9119SOL    HW129079   9.680   2.482   4.264 -1.6124 -0.5409 -0.0265
 9119SOL    HW229080   9.681   2.362   4.172 -1.1851 -0.8768  0.4084
 9120SOL     OW29081   2.005   2.124   3.452  0.0274 -0.6662 -0.4812
 9120SOL    HW129082   2.093   2.155   3.431 -0.4537 -0.1910 -1.9741
 9120SOL    HW229083   2.010   2.029   3.438 -0.2311 -0.3921 -2.8694
 9121SOL     OW29084   4.348   5.174   3.533 -0.3858  0.0814 -0.4829
 9121SOL    HW129085   4.320   5.252   3.580 -1.1666 -0.7283  0.4257
 9121SOL    HW229086   4.430   5.148   3.575 -1.3325 -0.9236  0.8102
 9122SOL     OW29087   1.953   5.155   0.257  0.3280  0.1972 -0.3352
 9122SOL    HW129088   1.923   5.231   0.207 -0.6885  0.6079  0.8463
 9122SOL    HW229089   2.046   5.148   0.237  0.1577  0.9816 -1.4528
 9123SOL     OW29090   4.136   9.344   7.437 -0.3527  0.3150  0.3929
 9123SOL    HW129091   4.186   9.289   7.377  1.9055  1.3253  1.2493
 9123SOL    HW229092   4.049   9.349   7.397  0.2410 -1.3549 -1.2668
 9124SOL     OW29093   9.585   9.584   8.739 -0.6562 -0.0311  0.1006
 9124SOL    HW129094   9.570   9.512   8.800 -0.3853  0.4379  0.7306
 9124SOL    HW229095   9.678   9.604   8.748 -1.1245  1.7576  1.4852
 9125SOL     OW29096   2.871   8.042   2.646  0.1058 -0.4034  0.1174
 9125SOL    HW129097   2.788   8.059   2.690 -0.5556 -0.7231 -0.9719
 9125SOL    HW229098   2.908   8.130   2.632 -1.1825 -0.0733 -1.4914
 9126SOL     OW29099   5.333   6.485   3.243 -0.4737  0.3955  0.1733
 9126SOL    HW129100   5.407   6.495   3.303 -0.2554 -1.4647  0.2811
 9126SOL    HW229101   5.373   6.472   3.157 -0.6697 -0.5127  0.2146
 9127SOL     OW29102   0.902   7.570   8.052  0.6662 -0.1877  0.1256
 9127SOL    HW129103   0.932   7.555   8.142 -0.9775  1.4943  1.0479
 9127SOL    HW229104   0.834   7.638   8.061 -0.0634 -0.4982 -2.3150
 9128SOL     OW29105   7.479   6.682   2.074 -0.3891 -0.0223  0.5217
 9128SOL    HW129106   7.521   6.631   2.143 -3.2673 -0.4788  2.0825
 9128SOL    HW229107   7.552   6.724   2.028  1.8044 -1.7587  2.1648
 9129SOL     OW29108   4.403   4.878   8.180 -0.8162  0.0986  0.0236
 9129SOL    HW129109   4.380   4.949   8.239 -1.2342 -0.0358  0.0277
 9129SOL    HW229110   4.490   4.849   8.209 -1.0795 -0.0594  0.6626
 9130SOL     OW29111   5.563   0.744   9.302 -0.4359 -0.1036 -0.0431
 9130SOL    HW129112   5.634   0.710   9.249 -0.9534 -2.8272  0.8365
 9130SOL    HW229113   5.550   0.678   9.371 -3.0092  0.8509  0.5264
 9131SOL     OW29114   7.876   2.715   7.464  0.1989  0.3930 -0.2727
 9131SOL    HW129115   7.945   2.780   7.457  2.0283 -1.2179  1.5814
 9131SOL    HW229116   7.840   2.727   7.552 -0.8611  0.1970 -0.6586
 9132SOL     OW29117   6.904   4.289   7.535  0.8535 -0.1423 -0.0451
 9132SOL    HW129118   6.829   4.344   7.553  0.9693 -0.2555  0.8206
 9132SOL    HW229119   6.890   4.210   7.587  0.1212 -1.4713 -2.1142
 9133SOL     OW29120   0.369   8.552   4.489 -0.1759  0.4903  0.3307
 9133SOL    HW129121   0.310   8.501   4.434 -1.1109  0.1806  1.5604
 9133SOL    HW229122   0.413   8.488   4.544  0.7482  0.7881 -0.0528
 9134SOL     OW29123   4.374   8.215   0.976  0.1192  0.5869 -0.6667
 9134SOL    HW129124   4.364   8.121   0.966  0.9604  0.0498  2.4027
 9134SOL    HW229125   4.339   8.234   1.064  0.9217  2.9466 -0.7761
 9135SOL     OW29126   7.036   5.438   3.733  0.5733  0.0667  0.3271
 9135SOL    HW129127   7.087   5.508   3.774  0.7227  0.3868 -0.3816
 9135SOL    HW229128   7.030   5.464   3.641  0.9353 -1.0277 -0.0238
 9136SOL     OW29129   3.396   4.389   2.321  0.2704 -0.3404  0.3952
 9136SOL    HW129130   3.385   4.360   2.230 -0.1502 -1.7208  0.8577
 9136SOL    HW229131   3.491   4.392   2.333  0.3364  0.3044 -0.2130
 9137SOL     OW29132   5.118   3.446   3.526  0.2787 -0.5582  0.4797
 9137SOL    HW129133   5.053   3.512   3.505  0.0375 -0.7933  0.4774
 9137SOL    HW229134   5.073   3.386   3.586  0.6764 -0.3996  0.9469
 9138SOL     OW29135   4.471   4.729   0.400  0.1737 -0.3509  0.3921
 9138SOL    HW129136   4.391   4.765   0.438  0.5025  0.1793  0.5965
 9138SOL    HW229137   4.509   4.802   0.351  2.0433  0.3398  2.6697
 9139SOL     OW29138   4.323   2.477   1.656 -0.4323 -0.4116 -0.0838
 9139SOL    HW129139   4.356   2.394   1.691  1.4831 -0.2138 -1.3021
 9139SOL    HW229140   4.334   2.469   1.561 -1.0522  0.9073 -0.2881
 9140SOL     OW29141   2.960   1.083   5.466  0.5837  0.3427 -0.6166
 9140SOL    HW129142   3.026   1.070   5.397  0.9011  0.9323 -0.4241
 9140SOL    HW229143   2.915   1.164   5.441 -1.9628 -1.3968 -2.2767
 9141SOL     OW29144   1.152   4.789   1.446 -0.1877 -0.0180 -0.4450
 9141SOL    HW129145   1.084   4.728   1.419  0.2611 -0.6505 -0.1796
 9141SOL    HW229146   1.118   4.875   1.424 -0.8941 -0.3571 -0.6914
 9142SOL     OW29147   6.779   7.906   3.904  0.1798  0.7159 -0.0805
 9142SOL    HW129148   6.815   7.993   3.888 -0.0561  0.9339  0.5566
 9142SOL    HW229149   6.777   7.897   3.999  2.5380 -0.9788 -0.1060
 9143SOL     OW29150   5.934   9.292   5.641  0.4839  0.2690 -0.3789
 9143SOL    HW129151   5.979   9.285   5.725  1.4568 -0.7802 -0.9612
 9143SOL    HW229152   5.995   9.340   5.585  0.1740  0.2736 -0.7200
 9144SOL     OW29153   8.626   9.509   0.056 -0.1709  0.1059  0.7677
 9144SOL    HW129154   8.619   9.434   0.116 -0.2693  0.4432  1.1792
 9144SOL    HW229155   8.620   9.470  -0.031 -0.8643 -0.2992  0.9914
 9145SOL     OW29156   4.242   3.014   4.706  0.1463 -0.3315  0.5177
 9145SOL    HW129157   4.257   3.090   4.650  0.6107 -0.5815  0.2930
 9145SOL    HW229158   4.258   3.046   4.795 -2.1640  0.4850  0.7045
 9146SOL     OW29159   0.288   4.080   9.220 -0.1987 -0.2244  0.3879
 9146SOL    HW129160   0.343   4.087   9.298 -0.6397  1.2046  0.6101
 9146SOL    HW229161   0.232   4.157   9.224 -0.2415 -0.1278 -1.3461
 9147SOL     OW29162   6.334   2.562   2.268  0.2849 -0.4269 -0.0315
 9147SOL    HW129163   6.242   2.538   2.275  0.1946 -0.0241  0.2331
 9147SOL    HW229164   6.381   2.479   2.271 -0.0279 -0.5858  0.5674
 9148SOL     OW29165   6.550   4.945   5.562 -0.0355  0.3329 -0.3284
 9148SOL    HW129166   6.520   4.876   5.621 -0.5228  1.4791  0.8148
 9148SOL    HW229167   6.483   4.947   5.493 -0.3792  0.1129 -0.0090
 9149SOL     OW29168   8.216   6.886   2.701 -0.1465 -0.2501  0.2437
 9149SOL    HW129169   8.201   6.943   2.776 -1.1148 -2.0559  1.5118
 9149SOL    HW229170   8.178   6.802   2.727  1.0287 -1.4322 -1.6039
 9150SOL     OW29171   4.297   2.955   8.412 -0.0733  0.0932 -0.1532
 9150SOL    HW129172   4.208   2.923   8.427 -0.3928  0.8560 -0.3895
 9150SOL    HW229173   4.352   2.902   8.470 -0.6360 -0.6127 -0.2566
 9151SOL     OW29174   7.951   4.910   3.868 -0.4086 -0.1535  0.6383
 9151SOL    HW129175   8.032   4.958   3.887  0.0716 -0.9877  0.7118
 9151SOL    HW229176   7.887   4.979   3.849  0.5415  0.4995 -0.3398
 9152SOL     OW29177   7.793   7.404   3.583  0.0821  0.6220  0.0171
 9152SOL    HW129178   7.787   7.476   3.521 -0.9944  0.9997  0.5398
 9152SOL    HW229179   7.845   7.337   3.538  0.1566  1.2858 -0.8900
 9153SOL     OW29180   0.678   7.711   8.152  0.2820 -0.1865  0.0636
 9153SOL    HW129181   0.607   7.647   8.163  0.7506 -0.6641  0.3352
 9153SOL    HW229182   0.645   7.772   8.086 -1.5496  1.2635  2.1774
 9154SOL     OW29183   6.442   6.945   1.301  0.2434  0.0964 -0.5467
 9154SOL    HW129184   6.355   6.921   1.268 -0.1784 -1.4592  1.4515
 9154SOL    HW229185   6.491   6.863   1.301  1.6747  0.9177 -1.4241
 9155SOL     OW29186   1.695   0.082   3.256 -0.2804  0.0131 -0.2683
 9155SOL    HW129187   1.731   0.017   3.195  2.8023  0.7530  0.6014
 9155SOL    HW229188   1.657   0.030   3.327 -0.9383 -0.8194 -1.2038
 9156SOL     OW29189   2.648   4.816   0.698  0.8062 -0.5453 -0.8006
 9156SOL    HW129190   2.720   4.845   0.755 -2.2050 -0.0972  3.1479
 9156SOL    HW229191   2.635   4.724   0.722 -1.6335  0.1183  0.7780
 9157SOL     OW29192   3.842   3.353   5.795  0.6515  0.0269 -0.5007
 9157SOL    HW129193   3.824   3.260   5.786 -3.6838  0.6507 -0.4366
 9157SOL    HW229194   3.859   3.383   5.705 -0.5906 -0.4591 -0.9181
 9158SOL     OW29195   0.252   8.070   3.942  0.1200  0.0845  0.2068
 9158SOL    HW129196   0.271   8.164   3.948  0.0625  0.1017  0.1141
 9158SOL    HW229197   0.183   8.063   3.876  0.1745 -0.0300  0.1614
 9159SOL     OW29198   8.983   5.431   8.675 -0.1172  0.6612  0.7561
 9159SOL    HW129199   9.073   5.400   8.680 -0.8535 -1.5737  1.6792
 9159SOL    HW229200   8.952   5.400   8.590 -0.5995 -0.4739  1.3204
 9160SOL     OW29201   3.067   6.438   3.403  0.2341 -0.1041 -0.0012
 9160SOL    HW129202   3.158   6.417   3.381 -0.1217 -1.8117 -0.0089
 9160SOL    HW229203   3.049   6.519   3.355  2.1936  1.1523  1.2213
 9161SOL     OW29204   7.903   4.935   2.726 -0.4631  0.5244  0.1209
 9161SOL    HW129205   7.846   4.947   2.650  1.3901 -0.1291 -1.4731
 9161SOL    HW229206   7.963   5.010   2.723  0.4510 -0.1903  0.1476
 9162SOL     OW29207   8.457   7.974   2.498  0.1380 -0.2515 -0.0765
 9162SOL    HW129208   8.462   7.925   2.581 -0.7250  1.6005  1.1443
 9162SOL    HW229209   8.395   7.926   2.445 -3.9013  1.4504  2.6215
 9163SOL     OW29210   3.338   4.198   5.465  0.0649 -0.0724  0.2917
 9163SOL    HW129211   3.373   4.164   5.383 -0.4516 -0.3527  0.1840
 9163SOL    HW229212   3.261   4.250   5.440  0.6677  0.9370  0.4841
 9164SOL     OW29213   7.499   1.181   1.114  0.1144  0.2789 -0.5738
 9164SOL    HW129214   7.466   1.146   1.031 -0.7826  1.5453 -0.7938
 9164SOL    HW229215   7.586   1.215   1.093 -0.0280  0.4171 -0.9547
 9165SOL     OW29216   4.249   2.869   7.964  0.7057 -0.2577 -0.0995
 9165SOL    HW129217   4.278   2.921   8.039  0.5857  0.9488 -0.8595
 9165SOL    HW229218   4.278   2.919   7.887 -0.3381 -0.7783 -0.8596
 9166SOL     OW29219   4.373   1.068   7.956 -0.6167 -0.3666  0.2539
 9166SOL    HW129220   4.342   0.978   7.966 -2.9714  0.4077  0.5762
 9166SOL    HW229221   4.394   1.075   7.863 -0.9648 -1.1027  0.1095
 9167SOL     OW29222   2.760   7.737   0.371  0.5347  0.5845  0.0563
 9167SOL    HW129223   2.831   7.791   0.336  1.3301 -0.8197 -0.5566
 9167SOL    HW229224   2.766   7.655   0.322 -0.4528 -0.1831  1.1779
 9168SOL     OW29225   5.925   7.815   1.633  0.2318 -0.3491  0.5687
 9168SOL    HW129226   5.837   7.802   1.599  0.4642  0.4177 -0.3580
 9168SOL    HW229227   5.983   7.776   1.567  0.5941 -1.0384  1.2693
 9169SOL     OW29228   3.023   3.885   6.798 -0.7259 -0.0876  0.1477
 9169SOL    HW129229   2.962   3.876   6.871  0.3521 -0.6182  1.0131
 9169SOL    HW229230   3.098   3.932   6.835 -0.2249 -0.2396 -0.6454
 9170SOL     OW29231   7.170   5.473   7.062 -0.5575 -0.4772  0.2588
 9170SOL    HW129232   7.125   5.482   6.979 -0.2501 -1.4374 -0.0275
 9170SOL    HW229233   7.105   5.496   7.128 -0.2204  2.3327 -0.2865
 9171SOL     OW29234   9.334   0.943   4.620  0.4028 -0.1149 -0.4642
 9171SOL    HW129235   9.422   0.951   4.584  0.0354 -1.1407 -1.6590
 9171SOL    HW229236   9.301   1.033   4.623  2.4357  0.6650  2.6130
 9172SOL     OW29237   6.862   8.766   1.968  0.1299  0.3238 -0.4399
 9172SOL    HW129238   6.876   8.685   2.017  0.7970 -0.5186 -1.9231
 9172SOL    HW229239   6.839   8.831   2.034  1.3156 -0.6543  1.0083
 9173SOL     OW29240   5.177   5.769   5.432 -0.0926  0.2298  0.0464
 9173SOL    HW129241   5.102   5.758   5.491 -0.9274 -0.7679 -1.1500
 9173SOL    HW229242   5.252   5.740   5.485 -0.6793  0.2696  0.9309
 9174SOL     OW29243   2.778   4.346   6.426  0.2390 -0.0888 -0.1773
 9174SOL    HW129244   2.801   4.417   6.367 -0.0920 -0.9469 -1.3819
 9174SOL    HW229245   2.861   4.302   6.444  0.6277  1.2097  1.4601
 9175SOL     OW29246   3.422   2.728   0.649  0.5429  0.0206  0.0131
 9175SOL    HW129247   3.399   2.781   0.572  0.0770  0.8594  0.7146
 9175SOL    HW229248   3.419   2.638   0.617  1.0580  0.3829 -1.1351
 9176SOL     OW29249   4.682   6.829   7.866 -0.0752 -0.5951  0.3300
 9176SOL    HW129250   4.765   6.850   7.908 -0.5562  0.4683  0.7826
 9176SOL    HW229251   4.658   6.744   7.902  1.9919 -2.1443 -1.6589
 9177SOL     OW29252   5.294   8.062   6.165  0.2463 -0.0546 -0.1354
 9177SOL    HW129253   5.356   8.125   6.128  0.1109 -0.5363 -1.2204
 9177SOL    HW229254   5.208   8.092   6.135  0.0712 -0.1394  0.2670
 9178SOL     OW29255   2.026   0.614   5.212 -0.2955 -0.4496  0.2571
 9178SOL    HW129256   1.987   0.535   5.248 -2.0191  0.1100 -0.2943
 9178SOL    HW229257   1.952   0.671   5.193  0.8430  0.9123 -0.2900
 9179SOL     OW29258   1.329   4.355   5.160 -0.4751  0.2749  0.6534
 9179SOL    HW129259   1.406   4.394   5.201  0.4404 -1.1827  0.3545
 9179SOL    HW229260   1.287   4.429   5.115  1.7031  0.8235 -0.6540
 9180SOL     OW29261   3.983   0.280   5.633  0.1022  0.0014  0.0780
 9180SOL    HW129262   4.077   0.262   5.625  0.0161  0.1030 -1.5767
 9180SOL    HW229263   3.961   0.256   5.723  1.9013  0.8730  0.8024
 9181SOL     OW29264   0.375   2.111   5.909 -0.2262  0.2447 -0.1760
 9181SOL    HW129265   0.433   2.186   5.923 -1.2691  1.1125 -0.3860
 9181SOL    HW229266   0.380   2.062   5.991 -0.4954  1.2180  0.4375
 9182SOL     OW29267   9.546   8.805   3.683 -0.0415  0.2468 -0.3911
 9182SOL    HW129268   9.537   8.738   3.615  2.0889 -0.2725 -0.2105
 9182SOL    HW229269   9.461   8.804   3.728 -0.6633 -1.0729 -1.5183
 9183SOL     OW29270   6.352   2.458   1.615 -0.2144 -0.0700  0.1984
 9183SOL    HW129271   6.391   2.455   1.703  0.5239  0.0672 -0.1166
 9183SOL    HW229272   6.414   2.509   1.563 -0.4323 -0.5125 -0.5104
 9184SOL     OW29273   7.265   1.345   0.393 -0.5127  0.4448  0.2371
 9184SOL    HW129274   7.238   1.393   0.472  0.2785  0.1582  0.6936
 9184SOL    HW229275   7.218   1.261   0.399  0.7142 -0.2016  1.2168
 9185SOL     OW29276   2.802   8.481   2.892  0.0031 -0.0681  0.2899
 9185SOL    HW129277   2.804   8.459   2.798  0.2390  0.6271  0.1242
 9185SOL    HW229278   2.893   8.471   2.920 -0.1141 -0.5290  0.5073
 9186SOL     OW29279   0.045   2.947   7.668 -0.7046 -0.3238 -0.0052
 9186SOL    HW129280   0.104   2.947   7.594 -2.0993 -1.5472 -1.1895
 9186SOL    HW229281   0.011   2.857   7.672  0.2575 -0.6728  2.9046
 9187SOL     OW29282   0.716   3.922   4.109  0.3727 -0.0706 -0.6884
 9187SOL    HW129283   0.759   3.838   4.094  0.8338 -0.3185  1.7223
 9187SOL    HW229284   0.787   3.982   4.134 -0.4783 -0.6731  4.1599
 9188SOL     OW29285   3.682   9.451   4.583  0.0720 -0.3136  0.3211
 9188SOL    HW129286   3.762   9.402   4.604 -0.3433 -0.1473  2.4803
 9188SOL    HW229287   3.713   9.525   4.530  1.2932 -0.4520  0.8085
 9189SOL     OW29288   6.976   1.897   5.248  0.0314 -0.1401 -0.1555
 9189SOL    HW129289   6.908   1.940   5.196  0.9045  0.4218 -0.8692
 9189SOL    HW229290   6.929   1.838   5.306 -0.9996 -0.5536 -1.3723
 9190SOL     OW29291   0.544   9.098   6.974  0.1511 -0.3790 -0.0588
 9190SOL    HW129292   0.599   9.171   7.002 -0.1878 -0.3897  0.6524
 9190SOL    HW229293   0.576   9.023   7.025 -1.1717 -0.1696  1.1422
 9191SOL     OW29294   6.026   8.838   8.149  0.1656  0.0871  0.2629
 9191SOL    HW129295   6.068   8.834   8.063 -1.1337 -0.9339 -0.3817
 9191SOL    HW229296   6.074   8.904   8.197  3.2040 -1.7704  0.0041
 9192SOL     OW29297   3.835   6.399   3.171 -0.1970  0.0814 -0.0383
 9192SOL    HW129298   3.740   6.390   3.180 -0.2098 -1.0613 -1.0167
 9192SOL    HW229299   3.860   6.328   3.112  0.9949  1.6959 -1.5590
 9193SOL     OW29300   8.161   0.843   5.034 -0.2252  0.1232 -0.1598
 9193SOL    HW129301   8.236   0.886   4.993 -0.2370 -0.2565 -0.5875
 9193SOL    HW229302   8.098   0.913   5.051 -0.0947  0.3244 -0.5132
 9194SOL     OW29303   2.956   1.717   8.656  0.0777  0.4196 -0.0803
 9194SOL    HW129304   2.961   1.782   8.725  0.6477 -0.1211  0.3963
 9194SOL    HW229305   3.038   1.668   8.662 -0.6026 -0.7590 -0.0045
 9195SOL     OW29306   6.984   2.761   1.854 -0.6322  0.3918  0.1339
 9195SOL    HW129307   6.939   2.724   1.778 -0.2254  0.2682 -0.0470
 9195SOL    HW229308   6.913   2.793   1.910 -0.9774 -0.5297  0.2269
 9196SOL     OW29309   9.259   1.694   6.917  0.3009 -0.5960  0.1621
 9196SOL    HW129310   9.308   1.754   6.973  0.7499 -0.7349 -0.0725
 9196SOL    HW229311   9.323   1.625   6.896 -0.0180 -0.8115 -0.0970
 9197SOL     OW29312   3.545   9.633   1.866  0.5631 -0.0564  0.3899
 9197SOL    HW129313   3.449   9.640   1.863  0.5667 -0.2148 -0.6146
 9197SOL    HW229314   3.562   9.559   1.924  0.1107  0.4625  1.2004
 9198SOL     OW29315   2.745   8.351   7.473 -0.1892 -0.5012 -0.0564
 9198SOL    HW129316   2.820   8.395   7.514  0.0707 -0.6317 -0.3856
 9198SOL    HW229317   2.742   8.388   7.384 -0.3332 -0.7171 -0.1405
 9199SOL     OW29318   6.984   2.086   3.650 -0.2131  0.3156 -0.1769
 9199SOL    HW129319   7.062   2.032   3.661 -1.2805 -1.2466  0.0972
 9199SOL    HW229320   6.942   2.051   3.572 -1.1869  0.4093  0.2944
 9200SOL     OW29321   6.964   2.189   7.974 -0.9115 -0.3306 -0.1021
 9200SOL    HW129322   7.036   2.246   8.000 -0.9835 -1.0732  1.8886
 9200SOL    HW229323   7.006   2.111   7.937 -0.6873 -0.6641  0.8437
 9201SOL     OW29324   4.596   2.409   4.335 -0.2783 -0.5259  0.1541
 9201SOL    HW129325   4.618   2.456   4.255  2.0759 -0.9784  0.4761
 9201SOL    HW229326   4.628   2.464   4.406 -1.7335 -0.4520  0.7974
 9202SOL     OW29327   5.449   5.309   4.565  0.4790 -0.1064 -0.5812
 9202SOL    HW129328   5.524   5.367   4.583 -0.6437  1.6925 -1.3384
 9202SOL    HW229329   5.489   5.226   4.540  2.1861  0.3244  0.5254
 9203SOL     OW29330   4.270   0.924   3.584 -0.8612 -0.6326  0.3483
 9203SOL    HW129331   4.275   1.003   3.530 -0.1338 -2.0874 -1.8262
 9203SOL    HW229332   4.347   0.928   3.640  0.3812 -0.8239 -1.2866
 9204SOL     OW29333   8.856   3.650   1.204  0.3432  0.0143 -0.0761
 9204SOL    HW129334   8.942   3.647   1.161  0.1463 -1.4100 -0.4051
 9204SOL    HW229335   8.822   3.737   1.182  1.8165  0.7308  0.3258
 9205SOL     OW29336   1.874   6.414   1.065 -0.4554 -0.3197  0.1536
 9205SOL    HW129337   1.926   6.374   0.996  1.3278  0.0545  1.2356
 9205SOL    HW229338   1.937   6.459   1.120 -2.0624  1.2462  0.8106
 9206SOL     OW29339   6.968   0.428   8.080  0.3450  0.4407 -0.4649
 9206SOL    HW129340   6.921   0.347   8.059 -0.1539  0.6081 -0.0091
 9206SOL    HW229341   6.913   0.498   8.045  0.5764  0.6081 -0.4989
 9207SOL     OW29342   0.664   4.774   9.293  0.2388  0.0684  0.5439
 9207SOL    HW129343   0.742   4.748   9.244  0.4021  1.6521 -0.0910
 9207SOL    HW229344   0.697   4.831   9.362 -0.1772 -0.8030  1.4892
 9208SOL     OW29345   7.997   3.747   1.584 -0.4348  0.1701 -0.5523
 9208SOL    HW129346   8.085   3.781   1.598 -0.4576 -0.6811  2.2691
 9208SOL    HW229347   7.969   3.717   1.670 -2.7924 -1.2748 -1.7203
 9209SOL     OW29348   9.126   4.549   7.377 -0.3112 -0.5539  0.1636
 9209SOL    HW129349   9.163   4.551   7.289 -0.2061  1.2697  0.2013
 9209SOL    HW229350   9.032   4.534   7.364 -0.1673 -1.2108 -0.1791
 9210SOL     OW29351   3.650   5.668   0.155 -0.3114  0.1566  0.3063
 9210SOL    HW129352   3.740   5.681   0.185 -0.0525 -2.0250  0.6004
 9210SOL    HW229353   3.597   5.713   0.220  0.4706 -0.6633  1.5638
 9211SOL     OW29354   8.069   7.362   4.363  0.4917 -0.0118  0.3371
 9211SOL    HW129355   8.131   7.409   4.308  0.1354  1.5577  1.2083
 9211SOL    HW229356   8.028   7.299   4.305  1.8017 -0.0162 -0.6131
 9212SOL     OW29357   5.576   4.141   4.081  0.2936 -0.0161  0.2078
 9212SOL    HW129358   5.633   4.098   4.144  1.0401 -3.8620 -2.7444
 9212SOL    HW229359   5.488   4.109   4.103  0.3750 -0.3840 -0.0104
 9213SOL     OW29360   8.286   1.348   6.045  0.3310  0.3943  0.1337
 9213SOL    HW129361   8.194   1.320   6.044  0.6857 -0.9858  1.5048
 9213SOL    HW229362   8.323   1.303   6.121  2.1014  1.0882 -0.2847
 9214SOL     OW29363   3.201   7.914   7.998  0.6291  0.5662 -0.1737
 9214SOL    HW129364   3.107   7.930   8.005  0.5864 -0.3233  1.8988
 9214SOL    HW229365   3.210   7.858   7.920 -0.5985  0.3905 -0.2040
 9215SOL     OW29366   7.349   5.830   8.861  0.2106  0.3650 -0.5582
 9215SOL    HW129367   7.338   5.920   8.890  1.0668  0.2951  0.0520
 9215SOL    HW229368   7.345   5.779   8.942  0.6258 -0.0490 -0.7942
 9216SOL     OW29369   8.631   5.041   0.629 -0.6145  0.0373  0.2137
 9216SOL    HW129370   8.708   5.000   0.591  0.9638  2.5419  0.4379
 9216SOL    HW229371   8.653   5.051   0.722 -1.3985  0.3724  0.3721
 9217SOL     OW29372   2.366   4.623   1.597  0.2900 -0.2978  0.2525
 9217SOL    HW129373   2.425   4.695   1.620 -0.1738 -0.0677  0.7435
 9217SOL    HW229374   2.289   4.637   1.652  0.2606 -1.2586  0.4593
 9218SOL     OW29375   1.126   3.932   8.667  0.0532  0.4532 -0.0768
 9218SOL    HW129376   1.062   3.917   8.736  0.2750  0.6512  0.1748
 9218SOL    HW229377   1.106   4.020   8.635 -0.9210 -0.1490 -1.2013
 9219SOL     OW29378   1.671   6.871   5.523 -0.4672  0.0532  0.6078
 9219SOL    HW129379   1.633   6.876   5.611 -0.8936 -1.0612  0.4968
 9219SOL    HW229380   1.730   6.795   5.526 -0.8425 -0.2870 -0.1944
 9220SOL     OW29381   0.866   8.503   1.252  0.4988  0.0704  0.1492
 9220SOL    HW129382   0.834   8.437   1.191  1.4094 -1.4870  1.2749
 9220SOL    HW229383   0.788   8.533   1.299  0.1170 -0.5002 -0.1203
 9221SOL     OW29384   2.384   0.291   5.610  0.1417 -0.2952  0.4628
 9221SOL    HW129385   2.451   0.228   5.634 -0.8368 -1.2289  0.7896
 9221SOL    HW229386   2.330   0.246   5.545 -1.5298 -0.4335  1.8768
 9222SOL     OW29387   6.259   1.099   7.296  0.8810  0.4187  0.3681
 9222SOL    HW129388   6.205   1.093   7.217  0.6874  0.1328  0.5205
 9222SOL    HW229389   6.275   1.193   7.307  0.5462  0.4919  0.2330
 9223SOL     OW29390   6.855   2.990   1.663 -0.3257 -0.1324  0.3355
 9223SOL    HW129391   6.788   2.923   1.654 -1.3947  0.7180  1.6098
 9223SOL    HW229392   6.901   2.968   1.744  2.3151 -1.8109 -1.4507
 9224SOL     OW29393   6.273   0.928   0.372 -0.2919 -0.7173  0.8886
 9224SOL    HW129394   6.243   0.858   0.314  0.2672  0.2746 -0.6644
 9224SOL    HW229395   6.366   0.910   0.388 -0.2567 -0.5746  0.8527
 9225SOL     OW29396   4.063   7.418   4.150  0.1044 -0.2484 -0.2364
 9225SOL    HW129397   3.970   7.439   4.161  0.0746 -1.2372  1.9308
 9225SOL    HW229398   4.067   7.367   4.069 -1.0314  0.7804 -0.9869
 9226SOL     OW29399   1.496   0.590   2.414  0.2936  1.0265  0.1119
 9226SOL    HW129400   1.480   0.597   2.508  2.3200 -0.0170  0.5847
 9226SOL    HW229401   1.584   0.553   2.407 -0.6016 -0.9884 -2.1747
 9227SOL     OW29402   0.217   8.012   0.958  0.0494 -0.0818 -0.5641
 9227SOL    HW129403   0.181   8.075   1.020  1.5796  0.3425 -0.0712
 9227SOL    HW229404   0.141   7.981   0.909 -0.6944  2.8002 -1.4412
 9228SOL     OW29405   9.444   0.006   4.494 -0.5420 -0.4808  0.2755
 9228SOL    HW129406   9.530   0.045   4.510 -0.6585  0.2738 -0.7999
 9228SOL    HW229407   9.463  -0.083   4.465 -0.1756 -0.6139  0.9073
 9229SOL     OW29408   6.312   0.571   2.261 -0.2460  0.0455 -0.6621
 9229SOL    HW129409   6.408   0.577   2.261 -0.0988 -1.5095  0.6440
 9229SOL    HW229410   6.285   0.609   2.345 -0.6042 -1.0382 -0.2648
 9230SOL     OW29411   9.326   2.009   8.836  0.0686 -0.8637  0.3705
 9230SOL    HW129412   9.242   2.041   8.871 -0.0656 -0.6727 -0.1124
 9230SOL    HW229413   9.373   2.089   8.811  0.7562 -0.9210  1.4339
 9231SOL     OW29414   5.995   0.880   2.916 -0.2802 -0.1088  0.3821
 9231SOL    HW129415   5.909   0.844   2.895  0.7121 -1.7063 -1.2264
 9231SOL    HW229416   6.002   0.958   2.861 -0.9453  0.4317  1.0433
 9232SOL     OW29417   8.206   2.985   8.250 -0.1294 -0.5652  0.3668
 9232SOL    HW129418   8.269   2.947   8.190 -0.0676  0.4025 -0.2047
 9232SOL    HW229419   8.193   3.074   8.218 -0.1466 -0.0374  1.7363
 9233SOL     OW29420   9.358   7.624   7.142 -0.3110  0.8439 -0.3630
 9233SOL    HW129421   9.406   7.553   7.185 -2.6732  0.3957  1.8086
 9233SOL    HW229422   9.276   7.583   7.114  0.1906  1.6884 -3.4139
 9234SOL     OW29423   2.874   9.264   1.578 -0.4117  0.4960 -0.0535
 9234SOL    HW129424   2.948   9.279   1.519  1.1511 -0.1681  1.6560
 9234SOL    HW229425   2.843   9.352   1.600  0.3470  0.8177 -0.2320
 9235SOL     OW29426   1.710   1.871   6.988  0.2396 -0.1807 -0.0356
 9235SOL    HW129427   1.760   1.902   6.913 -0.9041 -0.9432 -1.1679
 9235SOL    HW229428   1.728   1.934   7.058  0.9418  0.8243 -1.0968
 9236SOL     OW29429   3.832   7.114   0.170 -0.5293  0.0494  0.0690
 9236SOL    HW129430   3.888   7.087   0.098 -0.1635  0.4669  0.1918
 9236SOL    HW229431   3.813   7.206   0.153 -1.1198 -0.0714  0.0686
 9237SOL     OW29432   1.674   4.634   7.963  0.0103  0.4058 -0.1931
 9237SOL    HW129433   1.768   4.646   7.953 -0.0481  0.8606 -0.2120
 9237SOL    HW229434   1.654   4.557   7.910  0.8027 -1.4314  1.9924
 9238SOL     OW29435   1.485   0.354   7.698  0.1073  0.2794 -0.0127
 9238SOL    HW129436   1.482   0.416   7.625  0.7576  3.2894  2.2671
 9238SOL    HW229437   1.408   0.375   7.751  1.5461  0.8709  1.9969
 9239SOL     OW29438   0.229   7.272   1.006 -0.2348 -0.2899 -0.1242
 9239SOL    HW129439   0.165   7.204   1.028 -0.5572 -0.3237 -1.1153
 9239SOL    HW229440   0.194   7.313   0.927  0.8943 -0.2019 -0.5909
 9240SOL     OW29441   3.773   1.484   7.251 -0.1716  0.1459 -0.2271
 9240SOL    HW129442   3.790   1.550   7.318  0.6563 -0.0004 -0.2801
 9240SOL    HW229443   3.855   1.435   7.245 -1.0439 -1.4311  0.4000
 9241SOL     OW29444   2.992   0.941   4.440 -0.0086 -0.8829  0.0412
 9241SOL    HW129445   2.935   0.928   4.517  1.6313 -0.0852  1.4606
 9241SOL    HW229446   3.033   1.026   4.455  0.0470 -0.5133 -1.9797
 9242SOL     OW29447   5.617   0.692   6.673  0.3292  0.8047 -0.1090
 9242SOL    HW129448   5.626   0.622   6.608  1.0623  1.7207 -1.0212
 9242SOL    HW229449   5.528   0.725   6.660  0.1225  0.3293  0.0490
 9243SOL     OW29450   9.081   7.938   3.627 -0.2657 -0.3070  0.2656
 9243SOL    HW129451   9.111   7.871   3.689 -0.2968  1.4856  2.3513
 9243SOL    HW229452   9.155   7.998   3.619 -0.3231 -0.4083 -1.3873
 9244SOL     OW29453   0.901   2.625   0.177 -0.0671 -0.2750  0.1065
 9244SOL    HW129454   0.850   2.706   0.173  0.4442  0.0206 -1.0153
 9244SOL    HW229455   0.969   2.637   0.111  0.1376 -1.5418  0.0641
 9245SOL     OW29456   3.796   8.589   0.630  0.5138 -0.2873  0.0619
 9245SOL    HW129457   3.751   8.574   0.546 -1.4123 -0.3771  1.0653
 9245SOL    HW229458   3.861   8.656   0.610 -1.1787  1.0881 -1.1155
 9246SOL     OW29459   3.536   9.442   9.692 -0.2115 -0.1419 -0.0797
 9246SOL    HW129460   3.461   9.453   9.751 -0.6263 -0.7868 -0.4702
 9246SOL    HW229461   3.567   9.531   9.676 -0.7509  0.1169  0.2742
 9247SOL     OW29462   6.578   4.871   4.994  0.3671  0.5966 -0.2249
 9247SOL    HW129463   6.589   4.911   5.080 -1.2520 -0.9441  0.7548
 9247SOL    HW229464   6.486   4.883   4.973  0.6883  0.7373 -1.6560
 9248SOL     OW29465   0.818   2.146   2.866  0.1239  0.0807 -0.3323
 9248SOL    HW129466   0.806   2.065   2.816  1.5351  0.5485 -1.4851
 9248SOL    HW229467   0.761   2.135   2.942 -0.9859 -1.2832 -1.2892
 9249SOL     OW29468   6.242   0.677   0.249  0.1424  0.0755  0.0492
 9249SOL    HW129469   6.160   0.644   0.213  0.3751  0.5483 -0.9527
 9249SOL    HW229470   6.284   0.600   0.287 -0.4262 -0.3150 -0.1001
 9250SOL     OW29471   0.442   0.532   0.440  0.2466  0.1846 -0.2536
 9250SOL    HW129472   0.437   0.512   0.347  0.5467 -0.2743 -0.1771
 9250SOL    HW229473   0.517   0.591   0.448 -0.9258  1.7658 -0.5416
 9251SOL     OW29474   2.125   1.097   5.676  0.2848 -0.0698  0.3145
 9251SOL    HW129475   2.190   1.109   5.606 -1.0011 -1.1493 -1.1480
 9251SOL    HW229476   2.049   1.060   5.631  0.0938 -2.7705  2.5580
 9252SOL     OW29477   2.258   8.699   4.289  0.3080  0.2970 -0.1965
 9252SOL    HW129478   2.347   8.732   4.301  0.9842 -1.8951  1.3530
 9252SOL    HW229479   2.220   8.700   4.377 -0.4310 -0.8347 -0.4753
 9253SOL     OW29480   0.683   2.219   1.927 -0.2930 -0.0380 -0.2794
 9253SOL    HW129481   0.777   2.229   1.909  0.2278 -1.3987  1.4611
 9253SOL    HW229482   0.651   2.166   1.854  0.6982 -1.0988  0.0180
 9254SOL     OW29483   9.233   4.575   3.083 -0.3108  0.4651 -0.2159
 9254SOL    HW129484   9.252   4.521   3.007 -0.0312  1.1351 -0.6327
 9254SOL    HW229485   9.166   4.637   3.054 -0.9969  0.0275  0.4000
 9255SOL     OW29486   5.509   8.527   4.303 -0.7717 -0.2763 -0.0728
 9255SOL    HW129487   5.556   8.481   4.234  0.3484  0.0494  0.4485
 9255SOL    HW229488   5.540   8.486   4.384  0.1367  1.2357  0.3947
 9256SOL     OW29489   2.816   0.707   8.896  0.4581 -0.1110  0.5284
 9256SOL    HW129490   2.802   0.743   8.984  4.2734 -1.6674  1.9945
 9256SOL    HW229491   2.896   0.750   8.866  0.5575 -1.4180 -1.1574
 9257SOL     OW29492   2.494   5.308   4.112 -0.2517  0.4379  0.4219
 9257SOL    HW129493   2.491   5.213   4.110 -0.1411  0.4175  1.0015
 9257SOL    HW229494   2.413   5.333   4.157  0.0101  0.5900  0.8116
 9258SOL     OW29495   4.132   5.721   8.532 -0.0616 -0.3433 -0.3923
 9258SOL    HW129496   4.097   5.648   8.583 -1.4122 -0.4372 -1.3841
 9258SOL    HW229497   4.116   5.696   8.441  2.7320 -0.4275 -0.9653
 9259SOL     OW29498   8.199   8.385   2.275  0.3504  0.6189 -0.3661
 9259SOL    HW129499   8.112   8.344   2.276  0.9216 -0.6256 -0.1301
 9259SOL    HW229500   8.231   8.377   2.364  0.5455  1.4668 -0.3498
 9260SOL     OW29501   3.559   8.242   0.051 -0.2619 -0.5434 -0.1736
 9260SOL    HW129502   3.572   8.176   0.119  3.0258 -0.1611 -0.2812
 9260SOL    HW229503   3.521   8.194  -0.022  0.0799 -1.8838  0.4933
 9261SOL     OW29504   4.152   1.791   5.450  0.3746 -0.0241  0.1407
 9261SOL    HW129505   4.100   1.852   5.398 -0.4282 -0.3884  0.4953
 9261SOL    HW229506   4.225   1.767   5.393  1.5257  2.3713  0.5233
 9262SOL     OW29507   8.162   4.064   3.383 -0.4966  0.1809 -0.2987
 9262SOL    HW129508   8.201   4.138   3.336  0.0531  0.2125  0.2029
 9262SOL    HW229509   8.176   4.084   3.475 -2.7785  0.8076 -0.0326
 9263SOL     OW29510   0.223   6.050   3.112  0.3283 -0.1333  0.0122
 9263SOL    HW129511   0.170   5.978   3.147 -0.2908  0.7947  1.0399
 9263SOL    HW229512   0.280   6.075   3.184 -1.0209  1.8652  0.4557
 9264SOL     OW29513   8.289   3.125   0.803  0.2222  1.0934 -0.7124
 9264SOL    HW129514   8.346   3.120   0.879 -0.9379  1.9140  0.2375
 9264SOL    HW229515   8.304   3.042   0.756  2.2336  1.3314 -0.5597
 9265SOL     OW29516   4.511   1.261   1.863 -0.1606 -0.1825  0.6098
 9265SOL    HW129517   4.605   1.252   1.849 -0.4803  0.1825 -2.6204
 9265SOL    HW229518   4.482   1.173   1.888  0.9112 -0.4871  0.8380
 9266SOL     OW29519   7.903   1.189   6.481  0.4836 -0.1479 -0.2859
 9266SOL    HW129520   7.830   1.234   6.523 -0.1944 -0.0034 -1.5728
 9266SOL    HW229521   7.981   1.233   6.515  0.3168 -2.3876  3.6822
 9267SOL     OW29522   9.622   5.566   8.118 -0.2836  0.1201  0.1072
 9267SOL    HW129523   9.655   5.621   8.047  0.7151  3.0890  2.6245
 9267SOL    HW229524   9.529   5.554   8.099  0.3676 -1.1537 -2.7593
 9268SOL     OW29525   8.663   0.448   3.720 -0.0596  0.0327  0.1105
 9268SOL    HW129526   8.664   0.501   3.640 -0.8028  0.3772  0.3189
 9268SOL    HW229527   8.754   0.446   3.749  0.0285  0.9425 -0.0775
 9269SOL     OW29528   2.811   4.140   0.749 -0.4538 -0.1376  0.3154
 9269SOL    HW129529   2.872   4.162   0.819 -0.1190 -1.5175  0.4865
 9269SOL    HW229530   2.759   4.219   0.736 -0.8818 -0.0036  2.4866
 9270SOL     OW29531   3.612   9.023   1.795  0.5364 -0.1500  0.1882
 9270SOL    HW129532   3.637   8.935   1.769 -0.3078 -0.4340  0.2910
 9270SOL    HW229533   3.694   9.068   1.814  1.0652 -0.4452 -1.3342
 9271SOL     OW29534   5.868   1.800   3.153  0.2302 -0.1895  0.1713
 9271SOL    HW129535   5.903   1.774   3.238  1.3527 -2.4748 -0.8944
 9271SOL    HW229536   5.833   1.888   3.167  0.6617 -0.3626  2.8891
 9272SOL     OW29537   5.951   1.449   4.137  0.1310  0.4842  0.4819
 9272SOL    HW129538   5.973   1.540   4.116  1.4441 -0.1322 -1.1117
 9272SOL    HW229539   6.016   1.423   4.202  3.4859 -0.8105 -2.9677
 9273SOL     OW29540   3.468   5.402   7.249  0.0536 -0.5136  0.2582
 9273SOL    HW129541   3.448   5.493   7.271  1.3236 -0.1677  0.0576
 9273SOL    HW229542   3.402   5.378   7.185 -0.7888  0.0001  0.9110
 9274SOL     OW29543   5.648   2.752   2.096  0.1771  0.2478  0.3761
 9274SOL    HW129544   5.672   2.845   2.096  0.1738  0.2499  1.3227
 9274SOL    HW229545   5.711   2.712   2.035  0.6213  0.7526  0.4930
 9275SOL     OW29546   2.028   8.430   9.290 -0.3033  0.0426 -0.2121
 9275SOL    HW129547   2.032   8.465   9.379 -2.2609  0.1226 -0.0994
 9275SOL    HW229548   2.077   8.348   9.294  0.7657  0.6939  0.5802
 9276SOL     OW29549   1.959   0.758   3.143  0.5610  0.1290 -0.1083
 9276SOL    HW129550   2.046   0.795   3.128  0.6728 -0.7465 -1.8083
 9276SOL    HW229551   1.912   0.774   3.062  0.2898 -2.5026 -0.5537
 9277SOL     OW29552   0.405   2.908   3.228 -0.0205  0.2279  0.1578
 9277SOL    HW129553   0.327   2.962   3.217 -0.7974 -0.6889  1.0383
 9277SOL    HW229554   0.403   2.847   3.154 -1.1595 -0.9876  1.1393
 9278SOL     OW29555   6.361   5.616   3.094 -0.4640  0.0167  0.2590
 9278SOL    HW129556   6.318   5.680   3.151 -1.2220  0.3211 -0.6152
 9278SOL    HW229557   6.298   5.545   3.085  0.1590 -0.6075  0.7915
 9279SOL     OW29558   5.151   1.612   7.575  0.7046  0.1472  0.5451
 9279SOL    HW129559   5.097   1.683   7.609  0.8795 -0.2185  1.6561
 9279SOL    HW229560   5.169   1.635   7.484 -1.6003  0.0988  0.0215
 9280SOL     OW29561   4.542   1.178   2.432  0.3722 -0.4839  0.4698
 9280SOL    HW129562   4.578   1.090   2.417 -0.3668 -0.3850 -2.7461
 9280SOL    HW229563   4.616   1.237   2.422  0.8309 -0.6566  2.4355
 9281SOL     OW29564   9.189   4.702   0.787  0.3093 -0.3583  0.2239
 9281SOL    HW129565   9.186   4.671   0.697 -0.2628  1.4005 -0.4113
 9281SOL    HW229566   9.210   4.795   0.780 -1.3546  0.2018  1.8053
 9282SOL     OW29567   1.342   7.509   5.214  0.0935  0.0306 -1.1504
 9282SOL    HW129568   1.354   7.589   5.265 -0.6488 -1.6956  1.9493
 9282SOL    HW229569   1.255   7.519   5.174  0.0933  0.8370 -0.9704
 9283SOL     OW29570   0.233   4.134   2.675  0.5374 -0.0241  0.7312
 9283SOL    HW129571   0.296   4.205   2.663  0.3870  0.3067  1.8477
 9283SOL    HW229572   0.161   4.172   2.725 -0.1390 -0.6386  0.2568
 9284SOL     OW29573   2.312   9.050   4.197  0.3841 -0.0926 -0.0324
 9284SOL    HW129574   2.299   9.142   4.173  0.3868 -0.0840 -0.0009
 9284SOL    HW229575   2.249   9.034   4.266  0.5456 -0.0487  0.1266
 9285SOL     OW29576   3.178   8.259   1.472 -0.3951 -0.4068 -0.5810
 9285SOL    HW129577   3.253   8.261   1.531 -2.2099 -2.9732  2.0612
 9285SOL    HW229578   3.169   8.349   1.441  2.1650  0.5062  1.0286
 9286SOL     OW29579   8.093   6.377   2.157 -0.1052 -0.7296 -0.7914
 9286SOL    HW129580   8.110   6.301   2.213  1.1675 -0.1991 -0.4035
 9286SOL    HW229581   8.054   6.441   2.216 -0.1106 -0.6878 -0.8410
 9287SOL     OW29582   5.374   0.656   4.605 -0.7314  0.2771 -0.0330
 9287SOL    HW129583   5.316   0.665   4.529 -0.1048  0.5058 -0.4908
 9287SOL    HW229584   5.389   0.562   4.613 -0.3102  0.2984 -0.5663
 9288SOL     OW29585   5.984   3.757   3.207  0.1197  0.3456  0.2271
 9288SOL    HW129586   5.959   3.836   3.159 -1.4735 -0.7143 -0.7887
 9288SOL    HW229587   5.908   3.738   3.262  0.2224 -0.8524 -0.0394
 9289SOL     OW29588   8.343   1.036   4.961  0.5565 -0.4256 -1.0662
 9289SOL    HW129589   8.298   1.113   4.926  1.8677  0.3855 -1.0343
 9289SOL    HW229590   8.388   1.067   5.039 -0.4899 -1.7069  0.1184
 9290SOL     OW29591   5.122   7.866   8.029  0.5080 -0.2728 -0.2106
 9290SOL    HW129592   5.184   7.914   7.975  0.4347  1.2111  0.9451
 9290SOL    HW229593   5.043   7.859   7.975  0.1714  1.8583 -0.0660
 9291SOL     OW29594   9.614   6.002   1.355  0.2472 -0.3749 -0.1198
 9291SOL    HW129595   9.676   6.004   1.428 -1.7581 -0.8434  1.7008
 9291SOL    HW229596   9.559   5.926   1.374 -1.4512  0.5596 -1.1514
 9292SOL     OW29597   0.844   5.946   2.830  0.2922 -0.0311 -0.4094
 9292SOL    HW129598   0.880   5.863   2.800 -0.7291 -0.8755  0.6303
 9292SOL    HW229599   0.905   5.976   2.898 -0.1452 -0.7095  0.2943
 9293SOL     OW29600   7.788   6.450   0.696 -0.1202 -0.0658 -0.3186
 9293SOL    HW129601   7.840   6.470   0.618  0.3908  0.6580  0.1921
 9293SOL    HW229602   7.727   6.524   0.704 -1.0682 -0.7813 -0.7638
 9294SOL     OW29603   4.371   8.469   2.944 -0.3454 -0.0743 -0.1755
 9294SOL    HW129604   4.329   8.511   3.020  1.0659 -0.7037  0.9963
 9294SOL    HW229605   4.301   8.464   2.878 -1.7736 -0.0095  1.2644
 9295SOL     OW29606   8.533   5.312   4.579  0.2062  0.0330  0.6830
 9295SOL    HW129607   8.519   5.258   4.502 -1.0254 -1.9445  2.1790
 9295SOL    HW229608   8.627   5.308   4.595  0.2129 -1.2695  0.4341
 9296SOL     OW29609   5.032   0.885   4.656 -0.1050  0.0409 -0.5485
 9296SOL    HW129610   5.105   0.890   4.594  0.5282  0.5932  0.2215
 9296SOL    HW229611   4.955   0.870   4.601  0.5755 -0.5196 -1.3803
 9297SOL     OW29612   6.628   3.785   6.299 -0.0409 -0.6462 -0.0875
 9297SOL    HW129613   6.658   3.828   6.379 -0.1112  1.0044 -0.8953
 9297SOL    HW229614   6.591   3.702   6.328 -2.4934  1.0198  1.9148
 9298SOL     OW29615   8.800   4.968   0.871 -0.0772  0.7885 -0.0850
 9298SOL    HW129616   8.777   4.939   0.960  0.3628  0.5498 -0.0466
 9298SOL    HW229617   8.874   5.027   0.884  1.4917 -0.9990 -0.4588
 9299SOL     OW29618   3.030   3.237   3.874  0.2777 -0.1950  0.4368
 9299SOL    HW129619   3.090   3.203   3.808 -0.2696  0.0714 -0.2208
 9299SOL    HW229620   2.972   3.296   3.825 -1.4629 -1.5496  0.7353
 9300SOL     OW29621   9.311   4.252   3.690  0.1073 -0.3233  0.5955
 9300SOL    HW129622   9.399   4.234   3.723  0.5278  2.3150  1.1949
 9300SOL    HW229623   9.286   4.334   3.732 -0.3959  1.9310 -3.5208
 9301SOL     OW29624   0.899   4.823   1.797  0.3140  0.7583 -0.0795
 9301SOL    HW129625   0.836   4.887   1.764  1.2028  1.1091 -1.1564
 9301SOL    HW229626   0.956   4.873   1.855  0.2340  0.6654  0.0792
 9302SOL     OW29627   1.899   3.492   8.290  0.2482  0.1143  0.1685
 9302SOL    HW129628   1.889   3.576   8.335 -0.7562  0.8326 -1.2925
 9302SOL    HW229629   1.963   3.444   8.342 -2.0066  0.1971  3.2754
 9303SOL     OW29630   3.074   4.569   4.046 -0.1715  0.1702  0.4635
 9303SOL    HW129631   3.127   4.639   4.084  1.0013 -1.0793  1.1758
 9303SOL    HW229632   3.064   4.505   4.117 -0.3029 -0.8962 -0.4949
 9304SOL     OW29633   8.847   2.525   5.005 -0.0170  0.2770  0.1317
 9304SOL    HW129634   8.860   2.490   4.917 -1.6325 -1.5631  0.5539
 9304SOL    HW229635   8.818   2.616   4.991 -2.1804 -0.5617 -1.3885
 9305SOL     OW29636   3.883   7.800   4.388 -0.9051  0.2870  0.2706
 9305SOL    HW129637   3.863   7.846   4.469  1.5927  0.7571  0.7073
 9305SOL    HW229638   3.852   7.710   4.402  0.8293 -0.0517  2.4019
 9306SOL     OW29639   6.657   7.119   1.221 -0.0601 -0.6612  0.4547
 9306SOL    HW129640   6.582   7.060   1.212 -0.0031 -0.6713  0.0016
 9306SOL    HW229641   6.733   7.062   1.212  0.0157 -0.2816 -2.0243
 9307SOL     OW29642   0.943   9.026   5.256 -0.7084 -0.2090  0.8815
 9307SOL    HW129643   0.893   8.967   5.200  0.0627 -1.1039  1.1147
 9307SOL    HW229644   0.945   9.109   5.208 -1.2534 -0.5575  0.2457
 9308SOL     OW29645   7.106   2.434   9.366 -0.5896 -0.4428 -0.0038
 9308SOL    HW129646   7.194   2.404   9.339 -0.6336 -1.5158  0.9759
 9308SOL    HW229647   7.059   2.353   9.385 -0.8645  0.2107  2.3317
 9309SOL     OW29648   7.230   3.380   3.135  0.1772  0.3585 -0.8206
 9309SOL    HW129649   7.224   3.454   3.195  2.4725 -0.6792  0.8017
 9309SOL    HW229650   7.274   3.416   3.057  0.3846  0.9091 -0.4554
 9310SOL     OW29651   8.247   4.025   2.429 -0.2418  0.4651 -0.5307
 9310SOL    HW129652   8.176   4.086   2.408  0.2823  1.3304  0.1544
 9310SOL    HW229653   8.321   4.054   2.376 -0.6196 -0.9869 -1.9338
 9311SOL     OW29654   4.165   0.111   9.668  0.4293  0.2554  0.0243
 9311SOL    HW129655   4.108   0.135   9.595  0.3916  0.8118  0.2296
 9311SOL    HW229656   4.254   0.126   9.636  0.4236  0.2468  0.0038
 9312SOL     OW29657   1.937   1.332   5.449 -0.0700 -0.4434 -0.1127
 9312SOL    HW129658   1.987   1.395   5.396  0.1396 -1.3138 -0.9825
 9312SOL    HW229659   1.978   1.247   5.430 -1.2556 -1.0410 -0.0911
 9313SOL     OW29660   9.367   5.220   7.806  0.2564 -0.1018  0.2677
 9313SOL    HW129661   9.393   5.232   7.714  1.9219 -0.2415  0.6858
 9313SOL    HW229662   9.308   5.145   7.804 -0.1304  0.1989 -0.7417
 9314SOL     OW29663   7.182   7.638   7.457  0.0548  0.4945 -0.2232
 9314SOL    HW129664   7.162   7.623   7.549  2.2326 -0.3500  0.1807
 9314SOL    HW229665   7.140   7.566   7.410 -0.6655  0.6640  0.1526
 9315SOL     OW29666   8.292   2.981   4.815 -0.2741  0.2045  0.2368
 9315SOL    HW129667   8.270   3.038   4.741 -0.8583 -0.0413  0.2150
 9315SOL    HW229668   8.387   2.972   4.811 -0.3063  0.1430 -0.5199
 9316SOL     OW29669   5.182   0.253   1.822 -0.8308 -0.1514 -0.1755
 9316SOL    HW129670   5.259   0.305   1.843 -2.1256  0.7376  3.0504
 9316SOL    HW229671   5.116   0.281   1.885 -3.1818 -2.2966 -1.4609
 9317SOL     OW29672   3.622   1.354   2.853 -0.0071 -0.2168 -0.8348
 9317SOL    HW129673   3.663   1.302   2.922 -0.9089  1.6767  1.2531
 9317SOL    HW229674   3.687   1.356   2.782  2.2511  0.1420  1.1048
 9318SOL     OW29675   0.200   9.043   4.993 -0.2105  0.1127 -0.0983
 9318SOL    HW129676   0.260   8.976   5.026  0.2463  0.4445 -0.2466
 9318SOL    HW229677   0.241   9.073   4.912 -1.2250 -0.5698 -0.8927
 9319SOL     OW29678   4.088   1.438   0.767  0.0089  0.2267  0.8195
 9319SOL    HW129679   4.139   1.358   0.755  2.1614  1.0104  3.6470
 9319SOL    HW229680   4.010   1.410   0.816  0.1588 -0.3272  0.7414
 9320SOL     OW29681   4.034   6.457   0.677 -0.2434  0.2344  0.1695
 9320SOL    HW129682   4.028   6.551   0.665 -1.6080  0.2430  0.8136
 9320SOL    HW229683   3.950   6.422   0.647  1.1780 -1.1162 -2.6874
 9321SOL     OW29684   9.316   6.181   1.873  0.1347  0.1968  0.0857
 9321SOL    HW129685   9.221   6.166   1.874 -0.4931  2.8864  3.6624
 9321SOL    HW229686   9.327   6.259   1.819 -0.0806  1.2104  1.4523
 9322SOL     OW29687   2.922   0.139   5.911 -0.0823  0.6241 -0.0469
 9322SOL    HW129688   2.904   0.174   5.824 -0.6426  1.2632  0.3189
 9322SOL    HW229689   2.983   0.201   5.950 -0.4131  0.7468  0.2864
 9323SOL     OW29690   6.382   0.690   3.670  0.1869 -0.9656  0.3384
 9323SOL    HW129691   6.442   0.747   3.622  1.5110 -1.6535  1.1160
 9323SOL    HW229692   6.303   0.743   3.682  1.3110  0.6827  0.9163
 9324SOL     OW29693   3.279   5.063   7.683 -0.2650  0.1211 -0.1974
 9324SOL    HW129694   3.255   5.115   7.760  0.0779 -0.2642  0.1813
 9324SOL    HW229695   3.354   5.011   7.713  0.2510  0.4078 -0.9812
 9325SOL     OW29696   7.419   7.191   4.267 -0.1201 -0.2914 -0.1575
 9325SOL    HW129697   7.417   7.270   4.320  1.9354 -1.6674  2.1742
 9325SOL    HW229698   7.345   7.139   4.298 -0.3509 -0.0956 -0.3720
 9326SOL     OW29699   8.500   4.988   9.530 -0.0213 -0.0662 -0.4772
 9326SOL    HW129700   8.412   4.965   9.502 -0.6903  0.6774  0.9623
 9326SOL    HW229701   8.556   4.924   9.485 -1.3601 -1.2038 -0.5993
 9327SOL     OW29702   5.715   7.457   0.940 -0.0721 -0.7479 -0.4847
 9327SOL    HW129703   5.706   7.364   0.920  0.6152 -1.1819  1.1235
 9327SOL    HW229704   5.745   7.460   1.031  0.0796  1.0407 -0.5567
 9328SOL     OW29705   5.541   8.189   7.623  0.4938 -0.2499  0.0525
 9328SOL    HW129706   5.512   8.223   7.708  1.1166  0.2230  0.0840
 9328SOL    HW229707   5.460   8.170   7.576  0.1426 -0.2911  0.6608
 9329SOL     OW29708   1.861   5.219   4.039  0.3010 -0.1481  0.7756
 9329SOL    HW129709   1.877   5.301   3.991 -2.8472  0.0465 -0.1714
 9329SOL    HW229710   1.870   5.244   4.131  2.2357  0.5197  0.4490
 9330SOL     OW29711   3.519   2.490   5.922  0.1794  0.2604 -0.0040
 9330SOL    HW129712   3.426   2.504   5.902  0.1792  1.7827  0.8918
 9330SOL    HW229713   3.563   2.489   5.838 -0.5198  0.5654 -0.3754
 9331SOL     OW29714   2.748   4.035   8.756 -0.4084  0.9857 -0.6164
 9331SOL    HW129715   2.719   4.122   8.728  0.9708  0.8966 -2.4713
 9331SOL    HW229716   2.836   4.048   8.789 -1.3519  0.7734  2.2502
 9332SOL     OW29717   7.227   5.227   2.652  0.4577 -0.7125  0.2832
 9332SOL    HW129718   7.222   5.174   2.573 -1.5402  0.6221 -0.5758
 9332SOL    HW229719   7.269   5.309   2.624 -3.0498  1.0865 -0.3582
 9333SOL     OW29720   7.196   3.888   0.278  0.7059  0.3001 -0.1769
 9333SOL    HW129721   7.248   3.809   0.267  0.3056 -0.0466  0.3369
 9333SOL    HW229722   7.181   3.893   0.373 -0.0199  0.5008 -0.2964
 9334SOL     OW29723   8.763   9.392   5.488 -0.0598  0.1051  0.1503
 9334SOL    HW129724   8.775   9.394   5.393  2.2011 -0.1351  0.3581
 9334SOL    HW229725   8.782   9.482   5.516 -0.1586  0.0392  0.4246
 9335SOL     OW29726   2.518   3.039   8.332 -0.0521 -0.0340  0.3176
 9335SOL    HW129727   2.493   2.968   8.391 -0.7685 -0.2770 -0.2580
 9335SOL    HW229728   2.596   3.007   8.287  0.6883  0.2795  1.3426
 9336SOL     OW29729   8.948   3.124   2.032 -0.5950 -0.2049  0.1874
 9336SOL    HW129730   8.918   3.210   2.004  0.2865  0.1261  0.1980
 9336SOL    HW229731   8.986   3.139   2.119  0.8956 -0.2960 -0.4205
 9337SOL     OW29732   7.281   4.105   6.663 -0.5128  0.8071 -0.2152
 9337SOL    HW129733   7.196   4.118   6.704 -0.0599  1.3833  0.5771
 9337SOL    HW229734   7.342   4.155   6.718  0.4170 -0.0152 -0.4606
 9338SOL     OW29735   3.185   7.394   9.630 -0.6999  0.0192 -0.1909
 9338SOL    HW129736   3.277   7.416   9.641 -0.7128 -0.2118  0.4189
 9338SOL    HW229737   3.159   7.439   9.550  0.4404 -1.5111 -1.4897
 9339SOL     OW29738   7.515   6.708   2.909 -0.2279  0.6568 -0.0676
 9339SOL    HW129739   7.430   6.713   2.866 -0.2631  0.6258 -0.0022
 9339SOL    HW229740   7.528   6.795   2.947  0.2505  0.9982 -0.9849
 9340SOL     OW29741   5.109   1.389   7.404 -0.0254 -0.0663 -0.1743
 9340SOL    HW129742   5.114   1.454   7.474  0.0281  0.0835 -0.3164
 9340SOL    HW229743   5.063   1.315   7.443  0.8927 -0.3900  0.3307
 9341SOL     OW29744   0.698   2.425   3.139 -0.3769 -0.2488 -0.1505
 9341SOL    HW129745   0.675   2.333   3.137 -0.5861 -0.2358  0.9592
 9341SOL    HW229746   0.619   2.469   3.172 -0.1434  0.2757 -0.2713
 9342SOL     OW29747   6.456   7.804   2.400 -0.2370  0.1995  0.1141
 9342SOL    HW129748   6.476   7.898   2.400 -0.5096  0.3218  2.1419
 9342SOL    HW229749   6.385   7.794   2.336  0.3772  1.2224 -0.7463
 9343SOL     OW29750   6.414   0.372   4.518 -0.2313  0.0395  0.0188
 9343SOL    HW129751   6.479   0.317   4.562  1.3946  1.5724 -0.3736
 9343SOL    HW229752   6.345   0.310   4.492  1.8436 -2.0102 -1.0781
 9344SOL     OW29753   3.284   3.245   3.512 -0.0112  0.3985 -0.4209
 9344SOL    HW129754   3.254   3.321   3.462  0.2510  0.2666 -0.7871
 9344SOL    HW229755   3.278   3.273   3.604 -2.1181  0.0560 -0.4028
 9345SOL     OW29756   4.898   8.678   9.408 -0.2082  0.4499 -0.4752
 9345SOL    HW129757   4.823   8.619   9.417 -1.0474  1.7875  3.1902
 9345SOL    HW229758   4.972   8.627   9.442 -0.5769  0.8267  0.9644
 9346SOL     OW29759   7.609   6.166   4.516  0.4576 -0.5317  0.2915
 9346SOL    HW129760   7.566   6.113   4.583  0.3320 -1.4412 -0.4774
 9346SOL    HW229761   7.699   6.174   4.547  0.6501 -1.7656  0.1320
 9347SOL     OW29762   4.099   5.057   4.564  0.3270  0.2567  0.6308
 9347SOL    HW129763   4.059   5.088   4.645  0.6046 -0.4416  1.0452
 9347SOL    HW229764   4.039   4.989   4.532 -1.0141  2.1004 -1.0071
 9348SOL     OW29765   7.567   0.874   5.404  0.2119  0.1785  0.7119
 9348SOL    HW129766   7.498   0.939   5.389  0.1352  0.4120  1.9821
 9348SOL    HW229767   7.600   0.854   5.316 -0.6865  0.9194  0.1854
 9349SOL     OW29768   4.852   2.061   2.790  0.0147 -0.0270  0.2850
 9349SOL    HW129769   4.914   2.082   2.860  0.4933  0.7847 -0.3573
 9349SOL    HW229770   4.876   1.973   2.761  0.7062  0.1728  0.2273
 9350SOL     OW29771   3.968   1.579   3.947  0.7344 -1.2455 -0.0086
 9350SOL    HW129772   4.034   1.511   3.958 -0.8572 -2.5221  2.4115
 9350SOL    HW229773   3.960   1.619   4.033 -1.4962 -0.9854 -0.2873
 9351SOL     OW29774   0.485   0.742   0.058 -0.3288 -0.0686  0.1410
 9351SOL    HW129775   0.406   0.792   0.038  0.6283  1.1433 -0.7874
 9351SOL    HW229776   0.538   0.748  -0.021  0.3485 -1.5685  0.4466
 9352SOL     OW29777   5.037   4.246   3.214 -0.1434  0.2604 -0.2465
 9352SOL    HW129778   5.048   4.322   3.271  0.3436 -0.7376  1.0301
 9352SOL    HW229779   5.126   4.221   3.189 -0.2506 -0.3996  0.0284
 9353SOL     OW29780   1.530   2.241   3.556 -0.2972 -0.8192  0.1050
 9353SOL    HW129781   1.438   2.267   3.563 -0.3345 -1.0154  0.3293
 9353SOL    HW229782   1.577   2.324   3.545 -0.4972 -0.7174  0.0076
 9354SOL     OW29783   6.535   4.543   3.009 -0.0348  0.5520  0.7483
 9354SOL    HW129784   6.521   4.459   2.964 -2.2099  0.4561  1.4431
 9354SOL    HW229785   6.591   4.593   2.950  0.3439 -0.9621 -0.2448
 9355SOL     OW29786   7.978   9.289   4.640  0.5229 -0.0137 -0.4581
 9355SOL    HW129787   7.917   9.351   4.681 -0.4700 -1.6300  0.6251
 9355SOL    HW229788   8.021   9.340   4.571 -0.6220  1.7240  0.0427
 9356SOL     OW29789   4.172   4.075   0.115  0.2185 -0.1673  0.9531
 9356SOL    HW129790   4.146   3.990   0.079  0.7668  0.5114 -1.1506
 9356SOL    HW229791   4.264   4.084   0.092 -0.1794  1.5892 -0.1227
 9357SOL     OW29792   8.716   5.488   2.341  0.2387 -0.8057  0.0082
 9357SOL    HW129793   8.802   5.524   2.361 -0.7152  0.2991  2.5377
 9357SOL    HW229794   8.697   5.518   2.252  1.7035  0.4983  0.1007
 9358SOL     OW29795   0.526   5.781   0.295  0.0798  0.3360 -0.3690
 9358SOL    HW129796   0.449   5.748   0.249 -0.3176  2.5280 -1.4124
 9358SOL    HW229797   0.504   5.871   0.318  1.2177  0.0886  2.0344
 9359SOL     OW29798   5.754   6.532   9.323 -0.1027  0.2446  0.1471
 9359SOL    HW129799   5.821   6.588   9.362 -0.2428  0.9785 -0.6369
 9359SOL    HW229800   5.672   6.580   9.336 -0.6022 -0.9352  1.6680
 9360SOL     OW29801   4.129   5.871   0.637 -0.5212  0.0006 -0.0738
 9360SOL    HW129802   4.070   5.869   0.712  1.4420 -0.3642  1.5585
 9360SOL    HW229803   4.215   5.889   0.675  0.6943 -1.0378 -2.1506
 9361SOL     OW29804   7.884   1.782   5.881  0.3143  0.5199 -0.2381
 9361SOL    HW129805   7.795   1.747   5.889  0.2454  0.4848 -1.0688
 9361SOL    HW229806   7.932   1.744   5.954 -0.5102  1.0264  0.5899
 9362SOL     OW29807   7.133   3.391   9.344 -0.3826  0.1609 -0.1866
 9362SOL    HW129808   7.227   3.373   9.357  0.5233  4.5055  1.0334
 9362SOL    HW229809   7.124   3.405   9.250  0.0328 -0.8967 -0.3949
 9363SOL     OW29810   8.687   8.696   4.928 -0.1743 -0.5750 -0.1221
 9363SOL    HW129811   8.762   8.698   4.869 -0.8380  0.8382 -0.9860
 9363SOL    HW229812   8.666   8.604   4.939  1.8085 -1.0130  0.3250
 9364SOL     OW29813   7.418   1.571   9.431  0.3144 -0.0163  0.6014
 9364SOL    HW129814   7.327   1.588   9.407  0.9385  1.6515 -0.7743
 9364SOL    HW229815   7.422   1.476   9.444 -1.9082  0.0202  2.0920
 9365SOL     OW29816   6.117   3.443   3.782  0.4712  0.0368 -0.6737
 9365SOL    HW129817   6.148   3.401   3.862 -0.9251 -2.0277 -1.1427
 9365SOL    HW229818   6.075   3.373   3.732 -0.2533  1.6190 -2.4271
 9366SOL     OW29819   0.804   8.695   5.476 -0.0019 -0.0257  0.1900
 9366SOL    HW129820   0.779   8.610   5.513 -0.3736 -0.2450 -0.5419
 9366SOL    HW229821   0.899   8.691   5.468  0.1064  0.1059  1.3050
 9367SOL     OW29822   8.399   8.329   2.737  0.5659  0.0463 -0.2550
 9367SOL    HW129823   8.307   8.336   2.710  0.2227 -0.4045  0.7473
 9367SOL    HW229824   8.396   8.287   2.823  1.7072  0.1491 -0.1448
 9368SOL     OW29825   8.616   3.446   4.474 -0.5226 -0.3508 -0.2248
 9368SOL    HW129826   8.649   3.450   4.564  1.0906  0.2385 -0.8151
 9368SOL    HW229827   8.567   3.527   4.463 -0.9577 -0.5504  0.2004
 9369SOL     OW29828   4.566   5.062   7.495 -0.1166 -0.0898  0.3935
 9369SOL    HW129829   4.538   5.033   7.582  1.1620 -0.0832  0.8331
 9369SOL    HW229830   4.486   5.066   7.444 -0.8411 -0.4832  1.4647
 9370SOL     OW29831   1.275   2.155   4.211 -0.0481  0.5415 -0.2363
 9370SOL    HW129832   1.252   2.063   4.201 -0.1286  0.4198  0.9618
 9370SOL    HW229833   1.361   2.162   4.170 -0.0677 -0.0552 -0.3909
 9371SOL     OW29834   2.979   6.129   2.245  0.6691  0.4596 -0.3244
 9371SOL    HW129835   3.008   6.221   2.246 -0.7778  0.9794  2.1213
 9371SOL    HW229836   3.058   6.079   2.266  1.0730  1.3172  0.2598
 9372SOL     OW29837   8.934   2.503   0.226 -0.3104  0.1191 -0.6570
 9372SOL    HW129838   8.964   2.424   0.182  0.1888 -0.0505 -0.0178
 9372SOL    HW229839   8.968   2.496   0.315 -0.6349  0.8407 -0.4679
 9373SOL     OW29840   4.072   5.800   2.483  0.2548 -0.2792  0.2899
 9373SOL    HW129841   3.981   5.775   2.498  0.0653  1.2881  1.9925
 9373SOL    HW229842   4.068   5.892   2.458  1.3131 -0.5034 -0.7954
 9374SOL     OW29843   5.516   2.362   8.334  0.5660 -0.2375 -0.1716
 9374SOL    HW129844   5.579   2.391   8.268  0.2162 -1.0448 -0.8716
 9374SOL    HW229845   5.455   2.435   8.342  0.2365 -0.3741 -1.2323
 9375SOL     OW29846   0.905   8.337   5.914  0.0385 -0.2891  0.0329
 9375SOL    HW129847   0.982   8.372   5.869  0.5574 -0.4357  0.7932
 9375SOL    HW229848   0.891   8.395   5.989  1.1232 -1.8310  1.5070
 9376SOL     OW29849   4.265   3.784   7.921  0.0107  0.1540  0.8091
 9376SOL    HW129850   4.311   3.851   7.971  3.5830 -0.8245 -0.8296
 9376SOL    HW229851   4.305   3.702   7.950  0.3903 -0.6388 -1.7313
 9377SOL     OW29852   1.393   3.685   6.308 -0.2749  0.2414  0.0511
 9377SOL    HW129853   1.463   3.742   6.341  0.9875 -0.9151 -0.5662
 9377SOL    HW229854   1.338   3.670   6.385 -0.3334  1.8221  0.3585
 9378SOL     OW29855   2.263   8.858   2.707 -0.3039  0.6441  0.6502
 9378SOL    HW129856   2.261   8.780   2.762  2.0863 -0.3543 -0.5451
 9378SOL    HW229857   2.339   8.846   2.650 -1.0882  2.8794 -1.0339
 9379SOL     OW29858   5.321   0.206   8.367 -0.0070  0.2928  0.1009
 9379SOL    HW129859   5.299   0.186   8.276 -2.6095 -0.8147  0.8838
 9379SOL    HW229860   5.316   0.122   8.412  1.9945  0.6993  1.1734
 9380SOL     OW29861   1.667   0.444   0.027  1.1688 -0.1607  0.2763
 9380SOL    HW129862   1.734   0.513   0.028  0.5032  0.4925  0.5339
 9380SOL    HW229863   1.640   0.438  -0.065  0.2397  0.9115  0.4605
 9381SOL     OW29864   2.977   8.982   5.633  0.1754 -0.2615  0.2730
 9381SOL    HW129865   3.029   9.062   5.623  1.2982 -0.9520  0.4962
 9381SOL    HW229866   2.887   9.013   5.634  0.6359  1.1598  1.8546
 9382SOL     OW29867   7.776   7.673   9.706 -0.0281  0.1345 -0.2180
 9382SOL    HW129868   7.748   7.761   9.734  0.0752 -0.2789  1.2374
 9382SOL    HW229869   7.698   7.619   9.717  0.1018 -0.1044 -0.4599
 9383SOL     OW29870   3.798   7.500   8.144  0.1801  1.2432  0.4668
 9383SOL    HW129871   3.856   7.499   8.220 -0.4161  1.0975  0.9267
 9383SOL    HW229872   3.710   7.494   8.181 -0.1216  1.2956 -0.2309
 9384SOL     OW29873   1.547   4.752   8.189  0.6724 -0.3995 -0.4636
 9384SOL    HW129874   1.606   4.726   8.119 -0.2443  0.2777 -1.5353
 9384SOL    HW229875   1.529   4.845   8.172  0.3173 -0.2521  0.5982
 9385SOL     OW29876   5.041   5.973   1.480  0.8241 -0.5700  0.0758
 9385SOL    HW129877   4.963   5.985   1.535  1.2018  1.4699  0.2505
 9385SOL    HW229878   5.013   6.002   1.393  1.4093  0.3539  0.1825
 9386SOL     OW29879   2.021   4.405   7.304 -0.1663  0.0901 -0.2808
 9386SOL    HW129880   2.050   4.365   7.387  2.7024  2.9642  0.2893
 9386SOL    HW229881   2.088   4.380   7.241 -0.4722  0.7817 -0.8830
 9387SOL     OW29882   9.333   6.706   2.063  0.4223  0.1681  0.4614
 9387SOL    HW129883   9.417   6.732   2.100  1.6849 -2.8587  0.0183
 9387SOL    HW229884   9.311   6.625   2.108 -0.0340 -1.4445 -2.4384
 9388SOL     OW29885   4.851   8.330   3.458  0.1880  0.2779  1.0617
 9388SOL    HW129886   4.819   8.251   3.413 -2.1258 -0.1299  3.2226
 9388SOL    HW229887   4.925   8.299   3.510  0.6887  0.0351  0.2334
 9389SOL     OW29888   6.529   1.908   6.420  0.0827  0.4999 -0.3080
 9389SOL    HW129889   6.501   1.895   6.511 -1.5622  0.4289 -0.7895
 9389SOL    HW229890   6.475   1.847   6.370  0.6384  0.8775 -1.3946
 9390SOL     OW29891   5.783   4.226   3.196 -0.5165  0.1327 -0.2545
 9390SOL    HW129892   5.755   4.276   3.120 -0.0797  1.2318  0.2802
 9390SOL    HW229893   5.805   4.292   3.262 -0.3511 -0.7734  0.6366
 9391SOL     OW29894   7.498   5.562   6.331 -0.2761  0.3503 -0.2089
 9391SOL    HW129895   7.542   5.533   6.412  1.7183  1.9927 -0.6266
 9391SOL    HW229896   7.423   5.614   6.361 -0.7031 -0.6670  0.5423
 9392SOL     OW29897   1.502   1.518   6.839  0.3316 -0.1435 -0.2966
 9392SOL    HW129898   1.509   1.602   6.793  2.2625  1.2539  2.2807
 9392SOL    HW229899   1.556   1.529   6.917 -2.0516 -2.6275  1.9032
 9393SOL     OW29900   8.027   3.224   9.556 -0.0479  0.0119  0.2265
 9393SOL    HW129901   7.959   3.173   9.512 -0.0720  0.1009  0.1589
 9393SOL    HW229902   7.980   3.273   9.624 -0.1457  0.5270 -0.2051
 9394SOL     OW29903   1.151   3.894   0.216 -0.0520 -0.0407 -0.4554
 9394SOL    HW129904   1.155   3.872   0.309  0.2700  2.9690  0.3485
 9394SOL    HW229905   1.062   3.927   0.202  0.1421  0.2802 -0.9871
 9395SOL     OW29906   1.790   4.605   3.998  0.1561 -0.0875  0.2558
 9395SOL    HW129907   1.879   4.600   3.961  1.0799 -0.1031  2.3130
 9395SOL    HW229908   1.760   4.515   3.999  0.7211 -0.2758  0.8848
 9396SOL     OW29909   3.904   8.468   4.191 -0.0272  0.1274 -0.0081
 9396SOL    HW129910   3.819   8.447   4.152  0.1954  1.9047 -1.5528
 9396SOL    HW229911   3.882   8.501   4.278 -1.0581  1.5723 -0.7669
 9397SOL     OW29912   3.030   2.981   1.019  0.3744  0.7464  0.2717
 9397SOL    HW129913   2.998   2.949   1.103  0.0500 -0.3299 -0.2320
 9397SOL    HW229914   2.956   2.965   0.959  0.1799  2.5283 -0.0080
 9398SOL     OW29915   6.431   3.582   8.254  0.9288 -0.4159  0.3079
 9398SOL    HW129916   6.381   3.581   8.336  2.0194  1.5978  1.0907
 9398SOL    HW229917   6.373   3.625   8.191 -0.1644 -2.5520 -0.2154
 9399SOL     OW29918   0.125   7.738   8.470  0.0929 -0.5091 -0.3123
 9399SOL    HW129919   0.110   7.816   8.417  1.0845  0.2902  0.5297
 9399SOL    HW229920   0.144   7.669   8.406 -1.3048 -0.1987 -1.0875
 9400SOL     OW29921   0.257   6.183   3.936  0.4735  0.2519  0.0876
 9400SOL    HW129922   0.219   6.254   3.988 -1.9014 -1.3256  0.6708
 9400SOL    HW229923   0.190   6.164   3.870  1.1933 -1.2462 -0.2371
 9401SOL     OW29924   8.711   1.465   9.070 -0.0345  0.1550  0.3879
 9401SOL    HW129925   8.689   1.544   9.120 -1.3867 -0.3772  0.6903
 9401SOL    HW229926   8.701   1.491   8.979 -1.4267  0.0995  0.5064
 9402SOL     OW29927   0.200   7.621   5.751  0.1915  0.4059  0.0407
 9402SOL    HW129928   0.238   7.535   5.770  0.1173  0.9769  3.4354
 9402SOL    HW229929   0.105   7.607   5.758  0.0937  0.4734 -1.0106
 9403SOL     OW29930   8.069   8.134   0.266 -0.4009  0.5086 -0.3192
 9403SOL    HW129931   8.046   8.074   0.195 -1.9354 -0.2055  0.7167
 9403SOL    HW229932   8.134   8.087   0.318 -1.4826 -0.2333  0.4023
 9404SOL     OW29933   3.757   6.048   0.017 -0.3451 -0.1217  0.2540
 9404SOL    HW129934   3.823   6.100   0.061 -0.7848  0.1463  0.6056
 9404SOL    HW229935   3.801   5.965  -0.004  0.0700  0.0204  0.5653
 9405SOL     OW29936   3.075   0.650   3.409 -0.4600 -0.1648 -0.4415
 9405SOL    HW129937   3.037   0.674   3.493 -0.0386 -0.0769 -0.2699
 9405SOL    HW229938   3.116   0.730   3.377  0.3212 -0.4618 -0.2095
 9406SOL     OW29939   5.830   3.959   6.200 -0.0931  0.0059 -0.1883
 9406SOL    HW129940   5.903   3.979   6.258 -0.2757 -1.1590  0.4850
 9406SOL    HW229941   5.752   3.977   6.252 -0.2582 -0.9041 -0.0993
 9407SOL     OW29942   1.758   6.148   4.946 -0.1195  0.0399  0.0470
 9407SOL    HW129943   1.843   6.111   4.968 -0.1498  0.5760  1.1015
 9407SOL    HW229944   1.707   6.141   5.026 -0.3827  1.6362  0.0488
 9408SOL     OW29945   7.761   3.956   2.322  0.3892 -0.0450  0.5947
 9408SOL    HW129946   7.719   3.936   2.405 -1.5468  0.3409 -0.2502
 9408SOL    HW229947   7.690   3.960   2.258  1.9755 -2.0062 -1.4505
 9409SOL     OW29948   3.175   0.201   3.148 -0.2553 -0.7676  0.0785
 9409SOL    HW129949   3.214   0.276   3.192 -0.2383 -0.6183 -0.1899
 9409SOL    HW229950   3.229   0.126   3.175  0.5533 -0.4890 -0.7064
 9410SOL     OW29951   7.079   2.117   5.489  0.2852 -0.2383 -0.9416
 9410SOL    HW129952   7.151   2.099   5.428 -1.0615 -1.3022 -2.2967
 9410SOL    HW229953   7.003   2.131   5.433 -0.1544  3.3926  0.3417
 9411SOL     OW29954   8.219   8.709   9.010  0.0005  0.4132  0.7917
 9411SOL    HW129955   8.190   8.786   9.059  0.8764  1.5375 -0.3802
 9411SOL    HW229956   8.283   8.667   9.067 -0.4959  0.5356  1.4497
 9412SOL     OW29957   6.281   3.698   2.729 -0.0632 -0.2111  0.0057
 9412SOL    HW129958   6.194   3.731   2.708  0.0448  0.5252  0.6587
 9412SOL    HW229959   6.339   3.742   2.666  0.1204  1.1459  1.0676
 9413SOL     OW29960   8.168   1.590   3.437  0.5344  0.3183  0.1755
 9413SOL    HW129961   8.073   1.587   3.445  0.2073  2.2223 -2.1078
 9413SOL    HW229962   8.197   1.635   3.516 -0.6527  1.5229 -0.0416
 9414SOL     OW29963   7.229   5.759   8.053  0.9207 -0.2014 -0.3258
 9414SOL    HW129964   7.315   5.753   8.011  1.3179  3.5811 -0.4256
 9414SOL    HW229965   7.170   5.788   7.983  0.2816  0.2785  0.3858
 9415SOL     OW29966   9.078   0.203   9.396  0.3369 -0.0285 -0.0936
 9415SOL    HW129967   9.004   0.242   9.350 -0.1545  0.2219  0.8982
 9415SOL    HW229968   9.048   0.114   9.417  0.4640 -0.0567 -0.0329
 9416SOL     OW29969   9.645   4.064   5.231 -0.0241 -0.7377  0.2868
 9416SOL    HW129970   9.721   4.040   5.284  0.3309  1.1120  0.6564
 9416SOL    HW229971   9.596   4.126   5.285 -2.6693 -2.9501  0.7020
 9417SOL     OW29972   3.936   5.117   0.018  0.0255  0.1158  0.3996
 9417SOL    HW129973   4.011   5.058   0.029 -0.1559 -0.2375 -0.1779
 9417SOL    HW229974   3.860   5.060   0.024 -0.1771  0.3974  0.4907
 9418SOL     OW29975   1.546   6.724   4.402  0.4272 -0.4514 -0.2498
 9418SOL    HW129976   1.588   6.720   4.317 -0.0382  1.6055 -0.6147
 9418SOL    HW229977   1.452   6.721   4.383  0.3239 -0.4723  0.2412
 9419SOL     OW29978   5.671   2.023   7.325 -0.2944 -0.2704 -0.0595
 9419SOL    HW129979   5.666   1.939   7.371 -1.4841 -0.7285 -0.9777
 9419SOL    HW229980   5.581   2.055   7.325  0.3019  1.5276  1.1736
 9420SOL     OW29981   9.461   8.600   6.414 -0.0879 -0.0289 -0.0133
 9420SOL    HW129982   9.381   8.612   6.363 -0.3817 -1.9296 -0.0610
 9420SOL    HW229983   9.432   8.604   6.505 -0.0075  0.5384 -0.0039
 9421SOL     OW29984   9.522   9.460   4.351 -0.2383 -0.4281  0.6274
 9421SOL    HW129985   9.542   9.395   4.419 -1.0341  0.0083  1.2902
 9421SOL    HW229986   9.442   9.428   4.310 -1.7343  1.0650  2.2259
 9422SOL     OW29987   2.049   1.273   7.246  0.6725  0.2637 -0.3923
 9422SOL    HW129988   2.136   1.233   7.244 -0.0873 -1.6890 -4.3367
 9422SOL    HW229989   1.999   1.221   7.308  1.7744  0.1539  0.4252
 9423SOL     OW29990   6.724   0.358   7.446  0.1043  0.4496 -0.1227
 9423SOL    HW129991   6.690   0.290   7.387  0.4129  0.2129 -0.0343
 9423SOL    HW229992   6.794   0.314   7.495  0.9065  1.0778 -0.6885
 9424SOL     OW29993   7.619   6.854   4.385  0.6215 -0.1710  0.1477
 9424SOL    HW129994   7.566   6.881   4.460 -0.5096 -0.3623 -0.5683
 9424SOL    HW229995   7.654   6.768   4.410  0.3210 -0.1951  0.4920
 9425SOL     OW29996   8.023   5.912   9.597  0.4096 -0.1688  0.1665
 9425SOL    HW129997   7.951   5.875   9.546  1.0150  1.0618 -1.6660
 9425SOL    HW229998   8.100   5.862   9.570  0.6577  0.1452  0.2932
 9426SOL     OW29999   1.905   6.111   2.653  0.0002  0.4818  0.1405
 9426SOL    HW130000   1.883   6.142   2.740  0.1205  0.2674  0.2470
 9426SOL    HW230001   1.861   6.027   2.645  0.1632  0.4014  0.0742
 9427SOL     OW30002   8.323   2.314   3.989 -0.2395 -0.6240  0.0822
 9427SOL    HW130003   8.311   2.386   4.051  0.1012 -1.7812  1.5440
 9427SOL    HW230004   8.277   2.240   4.029 -1.8240 -0.9086 -2.0631
 9428SOL     OW30005   4.633   9.209   0.529 -0.2512  0.4123  0.1347
 9428SOL    HW130006   4.572   9.232   0.459 -0.7581 -0.2682  0.3405
 9428SOL    HW230007   4.577   9.169   0.596  0.4651 -0.4754  0.2115
 9429SOL     OW30008   6.640   8.036   9.330  0.6129  0.4303 -0.0647
 9429SOL    HW130009   6.624   7.943   9.317 -0.6097  0.4317  1.1498
 9429SOL    HW230010   6.729   8.051   9.297  0.0042 -0.6794 -2.3692
 9430SOL     OW30011   5.751   3.733   3.368  0.2078 -0.6632 -0.5899
 9430SOL    HW130012   5.684   3.668   3.383 -0.8611  0.5570  0.1474
 9430SOL    HW230013   5.771   3.768   3.455  0.5107  0.2035 -0.9891
 9431SOL     OW30014   1.004   1.717   7.600  0.4956 -0.0955 -0.3564
 9431SOL    HW130015   1.085   1.687   7.560  1.2785  1.3268  0.0902
 9431SOL    HW230016   0.977   1.792   7.548  0.5154  0.6147  0.6135
 9432SOL     OW30017   9.183   6.106   2.647  0.0625  0.0917  0.7393
 9432SOL    HW130018   9.228   6.123   2.730 -1.0145  0.2748  1.3090
 9432SOL    HW230019   9.226   6.164   2.584  0.9127 -0.0718  1.1505
 9433SOL     OW30020   5.989   5.991   2.878 -0.3079 -0.1735 -0.3077
 9433SOL    HW130021   5.920   6.055   2.891 -1.7309 -1.8227  0.8254
 9433SOL    HW230022   5.955   5.933   2.810  0.9304  0.2013 -1.2846
 9434SOL     OW30023   7.518   2.312   1.262 -0.4955  0.0028  0.1010
 9434SOL    HW130024   7.552   2.396   1.233  0.6065 -0.2235  0.6564
 9434SOL    HW230025   7.557   2.248   1.202  0.9925 -0.3625  1.3579
 9435SOL     OW30026   9.427   4.897   2.680  0.1730  0.5246  0.3646
 9435SOL    HW130027   9.349   4.885   2.626  0.2884  2.7574 -0.4026
 9435SOL    HW230028   9.471   4.812   2.677 -1.2958 -0.2481 -0.6826
 9436SOL     OW30029   2.726   4.088   6.000 -0.0052 -0.2096  0.0199
 9436SOL    HW130030   2.783   4.115   5.929  1.4118 -0.8755  0.8603
 9436SOL    HW230031   2.637   4.107   5.969  0.6358  0.3730 -1.5206
 9437SOL     OW30032   0.840   4.807   7.196  0.3518 -0.3603  0.2410
 9437SOL    HW130033   0.824   4.871   7.266  2.4595 -0.3988  0.8083
 9437SOL    HW230034   0.801   4.847   7.118 -0.6647  0.3994  1.1063
 9438SOL     OW30035   1.598   0.213   3.933  0.1163 -0.1943 -0.9894
 9438SOL    HW130036   1.561   0.226   4.020 -1.2981  0.4105 -1.6484
 9438SOL    HW230037   1.643   0.295   3.913  2.4975 -1.1434  0.0629
 9439SOL     OW30038   3.657   5.266   9.331  0.4094 -0.0200 -0.0609
 9439SOL    HW130039   3.621   5.315   9.258  0.8244 -0.3772 -0.5127
 9439SOL    HW230040   3.596   5.281   9.403  0.8825  1.7201  0.0314
 9440SOL     OW30041   5.098   3.109   1.461  0.2174 -0.4530 -0.4621
 9440SOL    HW130042   5.022   3.140   1.411 -0.6587  1.3197  1.8050
 9440SOL    HW230043   5.090   3.014   1.460 -0.4218 -0.4366 -2.5955
 9441SOL     OW30044   7.519   8.513   9.580 -0.1533  0.0540 -0.1153
 9441SOL    HW130045   7.587   8.544   9.521  0.2959 -1.0390 -0.1927
 9441SOL    HW230046   7.464   8.458   9.525 -0.2697 -0.2204  0.2786
 9442SOL     OW30047   2.655   1.589   2.312  0.5758 -0.0431  0.0226
 9442SOL    HW130048   2.575   1.641   2.318 -0.9174 -2.3448  1.8895
 9442SOL    HW230049   2.648   1.543   2.229 -0.7616 -1.1940  0.7276
 9443SOL     OW30050   8.672   1.195   5.134 -0.1670  0.2732 -0.1910
 9443SOL    HW130051   8.624   1.157   5.208 -0.2130  0.4481 -0.1294
 9443SOL    HW230052   8.752   1.229   5.173  0.4320 -0.8110 -0.4372
 9444SOL     OW30053   5.970   6.804   0.829  0.1413 -0.0931  0.5336
 9444SOL    HW130054   6.017   6.863   0.888 -1.1894  1.6780 -0.0863
 9444SOL    HW230055   5.944   6.731   0.885 -0.2124  1.0489  1.9468
 9445SOL     OW30056   7.408   7.822   1.098 -0.2656 -0.3517 -0.3671
 9445SOL    HW130057   7.489   7.798   1.143 -0.7765 -0.6477  0.4258
 9445SOL    HW230058   7.346   7.755   1.124 -1.8526  1.8756  2.2039
 9446SOL     OW30059   7.485   1.010   2.489 -0.1806 -1.1179 -0.4702
 9446SOL    HW130060   7.421   1.020   2.419  0.1452  0.7098 -0.5650
 9446SOL    HW230061   7.553   0.955   2.452 -1.3665 -2.5885 -0.5724
 9447SOL     OW30062   5.722   9.265   7.701 -0.2885 -0.5436  0.2088
 9447SOL    HW130063   5.745   9.202   7.769 -0.1728 -1.1337 -0.3650
 9447SOL    HW230064   5.806   9.297   7.668 -0.3456 -0.1378  0.4448
 9448SOL     OW30065   3.050   0.774   3.907 -0.5548  0.1547  0.0301
 9448SOL    HW130066   3.030   0.859   3.947  0.6319  0.6229 -0.3249
 9448SOL    HW230067   3.030   0.710   3.976 -2.0274  0.6441  0.1074
 9449SOL     OW30068   9.575   2.017   9.449 -0.3622 -0.2888  0.5236
 9449SOL    HW130069   9.499   1.987   9.497  0.3016 -0.5585  1.4305
 9449SOL    HW230070   9.650   1.976   9.493  0.3109 -0.0072 -0.3184
 9450SOL     OW30071   6.735   3.169   0.623  0.4899  0.0533 -0.1722
 9450SOL    HW130072   6.724   3.075   0.613  1.8959 -0.1636  0.1748
 9450SOL    HW230073   6.830   3.182   0.626  0.3323  1.1610  2.7348
 9451SOL     OW30074   9.044   8.926   7.047  0.1728 -0.2037 -0.2867
 9451SOL    HW130075   9.071   9.018   7.058 -2.1719  0.7309 -1.6068
 9451SOL    HW230076   9.070   8.904   6.958  1.2970 -1.0791  0.2330
 9452SOL     OW30077   4.523   7.560   4.216 -0.1190  0.1527 -0.3260
 9452SOL    HW130078   4.470   7.616   4.273 -0.1325 -0.1404 -0.0512
 9452SOL    HW230079   4.603   7.610   4.201 -0.4359  0.5630 -0.6779
 9453SOL     OW30080   1.000   4.505   0.512  0.2876  0.3705 -0.2020
 9453SOL    HW130081   1.095   4.495   0.506  0.3637  0.8933  0.0997
 9453SOL    HW230082   0.968   4.484   0.424  0.6046 -0.5606 -0.1096
 9454SOL     OW30083   0.426   8.878   9.309  0.1158 -0.4341  0.3155
 9454SOL    HW130084   0.364   8.896   9.238  0.7136 -0.6646 -0.2721
 9454SOL    HW230085   0.374   8.833   9.375 -0.4650 -0.1610  0.0511
 9455SOL     OW30086   6.930   1.505   4.764 -0.0534 -0.0539  0.4659
 9455SOL    HW130087   6.957   1.443   4.832  0.6754 -1.0399 -0.6768
 9455SOL    HW230088   6.838   1.522   4.782  0.0279 -0.5905  1.4714
 9456SOL     OW30089   3.118   1.790   3.038 -0.6476 -0.7592  0.3019
 9456SOL    HW130090   3.034   1.833   3.053 -0.5780 -0.5134 -0.0069
 9456SOL    HW230091   3.142   1.754   3.124 -0.3323  0.4782  0.7549
 9457SOL     OW30092   3.411   3.218   0.552  0.2255  0.0942 -0.2249
 9457SOL    HW130093   3.340   3.282   0.547  0.5527  0.3860 -1.3985
 9457SOL    HW230094   3.485   3.268   0.588  0.6576  0.5753 -1.6968
 9458SOL     OW30095   7.133   8.290   8.438  0.4805  0.5547 -0.3906
 9458SOL    HW130096   7.058   8.233   8.423  0.3213  1.4910 -4.2406
 9458SOL    HW230097   7.096   8.368   8.478 -0.3760  0.4226 -0.9020
 9459SOL     OW30098   2.122   5.291   0.430 -0.0544 -0.1974 -0.5503
 9459SOL    HW130099   2.150   5.208   0.390  1.2214  0.2721 -0.6749
 9459SOL    HW230100   2.047   5.267   0.484 -0.9887 -1.0709 -2.1770
 9460SOL     OW30101   0.318   7.107   7.669  0.9017 -0.3568 -0.5291
 9460SOL    HW130102   0.318   7.164   7.745 -0.7052 -1.2382  0.1870
 9460SOL    HW230103   0.372   7.153   7.604  0.0557  1.7332  0.1709
 9461SOL     OW30104   8.453   6.058   2.764  0.8483 -0.3351 -0.0154
 9461SOL    HW130105   8.473   6.044   2.856  0.1954 -0.0430  0.1783
 9461SOL    HW230106   8.357   6.056   2.759  0.8755 -0.3787 -0.6892
 9462SOL     OW30107   1.905   5.580   0.134 -0.7614 -0.1885 -0.9338
 9462SOL    HW130108   1.902   5.494   0.092 -0.0004  0.2051 -1.8082
 9462SOL    HW230109   1.988   5.582   0.181 -2.8161 -1.8557  3.4166
 9463SOL     OW30110   7.590   8.312   5.483 -0.5840  0.0958  0.2523
 9463SOL    HW130111   7.520   8.298   5.419 -1.3651  1.6347  0.7173
 9463SOL    HW230112   7.639   8.387   5.449  0.4574 -0.5687  0.2635
 9464SOL     OW30113   0.242   7.319   3.645  0.9191  0.5038 -0.1125
 9464SOL    HW130114   0.213   7.306   3.735  0.6436  1.8806  0.0288
 9464SOL    HW230115   0.273   7.410   3.643 -0.3885  0.9695 -1.7486
 9465SOL     OW30116   3.942   7.024   0.975 -0.1543  0.3562 -0.1657
 9465SOL    HW130117   3.984   7.054   0.895  0.5286  0.9301  0.3984
 9465SOL    HW230118   3.879   6.958   0.945  0.2262  0.4151 -1.1474
 9466SOL     OW30119   0.371   2.182   2.852  0.2235 -0.3613 -0.0917
 9466SOL    HW130120   0.457   2.150   2.881  0.3421  0.6883  0.7599
 9466SOL    HW230121   0.391   2.250   2.788  0.0424  0.2190  0.4638
 9467SOL     OW30122   8.751   8.485   1.646 -0.1845 -0.3085 -0.3099
 9467SOL    HW130123   8.815   8.490   1.717 -1.2946 -1.2133  0.8092
 9467SOL    HW230124   8.680   8.431   1.682 -0.7679 -0.8197 -2.1227
 9468SOL     OW30125   9.280   0.828   3.503 -0.4425 -0.0870  0.6408
 9468SOL    HW130126   9.352   0.767   3.514 -1.6723 -1.7264  0.0074
 9468SOL    HW230127   9.304   0.904   3.556  1.2142 -1.0366  1.3158
 9469SOL     OW30128   7.017   6.308   7.022  0.7727 -0.5964  0.7131
 9469SOL    HW130129   7.038   6.228   7.070  1.9219  0.2242  1.6278
 9469SOL    HW230130   7.084   6.314   6.955 -0.8372 -1.7475 -1.1203
 9470SOL     OW30131   7.388   9.608   5.875 -0.0420  0.3313 -0.0494
 9470SOL    HW130132   7.380   9.518   5.908 -0.5573  0.8083  1.1491
 9470SOL    HW230133   7.427   9.657   5.948 -2.5140  1.7141  0.4332
 9471SOL     OW30134   2.888   7.096   1.460  0.3171 -0.1355  0.0556
 9471SOL    HW130135   2.809   7.112   1.511 -0.1580 -0.8994 -0.4311
 9471SOL    HW230136   2.955   7.151   1.502 -0.2901 -0.0334  0.9176
 9472SOL     OW30137   3.770   8.567   3.089  0.2066  0.1106  0.5159
 9472SOL    HW130138   3.797   8.496   3.031 -0.4336 -1.3569  1.9371
 9472SOL    HW230139   3.706   8.616   3.038 -2.1519 -2.5407  0.7028
 9473SOL     OW30140   0.220   6.471   5.143 -0.1628  0.4421 -0.3315
 9473SOL    HW130141   0.130   6.439   5.146  0.4958 -1.6735 -1.1355
 9473SOL    HW230142   0.266   6.409   5.086  1.8641  1.3420  0.2114
 9474SOL     OW30143   9.328   1.331   9.240 -0.1208 -0.3516  0.3600
 9474SOL    HW130144   9.267   1.369   9.176  0.8518  0.1942 -0.2672
 9474SOL    HW230145   9.299   1.241   9.250  0.3362 -0.7805 -1.6852
 9475SOL     OW30146   6.633   2.281   4.015  0.3165  0.1906 -0.4149
 9475SOL    HW130147   6.576   2.251   3.943  0.5645 -1.6240  0.0904
 9475SOL    HW230148   6.619   2.375   4.018 -1.1745  0.0613 -1.5868
 9476SOL     OW30149   1.559   8.542   2.486  0.1443  0.4457  0.0735
 9476SOL    HW130150   1.588   8.507   2.570 -0.7736  1.0302  0.6547
 9476SOL    HW230151   1.572   8.471   2.423 -0.1130 -0.3472  0.9054
 9477SOL     OW30152   1.971   8.396   8.431  0.1671  0.2503 -0.6232
 9477SOL    HW130153   2.037   8.418   8.366  0.2893  0.1576 -0.5324
 9477SOL    HW230154   1.993   8.306   8.458 -0.4675 -0.0766 -1.1675
 9478SOL     OW30155   4.103   0.169   7.511 -0.2470 -0.1334 -0.0003
 9478SOL    HW130156   4.188   0.158   7.552  0.4286 -0.6587 -1.4697
 9478SOL    HW230157   4.117   0.236   7.443 -1.7342  2.0227  1.6561
 9479SOL     OW30158   4.123   9.360   2.790  0.6624  0.2663 -0.0435
 9479SOL    HW130159   4.109   9.407   2.707  0.8691 -0.0671 -0.2679
 9479SOL    HW230160   4.166   9.425   2.847 -0.1567  0.7309  0.0560
 9480SOL     OW30161   5.098   3.642   2.858 -0.2663 -0.2370  0.4587
 9480SOL    HW130162   5.011   3.679   2.846  0.6728  1.7201 -0.8278
 9480SOL    HW230163   5.137   3.696   2.928  0.5127  0.1177 -0.2293
 9481SOL     OW30164   7.292   4.908   1.114  0.3398 -0.1244  0.4523
 9481SOL    HW130165   7.197   4.892   1.114  0.3166 -0.0368 -0.4235
 9481SOL    HW230166   7.321   4.880   1.027  0.7490  1.9377 -0.1367
 9482SOL     OW30167   5.189   9.656   5.049 -0.5048 -0.3712 -0.5125
 9482SOL    HW130168   5.119   9.688   5.106  1.2792 -0.1127  1.6616
 9482SOL    HW230169   5.184   9.712   4.972 -0.1239  2.5216  1.3880
 9483SOL     OW30170   9.265   3.686   4.511  0.2320  0.2924 -0.0856
 9483SOL    HW130171   9.280   3.689   4.417 -1.5671  1.9460 -0.3865
 9483SOL    HW230172   9.206   3.611   4.523 -0.5933  0.8558 -0.4904
 9484SOL     OW30173   9.436   1.860   2.829 -0.2662 -0.3247 -0.1765
 9484SOL    HW130174   9.466   1.904   2.908  3.4927 -2.7030 -0.0237
 9484SOL    HW230175   9.365   1.803   2.857 -0.4154  0.4133  0.9977
 9485SOL     OW30176   7.201   8.192   7.711 -0.7204 -0.2442 -0.0893
 9485SOL    HW130177   7.174   8.239   7.632 -2.5861 -1.9802 -0.5732
 9485SOL    HW230178   7.198   8.259   7.780  0.4023  1.1717 -1.3309
 9486SOL     OW30179   3.432   0.400   2.559  0.3439 -0.2707  0.3646
 9486SOL    HW130180   3.456   0.459   2.631 -1.0279 -1.2684  1.7139
 9486SOL    HW230181   3.441   0.312   2.597 -0.7356 -0.8024 -0.5548
 9487SOL     OW30182   0.746   3.797   4.867 -0.5093 -0.0420  0.3306
 9487SOL    HW130183   0.671   3.741   4.847  0.3640 -1.0711 -0.1645
 9487SOL    HW230184   0.766   3.839   4.783 -0.0289 -0.4082  0.2580
 9488SOL     OW30185   2.563   1.200   9.343  0.0377 -1.1071 -0.1722
 9488SOL    HW130186   2.475   1.218   9.310 -0.0894 -1.9537 -0.3019
 9488SOL    HW230187   2.566   1.245   9.427 -0.2354 -0.3952 -0.5328
 9489SOL     OW30188   7.616   5.642   5.776 -0.0099 -0.3359 -0.0325
 9489SOL    HW130189   7.631   5.736   5.767 -0.0824 -0.3029  0.1792
 9489SOL    HW230190   7.565   5.634   5.857 -0.2472 -0.5323 -0.1989
 9490SOL     OW30191   3.805   2.481   5.322 -0.6599 -0.0976 -0.1732
 9490SOL    HW130192   3.807   2.390   5.293 -0.1982 -0.7424  1.7184
 9490SOL    HW230193   3.897   2.503   5.337 -0.7769  0.6607 -0.5537
 9491SOL     OW30194   5.465   3.359   1.394 -0.3152 -0.0985 -0.4978
 9491SOL    HW130195   5.442   3.287   1.453  1.5725  0.3393  0.8371
 9491SOL    HW230196   5.390   3.418   1.398  0.1656  0.4175  2.2962
 9492SOL     OW30197   5.915   0.191   0.724  0.4823 -0.2202  0.0181
 9492SOL    HW130198   5.862   0.261   0.686 -0.1784  1.4655  3.6219
 9492SOL    HW230199   6.005   0.214   0.700 -0.0091 -0.6065 -2.4117
 9493SOL     OW30200   1.041   1.315   3.794 -0.6217 -0.2126  0.7761
 9493SOL    HW130201   1.056   1.397   3.746 -0.9772 -0.2404  0.6117
 9493SOL    HW230202   0.952   1.323   3.828 -0.3187 -0.1311  1.5628
 9494SOL     OW30203   6.602   0.116   6.968  0.4532 -0.2319  0.1549
 9494SOL    HW130204   6.586   0.113   6.873  0.6041  2.6588 -0.0702
 9494SOL    HW230205   6.647   0.034   6.988 -0.9549 -1.6274 -1.9673
 9495SOL     OW30206   4.167   8.825   4.602 -0.5213  0.2964  0.6076
 9495SOL    HW130207   4.145   8.775   4.680  2.5032  0.6565  1.8510
 9495SOL    HW230208   4.170   8.760   4.532 -2.0120 -0.2538  1.0200
 9496SOL     OW30209   0.808   4.783   4.033 -0.0011  0.2969 -0.4045
 9496SOL    HW130210   0.804   4.726   4.110 -1.3311  1.6994  0.6391
 9496SOL    HW230211   0.886   4.836   4.046 -0.3957  0.7496  0.1644
 9497SOL     OW30212   9.227   4.075   0.196  0.1910  1.1105  0.0509
 9497SOL    HW130213   9.213   4.169   0.190 -0.2204  0.9920 -1.2714
 9497SOL    HW230214   9.257   4.050   0.108 -0.1306 -0.0465  0.2547
 9498SOL     OW30215   3.850   4.843   1.128  0.0727  0.1389 -0.6919
 9498SOL    HW130216   3.790   4.903   1.085 -1.4476 -0.7727  0.0709
 9498SOL    HW230217   3.794   4.775   1.165  1.6102 -0.9636 -0.2695
 9499SOL     OW30218   4.873   2.448   5.821 -0.2986 -0.4340  0.2164
 9499SOL    HW130219   4.957   2.405   5.833  0.2112  0.2145 -0.9297
 9499SOL    HW230220   4.834   2.405   5.745 -0.2830  0.3393 -0.2442
 9500SOL     OW30221   3.912   7.081   9.294 -0.0206 -0.4036  0.3752
 9500SOL    HW130222   3.917   6.996   9.339 -1.2284 -0.7440 -0.0973
 9500SOL    HW230223   3.968   7.070   9.217  0.0020 -0.7019  0.4322
 9501SOL     OW30224   0.805   1.420   7.295 -0.5765 -0.6455  0.0128
 9501SOL    HW130225   0.711   1.432   7.285 -0.5613 -0.6876 -0.1767
 9501SOL    HW230226   0.821   1.437   7.388 -0.8016 -0.8456  0.0911
 9502SOL     OW30227   1.352   6.571   7.325  0.4136  0.0202  0.7104
 9502SOL    HW130228   1.353   6.497   7.385 -0.7112 -1.2697 -0.8130
 9502SOL    HW230229   1.279   6.554   7.266  0.8381  1.7746 -0.3892
 9503SOL     OW30230   4.644   0.159   8.889  0.6072  0.3288 -0.0270
 9503SOL    HW130231   4.728   0.117   8.870  0.5721  0.0412  0.4293
 9503SOL    HW230232   4.667   0.248   8.916  1.0576 -0.6164  3.0898
 9504SOL     OW30233   4.719   3.969   7.409 -0.3827 -0.1733 -0.7794
 9504SOL    HW130234   4.719   3.947   7.316  0.0050 -1.1716 -0.5545
 9504SOL    HW230235   4.662   4.046   7.416 -1.1026 -0.6076 -1.7242
 9505SOL     OW30236   2.571   0.323   2.766 -0.0617 -0.4614  0.9393
 9505SOL    HW130237   2.544   0.265   2.695 -1.0770  1.3137 -0.2044
 9505SOL    HW230238   2.665   0.334   2.753  0.2981 -2.4134  1.6469
 9506SOL     OW30239   9.049   1.314   9.563 -0.2562 -0.4494 -0.3421
 9506SOL    HW130240   8.982   1.311   9.494 -1.3774  0.1633  0.6825
 9506SOL    HW230241   9.131   1.301   9.516 -0.9007  0.8201 -1.9269
 9507SOL     OW30242   6.612   9.390   6.155 -0.5472 -0.8210  0.0558
 9507SOL    HW130243   6.574   9.398   6.242  1.3072 -0.0376  0.8626
 9507SOL    HW230244   6.678   9.321   6.164  0.2820 -0.1152 -0.4664
 9508SOL     OW30245   3.979   6.028   5.181 -0.1055  0.7430 -0.8167
 9508SOL    HW130246   4.051   6.085   5.210  1.0649 -0.8219 -0.4997
 9508SOL    HW230247   3.949   6.067   5.100  0.6548  1.8215 -0.6028
 9509SOL     OW30248   6.618   0.645   5.012 -0.1917 -0.3351  0.5805
 9509SOL    HW130249   6.569   0.687   5.083 -0.8382 -0.4187  0.1912
 9509SOL    HW230250   6.679   0.586   5.057  0.1189  0.3588  1.1000
 9510SOL     OW30251   0.681   5.323   8.071 -0.2397 -0.1279  0.2988
 9510SOL    HW130252   0.685   5.418   8.058 -2.8092  0.0329  0.1124
 9510SOL    HW230253   0.670   5.312   8.165 -1.7946 -0.0874  0.1483
 9511SOL     OW30254   6.250   5.448   2.616  0.1423  1.0504 -0.1488
 9511SOL    HW130255   6.288   5.429   2.701  0.5001 -2.5225 -0.9689
 9511SOL    HW230256   6.326   5.458   2.558 -0.1152  0.9931 -0.4950
 9512SOL     OW30257   0.581   7.505   5.646  0.2232  0.3194  0.0333
 9512SOL    HW130258   0.566   7.467   5.560 -2.5587  1.5729 -0.1317
 9512SOL    HW230259   0.671   7.537   5.643  1.1767 -2.2159 -1.3328
 9513SOL     OW30260   1.413   4.870   8.568 -0.1599  0.3134  0.5613
 9513SOL    HW130261   1.457   4.806   8.512 -3.7757 -1.2804 -0.7308
 9513SOL    HW230262   1.484   4.924   8.603  2.7109 -1.8030 -1.5497
 9514SOL     OW30263   8.979   5.161   6.415 -0.3218 -0.2574  0.2600
 9514SOL    HW130264   8.970   5.093   6.482 -0.9121 -3.0279 -2.4165
 9514SOL    HW230265   9.073   5.179   6.413 -0.1314 -1.0966  0.9417
 9515SOL     OW30266   8.378   9.192   9.442 -0.6000  0.1657  0.3029
 9515SOL    HW130267   8.302   9.204   9.385 -0.4919 -0.5997 -0.0046
 9515SOL    HW230268   8.404   9.101   9.430  0.8130  0.6003 -0.1372
 9516SOL     OW30269   8.116   5.616   6.080 -0.4377  0.1935  0.1614
 9516SOL    HW130270   8.139   5.683   6.015 -0.8624  0.6263  0.4497
 9516SOL    HW230271   8.189   5.618   6.142  0.5156 -0.9945 -0.8747
 9517SOL     OW30272   1.761   5.542   0.653  0.0096 -0.7196  0.6218
 9517SOL    HW130273   1.758   5.584   0.566 -0.0463  0.7284  1.2944
 9517SOL    HW230274   1.834   5.481   0.647 -0.3034 -1.0080 -0.6053
 9518SOL     OW30275   5.600   9.647   8.501  0.1619 -0.2852 -0.0958
 9518SOL    HW130276   5.613   9.665   8.408 -0.8986  1.3601  0.0294
 9518SOL    HW230277   5.670   9.586   8.524 -0.1426 -1.5254 -2.1792
 9519SOL     OW30278   7.535   4.237   9.026  0.1958 -0.0703 -0.1166
 9519SOL    HW130279   7.482   4.176   8.974 -1.5500 -0.8232  2.3865
 9519SOL    HW230280   7.597   4.181   9.072 -0.1964  0.2104  0.7801
 9520SOL     OW30281   5.500   9.635   3.377  0.0112  0.5733  0.1529
 9520SOL    HW130282   5.552   9.582   3.438 -0.5342 -2.0005 -1.4839
 9520SOL    HW230283   5.409   9.619   3.403 -0.1481  1.1994 -0.0097
 9521SOL     OW30284   4.539   0.378   7.840  0.3315  0.1247  0.5433
 9521SOL    HW130285   4.579   0.377   7.927  0.5110  0.0866  0.4607
 9521SOL    HW230286   4.583   0.307   7.793  0.3745  0.2736  0.3602
 9522SOL     OW30287   3.540   9.243   7.111 -0.2106  0.1720  0.2502
 9522SOL    HW130288   3.510   9.168   7.059 -0.9712  1.1248 -0.7347
 9522SOL    HW230289   3.595   9.205   7.179 -1.2536 -1.3667  0.2819
 9523SOL     OW30290   5.143   1.517   4.518  1.1865  0.1331  0.1157
 9523SOL    HW130291   5.100   1.478   4.442 -1.9873 -1.0912  2.3257
 9523SOL    HW230292   5.088   1.591   4.542  3.0306  1.4967  0.4034
 9524SOL     OW30293   2.919   4.700   9.528  0.5022  0.1037 -0.1492
 9524SOL    HW130294   2.879   4.614   9.518 -1.0188  0.7426  0.2518
 9524SOL    HW230295   3.003   4.682   9.572 -1.2608 -0.9181  3.1371
 9525SOL     OW30296   4.137   7.474   3.714  0.0235 -0.5818 -0.4669
 9525SOL    HW130297   4.176   7.558   3.736  0.8369 -0.9855 -0.2987
 9525SOL    HW230298   4.049   7.494   3.683  0.5044  0.4012 -1.2423
 9526SOL     OW30299   3.275   1.859   0.733  0.3163  0.3163  0.5294
 9526SOL    HW130300   3.241   1.839   0.820  0.8786 -0.4561  0.5840
 9526SOL    HW230301   3.362   1.896   0.749  0.8499 -0.7809  0.2749
 9527SOL     OW30302   2.996   7.315   1.945  0.4997  0.5051 -0.0766
 9527SOL    HW130303   2.986   7.328   2.040  0.4856 -0.7953  0.1264
 9527SOL    HW230304   3.079   7.357   1.924  0.6570  0.5382  0.5828
 9528SOL     OW30305   3.877   7.880   4.129 -0.1329 -0.4473 -0.3564
 9528SOL    HW130306   3.855   7.973   4.140  0.0938 -0.4132 -0.1746
 9528SOL    HW230307   3.888   7.848   4.218  0.2046 -0.5474 -0.4352
 9529SOL     OW30308   3.769   1.747   1.818  0.2709  0.4864 -0.4996
 9529SOL    HW130309   3.747   1.801   1.743 -0.3444  0.4493 -0.3489
 9529SOL    HW230310   3.685   1.729   1.861  0.3587 -1.2548 -0.9906
 9530SOL     OW30311   1.539   5.165   8.424 -0.7698 -0.5610 -0.0811
 9530SOL    HW130312   1.606   5.107   8.460  3.1263  2.7198 -1.4070
 9530SOL    HW230313   1.511   5.218   8.499 -2.1819 -2.0397  0.5081
 9531SOL     OW30314   5.384   4.633   6.871  0.3171 -0.3181  0.2247
 9531SOL    HW130315   5.479   4.638   6.862  0.2316  0.4692 -0.3127
 9531SOL    HW230316   5.371   4.583   6.952  1.2446  2.9650  2.6326
 9532SOL     OW30317   0.086   8.299   5.474  0.0130 -0.1944 -0.2534
 9532SOL    HW130318   0.040   8.269   5.553 -2.6385 -0.6606 -1.8625
 9532SOL    HW230319   0.121   8.385   5.498 -1.2568 -0.0490  1.2519
 9533SOL     OW30320   5.808   3.790   6.525  0.0376 -0.3514  0.2744
 9533SOL    HW130321   5.771   3.801   6.612 -3.4330 -1.2512 -0.9091
 9533SOL    HW230322   5.765   3.856   6.471  1.0566 -0.6990 -1.0296
 9534SOL     OW30323   4.774   3.372   4.784  0.6003 -0.0354 -0.3808
 9534SOL    HW130324   4.863   3.369   4.749  0.8906 -0.3519  0.3631
 9534SOL    HW230325   4.724   3.419   4.718  1.5950  1.3310 -0.2022
 9535SOL     OW30326   3.528   0.589   8.986 -0.2798 -0.3654 -0.3205
 9535SOL    HW130327   3.475   0.604   8.908 -0.5063 -0.9941 -0.2901
 9535SOL    HW230328   3.536   0.494   8.992 -2.0286 -0.4487  1.5776
 9536SOL     OW30329   0.529   7.059   5.134  0.0953 -0.4459 -0.4090
 9536SOL    HW130330   0.526   7.051   5.038  0.8502 -0.6976 -0.4162
 9536SOL    HW230331   0.543   6.970   5.165 -0.9531 -0.4907 -0.0121
 9537SOL     OW30332   8.372   3.064   4.176  0.4500 -0.1796 -0.4450
 9537SOL    HW130333   8.322   3.142   4.151  3.1300  1.4455 -1.1481
 9537SOL    HW230334   8.344   3.046   4.266 -1.7600  0.2649 -0.9809
 9538SOL     OW30335   6.188   7.362   5.187 -0.0601 -0.1469 -0.2636
 9538SOL    HW130336   6.195   7.270   5.212 -1.4788 -0.2270 -0.0946
 9538SOL    HW230337   6.230   7.410   5.259 -1.5200 -0.5339  0.8884
 9539SOL     OW30338   3.066   6.493   6.137 -0.3341  0.0783 -0.0096
 9539SOL    HW130339   3.090   6.431   6.068  2.6440 -0.5918  1.4301
 9539SOL    HW230340   3.149   6.531   6.165 -1.8196  3.0027  0.8104
 9540SOL     OW30341   4.222   4.620   8.029 -0.5561 -0.0064  0.1280
 9540SOL    HW130342   4.146   4.674   8.009 -0.0872  1.4292  1.9993
 9540SOL    HW230343   4.288   4.681   8.061  0.2262 -1.5897  1.6897
 9541SOL     OW30344   5.785   8.523   1.407  0.2663  0.1256 -0.3176
 9541SOL    HW130345   5.843   8.594   1.378  0.0345  0.9658  1.1413
 9541SOL    HW230346   5.699   8.546   1.370 -0.2393  1.6919  1.6340
 9542SOL     OW30347   6.834   6.087   2.511  0.1974 -0.4266 -0.3907
 9542SOL    HW130348   6.907   6.138   2.476  1.4425 -1.2028  0.9806
 9542SOL    HW230349   6.833   6.007   2.457 -0.2873  0.0103 -1.0444
 9543SOL     OW30350   3.398   8.708   3.789  0.1136  0.5178  0.3035
 9543SOL    HW130351   3.333   8.764   3.748  0.3164  0.3235 -0.2950
 9543SOL    HW230352   3.355   8.674   3.867 -0.1506  1.1832  0.4600
 9544SOL     OW30353   4.118   8.005   3.999  0.0990 -0.1381  0.2143
 9544SOL    HW130354   4.149   8.024   4.088 -0.7648  0.7525  0.3435
 9544SOL    HW230355   4.038   7.954   4.013 -1.1563  1.6536  0.0550
 9545SOL     OW30356   3.845   1.162   8.295  0.2810 -0.3025 -0.0960
 9545SOL    HW130357   3.792   1.162   8.375 -1.5920  5.0821 -0.9244
 9545SOL    HW230358   3.935   1.170   8.325 -0.3210  0.6996  1.5426
 9546SOL     OW30359   5.867   3.237   1.288 -0.0832  0.1696  0.0440
 9546SOL    HW130360   5.808   3.244   1.363 -0.2492  1.7882 -0.2081
 9546SOL    HW230361   5.810   3.208   1.216 -0.1190 -0.4017  0.2942
 9547SOL     OW30362   5.189   7.689   4.490  0.1946  0.2867  0.0098
 9547SOL    HW130363   5.147   7.719   4.570  0.3022  0.3498  0.0419
 9547SOL    HW230364   5.279   7.670   4.515 -0.2016 -1.3460  0.3073
 9548SOL     OW30365   8.365   4.680   9.217 -0.3816  0.0220 -0.0673
 9548SOL    HW130366   8.279   4.671   9.258  0.5470  0.6316  2.1533
 9548SOL    HW230367   8.346   4.713   9.129 -2.5090 -2.1549 -0.5102
 9549SOL     OW30368   7.662   3.631   3.489 -0.1091  0.5229 -0.0895
 9549SOL    HW130369   7.625   3.656   3.574  2.4434  2.2192  0.6490
 9549SOL    HW230370   7.695   3.542   3.502 -0.5995  0.4048  0.3773
 9550SOL     OW30371   3.528   5.401   6.614 -0.2985 -0.8043 -0.4726
 9550SOL    HW130372   3.505   5.460   6.686  0.5568  0.2752 -1.0546
 9550SOL    HW230373   3.588   5.337   6.654 -2.0182 -1.9594  0.3982
 9551SOL     OW30374   3.226   0.724   5.571 -0.2762  0.1083  0.0686
 9551SOL    HW130375   3.152   0.736   5.629 -0.3278 -1.2796  0.3209
 9551SOL    HW230376   3.189   0.689   5.490 -0.1435  1.5368 -0.6463
 9552SOL     OW30377   1.151   4.445   7.457  0.1254 -0.4158  0.0899
 9552SOL    HW130378   1.227   4.396   7.490  0.6589 -0.0587 -0.5845
 9552SOL    HW230379   1.128   4.505   7.527  1.1122  0.1874 -0.0932
 9553SOL     OW30380   3.665   4.758   3.962 -0.6889  0.0569  0.3291
 9553SOL    HW130381   3.705   4.773   4.048 -3.6608 -2.3272  2.3201
 9553SOL    HW230382   3.716   4.687   3.923  0.1783  0.5947  0.4687
 9554SOL     OW30383   8.491   9.397   0.957  0.3523  0.7736 -0.7758
 9554SOL    HW130384   8.404   9.369   0.929  0.8879 -0.3895 -1.3310
 9554SOL    HW230385   8.474   9.475   1.010 -0.9446  1.1475 -1.6757
 9555SOL     OW30386   0.616   7.399   6.852  0.3562 -0.2558  0.0541
 9555SOL    HW130387   0.646   7.341   6.921  1.4227 -0.2387 -0.3725
 9555SOL    HW230388   0.588   7.340   6.782 -2.7054 -0.3494  1.2005
 9556SOL     OW30389   2.260   5.495   3.041  0.2806 -0.2206  0.6580
 9556SOL    HW130390   2.352   5.514   3.061  0.3146  2.6242 -1.4854
 9556SOL    HW230391   2.262   5.408   3.000  2.3242  0.4705 -0.8709
 9557SOL     OW30392   0.672   2.253   3.728  0.7495 -0.2352  1.1168
 9557SOL    HW130393   0.666   2.224   3.819  1.4566 -1.1426  0.8921
 9557SOL    HW230394   0.587   2.292   3.709  0.4006 -0.5564  1.9959
 9558SOL     OW30395   7.935   8.279   2.216 -0.6628  0.2733  0.3301
 9558SOL    HW130396   7.953   8.303   2.125 -0.1306  1.1833  0.6606
 9558SOL    HW230397   7.850   8.318   2.234 -0.0731  1.4739  0.6775
 9559SOL     OW30398   3.272   3.623   2.913  0.6357  0.0153  0.0964
 9559SOL    HW130399   3.303   3.545   2.960 -0.4243 -1.2830 -1.2778
 9559SOL    HW230400   3.263   3.594   2.822 -0.1477  1.6469 -0.3783
 9560SOL     OW30401   7.320   2.200   8.086 -0.1221  0.3331  0.6209
 9560SOL    HW130402   7.276   2.252   8.019  0.8883  1.2947  0.6833
 9560SOL    HW230403   7.412   2.224   8.079  0.5906 -2.3998 -0.1694
 9561SOL     OW30404   7.375   5.680   8.313 -0.4929 -0.1870  0.3270
 9561SOL    HW130405   7.280   5.692   8.308 -0.3289  0.9045 -0.4389
 9561SOL    HW230406   7.386   5.592   8.349 -1.8142 -0.9956 -1.1080
 9562SOL     OW30407   6.261   9.002   8.947 -0.2243  0.5947 -0.0483
 9562SOL    HW130408   6.222   9.062   8.883  0.2830  1.8275  0.7707
 9562SOL    HW230409   6.310   8.939   8.894  0.5124  1.8253 -0.8720
 9563SOL     OW30410   1.722   3.484   9.525  0.0567  0.2925  0.0287
 9563SOL    HW130411   1.664   3.409   9.518 -0.3626  0.5805  0.3515
 9563SOL    HW230412   1.809   3.447   9.540 -0.2520 -0.1165  0.8809
 9564SOL     OW30413   5.648   9.369   8.689  0.0187  0.3319  0.3240
 9564SOL    HW130414   5.673   9.443   8.744  0.6140  0.9576 -0.7599
 9564SOL    HW230415   5.730   9.338   8.651 -0.1647 -1.1374  1.0289
 9565SOL     OW30416   3.696   9.466   3.809  0.1105  1.0327 -0.3996
 9565SOL    HW130417   3.658   9.418   3.736 -0.6041  2.1932 -0.8176
 9565SOL    HW230418   3.651   9.550   3.809  0.7566  1.4096  0.8079
 9566SOL     OW30419   7.792   1.449   1.247 -0.0168 -0.3072 -0.0908
 9566SOL    HW130420   7.721   1.513   1.239  1.0607  0.7014 -2.2563
 9566SOL    HW230421   7.860   1.494   1.296 -1.0419 -1.5256  2.6414
 9567SOL     OW30422   3.655   5.971   4.427 -0.1882 -0.2448  0.0857
 9567SOL    HW130423   3.647   6.066   4.441 -0.8937 -0.2343 -0.3023
 9567SOL    HW230424   3.749   5.953   4.434 -0.1061  0.3847  0.7530
 9568SOL     OW30425   6.674   1.777   2.390 -0.2083  0.2397  0.4342
 9568SOL    HW130426   6.617   1.702   2.373  0.1532  0.4402 -2.0472
 9568SOL    HW230427   6.661   1.834   2.314  0.0650  2.3824  1.9103
 9569SOL     OW30428   0.214   1.208   3.534  0.3251  0.1009  0.1248
 9569SOL    HW130429   0.289   1.253   3.495 -0.6062  1.1224 -0.5776
 9569SOL    HW230430   0.225   1.220   3.628 -0.3349  2.7040 -0.0319
 9570SOL     OW30431   7.969   7.305   1.633  0.1589 -0.7412  0.8533
 9570SOL    HW130432   7.985   7.227   1.686 -2.3768 -0.9274  1.4749
 9570SOL    HW230433   7.900   7.352   1.680 -2.0059 -0.7499 -2.0694
 9571SOL     OW30434   5.349   9.175   1.919  0.0800  0.6098  0.4609
 9571SOL    HW130435   5.302   9.181   1.836  1.1375 -0.8521 -0.2794
 9571SOL    HW230436   5.351   9.265   1.952  0.0202  1.2816 -1.3024
 9572SOL     OW30437   0.377   2.809   2.400  0.2902  0.3382  0.5541
 9572SOL    HW130438   0.419   2.851   2.475 -0.0379 -0.0886  0.9764
 9572SOL    HW230439   0.283   2.823   2.414  0.2250  0.2183  0.2433
 9573SOL     OW30440   6.267   8.342   6.829 -0.2757 -0.0084  0.1579
 9573SOL    HW130441   6.272   8.424   6.877  1.7356 -0.7220  1.3083
 9573SOL    HW230442   6.292   8.275   6.893 -1.9088 -1.5668 -0.7194
 9574SOL     OW30443   5.082   2.790   5.999 -0.0593 -0.2543 -0.0080
 9574SOL    HW130444   5.110   2.865   5.946  0.4738 -2.5531 -3.2416
 9574SOL    HW230445   5.149   2.783   6.067 -0.2475  2.2514  0.5570
 9575SOL     OW30446   1.959   2.317   5.754  0.5576  0.5159 -0.3238
 9575SOL    HW130447   1.869   2.348   5.763  0.8563  1.8457 -1.4986
 9575SOL    HW230448   1.956   2.225   5.779 -1.0841  0.6082 -0.1096
 9576SOL     OW30449   7.594   8.993   9.636 -0.0943  0.2252  0.3551
 9576SOL    HW130450   7.546   9.065   9.594 -0.6092 -1.0277 -1.3094
 9576SOL    HW230451   7.533   8.919   9.633  1.0713 -0.7664  0.3590
 9577SOL     OW30452   7.549   7.043   8.099 -0.1050 -0.0594  0.5555
 9577SOL    HW130453   7.559   7.138   8.088 -2.4954  1.0284  5.1014
 9577SOL    HW230454   7.631   7.014   8.137  0.1851  0.4341  0.3118
 9578SOL     OW30455   2.993   8.669   7.043  0.2072  0.2791  0.3833
 9578SOL    HW130456   2.917   8.650   6.988  0.8086  0.4631 -0.5171
 9578SOL    HW230457   2.999   8.765   7.044 -0.0421  0.2989  1.1238
 9579SOL     OW30458   2.000   0.261   0.596  0.1537  0.3326 -0.0950
 9579SOL    HW130459   1.998   0.257   0.691  1.6753 -0.8110 -0.0592
 9579SOL    HW230460   2.078   0.312   0.575 -0.5865  1.2313 -0.7445
 9580SOL     OW30461   2.846   0.074   6.559  0.1706 -0.1360 -0.0456
 9580SOL    HW130462   2.793   0.071   6.480  1.0037  1.0852 -0.6937
 9580SOL    HW230463   2.785   0.098   6.629 -0.3954 -0.2737 -0.4879
 9581SOL     OW30464   7.958   2.199   0.545  0.2216  0.3024 -0.2854
 9581SOL    HW130465   7.932   2.241   0.463 -0.3274  2.4390  0.8861
 9581SOL    HW230466   7.892   2.130   0.559  1.1824 -1.1007 -2.3065
 9582SOL     OW30467   0.512   3.738   6.937  0.3000  0.2149 -0.5514
 9582SOL    HW130468   0.454   3.813   6.948  0.7470  0.8799 -2.3719
 9582SOL    HW230469   0.568   3.761   6.863  2.7502 -0.4885  0.9515
 9583SOL     OW30470   3.128   7.951   8.607 -0.4464  0.0063 -0.1528
 9583SOL    HW130471   3.052   7.967   8.663 -2.2022 -1.0838 -2.0947
 9583SOL    HW230472   3.202   7.987   8.656 -1.8008 -1.1179  2.9980
 9584SOL     OW30473   1.112   9.439   5.778  0.5058  0.0482  0.2949
 9584SOL    HW130474   1.191   9.462   5.729  1.7207  1.5062  2.7227
 9584SOL    HW230475   1.140   9.366   5.834 -1.0585 -2.1053 -1.5323
 9585SOL     OW30476   5.332   5.066   0.954  0.2031  0.2325 -0.0163
 9585SOL    HW130477   5.363   5.096   0.869  0.1976  0.7145  0.1532
 9585SOL    HW230478   5.252   5.115   0.970  1.0707  1.3700  1.0103
 9586SOL     OW30479   5.432   0.115   7.093 -0.7552  0.7471  0.1554
 9586SOL    HW130480   5.475   0.069   7.020 -0.1309 -0.9644  1.5343
 9586SOL    HW230481   5.495   0.110   7.165 -2.0687  0.7937  1.3507
 9587SOL     OW30482   4.250   9.372   4.177 -0.6987 -0.2931 -0.0659
 9587SOL    HW130483   4.321   9.407   4.123 -0.3500 -2.5523 -1.2028
 9587SOL    HW230484   4.259   9.417   4.260 -0.1885  2.0880 -1.3220
 9588SOL     OW30485   5.024   4.200   0.441  0.2902 -0.1537 -0.1350
 9588SOL    HW130486   5.018   4.208   0.536  0.5395  2.7008 -0.2787
 9588SOL    HW230487   4.935   4.218   0.410  0.7786  1.9496 -0.4987
 9589SOL     OW30488   4.997   3.163   8.410  0.7662  0.3400  0.4229
 9589SOL    HW130489   5.072   3.182   8.354 -0.3396 -0.1710 -1.3446
 9589SOL    HW230490   4.940   3.240   8.400  0.6863  0.3675  1.0807
 9590SOL     OW30491   8.008   7.829   3.213  0.0872  0.5164  0.2127
 9590SOL    HW130492   8.053   7.781   3.282 -0.1915 -1.2752 -0.7874
 9590SOL    HW230493   7.922   7.850   3.251  1.2088  2.7779  1.6490
 9591SOL     OW30494   7.170   9.188   7.136  0.0160 -0.5977 -0.7526
 9591SOL    HW130495   7.106   9.258   7.147 -0.9809 -1.6418  0.3332
 9591SOL    HW230496   7.232   9.222   7.071 -2.1221  0.1179 -2.5535
 9592SOL     OW30497   6.810   0.077   5.559 -0.1573  0.0369 -0.1483
 9592SOL    HW130498   6.779  -0.006   5.596  2.6941 -1.4801 -0.7851
 9592SOL    HW230499   6.861   0.117   5.630 -0.7598  0.8002 -0.1398
 9593SOL     OW30500   4.308   5.010   0.739 -0.0086  0.3045 -0.0160
 9593SOL    HW130501   4.274   5.006   0.650 -2.3970 -1.2310  0.8850
 9593SOL    HW230502   4.307   4.919   0.770  2.0453  0.6095  1.1764
 9594SOL     OW30503   5.474   3.916   5.331  0.0290  0.2978  0.8389
 9594SOL    HW130504   5.439   3.952   5.250 -0.3597  0.5039  1.0988
 9594SOL    HW230505   5.569   3.919   5.319 -0.0181 -1.3639 -0.3543
 9595SOL     OW30506   8.312   6.333   1.127  0.2613 -0.0656  0.3973
 9595SOL    HW130507   8.372   6.398   1.092  1.4727 -1.2844  0.1026
 9595SOL    HW230508   8.345   6.313   1.215  0.6900 -1.2025 -0.0039
 9596SOL     OW30509   2.107   4.465   2.864  0.4528 -0.5450  0.5596
 9596SOL    HW130510   2.080   4.374   2.860  0.0399 -0.4178  0.4591
 9596SOL    HW230511   2.167   4.476   2.790 -1.2304 -0.1623 -0.8018
 9597SOL     OW30512   2.891   0.162   7.479  0.4021 -0.0177 -0.1290
 9597SOL    HW130513   2.951   0.120   7.417  0.2079  0.4520 -0.6483
 9597SOL    HW230514   2.925   0.252   7.487 -0.2561  0.2643 -0.4631
 9598SOL     OW30515   5.817   1.910   9.080  0.2112  0.7120 -0.4646
 9598SOL    HW130516   5.753   1.929   9.149 -0.5119  2.0415 -1.4595
 9598SOL    HW230517   5.778   1.838   9.030  0.6549 -0.1333  0.3632
 9599SOL     OW30518   2.830   0.520   1.262 -0.2969 -0.1961 -0.2021
 9599SOL    HW130519   2.873   0.472   1.192 -2.4777  0.7727 -2.3444
 9599SOL    HW230520   2.754   0.467   1.286  1.3744 -1.4353  2.8639
 9600SOL     OW30521   6.405   7.237   1.399 -0.3122  0.1462 -0.1516
 9600SOL    HW130522   6.454   7.188   1.333 -1.3361  1.0475 -1.6628
 9600SOL    HW230523   6.468   7.300   1.434  0.6634 -1.3721  0.8946
 9601SOL     OW30524   5.305   8.233   2.021  0.2300 -0.6403 -0.1977
 9601SOL    HW130525   5.365   8.290   2.070 -1.5819  0.8561  0.3843
 9601SOL    HW230526   5.332   8.243   1.930 -0.0876  1.2681 -0.1208
 9602SOL     OW30527   6.960   6.140   6.477 -0.0448 -0.4403  0.4615
 9602SOL    HW130528   6.905   6.217   6.464  0.8773  0.1070 -0.3912
 9602SOL    HW230529   6.900   6.066   6.470 -0.5076  0.0669 -1.8801
 9603SOL     OW30530   4.191   2.323   7.968 -0.3397 -0.0887  0.3492
 9603SOL    HW130531   4.139   2.404   7.972 -0.9173 -0.5039  2.6149
 9603SOL    HW230532   4.131   2.257   7.933 -0.7020 -0.1009  0.9819
 9604SOL     OW30533   4.055   7.488   6.686  0.0129  0.0988 -0.7074
 9604SOL    HW130534   4.137   7.525   6.717 -0.5983 -0.0833  1.2505
 9604SOL    HW230535   4.063   7.394   6.704 -1.4372  0.3567  1.5597
 9605SOL     OW30536   5.888   6.479   3.827 -0.0391  0.0421 -0.1945
 9605SOL    HW130537   5.915   6.459   3.917  0.1239  1.1349  0.0148
 9605SOL    HW230538   5.924   6.407   3.775  3.3134  1.3528  0.0806
 9606SOL     OW30539   8.420   7.169   5.685 -0.1920  0.1605 -0.2626
 9606SOL    HW130540   8.500   7.202   5.726 -0.8028  1.1205  0.1986
 9606SOL    HW230541   8.383   7.245   5.640 -0.1065 -0.6166 -1.6831
 9607SOL     OW30542   2.232   2.836   4.781 -0.2861  0.2893 -0.1888
 9607SOL    HW130543   2.179   2.916   4.781 -0.5403  0.1456  1.0378
 9607SOL    HW230544   2.318   2.865   4.749 -0.5045  0.9617 -0.1912
 9608SOL     OW30545   9.271   5.633   4.856 -0.0333  0.4444  0.8220
 9608SOL    HW130546   9.262   5.727   4.837  1.2422  0.4006 -0.1839
 9608SOL    HW230547   9.209   5.616   4.927 -0.3169  2.0378  0.9869
 9609SOL     OW30548   3.175   7.757   1.125 -0.4336 -0.0301 -0.2445
 9609SOL    HW130549   3.087   7.759   1.163  0.0826  3.0618  1.0466
 9609SOL    HW230550   3.218   7.683   1.168 -1.5560  0.1060  1.1767
 9610SOL     OW30551   8.538   4.997   5.134 -0.0238 -0.0248  0.0232
 9610SOL    HW130552   8.512   4.906   5.119 -0.2523  0.0592 -0.0952
 9610SOL    HW230553   8.606   4.992   5.201 -1.5543 -0.1145  1.6269
 9611SOL     OW30554   7.212   0.593   3.028 -0.1095  0.5191  0.1953
 9611SOL    HW130555   7.267   0.594   2.950 -0.8218 -1.0083 -0.3718
 9611SOL    HW230556   7.123   0.578   2.995 -0.4470  0.0235  1.2745
 9612SOL     OW30557   1.759   5.327   5.267 -0.0347  0.2086 -0.0063
 9612SOL    HW130558   1.756   5.298   5.359  0.4323  0.7149  0.1769
 9612SOL    HW230559   1.772   5.246   5.217  2.5702  0.1739  0.5925
 9613SOL     OW30560   5.242   5.350   9.304  0.4580 -0.0552  0.2272
 9613SOL    HW130561   5.329   5.310   9.296 -0.2657 -1.4889 -0.8382
 9613SOL    HW230562   5.233   5.404   9.226  0.2871 -0.1183  0.2035
 9614SOL     OW30563   8.073   7.006   1.182 -0.4878  0.5921  0.1084
 9614SOL    HW130564   8.010   7.030   1.250 -0.7559  0.5738 -0.1300
 9614SOL    HW230565   8.158   7.014   1.224 -0.6873 -0.2683  0.7140
 9615SOL     OW30566   8.414   7.134   3.739  0.2654 -0.2115 -0.2518
 9615SOL    HW130567   8.469   7.057   3.753  1.1814 -0.3840 -3.6986
 9615SOL    HW230568   8.456   7.203   3.790  0.0239 -1.6817  2.0749
 9616SOL     OW30569   8.496   7.584   3.473 -0.7937  0.4082  0.1979
 9616SOL    HW130570   8.537   7.543   3.550 -0.7226  0.0725 -0.0188
 9616SOL    HW230571   8.495   7.677   3.494  1.7011  0.6613 -0.5227
 9617SOL     OW30572   2.309   7.292   7.237  0.0320  0.2715 -0.4436
 9617SOL    HW130573   2.258   7.369   7.265  2.7751  2.3782 -0.8263
 9617SOL    HW230574   2.277   7.273   7.149 -0.7496  0.9052 -0.3085
 9618SOL     OW30575   4.460   1.893   5.980  0.1719  0.2267  0.0523
 9618SOL    HW130576   4.529   1.949   5.946 -0.4312  1.2694  0.4834
 9618SOL    HW230577   4.402   1.879   5.905  0.6687 -0.3713 -0.2232
 9619SOL     OW30578   4.394   6.208   1.770  0.2068 -0.2363  0.4678
 9619SOL    HW130579   4.317   6.264   1.773  0.9056  0.7100  1.2682
 9619SOL    HW230580   4.375   6.136   1.830 -0.5565 -0.6989 -0.3106
 9620SOL     OW30581   7.998   4.277   1.502  0.6888  0.3717  0.1279
 9620SOL    HW130582   8.020   4.370   1.507  0.2955  0.5294 -0.8852
 9620SOL    HW230583   7.907   4.272   1.533 -0.3774  0.7982 -2.6281
 9621SOL     OW30584   6.125   9.516   6.743 -0.2435 -0.7327  0.4390
 9621SOL    HW130585   6.169   9.544   6.823  0.2196 -0.3360  0.0543
 9621SOL    HW230586   6.065   9.587   6.722  1.1834  0.2006 -0.7295
 9622SOL     OW30587   4.732   5.734   9.127 -0.4160  0.5690 -0.2215
 9622SOL    HW130588   4.684   5.742   9.210 -1.3878  1.6530 -0.8672
 9622SOL    HW230589   4.665   5.739   9.060  0.5673  1.9730 -1.1468
 9623SOL     OW30590   2.690   8.652   2.274 -0.1726  0.4597  0.5038
 9623SOL    HW130591   2.759   8.651   2.340  0.9359  0.1617 -0.6150
 9623SOL    HW230592   2.609   8.644   2.324  0.4959  2.0470  1.9519
 9624SOL     OW30593   3.975   4.687   9.454  0.8714 -0.0324 -0.7277
 9624SOL    HW130594   4.057   4.699   9.502  0.0518  2.8401  0.1552
 9624SOL    HW230595   3.956   4.772   9.416 -3.0617  0.3262  1.4412
 9625SOL     OW30596   5.354   7.750   3.185 -0.2230 -0.3691  0.0454
 9625SOL    HW130597   5.437   7.790   3.213  1.9704  0.0095 -5.5632
 9625SOL    HW230598   5.366   7.656   3.202 -0.1567  0.0002  2.2777
 9626SOL     OW30599   4.423   6.920   6.093  0.0298 -0.8193  0.0915
 9626SOL    HW130600   4.477   6.995   6.069 -0.0377 -0.5367  0.8044
 9626SOL    HW230601   4.388   6.888   6.010 -0.5807  0.4315 -0.1523
 9627SOL     OW30602   1.543   7.103   0.905  0.0333 -0.3023  0.0449
 9627SOL    HW130603   1.558   7.037   0.973  2.1001  0.8297  0.7989
 9627SOL    HW230604   1.600   7.076   0.833 -1.3658 -0.9187 -0.8812
 9628SOL     OW30605   7.218   0.942   6.144  0.3163 -0.5199 -0.5073
 9628SOL    HW130606   7.135   0.897   6.132  0.5510 -0.9395 -0.5754
 9628SOL    HW230607   7.245   0.918   6.233 -1.8100  3.1932  1.3879
 9629SOL     OW30608   7.315   2.829   4.221 -0.1658 -0.0805  0.2394
 9629SOL    HW130609   7.231   2.802   4.259 -0.1934  2.0738  1.9254
 9629SOL    HW230610   7.379   2.813   4.291  0.4018  0.5458 -0.1275
 9630SOL     OW30611   1.698   0.931   9.446 -0.0086  0.2864  1.1059
 9630SOL    HW130612   1.703   0.874   9.523 -0.3162  1.2870  1.8933
 9630SOL    HW230613   1.615   0.908   9.404 -2.5684  3.1631  3.9741
 9631SOL     OW30614   6.240   1.768   1.522 -0.0764 -0.5678 -0.1179
 9631SOL    HW130615   6.152   1.798   1.543 -1.7371 -2.4476 -3.4947
 9631SOL    HW230616   6.270   1.826   1.452  1.3833 -0.0476  0.8733
 9632SOL     OW30617   2.827   9.475   6.604  0.0232  0.3258  0.1892
 9632SOL    HW130618   2.829   9.566   6.574 -3.1780  0.1301 -1.0036
 9632SOL    HW230619   2.832   9.482   6.699 -2.2510  2.0297  0.2995
 9633SOL     OW30620   4.345   0.765   3.375 -0.6019  0.2434 -0.3773
 9633SOL    HW130621   4.316   0.828   3.442  0.9555 -0.8329  1.4027
 9633SOL    HW230622   4.284   0.692   3.383 -0.7136  0.3231 -0.4909
 9634SOL     OW30623   1.596   4.682   8.434 -0.6061  0.0089 -0.4796
 9634SOL    HW130624   1.629   4.592   8.433  0.9170  0.5049  0.7823
 9634SOL    HW230625   1.583   4.704   8.342  0.4309 -1.0203 -0.8914
 9635SOL     OW30626   4.553   6.990   7.129  0.1440  0.2572 -0.1962
 9635SOL    HW130627   4.535   7.062   7.190  1.9418 -0.3334  1.1269
 9635SOL    HW230628   4.468   6.968   7.093 -0.4741  3.1313 -0.7848
 9636SOL     OW30629   6.713   4.713   1.108  0.0420  0.4623 -0.1396
 9636SOL    HW130630   6.772   4.680   1.040 -0.2565 -0.5943  0.0912
 9636SOL    HW230631   6.747   4.800   1.130  0.5859  0.4999 -1.1001
 9637SOL     OW30632   9.533   5.772   0.384  0.4960  0.4155  0.0505
 9637SOL    HW130633   9.554   5.864   0.396 -1.7090  0.7214  2.3390
 9637SOL    HW230634   9.569   5.729   0.461 -1.4768 -0.0176  0.7880
 9638SOL     OW30635   2.983   8.359   7.604 -0.1099  0.1307 -0.4820
 9638SOL    HW130636   2.947   8.275   7.633  1.4065 -0.1028  0.8385
 9638SOL    HW230637   3.040   8.337   7.530 -0.3646  0.1160 -0.6749
 9639SOL     OW30638   0.486   4.637   8.857  0.0366  0.2430 -0.3217
 9639SOL    HW130639   0.540   4.559   8.841 -0.9555 -0.6494  0.5029
 9639SOL    HW230640   0.442   4.619   8.940  1.6898  2.7753  1.2449
 9640SOL     OW30641   9.386   7.786   5.741 -0.5163 -0.0784 -0.6264
 9640SOL    HW130642   9.313   7.815   5.796  0.3220 -1.3211  1.2444
 9640SOL    HW230643   9.372   7.692   5.731  1.4414 -0.5691  0.7979
 9641SOL     OW30644   3.702   1.603   6.707  0.1077 -0.9064  0.1253
 9641SOL    HW130645   3.713   1.569   6.619  0.1920 -0.3113 -0.1005
 9641SOL    HW230646   3.631   1.551   6.744 -0.8550 -0.2688 -0.7706
 9642SOL     OW30647   5.972   7.359   4.732  1.1621  0.3162  0.3163
 9642SOL    HW130648   5.988   7.265   4.742  0.0624 -0.0509 -1.1366
 9642SOL    HW230649   5.989   7.395   4.819 -0.9779 -1.6198  1.6377
 9643SOL     OW30650   0.512   3.283   2.014  0.3069  0.5811 -0.1237
 9643SOL    HW130651   0.563   3.359   2.042 -0.7331  1.7181 -1.1856
 9643SOL    HW230652   0.438   3.279   2.075  0.7925 -0.0880  0.4309
 9644SOL     OW30653   5.033   5.849   1.757 -0.1036  0.1160 -0.3405
 9644SOL    HW130654   4.947   5.812   1.739 -0.1360  0.7304 -1.5919
 9644SOL    HW230655   5.058   5.813   1.842 -0.7706 -1.5426 -0.8157
 9645SOL     OW30656   6.612   8.726   3.373  0.2021  0.6677  0.4410
 9645SOL    HW130657   6.667   8.797   3.339  1.3303  0.4081  1.6210
 9645SOL    HW230658   6.563   8.695   3.297  0.5221  1.9536 -0.3321
 9646SOL     OW30659   0.915   2.441   4.357  0.4977 -0.2859  0.4127
 9646SOL    HW130660   0.890   2.430   4.265 -0.6659 -0.9271  0.7786
 9646SOL    HW230661   0.982   2.374   4.372 -0.1122 -0.9373  0.3028
 9647SOL     OW30662   1.479   4.413   1.188  0.2173  0.4441 -0.1664
 9647SOL    HW130663   1.552   4.418   1.250  0.5441 -1.1166 -0.3831
 9647SOL    HW230664   1.452   4.504   1.176  2.1815  1.0915 -0.1440
 9648SOL     OW30665   5.903   4.779   5.990 -0.1984 -0.2716  0.5485
 9648SOL    HW130666   5.961   4.718   5.945  0.3315 -0.7009  1.7657
 9648SOL    HW230667   5.869   4.730   6.065 -0.0143  0.7912  1.3704
 9649SOL     OW30668   2.778   6.569   8.575  0.2676 -0.4872  0.0093
 9649SOL    HW130669   2.743   6.509   8.641  2.2520 -0.9300  0.7212
 9649SOL    HW230670   2.782   6.654   8.618 -2.2503  0.1826 -0.9018
 9650SOL     OW30671   7.455   7.083   5.578  0.1754  0.1318 -0.1982
 9650SOL    HW130672   7.362   7.094   5.560  0.0351 -1.1753 -0.3497
 9650SOL    HW230673   7.459   7.049   5.667  0.4311 -0.9523 -0.6122
 9651SOL     OW30674   7.000   3.635   2.500 -0.0024 -0.0150  0.4054
 9651SOL    HW130675   7.077   3.690   2.508 -0.7294  1.4077 -1.6570
 9651SOL    HW230676   7.031   3.556   2.456  0.6940 -0.5431  1.7763
 9652SOL     OW30677   5.559   1.930   8.795 -0.1717  0.0666 -0.0640
 9652SOL    HW130678   5.498   1.862   8.823 -1.4357  0.3079 -2.0380
 9652SOL    HW230679   5.504   1.995   8.752  1.4072  0.6294 -1.3198
 9653SOL     OW30680   3.415   0.102   9.660  0.4267  0.1589 -0.1055
 9653SOL    HW130681   3.339   0.085   9.714 -0.2139  0.0605 -1.0155
 9653SOL    HW230682   3.406   0.194   9.633  0.9307  0.3166  0.2405
 9654SOL     OW30683   0.774   4.747   6.749 -0.2315 -0.2257 -0.0920
 9654SOL    HW130684   0.743   4.798   6.824 -1.9717 -0.6887 -0.4568
 9654SOL    HW230685   0.717   4.670   6.747 -0.5061 -0.0205 -2.1323
 9655SOL     OW30686   8.769   2.805   7.968  0.0686 -0.2425  0.4676
 9655SOL    HW130687   8.700   2.742   7.949 -2.1219  1.8854  0.9654
 9655SOL    HW230688   8.792   2.842   7.882  1.6266 -1.8524  0.1205
 9656SOL     OW30689   6.586   7.513   5.475  0.3588  0.8380 -0.1168
 9656SOL    HW130690   6.668   7.464   5.475  0.8017  1.4580 -2.5947
 9656SOL    HW230691   6.611   7.602   5.450 -0.9682  1.2894  0.0749
 9657SOL     OW30692   4.844   4.628   4.011  0.1051  0.3325 -0.3670
 9657SOL    HW130693   4.838   4.575   3.932  0.8105 -0.2667 -0.0304
 9657SOL    HW230694   4.913   4.587   4.063 -1.3099 -0.1431  1.2311
 9658SOL     OW30695   6.363   2.072   0.297 -0.4621 -0.0292 -0.2390
 9658SOL    HW130696   6.327   2.064   0.209 -0.3882 -0.1374 -0.2598
 9658SOL    HW230697   6.431   2.140   0.290  0.0222 -0.5230 -0.4197
 9659SOL     OW30698   0.676   5.827   9.231 -0.5947 -0.0688 -0.0214
 9659SOL    HW130699   0.672   5.774   9.151  0.8445  0.2239 -0.3199
 9659SOL    HW230700   0.594   5.877   9.230 -0.2161  0.6058 -1.8165
 9660SOL     OW30701   8.707   3.017   8.326 -0.1343 -0.4349 -0.0949
 9660SOL    HW130702   8.616   2.988   8.339 -0.2567 -0.3678 -0.7825
 9660SOL    HW230703   8.705   3.110   8.352 -0.3100 -0.3766 -0.3136
 9661SOL     OW30704   1.943   2.020   6.911 -0.2739  0.2183  0.3532
 9661SOL    HW130705   2.005   2.034   6.983 -1.6542  0.4466  1.5546
 9661SOL    HW230706   1.965   1.934   6.876  2.0089  1.1208 -0.6157
 9662SOL     OW30707   6.870   5.829   2.419 -0.3401  0.3764  0.1811
 9662SOL    HW130708   6.927   5.802   2.347 -0.3602  0.4241  0.1475
 9662SOL    HW230709   6.925   5.820   2.498 -0.3267  0.2986  0.1634
 9663SOL     OW30710   2.796   8.677   0.832 -0.2078 -0.2500  0.1808
 9663SOL    HW130711   2.798   8.643   0.922  0.6177  1.7707  0.9957
 9663SOL    HW230712   2.851   8.755   0.835 -1.7603  1.0020 -1.6343
 9664SOL     OW30713   0.161   3.432   2.673 -0.4915  0.4282  0.1265
 9664SOL    HW130714   0.173   3.501   2.738 -0.0923  0.2466  0.2487
 9664SOL    HW230715   0.141   3.354   2.724 -0.2703  0.3055  0.0272
 9665SOL     OW30716   7.696   6.204   6.143  0.1684  0.1725 -0.1385
 9665SOL    HW130717   7.731   6.131   6.092  0.0280  0.7010 -1.0187
 9665SOL    HW230718   7.759   6.216   6.214  0.4515 -0.4770 -0.2694
 9666SOL     OW30719   9.300   3.739   3.816 -0.5435 -0.5924 -0.1551
 9666SOL    HW130720   9.209   3.712   3.825 -1.2160  1.0823 -1.4448
 9666SOL    HW230721   9.301   3.798   3.741  1.6259 -0.5860 -0.2088
 9667SOL     OW30722   9.036   5.830   9.431 -0.5340  0.1450  0.2772
 9667SOL    HW130723   9.107   5.857   9.489 -0.9875  0.1165  0.8442
 9667SOL    HW230724   8.959   5.827   9.486 -0.7316 -1.1438 -0.0294
 9668SOL     OW30725   3.905   3.505   3.646 -0.4222 -0.2711 -0.4495
 9668SOL    HW130726   3.868   3.585   3.683 -1.0085  0.0844 -1.7327
 9668SOL    HW230727   3.885   3.437   3.710  1.1673  0.7639  1.2776
 9669SOL     OW30728   2.771   4.330   4.628  0.3706 -0.1468  0.1921
 9669SOL    HW130729   2.700   4.349   4.566 -0.5830  0.3994  1.3993
 9669SOL    HW230730   2.731   4.270   4.691  0.9321  0.2901  0.9793
 9670SOL     OW30731   7.271   6.057   8.066  0.0294 -0.7534  0.4834
 9670SOL    HW130732   7.248   6.000   7.992  0.6946 -1.0769  0.5174
 9670SOL    HW230733   7.317   6.131   8.025 -0.4161 -0.4737  0.4858
 9671SOL     OW30734   3.181   4.353   8.556 -0.1698  0.3475 -0.1802
 9671SOL    HW130735   3.209   4.343   8.465  0.0678 -3.3050  0.1394
 9671SOL    HW230736   3.262   4.368   8.604 -0.1607  1.1004 -0.4164
 9672SOL     OW30737   4.401   7.193   2.145 -0.1867  0.4871  0.0362
 9672SOL    HW130738   4.344   7.130   2.102 -0.6860  0.6197  0.4995
 9672SOL    HW230739   4.392   7.273   2.093  0.8240  0.0605 -0.8458
 9673SOL     OW30740   5.319   2.166   9.348  0.1524  0.2745 -0.0165
 9673SOL    HW130741   5.279   2.135   9.267  0.4118  0.9470 -0.4204
 9673SOL    HW230742   5.375   2.240   9.320  1.8511 -0.7577  0.4748
 9674SOL     OW30743   8.569   0.998   3.410  0.1430  0.1865 -0.1024
 9674SOL    HW130744   8.630   1.046   3.467 -0.4378  0.9384 -0.1152
 9674SOL    HW230745   8.531   0.932   3.468 -1.7177  2.0196  0.8793
 9675SOL     OW30746   0.386   2.105   3.488  0.0105 -0.1320  0.2008
 9675SOL    HW130747   0.323   2.093   3.558 -2.1860  1.4537 -1.3733
 9675SOL    HW230748   0.343   2.069   3.410  1.0584  0.9263 -0.9197
 9676SOL     OW30749   8.015   6.005   5.081 -0.2217 -0.3787  0.3765
 9676SOL    HW130750   8.067   5.961   5.013  0.2802 -0.8606  1.0560
 9676SOL    HW230751   7.991   5.934   5.141 -0.0442  0.1640  1.0878
 9677SOL     OW30752   1.425   6.481   2.609 -0.2783 -0.0512  0.1826
 9677SOL    HW130753   1.520   6.471   2.605 -0.4527 -1.5829 -0.6176
 9677SOL    HW230754   1.404   6.471   2.701  0.5884  3.5044  0.9461
 9678SOL     OW30755   0.541   3.755   2.270 -0.3022 -0.3487 -0.5170
 9678SOL    HW130756   0.460   3.769   2.319  0.3573 -0.8364  0.7475
 9678SOL    HW230757   0.610   3.762   2.335  0.7176  0.3404 -1.6270
 9679SOL     OW30758   8.722   9.382   5.029 -0.4812  0.3729 -0.0091
 9679SOL    HW130759   8.740   9.288   5.027 -1.1641  0.2299  0.3306
 9679SOL    HW230760   8.638   9.389   5.074  0.5362  1.2794  1.8511
 9680SOL     OW30761   0.499   7.151   5.705  0.3922  0.2412  0.2216
 9680SOL    HW130762   0.512   7.056   5.705 -2.0532 -0.1669 -0.6896
 9680SOL    HW230763   0.512   7.176   5.613 -1.4018  0.3417 -0.0367
 9681SOL     OW30764   5.196   6.736   9.259  0.4064  0.4289 -0.5164
 9681SOL    HW130765   5.182   6.738   9.164 -0.3841  0.6433 -0.4088
 9681SOL    HW230766   5.130   6.674   9.291  0.0165  1.0903 -0.0134
 9682SOL     OW30767   2.984   7.299   5.483 -0.3033  0.1725  0.2583
 9682SOL    HW130768   3.035   7.334   5.409  0.5367 -0.6179  0.4472
 9682SOL    HW230769   2.897   7.338   5.473  0.1995  1.1680 -0.3534
 9683SOL     OW30770   8.049   1.725   7.367  0.0548 -0.4495  0.5041
 9683SOL    HW130771   7.997   1.649   7.340  1.1834 -0.6545 -1.2467
 9683SOL    HW230772   8.054   1.719   7.462 -2.8718 -0.5579  0.7377
 9684SOL     OW30773   2.102   7.032   7.347  0.5352  0.2677 -0.0658
 9684SOL    HW130774   2.131   6.968   7.412 -0.6607 -0.3726 -0.1383
 9684SOL    HW230775   2.015   7.002   7.320  0.7553  0.8545 -1.5264
 9685SOL     OW30776   8.152   2.600   1.946 -0.0195 -0.4027 -0.3962
 9685SOL    HW130777   8.229   2.579   1.999  0.1618 -2.2039 -1.3200
 9685SOL    HW230778   8.103   2.663   1.999  0.3882 -1.7616  1.6824
 9686SOL     OW30779   1.951   2.200   4.124  0.6938 -0.1680 -0.1281
 9686SOL    HW130780   2.005   2.143   4.069  0.2384 -1.5362  0.7774
 9686SOL    HW230781   1.920   2.268   4.065  1.4507 -0.7346 -1.2102
 9687SOL     OW30782   3.405   1.322   5.483 -0.4427 -0.1044 -0.1233
 9687SOL    HW130783   3.418   1.228   5.493 -0.3013  0.0740  1.7143
 9687SOL    HW230784   3.396   1.335   5.388 -0.3761 -1.9368 -0.4206
 9688SOL     OW30785   4.742   0.805   3.286 -0.1761 -0.1833  0.3920
 9688SOL    HW130786   4.787   0.774   3.208 -1.0253 -1.6546  0.4498
 9688SOL    HW230787   4.708   0.726   3.328 -2.3978  0.7930  0.5949
 9689SOL     OW30788   1.193   3.292   6.455  0.3749  0.2777  0.2899
 9689SOL    HW130789   1.118   3.272   6.400  0.0635  1.2527  0.3439
 9689SOL    HW230790   1.261   3.320   6.394  0.6705 -0.5001  0.2501
 9690SOL     OW30791   4.153   9.658   5.717 -0.1604 -0.5623  0.0969
 9690SOL    HW130792   4.156   9.681   5.810 -0.5370  0.9228 -0.2214
 9690SOL    HW230793   4.228   9.705   5.679  0.1914 -1.4332 -0.3020
 9691SOL     OW30794   0.761   5.687   3.568 -0.8945 -0.5114 -0.0719
 9691SOL    HW130795   0.743   5.773   3.606  0.3800  0.1065 -0.7801
 9691SOL    HW230796   0.770   5.704   3.474  0.8352 -1.1313 -0.0560
 9692SOL     OW30797   9.190   1.770   3.684 -0.3052 -0.4153 -0.0261
 9692SOL    HW130798   9.236   1.815   3.613  1.7011 -0.8109  0.9464
 9692SOL    HW230799   9.213   1.678   3.673 -0.2653 -0.5308  0.9131
 9693SOL     OW30800   0.993   7.251   8.573  0.1194  0.3785  0.2483
 9693SOL    HW130801   1.019   7.332   8.618  0.7570 -0.0544  0.6767
 9693SOL    HW230802   0.902   7.266   8.549  1.1166  2.6670 -2.8002
 9694SOL     OW30803   8.686   7.218   9.178  0.2353 -0.1679  0.0132
 9694SOL    HW130804   8.657   7.127   9.169  1.4328 -0.4265 -2.0309
 9694SOL    HW230805   8.782   7.212   9.178  0.3564  1.1398 -1.5749
 9695SOL     OW30806   7.797   9.434   9.611  0.4596 -0.5856 -0.4364
 9695SOL    HW130807   7.753   9.478   9.684  0.6756 -0.4296 -0.3970
 9695SOL    HW230808   7.796   9.342   9.634  1.4408 -0.4395  0.2618
 9696SOL     OW30809   8.978   9.025   5.169  0.1998  0.1923  0.0624
 9696SOL    HW130810   8.953   8.959   5.234 -2.4096  2.0936  1.1418
 9696SOL    HW230811   9.014   9.097   5.221 -0.5181  1.1307 -0.7090
 9697SOL     OW30812   8.831   1.336   8.354 -0.1349  0.3942 -0.4224
 9697SOL    HW130813   8.785   1.419   8.341 -1.0333  0.1079  0.7811
 9697SOL    HW230814   8.767   1.269   8.331  0.9015 -0.0115 -2.3870
 9698SOL     OW30815   1.795   5.816   7.876  0.5309  0.0576  0.6069
 9698SOL    HW130816   1.826   5.902   7.905  0.5935  0.3853 -0.4022
 9698SOL    HW230817   1.703   5.814   7.902  0.9570 -0.2905  2.2114
 9699SOL     OW30818   8.197   4.952   4.957  0.0374 -0.0719 -0.3240
 9699SOL    HW130819   8.186   4.973   5.049  0.9375  1.1138 -0.4504
 9699SOL    HW230820   8.112   4.918   4.929  0.0341 -1.3714  1.1495
 9700SOL     OW30821   5.072   7.232   3.126  0.7100 -0.0975  0.1370
 9700SOL    HW130822   5.061   7.138   3.136 -0.0712  0.0495  0.7456
 9700SOL    HW230823   5.162   7.242   3.096  0.7287 -1.0500 -0.1589
 9701SOL     OW30824   0.767   5.047   2.842  0.9229 -0.6770  0.2408
 9701SOL    HW130825   0.781   5.080   2.753  0.2615  0.4343  0.5247
 9701SOL    HW230826   0.680   5.081   2.866  1.2886 -0.5755  1.4681
 9702SOL     OW30827   1.475   3.704   0.466  0.0889  0.3471 -0.3902
 9702SOL    HW130828   1.489   3.701   0.371 -1.8019 -0.1783 -0.6978
 9702SOL    HW230829   1.563   3.697   0.503  0.8367  0.0535 -2.0908
 9703SOL     OW30830   9.280   5.284   6.119 -0.3773 -0.1962  0.3702
 9703SOL    HW130831   9.211   5.220   6.099 -0.4112  0.1059 -0.5458
 9703SOL    HW230832   9.314   5.256   6.204 -0.9847 -0.9115  0.3959
 9704SOL     OW30833   9.409   5.405   8.712  0.3494  0.2475 -0.5618
 9704SOL    HW130834   9.398   5.334   8.649  1.6670  1.1364 -1.8367
 9704SOL    HW230835   9.396   5.363   8.797 -0.8322 -1.1071 -1.3609
 9705SOL     OW30836   3.760   7.668   3.334  0.5709 -0.5712 -0.2096
 9705SOL    HW130837   3.707   7.594   3.364 -2.3515  0.6979 -1.7702
 9705SOL    HW230838   3.804   7.636   3.255  0.5738 -1.0791 -0.0036
 9706SOL     OW30839   3.876   9.443   0.627  0.2563 -0.2503 -0.0382
 9706SOL    HW130840   3.909   9.399   0.706 -0.7849 -0.2038  0.4374
 9706SOL    HW230841   3.815   9.509   0.660 -1.5925 -1.4177 -0.9311
 9707SOL     OW30842   2.986   0.763   7.488  0.5044 -0.1717 -0.4885
 9707SOL    HW130843   3.007   0.717   7.570  0.7127  0.0510 -0.4155
 9707SOL    HW230844   3.029   0.848   7.497 -0.4136  0.2835 -0.3547
 9708SOL     OW30845   9.016   8.581   5.010 -0.8330  0.3582  0.8631
 9708SOL    HW130846   9.007   8.595   4.916  1.0673 -0.5010  0.4883
 9708SOL    HW230847   8.991   8.489   5.023 -1.7074  0.6550  1.3041
 9709SOL     OW30848   6.500   4.335   2.851  0.0147  0.1664  0.0953
 9709SOL    HW130849   6.470   4.297   2.769  0.4677  0.5511 -0.2515
 9709SOL    HW230850   6.529   4.260   2.903 -0.6822 -0.1176  0.0800
 9710SOL     OW30851   5.701   0.016   2.395 -0.1960  0.4958 -0.1460
 9710SOL    HW130852   5.678  -0.007   2.305 -1.6998 -0.9755  0.5486
 9710SOL    HW230853   5.748  -0.061   2.428 -0.4874  0.6317  0.5973
 9711SOL     OW30854   7.880   6.798   8.798 -0.3987 -0.6530 -0.1088
 9711SOL    HW130855   7.811   6.795   8.864  1.3001  0.1428  1.8314
 9711SOL    HW230856   7.843   6.849   8.726 -1.2049  1.5464  1.7307
 9712SOL     OW30857   8.875   2.337   9.326  0.0483  0.4063 -0.5076
 9712SOL    HW130858   8.930   2.307   9.253  0.5404 -1.2692  0.4917
 9712SOL    HW230859   8.938   2.364   9.393 -0.3261 -0.6791  0.3088
 9713SOL     OW30860   2.586   6.602   7.851  0.0979 -0.5219  0.0095
 9713SOL    HW130861   2.658   6.578   7.793 -0.1740  4.0912 -2.7600
 9713SOL    HW230862   2.507   6.573   7.806 -0.0452  2.0137 -1.5680
 9714SOL     OW30863   2.182   5.687   4.300  0.4364 -0.4440  0.2044
 9714SOL    HW130864   2.236   5.640   4.363  0.3142 -1.1207 -0.1913
 9714SOL    HW230865   2.103   5.710   4.349  0.0361 -1.5845  0.1128
 9715SOL     OW30866   1.842   3.005   7.511 -0.7542 -0.1813  0.0513
 9715SOL    HW130867   1.891   3.062   7.570 -2.2532  0.5957  0.6095
 9715SOL    HW230868   1.883   3.016   7.425  1.7957 -1.7306  0.9716
 9716SOL     OW30869   5.345   0.163   8.101 -0.2659 -0.1697  0.7955
 9716SOL    HW130870   5.378   0.253   8.100  0.5224 -0.4493 -0.8408
 9716SOL    HW230871   5.313   0.148   8.013 -1.0120 -1.2881  1.2377
 9717SOL     OW30872   7.027   2.290   4.589 -0.0716 -0.2975 -0.2224
 9717SOL    HW130873   7.014   2.231   4.663 -1.1329 -0.5039 -0.5602
 9717SOL    HW230874   7.082   2.240   4.528 -0.2400 -0.6037 -0.1241
 9718SOL     OW30875   8.006   7.437   6.020 -0.3537  0.0781 -0.6288
 9718SOL    HW130876   8.046   7.350   6.021 -1.2054 -0.3427 -1.2487
 9718SOL    HW230877   7.918   7.423   6.054  0.1937  1.0942  1.3073
 9719SOL     OW30878   2.018   3.523   3.561 -0.4785  0.2624 -0.2331
 9719SOL    HW130879   2.058   3.521   3.474  0.7308 -0.4658  0.3147
 9719SOL    HW230880   1.939   3.469   3.553  0.5270 -1.2351 -0.4741
 9720SOL     OW30881   2.613   7.982   1.914 -0.2047 -0.2047 -0.0468
 9720SOL    HW130882   2.673   7.974   1.840 -1.8047  2.4374 -1.8031
 9720SOL    HW230883   2.665   8.022   1.983  0.5461  0.2521 -0.8604
 9721SOL     OW30884   3.839   2.585   2.848  0.6935 -0.2937  0.6612
 9721SOL    HW130885   3.874   2.558   2.932 -0.5666  0.3186  1.4132
 9721SOL    HW230886   3.875   2.673   2.834 -1.2198  0.7817  1.9349
 9722SOL     OW30887   7.927   5.038   3.451 -0.1267  0.4745 -0.1714
 9722SOL    HW130888   7.916   4.976   3.379 -0.9791  0.8741 -0.3898
 9722SOL    HW230889   8.008   5.009   3.494 -0.0923 -0.3164 -0.7330
 9723SOL     OW30890   6.407   2.071   9.591 -0.5267  0.7073 -0.4271
 9723SOL    HW130891   6.337   2.080   9.656 -0.6556  1.9767 -0.7128
 9723SOL    HW230892   6.444   2.159   9.583 -0.4707  0.5775 -2.0142
 9724SOL     OW30893   1.247   2.885   7.863 -0.0986 -0.2777 -0.4756
 9724SOL    HW130894   1.172   2.852   7.814 -0.2272 -1.0560  0.2169
 9724SOL    HW230895   1.308   2.811   7.868  0.4866  0.1827 -0.5751
 9725SOL     OW30896   4.060   8.391   0.834 -0.4642  0.3657  0.4004
 9725SOL    HW130897   3.983   8.396   0.891 -1.6737  1.1566 -1.2343
 9725SOL    HW230898   4.032   8.339   0.759  0.7176  0.3372 -0.0496
 9726SOL     OW30899   2.157   4.561   8.016 -0.0839  0.4018  0.0936
 9726SOL    HW130900   2.167   4.576   8.110  0.6359  0.0111  0.0908
 9726SOL    HW230901   2.186   4.471   8.003 -0.6052  0.3078 -0.4421
 9727SOL     OW30902   6.176   8.136   7.886  0.4656 -0.1715 -0.4525
 9727SOL    HW130903   6.116   8.131   7.811  0.4100 -1.0951 -0.3626
 9727SOL    HW230904   6.224   8.053   7.883  0.7956 -0.0120  0.2598
 9728SOL     OW30905   0.036   6.968   2.363 -0.1177  0.3120 -0.5297
 9728SOL    HW130906  -0.012   7.048   2.381  1.8610  1.3156  0.5903
 9728SOL    HW230907   0.126   6.997   2.347  0.3753 -1.5685 -1.4695
 9729SOL     OW30908   4.618   7.791   9.055 -0.3234 -0.7792  0.7663
 9729SOL    HW130909   4.671   7.711   9.046  0.2007 -0.3042 -0.6531
 9729SOL    HW230910   4.543   7.776   8.999  0.6557  0.3907 -0.9466
 9730SOL     OW30911   6.085   4.660   6.744  0.2329 -0.7943  0.2396
 9730SOL    HW130912   6.030   4.738   6.731  2.7732  0.9212 -1.1578
 9730SOL    HW230913   6.136   4.681   6.823 -0.6998 -2.1481  1.2438
 9731SOL     OW30914   8.616   2.905   7.538 -0.1302 -0.0070 -0.1635
 9731SOL    HW130915   8.527   2.885   7.569  0.2099  1.2247  1.7383
 9731SOL    HW230916   8.639   2.829   7.485 -1.9497 -0.8102  0.0879
 9732SOL     OW30917   7.796   0.601   2.870 -0.2238 -0.5283  0.1095
 9732SOL    HW130918   7.859   0.540   2.833 -0.5367 -0.1698 -1.0642
 9732SOL    HW230919   7.816   0.685   2.829 -0.6093 -0.1184  0.7335
 9733SOL     OW30920   1.442   2.461   1.403  0.0131 -0.6545 -0.0606
 9733SOL    HW130921   1.504   2.521   1.362 -0.8540  0.6728  0.5220
 9733SOL    HW230922   1.363   2.513   1.417 -0.3647 -1.5800  1.5395
 9734SOL     OW30923   0.416   2.966   6.691 -0.1380  0.2635  0.0455
 9734SOL    HW130924   0.419   2.992   6.599 -1.0712 -0.1529 -0.1240
 9734SOL    HW230925   0.364   3.034   6.734 -0.3742  0.0485  0.1051
 9735SOL     OW30926   0.595   9.090   7.468 -0.0481 -0.2557  0.0989
 9735SOL    HW130927   0.516   9.074   7.520 -0.3234  1.4835  0.2800
 9735SOL    HW230928   0.663   9.036   7.509 -0.6557 -0.1577  1.2567
 9736SOL     OW30929   4.229   7.291   2.737 -0.5465 -0.5648  0.0811
 9736SOL    HW130930   4.192   7.256   2.818  2.4574 -0.0222  1.8534
 9736SOL    HW230931   4.251   7.214   2.686 -0.3422 -1.0286  0.8480
 9737SOL     OW30932   3.249   5.818   5.347 -0.2143 -0.0026  0.4016
 9737SOL    HW130933   3.325   5.786   5.299  0.4941  1.3295  0.5802
 9737SOL    HW230934   3.283   5.843   5.433 -0.3692  2.4831 -0.1620
 9738SOL     OW30935   1.672   0.896   4.228  0.1503 -0.7796 -0.1611
 9738SOL    HW130936   1.598   0.941   4.188 -0.5104 -0.6895  1.1213
 9738SOL    HW230937   1.694   0.949   4.305  1.3396 -0.9951 -0.3252
 9739SOL     OW30938   2.641   3.991   8.444  0.3155 -0.4595 -0.1405
 9739SOL    HW130939   2.606   3.926   8.385 -1.4153  1.0722 -0.9030
 9739SOL    HW230940   2.719   4.025   8.400  0.0203 -0.5488 -0.7384
 9740SOL     OW30941   4.384   6.011   8.323  0.1066  0.4245  0.1201
 9740SOL    HW130942   4.374   5.954   8.248  3.3974 -1.5135  0.9757
 9740SOL    HW230943   4.421   6.092   8.288  1.2035 -0.3001 -0.4025
 9741SOL     OW30944   8.303   0.163   6.095 -0.2854 -0.0865  0.0840
 9741SOL    HW130945   8.236   0.230   6.086 -1.3002 -1.1110 -0.2129
 9741SOL    HW230946   8.385   0.212   6.100 -0.8261  1.1113 -1.8103
 9742SOL     OW30947   8.048   5.103   8.825  0.4738  0.2648 -0.1105
 9742SOL    HW130948   8.129   5.096   8.875 -0.1071 -1.1336  0.6969
 9742SOL    HW230949   8.058   5.184   8.774  2.1185  0.4148  0.3922
 9743SOL     OW30950   4.085   6.554   2.936  0.7168  0.3686  0.4762
 9743SOL    HW130951   4.069   6.644   2.907 -0.8508  0.0391  0.2239
 9743SOL    HW230952   4.034   6.500   2.875  1.9421 -0.7297  0.3868
 9744SOL     OW30953   4.577   8.890   9.419  0.1835 -0.2056 -0.7768
 9744SOL    HW130954   4.573   8.942   9.499 -1.0684  1.0107 -1.5783
 9744SOL    HW230955   4.657   8.921   9.375  0.2809 -0.0888 -0.5213
 9745SOL     OW30956   1.025   9.165   3.981 -0.0677  0.4367 -0.0895
 9745SOL    HW130957   0.972   9.234   3.940  0.1261  0.9024  0.4285
 9745SOL    HW230958   0.999   9.166   4.073  0.1273 -0.0101 -0.0275
 9746SOL     OW30959   2.961   0.449   5.474  0.1593  0.0702  0.1663
 9746SOL    HW130960   3.024   0.493   5.417 -0.5946  0.2875 -0.5207
 9746SOL    HW230961   2.899   0.408   5.414 -0.3281 -0.1826  0.8304
 9747SOL     OW30962   0.238   2.251   5.099  0.1024 -0.3056  1.2809
 9747SOL    HW130963   0.205   2.221   5.184  0.5294 -1.1393  1.1624
 9747SOL    HW230964   0.322   2.206   5.088 -1.0329 -2.1772 -0.6497
 9748SOL     OW30965   4.526   3.166   4.154 -0.2223 -0.3229 -0.2495
 9748SOL    HW130966   4.557   3.227   4.221 -0.5677  0.4900 -0.8146
 9748SOL    HW230967   4.596   3.101   4.146 -0.7705 -1.2835  1.9089
 9749SOL     OW30968   4.636   6.371   5.620 -0.0014 -0.3380  0.1899
 9749SOL    HW130969   4.571   6.339   5.682 -1.3390  0.4259 -0.7611
 9749SOL    HW230970   4.668   6.293   5.575 -1.8207 -0.5673 -0.7800
 9750SOL     OW30971   3.834   9.403   3.093 -0.1435 -0.5992  0.4512
 9750SOL    HW130972   3.880   9.453   3.160 -0.0498 -0.8911  0.6042
 9750SOL    HW230973   3.897   9.337   3.065  0.3104  0.3550 -0.8868
 9751SOL     OW30974   9.130   6.238   7.355  0.0620 -0.2421 -0.6404
 9751SOL    HW130975   9.041   6.274   7.349  0.3266  0.2901 -1.7688
 9751SOL    HW230976   9.135   6.177   7.281  0.3556 -0.9258 -0.0619
 9752SOL     OW30977   0.134   6.749   2.716 -0.3030  0.4169 -0.1870
 9752SOL    HW130978   0.144   6.705   2.631 -3.0834  0.5171 -0.6695
 9752SOL    HW230979   0.137   6.843   2.695 -0.5472  0.4427 -0.1085
 9753SOL     OW30980   7.008   4.212   2.741 -0.1294 -0.1045 -0.1934
 9753SOL    HW130981   6.947   4.142   2.715 -0.1409  0.3290 -1.3823
 9753SOL    HW230982   7.014   4.268   2.664 -0.1852  1.2678  0.7676
 9754SOL     OW30983   5.475   5.192   9.239  0.3002  0.9374 -0.1993
 9754SOL    HW130984   5.534   5.182   9.164  2.2455  1.3138  1.2057
 9754SOL    HW230985   5.465   5.103   9.273 -0.9629  0.6975 -1.1427
 9755SOL     OW30986   2.382   3.971   1.821  0.0020  0.3731  0.3335
 9755SOL    HW130987   2.403   3.883   1.788 -1.3832 -0.1689  0.8138
 9755SOL    HW230988   2.363   4.022   1.743 -2.8865 -0.7960  0.1363
 9756SOL     OW30989   4.489   3.886   8.910  0.0304 -0.1816 -0.0815
 9756SOL    HW130990   4.522   3.924   8.828 -0.4245 -0.2899 -0.3197
 9756SOL    HW230991   4.396   3.869   8.893 -0.0587 -0.2454  0.4440
 9757SOL     OW30992   8.867   9.150   5.591 -0.0654  0.6514 -0.2962
 9757SOL    HW130993   8.828   9.228   5.551 -1.6638  1.0436  1.8457
 9757SOL    HW230994   8.934   9.122   5.529  0.6830  3.8296 -1.0961
 9758SOL     OW30995   4.984   9.286   8.884  0.0558  0.2166  0.1039
 9758SOL    HW130996   4.962   9.324   8.969  4.3199  1.1956  1.0150
 9758SOL    HW230997   4.990   9.361   8.825  1.7538  0.1747  0.1849
 9759SOL     OW30998   8.215   5.785   1.891  0.0255 -0.0826 -0.3537
 9759SOL    HW130999   8.198   5.878   1.909  2.4316  0.2870  0.3888
 9759SOL    HW231000   8.130   5.750   1.865 -1.4802  1.7918  1.5985
 9760SOL     OW31001   5.189   4.759   3.397 -0.3947  0.1565 -0.2733
 9760SOL    HW131002   5.112   4.804   3.362 -0.5741 -0.5919 -0.8638
 9760SOL    HW231003   5.232   4.721   3.320  1.4270  1.8172 -0.1689
 9761SOL     OW31004   3.368   8.637   2.897 -0.5065  0.3267 -0.0093
 9761SOL    HW131005   3.284   8.639   2.851 -0.7191  1.4217  0.4194
 9761SOL    HW231006   3.433   8.645   2.827 -0.7959  0.7864 -0.2308
 9762SOL     OW31007   2.406   3.954   3.510 -0.0961 -0.2820  0.7742
 9762SOL    HW131008   2.429   4.028   3.566 -3.4509  0.6275  1.1866
 9762SOL    HW231009   2.365   3.994   3.434  0.0022 -1.6763 -0.0328
 9763SOL     OW31010   7.716   2.830   5.715  0.1100 -0.4272 -0.0551
 9763SOL    HW131011   7.772   2.901   5.682  0.4234 -0.7172 -0.1516
 9763SOL    HW231012   7.704   2.850   5.807 -1.3635  0.7889 -0.4728
 9764SOL     OW31013   0.850   3.542   0.976  0.1506  0.2261 -0.0591
 9764SOL    HW131014   0.860   3.448   0.987  2.3055  0.3389 -0.5518
 9764SOL    HW231015   0.936   3.572   0.945 -0.9105  2.1461 -1.3729
 9765SOL     OW31016   3.816   2.470   8.895 -0.4751 -0.0970  0.0098
 9765SOL    HW131017   3.802   2.456   8.801 -0.1507 -0.8874  0.0746
 9765SOL    HW231018   3.821   2.382   8.932  0.4731  0.2001  0.6084
 9766SOL     OW31019   9.057   2.421   6.596  0.1750  0.4451 -0.6273
 9766SOL    HW131020   9.106   2.485   6.648  0.8817 -1.5595  1.3178
 9766SOL    HW231021   9.093   2.430   6.507 -0.2129  3.1339 -0.5967
 9767SOL     OW31022   3.134   2.236   6.052 -0.7897  0.6304 -0.0201
 9767SOL    HW131023   3.182   2.158   6.025 -0.9719 -0.0931  1.6342
 9767SOL    HW231024   3.051   2.202   6.085 -0.8840  1.5341  0.6981
 9768SOL     OW31025   6.519   8.029   1.975 -0.4858 -0.1974 -0.1267
 9768SOL    HW131026   6.462   8.050   2.048 -0.2436 -0.0662  0.0257
 9768SOL    HW231027   6.558   7.945   1.998 -0.9408 -0.4982 -0.4277
 9769SOL     OW31028   3.237   5.993   1.984  0.3603 -0.2513 -0.3095
 9769SOL    HW131029   3.213   6.016   2.074  0.4515  1.5378 -0.6949
 9769SOL    HW231030   3.298   5.920   1.993  0.2915 -0.1645  1.0773
 9770SOL     OW31031   6.558   3.115   1.048  0.2117  0.0346 -0.3977
 9770SOL    HW131032   6.555   3.207   1.075 -1.9730  0.0930 -0.6134
 9770SOL    HW231033   6.527   3.115   0.958 -0.9941 -1.0017 -0.0185
 9771SOL     OW31034   6.679   3.927   8.460  0.3197  0.2560  0.3142
 9771SOL    HW131035   6.628   3.873   8.521  0.7883  1.0900  1.4916
 9771SOL    HW231036   6.769   3.896   8.469  0.5550  1.0368  0.8250
 9772SOL     OW31037   6.196   1.300   2.543  0.0277  0.4666  0.0102
 9772SOL    HW131038   6.223   1.360   2.612 -0.0357  0.0879  0.3694
 9772SOL    HW231039   6.278   1.264   2.509  0.2128  2.3888 -1.7177
 9773SOL     OW31040   2.630   5.928   0.561  0.4176  0.1174  0.2042
 9773SOL    HW131041   2.663   5.986   0.629  2.9064 -0.3193 -0.5282
 9773SOL    HW231042   2.708   5.905   0.509 -0.8860 -1.9012 -1.0008
 9774SOL     OW31043   9.065   3.722   6.733 -0.6135  0.5379 -0.4569
 9774SOL    HW131044   9.098   3.806   6.766  1.1431  0.3357 -1.5946
 9774SOL    HW231045   9.030   3.678   6.811 -0.7895  1.9492  0.3005
 9775SOL     OW31046   7.386   4.037   0.661 -0.3554 -0.2325 -0.2360
 9775SOL    HW131047   7.384   4.082   0.746 -1.3265  0.5530 -0.6441
 9775SOL    HW231048   7.452   4.085   0.610 -2.8102  2.2692 -1.3951
 9776SOL     OW31049   3.913   0.466   0.447  0.0859  0.3251  0.4170
 9776SOL    HW131050   3.935   0.506   0.363 -1.0427  2.4093  1.0532
 9776SOL    HW231051   3.884   0.377   0.424 -3.8957  1.9771 -1.9715
 9777SOL     OW31052   5.826   1.733   2.767 -0.4170 -0.0161  0.2584
 9777SOL    HW131053   5.921   1.727   2.778 -0.5212 -0.0685  1.2676
 9777SOL    HW231054   5.796   1.643   2.780 -0.6777  0.1514  0.8386
 9778SOL     OW31055   7.733   6.045   6.521 -0.2649  0.5409  0.0926
 9778SOL    HW131056   7.651   6.092   6.502 -0.3474  1.4297  2.3058
 9778SOL    HW231057   7.787   6.110   6.567  1.9774  0.1470 -1.8323
 9779SOL     OW31058   2.027   8.317   2.120  0.0255  0.4199  0.4812
 9779SOL    HW131059   1.978   8.250   2.072 -1.0211  2.0776 -0.8860
 9779SOL    HW231060   2.114   8.315   2.081  0.1650 -0.5181  0.8324
 9780SOL     OW31061   5.283   6.890   3.183 -0.2843 -0.4052  0.0163
 9780SOL    HW131062   5.367   6.863   3.147 -0.6539 -1.4568 -0.1023
 9780SOL    HW231063   5.220   6.871   3.114 -0.7121 -0.2956  0.3710
 9781SOL     OW31064   9.665   9.582   9.060 -0.2875  0.2416  0.2622
 9781SOL    HW131065   9.722   9.594   8.984  1.2423 -1.5349  1.0492
 9781SOL    HW231066   9.622   9.498   9.045 -2.2412  1.2364  0.0199
 9782SOL     OW31067   8.924   4.017   5.361  0.3062 -0.6519  0.3422
 9782SOL    HW131068   8.829   4.028   5.370  0.3638  2.0689 -1.4198
 9782SOL    HW231069   8.940   3.928   5.392 -3.0811 -1.9871 -1.2166
 9783SOL     OW31070   5.386   0.906   0.009 -0.2058  0.5332  0.2000
 9783SOL    HW131071   5.338   0.873   0.084  0.8104  1.3394  1.2519
 9783SOL    HW231072   5.387   1.001   0.021 -1.6503  0.8648 -1.8629
 9784SOL     OW31073   0.178   7.872   9.569  0.1839  0.5575 -0.2720
 9784SOL    HW131074   0.212   7.802   9.513 -2.5954 -0.7835 -0.4417
 9784SOL    HW231075   0.181   7.950   9.513  1.4522  0.1886 -0.7688
 9785SOL     OW31076   3.031   2.676   4.472  0.0406 -0.4960 -0.1800
 9785SOL    HW131077   3.096   2.700   4.407 -0.2002 -2.3495 -1.1646
 9785SOL    HW231078   3.032   2.749   4.535  0.6123  1.1174 -1.9628
 9786SOL     OW31079   2.574   4.693   1.940  0.5269 -0.8498 -0.2196
 9786SOL    HW131080   2.611   4.741   1.866  2.1697 -0.5292  0.7830
 9786SOL    HW231081   2.604   4.603   1.928  0.7328 -0.8130  0.0223
 9787SOL     OW31082   4.673   6.959   0.067 -0.0599  0.1175 -0.2630
 9787SOL    HW131083   4.646   6.867   0.060  1.3311 -0.4274  0.8554
 9787SOL    HW231084   4.749   6.966   0.009  0.4714  0.2740  0.4359
 9788SOL     OW31085   3.320   3.446   4.855 -0.7698 -0.4174 -0.0340
 9788SOL    HW131086   3.306   3.476   4.945 -0.4929  0.6643 -0.3317
 9788SOL    HW231087   3.233   3.444   4.816 -1.0037 -1.7944  0.5120
 9789SOL     OW31088   0.231   4.108   1.337 -0.9647  0.5685 -0.4553
 9789SOL    HW131089   0.299   4.053   1.297 -0.7362  0.3725  0.1851
 9789SOL    HW231090   0.151   4.085   1.290 -0.8705 -0.3333 -0.2007
 9790SOL     OW31091   0.195   5.634   2.215  0.0930 -0.0605 -0.5799
 9790SOL    HW131092   0.187   5.543   2.185 -0.2240 -0.1157 -0.3343
 9790SOL    HW231093   0.288   5.654   2.206  0.3534 -0.7586  0.3446
 9791SOL     OW31094   8.028   4.410   7.888  0.3564 -0.6876  0.1236
 9791SOL    HW131095   8.081   4.437   7.963 -0.8847  1.0512  0.4306
 9791SOL    HW231096   7.949   4.372   7.926  0.2891 -1.0112 -0.3210
 9792SOL     OW31097   5.734   3.488   1.819 -0.7553  0.0790 -0.1340
 9792SOL    HW131098   5.726   3.496   1.725 -0.4093 -0.1231 -0.1851
 9792SOL    HW231099   5.827   3.467   1.834 -0.8200  0.0385  0.2424
 9793SOL     OW31100   5.346   8.259   8.611  0.0044  0.1021  0.4770
 9793SOL    HW131101   5.421   8.250   8.551  0.3437 -0.9124  1.0230
 9793SOL    HW231102   5.322   8.168   8.631  0.5456  0.3956  2.6688
 9794SOL     OW31103   2.410   6.248   3.603  0.3605  0.5732 -0.8197
 9794SOL    HW131104   2.454   6.166   3.626  0.4765  0.5607 -1.0822
 9794SOL    HW231105   2.387   6.287   3.687  0.9139  0.6008 -0.6759
 9795SOL     OW31106   1.781   0.384   7.380  0.2107 -0.1254 -0.1003
 9795SOL    HW131107   1.742   0.338   7.455  0.3067 -0.5035 -0.2779
 9795SOL    HW231108   1.798   0.472   7.412 -2.3763  0.6168 -0.5107
 9796SOL     OW31109   5.101   7.451   6.116 -0.3894  0.2044  0.2436
 9796SOL    HW131110   5.176   7.400   6.087  1.1390  3.0134 -1.2132
 9796SOL    HW231111   5.132   7.497   6.195 -1.8417 -1.2544  1.7457
 9797SOL     OW31112   6.081   4.912   4.325 -0.4350  0.2710  0.4283
 9797SOL    HW131113   6.109   4.991   4.279 -1.9944  0.4799 -0.2217
 9797SOL    HW231114   6.109   4.926   4.416  0.2282  1.0831  0.1165
 9798SOL     OW31115   5.780   0.574   3.367 -0.1871  0.3506 -0.6199
 9798SOL    HW131116   5.710   0.521   3.405 -1.2615  1.4853 -0.9424
 9798SOL    HW231117   5.853   0.513   3.355 -0.8881 -0.7149  0.3353
 9799SOL     OW31118   6.965   3.157   5.688 -0.3349 -0.2205  0.1284
 9799SOL    HW131119   6.966   3.252   5.692 -0.4596 -0.1834 -0.6798
 9799SOL    HW231120   6.872   3.134   5.695 -0.3276 -0.2748  0.0425
 9800SOL     OW31121   5.892   0.880   7.314  0.5042  0.7772  0.0518
 9800SOL    HW131122   5.920   0.818   7.246 -0.8119 -0.8223  0.8906
 9800SOL    HW231123   5.932   0.846   7.394  1.3581  2.1751  0.2504
 9801SOL     OW31124   0.560   7.910   5.126 -0.3510 -0.0557  0.3202
 9801SOL    HW131125   0.471   7.906   5.160 -0.8534  1.9381 -0.5879
 9801SOL    HW231126   0.614   7.869   5.194 -1.9656 -1.6559  0.7088
 9802SOL     OW31127   6.332   0.966   2.713 -0.1323  0.1854 -0.3419
 9802SOL    HW131128   6.301   1.041   2.763  0.1517  0.7258 -0.9638
 9802SOL    HW231129   6.380   0.913   2.776 -0.3218  0.5353  0.0980
 9803SOL     OW31130   2.739   6.563   4.573 -0.4610 -0.0824  0.0678
 9803SOL    HW131131   2.697   6.540   4.655 -1.0341  0.1951 -0.1392
 9803SOL    HW231132   2.668   6.598   4.519 -0.6506 -2.6902 -1.5332
 9804SOL     OW31133   5.164   6.259   7.326 -0.2505  0.0406  0.2223
 9804SOL    HW131134   5.072   6.278   7.345 -0.1048 -0.7135  1.8114
 9804SOL    HW231135   5.198   6.340   7.288 -1.0669  1.0234  1.5313
 9805SOL     OW31136   5.564   2.433   0.742  0.6138 -0.1491 -0.2419
 9805SOL    HW131137   5.513   2.508   0.773 -1.4538 -0.5764 -2.3080
 9805SOL    HW231138   5.575   2.378   0.819 -1.2337  0.4693  0.5198
 9806SOL     OW31139   6.692   0.685   1.570 -0.7522  0.0651  0.3519
 9806SOL    HW131140   6.785   0.662   1.578 -0.7676  0.5768  2.7932
 9806SOL    HW231141   6.647   0.601   1.563 -0.1848 -0.2624  0.5127
 9807SOL     OW31142   4.868   2.670   1.898 -0.5819 -0.0243  0.0007
 9807SOL    HW131143   4.825   2.597   1.853  0.9743  0.8314 -3.1679
 9807SOL    HW231144   4.845   2.747   1.846  4.4086  0.5118 -1.9319
 9808SOL     OW31145   4.330   9.635   0.191 -0.0993 -0.1014 -0.0665
 9808SOL    HW131146   4.240   9.608   0.211 -0.7015  0.2870 -1.9913
 9808SOL    HW231147   4.348   9.705   0.254 -0.4068 -1.4469  1.5936
 9809SOL     OW31148   1.350   5.756   5.296  0.5402 -0.3978 -0.0406
 9809SOL    HW131149   1.358   5.833   5.352  0.5997 -0.1462 -0.3971
 9809SOL    HW231150   1.305   5.787   5.218 -1.5337 -1.2154  0.7720
 9810SOL     OW31151   1.818   5.464   6.427 -0.2288 -0.1682 -0.0296
 9810SOL    HW131152   1.843   5.545   6.383 -0.3647 -0.3947 -0.5315
 9810SOL    HW231153   1.836   5.481   6.519 -0.0585  0.3585 -0.1528
 9811SOL     OW31154   8.696   5.532   2.714  0.3111 -0.0806  0.5490
 9811SOL    HW131155   8.650   5.556   2.795 -2.5794  0.4918 -1.0946
 9811SOL    HW231156   8.747   5.610   2.691 -1.1576  0.8782  0.3855
 9812SOL     OW31157   7.231   7.414   0.480  0.1130 -0.0779 -0.2282
 9812SOL    HW131158   7.151   7.458   0.510  0.8117  0.5959  0.6894
 9812SOL    HW231159   7.200   7.332   0.442 -1.2430  1.1703 -2.0072
 9813SOL     OW31160   4.452   2.798   7.277  0.2661  0.0963  0.3870
 9813SOL    HW131161   4.424   2.708   7.290 -0.2338  0.5463  3.0662
 9813SOL    HW231162   4.372   2.847   7.258  0.6507 -0.1102 -1.9837
 9814SOL     OW31163   3.059   9.129   8.952  0.2693 -0.1957  0.5222
 9814SOL    HW131164   3.046   9.113   8.859  2.1384 -0.4438  0.2684
 9814SOL    HW231165   3.005   9.062   8.995  1.0259 -1.4685 -0.4309
 9815SOL     OW31166   6.222   3.428   6.278 -0.3513  0.3118 -0.1958
 9815SOL    HW131167   6.267   3.444   6.361 -0.3546  1.3700 -0.3787
 9815SOL    HW231168   6.129   3.423   6.302 -0.4037  1.1771 -0.1989
 9816SOL     OW31169   8.457   1.574   4.046 -0.6200  0.1518 -0.2266
 9816SOL    HW131170   8.524   1.618   4.098 -1.9014  0.1123  1.5596
 9816SOL    HW231171   8.471   1.480   4.063 -0.4409  0.0798 -0.7525
 9817SOL     OW31172   9.204   9.347   6.867 -0.8404  0.0271 -0.4139
 9817SOL    HW131173   9.299   9.344   6.858 -0.9805 -0.5208 -2.0749
 9817SOL    HW231174   9.189   9.408   6.939  0.7598  0.2339 -0.2132
 9818SOL     OW31175   5.374   4.269   2.715  0.6359 -0.4163  0.2966
 9818SOL    HW131176   5.319   4.224   2.651 -0.1012  0.8976 -0.0530
 9818SOL    HW231177   5.415   4.340   2.665 -0.2502  0.8731  1.3313
 9819SOL     OW31178   8.633   0.621   7.505  0.0397 -0.0926  0.0451
 9819SOL    HW131179   8.640   0.558   7.433  1.2457  0.6213 -0.5000
 9819SOL    HW231180   8.592   0.698   7.465  2.1382  0.8970 -0.3426
 9820SOL     OW31181   4.096   9.229   9.117  0.6494 -0.2509 -0.3492
 9820SOL    HW131182   4.101   9.323   9.105  0.4577 -0.3289 -1.0657
 9820SOL    HW231183   4.140   9.192   9.041 -0.3946 -0.7529 -0.7301
 9821SOL     OW31184   3.399   2.303   6.186  0.1317 -0.0145 -0.3130
 9821SOL    HW131185   3.342   2.233   6.153 -0.0679 -0.5982  1.1795
 9821SOL    HW231186   3.349   2.383   6.171 -2.6768 -0.6928  3.7126
 9822SOL     OW31187   8.779   5.039   2.710 -0.4526  0.3944 -0.6844
 9822SOL    HW131188   8.858   5.034   2.657 -0.1535  0.2660 -0.2284
 9822SOL    HW231189   8.735   5.119   2.682 -1.5885 -0.9241 -2.9285
 9823SOL     OW31190   5.060   8.837   0.966 -0.0461  0.5984 -0.1597
 9823SOL    HW131191   5.125   8.895   0.925 -0.5610  1.6866  0.5239
 9823SOL    HW231192   5.045   8.874   1.053  0.2697 -1.0972  0.6528
 9824SOL     OW31193   6.398   2.048   4.425 -0.0309 -0.5276 -0.1574
 9824SOL    HW131194   6.470   2.087   4.374 -0.5157 -1.3044 -1.4667
 9824SOL    HW231195   6.366   2.120   4.479  0.5902  0.2893 -0.8487
 9825SOL     OW31196   6.986   8.243   4.728 -0.0340  0.2984  0.3443
 9825SOL    HW131197   7.032   8.186   4.666 -1.6856 -2.2827  1.3376
 9825SOL    HW231198   6.930   8.297   4.673  0.4561 -0.0915 -0.5689
 9826SOL     OW31199   0.536   7.502   1.468  0.0596  0.3532  0.0993
 9826SOL    HW131200   0.447   7.536   1.472 -0.5777 -1.2172 -0.2114
 9826SOL    HW231201   0.559   7.506   1.375 -0.0184 -0.0600  0.0622
 9827SOL     OW31202   0.188   4.371   5.717  0.2420  0.0745  0.1245
 9827SOL    HW131203   0.094   4.387   5.707  0.3726  0.6538 -0.1807
 9827SOL    HW231204   0.216   4.337   5.632  0.4130  0.4313  0.0357
 9828SOL     OW31205   8.309   4.756   6.746  0.1554  0.0699 -0.1914
 9828SOL    HW131206   8.297   4.851   6.756 -0.0241  0.0803 -0.4922
 9828SOL    HW231207   8.372   4.733   6.815 -1.2116  0.0954  1.1259
 9829SOL     OW31208   7.256   0.845   4.012  0.1132  0.0375  0.7487
 9829SOL    HW131209   7.315   0.906   3.967 -1.9249  0.5904 -1.3987
 9829SOL    HW231210   7.304   0.762   4.015  1.1698  0.5764 -0.5394
 9830SOL     OW31211   3.786   6.331   5.015 -0.6825 -0.4401 -0.3090
 9830SOL    HW131212   3.693   6.334   5.039 -0.4796 -0.6687  0.5368
 9830SOL    HW231213   3.795   6.251   4.964 -1.0469 -0.1525 -0.8331
 9831SOL     OW31214   8.871   8.065   8.069 -0.1793  0.0425  0.5246
 9831SOL    HW131215   8.815   8.031   7.999 -1.4233  1.6264  0.6771
 9831SOL    HW231216   8.826   8.042   8.150 -1.1158  2.0217  0.6284
 9832SOL     OW31217   3.747   3.006   0.339 -0.7106  0.5916  0.2989
 9832SOL    HW131218   3.811   3.048   0.397  0.7264 -1.7641  0.5737
 9832SOL    HW231219   3.797   2.986   0.260 -2.0675  1.7316 -0.9036
 9833SOL     OW31220   7.902   6.517   6.722 -0.1073 -0.0056  0.2829
 9833SOL    HW131221   7.877   6.507   6.813 -1.7704  0.3065 -0.0987
 9833SOL    HW231222   7.868   6.603   6.696 -0.0643 -0.2724 -0.7357
 9834SOL     OW31223   7.447   9.587   0.180 -0.1069 -0.3429  0.1857
 9834SOL    HW131224   7.542   9.592   0.171  0.0823 -0.5725  1.7099
 9834SOL    HW231225   7.428   9.632   0.262 -1.4073  0.3598 -0.4685
 9835SOL     OW31226   8.158   7.264   6.320  1.1646 -0.4356 -0.4134
 9835SOL    HW131227   8.115   7.259   6.406  0.9509 -0.8190 -0.5405
 9835SOL    HW231228   8.250   7.244   6.338  1.1564 -0.3263 -0.2461
 9836SOL     OW31229   3.725   5.442   8.733 -0.4841 -0.0340  0.0813
 9836SOL    HW131230   3.712   5.466   8.641 -0.7928  0.8271  0.3316
 9836SOL    HW231231   3.708   5.348   8.737  2.1893 -0.6511 -1.2239
 9837SOL     OW31232   7.366   6.732   7.858 -0.1062  0.1077  0.4291
 9837SOL    HW131233   7.358   6.781   7.940 -2.2684 -0.4028  0.5817
 9837SOL    HW231234   7.457   6.747   7.830  0.3883  1.1205  2.3700
 9838SOL     OW31235   9.676   6.590   6.487 -0.0962  0.2523  0.8641
 9838SOL    HW131236   9.637   6.675   6.469 -0.7400  0.1024  1.5120
 9838SOL    HW231237   9.625   6.555   6.560  0.3922 -0.5333  0.8412
 9839SOL     OW31238   3.902   3.414   5.548 -0.1594 -0.6240  0.1928
 9839SOL    HW131239   3.851   3.343   5.509  0.6325 -1.1064  0.0315
 9839SOL    HW231240   3.884   3.489   5.492 -0.0396 -0.9951 -0.3501
 9840SOL     OW31241   0.867   5.525   0.901 -0.0262  0.1058 -0.0395
 9840SOL    HW131242   0.911   5.597   0.855  0.7405 -0.3447 -0.0191
 9840SOL    HW231243   0.863   5.555   0.992 -0.6536  0.5685 -0.2101
 9841SOL     OW31244   7.874   2.631   0.154  0.0637 -0.6661  0.7258
 9841SOL    HW131245   7.809   2.562   0.144 -0.4209  0.0403 -1.5367
 9841SOL    HW231246   7.839   2.705   0.105  2.8899 -0.5184 -1.3004
 9842SOL     OW31247   0.462   9.175   9.328 -0.0879 -0.1228 -0.0494
 9842SOL    HW131248   0.488   9.209   9.243 -1.1515 -0.8864 -0.7125
 9842SOL    HW231249   0.461   9.080   9.316 -1.8470 -0.1868  0.2950
 9843SOL     OW31250   1.369   4.302   1.901 -0.1834  0.3688  0.1764
 9843SOL    HW131251   1.302   4.366   1.926 -0.8760 -0.4386  0.4275
 9843SOL    HW231252   1.370   4.239   1.973  0.9245  0.4170  0.2198
 9844SOL     OW31253   6.057   4.636   7.223 -1.4983 -0.0127 -0.0571
 9844SOL    HW131254   6.100   4.578   7.161  1.0622 -0.2679  1.7980
 9844SOL    HW231255   6.114   4.713   7.227 -0.0262 -1.0656  3.7455
 9845SOL     OW31256   2.699   6.226   7.341  0.3689  0.3210  0.1217
 9845SOL    HW131257   2.731   6.218   7.431  1.3672  1.7596 -0.0784
 9845SOL    HW231258   2.774   6.259   7.292 -0.4378  0.4305 -1.0716
 9846SOL     OW31259   3.459   9.371   3.309  0.2086  0.2323  0.0249
 9846SOL    HW131260   3.428   9.342   3.395  0.2134  0.3647  0.0698
 9846SOL    HW231261   3.511   9.297   3.277  1.0299  0.5647  0.5568
 9847SOL     OW31262   4.575   9.089   1.558  0.6170 -0.1667  0.2153
 9847SOL    HW131263   4.571   9.067   1.465  1.0067 -1.4742  0.4892
 9847SOL    HW231264   4.497   9.049   1.595 -0.5422  1.8913  0.2019
 9848SOL     OW31265   8.298   5.238   9.429  0.2737 -0.6112 -0.1681
 9848SOL    HW131266   8.273   5.329   9.449  1.3761  0.0588 -1.6053
 9848SOL    HW231267   8.368   5.218   9.492  1.0750  0.0961 -0.8142
 9849SOL     OW31268   8.541   6.150   7.640  0.0185  0.0036 -0.1051
 9849SOL    HW131269   8.452   6.176   7.663  0.1566  0.1132  0.3091
 9849SOL    HW231270   8.546   6.161   7.545 -0.7305 -0.9734 -0.2667
 9850SOL     OW31271   6.493   0.888   0.774 -0.5302  0.2134  0.3204
 9850SOL    HW131272   6.449   0.846   0.701  2.1462  0.5792 -1.6626
 9850SOL    HW231273   6.559   0.824   0.803 -1.8436 -0.1251  2.8230
 9851SOL     OW31274   8.115   9.674   1.381  0.0653  0.3460 -0.7046
 9851SOL    HW131275   8.152   9.598   1.336 -0.4183 -1.2798  1.5324
 9851SOL    HW231276   8.179   9.696   1.448 -0.5743  0.8639 -0.2557
 9852SOL     OW31277   4.425   2.299   2.669  0.1237 -0.9827 -0.5005
 9852SOL    HW131278   4.521   2.293   2.667  0.1372 -0.7794 -0.4879
 9852SOL    HW231279   4.397   2.265   2.584  0.2123 -0.9423 -0.5463
 9853SOL     OW31280   0.513   6.898   5.939 -0.1814 -0.9004 -0.1896
 9853SOL    HW131281   0.537   6.887   5.847 -0.7670  0.8422 -0.5856
 9853SOL    HW231282   0.418   6.911   5.938 -0.0289  0.4767  0.4907
 9854SOL     OW31283   5.451   5.121   5.946 -0.0799 -0.2668 -0.3932
 9854SOL    HW131284   5.513   5.096   6.015  0.1813 -0.1041 -0.5659
 9854SOL    HW231285   5.486   5.081   5.866 -1.0865 -1.5792 -0.2260
 9855SOL     OW31286   5.715   0.679   6.953 -0.1473  0.5714 -0.0081
 9855SOL    HW131287   5.678   0.602   6.912  1.5968  0.3222 -1.2194
 9855SOL    HW231288   5.720   0.744   6.883  0.7348  0.9179  0.3585
 9856SOL     OW31289   7.846   2.846   1.338 -0.1508 -0.3028  0.5072
 9856SOL    HW131290   7.792   2.784   1.291  0.0893  0.0116 -0.2037
 9856SOL    HW231291   7.936   2.814   1.326  0.2590  1.5164 -2.0683
 9857SOL     OW31292   6.076   1.363   6.936 -0.0264 -0.0844 -0.2804
 9857SOL    HW131293   6.148   1.303   6.915  0.1814  0.6454 -1.7614
 9857SOL    HW231294   5.998   1.319   6.901  0.1919  0.6849 -1.8341
 9858SOL     OW31295   7.282   3.395   9.089 -0.4018 -0.0082 -0.3677
 9858SOL    HW131296   7.351   3.355   9.142 -1.7055 -1.6167  0.2209
 9858SOL    HW231297   7.260   3.328   9.023  1.0879  1.8772 -2.9836
 9859SOL     OW31298   2.778   1.461   0.957  0.0516 -0.1978 -0.5085
 9859SOL    HW131299   2.827   1.497   0.883 -1.6165  0.2556 -1.4426
 9859SOL    HW231300   2.739   1.537   1.000 -0.0887 -0.5741  0.0482
 9860SOL     OW31301   2.412   7.503   5.729  0.5270  0.0182  0.0449
 9860SOL    HW131302   2.473   7.566   5.767 -0.8918  0.7215  1.2525
 9860SOL    HW231303   2.397   7.439   5.799 -0.4671  0.1232 -0.0623
 9861SOL     OW31304   9.008   5.729   0.018  0.6573 -0.0353  0.1060
 9861SOL    HW131305   8.993   5.766   0.106  0.4452  0.6014 -0.1928
 9861SOL    HW231306   9.103   5.724   0.011  0.6704 -0.4437  0.5169
 9862SOL     OW31307   3.384   7.686   0.536  0.6257 -0.3493  0.3891
 9862SOL    HW131308   3.289   7.698   0.541  0.7744  0.5337  1.5372
 9862SOL    HW231309   3.400   7.602   0.578  0.3792 -0.3221  0.5381
 9863SOL     OW31310   3.896   1.454   0.967  0.1933  0.7503  0.2185
 9863SOL    HW131311   3.860   1.397   1.034 -1.1055  2.3296  0.9392
 9863SOL    HW231312   3.927   1.531   1.015 -0.3309  1.7031 -0.9108
 9864SOL     OW31313   0.110   1.707   6.409  0.7304 -0.7754 -0.7732
 9864SOL    HW131314   0.084   1.660   6.488  1.0476  0.0197 -0.1850
 9864SOL    HW231315   0.033   1.701   6.352  0.1948 -0.6458 -0.0787
 9865SOL     OW31316   4.845   6.658   5.850 -0.2408 -0.3824 -0.3584
 9865SOL    HW131317   4.771   6.719   5.863  0.4663  0.7761 -1.4781
 9865SOL    HW231318   4.875   6.637   5.938 -0.2874  1.2157  0.0710
 9866SOL     OW31319   2.771   8.686   6.871  0.1866  0.1261  0.2198
 9866SOL    HW131320   2.681   8.712   6.890 -0.6559 -1.9155 -0.6618
 9866SOL    HW231321   2.795   8.740   6.795 -0.1942  0.8542  0.6019
 9867SOL     OW31322   5.497   0.018   8.919  0.2315 -0.2061 -0.2565
 9867SOL    HW131323   5.585  -0.003   8.887  0.5946 -0.4519  0.8487
 9867SOL    HW231324   5.510   0.093   8.976 -0.4098  0.2634 -0.7220
 9868SOL     OW31325   4.129   2.248   0.664 -0.5450 -0.2280 -1.1042
 9868SOL    HW131326   4.045   2.203   0.674 -1.3948  1.4097 -0.4916
 9868SOL    HW231327   4.170   2.205   0.590 -0.9512 -2.4961 -0.1111
 9869SOL     OW31328   4.417   8.676   1.052  0.0172 -0.5180  0.5804
 9869SOL    HW131329   4.331   8.634   1.045 -1.3981  2.1301  0.9444
 9869SOL    HW231330   4.452   8.674   0.963 -0.8663 -0.7398  0.2304
 9870SOL     OW31331   6.848   2.323   6.977  0.3493  0.2184  0.2218
 9870SOL    HW131332   6.926   2.268   6.986  2.6525  3.4843  2.7754
 9870SOL    HW231333   6.858   2.364   6.891  1.2835  0.3013  0.3564
 9871SOL     OW31334   5.450   9.689   6.234 -0.4697 -0.0337 -0.1812
 9871SOL    HW131335   5.366   9.695   6.188 -0.6142  0.4257  0.1276
 9871SOL    HW231336   5.508   9.749   6.186 -0.6271  0.4641  0.2394
 9872SOL     OW31337   1.867   2.262   9.673  0.8603 -0.0752 -0.9794
 9872SOL    HW131338   1.870   2.201   9.599  0.5770 -1.6893  0.2976
 9872SOL    HW231339   1.959   2.284   9.689  1.0943 -1.2885 -0.5687
 9873SOL     OW31340   4.072   1.328   4.138 -0.5193 -0.4240  0.2695
 9873SOL    HW131341   3.983   1.341   4.171  0.3622  0.8247  2.3703
 9873SOL    HW231342   4.105   1.252   4.186 -0.0617 -0.1696  0.3593
 9874SOL     OW31343   9.272   0.888   5.541  0.1287  0.2053  0.4070
 9874SOL    HW131344   9.303   0.810   5.588 -1.0252 -0.0333  0.8157
 9874SOL    HW231345   9.260   0.954   5.609  1.4406  0.8805  0.0176
 9875SOL     OW31346   2.795   8.267   0.771 -0.5793  0.0726 -0.2810
 9875SOL    HW131347   2.849   8.217   0.709 -0.4737 -1.9065  1.3210
 9875SOL    HW231348   2.714   8.217   0.779 -0.5125  0.1715  1.3248
 9876SOL     OW31349   1.268   0.546   1.822 -0.0603  0.3153  0.4485
 9876SOL    HW131350   1.232   0.464   1.856 -0.5452 -0.1769 -1.1887
 9876SOL    HW231351   1.360   0.543   1.848 -0.2654 -0.3356  1.1586
 9877SOL     OW31352   9.500   9.177   6.312 -0.3679 -0.1226  0.2898
 9877SOL    HW131353   9.434   9.116   6.280  0.1690 -1.4293  1.5573
 9877SOL    HW231354   9.538   9.134   6.389  0.2566  1.6820  1.0642
 9878SOL     OW31355   1.199   9.618   6.019 -0.0041 -0.4581 -0.0342
 9878SOL    HW131356   1.286   9.656   6.005 -0.2019 -0.1608 -0.4679
 9878SOL    HW231357   1.170   9.593   5.932 -0.2488 -0.7944  0.1432
 9879SOL     OW31358   1.366   9.321   7.659  0.1871  0.0282 -0.5749
 9879SOL    HW131359   1.302   9.361   7.600 -0.6527  0.1127  0.3659
 9879SOL    HW231360   1.315   9.296   7.736  0.9069 -1.8450 -0.6727
 9880SOL     OW31361   8.600   8.976   4.840 -0.4484 -0.7675  0.0560
 9880SOL    HW131362   8.675   9.034   4.828 -1.3885  0.4744 -0.0791
 9880SOL    HW231363   8.638   8.892   4.865  1.0269 -0.4733 -1.0775
 9881SOL     OW31364   3.195   1.459   9.508 -0.3637 -0.2002  0.5275
 9881SOL    HW131365   3.160   1.530   9.455  0.4219  0.2144  0.5560
 9881SOL    HW231366   3.197   1.493   9.597 -0.3392 -0.3896  0.6005
 9882SOL     OW31367   6.343   7.236   1.067  0.0978 -0.2585  0.3046
 9882SOL    HW131368   6.415   7.195   1.020 -1.5768  0.0622 -2.7867
 9882SOL    HW231369   6.349   7.328   1.045 -2.0698 -0.4365 -1.3405
 9883SOL     OW31370   8.798   3.359   1.976  0.3486  0.4281 -0.1857
 9883SOL    HW131371   8.712   3.336   1.940  0.1144 -0.3369  0.8358
 9883SOL    HW231372   8.843   3.403   1.903 -0.1566 -0.9508 -1.3906
 9884SOL     OW31373   6.916   6.967   7.141  0.0629 -0.0177  0.5048
 9884SOL    HW131374   6.962   6.883   7.134 -0.6954 -0.5424  1.6027
 9884SOL    HW231375   6.929   7.007   7.055 -0.1637 -1.5759 -0.3054
 9885SOL     OW31376   2.340   7.679   4.558  0.2140 -0.1374 -0.2551
 9885SOL    HW131377   2.300   7.662   4.472 -0.0884  3.2115 -0.9050
 9885SOL    HW231378   2.266   7.687   4.618  0.3019 -0.4104 -0.1110
 9886SOL     OW31379   0.291   6.354   4.894 -0.1828 -0.3872 -0.1775
 9886SOL    HW131380   0.378   6.326   4.865  0.4800  0.6787  0.7056
 9886SOL    HW231381   0.234   6.281   4.871  0.8890 -1.0008 -1.0257
 9887SOL     OW31382   9.633   9.657   4.826 -0.3985  0.2058  0.2536
 9887SOL    HW131383   9.561   9.680   4.884 -1.7077 -0.8265 -0.8765
 9887SOL    HW231384   9.643   9.732   4.768 -0.7793  0.2338  0.2252
 9888SOL     OW31385   7.648   0.224   0.612  0.1585 -0.2232  0.3189
 9888SOL    HW131386   7.659   0.180   0.696 -1.3285 -0.5610  0.3775
 9888SOL    HW231387   7.580   0.289   0.628  0.1472 -0.0185 -0.5174
 9889SOL     OW31388   7.452   5.698   2.889 -0.2641 -0.6014 -0.0210
 9889SOL    HW131389   7.422   5.695   2.979  0.1250  0.6405  0.1737
 9889SOL    HW231390   7.437   5.609   2.855 -1.1933 -0.8463  0.9929
 9890SOL     OW31391   4.321   8.906   5.459 -0.2071  0.3102  0.0119
 9890SOL    HW131392   4.257   8.839   5.436  1.1724 -0.1654 -2.8877
 9890SOL    HW231393   4.298   8.981   5.405  0.6278  0.7416  0.2290
 9891SOL     OW31394   1.904   9.019   8.125  0.0981  0.1766  0.9819
 9891SOL    HW131395   1.813   9.039   8.100 -0.6768 -2.2948  1.5462
 9891SOL    HW231396   1.904   8.924   8.139  3.4984 -0.4248 -1.8988
 9892SOL     OW31397   1.204   7.494   2.907  0.2083 -0.4135 -0.2205
 9892SOL    HW131398   1.118   7.491   2.864  1.2350  0.5315 -2.4909
 9892SOL    HW231399   1.184   7.520   2.997 -1.9670 -1.3985 -0.3520
 9893SOL     OW31400   8.423   2.295   8.171 -0.4384  0.1054  0.2131
 9893SOL    HW131401   8.419   2.204   8.141  2.2875 -0.3442  0.9904
 9893SOL    HW231402   8.393   2.291   8.262  0.9452 -0.3012  0.6800
 9894SOL     OW31403   8.016   1.047   8.350  0.5003  0.1056 -0.2766
 9894SOL    HW131404   8.015   0.970   8.293 -1.3005 -0.7545  0.8323
 9894SOL    HW231405   7.994   1.120   8.292  1.1698 -0.3406 -1.1253
 9895SOL     OW31406   1.034   2.898   9.000  0.3788 -0.0190 -0.8937
 9895SOL    HW131407   1.127   2.892   8.976  0.8262 -0.4111  0.7998
 9895SOL    HW231408   0.991   2.833   8.945  1.0481  0.3800 -1.9152
 9896SOL     OW31409   6.069   6.874   9.255  0.3003 -0.1344  0.4484
 9896SOL    HW131410   6.081   6.968   9.266  0.3849  0.0148 -0.7740
 9896SOL    HW231411   6.158   6.838   9.249  0.2599 -0.1039 -0.4422
 9897SOL     OW31412   4.618   5.731   6.123  0.3893  0.2152  0.2035
 9897SOL    HW131413   4.678   5.699   6.055 -0.9043 -0.2350 -0.7523
 9897SOL    HW231414   4.533   5.696   6.098  0.0999 -1.2475  2.8972
 9898SOL     OW31415   3.461   1.400   6.117 -0.2269 -0.1777 -0.3807
 9898SOL    HW131416   3.474   1.490   6.146 -0.0473  0.0357 -1.1148
 9898SOL    HW231417   3.483   1.401   6.024 -1.1875 -0.7592 -0.6265
 9899SOL     OW31418   2.855   5.474   6.094  0.1800  0.0552  0.5609
 9899SOL    HW131419   2.943   5.511   6.087 -0.8619  2.9904  1.4495
 9899SOL    HW231420   2.807   5.537   6.147 -2.5732 -1.3133 -0.1286
 9900SOL     OW31421   7.146   8.339   7.964  0.1774 -0.0553  0.6482
 9900SOL    HW131422   7.149   8.247   7.991 -0.2997 -0.0805  0.6367
 9900SOL    HW231423   7.113   8.386   8.041  1.1951  0.2296  0.9288
 9901SOL     OW31424   7.673   4.856   2.216  0.2630 -0.5240 -0.0857
 9901SOL    HW131425   7.685   4.891   2.304 -0.5972 -0.3854 -0.0128
 9901SOL    HW231426   7.701   4.927   2.158  1.2577 -0.7781  0.0673
 9902SOL     OW31427   3.716   0.052   6.644  0.1366 -0.0403 -0.2966
 9902SOL    HW131428   3.696   0.126   6.702  0.8178 -0.5573  0.6213
 9902SOL    HW231429   3.630   0.023   6.613 -0.2908 -0.0689  0.8667
 9903SOL     OW31430   1.268   4.766   5.436  0.1577 -0.1628 -0.0495
 9903SOL    HW131431   1.251   4.860   5.441 -1.0311 -0.4324  1.7334
 9903SOL    HW231432   1.357   4.760   5.401  1.4179  1.7674  2.4327
 9904SOL     OW31433   2.357   9.470   5.830 -0.4969  0.3214  0.8535
 9904SOL    HW131434   2.291   9.429   5.885 -1.5740 -0.4983 -0.9752
 9904SOL    HW231435   2.439   9.426   5.855 -1.1591 -0.8980  0.9471
 9905SOL     OW31436   3.739   2.927   3.022 -0.7250  0.2774  0.7130
 9905SOL    HW131437   3.817   2.905   3.073 -0.1205  0.3787 -0.1510
 9905SOL    HW231438   3.706   3.007   3.061  1.3976  2.0147 -0.8033
 9906SOL     OW31439   0.781   0.494   3.517  0.1236 -0.0158 -0.2342
 9906SOL    HW131440   0.831   0.574   3.533 -2.1353  1.3162  0.5434
 9906SOL    HW231441   0.781   0.485   3.421 -0.2911  1.4127 -0.3877
 9907SOL     OW31442   2.892   9.378   9.472 -0.0511  0.4314 -0.2863
 9907SOL    HW131443   2.870   9.365   9.565  0.7569 -1.7441 -0.3469
 9907SOL    HW231444   2.809   9.402   9.431 -1.4720 -2.8528  0.3264
 9908SOL     OW31445   8.248   2.017   1.773  0.3361 -0.2342  0.3064
 9908SOL    HW131446   8.330   2.013   1.725 -0.0673  1.2660 -0.5879
 9908SOL    HW231447   8.231   1.927   1.799  1.3603 -0.8656 -1.0567
 9909SOL     OW31448   3.292   6.338   6.631 -0.3348  0.2161 -0.3745
 9909SOL    HW131449   3.226   6.407   6.636 -0.0558  0.7012 -2.3179
 9909SOL    HW231450   3.371   6.382   6.599 -0.2370 -1.0187 -1.9705
 9910SOL     OW31451   1.235   5.300   5.568  0.6038  0.0982 -0.1247
 9910SOL    HW131452   1.319   5.281   5.610  0.6840  0.4692 -0.1164
 9910SOL    HW231453   1.234   5.395   5.557 -0.2085  0.2017  0.7140
 9911SOL     OW31454   2.119   7.200   8.740 -0.3728 -0.2129  0.1388
 9911SOL    HW131455   2.118   7.109   8.710  0.4440 -0.0820 -0.3132
 9911SOL    HW231456   2.209   7.229   8.725  0.0217 -0.0519  2.5017
 9912SOL     OW31457   0.533   7.367   5.101 -0.3787  0.2898 -0.6959
 9912SOL    HW131458   0.519   7.422   5.024 -1.1798 -0.7290 -1.3064
 9912SOL    HW231459   0.476   7.291   5.087 -0.1483 -0.1631  0.6582
 9913SOL     OW31460   2.951   5.583   2.675  0.4399  0.2104 -0.2505
 9913SOL    HW131461   2.883   5.516   2.667  0.2739 -0.0064  2.1530
 9913SOL    HW231462   3.028   5.535   2.704  0.4105  0.9566  1.1785
 9914SOL     OW31463   4.925   0.967   3.529  0.2056  0.0542  0.7860
 9914SOL    HW131464   4.885   0.881   3.543  0.7000 -0.2217  0.5466
 9914SOL    HW231465   4.922   1.010   3.614  0.0022 -0.2213  0.9181
 9915SOL     OW31466   6.004   2.561   6.981 -0.2010 -0.2598  0.6432
 9915SOL    HW131467   5.913   2.539   6.998  0.0530 -0.6866  1.5131
 9915SOL    HW231468   6.032   2.499   6.913 -0.2487 -0.8628  1.1686
 9916SOL     OW31469   9.433   4.290   7.912 -0.2154 -0.0855  0.2529
 9916SOL    HW131470   9.423   4.334   7.828 -0.5178 -1.3318 -0.3850
 9916SOL    HW231471   9.366   4.221   7.911 -0.1746 -0.1566  1.4813
 9917SOL     OW31472   3.065   0.643   2.458  0.1394  0.2211  0.7375
 9917SOL    HW131473   3.127   0.715   2.450  1.3878 -0.6834  1.9720
 9917SOL    HW231474   3.023   0.638   2.371  0.3233  2.1210  0.4953
 9918SOL     OW31475   2.633   8.355   1.721  0.1468  0.3566  0.6015
 9918SOL    HW131476   2.612   8.376   1.812 -1.1887  1.4855  0.0854
 9918SOL    HW231477   2.700   8.419   1.696  1.0918 -0.4592  1.0005
 9919SOL     OW31478   9.605   3.592   8.544  0.4690  0.1080 -0.2224
 9919SOL    HW131479   9.605   3.499   8.524  0.9903 -0.0075  0.2852
 9919SOL    HW231480   9.599   3.597   8.640  4.7592  0.4083  0.2394
 9920SOL     OW31481   7.058   8.530   3.609  0.5034  0.4126  0.4944
 9920SOL    HW131482   7.060   8.601   3.545 -0.6679  0.1206  0.1017
 9920SOL    HW231483   7.113   8.560   3.681  0.0505  1.7075  0.3223
 9921SOL     OW31484   6.822   3.834   2.610 -0.6058 -0.2598  0.6146
 9921SOL    HW131485   6.883   3.780   2.560 -0.3475  0.3548  0.2642
 9921SOL    HW231486   6.872   3.863   2.686  0.0262  1.4665 -0.4215
 9922SOL     OW31487   3.588   1.199   8.444 -0.1420 -0.5607 -0.1439
 9922SOL    HW131488   3.549   1.116   8.470  1.8711 -1.7865 -0.8476
 9922SOL    HW231489   3.539   1.265   8.493 -1.8067 -2.1375  0.4067
 9923SOL     OW31490   2.546   1.388   3.094  0.0578  0.4352 -0.2970
 9923SOL    HW131491   2.554   1.403   3.000  0.9936 -0.0711 -0.3094
 9923SOL    HW231492   2.455   1.361   3.107 -0.0492  0.4139 -1.0640
 9924SOL     OW31493   7.467   2.626   7.501 -0.0507  0.3961 -0.3096
 9924SOL    HW131494   7.541   2.569   7.479  0.0904  0.2314  0.5547
 9924SOL    HW231495   7.491   2.711   7.464  0.6873  0.4005  0.1516
 9925SOL     OW31496   0.239   5.854   1.488 -0.0163 -0.6204 -0.3355
 9925SOL    HW131497   0.168   5.916   1.505  0.4370  0.1222 -1.0545
 9925SOL    HW231498   0.282   5.842   1.573  1.2148  1.7568 -0.5233
 9926SOL     OW31499   5.119   5.081   9.239 -0.3589  0.3806  0.0469
 9926SOL    HW131500   5.108   5.023   9.314 -0.3413  1.0379  0.5692
 9926SOL    HW231501   5.146   5.164   9.277 -0.6609  0.8163 -0.6632
 9927SOL     OW31502   2.500   3.060   5.877  0.4091 -0.2632 -0.2163
 9927SOL    HW131503   2.539   2.977   5.849  0.1544 -0.1682 -0.8814
 9927SOL    HW231504   2.406   3.048   5.860  0.2037 -0.3023  0.8809
 9928SOL     OW31505   2.723   2.887   4.027 -0.2922 -0.2960  0.8750
 9928SOL    HW131506   2.734   2.865   4.119  2.4851  0.8455  0.8960
 9928SOL    HW231507   2.760   2.975   4.018 -0.5055 -0.3632 -1.3166
 9929SOL     OW31508   5.855   7.904   0.608 -0.0643 -0.3657 -0.0938
 9929SOL    HW131509   5.901   7.824   0.584 -0.2952 -0.7562  0.7425
 9929SOL    HW231510   5.782   7.909   0.547  1.1838  0.3904 -1.6008
 9930SOL     OW31511   5.434   8.575   1.657 -0.0417  0.6995 -0.2928
 9930SOL    HW131512   5.427   8.584   1.752 -0.5619  0.9439 -0.3524
 9930SOL    HW231513   5.528   8.574   1.640  0.0769 -0.4209  0.3257
 9931SOL     OW31514   3.276   6.885   4.442  0.3455 -0.0166  0.0033
 9931SOL    HW131515   3.203   6.825   4.459 -1.5264  1.8850 -0.8078
 9931SOL    HW231516   3.342   6.863   4.508 -1.2518 -1.3578  1.2262
 9932SOL     OW31517   6.379   2.036   8.387 -0.2002  0.9217 -0.2051
 9932SOL    HW131518   6.381   2.106   8.322 -1.0276  1.0473 -0.1089
 9932SOL    HW231519   6.335   2.075   8.463  0.7905  0.7876  0.4551
 9933SOL     OW31520   1.805   5.001   9.416 -0.1469  0.1602 -0.3352
 9933SOL    HW131521   1.726   5.054   9.429  0.3591  1.0487 -0.8515
 9933SOL    HW231522   1.811   4.990   9.321 -1.5492 -2.8642 -0.2063
 9934SOL     OW31523   7.221   2.572   3.466  0.4397 -0.1675  0.0509
 9934SOL    HW131524   7.283   2.600   3.398  0.4790  0.7211  0.4408
 9934SOL    HW231525   7.244   2.625   3.542 -1.1919  0.6438  0.0188
 9935SOL     OW31526   5.905   4.713   4.510 -0.0116  0.1894 -0.0234
 9935SOL    HW131527   5.937   4.752   4.429  2.0723 -0.9477  0.1843
 9935SOL    HW231528   5.852   4.782   4.550  1.0440  1.7091 -1.1106
 9936SOL     OW31529   5.413   3.384   3.007 -0.0475  0.3039 -0.0223
 9936SOL    HW131530   5.468   3.408   2.933  1.7954 -1.8065  0.5469
 9936SOL    HW231531   5.328   3.362   2.969  0.0075  1.9111 -1.1416
 9937SOL     OW31532   0.544   4.312   3.362 -0.0821 -0.3435  0.0966
 9937SOL    HW131533   0.618   4.373   3.356 -0.5548  0.1426 -1.3963
 9937SOL    HW231534   0.551   4.259   3.282 -0.5873 -1.1899  0.6031
 9938SOL     OW31535   7.558   7.493   1.580  0.0185 -0.6308 -0.4231
 9938SOL    HW131536   7.624   7.560   1.593  0.3124 -1.1245  0.6855
 9938SOL    HW231537   7.499   7.530   1.514  1.7851 -0.4868 -2.0081
 9939SOL     OW31538   6.410   7.471   4.156  0.0223 -0.1522  0.1845
 9939SOL    HW131539   6.396   7.498   4.246  0.0973  0.0976  0.1207
 9939SOL    HW231540   6.492   7.513   4.130 -1.4902  2.2910 -0.9819
 9940SOL     OW31541   3.408   5.206   8.653 -0.1296 -0.2034 -0.1935
 9940SOL    HW131542   3.321   5.176   8.627 -0.5452 -0.5611  1.4999
 9940SOL    HW231543   3.464   5.129   8.642 -0.2833 -0.3270 -0.1103
 9941SOL     OW31544   1.958   9.551   9.287  0.0387 -0.1319 -0.7549
 9941SOL    HW131545   1.987   9.526   9.200 -2.4980  2.3489 -2.4956
 9941SOL    HW231546   1.868   9.520   9.293  0.0899 -0.0734  0.9147
 9942SOL     OW31547   1.841   8.051   1.700 -0.3566 -0.2917 -0.5108
 9942SOL    HW131548   1.778   7.981   1.715 -0.8932  0.1230 -0.7885
 9942SOL    HW231549   1.839   8.064   1.605  1.9672 -1.9580 -0.8614
 9943SOL     OW31550   3.442   0.835   3.826 -0.0547 -0.0953  0.5180
 9943SOL    HW131551   3.389   0.761   3.797 -0.3262 -0.3304  1.5901
 9943SOL    HW231552   3.532   0.803   3.823 -0.1348 -0.3220  0.5370
 9944SOL     OW31553   0.877   7.854   4.936  0.2220 -0.4907  0.3970
 9944SOL    HW131554   0.928   7.848   5.016 -2.0527  0.2106  2.0095
 9944SOL    HW231555   0.831   7.937   4.942 -0.0630 -0.4343 -1.6402
 9945SOL     OW31556   3.088   4.588   7.178 -0.1937 -0.0005 -0.4847
 9945SOL    HW131557   3.166   4.541   7.207  0.7162  3.2730  3.1205
 9945SOL    HW231558   3.119   4.645   7.107  0.4012  0.3474  0.0500
 9946SOL     OW31559   8.708   2.980   5.642 -0.0588  0.3152  0.0497
 9946SOL    HW131560   8.757   3.023   5.572 -0.9963  0.4811 -0.5251
 9946SOL    HW231561   8.737   2.889   5.639 -1.1231 -0.0104 -1.5331
 9947SOL     OW31562   8.427   0.423   5.664 -0.2138  0.0151 -0.3912
 9947SOL    HW131563   8.487   0.389   5.731 -0.7998 -0.5356 -0.1312
 9947SOL    HW231564   8.379   0.492   5.708 -1.4407 -1.1400  0.1493
 9948SOL     OW31565   2.343   1.138   6.121  0.0262  0.4328 -0.1286
 9948SOL    HW131566   2.336   1.147   6.026  0.5444  1.0958 -0.1073
 9948SOL    HW231567   2.266   1.184   6.154  0.3005  0.9442 -0.1960
 9949SOL     OW31568   9.531   4.022   3.496  0.3114  0.3819 -0.7841
 9949SOL    HW131569   9.564   3.933   3.485 -0.6857 -0.0498 -0.3518
 9949SOL    HW231570   9.586   4.060   3.564  2.6932  1.1294 -2.9506
 9950SOL     OW31571   2.750   4.314   3.299  0.2901 -0.3028 -0.0893
 9950SOL    HW131572   2.715   4.246   3.241 -0.9295  0.0406  0.2216
 9950SOL    HW231573   2.735   4.281   3.388 -1.7659  1.0260  0.1110
 9951SOL     OW31574   6.411   0.767   9.163 -0.1250  0.7980 -0.3206
 9951SOL    HW131575   6.499   0.759   9.127 -0.0689  0.4134 -0.0988
 9951SOL    HW231576   6.388   0.679   9.190 -0.3229  1.0104  0.2157
 9952SOL     OW31577   0.248   3.847   3.572  0.0029  0.2844  0.7380
 9952SOL    HW131578   0.312   3.864   3.503  0.4596 -1.4402  0.6889
 9952SOL    HW231579   0.217   3.933   3.598  0.6703  1.0301 -0.8256
 9953SOL     OW31580   1.007   7.901   5.983  0.2927  0.3995  0.3153
 9953SOL    HW131581   1.055   7.821   5.961 -0.3954  0.6098 -2.2807
 9953SOL    HW231582   1.072   7.971   5.973  0.7125  0.2853  1.9117
 9954SOL     OW31583   9.366   2.503   8.395 -0.2688 -0.1486  0.0466
 9954SOL    HW131584   9.446   2.451   8.397 -0.0277  0.1133 -1.6249
 9954SOL    HW231585   9.352   2.524   8.303 -1.1834  1.4666  0.4965
 9955SOL     OW31586   1.644   8.137   0.957  0.2437 -0.3101  0.1236
 9955SOL    HW131587   1.576   8.070   0.966  0.1684 -0.1867  0.4723
 9955SOL    HW231588   1.645   8.182   1.041  0.9431 -0.4868  0.2167
 9956SOL     OW31589   8.555   2.882   9.450  0.3064  0.2356 -0.1244
 9956SOL    HW131590   8.554   2.787   9.445  0.1486  0.2334 -0.0799
 9956SOL    HW231591   8.518   2.901   9.537 -0.0320  0.3468 -0.2911
 9957SOL     OW31592   5.301   6.929   4.747  0.2345  0.4705  0.0609
 9957SOL    HW131593   5.265   6.933   4.836 -1.7610  1.2396 -0.7158
 9957SOL    HW231594   5.379   6.984   4.750  1.1188 -0.7693  1.6846
 9958SOL     OW31595   4.395   2.520   7.921 -0.7703 -0.3707  0.0781
 9958SOL    HW131596   4.345   2.440   7.938 -1.6339 -0.0536 -0.8582
 9958SOL    HW231597   4.379   2.575   7.997  1.6705 -1.9159  1.8483
 9959SOL     OW31598   0.272   1.016   3.218 -0.3203  0.3892  0.0066
 9959SOL    HW131599   0.187   0.973   3.204 -0.0365  0.0881 -0.8896
 9959SOL    HW231600   0.264   1.059   3.303 -1.4314  0.5019 -0.1421
 9960SOL     OW31601   4.038   5.789   3.644  0.1548  0.4667  0.0630
 9960SOL    HW131602   4.114   5.838   3.674  1.5950  0.3741 -3.0951
 9960SOL    HW231603   3.992   5.850   3.586 -2.0588  0.3793  1.5833
 9961SOL     OW31604   8.275   1.874   1.534 -0.3033  0.3268 -0.0512
 9961SOL    HW131605   8.211   1.836   1.594 -0.9186  1.2852 -0.0859
 9961SOL    HW231606   8.223   1.905   1.460  0.2273  0.9426 -0.1710
 9962SOL     OW31607   6.200   6.541   6.424  0.0012  0.0185 -0.1032
 9962SOL    HW131608   6.149   6.461   6.435 -1.4197  0.8363 -0.4087
 9962SOL    HW231609   6.281   6.513   6.383 -0.1798 -1.3441  0.4256
 9963SOL     OW31610   1.391   7.623   4.090 -0.5367  0.0677  0.3765
 9963SOL    HW131611   1.463   7.561   4.076  0.8167  1.4720  0.8244
 9963SOL    HW231612   1.358   7.603   4.177  0.0586  0.1276  0.6170
 9964SOL     OW31613   7.157   7.499   3.220  0.4526  0.0041 -0.2105
 9964SOL    HW131614   7.152   7.587   3.182  0.1883 -0.3015 -0.9086
 9964SOL    HW231615   7.251   7.482   3.229  0.5042  0.9234  1.3122
 9965SOL     OW31616   3.698   3.762   3.302  0.2567 -0.2906  0.0745
 9965SOL    HW131617   3.699   3.843   3.353 -1.4253 -1.0377  1.4045
 9965SOL    HW231618   3.763   3.706   3.344 -1.8430 -1.2922  2.2248
 9966SOL     OW31619   1.569   7.521   8.325  0.1615 -0.3176 -0.0226
 9966SOL    HW131620   1.612   7.555   8.247  3.0593 -1.8647  0.7599
 9966SOL    HW231621   1.608   7.570   8.398 -0.9968 -0.3155  0.6315
 9967SOL     OW31622   6.634   1.398   4.075 -0.7457  0.6124  0.5422
 9967SOL    HW131623   6.575   1.454   4.024 -1.1117 -0.9066 -0.7625
 9967SOL    HW231624   6.611   1.415   4.166 -2.5001  0.8006  0.0877
 9968SOL     OW31625   4.294   4.692   1.010 -0.6758 -0.1644 -0.0997
 9968SOL    HW131626   4.250   4.776   1.004  2.7545  1.8667  0.1638
 9968SOL    HW231627   4.315   4.669   0.919  0.5974  0.6408 -0.0331
 9969SOL     OW31628   2.951   4.547   4.682 -0.0548  0.8197 -0.2327
 9969SOL    HW131629   2.892   4.475   4.660  0.6280  0.1517  0.0996
 9969SOL    HW231630   2.971   4.535   4.774  0.2799  1.2905 -0.2387
 9970SOL     OW31631   3.392   7.838   2.488  0.1276 -0.0919 -0.4880
 9970SOL    HW131632   3.428   7.788   2.414  0.1697 -0.7017 -0.0659
 9970SOL    HW231633   3.337   7.775   2.535 -1.6592  0.8752 -1.2126
 9971SOL     OW31634   5.832   6.603   5.966  0.1895  0.0647 -0.2881
 9971SOL    HW131635   5.750   6.652   5.977  0.1849  0.3790 -1.6150
 9971SOL    HW231636   5.896   6.651   6.020  0.1518  1.4805 -1.4645
 9972SOL     OW31637   2.191   2.331   6.443  0.4671  0.1885 -0.1047
 9972SOL    HW131638   2.158   2.413   6.406 -0.1243  0.2934  0.6321
 9972SOL    HW231639   2.115   2.273   6.442  1.1520 -0.7309 -1.6536
 9973SOL     OW31640   9.175   8.401   9.253 -0.3597 -0.5832  0.0514
 9973SOL    HW131641   9.262   8.365   9.270 -0.6536 -0.1657  3.0106
 9973SOL    HW231642   9.183   8.493   9.278 -1.3959 -0.2782 -0.6833
 9974SOL     OW31643   1.408   8.787   3.258 -0.8557  0.1526  0.5691
 9974SOL    HW131644   1.443   8.718   3.315 -2.5903 -0.4711  0.9369
 9974SOL    HW231645   1.345   8.743   3.201 -2.0795  1.4224  0.8685
 9975SOL     OW31646   5.159   6.597   2.349 -0.1951 -0.3872  0.2564
 9975SOL    HW131647   5.207   6.655   2.289  0.0739 -1.6743 -0.8310
 9975SOL    HW231648   5.209   6.516   2.349 -2.0299 -1.5882 -0.4587
 9976SOL     OW31649   6.553   3.543   6.389  0.2476  0.5188  0.2010
 9976SOL    HW131650   6.627   3.548   6.450  1.2596  0.4455 -0.9928
 9976SOL    HW231651   6.477   3.528   6.446  1.3717 -1.2848  1.3161
 9977SOL     OW31652   1.228   7.568   1.373  0.4128 -0.1225 -0.2853
 9977SOL    HW131653   1.143   7.525   1.363 -0.4759  1.7925 -1.3475
 9977SOL    HW231654   1.245   7.565   1.467 -0.9399 -0.3069 -0.0278
 9978SOL     OW31655   2.024   2.302   3.672 -0.4522  0.6945 -0.0521
 9978SOL    HW131656   2.019   2.250   3.591  0.1281 -0.8087  0.8405
 9978SOL    HW231657   1.946   2.278   3.721  0.2180  0.0378  0.7147
 9979SOL     OW31658   5.024   0.101   9.379 -0.4418  0.1363  0.3206
 9979SOL    HW131659   5.018   0.114   9.474  0.5407 -1.2429  0.6115
 9979SOL    HW231660   5.099   0.042   9.368 -1.6280 -1.1732 -1.1795
 9980SOL     OW31661   3.585   2.789   3.804 -0.1622  0.2154  0.1609
 9980SOL    HW131662   3.577   2.849   3.878 -0.3319 -0.0337  0.3478
 9980SOL    HW231663   3.611   2.706   3.843  0.6106  0.2996 -0.1502
 9981SOL     OW31664   2.795   2.212   2.329  0.2720 -0.1153 -0.6269
 9981SOL    HW131665   2.783   2.305   2.309  1.2257  0.3363  0.7320
 9981SOL    HW231666   2.748   2.199   2.411  1.0171 -0.5641 -0.2543
 9982SOL     OW31667   3.816   4.224   1.077 -0.3822  0.6443  0.2682
 9982SOL    HW131668   3.865   4.212   1.158  0.2603  2.2859  0.1679
 9982SOL    HW231669   3.792   4.135   1.050  0.0958  0.0088  1.8067
 9983SOL     OW31670   5.060   3.158   2.407  0.3466 -0.2090  0.4106
 9983SOL    HW131671   5.126   3.098   2.444  0.4566  1.2395  2.7439
 9983SOL    HW231672   5.112   3.225   2.362  0.3563 -0.2891  0.3016
 9984SOL     OW31673   4.981   0.361   5.761 -0.5458 -0.0030  0.2751
 9984SOL    HW131674   4.983   0.290   5.825  1.8995  0.7737  1.1755
 9984SOL    HW231675   4.904   0.412   5.785 -1.3374 -1.3411  0.7099
 9985SOL     OW31676   5.453   4.124   4.809  0.3556 -0.0131 -0.1045
 9985SOL    HW131677   5.433   4.108   4.901 -1.0790 -2.2990 -0.7415
 9985SOL    HW231678   5.496   4.044   4.779  0.4749  0.5460 -1.5144
 9986SOL     OW31679   8.380   8.343   4.402  0.0276 -0.4635  0.0162
 9986SOL    HW131680   8.297   8.299   4.422  0.2611 -0.0093  2.2169
 9986SOL    HW231681   8.353   8.423   4.355 -0.4658 -2.1528 -2.8193
 9987SOL     OW31682   0.099   6.664   4.003  0.5682 -0.0269  0.1482
 9987SOL    HW131683   0.037   6.729   4.035  0.7405  0.1438  0.1340
 9987SOL    HW231684   0.149   6.709   3.935  0.5361 -0.2406 -0.0214
 9988SOL     OW31685   4.208   2.532   4.164 -0.2564 -1.1494 -0.3526
 9988SOL    HW131686   4.173   2.502   4.080  1.2112 -2.3171 -0.6164
 9988SOL    HW231687   4.266   2.605   4.142 -1.3497 -0.1919 -0.1029
 9989SOL     OW31688   7.815   9.195   3.417 -0.0948  0.0955 -0.5983
 9989SOL    HW131689   7.758   9.196   3.494  1.3493  0.4124  0.5097
 9989SOL    HW231690   7.892   9.146   3.445  0.3900  0.0778 -1.9028
 9990SOL     OW31691   1.148   0.797   5.323 -0.4774 -0.3374  0.2283
 9990SOL    HW131692   1.107   0.788   5.237  0.5326  0.9903 -0.4225
 9990SOL    HW231693   1.211   0.725   5.327 -1.9597 -1.6646  0.7504
 9991SOL     OW31694   1.710   2.761   6.701  0.2016 -0.0409  0.1931
 9991SOL    HW131695   1.621   2.797   6.703 -0.7402 -2.2592  0.6358
 9991SOL    HW231696   1.733   2.751   6.793  0.0152 -1.4635  0.1108
 9992SOL     OW31697   0.768   0.274   9.162  0.5655  0.6576  0.6039
 9992SOL    HW131698   0.726   0.323   9.091  1.2529 -0.7584 -0.8491
 9992SOL    HW231699   0.832   0.218   9.118  0.0121 -1.3486  2.1745
 9993SOL     OW31700   2.817   8.716   7.590 -0.4287  0.1425 -0.0544
 9993SOL    HW131701   2.888   8.719   7.526  0.0440 -0.7576  0.3980
 9993SOL    HW231702   2.766   8.795   7.574  0.4016  0.5629 -0.7076
 9994SOL     OW31703   1.963   1.456   8.509 -0.2908 -0.5372  0.0112
 9994SOL    HW131704   1.926   1.459   8.421 -0.9786  0.3658  0.3134
 9994SOL    HW231705   1.906   1.512   8.561  1.0878  0.3184  0.6666
 9995SOL     OW31706   3.882   4.807   2.196  0.1697  0.4071  0.5539
 9995SOL    HW131707   3.861   4.791   2.288 -0.8500  0.5795  0.3602
 9995SOL    HW231708   3.871   4.902   2.185 -0.7888  0.2409  0.0002
 9996SOL     OW31709   4.285   8.569   7.697  0.5908  0.2526 -0.2827
 9996SOL    HW131710   4.269   8.643   7.755 -1.2472 -1.9926  2.3249
 9996SOL    HW231711   4.201   8.524   7.692  1.5180 -1.4352 -2.1621
 9997SOL     OW31712   7.710   7.060   6.231  0.2717  0.6486  0.2343
 9997SOL    HW131713   7.625   7.018   6.243  0.3677 -0.0860 -1.3709
 9997SOL    HW231714   7.700   7.111   6.151  2.1731 -1.9127 -1.8159
 9998SOL     OW31715   5.769   0.674   2.812  0.5335 -0.2343  0.2893
 9998SOL    HW131716   5.685   0.672   2.766  1.5515  0.4010 -1.7457
 9998SOL    HW231717   5.787   0.583   2.833 -1.1097 -0.2916  1.7458
 9999SOL     OW31718   0.576   4.234   7.665  0.7661  0.0293  0.0099
 9999SOL    HW131719   0.629   4.311   7.645 -0.9654  1.2440 -0.0506
 9999SOL    HW231720   0.581   4.226   7.761  0.4390  0.6015  0.0785
10000SOL     OW31721   3.060   8.256   9.677  0.0210  0.8494 -0.7951
10000SOL    HW131722   2.989   8.228   9.618 -0.1246 -0.1226 -0.1883
10000SOL    HW231723   3.032   8.341   9.710 -1.2078  0.2015 -0.0678
10001SOL     OW31724   0.163   1.509   6.203 -0.0264  0.2190 -0.6820
10001SOL    HW131725   0.112   1.585   6.229  1.2775  1.0410 -0.4474
10001SOL    HW231726   0.221   1.493   6.278 -0.6865 -1.3862 -0.4715
10002SOL     OW31727   4.861   2.905   4.749  0.0929  0.2793  0.3769
10002SOL    HW131728   4.833   2.956   4.825  2.3088 -0.0524  1.4872
10002SOL    HW231729   4.937   2.855   4.780 -0.8369 -2.2994 -1.1665
10003SOL     OW31730   5.770   0.410   2.925 -0.0826  0.1924  0.2181
10003SOL    HW131731   5.819   0.343   2.974 -0.3619  0.5428  0.9825
10003SOL    HW231732   5.685   0.414   2.969 -1.0177 -0.7907 -1.4236
10004SOL     OW31733   7.905   0.803   9.045  0.0944 -0.2188  0.3506
10004SOL    HW131734   7.823   0.838   9.012  0.2347  1.2272  1.4251
10004SOL    HW231735   7.898   0.811   9.140  1.9389  1.1157  0.4356
10005SOL     OW31736   4.119   1.904   1.800  0.1467  0.2465  0.2949
10005SOL    HW131737   4.123   1.810   1.814  0.3710  0.1268 -0.4797
10005SOL    HW231738   4.191   1.922   1.739  1.1486  1.1719  1.6796
10006SOL     OW31739   8.578   2.674   2.596  0.1757 -0.0731 -0.5285
10006SOL    HW131740   8.667   2.667   2.631 -0.8403  0.4239  2.4857
10006SOL    HW231741   8.558   2.767   2.601 -0.8044 -0.2873 -0.2657
10007SOL     OW31742   5.730   5.288   4.449 -0.2101 -0.6095  0.1626
10007SOL    HW131743   5.671   5.213   4.453  0.7870 -1.3908  0.2639
10007SOL    HW231744   5.817   5.251   4.441  0.3349  0.5302  0.5985
10008SOL     OW31745   0.380   3.707   1.899  0.6008 -0.0388 -0.6180
10008SOL    HW131746   0.390   3.802   1.908  0.0047 -0.0140 -0.1869
10008SOL    HW231747   0.460   3.671   1.938  0.7097  0.2783 -0.5465
10009SOL     OW31748   2.889   6.779   2.437 -0.4977 -0.1761 -0.0807
10009SOL    HW131749   2.866   6.689   2.412  2.0784 -1.0502  0.3913
10009SOL    HW231750   2.985   6.781   2.431 -0.3482  1.9154  2.0282
10010SOL     OW31751   4.064   5.557   9.422  0.3366 -0.5132 -0.1482
10010SOL    HW131752   4.015   5.482   9.454 -0.7665  0.1371 -0.2556
10010SOL    HW231753   4.004   5.601   9.362  1.1647  0.1468 -0.5235
10011SOL     OW31754   6.949   0.612   2.867  0.1636  0.3904 -0.1792
10011SOL    HW131755   6.883   0.680   2.882 -2.3776 -1.8924 -0.2813
10011SOL    HW231756   6.985   0.632   2.781 -1.8680  0.6215 -1.0218
10012SOL     OW31757   2.613   3.183   9.381  0.4223  0.3356 -0.4110
10012SOL    HW131758   2.601   3.276   9.402  0.1746 -0.3944  3.5077
10012SOL    HW231759   2.535   3.141   9.416  0.8666 -1.4683 -1.4738
10013SOL     OW31760   7.641   7.548   5.935 -0.3316 -0.1342 -0.4528
10013SOL    HW131761   7.557   7.516   5.903 -0.2824  0.9448 -1.7405
10013SOL    HW231762   7.696   7.553   5.857 -0.3236  2.9498 -0.3785
10014SOL     OW31763   0.614   9.296   6.190 -0.3113 -0.2385  0.0997
10014SOL    HW131764   0.634   9.381   6.151  0.5474 -0.4667  0.0301
10014SOL    HW231765   0.518   9.295   6.196 -0.4341  0.0790 -1.3802
10015SOL     OW31766   3.876   3.782   3.988  0.2115 -0.2341 -0.1784
10015SOL    HW131767   3.958   3.770   4.036  0.4577  2.1939  0.1219
10015SOL    HW231768   3.881   3.871   3.954 -1.5531 -0.6464 -1.6672
10016SOL     OW31769   5.891   4.173   2.649  0.0464 -0.0698  0.0413
10016SOL    HW131770   5.933   4.250   2.688 -0.6596  0.2630  0.1502
10016SOL    HW231771   5.848   4.129   2.722  0.0691 -0.3250 -0.0978
10017SOL     OW31772   6.422   4.874   8.700 -0.2279 -0.2779  0.1375
10017SOL    HW131773   6.407   4.850   8.791  0.8583 -0.4885  0.2777
10017SOL    HW231774   6.516   4.894   8.696 -0.3582  0.1968 -0.8273
10018SOL     OW31775   8.001   1.420   0.823  0.4845  0.0444 -0.1585
10018SOL    HW131776   7.913   1.440   0.790  0.8745  0.2257 -1.1256
10018SOL    HW231777   8.000   1.451   0.914 -0.2789  0.5474 -0.3263
10019SOL     OW31778   2.575   7.741   6.437 -0.4015  0.3037 -0.6208
10019SOL    HW131779   2.481   7.748   6.453 -0.1119  0.2546  1.3173
10019SOL    HW231780   2.616   7.777   6.516  1.1976 -1.4465 -0.5638
10020SOL     OW31781   4.357   9.563   6.756  0.3089  0.2334 -0.4688
10020SOL    HW131782   4.412   9.484   6.762  0.1943  0.1628 -0.3231
10020SOL    HW231783   4.296   9.554   6.829 -1.1860 -0.6522 -1.7760
10021SOL     OW31784   7.025   4.981   4.239  0.4491 -0.6650 -0.2701
10021SOL    HW131785   7.063   4.934   4.164 -1.5926 -0.8866 -1.2322
10021SOL    HW231786   6.950   4.928   4.264 -1.2501  1.4599 -0.6416
10022SOL     OW31787   8.684   9.083   7.388  0.3071 -0.0670  0.2188
10022SOL    HW131788   8.638   9.039   7.460 -0.8039 -0.3317 -0.6264
10022SOL    HW231789   8.660   9.175   7.398 -3.0393 -0.5151 -1.9475
10023SOL     OW31790   3.510   8.793   8.760 -0.1439 -0.0695  0.1031
10023SOL    HW131791   3.516   8.705   8.799  1.1010 -0.3325 -0.6057
10023SOL    HW231792   3.598   8.808   8.724 -0.4488  1.3349 -0.0754
10024SOL     OW31793   1.175   8.833   7.340 -0.6025 -0.1494 -0.2784
10024SOL    HW131794   1.210   8.767   7.279  0.0818 -0.8142  0.7876
10024SOL    HW231795   1.106   8.787   7.387  0.5287 -0.4496  1.1558
10025SOL     OW31796   1.275   5.694   5.662 -0.2908 -0.1917 -0.0074
10025SOL    HW131797   1.212   5.626   5.684 -0.9764  0.3206 -0.3342
10025SOL    HW231798   1.273   5.698   5.566 -0.8832  0.8495  0.0366
10026SOL     OW31799   1.513   6.002   8.869 -0.1233 -0.2164  0.5633
10026SOL    HW131800   1.500   5.952   8.788 -0.3265 -0.6170  0.8404
10026SOL    HW231801   1.491   6.092   8.846  1.2653 -0.0460 -0.2309
10027SOL     OW31802   1.388   5.564   7.856  0.4058 -0.7759  0.4031
10027SOL    HW131803   1.433   5.579   7.939 -0.2419 -0.6072  0.7311
10027SOL    HW231804   1.391   5.649   7.812 -0.1425 -0.5940  0.7056
10028SOL     OW31805   6.245   3.031   1.555 -0.9744  0.2272 -0.3021
10028SOL    HW131806   6.279   3.019   1.467  1.2366  1.9992  0.2262
10028SOL    HW231807   6.254   2.946   1.597 -2.1309 -0.6522 -1.7536
10029SOL     OW31808   5.336   2.455   4.354 -0.2812 -0.4426  0.2782
10029SOL    HW131809   5.258   2.429   4.305 -1.1611  0.9573  0.8674
10029SOL    HW231810   5.370   2.531   4.307 -1.7142  1.5737  2.2295
10030SOL     OW31811   1.395   2.593   7.023 -0.3990 -0.0953  0.4527
10030SOL    HW131812   1.451   2.589   7.100  0.1452 -1.6122  0.0080
10030SOL    HW231813   1.376   2.687   7.012  0.7882  0.2979  1.4995
10031SOL     OW31814   3.151   8.914   8.286  0.6262 -0.2480  0.0530
10031SOL    HW131815   3.235   8.958   8.269 -0.0862  0.4834 -1.8894
10031SOL    HW231816   3.155   8.834   8.234 -0.5346  0.6638 -1.5251
10032SOL     OW31817   2.292   5.284   0.724  0.5077  0.3873  0.1675
10032SOL    HW131818   2.360   5.301   0.659  1.4114 -0.1360  0.9487
10032SOL    HW231819   2.232   5.223   0.681  1.2444 -0.1675 -0.0913
10033SOL     OW31820   4.548   6.814   4.329  0.0821 -0.3706  0.1027
10033SOL    HW131821   4.480   6.882   4.325 -0.0806 -0.6167 -2.1335
10033SOL    HW231822   4.568   6.808   4.423 -2.5233  0.1459  0.8012
10034SOL     OW31823   2.819   5.471   9.535  0.1429 -0.2847 -0.6245
10034SOL    HW131824   2.858   5.556   9.556  3.5857 -2.3266  2.5416
10034SOL    HW231825   2.863   5.443   9.456  2.0429 -0.6817  0.5117
10035SOL     OW31826   8.075   7.120   6.841 -0.4450 -0.0871 -0.0370
10035SOL    HW131827   7.996   7.161   6.876 -1.2470 -1.4044 -0.2231
10035SOL    HW231828   8.068   7.132   6.746  0.6087  1.5356  0.0599
10036SOL     OW31829   4.875   7.409   9.688  0.1288 -0.1567 -0.3383
10036SOL    HW131830   4.788   7.442   9.707  0.9465  1.0501  1.5638
10036SOL    HW231831   4.929   7.439   9.761  2.2381 -0.5054 -1.6698
10037SOL     OW31832   7.789   2.086   7.863 -0.4578  0.7411  0.3176
10037SOL    HW131833   7.876   2.118   7.889 -0.4373  0.3445  0.7430
10037SOL    HW231834   7.740   2.078   7.944 -0.9104  0.9929  0.0761
10038SOL     OW31835   2.083   3.646   6.259  0.0243 -0.3106 -0.8913
10038SOL    HW131836   2.021   3.582   6.225  0.8552 -2.4774  1.3773
10038SOL    HW231837   2.041   3.683   6.336  0.2306  0.7093 -1.2479
10039SOL     OW31838   3.717   4.006   3.436 -0.3749 -0.3949 -0.2810
10039SOL    HW131839   3.675   3.989   3.520 -0.1243 -0.9027 -0.2513
10039SOL    HW231840   3.766   4.087   3.449  0.3965 -0.9464  0.3453
10040SOL     OW31841   9.628   7.216   4.225  0.4674 -0.1608 -0.1676
10040SOL    HW131842   9.688   7.241   4.155 -1.4519  2.4624 -1.0236
10040SOL    HW231843   9.585   7.137   4.192  1.2611 -0.3113 -0.8851
10041SOL     OW31844   9.019   2.510   0.499 -0.4180  0.5702 -0.1767
10041SOL    HW131845   8.986   2.600   0.507  0.8298  1.2002 -1.6113
10041SOL    HW231846   9.113   2.518   0.514 -0.3614 -0.5947  0.1448
10042SOL     OW31847   2.452   8.402   8.029 -0.6425 -0.1966 -0.1409
10042SOL    HW131848   2.517   8.428   8.095 -0.5463 -0.9873  0.0907
10042SOL    HW231849   2.500   8.405   7.946 -0.1955 -1.1183  0.0708
10043SOL     OW31850   7.807   8.692   2.859  0.0627 -0.5075  0.0650
10043SOL    HW131851   7.896   8.660   2.873 -0.1731 -0.6064  1.5005
10043SOL    HW231852   7.757   8.615   2.835 -0.0007 -0.7980  1.0928
10044SOL     OW31853   9.090   1.237   3.864  0.1837  0.5448  0.3394
10044SOL    HW131854   9.138   1.274   3.938 -0.7130 -0.3593  1.3957
10044SOL    HW231855   9.039   1.166   3.902 -1.3104  0.9131 -0.9214
10045SOL     OW31856   9.239   9.506   9.175  0.1157 -0.5860 -0.0317
10045SOL    HW131857   9.231   9.558   9.095  0.5485 -0.7743 -0.2029
10045SOL    HW231858   9.312   9.546   9.222  0.9590 -1.4962 -0.5279
10046SOL     OW31859   5.900   2.368   7.767  0.0468  0.4667  0.2476
10046SOL    HW131860   5.901   2.440   7.830 -0.2728  1.6650 -1.0643
10046SOL    HW231861   5.989   2.365   7.732  0.3825 -0.5765  1.1358
10047SOL     OW31862   3.589   1.576   4.908  0.1346 -0.8919 -0.1437
10047SOL    HW131863   3.540   1.498   4.880  0.6621 -1.2908  0.0228
10047SOL    HW231864   3.544   1.607   4.986  0.2972 -1.4190  0.1673
10048SOL     OW31865   8.621   7.611   2.600 -0.2379 -0.1874 -0.0994
10048SOL    HW131866   8.583   7.655   2.525 -0.6523  1.4615  1.0261
10048SOL    HW231867   8.712   7.641   2.602  0.1873 -1.3678 -0.7505
10049SOL     OW31868   2.863   9.368   4.110  0.1645 -0.1997  0.2790
10049SOL    HW131869   2.887   9.459   4.128  0.6507 -0.3198  0.2486
10049SOL    HW231870   2.795   9.374   4.042 -0.7709  0.1983  1.2073
10050SOL     OW31871   2.549   6.828   4.024 -0.2814 -0.8111  0.5773
10050SOL    HW131872   2.454   6.815   4.018 -0.5157  0.6368  0.8182
10050SOL    HW231873   2.559   6.918   4.053  1.2156 -0.4105 -1.0494
10051SOL     OW31874   0.248   6.688   4.990 -0.5247  0.1579  0.1194
10051SOL    HW131875   0.235   6.605   5.035 -1.8110  0.9217  1.2128
10051SOL    HW231876   0.173   6.696   4.932  0.8406 -0.5598 -1.8913
10052SOL     OW31877   8.293   1.872   7.545  0.1552  0.2858 -0.3123
10052SOL    HW131878   8.221   1.929   7.519  0.0420  0.0227 -0.5924
10052SOL    HW231879   8.308   1.816   7.469  1.3543  1.0184 -0.6518
10053SOL     OW31880   5.902   5.829   2.682  0.3771  0.0074 -0.3477
10053SOL    HW131881   5.880   5.750   2.633  0.1518 -0.6402  0.7627
10053SOL    HW231882   5.857   5.899   2.636  0.2421 -0.5706 -1.1115
10054SOL     OW31883   0.734   6.794   5.455  0.3555  0.6188 -0.3811
10054SOL    HW131884   0.798   6.755   5.515 -0.6770  0.5938  0.7370
10054SOL    HW231885   0.727   6.730   5.383 -0.2638 -0.6142  0.7321
10055SOL     OW31886   2.098   0.482   3.316 -0.1501 -0.4700 -0.5366
10055SOL    HW131887   2.055   0.534   3.384 -1.3459 -1.9668 -0.0832
10055SOL    HW231888   2.164   0.541   3.279 -1.9486  1.6268 -0.6121
10056SOL     OW31889   1.907   8.339   7.530 -0.1391 -0.8242  0.2946
10056SOL    HW131890   1.864   8.420   7.557 -0.0935 -0.2627 -1.2362
10056SOL    HW231891   2.000   8.360   7.530 -0.0210 -1.2916  1.1722
10057SOL     OW31892   6.672   8.145   2.692 -0.4426 -0.4398 -0.1871
10057SOL    HW131893   6.615   8.070   2.673 -0.9837 -0.6123  1.9078
10057SOL    HW231894   6.699   8.132   2.783 -0.6030  1.9517  0.2580
10058SOL     OW31895   7.683   1.721   0.702 -0.0333  0.2996  0.4922
10058SOL    HW131896   7.598   1.747   0.737  0.0640 -0.7685  1.6043
10058SOL    HW231897   7.662   1.654   0.637 -0.1799  1.9318 -1.2382
10059SOL     OW31898   2.946   2.076   8.525 -0.1992 -0.3962  0.0444
10059SOL    HW131899   2.949   2.080   8.620 -0.1314  0.2239  0.0204
10059SOL    HW231900   2.919   2.164   8.498  0.9650 -0.2090 -0.5520
10060SOL     OW31901   9.338   8.679   6.939 -0.2452  0.8855  0.7413
10060SOL    HW131902   9.374   8.738   7.005  0.8254 -0.0281  1.0113
10060SOL    HW231903   9.301   8.607   6.989  0.2873  0.3446  0.3593
10061SOL     OW31904   1.013   1.416   8.688  0.1694  0.3853 -0.4326
10061SOL    HW131905   1.004   1.321   8.685 -1.8158  0.4428  1.3725
10061SOL    HW231906   1.106   1.432   8.673  0.7784 -1.9293  0.4476
10062SOL     OW31907   7.222   1.529   3.814  0.2837 -0.1893  0.3873
10062SOL    HW131908   7.182   1.446   3.789  2.3719 -0.4603 -2.6270
10062SOL    HW231909   7.265   1.511   3.898  0.9630 -2.3127 -0.3422
10063SOL     OW31910   3.141   4.239   6.170  0.3916 -0.0149 -0.5301
10063SOL    HW131911   3.134   4.179   6.096 -0.7142 -2.1537  1.1778
10063SOL    HW231912   3.236   4.249   6.184  0.6141 -1.4538 -0.8407
10064SOL     OW31913   3.149   7.645   0.220 -0.3616  0.1678  0.6659
10064SOL    HW131914   3.241   7.645   0.245 -0.5144 -1.8595  1.3969
10064SOL    HW231915   3.114   7.727   0.256  1.6229  2.2231 -1.7581
10065SOL     OW31916   3.803   0.733   3.157 -0.2662  0.0470  0.1112
10065SOL    HW131917   3.835   0.794   3.223  1.5987 -1.4179  0.6407
10065SOL    HW231918   3.709   0.728   3.173 -0.4803  2.6427  0.1061
10066SOL     OW31919   2.223   9.480   1.746 -0.1173 -0.4000  0.7567
10066SOL    HW131920   2.311   9.503   1.715  1.2037 -2.8226  2.4197
10066SOL    HW231921   2.168   9.488   1.668  2.0297 -1.1286 -0.9512
10067SOL     OW31922   1.652   1.383   0.007  0.0222  0.2600 -0.1067
10067SOL    HW131923   1.736   1.430   0.008  0.0274  0.3023 -1.4418
10067SOL    HW231924   1.673   1.295  -0.022 -0.3125  0.0689  0.2128
10068SOL     OW31925   6.300   3.757   6.987 -0.1361  0.0871  0.8693
10068SOL    HW131926   6.288   3.681   6.930 -0.1157 -0.5154  1.6611
10068SOL    HW231927   6.351   3.818   6.934 -1.2552  0.1048 -0.2557
10069SOL     OW31928   5.460   4.771   0.925 -0.4774  0.2436 -0.4987
10069SOL    HW131929   5.556   4.773   0.919 -0.5798  1.2319 -2.4341
10069SOL    HW231930   5.434   4.862   0.911 -1.6885  0.2712  1.4750
10070SOL     OW31931   2.894   3.026   5.734 -0.1633  0.0719 -0.1757
10070SOL    HW131932   2.886   3.121   5.722  0.9833  0.0039 -1.8193
10070SOL    HW231933   2.900   3.015   5.829 -1.8887  1.4713  0.1604
10071SOL     OW31934   2.242   2.300   8.884  0.0077  0.1546 -0.0593
10071SOL    HW131935   2.165   2.349   8.914 -1.0547 -1.0664 -0.6891
10071SOL    HW231936   2.315   2.359   8.898 -1.0982  1.5066  0.2082
10072SOL     OW31937   5.769   5.800   1.418 -0.0686 -0.3171 -0.6718
10072SOL    HW131938   5.806   5.750   1.346  0.9477  0.9013 -1.0391
10072SOL    HW231939   5.687   5.755   1.439  0.3700 -1.5911 -1.5475
10073SOL     OW31940   2.199   3.489   2.172 -0.4146 -0.4468 -0.7295
10073SOL    HW131941   2.265   3.430   2.135  1.2001  1.0862 -0.4859
10073SOL    HW231942   2.176   3.546   2.099 -3.0701 -2.1841 -1.3764
10074SOL     OW31943   0.232   5.374   6.755 -0.3050 -0.3149  0.4207
10074SOL    HW131944   0.284   5.368   6.675  1.3823  0.8069  1.3785
10074SOL    HW231945   0.277   5.317   6.817 -0.9196 -0.2650  0.9199
10075SOL     OW31946   3.570   1.618   2.884  0.1339  0.6819  0.2545
10075SOL    HW131947   3.567   1.526   2.910  0.7223  0.4963 -0.2983
10075SOL    HW231948   3.661   1.644   2.898  0.0937  1.0241 -0.0997
10076SOL     OW31949   8.404   2.942   6.277  0.2086  0.1103  0.1688
10076SOL    HW131950   8.442   2.934   6.190 -0.6132 -1.9436 -0.0522
10076SOL    HW231951   8.326   2.996   6.264  0.6250  0.6441 -0.1634
10077SOL     OW31952   3.463   1.954   2.686  0.1361  0.1104  0.2691
10077SOL    HW131953   3.555   1.929   2.693  0.8974  2.4758 -0.3821
10077SOL    HW231954   3.428   1.942   2.774  1.5839  0.9824  1.0055
10078SOL     OW31955   6.082   1.735   2.981 -0.1001 -0.5481 -0.0228
10078SOL    HW131956   6.007   1.755   3.036  0.1771  2.5511 -0.5963
10078SOL    HW231957   6.150   1.797   3.009  1.6417 -1.9977 -0.7815
10079SOL     OW31958   6.211   5.502   4.870 -0.0472  0.2212 -0.5702
10079SOL    HW131959   6.246   5.459   4.948 -1.4690 -2.6470 -1.3731
10079SOL    HW231960   6.129   5.542   4.900  0.0167  0.1749 -0.3334
10080SOL     OW31961   3.847   5.620   3.343 -0.2800 -0.1377  0.1058
10080SOL    HW131962   3.798   5.687   3.390  2.1036  1.5950  0.3513
10080SOL    HW231963   3.913   5.669   3.294 -1.0815 -2.0487 -3.1926
10081SOL     OW31964   3.779   4.828   6.933 -0.0722 -0.5006  0.2014
10081SOL    HW131965   3.722   4.880   6.990  0.9496 -1.1152  1.8617
10081SOL    HW231966   3.765   4.864   6.845 -2.3165 -0.0608  0.6936
10082SOL     OW31967   0.210   0.597   8.064  0.1382 -0.1951  0.1322
10082SOL    HW131968   0.253   0.590   7.979 -4.5804  0.1750 -2.6411
10082SOL    HW231969   0.215   0.690   8.087  1.1193 -0.2394  0.1403
10083SOL     OW31970   7.770   6.328   7.039 -0.0722 -0.0199  0.1092
10083SOL    HW131971   7.841   6.287   7.089 -0.0999  1.2517  1.2624
10083SOL    HW231972   7.786   6.422   7.048 -0.4010  0.2637 -1.8613
10084SOL     OW31973   2.924   5.557   7.880  0.1895  0.1253 -0.1624
10084SOL    HW131974   2.967   5.487   7.831 -1.6545 -3.1617  2.4489
10084SOL    HW231975   2.846   5.578   7.829 -0.1269 -1.0101 -0.1580
10085SOL     OW31976   4.903   1.691   9.424 -0.6256  0.6815 -0.0753
10085SOL    HW131977   4.956   1.612   9.436 -2.0866 -0.0245  2.6864
10085SOL    HW231978   4.835   1.665   9.361 -0.0059  0.3503 -0.6153
10086SOL     OW31979   5.212   2.446   7.957 -0.0439  0.1237 -0.0020
10086SOL    HW131980   5.124   2.440   7.993 -1.1335  0.6137 -2.3929
10086SOL    HW231981   5.240   2.535   7.976  1.1781 -0.8330  3.2460
10087SOL     OW31982   5.500   6.371   8.562  0.4071 -0.0947  0.5784
10087SOL    HW131983   5.551   6.324   8.628 -1.4248  0.5826  2.5918
10087SOL    HW231984   5.416   6.390   8.604 -0.3176  1.7098 -1.4403
10088SOL     OW31985   4.844   6.779   0.451  0.1187  0.0056 -0.2910
10088SOL    HW131986   4.797   6.732   0.520  1.3074 -0.5073  0.2086
10088SOL    HW231987   4.798   6.755   0.371 -3.0524  2.7871  0.4505
10089SOL     OW31988   2.351   1.749   4.296  0.2381 -0.1829  0.2618
10089SOL    HW131989   2.428   1.784   4.250  0.1324  0.7910  0.8092
10089SOL    HW231990   2.362   1.654   4.290  2.9378 -0.1749  2.6506
10090SOL     OW31991   0.549   2.001   2.913 -0.0565 -0.2622  0.0570
10090SOL    HW131992   0.524   1.925   2.966 -1.1289 -0.2160 -0.3528
10090SOL    HW231993   0.590   1.964   2.835  0.1075 -0.3946  0.2070
10091SOL     OW31994   4.580   7.589   0.377  0.0994 -0.4068  0.1703
10091SOL    HW131995   4.547   7.640   0.303  1.0247 -1.9595 -1.3784
10091SOL    HW231996   4.501   7.552   0.417 -0.3250 -1.5881 -1.6217
10092SOL     OW31997   5.080   5.312   7.856 -0.4140  0.4535 -0.0635
10092SOL    HW131998   5.026   5.380   7.816 -0.6840  0.8195  0.9008
10092SOL    HW231999   5.053   5.311   7.948  0.4862 -0.0785  0.2067
10093SOL     OW32000   0.224   4.593   8.490 -0.0687  0.1317  0.0963
10093SOL    HW132001   0.182   4.643   8.421  0.6825 -0.1224 -0.5592
10093SOL    HW232002   0.155   4.578   8.555 -0.1323  2.6733  0.6968
10094SOL     OW32003   7.920   0.229   6.669 -0.4209 -0.1699  0.3315
10094SOL    HW132004   7.925   0.315   6.627  0.0921 -0.0126  0.6942
10094SOL    HW232005   8.012   0.204   6.683 -0.5311  0.4557  2.6926
10095SOL     OW32006   3.597   3.909   3.936 -0.5203 -0.1333 -0.3292
10095SOL    HW132007   3.525   3.853   3.966 -0.7451  0.0829 -0.4562
10095SOL    HW232008   3.644   3.932   4.015  0.8140 -2.1533 -0.4525
10096SOL     OW32009   6.649   0.856   9.457 -0.0346 -0.1081 -0.2848
10096SOL    HW132010   6.593   0.785   9.489  0.3031  0.4600  1.6785
10096SOL    HW232011   6.738   0.825   9.473  0.1627  1.7755  3.3462
10097SOL     OW32012   5.651   0.290   3.700 -0.5608 -0.0078 -0.0245
10097SOL    HW132013   5.556   0.292   3.689 -0.4732 -1.7578 -1.7270
10097SOL    HW232014   5.665   0.228   3.772 -0.7035 -1.5282 -1.2424
10098SOL     OW32015   1.527   2.106   8.747 -0.0603 -0.1337  0.0471
10098SOL    HW132016   1.521   2.015   8.778  1.5914 -0.5352 -0.6874
10098SOL    HW232017   1.512   2.100   8.653  0.2157  0.3212 -0.0309
10099SOL     OW32018   6.359   8.835   9.466 -0.2535  0.4164 -0.4860
10099SOL    HW132019   6.281   8.784   9.487  0.0092 -0.2110 -0.9970
10099SOL    HW232020   6.422   8.812   9.535  0.2666 -0.8763 -1.3564
10100SOL     OW32021   1.758   6.118   2.979 -0.6114  0.3503 -0.4041
10100SOL    HW132022   1.731   6.095   3.068  0.6413 -1.0364 -0.3488
10100SOL    HW232023   1.714   6.054   2.923 -0.7587  0.7158 -0.7081
10101SOL     OW32024   7.310   4.795   0.833  0.7600  0.8326  0.3636
10101SOL    HW132025   7.275   4.872   0.788 -0.2995  0.2205  0.1005
10101SOL    HW232026   7.360   4.748   0.766 -1.3288 -0.4076 -0.4416
10102SOL     OW32027   6.682   6.519   3.176  0.1733 -0.1036  0.1007
10102SOL    HW132028   6.697   6.610   3.152  0.8128  0.9438  3.7578
10102SOL    HW232029   6.767   6.488   3.207 -0.2502 -1.6403 -0.1876
10103SOL     OW32030   7.243   8.359   3.122 -0.5269  0.0727 -0.1892
10103SOL    HW132031   7.150   8.344   3.139 -0.4965  1.9542  2.0383
10103SOL    HW232032   7.288   8.286   3.163 -0.9225  0.3351  0.7181
10104SOL     OW32033   2.786   7.592   6.214  0.3515  0.1488  0.6066
10104SOL    HW132034   2.813   7.656   6.148  1.1282  0.3407  1.0980
10104SOL    HW232035   2.758   7.644   6.289 -0.4469 -0.0692  0.4696
10105SOL     OW32036   7.252   6.306   2.808 -0.1138  0.6572 -0.2022
10105SOL    HW132037   7.245   6.334   2.717 -1.6209  1.6197  0.1585
10105SOL    HW232038   7.330   6.350   2.841  0.0819  0.8153 -0.8621
10106SOL     OW32039   1.402   0.967   8.288 -0.1016 -0.0364  0.2607
10106SOL    HW132040   1.356   0.899   8.238  0.5553 -0.2632 -0.0443
10106SOL    HW232041   1.451   1.016   8.223 -0.2389  0.4682  0.5354
10107SOL     OW32042   1.623   6.456   3.375 -0.0652  0.1340 -0.8543
10107SOL    HW132043   1.533   6.457   3.406  0.4186 -0.6689  0.6771
10107SOL    HW232044   1.675   6.429   3.451  1.4070  0.0165 -1.8497
10108SOL     OW32045   5.007   3.174   8.024  0.5246 -0.2781 -0.0823
10108SOL    HW132046   4.960   3.114   8.082  1.4649  0.9777  2.0626
10108SOL    HW232047   4.952   3.252   8.021  0.1856 -0.5411 -1.4271
10109SOL     OW32048   7.999   1.137   1.243 -0.0512 -0.0096  0.2547
10109SOL    HW132049   7.967   1.130   1.153  0.1314 -1.6078  0.2803
10109SOL    HW232050   7.933   1.090   1.295  0.1462  0.3997  0.8780
10110SOL     OW32051   9.544   6.652   1.384 -0.1568 -0.3253 -0.3497
10110SOL    HW132052   9.479   6.587   1.357 -1.4976  1.2734 -1.1982
10110SOL    HW232053   9.494   6.733   1.394  1.1188  0.2268  2.4997
10111SOL     OW32054   8.257   6.398   5.813  0.6022 -0.0469  0.3848
10111SOL    HW132055   8.210   6.452   5.876  0.1816  0.1466 -0.0822
10111SOL    HW232056   8.349   6.425   5.822  0.4031  0.7334  0.1839
10112SOL     OW32057   1.121   3.058   9.652 -0.1063 -0.2188 -0.0793
10112SOL    HW132058   1.179   3.094   9.584 -2.2620  0.7965 -1.5062
10112SOL    HW232059   1.096   2.972   9.619 -0.7104  0.0438 -0.3261
10113SOL     OW32060   6.171   0.127   9.149 -0.2104  0.6569 -0.4295
10113SOL    HW132061   6.230   0.055   9.128 -1.8318 -1.0877  0.7532
10113SOL    HW232062   6.083   0.091   9.140 -1.0839  1.6077  2.8081
10114SOL     OW32063   2.013   7.481   5.463  0.2708  0.1597 -0.7468
10114SOL    HW132064   2.024   7.421   5.389  1.8963 -0.2154 -0.2475
10114SOL    HW232065   1.922   7.511   5.457  0.5797  0.8472 -3.4229
10115SOL     OW32066   1.112   5.093   2.495 -0.3177 -0.0715 -0.2208
10115SOL    HW132067   1.141   5.081   2.586 -0.6132 -1.6960 -0.3020
10115SOL    HW232068   1.163   5.166   2.463  2.1817 -1.4866  0.2879
10116SOL     OW32069   6.484   1.605   1.578  0.1976  0.1911  0.3382
10116SOL    HW132070   6.407   1.661   1.568 -0.7393  0.1594  4.9457
10116SOL    HW232071   6.448   1.519   1.601  1.5698 -0.0624  1.6715
10117SOL     OW32072   2.476   8.198   5.344  0.2038 -0.3762  0.3059
10117SOL    HW132073   2.494   8.289   5.320 -1.4841 -0.0979 -0.0132
10117SOL    HW232074   2.543   8.177   5.410  0.3476  1.2304  0.7163
10118SOL     OW32075   7.989   8.406   6.009 -0.1687 -0.2883  0.2429
10118SOL    HW132076   8.002   8.501   6.013  0.5405 -0.3465 -0.5198
10118SOL    HW232077   7.921   8.393   5.944 -1.4092 -0.2266  1.4739
10119SOL     OW32078   7.656   5.225   5.365 -0.2138 -0.1266 -0.1545
10119SOL    HW132079   7.651   5.198   5.273 -1.7028 -0.9592  0.1362
10119SOL    HW232080   7.651   5.320   5.362 -0.5241 -0.1573 -0.9453
10120SOL     OW32081   6.872   5.702   4.811 -0.6121  0.4281  0.1500
10120SOL    HW132082   6.954   5.735   4.847 -1.9523  4.1981  0.2414
10120SOL    HW232083   6.817   5.685   4.888 -0.6798  0.1355  0.0401
10121SOL     OW32084   8.976   2.510   7.676 -0.6885  0.5182  0.3601
10121SOL    HW132085   8.963   2.603   7.654 -2.2185  0.4522  0.8693
10121SOL    HW232086   8.890   2.470   7.663  0.0599 -0.9527 -0.3136
10122SOL     OW32087   6.380   2.908   7.435  0.2226 -0.6224  0.6621
10122SOL    HW132088   6.379   2.944   7.524  0.8247  0.7783  0.1456
10122SOL    HW232089   6.469   2.873   7.425  0.2698 -0.4574  0.5005
10123SOL     OW32090   2.735   8.066   7.514 -0.3370 -0.2205  0.2210
10123SOL    HW132091   2.810   8.034   7.464 -0.8353 -1.2741  0.1252
10123SOL    HW232092   2.749   8.161   7.520  0.6069 -0.3047 -0.4381
10124SOL     OW32093   4.354   6.029   8.841  0.1319 -0.0393 -0.3751
10124SOL    HW132094   4.319   6.092   8.778 -0.1182 -0.5505 -0.7555
10124SOL    HW232095   4.337   5.944   8.801  0.2098 -0.3581  0.2671
10125SOL     OW32096   4.033   7.045   2.367 -0.4212  0.0670  0.0659
10125SOL    HW132097   3.987   6.988   2.305 -1.3577 -1.9659  2.4688
10125SOL    HW232098   4.048   7.126   2.318 -1.6191 -1.1862 -2.5889
10126SOL     OW32099   9.623   0.904   5.745 -0.2276  0.1480  0.0421
10126SOL    HW132100   9.715   0.903   5.771 -0.9518 -1.6534  3.0118
10126SOL    HW232101   9.604   0.996   5.730  1.7924  0.6744  0.3412
10127SOL     OW32102   4.859   8.606   1.563 -0.2237  0.3061 -0.6304
10127SOL    HW132103   4.909   8.613   1.644 -1.0799  1.5074 -0.1737
10127SOL    HW232104   4.924   8.595   1.495  0.5762  0.4386  0.0988
10128SOL     OW32105   3.115   8.954   1.418  0.1883 -0.5516  0.4431
10128SOL    HW132106   3.080   8.905   1.345  0.7272  1.3745 -1.1923
10128SOL    HW232107   3.046   8.951   1.485 -1.2267 -0.5272 -0.9720
10129SOL     OW32108   1.797   3.226   8.975  0.3004  0.2927 -0.0766
10129SOL    HW132109   1.889   3.251   8.973  0.3747  0.0884  0.6019
10129SOL    HW232110   1.795   3.139   8.933  0.1944  0.9207 -1.4341
10130SOL     OW32111   8.507   1.130   3.696 -0.1107 -0.4365 -0.0170
10130SOL    HW132112   8.417   1.162   3.701 -0.0630 -0.2342 -0.3754
10130SOL    HW232113   8.501   1.046   3.652 -0.0394 -0.0092 -0.8721
10131SOL     OW32114   3.053   4.740   9.188  0.1234 -0.0525  0.1947
10131SOL    HW132115   3.056   4.720   9.094 -1.4108  0.2559  0.0575
10131SOL    HW232116   2.966   4.778   9.202  0.1612 -0.4833  1.8174
10132SOL     OW32117   3.308   6.566   2.960 -0.1471  0.0747 -0.0792
10132SOL    HW132118   3.285   6.611   3.041 -0.3057  1.6162 -0.9357
10132SOL    HW232119   3.224   6.551   2.916  0.0634  2.3296 -1.4690
10133SOL     OW32120   5.120   1.982   4.798 -0.1537 -0.2524  0.0824
10133SOL    HW132121   5.046   1.922   4.813  0.7552 -2.0198 -2.0084
10133SOL    HW232122   5.195   1.924   4.788  1.0034  1.3502 -0.7819
10134SOL     OW32123   5.780   4.668   8.036  0.0430 -0.3264  0.0541
10134SOL    HW132124   5.794   4.643   8.127 -0.2686 -2.0067 -0.3102
10134SOL    HW232125   5.808   4.590   7.986  1.6264  1.0775 -1.3852
10135SOL     OW32126   3.958   7.198   7.952  0.5278  0.1207 -0.5817
10135SOL    HW132127   3.893   7.161   8.013  1.5567 -0.3708  0.2368
10135SOL    HW232128   3.986   7.279   7.994  0.5144  0.2946 -0.9029
10136SOL     OW32129   6.776   8.152   4.539  0.1224  0.0478  0.4616
10136SOL    HW132130   6.714   8.079   4.539 -1.4065  1.3246  0.2729
10136SOL    HW232131   6.722   8.230   4.545  1.7743  1.1645  1.4560
10137SOL     OW32132   8.580   9.231   5.783 -0.4315  0.0281 -0.2585
10137SOL    HW132133   8.637   9.258   5.855 -1.1136  0.0614  0.2672
10137SOL    HW232134   8.630   9.254   5.704 -0.6820  2.1718  0.1591
10138SOL     OW32135   1.943   8.047   0.253  0.1037  0.2439  0.6890
10138SOL    HW132136   1.953   8.143   0.254  0.4558  0.2031  1.6890
10138SOL    HW232137   1.921   8.027   0.162  2.3950  1.0300 -0.1007
10139SOL     OW32138   0.573   8.669   9.043  0.2330  0.3966  0.7892
10139SOL    HW132139   0.548   8.684   8.952  0.5951  0.3190  0.6739
10139SOL    HW232140   0.631   8.593   9.040  1.0608  1.0007  0.9521
10140SOL     OW32141   2.206   9.272   0.276  0.7555 -0.3433 -0.3093
10140SOL    HW132142   2.232   9.182   0.255  1.3039 -0.6106  1.3205
10140SOL    HW232143   2.245   9.288   0.362 -0.0901  1.1478 -0.1756
10141SOL     OW32144   7.605   7.328   8.076  0.0031 -0.0433 -0.2475
10141SOL    HW132145   7.656   7.402   8.043  0.9551 -0.0742  1.0760
10141SOL    HW232146   7.548   7.365   8.142 -1.4447 -0.0868 -1.4084
10142SOL     OW32147   9.106   2.435   6.952 -0.5558  0.0627  0.1818
10142SOL    HW132148   9.140   2.371   6.889 -1.5464  0.3691 -0.6982
10142SOL    HW232149   9.177   2.499   6.962 -0.3891  0.0224 -0.6454
10143SOL     OW32150   6.416   2.918   9.460 -0.1648 -0.3978  0.2081
10143SOL    HW132151   6.511   2.908   9.451 -0.1379  0.2138 -0.2678
10143SOL    HW232152   6.401   3.012   9.452 -0.8128 -0.4903  0.2941
10144SOL     OW32153   7.985   0.258   1.559 -0.3431 -0.4313 -0.3208
10144SOL    HW132154   8.036   0.246   1.478 -1.1141  1.1325 -1.0679
10144SOL    HW232155   7.894   0.267   1.529 -0.6637 -0.0182  0.7427
10145SOL     OW32156   6.565   6.281   8.390 -0.1536  0.0049 -0.4234
10145SOL    HW132157   6.563   6.195   8.348  0.6797  0.1126 -0.6960
10145SOL    HW232158   6.498   6.331   8.345 -0.0828 -0.2514 -0.8159
10146SOL     OW32159   0.559   1.787   8.554 -0.2747  0.3775  0.0293
10146SOL    HW132160   0.511   1.837   8.488  0.5425 -0.5671 -1.3289
10146SOL    HW232161   0.599   1.854   8.610 -0.1734  1.2217 -1.0225
10147SOL     OW32162   7.066   0.817   3.141  0.3967  0.1329  0.1851
10147SOL    HW132163   6.976   0.799   3.114  0.0339  0.1497  1.3408
10147SOL    HW232164   7.076   0.912   3.132 -0.1637  0.3190  1.3719
10148SOL     OW32165   7.074   9.568   2.116  0.1773 -0.1934 -0.0285
10148SOL    HW132166   7.045   9.509   2.046 -0.1357 -2.3071  1.7346
10148SOL    HW232167   7.103   9.508   2.186  1.5744  1.8086  1.2040
10149SOL     OW32168   3.374   6.374   4.872 -0.1472 -0.0407  0.8908
10149SOL    HW132169   3.374   6.387   4.778  1.0385 -1.7035  0.6165
10149SOL    HW232170   3.302   6.313   4.888  1.1281 -1.6790  0.6915
10150SOL     OW32171   3.650   1.632   4.019  0.5310 -0.0127 -0.1605
10150SOL    HW132172   3.742   1.624   4.043  0.1152  0.2497  1.7382
10150SOL    HW232173   3.615   1.543   4.025  0.2479  0.1633  1.1538
10151SOL     OW32174   6.553   4.192   6.510  0.4969 -0.3479  0.0777
10151SOL    HW132175   6.603   4.257   6.559 -0.7480 -0.3336  1.3997
10151SOL    HW232176   6.589   4.108   6.538 -0.1634 -0.3371  1.0244
10152SOL     OW32177   5.589   2.047   2.574 -0.1186 -0.7108  0.2910
10152SOL    HW132178   5.542   1.965   2.564 -0.4739 -0.4680 -0.0542
10152SOL    HW232179   5.681   2.021   2.583 -0.0837 -1.0957 -0.9775
10153SOL     OW32180   6.445   1.919   1.717  0.0171 -0.0173 -0.2937
10153SOL    HW132181   6.377   1.981   1.741  0.0938 -0.8605  2.4696
10153SOL    HW232182   6.424   1.840   1.768  1.4112 -1.3169 -1.6320
10154SOL     OW32183   6.203   4.782   0.623  0.1447  0.2801  0.1238
10154SOL    HW132184   6.270   4.818   0.565  1.1436 -1.5528  0.0325
10154SOL    HW232185   6.235   4.694   0.644 -1.2627  0.0882  1.7189
10155SOL     OW32186   3.041   0.999   0.478  0.2765  0.0789  0.0793
10155SOL    HW132187   3.054   1.090   0.452 -0.0851  0.2399  0.4492
10155SOL    HW232188   3.117   0.953   0.443 -0.3147  0.2269 -1.4939
10156SOL     OW32189   7.877   2.386   1.450  0.5647 -0.8101 -0.5693
10156SOL    HW132190   7.817   2.325   1.492  2.6623 -1.6754  1.2935
10156SOL    HW232191   7.947   2.331   1.414  0.8533  0.2615 -1.7207
10157SOL     OW32192   4.083   8.730   4.886  0.0877  0.7846 -0.6777
10157SOL    HW132193   4.172   8.714   4.920  0.5204 -0.0043 -2.1039
10157SOL    HW232194   4.073   8.825   4.890  1.7870  1.0975 -2.3090
10158SOL     OW32195   5.875   3.173   2.510 -0.1060  0.1246  0.3134
10158SOL    HW132196   5.958   3.205   2.544 -0.3144  2.0177 -0.8505
10158SOL    HW232197   5.836   3.124   2.583  2.4180 -1.6579  0.5893
10159SOL     OW32198   4.736   6.078   1.344 -0.4510 -0.5171  0.0971
10159SOL    HW132199   4.775   6.077   1.432 -0.1648 -2.4943 -0.0116
10159SOL    HW232200   4.697   5.991   1.335 -3.0285  0.6276 -0.6451
10160SOL     OW32201   8.827   3.108   6.695  0.4413  0.0109 -0.0976
10160SOL    HW132202   8.922   3.119   6.689  0.3157  2.2832  0.8496
10160SOL    HW232203   8.809   3.116   6.789 -0.8888  2.4231 -0.4764
10161SOL     OW32204   5.341   2.446   1.968 -0.3222 -0.2860 -0.1057
10161SOL    HW132205   5.246   2.438   1.955 -0.3870 -0.7995  0.6353
10161SOL    HW232206   5.379   2.380   1.910 -0.5078 -1.2305  0.8244
10162SOL     OW32207   0.600   3.132   8.194 -0.2160 -0.0372 -0.1940
10162SOL    HW132208   0.693   3.110   8.200  0.1602  1.4443 -0.1964
10162SOL    HW232209   0.583   3.138   8.100 -0.8265 -2.2268 -0.2674
10163SOL     OW32210   7.872   2.731   8.994  0.6524 -0.0847  0.4217
10163SOL    HW132211   7.810   2.734   9.067  0.8151  0.4649  0.5403
10163SOL    HW232212   7.835   2.666   8.933  0.6668 -0.7629  1.1221
10164SOL     OW32213   7.540   6.509   6.528 -0.5621  0.3411 -0.6036
10164SOL    HW132214   7.475   6.575   6.555 -0.7252 -0.0752  0.0432
10164SOL    HW232215   7.533   6.440   6.594 -0.7891 -0.6000 -1.5884
10165SOL     OW32216   3.693   3.421   4.522  1.0670  0.2738  0.6542
10165SOL    HW132217   3.638   3.409   4.599 -0.5763  0.1735 -0.4963
10165SOL    HW232218   3.722   3.333   4.499 -2.1193 -0.3987 -1.4018
10166SOL     OW32219   5.126   9.050   8.809  0.0333 -0.0884  0.1155
10166SOL    HW132220   5.183   9.093   8.744  0.0645  0.5246  0.5405
10166SOL    HW232221   5.069   9.120   8.841 -1.5429 -0.8478 -0.8814
10167SOL     OW32222   5.905   9.621   0.070 -0.3679  0.2620  0.1281
10167SOL    HW132223   5.841   9.553   0.094 -2.5088  1.0329 -2.8644
10167SOL    HW232224   5.928   9.602  -0.020  0.7396  2.2074 -0.0567
10168SOL     OW32225   5.618   8.759   6.366  0.1524 -0.7563 -0.4772
10168SOL    HW132226   5.614   8.853   6.349  1.8462 -0.5788 -0.0688
10168SOL    HW232227   5.550   8.722   6.310  0.7506  0.5184 -2.1631
10169SOL     OW32228   9.398   0.639   8.732 -0.1203  0.8158 -0.0336
10169SOL    HW132229   9.431   0.727   8.748 -0.0425  0.8420 -0.3483
10169SOL    HW232230   9.473   0.582   8.747  0.1578  0.8984 -1.0589
10170SOL     OW32231   4.163   6.157   6.034  0.0398 -0.1316 -0.2085
10170SOL    HW132232   4.094   6.097   6.062  1.0879 -0.4761  1.7868
10170SOL    HW232233   4.209   6.109   5.965  0.8477 -1.7143  1.3355
10171SOL     OW32234   6.383   3.288   1.800 -0.0770  0.2098  0.0759
10171SOL    HW132235   6.322   3.233   1.751  0.4539 -0.5311  0.2259
10171SOL    HW232236   6.358   3.275   1.892 -1.1071  1.6379  0.0418
10172SOL     OW32237   4.627   6.799   5.908  0.0113  0.8787  0.0200
10172SOL    HW132238   4.624   6.876   5.852  1.0251  1.9272  1.3597
10172SOL    HW232239   4.635   6.833   5.997  1.3413 -0.7503  0.5811
10173SOL     OW32240   8.057   2.971   6.591 -0.1384  0.2299  0.0735
10173SOL    HW132241   8.117   3.045   6.596 -1.0040  0.9894 -0.3796
10173SOL    HW232242   8.013   2.969   6.676  1.1431 -0.8863  0.7351
10174SOL     OW32243   1.650   1.333   0.616  0.3802 -0.1136  0.2232
10174SOL    HW132244   1.713   1.400   0.643  3.3552 -2.8551  0.7361
10174SOL    HW232245   1.657   1.331   0.521  0.3196  0.2452  0.2091
10175SOL     OW32246   2.228   6.422   9.112 -0.4742  0.2282 -0.1371
10175SOL    HW132247   2.270   6.450   9.031  0.4252 -1.0150 -0.1309
10175SOL    HW232248   2.290   6.446   9.181 -0.2911 -0.5587 -0.0173
10176SOL     OW32249   0.085   7.001   9.111  0.4447 -0.4575 -0.3338
10176SOL    HW132250   0.153   7.028   9.172 -1.1907  2.6074  0.3175
10176SOL    HW232251   0.131   6.991   9.027  1.6889  1.9168 -0.0101
10177SOL     OW32252   4.978   3.572   3.263  0.2997  0.3215  0.7687
10177SOL    HW132253   4.967   3.478   3.275 -0.9613  0.3044 -0.3028
10177SOL    HW232254   5.073   3.585   3.258  0.4854 -0.8788  0.9509
10178SOL     OW32255   0.124   0.655   9.399 -0.2746  0.4402 -0.4941
10178SOL    HW132256   0.149   0.678   9.489  0.3292  1.6917 -0.9582
10178SOL    HW232257   0.207   0.644   9.353 -0.5438 -2.2221 -0.4503
10179SOL     OW32258   7.772   1.372   0.286  0.1458 -0.2896  0.0529
10179SOL    HW132259   7.684   1.409   0.287  0.5818  0.7517  0.3105
10179SOL    HW232260   7.799   1.379   0.194  0.5968  0.9586  0.2599
10180SOL     OW32261   0.270   1.126   7.237  0.0809 -0.0201  0.0496
10180SOL    HW132262   0.336   1.089   7.179  1.0673  0.4465  0.8445
10180SOL    HW232263   0.314   1.198   7.282 -0.7656 -0.1155  1.0845
10181SOL     OW32264   1.010   0.175   8.757 -0.4831 -0.1248 -0.4484
10181SOL    HW132265   0.988   0.143   8.845 -0.6674 -0.8783 -0.7600
10181SOL    HW232266   0.929   0.213   8.725 -0.1409  1.1384  0.1083
10182SOL     OW32267   1.810   7.658   4.383 -0.4133 -0.2615 -0.0374
10182SOL    HW132268   1.834   7.630   4.295  3.0437 -1.4456  1.0882
10182SOL    HW232269   1.721   7.627   4.396 -0.8341 -0.4637 -2.9200
10183SOL     OW32270   8.475   0.269   7.708 -0.2247  0.1931 -0.0516
10183SOL    HW132271   8.513   0.198   7.657 -2.0630  0.7306 -2.3944
10183SOL    HW232272   8.549   0.326   7.729  0.7126 -0.2969 -1.8126
10184SOL     OW32273   7.005   7.646   6.316 -0.0048 -0.2364  0.4975
10184SOL    HW132274   7.024   7.632   6.223 -0.5399 -1.2566  0.5265
10184SOL    HW232275   6.995   7.741   6.325 -1.3664 -0.2336 -0.7793
10185SOL     OW32276   8.928   0.048   1.049 -0.6227 -0.5582  0.1221
10185SOL    HW132277   8.836   0.053   1.075 -1.4752  0.9331 -2.8203
10185SOL    HW232278   8.930  -0.017   0.980  0.4724 -0.3109 -0.0916
10186SOL     OW32279   0.082   9.494   6.763 -0.4131  0.2790  0.1007
10186SOL    HW132280   0.172   9.485   6.730 -0.3860 -0.6647  0.3943
10186SOL    HW232281   0.087   9.464   6.853 -1.1490 -0.4370 -0.0810
10187SOL     OW32282   9.689   2.518   5.943  0.3740 -0.2440 -0.6612
10187SOL    HW132283   9.696   2.430   5.905 -2.2606 -0.9137  0.2240
10187SOL    HW232284   9.644   2.504   6.026  2.7143  1.6149  1.0466
10188SOL     OW32285   0.444   8.211   8.569  0.0170 -0.2937  0.3496
10188SOL    HW132286   0.395   8.287   8.599 -0.1340 -0.9948  2.0155
10188SOL    HW232287   0.381   8.158   8.521  0.2444  0.8222 -1.2645
10189SOL     OW32288   1.902   7.375   1.606 -0.1330  0.4845  0.0052
10189SOL    HW132289   1.923   7.342   1.693 -0.4121  0.9042  0.2332
10189SOL    HW232290   1.838   7.444   1.621  0.0946  0.8143 -0.5074
10190SOL     OW32291   7.065   2.359   0.943 -0.2490  0.3504  0.2859
10190SOL    HW132292   7.094   2.421   0.876 -0.5180  0.9133  0.6889
10190SOL    HW232293   7.114   2.279   0.924 -0.8122  0.2792 -1.0162
10191SOL     OW32294   6.062   6.857   7.806 -0.1493 -0.2894 -0.6271
10191SOL    HW132295   5.977   6.841   7.765 -1.4724  2.3318  0.8758
10191SOL    HW232296   6.059   6.806   7.888 -0.0506 -0.5880 -0.8068
10192SOL     OW32297   7.086   5.862   4.641 -0.3468 -0.5453 -0.4018
10192SOL    HW132298   7.115   5.933   4.698  0.8648  0.3725 -2.0600
10192SOL    HW232299   6.996   5.885   4.616 -0.5570 -0.4922  0.3905
10193SOL     OW32300   3.596   5.488   9.655  0.0878 -0.3789  0.1620
10193SOL    HW132301   3.672   5.432   9.672 -0.0973 -0.5856  0.3114
10193SOL    HW232302   3.607   5.563   9.714  0.9273  0.3092 -0.8337
10194SOL     OW32303   8.650   1.734   9.458  0.5195  0.3974  0.0606
10194SOL    HW132304   8.625   1.825   9.474  0.1660  0.3315 -0.1109
10194SOL    HW232305   8.741   1.728   9.488  1.4497  1.4746 -2.3391
10195SOL     OW32306   7.409   6.213   0.018 -0.6880 -0.9597  0.1621
10195SOL    HW132307   7.476   6.145   0.023 -1.0328 -1.3448 -0.2925
10195SOL    HW232308   7.331   6.172   0.054 -1.1381 -1.1330 -0.9563
10196SOL     OW32309   0.658   1.242   4.081  0.4829  0.1577  0.2627
10196SOL    HW132310   0.693   1.202   4.161 -1.1863 -0.4112  0.7598
10196SOL    HW232311   0.621   1.325   4.110 -1.5726 -0.7617  0.4611
10197SOL     OW32312   0.025   6.427   2.846 -0.7786 -0.4968  0.5412
10197SOL    HW132313   0.082   6.361   2.807 -1.3798 -1.1601  0.7717
10197SOL    HW232314  -0.057   6.421   2.797 -1.1386 -0.5301  1.1389
10198SOL     OW32315   0.360   4.944   7.447 -0.1556 -0.2380  0.3150
10198SOL    HW132316   0.432   4.906   7.498 -0.0470 -0.8543 -0.2842
10198SOL    HW232317   0.281   4.921   7.497 -0.0274 -0.5680  0.3699
10199SOL     OW32318   9.043   1.636   4.324 -0.5213  0.2508 -0.4142
10199SOL    HW132319   9.124   1.613   4.369 -1.2957 -0.5434  0.6517
10199SOL    HW232320   9.057   1.609   4.233  0.2915 -0.1487 -0.1766
10200SOL     OW32321   7.921   4.370   8.791 -0.2315 -0.5379  0.5694
10200SOL    HW132322   7.970   4.434   8.842  0.2836 -1.0190  0.6828
10200SOL    HW232323   7.829   4.386   8.813 -0.2584  1.2185 -0.6180
10201SOL     OW32324   8.345   4.046   7.534 -0.1657  0.1860  0.0081
10201SOL    HW132325   8.258   4.015   7.511 -0.4346  0.6574  0.3634
10201SOL    HW232326   8.389   3.969   7.571 -0.1012 -0.2890 -1.0259
10202SOL     OW32327   8.465   1.159   2.819  0.2189 -0.0138  0.0581
10202SOL    HW132328   8.516   1.166   2.738  0.7610  1.1425  0.4828
10202SOL    HW232329   8.461   1.249   2.853 -0.6470 -0.3612  0.9272
10203SOL     OW32330   5.355   3.189   0.136 -0.0129 -0.3545  0.4231
10203SOL    HW132331   5.290   3.124   0.110 -0.1609  0.2460 -0.8333
10203SOL    HW232332   5.303   3.265   0.163  0.0495  0.7877 -2.2913
10204SOL     OW32333   4.946   4.239   3.914  0.0726 -0.5660 -0.3377
10204SOL    HW132334   4.914   4.318   3.870  0.2230  0.6021  1.5389
10204SOL    HW232335   5.039   4.236   3.892  0.0641 -0.2188 -0.4398
10205SOL     OW32336   5.295   8.569   2.983  0.1494 -0.0741  0.0715
10205SOL    HW132337   5.374   8.535   3.025  0.0867  2.7158  2.7620
10205SOL    HW232338   5.320   8.655   2.950 -1.7077  0.8735  0.9995
10206SOL     OW32339   5.692   1.018   7.897  0.1421  0.3368  0.6041
10206SOL    HW132340   5.780   1.025   7.932 -0.2434  1.2073  1.4487
10206SOL    HW232341   5.674   1.105   7.860 -0.0955 -0.0569 -0.2364
10207SOL     OW32342   3.457   4.013   4.211 -0.3413 -0.5084  0.1472
10207SOL    HW132343   3.418   3.926   4.208 -0.3078 -0.5115 -0.3714
10207SOL    HW232344   3.392   4.069   4.167  0.3067 -0.5461 -0.9053
10208SOL     OW32345   1.604   6.941   6.282 -0.1867 -0.2575 -0.1246
10208SOL    HW132346   1.688   6.914   6.319  0.5443  1.4824 -0.3920
10208SOL    HW232347   1.602   6.902   6.195  1.3066  1.2966 -0.9112
10209SOL     OW32348   8.338   9.490   2.190 -0.1907  0.2015  0.4243
10209SOL    HW132349   8.390   9.446   2.257 -0.2910  0.3059  0.5731
10209SOL    HW232350   8.291   9.419   2.146  1.5203 -0.0974 -0.9981
10210SOL     OW32351   6.355   4.474   3.250  0.0912 -0.0830 -0.1546
10210SOL    HW132352   6.373   4.391   3.294 -1.3942 -1.5657 -2.1260
10210SOL    HW232353   6.409   4.471   3.171 -1.4431 -0.1475 -1.2428
10211SOL     OW32354   0.682   2.363   8.243 -0.2500  0.1218  0.2569
10211SOL    HW132355   0.747   2.295   8.263 -0.3518  0.5195  2.0813
10211SOL    HW232356   0.734   2.440   8.219  0.0865  0.8164  2.8989
10212SOL     OW32357   1.738   2.317   4.816  0.0324 -0.1808  0.4639
10212SOL    HW132358   1.796   2.347   4.887  2.8360 -1.5010 -1.0824
10212SOL    HW232359   1.755   2.378   4.745  0.6214 -1.3788 -0.4547
10213SOL     OW32360   6.076   6.494   7.829 -0.6154  0.1940  0.4500
10213SOL    HW132361   6.093   6.531   7.742 -0.0619 -0.1813  0.3892
10213SOL    HW232362   6.135   6.541   7.887 -0.0891 -0.3918  0.4112
10214SOL     OW32363   7.458   2.645   2.241 -0.0743 -0.0814  0.4821
10214SOL    HW132364   7.399   2.576   2.212 -0.5309  1.0724 -1.5059
10214SOL    HW232365   7.406   2.726   2.233  1.7500  0.9908 -1.5320
10215SOL     OW32366   1.373   7.764   4.493 -0.2423  0.8412  0.1596
10215SOL    HW132367   1.378   7.719   4.577 -0.1568  0.9459  0.2113
10215SOL    HW232368   1.302   7.721   4.446 -0.1060  0.5999  0.1767
10216SOL     OW32369   9.095   4.961   7.648 -0.1225  0.0476  0.0216
10216SOL    HW132370   9.048   5.015   7.711 -0.4265 -0.5448  0.3064
10216SOL    HW232371   9.157   4.910   7.700  0.7808  0.7459 -0.3383
10217SOL     OW32372   3.208   8.572   0.087  0.1018  1.2679 -0.2476
10217SOL    HW132373   3.118   8.554   0.112  0.2511 -0.3956 -0.7905
10217SOL    HW232374   3.261   8.525   0.151  0.5545  0.9368 -0.8537
10218SOL     OW32375   0.421   3.201   0.570  0.6468 -0.1441  0.3399
10218SOL    HW132376   0.449   3.133   0.510 -0.4340 -0.9199  0.6817
10218SOL    HW232377   0.502   3.236   0.607  1.2561 -0.4792 -0.6597
10219SOL     OW32378   4.698   5.385   0.439  0.1812  0.4055 -0.2507
10219SOL    HW132379   4.646   5.353   0.366  1.3915 -2.3951 -0.0329
10219SOL    HW232380   4.789   5.365   0.415  0.8896  2.1600  0.7612
10220SOL     OW32381   4.447   1.075   1.460 -0.3783  0.4149  0.2166
10220SOL    HW132382   4.539   1.071   1.488 -0.4562 -0.3084  0.3884
10220SOL    HW232383   4.421   1.165   1.477 -0.0023  0.3646  1.1633
10221SOL     OW32384   2.932   0.953   0.864  0.0601  0.0712  0.1890
10221SOL    HW132385   2.934   0.869   0.910  0.5269  0.4188  0.8331
10221SOL    HW232386   2.873   0.939   0.790  0.9546 -1.1325 -0.3354
10222SOL     OW32387   5.486   8.378   7.043 -0.5272 -0.0211  0.1385
10222SOL    HW132388   5.463   8.458   6.996 -1.2903 -1.2415 -1.6843
10222SOL    HW232389   5.419   8.315   7.017  0.0657 -1.2773  1.5058
10223SOL     OW32390   0.116   1.319   4.145  0.5404  0.2053 -0.2390
10223SOL    HW132391   0.117   1.402   4.098 -0.3951  1.1244  1.2742
10223SOL    HW232392   0.031   1.316   4.188  0.6419 -1.4449 -0.0922
10224SOL     OW32393   3.383   3.962   2.680 -0.2232 -0.1746  0.1287
10224SOL    HW132394   3.423   3.899   2.620 -0.7479  0.1859 -0.6313
10224SOL    HW232395   3.289   3.958   2.660 -0.1899  1.4186 -0.5545
10225SOL     OW32396   4.164   7.781   3.077 -0.4189  0.3279 -0.6384
10225SOL    HW132397   4.111   7.856   3.052 -0.7646  0.1465 -0.4564
10225SOL    HW232398   4.202   7.805   3.161 -0.1752  0.4754 -0.7898
10226SOL     OW32399   1.599   2.266   7.353 -0.8983  0.8900  0.5597
10226SOL    HW132400   1.603   2.308   7.439 -0.6079  2.5255 -0.1926
10226SOL    HW232401   1.683   2.221   7.344 -1.6103 -0.7546  1.7910
10227SOL     OW32402   6.710   4.518   4.789  0.1603  0.2986  0.0366
10227SOL    HW132403   6.783   4.462   4.760  0.2606  0.4769 -0.0570
10227SOL    HW232404   6.660   4.463   4.849  1.4748  0.8132  1.6602
10228SOL     OW32405   2.254   8.422   4.178  0.6235 -0.3799 -0.1306
10228SOL    HW132406   2.178   8.363   4.185  2.3995 -2.6778  0.9271
10228SOL    HW232407   2.215   8.510   4.177 -2.1310 -1.4731 -1.1563
10229SOL     OW32408   6.642   3.447   4.150 -0.2540 -0.3017 -0.0986
10229SOL    HW132409   6.720   3.441   4.206 -0.6152 -1.8770  0.2631
10229SOL    HW232410   6.635   3.361   4.109 -0.9431  0.3186 -1.3215
10230SOL     OW32411   4.254   5.788   0.192 -0.1180  0.0031 -0.0965
10230SOL    HW132412   4.201   5.787   0.272  0.6645  0.4926  0.4410
10230SOL    HW232413   4.292   5.876   0.190  1.2803 -0.5731 -0.0613
10231SOL     OW32414   7.057   3.532   7.464  0.7248 -0.1664  0.3317
10231SOL    HW132415   7.101   3.456   7.426  1.2815  1.4172 -2.5408
10231SOL    HW232416   6.966   3.522   7.437  0.5189 -0.4440  1.1035
10232SOL     OW32417   4.562   6.881   9.347 -0.4856  0.7922  0.4508
10232SOL    HW132418   4.486   6.863   9.402 -1.3365 -0.0197 -0.9147
10232SOL    HW232419   4.525   6.911   9.264  0.5560 -1.1986 -0.8277
10233SOL     OW32420   2.167   3.829   8.899 -0.3126 -0.2708 -0.4642
10233SOL    HW132421   2.184   3.827   8.994 -1.5673 -0.8594 -0.2298
10233SOL    HW232422   2.079   3.792   8.890 -1.5111  2.5642 -1.5709
10234SOL     OW32423   6.407   8.030   3.691  0.0063  0.1872  0.0365
10234SOL    HW132424   6.344   7.965   3.659 -0.2068 -0.1661  1.1135
10234SOL    HW232425   6.359   8.113   3.688 -0.7104 -0.1511  1.2972
10235SOL     OW32426   7.843   6.626   3.657  0.0111  0.4921  0.0796
10235SOL    HW132427   7.932   6.654   3.635  0.6256 -1.3576  0.0506
10235SOL    HW232428   7.795   6.634   3.575  0.2648  1.0912 -0.0159
10236SOL     OW32429   7.103   3.088   6.908  0.5192 -0.6731 -0.2274
10236SOL    HW132430   7.059   3.077   6.824  0.2970 -3.2211  0.1454
10236SOL    HW232431   7.120   2.999   6.938  2.7392  0.1878  1.3377
10237SOL     OW32432   6.524   4.337   4.895 -0.0135  0.2222  0.6451
10237SOL    HW132433   6.496   4.313   4.983 -2.2983  2.3434  0.6079
10237SOL    HW232434   6.574   4.261   4.864 -0.6963 -1.3270  3.0638
10238SOL     OW32435   1.586   1.112   2.243  0.2316  0.1223 -0.1218
10238SOL    HW132436   1.612   1.203   2.260 -2.1212  0.8203  0.1411
10238SOL    HW232437   1.609   1.097   2.151  2.0458  0.4107  0.2360
10239SOL     OW32438   7.210   8.586   3.829 -0.4284  0.0992  0.1271
10239SOL    HW132439   7.233   8.670   3.869 -1.0620  0.1032  0.5123
10239SOL    HW232440   7.245   8.520   3.890 -0.8079  0.0998  0.3522
10240SOL     OW32441   0.324   0.829   6.113  0.2874 -0.1715 -0.3174
10240SOL    HW132442   0.402   0.822   6.058 -0.0439 -0.5379 -0.7423
10240SOL    HW232443   0.308   0.923   6.120  0.2596 -0.1266 -0.9490
10241SOL     OW32444   0.816   6.305   5.372 -0.0832  0.1676 -0.0724
10241SOL    HW132445   0.828   6.252   5.451 -0.9099 -0.7415 -0.5461
10241SOL    HW232446   0.891   6.365   5.373 -0.5017  0.7518  1.8349
10242SOL     OW32447   3.761   6.285   7.382  0.1867  0.1743  0.1867
10242SOL    HW132448   3.838   6.316   7.429  0.6875  0.1878 -0.6089
10242SOL    HW232449   3.729   6.363   7.336  1.7053 -0.4734 -2.1713
10243SOL     OW32450   2.083   1.694   4.474  0.4665  0.2465  0.1489
10243SOL    HW132451   2.175   1.723   4.479 -0.1014  2.1636  0.5018
10243SOL    HW232452   2.052   1.727   4.389  0.0575 -0.2447  0.1048
10244SOL     OW32453   7.094   1.199   2.773 -0.2360  0.4787  0.5574
10244SOL    HW132454   7.099   1.135   2.843  2.4841  0.7475  0.6854
10244SOL    HW232455   7.138   1.158   2.699 -1.6264  0.8409 -0.5117
10245SOL     OW32456   5.085   5.022   8.969  0.2985 -0.1496 -0.2257
10245SOL    HW132457   5.098   5.065   9.053  2.3106  0.3568 -0.7435
10245SOL    HW232458   5.028   4.948   8.988 -0.0338  0.4874  1.3966
10246SOL     OW32459   7.186   6.042   2.701  0.4182  0.3861  0.1449
10246SOL    HW132460   7.196   6.116   2.761 -0.8977 -0.8361  1.9706
10246SOL    HW232461   7.266   5.991   2.711 -0.6004 -0.9181  2.5749
10247SOL     OW32462   9.012   5.455   5.296  0.2093  0.5903 -0.3220
10247SOL    HW132463   9.011   5.396   5.372  1.3280  0.8018 -0.1194
10247SOL    HW232464   8.923   5.491   5.292 -0.0921 -0.0411  0.3975
10248SOL     OW32465   9.605   8.474   5.323  0.3374 -0.0458  0.0145
10248SOL    HW132466   9.631   8.560   5.356 -1.3272  0.2835  0.5643
10248SOL    HW232467   9.658   8.412   5.373 -0.2378  0.5609  1.4221
10249SOL     OW32468   7.107   4.707   6.185 -0.0690 -0.0152  0.1380
10249SOL    HW132469   7.185   4.687   6.236  0.3554  2.6189  0.6906
10249SOL    HW232470   7.138   4.719   6.096  0.1765  0.8182  0.3195
10250SOL     OW32471   2.928   3.316   2.537 -0.3591  0.2525 -0.3454
10250SOL    HW132472   2.846   3.268   2.526 -0.7632  0.5864  1.0613
10250SOL    HW232473   2.993   3.262   2.493 -1.2237 -0.3254 -0.9452
10251SOL     OW32474   0.793   3.049   4.580  0.0365  0.3948 -0.3154
10251SOL    HW132475   0.744   3.010   4.508  0.2627  0.3889 -0.4695
10251SOL    HW232476   0.751   3.133   4.595  0.6392  0.8679 -1.1735
10252SOL     OW32477   1.277   8.582   2.966  0.5304  0.2595  0.1256
10252SOL    HW132478   1.259   8.573   2.872 -0.1230 -0.6926  0.3309
10252SOL    HW232479   1.354   8.527   2.980 -0.7325 -1.4858  0.5409
10253SOL     OW32480   0.609   9.431   4.122  0.4835 -0.2542 -0.4358
10253SOL    HW132481   0.623   9.403   4.032  0.6276 -1.8879  0.0658
10253SOL    HW232482   0.680   9.493   4.140  0.3660  0.1963 -1.4699
10254SOL     OW32483   2.160   7.365   4.458 -0.2181  0.1628  0.2046
10254SOL    HW132484   2.196   7.346   4.544 -0.9970 -2.5604  0.0331
10254SOL    HW232485   2.142   7.459   4.459  0.8010  0.3920  2.5824
10255SOL     OW32486   1.012   6.598   9.242 -0.1545 -0.2369  0.3680
10255SOL    HW132487   1.059   6.585   9.160 -1.9167 -0.1920 -0.6900
10255SOL    HW232488   1.040   6.526   9.298  0.7789 -0.4795 -0.3810
10256SOL     OW32489   4.448   6.417   0.744  0.2435 -0.5861 -0.1422
10256SOL    HW132490   4.371   6.469   0.765  0.4924 -0.9772  2.0861
10256SOL    HW232491   4.413   6.337   0.706 -0.3152  0.0250 -0.9334
10257SOL     OW32492   7.728   1.637   3.642 -0.1556 -0.0225  0.2854
10257SOL    HW132493   7.792   1.630   3.570 -0.8956 -0.1431 -0.3714
10257SOL    HW232494   7.646   1.605   3.604 -0.2376 -1.5154  1.6219
10258SOL     OW32495   6.636   7.630   2.297 -0.4964 -0.6009  0.0723
10258SOL    HW132496   6.591   7.699   2.347  0.8278  0.2922  0.0920
10258SOL    HW232497   6.697   7.591   2.359  0.9876  0.3484 -0.7240
10259SOL     OW32498   1.478   6.975   5.723  0.5294 -0.0403 -0.7803
10259SOL    HW132499   1.435   7.034   5.662 -2.0695 -0.7479  0.2044
10259SOL    HW232500   1.406   6.928   5.766  2.2733 -0.7105  1.6730
10260SOL     OW32501   5.385   5.148   2.298  0.6810 -0.8129  0.3296
10260SOL    HW132502   5.419   5.080   2.240 -0.7853  0.2967 -1.9410
10260SOL    HW232503   5.293   5.124   2.312  0.5613 -0.1159  0.7900
10261SOL     OW32504   6.324   7.631   2.941 -0.4044 -0.1682 -0.4295
10261SOL    HW132505   6.275   7.695   2.889 -0.1693  0.2107 -0.1868
10261SOL    HW232506   6.273   7.622   3.022  1.6078  2.7902  1.3449
10262SOL     OW32507   7.033   7.481   0.673 -0.0510  0.3528 -0.1793
10262SOL    HW132508   6.994   7.559   0.634 -1.3707 -0.1319  0.1024
10262SOL    HW232509   7.044   7.503   0.765  2.3148  1.2102 -0.6019
10263SOL     OW32510   6.644   3.221   1.483  0.1908 -0.4626 -0.0894
10263SOL    HW132511   6.643   3.182   1.571 -0.2921  0.1078  0.1635
10263SOL    HW232512   6.553   3.212   1.453 -0.0309  0.8077  0.1352
10264SOL     OW32513   3.966   4.349   2.319 -0.2821  0.1386  0.0702
10264SOL    HW132514   4.060   4.354   2.337 -0.3983  0.3248  0.6446
10264SOL    HW232515   3.949   4.421   2.259 -0.2599  0.8271  0.8728
10265SOL     OW32516   5.580   3.739   8.637 -0.0379  0.1118 -0.2863
10265SOL    HW132517   5.630   3.658   8.630  0.9780  0.6413  0.4586
10265SOL    HW232518   5.603   3.789   8.559  0.0068  0.0354 -0.3212
10266SOL     OW32519   5.673   6.737   6.333  0.0932  0.4621 -0.3206
10266SOL    HW132520   5.723   6.656   6.336  0.0954  0.4414 -0.7988
10266SOL    HW232521   5.665   6.757   6.239 -0.8974  0.4025 -0.2574
10267SOL     OW32522   4.880   6.773   3.415 -0.7417  0.1064 -0.4765
10267SOL    HW132523   4.972   6.749   3.426 -1.1136 -0.6715  1.3663
10267SOL    HW232524   4.837   6.737   3.493 -2.6830  0.0804 -1.5032
10268SOL     OW32525   7.055   8.566   4.906 -0.1944  0.6904 -0.1392
10268SOL    HW132526   7.029   8.482   4.945 -0.9775 -0.2595 -2.5173
10268SOL    HW232527   7.150   8.565   4.909 -0.0858 -1.3446 -2.0661
10269SOL     OW32528   3.910   0.308   4.758 -0.0115 -0.2266 -0.4271
10269SOL    HW132529   3.878   0.278   4.843  1.4694 -1.1087 -0.1366
10269SOL    HW232530   3.861   0.388   4.740 -1.5633 -0.9390  0.4500
10270SOL     OW32531   1.975   7.381   0.032 -0.3989  0.0234  0.0325
10270SOL    HW132532   1.966   7.464  -0.015 -0.4038  0.0970  0.1636
10270SOL    HW232533   2.064   7.352   0.011 -0.9647 -0.7868 -1.3944
10271SOL     OW32534   2.241   5.380   3.948  0.2341 -0.2837 -0.0567
10271SOL    HW132535   2.147   5.385   3.932  0.5603 -0.0471 -2.2694
10271SOL    HW232536   2.251   5.312   4.015 -1.4571 -0.8647 -0.3643
10272SOL     OW32537   3.296   3.840   1.382  0.5451  0.7952 -0.3334
10272SOL    HW132538   3.280   3.933   1.363 -0.3454  0.5763 -0.6663
10272SOL    HW232539   3.350   3.841   1.461  0.2012  1.5858 -0.1001
10273SOL     OW32540   1.159   2.566   3.619  0.2215  0.1602  0.0980
10273SOL    HW132541   1.143   2.481   3.660 -0.5119  0.5020  0.5532
10273SOL    HW232542   1.250   2.587   3.641  0.3077 -0.3572  0.2463
10274SOL     OW32543   1.134   0.676   2.837  0.1554 -0.4003 -0.4196
10274SOL    HW132544   1.174   0.748   2.788  2.1019 -0.4204  0.9996
10274SOL    HW232545   1.200   0.607   2.836 -0.4652 -1.0459  0.7294
10275SOL     OW32546   2.026   4.444   3.907  0.4085  0.2951  0.2301
10275SOL    HW132547   2.077   4.504   3.852 -0.5539  2.1674  1.2844
10275SOL    HW232548   1.963   4.405   3.847  1.1985  0.1411 -0.5268
10276SOL     OW32549   5.079   1.497   9.476  0.4653 -0.4846  0.5585
10276SOL    HW132550   5.118   1.449   9.549  0.1646 -1.3483  0.1606
10276SOL    HW232551   5.079   1.434   9.403 -2.8983 -1.0436  0.8678
10277SOL     OW32552   5.936   4.947   6.202 -0.0261 -0.3261 -0.6468
10277SOL    HW132553   5.850   4.970   6.237  1.1180  2.1347  0.7732
10277SOL    HW232554   5.920   4.930   6.109 -1.9441  0.9074 -0.6010
10278SOL     OW32555   1.192   7.793   7.248 -0.7014  0.0808  0.8318
10278SOL    HW132556   1.116   7.840   7.281 -0.7341  0.3480  0.3906
10278SOL    HW232557   1.228   7.850   7.180 -1.5511 -1.1204 -0.6924
10279SOL     OW32558   3.094   5.520   0.486 -0.2711 -0.1583 -0.5721
10279SOL    HW132559   3.069   5.592   0.428 -0.2498  2.1294  2.0966
10279SOL    HW232560   3.027   5.519   0.554  1.1077 -0.9660  0.8290
10280SOL     OW32561   1.352   6.659   1.532  0.0615  0.1399  0.2061
10280SOL    HW132562   1.388   6.642   1.619  0.2616 -2.6771 -0.3236
10280SOL    HW232563   1.257   6.647   1.543  0.2157 -1.6118 -0.2032
10281SOL     OW32564   0.794   8.818   8.518  0.5019 -0.4864 -0.4113
10281SOL    HW132565   0.860   8.859   8.573 -0.5084 -0.7697  1.0712
10281SOL    HW232566   0.800   8.724   8.539  1.9524 -1.0418 -2.8496
10282SOL     OW32567   3.439   4.935   9.496  0.2287  0.2097  0.2330
10282SOL    HW132568   3.433   4.846   9.531  1.3277  0.1952  0.4177
10282SOL    HW232569   3.386   4.988   9.555  0.9820 -0.0372  1.1531
10283SOL     OW32570   9.135   4.605   3.594 -0.1134 -0.4141 -0.3049
10283SOL    HW132571   9.144   4.698   3.571 -0.2084 -0.3805 -0.2031
10283SOL    HW232572   9.097   4.565   3.516  0.5505 -0.4896 -0.6051
10284SOL     OW32573   7.462   8.284   5.731  0.2476 -0.3753 -0.6606
10284SOL    HW132574   7.518   8.222   5.776  0.2523 -0.3445 -0.6236
10284SOL    HW232575   7.499   8.290   5.643  0.9050  0.3923 -0.3498
10285SOL     OW32576   1.109   0.384   3.635  0.0114 -0.4639 -0.5998
10285SOL    HW132577   1.103   0.414   3.725  0.5735  1.4950 -1.1540
10285SOL    HW232578   1.165   0.449   3.592  0.4485 -1.8072 -2.1676
10286SOL     OW32579   3.476   8.909   2.495  0.1250  0.8047 -0.2688
10286SOL    HW132580   3.463   9.001   2.522  0.4410  0.9568 -0.6394
10286SOL    HW232581   3.471   8.911   2.400  0.2643  0.4512 -0.2839
10287SOL     OW32582   6.452   5.935   6.085 -0.0832  0.7879 -0.2952
10287SOL    HW132583   6.521   5.890   6.134  1.0019  1.4779 -1.1460
10287SOL    HW232584   6.372   5.916   6.134  0.9797  1.6740  1.9322
10288SOL     OW32585   8.390   5.409   0.628  0.1066 -0.1963 -0.1507
10288SOL    HW132586   8.381   5.333   0.571  2.3400  0.4230 -1.4753
10288SOL    HW232587   8.350   5.481   0.579 -0.1943 -0.1228  0.1967
10289SOL     OW32588   9.445   5.617   7.192 -0.5064 -0.4958  0.4003
10289SOL    HW132589   9.437   5.526   7.161  0.4716 -0.6348  0.5143
10289SOL    HW232590   9.479   5.609   7.281 -0.5143 -0.0213  0.4472
10290SOL     OW32591   4.070   0.876   3.182  0.3563  0.1447  0.1376
10290SOL    HW132592   4.028   0.868   3.097  0.8964  1.5130 -0.2911
10290SOL    HW232593   3.999   0.897   3.242  0.0324 -0.4311 -0.0376
10291SOL     OW32594   4.482   8.300   7.796 -0.4617 -0.1068 -0.1528
10291SOL    HW132595   4.527   8.364   7.853  0.4130 -0.2270 -0.6926
10291SOL    HW232596   4.409   8.269   7.849 -0.4218  0.7425  0.4274
10292SOL     OW32597   5.663   8.392   9.408 -0.0754  0.8120 -0.0987
10292SOL    HW132598   5.723   8.420   9.477 -0.5968  1.6481  0.0369
10292SOL    HW232599   5.641   8.302   9.430 -0.6797  1.2439  1.1658
10293SOL     OW32600   1.121   1.345   9.210 -0.1130  0.0603  0.0900
10293SOL    HW132601   1.211   1.336   9.180 -0.2375 -2.0207  0.1614
10293SOL    HW232602   1.114   1.436   9.240  2.1793  0.0629  0.7928
10294SOL     OW32603   9.229   3.435   1.968  0.6360 -0.6686 -0.2179
10294SOL    HW132604   9.206   3.389   1.887  0.8767 -0.6056 -0.3202
10294SOL    HW232605   9.144   3.465   2.002  0.5958 -0.0756 -0.8164
10295SOL     OW32606   7.943   0.301   4.918 -0.0395 -0.1164  0.0682
10295SOL    HW132607   7.988   0.218   4.900  0.7443  0.1963  0.5475
10295SOL    HW232608   7.963   0.356   4.843  0.0203 -0.1235  0.0789
10296SOL     OW32609   2.363   4.876   8.359 -0.4732 -0.1471  0.5222
10296SOL    HW132610   2.439   4.841   8.404 -0.9277  0.3049  1.6807
10296SOL    HW232611   2.396   4.951   8.309 -0.0468 -0.3849  0.4429
10297SOL     OW32612   6.607   4.638   4.316  0.0075  0.1486  0.3056
10297SOL    HW132613   6.525   4.687   4.319 -0.4575 -0.5800 -0.0825
10297SOL    HW232614   6.651   4.670   4.237 -1.1386 -1.3134 -0.9957
10298SOL     OW32615   6.699   6.717   1.596 -0.4770  0.1818 -0.6170
10298SOL    HW132616   6.614   6.693   1.633  1.4041  1.0195  5.3150
10298SOL    HW232617   6.685   6.804   1.559 -2.0364  1.0526  1.7564
10299SOL     OW32618   7.418   3.350   8.516 -0.0684  0.1101 -0.4561
10299SOL    HW132619   7.396   3.379   8.604  1.2483  0.0463 -0.0855
10299SOL    HW232620   7.413   3.429   8.462 -0.8301  0.1565 -0.3269
10300SOL     OW32621   6.494   0.170   1.584  0.1718  0.4206 -0.8942
10300SOL    HW132622   6.432   0.162   1.657 -0.3432  0.7966 -1.2765
10300SOL    HW232623   6.501   0.082   1.549 -1.1600  0.5929 -1.6501
10301SOL     OW32624   6.616   2.362   1.328  0.3311  0.1724  0.6551
10301SOL    HW132625   6.593   2.393   1.416 -0.8623  1.6225 -0.1212
10301SOL    HW232626   6.706   2.331   1.336  0.0674 -0.2217  2.4995
10302SOL     OW32627   6.762   8.275   1.774 -0.5459 -0.5107  0.0925
10302SOL    HW132628   6.823   8.347   1.756  0.3624 -1.0660  0.8755
10302SOL    HW232629   6.675   8.314   1.760 -0.0350  0.2747 -1.1149
10303SOL     OW32630   7.439   8.290   9.392  0.4125 -0.0213  0.3101
10303SOL    HW132631   7.360   8.325   9.351 -0.3144 -1.5189  0.3566
10303SOL    HW232632   7.478   8.234   9.324 -0.3496 -1.8626  1.3100
10304SOL     OW32633   1.270   5.230   6.666 -0.4674  0.2497 -0.5462
10304SOL    HW132634   1.288   5.285   6.742  0.1953 -0.0470 -0.4754
10304SOL    HW232635   1.344   5.247   6.607 -0.8123  0.2385 -0.9864
10305SOL     OW32636   7.427   3.594   6.605 -0.4876 -0.1339 -0.1812
10305SOL    HW132637   7.509   3.559   6.639 -1.0248 -0.7665  0.4728
10305SOL    HW232638   7.434   3.688   6.620 -0.9015 -0.4226  2.1624
10306SOL     OW32639   2.294   4.843   9.010  0.0402 -0.4134  0.4570
10306SOL    HW132640   2.332   4.767   9.053  1.6080  0.5649  0.8740
10306SOL    HW232641   2.275   4.904   9.082 -0.3651 -0.0476  0.0495
10307SOL     OW32642   1.096   8.526   7.668 -0.0372  0.4574  0.0779
10307SOL    HW132643   1.056   8.439   7.666 -0.1173  0.5041 -1.0670
10307SOL    HW232644   1.156   8.523   7.742 -0.8996 -0.1842  0.7668
10308SOL     OW32645   6.268   2.307   1.985  0.7863 -0.8953 -0.0553
10308SOL    HW132646   6.239   2.257   2.062  1.2049 -2.0047 -0.5970
10308SOL    HW232647   6.301   2.389   2.021  0.1012 -1.0062  0.8673
10309SOL     OW32648   1.505   6.350   7.079 -0.1086  0.3268  0.0846
10309SOL    HW132649   1.430   6.324   7.133 -0.2331  0.1334 -0.1787
10309SOL    HW232650   1.568   6.279   7.090 -1.5202 -1.5835 -2.7987
10310SOL     OW32651   2.776   7.511   0.567  0.3900 -0.8522  0.3621
10310SOL    HW132652   2.692   7.495   0.523 -0.6917  0.4012  1.8847
10310SOL    HW232653   2.809   7.592   0.527  0.1426 -0.5342  0.8004
10311SOL     OW32654   2.426   5.299   9.358 -0.9418  0.0734 -0.2705
10311SOL    HW132655   2.378   5.326   9.280 -0.1266  3.1342  0.1323
10311SOL    HW232656   2.367   5.319   9.431 -1.7750 -2.9351  0.0038
10312SOL     OW32657   2.892   3.021   2.216  0.6720 -0.6246  0.2132
10312SOL    HW132658   2.956   3.065   2.271  1.8082  0.6414 -1.9826
10312SOL    HW232659   2.819   3.082   2.211  1.4367  0.2394 -1.2557
10313SOL     OW32660   0.105   9.570   3.856 -0.0687 -0.5550  0.3334
10313SOL    HW132661   0.191   9.598   3.887 -0.2226  1.4358 -0.8776
10313SOL    HW232662   0.070   9.518   3.928  1.4573 -0.0280  1.5358
10314SOL     OW32663   7.500   0.597   4.319 -0.0949  0.1970 -0.0738
10314SOL    HW132664   7.566   0.634   4.261  0.1783  1.1132  0.7859
10314SOL    HW232665   7.426   0.658   4.314 -0.5607 -0.3827 -0.4024
10315SOL     OW32666   8.120   4.338   6.276  0.4518  0.0094 -0.1344
10315SOL    HW132667   8.167   4.325   6.194  1.5641 -0.6022  0.5648
10315SOL    HW232668   8.057   4.407   6.257  0.2086 -0.5983 -1.6798
10316SOL     OW32669   4.229   9.100   3.900  0.4292 -0.3470  0.5725
10316SOL    HW132670   4.291   9.127   3.967  1.1939  1.2676 -0.6974
10316SOL    HW232671   4.256   9.012   3.876  0.5638 -0.6748  1.8725
10317SOL     OW32672   9.043   7.312   1.732 -0.3458  0.4767  0.1928
10317SOL    HW132673   9.077   7.247   1.793  0.9202  1.8720  1.0352
10317SOL    HW232674   9.065   7.278   1.645  0.6094 -0.0554  0.6354
10318SOL     OW32675   2.090   2.680   9.658  0.6648 -0.0010 -0.2178
10318SOL    HW132676   2.107   2.769   9.690 -0.5759 -0.1147  0.7975
10318SOL    HW232677   2.172   2.655   9.614  0.2854  2.5409 -2.7000
10319SOL     OW32678   4.998   5.592   6.890  0.4075 -0.1497 -0.1530
10319SOL    HW132679   4.969   5.670   6.844  1.2973  0.5807  0.4937
10319SOL    HW232680   5.036   5.624   6.972  0.0398 -1.3200  0.5117
10320SOL     OW32681   4.192   1.361   8.607  0.1442  0.0191 -0.0727
10320SOL    HW132682   4.240   1.278   8.608  0.2518  0.0804 -0.1511
10320SOL    HW232683   4.128   1.350   8.536 -0.4312 -0.3294  0.4892
10321SOL     OW32684   7.117   6.659   5.903  0.2467 -0.4521 -0.0986
10321SOL    HW132685   7.173   6.679   5.979 -2.1017  1.3343  1.3009
10321SOL    HW232686   7.132   6.733   5.843 -0.1217 -0.3015 -0.0065
10322SOL     OW32687   5.720   5.037   5.326  0.6243  0.0789 -0.8294
10322SOL    HW132688   5.765   5.088   5.393 -2.0576  0.3239  0.9436
10322SOL    HW232689   5.700   5.100   5.257  2.5124  0.0408 -1.4797
10323SOL     OW32690   8.838   3.524   0.940 -0.3469  0.2334 -0.2883
10323SOL    HW132691   8.866   3.612   0.914 -0.0749 -0.0080 -0.8415
10323SOL    HW232692   8.839   3.526   1.035  2.0109  0.1370 -0.2370
10324SOL     OW32693   2.411   9.600   4.366  0.0480  0.6524  0.0274
10324SOL    HW132694   2.473   9.652   4.314  0.0793 -0.7187 -1.3891
10324SOL    HW232695   2.466   9.537   4.413 -0.1710  0.1854 -0.3355
10325SOL     OW32696   5.775   9.705   9.246  0.5081  0.2921 -0.5588
10325SOL    HW132697   5.864   9.672   9.236  0.0171 -1.5147  0.6089
10325SOL    HW232698   5.720   9.626   9.245 -0.8148  1.1095  1.6065
10326SOL     OW32699   6.906   4.032   5.849 -0.4214  0.7992 -0.3352
10326SOL    HW132700   6.933   4.039   5.941  3.0756  1.2946 -1.2589
10326SOL    HW232701   6.876   4.120   5.826  3.6639  2.2874 -0.8691
10327SOL     OW32702   3.167   8.538   9.165 -0.0268 -0.5104  0.0389
10327SOL    HW132703   3.203   8.624   9.140  0.3220 -0.4847  0.6201
10327SOL    HW232704   3.243   8.481   9.172 -0.2634 -0.8850 -0.3930
10328SOL     OW32705   5.047   0.301   4.255 -0.4838  0.4512  0.2413
10328SOL    HW132706   5.003   0.347   4.183  0.4669  2.4464  0.8741
10328SOL    HW232707   4.982   0.237   4.286 -2.0379  1.6528 -0.4046
10329SOL     OW32708   9.690   0.970   4.361  0.0029 -0.3969  0.0792
10329SOL    HW132709   9.755   0.919   4.313  0.5896  0.0893  0.3443
10329SOL    HW232710   9.606   0.940   4.326  0.3360 -1.4675  0.1708
10330SOL     OW32711   2.375   2.064   5.991 -0.3701 -0.2945  0.5711
10330SOL    HW132712   2.453   2.011   6.006  0.5225  1.0945  1.0031
10330SOL    HW232713   2.399   2.152   6.019 -1.9171  0.2958  0.1924
10331SOL     OW32714   2.240   2.883   5.386 -0.0083  0.2932 -0.1656
10331SOL    HW132715   2.298   2.924   5.450  0.2239 -1.6848  0.9907
10331SOL    HW232716   2.224   2.795   5.422 -3.3134  0.5677 -0.7155
10332SOL     OW32717   8.439   4.497   5.944 -0.0850  0.3447  0.1802
10332SOL    HW132718   8.528   4.515   5.913  0.3617 -0.3566  1.0183
10332SOL    HW232719   8.441   4.521   6.037 -0.9612  0.9525  0.0478
10333SOL     OW32720   0.310   3.730   7.277 -0.4430  0.3011 -0.1419
10333SOL    HW132721   0.249   3.760   7.210 -1.0756  0.2889  0.4113
10333SOL    HW232722   0.257   3.675   7.334  0.7727 -2.3711 -1.4213
10334SOL     OW32723   5.101   3.287   1.712  0.1091  0.0098  0.3179
10334SOL    HW132724   5.018   3.280   1.758 -0.8240  0.5652 -1.1934
10334SOL    HW232725   5.086   3.242   1.629  1.3958 -0.0759  0.1093
10335SOL     OW32726   7.464   7.974   1.856 -0.4305 -0.2696 -0.3452
10335SOL    HW132727   7.474   8.054   1.804  1.0813  0.1183  0.4839
10335SOL    HW232728   7.403   7.920   1.806 -0.8375  1.0569 -1.3353
10336SOL     OW32729   7.964   7.291   2.370 -0.0732  0.0824 -0.2919
10336SOL    HW132730   7.939   7.287   2.278 -0.2138  1.1790 -0.3169
10336SOL    HW232731   7.893   7.247   2.416 -0.1318 -0.2391 -0.6854
10337SOL     OW32732   2.405   9.301   3.682 -0.2909  0.0870 -0.3058
10337SOL    HW132733   2.393   9.355   3.760 -0.3205 -0.1576 -0.1388
10337SOL    HW232734   2.318   9.263   3.666 -0.2449  0.0009 -0.3537
10338SOL     OW32735   6.935   9.475   5.349  0.5855  0.0126 -0.8408
10338SOL    HW132736   6.952   9.398   5.294 -0.7896 -0.2503 -0.9336
10338SOL    HW232737   6.994   9.464   5.423 -0.3062 -1.7065 -0.3257
10339SOL     OW32738   0.553   5.168   1.003  0.1241 -0.3152  0.7727
10339SOL    HW132739   0.584   5.230   0.936  1.1780  2.1716  3.3711
10339SOL    HW232740   0.605   5.089   0.988  0.9213  0.4625 -0.7957
10340SOL     OW32741   3.597   9.363   6.840 -0.1506 -0.1923  0.3481
10340SOL    HW132742   3.567   9.309   6.912 -0.2410  0.0503  0.4958
10340SOL    HW232743   3.519   9.409   6.809 -0.1610 -0.4889 -0.0751
10341SOL     OW32744   7.245   1.041   8.185  0.2991 -0.0052 -0.4500
10341SOL    HW132745   7.273   1.100   8.116 -0.1638 -0.6721 -1.2315
10341SOL    HW232746   7.253   1.092   8.266  0.8898  0.7669 -0.9887
10342SOL     OW32747   8.745   8.002   2.463  0.2240  0.4273  0.1229
10342SOL    HW132748   8.651   7.988   2.453  0.5663 -1.2796 -1.1674
10342SOL    HW232749   8.753   8.054   2.543 -1.7174 -0.8153  1.2121
10343SOL     OW32750   0.222   7.883   4.995 -0.2379  0.2208 -0.2687
10343SOL    HW132751   0.230   7.973   4.964 -0.6019  1.0853  1.9784
10343SOL    HW232752   0.253   7.886   5.086 -1.1332 -1.7270  0.1442
10344SOL     OW32753   9.320   6.337   5.149  0.6126 -0.1292  0.5787
10344SOL    HW132754   9.347   6.322   5.058  0.2646  1.0132  0.2739
10344SOL    HW232755   9.249   6.276   5.163  0.3630 -0.0017 -0.0735
10345SOL     OW32756   9.171   8.199   6.152  0.4472  0.0936 -0.3583
10345SOL    HW132757   9.183   8.235   6.064  0.7707  2.6707  0.6583
10345SOL    HW232758   9.251   8.225   6.199 -0.9336  1.3158  1.4498
10346SOL     OW32759   8.204   6.279   6.394  0.0861  0.0075  0.3294
10346SOL    HW132760   8.223   6.338   6.467 -1.0861 -0.5791  1.1515
10346SOL    HW232761   8.221   6.192   6.428 -0.6838 -0.2878 -0.0132
10347SOL     OW32762   8.680   6.288   1.411  0.6096  0.1489  0.0959
10347SOL    HW132763   8.726   6.286   1.326 -1.1502 -0.1354 -0.8940
10347SOL    HW232764   8.728   6.226   1.465  1.1598 -0.4435 -1.0189
10348SOL     OW32765   3.493   2.673   1.281  0.1181 -0.3977 -0.0770
10348SOL    HW132766   3.583   2.647   1.302 -0.6560 -1.0427  3.0422
10348SOL    HW232767   3.443   2.591   1.284 -0.7735  0.1121 -0.4979
10349SOL     OW32768   8.993   0.362   4.351  0.0632  0.0669 -0.0740
10349SOL    HW132769   9.040   0.427   4.404 -0.7536  1.2173 -0.7232
10349SOL    HW232770   9.058   0.293   4.336  1.1452  0.9956  0.1517
10350SOL     OW32771   8.960   6.485   3.645 -0.3249  0.8943  1.0862
10350SOL    HW132772   8.870   6.516   3.656 -0.7164 -0.3909  1.6488
10350SOL    HW232773   8.951   6.393   3.621  0.8174  1.0818 -0.1984
10351SOL     OW32774   0.308   7.635   7.849  0.7768  0.3526  0.1426
10351SOL    HW132775   0.295   7.704   7.914 -1.1339  1.8054 -1.6532
10351SOL    HW232776   0.351   7.678   7.776  0.3783 -0.5474 -0.6488
10352SOL     OW32777   6.087   7.688   0.299 -0.2595 -0.0985  0.7040
10352SOL    HW132778   6.125   7.639   0.227  0.2062  1.4698 -0.1507
10352SOL    HW232779   6.158   7.696   0.363 -0.3126 -0.4534  0.8090
10353SOL     OW32780   4.204   6.464   1.774 -0.2057 -0.0875  0.0365
10353SOL    HW132781   4.117   6.486   1.741 -0.4542 -1.9017 -0.6356
10353SOL    HW232782   4.261   6.472   1.698 -0.1215 -0.6548  0.0332
10354SOL     OW32783   1.700   9.039   3.939 -0.1228  0.1983  0.0595
10354SOL    HW132784   1.613   9.031   3.900  0.1009  1.0394 -0.6313
10354SOL    HW232785   1.706   9.130   3.968 -0.0145 -0.2251  1.4495
10355SOL     OW32786   5.026   2.674   2.123 -0.3621 -0.2144 -0.0511
10355SOL    HW132787   4.985   2.589   2.137 -0.6135  0.0149  0.6279
10355SOL    HW232788   5.005   2.695   2.032 -0.3409 -0.8533 -0.2115
10356SOL     OW32789   5.090   8.617   9.621 -0.1346 -0.2868 -0.1422
10356SOL    HW132790   5.109   8.626   9.714 -0.8786  0.2046 -0.0277
10356SOL    HW232791   5.156   8.671   9.577 -0.1777 -0.0076  0.1391
10357SOL     OW32792   9.369   7.158   0.805  0.3139  0.5713  0.3047
10357SOL    HW132793   9.316   7.087   0.769  0.6808 -1.2322  3.0030
10357SOL    HW232794   9.355   7.231   0.745 -2.3451 -0.9059 -1.0840
10358SOL     OW32795   6.368   5.521   9.609 -0.0872 -0.5021 -0.3413
10358SOL    HW132796   6.329   5.434   9.617 -0.3333 -0.6521 -2.6049
10358SOL    HW232797   6.448   5.507   9.558  1.3219  0.2656  1.5264
10359SOL     OW32798   6.628   7.315   9.557  0.3313  0.1402 -0.3074
10359SOL    HW132799   6.581   7.290   9.637 -1.5624 -1.4632 -1.8126
10359SOL    HW232800   6.630   7.410   9.560 -0.8183  0.1720  1.0676
10360SOL     OW32801   1.830   2.462   9.317 -0.0479  0.1938 -0.1624
10360SOL    HW132802   1.872   2.390   9.364 -1.0513  0.6747  1.5702
10360SOL    HW232803   1.894   2.533   9.320  0.2952 -0.0959 -0.4467
10361SOL     OW32804   5.895   2.687   1.185 -0.8058 -0.5982 -0.3958
10361SOL    HW132805   5.896   2.614   1.247  0.0002 -0.6132 -0.4159
10361SOL    HW232806   5.908   2.765   1.240  1.6191 -0.7269 -0.6476
10362SOL     OW32807   5.696   0.296   5.866  0.1051  0.0199  0.0253
10362SOL    HW132808   5.684   0.341   5.950  1.8276 -0.7048  0.6865
10362SOL    HW232809   5.639   0.219   5.872 -0.1508  0.2245  0.3110
10363SOL     OW32810   4.575   5.643   6.768 -0.2893  0.6751  0.3372
10363SOL    HW132811   4.630   5.582   6.819 -1.0172 -1.0274 -0.8262
10363SOL    HW232812   4.559   5.716   6.828 -0.1353 -0.6979  2.1498
10364SOL     OW32813   0.517   6.794   5.097  0.0632  0.4545  0.3503
10364SOL    HW132814   0.431   6.770   5.062  1.0190 -1.5581 -0.8531
10364SOL    HW232815   0.568   6.819   5.020  1.8506 -2.8612  0.2498
10365SOL     OW32816   7.064   4.362   0.768  0.2673 -0.1500  0.6979
10365SOL    HW132817   7.010   4.336   0.843  0.5475 -1.6959  0.4174
10365SOL    HW232818   7.002   4.369   0.696  0.4834 -3.2295  0.0672
10366SOL     OW32819   0.176   1.951   4.579 -0.1222 -0.1794  0.2595
10366SOL    HW132820   0.252   1.982   4.627  0.1023 -1.5276  0.8205
10366SOL    HW232821   0.160   1.863   4.613 -1.7135 -0.0645 -0.1054
10367SOL     OW32822   2.393   7.154   5.379 -0.3835  0.0503 -0.6340
10367SOL    HW132823   2.464   7.213   5.404 -0.0860 -0.5449 -0.0668
10367SOL    HW232824   2.361   7.118   5.462 -0.8281 -0.2857 -0.9462
10368SOL     OW32825   0.834   6.219   6.936 -0.3049 -0.7127 -0.1167
10368SOL    HW132826   0.868   6.169   6.862 -0.3948  0.1389 -0.7452
10368SOL    HW232827   0.794   6.296   6.897 -1.2199 -0.7185  0.7565
10369SOL     OW32828   3.430   2.519   7.865  0.8188 -0.5958  0.4504
10369SOL    HW132829   3.442   2.592   7.805  1.3002 -0.3503  0.8364
10369SOL    HW232830   3.347   2.479   7.839 -0.4601  1.2818  1.5039
10370SOL     OW32831   0.914   1.164   7.005  0.4905 -0.2288 -0.3940
10370SOL    HW132832   0.851   1.232   6.984  0.5577 -0.9431 -3.2790
10370SOL    HW232833   0.996   1.210   7.021  0.5509  0.4133 -2.3695
10371SOL     OW32834   4.555   4.878   5.987  0.3454  0.0569 -0.7079
10371SOL    HW132835   4.602   4.953   5.952  2.6393 -0.9330  0.0422
10371SOL    HW232836   4.623   4.818   6.017 -1.4097 -1.4609  0.5553
10372SOL     OW32837   5.907   6.035   1.207 -0.7273  0.0373 -0.4527
10372SOL    HW132838   5.927   6.021   1.114 -0.7144  0.0964 -0.4589
10372SOL    HW232839   5.816   6.005   1.216 -1.0837  0.9775 -0.7096
10373SOL     OW32840   5.048   0.514   1.849 -0.1362  0.2474  0.2293
10373SOL    HW132841   4.970   0.463   1.827 -0.4417 -0.0014  1.7722
10373SOL    HW232842   5.101   0.513   1.770 -1.5866  0.2212 -0.7819
10374SOL     OW32843   1.860   4.561   6.885  0.6160 -1.0292 -0.7454
10374SOL    HW132844   1.811   4.642   6.900 -2.2003 -2.4584 -1.5872
10374SOL    HW232845   1.947   4.580   6.919 -0.0167  2.2197 -0.5913
10375SOL     OW32846   5.724   3.996   6.978 -0.8498  0.4568  0.0670
10375SOL    HW132847   5.723   3.960   7.066  0.3260 -0.7577 -0.3702
10375SOL    HW232848   5.635   4.027   6.963 -1.9401 -2.2026  0.5437
10376SOL     OW32849   9.473   1.989   3.050 -0.7710 -0.2548  0.1588
10376SOL    HW132850   9.454   1.928   3.121  0.7606 -0.5596  0.3275
10376SOL    HW232851   9.512   2.065   3.093  0.7256 -0.6849 -0.3765
10377SOL     OW32852   7.683   7.787   1.244  0.4225  0.8872  0.0582
10377SOL    HW132853   7.694   7.882   1.238  3.8950  0.7584  2.0462
10377SOL    HW232854   7.750   7.759   1.306 -1.9024 -2.6656  1.2668
10378SOL     OW32855   1.066   5.337   2.768 -0.3985  0.1357  0.7889
10378SOL    HW132856   1.016   5.400   2.821 -0.2999  0.2433  0.7535
10378SOL    HW232857   1.000   5.297   2.711 -0.2812  1.0609 -0.0251
10379SOL     OW32858   0.503   8.150   7.154  0.4443 -0.6758  0.1029
10379SOL    HW132859   0.529   8.171   7.244  1.4307 -0.1763 -0.2829
10379SOL    HW232860   0.408   8.139   7.159  0.7367 -3.9020  1.8673
10380SOL     OW32861   9.327   8.328   7.867  0.6274  0.7983  0.0766
10380SOL    HW132862   9.269   8.263   7.907  0.6912  0.0996 -0.9144
10380SOL    HW232863   9.344   8.392   7.936 -1.5057  1.1480  0.3487
10381SOL     OW32864   3.323   4.402   6.491 -0.4784  1.0864  0.6440
10381SOL    HW132865   3.345   4.448   6.572 -2.0013  2.0132  0.5887
10381SOL    HW232866   3.232   4.374   6.504  0.6296 -2.9373  1.0987
10382SOL     OW32867   2.700   4.347   3.945  0.0868 -0.4657 -0.0293
10382SOL    HW132868   2.757   4.284   3.901  1.4535 -1.3769  2.8011
10382SOL    HW232869   2.749   4.429   3.942  0.1683 -0.5219 -0.2261
10383SOL     OW32870   2.391   7.334   3.508  0.2903  0.4569  0.0703
10383SOL    HW132871   2.399   7.344   3.603 -2.0161 -0.2625  0.4016
10383SOL    HW232872   2.303   7.298   3.495  0.1797  1.4518 -2.4239
10384SOL     OW32873   4.346   3.204   1.132 -0.7067  0.6193 -0.4819
10384SOL    HW132874   4.400   3.125   1.125  0.4003  1.3233 -0.1489
10384SOL    HW232875   4.275   3.180   1.191 -0.2958 -0.0755 -0.2603
10385SOL     OW32876   1.705   7.379   6.345 -0.4151 -0.0246 -0.4269
10385SOL    HW132877   1.798   7.354   6.352 -0.5881 -0.1232  3.5253
10385SOL    HW232878   1.657   7.301   6.372 -1.7658 -0.0008 -2.5129
10386SOL     OW32879   7.249   0.767   5.735 -0.0385  0.7094  0.0805
10386SOL    HW132880   7.229   0.798   5.646  2.0689  3.3640  0.4263
10386SOL    HW232881   7.179   0.804   5.789 -1.3200 -0.9014 -0.3680
10387SOL     OW32882   2.275   9.073   7.451 -0.1314  0.1948 -0.1480
10387SOL    HW132883   2.312   9.039   7.369  1.1852  0.3699  0.3476
10387SOL    HW232884   2.339   9.137   7.482 -0.4619 -0.0669  1.1638
10388SOL     OW32885   9.432   8.860   9.207  0.1467  0.3075 -0.2188
10388SOL    HW132886   9.371   8.790   9.188 -0.7661  1.3956 -1.4709
10388SOL    HW232887   9.447   8.903   9.123  1.2169  1.1919  0.3944
10389SOL     OW32888   3.755   9.687   4.456  0.6074  0.1757  0.9911
10389SOL    HW132889   3.824   9.742   4.493  0.7967  0.8662 -0.2893
10389SOL    HW232890   3.707   9.746   4.397  1.8779 -1.3469 -1.7814
10390SOL     OW32891   7.894   6.884   9.644 -0.2738  0.1909 -0.4229
10390SOL    HW132892   7.816   6.833   9.664 -0.6398  0.1773 -1.7580
10390SOL    HW232893   7.866   6.976   9.649 -0.3237  0.1912 -0.6902
10391SOL     OW32894   1.499   7.298   9.525 -0.3637  0.3466 -0.2001
10391SOL    HW132895   1.544   7.229   9.477 -0.0364  1.2790 -1.2796
10391SOL    HW232896   1.563   7.328   9.589 -0.3110  0.0373 -0.1043
10392SOL     OW32897   7.382   0.877   6.827  0.3031 -0.2337  0.1265
10392SOL    HW132898   7.348   0.950   6.879 -0.5449  0.2033 -0.9904
10392SOL    HW232899   7.457   0.845   6.876  0.1462  0.8215  1.0878
10393SOL     OW32900   2.514   4.431   5.888  0.9273 -0.2774  0.2589
10393SOL    HW132901   2.430   4.477   5.896 -0.6199 -3.1547  2.3651
10393SOL    HW232902   2.576   4.499   5.863 -2.0127  1.9592 -1.6657
10394SOL     OW32903   5.390   7.712   2.808 -0.0825  0.3628 -0.1228
10394SOL    HW132904   5.305   7.742   2.841  0.0856 -0.2696  0.9156
10394SOL    HW232905   5.369   7.662   2.729 -0.7282 -0.2018  0.3968
10395SOL     OW32906   4.121   2.392   7.667  0.1546 -0.6125 -0.1640
10395SOL    HW132907   4.043   2.388   7.723 -0.1206 -1.2430 -0.5932
10395SOL    HW232908   4.087   2.391   7.578  0.6831 -1.5528 -0.3651
10396SOL     OW32909   1.878   4.628   6.455  0.5560  0.1821  0.4365
10396SOL    HW132910   1.865   4.713   6.496  0.9312  0.7528 -0.5798
10396SOL    HW232911   1.973   4.617   6.453  0.5324  0.0274  0.0076
10397SOL     OW32912   0.860   7.416   7.633 -0.6072  0.1172 -0.0371
10397SOL    HW132913   0.887   7.327   7.656 -1.1589  0.4312  1.9782
10397SOL    HW232914   0.767   7.420   7.657 -0.4995  1.3420  0.2550
10398SOL     OW32915   6.804   1.879   4.548  0.4349 -0.0469  0.2681
10398SOL    HW132916   6.762   1.793   4.548  0.6073 -0.1420  1.1958
10398SOL    HW232917   6.754   1.931   4.611  1.6135 -0.1256  1.2932
10399SOL     OW32918   1.060   0.254   3.933 -0.0482 -0.8968 -0.4632
10399SOL    HW132919   1.076   0.165   3.901  2.2432 -0.4509 -0.7113
10399SOL    HW232920   1.140   0.277   3.980 -1.3139  0.3979  1.1593
10400SOL     OW32921   5.651   9.475   0.650  0.1372 -0.4601  1.0740
10400SOL    HW132922   5.733   9.522   0.637 -0.2399 -0.0309  0.1657
10400SOL    HW232923   5.637   9.477   0.745  1.5821 -1.2713  1.3250
10401SOL     OW32924   2.398   3.452   0.544  0.0418  0.4313 -0.4578
10401SOL    HW132925   2.425   3.514   0.612  0.8398 -0.1056 -0.2660
10401SOL    HW232926   2.405   3.501   0.463  0.2320  0.7301 -0.2613
10402SOL     OW32927   8.957   7.385   5.964  0.0614 -0.2305  0.6489
10402SOL    HW132928   8.870   7.425   5.962  0.5754  0.9111  0.0248
10402SOL    HW232929   9.005   7.429   5.893  0.7757 -1.7080  0.1752
10403SOL     OW32930   8.847   6.317   8.494 -0.3230 -0.3431 -0.0793
10403SOL    HW132931   8.933   6.360   8.503 -0.4403 -0.3423  1.3312
10403SOL    HW232932   8.864   6.226   8.519 -1.1126  0.1235  2.4178
10404SOL     OW32933   2.713   0.886   6.174  0.2107  0.3691 -0.0765
10404SOL    HW132934   2.729   0.968   6.219 -1.5400  1.0902 -0.6480
10404SOL    HW232935   2.617   0.878   6.172  0.2979 -0.9148 -1.3633
10405SOL     OW32936   6.361   8.800   6.482 -0.3819  0.1481  0.5536
10405SOL    HW132937   6.406   8.834   6.405 -0.8865  1.8112  0.9540
10405SOL    HW232938   6.363   8.705   6.471  1.4972  0.2571 -0.3900
10406SOL     OW32939   5.486   8.975   3.767  0.6865  0.3998 -0.7216
10406SOL    HW132940   5.548   8.944   3.834  1.6529  1.5902 -1.0199
10406SOL    HW232941   5.412   9.008   3.818 -0.9859 -3.3367 -0.4037
10407SOL     OW32942   7.318   6.933   8.705 -0.0025 -0.9930 -0.0427
10407SOL    HW132943   7.386   6.984   8.748 -0.3287 -0.4216 -0.1853
10407SOL    HW232944   7.259   6.907   8.775 -0.1679 -0.6413 -0.0479
10408SOL     OW32945   6.486   0.451   7.594 -0.0915  0.3218  0.3862
10408SOL    HW132946   6.564   0.407   7.559  0.0166  0.4608  0.4527
10408SOL    HW232947   6.488   0.539   7.556  0.6343  0.8535  1.6004
10409SOL     OW32948   5.694   9.606   2.118 -0.2035  0.5348  1.0096
10409SOL    HW132949   5.784   9.632   2.139 -0.8047  2.5576  1.2663
10409SOL    HW232950   5.678   9.644   2.032  0.1916 -2.5549 -0.6012
10410SOL     OW32951   3.577   4.360   8.550  0.2782  0.0124  0.1419
10410SOL    HW132952   3.500   4.377   8.604  0.6152  2.7823 -0.0751
10410SOL    HW232953   3.582   4.265   8.544 -0.3026 -0.4551  4.2065
10411SOL     OW32954   8.642   5.835   7.641  0.2529 -0.2567  0.0659
10411SOL    HW132955   8.595   5.918   7.635  0.4001 -0.1530  0.3243
10411SOL    HW232956   8.594   5.775   7.584  0.5465  0.1917 -0.6638
10412SOL     OW32957   3.459   0.965   6.014  0.1046 -0.4429  0.4572
10412SOL    HW132958   3.463   0.982   5.920  0.0544 -2.9023 -0.0541
10412SOL    HW232959   3.524   1.023   6.053  0.1423  0.5862 -1.0829
10413SOL     OW32960   2.857   9.649   6.081 -0.2194  0.4835 -0.0411
10413SOL    HW132961   2.936   9.595   6.074 -1.4769 -1.3967 -0.5417
10413SOL    HW232962   2.876   9.727   6.028  0.6965 -0.7027 -1.5504
10414SOL     OW32963   8.938   4.433   7.611 -0.1102  0.0765  0.3802
10414SOL    HW132964   8.848   4.421   7.640  0.0932 -0.3430  0.8686
10414SOL    HW232965   8.934   4.435   7.516 -0.6963  0.6054  0.4097
10415SOL     OW32966   4.495   4.270   5.384 -0.0232  0.3297  0.3029
10415SOL    HW132967   4.536   4.321   5.454  0.1514  0.6312 -0.0180
10415SOL    HW232968   4.524   4.180   5.400 -0.5489  0.2790  1.0325
10416SOL     OW32969   8.309   3.476   2.137  0.6378  0.0891 -0.7786
10416SOL    HW132970   8.220   3.502   2.162  0.2382 -0.2982 -1.7447
10416SOL    HW232971   8.342   3.550   2.087  0.4942 -0.1670 -1.2531
10417SOL     OW32972   9.533   8.679   1.705  0.0890  0.8665 -0.0638
10417SOL    HW132973   9.493   8.650   1.787  1.2456 -0.7031 -0.0159
10417SOL    HW232974   9.473   8.649   1.637  1.8325 -3.1708 -0.1327
10418SOL     OW32975   2.840   6.837   3.980  0.0780  0.0587  0.0096
10418SOL    HW132976   2.748   6.823   4.002  0.0990 -1.9818 -1.0411
10418SOL    HW232977   2.888   6.792   4.050  0.2227 -1.3659 -0.9911
10419SOL     OW32978   1.324   0.228   3.968  0.0294 -0.8669  0.3977
10419SOL    HW132979   1.371   0.217   3.885  0.8605  0.3734  0.6809
10419SOL    HW232980   1.346   0.150   4.018  0.3143 -1.1599 -0.1676
10420SOL     OW32981   6.245   6.706   1.424 -0.1072  0.1813  0.2506
10420SOL    HW132982   6.329   6.730   1.463 -0.0008  1.3789 -0.6875
10420SOL    HW232983   6.243   6.751   1.340 -0.4197 -2.1501 -1.0960
10421SOL     OW32984   5.779   5.364   7.187 -0.5241 -0.0195  0.4176
10421SOL    HW132985   5.717   5.328   7.124 -0.9874  1.6506 -0.1523
10421SOL    HW232986   5.821   5.436   7.139  0.9854 -0.3527  1.1910
10422SOL     OW32987   7.115   9.288   2.121  0.2933  0.2083  0.2586
10422SOL    HW132988   7.166   9.230   2.177  2.5486  1.3680 -0.4764
10422SOL    HW232989   7.025   9.256   2.129  1.1006 -1.9384  1.6127
10423SOL     OW32990   7.879   6.993   5.448 -0.0459  0.1533  0.0756
10423SOL    HW132991   7.953   7.018   5.504 -0.6042  0.0735  0.8678
10423SOL    HW232992   7.833   7.076   5.432 -0.1824  0.0962  0.1726
10424SOL     OW32993   5.252   1.421   1.296  0.3375 -0.0486  0.2195
10424SOL    HW132994   5.290   1.342   1.258  0.0422 -0.0215 -0.1378
10424SOL    HW232995   5.236   1.398   1.388  1.9856  0.2242  0.6007
10425SOL     OW32996   6.579   5.789   0.541  0.1980  0.2075  0.0258
10425SOL    HW132997   6.525   5.865   0.517  1.0930  1.4122  1.6258
10425SOL    HW232998   6.603   5.749   0.457 -2.8451 -0.1913 -0.7673
10426SOL     OW32999   9.504   5.981   6.392  0.1298  0.3381 -0.2851
10426SOL    HW133000   9.539   5.895   6.367  2.4194  1.3771 -0.8876
10426SOL    HW233001   9.433   5.961   6.452  0.7306 -1.9812 -0.2454
10427SOL     OW33002   2.565   8.426   7.223  0.2458  0.2925  0.4636
10427SOL    HW133003   2.606   8.510   7.241 -0.0509  0.4808  0.2648
10427SOL    HW233004   2.633   8.374   7.180  0.1475  0.7583 -0.2781
10428SOL     OW33005   9.399   4.339   6.172  0.0050 -0.2826 -0.2274
10428SOL    HW133006   9.385   4.330   6.078 -0.8527  1.3002 -0.2881
10428SOL    HW233007   9.488   4.308   6.187 -0.0573 -1.1013 -1.4596
10429SOL     OW33008   8.486   9.625   9.344 -0.5301  0.0594 -0.7352
10429SOL    HW133009   8.444   9.710   9.343  0.0099  0.3628  0.2914
10429SOL    HW233010   8.580   9.645   9.346 -0.3991 -0.5572 -0.5347
10430SOL     OW33011   2.230   3.689   8.482  0.4219 -0.0854 -0.2675
10430SOL    HW133012   2.246   3.686   8.576  0.7879 -0.7229 -0.3420
10430SOL    HW233013   2.147   3.643   8.471  0.1988  0.3015 -0.2234
10431SOL     OW33014   4.153   8.009   1.398  0.1692 -0.2222  0.2223
10431SOL    HW133015   4.061   8.034   1.390  0.0134 -0.2730  1.5825
10431SOL    HW233016   4.175   8.026   1.490  1.3824 -0.6546  0.0354
10432SOL     OW33017   0.537   6.278   5.103  0.1247 -0.2185  0.4480
10432SOL    HW133018   0.560   6.218   5.033  0.1578  0.5226 -0.1936
10432SOL    HW233019   0.509   6.358   5.058  0.3227  0.3358  1.2718
10433SOL     OW33020   0.076   7.671   0.599  0.4486 -0.3731  0.4391
10433SOL    HW133021  -0.001   7.717   0.565 -0.2409 -0.9371  1.2066
10433SOL    HW233022   0.150   7.728   0.575  0.0144 -0.6965 -1.9178
10434SOL     OW33023   2.257   7.041   2.554  0.5339  0.1396  0.0127
10434SOL    HW133024   2.353   7.045   2.558  0.5669 -0.5183 -0.0094
10434SOL    HW233025   2.238   6.955   2.519 -0.0927 -0.2554  1.2637
10435SOL     OW33026   9.696   6.913   6.471  0.4949  0.3062 -0.3130
10435SOL    HW133027   9.613   6.891   6.427 -0.5604 -0.8969  2.0690
10435SOL    HW233028   9.675   6.991   6.522  1.3760  1.0487 -1.0728
10436SOL     OW33029   9.328   8.988   6.222  0.2371 -0.2303  0.3769
10436SOL    HW133030   9.251   8.945   6.258 -0.5512  0.7145 -0.1076
10436SOL    HW233031   9.376   8.919   6.176  0.5713 -1.1653  2.0676
10437SOL     OW33032   9.538   7.100   4.885 -0.3001 -0.1536  0.0495
10437SOL    HW133033   9.622   7.106   4.930 -1.3767 -1.0638  2.3304
10437SOL    HW233034   9.538   7.175   4.824  1.8430  0.2607  0.4864
10438SOL     OW33035   4.142   0.478   1.738 -0.4753 -0.7176 -0.2457
10438SOL    HW133036   4.105   0.547   1.682  0.2894 -0.9906 -1.1079
10438SOL    HW233037   4.110   0.499   1.826 -0.7553  0.3869 -0.5952
10439SOL     OW33038   4.340   4.211   6.573 -0.0254  0.0172 -0.3962
10439SOL    HW133039   4.388   4.183   6.652  1.9343 -0.0696 -1.5594
10439SOL    HW233040   4.348   4.306   6.573  1.3409 -0.0674 -1.2579
10440SOL     OW33041   1.498   0.438   0.948 -0.1405 -0.0874 -0.6759
10440SOL    HW133042   1.556   0.483   0.887  0.1081  1.3500  0.5684
10440SOL    HW233043   1.479   0.354   0.906  2.3880 -0.3709 -1.3741
10441SOL     OW33044   3.776   4.860   6.640  0.2499  0.1112 -0.6651
10441SOL    HW133045   3.794   4.899   6.554  0.4014 -0.2905 -0.8170
10441SOL    HW233046   3.683   4.878   6.655 -0.1586 -1.1255 -1.5959
10442SOL     OW33047   0.694   1.804   8.995  0.4338  0.1533 -0.0005
10442SOL    HW133048   0.635   1.767   8.930  0.8962  0.9674 -0.9152
10442SOL    HW233049   0.668   1.896   9.003 -0.1460 -0.1062  1.6039
10443SOL     OW33050   7.034   1.372   6.305 -0.0498 -0.6535  0.0871
10443SOL    HW133051   7.079   1.391   6.223  1.8259  0.7281  1.3494
10443SOL    HW233052   6.945   1.349   6.279  0.7305 -1.1458 -2.3677
10444SOL     OW33053   1.095   3.438   9.082  0.1969 -1.0487  0.2146
10444SOL    HW133054   1.065   3.363   9.031  1.7339 -1.1498 -0.5857
10444SOL    HW233055   1.179   3.411   9.119 -0.2539 -0.4943  1.7231
10445SOL     OW33056   8.417   9.633   1.933 -0.4815 -0.2913 -0.2574
10445SOL    HW133057   8.371   9.634   2.016  1.3670  2.7488  0.9127
10445SOL    HW233058   8.510   9.634   1.957  0.1425 -1.0608 -2.4028
10446SOL     OW33059   0.840   1.933   3.088 -0.4316  0.1926 -0.2413
10446SOL    HW133060   0.889   1.905   3.011 -0.8791  0.5540 -0.6586
10446SOL    HW233061   0.799   1.852   3.121  0.0352 -0.0216 -0.1802
10447SOL     OW33062   4.980   0.139   2.552 -0.3762 -0.7071 -0.0896
10447SOL    HW133063   4.937   0.115   2.634 -0.3457 -0.3112  0.0431
10447SOL    HW233064   5.072   0.120   2.567 -0.2452  0.1917  0.2797
10448SOL     OW33065   2.162   4.783   5.547  0.1296  0.0302 -0.3222
10448SOL    HW133066   2.199   4.870   5.532 -1.8039  0.7936 -0.9146
10448SOL    HW233067   2.160   4.743   5.460 -1.0365  0.2608 -0.4089
10449SOL     OW33068   9.579   4.070   6.936  0.5156  0.8247  0.3986
10449SOL    HW133069   9.625   4.052   7.017  0.0893 -0.2337  0.4166
10449SOL    HW233070   9.493   4.030   6.947  0.8562 -0.4075 -1.0281
10450SOL     OW33071   2.673   1.809   4.355  0.0832 -0.4470 -0.5093
10450SOL    HW133072   2.694   1.721   4.326  1.8035  0.3839 -2.0050
10450SOL    HW233073   2.645   1.855   4.276 -0.3676  0.4583  0.1530
10451SOL     OW33074   8.913   2.260   7.782 -0.4179 -0.0199  0.3073
10451SOL    HW133075   8.959   2.190   7.828  1.9503  0.0094 -1.7629
10451SOL    HW233076   8.925   2.337   7.838  1.7932 -0.1196  0.0796
10452SOL     OW33077   7.667   3.979   9.059  0.3169 -0.4912  0.2754
10452SOL    HW133078   7.642   3.887   9.060 -1.6901  0.0070  0.9174
10452SOL    HW233079   7.757   3.980   9.091  0.3889 -2.2179  0.2196
10453SOL     OW33080   2.838   0.281   2.689 -0.2916 -0.0692 -0.0481
10453SOL    HW133081   2.882   0.341   2.748  1.1325  0.5649 -1.6542
10453SOL    HW233082   2.875   0.301   2.603 -3.3943  0.1441 -1.4518
10454SOL     OW33083   2.896   8.834   7.270  0.5835  0.0678  0.5458
10454SOL    HW133084   2.850   8.905   7.313  1.9991  1.5746 -0.3327
10454SOL    HW233085   2.946   8.876   7.200  1.1726 -1.8407 -0.2573
10455SOL     OW33086   7.131   3.694   2.096 -0.0699  0.0677  0.4876
10455SOL    HW133087   7.123   3.615   2.149  1.5688 -0.5370 -0.1100
10455SOL    HW233088   7.120   3.766   2.158  1.8600 -0.6204  1.7291
10456SOL     OW33089   6.166   0.956   6.465  0.1793  0.0276  0.7961
10456SOL    HW133090   6.238   0.984   6.409 -0.0763  1.7874  1.2669
10456SOL    HW233091   6.209   0.932   6.548  0.1817  2.5540  1.6101
10457SOL     OW33092   4.312   5.915   3.466 -0.3258 -0.3273 -0.3158
10457SOL    HW133093   4.376   5.848   3.490 -0.4157 -0.4518 -0.4259
10457SOL    HW233094   4.239   5.867   3.428 -0.4345 -0.1751 -0.3020
10458SOL     OW33095   1.286   6.642   6.748 -0.4024 -0.6903 -0.1278
10458SOL    HW133096   1.351   6.676   6.809 -0.2972  0.6454 -0.9453
10458SOL    HW233097   1.222   6.597   6.803  0.5790 -0.9930  0.7893
10459SOL     OW33098   3.873   4.411   0.114 -0.0507 -0.8770 -0.3347
10459SOL    HW133099   3.788   4.455   0.111 -0.4835 -1.7322 -0.9602
10459SOL    HW233100   3.878   4.372   0.201 -0.0820 -0.4277 -0.1265
10460SOL     OW33101   8.920   4.979   9.178 -0.0916  0.1056  0.6309
10460SOL    HW133102   8.967   5.048   9.131  1.7534 -1.6295 -0.1808
10460SOL    HW233103   8.858   4.944   9.115 -1.0268  0.9689  1.0423
10461SOL     OW33104   0.605   6.176   8.318  0.3130 -0.3147  0.5367
10461SOL    HW133105   0.691   6.149   8.351  0.5466 -0.4937 -0.1904
10461SOL    HW233106   0.624   6.248   8.258 -0.1805  0.5489  1.3878
10462SOL     OW33107   2.063   0.529   7.462  0.3712  0.0226  0.0571
10462SOL    HW133108   1.994   0.538   7.528 -0.0252 -0.6700 -0.2394
10462SOL    HW233109   2.078   0.618   7.430  1.0570  0.4612  1.5467
10463SOL     OW33110   1.385   2.431   8.647 -0.4611 -0.7730  0.1421
10463SOL    HW133111   1.404   2.393   8.733  0.0800  0.5843  0.6380
10463SOL    HW233112   1.421   2.367   8.585  1.5814 -0.5140  0.9720
10464SOL     OW33113   2.702   7.156   8.010 -0.1160 -0.2174  0.5748
10464SOL    HW133114   2.689   7.061   8.008  0.5618 -0.3226  0.8306
10464SOL    HW233115   2.775   7.171   7.950 -0.1000  0.1190  0.6792
10465SOL     OW33116   7.895   3.706   1.190 -0.0194  0.4371 -0.2120
10465SOL    HW133117   7.986   3.728   1.212 -0.5330  0.0731  2.7220
10465SOL    HW233118   7.848   3.789   1.194 -0.0927  0.3949 -0.2015
10466SOL     OW33119   3.048   4.321   6.535  0.0364 -0.6895  0.0955
10466SOL    HW133120   3.058   4.242   6.482 -1.1135 -0.0919 -1.0884
10466SOL    HW233121   3.008   4.292   6.617 -1.1630 -1.2526 -0.6629
10467SOL     OW33122   2.691   2.320   0.013 -0.1869  0.7797  0.4646
10467SOL    HW133123   2.644   2.301  -0.068 -0.8188 -1.5875  1.2820
10467SOL    HW233124   2.630   2.294   0.082  0.5991  2.0719  1.6929
10468SOL     OW33125   3.175   3.613   6.731 -0.0247  0.1222  0.2089
10468SOL    HW133126   3.137   3.530   6.761  0.5070 -1.0817 -2.2030
10468SOL    HW233127   3.117   3.680   6.768 -1.1760 -1.3629  1.2308
10469SOL     OW33128   0.037   5.960   1.611 -0.2659 -0.0289 -0.3083
10469SOL    HW133129   0.089   6.036   1.636  0.1939  0.2601 -2.0202
10469SOL    HW233130  -0.018   5.942   1.687 -0.2074  1.8669  0.2196
10470SOL     OW33131   1.881   6.727   0.992 -0.2022  0.4388 -0.1038
10470SOL    HW133132   1.965   6.684   0.976  1.4258  2.9542  1.0589
10470SOL    HW233133   1.867   6.719   1.086 -2.1043 -1.2576 -0.4680
10471SOL     OW33134   2.215   6.003   3.644  0.0939  0.1703 -0.4487
10471SOL    HW133135   2.152   6.000   3.716  0.7245  1.2022  0.1603
10471SOL    HW233136   2.179   6.066   3.582 -1.2531 -1.8578 -1.8598
10472SOL     OW33137   8.158   6.146   8.045  0.1139  0.2590 -0.2407
10472SOL    HW133138   8.088   6.084   8.027 -0.2814  0.8287 -0.7124
10472SOL    HW233139   8.230   6.092   8.077 -0.4598 -0.3600  0.0352
10473SOL     OW33140   4.649   0.670   4.681  0.4578 -0.2277  0.3636
10473SOL    HW133141   4.663   0.586   4.725 -1.2417 -0.7809 -0.0667
10473SOL    HW233142   4.690   0.660   4.595  0.2769 -0.6087  0.3229
10474SOL     OW33143   0.170   2.009   9.206 -0.0430 -0.3574 -0.3318
10474SOL    HW133144   0.175   2.019   9.111 -0.1595 -2.0847 -0.5573
10474SOL    HW233145   0.167   2.098   9.240 -0.2299  0.2853 -1.9595
10475SOL     OW33146   1.669   7.917   8.369  0.2015 -0.2240 -0.2205
10475SOL    HW133147   1.673   7.948   8.279 -0.6472  1.9786  0.4359
10475SOL    HW233148   1.720   7.981   8.419 -1.0899 -0.1926  1.1294
10476SOL     OW33149   7.526   4.281   1.763  0.0473  0.4951  0.1377
10476SOL    HW133150   7.431   4.274   1.767  0.0149  0.9506  0.2813
10476SOL    HW233151   7.554   4.285   1.855  0.2108  0.2686  0.0977
10477SOL     OW33152   0.879   6.809   7.789 -0.1487  0.6657 -0.1650
10477SOL    HW133153   0.812   6.875   7.808 -0.8372  0.2958 -1.2205
10477SOL    HW233154   0.871   6.792   7.695 -1.1347 -2.1142  0.3238
10478SOL     OW33155   8.823   8.148   8.923  0.2902 -0.0139 -0.6071
10478SOL    HW133156   8.751   8.085   8.920  0.3595 -0.2012  0.8893
10478SOL    HW233157   8.784   8.229   8.954  0.9525 -0.5710  1.9187
10479SOL     OW33158   7.384   9.284   8.005 -0.7479 -0.4447 -0.1480
10479SOL    HW133159   7.456   9.344   7.986 -0.4924 -0.1278  1.6556
10479SOL    HW233160   7.420   9.197   7.988 -0.3570 -0.2260 -0.4601
10480SOL     OW33161   4.979   0.555   6.433  0.2407  0.2454  0.0469
10480SOL    HW133162   4.933   0.626   6.478  0.3276  0.3341 -0.0046
10480SOL    HW233163   4.986   0.585   6.342 -0.7976 -0.3455 -0.2461
10481SOL     OW33164   1.252   6.955   5.357 -0.3841  0.0488  0.1996
10481SOL    HW133165   1.278   7.027   5.415 -1.2503  0.9192 -0.4494
10481SOL    HW233166   1.333   6.927   5.316  0.1539 -0.1916  1.3801
10482SOL     OW33167   1.346   3.423   0.096  0.2926 -0.3031 -0.9133
10482SOL    HW133168   1.348   3.450   0.188 -0.2877  0.4245 -1.1061
10482SOL    HW233169   1.319   3.331   0.099  1.0828 -0.5270 -0.3179
10483SOL     OW33170   1.476   3.828   4.213 -0.3224 -0.1081  0.3953
10483SOL    HW133171   1.429   3.754   4.252 -2.7030  1.1810  0.1385
10483SOL    HW233172   1.468   3.898   4.278  0.7445  0.3627  0.0452
10484SOL     OW33173   7.799   6.493   5.913 -0.3683  0.3812 -0.2070
10484SOL    HW133174   7.776   6.585   5.898 -0.1160  0.4628 -0.0983
10484SOL    HW233175   7.745   6.466   5.986 -1.4286  0.0527 -1.0899
10485SOL     OW33176   9.542   8.252   6.019 -0.2583 -0.2682 -0.4292
10485SOL    HW133177   9.614   8.314   6.027 -1.3052  0.9267  0.1294
10485SOL    HW233178   9.579   8.178   5.971  1.2156  0.4848 -0.5088
10486SOL     OW33179   4.407   0.005   1.638 -0.0010  0.1606 -0.0814
10486SOL    HW133180   4.364   0.030   1.557  0.2039  1.9241  0.3123
10486SOL    HW233181   4.453   0.085   1.667  0.4781 -0.6116  1.4063
10487SOL     OW33182   0.995   1.712   6.866 -0.1136 -0.4109 -0.4115
10487SOL    HW133183   1.050   1.687   6.941  1.4549  1.5948 -0.7937
10487SOL    HW233184   1.016   1.647   6.799  1.1661 -0.2164 -0.2361
10488SOL     OW33185   3.779   1.182   7.959 -0.3613 -0.8304  0.3820
10488SOL    HW133186   3.801   1.197   8.051 -0.4305 -1.0421  0.4320
10488SOL    HW233187   3.687   1.157   7.959 -0.7184  0.4184  0.1342
10489SOL     OW33188   7.635   6.784   3.881 -0.1860 -0.5289  0.4318
10489SOL    HW133189   7.663   6.771   3.972  0.2785  1.2762  0.5951
10489SOL    HW233190   7.610   6.877   3.878 -1.7855 -0.9660 -0.8778
10490SOL     OW33191   6.048   8.062   7.637 -0.5369 -0.2433 -0.0670
10490SOL    HW133192   5.992   8.012   7.577  0.6085 -1.6353 -0.0392
10490SOL    HW233193   6.136   8.052   7.602 -0.2715  2.1369 -0.2624
10491SOL     OW33194   6.123   3.102   2.832  0.1455 -0.9385  0.5645
10491SOL    HW133195   6.155   3.067   2.915  1.0596  1.5090  1.3304
10491SOL    HW233196   6.125   3.027   2.772  3.4116 -1.9034  1.6644
10492SOL     OW33197   8.968   2.851   3.774  0.0281  0.3296 -0.3505
10492SOL    HW133198   8.982   2.937   3.814  1.2772 -0.0145 -0.0168
10492SOL    HW233199   8.952   2.870   3.682  3.1445  0.7997 -0.8822
10493SOL     OW33200   5.547   6.371   1.735 -0.0642 -0.7494  0.1119
10493SOL    HW133201   5.557   6.301   1.800 -1.1385  0.8296  2.1096
10493SOL    HW233202   5.455   6.364   1.707 -0.3167  0.1425  0.6964
10494SOL     OW33203   7.008   9.666   8.030  0.5586  0.4840 -0.4351
10494SOL    HW133204   7.046   9.647   7.944  1.8395  2.0931 -0.2848
10494SOL    HW233205   7.078   9.646   8.091  1.4994  3.8757 -0.1676
10495SOL     OW33206   3.530   7.089   0.909  0.4853  0.0742 -0.5294
10495SOL    HW133207   3.525   7.110   1.002 -0.0975  0.5975 -0.6744
10495SOL    HW233208   3.599   7.145   0.875  1.5788 -1.0119 -0.1851
10496SOL     OW33209   3.515   5.789   0.647  0.0846  0.0076  0.4074
10496SOL    HW133210   3.456   5.863   0.659 -1.0741 -0.9601  0.9137
10496SOL    HW233211   3.466   5.728   0.592  1.1951 -0.2061 -0.3787
10497SOL     OW33212   6.979   2.242   0.534 -0.0602  0.7246 -0.4760
10497SOL    HW133213   7.053   2.218   0.589 -0.4206  2.8225  1.0490
10497SOL    HW233214   6.904   2.242   0.593 -0.7076  1.7474 -1.2456
10498SOL     OW33215   3.948   1.593   8.411 -0.3359 -0.3346 -1.2763
10498SOL    HW133216   3.948   1.687   8.427 -0.9289 -0.8825  3.3764
10498SOL    HW233217   4.040   1.570   8.399  0.3124  0.5071  1.3671
10499SOL     OW33218   7.682   6.062   3.120 -0.9278  0.2911 -0.0441
10499SOL    HW133219   7.609   6.066   3.058 -0.4135  0.4287 -0.6430
10499SOL    HW233220   7.663   5.985   3.174 -2.4613  1.3537  1.0115
10500SOL     OW33221   0.649   3.828   0.393 -0.0849 -0.1331 -0.5651
10500SOL    HW133222   0.656   3.883   0.471 -0.0450 -0.5908 -0.2432
10500SOL    HW233223   0.602   3.882   0.329  0.4952  0.4981 -0.4674
10501SOL     OW33224   3.038   3.202   3.472  0.9314  0.8120  0.1014
10501SOL    HW133225   2.989   3.153   3.538 -1.9132  0.5652 -2.0190
10501SOL    HW233226   3.130   3.188   3.495  0.1062 -0.9067  2.7742
10502SOL     OW33227   1.991   4.791   0.685 -0.2419  0.4983  0.5084
10502SOL    HW133228   2.064   4.818   0.740  2.1976 -2.4767 -0.9333
10502SOL    HW233229   2.014   4.821   0.597 -0.9122 -0.2267  0.0685
10503SOL     OW33230   4.296   1.839   6.727 -0.0117  0.6799  0.3941
10503SOL    HW133231   4.330   1.902   6.790 -2.0028  2.5528 -0.2598
10503SOL    HW233232   4.208   1.870   6.708 -1.1520 -2.4473  0.1091
10504SOL     OW33233   1.644   6.014   1.082 -0.1495  0.4208 -0.4049
10504SOL    HW133234   1.652   6.106   1.105 -0.8013  0.3525  0.1115
10504SOL    HW233235   1.557   5.989   1.111  0.3925 -0.6196  0.4109
10505SOL     OW33236   9.096   2.373   8.161 -0.2981  0.3060  0.2438
10505SOL    HW133237   9.056   2.438   8.220 -0.5455 -0.1194  0.5551
10505SOL    HW233238   9.076   2.405   8.073  1.3196  1.7160  0.3554
10506SOL     OW33239   8.456   0.265   3.801 -0.1860 -0.2271  0.2626
10506SOL    HW133240   8.534   0.314   3.775 -1.8720  0.5371 -4.1309
10506SOL    HW233241   8.483   0.174   3.796  0.3626  0.0011 -1.7597
10507SOL     OW33242   1.408   5.280   4.607 -0.0574 -0.7240  0.1572
10507SOL    HW133243   1.412   5.226   4.528  1.2540 -1.1859  0.5127
10507SOL    HW233244   1.444   5.364   4.581 -1.6281 -0.1488 -0.2652
10508SOL     OW33245   5.786   7.293   3.392 -0.4374  0.1233  0.6358
10508SOL    HW133246   5.766   7.242   3.471  1.6527 -1.5746  0.1740
10508SOL    HW233247   5.703   7.299   3.345 -1.6319  0.7627  2.6992
10509SOL     OW33248   8.213   0.954   5.905  0.0378  0.6627 -0.4998
10509SOL    HW133249   8.272   0.992   5.971  0.4909 -1.2861  0.2925
10509SOL    HW233250   8.126   0.960   5.944  0.1201  0.7964 -0.3364
10510SOL     OW33251   2.720   6.554   0.025  0.0573 -0.1173 -0.5075
10510SOL    HW133252   2.772   6.569  -0.053  0.3935  0.0744 -0.2494
10510SOL    HW233253   2.686   6.640   0.048 -1.6581 -0.4643 -1.5543
10511SOL     OW33254   0.182   4.139   5.883 -0.4555 -0.1747  0.0798
10511SOL    HW133255   0.115   4.071   5.873  0.0561 -0.5542 -0.9141
10511SOL    HW233256   0.166   4.199   5.810 -1.3861  1.2315  1.3811
10512SOL     OW33257   6.605   7.561   0.907  0.4916 -0.1809  0.0654
10512SOL    HW133258   6.531   7.522   0.954 -0.2723 -0.2634 -1.1670
10512SOL    HW233259   6.628   7.638   0.958  0.3204 -0.8058  1.1045
10513SOL     OW33260   4.723   2.168   0.442 -0.2937 -0.0669 -0.2727
10513SOL    HW133261   4.636   2.209   0.439 -0.8817 -1.2549  0.0318
10513SOL    HW233262   4.784   2.242   0.434 -1.2951  0.9424  0.9126
10514SOL     OW33263   4.555   8.515   5.766  0.1860  0.3032 -0.0030
10514SOL    HW133264   4.540   8.599   5.809  0.7572  0.4194 -0.0151
10514SOL    HW233265   4.647   8.496   5.784 -0.0767 -0.5671  0.4232
10515SOL     OW33266   4.101   5.759   4.398 -0.8458 -0.1543 -0.0681
10515SOL    HW133267   4.191   5.729   4.386 -0.6331 -0.4002  1.8494
10515SOL    HW233268   4.047   5.692   4.356 -0.1844 -0.5084 -0.3737
10516SOL     OW33269   3.826   0.984   5.791  0.2636 -0.2587  0.4616
10516SOL    HW133270   3.787   0.906   5.831  0.7102 -0.5718  0.2964
10516SOL    HW233271   3.824   0.966   5.697  0.8928 -0.3219  0.4569
10517SOL     OW33272   5.813   0.043   2.773  0.2729  0.2505 -0.0334
10517SOL    HW133273   5.791   0.132   2.744  3.3223  1.3436  0.5638
10517SOL    HW233274   5.891   0.020   2.722  0.4870 -1.4418  0.9697
10518SOL     OW33275   4.880   1.201   2.079 -0.1845 -0.2172  0.3691
10518SOL    HW133276   4.853   1.241   1.996 -0.4548 -1.0396  0.0497
10518SOL    HW233277   4.817   1.131   2.093  0.7292 -1.0158  0.5359
10519SOL     OW33278   5.190   7.335   4.195 -0.6457 -0.5157  0.7410
10519SOL    HW133279   5.120   7.290   4.148 -0.9381  1.1420 -0.4802
10519SOL    HW233280   5.255   7.357   4.128 -0.0383  0.0003  1.4711
10520SOL     OW33281   0.427   4.742   7.967 -0.0342 -0.1446 -0.3105
10520SOL    HW133282   0.515   4.765   7.996  0.9272 -1.9121 -1.6083
10520SOL    HW233283   0.369   4.785   8.029  1.7503  0.6018  0.9250
10521SOL     OW33284   2.656   5.279   4.365 -0.5362 -0.3461  0.0685
10521SOL    HW133285   2.606   5.263   4.285  0.3230 -0.1134 -0.5203
10521SOL    HW233286   2.747   5.271   4.339 -0.2585 -0.8749  1.1605
10522SOL     OW33287   1.790   3.042   2.465 -0.3504  0.5931 -0.0113
10522SOL    HW133288   1.838   2.960   2.459 -2.8100 -0.9684  0.3234
10522SOL    HW233289   1.768   3.052   2.557 -1.3695  0.7940 -0.2524
10523SOL     OW33290   6.905   5.068   0.553  0.4122 -0.4262 -0.2340
10523SOL    HW133291   6.829   5.010   0.556  0.5451 -0.6710 -1.2776
10523SOL    HW233292   6.890   5.130   0.624  0.2691 -1.7202  0.9068
10524SOL     OW33293   3.831   3.219   0.739 -0.1717  0.3640  0.2932
10524SOL    HW133294   3.913   3.193   0.698 -0.0936  0.7538  0.1953
10524SOL    HW233295   3.779   3.139   0.743  0.8253 -0.2426  1.8339
10525SOL     OW33296   4.169   9.537   6.936 -0.7444  0.6897  0.2928
10525SOL    HW133297   4.101   9.473   6.916  0.2792  0.0298 -1.2257
10525SOL    HW233298   4.122   9.610   6.976 -2.0608 -0.5802  1.1630
10526SOL     OW33299   9.382   9.628   2.659 -0.1603  0.3327 -0.3778
10526SOL    HW133300   9.363   9.538   2.632 -0.5407 -0.1699  1.4126
10526SOL    HW233301   9.342   9.636   2.746 -0.3892  2.3364 -0.6098
10527SOL     OW33302   9.076   5.659   0.507  0.2051 -0.1425 -0.9820
10527SOL    HW133303   9.067   5.625   0.418 -0.4304 -2.1091 -0.2287
10527SOL    HW233304   9.001   5.718   0.518  1.2609  1.5281 -2.2814
10528SOL     OW33305   8.210   1.386   6.686  0.4662 -0.0324  0.4725
10528SOL    HW133306   8.276   1.454   6.697  0.3431 -0.0322  1.2609
10528SOL    HW233307   8.131   1.433   6.659 -0.0663  0.3638  2.5414
10529SOL     OW33308   0.775   8.127   2.443  0.3026 -0.0417 -0.2194
10529SOL    HW133309   0.707   8.103   2.380  0.3936  0.3890 -0.4833
10529SOL    HW233310   0.766   8.062   2.513 -0.3291 -0.0436 -0.2917
10530SOL     OW33311   5.713   7.924   4.947  0.3951 -0.3031 -0.2528
10530SOL    HW133312   5.753   7.842   4.977  1.6291  0.0957 -0.7344
10530SOL    HW233313   5.714   7.918   4.852  0.3687  0.2085 -0.2861
10531SOL     OW33314   5.631   8.376   8.824  0.4144  0.1334 -0.3468
10531SOL    HW133315   5.547   8.401   8.786  0.4578 -0.3923 -0.7980
10531SOL    HW233316   5.688   8.452   8.810  0.1602  0.3000 -0.4840
10532SOL     OW33317   0.190   6.813   6.617 -0.3867 -0.5808  0.6117
10532SOL    HW133318   0.263   6.821   6.555 -0.5735 -1.2670  0.2989
10532SOL    HW233319   0.112   6.825   6.564 -0.5192 -0.2886  0.8709
10533SOL     OW33320   5.539   1.697   9.610  0.1422 -0.0488 -0.6536
10533SOL    HW133321   5.599   1.622   9.606  0.6219  0.1748  1.4612
10533SOL    HW233322   5.462   1.668   9.561  0.5205 -1.7292 -0.3160
10534SOL     OW33323   9.677   1.575   7.705 -0.5067  0.1612  0.9053
10534SOL    HW133324   9.673   1.539   7.617 -1.9679  0.3610  0.8629
10534SOL    HW233325   9.747   1.526   7.748 -2.0209 -2.3914  0.6910
10535SOL     OW33326   7.431   1.076   7.193 -0.0652  0.5802 -1.1405
10535SOL    HW133327   7.523   1.054   7.173  0.1996 -0.4836  0.9815
10535SOL    HW233328   7.435   1.116   7.280 -1.9737 -3.8112  1.2610
10536SOL     OW33329   2.593   2.693   8.188  0.0290  0.0035  0.4680
10536SOL    HW133330   2.595   2.773   8.137  2.8710  0.6471  1.4112
10536SOL    HW233331   2.624   2.625   8.128  0.3323  0.1585  0.4485
10537SOL     OW33332   2.844   0.799   9.155  0.2309  0.0129  0.0385
10537SOL    HW133333   2.885   0.869   9.103 -1.4208  1.3508  0.4449
10537SOL    HW233334   2.856   0.827   9.246  2.4431 -1.9386  0.4272
10538SOL     OW33335   1.518   9.324   6.079 -0.0877  0.6805  0.3183
10538SOL    HW133336   1.474   9.338   5.995 -0.7399  0.6355  0.6402
10538SOL    HW233337   1.453   9.351   6.145  1.0938  2.5782  0.7867
10539SOL     OW33338   2.870   3.213   5.124 -0.3848 -0.3673  0.2373
10539SOL    HW133339   2.832   3.138   5.079 -0.8983 -0.0175  0.0702
10539SOL    HW233340   2.954   3.227   5.081  0.0828 -1.3288  0.8010
10540SOL     OW33341   2.805   6.686   6.596 -0.2601 -0.6409 -0.1546
10540SOL    HW133342   2.810   6.593   6.620  2.6389 -0.9525 -1.5775
10540SOL    HW233343   2.738   6.690   6.527 -0.6609 -1.5763  0.1644
10541SOL     OW33344   7.538   6.274   8.204  0.3466 -0.3206 -0.3947
10541SOL    HW133345   7.462   6.298   8.257 -1.4649 -3.5721 -1.2693
10541SOL    HW233346   7.542   6.340   8.135 -1.0684  0.4685  0.2575
10542SOL     OW33347   9.445   0.303   4.816  0.3355 -0.0695 -0.1599
10542SOL    HW133348   9.508   0.265   4.877  0.3193 -1.3500 -0.9102
10542SOL    HW233349   9.417   0.230   4.761 -0.4236  0.8474 -1.0382
10543SOL     OW33350   1.892   5.308   4.445  0.1406 -0.4611 -0.2264
10543SOL    HW133351   1.899   5.225   4.399 -0.3813 -0.7527  0.2120
10543SOL    HW233352   1.976   5.317   4.491 -0.6862 -1.9416  1.7032
10544SOL     OW33353   1.180   6.903   5.064  0.4120 -0.0598 -0.2071
10544SOL    HW133354   1.148   6.989   5.036 -0.1051 -0.4638 -0.8884
10544SOL    HW233355   1.167   6.903   5.159 -2.2212 -0.4080 -0.4811
10545SOL     OW33356   6.050   2.743   8.875  0.6039  0.3103 -0.3973
10545SOL    HW133357   6.041   2.759   8.782  1.9614 -1.4664 -0.9034
10545SOL    HW233358   5.969   2.699   8.901  0.3035  0.6401 -0.7923
10546SOL     OW33359   5.330   9.082   3.237  0.0675 -0.2476 -0.4418
10546SOL    HW133360   5.394   9.131   3.186  1.9745  0.4381  2.3510
10546SOL    HW233361   5.379   9.005   3.269 -1.0714 -0.7166  0.2378
10547SOL     OW33362   1.179   4.186   1.692 -0.1660 -0.4162 -0.6406
10547SOL    HW133363   1.254   4.235   1.728 -1.1281  1.7952 -1.4297
10547SOL    HW233364   1.219   4.119   1.636  1.2538  0.4872 -0.7709
10548SOL     OW33365   7.849   8.061   5.201  0.3558  0.2250  0.0679
10548SOL    HW133366   7.872   8.100   5.286  3.1027 -0.3034 -0.3338
10548SOL    HW233367   7.914   7.991   5.189 -1.3911 -1.2377 -1.4648
10549SOL     OW33368   7.510   2.407   3.418 -0.7345 -0.6194  0.6106
10549SOL    HW133369   7.442   2.371   3.362 -0.3590 -0.0053 -0.2589
10549SOL    HW233370   7.580   2.341   3.418 -1.1017 -1.0126  1.0769
10550SOL     OW33371   4.194   5.386   4.236 -0.2021 -0.3570 -0.1677
10550SOL    HW133372   4.116   5.411   4.285  1.0157  0.4138  1.4897
10550SOL    HW233373   4.231   5.313   4.286  0.7890  0.0863 -0.2287
10551SOL     OW33374   6.451   1.813   6.051 -0.1510  0.2049 -0.9335
10551SOL    HW133375   6.416   1.789   6.137  1.2909  1.0672 -0.0565
10551SOL    HW233376   6.402   1.892   6.027 -2.0851 -1.2292 -1.9691
10552SOL     OW33377   3.972   0.280   6.557  0.3588 -0.0292 -0.5627
10552SOL    HW133378   3.879   0.303   6.549 -0.3664 -2.1568  0.7054
10552SOL    HW233379   3.977   0.189   6.527  1.6539 -0.5433  1.0354
10553SOL     OW33380   1.877   7.558   4.123 -0.0277 -0.1649 -0.0950
10553SOL    HW133381   1.833   7.473   4.119  2.1249 -1.4023  0.9695
10553SOL    HW233382   1.829   7.612   4.060 -0.9229 -2.4163 -1.4871
10554SOL     OW33383   3.744   9.577   8.911 -0.2018  0.0483 -0.2337
10554SOL    HW133384   3.743   9.488   8.947 -2.0535 -0.5229 -1.5657
10554SOL    HW233385   3.679   9.625   8.962  0.5022  0.5465  0.2120
10555SOL     OW33386   5.894   9.385   6.325  0.3605  0.4316 -0.0008
10555SOL    HW133387   5.863   9.461   6.374  2.7636  0.8829  0.9375
10555SOL    HW233388   5.967   9.417   6.273  1.7526 -1.2726  0.7903
10556SOL     OW33389   5.576   9.386   6.260 -0.1240  0.2512 -0.1647
10556SOL    HW133390   5.666   9.405   6.284 -0.4376  0.1572  1.1346
10556SOL    HW233391   5.581   9.356   6.169  1.1967 -0.1419  0.0212
10557SOL     OW33392   3.765   2.984   2.240  0.3771  0.4813 -0.4440
10557SOL    HW133393   3.699   2.956   2.303  0.0968  1.1074 -0.4540
10557SOL    HW233394   3.740   2.942   2.158 -0.1599  0.9181 -0.5089
10558SOL     OW33395   4.908   6.563   9.113 -0.1591 -0.3435 -0.2630
10558SOL    HW133396   4.894   6.478   9.155 -1.4926 -0.0743 -0.1252
10558SOL    HW233397   4.833   6.616   9.141 -0.5915  0.1499 -2.1943
10559SOL     OW33398   1.330   7.690   3.220 -0.2608  0.2706  0.4881
10559SOL    HW133399   1.240   7.705   3.191 -0.2190 -0.4716 -0.0595
10559SOL    HW233400   1.330   7.600   3.252  0.4492  0.0171 -0.1863
10560SOL     OW33401   3.773   9.106   4.436 -0.0995  0.1301  0.7218
10560SOL    HW133402   3.818   9.139   4.357 -0.0187 -1.8982 -0.1321
10560SOL    HW233403   3.722   9.181   4.467 -1.1427  0.6771 -1.9986
10561SOL     OW33404   5.064   4.421   2.652 -0.0675 -0.4838  0.3860
10561SOL    HW133405   5.123   4.358   2.611  0.3869  0.7346 -0.9024
10561SOL    HW233406   5.121   4.494   2.678 -0.9136  0.4697 -0.3620
10562SOL     OW33407   0.462   1.415   9.044  0.0151  0.1236 -0.2872
10562SOL    HW133408   0.548   1.430   9.007  0.1571  2.0187  0.6878
10562SOL    HW233409   0.469   1.329   9.086  1.5475  0.4002  0.0827
10563SOL     OW33410   2.198   9.537   3.269 -0.0810 -0.0652  0.4328
10563SOL    HW133411   2.196   9.443   3.255 -0.9785  0.1393 -0.9166
10563SOL    HW233412   2.274   9.551   3.326 -0.1136 -1.6135  0.8980
10564SOL     OW33413   4.986   2.234   4.803 -0.1094 -0.0596 -0.8028
10564SOL    HW133414   5.019   2.145   4.817  0.4674  0.0446 -1.4714
10564SOL    HW233415   4.999   2.278   4.888  0.0319 -0.4783 -0.6054
10565SOL     OW33416   9.672   3.724   4.445  0.3920  0.9292 -0.0479
10565SOL    HW133417   9.736   3.793   4.463 -0.3400  1.1161  2.1694
10565SOL    HW233418   9.613   3.726   4.520  1.2447 -3.1371  1.0083
10566SOL     OW33419   1.472   6.564   2.224 -0.0188 -0.3805 -0.0537
10566SOL    HW133420   1.428   6.646   2.247  2.1553  0.1098  3.1073
10566SOL    HW233421   1.409   6.496   2.247 -0.5841  0.3479  0.6244
10567SOL     OW33422   4.159   3.661   5.576  0.3733 -0.4409 -0.5928
10567SOL    HW133423   4.150   3.746   5.621 -0.2236 -1.5254  1.4611
10567SOL    HW233424   4.068   3.631   5.564  0.5606 -2.4524  2.1673
10568SOL     OW33425   3.555   1.670   1.958  0.2377 -1.0518  0.1155
10568SOL    HW133426   3.499   1.681   2.036  1.5461  0.0327  0.9500
10568SOL    HW233427   3.555   1.576   1.942 -1.0262 -1.1727  0.6933
10569SOL     OW33428   6.635   7.256   2.209  0.8315  0.4347 -0.5488
10569SOL    HW133429   6.578   7.332   2.198 -1.0560 -0.7871  0.2589
10569SOL    HW233430   6.641   7.218   2.121 -0.9932 -0.3051 -0.4048
10570SOL     OW33431   8.421   6.687   7.558  0.1765  0.3115 -0.5794
10570SOL    HW133432   8.447   6.779   7.547  0.0973  0.3168 -0.7224
10570SOL    HW233433   8.344   6.690   7.615  0.2104  0.3290 -0.5349
10571SOL     OW33434   6.927   1.562   5.092 -0.6747  0.0971  0.4076
10571SOL    HW133435   6.969   1.486   5.053  0.4587  1.2695 -0.6964
10571SOL    HW233436   6.952   1.558   5.185 -0.4243 -0.7307  0.3106
10572SOL     OW33437   7.975   3.594   3.474 -0.4013  0.0982 -0.4170
10572SOL    HW133438   7.927   3.660   3.524  0.1623  0.7211 -0.6905
10572SOL    HW233439   7.914   3.520   3.468 -0.4092 -0.0871  1.3638
10573SOL     OW33440   9.599   4.990   4.367  0.3542  0.2745  0.6664
10573SOL    HW133441   9.689   4.959   4.360  0.5865  0.8553  1.0626
10573SOL    HW233442   9.606   5.077   4.405 -0.3431  0.5197  0.2543
10574SOL     OW33443   2.935   5.406   8.141 -0.3506 -0.1122  0.0596
10574SOL    HW133444   2.866   5.423   8.205 -0.5818 -0.3273 -0.1266
10574SOL    HW233445   2.927   5.478   8.078  0.2521  0.4140  0.5837
10575SOL     OW33446   8.331   5.287   1.786 -0.2150 -0.6445  0.3849
10575SOL    HW133447   8.260   5.345   1.814  1.1249  1.9696 -1.3105
10575SOL    HW233448   8.376   5.264   1.868 -0.2781  1.4569  1.0601
10576SOL     OW33449   9.288   8.321   5.937  0.3671 -0.1392 -0.3768
10576SOL    HW133450   9.298   8.395   5.876  1.2306 -0.5777 -0.7859
10576SOL    HW233451   9.376   8.308   5.974  0.0181 -0.3733  0.3872
10577SOL     OW33452   3.552   8.421   1.025  0.4063  0.3994  0.5786
10577SOL    HW133453   3.507   8.445   1.106 -0.1490  2.8729 -0.3532
10577SOL    HW233454   3.500   8.463   0.956  3.7073  2.9699 -0.6260
10578SOL     OW33455   6.745   6.097   8.546  0.3950  0.5982 -0.3388
10578SOL    HW133456   6.701   6.170   8.502 -0.5955  0.0183 -0.3482
10578SOL    HW233457   6.829   6.090   8.502 -0.8964 -0.5250 -2.8265
10579SOL     OW33458   3.554   3.546   5.565 -0.9358  0.1817  0.0965
10579SOL    HW133459   3.561   3.558   5.660 -1.5384  1.1917  0.0372
10579SOL    HW233460   3.535   3.453   5.553 -1.2224  0.1190  0.9881
10580SOL     OW33461   4.198   3.925   5.668 -0.3212 -0.3369  0.1644
10580SOL    HW133462   4.143   3.943   5.744 -1.8420 -2.3706 -0.3814
10580SOL    HW233463   4.200   4.008   5.620 -3.2626 -0.2402  0.0219
10581SOL     OW33464   3.779   6.663   7.960  0.0582 -0.1460 -0.4462
10581SOL    HW133465   3.773   6.586   8.016 -0.9877 -1.2349 -1.9911
10581SOL    HW233466   3.698   6.662   7.909 -1.3825  3.5095  1.3578
10582SOL     OW33467   8.364   1.273   8.780  0.5509  0.1284 -0.1594
10582SOL    HW133468   8.296   1.321   8.733  0.0637 -0.9730 -0.6064
10582SOL    HW233469   8.336   1.275   8.872  1.7481  2.6926  0.2273
10583SOL     OW33470   4.170   8.331   3.209 -0.5242  0.0686 -0.3003
10583SOL    HW133471   4.181   8.425   3.194  0.2607 -0.1023 -0.8175
10583SOL    HW233472   4.197   8.317   3.299 -0.3968  0.2953 -0.3044
10584SOL     OW33473   0.668   8.239   0.663 -0.0201  0.1049 -0.5361
10584SOL    HW133474   0.601   8.171   0.663 -0.4847  0.4866  1.6087
10584SOL    HW233475   0.746   8.195   0.629 -0.7467 -0.9987 -0.8471
10585SOL     OW33476   0.121   4.682   3.457  0.0141  0.5415  0.1273
10585SOL    HW133477   0.115   4.665   3.363  1.8892  0.4496 -0.0100
10585SOL    HW233478   0.158   4.770   3.463  1.2111  0.0190  0.7471
10586SOL     OW33479   3.522   9.260   8.508 -0.0041  0.1808  0.3432
10586SOL    HW133480   3.607   9.296   8.534  0.1274  0.5332 -0.5301
10586SOL    HW233481   3.485   9.225   8.589  1.2286 -0.5053  0.6376
10587SOL     OW33482   3.101   5.516   9.692 -0.3264 -0.2585 -0.3571
10587SOL    HW133483   3.079   5.595   9.642 -0.6772 -0.8419 -1.1439
10587SOL    HW233484   3.018   5.488   9.732  0.0202  0.4217  0.9099
10588SOL     OW33485   6.303   1.360   5.736 -0.4495 -0.1219 -0.5264
10588SOL    HW133486   6.246   1.294   5.697 -2.5002  0.2309  1.6405
10588SOL    HW233487   6.356   1.313   5.800 -1.3724  0.1782  0.4793
10589SOL     OW33488   7.848   6.404   1.633 -0.3757  0.3221  0.9311
10589SOL    HW133489   7.793   6.479   1.612 -0.8317 -0.6640 -1.8721
10589SOL    HW233490   7.937   6.438   1.633 -0.6572  1.0703  0.8653
10590SOL     OW33491   1.738   1.574   5.896 -0.0011 -0.6872  0.5617
10590SOL    HW133492   1.808   1.594   5.959  2.0402  0.8926 -1.9946
10590SOL    HW233493   1.779   1.514   5.833 -0.8988  0.2612 -0.9880
10591SOL     OW33494   8.847   9.031   6.845 -0.6795  0.3070 -0.2134
10591SOL    HW133495   8.910   9.098   6.872 -1.2770  1.0642 -0.6473
10591SOL    HW233496   8.855   8.963   6.911 -0.6721  1.2006  0.7388
10592SOL     OW33497   0.891   5.213   3.037 -0.0094  0.1494  0.1253
10592SOL    HW133498   0.816   5.157   3.016 -1.5265  0.6333  3.6015
10592SOL    HW233499   0.883   5.286   2.976 -2.4313  0.1766  0.3707
10593SOL     OW33500   4.347   6.611   3.067  0.1262 -0.3558 -0.4826
10593SOL    HW133501   4.389   6.525   3.074  1.2444  0.1222 -1.1095
10593SOL    HW233502   4.266   6.595   3.018  0.0904 -1.1230 -0.1807
10594SOL     OW33503   4.803   3.518   9.375 -0.2304  0.2321  0.3783
10594SOL    HW133504   4.843   3.604   9.390  0.9394 -0.3091  0.4556
10594SOL    HW233505   4.860   3.476   9.310  0.0638 -1.0557  1.4372
10595SOL     OW33506   0.315   5.990   9.231  0.1211 -0.0954  0.4400
10595SOL    HW133507   0.225   6.019   9.241 -0.2949 -1.5332  1.0995
10595SOL    HW233508   0.368   6.065   9.257 -0.8929  0.2779  1.5089
10596SOL     OW33509   2.450   5.459   0.023 -0.3406 -0.7817 -0.2806
10596SOL    HW133510   2.512   5.451  -0.049 -0.8001  0.3153 -0.8295
10596SOL    HW233511   2.442   5.371   0.058 -1.0597 -1.6371 -2.4047
10597SOL     OW33512   1.537   8.371   6.534  0.3351  0.1014 -0.4742
10597SOL    HW133513   1.448   8.402   6.519  0.4704 -0.0349 -1.6284
10597SOL    HW233514   1.525   8.281   6.565  0.0996 -0.5481 -2.3363
10598SOL     OW33515   5.048   6.741   4.360 -0.0694 -0.3043 -0.0504
10598SOL    HW133516   5.115   6.673   4.364  0.5617  0.2247 -1.1775
10598SOL    HW233517   4.966   6.695   4.373  0.2903 -1.4136 -1.4369
10599SOL     OW33518   5.000   4.100   9.577  0.0188 -0.2537 -0.0238
10599SOL    HW133519   5.001   4.123   9.670 -0.3229 -1.3868  0.2854
10599SOL    HW233520   4.944   4.165   9.536 -0.2110 -0.0231  0.6495
10600SOL     OW33521   7.218   2.820   8.285 -0.4090  0.1124 -0.5166
10600SOL    HW133522   7.287   2.839   8.348 -0.5098 -1.2304  0.0405
10600SOL    HW233523   7.241   2.870   8.207  0.6708  0.4256 -0.0075
10601SOL     OW33524   8.939   6.093   4.071 -0.6182  0.1112  0.0057
10601SOL    HW133525   9.006   6.066   4.133 -0.5476 -0.1077 -0.1630
10601SOL    HW233526   8.864   6.116   4.125 -0.9084 -1.0664  0.1362
10602SOL     OW33527   1.060   2.236   4.762  0.4735  0.2823 -0.2543
10602SOL    HW133528   1.072   2.142   4.745 -0.1224  0.1278  0.1738
10602SOL    HW233529   0.996   2.264   4.697 -0.6353  0.0208  0.6988
10603SOL     OW33530   5.013   8.883   2.483 -0.2363 -0.0182 -0.4554
10603SOL    HW133531   5.066   8.959   2.507  0.3333 -0.0843 -1.4795
10603SOL    HW233532   4.994   8.895   2.390  1.2896 -1.9538 -1.0940
10604SOL     OW33533   8.083   0.714   0.443 -0.5430 -0.3492 -0.5548
10604SOL    HW133534   8.069   0.624   0.474 -0.4559 -0.8067 -1.7560
10604SOL    HW233535   8.172   0.713   0.408 -0.0234  0.6113  0.6933
10605SOL     OW33536   0.023   8.646   6.369  0.2839  0.2101  0.7482
10605SOL    HW133537  -0.063   8.653   6.411 -0.0772 -0.8087  0.2035
10605SOL    HW233538   0.004   8.651   6.275  0.9230  0.8692  0.6451
10606SOL     OW33539   5.489   2.622   4.592  0.1843 -0.0464  0.2826
10606SOL    HW133540   5.418   2.571   4.552 -0.1399  1.6470 -1.5228
10606SOL    HW233541   5.457   2.712   4.589  1.8522  0.5952  0.7073
10607SOL     OW33542   4.577   0.175   3.845  0.0137  0.4112  0.5103
10607SOL    HW133543   4.524   0.178   3.765  0.7191 -0.3097 -0.0134
10607SOL    HW233544   4.663   0.207   3.817  0.5674 -0.8411  0.6997
10608SOL     OW33545   0.843   2.845   2.203  0.1436 -0.0441  0.5327
10608SOL    HW133546   0.868   2.932   2.232  0.2652 -0.2536  1.0778
10608SOL    HW233547   0.926   2.798   2.194  0.1089  0.0258 -0.1962
10609SOL     OW33548   6.671   3.110   6.489 -0.0604  0.1936 -0.2071
10609SOL    HW133549   6.708   3.037   6.538 -1.0831 -0.5041 -0.4433
10609SOL    HW233550   6.723   3.114   6.409 -0.4044 -0.6917 -0.4812
10610SOL     OW33551   7.931   4.744   9.141  0.0339 -0.0997 -0.1593
10610SOL    HW133552   7.944   4.826   9.189  1.1443 -0.1675 -0.3164
10610SOL    HW233553   7.914   4.772   9.051  1.2375 -0.0475 -0.3842
10611SOL     OW33554   1.836   3.760   2.558  0.5390  0.2764  0.4637
10611SOL    HW133555   1.917   3.735   2.602  0.9426  2.5081  1.1119
10611SOL    HW233556   1.839   3.716   2.473  2.2878  0.0954  0.6023
10612SOL     OW33557   8.950   8.443   9.074 -0.2217 -0.0649 -0.0756
10612SOL    HW133558   9.015   8.424   9.142 -1.0330  1.2970  1.1193
10612SOL    HW233559   8.994   8.504   9.016 -0.5481  1.2555  1.0130
10613SOL     OW33560   9.638   3.652   7.565 -0.3107  0.2908 -0.0257
10613SOL    HW133561   9.685   3.694   7.636  3.9370 -0.0735 -2.2744
10613SOL    HW233562   9.590   3.580   7.606 -0.3964  1.8107  2.7321
10614SOL     OW33563   2.156   0.535   4.974 -0.4020 -0.1512  0.0859
10614SOL    HW133564   2.090   0.465   4.966 -3.1762  2.3162 -0.1520
10614SOL    HW233565   2.135   0.578   5.057  1.2628  0.4157  0.2401
10615SOL     OW33566   4.718   0.973   2.114  0.1532  0.1637 -0.0200
10615SOL    HW133567   4.624   0.986   2.108  0.2395  0.4116 -0.8468
10615SOL    HW233568   4.729   0.907   2.183 -0.5467  0.9735  0.8940
10616SOL     OW33569   4.616   8.865   8.462  0.0793 -0.1425 -0.4404
10616SOL    HW133570   4.617   8.955   8.431  1.7233 -0.3684 -1.1185
10616SOL    HW233571   4.589   8.872   8.553 -1.0354  0.9024 -0.8234
10617SOL     OW33572   4.223   5.424   2.764  0.4758  0.3300 -0.3981
10617SOL    HW133573   4.164   5.499   2.751  0.3051  0.1760 -0.5243
10617SOL    HW233574   4.304   5.463   2.798 -0.0308  0.4481  0.7203
10618SOL     OW33575   1.745   8.161   4.439 -0.3985 -0.0112  0.3037
10618SOL    HW133576   1.676   8.201   4.493 -2.2700 -0.9392 -1.2365
10618SOL    HW233577   1.764   8.226   4.372 -1.1945 -0.4596 -0.3799
10619SOL     OW33578   3.951   8.008   2.528  0.8612 -0.3823 -0.1492
10619SOL    HW133579   4.026   8.045   2.575 -1.6346  0.9507  3.2010
10619SOL    HW233580   3.918   7.940   2.587 -2.3654  1.2697  0.1992
10620SOL     OW33581   2.228   6.649   2.081  0.7864 -0.1279 -0.5589
10620SOL    HW133582   2.141   6.649   2.121  1.0597 -1.9384  0.1608
10620SOL    HW233583   2.224   6.582   2.013  1.8434 -0.8747  0.0732
10621SOL     OW33584   4.248   1.931   8.003 -0.4062 -0.2322 -0.0505
10621SOL    HW133585   4.327   1.985   7.991 -0.1987 -0.6883 -0.8724
10621SOL    HW233586   4.175   1.992   7.988 -0.1818 -0.0785 -0.5680
10622SOL     OW33587   2.642   4.563   0.800 -0.2136  0.0959  0.6264
10622SOL    HW133588   2.686   4.486   0.764  0.1309  1.1184 -1.2018
10622SOL    HW233589   2.614   4.535   0.888  1.7695 -1.4093  0.8425
10623SOL     OW33590   5.358   5.821   3.376  0.3498 -0.3828  0.0848
10623SOL    HW133591   5.305   5.842   3.453  0.6411  1.2868 -0.1210
10623SOL    HW233592   5.435   5.778   3.411  1.3711  2.0125  0.9992
10624SOL     OW33593   8.665   5.906   4.068 -0.0369  0.2965 -0.4649
10624SOL    HW133594   8.742   5.868   4.109  0.3624  1.1589 -0.4074
10624SOL    HW233595   8.598   5.837   4.075  0.7047 -0.4475 -0.4924
10625SOL     OW33596   9.253   1.762   6.263 -0.2117  0.1284  0.0147
10625SOL    HW133597   9.222   1.675   6.237  0.9608 -0.8618  1.7217
10625SOL    HW233598   9.231   1.768   6.356  2.0276  0.5294  0.5808
10626SOL     OW33599   5.499   4.835   4.759 -0.0324 -0.7622  0.3466
10626SOL    HW133600   5.503   4.926   4.789  0.6801 -0.7619  0.2742
10626SOL    HW233601   5.515   4.783   4.838 -2.0044 -0.8944  0.7091
10627SOL     OW33602   5.962   0.515   7.261 -0.5887  0.0274 -0.1392
10627SOL    HW133603   5.889   0.467   7.222 -1.0243 -1.3473  2.1599
10627SOL    HW233604   5.970   0.594   7.208 -1.6917 -1.2636 -2.3504
10628SOL     OW33605   4.270   3.515   7.254  0.1628  0.3243 -0.1620
10628SOL    HW133606   4.269   3.470   7.338  1.6711 -1.0852 -0.8330
10628SOL    HW233607   4.350   3.484   7.211 -0.9229  0.4185 -2.4138
10629SOL     OW33608   9.622   4.513   2.081 -0.0937  0.0721  0.6595
10629SOL    HW133609   9.686   4.464   2.028  0.1303  0.7511  0.2952
10629SOL    HW233610   9.540   4.465   2.068  0.3521 -0.8895  1.2404
10630SOL     OW33611   6.810   8.841   6.710 -0.2492  0.0991 -0.6075
10630SOL    HW133612   6.737   8.863   6.768  1.2836  1.1008  1.0715
10630SOL    HW233613   6.784   8.874   6.624 -2.5885 -1.3951 -0.5553
10631SOL     OW33614   6.756   1.166   3.489 -0.2388 -0.0035  0.1134
10631SOL    HW133615   6.751   1.074   3.462 -0.7953 -1.1058  3.4294
10631SOL    HW233616   6.665   1.194   3.495 -0.0644  0.8996 -1.1108
10632SOL     OW33617   5.477   0.742   1.114  0.6080 -0.0408  0.1437
10632SOL    HW133618   5.467   0.646   1.115 -1.5551  0.1068 -0.4899
10632SOL    HW233619   5.470   0.767   1.206 -1.2934 -0.3662  0.1387
10633SOL     OW33620   8.274   0.712   5.768 -0.6338  0.1426 -0.0209
10633SOL    HW133621   8.263   0.802   5.799 -2.4376  0.1540 -0.5429
10633SOL    HW233622   8.230   0.659   5.834 -1.0595 -0.1844 -0.5554
10634SOL     OW33623   3.830   5.831   1.536 -0.2505 -0.5443  0.4808
10634SOL    HW133624   3.861   5.846   1.625 -2.4150 -0.4980  1.2814
10634SOL    HW233625   3.810   5.738   1.533  0.1083 -0.6077 -0.0667
10635SOL     OW33626   1.704   6.956   9.646 -0.7667 -0.7189  0.3583
10635SOL    HW133627   1.779   7.015   9.654 -1.0573 -0.1331 -0.9835
10635SOL    HW233628   1.737   6.871   9.677 -0.2219  0.0340  1.9062
10636SOL     OW33629   5.178   7.017   3.418  0.8296 -0.1043  0.0976
10636SOL    HW133630   5.173   6.999   3.324  1.5349 -0.7142  0.1687
10636SOL    HW233631   5.088   7.038   3.443  0.6912  0.3779 -0.7727
10637SOL     OW33632   4.480   6.296   3.972 -0.2569 -0.3317  0.2383
10637SOL    HW133633   4.496   6.325   3.882 -0.5524  0.0490  0.3044
10637SOL    HW233634   4.400   6.343   3.998  0.0994 -0.0608  0.8680
10638SOL     OW33635   5.394   3.607   6.578  0.4916  0.7539  0.2647
10638SOL    HW133636   5.414   3.659   6.500 -0.9461  0.0320 -0.6287
10638SOL    HW233637   5.301   3.623   6.594 -0.2904 -2.2012 -0.6563
10639SOL     OW33638   4.206   7.416   4.373 -0.3766  0.0413  0.0311
10639SOL    HW133639   4.131   7.386   4.423 -1.1140 -0.4638 -1.3227
10639SOL    HW233640   4.174   7.425   4.283  1.6595 -2.3440 -1.0710
10640SOL     OW33641   5.519   4.972   3.156 -0.0752 -0.3831 -0.1005
10640SOL    HW133642   5.456   5.033   3.194  1.3366  1.2534 -0.2617
10640SOL    HW233643   5.501   4.974   3.062  1.6724  1.9819 -0.4769
10641SOL     OW33644   6.391   6.305   3.733 -0.0351  0.1152  0.8811
10641SOL    HW133645   6.427   6.296   3.822  0.8441  1.1021  0.6502
10641SOL    HW233646   6.336   6.228   3.722  1.8876 -1.4180  1.3361
10642SOL     OW33647   4.631   7.309   4.112 -0.5820 -0.3972 -0.0557
10642SOL    HW133648   4.598   7.399   4.124  0.5516  0.2051 -1.2041
10642SOL    HW233649   4.701   7.318   4.047 -0.0551 -2.0394  0.2473
10643SOL     OW33650   4.030   1.106   0.882 -0.1711 -0.0266  0.3001
10643SOL    HW133651   4.013   1.107   0.977 -1.5750 -1.7138  0.1294
10643SOL    HW233652   4.014   1.015   0.857 -0.7036  0.5753 -1.7012
10644SOL     OW33653   2.714   4.941   4.916  0.5649  0.1094  0.0326
10644SOL    HW133654   2.791   4.966   4.967  1.8739  0.6624 -2.0930
10644SOL    HW233655   2.749   4.888   4.845 -0.8523  1.2880 -1.6218
10645SOL     OW33656   2.808   4.141   5.747  0.8403 -0.1542 -0.0153
10645SOL    HW133657   2.896   4.114   5.721  1.0832  0.5079  0.1030
10645SOL    HW233658   2.802   4.232   5.721 -1.1053 -1.0695 -3.3543
10646SOL     OW33659   2.251   3.198   7.087 -0.6001  0.1527 -0.2629
10646SOL    HW133660   2.331   3.250   7.099  0.0741 -1.0308  0.6100
10646SOL    HW233661   2.237   3.156   7.171 -0.7933 -1.4994 -1.0729
10647SOL     OW33662   0.252   0.731   4.560 -0.0776  0.0221 -0.5453
10647SOL    HW133663   0.253   0.779   4.477 -1.6850  2.9003  0.9479
10647SOL    HW233664   0.197   0.655   4.543  2.0332 -1.1540 -2.8403
10648SOL     OW33665   5.191   8.700   3.411 -0.0625  0.2468  0.0879
10648SOL    HW133666   5.179   8.725   3.319  0.5810  0.8525  0.1639
10648SOL    HW233667   5.239   8.617   3.407 -1.3563 -0.5300 -0.1394
10649SOL     OW33668   5.550   1.756   6.555 -0.4063  0.6458  0.3458
10649SOL    HW133669   5.633   1.712   6.535 -1.2579 -0.6298 -0.4876
10649SOL    HW233670   5.516   1.712   6.632 -0.0838  1.5293  1.0197
10650SOL     OW33671   9.083   1.079   7.914 -0.2329  0.2085  0.2037
10650SOL    HW133672   9.027   1.002   7.919 -1.5896  1.2353  2.0653
10650SOL    HW233673   9.163   1.055   7.961 -0.2963 -0.3227  0.0377
10651SOL     OW33674   5.155   9.491   0.097  0.1826 -0.0001  0.1061
10651SOL    HW133675   5.214   9.549   0.145  2.1954  0.8279 -3.0330
10651SOL    HW233676   5.068   9.508   0.135  1.3141  1.9722  2.0580
10652SOL     OW33677   6.519   2.343   7.167 -0.1575  0.6048  0.5534
10652SOL    HW133678   6.436   2.308   7.132  0.5881 -0.3352 -0.3660
10652SOL    HW233679   6.532   2.425   7.120 -1.3573  1.6022  1.8924
10653SOL     OW33680   4.926   1.668   5.457 -0.2526  0.5315 -0.1541
10653SOL    HW133681   4.906   1.715   5.375 -3.7790 -1.0870 -0.4390
10653SOL    HW233682   4.842   1.630   5.483  1.7436 -3.3112  1.4931
10654SOL     OW33683   3.513   4.323   9.232  0.1686 -0.4504 -0.4559
10654SOL    HW133684   3.491   4.331   9.325  1.8337  0.7124 -0.1223
10654SOL    HW233685   3.450   4.380   9.188  0.8933  0.9225  0.2333
10655SOL     OW33686   0.408   6.825   0.839  0.6959 -0.1786 -0.6998
10655SOL    HW133687   0.386   6.840   0.931  1.1124  2.7274 -0.9958
10655SOL    HW233688   0.430   6.732   0.835 -1.1778 -0.8454  1.7198
10656SOL     OW33689   3.715   2.672   2.561  0.4758  0.0981  0.2722
10656SOL    HW133690   3.625   2.704   2.557  0.9118  1.2692 -0.8594
10656SOL    HW233691   3.768   2.749   2.541  1.6913 -0.7953 -0.0333
10657SOL     OW33692   5.304   8.087   0.582  0.1648  0.1721  0.1515
10657SOL    HW133693   5.340   8.164   0.627 -2.1932  0.0577  2.4498
10657SOL    HW233694   5.348   8.013   0.624  1.6361  0.1369 -1.3223
10658SOL     OW33695   6.229   5.643   6.590 -0.0072 -0.5546  0.5914
10658SOL    HW133696   6.245   5.710   6.656  0.4194  0.2683 -0.3321
10658SOL    HW233697   6.166   5.682   6.530  1.0466 -0.5606 -0.5508
10659SOL     OW33698   2.627   4.238   6.626  0.3933 -0.6410 -0.1692
10659SOL    HW133699   2.686   4.291   6.571  0.1075  1.2274  1.2047
10659SOL    HW233700   2.622   4.154   6.581  0.1550  0.7494 -3.0197
10660SOL     OW33701   8.144   7.330   2.839  0.6152 -0.2131  0.4874
10660SOL    HW133702   8.081   7.396   2.813  1.0474  0.7356  1.7444
10660SOL    HW233703   8.229   7.374   2.836  1.0241 -0.9714  0.4862
10661SOL     OW33704   4.281   8.387   9.430  0.7076 -0.3444  0.4846
10661SOL    HW133705   4.205   8.356   9.479  0.7858  1.0018  1.5130
10661SOL    HW233706   4.333   8.309   9.415 -1.2574 -1.4607 -0.9957
10662SOL     OW33707   4.571   4.550   4.969 -0.0692  0.1485 -0.0425
10662SOL    HW133708   4.530   4.630   5.000  0.9109  0.7241 -0.1882
10662SOL    HW233709   4.624   4.577   4.894  0.9636 -0.4663  0.4378
10663SOL     OW33710   6.258   1.637   5.822  0.5123 -0.0486 -0.1294
10663SOL    HW133711   6.347   1.667   5.806  0.6818 -0.3877  0.1723
10663SOL    HW233712   6.256   1.548   5.787 -0.1666  0.5093 -1.5872
10664SOL     OW33713   7.179   4.725   7.223  0.0612  0.5096 -0.1491
10664SOL    HW133714   7.213   4.666   7.156 -0.5670  0.0215 -0.0386
10664SOL    HW233715   7.092   4.749   7.192 -0.5902 -0.4225  0.9284
10665SOL     OW33716   4.628   9.481   0.676 -0.1825 -0.2028  0.4775
10665SOL    HW133717   4.716   9.519   0.672  0.3802 -1.4665 -0.0073
10665SOL    HW233718   4.643   9.386   0.672 -1.4593 -0.5544  2.5069
10666SOL     OW33719   7.311   8.784   8.670 -0.0479 -0.2233  0.0310
10666SOL    HW133720   7.251   8.844   8.626  0.1734 -0.3270 -0.4184
10666SOL    HW233721   7.366   8.841   8.724  0.0035 -0.0443 -0.2064
10667SOL     OW33722   2.077   4.110   6.025 -0.2934 -0.2714 -0.4600
10667SOL    HW133723   2.006   4.098   5.962  1.5776 -0.4536 -2.6568
10667SOL    HW233724   2.144   4.158   5.976  1.5259 -1.0122  1.2071
10668SOL     OW33725   5.455   2.644   7.713 -0.1301  0.3913 -0.2901
10668SOL    HW133726   5.482   2.618   7.624 -1.4116  0.0752 -0.6054
10668SOL    HW233727   5.386   2.708   7.699  0.5409  1.3078  0.5038
10669SOL     OW33728   6.886   6.908   8.704 -0.1449 -0.4623  0.3128
10669SOL    HW133729   6.930   6.913   8.619  0.5279 -0.3656  0.6591
10669SOL    HW233730   6.848   6.995   8.716 -0.9929 -0.7409 -0.2760
10670SOL     OW33731   3.380   7.466   1.542 -0.2741  0.5478 -0.6793
10670SOL    HW133732   3.339   7.515   1.470 -0.8868  0.4218 -0.4205
10670SOL    HW233733   3.321   7.479   1.616 -0.9752 -1.4011 -0.8554
10671SOL     OW33734   5.147   3.946   3.796  0.2649 -0.4245  0.1149
10671SOL    HW133735   5.102   3.985   3.721 -0.3975  0.7837  1.0952
10671SOL    HW233736   5.174   3.859   3.766 -2.1398 -0.9467 -0.7538
10672SOL     OW33737   4.023   3.841   9.379  0.4233  0.2682  0.1348
10672SOL    HW133738   4.069   3.817   9.298  0.3350 -0.0782  0.1853
10672SOL    HW233739   3.957   3.905   9.350  0.7687  0.5830  0.0261
10673SOL     OW33740   3.134   5.470   6.319 -0.0596 -0.4238  0.1612
10673SOL    HW133741   3.104   5.385   6.285 -3.0496 -1.1163  3.8483
10673SOL    HW233742   3.228   5.459   6.331 -0.3320 -3.2756  0.4388
10674SOL     OW33743   3.150   6.771   5.882  0.5183  0.1508 -0.9322
10674SOL    HW133744   3.194   6.687   5.894 -0.6525 -0.3024  0.5734
10674SOL    HW233745   3.057   6.749   5.880  0.2390  1.3051 -1.6886
10675SOL     OW33746   0.292   1.221   5.188  0.3759  0.3117 -0.2288
10675SOL    HW133747   0.304   1.315   5.174 -1.4570  1.3405  3.7772
10675SOL    HW233748   0.227   1.195   5.123 -0.8853  2.4200  0.1061
10676SOL     OW33749   9.352   7.017   2.593  0.3329 -0.1969 -0.4891
10676SOL    HW133750   9.402   6.947   2.635 -0.7730 -0.4172  0.5011
10676SOL    HW233751   9.326   6.980   2.508  0.8724 -0.4959 -0.5244
10677SOL     OW33752   3.503   5.365   2.915 -0.2098  0.0253 -0.0755
10677SOL    HW133753   3.564   5.315   2.969 -1.7658 -0.9998  0.8413
10677SOL    HW233754   3.557   5.409   2.850  1.4849 -0.7031  0.7967
10678SOL     OW33755   9.494   5.843   5.011 -0.4191 -0.7778  0.1560
10678SOL    HW133756   9.415   5.887   4.979 -0.5732 -1.8457 -1.0426
10678SOL    HW233757   9.466   5.753   5.029  0.0094 -0.5641  2.0298
10679SOL     OW33758   6.423   5.939   2.581 -0.2882 -0.2397  0.3154
10679SOL    HW133759   6.489   5.964   2.645 -0.2706  2.2877 -0.5738
10679SOL    HW233760   6.471   5.927   2.499 -0.8161  1.0419 -0.2063
10680SOL     OW33761   5.373   7.157   3.189  0.1564  0.0813  0.5062
10680SOL    HW133762   5.319   7.079   3.196 -1.1221  0.9012  0.1185
10680SOL    HW233763   5.434   7.138   3.117 -0.1514 -0.5345  0.4026
10681SOL     OW33764   0.311   3.809   2.448  0.8439 -0.8414  0.0447
10681SOL    HW133765   0.385   3.852   2.491  1.3403 -0.0931 -1.5027
10681SOL    HW233766   0.274   3.752   2.516  2.4125 -0.7254  1.0474
10682SOL     OW33767   3.141   1.284   5.668 -0.1042 -0.2434 -0.0451
10682SOL    HW133768   3.098   1.291   5.754  2.2132 -1.8645  1.3752
10682SOL    HW233769   3.103   1.206   5.628  0.9198 -1.2598  0.8931
10683SOL     OW33770   5.127   9.431   2.864 -0.3043  0.0577  0.5346
10683SOL    HW133771   5.089   9.470   2.786 -1.9316 -1.7768  0.3316
10683SOL    HW233772   5.095   9.485   2.937 -0.1246  0.7867  0.0824
10684SOL     OW33773   8.548   2.266   3.196 -0.1150  0.2971  0.2273
10684SOL    HW133774   8.535   2.193   3.256  0.8413 -0.8891 -0.9543
10684SOL    HW233775   8.558   2.343   3.252 -0.7451 -0.5333  1.5032
10685SOL     OW33776   5.105   7.946   6.851  0.3114 -0.1781 -0.3166
10685SOL    HW133777   5.164   7.879   6.885 -0.8871 -1.1095  0.0233
10685SOL    HW233778   5.082   7.914   6.764 -0.1229 -0.1245 -0.2233
10686SOL     OW33779   8.898   3.334   0.211  0.0218 -0.1033 -0.0036
10686SOL    HW133780   8.864   3.369   0.294  0.0116  0.4837 -0.2525
10686SOL    HW233781   8.933   3.411   0.165 -1.9301 -0.0392 -1.5033
10687SOL     OW33782   1.169   5.019   0.056 -0.3727  1.0984  0.1369
10687SOL    HW133783   1.117   5.070  -0.006  1.0893  0.4550 -1.6936
10687SOL    HW233784   1.238   5.078   0.085 -0.2380  0.9681  0.0816
10688SOL     OW33785   3.229   4.732   3.021  0.3385 -0.2636 -0.1866
10688SOL    HW133786   3.176   4.673   3.075  1.4473 -0.4917  0.6963
10688SOL    HW233787   3.298   4.763   3.080 -0.0129  1.6557 -0.7331
10689SOL     OW33788   0.718   4.592   4.242 -0.2727 -0.2493 -0.3653
10689SOL    HW133789   0.791   4.589   4.303  1.0803  1.0387 -1.8293
10689SOL    HW233790   0.733   4.518   4.183  0.4996  0.6424 -1.3211
10690SOL     OW33791   3.407   7.205   5.279 -0.0445  0.5316  0.1846
10690SOL    HW133792   3.361   7.161   5.350  1.3294  0.2834  0.9705
10690SOL    HW233793   3.491   7.230   5.317  1.5110 -1.2184 -1.8005
10691SOL     OW33794   8.416   4.077   0.255 -0.5221 -0.0434 -0.1021
10691SOL    HW133795   8.327   4.114   0.258 -0.6241 -0.2993  0.0252
10691SOL    HW233796   8.423   4.026   0.336 -0.6781 -0.9844 -0.6707
10692SOL     OW33797   8.479   9.517   6.153  0.0364 -0.6010  0.0000
10692SOL    HW133798   8.561   9.494   6.196  0.6502  1.0730 -0.1965
10692SOL    HW233799   8.412   9.498   6.218  0.7119 -0.6331  0.7020
10693SOL     OW33800   7.397   5.408   4.332  0.4294 -0.6038  0.3927
10693SOL    HW133801   7.487   5.438   4.316  0.2798 -0.7888 -0.8871
10693SOL    HW233802   7.347   5.489   4.342  0.6514 -0.4944  0.6619
10694SOL     OW33803   1.455   8.668   6.783  0.4605 -0.0429 -0.3605
10694SOL    HW133804   1.455   8.614   6.862 -1.7553  0.2407 -0.1027
10694SOL    HW233805   1.467   8.757   6.814  0.9351 -0.0559 -0.4928
10695SOL     OW33806   0.167   0.638   3.264  0.3886 -0.0705  0.0302
10695SOL    HW133807   0.235   0.585   3.223 -0.2599  0.7256 -2.2399
10695SOL    HW233808   0.145   0.592   3.345  0.4992 -2.7284 -1.3628
10696SOL     OW33809   7.260   6.196   1.385  0.4266  0.0718 -0.2144
10696SOL    HW133810   7.350   6.184   1.353  0.3185  1.8267 -1.3205
10696SOL    HW233811   7.221   6.110   1.379  2.0136 -0.7174  0.2064
10697SOL     OW33812   3.702   8.277   5.965  1.0542  0.4362  0.0617
10697SOL    HW133813   3.647   8.274   5.887  1.1772  4.5239 -0.3883
10697SOL    HW233814   3.786   8.312   5.935  2.2166 -0.9072  1.5649
10698SOL     OW33815   3.272   5.561   7.965  0.3978 -0.0667 -0.3193
10698SOL    HW133816   3.249   5.471   7.942  0.6753 -1.0604  2.8490
10698SOL    HW233817   3.188   5.607   7.970 -0.1515 -1.1980  1.8131
10699SOL     OW33818   4.875   7.215   0.274 -0.2918 -0.3341 -0.2603
10699SOL    HW133819   4.901   7.306   0.258  0.6260 -0.7696 -1.3544
10699SOL    HW233820   4.806   7.198   0.209 -1.5762  0.0267  0.9571
10700SOL     OW33821   2.212   5.316   2.361  0.6067  0.3608 -0.4101
10700SOL    HW133822   2.129   5.309   2.408  0.9102 -0.4183  0.0272
10700SOL    HW233823   2.257   5.389   2.404  0.1948  0.7137 -0.5779
10701SOL     OW33824   4.067   7.274   3.927 -0.3421  0.1154 -0.5913
10701SOL    HW133825   4.101   7.333   3.860 -0.3908 -0.3117 -0.9976
10701SOL    HW233826   4.142   7.222   3.955 -0.4623 -0.1813 -0.8138
10702SOL     OW33827   5.640   8.326   6.242  0.0978 -0.0678  0.0033
10702SOL    HW133828   5.588   8.287   6.312  0.4501  1.3558  1.0953
10702SOL    HW233829   5.722   8.353   6.283  0.0582  1.3750 -0.7835
10703SOL     OW33830   2.823   5.715   4.303 -0.2804 -0.0074 -0.5145
10703SOL    HW133831   2.785   5.630   4.284 -0.4259 -0.2891  0.8786
10703SOL    HW233832   2.756   5.759   4.356  0.5581  0.2149  0.3891
10704SOL     OW33833   9.533   2.922   5.419 -0.0723  0.3306 -0.3345
10704SOL    HW133834   9.609   2.949   5.471 -0.5475  0.7118  0.1650
10704SOL    HW233835   9.468   2.894   5.483 -0.4091  0.1331 -0.7556
10705SOL     OW33836   7.960   5.200   6.209 -0.1265 -0.1348 -0.0345
10705SOL    HW133837   7.994   5.265   6.148  1.0493 -0.9224 -0.2516
10705SOL    HW233838   8.038   5.162   6.250 -0.8575 -0.1947  1.3643
10706SOL     OW33839   0.045   2.184   0.696  0.1025  0.1496 -0.1796
10706SOL    HW133840   0.130   2.170   0.655 -0.8506 -2.1745 -1.5711
10706SOL    HW233841  -0.001   2.244   0.638  0.3964  0.5591  0.0064
10707SOL     OW33842   5.185   6.340   1.746 -0.0858 -0.1383 -0.1019
10707SOL    HW133843   5.131   6.407   1.703  0.5015  0.3705 -0.0514
10707SOL    HW233844   5.128   6.263   1.751  0.3700 -0.8541 -3.4882
10708SOL     OW33845   8.718   4.685   1.977 -0.2902  0.1253  0.7229
10708SOL    HW133846   8.757   4.616   1.923 -0.5089  1.4023 -1.1559
10708SOL    HW233847   8.681   4.638   2.052  0.5726 -1.6608  0.0995
10709SOL     OW33848   9.504   4.722   9.536 -0.1065 -0.1958  0.0181
10709SOL    HW133849   9.495   4.712   9.441 -1.0426 -2.0721  0.2683
10709SOL    HW233850   9.591   4.760   9.547  1.1399 -2.3497 -1.5205
10710SOL     OW33851   4.189   0.295   0.162 -0.6720 -0.7554 -0.1230
10710SOL    HW133852   4.098   0.316   0.181 -1.5565 -1.6572 -2.9888
10710SOL    HW233853   4.187   0.245   0.081  2.3572 -1.2508 -0.0302
10711SOL     OW33854   7.221   0.924   9.448  0.4567  0.5547 -0.7987
10711SOL    HW133855   7.281   0.903   9.519 -1.2358 -1.5337  0.1090
10711SOL    HW233856   7.226   1.019   9.440  1.0654  0.8174  1.7997
10712SOL     OW33857   5.586   4.007   2.451 -0.4015  0.1364 -0.3764
10712SOL    HW133858   5.521   3.941   2.478 -1.9877  1.6272 -0.3589
10712SOL    HW233859   5.533   4.081   2.421  1.3157  1.5019 -0.1745
10713SOL     OW33860   8.436   7.228   2.880 -0.1430  0.3438 -0.2250
10713SOL    HW133861   8.446   7.175   2.801  1.0589  1.3284 -0.7556
10713SOL    HW233862   8.433   7.163   2.951 -0.4946 -0.5177 -1.0085
10714SOL     OW33863   8.299   4.318   9.453  0.1355 -0.3801 -0.1896
10714SOL    HW133864   8.332   4.240   9.411 -0.4574  0.0161 -1.4291
10714SOL    HW233865   8.374   4.378   9.457  0.1767 -0.3951 -0.7465
10715SOL     OW33866   8.024   1.911   1.380  0.4221 -0.1727  0.1568
10715SOL    HW133867   7.998   1.909   1.288 -0.3990  3.7028  0.1623
10715SOL    HW233868   7.945   1.934   1.428  1.6862  2.1581  1.2838
10716SOL     OW33869   0.234   0.143   6.152  0.1992  0.9790 -0.0741
10716SOL    HW133870   0.265   0.227   6.118  0.9938  2.2379  3.2768
10716SOL    HW233871   0.300   0.080   6.124  1.2216  2.0683 -0.2112
10717SOL     OW33872   0.321   1.539   7.193  0.5539  0.1471 -0.2724
10717SOL    HW133873   0.276   1.617   7.225 -0.5076 -0.4261 -0.3228
10717SOL    HW233874   0.327   1.551   7.098  0.1447  0.0574 -0.3137
10718SOL     OW33875   0.582   0.601   6.480  0.0203  0.1124 -0.8902
10718SOL    HW133876   0.555   0.572   6.567 -0.0849 -0.0757 -0.9859
10718SOL    HW233877   0.593   0.521   6.430  0.5445  0.1991 -0.9193
10719SOL     OW33878   5.762   8.578   9.136  0.9165 -0.0914  0.2599
10719SOL    HW133879   5.737   8.637   9.065  1.9661 -2.3257 -2.1692
10719SOL    HW233880   5.688   8.518   9.144  0.2274  0.9362  2.0892
10720SOL     OW33881   6.216   2.093   0.059  0.4691 -0.0189  0.3175
10720SOL    HW133882   6.172   2.173   0.088  0.1336  0.4086 -1.3074
10720SOL    HW233883   6.154   2.023   0.077 -0.0334  0.3296 -0.0530
10721SOL     OW33884   5.407   2.199   4.438  0.0233 -1.0512 -0.0794
10721SOL    HW133885   5.394   2.289   4.408 -1.2812 -1.9160 -2.3181
10721SOL    HW233886   5.354   2.193   4.518  0.1836  0.1794  0.1385
10722SOL     OW33887   5.590   6.262   6.233 -0.1357 -0.0427  0.0583
10722SOL    HW133888   5.508   6.214   6.226  0.1210 -0.2505 -2.4573
10722SOL    HW233889   5.608   6.293   6.144  1.7234  1.3467  0.8351
10723SOL     OW33890   6.855   3.030   7.506  0.6645  0.0032 -0.4579
10723SOL    HW133891   6.933   2.974   7.500  0.1537 -0.8707  0.7025
10723SOL    HW233892   6.783   2.974   7.478  0.1577  0.0981  0.6074
10724SOL     OW33893   3.556   5.252   1.638  0.2842  0.0783 -0.5948
10724SOL    HW133894   3.584   5.165   1.666  3.0261  0.7648 -0.9832
10724SOL    HW233895   3.469   5.237   1.599  0.4815 -2.3810 -0.2688
10725SOL     OW33896   0.878   3.173   2.473  0.0786  0.1820  0.3699
10725SOL    HW133897   0.805   3.234   2.458  0.8962  0.7645 -1.6104
10725SOL    HW233898   0.913   3.156   2.385  0.2656 -2.7064  0.9116
10726SOL     OW33899   4.372   8.311   4.282 -0.2488 -0.6513  0.2858
10726SOL    HW133900   4.442   8.272   4.334  0.0508 -0.4829  0.0146
10726SOL    HW233901   4.352   8.394   4.326  1.0990  0.2562 -0.7282
10727SOL     OW33902   1.206   4.675   2.779  0.4229 -0.7614 -0.1261
10727SOL    HW133903   1.111   4.675   2.786  0.5169 -0.4455  1.6131
10727SOL    HW233904   1.233   4.590   2.816  0.8370 -0.7439 -0.3776
10728SOL     OW33905   7.864   8.116   4.148  0.3011  0.7553  0.2074
10728SOL    HW133906   7.802   8.051   4.114 -1.7558  2.2654  0.8630
10728SOL    HW233907   7.932   8.121   4.081  0.4055 -1.8370  0.0043
10729SOL     OW33908   4.763   8.304   7.142  0.3823 -0.6971  1.0950
10729SOL    HW133909   4.710   8.231   7.173 -1.1693 -0.0632  0.0289
10729SOL    HW233910   4.760   8.368   7.212 -1.8869  0.1170  0.3210
10730SOL     OW33911   5.299   1.445   8.149 -0.3577  0.0482  0.0507
10730SOL    HW133912   5.319   1.535   8.177  0.6919  0.3161 -1.4429
10730SOL    HW233913   5.248   1.457   8.069 -0.2460 -0.6867 -0.1313
10731SOL     OW33914   8.702   8.720   1.847 -0.0102 -0.0591  0.7599
10731SOL    HW133915   8.798   8.714   1.843 -0.0509 -0.0625 -0.9616
10731SOL    HW233916   8.675   8.640   1.892  0.6721 -1.7656 -1.6262
10732SOL     OW33917   4.755   0.631   4.440  0.0517 -0.3917 -0.0399
10732SOL    HW133918   4.749   0.542   4.477 -0.8307 -0.2471  0.1743
10732SOL    HW233919   4.769   0.617   4.347 -0.9694 -0.7682 -0.1495
10733SOL     OW33920   1.436   5.563   3.940 -0.1415 -0.1047  0.3121
10733SOL    HW133921   1.521   5.587   3.902  0.1489  0.8123  1.4356
10733SOL    HW233922   1.387   5.523   3.869  1.0060 -0.0567 -0.5291
10734SOL     OW33923   9.313   8.662   1.472 -0.1785 -0.2772  0.1842
10734SOL    HW133924   9.252   8.665   1.546 -1.0271 -0.8310 -0.4852
10734SOL    HW233925   9.304   8.574   1.436  1.3575 -0.5212  0.3448
10735SOL     OW33926   6.770   5.490   1.746  0.0469 -0.3938  0.2163
10735SOL    HW133927   6.689   5.539   1.732  1.0319  1.3604  0.4799
10735SOL    HW233928   6.768   5.422   1.678 -1.9146 -0.7925  0.5953
10736SOL     OW33929   2.430   1.848   5.450 -0.0973  0.3448  0.4056
10736SOL    HW133930   2.462   1.886   5.532 -0.6235  1.0744  0.2790
10736SOL    HW233931   2.494   1.874   5.384  1.9541 -2.6709  1.0196
10737SOL     OW33932   4.664   5.635   7.592 -0.1110  0.5392  0.6712
10737SOL    HW133933   4.622   5.607   7.673  1.0724  0.1946  1.1848
10737SOL    HW233934   4.616   5.590   7.523 -0.3836 -0.0863  1.2662
10738SOL     OW33935   5.061   6.699   1.123 -0.1470 -0.1036  0.3294
10738SOL    HW133936   5.017   6.776   1.087 -0.1465  0.6188  1.7826
10738SOL    HW233937   5.148   6.731   1.149  0.0226 -0.7075  0.5166
10739SOL     OW33938   0.879   1.171   4.701 -0.5569 -0.5054  0.0331
10739SOL    HW133939   0.800   1.208   4.742  0.2243  0.4798  0.6853
10739SOL    HW233940   0.895   1.227   4.625  0.8369  0.7911  1.2289
10740SOL     OW33941   1.462   6.630   1.790 -0.2345 -0.3053  0.1014
10740SOL    HW133942   1.484   6.709   1.840 -0.5012 -0.8318  1.0822
10740SOL    HW233943   1.423   6.572   1.854  2.4837 -2.3519  0.0959
10741SOL     OW33944   5.825   0.774   8.577 -0.7874 -0.0863 -0.0051
10741SOL    HW133945   5.796   0.840   8.641  0.7004 -0.5650  1.2098
10741SOL    HW233946   5.833   0.823   8.495  0.7691  1.4132  0.9663
10742SOL     OW33947   7.380   8.842   2.408 -0.0829 -0.0365 -0.3249
10742SOL    HW133948   7.414   8.843   2.498 -0.6447 -1.1067 -0.0803
10742SOL    HW233949   7.439   8.783   2.362 -0.6416 -0.6352 -0.2902
10743SOL     OW33950   1.924   7.265   0.380 -0.8725  0.2401  0.4897
10743SOL    HW133951   1.859   7.214   0.332 -0.3738 -0.4079  0.4901
10743SOL    HW233952   1.887   7.272   0.468  0.0103 -2.0142  1.1202
10744SOL     OW33953   6.987   7.673   3.823 -0.3371  0.1042  0.1636
10744SOL    HW133954   6.957   7.693   3.734 -0.7569 -2.6578 -0.4058
10744SOL    HW233955   6.942   7.591   3.846  1.4709 -0.4614  2.0328
10745SOL     OW33956   7.122   1.752   0.756 -0.0375 -0.2906 -0.1592
10745SOL    HW133957   7.134   1.847   0.749  0.2009 -0.1706  1.4331
10745SOL    HW233958   7.049   1.732   0.697 -1.1884  1.1453  0.7177
10746SOL     OW33959   5.443   4.958   5.316 -0.3689 -0.3522 -0.3541
10746SOL    HW133960   5.521   5.004   5.347 -0.4501 -0.5778  0.2000
10746SOL    HW233961   5.389   5.026   5.276 -0.2669 -0.0445  0.0185
10747SOL     OW33962   1.309   1.660   0.340  0.2859  0.1801  0.7304
10747SOL    HW133963   1.402   1.682   0.351  0.6190 -1.2073  0.7970
10747SOL    HW233964   1.307   1.565   0.333 -1.0383  0.2526 -0.2816
10748SOL     OW33965   8.633   9.238   1.607 -0.3092 -0.1325  0.4621
10748SOL    HW133966   8.715   9.206   1.645 -0.7596 -0.0538  1.5425
10748SOL    HW233967   8.584   9.158   1.587  0.4210 -0.2122 -1.1343
10749SOL     OW33968   2.896   8.572   6.546 -0.2251  0.2302 -0.1386
10749SOL    HW133969   2.825   8.511   6.528 -0.0251 -0.1314  0.2547
10749SOL    HW233970   2.957   8.559   6.473 -1.5487  2.1171 -1.6710
10750SOL     OW33971   3.073   9.190   4.764 -0.0512 -0.7172  0.1408
10750SOL    HW133972   3.072   9.136   4.844 -1.9899 -1.5969 -0.4080
10750SOL    HW233973   3.089   9.128   4.693 -0.0420 -0.2203 -0.2974
10751SOL     OW33974   0.556   8.524   2.213 -0.0950  0.6069  0.2371
10751SOL    HW133975   0.616   8.568   2.272 -0.3743  0.9831  0.2417
10751SOL    HW233976   0.522   8.450   2.264 -3.2474  3.0323  1.9708
10752SOL     OW33977   6.643   6.672   5.157 -0.9124 -0.2216  0.1391
10752SOL    HW133978   6.720   6.659   5.101 -1.4099 -0.7383 -0.4358
10752SOL    HW233979   6.583   6.724   5.104  0.5107  3.5748  1.9333
10753SOL     OW33980   6.501   5.648   7.795 -0.7130  0.7654  0.2263
10753SOL    HW133981   6.417   5.634   7.839  0.1580 -0.9328  1.4944
10753SOL    HW233982   6.549   5.707   7.854 -0.1713 -0.1582  0.7352
10754SOL     OW33983   3.656   6.057   1.477 -0.2150  0.7027 -0.3294
10754SOL    HW133984   3.721   5.988   1.465 -1.4093 -1.0242  2.1310
10754SOL    HW233985   3.595   6.045   1.405  1.6409  1.8126 -2.1923
10755SOL     OW33986   3.005   5.866   2.601  0.3081 -0.1499  0.2311
10755SOL    HW133987   3.050   5.856   2.517  0.1996 -1.0079  0.2664
10755SOL    HW233988   2.985   5.777   2.629 -1.5459  0.1969  0.1434
10756SOL     OW33989   6.976   6.757   1.374 -0.1120 -0.1334 -0.4937
10756SOL    HW133990   6.977   6.841   1.329 -2.9607  0.1849 -0.2006
10756SOL    HW233991   7.006   6.776   1.463  0.1422  0.3743 -0.6882
10757SOL     OW33992   6.377   0.493   4.277  0.0151  0.2315  0.2508
10757SOL    HW133993   6.413   0.434   4.344  0.1779  0.2837  0.2081
10757SOL    HW233994   6.373   0.578   4.320 -1.5618 -0.0898  0.7957
10758SOL     OW33995   8.952   3.164   7.147  0.2174 -0.0308 -0.3843
10758SOL    HW133996   9.040   3.200   7.142 -0.7200  2.2845 -3.0999
10758SOL    HW233997   8.906   3.221   7.209  0.3585 -0.6120  0.2617
10759SOL     OW33998   9.333   4.943   5.438 -0.5799  0.3678 -0.4478
10759SOL    HW133999   9.390   5.019   5.444  0.7778 -0.6030 -0.5091
10759SOL    HW234000   9.250   4.972   5.474 -0.2612  2.0258 -0.9627
10760SOL     OW34001   1.776   7.021   9.141  0.2107  0.0420 -0.3815
10760SOL    HW134002   1.783   7.039   9.047 -1.2622  1.7074 -0.2180
10760SOL    HW234003   1.688   6.985   9.152 -0.4301  1.7820  0.5905
10761SOL     OW34004   8.495   1.615   8.074 -0.6499 -0.6096  0.6680
10761SOL    HW134005   8.420   1.674   8.083 -1.1581 -1.4176  1.9968
10761SOL    HW234006   8.518   1.621   7.982 -1.8240  0.2853  0.3956
10762SOL     OW34007   3.646   0.202   8.411  0.2089  0.2509 -0.0265
10762SOL    HW134008   3.582   0.203   8.483 -0.6190  1.1386 -0.7403
10762SOL    HW234009   3.729   0.222   8.453 -0.0263 -0.5489  0.8696
10763SOL     OW34010   5.578   4.360   4.689 -0.5803 -0.0128  0.2410
10763SOL    HW134011   5.563   4.377   4.596 -0.7886 -1.0561  0.0655
10763SOL    HW234012   5.507   4.300   4.714  0.1811 -0.7260  0.7608
10764SOL     OW34013   2.411   8.754   8.103  0.1859 -0.3360 -0.3117
10764SOL    HW134014   2.500   8.768   8.070 -0.1825  1.5326 -0.6200
10764SOL    HW234015   2.424   8.718   8.191  1.2043 -2.3203 -1.2245
10765SOL     OW34016   3.566   2.506   9.256 -0.5797  0.5012  0.2513
10765SOL    HW134017   3.656   2.502   9.287 -1.8375 -1.4585  4.4356
10765SOL    HW234018   3.529   2.584   9.298 -0.6432  2.1328 -2.5748
10766SOL     OW34019   7.271   9.151   0.753 -0.8045 -0.1079 -0.0237
10766SOL    HW134020   7.178   9.175   0.757 -0.7213  0.2468 -0.2271
10766SOL    HW234021   7.308   9.208   0.686  0.6758  3.5400  3.4992
10767SOL     OW34022   3.766   6.747   2.990 -0.4545 -0.2602 -0.2817
10767SOL    HW134023   3.675   6.771   3.007 -0.4974 -1.2707  1.0638
10767SOL    HW234024   3.799   6.715   3.074  0.6020 -1.6315 -1.1650
10768SOL     OW34025   4.884   1.677   8.244  0.8620 -0.3119 -0.0584
10768SOL    HW134026   4.829   1.674   8.165  1.2324 -1.2819 -0.2930
10768SOL    HW234027   4.967   1.715   8.214  0.3385  1.1802  0.3022
10769SOL     OW34028   1.794   6.318   3.552  0.0766 -0.2656  0.2019
10769SOL    HW134029   1.733   6.333   3.624  0.4553  1.1729  0.2583
10769SOL    HW234030   1.874   6.362   3.579  0.9624 -1.6151 -0.1384
10770SOL     OW34031   2.227   7.335   6.316  0.2194 -0.4153  0.4569
10770SOL    HW134032   2.152   7.356   6.261  0.3562  1.4044  0.9316
10770SOL    HW234033   2.224   7.239   6.324 -1.5092 -0.4586 -0.2627
10771SOL     OW34034   4.836   2.972   2.510 -0.3673 -0.4655  0.1740
10771SOL    HW134035   4.909   3.030   2.486 -0.8478  0.1756  0.2311
10771SOL    HW234036   4.860   2.887   2.473 -0.6179  0.2582 -1.8008
10772SOL     OW34037   4.439   6.358   3.684 -0.5180  0.0541  0.4244
10772SOL    HW134038   4.398   6.289   3.632  0.3710  1.2383 -1.9997
10772SOL    HW234039   4.378   6.432   3.677  0.5988  0.9130 -0.8462
10773SOL     OW34040   4.077   9.092   0.086  0.2240  0.7891  0.0574
10773SOL    HW134041   4.094   9.184   0.105  0.5324  0.7874 -0.2151
10773SOL    HW234042   4.001   9.070   0.140 -1.6497  1.9604 -1.9349
10774SOL     OW34043   4.656   3.190   7.593  0.6374  0.6129 -0.0703
10774SOL    HW134044   4.745   3.156   7.601  0.4581 -0.0811 -0.9316
10774SOL    HW234045   4.617   3.140   7.521 -0.2046  1.4270 -0.2009
10775SOL     OW34046   1.170   2.363   5.126  0.3009  0.3298 -0.9687
10775SOL    HW134047   1.150   2.438   5.182 -2.7391 -1.8859  1.2582
10775SOL    HW234048   1.249   2.324   5.164 -1.8364 -1.2777  2.2688
10776SOL     OW34049   5.317   7.100   1.882  0.1684  0.3483 -0.2476
10776SOL    HW134050   5.345   7.166   1.946  1.5187 -1.0611  0.7120
10776SOL    HW234051   5.353   7.018   1.916 -0.1613 -0.6554 -2.1883
10777SOL     OW34052   6.046   9.170   7.438 -0.1461 -0.6535 -0.1632
10777SOL    HW134053   5.992   9.212   7.505  0.7235 -0.9791  0.7695
10777SOL    HW234054   5.983   9.128   7.379 -0.9224 -0.4322  0.4901
10778SOL     OW34055   8.114   2.138   3.090 -0.7529 -0.3842 -0.8403
10778SOL    HW134056   8.150   2.058   3.051 -0.6544 -0.9536  0.3724
10778SOL    HW234057   8.188   2.198   3.093  0.1970 -1.5469  1.6378
10779SOL     OW34058   5.931   1.342   5.894  0.1097  0.2604 -0.6734
10779SOL    HW134059   5.840   1.350   5.923  0.4646  1.4504  0.1977
10779SOL    HW234060   5.971   1.426   5.917  1.3266 -0.0832 -1.4313
10780SOL     OW34061   4.208   2.375   0.270 -0.1278  0.0573  0.2424
10780SOL    HW134062   4.153   2.307   0.233  1.2766 -0.6627 -0.6209
10780SOL    HW234063   4.147   2.438   0.309 -1.4889 -1.1361  0.0966
10781SOL     OW34064   9.686   8.579   3.818  0.3180  0.0834  0.0316
10781SOL    HW134065   9.684   8.672   3.796  1.4131  0.1842  0.2889
10781SOL    HW234066   9.608   8.565   3.871  1.9075  1.6856  3.1095
10782SOL     OW34067   2.390   6.707   1.544  0.4024 -0.1413  0.0971
10782SOL    HW134068   2.438   6.674   1.620 -0.9428  0.1677  1.1307
10782SOL    HW234069   2.332   6.774   1.580  1.8953  2.2688 -1.6788
10783SOL     OW34070   6.956   2.276   2.738  0.1974 -0.1290  0.1945
10783SOL    HW134071   6.962   2.371   2.744  1.3947 -0.1432 -0.3661
10783SOL    HW234072   6.885   2.252   2.797  0.2397  1.0681  0.7581
10784SOL     OW34073   8.574   6.024   9.042  0.2670 -0.0175 -0.0121
10784SOL    HW134074   8.594   5.981   9.124  1.1181  0.5499  0.0907
10784SOL    HW234075   8.649   6.006   8.986 -0.7417 -1.2331 -1.0206
10785SOL     OW34076   7.543   2.842   3.619  0.0497  0.8419 -0.6416
10785SOL    HW134077   7.490   2.795   3.684 -1.6826  0.0886 -2.4836
10785SOL    HW234078   7.591   2.773   3.573  1.5093  1.3959 -0.0168
10786SOL     OW34079   4.634   3.547   4.962  0.4432  0.1038  0.6941
10786SOL    HW134080   4.706   3.490   4.937  0.8266  1.5441 -1.7562
10786SOL    HW234081   4.608   3.592   4.881 -0.3887  2.7698  2.2926
10787SOL     OW34082   6.765   2.083   2.871 -0.3479 -0.0668  0.2578
10787SOL    HW134083   6.712   2.008   2.840  0.2645 -0.1603 -0.6099
10787SOL    HW234084   6.839   2.043   2.916  0.0058 -0.0025 -0.2490
10788SOL     OW34085   5.631   8.768   5.016  0.2056 -0.1317  0.0819
10788SOL    HW134086   5.702   8.799   4.960  1.8209 -0.3918  1.8617
10788SOL    HW234087   5.601   8.847   5.062 -0.1739 -0.1389 -0.1549
10789SOL     OW34088   9.156   3.258   5.206 -0.0417 -0.1293 -0.1840
10789SOL    HW134089   9.061   3.267   5.217  0.0834 -0.5971  1.4584
10789SOL    HW234090   9.186   3.346   5.185 -0.7787  0.1078 -0.2824
10790SOL     OW34091   0.350   2.432   9.386 -0.3327 -0.2558 -0.3435
10790SOL    HW134092   0.382   2.520   9.367 -3.7223  1.1900 -0.2564
10790SOL    HW234093   0.388   2.410   9.471  0.2771  1.3303 -0.1827
10791SOL     OW34094   5.178   9.566   4.170  0.5380 -0.4787  0.2004
10791SOL    HW134095   5.170   9.528   4.257  1.0693 -0.4070  0.2804
10791SOL    HW234096   5.098   9.538   4.124 -0.2011  0.2628  1.0019
10792SOL     OW34097   3.934   0.699   0.252 -0.6621  0.6046 -0.3168
10792SOL    HW134098   3.873   0.703   0.179 -1.3692 -0.3554  0.1964
10792SOL    HW234099   3.920   0.781   0.300 -0.6909  0.9218 -0.8666
10793SOL     OW34100   8.330   5.962   3.679  0.0743  0.0304  0.1416
10793SOL    HW134101   8.417   5.950   3.717  0.3277  0.3229 -0.3286
10793SOL    HW234102   8.328   5.901   3.605  0.9808  1.9808 -1.6204
10794SOL     OW34103   4.504   3.301   6.286  0.1119  0.5201  0.1512
10794SOL    HW134104   4.435   3.333   6.228 -1.1533 -1.5617  0.4201
10794SOL    HW234105   4.511   3.208   6.266 -0.0944 -0.1863  3.0263
10795SOL     OW34106   9.635   3.756   3.397 -0.3027  0.0358 -0.1994
10795SOL    HW134107   9.586   3.780   3.318 -0.4034  1.4066  0.2525
10795SOL    HW234108   9.609   3.665   3.414 -2.3479  0.5551 -0.2446
10796SOL     OW34109   6.358   1.278   7.764 -0.2266 -0.2646  0.1599
10796SOL    HW134110   6.344   1.372   7.751  0.6778  0.1354  1.7969
10796SOL    HW234111   6.445   1.262   7.728 -0.8530 -0.7732 -1.2303
10797SOL     OW34112   5.824   8.995   1.550  0.3156 -0.1964  0.0054
10797SOL    HW134113   5.907   9.031   1.580  0.8306  0.3455 -1.9434
10797SOL    HW234114   5.774   9.071   1.519 -0.2902 -0.6814 -0.2382
10798SOL     OW34115   5.759   3.279   2.867 -0.0274 -0.4544  0.6693
10798SOL    HW134116   5.752   3.184   2.864  0.7536 -0.5034 -0.1327
10798SOL    HW234117   5.701   3.310   2.797  1.3313 -0.4713 -0.5213
10799SOL     OW34118   7.384   3.422   3.482  0.4701  0.3167  0.1930
10799SOL    HW134119   7.432   3.479   3.422  2.0479 -0.1773  0.9103
10799SOL    HW234120   7.372   3.340   3.433  1.5006  0.0141  0.4086
10800SOL     OW34121   0.027   3.851   8.606 -0.0275 -0.0571 -0.0859
10800SOL    HW134122   0.115   3.855   8.645 -1.8838  0.2545  4.7878
10800SOL    HW234123   0.012   3.758   8.589  0.4904 -0.4061  1.2454
10801SOL     OW34124   7.055   9.383   5.574  0.0347  0.3018  0.3489
10801SOL    HW134125   7.125   9.403   5.636  0.0006 -0.3279  0.5919
10801SOL    HW234126   7.090   9.311   5.521  0.3852  1.3421 -0.9027
10802SOL     OW34127   0.646   1.368   9.591  0.1873 -0.3220 -0.6420
10802SOL    HW134128   0.691   1.305   9.535  1.8028  0.6730 -0.5455
10802SOL    HW234129   0.646   1.450   9.540  1.5511  0.5621  0.6757
10803SOL     OW34130   5.714   5.041   0.648  0.3734  0.1564  0.0291
10803SOL    HW134131   5.675   5.006   0.568 -1.4602 -0.9658  1.3330
10803SOL    HW234132   5.645   5.096   0.686  1.6796  1.7382  0.2084
10804SOL     OW34133   0.459   6.036   0.399  0.7067 -0.0709  0.2660
10804SOL    HW134134   0.476   6.093   0.324  0.7528 -0.2025  0.1776
10804SOL    HW234135   0.364   6.023   0.398  0.9317 -2.1350 -1.2741
10805SOL     OW34136   4.407   5.237   2.439  0.7071  0.2274  0.6193
10805SOL    HW134137   4.314   5.243   2.462  0.0326 -2.6538 -0.9615
10805SOL    HW234138   4.409   5.186   2.358  3.8039 -1.8639  1.8424
10806SOL     OW34139   0.065   5.274   1.745 -0.3536  0.1590 -0.0128
10806SOL    HW134140   0.087   5.216   1.672  1.6263  1.0147 -0.1746
10806SOL    HW234141   0.115   5.240   1.819  0.2130  1.1753  0.0900
10807SOL     OW34142   7.435   9.163   1.615  0.0467  0.4591 -0.6104
10807SOL    HW134143   7.425   9.255   1.639  0.5797  0.2703  0.4414
10807SOL    HW234144   7.473   9.123   1.693  1.7111 -0.2668 -1.7328
10808SOL     OW34145   4.793   2.161   6.094 -0.0395  0.0901  0.4447
10808SOL    HW134146   4.730   2.194   6.158 -0.5846 -2.1059  1.1053
10808SOL    HW234147   4.739   2.114   6.029  0.8200 -1.0609  0.5395
10809SOL     OW34148   6.331   7.066   9.524  0.1468  0.2195  0.5412
10809SOL    HW134149   6.331   7.142   9.582 -0.9335  0.6341  0.0304
10809SOL    HW234150   6.326   7.103   9.436  1.1031 -0.4143  0.2034
10810SOL     OW34151   7.506   6.770   4.137  0.1281 -0.5757 -0.8311
10810SOL    HW134152   7.528   6.818   4.217  0.6267 -0.1682 -1.2062
10810SOL    HW234153   7.573   6.702   4.131 -1.0648 -1.8935  0.1536
10811SOL     OW34154   9.579   0.758   3.973 -0.2537  0.0984 -0.2274
10811SOL    HW134155   9.613   0.671   3.997 -0.1212  0.3861  0.6875
10811SOL    HW234156   9.498   0.740   3.926  0.8436 -0.5846 -1.9788
10812SOL     OW34157   7.076   7.428   2.940  0.3871 -0.5331  0.3751
10812SOL    HW134158   7.084   7.422   3.035  0.7008  2.8401  0.6826
10812SOL    HW234159   7.142   7.492   2.914  0.5366 -1.6020 -2.2101
10813SOL     OW34160   5.291   3.246   4.034 -0.4626  0.3196 -0.4815
10813SOL    HW134161   5.367   3.293   4.069 -0.5372  0.3307 -0.3322
10813SOL    HW234162   5.246   3.309   3.979 -0.8085  0.5653  0.0674
10814SOL     OW34163   3.334   1.891   5.064  0.3538  0.6815 -0.2676
10814SOL    HW134164   3.239   1.900   5.058  0.2900  0.0725 -0.1983
10814SOL    HW234165   3.363   1.876   4.974  0.0987 -1.7227 -0.0123
10815SOL     OW34166   2.958   1.750   7.955  0.0585 -0.3533 -0.4064
10815SOL    HW134167   2.933   1.691   7.884 -0.9452 -0.5478  0.0894
10815SOL    HW234168   2.892   1.735   8.023  2.0035 -1.5261  1.3434
10816SOL     OW34169   2.567   6.488   4.799 -0.5202 -0.1124  0.4552
10816SOL    HW134170   2.611   6.418   4.848  3.4322  1.2554 -0.8149
10816SOL    HW234171   2.555   6.558   4.863  0.4857  0.0136  0.5147
10817SOL     OW34172   4.512   3.351   0.567  0.3237  0.3259  0.7671
10817SOL    HW134173   4.562   3.369   0.488 -0.2444  0.6355  0.4750
10817SOL    HW234174   4.558   3.278   0.608 -0.4132 -1.0988 -0.7951
10818SOL     OW34175   3.957   1.327   9.315 -0.0455  0.2905 -0.5272
10818SOL    HW134176   4.036   1.279   9.340  1.1952  2.5957  0.2245
10818SOL    HW234177   3.908   1.336   9.397  0.1646  1.0507 -0.4816
10819SOL     OW34178   5.306   0.671   6.903  0.0891 -0.3652 -0.2451
10819SOL    HW134179   5.308   0.751   6.852 -2.0524 -0.1694 -0.1193
10819SOL    HW234180   5.289   0.700   6.993  1.0612 -0.8681  0.1159
10820SOL     OW34181   8.864   9.023   2.706  0.3416 -0.1082  0.0441
10820SOL    HW134182   8.782   8.980   2.681  0.3571 -0.3211  0.3516
10820SOL    HW234183   8.877   8.998   2.798  0.7289 -0.0386  0.0089
10821SOL     OW34184   1.854   8.516   5.515 -0.2986  0.8152 -0.4012
10821SOL    HW134185   1.893   8.576   5.451 -0.9772  3.0345  1.1529
10821SOL    HW234186   1.899   8.536   5.597 -0.5653 -0.8387  0.1875
10822SOL     OW34187   2.799   7.216   2.929  0.2055 -0.0661  0.1957
10822SOL    HW134188   2.766   7.169   2.852  0.6932 -0.8356  0.4454
10822SOL    HW234189   2.785   7.156   3.002  0.4015  0.3722  0.6005
10823SOL     OW34190   3.437   6.544   9.110 -0.8346  0.0976 -0.2146
10823SOL    HW134191   3.519   6.544   9.059 -0.8581  1.2884 -0.2912
10823SOL    HW234192   3.446   6.619   9.168 -3.0959  2.1995 -2.3349
10824SOL     OW34193   9.689   1.638   8.443  0.2164 -0.2516  0.0293
10824SOL    HW134194   9.722   1.703   8.381  2.1246 -1.1975 -0.0493
10824SOL    HW234195   9.640   1.577   8.388 -1.3417  0.9278  0.0634
10825SOL     OW34196   5.028   7.514   8.982 -0.3048 -0.0179  0.3750
10825SOL    HW134197   4.981   7.558   9.053 -0.7220  0.3331 -0.1083
10825SOL    HW234198   5.120   7.528   9.003 -0.4112 -0.3753  1.1294
10826SOL     OW34199   8.850   6.376   3.990 -0.2746  0.4154  0.1474
10826SOL    HW134200   8.921   6.439   3.991 -0.6008  0.7922 -0.2544
10826SOL    HW234201   8.883   6.301   4.040  0.4355  0.5419 -0.1355
10827SOL     OW34202   5.160   3.146   2.738 -0.3565 -0.1584 -0.7435
10827SOL    HW134203   5.080   3.107   2.772 -1.8015  0.6753 -2.9299
10827SOL    HW234204   5.166   3.231   2.781 -1.3442  0.2671 -1.3918
10828SOL     OW34205   6.913   7.059   5.731 -0.4315 -0.1273 -0.1281
10828SOL    HW134206   6.839   7.002   5.747 -0.1797 -0.2480  0.6762
10828SOL    HW234207   6.969   7.048   5.808 -0.2845  1.0497 -0.0516
10829SOL     OW34208   7.327   8.064   4.179  0.4556  0.5095 -0.5867
10829SOL    HW134209   7.327   8.084   4.086 -0.9226  0.4414 -0.6211
10829SOL    HW234210   7.285   7.979   4.186  0.0493  0.7539  0.1302
10830SOL     OW34211   2.869   6.953   4.416  0.0094 -0.2295 -0.3238
10830SOL    HW134212   2.905   6.953   4.505  0.5745 -2.6525 -0.4784
10830SOL    HW234213   2.924   6.890   4.368 -0.6934  0.5286 -2.2257
10831SOL     OW34214   1.354   9.490   6.234  0.1554 -0.1113 -0.2311
10831SOL    HW134215   1.419   9.559   6.245  0.4450 -0.4692  0.3272
10831SOL    HW234216   1.293   9.524   6.168  1.6415 -0.3197 -1.7806
10832SOL     OW34217   7.564   1.701   3.132  0.1176  0.1702 -0.4999
10832SOL    HW134218   7.534   1.662   3.215  1.6962  0.8102  0.4259
10832SOL    HW234219   7.486   1.744   3.097 -0.7278 -0.5871  0.3740
10833SOL     OW34220   6.416   6.577   4.891 -0.6513  0.5259  0.3426
10833SOL    HW134221   6.502   6.589   4.852 -0.8358  0.9758  0.0682
10833SOL    HW234222   6.405   6.652   4.949 -0.7878  0.3802  0.5058
10834SOL     OW34223   4.463   2.605   3.752 -0.6851 -0.9659 -0.3769
10834SOL    HW134224   4.391   2.560   3.797 -0.8520  0.3091  0.6798
10834SOL    HW234225   4.468   2.691   3.793 -0.6182  0.1731 -2.5894
10835SOL     OW34226   7.393   3.215   0.994 -0.0961  0.5522 -0.0594
10835SOL    HW134227   7.340   3.136   0.996  0.4394  0.1909  1.3086
10835SOL    HW234228   7.410   3.231   0.902  0.3886 -1.3343 -0.3325
10836SOL     OW34229   7.585   4.349   3.522 -0.0370  0.3259 -0.0075
10836SOL    HW134230   7.619   4.336   3.433 -0.1470 -0.4307  0.0563
10836SOL    HW234231   7.621   4.434   3.549  0.8848  0.0607 -0.3659
10837SOL     OW34232   8.762   2.200   8.287 -0.0845  0.6319  0.7505
10837SOL    HW134233   8.738   2.222   8.197  1.3543  2.1398  0.6933
10837SOL    HW234234   8.857   2.185   8.284 -0.3252 -1.4278  1.6490
10838SOL     OW34235   2.109   0.352   7.825  0.4679 -0.2089 -0.7322
10838SOL    HW134236   2.037   0.291   7.841  0.5830  0.1745  1.6072
10838SOL    HW234237   2.067   0.435   7.804  0.2716 -0.4369 -1.2505
10839SOL     OW34238   9.570   1.575   4.752 -0.1545 -0.1371  0.3310
10839SOL    HW134239   9.490   1.621   4.779 -0.9926 -1.3943  0.1053
10839SOL    HW234240   9.619   1.563   4.833 -0.1339  0.7477  0.4581
10840SOL     OW34241   2.988   2.162   3.962  0.7206  0.5109  0.1488
10840SOL    HW134242   2.900   2.194   3.983  0.5557 -0.0239  0.2891
10840SOL    HW234243   3.030   2.149   4.047 -0.7721 -3.9945  0.4683
10841SOL     OW34244   2.463   2.175   5.190 -0.5563  0.4125 -0.3456
10841SOL    HW134245   2.538   2.148   5.244  0.5493 -0.6987 -2.3261
10841SOL    HW234246   2.472   2.270   5.181  0.2661  0.3658 -0.0595
10842SOL     OW34247   0.939   7.336   5.999  0.1901  0.2086  0.5465
10842SOL    HW134248   0.992   7.355   5.922 -1.6617 -1.4844 -1.2633
10842SOL    HW234249   0.855   7.378   5.982 -0.8125 -1.6036  0.7936
10843SOL     OW34250   5.582   6.266   7.428  0.4893  0.0096 -0.1637
10843SOL    HW134251   5.493   6.279   7.459  0.2859 -0.2975 -0.6111
10843SOL    HW234252   5.602   6.343   7.375  0.7615  0.4338  0.5458
10844SOL     OW34253   1.754   1.808   7.406 -0.5370  0.1810  0.2928
10844SOL    HW134254   1.680   1.840   7.458 -1.9332 -1.3525 -0.6559
10844SOL    HW234255   1.751   1.713   7.416 -0.2339 -0.0900 -1.7445
10845SOL     OW34256   7.818   7.379   7.317  0.3365  0.0108 -0.0803
10845SOL    HW134257   7.821   7.332   7.400  0.7565 -0.2675 -0.2535
10845SOL    HW234258   7.866   7.461   7.334  0.9487 -0.3165 -0.2194
10846SOL     OW34259   3.823   4.568   3.849  0.2717  0.0315  0.2707
10846SOL    HW134260   3.871   4.557   3.931 -1.7984 -0.3869  1.5137
10846SOL    HW234261   3.778   4.485   3.836  1.0051 -0.1006 -1.6186
10847SOL     OW34262   7.426   4.497   0.234 -0.3060 -0.3582 -0.0213
10847SOL    HW134263   7.437   4.577   0.182 -0.1811  0.8622  1.7778
10847SOL    HW234264   7.332   4.490   0.246 -0.2742 -0.0060  0.4825
10848SOL     OW34265   5.830   8.926   8.328  0.2646  0.2474 -0.0619
10848SOL    HW134266   5.878   8.888   8.254 -1.0125  1.0663 -1.3695
10848SOL    HW234267   5.894   8.981   8.372  1.0106 -0.1229 -0.6483
10849SOL     OW34268   3.881   7.952   5.341 -0.0463 -0.0572 -0.0524
10849SOL    HW134269   3.813   8.018   5.329  0.7573  0.7398 -0.2994
10849SOL    HW234270   3.960   8.001   5.360  0.2743 -1.0157  1.2577
10850SOL     OW34271   6.557   7.243   8.154 -0.2788  0.1583 -0.5449
10850SOL    HW134272   6.631   7.205   8.200 -0.8386 -1.7355 -1.1215
10850SOL    HW234273   6.544   7.186   8.078 -2.1395  0.5852 -0.5932
10851SOL     OW34274   9.191   7.193   8.159 -0.2649  0.2758 -0.1675
10851SOL    HW134275   9.112   7.145   8.184  0.8833 -1.4619  0.3426
10851SOL    HW234276   9.218   7.239   8.238  0.0998 -0.4481  0.1441
10852SOL     OW34277   8.042   3.308   8.689  0.0334  0.0809 -0.8372
10852SOL    HW134278   8.104   3.293   8.760  0.8372  3.1784 -0.7679
10852SOL    HW234279   8.069   3.246   8.621  3.0744  1.1129 -0.6895
10853SOL     OW34280   9.435   4.413   7.678 -0.3129  0.0094  0.0919
10853SOL    HW134281   9.449   4.507   7.687  0.7044 -0.1509  0.3544
10853SOL    HW234282   9.440   4.397   7.583 -0.2480  0.1828  0.0651
10854SOL     OW34283   4.206   3.294   6.969 -0.0634  0.6535 -0.1479
10854SOL    HW134284   4.227   3.224   6.907 -0.6730 -0.0337  0.4080
10854SOL    HW234285   4.246   3.267   7.051  1.6538  2.0775 -0.4606
10855SOL     OW34286   6.522   6.114   6.348  0.0296  0.4626  0.1737
10855SOL    HW134287   6.501   6.172   6.274  0.5623  2.1418  1.2902
10855SOL    HW234288   6.438   6.072   6.370 -0.1043 -0.1910 -1.4491
10856SOL     OW34289   7.047   8.880   7.942  0.3100 -0.1399 -0.5040
10856SOL    HW134290   7.048   8.791   7.975  2.5755  0.7785  2.3770
10856SOL    HW234291   6.966   8.918   7.976 -0.9826 -1.1486 -2.2653
10857SOL     OW34292   8.053   6.630   7.467  0.8591 -0.1627 -0.0631
10857SOL    HW134293   7.984   6.659   7.526  0.6409  0.6827 -0.7128
10857SOL    HW234294   8.071   6.706   7.412  0.7081 -1.0639 -1.4106
10858SOL     OW34295   5.473   4.358   1.818 -0.2002 -0.0944  0.5479
10858SOL    HW134296   5.523   4.311   1.884 -0.3066  0.7521  1.2500
10858SOL    HW234297   5.467   4.448   1.851  1.7200  0.9598 -1.6755
10859SOL     OW34298   4.401   0.882   3.968  0.3515  0.0815  0.3952
10859SOL    HW134299   4.430   0.835   4.046 -0.5971  2.2716  2.1949
10859SOL    HW234300   4.324   0.834   3.938 -0.1911  0.0546  1.7687
10860SOL     OW34301   8.823   8.311   0.282  0.1278 -0.2380 -0.3616
10860SOL    HW134302   8.740   8.348   0.250 -1.2429 -2.0765  0.8950
10860SOL    HW234303   8.845   8.243   0.218 -1.5511 -2.5239  1.3303
10861SOL     OW34304   1.419   4.118   8.373 -0.0094  0.4313  0.7474
10861SOL    HW134305   1.490   4.113   8.437  1.6160  0.5373 -0.9610
10861SOL    HW234306   1.362   4.188   8.405 -0.6616 -1.1872  3.3677
10862SOL     OW34307   7.912   4.013   9.168 -0.8756  0.5984  0.0015
10862SOL    HW134308   7.868   4.083   9.217 -1.6481  1.1236 -1.3913
10862SOL    HW234309   7.999   4.008   9.207 -1.5547  0.7531  1.6417
10863SOL     OW34310   5.453   0.384   7.225 -0.2557 -0.2801  0.2432
10863SOL    HW134311   5.444   0.293   7.197 -1.2951 -0.2731  0.5116
10863SOL    HW234312   5.544   0.407   7.204  0.2774 -1.6289  0.9544
10864SOL     OW34313   9.429   6.729   5.211  0.6336 -0.0309  0.1098
10864SOL    HW134314   9.350   6.770   5.175  0.5832 -1.8329 -2.0427
10864SOL    HW234315   9.498   6.752   5.148  1.3841 -0.2218  0.8482
10865SOL     OW34316   4.777   1.313   1.805 -0.0198  0.2821  0.2227
10865SOL    HW134317   4.792   1.298   1.712  1.5671  0.5916  0.4029
10865SOL    HW234318   4.832   1.389   1.826  0.8446 -0.7222  1.7365
10866SOL     OW34319   1.291   6.717   4.335  0.2922  0.1937 -0.5156
10866SOL    HW134320   1.271   6.737   4.244 -0.9263 -2.6780 -0.9947
10866SOL    HW234321   1.206   6.721   4.380  0.9457  2.0897  0.6764
10867SOL     OW34322   5.575   3.886   1.841  0.1527  0.0218 -0.1251
10867SOL    HW134323   5.549   3.884   1.749 -2.7933 -1.2842  0.6298
10867SOL    HW234324   5.671   3.887   1.839  0.1741 -0.4183 -3.1815
10868SOL     OW34325   5.294   0.895   0.674  0.2618  0.0183  0.1065
10868SOL    HW134326   5.286   0.988   0.695  0.5157 -0.1642  1.1074
10868SOL    HW234327   5.360   0.863   0.736  1.3791 -0.5065 -1.2873
10869SOL     OW34328   5.521   8.728   1.004  0.0475  0.7604  0.5331
10869SOL    HW134329   5.442   8.685   0.972 -0.2218  1.3594  0.3733
10869SOL    HW234330   5.535   8.800   0.943  1.5751 -0.2086 -0.3253
10870SOL     OW34331   5.364   4.301   6.941  0.1108 -0.4380 -0.1866
10870SOL    HW134332   5.429   4.306   7.010  0.2228  1.2458 -0.3777
10870SOL    HW234333   5.413   4.315   6.860 -0.5244  1.3860 -0.2891
10871SOL     OW34334   4.484   3.942   6.137  0.8921  0.2124  0.0673
10871SOL    HW134335   4.470   4.037   6.132  1.0091  0.1975 -0.6601
10871SOL    HW234336   4.451   3.909   6.054  0.7734 -0.4001  0.3559
10872SOL     OW34337   1.492   0.845   9.265 -0.1870 -0.2380  0.5326
10872SOL    HW134338   1.410   0.884   9.294  0.1684  0.1754  1.0004
10872SOL    HW234339   1.490   0.756   9.301 -0.0948  0.0198  1.1951
10873SOL     OW34340   2.663   4.019   0.379  0.0243 -0.0554  0.2375
10873SOL    HW134341   2.629   4.102   0.413 -0.6727 -0.3882  0.3596
10873SOL    HW234342   2.687   3.970   0.458 -1.4051 -0.7492  0.2630
10874SOL     OW34343   5.350   4.701   7.703  0.1604 -0.2285  0.0610
10874SOL    HW134344   5.346   4.714   7.798 -2.5614  2.1142 -0.2374
10874SOL    HW234345   5.400   4.777   7.671 -1.1037  0.3811 -0.5242
10875SOL     OW34346   0.923   3.521   6.430  0.6471 -0.0377 -0.2750
10875SOL    HW134347   0.918   3.427   6.414  0.5647  0.0473 -0.7735
10875SOL    HW234348   0.888   3.561   6.350  0.8839  0.4182 -0.1558
10876SOL     OW34349   6.383   7.216   6.721 -0.5793 -0.0078 -0.1981
10876SOL    HW134350   6.420   7.195   6.635  0.9904 -2.0042  0.8720
10876SOL    HW234351   6.290   7.196   6.713 -0.0067 -2.8593 -0.7236
10877SOL     OW34352   2.522   2.845   3.835 -0.2179  0.4347  0.1957
10877SOL    HW134353   2.594   2.886   3.884 -0.4026  0.3733  0.5241
10877SOL    HW234354   2.447   2.850   3.895  0.1866 -2.0190  0.9904
10878SOL     OW34355   2.312   8.525   2.597  0.0579 -0.2096  0.2245
10878SOL    HW134356   2.266   8.491   2.673 -0.3596 -0.0751  0.0403
10878SOL    HW234357   2.262   8.491   2.522 -0.3048  0.7019  0.0395
10879SOL     OW34358   8.542   6.901   5.871 -0.2370  0.5565 -0.3181
10879SOL    HW134359   8.485   6.964   5.916  0.7100  2.4048 -1.5576
10879SOL    HW234360   8.625   6.947   5.862  0.1645 -0.4554 -2.2450
10880SOL     OW34361   1.693   4.479   2.918  0.2720 -0.8504  0.6771
10880SOL    HW134362   1.650   4.461   2.835  1.7170 -0.3003 -0.2355
10880SOL    HW234363   1.747   4.557   2.901  1.0663 -1.0919  1.9365
10881SOL     OW34364   8.878   2.724   5.654 -0.2724  0.3341  0.5904
10881SOL    HW134365   8.836   2.652   5.700 -0.1282 -0.7395 -0.8687
10881SOL    HW234366   8.959   2.687   5.620 -0.1691  1.1905 -0.1382
10882SOL     OW34367   1.209   4.198   6.300  0.2368  0.2515 -0.0757
10882SOL    HW134368   1.225   4.234   6.387  0.5988  2.2234 -0.9040
10882SOL    HW234369   1.268   4.246   6.243 -0.5667 -0.4433 -1.5406
10883SOL     OW34370   5.960   2.005   4.950  0.1781  0.0284 -0.0883
10883SOL    HW134371   5.931   1.931   5.002 -0.9634  0.8336  0.4774
10883SOL    HW234372   5.879   2.042   4.914  0.5983  1.6108  0.4985
10884SOL     OW34373   4.510   7.554   8.794 -0.5375 -0.0964  0.2449
10884SOL    HW134374   4.421   7.570   8.762 -0.2007  0.2949 -0.5327
10884SOL    HW234375   4.507   7.576   8.887 -1.2593 -0.1160  0.2308
10885SOL     OW34376   7.309   8.555   8.068 -0.1181  0.5420 -0.2150
10885SOL    HW134377   7.303   8.470   8.023 -4.1058  1.2542 -1.3697
10885SOL    HW234378   7.277   8.538   8.156  2.1262  0.3522  0.6497
10886SOL     OW34379   8.584   0.998   0.418 -0.0702 -0.7706  0.2105
10886SOL    HW134380   8.663   0.956   0.451 -0.4770 -0.0007  2.2554
10886SOL    HW234381   8.559   0.944   0.342  1.6405 -1.8115  0.3343
10887SOL     OW34382   4.233   4.120   3.065  0.1471 -0.5186 -0.1803
10887SOL    HW134383   4.281   4.171   3.000 -1.5056 -0.6267 -1.5602
10887SOL    HW234384   4.254   4.029   3.044  0.8055 -0.5252  0.4436
10888SOL     OW34385   4.364   9.288   2.146  0.1724  0.7540  0.0438
10888SOL    HW134386   4.428   9.229   2.105 -1.2273 -0.1212 -0.9802
10888SOL    HW234387   4.394   9.375   2.120  1.7173  0.4785  0.7478
10889SOL     OW34388   9.249   7.848   6.828 -0.0751  0.4499  0.4218
10889SOL    HW134389   9.269   7.936   6.860 -1.2978  0.2246  1.9628
10889SOL    HW234390   9.171   7.822   6.877  0.0890 -1.3857 -0.2025
10890SOL     OW34391   6.214   9.338   6.533  0.2225 -0.1221  0.0719
10890SOL    HW134392   6.303   9.323   6.566 -0.2155 -1.9324  0.5392
10890SOL    HW234393   6.176   9.401   6.594  1.4850  1.4699 -0.7156
10891SOL     OW34394   1.529   5.859   7.958 -0.5558  0.1751  0.1169
10891SOL    HW134395   1.515   5.937   8.011  0.2943  0.2794  0.1976
10891SOL    HW234396   1.457   5.859   7.895 -1.0633  0.5364  0.6943
10892SOL     OW34397   7.451   7.920   0.858  0.6234 -0.0468 -0.2412
10892SOL    HW134398   7.467   8.014   0.864 -0.9077  0.1544  1.1012
10892SOL    HW234399   7.424   7.894   0.946 -1.5750 -1.2252 -1.1893
10893SOL     OW34400   0.649   5.325   8.767 -0.5764  0.2886 -0.5354
10893SOL    HW134401   0.668   5.234   8.744  1.6606  0.5458  0.0679
10893SOL    HW234402   0.601   5.359   8.692 -0.6809 -1.1450 -1.1561
10894SOL     OW34403   6.660   1.647   5.072  0.1081 -0.0816 -0.0892
10894SOL    HW134404   6.756   1.645   5.069  0.1155  0.6410 -1.3473
10894SOL    HW234405   6.633   1.586   5.004 -0.3627 -0.9478  0.8506
10895SOL     OW34406   5.887   1.341   4.962 -0.5290  0.1537  0.5668
10895SOL    HW134407   5.908   1.365   5.052  0.7703  2.3062 -0.2213
10895SOL    HW234408   5.792   1.327   4.961 -0.6001  0.4324  2.1715
10896SOL     OW34409   2.980   7.891   1.951  0.4779 -0.2640 -0.0626
10896SOL    HW134410   2.952   7.896   2.043 -0.7142 -0.1569 -0.4158
10896SOL    HW234411   3.012   7.801   1.940 -1.4962 -0.9976 -0.1081
10897SOL     OW34412   3.498   8.617   2.247  1.0506 -0.2987  0.2670
10897SOL    HW134413   3.436   8.614   2.174  3.0204  1.4047 -1.5974
10897SOL    HW234414   3.447   8.652   2.320 -0.9120 -1.7939 -0.2912
10898SOL     OW34415   5.376   3.582   9.342 -0.0944  0.4256  0.5097
10898SOL    HW134416   5.370   3.536   9.258 -0.0468  0.3202  0.5627
10898SOL    HW234417   5.422   3.664   9.321 -1.4121  1.0972  0.1601
10899SOL     OW34418   1.734   8.937   5.049 -0.0448  0.3963 -0.0127
10899SOL    HW134419   1.787   8.927   5.128  1.4905  1.3257 -0.8675
10899SOL    HW234420   1.647   8.962   5.081  0.4219  0.3041  1.3903
10900SOL     OW34421   6.457   2.414   5.655 -0.0024 -0.7406  0.1938
10900SOL    HW134422   6.377   2.441   5.610 -0.0311 -3.1662 -1.3941
10900SOL    HW234423   6.441   2.323   5.679  2.5541 -1.5771 -0.9467
10901SOL     OW34424   8.899   5.687   4.095  0.5605 -0.5403  0.6460
10901SOL    HW134425   8.984   5.692   4.138  1.0232  0.5393 -0.3078
10901SOL    HW234426   8.920   5.658   4.006 -0.2740 -1.9118  0.8701
10902SOL     OW34427   8.052   0.035   6.935  0.0368  0.5588 -0.2427
10902SOL    HW134428   8.088   0.124   6.939 -1.2566  1.0612  0.6325
10902SOL    HW234429   7.999   0.034   6.856  0.4276  0.4103 -0.5060
10903SOL     OW34430   4.756   3.059   8.677 -0.3734 -0.2323 -0.1959
10903SOL    HW134431   4.768   3.029   8.768  2.2246  1.1102 -0.0134
10903SOL    HW234432   4.692   3.130   8.684  1.2744  1.2225  0.9543
10904SOL     OW34433   8.290   6.680   2.356  0.4240 -0.3842  0.0390
10904SOL    HW134434   8.284   6.765   2.312  1.3002 -1.0430 -1.4004
10904SOL    HW234435   8.358   6.692   2.422 -0.3404  0.3791  0.7141
10905SOL     OW34436   0.934   5.348   8.955 -0.5154 -0.2325  0.1022
10905SOL    HW134437   0.891   5.290   9.017  0.5886 -1.4997 -0.2690
10905SOL    HW234438   0.915   5.311   8.869 -0.4759  0.4263 -0.1974
10906SOL     OW34439   7.271   2.212   7.138  0.3119 -0.0761  0.2659
10906SOL    HW134440   7.366   2.225   7.146  0.4503 -0.4544 -0.6280
10906SOL    HW234441   7.240   2.204   7.228  1.3696 -1.6079  0.5212
10907SOL     OW34442   2.360   8.527   6.102  0.4770 -0.0066  0.6727
10907SOL    HW134443   2.299   8.597   6.125 -0.9378 -0.8078 -0.4639
10907SOL    HW234444   2.421   8.567   6.040  0.1697  0.4159  0.6385
10908SOL     OW34445   0.309   5.024   4.491 -0.5434 -0.0298  0.2797
10908SOL    HW134446   0.354   4.989   4.568  0.3913  0.3309 -0.0938
10908SOL    HW234447   0.250   5.091   4.525  1.8109  2.0840  0.4765
10909SOL     OW34448   4.660   4.814   1.336  0.2660 -0.0756 -0.1590
10909SOL    HW134449   4.744   4.781   1.367  0.5356  0.8565  0.1100
10909SOL    HW234450   4.682   4.886   1.277 -0.3271 -0.2598 -0.6184
10910SOL     OW34451   6.421   7.569   0.644  0.5209  0.1545 -0.4034
10910SOL    HW134452   6.468   7.577   0.727 -0.7837  1.2848  0.2881
10910SOL    HW234453   6.465   7.498   0.597  2.9919  1.2717  0.0889
10911SOL     OW34454   4.593   4.402   1.319  0.6817 -0.1816  0.1146
10911SOL    HW134455   4.684   4.395   1.347  0.9120 -0.5421 -0.6871
10911SOL    HW234456   4.595   4.465   1.246  0.3956 -0.6505 -0.3100
10912SOL     OW34457   6.461   6.473   0.430 -0.2408  0.2223  0.2980
10912SOL    HW134458   6.389   6.529   0.457 -0.0105  0.5717  0.1890
10912SOL    HW234459   6.423   6.413   0.367 -0.7313 -0.4369  1.1987
10913SOL     OW34460   9.522   2.949   7.094 -1.0647  0.2013 -0.6052
10913SOL    HW134461   9.562   2.972   7.010  1.1215  1.0354  0.5796
10913SOL    HW234462   9.545   3.021   7.152 -1.8682 -0.7125  0.9103
10914SOL     OW34463   5.972   4.298   8.616 -0.5181 -0.1237  0.2194
10914SOL    HW134464   5.949   4.375   8.667 -0.2118 -0.1810  0.4469
10914SOL    HW234465   5.913   4.229   8.649 -0.7668  0.0009  0.0399
10915SOL     OW34466   6.981   7.140   9.701  0.6902  0.1851 -0.0335
10915SOL    HW134467   6.915   7.182   9.755 -2.3367 -1.8029 -1.8634
10915SOL    HW234468   7.010   7.065   9.753  0.5904  0.3648  0.2831
10916SOL     OW34469   8.407   2.682   6.377 -0.3274  0.1814  0.2572
10916SOL    HW134470   8.401   2.777   6.373  0.2820  0.2149 -0.0817
10916SOL    HW234471   8.479   2.660   6.317 -0.7240 -0.5222  0.0187
10917SOL     OW34472   6.048   2.563   8.325 -0.5786  0.0385  0.1222
10917SOL    HW134473   6.116   2.618   8.286 -0.1060 -1.0902 -0.6965
10917SOL    HW234474   6.092   2.520   8.399  0.0814 -1.8058 -1.2701
10918SOL     OW34475   4.816   3.488   2.358  0.2590  0.1610  0.5666
10918SOL    HW134476   4.846   3.512   2.270  1.8626 -2.8295  0.1836
10918SOL    HW234477   4.861   3.549   2.416 -0.8526  2.2153 -0.5819
10919SOL     OW34478   2.591   1.763   3.353  0.2846  0.3916  0.0472
10919SOL    HW134479   2.549   1.680   3.330 -0.0303  0.9165 -1.3859
10919SOL    HW234480   2.685   1.746   3.341  0.2368  0.2090 -0.0775
10920SOL     OW34481   3.481   6.257   2.648  0.3100 -0.0042 -0.3120
10920SOL    HW134482   3.564   6.212   2.669  0.5161  0.0733 -0.9492
10920SOL    HW234483   3.460   6.228   2.560  0.3078  0.9459 -0.6351
10921SOL     OW34484   0.650   1.627   3.867  0.4921  0.4801  0.0040
10921SOL    HW134485   0.688   1.694   3.810  2.4340  0.7550  1.4797
10921SOL    HW234486   0.617   1.676   3.943 -0.6018 -0.0078 -0.1432
10922SOL     OW34487   7.550   4.616   1.689  0.4601 -0.0486  0.3290
10922SOL    HW134488   7.523   4.675   1.760  1.7015  1.6526 -0.5248
10922SOL    HW234489   7.474   4.560   1.675 -0.1999  0.2754  2.2744
10923SOL     OW34490   4.544   2.347   3.637 -0.3048 -0.2734  0.3419
10923SOL    HW134491   4.505   2.296   3.566  0.1411  0.5864 -0.5491
10923SOL    HW234492   4.546   2.436   3.604 -1.2144  0.3750  1.9404
10924SOL     OW34493   3.777   4.294   2.568  0.5297 -0.2727  0.5648
10924SOL    HW134494   3.708   4.250   2.518  0.4355  0.5251 -0.0199
10924SOL    HW234495   3.817   4.224   2.619 -0.5194 -0.7983  0.6911
10925SOL     OW34496   9.424   2.238   8.712  0.4923  0.0494 -0.2760
10925SOL    HW134497   9.498   2.253   8.653 -0.5377 -1.2768 -2.0207
10925SOL    HW234498   9.351   2.284   8.671 -0.1705 -0.5899  0.1489
10926SOL     OW34499   4.881   8.955   4.101  0.4256  0.2941  0.4013
10926SOL    HW134500   4.960   9.009   4.110  0.8073 -0.2782  0.5562
10926SOL    HW234501   4.868   8.918   4.189  0.5096 -0.3191  0.1642
10927SOL     OW34502   5.662   5.707   1.067  0.0711  0.4905 -0.5796
10927SOL    HW134503   5.618   5.787   1.095 -0.8606 -0.3477  0.4726
10927SOL    HW234504   5.650   5.705   0.972 -2.0698  0.4172 -0.3648
10928SOL     OW34505   3.987   2.223   2.952 -0.1283 -0.2261 -0.1557
10928SOL    HW134506   3.950   2.311   2.964  0.6033  0.1678 -0.6621
10928SOL    HW234507   3.913   2.164   2.962 -0.7513  0.4943 -0.3904
10929SOL     OW34508   5.994   4.067   1.792 -0.1235 -0.3518  0.0275
10929SOL    HW134509   6.070   4.033   1.840  0.1702  1.2117  0.7404
10929SOL    HW234510   5.942   4.112   1.858 -2.4663 -2.5638 -0.1722
10930SOL     OW34511   5.485   0.403   8.084  0.0994  0.3589 -0.2706
10930SOL    HW134512   5.496   0.411   8.179  0.9821 -1.5401 -0.1620
10930SOL    HW234513   5.568   0.435   8.048 -0.0157  0.5457 -0.3687
10931SOL     OW34514   6.048   6.031   3.547  0.4356  0.3040 -0.6289
10931SOL    HW134515   5.993   6.110   3.547  1.1077  0.9050  2.4384
10931SOL    HW234516   5.987   5.960   3.567  0.5660  0.9462  2.6031
10932SOL     OW34517   4.513   2.358   2.361  0.1200 -0.1605 -0.0921
10932SOL    HW134518   4.525   2.408   2.441 -3.1388 -1.6756  1.5028
10932SOL    HW234519   4.487   2.422   2.295  0.2414  0.7638  0.7503
10933SOL     OW34520   5.243   7.321   8.311  0.2737 -0.1705  0.7539
10933SOL    HW134521   5.225   7.256   8.243 -0.8185  0.4086  0.4662
10933SOL    HW234522   5.336   7.310   8.331  0.8252  0.1580 -1.3802
10934SOL     OW34523   6.030   1.038   5.040  0.4037 -0.1715  0.3108
10934SOL    HW134524   6.033   0.991   4.957 -1.4419  0.9528 -0.4584
10934SOL    HW234525   6.000   1.126   5.016 -2.0590 -0.3451  2.3267
10935SOL     OW34526   9.644   1.959   5.927 -0.1288 -0.3253  0.1882
10935SOL    HW134527   9.722   1.987   5.880  0.5643 -1.8473  0.3725
10935SOL    HW234528   9.571   1.991   5.873  0.6374 -0.4530 -0.9680
10936SOL     OW34529   2.231   5.358   4.212  0.2220  0.0436 -0.3646
10936SOL    HW134530   2.145   5.390   4.184  0.1039 -1.0032 -1.2724
10936SOL    HW234531   2.210   5.293   4.280  0.3154  0.0073 -0.3714
10937SOL     OW34532   5.317   4.165   3.180 -0.2009  0.7539  0.3155
10937SOL    HW134533   5.390   4.189   3.237  0.8397  0.2904 -0.7741
10937SOL    HW234534   5.343   4.081   3.143 -0.1512  1.7128 -1.9621
10938SOL     OW34535   0.569   6.397   4.573 -0.0580  0.6650  0.1818
10938SOL    HW134536   0.513   6.456   4.624  0.3240  0.6284  0.6440
10938SOL    HW234537   0.508   6.348   4.517 -0.3088  2.3300 -1.0957
10939SOL     OW34538   2.328   0.819   7.203 -0.5316 -1.0805  0.4285
10939SOL    HW134539   2.412   0.791   7.167 -1.8086 -1.8824 -2.1697
10939SOL    HW234540   2.318   0.909   7.171 -0.1847 -0.5526  1.7341
10940SOL     OW34541   5.321   5.858   9.225  0.2078 -0.1192  0.5151
10940SOL    HW134542   5.267   5.831   9.299  0.2808  1.4166  1.1751
10940SOL    HW234543   5.386   5.917   9.263  0.8808 -0.0947 -0.6259
10941SOL     OW34544   6.071   6.065   8.140 -0.0738 -0.1025 -0.0492
10941SOL    HW134545   6.104   6.003   8.075  0.7244 -0.7153  0.8984
10941SOL    HW234546   5.985   6.091   8.108  0.2601 -0.4688 -1.2812
10942SOL     OW34547   5.571   2.239   2.120 -0.0633  0.3383  0.1284
10942SOL    HW134548   5.485   2.253   2.079  0.5391  2.0226 -0.6794
10942SOL    HW234549   5.596   2.326   2.151  1.6956  0.0506 -0.3826
10943SOL     OW34550   1.232   7.292   6.403 -0.5250 -0.2349 -0.1568
10943SOL    HW134551   1.288   7.359   6.364 -0.9581  0.0291 -0.3311
10943SOL    HW234552   1.257   7.211   6.359 -0.5631 -0.0478 -0.5292
10944SOL     OW34553   3.856   2.102   6.967 -0.0739  0.4635  0.1522
10944SOL    HW134554   3.767   2.128   6.989 -0.4518  0.7871 -1.6088
10944SOL    HW234555   3.868   2.018   7.011 -1.6637 -0.1533 -0.5078
10945SOL     OW34556   7.447   7.464   4.378  0.2316  0.0856 -0.0385
10945SOL    HW134557   7.520   7.518   4.349 -1.3347  1.2584 -2.0769
10945SOL    HW234558   7.369   7.509   4.344 -1.3627 -1.7951  0.9177
10946SOL     OW34559   0.716   1.353   2.774  0.3873 -0.7141 -0.1377
10946SOL    HW134560   0.688   1.342   2.865 -0.4694  0.6194 -0.2227
10946SOL    HW234561   0.811   1.362   2.780  0.1723  1.4476  0.8837
10947SOL     OW34562   7.645   2.197   4.648 -0.2825  0.1101  0.3896
10947SOL    HW134563   7.572   2.234   4.697 -1.3087 -0.3359 -0.7737
10947SOL    HW234564   7.624   2.214   4.556  0.0918 -1.7491 -0.0769
10948SOL     OW34565   7.942   3.764   2.199  0.3673 -1.0751 -0.2896
10948SOL    HW134566   8.004   3.791   2.132  1.5858 -1.5062  0.6229
10948SOL    HW234567   7.885   3.839   2.211 -0.3145 -1.2122 -2.2582
10949SOL     OW34568   5.549   9.038   2.564  0.5471  0.0336 -0.5510
10949SOL    HW134569   5.510   9.115   2.522 -2.2295  0.2488  2.0714
10949SOL    HW234570   5.541   8.968   2.499 -3.2889  0.3947 -0.6731
10950SOL     OW34571   8.608   1.260   2.597 -0.2848 -0.1255 -0.7088
10950SOL    HW134572   8.646   1.303   2.520 -0.1479 -0.1768 -0.6699
10950SOL    HW234573   8.655   1.297   2.671  0.1221 -0.6497 -0.7021
10951SOL     OW34574   1.693   2.257   5.790  0.8752 -0.0519  0.5224
10951SOL    HW134575   1.653   2.307   5.719  2.1293 -0.2621 -0.3784
10951SOL    HW234576   1.662   2.168   5.778  2.0319 -0.3350 -0.5346
10952SOL     OW34577   3.436   3.326   1.978  0.4838 -0.5431  0.0590
10952SOL    HW134578   3.445   3.368   2.064 -0.0637  3.2690 -1.5157
10952SOL    HW234579   3.518   3.278   1.966  1.4169  0.4329  1.9603
10953SOL     OW34580   7.434   6.551   9.214 -0.3206 -0.0552 -0.3792
10953SOL    HW134581   7.424   6.635   9.260  0.3521 -0.3988  0.4135
10953SOL    HW234582   7.525   6.527   9.229  0.1088  0.1419 -2.4752
10954SOL     OW34583   4.650   9.151   6.695 -0.4566  0.2587  0.5911
10954SOL    HW134584   4.585   9.096   6.738 -0.6791  0.4993  0.5720
10954SOL    HW234585   4.667   9.108   6.611 -0.3851  0.0491  0.7120
10955SOL     OW34586   9.362   3.530   5.982 -0.3148 -0.6237  0.0161
10955SOL    HW134587   9.357   3.450   6.035 -0.7283 -1.4369 -1.2132
10955SOL    HW234588   9.277   3.535   5.938  0.4336 -0.6074 -1.4569
10956SOL     OW34589   3.327   2.077   7.057  0.5892  0.4003 -0.0012
10956SOL    HW134590   3.274   2.045   6.984 -0.0980  0.2645  0.5447
10956SOL    HW234591   3.307   2.018   7.129  0.2098  1.3306  0.6868
10957SOL     OW34592   9.191   6.857   7.414 -0.3285  0.1631  0.9146
10957SOL    HW134593   9.113   6.907   7.391  0.4498  1.5586  1.2440
10957SOL    HW234594   9.208   6.878   7.505 -0.4965 -1.4405  1.3525
10958SOL     OW34595   2.462   6.045   8.303 -0.1662 -0.3032 -0.1692
10958SOL    HW134596   2.474   6.140   8.304  1.1537 -0.4430  1.4943
10958SOL    HW234597   2.412   6.028   8.224 -2.4013  2.0096  0.5987
10959SOL     OW34598   8.262   3.503   1.138 -0.0633  0.3466 -0.0325
10959SOL    HW134599   8.214   3.491   1.056  0.0594 -3.1759  0.2334
10959SOL    HW234600   8.199   3.477   1.205 -0.0335  2.7978  1.0461
10960SOL     OW34601   8.249   0.363   1.253  0.0313 -0.1601 -0.1977
10960SOL    HW134602   8.215   0.434   1.308 -0.1257  0.3728 -0.9675
10960SOL    HW234603   8.178   0.299   1.251 -0.8716  0.8334 -1.5866
10961SOL     OW34604   8.096   2.266   6.763 -0.4045  0.2664  0.1007
10961SOL    HW134605   8.143   2.279   6.680  0.8079 -2.6218  0.2085
10961SOL    HW234606   8.165   2.265   6.829 -1.0389 -0.2467  0.7640
10962SOL     OW34607   3.925   6.574   5.849  0.4725  0.2212 -0.1684
10962SOL    HW134608   3.946   6.665   5.869  1.6375 -0.2172  0.7143
10962SOL    HW234609   3.929   6.529   5.933 -1.2208 -0.4609 -0.4166
10963SOL     OW34610   6.746   2.847   8.260 -0.1371 -0.0282 -0.6907
10963SOL    HW134611   6.722   2.937   8.279  1.1777  0.2007  0.0223
10963SOL    HW234612   6.834   2.853   8.222  0.0826 -1.0149 -0.3772
10964SOL     OW34613   0.109   7.063   5.063  0.0631 -0.1000 -0.4135
10964SOL    HW134614   0.126   7.144   5.112  1.5361 -0.4648 -0.2969
10964SOL    HW234615   0.163   6.997   5.107  2.7775 -0.1237 -3.4825
10965SOL     OW34616   7.901   3.218   7.311 -0.4302 -0.3804  0.2428
10965SOL    HW134617   7.825   3.204   7.254 -0.6841  1.4990  0.0701
10965SOL    HW234618   7.866   3.265   7.386  0.6202  0.8810 -0.0340
10966SOL     OW34619   0.324   5.182   0.789 -0.1991 -0.6202 -0.2912
10966SOL    HW134620   0.293   5.092   0.797  0.2440 -0.7757 -0.3149
10966SOL    HW234621   0.382   5.194   0.864 -0.7546 -0.1463  0.0716
10967SOL     OW34622   8.754   1.817   3.231 -0.3199 -0.0076  0.2399
10967SOL    HW134623   8.797   1.731   3.236 -1.0012 -0.3384  0.6778
10967SOL    HW234624   8.767   1.855   3.317 -1.3388 -0.3463  0.5689
10968SOL     OW34625   3.082   4.330   0.595 -0.4055  0.0283 -0.1711
10968SOL    HW134626   3.105   4.242   0.626 -0.2898  0.0909 -0.0778
10968SOL    HW234627   3.140   4.344   0.520 -0.0882  0.2144  0.1072
10969SOL     OW34628   6.514   0.199   1.964 -0.1320 -0.2353  0.7920
10969SOL    HW134629   6.466   0.252   1.900  0.1168 -0.8067  0.1119
10969SOL    HW234630   6.471   0.114   1.961  0.4417 -0.5282  0.7408
10970SOL     OW34631   3.820   6.738   9.672 -0.5090  0.3781 -0.5036
10970SOL    HW134632   3.743   6.694   9.637 -0.8345  1.6338 -1.4564
10970SOL    HW234633   3.793   6.766   9.760 -0.6244 -0.4577 -0.2683
10971SOL     OW34634   4.658   7.846   5.312  0.0814 -0.1987  0.4106
10971SOL    HW134635   4.648   7.923   5.368 -1.0891 -1.0549  1.4210
10971SOL    HW234636   4.700   7.880   5.233 -1.3693  1.6917  0.3756
10972SOL     OW34637   2.787   5.727   3.645 -0.8367 -0.3438 -0.0607
10972SOL    HW134638   2.779   5.712   3.551 -1.9299 -1.9698  0.2540
10972SOL    HW234639   2.880   5.748   3.658 -0.5982 -0.4390 -1.4357
10973SOL     OW34640   7.264   7.352   9.257  0.0795 -0.4015 -0.0051
10973SOL    HW134641   7.227   7.437   9.231  2.6750  0.4314 -1.3482
10973SOL    HW234642   7.266   7.356   9.353 -0.6697  0.6662 -0.0106
10974SOL     OW34643   3.004   1.291   9.338 -0.6678 -0.0260  0.1965
10974SOL    HW134644   3.077   1.340   9.376 -0.8399 -0.8616  1.6812
10974SOL    HW234645   2.947   1.358   9.300  0.0262  0.7634  0.5156
10975SOL     OW34646   3.544   5.517   7.949  0.3760 -0.0603  0.0890
10975SOL    HW134647   3.451   5.502   7.933  0.2685  0.4550  0.2043
10975SOL    HW234648   3.557   5.489   8.040  0.5623 -1.1132 -0.2486
10976SOL     OW34649   7.577   5.204   3.689  0.1861  0.4382 -0.0005
10976SOL    HW134650   7.491   5.162   3.693 -0.3929  1.5756 -0.1076
10976SOL    HW234651   7.588   5.227   3.597  0.4854  0.5386  0.0599
10977SOL     OW34652   0.783   5.286   7.795 -0.2208 -0.0455 -0.6238
10977SOL    HW134653   0.742   5.292   7.881 -2.8461 -1.0694 -1.7118
10977SOL    HW234654   0.749   5.362   7.747  0.4559 -0.0055 -1.0535
10978SOL     OW34655   8.450   6.999   4.403 -0.5284 -0.9092  0.3382
10978SOL    HW134656   8.443   7.095   4.395  0.2016 -0.6532  2.1735
10978SOL    HW234657   8.453   6.967   4.313 -1.2595  0.7571 -0.3175
10979SOL     OW34658   2.653   2.298   4.823  0.1619  0.1330  0.9138
10979SOL    HW134659   2.701   2.227   4.866 -0.3879 -0.0684  1.2028
10979SOL    HW234660   2.666   2.373   4.880  1.1004  0.3864  0.3888
10980SOL     OW34661   4.554   0.303   1.621 -0.4434  0.3367  0.3285
10980SOL    HW134662   4.645   0.275   1.623 -0.6545 -0.3578  2.0406
10980SOL    HW234663   4.553   0.378   1.562  1.1674  0.1476  0.0250
10981SOL     OW34664   5.415   1.311   3.505 -0.0829  0.5960 -0.2013
10981SOL    HW134665   5.402   1.291   3.413  0.4172 -0.8372  0.0166
10981SOL    HW234666   5.362   1.246   3.552  1.7247 -0.4136  0.5462
10982SOL     OW34667   7.487   2.715   7.800  0.0572 -0.0345  0.2897
10982SOL    HW134668   7.470   2.662   7.722  1.3641  0.8401 -0.6418
10982SOL    HW234669   7.452   2.801   7.778 -1.9059 -0.3962  1.7258
10983SOL     OW34670   9.159   6.979   5.355  0.4450 -0.3378 -0.1913
10983SOL    HW134671   9.151   7.074   5.343 -1.7381 -0.5603 -0.8838
10983SOL    HW234672   9.194   6.969   5.444  0.1769  1.1133  0.0991
10984SOL     OW34673   6.941   8.895   0.681  0.0769 -0.2745  0.2164
10984SOL    HW134674   6.989   8.894   0.764  0.4830  0.1021 -0.0060
10984SOL    HW234675   6.883   8.971   0.688 -0.1924 -0.4895  0.3215
10985SOL     OW34676   3.185   4.465   0.809  0.2090 -0.8691  0.0894
10985SOL    HW134677   3.197   4.547   0.761  1.7270 -1.3957 -0.4837
10985SOL    HW234678   3.145   4.406   0.745  0.8090 -1.1163 -0.0576
10986SOL     OW34679   5.821   1.202   8.479 -0.1731  0.4980  0.0814
10986SOL    HW134680   5.734   1.205   8.519  0.2804  1.4213  1.0531
10986SOL    HW234681   5.813   1.255   8.400 -0.2834  1.3154  0.6290
10987SOL     OW34682   5.433   5.975   8.864 -0.0422 -0.1483 -0.4464
10987SOL    HW134683   5.462   6.062   8.893  0.1462  0.1631 -1.5082
10987SOL    HW234684   5.340   5.986   8.846  0.4166  0.4687 -2.7184
10988SOL     OW34685   7.453   4.548   3.063  0.5113 -0.9827 -0.5124
10988SOL    HW134686   7.416   4.535   3.150  1.1171 -0.7736 -0.2146
10988SOL    HW234687   7.377   4.561   3.006  0.1349  0.4705  0.2546
10989SOL     OW34688   2.211   4.873   2.790  0.7228 -0.3416 -0.2342
10989SOL    HW134689   2.257   4.955   2.774  0.6404 -0.5650 -1.7482
10989SOL    HW234690   2.276   4.816   2.832  0.9949  0.2474  0.1522
10990SOL     OW34691   6.119   0.607   3.187 -0.0040  0.4290 -0.1671
10990SOL    HW134692   6.042   0.551   3.180 -0.1350  0.6789 -0.8596
10990SOL    HW234693   6.172   0.567   3.255 -0.4778 -0.0740 -0.0870
10991SOL     OW34694   3.470   2.352   2.557 -0.0450  0.3266 -0.2560
10991SOL    HW134695   3.429   2.438   2.550  0.1299  0.2915 -2.0099
10991SOL    HW234696   3.409   2.292   2.515  0.2083 -0.2986  0.2392
10992SOL     OW34697   4.218   4.699   9.587  0.2178 -0.0083 -0.5194
10992SOL    HW134698   4.252   4.631   9.529 -1.2034 -1.5666  0.3711
10992SOL    HW234699   4.226   4.662   9.675  0.7393  1.5985  0.1505
10993SOL     OW34700   7.787   3.487   4.475  0.0104 -0.5969  0.0472
10993SOL    HW134701   7.701   3.526   4.459  0.2221 -0.2260 -0.1833
10993SOL    HW234702   7.816   3.527   4.557 -0.1956 -0.9996  0.3218
10994SOL     OW34703   8.393   6.244   8.921  0.7560  0.1007  0.2475
10994SOL    HW134704   8.466   6.189   8.949 -0.6892 -2.5934 -0.8565
10994SOL    HW234705   8.358   6.200   8.843 -0.9374  2.2849 -0.3462
10995SOL     OW34706   0.476   0.256   7.686  0.1368  0.4084 -0.1384
10995SOL    HW134707   0.562   0.228   7.656  0.3527 -1.7962  2.1595
10995SOL    HW234708   0.458   0.336   7.636  1.2480 -1.6937 -4.4173
10996SOL     OW34709   3.307   9.126   5.960  0.1422 -0.1871  0.1386
10996SOL    HW134710   3.268   9.055   6.011  0.6732 -1.0626 -0.6434
10996SOL    HW234711   3.233   9.184   5.940 -0.4449 -0.9142  0.1524
10997SOL     OW34712   6.014   4.379   0.801  0.2396 -0.3022  0.3035
10997SOL    HW134713   5.954   4.322   0.753  0.3755  0.6787 -1.1032
10997SOL    HW234714   5.973   4.466   0.797  0.9296  0.0540  0.7845
10998SOL     OW34715   6.105   2.180   5.158 -0.2492 -0.1494  0.3893
10998SOL    HW134716   6.025   2.130   5.143 -0.4471  0.1787  0.3342
10998SOL    HW234717   6.074   2.267   5.184  0.0479 -0.8235  3.3097
10999SOL     OW34718   3.784   6.451   8.127 -0.2947  0.1592 -0.9240
10999SOL    HW134719   3.857   6.473   8.184  1.4008 -1.8288 -2.1755
10999SOL    HW234720   3.710   6.438   8.187  0.6317  1.1329  0.4791
11000SOL     OW34721   2.207   7.106   0.726 -0.2895  0.0662 -0.4586
11000SOL    HW134722   2.273   7.101   0.657 -0.0588  0.4522 -0.2741
11000SOL    HW234723   2.254   7.081   0.806  1.0998  5.0085  0.6269
11001SOL     OW34724   7.749   1.136   0.544 -0.2184 -0.3027 -0.4860
11001SOL    HW134725   7.655   1.132   0.555 -0.1954  1.0631  0.3607
11001SOL    HW234726   7.762   1.147   0.450 -1.0193  1.7918 -0.3913
11002SOL     OW34727   8.986   7.033   2.400 -0.2535  0.1173 -0.2959
11002SOL    HW134728   9.038   6.993   2.330 -0.3674  0.9709 -0.8794
11002SOL    HW234729   8.944   7.108   2.359 -1.1977 -0.0058  0.4170
11003SOL     OW34730   7.244   3.637   3.322  0.4252 -0.3819 -0.1748
11003SOL    HW134731   7.216   3.728   3.316  1.7363  0.2606  2.0628
11003SOL    HW234732   7.172   3.592   3.365  1.2007  0.5126  2.2932
11004SOL     OW34733   9.234   1.681   5.507 -0.0019  0.2023  0.2129
11004SOL    HW134734   9.193   1.615   5.451 -1.0856  1.1229 -0.1298
11004SOL    HW234735   9.269   1.632   5.581 -0.9772 -0.7386  0.0783
11005SOL     OW34736   3.175   8.052   0.766 -0.0399 -0.2249 -0.2496
11005SOL    HW134737   3.091   8.093   0.747  0.4322  0.0393 -2.0531
11005SOL    HW234738   3.219   8.048   0.680  0.4290 -3.4247  0.0114
11006SOL     OW34739   2.296   2.309   7.951 -0.2668 -0.5583  0.0445
11006SOL    HW134740   2.248   2.343   8.026 -0.1306 -0.7923  0.2379
11006SOL    HW234741   2.286   2.214   7.957  2.5157 -0.8713  1.6933
11007SOL     OW34742   8.127   5.715   6.672 -0.0539  0.4404 -0.5528
11007SOL    HW134743   8.056   5.666   6.630 -0.2531  0.6075 -0.4131
11007SOL    HW234744   8.161   5.773   6.604 -0.7424  1.1109 -0.3335
11008SOL     OW34745   3.014   0.040   7.255  0.1310 -0.4460 -0.7388
11008SOL    HW134746   2.925   0.067   7.233 -1.3384 -2.1973  2.3101
11008SOL    HW234747   3.066   0.060   7.177 -2.6228  1.9052 -2.1502
11009SOL     OW34748   1.363   4.823   3.967 -0.4648  0.0426 -0.6926
11009SOL    HW134749   1.412   4.863   3.896 -0.7361  0.7384 -0.4972
11009SOL    HW234750   1.395   4.733   3.971 -0.7918 -0.1491 -2.0149
11010SOL     OW34751   0.014   6.141   9.290 -0.3956  0.4976  0.3895
11010SOL    HW134752  -0.027   6.160   9.206 -1.5680  0.8132  1.0085
11010SOL    HW234753  -0.017   6.053   9.312  2.2052 -0.8357 -0.8154
11011SOL     OW34754   3.131   4.512   9.672  0.0846 -0.1728  0.7199
11011SOL    HW134755   3.117   4.443   9.607 -0.0247  0.5166 -0.0029
11011SOL    HW234756   3.133   4.466   9.756  0.5617 -1.1136  0.2031
11012SOL     OW34757   9.127   2.922   9.452 -0.3029  0.0976 -0.0543
11012SOL    HW134758   9.094   2.989   9.392  0.0623  1.5694  1.3401
11012SOL    HW234759   9.124   2.841   9.401  1.8263  1.5604 -2.7516
11013SOL     OW34760   2.651   2.802   1.262 -0.2822  0.0910  0.2334
11013SOL    HW134761   2.617   2.820   1.349  2.1259 -0.3461  1.3589
11013SOL    HW234762   2.634   2.709   1.248  1.3978 -0.4291  1.3220
11014SOL     OW34763   9.188   5.979   8.157  0.0135 -0.2580  0.2065
11014SOL    HW134764   9.183   5.913   8.088 -0.4948 -1.4858  1.3786
11014SOL    HW234765   9.135   6.052   8.125  0.5552 -0.4065 -1.0974
11015SOL     OW34766   3.388   7.079   0.513  0.0672  0.4647  0.5300
11015SOL    HW134767   3.436   7.080   0.430 -2.5640  1.1684 -1.1099
11015SOL    HW234768   3.396   6.989   0.544 -2.1130 -0.9955 -2.6045
11016SOL     OW34769   0.294   5.268   8.697 -0.3715  0.5086 -0.6514
11016SOL    HW134770   0.223   5.205   8.711 -0.0486 -0.0342 -1.3925
11016SOL    HW234771   0.370   5.228   8.737 -0.1437  0.3792 -1.2021
11017SOL     OW34772   6.889   4.153   0.018 -0.6128 -0.4077  0.3499
11017SOL    HW134773   6.959   4.182  -0.039 -1.6020  0.3884 -0.5053
11017SOL    HW234774   6.929   4.088   0.075  0.3997 -1.2565 -1.2734
11018SOL     OW34775   7.895   1.241   7.738  0.3326 -0.8265 -0.4402
11018SOL    HW134776   7.841   1.170   7.702  0.5231 -2.3947  2.1151
11018SOL    HW234777   7.833   1.296   7.785  0.7291 -2.2686  1.9428
11019SOL     OW34778   1.622   6.091   5.176 -0.3761  0.0253  0.0781
11019SOL    HW134779   1.549   6.124   5.123  0.1382 -0.5631 -1.0437
11019SOL    HW234780   1.584   6.073   5.262 -1.3752  0.4618 -0.2584
11020SOL     OW34781   7.797   5.052   3.688  0.1207 -0.6899  0.4563
11020SOL    HW134782   7.830   5.050   3.598  1.5137  2.1525  0.7914
11020SOL    HW234783   7.730   5.120   3.688 -0.4347 -1.2048  1.4322
11021SOL     OW34784   9.050   5.979   5.305 -0.6581  0.6878 -0.0870
11021SOL    HW134785   9.029   5.904   5.249  1.3970  0.8180 -1.1083
11021SOL    HW234786   9.099   5.943   5.378  0.1425  0.9796 -0.4649
11022SOL     OW34787   1.592   3.295   0.097 -0.6790 -0.3642  0.2789
11022SOL    HW134788   1.511   3.344   0.109  0.0822  1.4070 -1.2084
11022SOL    HW234789   1.567   3.220   0.042 -1.5147 -0.5223  0.8668
11023SOL     OW34790   5.898   9.322   6.768 -0.3321 -0.0890  0.6829
11023SOL    HW134791   5.973   9.381   6.775  0.1028 -0.6351  0.7582
11023SOL    HW234792   5.936   9.240   6.736 -0.6611 -0.8303  2.1084
11024SOL     OW34793   5.493   0.477   1.148 -0.2715  0.2808  0.4044
11024SOL    HW134794   5.586   0.456   1.140  0.1168  1.9639  0.1158
11024SOL    HW234795   5.482   0.499   1.241 -0.0002  1.6576  0.1279
11025SOL     OW34796   3.215   3.396   9.590 -0.1332  1.1765 -0.6821
11025SOL    HW134797   3.123   3.373   9.601  0.5610 -0.6863  2.4105
11025SOL    HW234798   3.260   3.313   9.574  1.1426  1.9596 -1.4306
11026SOL     OW34799   5.234   7.359   2.910 -0.0767 -0.1924  0.3881
11026SOL    HW134800   5.302   7.425   2.916  0.7855 -1.0626  0.4913
11026SOL    HW234801   5.188   7.378   2.828  0.1032  0.5729  0.4608
11027SOL     OW34802   6.540   2.696   5.943  0.3909 -0.0486 -0.1746
11027SOL    HW134803   6.589   2.658   5.870 -0.0976 -0.7026 -0.1652
11027SOL    HW234804   6.601   2.692   6.017  0.8738  0.5845 -0.5335
11028SOL     OW34805   7.538   6.077   1.559 -0.3131  0.0118 -0.1702
11028SOL    HW134806   7.463   6.105   1.612 -0.3039  1.0835 -0.6996
11028SOL    HW234807   7.552   6.149   1.497  1.9551  0.4544  0.7483
11029SOL     OW34808   0.212   3.069   8.277  0.1577  0.1571 -0.0888
11029SOL    HW134809   0.265   3.008   8.226  0.6815  2.7150 -2.8510
11029SOL    HW234810   0.177   3.130   8.213 -3.0358  0.9113  2.1067
11030SOL     OW34811   3.787   8.686   5.128  0.2430 -0.2500 -0.8823
11030SOL    HW134812   3.811   8.602   5.090 -1.9923 -1.2428 -0.2633
11030SOL    HW234813   3.757   8.665   5.217  0.6285  1.3535 -0.3302
11031SOL     OW34814   5.981   8.087   7.038  0.1326 -0.4526 -0.0178
11031SOL    HW134815   6.048   8.108   6.972 -0.0613 -1.1851 -0.4624
11031SOL    HW234816   5.961   7.995   7.023 -1.1775 -0.1805 -0.0677
11032SOL     OW34817   3.722   0.850   3.595  0.1124  0.1591  0.3968
11032SOL    HW134818   3.814   0.877   3.590  0.6676 -1.3767  1.5186
11032SOL    HW234819   3.723   0.770   3.648 -1.9834  0.5823  1.1766
11033SOL     OW34820   5.814   4.903   6.547  0.2975  0.1956  0.5433
11033SOL    HW134821   5.881   4.863   6.492  0.8347  1.6902  0.0552
11033SOL    HW234822   5.851   4.903   6.635  0.0778 -0.7994  0.6481
11034SOL     OW34823   9.095   9.317   0.712  0.4497  0.0071 -0.0818
11034SOL    HW134824   9.173   9.373   0.720  0.5481  0.0458 -1.1040
11034SOL    HW234825   9.125   9.230   0.736  0.9365 -0.0612 -0.9002
11035SOL     OW34826   3.327   4.071   0.347 -0.5298 -0.2582  0.2440
11035SOL    HW134827   3.304   4.144   0.405  0.6699  0.7340 -0.4693
11035SOL    HW234828   3.421   4.061   0.358 -0.7008 -1.8570  0.4595
11036SOL     OW34829   4.825   8.813   4.944  0.1102 -0.3938 -0.1247
11036SOL    HW134830   4.837   8.799   5.038  0.9892  0.2690 -0.1310
11036SOL    HW234831   4.731   8.803   4.931 -0.0788 -0.1203  0.8922
11037SOL     OW34832   8.538   7.632   4.292  0.2407  0.4982 -0.2786
11037SOL    HW134833   8.598   7.558   4.288  0.1642  0.4155  0.0424
11037SOL    HW234834   8.453   7.594   4.314 -0.1424  0.5135 -1.6816
11038SOL     OW34835   1.648   3.817   4.857 -0.8330  0.0349 -0.0980
11038SOL    HW134836   1.646   3.744   4.919 -0.0949  0.6256  0.6484
11038SOL    HW234837   1.739   3.846   4.857 -1.0962  0.9146 -0.4172
11039SOL     OW34838   4.751   5.464   2.315 -0.3883  0.1098 -0.7752
11039SOL    HW134839   4.686   5.410   2.271 -0.4912  0.1455 -0.6676
11039SOL    HW234840   4.722   5.554   2.302 -1.6663  0.0510  1.2580
11040SOL     OW34841   2.695   9.526   3.174  0.9929  0.1895  0.1129
11040SOL    HW134842   2.751   9.591   3.132  0.1434  1.0112  0.2103
11040SOL    HW234843   2.621   9.577   3.209 -0.1808 -0.9290 -0.6368
11041SOL     OW34844   1.719   3.719   4.144 -0.2661 -0.6689  0.3501
11041SOL    HW134845   1.781   3.755   4.207  0.0954  1.4900 -1.1520
11041SOL    HW234846   1.635   3.758   4.169 -0.1539  0.0518 -0.3761
11042SOL     OW34847   3.566   4.301   1.725 -1.1368 -0.3232  0.1403
11042SOL    HW134848   3.661   4.305   1.735 -1.1285  0.5279 -0.1747
11042SOL    HW234849   3.553   4.260   1.639 -1.1353 -3.1095  1.3414
11043SOL     OW34850   6.778   7.328   1.886  0.0274 -0.3251  0.9748
11043SOL    HW134851   6.828   7.396   1.841 -1.8995  0.9526  0.6410
11043SOL    HW234852   6.714   7.376   1.939 -1.1026 -1.8583  1.0792
11044SOL     OW34853   7.094   2.325   0.189 -0.3423 -0.4553  0.5612
11044SOL    HW134854   7.135   2.239   0.176  0.6121  0.0920 -0.2061
11044SOL    HW234855   7.024   2.328   0.124  0.7323  0.0049 -0.6110
11045SOL     OW34856   0.627   5.331   2.518 -0.1092 -0.5570 -0.1477
11045SOL    HW134857   0.580   5.380   2.450 -0.5559  0.5472  0.9267
11045SOL    HW234858   0.647   5.396   2.585  0.4335 -1.6031  0.7323
11046SOL     OW34859   4.524   2.825   3.904  0.2650 -0.1695 -0.0176
11046SOL    HW134860   4.613   2.790   3.895  0.9181  0.5620  2.7034
11046SOL    HW234861   4.530   2.915   3.873  0.6825  0.0807  0.7454
11047SOL     OW34862   4.744   1.438   9.649 -0.4475  0.2394 -0.1837
11047SOL    HW134863   4.656   1.439   9.610 -0.3525  0.2137 -0.4015
11047SOL    HW234864   4.795   1.497   9.594 -0.8891  2.0938  1.2961
11048SOL     OW34865   1.164   3.581   6.162  0.1399  0.2871 -0.5826
11048SOL    HW134866   1.256   3.608   6.171  0.8223 -2.0603  0.0775
11048SOL    HW234867   1.132   3.578   6.252  0.1395 -1.1528 -0.6119
11049SOL     OW34868   1.689   3.600   7.027  0.0567  0.3774  0.5701
11049SOL    HW134869   1.712   3.507   7.024 -0.1742  0.3281  0.2440
11049SOL    HW234870   1.635   3.609   7.105  0.9355  0.4417  1.1935
11050SOL     OW34871   6.909   2.829   1.236  0.0977  0.3101 -0.4729
11050SOL    HW134872   6.945   2.861   1.154  1.4920  1.0308  0.3752
11050SOL    HW234873   6.836   2.888   1.256 -0.0025  0.3608 -0.9968
11051SOL     OW34874   7.701   8.449   1.352  0.2364 -0.0689 -0.0551
11051SOL    HW134875   7.757   8.499   1.293 -0.5848  2.5529  1.2466
11051SOL    HW234876   7.727   8.478   1.439 -0.6572 -1.5843  0.7537
11052SOL     OW34877   7.026   0.471   0.170 -0.6158  0.0928  0.3082
11052SOL    HW134878   6.959   0.445   0.233 -0.2955 -1.9698 -0.1335
11052SOL    HW234879   7.012   0.414   0.095 -1.3973  2.8917 -1.8544
11053SOL     OW34880   6.351   8.865   4.801 -0.2369  0.5273 -0.2274
11053SOL    HW134881   6.431   8.816   4.821 -0.3107  0.6016  0.2690
11053SOL    HW234882   6.373   8.915   4.723  0.5302  1.2848  0.4495
11054SOL     OW34883   1.081   6.936   3.352  0.7281 -0.2712  0.1023
11054SOL    HW134884   1.150   7.000   3.366  0.4690 -0.5137  3.1235
11054SOL    HW234885   1.123   6.864   3.305  2.7440 -0.6794  2.3717
11055SOL     OW34886   5.150   6.400   9.281 -0.0629 -0.0251 -0.3441
11055SOL    HW134887   5.076   6.386   9.222 -0.3453 -0.2805  0.0679
11055SOL    HW234888   5.117   6.376   9.367  0.1756  0.8743  0.0111
11056SOL     OW34889   1.079   7.065   2.391 -0.5718 -0.5407  0.1697
11056SOL    HW134890   1.126   7.115   2.458 -1.1619  0.3654 -0.0754
11056SOL    HW234891   1.068   6.978   2.430  1.6235 -0.9135  0.0801
11057SOL     OW34892   2.471   8.276   0.570 -0.1985 -0.2370  0.3023
11057SOL    HW134893   2.439   8.349   0.622  0.0788  0.2192 -0.1686
11057SOL    HW234894   2.507   8.215   0.635  1.5468  1.0117  0.5610
11058SOL     OW34895   4.408   0.390   0.300 -0.1868  0.8436  0.1509
11058SOL    HW134896   4.352   0.381   0.377 -1.4897 -0.2901 -0.8709
11058SOL    HW234897   4.347   0.392   0.226  1.0655  0.8083 -0.9226
11059SOL     OW34898   1.305   6.565   0.675  0.5335  0.2677 -0.4401
11059SOL    HW134899   1.242   6.519   0.731  0.1977  0.5924 -0.5491
11059SOL    HW234900   1.322   6.647   0.721  2.3480 -0.6106  0.5729
11060SOL     OW34901   2.245   3.181   5.833  0.2217  0.5455  0.0347
11060SOL    HW134902   2.173   3.122   5.854  0.8323 -0.5888 -0.9234
11060SOL    HW234903   2.257   3.233   5.912 -2.2106  1.4039 -0.0883
11061SOL     OW34904   8.613   6.190   7.345 -0.3182 -0.3163 -0.4903
11061SOL    HW134905   8.598   6.098   7.325  0.6599 -0.8142  0.8952
11061SOL    HW234906   8.655   6.226   7.267 -0.5039 -1.0915 -0.9581
11062SOL     OW34907   3.655   7.386   3.316  0.1205 -0.4361  0.3617
11062SOL    HW134908   3.635   7.321   3.249 -0.2318  1.8042 -1.8513
11062SOL    HW234909   3.730   7.350   3.362 -0.8608 -2.9846  0.1572
11063SOL     OW34910   9.234   0.726   6.636 -0.0855 -0.2960 -0.2557
11063SOL    HW134911   9.223   0.819   6.615 -0.1661 -0.3692 -0.5417
11063SOL    HW234912   9.326   0.708   6.616 -0.2206 -0.4237 -0.7871
11064SOL     OW34913   0.037   2.151   2.824 -0.1108  0.2937 -0.1521
11064SOL    HW134914  -0.013   2.226   2.856 -1.6666 -1.4647  1.8349
11064SOL    HW234915  -0.022   2.108   2.762  0.6013  0.4626 -0.9595
11065SOL     OW34916   1.355   5.749   9.103 -0.0388 -0.4122 -0.2060
11065SOL    HW134917   1.378   5.831   9.060  0.5983  0.7988  2.2884
11065SOL    HW234918   1.262   5.736   9.081 -0.1787  1.0202 -0.5686
11066SOL     OW34919   4.723   3.499   5.709  0.0742 -0.0776  0.2640
11066SOL    HW134920   4.754   3.413   5.681 -0.6420 -0.5083  0.7569
11066SOL    HW234921   4.771   3.561   5.654  0.4443 -0.8017 -0.2443
11067SOL     OW34922   7.901   6.695   4.384 -0.2115 -0.7573  0.2414
11067SOL    HW134923   7.874   6.730   4.299  1.7749 -3.1136 -1.5133
11067SOL    HW234924   7.956   6.764   4.422  0.7048 -0.4952 -1.4487
11068SOL     OW34925   8.738   1.442   5.481  0.4965 -0.2958 -0.0408
11068SOL    HW134926   8.661   1.443   5.424  1.4563  2.4241 -1.4377
11068SOL    HW234927   8.760   1.349   5.489 -2.0548 -1.0433 -0.7661
11069SOL     OW34928   7.833   0.041   8.456 -0.5089 -0.4989  0.0638
11069SOL    HW134929   7.861  -0.023   8.391 -0.8393 -0.3184 -0.2664
11069SOL    HW234930   7.888   0.118   8.439 -1.7152  0.1533 -1.1314
11070SOL     OW34931   7.217   9.209   8.506 -0.0403  0.3975  0.2358
11070SOL    HW134932   7.288   9.272   8.490 -1.1288  1.9022  1.0160
11070SOL    HW234933   7.167   9.208   8.425  0.5505 -0.2656 -0.1325
11071SOL     OW34934   2.259   8.978   3.898  0.6381 -0.0495 -0.1008
11071SOL    HW134935   2.248   8.886   3.921  0.9321  0.0696  0.5297
11071SOL    HW234936   2.293   9.019   3.977 -0.7086  0.8513  0.0342
11072SOL     OW34937   8.548   5.502   6.324 -1.0217  0.3634 -0.0659
11072SOL    HW134938   8.563   5.519   6.417 -0.5496 -0.7887  0.0919
11072SOL    HW234939   8.625   5.452   6.297 -0.8431  1.2328 -1.2472
11073SOL     OW34940   2.910   8.454   9.154  0.6558  0.2582  0.1902
11073SOL    HW134941   2.916   8.370   9.108  1.4550  0.7064 -0.5486
11073SOL    HW234942   3.001   8.478   9.171  0.3888 -0.1339  2.5019
11074SOL     OW34943   5.000   1.937   4.220  0.0190  0.2094  0.3293
11074SOL    HW134944   4.922   1.915   4.169  0.1502 -0.4003  0.3918
11074SOL    HW234945   5.042   2.008   4.171 -0.7441  0.7711  0.4640
11075SOL     OW34946   1.845   4.808   4.139 -0.0309  0.5589 -0.0053
11075SOL    HW134947   1.764   4.798   4.189  0.6120 -0.9867  0.7998
11075SOL    HW234948   1.837   4.746   4.067 -0.3070  1.7025 -0.9932
11076SOL     OW34949   7.864   0.098   1.030  0.1729  0.0807  0.2388
11076SOL    HW134950   7.879   0.011   1.065 -0.5528 -1.1293 -2.2490
11076SOL    HW234951   7.777   0.093   0.989  0.8143  1.4275 -1.4224
11077SOL     OW34952   3.043   2.707   6.978 -0.7773 -0.5389 -0.1651
11077SOL    HW134953   2.999   2.632   6.936 -1.3890 -0.6041  0.5607
11077SOL    HW234954   3.126   2.714   6.932 -1.4879 -0.4896 -1.5120
11078SOL     OW34955   8.052   8.978   2.833 -0.2284  0.8850 -0.0264
11078SOL    HW134956   8.002   9.034   2.892 -0.6766 -1.2346  1.7084
11078SOL    HW234957   8.125   8.946   2.886 -1.5436 -2.3882  0.0134
11079SOL     OW34958   8.183   9.484   2.777 -0.3109 -0.1963 -0.0353
11079SOL    HW134959   8.123   9.482   2.851  0.1714  4.6963  0.8456
11079SOL    HW234960   8.126   9.482   2.700 -1.2062 -0.3119  0.6161
11080SOL     OW34961   5.756   5.763   3.239  0.2006 -0.3423 -0.3635
11080SOL    HW134962   5.753   5.716   3.156  1.2689 -0.5628 -0.2941
11080SOL    HW234963   5.805   5.843   3.220 -1.7853  0.9241 -0.5364
11081SOL     OW34964   8.477   0.610   7.812  0.0729  0.0553 -0.1261
11081SOL    HW134965   8.411   0.631   7.747  1.3291  1.4956 -0.9937
11081SOL    HW234966   8.546   0.565   7.763 -0.7164 -2.5513  0.9691
11082SOL     OW34967   1.890   3.188   6.606  0.1953  0.0821  0.2130
11082SOL    HW134968   1.898   3.278   6.636  0.4164 -0.5007  2.0508
11082SOL    HW234969   1.800   3.163   6.628  0.5614 -0.5642  1.0344
11083SOL     OW34970   3.468   6.307   1.858 -0.0765  0.0995 -0.6578
11083SOL    HW134971   3.403   6.366   1.820 -2.0380 -1.5832 -0.0997
11083SOL    HW234972   3.465   6.228   1.804  2.0427  0.1887 -1.0197
11084SOL     OW34973   8.319   4.440   6.638  0.0412  0.0162 -0.1581
11084SOL    HW134974   8.250   4.398   6.690 -0.6782 -0.1154 -1.1997
11084SOL    HW234975   8.272   4.487   6.570  0.9096  1.4774  0.2283
11085SOL     OW34976   2.934   3.035   3.658 -0.1399 -0.3793 -0.1527
11085SOL    HW134977   2.852   2.992   3.634 -0.3487  0.2745 -0.6340
11085SOL    HW234978   2.972   2.977   3.725 -0.8916 -0.7890 -0.0603
11086SOL     OW34979   8.301   6.085   4.261 -0.3027 -0.1078 -0.1509
11086SOL    HW134980   8.273   6.021   4.196  0.5426  0.4092 -1.0349
11086SOL    HW234981   8.242   6.159   4.249 -0.0406  0.0546 -0.4500
11087SOL     OW34982   5.087   0.596   4.663  0.7158  0.1313 -0.2798
11087SOL    HW134983   5.056   0.682   4.687  1.2322 -0.1785  1.6789
11087SOL    HW234984   5.124   0.607   4.575  0.8173  1.9030 -0.0434
11088SOL     OW34985   4.773   4.263   6.668  0.0742 -0.1426 -0.5650
11088SOL    HW134986   4.726   4.307   6.597 -1.1854 -0.9194 -0.2511
11088SOL    HW234987   4.800   4.179   6.631  1.6694  0.4737 -0.8816
11089SOL     OW34988   1.898   3.098   1.194  0.0856 -0.4809  0.1818
11089SOL    HW134989   1.925   3.186   1.167  0.7846 -1.2323 -1.7871
11089SOL    HW234990   1.944   3.083   1.277 -1.0052  1.4160  1.2008
11090SOL     OW34991   2.542   1.551   5.432  0.7221  0.4695 -0.0463
11090SOL    HW134992   2.494   1.498   5.369  0.5686  0.5777 -0.0197
11090SOL    HW234993   2.495   1.634   5.434 -0.7774 -0.3499  2.0422
11091SOL     OW34994   5.946   9.301   0.421 -0.3740 -0.5294  0.2673
11091SOL    HW134995   5.906   9.384   0.446  1.7330  0.3673  0.8919
11091SOL    HW234996   5.935   9.297   0.326 -3.7284 -1.3940  0.5608
11092SOL     OW34997   6.817   7.498   7.333 -0.4993 -0.0310 -0.5533
11092SOL    HW134998   6.831   7.542   7.249  0.2625  1.0041  0.0878
11092SOL    HW234999   6.901   7.457   7.353  0.5573  2.7648  1.3732
11093SOL     OW35000   3.891   3.321   3.851  0.3659 -0.0183 -0.1269
11093SOL    HW135001   3.972   3.282   3.884 -0.3992 -0.8650  0.8182
11093SOL    HW235002   3.871   3.390   3.915 -0.0590 -0.3139  0.0566
11094SOL     OW35003   8.726   7.884   5.802 -0.1101  0.0013 -0.4506
11094SOL    HW135004   8.773   7.967   5.801  0.9142 -0.4895  1.4238
11094SOL    HW235005   8.743   7.845   5.716  1.0849  0.8317 -0.6038
11095SOL     OW35006   7.297   0.847   6.400 -0.4334 -0.4244  0.2557
11095SOL    HW135007   7.342   0.918   6.447 -0.2463  1.0059 -1.9336
11095SOL    HW235008   7.204   0.859   6.423 -0.7963  2.2845 -2.0018
11096SOL     OW35009   8.268   2.113   9.397  0.0693  0.3560 -0.1312
11096SOL    HW135010   8.217   2.180   9.443  2.2505  1.1031  1.3256
11096SOL    HW235011   8.258   2.134   9.304 -0.7838  1.5546  0.2194
11097SOL     OW35012   5.205   7.591   6.354 -0.6929 -0.0959  0.2838
11097SOL    HW135013   5.273   7.657   6.340 -1.1639  0.4358  0.4345
11097SOL    HW235014   5.211   7.571   6.447 -0.1748 -0.6896  0.1242
11098SOL     OW35015   3.583   8.795   3.011 -0.0500 -0.0400 -0.6564
11098SOL    HW135016   3.633   8.820   2.934  0.7730 -1.4339 -0.6142
11098SOL    HW235017   3.495   8.777   2.978  0.2130 -0.3237 -1.2131
11099SOL     OW35018   6.032   5.960   6.270 -0.0199  0.3419 -0.3708
11099SOL    HW135019   5.942   5.990   6.275  0.2227  1.0545 -0.2489
11099SOL    HW235020   6.032   5.898   6.197 -0.4078  1.0698 -1.0004
11100SOL     OW35021   7.932   7.184   8.941  0.4402 -0.4141  0.0552
11100SOL    HW135022   7.928   7.279   8.952  2.6791 -0.2660  0.0749
11100SOL    HW235023   7.926   7.171   8.846 -0.3656 -0.3057  0.0844
11101SOL     OW35024   8.540   8.695   5.573 -0.6560 -0.4976  0.5332
11101SOL    HW135025   8.517   8.779   5.532 -0.1153 -1.1290 -1.1508
11101SOL    HW235026   8.520   8.630   5.506  2.5405 -1.3977  0.3179
11102SOL     OW35027   7.423   4.727   1.908  0.1087  0.1786 -0.0411
11102SOL    HW135028   7.360   4.662   1.940  1.0618 -1.3527 -1.1492
11102SOL    HW235029   7.386   4.811   1.934 -1.1852 -0.7947  1.4258
11103SOL     OW35030   8.057   8.459   3.159  0.3357 -0.4804  0.1491
11103SOL    HW135031   8.003   8.438   3.083 -0.0260  0.1075  0.2366
11103SOL    HW235032   8.052   8.381   3.214 -2.2382  0.3010  1.1998
11104SOL     OW35033   6.312   6.882   2.161 -0.0158 -0.3623  0.4544
11104SOL    HW135034   6.219   6.902   2.149  0.1123  0.0952  0.1721
11104SOL    HW235035   6.314   6.792   2.192 -0.5077 -0.7663 -0.6363
11105SOL     OW35036   0.059   0.062   0.015  0.0178  0.2747  0.0377
11105SOL    HW135037   0.087  -0.012   0.069  0.4974 -0.4380 -1.1629
11105SOL    HW235038  -0.035   0.047  -0.000  0.4530 -1.0427 -1.6141
11106SOL     OW35039   0.805   4.234   4.931 -0.3008  0.0816 -0.0256
11106SOL    HW135040   0.756   4.163   4.973  2.1348 -1.6116  0.1229
11106SOL    HW235041   0.892   4.230   4.970  0.3289  2.2961 -1.0422
11107SOL     OW35042   5.391   0.757   1.973  0.3015  0.5343 -0.1709
11107SOL    HW135043   5.370   0.785   2.062 -1.0263 -0.7004 -0.0364
11107SOL    HW235044   5.456   0.687   1.985 -2.6478 -2.4085  0.2711
11108SOL     OW35045   7.124   5.104   3.161  0.6594 -0.1596 -0.6473
11108SOL    HW135046   7.146   5.131   3.072 -1.0431  0.7694 -0.8202
11108SOL    HW235047   7.029   5.109   3.165  0.7331  0.5272  1.4439
11109SOL     OW35048   1.865   8.356   6.490  0.3934 -0.3647 -0.3806
11109SOL    HW135049   1.891   8.422   6.426 -0.4800  1.0778  0.6878
11109SOL    HW235050   1.769   8.352   6.483  0.1482  0.6838  1.5602
11110SOL     OW35051   2.927   8.083   9.060  0.7348  0.1043  0.1544
11110SOL    HW135052   3.020   8.102   9.047  0.7949 -0.4889 -0.3625
11110SOL    HW235053   2.914   7.999   9.015 -0.5506  1.2758 -1.8508
11111SOL     OW35054   9.048   3.362   2.636  0.1756  0.0612  0.6836
11111SOL    HW135055   9.052   3.414   2.555  0.7076  0.7770  1.1608
11111SOL    HW235056   9.098   3.283   2.615 -1.7378 -0.9129 -0.4778
11112SOL     OW35057   8.008   3.882   0.277 -0.0011 -0.4584  0.0566
11112SOL    HW135058   8.034   3.974   0.277  1.1481 -0.7722  0.5460
11112SOL    HW235059   7.997   3.860   0.369 -2.2928 -0.2987 -0.1080
11113SOL     OW35060   6.061   2.790   0.665  0.2336 -0.3415  0.1388
11113SOL    HW135061   6.128   2.761   0.728  0.2690  0.3786  0.4499
11113SOL    HW235062   5.979   2.752   0.698  0.0149  1.1512  1.4450
11114SOL     OW35063   1.107   7.012   0.842  0.2116 -0.1586 -0.3985
11114SOL    HW135064   1.014   6.999   0.826  0.1593 -0.1351 -0.1288
11114SOL    HW235065   1.110   7.081   0.908  0.3648 -1.0728  0.5906
11115SOL     OW35066   8.751   1.355   2.368 -0.4977 -0.4459  0.3391
11115SOL    HW135067   8.829   1.410   2.377 -1.2903  1.1536 -1.7568
11115SOL    HW235068   8.785   1.270   2.337  0.3933  0.5951 -1.7353
11116SOL     OW35069   4.503   7.922   9.636 -0.2971 -0.5785  0.0291
11116SOL    HW135070   4.424   7.918   9.582 -0.2363  2.5127 -0.4827
11116SOL    HW235071   4.563   7.860   9.596 -1.1158 -0.1381 -2.0050
11117SOL     OW35072   0.689   5.519   0.242  0.2419  0.5630  0.7615
11117SOL    HW135073   0.636   5.589   0.281  0.7442 -0.4613  3.5751
11117SOL    HW235074   0.771   5.520   0.292  0.0702 -2.2895  1.3036
11118SOL     OW35075   8.886   7.928   1.229 -0.3169 -0.2892 -0.2809
11118SOL    HW135076   8.845   7.871   1.295 -1.2350 -0.2109 -0.7555
11118SOL    HW235077   8.839   8.011   1.236  0.9437  0.4012  0.3297
11119SOL     OW35078   4.596   5.763   2.538  0.0069 -0.0361 -0.2238
11119SOL    HW135079   4.691   5.761   2.521 -0.2455  0.1442 -1.8387
11119SOL    HW235080   4.573   5.671   2.553  0.5509  0.0080  0.9892
11120SOL     OW35081   5.952   3.255   8.655 -0.6239  0.3613  0.8553
11120SOL    HW135082   6.009   3.331   8.669 -2.1166  2.1092 -1.5459
11120SOL    HW235083   5.925   3.263   8.563  0.1665 -3.8920  0.0453
11121SOL     OW35084   2.139   9.658   0.746 -0.2638 -0.3495  0.0038
11121SOL    HW135085   2.135   9.744   0.786  0.1771  0.5080 -1.6995
11121SOL    HW235086   2.171   9.600   0.815  0.4771  1.0493  0.8643
11122SOL     OW35087   6.913   5.372   3.975  0.2416  0.3837 -0.0508
11122SOL    HW135088   6.917   5.398   3.883 -0.8179 -0.8919 -0.5047
11122SOL    HW235089   6.965   5.292   3.979 -1.9355 -1.1537 -0.2226
11123SOL     OW35090   0.676   4.356   8.351  0.0104  0.3799 -0.0542
11123SOL    HW135091   0.647   4.353   8.442  0.2922 -2.0454  0.0302
11123SOL    HW235092   0.771   4.348   8.356  0.0249  0.1762 -0.5361
11124SOL     OW35093   3.294   8.753   0.695 -0.3125  0.2662 -0.1814
11124SOL    HW135094   3.214   8.806   0.692 -1.2234 -1.0443 -0.0340
11124SOL    HW235095   3.361   8.809   0.656 -1.3501  1.3118 -0.5391
11125SOL     OW35096   4.097   0.651   4.150 -0.5268  0.0090 -0.1262
11125SOL    HW135097   4.075   0.655   4.243 -2.1353  1.0345 -0.5200
11125SOL    HW235098   4.159   0.723   4.136  0.0051 -0.3757  0.2028
11126SOL     OW35099   5.581   2.403   1.196 -0.1534 -0.2910 -0.7318
11126SOL    HW135100   5.605   2.350   1.272 -1.0080  0.3511  0.0066
11126SOL    HW235101   5.659   2.403   1.141  0.2943 -1.2280 -0.1227
11127SOL     OW35102   0.341   3.344   7.852  0.0965 -0.4299  0.5722
11127SOL    HW135103   0.249   3.367   7.837  0.1880 -1.6079 -2.5154
11127SOL    HW235104   0.356   3.366   7.944 -3.7255 -1.8041  1.7206
11128SOL     OW35105   5.138   4.335   6.383 -0.0958  1.2020  0.2444
11128SOL    HW135106   5.189   4.330   6.464 -0.2327  1.8343  0.3734
11128SOL    HW235107   5.197   4.303   6.315 -0.2166 -0.0493  0.6897
11129SOL     OW35108   7.037   6.599   4.833 -0.3178 -0.0782 -0.3093
11129SOL    HW135109   7.068   6.592   4.742 -0.6781  0.1545 -0.4489
11129SOL    HW235110   7.098   6.544   4.882  0.3676  0.4304 -0.5724
11130SOL     OW35111   0.684   2.157   3.155 -0.3457 -0.4400  0.1286
11130SOL    HW135112   0.618   2.107   3.107 -1.1823  0.7319  0.0281
11130SOL    HW235113   0.742   2.090   3.191 -1.7847 -1.5297  0.5208
11131SOL     OW35114   2.634   7.446   2.287  0.1278  0.1837  0.3004
11131SOL    HW135115   2.631   7.541   2.298 -1.2792  0.2604 -0.5693
11131SOL    HW235116   2.568   7.427   2.221  0.6961 -1.3655  0.1378
11132SOL     OW35117   3.797   7.605   0.170  0.5011  0.5102  0.0720
11132SOL    HW135118   3.809   7.550   0.092 -1.8162 -1.0349  0.7161
11132SOL    HW235119   3.778   7.543   0.240  0.1635  2.0224  1.3597
11133SOL     OW35120   3.017   2.317   7.596 -0.5101 -0.3295  0.5200
11133SOL    HW135121   3.069   2.368   7.533 -0.9931  2.4155  2.1483
11133SOL    HW235122   3.071   2.240   7.614  0.6647 -0.0702 -1.5224
11134SOL     OW35123   9.633   7.785   2.859  0.3240  0.5977 -0.1691
11134SOL    HW135124   9.706   7.724   2.850 -1.3985 -1.7996  1.0472
11134SOL    HW235125   9.628   7.829   2.774  3.5072  1.3370 -0.0875
11135SOL     OW35126   8.715   1.641   4.134 -0.4666 -0.1330 -0.2863
11135SOL    HW135127   8.797   1.627   4.086 -0.1955 -0.9773  0.3964
11135SOL    HW235128   8.694   1.734   4.119  1.7047  0.6877  1.1734
11136SOL     OW35129   0.038   7.411   2.241 -0.2082  0.5455  0.2923
11136SOL    HW135130  -0.053   7.382   2.248 -0.9048  2.3640 -0.7707
11136SOL    HW235131   0.039   7.500   2.276  0.8228  1.1376 -1.1148
11137SOL     OW35132   3.586   8.192   2.394 -0.3008 -0.0205  0.5345
11137SOL    HW135133   3.666   8.155   2.357  1.8076  2.3872  2.2902
11137SOL    HW235134   3.576   8.148   2.478 -0.6277 -0.0687  0.4711
11138SOL     OW35135   8.370   6.494   3.114 -0.3148  0.0111 -0.3204
11138SOL    HW135136   8.403   6.487   3.203  1.1360 -0.8116 -0.8860
11138SOL    HW235137   8.361   6.588   3.099 -2.6875  0.1248  1.3817
11139SOL     OW35138   1.692   6.402   0.043  0.0673  0.0611  0.2924
11139SOL    HW135139   1.749   6.367   0.111  0.3404 -0.6038 -0.2621
11139SOL    HW235140   1.653   6.325   0.002  1.7290  0.2547 -1.8529
11140SOL     OW35141   9.318   7.796   4.039  0.0319  0.2247  0.1764
11140SOL    HW135142   9.336   7.877   4.086 -1.6266  0.5754  0.2476
11140SOL    HW235143   9.390   7.737   4.064  0.8149  1.3922  0.7452
11141SOL     OW35144   3.178   7.018   6.739  0.4920 -0.5280 -0.0535
11141SOL    HW135145   3.152   6.959   6.811  0.9693 -1.6489 -0.7642
11141SOL    HW235146   3.155   7.105   6.771  1.3228 -0.9083  1.7409
11142SOL     OW35147   9.671   1.256   3.424  0.2867 -0.1465  0.4339
11142SOL    HW135148   9.704   1.339   3.389  0.3439 -0.0293  0.7651
11142SOL    HW235149   9.747   1.214   3.463  0.4472 -0.7681 -0.5100
11143SOL     OW35150   3.831   5.259   3.656  0.1773 -0.6733  0.1259
11143SOL    HW135151   3.900   5.321   3.682 -0.5771  0.3593 -0.2798
11143SOL    HW235152   3.828   5.196   3.728  1.7856 -0.9646 -0.0109
11144SOL     OW35153   1.205   2.361   5.475 -0.3576  0.4034 -0.1954
11144SOL    HW135154   1.149   2.437   5.458 -0.7881  0.1081 -0.1008
11144SOL    HW235155   1.271   2.364   5.405 -0.5788  0.6650 -0.3961
11145SOL     OW35156   6.652   5.492   8.689  0.1105 -0.4477 -0.3259
11145SOL    HW135157   6.564   5.452   8.689  0.1920 -0.6567 -1.3512
11145SOL    HW235158   6.636   5.586   8.695 -0.1284 -0.5470  0.8350
11146SOL     OW35159   4.928   3.095   7.669  0.2640 -0.1989 -0.4376
11146SOL    HW135160   4.898   3.012   7.706 -0.7057 -0.2695 -1.3593
11146SOL    HW235161   5.000   3.121   7.726 -1.1656 -0.2997  1.5257
11147SOL     OW35162   7.787   6.229   8.732 -0.5243 -0.0115  0.0419
11147SOL    HW135163   7.756   6.313   8.767 -0.6347  0.4274 -1.0528
11147SOL    HW235164   7.733   6.163   8.776  0.5987  0.3400  2.0796
11148SOL     OW35165   1.232   7.737   8.775 -0.3472  0.1119 -0.5727
11148SOL    HW135166   1.296   7.704   8.712  0.4721 -0.8466  0.7064
11148SOL    HW235167   1.242   7.680   8.852  0.2172  2.5336  1.2748
11149SOL     OW35168   9.161   1.212   5.055  0.1692  0.4097  0.2140
11149SOL    HW135169   9.178   1.141   4.993 -0.9473  0.6212 -0.3657
11149SOL    HW235170   9.247   1.250   5.073  0.7454 -0.8699  0.2780
11150SOL     OW35171   5.287   2.748   6.694 -0.1457  0.4062 -0.2165
11150SOL    HW135172   5.311   2.712   6.609  0.9901  1.3145 -0.3140
11150SOL    HW235173   5.312   2.681   6.757  2.8645  1.2778 -0.3123
11151SOL     OW35174   7.221   3.806   0.878 -0.3686  0.1724 -0.2788
11151SOL    HW135175   7.261   3.728   0.916  0.8134  1.1643  0.6011
11151SOL    HW235176   7.263   3.816   0.793  0.5774  0.6710  0.2380
11152SOL     OW35177   2.146   3.689   3.195  0.1170 -0.2263  0.2011
11152SOL    HW135178   2.184   3.670   3.281  1.0692 -0.6561 -0.2985
11152SOL    HW235179   2.202   3.756   3.157  0.8520 -1.3676 -0.8309
11153SOL     OW35180   2.590   0.188   0.907  0.0257 -0.2552 -0.3698
11153SOL    HW135181   2.541   0.108   0.925 -1.0720  0.8877  2.2358
11153SOL    HW235182   2.523   0.255   0.895  0.9055  0.9767  1.2967
11154SOL     OW35183   2.023   1.063   8.610 -0.1982  0.4449 -0.2092
11154SOL    HW135184   2.104   1.075   8.560 -0.3389  0.7775 -0.3599
11154SOL    HW235185   2.050   1.014   8.688  0.0513  0.0557 -0.5337
11155SOL     OW35186   8.230   0.502   9.573  0.5335  0.1331 -0.3596
11155SOL    HW135187   8.209   0.586   9.532 -0.2140  0.0851 -0.1050
11155SOL    HW235188   8.274   0.526   9.655 -0.4023  0.3250  0.1148
11156SOL     OW35189   9.073   6.139   9.459 -0.1669 -0.2124 -0.3803
11156SOL    HW135190   9.087   6.166   9.368  1.9804  1.2398  0.2744
11156SOL    HW235191   9.135   6.068   9.473  1.4258  1.2631  0.5595
11157SOL     OW35192   5.347   3.496   3.703  0.1342  0.6089 -0.2168
11157SOL    HW135193   5.354   3.442   3.624 -0.0983  0.0061  0.1688
11157SOL    HW235194   5.436   3.526   3.720  0.1178  1.0779 -0.9420
11158SOL     OW35195   1.328   3.636   1.434 -0.5650 -0.5470  0.2094
11158SOL    HW135196   1.395   3.691   1.475 -0.2948  0.2994 -1.3042
11158SOL    HW235197   1.251   3.646   1.490 -0.2660  0.7177  0.4172
11159SOL     OW35198   8.168   8.087   0.745 -0.0165 -0.6596  0.0040
11159SOL    HW135199   8.172   8.019   0.813  0.1565 -1.8634 -1.1563
11159SOL    HW235200   8.077   8.115   0.745 -0.4767 -2.0542 -0.5611
11160SOL     OW35201   2.041   3.783   5.353  0.0143 -0.0673  0.3737
11160SOL    HW135202   2.006   3.724   5.419 -0.8229  0.1286  0.1208
11160SOL    HW235203   1.991   3.864   5.364 -1.7442 -0.7308 -1.9232
11161SOL     OW35204   6.615   9.362   1.867 -0.8646  0.4708 -0.3479
11161SOL    HW135205   6.690   9.382   1.810  0.6618 -1.5517  0.8208
11161SOL    HW235206   6.589   9.274   1.841 -1.5668  0.3850  0.6157
11162SOL     OW35207   6.577   9.052   8.217  0.1356 -0.5055  0.1384
11162SOL    HW135208   6.570   9.147   8.203  2.9670 -0.0807  0.9198
11162SOL    HW235209   6.515   9.034   8.288 -0.2323  0.8166  0.1906
11163SOL     OW35210   0.341   3.407   8.141 -0.0194 -0.5611 -0.2301
11163SOL    HW135211   0.418   3.379   8.191  0.4916  0.3666 -0.4683
11163SOL    HW235212   0.274   3.424   8.207  0.3187 -0.3673  0.0704
11164SOL     OW35213   3.256   3.575   4.250 -0.3753 -0.1323 -0.0775
11164SOL    HW135214   3.183   3.525   4.287 -1.0724 -0.3300 -1.6562
11164SOL    HW235215   3.330   3.556   4.308 -1.0545 -1.5830  0.3593
11165SOL     OW35216   4.496   7.557   2.049  0.0895  0.0136 -0.2512
11165SOL    HW135217   4.483   7.652   2.050 -1.5591 -0.1629  1.8170
11165SOL    HW235218   4.537   7.538   2.134  0.3103 -1.1436 -0.6013
11166SOL     OW35219   1.616   7.149   5.095 -0.0068 -0.2585 -0.1863
11166SOL    HW135220   1.573   7.232   5.075 -0.5678  0.1167  2.2567
11166SOL    HW235221   1.544   7.090   5.121  0.5334 -1.0486 -0.4429
11167SOL     OW35222   8.786   2.052   4.314 -0.0362 -0.7545  0.0991
11167SOL    HW135223   8.880   2.036   4.322  0.2500  1.2510  1.5395
11167SOL    HW235224   8.780   2.122   4.249 -0.6574 -1.5565 -0.7360
11168SOL     OW35225   8.283   2.419   9.013  0.4429 -0.3955 -0.4007
11168SOL    HW135226   8.203   2.441   8.966 -1.4188  2.9878  3.6232
11168SOL    HW235227   8.350   2.475   8.975 -0.2459  0.0667 -0.9611
11169SOL     OW35228   8.890   6.050   3.808  0.0252 -0.2611  0.0939
11169SOL    HW135229   8.912   5.957   3.816  0.8549 -0.0023  1.0949
11169SOL    HW235230   8.897   6.083   3.898  1.1088  1.0569 -0.4504
11170SOL     OW35231   7.903   1.634   8.101  0.1243 -0.2135 -0.4741
11170SOL    HW135232   7.858   1.629   8.186  0.1376 -0.2592 -0.4696
11170SOL    HW235233   7.833   1.654   8.039  0.3260  1.3048 -0.2539
11171SOL     OW35234   2.259   2.621   1.545  0.5849  0.2062  0.1425
11171SOL    HW135235   2.215   2.703   1.569  1.1011  0.7973 -0.8774
11171SOL    HW235236   2.203   2.553   1.582 -0.1309  0.9992  0.5630
11172SOL     OW35237   6.018   5.047   8.395  0.0278  0.5305 -0.8403
11172SOL    HW135238   5.990   5.098   8.471 -0.3192 -0.6399 -0.1570
11172SOL    HW235239   5.938   5.006   8.363  0.2868  0.4617 -1.4123
11173SOL     OW35240   3.935   4.007   3.838 -0.1010 -0.0402 -0.5253
11173SOL    HW135241   3.923   4.102   3.846 -0.8084 -0.1584 -0.0900
11173SOL    HW235242   3.976   3.996   3.752  0.1000  0.6694 -0.5288
11174SOL     OW35243   9.113   3.050   1.796 -0.6173 -0.0205 -0.0008
11174SOL    HW135244   9.033   3.062   1.847 -1.6444  0.1555 -1.5501
11174SOL    HW235245   9.098   3.101   1.716  0.5885 -0.8474 -0.7978
11175SOL     OW35246   2.696   7.934   4.302 -0.1055 -0.5506  0.0316
11175SOL    HW135247   2.740   7.934   4.217 -1.8107  0.6602 -0.9093
11175SOL    HW235248   2.615   7.983   4.287 -0.1665  0.2545  2.5116
11176SOL     OW35249   0.351   2.491   5.031 -0.1896  0.2218  0.1573
11176SOL    HW135250   0.321   2.408   5.068 -2.7562  0.5016 -1.0884
11176SOL    HW235251   0.437   2.471   4.994  0.2722 -1.2517  1.9004
11177SOL     OW35252   5.956   6.681   4.073 -0.0807  0.0055 -0.5493
11177SOL    HW135253   6.028   6.649   4.018  0.7891  1.1625 -0.1351
11177SOL    HW235254   5.883   6.694   4.012  0.1257 -0.9675 -1.0169
11178SOL     OW35255   4.227   4.827   0.456  0.0556  0.6039  0.0834
11178SOL    HW135256   4.183   4.901   0.414 -0.9474  0.4431  0.8193
11178SOL    HW235257   4.157   4.765   0.477  0.7907 -0.2250  0.1529
11179SOL     OW35258   1.131   5.037   5.169 -0.3938  0.0905  0.0393
11179SOL    HW135259   1.076   4.963   5.194  1.5168 -0.4891  3.1803
11179SOL    HW235260   1.157   5.077   5.252  2.3797  1.4208 -1.3160
11180SOL     OW35261   8.261   5.133   7.189  0.3676 -0.0940 -0.0606
11180SOL    HW135262   8.208   5.053   7.192 -1.4331  0.9026 -2.4284
11180SOL    HW235263   8.315   5.123   7.111  0.6510  0.7304  0.0215
11181SOL     OW35264   1.655   1.360   1.597  0.0604  0.2456  0.0881
11181SOL    HW135265   1.617   1.401   1.520  0.2018  0.5641  0.1866
11181SOL    HW235266   1.584   1.359   1.661  0.6676  2.4656  0.8973
11182SOL     OW35267   1.889   1.357   3.225  0.0613  0.0092  0.5362
11182SOL    HW135268   1.821   1.379   3.288  1.3707  0.6698  1.7872
11182SOL    HW235269   1.882   1.424   3.157 -0.1215  0.4737  1.0058
11183SOL     OW35270   1.883   2.433   6.775 -0.3860  0.1749  0.0405
11183SOL    HW135271   1.909   2.347   6.742  0.2079  1.2177 -2.5316
11183SOL    HW235272   1.791   2.423   6.801 -0.1414 -1.3575  0.3854
11184SOL     OW35273   5.409   1.712   8.180 -0.4808 -0.3623  0.3652
11184SOL    HW135274   5.497   1.695   8.147 -0.4431  1.4132 -0.5574
11184SOL    HW235275   5.420   1.780   8.246 -1.3368  1.6077 -1.4071
11185SOL     OW35276   1.302   9.006   3.028  0.7796 -0.1275 -0.0220
11185SOL    HW135277   1.238   8.975   3.092  1.1474  0.7541  0.7924
11185SOL    HW235278   1.371   8.940   3.030  0.1959 -0.7676 -0.4636
11186SOL     OW35279   7.480   0.957   3.036 -0.4452 -0.1074  0.4548
11186SOL    HW135280   7.425   1.035   3.044  0.3794  0.5715 -0.3438
11186SOL    HW235281   7.460   0.921   2.950 -0.5931 -0.6130  0.6942
11187SOL     OW35282   8.141   3.271   8.186 -0.2126 -0.5942  0.7441
11187SOL    HW135283   8.056   3.312   8.167  0.1137 -0.1444  0.2195
11187SOL    HW235284   8.203   3.344   8.191  0.1620 -0.9272  1.0303
11188SOL     OW35285   2.762   0.429   0.334  0.6483 -0.5591 -0.2491
11188SOL    HW135286   2.780   0.503   0.392 -1.3531  0.3654 -0.7543
11188SOL    HW235287   2.753   0.354   0.393 -1.3685  0.3670  0.6834
11189SOL     OW35288   3.871   0.921   0.397 -0.3969 -0.5061  0.7914
11189SOL    HW135289   3.904   0.995   0.448 -0.5939  0.4429 -0.4236
11189SOL    HW235290   3.778   0.915   0.421 -1.4413  2.1895 -1.9027
11190SOL     OW35291   8.171   7.625   5.089 -0.0718 -0.4728 -0.1993
11190SOL    HW135292   8.127   7.672   5.018  0.5155 -0.2412 -0.4141
11190SOL    HW235293   8.182   7.536   5.056  1.3986 -0.0455 -0.9547
11191SOL     OW35294   6.402   7.206   0.638  0.1499 -0.3909 -0.2739
11191SOL    HW135295   6.397   7.191   0.543 -2.2472 -1.4487 -0.0508
11191SOL    HW235296   6.321   7.253   0.659  0.8136  0.1425  1.2170
11192SOL     OW35297   0.654   6.084   3.339  0.2797 -0.3253  0.2748
11192SOL    HW135298   0.599   6.010   3.365  1.8513 -1.5964  0.1611
11192SOL    HW235299   0.672   6.130   3.421  3.0533 -2.8042  1.2474
11193SOL     OW35300   6.778   3.133   2.023 -0.0469 -0.0681 -0.5848
11193SOL    HW135301   6.777   3.039   2.004  0.7069 -0.2607  0.2439
11193SOL    HW235302   6.742   3.174   1.945 -3.1532 -1.2000  0.1435
11194SOL     OW35303   7.169   5.769   6.387  0.0436 -0.2419  0.1586
11194SOL    HW135304   7.259   5.772   6.421  0.2413  0.3457 -0.3867
11194SOL    HW235305   7.173   5.822   6.308 -1.2252  1.4395  1.1621
11195SOL     OW35306   0.352   1.399   6.370 -0.4227 -0.1632  0.1836
11195SOL    HW135307   0.377   1.372   6.458 -0.3660  0.5982  0.4101
11195SOL    HW235308   0.360   1.320   6.317  1.2538 -0.2283  0.4963
11196SOL     OW35309   4.559   1.730   3.828 -0.0803 -0.4352  0.1063
11196SOL    HW135310   4.486   1.667   3.829  0.3056 -0.8921  0.2615
11196SOL    HW235311   4.597   1.721   3.741  1.2190 -1.9070  0.7800
11197SOL     OW35312   1.076   8.867   3.155 -0.1394  0.3908  0.2256
11197SOL    HW135313   1.026   8.795   3.115  0.0158  1.4878 -2.0799
11197SOL    HW235314   1.018   8.901   3.223 -1.0287 -0.6365  0.0130
11198SOL     OW35315   8.298   5.132   2.453 -0.0336 -0.2159  0.1577
11198SOL    HW135316   8.234   5.118   2.523  1.1569 -0.0597  1.3198
11198SOL    HW235317   8.253   5.104   2.374 -1.8082  0.6072  0.8133
11199SOL     OW35318   5.105   4.776   5.831  0.0365  0.7790 -0.0326
11199SOL    HW135319   5.103   4.680   5.826 -0.5354  0.8254 -0.8029
11199SOL    HW235320   5.134   4.794   5.921  0.2981 -0.1120  0.0782
11200SOL     OW35321   0.035   0.937   6.814  0.1251  0.3065 -0.5688
11200SOL    HW135322   0.008   1.018   6.857 -0.1431 -0.1622  0.1729
11200SOL    HW235323  -0.024   0.871   6.849  0.2049 -0.1752 -1.3278
11201SOL     OW35324   9.451   0.467   9.427  0.0494 -0.4659  0.2773
11201SOL    HW135325   9.423   0.401   9.363  1.1191 -0.1494 -0.5525
11201SOL    HW235326   9.509   0.525   9.377  1.3240 -0.5041  1.6555
11202SOL     OW35327   6.775   9.215   7.818 -0.1561  0.3985  0.2355
11202SOL    HW135328   6.841   9.284   7.829  0.8900 -0.3659 -0.9159
11202SOL    HW235329   6.817   9.151   7.761 -1.8029 -0.2631 -0.3003
11203SOL     OW35330   7.500   0.540   2.846  0.7448 -0.1754  0.0987
11203SOL    HW135331   7.594   0.526   2.859  0.8524 -0.6702 -1.1194
11203SOL    HW235332   7.471   0.465   2.794  0.0874  0.9777 -1.2641
11204SOL     OW35333   2.475   0.946   5.864 -0.2451  0.2545  0.0165
11204SOL    HW135334   2.515   0.892   5.797  1.5796  1.1409  0.3199
11204SOL    HW235335   2.403   0.894   5.898  0.4007 -1.2552 -0.8525
11205SOL     OW35336   4.150   1.988   8.854 -0.5875  0.2634  0.0971
11205SOL    HW135337   4.160   2.005   8.948 -1.0172 -0.8781  0.3717
11205SOL    HW235338   4.074   2.040   8.828 -1.4416 -0.6095  0.7526
11206SOL     OW35339   6.442   5.305   2.804  0.3750 -0.4897 -0.5273
11206SOL    HW135340   6.516   5.346   2.850  1.2966 -2.0286 -0.5806
11206SOL    HW235341   6.413   5.236   2.863 -1.9524  0.9447  0.1129
11207SOL     OW35342   9.421   4.796   0.665 -0.5537  0.2292 -0.5966
11207SOL    HW135343   9.431   4.720   0.724 -0.5842 -0.2209 -1.1633
11207SOL    HW235344   9.355   4.768   0.602 -2.2342  1.5356  0.4796
11208SOL     OW35345   1.924   8.549   4.952 -0.2026  0.6090 -0.1392
11208SOL    HW135346   1.961   8.481   4.896  0.6575  0.1851  0.9027
11208SOL    HW235347   1.942   8.630   4.905 -0.4989  0.1880 -1.0020
11209SOL     OW35348   3.969   3.856   5.221  0.3973  0.4130 -1.0408
11209SOL    HW135349   4.047   3.907   5.239  0.9240 -0.9684  0.9536
11209SOL    HW235350   3.981   3.824   5.131  1.1401  1.8174 -1.4652
11210SOL     OW35351   9.494   6.087   8.679  0.2413 -0.2653  0.3698
11210SOL    HW135352   9.557   6.132   8.624 -0.8582 -1.3807 -1.9305
11210SOL    HW235353   9.547   6.027   8.732  1.1803 -0.6781 -0.9946
11211SOL     OW35354   5.394   2.823   1.446 -0.4899  0.0699  0.2920
11211SOL    HW135355   5.315   2.775   1.468  0.3020 -1.5172 -0.1589
11211SOL    HW235356   5.388   2.905   1.496 -1.6067 -0.7433  1.5460
11212SOL     OW35357   3.960   6.178   0.162 -0.1871  0.1172 -0.0621
11212SOL    HW135358   3.955   6.272   0.178 -0.7883  0.1617 -0.4923
11212SOL    HW235359   4.024   6.146   0.227 -0.1983  0.7712  0.2792
11213SOL     OW35360   2.687   1.015   2.393  0.6199  0.3325 -0.1340
11213SOL    HW135361   2.689   0.919   2.399 -3.1875  0.1536  1.2885
11213SOL    HW235362   2.668   1.033   2.301 -0.5201 -0.4483 -0.0805
11214SOL     OW35363   1.239   3.446   9.549 -0.5810  0.0032  0.6786
11214SOL    HW135364   1.276   3.443   9.638 -0.2220 -0.2233  0.5242
11214SOL    HW235365   1.190   3.529   9.546  0.9308  0.9411  0.4976
11215SOL     OW35366   7.536   1.109   1.533  0.0784  0.0963 -0.2882
11215SOL    HW135367   7.488   1.076   1.457  0.5332  0.6242 -0.8186
11215SOL    HW235368   7.602   1.167   1.496  0.8027 -0.2261  0.4651
11216SOL     OW35369   5.683   7.154   0.874  0.5039 -0.1244  0.1428
11216SOL    HW135370   5.683   7.072   0.924  0.1057  0.4172  1.0678
11216SOL    HW235371   5.591   7.180   0.870  0.6078  0.1862 -0.3022
11217SOL     OW35372   4.002   7.797   8.556  0.4048 -0.6663  0.0095
11217SOL    HW135373   4.088   7.774   8.590  0.5363  0.0307  0.1565
11217SOL    HW235374   4.013   7.796   8.460  0.7066 -0.0917  0.0369
11218SOL     OW35375   5.250   0.977   4.527 -0.2928  0.0656  0.4642
11218SOL    HW135376   5.264   0.970   4.432 -1.1063  2.3245  0.1185
11218SOL    HW235377   5.338   0.988   4.563 -0.1475  1.7952 -0.3373
11219SOL     OW35378   7.364   3.933   5.827 -0.8161 -0.1822  0.8183
11219SOL    HW135379   7.324   3.887   5.902 -2.2250  0.1284  0.2950
11219SOL    HW235380   7.331   4.023   5.835 -2.1687 -0.4680 -0.9361
11220SOL     OW35381   3.000   6.820   8.306 -0.2111 -0.4980 -0.8431
11220SOL    HW135382   2.919   6.775   8.280 -0.4225 -1.2117  0.9070
11220SOL    HW235383   3.051   6.753   8.351  1.6564 -0.2063 -2.4410
11221SOL     OW35384   5.039   4.807   6.143 -0.1495  0.2725 -0.4397
11221SOL    HW135385   4.963   4.755   6.116 -0.7683  0.1657  1.3575
11221SOL    HW235386   5.003   4.890   6.172  0.3982  0.2595  0.3336
11222SOL     OW35387   3.387   4.048   3.047 -0.1743  0.2413  0.5780
11222SOL    HW135388   3.480   4.066   3.060  0.1899 -1.0870  0.0169
11222SOL    HW235389   3.361   3.997   3.123 -0.5309  0.8716  0.8857
11223SOL     OW35390   1.094   3.816   6.030 -0.3364 -0.2207  0.1571
11223SOL    HW135391   1.116   3.733   6.073  0.5096 -0.2012 -0.2348
11223SOL    HW235392   1.156   3.879   6.067 -2.3073  0.7439  2.0562
11224SOL     OW35393   4.335   1.132   8.267  0.4347  0.0331  0.0385
11224SOL    HW135394   4.372   1.219   8.283  1.6492 -0.7631  1.9511
11224SOL    HW235395   4.331   1.125   8.172 -1.0504  2.6988 -0.1788
11225SOL     OW35396   6.308   0.072   6.045  0.0172  0.2638  0.7343
11225SOL    HW135397   6.391   0.041   6.082  0.6027  1.9036  0.8635
11225SOL    HW235398   6.309   0.039   5.955  0.2968 -0.6456  1.0584
11226SOL     OW35399   0.750   0.341   6.486  0.1515  0.4002  0.0313
11226SOL    HW135400   0.739   0.270   6.549  0.4409 -0.9585 -1.3983
11226SOL    HW235401   0.697   0.316   6.411  1.4652  0.9069 -1.1256
11227SOL     OW35402   3.898   0.695   6.862  0.1241 -0.0185  0.3534
11227SOL    HW135403   3.877   0.780   6.823  0.0841 -0.2599 -0.1490
11227SOL    HW235404   3.817   0.645   6.857  1.1667 -1.6967 -3.4728
11228SOL     OW35405   1.599   6.092   8.380  0.1321  0.3132 -0.9926
11228SOL    HW135406   1.660   6.072   8.451  0.3755  1.0369 -0.9931
11228SOL    HW235407   1.642   6.059   8.302 -0.3137 -0.8471 -0.7667
11229SOL     OW35408   6.820   5.210   3.511  0.0189 -0.6524 -0.6784
11229SOL    HW135409   6.731   5.186   3.539 -0.3203  0.1381 -1.0334
11229SOL    HW235410   6.809   5.296   3.471  0.7289 -1.1501 -1.9715
11230SOL     OW35411   4.656   3.475   0.375  0.1069  0.0043  0.0009
11230SOL    HW135412   4.723   3.507   0.436 -0.1573  0.4379  0.0646
11230SOL    HW235413   4.659   3.537   0.302  0.4973 -0.5755 -0.4813
11231SOL     OW35414   6.476   0.707   4.788 -0.2616  0.0268  0.3773
11231SOL    HW135415   6.459   0.788   4.836 -0.8674  0.7966 -1.0723
11231SOL    HW235416   6.542   0.661   4.840  0.0039  1.3988  1.2875
11232SOL     OW35417   1.274   9.498   6.704 -0.4099  0.3787  0.5195
11232SOL    HW135418   1.253   9.591   6.709 -1.2021  0.3025 -0.9210
11232SOL    HW235419   1.279   9.480   6.610 -1.0976 -1.2152  0.7683
11233SOL     OW35420   9.498   4.448   4.563 -0.0409 -0.6727 -0.6530
11233SOL    HW135421   9.471   4.440   4.472 -0.0902  0.6896 -0.7784
11233SOL    HW235422   9.417   4.443   4.613 -0.1723  0.0673 -0.7919
11234SOL     OW35423   2.020   6.205   2.028 -0.1752  0.5850 -0.0967
11234SOL    HW135424   1.997   6.211   1.935 -0.8791  0.0687  0.0384
11234SOL    HW235425   2.101   6.256   2.036 -0.6965  1.5399 -0.7865
11235SOL     OW35426   5.391   0.366   3.625 -0.4077 -0.0760  0.3485
11235SOL    HW135427   5.446   0.388   3.549 -0.3702  0.2450  0.4654
11235SOL    HW235428   5.368   0.451   3.663 -1.6723 -0.1651 -0.1797
11236SOL     OW35429   3.415   9.033   8.949  0.1205  0.1002  0.0442
11236SOL    HW135430   3.358   8.962   8.918 -0.8226  1.5823 -1.8968
11236SOL    HW235431   3.491   9.030   8.891  1.6434 -1.2628  2.0100
11237SOL     OW35432   1.579   6.216   3.197  0.4561 -0.5499  0.4843
11237SOL    HW135433   1.640   6.259   3.257  0.2743 -0.3162  0.5047
11237SOL    HW235434   1.541   6.288   3.145  4.0357 -0.9819 -3.2437
11238SOL     OW35435   7.896   6.419   9.507 -0.6707  0.8268  0.6874
11238SOL    HW135436   7.953   6.496   9.513 -0.5692  0.7024  1.3630
11238SOL    HW235437   7.927   6.372   9.430 -0.6829  1.4141  0.3108
11239SOL     OW35438   7.904   5.923   4.259 -0.3736  0.3210 -0.2617
11239SOL    HW135439   7.817   5.953   4.234 -0.1157  1.1691 -0.1623
11239SOL    HW235440   7.955   6.003   4.272  0.3917 -0.1608 -0.2049
11240SOL     OW35441   2.812   3.782   0.275  0.0749 -0.0594 -0.1515
11240SOL    HW135442   2.901   3.814   0.263  0.4115 -0.6464  0.7129
11240SOL    HW235443   2.759   3.860   0.290 -0.3005  0.7716 -4.3667
11241SOL     OW35444   2.885   7.481   4.822 -0.0636 -0.1343  0.3623
11241SOL    HW135445   2.903   7.427   4.745 -0.7642 -2.5850  1.7767
11241SOL    HW235446   2.791   7.499   4.818  0.1098  0.6948  0.0619
11242SOL     OW35447   4.273   5.240   2.169  0.2202  0.2611 -0.5287
11242SOL    HW135448   4.284   5.167   2.108  0.1870  0.6580 -1.0144
11242SOL    HW235449   4.179   5.241   2.188  0.2744 -0.0485 -0.2355
11243SOL     OW35450   3.486   6.493   6.470 -0.5455  0.2366  0.3291
11243SOL    HW135451   3.567   6.536   6.442 -0.9879  1.4450  0.8015
11243SOL    HW235452   3.473   6.422   6.407  0.8020  0.1086  0.1667
11244SOL     OW35453   1.689   8.347   6.852  0.1545 -1.1833  0.3115
11244SOL    HW135454   1.734   8.283   6.797  0.6212  0.0267 -0.7699
11244SOL    HW235455   1.704   8.431   6.808  0.4468 -0.1693  2.2276
11245SOL     OW35456   9.515   0.717   7.548  0.3085  0.3026  0.3446
11245SOL    HW135457   9.553   0.629   7.546  0.1499  0.2260  0.7078
11245SOL    HW235458   9.581   0.773   7.506  1.0542  0.2613  1.4325
11246SOL     OW35459   2.074   2.073   5.277  0.8197  0.5335 -0.6747
11246SOL    HW135460   2.056   2.038   5.190 -2.7892  1.3475 -0.4320
11246SOL    HW235461   2.099   1.997   5.330 -2.9557 -1.2051 -1.0791
11247SOL     OW35462   2.009   3.628   6.731 -0.1052 -0.6273  0.2285
11247SOL    HW135463   1.991   3.650   6.822 -0.1065  0.2888  0.0213
11247SOL    HW235464   1.954   3.552   6.713 -1.2317  0.0722  0.5752
11248SOL     OW35465   0.265   6.369   9.664 -0.5588 -0.5719 -0.2382
11248SOL    HW135466   0.273   6.382   9.759 -1.2850  0.7883 -0.3278
11248SOL    HW235467   0.212   6.443   9.635  1.1435  0.0533 -1.9753
11249SOL     OW35468   0.717   5.297   5.417  0.5434 -0.1494  0.5966
11249SOL    HW135469   0.711   5.389   5.442  0.3322 -0.1254  0.4645
11249SOL    HW235470   0.628   5.274   5.391  0.5828 -0.4075  0.6858
11250SOL     OW35471   5.894   1.145   6.877  0.4157 -0.0812 -0.8070
11250SOL    HW135472   5.844   1.075   6.918  1.0709  0.4793  1.0211
11250SOL    HW235473   5.945   1.101   6.808 -1.3794 -0.8881 -1.6864
11251SOL     OW35474   9.074   0.674   6.982 -0.1753  0.7780 -0.3352
11251SOL    HW135475   9.099   0.612   6.913  0.4195  0.5826  0.0494
11251SOL    HW235476   9.154   0.688   7.032 -0.6641  0.6813  0.5047
11252SOL     OW35477   0.707   7.841   7.794 -0.1509 -0.4225 -0.2133
11252SOL    HW135478   0.773   7.889   7.743  1.9228  0.0109  2.5921
11252SOL    HW235479   0.631   7.899   7.795 -0.1925 -0.3473 -2.4967
11253SOL     OW35480   0.341   3.690   1.350  0.1720  0.1794 -0.5234
11253SOL    HW135481   0.312   3.703   1.440 -0.4800  0.3683 -0.7515
11253SOL    HW235482   0.346   3.779   1.313 -1.8361  0.0114 -1.3442
11254SOL     OW35483   9.064   2.410   9.525 -0.2638  0.0462  1.2184
11254SOL    HW135484   9.039   2.350   9.596 -0.3320 -0.2329  0.9625
11254SOL    HW235485   9.159   2.416   9.531 -0.0599 -1.5023  0.1436
11255SOL     OW35486   7.983   0.927   6.058 -0.5160  0.1396  0.0433
11255SOL    HW135487   7.990   0.856   6.122 -2.0774  0.0021  0.0883
11255SOL    HW235488   7.922   0.990   6.098  0.7150  1.4557 -0.0663
11256SOL     OW35489   3.258   2.864   4.324 -0.5751  0.0179 -0.2807
11256SOL    HW135490   3.272   2.851   4.418 -0.0463 -0.5288 -0.4275
11256SOL    HW235491   3.174   2.910   4.318 -0.1417  0.9531  0.5027
11257SOL     OW35492   3.881   8.176   1.753  0.1693  0.1109  0.5407
11257SOL    HW135493   3.885   8.156   1.846 -1.2549  2.7124  1.2561
11257SOL    HW235494   3.790   8.158   1.728  0.3190  0.2398 -0.1338
11258SOL     OW35495   7.476   5.968   4.696  0.0570 -0.2474  0.4955
11258SOL    HW135496   7.412   5.931   4.635  1.0306 -0.3331 -0.4957
11258SOL    HW235497   7.510   5.892   4.743 -0.6696 -0.1849  1.1467
11259SOL     OW35498   3.875   5.793   7.182  0.1902  0.0451  0.3525
11259SOL    HW135499   3.900   5.701   7.192 -0.2795 -0.2330 -0.8138
11259SOL    HW235500   3.797   5.802   7.237 -1.5351 -1.0726 -1.7523
11260SOL     OW35501   5.041   9.543   7.179 -0.4560 -0.1965  0.0056
11260SOL    HW135502   4.990   9.466   7.201 -2.3178  1.2900  1.1861
11260SOL    HW235503   5.011   9.569   7.092 -1.9324  0.7637  0.7591
11261SOL     OW35504   1.916   4.737   8.365  0.0502  0.2576  0.0546
11261SOL    HW135505   1.920   4.802   8.434 -2.0222 -0.3746  0.8426
11261SOL    HW235506   1.843   4.765   8.309  0.2914 -0.4116 -0.6246
11262SOL     OW35507   3.831   6.637   1.140 -0.6792  0.2799  0.5397
11262SOL    HW135508   3.829   6.687   1.059  2.2108  0.0887  0.2365
11262SOL    HW235509   3.920   6.650   1.174 -0.6734 -2.4625  1.8389
11263SOL     OW35510   9.464   8.118   7.188  0.3625 -0.2924 -0.2428
11263SOL    HW135511   9.369   8.124   7.202  0.3967  0.4960 -0.2920
11263SOL    HW235512   9.478   8.029   7.157 -0.5986  0.1034 -1.9649
11264SOL     OW35513   9.408   6.991   0.459  0.0991 -0.3121  0.2458
11264SOL    HW135514   9.393   6.939   0.538 -0.0725 -1.6431 -0.6342
11264SOL    HW235515   9.476   7.054   0.484  0.0214 -0.6845  1.4568
11265SOL     OW35516   8.172   2.736   9.543  0.2217 -0.2845  0.2255
11265SOL    HW135517   8.125   2.814   9.574  0.1943  0.6732 -2.0350
11265SOL    HW235518   8.114   2.697   9.479  2.0476  0.4133 -1.9798
11266SOL     OW35519   2.128   8.919   3.647 -0.5867  0.4658 -0.1318
11266SOL    HW135520   2.158   8.940   3.735 -0.6741 -1.1912  0.3375
11266SOL    HW235521   2.032   8.919   3.653 -0.6055  0.9873 -0.3946
11267SOL     OW35522   3.278   0.405   1.613 -0.3428  0.0911  0.1702
11267SOL    HW135523   3.264   0.312   1.631 -0.9516 -0.1801 -1.5133
11267SOL    HW235524   3.191   0.439   1.591 -0.3648  1.4016  2.0493
11268SOL     OW35525   4.480   0.061   0.355  0.1829 -0.4992  1.0233
11268SOL    HW135526   4.483  -0.016   0.411  1.5977 -1.8876 -0.8530
11268SOL    HW235527   4.542   0.043   0.284 -0.6216  1.6780 -0.3602
11269SOL     OW35528   4.051   4.757   6.037 -0.1176  0.0284 -0.2475
11269SOL    HW135529   4.125   4.813   6.062 -0.5936  0.1736  0.8811
11269SOL    HW235530   3.995   4.755   6.114 -1.8321  0.7655 -1.4084
11270SOL     OW35531   5.977   2.736   3.806 -0.0920  0.5372  0.3440
11270SOL    HW135532   5.994   2.660   3.862  2.4358  0.8388  0.0728
11270SOL    HW235533   5.957   2.807   3.866  0.4123  0.3354  0.7553
11271SOL     OW35534   2.447   5.371   6.031  0.0461 -0.1876  0.3959
11271SOL    HW135535   2.467   5.459   6.000  2.1224 -0.3946  0.9984
11271SOL    HW235536   2.407   5.328   5.955  0.4899  0.7928 -0.4174
11272SOL     OW35537   2.454   5.520   3.362  0.0996  0.2971  0.4061
11272SOL    HW135538   2.518   5.540   3.430 -0.1984 -1.4564  1.2552
11272SOL    HW235539   2.506   5.497   3.285  0.4402  2.0135  0.0906
11273SOL     OW35540   7.349   7.100   1.537 -0.1273 -0.4850  0.3557
11273SOL    HW135541   7.334   7.101   1.442  0.3025  0.3027  0.2844
11273SOL    HW235542   7.443   7.090   1.546 -0.3161 -2.0660  0.7367
11274SOL     OW35543   6.019   8.573   8.330  0.1493  0.3823  0.0151
11274SOL    HW135544   5.964   8.604   8.402 -0.7418  0.0006 -0.4739
11274SOL    HW235545   6.016   8.477   8.338  0.2462  0.3461 -0.3822
11275SOL     OW35546   6.002   2.028   8.547  0.0320  0.4424 -0.0137
11275SOL    HW135547   5.949   2.023   8.627 -0.2528  0.8165 -0.1760
11275SOL    HW235548   6.059   2.104   8.561  1.3056 -0.5972  0.6215
11276SOL     OW35549   6.869   3.772   0.398 -0.0009 -0.4175  0.5288
11276SOL    HW135550   6.851   3.853   0.446  2.1833  1.7983 -2.0237
11276SOL    HW235551   6.786   3.749   0.357 -0.3489  1.4745  0.0682
11277SOL     OW35552   5.412   7.922   5.718 -0.0863  0.1519  0.0264
11277SOL    HW135553   5.389   7.926   5.625  0.0986 -0.1204 -0.0316
11277SOL    HW235554   5.331   7.898   5.762 -0.6989  2.2307  0.1610
11278SOL     OW35555   2.555   6.293   4.004 -0.3673  0.6983 -0.0851
11278SOL    HW135556   2.639   6.339   4.012 -0.4821  0.7244  1.2758
11278SOL    HW235557   2.562   6.243   3.923  0.5005  1.6226 -0.6026
11279SOL     OW35558   2.117   7.587   5.897 -0.5191  0.7659 -0.2880
11279SOL    HW135559   2.144   7.606   5.808  0.6969  0.6981  0.0516
11279SOL    HW235560   2.109   7.491   5.901 -5.6587  0.8338 -1.7149
11280SOL     OW35561   6.833   4.824   2.168  0.4336  0.1074 -0.4927
11280SOL    HW135562   6.910   4.817   2.224  0.5284 -0.9876 -0.7481
11280SOL    HW235563   6.863   4.874   2.092  0.4974  0.9456  0.0622
11281SOL     OW35564   5.994   2.920   8.044 -0.1030  0.0067  0.7497
11281SOL    HW135565   5.936   2.885   7.976 -1.5007  0.8173  1.4652
11281SOL    HW235566   6.019   3.007   8.012  0.1947 -0.0850  0.7341
11282SOL     OW35567   6.550   9.075   1.951 -0.0381  0.1151 -0.1032
11282SOL    HW135568   6.618   9.011   1.930  0.8439  1.2065 -0.6546
11282SOL    HW235569   6.502   9.087   1.869 -0.0746  0.3119 -0.0538
11283SOL     OW35570   8.353   9.100   6.106 -0.5391 -0.1881 -0.2095
11283SOL    HW135571   8.431   9.128   6.154 -0.2959  0.6286 -1.0551
11283SOL    HW235572   8.329   9.016   6.146 -0.0860  0.2542  1.0215
11284SOL     OW35573   4.582   4.448   1.994  0.2071 -0.3946 -0.0131
11284SOL    HW135574   4.568   4.451   1.899 -2.0206 -0.8439  0.2331
11284SOL    HW235575   4.494   4.435   2.030  0.9321  0.2795  2.1498
11285SOL     OW35576   7.287   4.526   1.553 -0.6299 -0.0595 -0.1702
11285SOL    HW135577   7.321   4.459   1.494 -0.6450 -1.0036  0.8503
11285SOL    HW235578   7.284   4.606   1.500 -0.5009 -0.8316 -1.3809
11286SOL     OW35579   1.905   1.971   1.287 -0.0996  0.4104 -0.2932
11286SOL    HW135580   1.819   1.999   1.255 -0.1628  2.5814  1.5109
11286SOL    HW235581   1.885   1.905   1.353 -0.2796 -0.0693 -0.8169
11287SOL     OW35582   6.613   7.262   5.778 -0.2247 -0.6644 -0.1580
11287SOL    HW135583   6.682   7.311   5.822 -1.4508  1.0111 -0.0054
11287SOL    HW235584   6.532   7.307   5.803 -1.4609 -2.9439  0.1913
11288SOL     OW35585   5.035   1.931   7.240  0.0812 -0.4729 -0.0437
11288SOL    HW135586   5.055   1.910   7.148  0.6184  0.5833 -0.1924
11288SOL    HW235587   4.967   1.869   7.265  0.2434 -1.0717 -1.0217
11289SOL     OW35588   1.076   1.420   7.298  0.5928 -0.3712 -0.6250
11289SOL    HW135589   0.981   1.434   7.289  0.5084 -1.3017 -1.2712
11289SOL    HW235590   1.106   1.401   7.209  1.8774  2.6558 -0.9745
11290SOL     OW35591   7.745   2.626   3.756 -0.0647  0.7955  0.3280
11290SOL    HW135592   7.820   2.634   3.697  0.1552 -1.1261  0.2822
11290SOL    HW235593   7.678   2.581   3.703  0.1169 -0.9060  1.4705
11291SOL     OW35594   7.973   0.463   6.561  0.0402  0.0836  0.1962
11291SOL    HW135595   8.029   0.538   6.578  2.4380 -1.2402 -1.3320
11291SOL    HW235596   7.891   0.501   6.528  1.0742  2.0116 -0.2685
11292SOL     OW35597   1.337   0.875   8.817  0.3670 -0.1388  0.1277
11292SOL    HW135598   1.341   0.790   8.860 -0.6243 -0.1847  0.1542
11292SOL    HW235599   1.381   0.935   8.877  0.4105 -0.4948  0.4492
11293SOL     OW35600   4.401   9.214   8.451 -0.0080  0.0447  0.2463
11293SOL    HW135601   4.486   9.184   8.418 -1.0861 -0.9865 -1.8219
11293SOL    HW235602   4.340   9.193   8.381 -2.1434 -0.1189  2.0395
11294SOL     OW35603   6.399   6.094   3.394 -0.2092 -0.3445 -1.1074
11294SOL    HW135604   6.410   6.189   3.390  0.2809 -0.3400  0.0296
11294SOL    HW235605   6.454   6.060   3.324  1.1858  0.1151 -0.2639
11295SOL     OW35606   7.136   1.492   6.604  0.0620 -0.4107 -0.0952
11295SOL    HW135607   7.091   1.492   6.519 -1.6883  0.2705  0.7883
11295SOL    HW235608   7.227   1.513   6.582 -0.5550  0.8569 -1.7146
11296SOL     OW35609   5.873   8.178   4.967 -0.3385 -0.1792 -0.3751
11296SOL    HW135610   5.841   8.183   5.057 -0.1654 -0.2237 -0.3100
11296SOL    HW235611   5.848   8.091   4.938 -0.9668  0.0713 -0.5915
11297SOL     OW35612   7.315   6.916   9.264  0.8919 -0.5868 -0.0337
11297SOL    HW135613   7.392   6.868   9.234  0.1437 -0.1893 -2.9107
11297SOL    HW235614   7.296   6.978   9.193 -0.2244  1.5680  2.0035
11298SOL     OW35615   6.199   9.365   5.527  0.3336 -0.1074  0.3127
11298SOL    HW135616   6.242   9.314   5.458 -0.9366 -0.6717 -0.0947
11298SOL    HW235617   6.258   9.358   5.602  0.8114 -1.1115 -0.1338
11299SOL     OW35618   3.086   5.753   9.177  0.2665  0.4522  0.2479
11299SOL    HW135619   3.018   5.820   9.186 -1.3098 -1.1481  0.7396
11299SOL    HW235620   3.045   5.683   9.125  1.6255 -0.4599  0.3420
11300SOL     OW35621   5.668   3.099   2.053  0.5063  0.8569 -0.0004
11300SOL    HW135622   5.735   3.162   2.081 -0.8504  2.8503 -0.9801
11300SOL    HW235623   5.621   3.076   2.133  0.5184  1.7502  0.2724
11301SOL     OW35624   4.045   0.541   3.176  0.0295 -0.0861 -0.1634
11301SOL    HW135625   4.103   0.533   3.252 -1.5877 -0.9169  1.0478
11301SOL    HW235626   4.018   0.632   3.175 -0.0426 -0.1001  0.3467
11302SOL     OW35627   6.937   6.860   1.693 -0.6915  0.5958  0.0112
11302SOL    HW135628   6.913   6.841   1.784  1.0387  2.7331  0.9965
11302SOL    HW235629   6.859   6.835   1.643 -2.0797  0.2901  2.1615
11303SOL     OW35630   4.908   4.528   9.577  0.3065 -0.0022  0.5290
11303SOL    HW135631   4.855   4.592   9.529  1.2605  0.2354 -0.2613
11303SOL    HW235632   4.966   4.491   9.510  0.9387 -0.4461  1.3106
11304SOL     OW35633   1.488   5.961   0.449  0.2836  0.1902 -0.3902
11304SOL    HW135634   1.434   6.023   0.500  0.3495 -0.9576  1.1490
11304SOL    HW235635   1.577   5.995   0.458  0.3024 -0.0270  0.3337
11305SOL     OW35636   9.645   7.402   1.493 -0.6748  0.2291 -0.1791
11305SOL    HW135637   9.606   7.484   1.525 -1.7477 -0.3018 -0.0765
11305SOL    HW235638   9.704   7.430   1.423 -1.2397  1.0817 -0.3406
11306SOL     OW35639   2.153   7.447   1.223  0.4964 -0.5331  0.5964
11306SOL    HW135640   2.181   7.448   1.314 -0.7070  1.7036  1.0410
11306SOL    HW235641   2.058   7.463   1.227  0.6101  0.9354 -1.0244
11307SOL     OW35642   5.259   1.167   7.804  0.2128 -0.2014 -0.3471
11307SOL    HW135643   5.290   1.248   7.763  0.0096  0.3110  0.4989
11307SOL    HW235644   5.185   1.141   7.750 -0.1697  0.5673 -0.2062
11308SOL     OW35645   0.616   6.436   7.082  0.5707 -0.0724 -0.3092
11308SOL    HW135646   0.580   6.372   7.021  0.9055 -0.2476 -0.3234
11308SOL    HW235647   0.600   6.520   7.041 -1.2405 -0.0240  0.3932
11309SOL     OW35648   5.996   4.078   3.343 -0.4117 -0.3463 -0.5048
11309SOL    HW135649   5.953   4.163   3.351 -0.6272 -0.5673  1.0474
11309SOL    HW235650   6.050   4.071   3.423 -1.3187 -2.1566  0.0036
11310SOL     OW35651   3.677   9.000   4.129  0.4797  0.1476  0.6123
11310SOL    HW135652   3.650   9.091   4.135 -0.4589 -0.0152 -0.7586
11310SOL    HW235653   3.757   9.002   4.076  1.6069  0.3383  2.2487
11311SOL     OW35654   5.681   8.353   3.378 -0.1426 -0.8917 -0.2869
11311SOL    HW135655   5.745   8.282   3.387 -1.8571 -2.6267 -1.0341
11311SOL    HW235656   5.728   8.423   3.333  2.2545 -0.5958  2.3717
11312SOL     OW35657   3.076   1.816   7.467 -0.0557 -0.9623  0.3098
11312SOL    HW135658   2.984   1.834   7.487 -0.7023 -0.0354 -2.9728
11312SOL    HW235659   3.108   1.767   7.543 -3.3507 -1.6728  1.3848
11313SOL     OW35660   8.135   8.177   4.831  0.3106 -0.2207 -0.0698
11313SOL    HW135661   8.159   8.113   4.764 -3.2590  0.5181 -2.3420
11313SOL    HW235662   8.175   8.258   4.803  0.0789 -0.2422 -0.4665
11314SOL     OW35663   8.399   0.081   8.439  0.2745  0.9685 -0.5946
11314SOL    HW135664   8.462   0.054   8.372  1.6466  1.3993  0.4497
11314SOL    HW235665   8.357   0.000   8.468  0.9508  0.5538 -0.7508
11315SOL     OW35666   9.696   3.445   3.956 -0.4191 -0.1964  0.1216
11315SOL    HW135667   9.640   3.368   3.939 -0.2136 -0.5477  0.9739
11315SOL    HW235668   9.684   3.501   3.880 -2.0383 -0.2141  0.3299
11316SOL     OW35669   4.829   9.362   0.438  0.2758  0.5166  0.1005
11316SOL    HW135670   4.880   9.393   0.513 -2.0548  2.4243  1.0382
11316SOL    HW235671   4.751   9.323   0.477 -0.1250 -0.1481 -1.3107
11317SOL     OW35672   3.436   8.233   8.968 -0.2493 -0.3210  0.0484
11317SOL    HW135673   3.481   8.290   9.029 -0.7854 -0.9489  1.0514
11317SOL    HW235674   3.505   8.178   8.931  0.8720  2.9630 -3.3882
11318SOL     OW35675   3.940   9.169   7.889  0.2431  0.5393 -0.4549
11318SOL    HW135676   3.947   9.168   7.793 -0.0590  0.8886 -0.4824
11318SOL    HW235677   3.953   9.260   7.913 -0.3409  0.5625 -0.2163
11319SOL     OW35678   6.126   1.038   1.184 -0.0733  0.2194 -1.1130
11319SOL    HW135679   6.115   1.132   1.197  1.9778  0.2163  1.3189
11319SOL    HW235680   6.192   1.032   1.114  0.3876  0.6480 -0.7301
11320SOL     OW35681   7.197   0.353   3.493 -0.6374  0.0544 -0.3512
11320SOL    HW135682   7.272   0.296   3.475 -0.4062  0.2052  0.1130
11320SOL    HW235683   7.123   0.293   3.503 -0.6662 -0.0692 -1.2230
11321SOL     OW35684   9.353   1.686   1.358 -0.1336 -0.6765 -0.4221
11321SOL    HW135685   9.388   1.597   1.367 -0.0216 -0.4593  1.8052
11321SOL    HW235686   9.270   1.675   1.312 -0.7207 -2.1225  0.8944
11322SOL     OW35687   9.188   5.115   7.418 -0.1438 -0.3798  0.3360
11322SOL    HW135688   9.238   5.180   7.468 -2.6035  0.8173  1.4477
11322SOL    HW235689   9.154   5.055   7.485  1.5679 -2.5314 -0.6206
11323SOL     OW35690   8.196   5.478   4.985 -0.2911  0.3150  0.0984
11323SOL    HW135691   8.245   5.436   4.914 -1.7102 -1.8819  0.3159
11323SOL    HW235692   8.250   5.463   5.063  0.4074  1.1379 -0.2158
11324SOL     OW35693   3.439   7.692   2.257 -0.3805 -0.1778  0.1018
11324SOL    HW135694   3.420   7.600   2.277  0.6305 -0.1065  1.5032
11324SOL    HW235695   3.364   7.721   2.204 -0.6376 -1.8387 -0.4882
11325SOL     OW35696   0.653   1.096   1.290  0.0462 -0.1951  0.3481
11325SOL    HW135697   0.690   1.020   1.244  1.3170  0.3530  0.4526
11325SOL    HW235698   0.618   1.151   1.220  0.9149  0.0704  0.1143
11326SOL     OW35699   6.842   3.940   3.462  0.2379  0.2887 -0.1043
11326SOL    HW135700   6.910   3.982   3.515  1.9541 -0.6007 -1.4828
11326SOL    HW235701   6.857   3.973   3.374 -0.6245 -0.5443 -0.5814
11327SOL     OW35702   2.515   8.288   3.483 -0.1344 -0.3816  0.1633
11327SOL    HW135703   2.494   8.381   3.471 -2.0204 -0.7906  0.0500
11327SOL    HW235704   2.503   8.273   3.577 -0.1525 -0.5936  0.1267
11328SOL     OW35705   6.626   6.411   9.061 -0.3115  0.3995  0.1298
11328SOL    HW135706   6.561   6.442   8.998 -0.0301 -0.0010 -0.3615
11328SOL    HW235707   6.579   6.410   9.145 -0.5480  1.3851  0.0237
11329SOL     OW35708   2.504   2.923   9.677 -0.1806 -0.5118 -0.2133
11329SOL    HW135709   2.451   3.002   9.678 -0.6234 -0.7993 -0.3313
11329SOL    HW235710   2.468   2.869   9.748  0.8206 -0.1601  0.5827
11330SOL     OW35711   2.341   2.585   7.283  0.0218 -0.1628 -0.0265
11330SOL    HW135712   2.422   2.604   7.237  0.7237 -1.3124  0.6905
11330SOL    HW235713   2.334   2.489   7.281 -0.5132 -0.1772  1.2481
11331SOL     OW35714   9.456   6.237   2.116 -0.3639  0.6745  0.3092
11331SOL    HW135715   9.515   6.163   2.129 -0.1848  0.4795 -1.4399
11331SOL    HW235716   9.392   6.207   2.052 -1.4090  1.4315  0.9531
11332SOL     OW35717   8.088   4.553   8.880  0.9015  0.4954 -0.1436
11332SOL    HW135718   8.129   4.639   8.897  3.3525 -0.3776 -1.1308
11332SOL    HW235719   8.151   4.490   8.915 -0.8142 -0.9471  0.4612
11333SOL     OW35720   2.139   3.512   5.727 -0.0814 -0.1435  0.0374
11333SOL    HW135721   2.158   3.452   5.799  0.7314  1.6871  1.4291
11333SOL    HW235722   2.217   3.567   5.721 -1.3469  1.6902 -0.2284
11334SOL     OW35723   4.602   6.683   4.613  0.7961  0.2716  0.0831
11334SOL    HW135724   4.655   6.626   4.668 -0.0297  0.6223  1.2849
11334SOL    HW235725   4.566   6.748   4.674  0.5327  1.1844 -1.0147
11335SOL     OW35726   8.546   7.206   6.749  0.3434  0.3555  0.1415
11335SOL    HW135727   8.523   7.223   6.657  1.0292 -0.3883 -0.1803
11335SOL    HW235728   8.474   7.243   6.799  0.4650  1.7107 -0.6481
11336SOL     OW35729   8.055   5.116   8.338 -0.4686 -0.4951  0.0042
11336SOL    HW135730   8.113   5.041   8.324 -0.5889 -0.6440  0.2806
11336SOL    HW235731   7.969   5.078   8.352 -0.3205 -0.3965  1.3695
11337SOL     OW35732   3.625   4.787   6.365 -0.1748 -0.0139 -0.2496
11337SOL    HW135733   3.652   4.724   6.432  1.0232  0.3896 -0.3297
11337SOL    HW235734   3.695   4.852   6.363 -1.5835  1.5801  0.1313
11338SOL     OW35735   8.834   1.820   8.912  0.2780 -0.3482  0.2367
11338SOL    HW135736   8.814   1.777   8.994 -0.8713 -0.4468 -0.0777
11338SOL    HW235737   8.759   1.876   8.895  1.4080  1.2655  0.2759
11339SOL     OW35738   8.485   1.449   2.940  0.3281  0.2642  0.2808
11339SOL    HW135739   8.564   1.496   2.968  1.4931  0.0524 -2.3411
11339SOL    HW235740   8.413   1.508   2.962  1.2317  0.8027  2.0401
11340SOL     OW35741   1.135   2.493   9.235 -0.2374 -0.7938 -0.0303
11340SOL    HW135742   1.223   2.529   9.249  0.0945 -1.1873 -0.9762
11340SOL    HW235743   1.135   2.467   9.143 -1.9234  0.7566 -0.5370
11341SOL     OW35744   4.870   9.114   7.708  0.1947 -0.8585 -0.8146
11341SOL    HW135745   4.923   9.112   7.788 -0.5843  0.7028 -0.2363
11341SOL    HW235746   4.784   9.081   7.734 -0.9269  2.1739 -0.2631
11342SOL     OW35747   2.367   5.217   6.936  0.3147  0.0244 -0.1204
11342SOL    HW135748   2.335   5.292   6.887 -2.1463 -1.1761 -0.4872
11342SOL    HW235749   2.302   5.204   7.006  1.1166 -1.2754  0.4273
11343SOL     OW35750   4.820   1.520   8.872  0.0528  0.3482  0.5128
11343SOL    HW135751   4.834   1.477   8.788  0.2058  1.2573  0.0660
11343SOL    HW235752   4.758   1.590   8.854  0.4696  0.8701  1.0486
11344SOL     OW35753   1.503   3.115   2.922  0.1388  0.2696 -0.0202
11344SOL    HW135754   1.582   3.084   2.966  0.7451  0.9919 -0.5731
11344SOL    HW235755   1.432   3.086   2.979  0.7505 -0.8880  0.2014
11345SOL     OW35756   7.901   1.231   3.729 -0.5087 -0.5988 -0.3001
11345SOL    HW135757   7.940   1.203   3.811 -1.8022 -0.8949  0.2418
11345SOL    HW235758   7.851   1.310   3.751  0.2426  0.1129 -1.0892
11346SOL     OW35759   8.490   2.505   6.874  0.0058  0.2010  0.4056
11346SOL    HW135760   8.549   2.580   6.878  0.2164  0.0755 -0.3083
11346SOL    HW235761   8.534   2.442   6.817  0.7163 -1.2653  2.4469
11347SOL     OW35762   5.255   2.798   6.223 -0.5367  0.8723 -0.3913
11347SOL    HW135763   5.344   2.824   6.199 -0.6829  0.8582 -0.9563
11347SOL    HW235764   5.229   2.861   6.291 -0.4877  1.5447 -0.9815
11348SOL     OW35765   7.636   4.741   2.845  0.1757 -0.4833  0.6536
11348SOL    HW135766   7.626   4.829   2.881 -0.8506 -0.7974  1.2114
11348SOL    HW235767   7.611   4.683   2.918  1.9097 -1.2832  0.6593
11349SOL     OW35768   5.046   2.504   8.235 -0.1627 -0.1969 -0.1381
11349SOL    HW135769   5.055   2.438   8.304 -1.3249 -0.5257 -0.2885
11349SOL    HW235770   4.953   2.504   8.213 -0.1039  1.1286 -0.4998
11350SOL     OW35771   5.107   8.122   5.720 -0.5461  0.3467  0.4910
11350SOL    HW135772   5.175   8.137   5.655 -0.6392 -1.0350  0.0461
11350SOL    HW235773   5.127   8.184   5.790 -0.9737  2.5214 -1.2166
11351SOL     OW35774   4.398   6.195   0.556  0.0713 -0.8091  0.1004
11351SOL    HW135775   4.333   6.161   0.495 -0.2347  0.1364 -0.1141
11351SOL    HW235776   4.401   6.130   0.627 -1.3771 -0.6976  0.2954
11352SOL     OW35777   9.205   4.963   7.917  0.1414 -1.1729  0.1814
11352SOL    HW135778   9.133   4.974   7.979  0.7970 -1.5154  1.0190
11352SOL    HW235779   9.237   4.874   7.932  0.9900 -0.8941  0.0873
11353SOL     OW35780   9.018   9.077   4.143 -0.0283  0.4266  0.2226
11353SOL    HW135781   8.953   9.017   4.108 -0.5045  2.4577 -2.7252
11353SOL    HW235782   8.985   9.100   4.230 -1.7272 -0.7326 -0.0681
11354SOL     OW35783   7.577   0.714   6.150  0.1609 -0.1485  0.3881
11354SOL    HW135784   7.590   0.785   6.212  0.1212 -1.5123  2.0422
11354SOL    HW235785   7.536   0.755   6.074 -1.1243  1.3805  1.8324
11355SOL     OW35786   7.353   2.541   4.239 -0.3292 -0.3408  0.4472
11355SOL    HW135787   7.348   2.553   4.144 -0.1758 -0.9869  0.3526
11355SOL    HW235788   7.385   2.625   4.272 -0.5353 -0.0616 -0.0580
11356SOL     OW35789   3.960   1.877   1.489 -0.0678 -0.0936 -0.3716
11356SOL    HW135790   3.968   1.936   1.563  0.7571 -1.8161  0.9933
11356SOL    HW235791   4.025   1.908   1.426 -1.7757  2.2698 -1.0878
11357SOL     OW35792   6.561   4.570   8.089  0.2836  0.1224 -0.2453
11357SOL    HW135793   6.548   4.661   8.063  1.5563 -0.2405 -2.3315
11357SOL    HW235794   6.532   4.519   8.013  0.5434 -1.1818  0.5055
11358SOL     OW35795   4.315   5.438   8.439  0.3911 -0.1278  0.1546
11358SOL    HW135796   4.333   5.444   8.346  1.4756 -2.6100  0.1453
11358SOL    HW235797   4.221   5.419   8.445  0.7695 -2.5183 -0.6154
11359SOL     OW35798   5.984   7.605   2.239  0.1857  0.5250 -0.2981
11359SOL    HW135799   6.022   7.639   2.158  0.9578  1.5772  0.4894
11359SOL    HW235800   6.053   7.550   2.277  0.9010  2.2224  0.9958
11360SOL     OW35801   4.512   0.101   6.373 -0.3290 -0.7354  0.0759
11360SOL    HW135802   4.439   0.154   6.342 -0.1341 -0.2692  0.3959
11360SOL    HW235803   4.473   0.016   6.395 -0.6805 -0.6565 -0.2432
11361SOL     OW35804   4.960   0.551   5.325 -0.2624 -0.4633 -0.1797
11361SOL    HW135805   4.882   0.568   5.273 -1.4254 -1.6253  1.1132
11361SOL    HW235806   4.932   0.487   5.391  1.9220 -1.3472 -0.0252
11362SOL     OW35807   0.639   2.922   5.397 -0.1106 -0.0768  0.1043
11362SOL    HW135808   0.585   2.898   5.321  0.5204 -0.0667 -0.3538
11362SOL    HW235809   0.585   2.985   5.446 -0.7066 -0.4277 -0.0877
11363SOL     OW35810   5.420   6.595   2.143 -0.3203  0.1180  0.3952
11363SOL    HW135811   5.357   6.530   2.114  0.6383 -1.2132  1.1839
11363SOL    HW235812   5.480   6.547   2.200  0.2342  1.7615  1.2739
11364SOL     OW35813   4.771   4.240   2.461 -0.2290 -0.0380 -0.7343
11364SOL    HW135814   4.691   4.255   2.412 -0.1973 -0.9477 -1.0717
11364SOL    HW235815   4.751   4.272   2.549 -0.0945  2.1601 -1.4272
11365SOL     OW35816   5.898   3.494   7.612  0.0823 -0.3761  0.1971
11365SOL    HW135817   5.970   3.447   7.655 -0.3638 -0.4009  0.9195
11365SOL    HW235818   5.919   3.489   7.519  1.0054 -0.4096  0.3970
11366SOL     OW35819   5.889   6.881   3.795 -0.0568  0.0835 -0.1310
11366SOL    HW135820   5.940   6.852   3.720  2.2352 -0.4112  1.5378
11366SOL    HW235821   5.814   6.821   3.798 -0.3144  0.2391 -2.0764
11367SOL     OW35822   1.414   9.635   3.777  0.5935 -0.4048 -0.5309
11367SOL    HW135823   1.419   9.546   3.812 -1.6364 -0.2710  0.3584
11367SOL    HW235824   1.441   9.690   3.850 -0.7774 -0.2809 -0.0729
11368SOL     OW35825   9.407   6.785   6.933  0.3022 -0.6554 -0.0353
11368SOL    HW135826   9.407   6.692   6.909 -0.5265 -0.9485  0.9841
11368SOL    HW235827   9.352   6.789   7.012  0.8281  0.6113  0.2946
11369SOL     OW35828   8.024   3.287   6.110 -0.1683  0.0162  0.3092
11369SOL    HW135829   7.990   3.345   6.178 -0.3550 -0.1034  0.3202
11369SOL    HW235830   8.038   3.344   6.035  1.0847  0.3484  0.7850
11370SOL     OW35831   1.248   4.586   0.112  0.8100 -0.1391  0.7601
11370SOL    HW135832   1.265   4.620   0.024  0.9808 -0.7900  0.5314
11370SOL    HW235833   1.208   4.500   0.096  0.4255 -0.0650  1.3182
11371SOL     OW35834   9.681   5.322   7.619 -0.4421 -0.5791 -0.4911
11371SOL    HW135835   9.592   5.291   7.601 -0.5018 -0.3909 -0.5271
11371SOL    HW235836   9.706   5.278   7.700 -1.2296  0.6791  0.4770
11372SOL     OW35837   3.053   1.527   2.123 -0.5315  0.0144 -0.4272
11372SOL    HW135838   2.981   1.585   2.098 -3.3579 -2.5550  1.0854
11372SOL    HW235839   3.072   1.550   2.213  0.0073  0.1480 -0.5732
11373SOL     OW35840   7.716   2.279   7.662 -0.3872  0.6924 -0.5882
11373SOL    HW135841   7.741   2.357   7.711  3.5477  0.1188 -1.3995
11373SOL    HW235842   7.743   2.205   7.717 -0.9190 -0.0583 -1.2988
11374SOL     OW35843   6.664   1.756   0.615 -0.1264  0.6049 -0.3855
11374SOL    HW135844   6.639   1.675   0.572  0.5463  0.4853 -0.5681
11374SOL    HW235845   6.680   1.818   0.544 -2.3591  1.4647 -0.2232
11375SOL     OW35846   5.271   4.194   3.519 -0.6481 -0.2666 -0.4803
11375SOL    HW135847   5.201   4.129   3.518 -1.3826  0.4779  0.4075
11375SOL    HW235848   5.226   4.278   3.508  0.3259  0.0892 -2.0891
11376SOL     OW35849   1.427   1.639   2.179 -0.4287 -0.4571  0.4120
11376SOL    HW135850   1.489   1.573   2.148  0.3976 -0.0343  1.1366
11376SOL    HW235851   1.345   1.615   2.136  0.1360 -1.2404 -0.2842
11377SOL     OW35852   8.514   3.179   7.515 -0.3096  0.1573 -0.0040
11377SOL    HW135853   8.570   3.102   7.522  0.8838  0.9103 -0.8819
11377SOL    HW235854   8.539   3.234   7.589  0.9714  0.9969 -1.0107
11378SOL     OW35855   4.081   5.931   6.944  0.0461 -0.3835 -0.0188
11378SOL    HW135856   4.115   5.908   6.858  2.3413 -2.5653  1.3001
11378SOL    HW235857   4.157   5.968   6.991 -0.5324 -1.2307  1.6848
11379SOL     OW35858   5.039   6.291   2.118 -0.0435  0.4472 -0.2262
11379SOL    HW135859   4.986   6.318   2.193 -3.4846  1.5931 -2.8307
11379SOL    HW235860   5.039   6.195   2.122  0.6849  0.4758  1.6785
11380SOL     OW35861   0.248   6.976   4.197 -0.2677 -0.4191 -0.2562
11380SOL    HW135862   0.343   6.968   4.212  0.2824  1.8363 -1.9326
11380SOL    HW235863   0.233   6.927   4.116 -0.6121 -1.0260  0.1700
11381SOL     OW35864   2.549   4.508   2.630  0.5060 -0.0662  0.3420
11381SOL    HW135865   2.589   4.571   2.571 -0.1359 -1.9168 -2.2799
11381SOL    HW235866   2.622   4.459   2.668  0.9212  1.0693  1.0522
11382SOL     OW35867   6.630   6.196   3.030 -1.2020  0.0546 -0.4807
11382SOL    HW135868   6.667   6.176   2.944  0.4404  2.2125 -0.3612
11382SOL    HW235869   6.588   6.281   3.018 -1.2883  0.2003  0.7763
11383SOL     OW35870   6.146   3.485   8.741 -0.0589 -0.2712 -0.3180
11383SOL    HW135871   6.236   3.457   8.757 -0.0522 -0.5187 -0.7921
11383SOL    HW235872   6.145   3.577   8.769  0.8655  0.3412 -2.1478
11384SOL     OW35873   3.051   6.466   9.387  0.0144 -0.0794  0.1043
11384SOL    HW135874   2.999   6.498   9.461  1.0115  0.3134  0.6602
11384SOL    HW235875   3.038   6.531   9.319  1.6834  1.3674  1.0798
11385SOL     OW35876   4.637   6.503   8.715  0.2235  0.1844  0.1630
11385SOL    HW135877   4.688   6.557   8.654  1.4288 -0.5300  0.4897
11385SOL    HW235878   4.701   6.473   8.779 -0.5377 -1.0665  0.3779
11386SOL     OW35879   3.257   0.384   2.319  0.2103 -0.0200 -0.0890
11386SOL    HW135880   3.317   0.397   2.391 -0.5749 -1.1682  0.8165
11386SOL    HW235881   3.202   0.310   2.346  1.0709 -1.7200 -2.6007
11387SOL     OW35882   4.575   3.873   1.842 -0.1335  0.1642  0.3250
11387SOL    HW135883   4.581   3.792   1.893 -0.9831 -0.8327 -1.1091
11387SOL    HW235884   4.615   3.852   1.758 -2.3235  0.4964 -0.8809
11388SOL     OW35885   4.225   5.918   1.015  0.1656 -0.2886 -0.0710
11388SOL    HW135886   4.217   5.823   1.007 -0.1272 -0.2365 -0.4310
11388SOL    HW235887   4.294   5.931   1.081 -0.8596 -0.7611  1.1411
11389SOL     OW35888   8.014   5.074   1.481  0.0065 -0.2245 -0.1514
11389SOL    HW135889   7.983   5.011   1.546 -0.3854  1.1294  1.0193
11389SOL    HW235890   8.047   5.148   1.532  0.1475  0.6763 -1.4764
11390SOL     OW35891   5.108   6.805   8.290 -1.0231  0.3149  0.0526
11390SOL    HW135892   5.134   6.809   8.198 -0.2550  1.3655  0.2883
11390SOL    HW235893   5.072   6.718   8.302  0.0389 -0.2799 -0.9488
11391SOL     OW35894   2.111   0.799   7.401  0.3828  0.0676 -0.6368
11391SOL    HW135895   2.070   0.884   7.414  0.3782 -0.0568  0.2412
11391SOL    HW235896   2.184   0.816   7.341 -0.6125  0.3839 -1.7902
11392SOL     OW35897   8.125   8.497   6.717 -0.1025  0.3382 -0.2209
11392SOL    HW135898   8.095   8.414   6.681 -0.0369  0.9474 -1.7570
11392SOL    HW235899   8.143   8.478   6.809  1.3131 -1.7404 -0.8348
11393SOL     OW35900   4.376   0.408   5.751 -0.2472 -0.1027 -0.4845
11393SOL    HW135901   4.441   0.381   5.816  0.2937  0.9560 -0.5714
11393SOL    HW235902   4.322   0.473   5.796 -0.6776 -0.3097 -0.6981
11394SOL     OW35903   8.607   1.149   7.274 -0.3931 -0.8008  0.1886
11394SOL    HW135904   8.661   1.152   7.353 -0.8289 -0.1015  0.4699
11394SOL    HW235905   8.655   1.092   7.214  0.3691 -0.6393  0.6338
11395SOL     OW35906   6.511   9.495   8.770  0.0517 -0.0600  0.0511
11395SOL    HW135907   6.594   9.542   8.760  0.0288  0.0142  0.2142
11395SOL    HW235908   6.527   9.433   8.841 -0.0520 -0.0000  0.1276
11396SOL     OW35909   3.268   6.868   4.738  0.0690 -0.8210 -0.9017
11396SOL    HW135910   3.178   6.896   4.719  0.1907 -0.3143 -0.7531
11396SOL    HW235911   3.315   6.950   4.752  0.3698 -1.1209 -0.1526
11397SOL     OW35912   8.618   6.474   0.148  0.1825 -0.0378  0.5432
11397SOL    HW135913   8.609   6.543   0.213 -1.4362 -0.6764  1.0455
11397SOL    HW235914   8.622   6.520   0.064 -1.4120  0.6893  0.8298
11398SOL     OW35915   4.520   4.042   6.444  0.0446  0.7210  0.8459
11398SOL    HW135916   4.487   3.953   6.453 -2.7166  1.5141 -0.0707
11398SOL    HW235917   4.453   4.096   6.486 -0.1424  2.5367 -1.5441
11399SOL     OW35918   5.540   4.982   8.878  0.0712 -1.0598 -0.5853
11399SOL    HW135919   5.549   5.043   8.804  1.5452 -1.7490 -1.0234
11399SOL    HW235920   5.502   4.903   8.840  0.6537 -1.3475 -0.5879
11400SOL     OW35921   6.835   1.621   1.076  0.9483 -0.5352 -0.0537
11400SOL    HW135922   6.881   1.705   1.083 -2.1687  1.2521  0.7493
11400SOL    HW235923   6.813   1.612   0.984  1.0334 -0.3387 -0.0923
11401SOL     OW35924   4.665   6.016   2.288 -0.3441 -0.0065  0.2032
11401SOL    HW135925   4.719   6.018   2.209  0.7394 -0.5359  0.9015
11401SOL    HW235926   4.587   6.066   2.266  0.8936  1.6958 -0.5183
11402SOL     OW35927   8.482   1.347   1.787  0.2220  0.3171  0.2652
11402SOL    HW135928   8.516   1.315   1.703  0.3298 -1.4561  0.9331
11402SOL    HW235929   8.445   1.269   1.828  3.5015  0.1942  3.4921
11403SOL     OW35930   5.423   8.540   9.362  0.2282  0.0133  0.0872
11403SOL    HW135931   5.430   8.534   9.266  1.1996  0.7769  0.1007
11403SOL    HW235932   5.501   8.495   9.394  0.6636  1.0247  0.4764
11404SOL     OW35933   8.255   6.624   4.953  0.2141  0.1223  0.3814
11404SOL    HW135934   8.196   6.632   4.878 -0.5746  0.5724  1.0319
11404SOL    HW235935   8.203   6.577   5.019  0.0115  1.8569  1.5182
11405SOL     OW35936   0.529   2.341   0.794  0.0010 -0.8961  0.5028
11405SOL    HW135937   0.596   2.324   0.728 -1.2458 -0.2066 -1.0134
11405SOL    HW235938   0.502   2.254   0.824 -0.2349 -1.2808 -0.7742
11406SOL     OW35939   9.173   3.360   1.706 -0.4321 -0.3004  0.3136
11406SOL    HW135940   9.162   3.326   1.617 -1.3593 -0.3493  0.4341
11406SOL    HW235941   9.175   3.455   1.696 -0.9814 -0.2899  0.2771
11407SOL     OW35942   1.686   0.137   8.953 -0.7765  0.1375 -0.0476
11407SOL    HW135943   1.747   0.172   8.887 -1.0378  2.4716  0.8623
11407SOL    HW235944   1.742   0.087   9.013 -0.1754  0.0053 -0.7019
11408SOL     OW35945   4.318   7.512   9.141 -0.4325 -0.2027 -0.8390
11408SOL    HW135946   4.299   7.432   9.189 -2.9515 -0.3250 -1.8478
11408SOL    HW235947   4.326   7.484   9.050 -0.6630  0.5806 -1.1118
11409SOL     OW35948   5.893   2.783   9.405 -0.9751  0.2561 -0.6178
11409SOL    HW135949   5.868   2.807   9.494 -1.9703  1.5089 -1.1995
11409SOL    HW235950   5.924   2.693   9.412 -0.6156  0.4750  1.0584
11410SOL     OW35951   5.451   8.304   7.846  0.4208  0.2265  0.1939
11410SOL    HW135952   5.517   8.336   7.908 -0.9525  1.0020  1.3240
11410SOL    HW235953   5.378   8.365   7.856 -0.1776 -0.1555 -1.5855
11411SOL     OW35954   0.645   8.246   3.848 -1.0625  0.3071 -0.0222
11411SOL    HW135955   0.655   8.256   3.753 -1.0499  0.9043  0.0336
11411SOL    HW235956   0.643   8.152   3.862 -1.5579  0.2079 -0.6714
11412SOL     OW35957   9.671   1.904   0.069  0.1912 -0.2551  0.3550
11412SOL    HW135958   9.617   1.980   0.092 -0.2512 -0.8980  1.4982
11412SOL    HW235959   9.733   1.895   0.141  0.2459 -0.9690  0.2297
11413SOL     OW35960   3.578   7.835   6.182  0.0324 -0.5939  0.3536
11413SOL    HW135961   3.650   7.809   6.239 -0.9792 -0.0202  1.9558
11413SOL    HW235962   3.546   7.917   6.219 -0.7448 -0.2663 -0.9821
11414SOL     OW35963   0.488   5.867   3.401  0.0220 -0.7654 -0.2727
11414SOL    HW135964   0.398   5.845   3.425  0.3915 -0.7155  1.2383
11414SOL    HW235965   0.511   5.802   3.335 -1.3217 -0.3914 -1.1585
11415SOL     OW35966   6.674   5.557   6.931  0.5528  0.5939 -0.2585
11415SOL    HW135967   6.733   5.630   6.912 -1.7015  2.3735 -0.7674
11415SOL    HW235968   6.620   5.548   6.853 -0.6910 -0.1680  0.6477
11416SOL     OW35969   7.560   8.794   0.478  0.0492 -0.3507  0.1729
11416SOL    HW135970   7.521   8.878   0.454  0.1089 -0.6130 -0.8584
11416SOL    HW235971   7.652   8.802   0.453 -0.0503 -0.8916 -0.3918
11417SOL     OW35972   2.520   4.247   7.470  0.2572 -0.4581 -0.3009
11417SOL    HW135973   2.449   4.190   7.440 -3.0724  2.9121  0.4703
11417SOL    HW235974   2.570   4.267   7.390  0.5360 -2.9727 -0.8468
11418SOL     OW35975   4.007   4.737   7.495  0.5955  1.0970  0.4793
11418SOL    HW135976   3.951   4.662   7.475 -0.5772  1.7530  1.2048
11418SOL    HW235977   4.001   4.793   7.417 -0.7458  1.7384  1.0283
11419SOL     OW35978   1.839   8.438   1.821 -0.0427  0.4153 -0.1895
11419SOL    HW135979   1.869   8.518   1.864 -1.8170  1.4995 -0.8599
11419SOL    HW235980   1.823   8.376   1.892  1.3562  0.6071  0.3358
11420SOL     OW35981   4.383   8.412   3.704 -0.7155 -0.2736  0.3830
11420SOL    HW135982   4.322   8.411   3.777 -1.5974 -1.4219 -0.3337
11420SOL    HW235983   4.414   8.502   3.698  1.3514 -0.5873  3.7649
11421SOL     OW35984   9.187   4.469   2.843  0.8201 -0.3138  0.1237
11421SOL    HW135985   9.236   4.410   2.787  1.1231 -0.2075  0.2735
11421SOL    HW235986   9.135   4.523   2.783 -0.1826 -1.3605  0.0245
11422SOL     OW35987   9.089   7.347   6.601  0.3334 -0.1851  0.2419
11422SOL    HW135988   9.072   7.441   6.597 -0.4964 -0.2636  1.3734
11422SOL    HW235989   9.022   7.313   6.661 -0.0642 -1.6721 -0.9752
11423SOL     OW35990   9.525   4.990   1.980  0.5367  0.2969  0.0642
11423SOL    HW135991   9.465   5.006   2.053  1.0667  0.0878  0.5501
11423SOL    HW235992   9.471   5.003   1.902  0.0675  0.9290  0.4823
11424SOL     OW35993   2.900   1.374   3.573  0.2297 -0.3854  0.1859
11424SOL    HW135994   2.993   1.386   3.554  0.2778 -0.7472  0.1827
11424SOL    HW235995   2.855   1.432   3.512  0.2957 -2.6905 -2.2616
11425SOL     OW35996   6.268   4.065   7.759 -0.1767 -1.0660  0.1105
11425SOL    HW135997   6.349   4.070   7.709 -0.6483 -1.7270 -0.7374
11425SOL    HW235998   6.198   4.086   7.697 -0.6075  0.7139  1.1010
11426SOL     OW35999   9.093   3.591   3.040  0.1323 -0.4035 -0.0074
11426SOL    HW136000   9.095   3.510   2.990 -0.1653 -0.4832  0.1054
11426SOL    HW236001   9.060   3.657   2.978 -1.9517 -0.8502  0.5393
11427SOL     OW36002   1.973   4.881   1.388  0.1335 -0.0870 -0.7920
11427SOL    HW136003   1.901   4.911   1.333  0.3439  1.3263 -0.3401
11427SOL    HW236004   2.051   4.894   1.333  0.2130  0.0462 -0.6473
11428SOL     OW36005   6.972   4.737   2.919 -0.4021 -0.5367 -0.6373
11428SOL    HW136006   6.973   4.815   2.864  4.4252  0.0376 -0.2093
11428SOL    HW236007   6.996   4.666   2.859 -0.5582 -0.9240 -0.2419
11429SOL     OW36008   7.947   2.452   9.157 -0.0250 -0.3289  0.6753
11429SOL    HW136009   7.954   2.460   9.062  1.6775  0.5023  0.8425
11429SOL    HW236010   7.857   2.421   9.172 -0.5862  0.3037 -1.1484
11430SOL     OW36011   1.690   7.846   3.640 -0.0341 -0.3981  0.1143
11430SOL    HW136012   1.671   7.803   3.556 -2.3106 -0.4897  0.6177
11430SOL    HW236013   1.715   7.775   3.698 -1.5217 -0.7808  0.3203
11431SOL     OW36014   5.955   6.459   7.017 -0.3299 -0.5669 -0.1284
11431SOL    HW136015   6.045   6.425   7.024  0.5421  1.8015  1.0862
11431SOL    HW236016   5.931   6.442   6.926  1.2566 -1.4514 -0.4357
11432SOL     OW36017   4.268   0.475   9.409 -0.3062 -0.3152  0.4614
11432SOL    HW136018   4.347   0.489   9.462  0.4604 -0.4026 -0.6298
11432SOL    HW236019   4.226   0.399   9.449  0.3711 -0.5092  0.8232
11433SOL     OW36020   2.628   1.793   0.004  0.1426 -0.8244  0.5901
11433SOL    HW136021   2.589   1.877  -0.023  1.8114 -0.6959 -1.7594
11433SOL    HW236022   2.556   1.744   0.043 -1.7919  0.2926 -1.3848
11434SOL     OW36023   0.318   3.662   7.936  0.7148  0.2588  0.1784
11434SOL    HW136024   0.336   3.613   8.016 -0.0139 -0.7999 -0.2835
11434SOL    HW236025   0.372   3.740   7.943  1.9369 -0.6173  0.9307
11435SOL     OW36026   7.852   3.878   6.386 -0.1237  0.2511 -0.1228
11435SOL    HW136027   7.831   3.925   6.468 -0.9760  0.2224 -0.3142
11435SOL    HW236028   7.770   3.838   6.360  0.2856 -0.2290 -0.6935
11436SOL     OW36029   3.650   5.998   2.498  0.7947 -0.0705  0.2710
11436SOL    HW136030   3.697   6.016   2.579 -2.8266  1.3460  2.2916
11436SOL    HW236031   3.663   6.076   2.444 -1.0221  1.4116  1.8438
11437SOL     OW36032   1.765   5.425   7.109 -0.1923 -0.0691  0.1743
11437SOL    HW136033   1.818   5.448   7.032 -1.2878  1.1082 -0.2601
11437SOL    HW236034   1.776   5.498   7.169 -1.7023  0.4404 -0.1327
11438SOL     OW36035   2.292   9.315   8.098  0.0710  0.5672 -0.4518
11438SOL    HW136036   2.203   9.282   8.085 -0.6051  2.4216 -0.9025
11438SOL    HW236037   2.280   9.405   8.128  1.7974 -0.0333  2.3889
11439SOL     OW36038   3.114   4.477   3.606  0.8193  0.0598  0.2574
11439SOL    HW136039   3.025   4.443   3.603  1.0430 -0.7406  1.7011
11439SOL    HW236040   3.103   4.572   3.613  0.0963  0.0087 -0.0710
11440SOL     OW36041   6.986   6.770   5.559  0.4377 -0.2829 -0.4176
11440SOL    HW136042   6.900   6.729   5.559 -0.4239  1.3569 -2.3592
11440SOL    HW236043   7.016   6.763   5.468  0.8193  2.1397 -0.5461
11441SOL     OW36044   8.722   4.071   7.542  0.5072 -0.1322 -0.3674
11441SOL    HW136045   8.701   3.987   7.583  0.6596 -0.0258 -0.0724
11441SOL    HW236046   8.811   4.059   7.509  1.0513  0.3722  0.8822
11442SOL     OW36047   4.422   1.786   4.903  0.3415  0.7597  0.4860
11442SOL    HW136048   4.393   1.742   4.822 -0.7522  1.2729  0.5738
11442SOL    HW236049   4.478   1.723   4.946  0.2600  0.1490 -0.2784
11443SOL     OW36050   4.190   2.256   0.924 -0.1818  0.1649  0.2031
11443SOL    HW136051   4.217   2.164   0.927 -0.8076 -0.0274  0.1934
11443SOL    HW236052   4.164   2.270   0.833 -0.7470  0.1493  0.3571
11444SOL     OW36053   8.125   8.333   8.519  0.1313  0.2498  0.2737
11444SOL    HW136054   8.040   8.343   8.561 -1.0661 -2.2162 -1.2894
11444SOL    HW236055   8.107   8.347   8.426  1.7318  0.9265  0.0270
11445SOL     OW36056   3.252   0.683   7.781 -0.1109 -0.6822 -0.4590
11445SOL    HW136057   3.335   0.698   7.736 -0.4545  1.4776 -0.5170
11445SOL    HW236058   3.276   0.679   7.873 -0.0677  2.2049 -0.2464
11446SOL     OW36059   4.483   0.419   5.498  0.0527 -0.5234 -0.2110
11446SOL    HW136060   4.563   0.372   5.523  0.4945 -0.0077 -0.6460
11446SOL    HW236061   4.449   0.454   5.581  1.3631  0.9398 -0.2391
11447SOL     OW36062   1.495   1.050   4.922  0.0699  0.0894  0.5842
11447SOL    HW136063   1.445   0.987   4.870 -0.4800 -1.0297  2.3647
11447SOL    HW236064   1.574   1.066   4.870 -0.8990 -0.1525 -1.0474
11448SOL     OW36065   0.668   6.872   7.111 -0.4465  0.0188  0.5064
11448SOL    HW136066   0.710   6.892   7.195  1.6626 -0.4073 -0.3629
11448SOL    HW236067   0.665   6.956   7.065  1.7297 -0.2895 -0.3280
11449SOL     OW36068   6.299   5.209   5.311  0.2185  0.8275 -0.0622
11449SOL    HW136069   6.262   5.187   5.396  0.8428  1.4081  0.3648
11449SOL    HW236070   6.286   5.130   5.258  0.3784  0.2435  0.7580
11450SOL     OW36071   8.688   3.817   0.491 -0.0847  0.0182 -0.0861
11450SOL    HW136072   8.694   3.801   0.396  0.9865 -1.1009  0.1551
11450SOL    HW236073   8.775   3.849   0.515  0.0174 -0.8426  0.7268
11451SOL     OW36074   5.691   8.566   7.160  0.7549  0.6992  0.1368
11451SOL    HW136075   5.623   8.632   7.171  0.9423  1.3644 -2.1511
11451SOL    HW236076   5.761   8.611   7.112  0.4901 -1.3287 -2.3617
11452SOL     OW36077   1.683   4.489   8.937 -0.8799  0.0947  0.7423
11452SOL    HW136078   1.690   4.571   8.888 -1.9720  0.7698  1.6609
11452SOL    HW236079   1.694   4.516   9.028 -2.1266 -0.6315  1.1281
11453SOL     OW36080   7.227   2.505   2.167 -0.1935 -0.0333 -0.2445
11453SOL    HW136081   7.202   2.421   2.205 -2.0590  0.3945 -0.4349
11453SOL    HW236082   7.177   2.511   2.086  0.0582  1.1656 -0.3313
11454SOL     OW36083   6.422   7.896   1.282 -0.1916  0.1265  0.3464
11454SOL    HW136084   6.506   7.942   1.285 -0.7842  1.2162  2.2637
11454SOL    HW236085   6.444   7.804   1.295  0.7234  0.3477  0.4126
11455SOL     OW36086   8.156   5.704   7.963  0.0317  0.0402 -0.2502
11455SOL    HW136087   8.215   5.759   7.913  1.3646  0.5089  1.7062
11455SOL    HW236088   8.154   5.744   8.050  1.1971 -3.0214  1.3346
11456SOL     OW36089   7.040   7.232   3.636 -0.0189 -0.3255  0.0909
11456SOL    HW136090   7.036   7.268   3.547 -0.0441 -2.0191 -0.6378
11456SOL    HW236091   7.034   7.309   3.693  0.1484  0.8224 -1.3592
11457SOL     OW36092   3.544   2.099   1.815 -0.2712  0.4111 -0.3310
11457SOL    HW136093   3.464   2.097   1.763  0.0468 -0.2985 -0.8068
11457SOL    HW236094   3.593   2.021   1.787 -0.6143 -0.6647  1.8551
11458SOL     OW36095   8.910   7.436   2.662  0.4620  0.6180  0.6647
11458SOL    HW136096   8.834   7.384   2.689  0.9640 -0.6787 -0.3238
11458SOL    HW236097   8.876   7.525   2.656 -0.9980  0.0705  0.2486
11459SOL     OW36098   1.898   1.281   8.760  0.4231  0.3307 -0.0872
11459SOL    HW136099   1.921   1.368   8.727  0.6135  0.2970 -0.0432
11459SOL    HW236100   1.944   1.221   8.702 -0.9668  0.2094 -1.1148
11460SOL     OW36101   1.680   3.432   1.371 -0.1855 -0.5434 -0.4696
11460SOL    HW136102   1.687   3.365   1.303 -0.2950 -0.8126 -0.2197
11460SOL    HW236103   1.744   3.499   1.346  1.3140 -1.6184  0.2649
11461SOL     OW36104   7.735   1.575   2.842 -0.2882  0.1548  0.3296
11461SOL    HW136105   7.716   1.610   2.755  1.1672  1.0495  0.3451
11461SOL    HW236106   7.753   1.482   2.828  0.6004  0.4403 -0.4233
11462SOL     OW36107   0.652   0.447   4.166 -0.3422  0.0835 -0.5353
11462SOL    HW136108   0.716   0.404   4.224  0.2946  0.0993 -1.2072
11462SOL    HW236109   0.675   0.540   4.172 -0.5167  0.1250 -0.5249
11463SOL     OW36110   4.757   6.485   4.796  0.1922  0.0406  0.1225
11463SOL    HW136111   4.836   6.537   4.806 -0.8563  2.0937 -1.4685
11463SOL    HW236112   4.708   6.500   4.877  1.0932 -0.6928  0.8173
11464SOL     OW36113   0.803   1.284   2.454 -0.7167 -0.3201  0.0194
11464SOL    HW136114   0.744   1.244   2.517 -0.3630 -1.5879 -0.4219
11464SOL    HW236115   0.787   1.237   2.372 -0.0660  0.2440 -0.4479
11465SOL     OW36116   6.273   1.831   1.042  0.4063  0.0663  0.5321
11465SOL    HW136117   6.283   1.917   1.082  0.5267  1.3937 -2.1319
11465SOL    HW236118   6.237   1.848   0.955  1.6552 -2.4374 -0.6058
11466SOL     OW36119   7.136   6.235   4.357  0.3797 -0.3381  0.1643
11466SOL    HW136120   7.222   6.197   4.375  1.3748  1.9824  0.7693
11466SOL    HW236121   7.149   6.288   4.278  0.8760  3.6022  2.6128
11467SOL     OW36122   7.992   4.215   7.510  0.2534  0.0858  0.5107
11467SOL    HW136123   7.924   4.257   7.457  1.3979 -0.7491 -1.7530
11467SOL    HW236124   8.043   4.288   7.545  0.2679  0.6703 -0.6777
11468SOL     OW36125   2.717   1.878   7.815  0.1993 -0.6310 -0.2441
11468SOL    HW136126   2.708   1.783   7.803 -0.5579 -0.7040  0.7781
11468SOL    HW236127   2.726   1.889   7.909 -1.4721  0.4308 -0.1786
11469SOL     OW36128   9.418   4.223   9.705  0.2512  0.4254 -0.0479
11469SOL    HW136129   9.351   4.248   9.642  1.4012  0.7275 -1.1741
11469SOL    HW236130   9.495   4.275   9.682  0.8663  0.1478  1.2682
11470SOL     OW36131   7.781   4.736   8.472 -0.6939 -0.1055  0.0734
11470SOL    HW136132   7.822   4.797   8.532  0.0567 -0.0010 -0.5342
11470SOL    HW236133   7.819   4.651   8.493 -0.0082  0.0232 -0.6200
11471SOL     OW36134   7.209   2.169   2.835  0.0182 -0.2081 -0.0323
11471SOL    HW136135   7.128   2.203   2.798 -0.8555 -2.0367  0.1269
11471SOL    HW236136   7.220   2.217   2.918 -1.3976 -0.5853  0.3963
11472SOL     OW36137   4.199   6.451   0.888 -0.3162 -0.6147 -0.5401
11472SOL    HW136138   4.173   6.521   0.947 -1.4590 -2.3476  1.1517
11472SOL    HW236139   4.137   6.455   0.816 -0.1367  0.3362 -0.6454
11473SOL     OW36140   4.601   4.009   8.677 -0.3638  0.0934 -0.0798
11473SOL    HW136141   4.616   4.065   8.600  1.4080 -1.1511 -0.6948
11473SOL    HW236142   4.677   3.951   8.680 -0.5199 -0.0914  2.4762
11474SOL     OW36143   5.026   0.818   9.552 -0.2049 -0.0130 -0.2386
11474SOL    HW136144   4.939   0.858   9.563 -0.4920 -1.1497  2.4373
11474SOL    HW236145   5.008   0.728   9.526  0.1427 -0.2887  0.4532
11475SOL     OW36146   0.968   5.898   1.061  0.2376  0.2940 -0.1164
11475SOL    HW136147   1.053   5.872   1.098 -0.1481  0.0147  0.6052
11475SOL    HW236148   0.964   5.855   0.976  0.0424 -1.2385  0.6230
11476SOL     OW36149   9.454   3.414   3.725 -0.2641 -0.0354  0.0563
11476SOL    HW136150   9.442   3.337   3.669 -0.6654  0.2678 -0.2891
11476SOL    HW236151   9.489   3.481   3.666 -1.7208  0.6197 -0.1080
11477SOL     OW36152   1.253   9.241   8.145 -0.1961 -0.0588  0.0551
11477SOL    HW136153   1.332   9.192   8.170  0.2984  0.2478 -0.8985
11477SOL    HW236154   1.182   9.192   8.187  0.3101 -1.4706 -0.6386
11478SOL     OW36155   3.248   2.240   1.438  0.0836  0.2315  0.3757
11478SOL    HW136156   3.299   2.160   1.421 -0.9192 -0.2817 -0.3049
11478SOL    HW236157   3.177   2.211   1.494  0.3119  0.8740  1.0137
11479SOL     OW36158   7.173   1.719   0.117  0.6579  1.1559 -0.0496
11479SOL    HW136159   7.206   1.734   0.029 -1.5805 -0.8902 -1.3570
11479SOL    HW236160   7.104   1.784   0.128 -1.2168 -0.5453 -1.1525
11480SOL     OW36161   9.538   5.998   2.163 -0.1356 -0.3002 -0.1233
11480SOL    HW136162   9.613   5.947   2.194 -0.7251 -1.7875 -1.0580
11480SOL    HW236163   9.464   5.938   2.168 -0.9859  0.6608 -0.6971
11481SOL     OW36164   4.813   9.337   3.708 -0.3119  0.8596  0.0368
11481SOL    HW136165   4.857   9.297   3.784 -0.8954 -1.5699 -0.8112
11481SOL    HW236166   4.885   9.367   3.653  0.2831 -0.9518 -0.2454
11482SOL     OW36167   7.882   3.796   3.683  0.6513 -0.1155  0.3216
11482SOL    HW136168   7.872   3.755   3.769 -1.2543 -2.2318 -0.8080
11482SOL    HW236169   7.792   3.815   3.655  1.2562  0.9316 -1.0551
11483SOL     OW36170   8.000   8.293   7.941 -0.1016  0.3620  0.2049
11483SOL    HW136171   8.018   8.230   7.871 -0.7860  1.0611 -0.6257
11483SOL    HW236172   7.906   8.310   7.935  0.1062  1.6440  0.2538
11484SOL     OW36173   9.557   2.250   7.664  0.1406 -0.0223 -0.3487
11484SOL    HW136174   9.640   2.232   7.619  0.2005  1.1235 -0.7040
11484SOL    HW236175   9.517   2.321   7.614 -1.8759 -1.6440 -1.2007
11485SOL     OW36176   0.389   8.342   7.831  0.8458 -0.2627  0.0973
11485SOL    HW136177   0.427   8.343   7.919 -0.6071 -2.3649  0.8176
11485SOL    HW236178   0.450   8.394   7.779  1.3871  1.6885  2.4505
11486SOL     OW36179   7.743   1.200   7.200 -0.1067  0.0891  0.6329
11486SOL    HW136180   7.805   1.191   7.128 -0.6102  1.1770  0.0435
11486SOL    HW236181   7.789   1.165   7.276 -0.7958 -4.5008 -0.7657
11487SOL     OW36182   0.052   5.294   4.965 -0.1485  0.4326 -0.2232
11487SOL    HW136183   0.126   5.344   4.999  1.9534 -1.2821 -2.0049
11487SOL    HW236184   0.026   5.340   4.885  0.4131 -0.1049 -0.7287
11488SOL     OW36185   6.493   3.428   4.371 -0.3337  0.1923 -0.1883
11488SOL    HW136186   6.449   3.364   4.315  1.7773 -1.4541 -0.0730
11488SOL    HW236187   6.549   3.477   4.311 -0.0210  0.1794  0.0895
11489SOL     OW36188   2.623   5.249   9.608 -0.4193 -0.4221 -0.0887
11489SOL    HW136189   2.613   5.209   9.522  1.1046 -4.1321  1.2390
11489SOL    HW236190   2.716   5.265   9.616 -0.7445  1.4274  0.3221
11490SOL     OW36191   1.779   7.591   6.178 -0.7127 -0.4549 -0.3496
11490SOL    HW136192   1.727   7.546   6.244  0.1051  0.5003  0.9919
11490SOL    HW236193   1.792   7.679   6.213  2.6261 -0.9085 -0.1136
11491SOL     OW36194   8.958   7.144   0.601 -0.1492 -0.1192 -0.0788
11491SOL    HW136195   8.863   7.148   0.588 -0.3584  0.1976  1.3975
11491SOL    HW236196   8.982   7.233   0.628  0.7964  0.1576 -1.7060
11492SOL     OW36197   4.328   2.574   2.068 -0.4277  0.2867 -0.1233
11492SOL    HW136198   4.265   2.600   2.001 -1.1031  0.8068  0.6984
11492SOL    HW236199   4.320   2.479   2.074 -1.3119  0.3777  0.1508
11493SOL     OW36200   1.034   9.647   5.214  0.2637 -0.1217  0.1984
11493SOL    HW136201   1.021   9.732   5.256 -0.7468 -0.8971  1.5470
11493SOL    HW236202   1.110   9.659   5.157 -0.8646  2.1225 -0.9129
11494SOL     OW36203   0.183   2.882   4.492  0.5050 -0.0505  0.5795
11494SOL    HW136204   0.133   2.899   4.571  0.8514 -0.1693  0.8281
11494SOL    HW236205   0.122   2.898   4.420  0.5098  1.1287  0.8327
11495SOL     OW36206   0.477   5.595   4.444 -0.0933  0.0814  0.7922
11495SOL    HW136207   0.488   5.616   4.352 -2.2080 -0.6082  0.3267
11495SOL    HW236208   0.494   5.501   4.450 -3.7430 -0.7830  0.2436
11496SOL     OW36209   8.825   9.200   2.387  0.7016  1.3567  0.3881
11496SOL    HW136210   8.810   9.243   2.471 -1.4731  1.6018 -0.0809
11496SOL    HW236211   8.758   9.133   2.382  2.3545 -0.3358 -0.1051
11497SOL     OW36212   0.899   6.711   5.689 -0.1591  0.8023  0.3829
11497SOL    HW136213   0.968   6.645   5.692  0.6642  1.5109 -1.4452
11497SOL    HW236214   0.868   6.718   5.779  2.7005  1.0214  1.4537
11498SOL     OW36215   3.715   3.682   5.049  0.1305 -0.2591 -0.7004
11498SOL    HW136216   3.808   3.700   5.035  0.1646 -1.2192 -1.8957
11498SOL    HW236217   3.671   3.766   5.031  0.7975  0.3636  0.4922
11499SOL     OW36218   8.366   7.890   8.272 -0.5693  0.1284  0.0508
11499SOL    HW136219   8.364   7.827   8.344  1.3114  2.0627  1.9210
11499SOL    HW236220   8.418   7.846   8.204  2.2577  0.2124  2.0065
11500SOL     OW36221   9.538   6.428   7.061  0.4284 -0.0293 -0.6473
11500SOL    HW136222   9.493   6.377   6.994 -0.4980  1.2251 -1.0204
11500SOL    HW236223   9.496   6.404   7.143 -0.7536  0.8941 -0.9549
11501SOL     OW36224   6.347   7.471   1.946 -0.0303  0.2943  0.3296
11501SOL    HW136225   6.416   7.528   1.912  0.6865  0.0966  1.3926
11501SOL    HW236226   6.368   7.461   2.039  0.0364 -1.9068  0.1402
11502SOL     OW36227   9.610   0.598   6.185 -0.8058  0.1488 -0.3313
11502SOL    HW136228   9.698   0.632   6.175 -0.2492 -0.8816  0.7848
11502SOL    HW236229   9.563   0.627   6.107  1.3227 -1.7617 -2.4670
11503SOL     OW36230   8.411   2.181   8.809 -0.4824 -0.5595  0.1886
11503SOL    HW136231   8.449   2.256   8.764  2.0797 -1.8041  0.0451
11503SOL    HW236232   8.375   2.217   8.890  1.9514  0.7044  0.8096
11504SOL     OW36233   9.458   1.321   7.748  0.0229  0.2263  0.9531
11504SOL    HW136234   9.514   1.261   7.699 -1.3586 -0.0701 -0.3232
11504SOL    HW236235   9.504   1.405   7.742  1.5297 -0.4686  2.0214
11505SOL     OW36236   3.251   4.252   1.831  0.1613 -0.0169  0.3644
11505SOL    HW136237   3.255   4.255   1.735  0.9687  1.5831  0.4225
11505SOL    HW236238   3.310   4.181   1.855 -2.0953 -2.2923 -0.3830
11506SOL     OW36239   8.410   2.653   4.011 -0.1860  0.2555  0.5083
11506SOL    HW136240   8.430   2.617   4.098 -1.7490 -1.9244  0.0750
11506SOL    HW236241   8.348   2.724   4.028 -0.8228 -0.4393  1.1947
11507SOL     OW36242   8.772   3.507   0.417  0.2714 -0.0894  0.3679
11507SOL    HW136243   8.735   3.581   0.369 -1.8026 -0.6933  0.9267
11507SOL    HW236244   8.860   3.534   0.440 -1.2544  3.4000  2.9429
11508SOL     OW36245   0.073   5.874   2.200 -0.2225 -0.1003  0.6122
11508SOL    HW136246   0.097   5.918   2.118  0.2817  0.0142  0.8180
11508SOL    HW236247   0.110   5.786   2.191  1.7372  0.5695  1.6012
11509SOL     OW36248   4.060   3.395   2.362 -0.4710 -0.2681 -0.0054
11509SOL    HW136249   4.046   3.462   2.295 -0.2140 -1.0189 -0.8278
11509SOL    HW236250   4.032   3.314   2.321 -1.6177 -0.5738  1.2807
11510SOL     OW36251   5.207   5.709   1.349 -0.0405 -0.2212  0.0123
11510SOL    HW136252   5.204   5.761   1.428  0.5895 -0.7638  0.4033
11510SOL    HW236253   5.284   5.653   1.359  0.0241 -0.3324 -0.9581
11511SOL     OW36254   8.180   0.960   6.417  0.0966  0.0738  0.3871
11511SOL    HW136255   8.149   1.051   6.421 -0.1330 -0.0391  1.3500
11511SOL    HW236256   8.275   0.967   6.408 -0.0417  0.4101 -1.1994
11512SOL     OW36257   8.908   2.120   4.706  0.0948 -0.5243  0.0990
11512SOL    HW136258   8.843   2.128   4.637  1.2375  0.4331 -0.9272
11512SOL    HW236259   8.904   2.028   4.733 -1.2502 -0.6097 -0.3437
11513SOL     OW36260   5.091   2.138   0.174 -0.3998 -0.1556  0.3641
11513SOL    HW136261   5.010   2.090   0.188 -1.5625  1.6606  0.1639
11513SOL    HW236262   5.071   2.200   0.105  1.4404 -0.2254 -0.2994
11514SOL     OW36263   1.433   2.594   0.074  0.0546 -0.4867  0.7748
11514SOL    HW136264   1.461   2.685   0.081 -1.9146  0.0929  1.8939
11514SOL    HW236265   1.511   2.547   0.044  0.8629  1.6881 -0.7526
11515SOL     OW36266   6.800   8.121   9.679 -0.4733  0.1747 -0.4306
11515SOL    HW136267   6.825   8.110   9.770  0.9063 -0.1022 -0.8223
11515SOL    HW236268   6.757   8.207   9.676  2.1760  1.6275 -0.0256
11516SOL     OW36269   3.017   0.455   1.560  0.2640  0.0101  0.4115
11516SOL    HW136270   2.981   0.374   1.598  1.2513 -0.9471 -0.6252
11516SOL    HW236271   2.948   0.487   1.502 -0.4513  0.3837  1.4214
11517SOL     OW36272   2.961   8.547   5.305  0.3485 -0.3248 -0.0295
11517SOL    HW136273   2.994   8.602   5.376  0.1369 -0.0476 -0.1429
11517SOL    HW236274   2.971   8.458   5.337  0.2042 -0.2002  0.3721
11518SOL     OW36275   4.699   6.481   0.655 -0.1317  0.0658  0.7284
11518SOL    HW136276   4.733   6.518   0.737  1.5587 -2.3413  1.2194
11518SOL    HW236277   4.605   6.469   0.671 -0.1645  1.3267  1.6129
11519SOL     OW36278   0.245   8.208   4.608 -0.8255  0.3486 -0.1933
11519SOL    HW136279   0.326   8.258   4.600 -1.3192  1.1707 -0.1416
11519SOL    HW236280   0.239   8.157   4.527  0.2504 -0.5062  0.2414
11520SOL     OW36281   7.026   2.580   7.256  0.2545  0.2624 -0.2076
11520SOL    HW136282   7.084   2.575   7.331 -1.6241  0.9559  1.3862
11520SOL    HW236283   6.968   2.505   7.265  0.0803  0.2858 -1.0454
11521SOL     OW36284   5.334   5.947   2.934  0.1415  0.1674 -0.3545
11521SOL    HW136285   5.425   5.939   2.961 -0.5307 -0.5394  1.9504
11521SOL    HW236286   5.288   5.880   2.985 -1.7051  0.6648 -1.2794
11522SOL     OW36287   4.597   1.916   1.029  0.0263 -0.3925  0.7475
11522SOL    HW136288   4.588   1.838   1.084 -0.2688  0.1924  1.5523
11522SOL    HW236289   4.560   1.987   1.082 -0.6674  0.1180 -0.3905
11523SOL     OW36290   0.076   7.613   4.021  0.9257 -0.0551 -0.3259
11523SOL    HW136291   0.111   7.610   4.110 -0.1340 -0.9700  0.0842
11523SOL    HW236292  -0.012   7.651   4.031  1.0230  0.3800 -1.0652
11524SOL     OW36293   2.771   5.389   8.389 -0.7007 -0.2784 -0.3486
11524SOL    HW136294   2.716   5.330   8.441 -1.0559  0.3407 -0.0136
11524SOL    HW236295   2.779   5.468   8.442  1.2319 -0.6612  0.0034
11525SOL     OW36296   7.314   3.108   6.483  0.6011 -0.1709 -0.5482
11525SOL    HW136297   7.382   3.104   6.550 -0.4979 -0.5822  0.5798
11525SOL    HW236298   7.315   3.022   6.441 -0.7245 -1.0392  1.0549
11526SOL     OW36299   0.079   7.009   2.651 -0.0117  0.5048  0.3809
11526SOL    HW136300   0.134   7.075   2.693 -1.3497  0.7364  1.8577
11526SOL    HW236301   0.014   7.058   2.603  0.2030  0.2356 -0.1970
11527SOL     OW36302   7.911   6.305   9.219  0.1030  0.5809 -0.1604
11527SOL    HW136303   7.895   6.375   9.156  0.7782 -1.1983 -2.4533
11527SOL    HW236304   8.002   6.279   9.204 -0.6262 -1.9561 -0.7277
11528SOL     OW36305   9.322   8.973   1.524 -0.0676  0.2220  0.2079
11528SOL    HW136306   9.311   8.878   1.526 -1.3518  0.2836 -1.3998
11528SOL    HW236307   9.404   8.986   1.475  0.0986 -0.0536  0.4073
11529SOL     OW36308   3.230   8.751   7.797 -0.2585  0.2807  0.0129
11529SOL    HW136309   3.252   8.660   7.819  0.5057  0.1752 -1.0997
11529SOL    HW236310   3.304   8.781   7.745 -1.5073  0.8301 -1.5085
11530SOL     OW36311   3.720   6.142   9.444 -0.1897  0.0257  0.2932
11530SOL    HW136312   3.745   6.095   9.364  2.7749  1.2280  0.4026
11530SOL    HW236313   3.784   6.115   9.509  1.6330  3.9425  0.4062
11531SOL     OW36314   5.208   0.117   7.872 -0.0794  0.1761 -0.3852
11531SOL    HW136315   5.244   0.075   7.794  1.2126 -2.7324  1.6129
11531SOL    HW236316   5.115   0.098   7.869  0.1323 -0.8530 -0.7062
11532SOL     OW36317   1.052   4.651   6.110  0.1680  0.4532  0.4329
11532SOL    HW136318   1.143   4.681   6.119 -0.1060  1.4994 -0.1286
11532SOL    HW236319   1.037   4.597   6.188  1.2683  0.2588  0.5302
11533SOL     OW36320   2.249   3.578   4.747  0.5599  0.0214  0.0228
11533SOL    HW136321   2.245   3.604   4.839  0.0429 -0.9673  0.2882
11533SOL    HW236322   2.157   3.575   4.719  0.7222  0.4926 -0.5805
11534SOL     OW36323   0.291   4.091   4.000  0.0626 -0.0521  0.1976
11534SOL    HW136324   0.286   3.996   4.014 -1.1450  0.0358  0.5005
11534SOL    HW236325   0.208   4.124   4.035 -0.2130  0.9447 -1.3150
11535SOL     OW36326   3.577   6.896   7.817  0.3022 -0.0920 -0.7080
11535SOL    HW136327   3.654   6.950   7.797  0.5579 -0.0759  0.2750
11535SOL    HW236328   3.531   6.889   7.733  1.5453 -0.3802 -1.3891
11536SOL     OW36329   6.963   0.992   2.454  0.0852  0.6230  0.2000
11536SOL    HW136330   6.966   1.087   2.462  1.4726  0.7030 -0.9626
11536SOL    HW236331   6.926   0.975   2.368  1.2724  0.1728 -0.2529
11537SOL     OW36332   4.074   7.309   1.084 -0.0401  0.2517  0.0728
11537SOL    HW136333   4.136   7.286   1.153 -0.1202 -0.2741 -0.0265
11537SOL    HW236334   3.994   7.334   1.130 -0.4188 -1.0588  0.1568
11538SOL     OW36335   4.471   1.097   4.759 -0.0278  0.4802 -0.3474
11538SOL    HW136336   4.442   1.187   4.771  0.0873  0.3369  1.1415
11538SOL    HW236337   4.555   1.092   4.804 -1.4900 -1.1419  2.5052
11539SOL     OW36338   2.553   3.165   3.679 -0.2109 -0.4292  0.0397
11539SOL    HW136339   2.513   3.246   3.712 -0.3865 -1.2810  2.0661
11539SOL    HW236340   2.485   3.099   3.691  0.7138 -1.3003  0.6027
11540SOL     OW36341   3.459   1.859   9.097  0.1502  0.3952  0.1257
11540SOL    HW136342   3.426   1.770   9.109 -0.1956  0.4178 -0.5904
11540SOL    HW236343   3.381   1.910   9.072  0.2431  1.0096  1.0289
11541SOL     OW36344   6.402   2.758   5.239  0.0231  0.2957  0.6311
11541SOL    HW136345   6.429   2.846   5.212 -0.8427  0.5734  0.6340
11541SOL    HW236346   6.347   2.727   5.167  1.7287 -0.9732 -0.1944
11542SOL     OW36347   5.056   6.776   5.034 -0.0920  0.0840  0.3437
11542SOL    HW136348   5.124   6.840   5.016 -0.8834  1.5503  2.3133
11542SOL    HW236349   5.054   6.767   5.129 -1.4695 -1.2403  0.2381
11543SOL     OW36350   3.402   8.382   4.897 -0.1643 -0.0485 -0.1112
11543SOL    HW136351   3.313   8.411   4.876 -0.2298 -0.4402 -0.3927
11543SOL    HW236352   3.390   8.296   4.937  0.0800 -0.0362 -0.0163
11544SOL     OW36353   2.955   9.695   7.687  0.6910 -0.0567  0.1182
11544SOL    HW136354   2.944   9.769   7.628  0.9239 -0.8688 -0.9628
11544SOL    HW236355   3.009   9.730   7.759  0.0549  1.0432  0.0794
11545SOL     OW36356   9.241   6.468   4.266 -0.0661  0.0511  1.0002
11545SOL    HW136357   9.206   6.522   4.337 -1.4001  1.1329 -0.4342
11545SOL    HW236358   9.336   6.479   4.273 -0.2849  2.8606  0.5796
11546SOL     OW36359   3.832   8.736   7.054  0.0531  0.5964  0.4523
11546SOL    HW136360   3.807   8.715   6.964  0.0676 -1.5196  0.8729
11546SOL    HW236361   3.795   8.664   7.106  2.4213  0.2241  1.7684
11547SOL     OW36362   9.629   8.460   2.658  0.5466  0.3259 -0.4496
11547SOL    HW136363   9.572   8.536   2.664  0.6354  0.3373  0.3848
11547SOL    HW236364   9.601   8.403   2.729  0.9604 -0.0979 -0.6177
11548SOL     OW36365   4.003   6.081   8.269  0.7093 -0.1449 -0.4087
11548SOL    HW136366   4.018   6.019   8.198 -0.1384 -1.6376  0.6642
11548SOL    HW236367   4.025   6.032   8.348  0.8192  1.2103  0.4324
11549SOL     OW36368   0.192   1.144   8.561  0.2200 -0.8468  0.1963
11549SOL    HW136369   0.256   1.078   8.533  0.3272 -0.6412 -0.0520
11549SOL    HW236370   0.220   1.224   8.516 -1.1363 -1.1138 -1.2217
11550SOL     OW36371   3.349   3.418   0.860 -0.1221 -0.2984 -0.2739
11550SOL    HW136372   3.267   3.370   0.868 -0.8315  0.9720  0.2181
11550SOL    HW236373   3.413   3.364   0.907 -0.5080 -1.6198 -1.2222
11551SOL     OW36374   3.777   0.349   7.491 -0.8735  0.5693 -0.1375
11551SOL    HW136375   3.777   0.329   7.585  0.2662 -0.3490 -0.3142
11551SOL    HW236376   3.845   0.415   7.480 -1.1394  0.8216 -0.3050
11552SOL     OW36377   0.927   2.080   2.526 -0.0008 -0.3653 -0.1156
11552SOL    HW136378   0.840   2.048   2.500 -0.0169  0.2938 -0.8987
11552SOL    HW236379   0.971   2.002   2.562  0.0737 -1.3675 -2.2357
11553SOL     OW36380   4.747   4.064   1.589  0.4573  0.0416  0.3157
11553SOL    HW136381   4.748   4.089   1.681  1.0112  1.8720 -0.1370
11553SOL    HW236382   4.823   4.108   1.551 -0.0217 -0.2932 -1.1101
11554SOL     OW36383   6.395   7.091   3.785 -0.4181  0.2864  0.2354
11554SOL    HW136384   6.401   7.165   3.845 -0.2861  1.9850 -1.7452
11554SOL    HW236385   6.460   7.109   3.718 -0.6209 -1.4776 -0.4980
11555SOL     OW36386   0.491   7.899   7.479 -0.0086  0.0488 -0.0665
11555SOL    HW136387   0.428   7.909   7.408 -0.6762 -2.5587  0.0394
11555SOL    HW236388   0.504   7.988   7.513  0.1559  1.3353 -3.2216
11556SOL     OW36389   5.189   6.666   2.928 -0.1605  0.2556  0.1143
11556SOL    HW136390   5.119   6.685   2.866  1.8382  0.4896 -2.2151
11556SOL    HW236391   5.201   6.572   2.923 -0.0070  0.2708  0.1892
11557SOL     OW36392   6.938   2.817   5.643  0.1473 -0.2546 -0.1924
11557SOL    HW136393   6.868   2.851   5.588 -1.0446 -0.8201  0.9192
11557SOL    HW236394   7.002   2.782   5.582 -0.4408  0.4420 -1.2435
11558SOL     OW36395   1.640   5.863   0.857  0.0320  0.1044  0.1040
11558SOL    HW136396   1.640   5.918   0.935 -1.1262  0.9507 -0.4607
11558SOL    HW236397   1.708   5.901   0.801  0.4119 -0.1047  0.4165
11559SOL     OW36398   5.692   7.835   9.328  0.3077 -0.3424  0.0502
11559SOL    HW136399   5.616   7.846   9.384  0.3883  1.9692 -0.2024
11559SOL    HW236400   5.747   7.772   9.375 -0.5904 -0.1061  1.4913
11560SOL     OW36401   9.687   5.818   3.041  0.4337  0.5508  0.5225
11560SOL    HW136402   9.733   5.811   3.125  0.6025  0.2556  0.4056
11560SOL    HW236403   9.617   5.880   3.058 -0.1891 -0.3091  1.1771
11561SOL     OW36404   6.811   5.602   2.004 -0.6261  0.1972  0.0562
11561SOL    HW136405   6.831   5.551   1.925 -1.9087 -0.9014  0.4043
11561SOL    HW236406   6.717   5.618   1.999 -0.8989 -0.6685  1.8073
11562SOL     OW36407   3.120   8.560   7.243  0.0932 -0.2361  0.0084
11562SOL    HW136408   3.096   8.595   7.157  0.6020 -1.2789 -0.5738
11562SOL    HW236409   3.072   8.615   7.305 -1.7001 -0.5768 -0.9909
11563SOL     OW36410   8.662   7.516   8.709 -0.0988  0.4436  0.0759
11563SOL    HW136411   8.688   7.577   8.779 -0.3105  0.4750  0.1274
11563SOL    HW236412   8.716   7.438   8.724 -2.8232 -1.1533  2.6797
11564SOL     OW36413   0.667   4.190   7.388  0.3336  0.5004 -0.2082
11564SOL    HW136414   0.750   4.236   7.403  0.7027 -0.0820 -0.4462
11564SOL    HW236415   0.621   4.198   7.472  0.8857  0.3119  0.1181
11565SOL     OW36416   4.240   6.543   3.660 -0.6668  0.5796  0.4066
11565SOL    HW136417   4.234   6.638   3.663  1.9582  0.8807 -1.1546
11565SOL    HW236418   4.234   6.521   3.567  2.8416 -0.3169  0.2605
11566SOL     OW36419   2.764   8.197   3.704 -0.7141 -0.0713  0.6271
11566SOL    HW136420   2.695   8.134   3.682 -0.6353  0.2619 -0.6366
11566SOL    HW236421   2.743   8.275   3.653  0.6852 -0.0207  0.0859
11567SOL     OW36422   3.506   6.623   3.284  0.0912  0.1601  0.3007
11567SOL    HW136423   3.488   6.689   3.216  3.1802  0.5880 -0.2520
11567SOL    HW236424   3.491   6.669   3.366  0.4923  1.0042 -0.0858
11568SOL     OW36425   0.255   9.256   8.534  0.2038 -0.0903 -0.1520
11568SOL    HW136426   0.198   9.314   8.584 -0.3432 -0.9927  0.2983
11568SOL    HW236427   0.278   9.307   8.456 -0.9006  0.4420 -0.1530
11569SOL     OW36428   2.748   0.836   7.609  0.0601  0.2999  0.3320
11569SOL    HW136429   2.822   0.787   7.574  0.4731  1.3792 -0.3684
11569SOL    HW236430   2.784   0.922   7.630 -1.2633  1.3328 -1.3742
11570SOL     OW36431   4.340   9.390   1.440 -0.0205  0.3797 -0.4888
11570SOL    HW136432   4.407   9.449   1.474 -0.0302  0.6592 -0.9586
11570SOL    HW236433   4.288   9.443   1.381  0.8198 -0.4142 -2.0189
11571SOL     OW36434   0.485   1.000   7.105  0.2633 -0.2068 -0.3436
11571SOL    HW136435   0.460   0.921   7.058  1.1184 -1.5952  1.4110
11571SOL    HW236436   0.533   1.052   7.041 -1.2865 -0.5272 -1.8621
11572SOL     OW36437   3.208   8.135   2.448 -0.4540 -0.3983 -0.3193
11572SOL    HW136438   3.264   8.080   2.504 -1.0063  0.1356  0.7778
11572SOL    HW236439   3.268   8.199   2.410 -0.4129  0.8055  1.6369
11573SOL     OW36440   0.784   5.416   6.795 -0.1303 -0.0071 -0.6549
11573SOL    HW136441   0.726   5.398   6.721 -2.3334  1.1640  0.6733
11573SOL    HW236442   0.752   5.499   6.830  3.0222  1.2094 -0.3854
11574SOL     OW36443   3.323   1.201   8.251 -0.7194  0.0537 -0.8043
11574SOL    HW136444   3.361   1.116   8.227 -0.0733  0.0108  0.3083
11574SOL    HW236445   3.398   1.260   8.254 -0.9498  0.3153 -0.0757
11575SOL     OW36446   9.455   2.364   5.754 -0.4659 -0.2274  0.3510
11575SOL    HW136447   9.529   2.391   5.700  0.0230  0.2517  1.2527
11575SOL    HW236448   9.380   2.411   5.717  0.1079  1.1860  0.9391
11576SOL     OW36449   7.315   5.138   3.690  0.0694  0.6579  0.1367
11576SOL    HW136450   7.223   5.122   3.668 -0.0513 -1.6317  1.9286
11576SOL    HW236451   7.312   5.208   3.755 -0.1605  2.1217 -1.3737
11577SOL     OW36452   8.393   2.200   7.690  0.2406  0.1634 -0.1379
11577SOL    HW136453   8.397   2.118   7.641  0.2282  0.5515 -0.8004
11577SOL    HW236454   8.411   2.268   7.625  0.3082  0.6851  0.4148
11578SOL     OW36455   3.699   4.842   1.462  0.7079  0.3856 -0.4266
11578SOL    HW136456   3.671   4.894   1.538  0.2759  1.4492 -1.2952
11578SOL    HW236457   3.784   4.879   1.439  0.4128  0.6950 -1.0297
11579SOL     OW36458   6.071   3.326   9.057 -0.6698  0.2897 -0.1435
11579SOL    HW136459   5.991   3.312   9.108 -0.7664  0.8553 -0.1259
11579SOL    HW236460   6.082   3.246   9.007 -0.0276 -0.6983  1.4844
11580SOL     OW36461   4.595   5.649   7.173  1.2643 -0.0879  0.2207
11580SOL    HW136462   4.637   5.579   7.123 -0.1535 -0.4678 -0.4986
11580SOL    HW236463   4.562   5.605   7.252  0.2005 -0.3177 -0.3232
11581SOL     OW36464   1.997   4.460   7.723  0.2764  0.1407 -0.2308
11581SOL    HW136465   2.062   4.417   7.668  0.6916  0.0049  0.3453
11581SOL    HW236466   1.960   4.390   7.776  1.3998  0.5293  1.1551
11582SOL     OW36467   4.928   0.210   5.093  0.5149  0.5155 -0.2720
11582SOL    HW136468   5.006   0.264   5.090  0.9938 -0.1762 -0.4697
11582SOL    HW236469   4.873   0.251   5.160  1.2979  0.6616  0.2945
11583SOL     OW36470   5.544   5.500   9.404 -0.0867 -0.1931 -0.1615
11583SOL    HW136471   5.462   5.455   9.424  0.5775 -1.3153  0.0944
11583SOL    HW236472   5.561   5.478   9.312  0.1705 -0.3576 -0.0754
11584SOL     OW36473   6.704   8.363   3.809  0.2629  0.1956  0.2236
11584SOL    HW136474   6.740   8.343   3.723 -0.4758  0.9569 -0.2748
11584SOL    HW236475   6.697   8.458   3.811 -1.1499  0.0994  0.5328
11585SOL     OW36476   5.668   7.326   4.710  0.4064 -0.5745  0.5408
11585SOL    HW136477   5.649   7.380   4.634  1.0929 -2.6949 -1.2524
11585SOL    HW236478   5.763   7.326   4.716  0.3751 -0.8169  1.1130
11586SOL     OW36479   2.197   2.290   4.795 -0.0769 -0.0971  0.5242
11586SOL    HW136480   2.155   2.342   4.864 -1.1517  0.9801 -0.8848
11586SOL    HW236481   2.209   2.352   4.723 -1.5921 -1.8330 -1.3101
11587SOL     OW36482   6.184   2.917   3.041  0.1986  0.5040  0.7212
11587SOL    HW136483   6.161   2.825   3.025  1.7988  0.4571 -2.1046
11587SOL    HW236484   6.258   2.913   3.101  0.6586 -0.1143  0.1298
11588SOL     OW36485   7.930   2.463   6.445 -0.5723 -0.5615  0.2005
11588SOL    HW136486   7.866   2.406   6.487 -0.6054 -0.7858 -0.1533
11588SOL    HW236487   8.015   2.429   6.472 -0.5828 -1.1065 -0.4374
11589SOL     OW36488   9.223   7.133   2.779  0.0542 -0.4848  0.5273
11589SOL    HW136489   9.297   7.090   2.736  0.0623 -0.2407  0.2942
11589SOL    HW236490   9.146   7.089   2.744  0.1055 -1.2382  1.3142
11590SOL     OW36491   5.326   8.757   9.131 -0.9075 -0.9858  0.5733
11590SOL    HW136492   5.352   8.831   9.074  0.2507 -1.2478  0.7234
11590SOL    HW236493   5.242   8.783   9.168 -0.9367 -0.1267 -0.0601
11591SOL     OW36494   8.222   0.438   6.771 -0.4210 -0.1032 -0.2236
11591SOL    HW136495   8.149   0.386   6.805 -0.3699 -1.2410 -1.7449
11591SOL    HW236496   8.181   0.509   6.723 -0.5614 -0.9515 -1.3895
11592SOL     OW36497   2.573   2.933   2.434  0.3094  0.0276 -0.3144
11592SOL    HW136498   2.597   3.018   2.470  1.4338 -1.3041  2.3686
11592SOL    HW236499   2.477   2.932   2.436  0.1798  1.8457 -2.1543
11593SOL     OW36500   1.747   7.276   4.489 -0.2970  0.1797 -0.4588
11593SOL    HW136501   1.673   7.221   4.463 -0.2241  0.5212 -1.3961
11593SOL    HW236502   1.723   7.364   4.461  0.2054  0.3977 -0.2190
11594SOL     OW36503   5.180   2.157   4.587 -0.3304  0.2119 -0.1700
11594SOL    HW136504   5.198   2.113   4.670 -0.4670  2.4060  1.1287
11594SOL    HW236505   5.096   2.122   4.559 -1.2840  0.8259  1.7180
11595SOL     OW36506   4.205   0.055   5.352  0.5477 -0.2595 -0.0804
11595SOL    HW136507   4.127   0.110   5.349 -0.4787 -1.6316 -4.0897
11595SOL    HW236508   4.177  -0.023   5.400  0.0203  0.0468  0.1188
11596SOL     OW36509   9.223   1.042   9.270  0.0882 -0.2228  0.2381
11596SOL    HW136510   9.161   1.005   9.332  1.0117 -0.5017  1.0143
11596SOL    HW236511   9.309   1.019   9.305  0.6611  1.0735 -0.2364
11597SOL     OW36512   6.602   9.280   9.591 -0.0023 -0.7705 -0.1098
11597SOL    HW136513   6.510   9.254   9.594 -1.2670  2.9834 -0.2724
11597SOL    HW236514   6.632   9.275   9.682 -1.0380 -0.0801  0.2824
11598SOL     OW36515   2.449   0.886   4.665  0.4606 -0.4378  0.0055
11598SOL    HW136516   2.396   0.847   4.735 -0.5147  1.0427  0.1481
11598SOL    HW236517   2.537   0.893   4.702  0.2164 -0.7490  0.6616
11599SOL     OW36518   0.746   9.051   5.677  0.7190  0.1206  0.5744
11599SOL    HW136519   0.765   9.005   5.759  1.1676 -1.2448 -0.2521
11599SOL    HW236520   0.651   9.063   5.677  0.2161 -3.0115 -0.2265
11600SOL     OW36521   0.359   4.353   1.332 -0.1257 -0.6075 -0.2329
11600SOL    HW136522   0.288   4.415   1.344 -0.6803 -1.1345 -0.7849
11600SOL    HW236523   0.317   4.267   1.333  0.7859 -1.1115  2.0148
11601SOL     OW36524   1.997   1.394   1.181 -0.0041 -0.2589 -0.4201
11601SOL    HW136525   2.062   1.422   1.246  0.0928  1.4920 -1.2197
11601SOL    HW236526   2.049   1.351   1.112  0.3554  1.1320 -1.0572
11602SOL     OW36527   8.332   6.853   8.476 -0.0505 -0.2500 -0.2430
11602SOL    HW136528   8.417   6.814   8.496  0.0346  0.6180  1.1609
11602SOL    HW236529   8.330   6.856   8.380  1.4122 -0.4553 -0.3067
11603SOL     OW36530   4.571   3.061   3.780  0.2514  0.0040  0.1479
11603SOL    HW136531   4.477   3.069   3.765  0.2479 -0.7643 -0.3158
11603SOL    HW236532   4.611   3.107   3.706  0.2256 -1.5282 -0.8728
11604SOL     OW36533   6.560   5.051   7.004  0.1036 -0.6477  0.4155
11604SOL    HW136534   6.518   5.055   6.918  0.8672  2.0859  0.0670
11604SOL    HW236535   6.592   4.961   7.011 -1.9421 -1.5903 -1.1386
11605SOL     OW36536   6.085   9.372   8.466  0.4326 -0.9708 -0.2422
11605SOL    HW136537   6.064   9.329   8.550  0.2057 -2.1966 -0.9011
11605SOL    HW236538   6.167   9.418   8.483 -0.9788  1.1215  1.4267
11606SOL     OW36539   0.917   6.201   9.248  0.2045 -0.1126 -1.3892
11606SOL    HW136540   0.839   6.214   9.302 -0.4040  0.7226 -2.4282
11606SOL    HW236541   0.987   6.247   9.295  0.0542 -0.7298 -0.5328
11607SOL     OW36542   3.258   2.347   1.858  0.2992 -0.3571  0.5660
11607SOL    HW136543   3.258   2.278   1.791 -0.5071 -0.7515  0.9653
11607SOL    HW236544   3.236   2.301   1.939  1.8627  0.0093  1.2329
11608SOL     OW36545   7.175   0.802   9.177 -0.4831  0.0011  0.0048
11608SOL    HW136546   7.113   0.740   9.216 -1.6594  0.0627 -1.6655
11608SOL    HW236547   7.229   0.831   9.250 -0.5924 -2.1696  1.0280
11609SOL     OW36548   9.488   4.245   4.069 -0.6288  0.2504  0.1567
11609SOL    HW136549   9.478   4.333   4.106  1.0626 -0.0136  1.3464
11609SOL    HW236550   9.441   4.188   4.131 -0.1382  0.1220  0.4184
11610SOL     OW36551   1.868   3.015   0.440  0.4231  0.3747  0.4309
11610SOL    HW136552   1.938   3.048   0.498  0.2548  2.0944 -0.2896
11610SOL    HW236553   1.792   3.069   0.461 -1.0561 -2.0555  1.8505
11611SOL     OW36554   5.565   2.411   4.767  0.2985  0.7099 -0.2533
11611SOL    HW136555   5.660   2.420   4.775  0.2588  0.4576  0.6337
11611SOL    HW236556   5.539   2.479   4.705  0.9964  1.1456 -0.0747
11612SOL     OW36557   3.762   4.076   4.271 -0.5111  0.0459  0.2544
11612SOL    HW136558   3.679   4.029   4.269 -1.2826  1.2235  2.2710
11612SOL    HW236559   3.758   4.129   4.350  1.5023  1.3579 -0.4457
11613SOL     OW36560   8.225   0.803   4.518 -0.7684 -0.0976 -0.6363
11613SOL    HW136561   8.300   0.859   4.495  0.8324 -1.8761 -0.0301
11613SOL    HW236562   8.210   0.821   4.611 -1.5912  0.7854 -0.9298
11614SOL     OW36563   8.397   3.620   5.566 -1.0071 -0.0051 -0.1362
11614SOL    HW136564   8.406   3.529   5.595 -1.3689 -0.9301 -2.6452
11614SOL    HW236565   8.486   3.655   5.570 -1.0844  0.0674  2.2569
11615SOL     OW36566   0.756   4.894   9.517 -0.5916  0.0717 -0.2403
11615SOL    HW136567   0.807   4.835   9.572 -0.5141 -0.5667 -0.9826
11615SOL    HW236568   0.700   4.942   9.579 -0.2311 -0.3470  0.4250
11616SOL     OW36569   3.932   3.351   7.011  0.3835  0.2192  0.7801
11616SOL    HW136570   3.916   3.260   6.986 -0.1405  0.3593  0.5904
11616SOL    HW236571   4.020   3.369   6.979 -0.6242  0.7172 -2.0345
11617SOL     OW36572   5.670   7.269   9.487  0.2054  1.1282 -0.1716
11617SOL    HW136573   5.583   7.308   9.499  1.1774  2.6122  3.2434
11617SOL    HW236574   5.731   7.336   9.518  2.3774 -0.8961  0.1852
11618SOL     OW36575   4.060   7.676   0.365  0.1260  0.1232 -0.3237
11618SOL    HW136576   4.038   7.586   0.390  0.5526  0.0845 -0.0871
11618SOL    HW236577   4.127   7.703   0.427  1.6301 -0.1636 -1.7295
11619SOL     OW36578   5.253   2.639   2.257 -0.1523 -0.0066 -0.1718
11619SOL    HW136579   5.183   2.665   2.198  0.3060  1.8644  0.0490
11619SOL    HW236580   5.221   2.559   2.298 -1.5838  0.0876 -1.0321
11620SOL     OW36581   6.228   4.179   4.478 -0.4213 -0.1903 -0.8438
11620SOL    HW136582   6.282   4.125   4.536 -0.3029  0.2642 -0.5239
11620SOL    HW236583   6.272   4.176   4.394  1.3690  1.9343 -0.0864
11621SOL     OW36584   2.450   0.735   8.367 -0.3646  0.3148 -0.5345
11621SOL    HW136585   2.388   0.802   8.340 -0.3094  0.7631  0.4081
11621SOL    HW236586   2.534   0.780   8.372 -0.1256 -0.0792 -0.9375
11622SOL     OW36587   8.104   2.172   8.781 -0.1837  0.5337  0.4246
11622SOL    HW136588   8.031   2.230   8.757 -0.4980 -0.1597 -0.3246
11622SOL    HW236589   8.174   2.232   8.808  0.6543  1.4697 -3.3384
11623SOL     OW36590   2.015   1.338   5.879 -0.4699 -0.0507 -0.1811
11623SOL    HW136591   2.045   1.339   5.970 -0.6848  1.5567 -0.0920
11623SOL    HW236592   2.081   1.388   5.831 -0.1245 -1.2628 -1.0107
11624SOL     OW36593   2.967   2.722   2.746 -0.1681 -0.3204  0.4602
11624SOL    HW136594   3.007   2.755   2.826  0.0102 -1.3197  0.7982
11624SOL    HW236595   2.932   2.799   2.703 -1.5675  0.0876  2.2167
11625SOL     OW36596   4.431   3.330   8.303 -0.1490 -0.0917  0.0991
11625SOL    HW136597   4.372   3.384   8.251  1.4318 -0.2725 -1.9942
11625SOL    HW236598   4.375   3.262   8.341 -1.4369  0.3138 -1.0166
11626SOL     OW36599   3.541   1.259   5.076 -0.3987  0.6939 -0.6914
11626SOL    HW136600   3.467   1.280   5.133 -1.4671 -1.4319 -1.1619
11626SOL    HW236601   3.504   1.258   4.987 -0.2595 -1.7867 -0.8139
11627SOL     OW36602   8.304   7.681   4.083 -0.0597 -0.0958  0.2435
11627SOL    HW136603   8.217   7.716   4.102 -0.0328 -0.6852  1.6248
11627SOL    HW236604   8.364   7.737   4.132  0.2442 -0.2559  0.0576
11628SOL     OW36605   2.401   8.352   0.305  0.2798  0.0881  0.0566
11628SOL    HW136606   2.415   8.327   0.397 -0.4128 -0.0378  0.1342
11628SOL    HW236607   2.486   8.384   0.275  0.6867 -0.5371  0.5360
11629SOL     OW36608   6.495   0.731   0.519  0.1508 -0.0741 -0.0695
11629SOL    HW136609   6.438   0.654   0.521  0.7298 -0.5585 -1.2431
11629SOL    HW236610   6.578   0.699   0.483  0.8661  0.8151  0.7289
11630SOL     OW36611   8.511   5.758   0.509  0.1059  0.5538  0.0661
11630SOL    HW136612   8.447   5.703   0.463  2.0876 -1.8577 -0.0408
11630SOL    HW236613   8.462   5.836   0.534 -2.6084 -0.7366 -0.8099
11631SOL     OW36614   6.565   1.992   8.891 -0.1265  0.2693 -0.6820
11631SOL    HW136615   6.535   1.983   8.982 -0.0143 -2.5362 -0.8373
11631SOL    HW236616   6.485   2.007   8.841 -0.1216  2.6209 -0.1410
11632SOL     OW36617   8.174   4.203   3.069  0.4938 -0.2980 -0.0855
11632SOL    HW136618   8.099   4.234   3.118  1.3077  0.5602  0.6665
11632SOL    HW236619   8.249   4.247   3.109  1.3424 -0.7015 -1.1599
11633SOL     OW36620   8.533   9.264   4.802 -0.1252  0.0560  0.2483
11633SOL    HW136621   8.502   9.175   4.818  1.1659 -0.7966 -1.6093
11633SOL    HW236622   8.620   9.253   4.762 -0.1271  2.1273 -0.4816
11634SOL     OW36623   0.914   2.364   4.968 -0.1953 -0.3040 -0.4725
11634SOL    HW136624   0.917   2.325   4.881  1.4917  1.7621 -1.4219
11634SOL    HW236625   0.988   2.325   5.015  0.8023  0.8254 -1.0491
11635SOL     OW36626   5.875   6.177   0.938 -0.1768  0.3830 -0.2927
11635SOL    HW136627   5.964   6.205   0.960 -0.6692  1.0645  0.9400
11635SOL    HW236628   5.828   6.259   0.919 -0.7012  0.0783 -0.3401
11636SOL     OW36629   3.826   5.804   6.860  0.6136 -0.0047  0.0717
11636SOL    HW136630   3.736   5.769   6.856  0.2865  0.8568 -0.2552
11636SOL    HW236631   3.855   5.806   6.768  0.9821 -0.3036  0.1784
11637SOL     OW36632   1.784   2.846   4.934  0.5670  0.7130 -0.1484
11637SOL    HW136633   1.856   2.815   4.988  0.1452  0.3034  0.1842
11637SOL    HW236634   1.804   2.938   4.918  0.1219  1.1844  1.6992
11638SOL     OW36635   7.714   1.793   3.955 -0.3265 -1.0291  0.7128
11638SOL    HW136636   7.692   1.862   4.018 -0.0256  0.2944 -0.5623
11638SOL    HW236637   7.805   1.770   3.974  0.1866  0.2836 -0.0066
11639SOL     OW36638   2.830   5.718   2.083 -0.1669 -0.3343  0.4484
11639SOL    HW136639   2.886   5.649   2.048  1.1860  0.7179  0.4723
11639SOL    HW236640   2.749   5.710   2.033  0.8812 -0.3521 -1.3365
11640SOL     OW36641   1.795   5.852   2.716  0.0949  0.6444 -0.0648
11640SOL    HW136642   1.863   5.788   2.736 -0.4772  0.5066  1.6347
11640SOL    HW236643   1.751   5.817   2.639 -0.3739 -1.2005  0.9752
11641SOL     OW36644   4.358   2.264   7.591  0.1638  0.3215  0.5543
11641SOL    HW136645   4.341   2.272   7.497  0.3811  0.2607  0.5099
11641SOL    HW236646   4.294   2.322   7.632 -0.2926 -0.0621  0.3956
11642SOL     OW36647   3.711   8.009   6.508 -0.1007 -0.3413  0.4307
11642SOL    HW136648   3.631   8.031   6.461  0.5035  1.1761  0.0621
11642SOL    HW236649   3.680   7.969   6.590 -1.2559  0.7399  0.5497
11643SOL     OW36650   7.301   2.538   4.910 -0.2531  0.4082  0.3591
11643SOL    HW136651   7.240   2.597   4.864  1.0625  0.5394 -1.3229
11643SOL    HW236652   7.365   2.596   4.950 -0.5122  0.2137  1.0749
11644SOL     OW36653   1.598   9.540   8.773  0.0107 -0.0949  0.5500
11644SOL    HW136654   1.640   9.459   8.745  0.3218  0.0661  0.5445
11644SOL    HW236655   1.609   9.542   8.868 -1.8144 -1.0739  0.8256
11645SOL     OW36656   0.528   9.147   0.293  0.4376 -0.0656 -0.3045
11645SOL    HW136657   0.473   9.199   0.234  0.0210  1.3035  1.2285
11645SOL    HW236658   0.594   9.208   0.324  3.2501 -1.7581 -2.4365
11646SOL     OW36659   8.490   1.102   9.504 -0.5582 -0.0471 -0.7447
11646SOL    HW136660   8.476   1.194   9.482 -1.1097  0.5164  1.6393
11646SOL    HW236661   8.581   1.098   9.532 -0.6998 -0.0637 -0.2684
11647SOL     OW36662   7.693   2.166   5.810 -0.5461  0.4853 -0.4811
11647SOL    HW136663   7.703   2.258   5.835 -0.9988  0.4696 -0.2324
11647SOL    HW236664   7.611   2.163   5.761 -0.8709  0.1015  0.0769
11648SOL     OW36665   0.412   5.992   6.332  0.2248  0.3036  0.6524
11648SOL    HW136666   0.406   6.086   6.313 -0.5687  0.0890 -0.2404
11648SOL    HW236667   0.502   5.979   6.361  0.4270  1.2879  0.5055
11649SOL     OW36668   8.742   8.824   3.348  0.1777 -0.0904  0.7771
11649SOL    HW136669   8.672   8.885   3.370  0.5377  0.2711  0.9378
11649SOL    HW236670   8.805   8.834   3.419  1.4920  1.2852 -0.5024
11650SOL     OW36671   8.041   6.291   8.871 -0.1122 -0.0180 -0.2701
11650SOL    HW136672   8.075   6.305   8.783 -0.4848 -1.7181 -0.7313
11650SOL    HW236673   7.965   6.234   8.858 -0.9920  0.8046  1.0411
11651SOL     OW36674   1.086   6.394   6.237 -0.0551 -0.0028 -0.4601
11651SOL    HW136675   1.169   6.376   6.195 -0.4453 -0.3287 -1.1107
11651SOL    HW236676   1.109   6.428   6.323  0.7896  1.6763 -1.3036
11652SOL     OW36677   8.746   2.588   8.842  0.0612 -0.2252 -0.7207
11652SOL    HW136678   8.791   2.510   8.811  0.3159 -0.9211  1.2762
11652SOL    HW236679   8.816   2.651   8.859 -0.0864  0.1944 -1.6068
11653SOL     OW36680   7.162   4.841   3.628  0.4570  0.0604  0.0820
11653SOL    HW136681   7.212   4.875   3.554  1.0440 -0.1660  0.3684
11653SOL    HW236682   7.175   4.746   3.625  1.0515  0.1048  0.8677
11654SOL     OW36683   7.030   0.712   8.153  0.1688  0.1545 -0.4906
11654SOL    HW136684   7.028   0.744   8.243  1.7373  0.0137 -0.3779
11654SOL    HW236685   7.027   0.616   8.162 -3.0872  0.1195 -0.7713
11655SOL     OW36686   0.018   6.863   5.781  0.1609 -0.2873 -0.2853
11655SOL    HW136687  -0.066   6.906   5.799  0.0720 -0.8531  0.7248
11655SOL    HW236688   0.002   6.812   5.701 -0.7005 -0.9824  0.3102
11656SOL     OW36689   7.259   9.495   0.891  0.0689 -0.0280  0.0730
11656SOL    HW136690   7.169   9.465   0.875 -0.7104  1.3251  1.5383
11656SOL    HW236691   7.282   9.456   0.975  0.9075 -0.4421 -0.3414
11657SOL     OW36692   2.451   1.459   0.385 -0.4578  0.2234 -0.2036
11657SOL    HW136693   2.491   1.519   0.448 -0.2901 -0.5664  0.4646
11657SOL    HW236694   2.361   1.491   0.375 -0.5485  0.2385  0.5948
11658SOL     OW36695   5.141   3.148   7.794 -0.3634  0.2470 -0.0142
11658SOL    HW136696   5.121   3.164   7.887  0.8487  3.0970 -0.1470
11658SOL    HW236697   5.228   3.186   7.782  0.2072 -1.5434 -2.0007
11659SOL     OW36698   2.526   5.221   1.110  0.0324 -0.4092 -0.1449
11659SOL    HW136699   2.611   5.248   1.075  1.0339  0.0483  2.3707
11659SOL    HW236700   2.464   5.283   1.073  0.7890 -0.6915 -1.9720
11660SOL     OW36701   8.381   3.819   4.175  0.2969 -0.2041  0.3842
11660SOL    HW136702   8.408   3.890   4.117  2.9270 -0.1650  1.5326
11660SOL    HW236703   8.391   3.739   4.123 -0.2331  0.0353 -0.1027
11661SOL     OW36704   6.798   7.665   5.935 -0.1788  0.4551  0.7636
11661SOL    HW136705   6.876   7.700   5.978 -0.9075  2.2246  0.7232
11661SOL    HW236706   6.753   7.615   6.003  0.2263  0.6999  1.2130
11662SOL     OW36707   4.077   5.780   6.394 -0.0955 -0.6162 -0.2199
11662SOL    HW136708   4.026   5.787   6.313 -0.1135 -1.6235 -0.3058
11662SOL    HW236709   4.162   5.746   6.366  0.0884 -0.4378  0.1181
11663SOL     OW36710   9.366   0.788   0.834  0.0538 -0.2819  0.0747
11663SOL    HW136711   9.289   0.795   0.891 -0.8296  0.0174 -1.1156
11663SOL    HW236712   9.370   0.695   0.812 -0.4570 -0.1732 -0.5004
11664SOL     OW36713   5.040   6.080   6.409 -0.2635  0.0301 -0.0158
11664SOL    HW136714   4.950   6.049   6.393 -0.5983  0.4167  1.0309
11664SOL    HW236715   5.052   6.072   6.503  0.7635  0.1110 -0.1290
11665SOL     OW36716   1.904   0.371   0.219 -0.5073  0.0744 -0.5582
11665SOL    HW136717   1.877   0.413   0.137  0.5664  0.4462 -0.7399
11665SOL    HW236718   1.948   0.441   0.269  1.1933 -0.7563 -0.8089
11666SOL     OW36719   6.955   7.734   8.839  0.2560 -0.2849 -0.1265
11666SOL    HW136720   6.987   7.730   8.749  2.5546  0.6426  0.5901
11666SOL    HW236721   6.871   7.779   8.832  0.3907 -0.2188 -1.7978
11667SOL     OW36722   0.621   4.037   6.859  0.1316 -0.5778  0.3495
11667SOL    HW136723   0.615   4.039   6.954  1.1495 -0.8594  0.4353
11667SOL    HW236724   0.531   4.050   6.829 -0.0968  0.2871  1.3273
11668SOL     OW36725   1.987   3.149   7.704 -0.5981  0.2698 -0.2480
11668SOL    HW136726   1.992   3.241   7.677 -0.5301  0.0039 -1.1756
11668SOL    HW236727   2.068   3.135   7.754  0.0139  0.3975 -1.1678
11669SOL     OW36728   3.438   4.067   6.486 -0.0348 -0.3794  0.1604
11669SOL    HW136729   3.478   4.154   6.493 -0.9231 -0.0107  0.8451
11669SOL    HW236730   3.426   4.038   6.577 -0.3777 -0.9126 -0.0471
11670SOL     OW36731   6.649   1.840   1.523  0.5043  0.1670  0.8083
11670SOL    HW136732   6.599   1.772   1.568 -1.4296  0.8691 -0.1690
11670SOL    HW236733   6.613   1.922   1.556 -2.1138  0.7828 -2.8609
11671SOL     OW36734   5.036   1.104   2.750 -0.2372  0.3363 -0.0109
11671SOL    HW136735   5.052   1.191   2.714  1.5095 -0.7546 -2.1266
11671SOL    HW236736   4.987   1.058   2.681  1.1979 -1.1458 -0.0920
11672SOL     OW36737   0.693   7.200   7.019  0.5386 -0.3492  0.3178
11672SOL    HW136738   0.774   7.185   7.067  1.1519 -0.3296 -0.6679
11672SOL    HW236739   0.695   7.135   6.948 -0.3060 -0.3441  0.2685
11673SOL     OW36740   7.255   7.890   0.668  0.5591  0.0951  0.2877
11673SOL    HW136741   7.289   7.834   0.599 -1.4127 -2.4654  1.2432
11673SOL    HW236742   7.324   7.892   0.734  1.3881  0.4112 -0.5562
11674SOL     OW36743   2.941   8.398   0.954  0.4245  0.3255 -0.4687
11674SOL    HW136744   2.890   8.360   0.884  0.0867 -0.9592  0.4529
11674SOL    HW236745   2.878   8.447   1.006  0.3333 -0.2927  0.0070
11675SOL     OW36746   1.841   8.778   6.557 -0.5909 -0.3223 -0.0065
11675SOL    HW136747   1.814   8.868   6.577 -0.9654  0.1398 -2.3023
11675SOL    HW236748   1.776   8.723   6.600 -2.8215  0.6692 -1.8793
11676SOL     OW36749   8.993   7.008   2.668  0.6378  0.6723  0.0917
11676SOL    HW136750   8.975   7.033   2.577 -1.7184 -2.2063 -0.3984
11676SOL    HW236751   8.906   7.000   2.707  1.4692 -1.1933  1.6761
11677SOL     OW36752   0.249   8.798   6.166 -0.3605 -0.1210 -0.4688
11677SOL    HW136753   0.202   8.714   6.167 -1.6983  0.6040  0.0186
11677SOL    HW236754   0.181   8.863   6.151  0.8512  0.8062 -2.3924
11678SOL     OW36755   1.777   7.652   3.868  0.0785  0.3620 -0.3972
11678SOL    HW136756   1.872   7.647   3.861  0.3264 -1.4029  2.5723
11678SOL    HW236757   1.745   7.568   3.836 -0.3828  0.5028 -0.3190
11679SOL     OW36758   0.648   3.109   9.359  0.1256 -0.3488 -0.4498
11679SOL    HW136759   0.656   3.068   9.273  2.5582  0.5045 -0.6986
11679SOL    HW236760   0.728   3.160   9.369 -0.1966 -0.2324  2.2367
11680SOL     OW36761   0.681   4.688   5.059  0.1525 -0.2020 -0.0292
11680SOL    HW136762   0.649   4.608   5.017  0.6779 -0.4623  0.0602
11680SOL    HW236763   0.609   4.750   5.050 -0.2323 -0.6624 -0.1656
11681SOL     OW36764   0.981   1.423   8.140 -0.4141 -0.4650 -0.7144
11681SOL    HW136765   0.983   1.437   8.235  0.4301 -0.9015 -0.6610
11681SOL    HW236766   0.891   1.397   8.121 -0.9488  0.9477 -0.2324
11682SOL     OW36767   2.346   9.469   2.133 -0.2869  0.0549 -0.0757
11682SOL    HW136768   2.267   9.523   2.127  0.3073  0.8951 -0.4869
11682SOL    HW236769   2.380   9.485   2.220 -0.2155  0.1873 -0.1286
11683SOL     OW36770   9.673   1.224   5.742 -0.5209 -0.3115 -0.1211
11683SOL    HW136771   9.711   1.311   5.739  1.6274 -0.9215  3.3775
11683SOL    HW236772   9.579   1.238   5.742 -0.2493  2.2063  1.9178
11684SOL     OW36773   3.319   1.036   6.325 -0.2905 -0.4626 -0.2325
11684SOL    HW136774   3.392   1.093   6.299 -0.1355 -0.8745 -0.7135
11684SOL    HW236775   3.357   0.948   6.323 -0.9062 -0.7134 -0.8363
11685SOL     OW36776   1.370   6.134   7.224  0.2654  0.4571 -0.8011
11685SOL    HW136777   1.376   6.074   7.150  0.6722 -0.3354 -0.1343
11685SOL    HW236778   1.417   6.091   7.295 -2.8621 -0.3968  0.9573
11686SOL     OW36779   8.310   4.005   5.008  0.2972 -0.2768  0.5873
11686SOL    HW136780   8.309   3.945   5.083  0.3538 -0.5512  0.3696
11686SOL    HW236781   8.402   4.019   4.988  0.3545  1.2942  1.7482
11687SOL     OW36782   0.074   8.915   2.408 -0.0841  0.3864 -0.0667
11687SOL    HW136783  -0.003   8.898   2.463  0.1271 -1.9175 -0.3812
11687SOL    HW236784   0.127   8.976   2.459 -1.0757  0.2775  1.1460
11688SOL     OW36785   2.586   4.021   2.275  0.2836 -0.6635  0.1396
11688SOL    HW136786   2.590   4.091   2.340  0.7573 -1.3434  0.8570
11688SOL    HW236787   2.677   4.002   2.253  0.1960 -1.5376  0.4909
11689SOL     OW36788   7.297   7.342   1.692  0.2785  0.2840 -0.7229
11689SOL    HW136789   7.332   7.255   1.675  0.7935  0.3971 -0.2926
11689SOL    HW236790   7.369   7.401   1.670 -0.5771  0.7064 -2.4850
11690SOL     OW36791   3.245   7.769   5.350  0.0286 -0.5838  0.1200
11690SOL    HW136792   3.292   7.830   5.407 -1.4817 -0.3732  1.2247
11690SOL    HW236793   3.221   7.822   5.274 -0.3767 -0.0502  0.6020
11691SOL     OW36794   3.876   7.256   6.853 -0.2102 -0.8113 -0.1399
11691SOL    HW136795   3.815   7.184   6.873 -0.1791 -0.8327 -0.1223
11691SOL    HW236796   3.856   7.280   6.762 -0.8866 -0.1984  0.1546
11692SOL     OW36797   9.036   2.123   5.757 -0.4736  0.4643  0.1530
11692SOL    HW136798   9.112   2.069   5.737 -0.1052  1.0110  0.0263
11692SOL    HW236799   8.971   2.100   5.690  0.2016  1.1921 -0.7990
11693SOL     OW36800   2.207   3.002   3.072 -1.1466 -0.2538  0.8085
11693SOL    HW136801   2.241   2.914   3.056 -0.2969  0.1412  0.4003
11693SOL    HW236802   2.282   3.051   3.104 -1.8540  0.0732  2.0264
11694SOL     OW36803   8.990   6.988   8.246 -0.1776  0.1729 -0.6158
11694SOL    HW136804   8.961   6.904   8.282  1.6160 -0.4851 -0.6313
11694SOL    HW236805   8.988   6.976   8.151 -1.6619  0.7897 -0.6946
11695SOL     OW36806   7.163   8.572   2.038  0.1258 -0.6440 -0.0730
11695SOL    HW136807   7.185   8.503   1.974  0.1390 -1.3571  0.6823
11695SOL    HW236808   7.072   8.556   2.059  0.2067 -0.6010  0.3100
11696SOL     OW36809   0.984   0.465   1.602  0.7167  0.1234  0.0920
11696SOL    HW136810   1.020   0.382   1.633 -1.0554 -0.1812  1.5187
11696SOL    HW236811   1.048   0.531   1.632  1.7878 -0.6405 -0.4519
11697SOL     OW36812   0.753   3.682   5.825  0.1251 -0.3422  0.0897
11697SOL    HW136813   0.824   3.674   5.890  2.5296  1.0609 -2.1816
11697SOL    HW236814   0.717   3.593   5.820  2.8882 -1.5792  0.1524
11698SOL     OW36815   2.542   5.580   0.675 -0.4382  0.2171 -0.3210
11698SOL    HW136816   2.600   5.599   0.602 -1.7906 -1.0242 -1.7845
11698SOL    HW236817   2.489   5.506   0.645 -0.8087 -0.5725  2.0505
11699SOL     OW36818   8.366   0.995   5.268 -0.3185 -0.1063 -0.3240
11699SOL    HW136819   8.275   1.011   5.244  0.4716  0.4670 -3.3561
11699SOL    HW236820   8.386   0.910   5.230  0.5588  0.0344 -0.2036
11700SOL     OW36821   1.199   2.747   4.030  0.2339 -0.3465 -0.1182
11700SOL    HW136822   1.159   2.766   4.115 -1.6070  0.1498 -1.0241
11700SOL    HW236823   1.231   2.832   3.999  1.7622 -0.6832  0.4450
11701SOL     OW36824   2.232   3.173   7.875  0.0279  0.2741  0.1857
11701SOL    HW136825   2.310   3.118   7.864  0.5521  0.8272  1.0273
11701SOL    HW236826   2.253   3.230   7.949 -0.6573  1.3375 -0.4076
11702SOL     OW36827   0.493   9.611   5.830 -0.4307 -0.2467 -0.3984
11702SOL    HW136828   0.533   9.698   5.822  3.6351 -1.7779  0.4905
11702SOL    HW236829   0.494   9.577   5.740  0.3957 -0.2593 -0.3956
11703SOL     OW36830   2.072   7.209   3.550  0.2259 -0.2806  0.1583
11703SOL    HW136831   2.095   7.205   3.643  1.0958 -0.3925 -0.0520
11703SOL    HW236832   1.979   7.186   3.548 -0.3803  1.7808  1.2056
11704SOL     OW36833   4.735   7.094   5.150 -0.0680  0.4094  0.2360
11704SOL    HW136834   4.806   7.102   5.214  0.4525 -0.2120 -0.2526
11704SOL    HW236835   4.760   7.019   5.096  0.0855  1.6561 -1.4613
11705SOL     OW36836   8.087   3.390   1.938  0.8441 -0.1224  0.2684
11705SOL    HW136837   8.017   3.413   2.000 -0.0267  0.9864 -1.0543
11705SOL    HW236838   8.057   3.308   1.898  0.7703 -0.1506  0.3802
11706SOL     OW36839   2.332   3.833   2.230 -0.1687 -0.7497  0.2999
11706SOL    HW136840   2.293   3.846   2.144  1.0560  0.5851 -0.0907
11706SOL    HW236841   2.421   3.866   2.222  0.3931 -1.7751  1.7364
11707SOL     OW36842   7.137   3.775   7.359  0.3608 -0.3881  0.1248
11707SOL    HW136843   7.117   3.685   7.382  0.0459 -0.3442  0.0295
11707SOL    HW236844   7.054   3.822   7.370  1.0715  0.4400  2.8249
11708SOL     OW36845   3.167   7.399   2.170  0.2960 -0.4255  0.2185
11708SOL    HW136846   3.244   7.344   2.183  0.3025 -0.8157 -1.2311
11708SOL    HW236847   3.136   7.419   2.258  1.1246 -1.5779  0.7986
11709SOL     OW36848   5.621   3.998   7.935 -0.4188 -0.0484  0.1259
11709SOL    HW136849   5.583   4.027   8.018 -1.4884 -2.5153  0.5973
11709SOL    HW236850   5.546   3.965   7.885  0.3997  0.1688 -1.2852
11710SOL     OW36851   6.481   8.656   7.512 -0.1111 -0.3975  0.5324
11710SOL    HW136852   6.447   8.692   7.430  0.9494 -0.2398  0.1524
11710SOL    HW236853   6.558   8.709   7.531  1.1004 -2.0071  0.3097
11711SOL     OW36854   5.660   1.416   4.190 -0.2470 -0.1312 -0.1750
11711SOL    HW136855   5.674   1.368   4.272 -2.1759  1.0721  0.9264
11711SOL    HW236856   5.749   1.438   4.161  0.5192 -1.1324  1.2467
11712SOL     OW36857   0.873   2.157   0.500  0.2891 -0.3665 -0.1392
11712SOL    HW136858   0.892   2.220   0.431 -1.3411  0.0809 -0.2215
11712SOL    HW236859   0.949   2.098   0.501  0.3680 -0.3629 -2.2712
11713SOL     OW36860   9.466   4.156   4.967 -0.0348 -0.0816 -0.4703
11713SOL    HW136861   9.381   4.142   4.925 -0.0553 -0.0860 -0.4277
11713SOL    HW236862   9.499   4.068   4.985 -0.0825 -0.0778 -0.3631
11714SOL     OW36863   8.883   4.500   1.749  0.0277  0.1118 -0.4962
11714SOL    HW136864   8.919   4.413   1.767  1.8375  1.3482  2.6698
11714SOL    HW236865   8.934   4.533   1.676  1.4166 -0.3806  0.2310
11715SOL     OW36866   8.604   8.437   7.361 -0.3455  0.2109  0.3918
11715SOL    HW136867   8.667   8.398   7.300 -0.6417 -0.5054  0.5358
11715SOL    HW236868   8.656   8.499   7.412  0.0006  0.4902 -0.2836
11716SOL     OW36869   5.163   7.583   6.606 -0.0711 -0.0549 -0.9985
11716SOL    HW136870   5.112   7.503   6.605  0.9535 -0.7260 -1.0978
11716SOL    HW236871   5.106   7.648   6.646  0.0684 -1.5073  1.7600
11717SOL     OW36872   3.667   8.642   4.535 -0.1855  0.1901 -0.2107
11717SOL    HW136873   3.745   8.604   4.493 -0.9353 -1.0214 -0.5629
11717SOL    HW236874   3.680   8.626   4.628  0.2607  0.5224 -0.2132
11718SOL     OW36875   4.893   6.743   6.447 -0.3777  0.0142 -0.2498
11718SOL    HW136876   4.955   6.675   6.472  0.8113  0.1864 -2.4333
11718SOL    HW236877   4.933   6.825   6.479 -0.9922 -0.1274  0.9325
11719SOL     OW36878   0.578   2.545   4.667  0.3614 -0.1940 -0.3523
11719SOL    HW136879   0.643   2.587   4.610 -1.5558  2.0233 -1.0574
11719SOL    HW236880   0.624   2.534   4.751  1.5788  1.6142 -0.7177
11720SOL     OW36881   6.743   6.483   4.334  0.1815 -0.1649  0.2162
11720SOL    HW136882   6.752   6.513   4.243  2.8444  1.3295  0.8834
11720SOL    HW236883   6.770   6.391   4.331 -2.1925 -0.9195 -0.8307
11721SOL     OW36884   5.712   5.000   5.982  0.0927 -0.2462 -0.2361
11721SOL    HW136885   5.769   5.069   6.015 -0.9707  0.1074  0.9369
11721SOL    HW236886   5.756   4.918   6.006  0.9696  0.0094 -0.9367
11722SOL     OW36887   6.650   2.880   5.494  0.1367  0.4430  0.3306
11722SOL    HW136888   6.648   2.787   5.473  1.1517  0.8611 -1.9097
11722SOL    HW236889   6.589   2.920   5.432 -1.2873  1.1831  2.1142
11723SOL     OW36890   3.339   6.752   8.616  0.0921  0.1279  0.2364
11723SOL    HW136891   3.294   6.734   8.699 -0.8429  0.7773 -0.1062
11723SOL    HW236892   3.431   6.731   8.633 -0.2313 -0.5844  1.1709
11724SOL     OW36893   0.178   6.924   7.024 -0.9637 -0.0426 -0.0795
11724SOL    HW136894   0.238   6.864   6.979 -0.8948  1.1620 -1.6780
11724SOL    HW236895   0.123   6.960   6.954 -2.0241  0.6228  1.0514
11725SOL     OW36896   0.818   9.217   3.458  0.4922  0.0414 -0.5495
11725SOL    HW136897   0.812   9.217   3.553 -2.0708  0.4805 -0.6426
11725SOL    HW236898   0.861   9.299   3.436 -0.4804  0.7631  0.1853
11726SOL     OW36899   0.115   4.735   7.894 -0.0986  0.2207  0.2288
11726SOL    HW136900   0.178   4.800   7.924  0.2965 -0.5737  1.1782
11726SOL    HW236901   0.117   4.666   7.961 -0.3386 -0.8795 -0.8488
11727SOL     OW36902   0.833   7.960   7.090  0.3911  0.2727 -0.1113
11727SOL    HW136903   0.753   7.910   7.076 -0.1389  1.1604 -0.3129
11727SOL    HW236904   0.833   7.980   7.184 -0.3703  1.5060 -0.3672
11728SOL     OW36905   8.896   2.406   5.297  0.0735 -0.0582 -0.4718
11728SOL    HW136906   8.887   2.491   5.342  0.7410  0.1380 -0.7014
11728SOL    HW236907   8.915   2.429   5.206  1.7127 -0.4281 -0.2568
11729SOL     OW36908   8.250   1.147   0.210  0.4745 -0.3406 -0.0106
11729SOL    HW136909   8.303   1.223   0.185  0.9818  0.1366  2.2331
11729SOL    HW236910   8.160   1.180   0.209  0.4352 -0.4667 -1.5318
11730SOL     OW36911   2.169   6.730   0.852 -0.4404  0.3736 -0.0496
11730SOL    HW136912   2.129   6.768   0.774  0.3229 -0.5675 -0.9275
11730SOL    HW236913   2.174   6.636   0.834  1.1450  0.3132  0.4672
11731SOL     OW36914   4.564   8.689   4.758 -0.0443 -0.6608  0.1444
11731SOL    HW136915   4.500   8.676   4.688 -1.2030 -1.1434  1.2601
11731SOL    HW236916   4.512   8.695   4.837  1.2589 -0.2856  1.0054
11732SOL     OW36917   3.369   7.481   0.689 -0.5122 -0.2567  0.1605
11732SOL    HW136918   3.287   7.437   0.666 -1.0494  1.0386 -0.5023
11732SOL    HW236919   3.360   7.501   0.782 -0.9121 -0.2142  0.1168
11733SOL     OW36920   8.522   0.583   2.067 -0.3411  0.2261  0.0993
11733SOL    HW136921   8.573   0.561   2.145 -0.0208  2.4360  0.5686
11733SOL    HW236922   8.454   0.642   2.099 -2.5111 -1.7046 -0.7323
11734SOL     OW36923   4.854   4.611   3.073 -0.1880  0.0545 -0.0236
11734SOL    HW136924   4.768   4.609   3.032 -0.0611 -0.8373 -0.2735
11734SOL    HW236925   4.901   4.538   3.033  0.8131  0.7550 -0.1721
11735SOL     OW36926   7.557   9.488   7.473 -0.0950 -0.3985  0.5825
11735SOL    HW136927   7.641   9.532   7.486 -0.9144  1.2105  0.6783
11735SOL    HW236928   7.542   9.492   7.379  0.4925 -1.8245  0.3969
11736SOL     OW36929   3.409   1.321   3.389 -0.7113 -0.2539 -0.0588
11736SOL    HW136930   3.402   1.386   3.319 -0.9393  2.4941  2.3327
11736SOL    HW236931   3.327   1.273   3.385  0.3226 -2.0346 -3.2364
11737SOL     OW36932   4.644   6.675   4.967 -0.0279  0.7160  0.2007
11737SOL    HW136933   4.663   6.605   5.029 -1.6039 -0.3180 -0.4363
11737SOL    HW236934   4.556   6.705   4.990 -0.6490  0.3152 -1.5002
11738SOL     OW36935   3.454   9.521   4.079 -0.2446 -0.2216  0.2260
11738SOL    HW136936   3.384   9.479   4.029 -0.9054 -0.2872  1.1910
11738SOL    HW236937   3.443   9.615   4.060  1.1861 -0.3914 -1.8667
11739SOL     OW36938   3.236   5.306   5.958 -0.3069  0.4347 -0.1322
11739SOL    HW136939   3.328   5.331   5.971 -0.0242 -0.3372 -0.5840
11739SOL    HW236940   3.189   5.349   6.029  0.7548 -1.2025  1.6626
11740SOL     OW36941   1.107   2.864   3.600 -0.2334 -0.1652  0.1556
11740SOL    HW136942   1.189   2.913   3.596  0.1210 -0.7886 -0.5116
11740SOL    HW236943   1.131   2.774   3.576 -1.1531 -0.2972 -0.3576
11741SOL     OW36944   6.153   5.943   1.233 -0.1785  0.0162  0.0525
11741SOL    HW136945   6.186   5.957   1.322 -0.2979  0.2864  0.0549
11741SOL    HW236946   6.059   5.959   1.240 -0.2567 -0.3799 -0.0347
11742SOL     OW36947   5.817   5.763   6.761  0.0431 -0.7266 -0.4749
11742SOL    HW136948   5.778   5.792   6.843 -1.1365 -0.4901 -1.0959
11742SOL    HW236949   5.767   5.808   6.693  0.8664 -1.0674 -1.3384
11743SOL     OW36950   3.881   8.871   7.602 -0.0970  0.3739  0.5532
11743SOL    HW136951   3.857   8.814   7.529  0.5756  1.9210 -0.9446
11743SOL    HW236952   3.975   8.882   7.593 -0.0377  0.7409  1.5600
11744SOL     OW36953   5.050   3.835   4.070 -0.0332  0.2123 -0.0017
11744SOL    HW136954   5.060   3.848   3.976 -0.4458 -1.5201 -0.3194
11744SOL    HW236955   4.956   3.832   4.084  0.0276 -0.2338  0.3492
11745SOL     OW36956   0.260   7.221   2.588 -0.0047  0.2113 -0.3825
11745SOL    HW136957   0.239   7.204   2.496  0.1999  2.0883 -0.8084
11745SOL    HW236958   0.356   7.215   2.592  0.0628  1.0994 -0.5188
11746SOL     OW36959   6.736   0.751   6.025  0.3157  0.8654  0.0365
11746SOL    HW136960   6.648   0.729   5.993  0.3478  0.4495  0.2208
11746SOL    HW236961   6.738   0.716   6.114  1.3124 -0.8558 -0.6138
11747SOL     OW36962   5.078   7.394   3.345 -0.5267  0.4371 -0.1321
11747SOL    HW136963   5.063   7.334   3.271  1.9111 -1.8544  1.0552
11747SOL    HW236964   5.075   7.338   3.422 -0.2454  2.2767  1.2873
11748SOL     OW36965   1.721   4.461   6.683 -0.5977  0.5703 -0.1611
11748SOL    HW136966   1.777   4.492   6.755 -1.0509  0.4176  0.2623
11748SOL    HW236967   1.698   4.541   6.635  1.3334  0.4838 -1.3582
11749SOL     OW36968   7.571   5.371   8.185 -0.4897 -0.1969  0.0643
11749SOL    HW136969   7.604   5.291   8.227  0.6424 -0.3533 -1.0603
11749SOL    HW236970   7.489   5.343   8.143 -0.7038 -0.4732  0.6538
11750SOL     OW36971   9.372   8.807   7.352  0.2439  0.2194  0.1746
11750SOL    HW136972   9.277   8.807   7.344  0.1934  0.5210  0.7131
11750SOL    HW236973   9.392   8.728   7.402  0.1998  0.6137  0.8265
11751SOL     OW36974   6.974   5.895   2.693 -0.0207  0.6740 -0.2390
11751SOL    HW136975   7.046   5.955   2.677 -0.2652  0.9280 -0.3880
11751SOL    HW236976   6.954   5.906   2.786 -0.5820  1.4042 -0.4365
11752SOL     OW36977   5.854   2.945   7.378  0.1334 -0.1327  0.2055
11752SOL    HW136978   5.902   2.883   7.322 -0.1738  0.2050 -0.4420
11752SOL    HW236979   5.911   2.960   7.452  0.5065 -0.6725  0.0305
11753SOL     OW36980   7.871   8.429   7.096 -0.2931 -0.2471 -0.1134
11753SOL    HW136981   7.916   8.512   7.113 -1.5408  0.3946  0.1646
11753SOL    HW236982   7.903   8.402   7.010  1.2064 -0.2356  0.4056
11754SOL     OW36983   0.375   3.126   9.418  0.2493  0.4469 -0.7197
11754SOL    HW136984   0.345   3.173   9.496 -0.1069 -1.5096  0.4038
11754SOL    HW236985   0.469   3.143   9.415  0.3737  0.1239  0.4944
11755SOL     OW36986   1.460   3.719   8.891 -0.2580  0.2979  0.2624
11755SOL    HW136987   1.422   3.641   8.851 -1.4922 -0.7877  3.2756
11755SOL    HW236988   1.549   3.693   8.913 -0.2740  0.1708  0.1798
11756SOL     OW36989   7.523   2.217   2.250  0.3145  0.0206 -0.0269
11756SOL    HW136990   7.573   2.298   2.243 -0.1760  0.2445 -1.2224
11756SOL    HW236991   7.589   2.150   2.267  1.2539  0.1136 -2.8396
11757SOL     OW36992   0.585   1.586   0.578  0.2753  0.2097  0.2932
11757SOL    HW136993   0.594   1.544   0.492 -2.2478  0.4768 -0.1723
11757SOL    HW236994   0.568   1.514   0.638  1.4626  0.0821  0.5036
11758SOL     OW36995   6.053   4.181   5.545  0.3505 -0.2183 -0.6491
11758SOL    HW136996   5.986   4.206   5.482 -0.2643 -0.2862 -0.0371
11758SOL    HW236997   6.011   4.115   5.600  0.9359 -0.2971 -0.2812
11759SOL     OW36998   7.470   6.180   4.141  0.1892 -0.1898  0.1920
11759SOL    HW136999   7.380   6.155   4.162  0.5875 -2.1939 -0.2545
11759SOL    HW237000   7.494   6.242   4.210 -1.8781  1.3357 -0.3341
11760SOL     OW37001   3.529   1.337   1.512  0.3084  0.0947 -0.4915
11760SOL    HW137002   3.490   1.402   1.571 -0.1572 -0.7369  0.1442
11760SOL    HW237003   3.583   1.389   1.452 -0.4725  1.1150 -0.3475
11761SOL     OW37004   6.851   0.305   2.383 -0.0142  0.1017  0.0480
11761SOL    HW137005   6.763   0.302   2.345 -0.5641 -1.4534  1.3357
11761SOL    HW237006   6.837   0.338   2.472  0.5493 -1.1662  0.6232
11762SOL     OW37007   9.026   0.103   3.450 -0.6213 -0.1606 -0.4325
11762SOL    HW137008   9.100   0.140   3.401  1.2384 -0.6370  1.8736
11762SOL    HW237009   9.040   0.009   3.449  1.7525 -0.1263  4.0528
11763SOL     OW37010   9.499   0.412   6.738  0.1126  0.3155  0.0280
11763SOL    HW137011   9.430   0.347   6.727  0.3588  0.1018 -0.2680
11763SOL    HW237012   9.548   0.409   6.656  0.2104  0.7743  0.0677
11764SOL     OW37013   5.336   8.437   2.734  0.6152  0.8815 -0.7131
11764SOL    HW137014   5.314   8.345   2.717 -0.7830  1.2811 -1.2055
11764SOL    HW237015   5.296   8.456   2.819 -0.2351  1.3733 -1.2064
11765SOL     OW37016   0.498   7.394   3.443  0.5630  0.2664  0.2805
11765SOL    HW137017   0.543   7.425   3.364  0.9484 -0.1845  0.3237
11765SOL    HW237018   0.422   7.346   3.409  1.0946 -0.5052  0.1596
11766SOL     OW37019   9.113   6.630   6.280  0.1513 -0.1440  0.3991
11766SOL    HW137020   9.149   6.622   6.192 -1.3542  1.3947 -0.4082
11766SOL    HW237021   9.136   6.719   6.308  0.7779 -0.6679  1.6753
11767SOL     OW37022   7.076   4.177   2.225  0.8765  0.1821 -0.3672
11767SOL    HW137023   7.134   4.242   2.186  0.3472 -0.1699 -1.8045
11767SOL    HW237024   7.004   4.228   2.263  2.1784  0.6353  1.6302
11768SOL     OW37025   6.989   5.916   1.852 -0.5843  0.1116 -0.0437
11768SOL    HW137026   7.044   5.838   1.841  0.2350  0.8503 -1.5974
11768SOL    HW237027   6.919   5.905   1.787 -1.7317 -0.3324  1.2231
11769SOL     OW37028   2.874   2.049   8.808  0.0767  0.2406 -0.2647
11769SOL    HW137029   2.902   2.019   8.894 -0.7773 -0.7768 -0.3137
11769SOL    HW237030   2.846   2.140   8.822 -0.5663 -0.0843  0.6585
11770SOL     OW37031   0.212   4.807   0.269 -0.0157  0.5994 -0.0720
11770SOL    HW137032   0.293   4.766   0.301 -0.7466 -0.7191  0.1577
11770SOL    HW237033   0.163   4.827   0.349 -1.2350 -1.4281 -0.2409
11771SOL     OW37034   7.911   0.816   3.688 -0.5123  0.2118  0.0912
11771SOL    HW137035   7.931   0.724   3.668 -3.0440  0.0765 -2.3002
11771SOL    HW237036   7.991   0.863   3.664  0.5753 -1.2313  0.6808
11772SOL     OW37037   1.991   0.258   8.515 -0.4389 -0.4138  0.6757
11772SOL    HW137038   2.018   0.200   8.444  0.3881  0.7148  0.0174
11772SOL    HW237039   2.072   0.303   8.541 -1.0875  0.6459  0.9478
11773SOL     OW37040   6.653   8.121   4.843  0.3681 -0.1631  0.6471
11773SOL    HW137041   6.653   8.118   4.939  0.8815  2.3710  0.8130
11773SOL    HW237042   6.744   8.142   4.821  0.2479 -0.7275 -0.4081
11774SOL     OW37043   9.189   3.500   6.348 -0.3047 -0.3146  0.6819
11774SOL    HW137044   9.105   3.547   6.347 -0.2378 -0.1759  1.3309
11774SOL    HW237045   9.189   3.451   6.266  0.4903  2.3813 -1.0794
11775SOL     OW37046   2.819   5.477   2.317  0.1520  0.2221 -0.5665
11775SOL    HW137047   2.752   5.471   2.249  0.2744  2.1220 -0.9245
11775SOL    HW237048   2.901   5.457   2.272 -0.1243 -2.0007 -0.1510
11776SOL     OW37049   3.310   7.608   5.782  0.0084  0.0716  0.4000
11776SOL    HW137050   3.385   7.661   5.810  0.7966 -1.5250  1.5187
11776SOL    HW237051   3.242   7.625   5.847  0.6760 -1.1210  1.4579
11777SOL     OW37052   6.741   9.398   4.038 -0.4843 -0.2127  0.0148
11777SOL    HW137053   6.679   9.416   3.968 -0.7883  1.0469  0.5802
11777SOL    HW237054   6.827   9.410   3.997 -0.6600  0.5056 -0.1507
11778SOL     OW37055   2.770   1.104   6.357  0.6281  0.1237  0.5341
11778SOL    HW137056   2.850   1.071   6.397  1.1794  1.3165  0.4538
11778SOL    HW237057   2.800   1.163   6.288 -0.3167 -1.0853 -0.9809
11779SOL     OW37058   1.944   8.681   1.620 -0.5361 -0.0566  0.3286
11779SOL    HW137059   1.994   8.723   1.690  0.1664  0.0234 -0.2222
11779SOL    HW237060   2.004   8.617   1.582 -1.6737 -1.8130  1.3503
11780SOL     OW37061   0.719   3.404   5.813 -0.1781  0.0782 -0.0736
11780SOL    HW137062   0.751   3.331   5.760 -2.0405 -1.4668  0.7552
11780SOL    HW237063   0.769   3.397   5.895 -0.9018 -0.8357  0.3163
11781SOL     OW37064   1.012   9.043   0.907 -0.1196 -0.0202  0.6214
11781SOL    HW137065   1.025   8.951   0.926  0.5910  0.1495  0.9819
11781SOL    HW237066   0.917   9.053   0.899 -0.1554 -0.9401 -0.2476
11782SOL     OW37067   7.487   3.935   1.340  0.3744 -0.2578 -0.4570
11782SOL    HW137068   7.421   3.980   1.393 -0.4454 -1.3365 -0.5265
11782SOL    HW237069   7.547   4.005   1.312  0.4159  0.4429  1.2517
11783SOL     OW37070   4.737   1.958   6.716 -0.0244 -0.6592  0.2658
11783SOL    HW137071   4.754   1.990   6.804  0.6042  0.3286 -0.1966
11783SOL    HW237072   4.769   1.867   6.717  0.9951 -0.3131  0.7649
11784SOL     OW37073   2.829   0.883   4.642  0.2748 -0.0856 -0.5781
11784SOL    HW137074   2.805   0.799   4.681  0.0456  0.0081 -0.5135
11784SOL    HW237075   2.745   0.927   4.626  0.3276 -0.3774 -1.7621
11785SOL     OW37076   2.882   0.362   9.514  0.3483  0.0377 -0.5812
11785SOL    HW137077   2.938   0.434   9.543 -0.2712  0.1494  0.3789
11785SOL    HW237078   2.827   0.342   9.590  1.1838 -2.1272 -0.4504
11786SOL     OW37079   4.489   5.215   8.543 -0.0961 -0.4270  0.1262
11786SOL    HW137080   4.550   5.221   8.616  0.3648 -3.4988  0.1348
11786SOL    HW237081   4.491   5.302   8.502  2.4218  0.2856  1.5655
11787SOL     OW37082   9.514   8.223   7.453 -0.1015 -0.0233  0.1090
11787SOL    HW137083   9.536   8.199   7.363  0.3197 -0.8063  0.4137
11787SOL    HW237084   9.444   8.163   7.477 -1.6468  1.5179 -0.3647
11788SOL     OW37085   8.782   4.918   7.517  0.5751 -0.1776  0.1694
11788SOL    HW137086   8.725   4.991   7.495  0.5932  0.9136  3.3056
11788SOL    HW237087   8.860   4.959   7.555  1.7413 -1.7759 -0.3936
11789SOL     OW37088   2.923   0.008   0.324 -0.4305 -0.0966 -0.3547
11789SOL    HW137089   2.849  -0.051   0.305 -1.0031  0.8408 -1.1088
11789SOL    HW237090   2.934   0.002   0.419 -1.0687 -0.7347 -0.3143
11790SOL     OW37091   5.459   1.909   2.208 -0.0896  0.1190 -0.5689
11790SOL    HW137092   5.444   1.949   2.293 -2.1035 -0.8969 -0.3895
11790SOL    HW237093   5.447   1.981   2.145 -1.2732  0.3487 -0.1145
11791SOL     OW37094   2.648   1.074   4.530  0.7549  0.3699 -0.2127
11791SOL    HW137095   2.711   1.141   4.502  0.6178 -0.1961 -2.0062
11791SOL    HW237096   2.604   1.048   4.449 -0.5898 -0.4740  0.7568
11792SOL     OW37097   9.371   4.873   2.959 -0.2790 -0.2652 -0.1285
11792SOL    HW137098   9.445   4.930   2.983 -0.0316 -0.6541  0.0351
11792SOL    HW237099   9.383   4.857   2.865 -0.3320 -0.0732 -0.1683
11793SOL     OW37100   3.678   7.115   2.024 -0.8035  0.2352 -0.1527
11793SOL    HW137101   3.748   7.050   2.027 -2.1128 -1.2284  0.0109
11793SOL    HW237102   3.609   7.074   1.972 -1.6951  1.4937 -0.0235
11794SOL     OW37103   0.105   2.358   8.174  0.0746  0.1154  0.0407
11794SOL    HW137104   0.154   2.332   8.096  0.4564 -0.0714  0.3391
11794SOL    HW237105   0.144   2.307   8.245 -0.1970  0.3660  0.3739
11795SOL     OW37106   6.944   2.890   0.981 -0.2983 -0.2432 -0.3189
11795SOL    HW137107   6.897   2.970   0.957 -0.0628 -0.1964 -0.6319
11795SOL    HW237108   6.944   2.837   0.902 -1.8515 -1.2724  0.3127
11796SOL     OW37109   4.458   2.279   0.340 -0.4069 -0.2451  0.6069
11796SOL    HW137110   4.456   2.203   0.283 -0.3939  0.1285  0.1028
11796SOL    HW237111   4.377   2.327   0.320  0.1147  0.4470  0.1216
11797SOL     OW37112   6.244   1.499   4.835  0.3685  0.4455  0.0412
11797SOL    HW137113   6.284   1.415   4.859 -0.7585  0.2939  1.5737
11797SOL    HW237114   6.250   1.551   4.915  0.7990  1.7336 -0.8123
11798SOL     OW37115   4.119   8.810   8.757  0.1462  0.2891  0.1577
11798SOL    HW137116   4.060   8.735   8.762 -0.1747  0.4363 -1.0997
11798SOL    HW237117   4.172   8.805   8.837 -0.4403 -0.7913  0.4886
11799SOL     OW37118   8.199   5.576   9.173 -0.1860  0.0230  0.1338
11799SOL    HW137119   8.192   5.643   9.105  0.7212 -0.5314 -0.5175
11799SOL    HW237120   8.277   5.600   9.223 -0.4394  0.0171  0.5386
11800SOL     OW37121   1.173   0.715   9.193 -0.8122  0.2286 -0.1433
11800SOL    HW137122   1.215   0.654   9.254 -1.0825  1.9820  1.9512
11800SOL    HW237123   1.082   0.685   9.188 -1.1487  0.8159  1.5161
11801SOL     OW37124   0.951   0.771   0.143  0.0533  0.3669 -0.1504
11801SOL    HW137125   0.911   0.753   0.059  1.1843  1.7321 -1.0384
11801SOL    HW237126   0.882   0.811   0.195 -0.4934  0.0613 -0.6411
11802SOL     OW37127   1.439   7.256   0.207  0.4056 -0.2602  0.6221
11802SOL    HW137128   1.470   7.172   0.241 -2.3025 -1.2791  0.8299
11802SOL    HW237129   1.387   7.293   0.279 -2.0787 -0.5311 -0.9418
11803SOL     OW37130   3.188   8.597   4.876  0.1013  0.3577 -0.0984
11803SOL    HW137131   3.120   8.601   4.943 -0.4748  0.6594 -0.6962
11803SOL    HW237132   3.141   8.603   4.793  0.9655  2.2098 -0.5061
11804SOL     OW37133   6.035   8.019   5.399 -0.4311  0.0369 -0.6477
11804SOL    HW137134   6.000   7.986   5.482  2.2346  1.6904  1.3258
11804SOL    HW237135   6.059   7.940   5.350 -1.8315 -0.9804  0.2206
11805SOL     OW37136   8.603   1.986   8.608  0.4104  0.0649 -0.1205
11805SOL    HW137137   8.675   2.043   8.635  0.4809 -1.1102  2.4829
11805SOL    HW237138   8.581   2.016   8.519  4.2119  0.3237 -1.1601
11806SOL     OW37139   9.211   0.534   0.405  0.6250 -0.6044 -0.7155
11806SOL    HW137140   9.266   0.464   0.370  1.2693 -0.2959 -0.3262
11806SOL    HW237141   9.258   0.615   0.385  0.7015 -0.3846  0.3037
11807SOL     OW37142   8.667   5.234   3.776 -0.3087 -0.2243 -0.6262
11807SOL    HW137143   8.725   5.223   3.852 -0.6966  0.5498 -0.2180
11807SOL    HW237144   8.614   5.311   3.796 -1.6175 -1.0175 -0.9189
11808SOL     OW37145   8.543   4.013   1.997  0.3082 -0.0882 -0.1787
11808SOL    HW137146   8.554   3.944   1.931 -0.8944  0.1390 -0.6389
11808SOL    HW237147   8.628   4.056   2.000  0.2814  0.1623 -1.8968
11809SOL     OW37148   4.359   5.652   9.032  0.0778 -0.2081 -0.0550
11809SOL    HW137149   4.269   5.620   9.030  0.0825 -0.4767  1.9526
11809SOL    HW237150   4.405   5.590   9.088  1.2514  0.5513 -0.1514
11810SOL     OW37151   4.930   7.157   5.378 -0.7421  0.2906  0.0164
11810SOL    HW137152   4.872   7.233   5.383  0.7619  1.4529  0.6087
11810SOL    HW237153   5.014   7.192   5.348  0.0486 -1.0949  0.4905
11811SOL     OW37154   1.149   8.247   6.280 -0.3927 -0.4185 -0.3840
11811SOL    HW137155   1.215   8.181   6.259  0.3290 -0.1874  1.0243
11811SOL    HW237156   1.157   8.312   6.210 -0.4991 -1.3692 -1.3013
11812SOL     OW37157   5.303   2.578   6.438  0.0385 -0.0187  0.3463
11812SOL    HW137158   5.295   2.483   6.446 -2.1131 -0.0126 -0.9031
11812SOL    HW237159   5.216   2.607   6.408  1.0109  2.1901 -0.5482
11813SOL     OW37160   5.779   0.484   1.544  0.1512  0.3804  0.4995
11813SOL    HW137161   5.778   0.393   1.574  0.4200  0.6825  1.4704
11813SOL    HW237162   5.744   0.534   1.618 -0.2988  1.0367 -0.1431
11814SOL     OW37163   3.209   7.789   2.127 -0.3312  0.5544 -0.1283
11814SOL    HW137164   3.167   7.775   2.042 -0.8550  1.7601 -0.0986
11814SOL    HW237165   3.164   7.866   2.162  0.4607  0.5704  0.8709
11815SOL     OW37166   6.139   6.884   0.159 -0.0284 -0.0800 -0.0323
11815SOL    HW137167   6.156   6.888   0.064  0.7030 -0.4334  0.0711
11815SOL    HW237168   6.227   6.879   0.198 -0.3613 -2.7356  0.5275
11816SOL     OW37169   2.585   8.794   0.143  0.2838 -0.5987  0.3353
11816SOL    HW137170   2.607   8.879   0.105  1.0396 -0.4088  1.1645
11816SOL    HW237171   2.599   8.731   0.073  1.4136 -0.2315  0.2189
11817SOL     OW37172   5.373   5.580   4.858 -0.5338  0.0541 -0.8452
11817SOL    HW137173   5.325   5.610   4.935 -2.1489 -0.5542 -1.5665
11817SOL    HW237174   5.366   5.653   4.796 -0.0509  0.1721 -0.7653
11818SOL     OW37175   7.572   7.930   9.084  0.0660  0.2571  0.2354
11818SOL    HW137176   7.488   7.944   9.129  0.3415  1.6804  0.3612
11818SOL    HW237177   7.619   8.013   9.096  1.3084 -0.3613 -0.2277
11819SOL     OW37178   4.315   6.769   9.674 -0.0222  0.5434 -0.0707
11819SOL    HW137179   4.250   6.702   9.695 -0.1360  0.9818  1.0784
11819SOL    HW237180   4.386   6.722   9.631 -0.4967 -0.1640 -0.0912
11820SOL     OW37181   1.387   0.682   2.644 -0.3830  0.4751  0.1812
11820SOL    HW137182   1.446   0.711   2.714 -0.6068  0.5419  0.3457
11820SOL    HW237183   1.331   0.758   2.628 -0.3345  0.4585 -0.0701
11821SOL     OW37184   1.587   6.681   7.529  0.1477  0.1001  0.4643
11821SOL    HW137185   1.574   6.613   7.463  1.7606 -0.7569  0.9581
11821SOL    HW237186   1.536   6.651   7.604 -1.2420  0.7957 -0.1683
11822SOL     OW37187   8.997   9.591   8.311  0.6111 -0.4659  0.0678
11822SOL    HW137188   9.059   9.541   8.258  2.9869  2.5514 -0.3136
11822SOL    HW237189   8.932   9.624   8.248  0.2558 -1.3135 -0.0171
11823SOL     OW37190   2.207   0.126   1.699 -0.1769  0.0392 -0.2360
11823SOL    HW137191   2.231   0.045   1.654  4.5163  1.5710 -1.1019
11823SOL    HW237192   2.255   0.123   1.782 -1.4137  1.1531  0.5585
11824SOL     OW37193   8.179   7.959   3.045  0.1406  0.5186  0.0837
11824SOL    HW137194   8.123   7.896   3.089  0.2881 -0.4138 -1.0308
11824SOL    HW237195   8.119   8.013   2.994 -0.0407  1.6614  1.4406
11825SOL     OW37196   8.539   6.815   6.642 -0.9587 -0.3399  0.5842
11825SOL    HW137197   8.519   6.728   6.608 -0.4591 -0.0209 -0.5769
11825SOL    HW237198   8.478   6.874   6.599  0.2404  0.1862 -0.4724
11826SOL     OW37199   4.223   4.900   8.650  0.3553 -0.0530  0.5291
11826SOL    HW137200   4.142   4.894   8.701 -1.0259  0.0026 -1.5377
11826SOL    HW237201   4.261   4.984   8.676 -1.3641  0.9213  0.0135
11827SOL     OW37202   0.501   9.188   4.985 -0.1118 -0.8284 -0.0421
11827SOL    HW137203   0.428   9.232   5.028 -0.5316 -1.6598  0.1147
11827SOL    HW237204   0.517   9.110   5.038  0.9182 -0.6390 -0.0503
11828SOL     OW37205   9.608   3.214   8.873 -0.7491  0.1430 -0.2796
11828SOL    HW137206   9.655   3.234   8.954 -1.4281  0.2974  0.0777
11828SOL    HW237207   9.672   3.232   8.804  1.1180 -3.3462  0.2817
11829SOL     OW37208   1.908   1.729   1.438  0.7414  0.5968  0.1447
11829SOL    HW137209   1.970   1.675   1.487  0.2961 -1.7174 -1.6406
11829SOL    HW237210   1.825   1.719   1.484  1.0967  1.4922  1.0021
11830SOL     OW37211   4.620   2.762   6.100 -0.4183  0.7369 -0.3821
11830SOL    HW137212   4.642   2.803   6.183  1.3971  0.4935 -0.7064
11830SOL    HW237213   4.705   2.740   6.060 -1.2699 -0.3731 -1.6817
11831SOL     OW37214   0.347   5.988   8.145  0.0177 -0.3826 -0.1579
11831SOL    HW137215   0.398   5.928   8.092 -1.0691 -2.7184  1.2752
11831SOL    HW237216   0.408   6.057   8.170  2.1055 -2.2886  0.2710
11832SOL     OW37217   9.090   8.240   1.332 -0.1118 -0.1943 -0.3626
11832SOL    HW137218   9.018   8.217   1.392  0.7054  0.3175  0.8656
11832SOL    HW237219   9.056   8.219   1.245 -1.2623 -1.1897  0.2889
11833SOL     OW37220   9.393   7.144   7.353  0.2296 -0.0771  0.4501
11833SOL    HW137221   9.411   7.063   7.402  1.0519 -0.7969 -0.9739
11833SOL    HW237222   9.479   7.182   7.337 -0.1960  1.8306  2.2144
11834SOL     OW37223   1.223   8.633   1.362  0.6532  0.6804 -0.4994
11834SOL    HW137224   1.290   8.665   1.302  0.5753  0.6705 -0.5912
11834SOL    HW237225   1.209   8.542   1.337  0.0809  0.8841 -0.9560
11835SOL     OW37226   1.567   7.730   5.764 -0.0028 -0.0182 -0.4240
11835SOL    HW137227   1.616   7.805   5.732 -0.4110  1.7175  2.6331
11835SOL    HW237228   1.631   7.678   5.812 -0.1054 -0.6971 -1.0007
11836SOL     OW37229   1.423   5.373   4.172 -0.1618 -0.2095 -0.0122
11836SOL    HW137230   1.472   5.374   4.090 -1.0107 -2.6460 -0.6292
11836SOL    HW237231   1.490   5.368   4.240  0.5421  1.5355 -0.5138
11837SOL     OW37232   1.855   1.123   0.326  0.3781 -0.0850  0.0770
11837SOL    HW137233   1.772   1.167   0.344 -0.0369 -1.3537  1.4773
11837SOL    HW237234   1.899   1.180   0.264 -1.7100  0.4228 -1.0272
11838SOL     OW37235   4.027   4.018   8.007 -0.1027  0.5228 -0.4323
11838SOL    HW137236   4.035   3.974   8.092  0.3617  1.9438  0.2976
11838SOL    HW237237   4.117   4.021   7.974 -0.0882  1.1431 -0.3459
11839SOL     OW37238   7.285   4.839   5.287 -0.2137  0.1437 -0.5928
11839SOL    HW137239   7.269   4.900   5.358  0.9999  0.2655 -0.3946
11839SOL    HW237240   7.349   4.777   5.323 -0.2891 -0.3445 -1.2784
11840SOL     OW37241   4.306   6.982   6.596  0.1644 -0.5992 -0.4704
11840SOL    HW137242   4.304   7.042   6.521 -1.8480 -0.6626 -0.5125
11840SOL    HW237243   4.270   7.033   6.668  1.6333 -0.7009  0.3756
11841SOL     OW37244   5.655   3.120   7.326  0.0533  0.2463  0.0605
11841SOL    HW137245   5.659   3.188   7.259  2.7279 -0.2977 -0.4501
11841SOL    HW237246   5.737   3.072   7.316 -0.9900 -2.0073  1.5100
11842SOL     OW37247   6.084   6.707   5.410  0.3740 -0.4690 -0.0259
11842SOL    HW137248   6.091   6.612   5.422  2.2671 -0.3331  0.2144
11842SOL    HW237249   6.162   6.742   5.452 -0.4245  1.2416  0.1185
11843SOL     OW37250   4.022   4.427   3.401 -0.2245 -0.0765  0.1690
11843SOL    HW137251   3.953   4.452   3.339 -0.2998 -0.5663  0.0546
11843SOL    HW237252   4.006   4.482   3.477 -1.2028 -0.7078  0.4402
11844SOL     OW37253   4.509   3.040   3.309  0.0347  0.3217 -0.2463
11844SOL    HW137254   4.468   2.975   3.253  0.1475  2.2140 -2.6954
11844SOL    HW237255   4.437   3.098   3.336 -0.2628 -1.2187  2.7788
11845SOL     OW37256   5.501   7.743   6.602  0.3033  0.4615 -0.4253
11845SOL    HW137257   5.591   7.719   6.579 -0.7606 -3.1966 -1.3827
11845SOL    HW237258   5.482   7.693   6.681 -0.7003  1.7785  0.2045
11846SOL     OW37259   6.367   8.534   6.504 -0.0350 -0.0619 -0.2674
11846SOL    HW137260   6.432   8.519   6.436  0.8354  1.5562  0.1498
11846SOL    HW237261   6.415   8.525   6.586  0.0306  2.4292  0.0291
11847SOL     OW37262   4.639   3.665   3.121 -0.5258  0.0945  0.5314
11847SOL    HW137263   4.651   3.696   3.211  0.5063  1.3264  0.0072
11847SOL    HW237264   4.727   3.641   3.091 -0.7772  0.1285 -0.2761
11848SOL     OW37265   0.478   2.912   8.715  0.1451 -0.6758  0.0159
11848SOL    HW137266   0.546   2.937   8.653 -0.0393 -0.8904 -0.2744
11848SOL    HW237267   0.430   2.841   8.671 -0.8791  0.1246 -0.2101
11849SOL     OW37268   3.871   9.693   5.786 -0.5603  0.7894  0.3720
11849SOL    HW137269   3.905   9.765   5.840  0.7695  0.8160 -0.4514
11849SOL    HW237270   3.949   9.642   5.763 -1.2286  0.2086 -0.6641
11850SOL     OW37271   5.153   5.879   6.695 -0.4001  0.6077 -0.1729
11850SOL    HW137272   5.183   5.951   6.639  0.6873  0.7190  0.5380
11850SOL    HW237273   5.231   5.825   6.709 -0.8106  0.2218  0.6916
11851SOL     OW37274   1.043   3.402   2.783  0.4458  0.4107 -0.5532
11851SOL    HW137275   1.078   3.358   2.705 -1.8860  0.1116 -1.5003
11851SOL    HW237276   1.103   3.475   2.798  1.8331 -0.4383 -1.6651
11852SOL     OW37277   7.822   3.163   5.805 -0.1443 -0.0937  0.2514
11852SOL    HW137278   7.796   3.139   5.894  1.3784 -0.5736  0.6057
11852SOL    HW237279   7.871   3.245   5.816  0.2316 -0.2679 -0.1178
11853SOL     OW37280   3.447   6.828   3.443  0.0302  0.0477 -0.5280
11853SOL    HW137281   3.440   6.912   3.398 -0.1946 -0.0846 -0.7460
11853SOL    HW237282   3.358   6.792   3.440  0.0572 -0.0501 -0.1518
11854SOL     OW37283   0.513   3.212   3.400 -0.0533 -0.0289 -0.0569
11854SOL    HW137284   0.491   3.125   3.433 -0.7325  0.4099  0.6742
11854SOL    HW237285   0.587   3.240   3.454  1.2740 -0.8134 -1.3984
11855SOL     OW37286   4.598   3.931   0.234  0.2135 -0.0177  0.0959
11855SOL    HW137287   4.693   3.934   0.224  0.5485  0.4299  2.7785
11855SOL    HW237288   4.583   3.872   0.309 -1.6684 -0.4186 -0.5175
11856SOL     OW37289   9.137   7.859   1.251  0.2615  0.7252 -0.0233
11856SOL    HW137290   9.048   7.889   1.233  0.9544  3.1785  0.3127
11856SOL    HW237291   9.139   7.845   1.346 -0.1593 -0.8550 -0.2229
11857SOL     OW37292   1.471   0.596   1.158  0.1296  0.2481 -0.1255
11857SOL    HW137293   1.456   0.537   1.085 -1.4562 -0.9218  1.0899
11857SOL    HW237294   1.566   0.607   1.161  0.2087  1.1936 -2.9694
11858SOL     OW37295   5.224   3.496   5.484  0.3490 -0.5476 -0.4203
11858SOL    HW137296   5.193   3.512   5.573  2.2708  0.8229  0.0881
11858SOL    HW237297   5.203   3.404   5.467 -0.8618 -0.5944  1.0858
11859SOL     OW37298   6.056   7.398   2.498 -0.2222  0.2224 -0.2539
11859SOL    HW137299   5.998   7.329   2.464  1.2848 -1.6069  0.6991
11859SOL    HW237300   6.003   7.444   2.563 -1.3188  0.0996 -1.0325
11860SOL     OW37301   0.284   8.754   4.627 -0.3794 -0.6753  0.0668
11860SOL    HW137302   0.355   8.748   4.691 -1.5627 -1.3846  1.3999
11860SOL    HW237303   0.286   8.670   4.581  0.0494 -0.4324 -0.3649
11861SOL     OW37304   6.106   4.080   5.975  0.7117 -0.3298  0.1338
11861SOL    HW137305   6.032   4.140   5.968  0.8922 -0.0593  0.5316
11861SOL    HW237306   6.082   4.021   6.047  0.5422 -0.7306 -0.2443
11862SOL     OW37307   8.713   4.676   3.585  0.0078 -0.4101  0.1583
11862SOL    HW137308   8.684   4.692   3.675  1.2502 -0.4271  0.5719
11862SOL    HW237309   8.765   4.597   3.590 -0.8661 -1.0671 -0.8006
11863SOL     OW37310   8.254   8.963   4.053  0.2324 -0.5842 -0.5063
11863SOL    HW137311   8.268   9.030   4.120  1.1379  0.3473 -1.5991
11863SOL    HW237312   8.257   8.880   4.101  0.6814  0.0650  0.6238
11864SOL     OW37313   8.367   7.031   6.040 -0.1406  0.1440 -0.4364
11864SOL    HW137314   8.316   7.063   5.965  0.0662 -0.3515 -0.7961
11864SOL    HW237315   8.304   6.982   6.093  0.1836 -1.4864 -1.4963
11865SOL     OW37316   5.200   5.706   2.616  0.3636 -0.1878  0.5661
11865SOL    HW137317   5.130   5.756   2.573 -0.5498 -0.0263  2.1804
11865SOL    HW237318   5.269   5.771   2.632 -0.7812  0.6341  2.5682
11866SOL     OW37319   8.566   3.769   1.839 -0.5549  0.1604 -0.4966
11866SOL    HW137320   8.610   3.712   1.902  1.7151  1.9007 -0.3773
11866SOL    HW237321   8.637   3.805   1.785 -1.4850  4.2077  0.5832
11867SOL     OW37322   4.815   0.356   3.654  0.1267 -0.1019 -0.3181
11867SOL    HW137323   4.791   0.263   3.655 -0.6856  0.1026 -0.1097
11867SOL    HW237324   4.827   0.377   3.561  0.3329 -0.4141 -0.3633
11868SOL     OW37325   7.391   0.057   2.534  0.2885  0.2049  0.4478
11868SOL    HW137326   7.397  -0.023   2.481 -1.7258  0.0108  0.4257
11868SOL    HW237327   7.314   0.102   2.500  0.7466  1.6152  1.2082
11869SOL     OW37328   7.566   9.576   1.456 -0.2168  0.1763  0.0624
11869SOL    HW137329   7.594   9.664   1.481 -0.4648  0.1361  0.4936
11869SOL    HW237330   7.618   9.518   1.511 -1.3092  0.1093  1.0590
11870SOL     OW37331   1.960   1.600   6.516 -0.1684  1.1217  0.2388
11870SOL    HW137332   1.868   1.578   6.529 -0.1344  0.1400 -0.9833
11870SOL    HW237333   2.005   1.563   6.592 -0.7813  1.6577  0.8712
11871SOL     OW37334   2.022   2.318   0.786 -0.1787 -0.0419 -0.4330
11871SOL    HW137335   1.938   2.346   0.822  1.1993  1.0023  2.2685
11871SOL    HW237336   2.050   2.391   0.730 -0.4858  0.1697 -0.3133
11872SOL     OW37337   1.311   1.189   7.132 -0.2191  0.7325 -0.2846
11872SOL    HW137338   1.273   1.120   7.077 -0.3077  0.0953  0.5365
11872SOL    HW237339   1.401   1.160   7.148 -1.4901 -1.8406  3.9559
11873SOL     OW37340   7.674   3.918   4.799  0.1782 -0.5373  0.0463
11873SOL    HW137341   7.632   3.955   4.876 -0.5945 -1.4287  0.0755
11873SOL    HW237342   7.697   3.994   4.745  0.0256  0.0506  0.7986
11874SOL     OW37343   3.068   7.460   0.513 -0.5237  0.0625  0.3814
11874SOL    HW137344   3.066   7.407   0.433 -1.9508 -0.0328  0.4516
11874SOL    HW237345   2.981   7.448   0.552 -1.1937  2.9877  0.0424
11875SOL     OW37346   3.277   0.010   6.275  0.0629 -0.7360 -0.2624
11875SOL    HW137347   3.216   0.027   6.346  0.3581 -1.4389  0.1633
11875SOL    HW237348   3.344   0.078   6.285 -0.2136 -0.4585 -0.2491
11876SOL     OW37349   1.593   7.075   9.421 -0.1424  0.2982 -0.0094
11876SOL    HW137350   1.592   7.004   9.357  0.9752  1.8194 -1.7876
11876SOL    HW237351   1.637   7.037   9.497 -0.2810 -1.1366 -0.6004
11877SOL     OW37352   3.288   5.700   0.291 -0.5496  0.0510 -0.5811
11877SOL    HW137353   3.301   5.623   0.236 -2.2940 -1.5856  1.1051
11877SOL    HW237354   3.361   5.698   0.353 -0.0101  0.3934 -1.1966
11878SOL     OW37355   7.339   8.829   1.152  0.0663  0.0820 -0.4057
11878SOL    HW137356   7.257   8.877   1.144 -0.0672 -0.2217 -0.9056
11878SOL    HW237357   7.406   8.889   1.116  0.1326  0.4931  0.3842
11879SOL     OW37358   2.462   0.665   5.967 -0.3346  0.1616 -0.0637
11879SOL    HW137359   2.426   0.672   5.879 -2.2311 -0.6888  0.5972
11879SOL    HW237360   2.427   0.741   6.013  1.2299  0.9996 -0.1939
11880SOL     OW37361   8.433   1.010   6.093  0.6106 -0.3651  0.1419
11880SOL    HW137362   8.408   1.046   6.178 -0.5253  1.8746 -1.0492
11880SOL    HW237363   8.498   1.072   6.059 -0.5456  0.0037 -1.5096
11881SOL     OW37364   2.053   1.169   4.149 -0.4160  0.1381  0.4669
11881SOL    HW137365   1.994   1.223   4.202 -1.5466 -0.4433 -0.1510
11881SOL    HW237366   2.012   1.167   4.062  1.5530  1.3486 -0.5716
11882SOL     OW37367   8.209   6.944   3.833 -0.5310  0.0864  0.2418
11882SOL    HW137368   8.216   7.027   3.785 -0.3119 -0.9498 -1.6369
11882SOL    HW237369   8.297   6.931   3.870 -0.7651  1.0161  1.1751
11883SOL     OW37370   2.860   4.877   3.822 -0.3850  0.0284 -0.4794
11883SOL    HW137371   2.902   4.942   3.765 -0.4128 -0.2527 -0.8174
11883SOL    HW237372   2.767   4.892   3.811 -0.4610  2.1726  1.9591
11884SOL     OW37373   4.397   3.011   0.215  0.1438  0.2103  0.0932
11884SOL    HW137374   4.486   3.025   0.248  0.6857  0.2474 -1.2817
11884SOL    HW237375   4.377   2.920   0.235  1.5687 -0.6089 -1.8691
11885SOL     OW37376   0.686   5.347   7.117 -0.0346 -0.1397  0.3036
11885SOL    HW137377   0.672   5.332   7.024 -0.7313 -0.6610  0.4838
11885SOL    HW237378   0.781   5.351   7.127  0.0336  0.9955 -0.5876
11886SOL     OW37379   9.154   7.501   3.619 -0.1922 -0.0246 -0.4480
11886SOL    HW137380   9.215   7.442   3.576  1.2185  1.3546 -0.4022
11886SOL    HW237381   9.146   7.576   3.561  2.0024  2.0303  1.6571
11887SOL     OW37382   8.737   5.429   8.208 -0.3996 -0.2142 -0.2525
11887SOL    HW137383   8.656   5.467   8.242 -0.0597  1.3015 -1.0266
11887SOL    HW237384   8.718   5.414   8.115 -0.1587 -0.9335 -0.1885
11888SOL     OW37385   2.142   9.191   3.783  0.7844  0.4076 -0.0914
11888SOL    HW137386   2.195   9.124   3.827 -0.8740 -0.6752  0.3396
11888SOL    HW237387   2.086   9.227   3.852  0.0913  0.6519 -0.7712
11889SOL     OW37388   7.788   4.002   1.636  0.2817  0.1878 -0.0678
11889SOL    HW137389   7.851   4.016   1.707  0.6313  1.4066 -0.5997
11889SOL    HW237390   7.767   4.089   1.604 -4.0724  0.1924  2.0816
11890SOL     OW37391   9.330   8.844   7.810 -0.0270 -0.1729  0.0942
11890SOL    HW137392   9.340   8.808   7.722 -0.4316 -0.6597  0.2410
11890SOL    HW237393   9.389   8.919   7.813 -0.6776  0.4044 -0.8929
11891SOL     OW37394   3.066   2.235   4.251 -0.2343 -0.3253 -0.3623
11891SOL    HW137395   3.001   2.301   4.276  0.6153  0.5464 -0.4000
11891SOL    HW237396   3.150   2.276   4.269  0.3208 -1.3110 -0.6348
11892SOL     OW37397   5.947   2.118   7.333 -0.0368  0.1165  0.2670
11892SOL    HW137398   5.985   2.149   7.251  0.1481  0.5568  0.5194
11892SOL    HW237399   5.862   2.083   7.308  0.1905 -0.1325 -0.1769
11893SOL     OW37400   6.837   2.832   2.253  0.0155  0.5569  0.0730
11893SOL    HW137401   6.926   2.798   2.247 -0.0833  0.5593 -1.8188
11893SOL    HW237402   6.787   2.758   2.288  0.6358  0.3356  0.5150
11894SOL     OW37403   8.701   1.121   1.153 -0.7342 -0.9394 -0.1532
11894SOL    HW137404   8.763   1.116   1.226  1.5099  0.6239 -1.8258
11894SOL    HW237405   8.690   1.030   1.125 -0.2013 -1.3687  0.9925
11895SOL     OW37406   7.250   7.695   2.247 -0.0842 -0.0048  0.5692
11895SOL    HW137407   7.226   7.609   2.283 -1.7772  0.9791  1.9774
11895SOL    HW237408   7.318   7.727   2.306  1.4303 -0.8092 -0.6541
11896SOL     OW37409   3.518   6.804   0.571 -0.2225  0.1153 -0.1808
11896SOL    HW137410   3.472   6.773   0.649 -1.3856 -0.2780 -0.9841
11896SOL    HW237411   3.574   6.731   0.545 -0.0340  0.1484  0.1323
11897SOL     OW37412   9.281   6.266   4.019  0.1117 -0.4037 -0.3607
11897SOL    HW137413   9.232   6.197   3.975  0.2937 -0.6870 -0.1226
11897SOL    HW237414   9.284   6.338   3.956  0.4106 -0.8235 -0.8305
11898SOL     OW37415   2.987   3.839   8.691  0.1492  0.1877 -0.5255
11898SOL    HW137416   2.894   3.856   8.673  0.2789  0.5295 -0.8749
11898SOL    HW237417   2.997   3.745   8.677 -0.6676 -0.3121  1.8360
11899SOL     OW37418   6.541   4.954   2.645  0.0590  0.2673  0.3650
11899SOL    HW137419   6.562   5.031   2.593 -1.0998 -1.0508 -2.2497
11899SOL    HW237420   6.577   4.880   2.595 -3.2726 -1.2998 -0.0389
11900SOL     OW37421   5.542   8.529   3.133  0.2268 -0.3144 -0.2610
11900SOL    HW137422   5.487   8.537   3.210  1.2229 -1.4240  0.6085
11900SOL    HW237423   5.610   8.595   3.145  1.2547 -1.4842  0.6149
11901SOL     OW37424   5.076   2.769   6.836 -0.1552  0.2638 -0.3076
11901SOL    HW137425   5.113   2.799   6.918  0.8095 -1.1712 -0.1834
11901SOL    HW237426   5.146   2.782   6.771 -0.6656  0.7518 -0.7757
11902SOL     OW37427   8.293   3.781   7.038  0.4625  0.1038  0.5772
11902SOL    HW137428   8.262   3.711   7.095 -2.0968  0.6960  0.0480
11902SOL    HW237429   8.236   3.855   7.059  0.1547  0.6633 -1.9227
11903SOL     OW37430   7.447   3.210   5.476  0.2673  0.2753  0.9159
11903SOL    HW137431   7.522   3.226   5.533  0.0859  0.6088  1.0630
11903SOL    HW237432   7.483   3.162   5.401  0.7019  0.8135  0.7766
11904SOL     OW37433   9.677   8.826   7.640  0.3284  0.0147 -0.2480
11904SOL    HW137434   9.709   8.736   7.651  2.1743  0.3016 -2.4266
11904SOL    HW237435   9.587   8.816   7.609  0.6759 -1.1114 -0.9640
11905SOL     OW37436   3.094   5.372   6.819  0.2377 -0.1988 -0.1520
11905SOL    HW137437   3.037   5.363   6.743  0.5635  0.1823 -0.4499
11905SOL    HW237438   3.035   5.376   6.894 -0.1513  0.5858 -0.4887
11906SOL     OW37439   2.327   6.826   5.079  0.5311  0.0766 -0.4880
11906SOL    HW137440   2.361   6.914   5.062  0.7189  0.4287  1.5072
11906SOL    HW237441   2.235   6.829   5.051  0.2483  1.2285  0.5288
11907SOL     OW37442   9.033   3.180   2.286 -0.1598 -0.0407  0.0618
11907SOL    HW137443   9.103   3.118   2.306  0.8959  0.8561 -0.7330
11907SOL    HW237444   9.037   3.245   2.355  0.5139  0.5849 -0.5438
11908SOL     OW37445   0.768   4.054   2.795  0.4105  0.2101  0.3584
11908SOL    HW137446   0.755   3.976   2.849 -0.9167  0.0687 -0.1369
11908SOL    HW237447   0.732   4.125   2.847  0.7689  0.3555  0.4111
11909SOL     OW37448   8.921   4.559   9.374 -0.0708  0.5507 -0.3804
11909SOL    HW137449   8.919   4.559   9.279 -1.2074  1.7387 -0.3800
11909SOL    HW237450   8.959   4.643   9.398 -1.2721  0.9522  0.2055
11910SOL     OW37451   8.021   0.199   1.256 -0.0857  0.2734 -0.5768
11910SOL    HW137452   7.961   0.180   1.184 -2.0500 -0.4534  1.1592
11910SOL    HW237453   8.058   0.114   1.279  0.2556  0.4439 -0.4866
11911SOL     OW37454   7.020   7.327   3.376 -0.6667 -0.1483  0.1746
11911SOL    HW137455   7.071   7.385   3.319 -1.9233  0.1673 -0.6545
11911SOL    HW237456   6.939   7.311   3.328  0.0760 -3.5584 -0.2077
11912SOL     OW37457   2.186   9.702   9.404  0.5675 -0.0994  0.5697
11912SOL    HW137458   2.122   9.652   9.353  0.4603  1.0969 -0.5160
11912SOL    HW237459   2.264   9.705   9.349  1.1079 -0.3960  1.3079
11913SOL     OW37460   8.405   5.231   2.046  0.4410  0.6131  0.8560
11913SOL    HW137461   8.491   5.236   2.088  0.8369 -0.7857  0.2961
11913SOL    HW237462   8.367   5.150   2.080 -0.3043  0.8011  0.4794
11914SOL     OW37463   1.858   0.516   3.670  0.7295 -0.1366 -0.2200
11914SOL    HW137464   1.851   0.422   3.652  1.1571  0.1969 -2.4531
11914SOL    HW237465   1.786   0.535   3.731  1.7454 -2.1923  1.7397
11915SOL     OW37466   4.335   3.475   2.041  0.2653  0.7011  0.2950
11915SOL    HW137467   4.289   3.508   1.964 -0.3681  2.0352  1.1927
11915SOL    HW237468   4.296   3.390   2.059 -1.1533  1.3613  0.4284
11916SOL     OW37469   2.250   1.422   6.533 -0.0818  0.0437 -0.4623
11916SOL    HW137470   2.344   1.406   6.520  0.3047  1.2203  0.6883
11916SOL    HW237471   2.218   1.342   6.576  0.4237 -0.2833 -0.6841
11917SOL     OW37472   8.408   1.033   6.713  0.3071 -0.1862  0.2156
11917SOL    HW137473   8.459   1.091   6.770  0.6249 -1.2141  1.0154
11917SOL    HW237474   8.327   1.080   6.696  0.3945  0.3258  1.1732
11918SOL     OW37475   8.894   8.877   2.930  0.2159 -0.4260  0.3778
11918SOL    HW137476   8.809   8.877   2.973  0.7934 -0.3917  1.5808
11918SOL    HW237477   8.956   8.896   3.001  1.1011  0.9905 -0.7215
11919SOL     OW37478   2.262   4.324   7.970 -0.1522 -0.3575  0.0927
11919SOL    HW137479   2.338   4.274   8.001  0.1804  0.1722  0.1322
11919SOL    HW237480   2.253   4.298   7.879 -0.0035 -0.5171  0.1214
11920SOL     OW37481   2.487   0.644   5.336  0.0038 -0.3641  0.2872
11920SOL    HW137482   2.542   0.721   5.324 -2.0332  1.2427  0.7475
11920SOL    HW237483   2.520   0.604   5.416  0.8220  0.2424  0.2754
11921SOL     OW37484   8.526   0.266   0.618  0.0075 -0.9319  0.0344
11921SOL    HW137485   8.488   0.350   0.592 -0.3762 -0.6711  1.3387
11921SOL    HW237486   8.620   0.285   0.627  0.1520 -1.0431 -1.1562
11922SOL     OW37487   8.363   1.337   2.430 -0.5623 -0.1552  0.7217
11922SOL    HW137488   8.423   1.306   2.498 -0.2550  0.0299  0.5374
11922SOL    HW237489   8.399   1.421   2.402  0.8809 -1.4487 -1.5682
11923SOL     OW37490   9.071   8.026   6.339 -0.3472  0.0810 -0.4840
11923SOL    HW137491   9.110   8.088   6.278 -0.0638 -1.9409 -2.4960
11923SOL    HW237492   8.976   8.034   6.325 -0.4135  1.1478  0.4464
11924SOL     OW37493   3.894   7.020   6.591  0.3867 -0.3525 -0.3559
11924SOL    HW137494   3.835   6.971   6.533  1.9382 -1.5488 -0.9786
11924SOL    HW237495   3.900   6.965   6.670  1.1563 -0.5771 -0.5598
11925SOL     OW37496   7.329   3.909   8.112 -0.0192  0.4204 -1.0340
11925SOL    HW137497   7.252   3.856   8.092  0.7440 -1.0359 -0.3041
11925SOL    HW237498   7.356   3.945   8.027 -2.0336  1.7831 -1.1684
11926SOL     OW37499   3.573   5.658   1.131 -0.0114 -0.3575  0.1520
11926SOL    HW137500   3.661   5.660   1.169 -0.2915 -0.8408  0.8596
11926SOL    HW237501   3.576   5.720   1.059  0.3351  1.1820  1.4356
11927SOL     OW37502   6.077   6.299   4.329 -0.6323 -0.2103  0.2553
11927SOL    HW137503   6.114   6.377   4.369  0.4117 -0.9235  0.7280
11927SOL    HW237504   6.058   6.325   4.239  1.1799  0.1750 -0.0629
11928SOL     OW37505   9.200   4.786   5.855 -0.1667  0.1066  0.1990
11928SOL    HW137506   9.199   4.744   5.769 -2.8573 -2.5970  1.3747
11928SOL    HW237507   9.167   4.874   5.840 -0.8197 -0.4026 -1.4977
11929SOL     OW37508   8.208   6.701   7.730 -0.6066 -0.1431 -0.3168
11929SOL    HW137509   8.161   6.776   7.765 -0.6903  0.8341 -2.3607
11929SOL    HW237510   8.140   6.640   7.703 -0.5547 -0.6312  0.6070
11930SOL     OW37511   7.678   8.229   9.499 -0.0466 -0.1824 -0.3030
11930SOL    HW137512   7.751   8.233   9.438 -1.1355  2.1216 -1.5566
11930SOL    HW237513   7.601   8.251   9.447 -1.0212  1.9736  1.8291
11931SOL     OW37514   9.501   9.582   5.923 -0.0775  0.0524 -0.6380
11931SOL    HW137515   9.512   9.525   5.999  0.9518  0.1002 -0.7342
11931SOL    HW237516   9.510   9.671   5.958  1.2801  0.0496 -0.9311
11932SOL     OW37517   6.896   4.550   3.718  0.4618 -0.3656  0.8655
11932SOL    HW137518   6.917   4.493   3.793  2.4649 -1.5899 -0.5240
11932SOL    HW237519   6.980   4.562   3.674 -0.9863 -1.8384 -2.6515
11933SOL     OW37520   8.840   6.028   9.202  0.8223  0.2287 -0.2576
11933SOL    HW137521   8.910   5.971   9.234  2.6921  3.4524  1.9968
11933SOL    HW237522   8.772   6.022   9.270  1.4126  1.2554  0.4519
11934SOL     OW37523   0.811   0.838   6.162 -0.1463 -0.3976 -0.0041
11934SOL    HW137524   0.798   0.902   6.092  1.6750 -0.5655 -0.5683
11934SOL    HW237525   0.858   0.766   6.120 -0.4743 -1.2480  1.0428
11935SOL     OW37526   3.082   9.034   4.516 -0.2538 -0.2853  0.1732
11935SOL    HW137527   3.043   8.971   4.577  1.5139 -0.0358  1.6476
11935SOL    HW237528   3.176   9.030   4.535  0.0555  1.7625 -0.7038
11936SOL     OW37529   8.250   3.689   7.472 -0.0331 -0.2620 -0.3067
11936SOL    HW137530   8.327   3.674   7.418  0.7113  1.0085  0.3554
11936SOL    HW237531   8.206   3.764   7.431  0.5129  0.6817  0.7650
11937SOL     OW37532   9.453   1.910   6.335 -1.0133 -0.2081 -0.1566
11937SOL    HW137533   9.373   1.865   6.308 -0.0979 -2.2988  0.4559
11937SOL    HW237534   9.487   1.858   6.408  1.6660 -0.2544 -1.3228
11938SOL     OW37535   3.097   2.927   6.153 -0.3221 -0.2265 -0.1864
11938SOL    HW137536   3.166   2.904   6.090  1.3170 -1.1164  1.7889
11938SOL    HW237537   3.124   3.012   6.188  0.6021 -1.1853  1.5678
11939SOL     OW37538   7.605   6.818   8.932  0.0332  0.3310 -0.4521
11939SOL    HW137539   7.596   6.783   9.021  2.7248 -1.0505 -0.6507
11939SOL    HW237540   7.560   6.755   8.877  1.0074 -0.4678 -0.3516
11940SOL     OW37541   5.774   0.987   7.098  0.8724 -0.5680  0.1928
11940SOL    HW137542   5.699   0.928   7.089 -0.2297  0.7816  0.2147
11940SOL    HW237543   5.819   0.957   7.177  0.5342 -1.5635  0.0276
11941SOL     OW37544   2.887   7.677   4.101  0.8001 -0.4658  0.1189
11941SOL    HW137545   2.943   7.640   4.170  0.8886 -2.1326 -0.7850
11941SOL    HW237546   2.934   7.755   4.071  0.9249  0.0997  1.6919
11942SOL     OW37547   0.406   3.915   4.333 -0.0864  0.3820  0.3310
11942SOL    HW137548   0.351   3.862   4.277 -0.3162  0.8057  0.1469
11942SOL    HW237549   0.446   3.979   4.274  0.6408  0.0442  0.4572
11943SOL     OW37550   3.636   2.011   4.122 -0.6679  0.1599 -0.1818
11943SOL    HW137551   3.710   2.028   4.181 -1.0133 -1.1824  0.6746
11943SOL    HW237552   3.614   2.097   4.087 -0.7908  1.1135  2.0617
11944SOL     OW37553   4.916   5.504   0.632 -0.1007  0.0107 -0.3895
11944SOL    HW137554   4.881   5.591   0.616  1.4272  0.6347 -0.5088
11944SOL    HW237555   4.848   5.445   0.601 -0.6573  1.1626 -1.4497
11945SOL     OW37556   2.675   5.972   1.747  0.2222  0.0783 -0.2749
11945SOL    HW137557   2.683   5.909   1.676 -0.7384 -1.0550  0.5877
11945SOL    HW237558   2.582   5.973   1.768  0.4520  0.5915  0.8034
11946SOL     OW37559   6.419   7.143   5.545  0.2099 -0.1198  0.0164
11946SOL    HW137560   6.476   7.146   5.621  1.8651 -0.1139 -1.1671
11946SOL    HW237561   6.470   7.096   5.479 -1.1344 -0.0393 -1.1219
11947SOL     OW37562   7.604   8.617   0.705 -0.2142  0.1676 -0.3087
11947SOL    HW137563   7.586   8.659   0.621  1.0361 -0.1991 -0.7794
11947SOL    HW237564   7.674   8.555   0.686 -0.8670 -0.9149  0.7310
11948SOL     OW37565   8.750   0.902   2.824  0.4100  0.5865 -0.4205
11948SOL    HW137566   8.691   0.907   2.899  0.7722  3.6738 -0.2293
11948SOL    HW237567   8.706   0.842   2.763 -0.8445 -0.4448  1.4136
11949SOL     OW37568   5.527   4.294   5.190  0.3525  0.5226  0.1843
11949SOL    HW137569   5.486   4.323   5.271  0.2117 -0.8590  0.6450
11949SOL    HW237570   5.493   4.352   5.123 -0.1515  1.1788  0.9962
11950SOL     OW37571   0.171   2.302   3.650  0.2231 -0.1339  0.0178
11950SOL    HW137572   0.174   2.239   3.722  0.4668  0.4564  0.5300
11950SOL    HW237573   0.191   2.386   3.690 -2.3050  0.6730 -0.2337
11951SOL     OW37574   7.605   0.311   2.459 -0.1767  0.4871  0.3566
11951SOL    HW137575   7.546   0.277   2.391  0.2787  0.3369  0.0270
11951SOL    HW237576   7.581   0.403   2.468 -0.8205  0.3002  0.6136
11952SOL     OW37577   1.537   6.016   4.754  0.2416 -0.0680 -0.2598
11952SOL    HW137578   1.481   6.024   4.831 -0.8131  0.6968 -1.0849
11952SOL    HW237579   1.619   6.059   4.779  0.1947 -0.5013  0.6817
11953SOL     OW37580   0.627   4.422   8.785 -0.6501 -0.2233  0.5090
11953SOL    HW137581   0.603   4.458   8.700  1.6132  0.3682  0.0736
11953SOL    HW237582   0.677   4.344   8.765  0.4299  0.2524  1.2553
11954SOL     OW37583   1.952   5.089   2.859  0.3651  0.2171  0.2714
11954SOL    HW137584   1.948   5.032   2.781 -1.1781  0.2205  0.3122
11954SOL    HW237585   1.923   5.033   2.931 -0.8933  0.9521  0.3633
11955SOL     OW37586   7.727   1.781   8.715  0.1373  0.1516 -0.1288
11955SOL    HW137587   7.709   1.727   8.793 -1.0347  0.4735 -0.1568
11955SOL    HW237588   7.743   1.718   8.645 -0.3973 -0.1682  0.0282
11956SOL     OW37589   2.181   7.667   7.953 -0.1884  0.6678  0.3181
11956SOL    HW137590   2.168   7.761   7.959 -0.8568  0.6058 -0.0439
11956SOL    HW237591   2.258   7.656   7.897 -0.1326  0.9969  0.3324
11957SOL     OW37592   1.727   4.755   0.374  0.3309  0.0716 -0.1816
11957SOL    HW137593   1.642   4.729   0.339  0.3188 -1.0110  0.5936
11957SOL    HW237594   1.728   4.850   0.367 -0.9246  0.0994 -0.2554
11958SOL     OW37595   2.470   0.858   6.861  0.1907  0.1862  0.0836
11958SOL    HW137596   2.425   0.895   6.785  0.3280 -1.3790 -0.7841
11958SOL    HW237597   2.560   0.890   6.854  0.2197 -0.0006 -0.4598
11959SOL     OW37598   5.155   0.107   1.194  0.3415 -0.0647 -0.1466
11959SOL    HW137599   5.069   0.078   1.164  1.1529 -1.5187 -1.2548
11959SOL    HW237600   5.139   0.147   1.279 -1.3230 -0.9804  0.0144
11960SOL     OW37601   7.715   1.268   8.493 -1.0217 -0.0357 -0.4388
11960SOL    HW137602   7.809   1.270   8.477 -0.7388 -0.3475  1.0003
11960SOL    HW237603   7.680   1.341   8.442  0.2604  1.2988  0.5126
11961SOL     OW37604   6.150   0.611   0.688  0.0703  0.0854  0.1766
11961SOL    HW137605   6.141   0.535   0.746  0.2873 -0.2607 -0.2360
11961SOL    HW237606   6.211   0.582   0.620  0.5652  0.8117  0.3055
11962SOL     OW37607   4.634   4.455   7.291 -0.6214  0.4501 -0.0156
11962SOL    HW137608   4.642   4.520   7.361 -0.5171 -1.4674  1.8626
11962SOL    HW237609   4.698   4.482   7.226  0.7312  1.2362  1.5640
11963SOL     OW37610   3.297   4.415   9.095 -0.2587  0.2860  0.1408
11963SOL    HW137611   3.232   4.426   9.164 -1.2700  0.3285 -0.7882
11963SOL    HW237612   3.307   4.320   9.086 -1.1584  0.2403 -0.5598
11964SOL     OW37613   8.355   7.257   4.337 -0.6659 -0.1300  0.3035
11964SOL    HW137614   8.365   7.345   4.372  1.0224  0.3943 -1.3765
11964SOL    HW237615   8.288   7.266   4.269  0.8776  0.3190 -1.2107
11965SOL     OW37616   1.880   3.819   4.580  0.2021  0.3346  0.1705
11965SOL    HW137617   1.785   3.830   4.571  0.2688  0.6134 -0.2392
11965SOL    HW237618   1.907   3.890   4.639  0.2950  0.8921 -0.5327
11966SOL     OW37619   6.067   4.327   4.740 -0.2618 -0.2009  0.0593
11966SOL    HW137620   5.979   4.292   4.727 -0.0928 -0.5537 -0.1503
11966SOL    HW237621   6.096   4.351   4.651 -0.9237  1.8123  0.3396
11967SOL     OW37622   8.746   6.561   8.590  0.2897 -0.1610  0.4008
11967SOL    HW137623   8.653   6.537   8.588  0.1800  0.2567  0.4103
11967SOL    HW237624   8.789   6.495   8.535 -0.3964  1.2256 -1.9413
11968SOL     OW37625   1.999   1.141   3.066 -0.0628 -0.5141  0.1526
11968SOL    HW137626   2.071   1.178   3.015  1.0222 -1.3177  1.0668
11968SOL    HW237627   1.947   1.217   3.093  0.7701  0.1295 -0.0268
11969SOL     OW37628   6.782   4.837   9.230 -1.1421 -0.3165 -0.3354
11969SOL    HW137629   6.832   4.807   9.306 -1.4938  0.5802  0.2673
11969SOL    HW237630   6.784   4.933   9.237 -0.8609 -0.2080 -1.6703
11970SOL     OW37631   1.603   0.794   8.498  0.0684 -0.1537 -0.5700
11970SOL    HW137632   1.576   0.735   8.427 -2.1390 -0.5596  0.5291
11970SOL    HW237633   1.556   0.875   8.481 -0.0315 -0.0638  0.1148
11971SOL     OW37634   6.143   8.152   1.864  0.4555 -0.0628 -0.7100
11971SOL    HW137635   6.112   8.112   1.782  0.5681  0.2969 -0.9327
11971SOL    HW237636   6.172   8.239   1.838 -0.6753  0.5340 -0.0736
11972SOL     OW37637   8.744   0.158   8.382  0.0270  0.1478  0.1323
11972SOL    HW137638   8.725   0.066   8.362 -1.1245  0.9781 -3.5549
11972SOL    HW237639   8.837   0.160   8.403 -0.2570 -1.9876  1.9174
11973SOL     OW37640   5.427   0.377   4.655  0.0571  0.1552  0.2283
11973SOL    HW137641   5.503   0.373   4.597 -0.3327 -0.7153 -0.2492
11973SOL    HW237642   5.463   0.401   4.741  1.1593 -2.0433  0.4513
11974SOL     OW37643   3.285   2.605   8.874 -0.1940 -0.0014 -0.6745
11974SOL    HW137644   3.342   2.566   8.940 -0.6497 -0.8164 -0.7424
11974SOL    HW237645   3.344   2.632   8.804  0.3256  1.1506  0.1798
11975SOL     OW37646   3.184   7.873   5.992  0.3676 -0.1942  0.4503
11975SOL    HW137647   3.189   7.864   6.087 -0.8229  1.6145  0.7315
11975SOL    HW237648   3.123   7.946   5.977  1.7226  0.6165 -1.6673
11976SOL     OW37649   4.007   0.702   1.617 -0.0877  1.0542  0.1740
11976SOL    HW137650   3.938   0.724   1.555  0.1083  1.6714  0.1668
11976SOL    HW237651   4.069   0.775   1.611  1.2525 -0.0975 -0.7943
11977SOL     OW37652   6.704   5.400   5.369  0.2639 -0.2339 -0.3710
11977SOL    HW137653   6.627   5.434   5.414  0.0440  0.7690 -1.4638
11977SOL    HW237654   6.778   5.433   5.420  0.0161  0.8405 -0.6926
11978SOL     OW37655   1.959   5.857   7.000  0.1858  0.3930 -0.1001
11978SOL    HW137656   1.884   5.818   6.956  0.3098  0.2183 -0.1567
11978SOL    HW237657   1.969   5.943   6.960  0.0308  0.4067 -0.1095
11979SOL     OW37658   5.752   5.740   2.934  0.4642  0.9253 -0.1941
11979SOL    HW137659   5.700   5.664   2.906 -1.9525  3.0288 -1.9432
11979SOL    HW237660   5.815   5.753   2.863  1.1269  0.3921  0.2813
11980SOL     OW37661   3.438   2.292   9.317 -0.0237 -0.0315 -0.2163
11980SOL    HW137662   3.488   2.368   9.286  1.5761 -0.9782 -0.0661
11980SOL    HW237663   3.430   2.306   9.412 -1.2775  0.7921 -0.4181
11981SOL     OW37664   5.551   1.832   3.506  0.3794 -0.2007  0.3113
11981SOL    HW137665   5.551   1.776   3.429  1.3130  0.4645 -0.1914
11981SOL    HW237666   5.499   1.908   3.482  0.5866 -0.0381  0.3675
11982SOL     OW37667   7.770   7.531   2.042  0.8457 -0.3465 -0.3874
11982SOL    HW137668   7.678   7.540   2.015  0.8222 -2.3876 -1.1839
11982SOL    HW237669   7.776   7.578   2.125 -0.8183  0.1704 -0.5280
11983SOL     OW37670   4.306   0.948   0.314  0.5174 -0.1252  0.1388
11983SOL    HW137671   4.298   0.858   0.282 -1.6659 -0.0713  0.3732
11983SOL    HW237672   4.237   0.956   0.380  0.7411  1.6842  0.2068
11984SOL     OW37673   7.321   1.761   9.012  0.2604 -0.2165  0.2102
11984SOL    HW137674   7.242   1.794   9.054 -0.6939 -3.1056  0.9254
11984SOL    HW237675   7.292   1.728   8.927  0.5352 -1.8499  0.7223
11985SOL     OW37676   9.179   6.984   5.657 -0.4263  0.4455  0.5201
11985SOL    HW137677   9.089   6.970   5.684 -0.6394  1.8190  0.5739
11985SOL    HW237678   9.227   6.909   5.693 -1.8596 -1.4746 -1.3393
11986SOL     OW37679   3.994   1.795   3.764  0.0148 -0.1216 -0.0763
11986SOL    HW137680   3.993   1.730   3.835  0.0959 -0.6243 -0.5287
11986SOL    HW237681   3.970   1.877   3.806  0.5391 -0.3191  0.6360
11987SOL     OW37682   7.660   8.741   2.267 -0.4399 -0.4002  0.4784
11987SOL    HW137683   7.735   8.727   2.208 -0.8842 -0.8038  0.0056
11987SOL    HW237684   7.635   8.653   2.296 -0.9114 -0.2867  0.4172
11988SOL     OW37685   7.216   4.498   8.961 -0.1201  0.2898 -0.6076
11988SOL    HW137686   7.128   4.530   8.944  0.1364  1.2405 -0.1990
11988SOL    HW237687   7.205   4.434   9.032 -0.6745 -0.7867 -1.6307
11989SOL     OW37688   8.599   6.661   2.172  0.4501  0.2416 -0.3073
11989SOL    HW137689   8.551   6.580   2.155  0.9615 -0.2226  0.3957
11989SOL    HW237690   8.591   6.673   2.267  1.3754  0.3677 -0.2406
11990SOL     OW37691   1.890   6.539   3.989  0.1902  0.1465 -0.1853
11990SOL    HW137692   1.969   6.592   3.983  0.8601 -0.7375  0.5515
11990SOL    HW237693   1.916   6.463   4.041 -1.0494 -0.3374 -0.2417
11991SOL     OW37694   9.371   6.815   4.653  0.2073  0.2009  0.3309
11991SOL    HW137695   9.350   6.766   4.733  0.6250 -0.5795 -0.0188
11991SOL    HW237696   9.466   6.811   4.647  0.2122  0.6997  0.0730
11992SOL     OW37697   0.611   7.969   0.671  0.6054 -0.0269  0.4886
11992SOL    HW137698   0.597   7.876   0.689 -0.1162  0.0097  0.1524
11992SOL    HW237699   0.524   8.009   0.678  1.0378  0.7789  1.4857
11993SOL     OW37700   1.078   4.870   7.753 -0.1624  0.0073  0.4825
11993SOL    HW137701   1.157   4.855   7.701 -0.3393 -0.3559  0.3179
11993SOL    HW237702   1.026   4.790   7.742 -0.8406  0.4969  0.0803
11994SOL     OW37703   2.903   2.156   6.178  0.3336 -0.1965 -0.0157
11994SOL    HW137704   2.886   2.249   6.191  2.2713  0.3169 -0.7673
11994SOL    HW237705   2.818   2.113   6.191 -0.6642  1.7050 -0.0086
11995SOL     OW37706   7.113   3.114   5.449 -0.6575 -0.1510  0.4342
11995SOL    HW137707   7.067   3.125   5.532 -2.7253  1.4365 -0.8305
11995SOL    HW237708   7.138   3.203   5.423 -1.4507 -0.3816 -1.3431
11996SOL     OW37709   4.393   7.739   4.374 -0.5225  0.2919  0.1946
11996SOL    HW137710   4.407   7.805   4.307 -0.0740 -1.0120 -1.0546
11996SOL    HW237711   4.298   7.737   4.387 -0.4660  1.9427  1.0922
11997SOL     OW37712   1.175   1.597   3.024 -1.0396 -0.2322 -0.2981
11997SOL    HW137713   1.245   1.595   2.958 -0.9033 -0.2903 -0.1539
11997SOL    HW237714   1.220   1.619   3.105 -1.2373  0.0377 -0.2589
11998SOL     OW37715   5.462   4.087   8.138 -0.1124 -0.3638 -0.1070
11998SOL    HW137716   5.437   4.170   8.099  0.3632  0.7252  1.7543
11998SOL    HW237717   5.412   4.083   8.220  0.1037 -1.7705 -0.0123
11999SOL     OW37718   1.010   4.304   8.876 -0.7284 -0.3818  0.1972
11999SOL    HW137719   0.996   4.275   8.965 -0.5549  2.1735  1.1464
11999SOL    HW237720   0.978   4.394   8.874 -1.3665 -0.5578 -2.5206
12000SOL     OW37721   2.610   2.462   7.454 -0.0582 -0.4956 -0.6059
12000SOL    HW137722   2.667   2.399   7.497  1.5842  1.0177 -0.4645
12000SOL    HW237723   2.528   2.459   7.504  0.4775 -1.5060  0.2340
12001SOL     OW37724   9.136   0.914   7.266 -0.6625  0.0998  0.0949
12001SOL    HW137725   9.215   0.931   7.317 -0.4843  1.1064 -0.4892
12001SOL    HW237726   9.167   0.876   7.184 -0.9835 -2.0742  0.9090
12002SOL     OW37727   9.025   6.511   7.554  0.4887  0.3414  0.1012
12002SOL    HW137728   9.121   6.514   7.554  0.4626  2.2624 -0.5316
12002SOL    HW237729   9.004   6.443   7.491  1.4409  1.1181 -1.0953
12003SOL     OW37730   5.708   7.481   8.824 -0.1050  0.1397  0.4369
12003SOL    HW137731   5.727   7.572   8.844 -0.9310 -0.0391  2.2363
12003SOL    HW237732   5.794   7.440   8.813  0.2800  1.0022  0.1535
12004SOL     OW37733   5.980   5.073   8.064  0.1276 -0.5309 -0.5362
12004SOL    HW137734   5.928   5.152   8.045 -0.1493 -0.9017 -1.3593
12004SOL    HW237735   5.917   5.013   8.105  0.2966 -0.3964 -0.0727
12005SOL     OW37736   2.095   6.289   6.224  0.7269 -0.9140  0.4251
12005SOL    HW137737   2.128   6.235   6.152  0.8567  0.7094 -0.7687
12005SOL    HW237738   2.072   6.372   6.183  0.0218 -0.2303  2.1343
12006SOL     OW37739   4.035   4.727   7.006 -0.4590  0.2857 -0.3076
12006SOL    HW137740   3.965   4.742   6.942  0.0802  0.3504 -0.8934
12006SOL    HW237741   4.067   4.639   6.987  0.5412  0.7668 -0.9734
12007SOL     OW37742   8.173   4.576   3.123 -0.0806  0.2566 -0.4648
12007SOL    HW137743   8.264   4.587   3.093 -0.1292  1.7292 -0.1252
12007SOL    HW237744   8.163   4.639   3.194 -0.9579 -0.8975  0.4882
12008SOL     OW37745   6.759   2.157   8.167  0.3028  0.6029  0.3958
12008SOL    HW137746   6.839   2.177   8.119  0.8837  0.7479  1.4070
12008SOL    HW237747   6.690   2.160   8.100  1.4657 -2.3827 -1.1384
12009SOL     OW37748   8.558   5.591   2.934 -0.2063  0.8070  0.3510
12009SOL    HW137749   8.603   5.604   3.018  0.3822 -3.7266  1.0037
12009SOL    HW237750   8.483   5.536   2.956 -0.3673 -0.0120 -2.0095
12010SOL     OW37751   9.132   3.198   8.741  0.2604 -0.3494 -0.3895
12010SOL    HW137752   9.112   3.250   8.819  1.3901  0.3471 -0.5473
12010SOL    HW237753   9.219   3.163   8.757  1.8086  2.1772 -2.5064
12011SOL     OW37754   8.480   9.083   2.848 -0.3368 -0.6835  0.0116
12011SOL    HW137755   8.458   9.150   2.784  0.5974 -0.7425 -0.3948
12011SOL    HW237756   8.521   9.132   2.920  0.2782 -0.7904 -0.2532
12012SOL     OW37757   3.014   3.393   0.630 -0.3291 -0.5678  0.6077
12012SOL    HW137758   3.002   3.299   0.644  0.9205 -0.8220  0.1158
12012SOL    HW237759   2.996   3.406   0.537 -1.9115 -0.0429  0.9427
12013SOL     OW37760   4.543   4.219   0.894 -0.0597  0.3137 -0.2322
12013SOL    HW137761   4.464   4.237   0.945 -0.9941  1.5240 -2.0063
12013SOL    HW237762   4.518   4.149   0.834 -0.0450  1.1976 -1.2983
12014SOL     OW37763   0.535   2.730   1.790  0.0115  0.3365  0.2972
12014SOL    HW137764   0.565   2.758   1.703  1.7831 -1.8716  0.1080
12014SOL    HW237765   0.515   2.812   1.835  1.2107  1.6824 -1.4424
12015SOL     OW37766   2.244   5.923   7.793  0.4178 -0.3091 -0.2933
12015SOL    HW137767   2.176   5.892   7.853  1.1356  1.2608  1.4262
12015SOL    HW237768   2.315   5.859   7.803  0.5264 -0.0703  0.5667
12016SOL     OW37769   2.229   2.438   8.181 -0.4113 -0.4223 -0.1179
12016SOL    HW137770   2.158   2.467   8.238 -0.1087  0.0003  0.0547
12016SOL    HW237771   2.284   2.383   8.237 -0.6146 -0.7639 -0.2558
12017SOL     OW37772   2.741   2.703   1.962 -0.3637  0.0944  0.1014
12017SOL    HW137773   2.780   2.631   1.912 -1.6399  0.6187 -1.7520
12017SOL    HW237774   2.811   2.769   1.969  0.2790 -0.5958  0.3385
12018SOL     OW37775   3.086   6.474   4.294  0.6803 -0.4778  0.3618
12018SOL    HW137776   3.047   6.448   4.377 -0.1497 -1.7010 -0.3648
12018SOL    HW237777   3.140   6.398   4.269  0.0693 -0.5732 -0.7096
12019SOL     OW37778   4.804   2.242   1.695 -0.3030  0.9864 -0.7206
12019SOL    HW137779   4.783   2.335   1.696  0.1580  1.1021 -1.3717
12019SOL    HW237780   4.798   2.215   1.787 -0.3577  1.6738 -0.5194
12020SOL     OW37781   7.827   5.810   2.038  0.1917  0.0446 -0.6265
12020SOL    HW137782   7.753   5.853   2.082  0.6542  0.1147  0.0995
12020SOL    HW237783   7.899   5.818   2.100  0.4915 -1.0794 -0.8142
12021SOL     OW37784   2.238   3.569   5.021 -0.5710 -0.3082  0.7338
12021SOL    HW137785   2.266   3.629   5.091  0.7265  1.0416 -0.8438
12021SOL    HW237786   2.304   3.500   5.020  0.7005  0.8544 -0.5169
12022SOL     OW37787   7.216   1.293   4.722  1.0359 -0.2083  0.4703
12022SOL    HW137788   7.138   1.244   4.750  1.1784  0.2801  1.8181
12022SOL    HW237789   7.182   1.362   4.665  0.4527  0.1099  1.1918
12023SOL     OW37790   0.707   1.454   5.910  0.6397 -0.2287  0.1171
12023SOL    HW137791   0.769   1.394   5.951 -0.5579 -1.7596 -0.2224
12023SOL    HW237792   0.709   1.431   5.817 -1.0735 -0.9801  0.2147
12024SOL     OW37793   2.447   5.733   7.862  0.0395 -0.0016  0.1278
12024SOL    HW137794   2.409   5.652   7.895 -0.5293  0.2588  0.1106
12024SOL    HW237795   2.541   5.715   7.858 -0.1714 -0.9932 -0.7881
12025SOL     OW37796   6.432   7.920   8.695  0.0078  0.0961 -0.1371
12025SOL    HW137797   6.337   7.917   8.696 -0.0257  0.0122  1.9002
12025SOL    HW237798   6.458   7.857   8.628 -1.3687 -1.6881  0.9240
12026SOL     OW37799   7.444   8.991   5.225 -0.3042 -0.1729 -0.6605
12026SOL    HW137800   7.499   8.920   5.257 -1.6556 -1.3055 -0.7741
12026SOL    HW237801   7.506   9.062   5.206  0.9767 -0.9732  0.3283
12027SOL     OW37802   1.680   4.220   3.131 -0.4298 -0.4672 -0.6114
12027SOL    HW137803   1.771   4.192   3.138 -0.6294 -1.4555 -1.6101
12027SOL    HW237804   1.683   4.302   3.082  0.0044  0.1959  0.4932
12028SOL     OW37805   2.299   8.165   6.746  0.1397 -0.1835  0.1553
12028SOL    HW137806   2.241   8.113   6.801 -0.1445  1.5591  1.5813
12028SOL    HW237807   2.386   8.127   6.759 -0.0944 -0.4517  0.9687
12029SOL     OW37808   3.599   6.019   2.789  0.1013 -0.4330  0.1516
12029SOL    HW137809   3.617   5.926   2.784  0.8079 -0.2458 -2.8063
12029SOL    HW237810   3.505   6.026   2.768  0.7989 -0.3909 -3.6975
12030SOL     OW37811   4.245   8.793   7.840 -0.0049 -0.3468 -0.8723
12030SOL    HW137812   4.216   8.856   7.906 -3.2869 -1.0526 -1.4419
12030SOL    HW237813   4.227   8.836   7.757  0.8138 -0.8053 -1.2965
12031SOL     OW37814   4.972   8.043   3.571 -0.3450  0.2355 -0.1079
12031SOL    HW137815   4.931   8.060   3.487  0.6968  0.0677 -0.6662
12031SOL    HW237816   5.058   8.085   3.565  0.7273 -1.7940 -0.0650
12032SOL     OW37817   9.537   4.055   4.732 -0.1942  0.5494  0.3044
12032SOL    HW137818   9.587   4.106   4.668 -0.9210  0.1641 -0.5888
12032SOL    HW237819   9.515   4.119   4.800 -0.9806  1.4261 -0.7324
12033SOL     OW37820   1.129   0.568   8.087 -0.0790 -0.4117  0.4685
12033SOL    HW137821   1.093   0.479   8.091 -0.9837 -0.3117 -2.7154
12033SOL    HW237822   1.054   0.625   8.099  0.5437  0.0284  2.7876
12034SOL     OW37823   2.906   2.752   8.515  0.1246  0.5143  0.4535
12034SOL    HW137824   2.851   2.729   8.590 -0.3597 -1.6332 -0.4844
12034SOL    HW237825   2.993   2.719   8.537 -0.2332 -1.0011 -0.2755
12035SOL     OW37826   1.317   2.246   9.271 -0.6969  0.3826  0.2045
12035SOL    HW137827   1.331   2.339   9.285  0.0515  0.2240  0.5196
12035SOL    HW237828   1.390   2.203   9.315 -2.0404 -0.4600  1.6996
12036SOL     OW37829   7.732   2.723   5.127 -0.5759 -0.2957  0.1277
12036SOL    HW137830   7.740   2.721   5.222  0.3239  1.0486  0.1190
12036SOL    HW237831   7.818   2.694   5.095 -0.1185  1.2748 -0.2030
12037SOL     OW37832   7.251   2.557   0.249  0.2047  0.5137 -0.5497
12037SOL    HW137833   7.174   2.615   0.249 -0.8601 -0.5144  3.9842
12037SOL    HW237834   7.215   2.470   0.232  0.3915  0.1237  0.9239
12038SOL     OW37835   1.645   9.243   2.442  0.2671  0.7730  0.2385
12038SOL    HW137836   1.614   9.209   2.526  0.5310  0.6161  0.2727
12038SOL    HW237837   1.621   9.336   2.444 -0.8695  0.4983 -0.0534
12039SOL     OW37838   1.016   6.006   3.040  0.7282 -0.0202  0.3134
12039SOL    HW137839   1.007   6.094   3.004 -0.0913 -1.0335 -2.1805
12039SOL    HW237840   0.960   6.006   3.118 -1.1736  1.0328 -0.9870
12040SOL     OW37841   2.488   8.724   9.007  0.4269 -0.7193  0.1359
12040SOL    HW137842   2.410   8.763   8.968  0.9086  2.6317  2.1575
12040SOL    HW237843   2.458   8.640   9.042 -1.6212 -0.6663 -1.3198
12041SOL     OW37844   2.872   3.470   6.520  1.1308  0.7196 -0.0228
12041SOL    HW137845   2.825   3.422   6.452  0.9735 -1.7571  1.6820
12041SOL    HW237846   2.809   3.537   6.549 -0.2657 -0.6332  0.2131
12042SOL     OW37847   2.377   1.730   7.380 -0.7687  0.7479 -0.7233
12042SOL    HW137848   2.433   1.715   7.457  1.4083 -0.2432 -2.3721
12042SOL    HW237849   2.409   1.667   7.315 -4.1777 -0.2211 -1.6796
12043SOL     OW37850   3.853   2.261   0.369  0.5802 -0.1904 -0.0844
12043SOL    HW137851   3.922   2.298   0.315  1.1793  0.9586  1.4140
12043SOL    HW237852   3.774   2.308   0.343  0.7103 -0.1944 -0.4902
12044SOL     OW37853   2.838   8.472   8.062  0.3560  0.1062  0.5073
12044SOL    HW137854   2.859   8.382   8.085  0.3308 -0.1868 -0.5437
12044SOL    HW237855   2.855   8.478   7.968 -1.4581  0.6435  0.1624
12045SOL     OW37856   4.251   6.190   7.987 -0.4654  0.0723 -1.2623
12045SOL    HW137857   4.251   6.143   8.070  0.1931 -1.3075 -2.0179
12045SOL    HW237858   4.293   6.131   7.925 -0.0637  1.4658 -2.3769
12046SOL     OW37859   5.576   8.785   4.277  0.0634  0.2605 -0.2617
12046SOL    HW137860   5.562   8.699   4.314  1.5936  0.4367  0.8349
12046SOL    HW237861   5.533   8.845   4.337 -1.0479  0.2899 -1.0525
12047SOL     OW37862   8.200   1.725   3.694  0.7059 -0.1577 -0.2054
12047SOL    HW137863   8.179   1.666   3.766 -0.9787  0.5196 -0.1011
12047SOL    HW237864   8.276   1.775   3.726 -0.1470  0.2974  1.2205
12048SOL     OW37865   2.479   0.894   9.454  0.0597 -0.2778 -0.2531
12048SOL    HW137866   2.469   0.837   9.378  0.1880  1.1871 -1.4202
12048SOL    HW237867   2.428   0.972   9.432 -0.7170 -0.2198  1.6084
12049SOL     OW37868   6.927   0.571   3.696 -0.0563 -0.3333  0.0817
12049SOL    HW137869   6.997   0.545   3.757  1.0007  0.5723 -0.7166
12049SOL    HW237870   6.944   0.520   3.617 -0.2740 -0.0641 -0.1388
12050SOL     OW37871   1.790   2.183   2.499  0.3298  0.1813  0.1512
12050SOL    HW137872   1.731   2.251   2.468  0.1648  0.0295  0.1252
12050SOL    HW237873   1.851   2.228   2.557 -0.1784  0.2501  0.6480
12051SOL     OW37874   7.035   0.377   6.945 -0.0366  0.7267 -0.5023
12051SOL    HW137875   7.122   0.366   6.982 -1.0784  1.7361  2.5740
12051SOL    HW237876   6.985   0.303   6.979 -1.0573  1.6899  0.1580
12052SOL     OW37877   4.670   3.134   7.170  0.7386  0.7538  0.1206
12052SOL    HW137878   4.632   3.077   7.237 -2.2115  0.9119 -1.2632
12052SOL    HW237879   4.742   3.178   7.215  2.4867 -3.1029  1.5945
12053SOL     OW37880   7.319   7.131   2.264 -0.1336 -0.2824 -0.2627
12053SOL    HW137881   7.232   7.158   2.295  0.1105  0.3618 -0.1314
12053SOL    HW237882   7.353   7.208   2.218 -0.1176 -0.9175 -1.3608
12054SOL     OW37883   8.106   7.374   5.443  0.1378  0.3486  0.9397
12054SOL    HW137884   8.111   7.305   5.377  1.2159  0.6033  0.7274
12054SOL    HW237885   8.182   7.358   5.499  0.3013  1.2466  0.9841
12055SOL     OW37886   1.587   0.965   5.165  0.1018 -0.2697 -0.2338
12055SOL    HW137887   1.547   0.996   5.083 -1.9443 -0.3176  0.6889
12055SOL    HW237888   1.572   1.036   5.227 -0.2912 -1.1099  0.6498
12056SOL     OW37889   3.498   7.162   2.575 -0.2316  0.0705  0.3638
12056SOL    HW137890   3.517   7.115   2.494 -2.0145  1.9051 -1.2386
12056SOL    HW237891   3.558   7.236   2.575  0.6249 -0.5957  1.4167
12057SOL     OW37892   4.975   3.316   7.504  0.2110 -0.1438 -0.3967
12057SOL    HW137893   4.979   3.237   7.559 -0.9028  0.5549  0.7240
12057SOL    HW237894   5.064   3.352   7.509 -0.1626  0.6463  2.1385
12058SOL     OW37895   1.535   4.788   5.375  0.7897 -0.3995 -0.6788
12058SOL    HW137896   1.549   4.823   5.287  3.3350 -0.5024 -0.3891
12058SOL    HW237897   1.571   4.856   5.433 -0.4737 -0.5188  0.2923
12059SOL     OW37898   0.998   6.646   7.993 -0.2308 -0.2477 -0.5013
12059SOL    HW137899   0.925   6.666   7.934 -0.3201  0.6176 -0.1082
12059SOL    HW237900   1.075   6.684   7.950 -0.4277  1.1433  0.3330
12060SOL     OW37901   7.501   5.820   8.083 -0.3654  0.5792  0.0113
12060SOL    HW137902   7.551   5.744   8.111 -0.8203  0.7618  1.3896
12060SOL    HW237903   7.510   5.821   7.988 -1.5416 -2.0516 -0.2229
12061SOL     OW37904   9.590   3.786   8.359 -0.3983  0.0011 -0.0695
12061SOL    HW137905   9.535   3.760   8.285  2.0668 -0.8720 -1.7340
12061SOL    HW237906   9.603   3.705   8.408 -0.2657  0.1154  0.0823
12062SOL     OW37907   0.078   2.813   3.479  0.3237  0.0083  0.4638
12062SOL    HW137908   0.096   2.822   3.572 -0.9612 -1.0196  0.8464
12062SOL    HW237909   0.020   2.737   3.473 -2.8597  2.2929 -0.7241
12063SOL     OW37910   9.545   8.263   3.213 -0.2151 -0.1352  0.3164
12063SOL    HW137911   9.567   8.250   3.305  1.5300 -0.8349 -0.1782
12063SOL    HW237912   9.503   8.181   3.186  0.2403 -0.3441  0.2286
12064SOL     OW37913   4.482   7.191   2.436 -0.0183  0.8064 -0.2190
12064SOL    HW137914   4.438   7.168   2.353 -0.1175 -0.7205  0.2206
12064SOL    HW237915   4.423   7.158   2.504  1.2919 -0.3443  0.4044
12065SOL     OW37916   3.658   0.257   5.218 -0.0726 -0.6300  0.2819
12065SOL    HW137917   3.600   0.208   5.276 -0.1897 -0.9009 -0.0611
12065SOL    HW237918   3.718   0.302   5.277 -0.7314 -0.2127  0.6525
12066SOL     OW37919   0.027   5.998   7.130  0.1427 -0.5033  0.0195
12066SOL    HW137920   0.019   6.023   7.222  0.3722  0.8513 -0.2975
12066SOL    HW237921  -0.060   6.013   7.093  0.3888  0.2814 -0.2678
12067SOL     OW37922   2.994   7.083   8.193 -0.8131 -0.8186 -0.8769
12067SOL    HW137923   2.986   7.008   8.252  2.1206 -0.4817  0.1161
12067SOL    HW237924   3.064   7.059   8.133 -0.4013  0.7561 -1.0785
12068SOL     OW37925   8.363   2.936   7.789  0.5982 -0.0782  0.3190
12068SOL    HW137926   8.327   2.900   7.708 -0.0935 -1.3599  1.1479
12068SOL    HW237927   8.361   3.031   7.778  2.2659 -0.2296 -1.8875
12069SOL     OW37928   2.624   9.435   9.398  0.0847 -0.2671  0.1892
12069SOL    HW137929   2.552   9.390   9.442 -0.6080 -0.4069 -1.0622
12069SOL    HW237930   2.625   9.400   9.309  1.6694 -0.2185  0.1584
12070SOL     OW37931   0.116   1.042   4.091 -0.1694  0.1263  0.0675
12070SOL    HW137932   0.035   1.086   4.067  0.8785  1.9242 -0.4045
12070SOL    HW237933   0.126   1.060   4.184  0.7909  1.9480 -0.3309
12071SOL     OW37934   8.663   4.839   3.843  0.5551  0.1298  0.2214
12071SOL    HW137935   8.750   4.833   3.803  0.6886  0.1206  0.5121
12071SOL    HW237936   8.675   4.805   3.931  0.6003  1.5445  0.7929
12072SOL     OW37937   5.919   3.995   5.709  0.0674 -0.7987  0.1432
12072SOL    HW137938   5.829   3.963   5.710 -0.2910  0.0272 -1.7094
12072SOL    HW237939   5.921   4.064   5.776 -1.5199  1.1949 -1.7573
12073SOL     OW37940   0.358   3.354   3.777 -0.0551  1.3314  0.4443
12073SOL    HW137941   0.312   3.276   3.746 -0.9674  2.3972 -1.0174
12073SOL    HW237942   0.412   3.323   3.849 -0.3916 -0.6533 -0.0984
12074SOL     OW37943   1.169   2.661   2.832  0.4007  0.0989  0.1327
12074SOL    HW137944   1.105   2.717   2.789  0.5708 -0.4391 -0.8532
12074SOL    HW237945   1.118   2.610   2.894 -0.1174 -0.2241 -0.5479
12075SOL     OW37946   4.177   3.050   8.804 -0.6685 -0.1852 -0.0381
12075SOL    HW137947   4.126   3.118   8.759  0.3460 -0.6412 -1.9868
12075SOL    HW237948   4.140   2.968   8.771 -0.1839 -0.5540  0.3280
12076SOL     OW37949   4.624   0.593   0.963 -0.1301 -0.7355 -0.5420
12076SOL    HW137950   4.579   0.596   0.879 -1.8513  1.2636  0.3376
12076SOL    HW237951   4.642   0.685   0.983  2.7119 -1.3398  0.0772
12077SOL     OW37952   8.750   5.423   0.537 -0.1701 -0.5481  0.2385
12077SOL    HW137953   8.768   5.377   0.455  1.0625  0.6989 -0.2355
12077SOL    HW237954   8.655   5.419   0.547 -0.5837  0.9041 -2.2727
12078SOL     OW37955   8.308   8.246   1.585  0.1992 -0.1580  0.0859
12078SOL    HW137956   8.325   8.305   1.512  1.6018  1.7546  1.8284
12078SOL    HW237957   8.374   8.178   1.577  1.7384  1.2021  0.6702
12079SOL     OW37958   3.403   4.203   7.045  0.2903 -0.4381 -0.4539
12079SOL    HW137959   3.494   4.199   7.016  0.9270  2.0542  0.8502
12079SOL    HW237960   3.405   4.166   7.134  0.1633  0.1379 -0.2071
12080SOL     OW37961   0.843   6.400   4.597  0.2888 -0.7198 -0.4899
12080SOL    HW137962   0.867   6.319   4.643 -1.2623 -1.9885 -1.7832
12080SOL    HW237963   0.747   6.403   4.603  0.1071 -0.4203 -2.7272
12081SOL     OW37964   0.846   5.959   5.356 -0.4699 -0.1977  0.0007
12081SOL    HW137965   0.807   6.012   5.287 -1.8153 -0.4732  0.5113
12081SOL    HW237966   0.918   6.012   5.390 -0.5464  0.4409 -0.8098
12082SOL     OW37967   5.349   4.898   3.551  0.1778  0.1105 -0.2281
12082SOL    HW137968   5.305   4.982   3.536  0.4933  0.1401 -1.0788
12082SOL    HW237969   5.316   4.842   3.480  0.8921 -0.1040 -0.3919
12083SOL     OW37970   7.422   2.946   1.953  0.4743  0.0223 -0.3330
12083SOL    HW137971   7.347   2.961   1.895  0.4498 -1.9915 -0.9073
12083SOL    HW237972   7.488   3.010   1.924 -0.1716  0.2282 -1.4143
12084SOL     OW37973   0.162   2.263   2.033  0.1465 -0.4734 -0.5599
12084SOL    HW137974   0.194   2.239   1.946  0.1763 -0.4659 -0.5511
12084SOL    HW237975   0.170   2.183   2.085  0.1406 -0.4744 -0.5605
12085SOL     OW37976   3.402   6.183   5.991 -0.0377  0.2466 -0.0119
12085SOL    HW137977   3.312   6.206   6.015  0.3958  1.9288  0.1029
12085SOL    HW237978   3.416   6.225   5.907 -0.1351 -2.1036 -1.2966
12086SOL     OW37979   0.022   4.560   7.437  0.4360  0.1691 -0.5285
12086SOL    HW137980   0.088   4.574   7.369 -0.3121  0.3008 -1.2618
12086SOL    HW237981  -0.032   4.640   7.433  1.8274  1.3513  1.9550
12087SOL     OW37982   6.128   4.241   7.523  0.2889  0.2117 -0.0942
12087SOL    HW137983   6.064   4.174   7.546 -1.5135  0.4538 -3.6945
12087SOL    HW237984   6.088   4.323   7.550  0.2585  0.1769 -0.0333
12088SOL     OW37985   4.074   7.537   6.394  0.3221 -0.2272  0.3027
12088SOL    HW137986   4.103   7.540   6.485  0.7335  1.2731  0.1541
12088SOL    HW237987   4.042   7.448   6.381  2.4689 -1.1914  1.2310
12089SOL     OW37988   6.679   7.276   6.933 -0.2139  0.0865 -0.1545
12089SOL    HW137989   6.775   7.270   6.924 -0.1149  1.3487 -0.1361
12089SOL    HW237990   6.648   7.189   6.909  0.8744 -0.0495 -1.2168
12090SOL     OW37991   4.830   9.572   6.533 -0.1211 -0.0520  0.2171
12090SOL    HW137992   4.772   9.641   6.504 -1.0447 -0.8466  0.1341
12090SOL    HW237993   4.902   9.618   6.577 -1.5340  0.8971  1.6399
12091SOL     OW37994   1.063   1.812   8.346  0.4993  0.1662  0.4980
12091SOL    HW137995   1.061   1.769   8.261 -0.8114 -0.8386  1.0184
12091SOL    HW237996   1.114   1.892   8.331  2.0806 -1.0092 -0.7266
12092SOL     OW37997   6.171   2.233   7.963 -0.7623 -0.0221 -0.6555
12092SOL    HW137998   6.195   2.183   7.885  1.5426  0.1716 -0.1373
12092SOL    HW237999   6.182   2.325   7.936  4.6069  0.1067  0.9913
12093SOL     OW38000   4.352   7.057   2.623 -0.3009  0.2459 -0.3533
12093SOL    HW138001   4.301   6.976   2.623 -0.0235  0.0489 -1.6545
12093SOL    HW238002   4.441   7.030   2.642 -0.2729  0.3061 -0.3987
12094SOL     OW38003   7.418   2.507   3.930 -0.0731 -0.3031  0.3853
12094SOL    HW138004   7.456   2.483   3.846 -0.8234 -0.5407  0.1108
12094SOL    HW238005   7.465   2.453   3.994  1.0340  0.4349  0.2173
12095SOL     OW38006   0.256   9.009   9.117 -0.2073  0.0535 -0.0614
12095SOL    HW138007   0.288   9.080   9.060  0.0593  0.1818  0.2499
12095SOL    HW238008   0.161   9.006   9.100  0.1966 -1.7538 -2.6133
12096SOL     OW38009   1.644   6.208   1.825  0.5090  0.2350  0.3185
12096SOL    HW138010   1.716   6.215   1.763  1.1565  1.3374  1.1644
12096SOL    HW238011   1.581   6.149   1.782  1.7397 -0.4690 -0.5748
12097SOL     OW38012   6.419   9.259   6.822 -0.8065  0.6627 -0.6810
12097SOL    HW138013   6.439   9.181   6.770 -0.0687  0.7046 -0.4715
12097SOL    HW238014   6.366   9.227   6.894 -1.1832  0.4822 -1.0333
12098SOL     OW38015   5.860   1.800   6.953 -0.3445 -0.2288  0.0895
12098SOL    HW138016   5.822   1.888   6.958 -1.2170 -0.4453 -1.9311
12098SOL    HW238017   5.788   1.741   6.976  0.4856 -0.4633  2.4418
12099SOL     OW38018   8.008   1.673   9.646 -0.2364 -0.7850  0.0445
12099SOL    HW138019   7.965   1.642   9.726  0.1509 -1.7939 -0.1260
12099SOL    HW238020   7.938   1.718   9.597 -0.9157 -1.7308  0.1214
12100SOL     OW38021   0.686   7.741   2.130  0.3668 -0.5092  0.1778
12100SOL    HW138022   0.595   7.718   2.109 -0.5352  0.7930  2.2870
12100SOL    HW238023   0.720   7.665   2.177 -0.2316 -0.3394  0.9031
12101SOL     OW38024   9.260   0.089   5.194  0.0575 -0.4882 -0.1394
12101SOL    HW138025   9.241   0.019   5.256 -0.0580  0.1541  0.5558
12101SOL    HW238026   9.180   0.097   5.141 -0.6605  0.4035  1.0346
12102SOL     OW38027   6.268   9.032   8.160  0.0269  0.1850 -0.2372
12102SOL    HW138028   6.295   9.025   8.068  0.1560 -0.1552 -0.1743
12102SOL    HW238029   6.236   9.122   8.168  0.0953  0.2461 -0.5937
12103SOL     OW38030   5.133   7.938   5.280 -0.2241 -0.7723 -0.1368
12103SOL    HW138031   5.134   8.020   5.230 -0.4077 -0.4185  0.4262
12103SOL    HW238032   5.171   7.873   5.221  0.6967 -0.1053 -0.2924
12104SOL     OW38033   4.103   5.466   5.937 -0.6215  0.3193  0.2016
12104SOL    HW138034   4.039   5.528   5.972 -0.1387  0.7727  0.3045
12104SOL    HW238035   4.181   5.519   5.922 -0.0730 -0.3495  0.6602
12105SOL     OW38036   5.813   3.397   8.081  0.4079  0.6580 -0.0325
12105SOL    HW138037   5.779   3.308   8.072  0.3622  0.4912  1.5274
12105SOL    HW238038   5.744   3.453   8.045 -1.0901  0.2448  2.0022
12106SOL     OW38039   0.742   3.142   4.274  0.6193 -0.3517  0.1791
12106SOL    HW138040   0.738   3.054   4.312  0.4404 -1.5508 -2.3759
12106SOL    HW238041   0.652   3.175   4.279  0.6268 -0.4364  0.8875
12107SOL     OW38042   7.197   2.899   1.785  0.3784 -0.0853 -0.0251
12107SOL    HW138043   7.176   2.932   1.698 -1.0664 -0.8131  0.0126
12107SOL    HW238044   7.121   2.845   1.809  1.4303 -1.1484  1.0416
12108SOL     OW38045   4.785   6.424   0.404 -0.3661  0.0136  0.0635
12108SOL    HW138046   4.852   6.486   0.377 -0.1448 -0.5216 -0.6259
12108SOL    HW238047   4.745   6.464   0.481  1.4477 -0.1357  1.1441
12109SOL     OW38048   7.858   8.543   4.938 -0.5954 -0.3590  0.2692
12109SOL    HW138049   7.891   8.456   4.915 -0.8189 -0.6193  0.9118
12109SOL    HW238050   7.937   8.596   4.947 -0.5013 -0.1254 -1.4791
12110SOL     OW38051   5.919   8.738   9.336 -0.1721  0.4077  0.2456
12110SOL    HW138052   5.855   8.786   9.389 -1.5104  1.1063 -1.8847
12110SOL    HW238053   5.898   8.646   9.350 -0.7040  0.5886  0.6691
12111SOL     OW38054   1.740   3.697   3.205 -0.0598  0.3527  0.2166
12111SOL    HW138055   1.797   3.622   3.186  1.0756  0.9405  1.2102
12111SOL    HW238056   1.716   3.730   3.118  0.5120 -0.3432 -0.2251
12112SOL     OW38057   4.454   1.303   2.859  0.3394  0.3530 -0.4641
12112SOL    HW138058   4.400   1.347   2.924 -0.0066 -0.9408  0.1606
12112SOL    HW238059   4.492   1.229   2.906  0.4186 -0.3641 -1.6244
12113SOL     OW38060   3.024   8.558   6.310  0.3915  0.2052  0.1472
12113SOL    HW138061   2.966   8.591   6.242 -0.5624 -1.9663 -0.1876
12113SOL    HW238062   3.108   8.601   6.293 -0.3426  1.1820 -1.1963
12114SOL     OW38063   2.698   4.645   7.788 -0.2273 -0.5507 -0.0717
12114SOL    HW138064   2.709   4.659   7.882 -1.4552 -1.6997  0.2656
12114SOL    HW238065   2.781   4.675   7.750  0.5005 -0.5678  1.4211
12115SOL     OW38066   6.286   7.467   6.678 -0.8001 -0.1325  0.2736
12115SOL    HW138067   6.367   7.418   6.694 -0.9513 -0.1781  0.9256
12115SOL    HW238068   6.239   7.415   6.612 -1.2653 -1.2438  1.4400
12116SOL     OW38069   5.427   7.746   3.920 -0.3889 -0.3456 -0.3951
12116SOL    HW138070   5.351   7.745   3.978  0.4610  0.0205  0.7631
12116SOL    HW238071   5.453   7.838   3.916  0.1761 -0.5068 -0.5219
12117SOL     OW38072   7.698   2.986   0.848  0.5140 -0.5096  0.0077
12117SOL    HW138073   7.779   3.036   0.841  0.5817 -0.7323 -1.0272
12117SOL    HW238074   7.646   3.015   0.773 -1.1194  0.9095  1.5742
12118SOL     OW38075   2.431   8.522   3.011  0.1021 -0.0254  0.4687
12118SOL    HW138076   2.519   8.510   3.047 -0.0321 -0.3477  0.6891
12118SOL    HW238077   2.372   8.513   3.086 -0.1218  0.2052  0.3253
12119SOL     OW38078   9.425   8.514   4.488 -0.2765 -0.6519 -0.1097
12119SOL    HW138079   9.510   8.478   4.513 -0.6570 -1.5570 -0.0809
12119SOL    HW238080   9.372   8.505   4.567 -0.6268 -0.7919 -0.3638
12120SOL     OW38081   7.367   4.202   5.908  0.1425  0.3180  0.6317
12120SOL    HW138082   7.344   4.266   5.975  2.0085 -0.0761  1.7195
12120SOL    HW238083   7.462   4.198   5.910  0.1554 -1.1459 -0.6988
12121SOL     OW38084   9.056   1.806   6.729 -0.3932 -0.0317 -0.2925
12121SOL    HW138085   9.130   1.780   6.784 -0.7881 -2.2143 -0.6936
12121SOL    HW238086   9.095   1.860   6.660  0.8506 -1.1247 -0.4874
12122SOL     OW38087   1.304   6.720   9.123  0.0358 -0.1345 -0.0973
12122SOL    HW138088   1.386   6.768   9.131  0.2196 -0.4590 -0.0540
12122SOL    HW238089   1.245   6.763   9.185  0.3146 -0.2034  0.2163
12123SOL     OW38090   2.376   6.793   3.253  0.0061  0.0673  0.4191
12123SOL    HW138091   2.428   6.873   3.251 -0.5245  0.4051 -0.2541
12123SOL    HW238092   2.440   6.722   3.256  0.5025  0.4811 -0.1596
12124SOL     OW38093   2.368   3.320   5.614 -0.9309  0.2358  0.5574
12124SOL    HW138094   2.344   3.265   5.688  0.1321 -0.5049  0.3686
12124SOL    HW238095   2.396   3.259   5.546  0.4303  0.9951  0.3961
12125SOL     OW38096   8.890   7.605   3.250  0.2446 -0.1553  0.5143
12125SOL    HW138097   8.846   7.663   3.187 -2.5288 -3.4449 -0.9546
12125SOL    HW238098   8.858   7.634   3.335 -0.3415  1.0100 -0.0741
12126SOL     OW38099   7.642   7.624   8.482  0.3644  0.3341  0.6757
12126SOL    HW138100   7.646   7.588   8.570  0.2620 -1.9238 -0.1902
12126SOL    HW238101   7.642   7.548   8.424  0.7283  1.7486 -1.3050
12127SOL     OW38102   9.316   8.391   7.542 -0.7255 -0.1240 -0.0645
12127SOL    HW138103   9.362   8.326   7.490 -1.3534 -1.5892  1.1206
12127SOL    HW238104   9.333   8.365   7.633 -3.3195 -0.3810  0.4320
12128SOL     OW38105   3.103   7.009   3.289 -0.3088  0.0228  0.6368
12128SOL    HW138106   3.054   6.965   3.358  0.0874 -0.2724  0.7326
12128SOL    HW238107   3.036   7.048   3.233 -0.8699 -3.1176 -1.1379
12129SOL     OW38108   6.151   2.767   6.822 -0.1199 -0.0853  0.0211
12129SOL    HW138109   6.118   2.715   6.894  0.2829  2.0581  1.8757
12129SOL    HW238110   6.246   2.756   6.825 -0.0578  0.4436  0.2163
12130SOL     OW38111   0.614   2.777   7.447  0.1196  0.1835  0.0687
12130SOL    HW138112   0.565   2.722   7.385  0.5532  0.1167 -0.2187
12130SOL    HW238113   0.700   2.787   7.407  0.8830 -1.0383  1.3382
12131SOL     OW38114   4.326   8.681   0.505 -0.0051 -0.2465 -0.0076
12131SOL    HW138115   4.362   8.756   0.458 -0.1863  0.6854  1.2751
12131SOL    HW238116   4.403   8.632   0.535  0.3338  1.5269  2.3911
12132SOL     OW38117   0.450   0.832   5.207  0.0943  0.6456  0.1775
12132SOL    HW138118   0.388   0.828   5.280 -1.4759  3.2168 -0.8753
12132SOL    HW238119   0.536   0.822   5.248 -0.8261  0.2715  2.1306
12133SOL     OW38120   5.637   6.166   3.425 -0.3488  0.5665 -0.1918
12133SOL    HW138121   5.692   6.193   3.352 -2.2762 -0.1630 -2.0025
12133SOL    HW238122   5.552   6.149   3.386 -1.1649 -0.9294  2.0577
12134SOL     OW38123   9.097   6.963   3.065  0.3296 -0.5805  0.1842
12134SOL    HW138124   9.123   7.033   3.125 -2.2887 -0.1887  0.9517
12134SOL    HW238125   9.020   6.996   3.020 -0.4665 -2.6362 -0.0591
12135SOL     OW38126   3.774   2.448   3.176 -0.0095  0.3042  0.1328
12135SOL    HW138127   3.824   2.380   3.220 -0.3576  0.5396  0.9017
12135SOL    HW238128   3.727   2.402   3.106  1.3590  0.1045 -0.6811
12136SOL     OW38129   9.425   8.139   2.450 -0.2663 -0.3021  0.0500
12136SOL    HW138130   9.430   8.224   2.407 -0.4741 -0.0947  0.4349
12136SOL    HW238131   9.362   8.151   2.520 -0.4394 -0.8276 -0.0095
12137SOL     OW38132   9.512   1.797   8.795 -0.1787 -0.3493  0.0317
12137SOL    HW138133   9.464   1.879   8.801 -0.7897 -0.7633  0.9330
12137SOL    HW238134   9.445   1.729   8.802  0.4603 -0.9317  0.6223
12138SOL     OW38135   3.701   5.175   8.411 -0.1842 -0.5132  0.2406
12138SOL    HW138136   3.720   5.082   8.401  0.4984 -0.2621 -1.1208
12138SOL    HW238137   3.665   5.183   8.499  0.2116 -1.9810  0.5667
12139SOL     OW38138   4.202   1.853   9.248  0.0835  0.2425  0.4841
12139SOL    HW138139   4.122   1.841   9.298  1.1286 -0.7866  1.9946
12139SOL    HW238140   4.180   1.824   9.160 -1.7323  1.8626  0.3305
12140SOL     OW38141   4.952   7.764   9.665  0.4483 -0.5482 -0.6149
12140SOL    HW138142   4.863   7.776   9.632  0.8368  0.6247 -1.2737
12140SOL    HW238143   4.970   7.671   9.651 -0.9113 -0.9555  0.1702
12141SOL     OW38144   5.865   6.983   4.102  0.0716 -0.6212 -0.1857
12141SOL    HW138145   5.959   7.000   4.106 -0.0284 -0.1682  0.3876
12141SOL    HW238146   5.851   6.947   4.014  0.5851  0.6136 -0.8019
12142SOL     OW38147   0.490   0.434   9.554  0.1089 -0.1000 -0.3210
12142SOL    HW138148   0.576   0.426   9.512  0.0723  1.9007 -0.9051
12142SOL    HW238149   0.434   0.473   9.486 -1.1135 -0.8295  0.2443
12143SOL     OW38150   2.472   0.800   2.590 -0.0995  0.1955 -0.7476
12143SOL    HW138151   2.442   0.815   2.500 -2.0926 -0.8623 -0.3235
12143SOL    HW238152   2.481   0.705   2.596 -3.0071 -0.1089  0.9482
12144SOL     OW38153   5.939   2.224   9.655  0.1687  0.3280  0.0029
12144SOL    HW138154   5.952   2.159   9.723 -1.6141 -1.0368 -0.8727
12144SOL    HW238155   5.986   2.189   9.579 -0.6934  0.0892 -0.4366
12145SOL     OW38156   0.612   4.651   0.054  0.1468  0.2410  0.3411
12145SOL    HW138157   0.689   4.684   0.008 -0.1203 -0.8586 -0.9296
12145SOL    HW238158   0.623   4.683   0.144  1.2357  1.4897 -0.2059
12146SOL     OW38159   7.061   6.332   7.686  0.4480  0.4281  0.1362
12146SOL    HW138160   7.019   6.247   7.703  3.6768 -1.4509 -0.4116
12146SOL    HW238161   7.076   6.332   7.592  0.1296  1.8587  0.0643
12147SOL     OW38162   5.415   9.496   7.251 -0.9390 -0.3930  0.1838
12147SOL    HW138163   5.458   9.429   7.198  0.6329 -1.0690  2.1678
12147SOL    HW238164   5.450   9.579   7.219 -0.2377 -0.7615 -0.0153
12148SOL     OW38165   3.300   6.471   1.707  0.7711  0.0575 -0.5988
12148SOL    HW138166   3.239   6.427   1.648 -1.5360  1.6912  0.4049
12148SOL    HW238167   3.356   6.524   1.650 -1.6615  1.9092 -1.4399
12149SOL     OW38168   6.272   4.963   3.357  0.3413 -0.3663  0.1248
12149SOL    HW138169   6.336   4.930   3.295  0.3581 -0.8635  0.3946
12149SOL    HW238170   6.224   4.885   3.385 -0.0486 -0.0695  0.2985
12150SOL     OW38171   3.418   8.680   5.026 -0.2432 -0.2697  0.1853
12150SOL    HW138172   3.399   8.680   5.120  0.2323  2.4220  0.3416
12150SOL    HW238173   3.345   8.630   4.987 -0.7493 -0.9378  1.8993
12151SOL     OW38174   5.398   7.220   0.986 -0.5821  0.6670  0.6534
12151SOL    HW138175   5.378   7.128   0.968  0.7707  0.3903  0.4848
12151SOL    HW238176   5.324   7.250   1.039 -0.7708 -0.6792  1.2058
12152SOL     OW38177   0.935   5.267   9.337 -0.2796  0.0813  0.0584
12152SOL    HW138178   0.904   5.181   9.308 -1.0328  0.8632 -1.5773
12152SOL    HW238179   0.858   5.310   9.373  0.1004  0.0753  0.8927
12153SOL     OW38180   7.708   3.796   1.432 -0.2945 -0.3443 -0.0594
12153SOL    HW138181   7.647   3.859   1.393 -0.5965 -0.8105 -0.3500
12153SOL    HW238182   7.760   3.848   1.493  0.2967  0.4412 -1.1872
12154SOL     OW38183   6.236   7.414   8.168 -0.1711 -0.1395 -0.2242
12154SOL    HW138184   6.273   7.347   8.110 -0.8402  0.1140 -0.9703
12154SOL    HW238185   6.161   7.449   8.119 -1.3163 -0.5466  1.1691
12155SOL     OW38186   3.728   6.988   1.557  0.4599 -0.4048  0.1765
12155SOL    HW138187   3.746   7.034   1.475 -0.8486  1.0283  0.6300
12155SOL    HW238188   3.798   7.014   1.616  1.1640 -1.0937 -0.3465
12156SOL     OW38189   4.510   9.131   7.410 -0.0316 -0.1202  0.3653
12156SOL    HW138190   4.573   9.069   7.448 -0.4722 -0.9685 -0.2522
12156SOL    HW238191   4.544   9.149   7.322 -0.3406 -0.1205  0.2445
12157SOL     OW38192   9.585   0.651   5.423  0.4883  0.1027 -0.1866
12157SOL    HW138193   9.544   0.565   5.434 -0.5637  0.6763  0.5670
12157SOL    HW238194   9.677   0.631   5.404  0.0577 -1.2018 -1.0681
12158SOL     OW38195   5.086   3.769   5.762  0.0820 -0.1726 -0.3346
12158SOL    HW138196   5.136   3.849   5.771 -1.3241  0.4995  3.3767
12158SOL    HW238197   5.147   3.699   5.783  0.2292  0.3781  1.1423
12159SOL     OW38198   5.954   4.917   8.772 -0.3342 -0.1473  0.3359
12159SOL    HW138199   5.947   4.933   8.867  0.1172 -0.0764  0.3594
12159SOL    HW238200   5.940   5.003   8.733  0.8249  0.0965  0.4070
12160SOL     OW38201   7.869   8.413   8.628  0.6664  0.0230  0.8407
12160SOL    HW138202   7.822   8.473   8.570  0.8357 -0.8925 -0.2994
12160SOL    HW238203   7.899   8.468   8.700 -0.4113  1.0124  0.5695
12161SOL     OW38204   3.703   3.290   6.569 -0.7571 -0.4101  0.0052
12161SOL    HW138205   3.755   3.258   6.495 -0.5813  0.0864 -0.0915
12161SOL    HW238206   3.765   3.341   6.621 -0.7744 -1.1126  0.7323
12162SOL     OW38207   8.483   4.253   2.495  0.2399 -0.3561  0.2817
12162SOL    HW138208   8.515   4.254   2.405  2.8411  0.7725  1.1268
12162SOL    HW238209   8.536   4.319   2.540 -2.2870  0.4665  2.2487
12163SOL     OW38210   7.294   5.536   2.094 -0.0216 -0.1085  0.2385
12163SOL    HW138211   7.235   5.495   2.156 -0.2351  0.1060  0.1789
12163SOL    HW238212   7.307   5.471   2.025 -0.1715 -0.1621  0.2623
12164SOL     OW38213   3.834   0.987   1.949 -0.0840 -0.4202 -0.2302
12164SOL    HW138214   3.820   0.910   1.894 -0.4786 -1.0988  0.7759
12164SOL    HW238215   3.829   0.953   2.039  0.2340  0.6972  0.2277
12165SOL     OW38216   6.567   1.608   6.505  0.4471  0.4365 -0.7274
12165SOL    HW138217   6.579   1.515   6.524 -1.5807 -0.2630 -2.4837
12165SOL    HW238218   6.651   1.635   6.468  1.2258 -0.5610  0.2380
12166SOL     OW38219   3.361   2.176   4.345 -0.0536 -0.2365 -0.3900
12166SOL    HW138220   3.327   2.262   4.370  0.2137 -0.5713  1.2415
12166SOL    HW238221   3.451   2.176   4.376 -0.0753 -1.1410 -0.2997
12167SOL     OW38222   1.988   1.698   7.698 -0.0939  0.7418  0.0967
12167SOL    HW138223   2.006   1.713   7.605  0.0679 -0.1410 -0.0233
12167SOL    HW238224   2.073   1.683   7.738 -0.2369  0.2093  0.2126
12168SOL     OW38225   7.416   2.633   6.521  0.2072  0.1636 -0.3835
12168SOL    HW138226   7.369   2.595   6.595  1.8437 -1.4623 -0.1032
12168SOL    HW238227   7.493   2.674   6.560 -0.2709  1.7113 -0.9569
12169SOL     OW38228   9.694   8.074   7.951 -0.0445  0.4927 -0.0021
12169SOL    HW138229   9.737   8.035   7.875  0.5862  0.2268  0.4765
12169SOL    HW238230   9.645   8.002   7.991 -1.0018  0.8058 -0.5727
12170SOL     OW38231   8.311   8.765   9.702 -0.5997 -0.5268  0.3437
12170SOL    HW138232   8.393   8.814   9.700 -0.0842 -1.3455  0.9851
12170SOL    HW238233   8.261   8.798   9.627 -0.8181  1.9020  1.4556
12171SOL     OW38234   5.386   5.218   0.132 -0.3509 -0.1098 -0.5122
12171SOL    HW138235   5.470   5.217   0.178 -0.5492  1.1650 -0.1075
12171SOL    HW238236   5.364   5.310   0.122 -0.6466 -0.3618 -2.5831
12172SOL     OW38237   2.096   1.816   3.499  0.5588  0.4978 -0.4199
12172SOL    HW138238   2.083   1.758   3.423 -1.0073  1.3935 -0.8820
12172SOL    HW238239   2.185   1.796   3.529  0.8837 -0.5314 -1.9281
12173SOL     OW38240   1.199   0.067   3.628  0.0986  0.2461 -0.2098
12173SOL    HW138241   1.265   0.021   3.680  0.4386  1.6279  0.6345
12173SOL    HW238242   1.163   0.133   3.687  0.9405  2.2971 -1.8614
12174SOL     OW38243   7.210   5.703   8.629 -0.3076 -0.6073 -0.2087
12174SOL    HW138244   7.226   5.612   8.656 -0.0661 -0.5686 -0.2170
12174SOL    HW238245   7.269   5.755   8.684  3.2875 -0.7938 -3.4867
12175SOL     OW38246   8.425   0.778   2.937  0.3877 -0.1496 -0.1314
12175SOL    HW138247   8.454   0.687   2.941 -0.4170 -0.3664  1.5851
12175SOL    HW238248   8.475   0.823   3.005 -0.4127  0.3143  0.1694
12176SOL     OW38249   6.891   3.483   8.666 -0.3024 -0.8311  0.0094
12176SOL    HW138250   6.981   3.500   8.695 -1.2048 -0.0387  2.6476
12176SOL    HW238251   6.870   3.556   8.607  0.6007 -0.7329 -0.1968
12177SOL     OW38252   3.385   0.018   3.170 -0.3645 -0.3662 -1.1456
12177SOL    HW138253   3.419   0.045   3.256 -0.8244  1.4697 -1.4971
12177SOL    HW238254   3.459  -0.025   3.128 -0.0528 -1.0704  0.0612
12178SOL     OW38255   6.559   2.508   4.793  0.0941 -0.3376  0.0171
12178SOL    HW138256   6.647   2.487   4.823  0.7513 -0.0899 -1.6313
12178SOL    HW238257   6.501   2.455   4.848  1.2735 -0.5727  1.0527
12179SOL     OW38258   7.423   5.995   3.052  0.4046 -0.2907  0.1174
12179SOL    HW138259   7.391   5.907   3.071 -1.0969  0.0771 -0.5490
12179SOL    HW238260   7.394   6.012   2.962 -1.4964  1.7756  1.0296
12180SOL     OW38261   7.776   3.186   1.331  0.1645 -0.1237 -0.5851
12180SOL    HW138262   7.704   3.146   1.281  2.4886 -1.2485 -3.3265
12180SOL    HW238263   7.782   3.275   1.298 -0.8192  0.4703  0.7323
12181SOL     OW38264   7.403   4.872   5.755 -0.5530 -0.1470  0.1438
12181SOL    HW138265   7.433   4.842   5.669 -0.3763  2.2732 -0.7124
12181SOL    HW238266   7.480   4.864   5.812 -0.4057 -0.8717 -0.1512
12182SOL     OW38267   5.187   5.787   7.507 -0.0472 -0.3528  0.2779
12182SOL    HW138268   5.280   5.790   7.485 -0.1002  0.2925  0.1288
12182SOL    HW238269   5.145   5.841   7.440 -0.5213 -0.5928  0.3795
12183SOL     OW38270   6.314   0.291   2.281 -0.1833 -0.2282 -0.0684
12183SOL    HW138271   6.288   0.380   2.257 -0.7565 -0.3974 -0.0769
12183SOL    HW238272   6.316   0.291   2.377  4.4622  1.1569  0.1041
12184SOL     OW38273   7.394   5.575   5.488 -0.4409 -0.1596 -0.0314
12184SOL    HW138274   7.374   5.643   5.424  0.5133 -0.0057 -0.1854
12184SOL    HW238275   7.488   5.584   5.504 -0.5206 -0.6868  0.8270
12185SOL     OW38276   6.302   0.585   5.492 -0.7478 -0.2053 -0.3395
12185SOL    HW138277   6.290   0.512   5.553 -1.0630  0.1580  0.0393
12185SOL    HW238278   6.393   0.577   5.463 -0.3816 -0.0101  0.6864
12186SOL     OW38279   1.190   2.091   2.385 -0.3386  0.3562  0.0855
12186SOL    HW138280   1.258   2.041   2.432 -2.6375 -1.6378  1.4985
12186SOL    HW238281   1.108   2.064   2.425 -2.3003  0.4391 -3.4460
12187SOL     OW38282   2.516   2.531   2.763  0.2985  0.2398  0.3031
12187SOL    HW138283   2.432   2.523   2.807 -0.3772  2.6164 -0.4314
12187SOL    HW238284   2.575   2.569   2.828  1.4163 -2.9268  1.3764
12188SOL     OW38285   9.455   4.691   7.615 -0.7094 -0.0107 -0.1231
12188SOL    HW138286   9.532   4.746   7.632 -1.2662  0.5377  0.6967
12188SOL    HW238287   9.409   4.735   7.544  0.2096 -0.8533 -1.2846
12189SOL     OW38288   2.485   6.162   9.399 -0.0024 -0.1367  0.1982
12189SOL    HW138289   2.426   6.237   9.393 -0.8223 -0.7773 -0.0197
12189SOL    HW238290   2.572   6.200   9.401 -0.4111  0.8272  0.2487
12190SOL     OW38291   6.627   5.037   0.286 -0.0870  0.0092  0.8254
12190SOL    HW138292   6.694   4.974   0.313  1.6034  0.7775 -1.3390
12190SOL    HW238293   6.635   5.109   0.348  0.8566 -0.0557  0.7868
12191SOL     OW38294   9.255   0.637   5.721  0.3598  0.7472  0.3372
12191SOL    HW138295   9.348   0.660   5.719  1.2218 -2.0437  2.5737
12191SOL    HW238296   9.252   0.547   5.691 -1.3026  0.0612  2.3717
12192SOL     OW38297   9.599   7.987   6.253  0.1477  0.4888  0.5239
12192SOL    HW138298   9.509   8.001   6.283  0.1412  2.6327 -0.2886
12192SOL    HW238299   9.648   8.061   6.290  0.3310  2.7666 -3.6956
12193SOL     OW38300   3.382   0.110   3.439 -0.1166 -0.3542  0.2285
12193SOL    HW138301   3.441   0.185   3.434  1.2436 -1.3543  0.6091
12193SOL    HW238302   3.398   0.073   3.525 -1.0871 -0.8421  0.2118
12194SOL     OW38303   4.098   1.118   5.102  0.0832  0.5297  0.7589
12194SOL    HW138304   4.113   1.158   5.188 -0.0274  0.5011  0.7917
12194SOL    HW238305   4.186   1.105   5.066  0.1100  1.1842  0.5702
12195SOL     OW38306   1.828   0.555   7.970 -0.1299  0.3162 -0.5428
12195SOL    HW138307   1.787   0.641   7.975  0.3154  0.5065 -0.0918
12195SOL    HW238308   1.853   0.546   7.878  0.8168  1.1499 -0.3912
12196SOL     OW38309   7.790   2.613   2.848 -0.0703  0.2667  0.3212
12196SOL    HW138310   7.886   2.615   2.851 -0.0381 -0.9910  3.5570
12196SOL    HW238311   7.765   2.706   2.846  1.2243  0.6698  1.2169
12197SOL     OW38312   0.428   8.877   7.777  0.3273  0.3188 -0.6257
12197SOL    HW138313   0.356   8.940   7.783  1.2620  1.2476  2.0145
12197SOL    HW238314   0.495   8.910   7.836  3.2065 -0.2734 -3.2591
12198SOL     OW38315   3.451   3.057   3.410 -0.0992  0.5677 -0.5857
12198SOL    HW138316   3.522   3.063   3.474  0.4370 -0.2599 -1.0987
12198SOL    HW238317   3.380   3.109   3.449  0.6019  0.9826  0.1649
12199SOL     OW38318   0.109   7.053   0.643  0.0198  0.0130 -0.1356
12199SOL    HW138319   0.092   7.139   0.605  1.6040 -0.0948 -1.2311
12199SOL    HW238320   0.023   7.016   0.660 -0.6865  2.0815  1.0521
12200SOL     OW38321   5.639   2.307   8.589 -0.0164 -0.0953  0.1830
12200SOL    HW138322   5.605   2.320   8.500  0.5238 -1.5514 -0.2717
12200SOL    HW238323   5.734   2.312   8.579  0.2281 -2.9766  0.1026
12201SOL     OW38324   4.298   7.684   7.952 -0.0561 -0.1200  0.0374
12201SOL    HW138325   4.378   7.735   7.938  1.0144 -1.2571  1.6827
12201SOL    HW238326   4.262   7.716   8.035 -1.1885  0.1853 -0.5448
12202SOL     OW38327   9.064   5.110   6.129 -0.5450 -0.1232  0.0377
12202SOL    HW138328   9.028   5.090   6.216 -2.4016  1.2310 -0.3443
12202SOL    HW238329   9.049   5.031   6.078 -0.5299 -0.5129  0.6287
12203SOL     OW38330   3.334   7.815   8.482 -1.1164  0.2315 -0.2473
12203SOL    HW138331   3.249   7.837   8.521 -1.9732  1.7924 -2.7390
12203SOL    HW238332   3.317   7.814   8.388  1.7330  0.9949 -0.8565
12204SOL     OW38333   2.808   1.922   4.562  0.0391 -0.7332  0.2359
12204SOL    HW138334   2.781   2.012   4.541  2.0689 -0.7092 -3.0900
12204SOL    HW238335   2.784   1.872   4.484  0.5450 -2.7106  1.2955
12205SOL     OW38336   8.342   2.773   9.116  0.1013 -0.1609 -0.2639
12205SOL    HW138337   8.310   2.702   9.170  0.5399 -0.5958 -0.5709
12205SOL    HW238338   8.369   2.841   9.178 -2.0594  0.5416  0.0085
12206SOL     OW38339   6.394   2.872   0.266  0.3940  0.0231  0.2049
12206SOL    HW138340   6.467   2.861   0.205  0.5723 -0.0667  0.4335
12206SOL    HW238341   6.416   2.951   0.316  0.4441 -0.1278  0.4237
12207SOL     OW38342   1.998   8.514   6.713  0.0383  0.0102 -0.2387
12207SOL    HW138343   2.087   8.521   6.679 -0.2154 -0.0308 -0.9456
12207SOL    HW238344   1.953   8.458   6.649  0.6815 -4.0851  2.5173
12208SOL     OW38345   7.361   8.391   8.694  0.2494  0.0398 -0.1952
12208SOL    HW138346   7.303   8.447   8.745 -1.3766 -0.3500 -1.5194
12208SOL    HW238347   7.398   8.448   8.627 -1.1872 -0.3543 -1.3693
12209SOL     OW38348   0.831   2.214   6.294  0.7857  0.3666  0.6257
12209SOL    HW138349   0.926   2.223   6.287  0.7073  0.7368 -0.0999
12209SOL    HW238350   0.817   2.121   6.308  1.1961  0.0999 -0.6017
12210SOL     OW38351   8.679   6.751   7.842 -0.1408 -0.1405  0.0484
12210SOL    HW138352   8.645   6.727   7.928  1.0542  0.4252  0.7045
12210SOL    HW238353   8.668   6.673   7.789  0.2894 -0.9411  1.0930
12211SOL     OW38354   0.021   7.990   4.247  0.5709  0.1553 -0.3297
12211SOL    HW138355   0.111   7.992   4.216  0.1678  0.3422 -1.5412
12211SOL    HW238356   0.016   8.062   4.310  1.4303 -0.2801  0.2484
12212SOL     OW38357   8.361   1.734   8.491 -0.5466 -0.0177  0.0879
12212SOL    HW138358   8.336   1.775   8.409 -0.6718 -1.0656 -0.4188
12212SOL    HW238359   8.321   1.789   8.559 -0.8387  0.5893 -0.5669
12213SOL     OW38360   2.289   4.732   2.531  0.1254 -0.8318 -0.4657
12213SOL    HW138361   2.304   4.777   2.613  1.0669 -1.9064 -0.0224
12213SOL    HW238362   2.238   4.794   2.478 -2.6578 -1.0242  1.7858
12214SOL     OW38363   1.630   6.157   2.503  0.0998  0.4715 -0.1530
12214SOL    HW138364   1.664   6.069   2.487 -1.8048 -0.0288 -1.9741
12214SOL    HW238365   1.569   6.172   2.431 -1.7328  2.1888  1.6286
12215SOL     OW38366   6.355   7.182   9.261 -0.0740 -0.6670  0.0284
12215SOL    HW138367   6.436   7.234   9.257  0.1262 -0.7077  2.1224
12215SOL    HW238368   6.350   7.139   9.176  0.0533  2.2729 -1.6339
12216SOL     OW38369   0.871   9.492   3.409  0.0783 -0.0292 -0.1164
12216SOL    HW138370   0.952   9.493   3.459  0.1969  0.3813 -0.3168
12216SOL    HW238371   0.806   9.535   3.465 -0.0473 -0.5075  0.1138
12217SOL     OW38372   3.090   4.943   3.138 -0.2389  0.2646 -0.0246
12217SOL    HW138373   3.147   4.953   3.215 -0.9983 -0.9793  0.7345
12217SOL    HW238374   3.093   4.850   3.117 -1.8339  0.1946 -0.0743
12218SOL     OW38375   7.902   5.616   6.544 -0.4665 -0.1595  0.2535
12218SOL    HW138376   7.812   5.640   6.567 -0.3884  0.5295 -0.1291
12218SOL    HW238377   7.893   5.561   6.466 -0.5207  0.4485 -0.1731
12219SOL     OW38378   3.512   1.954   7.963 -0.1921 -0.3218 -0.0346
12219SOL    HW138379   3.591   1.944   8.015 -0.2321 -0.8104 -0.0614
12219SOL    HW238380   3.441   1.949   8.028 -0.1973  0.3072  0.0142
12220SOL     OW38381   8.592   0.223   4.343 -0.1302  0.3693  0.0008
12220SOL    HW138382   8.615   0.271   4.423  1.0336  0.3080 -0.2736
12220SOL    HW238383   8.523   0.163   4.370 -0.4018  1.0010  0.7450
12221SOL     OW38384   9.109   3.175   3.632  0.0993 -0.1331  0.5034
12221SOL    HW138385   9.052   3.186   3.556  0.2929 -0.7205  0.2644
12221SOL    HW238386   9.071   3.230   3.700 -0.1474  0.3019  0.0174
12222SOL     OW38387   7.384   5.178   4.985 -0.2375  0.0603  0.0879
12222SOL    HW138388   7.365   5.145   4.897 -0.2800  0.1542  0.0625
12222SOL    HW238389   7.304   5.161   5.035 -0.2246  0.0362  0.1004
12223SOL     OW38390   7.799   5.415   6.805  0.2816 -0.4537  0.1344
12223SOL    HW138391   7.866   5.373   6.751  0.7864 -0.1978  0.5493
12223SOL    HW238392   7.849   5.468   6.868 -0.2919 -0.7499  0.8507
12224SOL     OW38393   6.949   0.433   1.805 -0.1406 -0.3466 -0.2229
12224SOL    HW138394   6.915   0.456   1.719 -1.6615  1.1957  0.7141
12224SOL    HW238395   6.906   0.350   1.827  0.7400 -1.0785 -1.1659
12225SOL     OW38396   6.302   9.031   7.880  0.5567 -0.0513  0.4973
12225SOL    HW138397   6.378   9.052   7.825  0.1128  0.3848  0.0396
12225SOL    HW238398   6.286   8.938   7.864  0.1809  0.1614 -0.4471
12226SOL     OW38399   0.123   0.360   7.321  0.0525  0.6077 -0.5486
12226SOL    HW138400   0.205   0.311   7.319 -0.5666 -0.5843  0.9625
12226SOL    HW238401   0.133   0.421   7.394 -0.6298 -0.0273  0.0968
12227SOL     OW38402   4.995   0.814   7.036 -0.0766 -0.0226  0.1030
12227SOL    HW138403   4.961   0.891   7.082  1.3737 -0.5123  2.1100
12227SOL    HW238404   5.022   0.847   6.951  0.2376  1.6477  0.8166
12228SOL     OW38405   6.283   6.502   3.375 -0.1263 -0.1250 -0.2132
12228SOL    HW138406   6.308   6.500   3.467 -0.0098  0.1516 -0.2377
12228SOL    HW238407   6.236   6.584   3.364 -0.2906 -0.2380 -0.3612
12229SOL     OW38408   5.173   0.769   2.896 -0.9164  0.0462 -0.1341
12229SOL    HW138409   5.253   0.729   2.930 -1.4526  0.3488  1.6122
12229SOL    HW238410   5.200   0.854   2.863 -0.2906 -0.4590 -0.9579
12230SOL     OW38411   7.127   0.519   9.497  0.1564 -0.2338  0.3747
12230SOL    HW138412   7.066   0.565   9.554  0.6434  1.0792 -0.1212
12230SOL    HW238413   7.112   0.426   9.515  0.2946  0.1236  2.6252
12231SOL     OW38414   1.115   1.218   5.757  0.2531  0.6639  0.3298
12231SOL    HW138415   1.198   1.174   5.739  0.3533  1.3262 -0.9601
12231SOL    HW238416   1.138   1.292   5.813  0.2714 -0.1490  1.4135
12232SOL     OW38417   1.625   1.755   5.719 -0.1998 -0.0883 -0.8428
12232SOL    HW138418   1.680   1.760   5.641  0.2722 -0.5020 -0.5429
12232SOL    HW238419   1.684   1.724   5.788 -0.7949 -0.4932 -0.5042
12233SOL     OW38420   9.157   1.873   4.664 -0.1488 -0.3635 -0.3818
12233SOL    HW138421   9.064   1.862   4.679 -0.0458 -0.6600  0.0618
12233SOL    HW238422   9.199   1.807   4.719  0.3684  0.4995  0.3024
12234SOL     OW38423   1.182   7.536   6.704  0.7373  0.5412  0.0233
12234SOL    HW138424   1.157   7.519   6.614 -0.4553  2.0478  0.0317
12234SOL    HW238425   1.249   7.604   6.698  1.2630  0.0551  0.2489
12235SOL     OW38426   7.639   1.489   9.639  0.0465 -0.1124  0.4207
12235SOL    HW138427   7.648   1.545   9.716  2.0469 -1.0834  0.9660
12235SOL    HW238428   7.667   1.544   9.566  0.1448  0.1802  0.6756
12236SOL     OW38429   0.698   6.550   4.083 -0.2347 -0.0803 -0.6130
12236SOL    HW138430   0.610   6.559   4.046 -0.7569 -0.9427  0.3536
12236SOL    HW238431   0.687   6.492   4.158  1.6886 -2.8871 -2.3344
12237SOL     OW38432   2.279   7.029   7.724  0.5446 -0.2565 -0.6644
12237SOL    HW138433   2.301   6.980   7.803 -1.2823 -0.6311 -0.3471
12237SOL    HW238434   2.343   7.100   7.721  0.4701 -0.0458  1.3359
12238SOL     OW38435   9.266   6.030   6.552 -0.2843 -0.3000  0.0657
12238SOL    HW138436   9.233   6.103   6.499  0.9052  1.2566  1.3529
12238SOL    HW238437   9.227   6.043   6.638  1.2940 -0.1169  0.7920
12239SOL     OW38438   1.630   1.588   1.854  0.2898  0.4269 -0.6756
12239SOL    HW138439   1.562   1.523   1.840 -0.9890  1.0738  1.8614
12239SOL    HW238440   1.694   1.544   1.911  1.4256  0.2207 -2.0458
12240SOL     OW38441   1.235   2.873   4.948  0.0275 -0.2824  0.4849
12240SOL    HW138442   1.211   2.879   5.040  0.8618 -0.2281  0.7003
12240SOL    HW238443   1.234   2.779   4.929 -1.7224 -0.2361  0.1077
12241SOL     OW38444   3.183   4.665   7.671 -0.0370 -0.3716  0.4844
12241SOL    HW138445   3.244   4.706   7.609  1.3221 -1.3814  1.1168
12241SOL    HW238446   3.132   4.605   7.616 -0.6780  0.6541 -0.0904
12242SOL     OW38447   0.354   8.450   1.785 -0.3091  0.1459  0.4946
12242SOL    HW138448   0.441   8.458   1.824 -0.1259 -1.2000  0.4329
12242SOL    HW238449   0.297   8.497   1.845  0.6681  2.6732 -0.4192
12243SOL     OW38450   6.571   6.579   6.912 -0.1302  0.2924  0.0913
12243SOL    HW138451   6.505   6.640   6.946 -1.8707 -1.8994  0.8811
12243SOL    HW238452   6.521   6.511   6.867  1.7195 -0.5962 -0.7382
12244SOL     OW38453   4.788   5.065   2.883  0.2455 -0.3688 -0.0015
12244SOL    HW138454   4.829   5.075   2.797 -1.2364  0.7891 -0.6079
12244SOL    HW238455   4.805   4.974   2.907  1.0132 -0.6018 -1.3265
12245SOL     OW38456   9.174   2.137   5.482 -0.4016 -1.0437 -0.2856
12245SOL    HW138457   9.140   2.050   5.502 -1.6315 -0.6984 -0.7638
12245SOL    HW238458   9.266   2.133   5.506 -0.5975 -2.2665  0.3391
12246SOL     OW38459   8.321   1.930   8.692 -0.0477 -0.1973 -0.1427
12246SOL    HW138460   8.315   2.003   8.753 -1.1974  1.8041 -2.4936
12246SOL    HW238461   8.396   1.952   8.636 -1.1148 -0.1549 -1.6093
12247SOL     OW38462   6.646   8.310   5.437  0.8048 -0.7477 -0.2720
12247SOL    HW138463   6.725   8.324   5.488  1.2602  0.4419 -1.2436
12247SOL    HW238464   6.576   8.351   5.488  0.8072 -1.7211  0.5436
12248SOL     OW38465   5.497   8.267   5.815  0.0484  0.0598  0.0388
12248SOL    HW138466   5.457   8.256   5.728 -2.6786  2.5945  0.8044
12248SOL    HW238467   5.574   8.321   5.799  0.0557 -0.1864 -0.8585
12249SOL     OW38468   6.337   8.378   3.296 -0.2545 -0.4652  0.5370
12249SOL    HW138469   6.425   8.370   3.260 -0.0627 -1.1074  1.1270
12249SOL    HW238470   6.341   8.457   3.350 -0.8433  1.1253 -1.6192
12250SOL     OW38471   0.692   3.090   5.908 -0.0463  0.2930  0.0295
12250SOL    HW138472   0.712   3.082   5.815  0.8144 -0.3020  0.2558
12250SOL    HW238473   0.631   3.018   5.925 -1.7156  1.5202 -0.4484
12251SOL     OW38474   3.937   5.453   4.346 -0.0325 -0.2671  0.0102
12251SOL    HW138475   3.907   5.495   4.266  1.2971 -0.2173 -0.4834
12251SOL    HW238476   3.858   5.413   4.383 -0.8905  0.7646 -0.6658
12252SOL     OW38477   7.237   4.104   1.923 -0.4015  0.2661 -0.4083
12252SOL    HW138478   7.143   4.089   1.934 -0.1118 -3.1989 -1.3644
12252SOL    HW238479   7.274   4.017   1.907  2.4868  1.7860 -3.5322
12253SOL     OW38480   1.185   8.744   6.739 -0.1725  0.1937 -0.7921
12253SOL    HW138481   1.188   8.829   6.695 -0.1774  0.4311 -0.3392
12253SOL    HW238482   1.276   8.713   6.738 -0.1060  0.3799 -0.6224
12254SOL     OW38483   5.453   0.431   8.383  0.5407  0.1214 -0.6025
12254SOL    HW138484   5.409   0.350   8.408 -0.4530  0.4023 -1.3758
12254SOL    HW238485   5.504   0.455   8.460 -0.5099 -0.3311  0.2632
12255SOL     OW38486   2.866   1.199   6.875 -0.3379 -0.5015 -0.1122
12255SOL    HW138487   2.947   1.170   6.917 -0.5933 -0.6511  0.2910
12255SOL    HW238488   2.893   1.266   6.813 -0.0625  0.6910  1.2278
12256SOL     OW38489   3.828   4.796   8.692  0.0301 -0.0981  0.3522
12256SOL    HW138490   3.843   4.844   8.773 -0.0854  0.8939 -0.2005
12256SOL    HW238491   3.763   4.729   8.715  0.9698 -0.6831  1.3772
12257SOL     OW38492   5.829   5.483   7.515  0.0830 -0.2054  0.1819
12257SOL    HW138493   5.791   5.450   7.595  0.0517 -0.2329  0.1556
12257SOL    HW238494   5.763   5.466   7.447  1.0357 -2.3077 -0.2967
12258SOL     OW38495   7.188   6.844   5.725 -0.0507 -0.1071 -0.1993
12258SOL    HW138496   7.133   6.817   5.651 -0.7660  0.6667  0.0296
12258SOL    HW238497   7.276   6.815   5.702 -0.7230 -2.4577 -0.0376
12259SOL     OW38498   8.196   7.660   5.501  0.1744 -0.0312 -0.1557
12259SOL    HW138499   8.213   7.580   5.451  1.1783  0.3180 -0.3931
12259SOL    HW238500   8.101   7.671   5.497  0.2214  0.0237 -2.0514
12260SOL     OW38501   1.369   2.167   2.907 -0.7566  0.1461  0.0649
12260SOL    HW138502   1.275   2.187   2.910 -0.8827 -0.4727  0.4269
12260SOL    HW238503   1.372   2.073   2.886 -0.2176  0.1435  0.1579
12261SOL     OW38504   5.517   2.301   1.753 -0.9637  0.4696  0.1115
12261SOL    HW138505   5.481   2.220   1.790 -0.9548 -0.5483 -1.9730
12261SOL    HW238506   5.594   2.319   1.807 -0.7500 -1.1256  0.4101
12262SOL     OW38507   3.247   2.603   2.877  0.2768 -0.1958 -0.1896
12262SOL    HW138508   3.298   2.587   2.956 -1.2406 -0.8875  0.7132
12262SOL    HW238509   3.250   2.698   2.864  1.2547 -0.1686  0.1736
12263SOL     OW38510   5.757   4.976   1.210 -0.2596  0.0844  0.2638
12263SOL    HW138511   5.809   4.922   1.150  1.2210  1.2776  0.4089
12263SOL    HW238512   5.817   4.996   1.282 -1.1410  0.9577  0.7797
12264SOL     OW38513   6.317   9.647   6.307  0.0872  0.1280 -0.4505
12264SOL    HW138514   6.310   9.696   6.226 -0.1556  2.4432  0.8723
12264SOL    HW238515   6.305   9.713   6.376  3.4472 -1.0923  1.5596
12265SOL     OW38516   4.608   3.773   1.123 -0.8705 -0.3977  0.1480
12265SOL    HW138517   4.597   3.698   1.064 -4.0531  0.4592 -0.5341
12265SOL    HW238518   4.658   3.837   1.071  2.2646 -2.0476  0.8900
12266SOL     OW38519   6.173   5.196   6.706  0.1067 -0.4121  0.2071
12266SOL    HW138520   6.136   5.250   6.637 -0.2154 -1.3716 -0.3821
12266SOL    HW238521   6.103   5.188   6.771 -0.1421 -0.8277 -0.1099
12267SOL     OW38522   4.261   7.437   7.257 -0.3302  0.3105  0.1792
12267SOL    HW138523   4.301   7.442   7.170 -0.4578 -2.0247 -0.0701
12267SOL    HW238524   4.301   7.509   7.306  3.2921 -1.0720 -0.4464
12268SOL     OW38525   7.283   5.761   0.972 -0.3281 -0.3839  0.2744
12268SOL    HW138526   7.322   5.847   0.984  0.5706 -0.3757 -2.0808
12268SOL    HW238527   7.332   5.704   1.031  0.6177  0.3272  0.2047
12269SOL     OW38528   8.503   8.904   8.331  0.4433  0.0546 -0.1368
12269SOL    HW138529   8.593   8.930   8.351 -0.3334  2.5702  0.4238
12269SOL    HW238530   8.499   8.904   8.235  0.6564  1.6149 -0.1793
12270SOL     OW38531   6.509   1.516   8.438  1.1979  0.1268 -0.2293
12270SOL    HW138532   6.538   1.469   8.516  2.9724  1.6741  0.1005
12270SOL    HW238533   6.579   1.578   8.419 -0.0339  1.0843 -1.9722
12271SOL     OW38534   8.760   8.657   7.457 -0.2023 -0.4524 -0.3662
12271SOL    HW138535   8.824   8.616   7.399  0.3433  2.3565 -1.9320
12271SOL    HW238536   8.812   8.717   7.511 -0.9528 -1.7032  1.9106
12272SOL     OW38537   2.507   7.931   7.029  0.3321  0.1828 -0.1814
12272SOL    HW138538   2.423   7.897   6.997  0.3583 -2.0498  1.8485
12272SOL    HW238539   2.573   7.885   6.978  0.3375 -1.4342  1.2252
12273SOL     OW38540   7.302   4.399   8.111 -0.1300  0.0446 -0.1365
12273SOL    HW138541   7.264   4.447   8.184 -0.4789  1.7865 -1.4025
12273SOL    HW238542   7.282   4.307   8.129 -0.2064  0.4237  1.9215
12274SOL     OW38543   2.476   6.459   4.508 -0.0879 -0.2223 -0.2589
12274SOL    HW138544   2.539   6.425   4.443 -0.1361 -0.8126 -0.0004
12274SOL    HW238545   2.512   6.433   4.592  0.0350  0.6511 -0.0323
12275SOL     OW38546   9.678   0.852   0.092  0.1697 -0.2018  0.4617
12275SOL    HW138547   9.749   0.872   0.154  0.1062 -1.0728  0.8259
12275SOL    HW238548   9.719   0.860   0.006  0.9602 -1.5099  0.6857
12276SOL     OW38549   6.748   4.433   1.413 -0.4781  0.0937  0.0632
12276SOL    HW138550   6.766   4.493   1.486  0.5819 -0.1683  0.0306
12276SOL    HW238551   6.677   4.475   1.364 -1.3734  0.1668  1.3655
12277SOL     OW38552   0.001   5.699   0.131 -0.4568 -0.2745 -0.0076
12277SOL    HW138553   0.038   5.629   0.185 -1.9516 -1.4282 -0.4090
12277SOL    HW238554  -0.052   5.750   0.193 -2.7394 -2.0096 -0.4094
12278SOL     OW38555   0.257   9.354   5.653  0.0820  0.0171  0.0757
12278SOL    HW138556   0.175   9.319   5.618  0.9433 -0.5149 -1.5376
12278SOL    HW238557   0.256   9.446   5.627  0.9766 -0.5041 -1.9924
12279SOL     OW38558   1.297   9.139   3.958 -0.3263 -0.2767  0.1622
12279SOL    HW138559   1.204   9.123   3.946  0.1060 -2.4930 -0.6755
12279SOL    HW238560   1.308   9.149   4.053 -1.4846  0.7209  0.2077
12280SOL     OW38561   2.038   1.321   1.923 -0.4658  0.1593  0.0906
12280SOL    HW138562   2.098   1.246   1.917 -0.6293  0.0586 -0.3603
12280SOL    HW238563   2.089   1.389   1.967  0.4468  0.5251 -1.4619
12281SOL     OW38564   2.294   6.642   5.978 -0.2111 -0.5698  0.1801
12281SOL    HW138565   2.388   6.646   5.998  0.0945 -1.1676 -1.0558
12281SOL    HW238566   2.283   6.699   5.902 -0.8369 -0.5775  0.2580
12282SOL     OW38567   5.507   2.841   6.088 -0.0768  0.6901  0.0462
12282SOL    HW138568   5.595   2.877   6.077  0.1130 -0.2094 -1.8458
12282SOL    HW238569   5.476   2.826   5.999 -1.0032 -1.6797  0.6749
12283SOL     OW38570   7.075   9.574   5.856 -0.5354  0.3714 -0.0148
12283SOL    HW138571   7.155   9.540   5.895 -0.8320 -1.5702 -0.9611
12283SOL    HW238572   7.037   9.630   5.924  1.0264  0.4064  0.8729
12284SOL     OW38573   0.233   0.192   3.044 -0.0790 -0.1541  0.3981
12284SOL    HW138574   0.238   0.156   2.956  1.5718 -0.9333  0.7839
12284SOL    HW238575   0.193   0.122   3.096 -2.9377  0.9972 -0.0125
12285SOL     OW38576   9.409   3.714   8.097  0.3129  0.5587 -1.0597
12285SOL    HW138577   9.324   3.758   8.090  0.6790  1.8813  1.4267
12285SOL    HW238578   9.468   3.765   8.042  0.1551  1.6022 -0.2772
12286SOL     OW38579   6.116   7.100   3.781  0.2297 -0.0696  0.6359
12286SOL    HW138580   6.077   7.014   3.769 -0.2503  0.1223  0.8044
12286SOL    HW238581   6.209   7.088   3.759 -0.0856 -0.3341 -0.5956
12287SOL     OW38582   4.289   4.381   3.355 -0.4788  0.7744  0.0330
12287SOL    HW138583   4.196   4.388   3.333 -0.0141  0.8131 -2.1504
12287SOL    HW238584   4.325   4.468   3.335  0.2463  0.4062 -0.3010
12288SOL     OW38585   5.426   0.001   4.648 -0.1881  0.5330 -0.5170
12288SOL    HW138586   5.378  -0.081   4.660 -1.8380  1.7077  1.6416
12288SOL    HW238587   5.434   0.037   4.736  1.5813  2.1556 -1.2578
12289SOL     OW38588   6.026   4.662   3.722 -0.2921  0.4868  0.6061
12289SOL    HW138589   6.045   4.572   3.749 -2.3374  0.3541  1.8571
12289SOL    HW238590   5.934   4.661   3.697  0.6015  1.3864 -3.4905
12290SOL     OW38591   2.961   6.148   7.436  0.0461  0.6176  0.4311
12290SOL    HW138592   3.053   6.167   7.455  0.4373 -1.3677  0.7370
12290SOL    HW238593   2.913   6.176   7.514  0.2857  2.1166  0.0761
12291SOL     OW38594   1.436   7.764   5.296 -0.1604 -0.0429 -0.0851
12291SOL    HW138595   1.481   7.714   5.364 -0.1137 -2.2109 -1.6038
12291SOL    HW238596   1.497   7.833   5.272  1.7521 -1.9248 -0.9445
12292SOL     OW38597   5.814   1.035   9.171 -0.0496 -0.0536 -0.6669
12292SOL    HW138598   5.898   1.073   9.198  0.3393  0.3465 -2.3696
12292SOL    HW238599   5.798   1.070   9.084 -2.3071  0.3694 -0.1497
12293SOL     OW38600   6.260   9.313   0.842 -0.4366 -0.9358 -0.1570
12293SOL    HW138601   6.289   9.274   0.760 -3.4686  0.2018 -1.9617
12293SOL    HW238602   6.207   9.388   0.816  0.1057  0.7297  2.9640
12294SOL     OW38603   7.854   9.383   7.310  0.4404 -0.8250 -0.2914
12294SOL    HW138604   7.783   9.443   7.334 -1.6775 -2.6794 -1.5070
12294SOL    HW238605   7.894   9.423   7.232  0.0483 -0.2436 -0.1980
12295SOL     OW38606   6.239   7.268   7.922 -0.8523 -0.1374 -0.1852
12295SOL    HW138607   6.156   7.249   7.965 -0.9386 -0.7921 -0.6393
12295SOL    HW238608   6.214   7.298   7.835 -0.5649 -1.7876 -0.8572
12296SOL     OW38609   4.794   1.235   8.971  0.2490 -1.2414  0.4992
12296SOL    HW138610   4.773   1.314   8.920 -2.2259 -2.6058 -0.7893
12296SOL    HW238611   4.882   1.250   9.004  0.3862  1.4596 -0.8536
12297SOL     OW38612   3.017   1.759   0.683  0.1949  0.2187  0.2112
12297SOL    HW138613   3.028   1.664   0.684  0.5052  0.2288 -0.8699
12297SOL    HW238614   3.103   1.793   0.705 -0.0541  0.2628  1.1742
12298SOL     OW38615   0.334   2.057   1.382 -0.7493  0.8229 -0.0104
12298SOL    HW138616   0.365   2.126   1.441  1.2078 -0.5961  0.7327
12298SOL    HW238617   0.280   2.000   1.437 -0.9160  0.7988 -0.1956
12299SOL     OW38618   2.467   2.132   4.257 -0.0482  0.1393 -0.2086
12299SOL    HW138619   2.415   2.118   4.336 -0.1525  0.8419 -0.1429
12299SOL    HW238620   2.533   2.196   4.282  0.3137 -0.1035 -0.5255
12300SOL     OW38621   2.524   6.809   7.056 -0.4087 -0.4629 -0.0231
12300SOL    HW138622   2.546   6.724   7.019  2.7354  0.5587 -0.7653
12300SOL    HW238623   2.491   6.789   7.144  0.2242 -2.4183 -0.1839
12301SOL     OW38624   6.740   0.661   8.225  0.0773 -0.1684  0.5125
12301SOL    HW138625   6.782   0.608   8.294  1.0146  0.3946  0.3920
12301SOL    HW238626   6.760   0.751   8.249 -0.9070  0.1095  0.3270
12302SOL     OW38627   0.022   2.505   7.840 -0.4200  0.2480 -0.1128
12302SOL    HW138628   0.069   2.425   7.866 -1.9671 -0.3979  0.8613
12302SOL    HW238629   0.061   2.574   7.893  0.6127  0.0653 -0.6118
12303SOL     OW38630   6.656   1.474   4.803 -0.5184  0.5876 -0.1536
12303SOL    HW138631   6.620   1.395   4.763 -1.5323  0.0611  1.7081
12303SOL    HW238632   6.619   1.546   4.752 -2.2566 -0.0354  0.1706
12304SOL     OW38633   9.326   8.678   3.781 -0.0172  0.1562  0.3889
12304SOL    HW138634   9.357   8.591   3.807 -0.5927 -0.4169 -0.7980
12304SOL    HW238635   9.244   8.661   3.735 -0.0686  1.3260  0.0398
12305SOL     OW38636   6.414   3.146   1.307  1.1470 -0.1697  0.3244
12305SOL    HW138637   6.327   3.186   1.300  0.9180 -0.5954  0.6604
12305SOL    HW238638   6.397   3.052   1.306  1.2688 -0.3564  3.6551
12306SOL     OW38639   3.896   1.710   4.193 -0.4931 -0.5005  0.4462
12306SOL    HW138640   3.952   1.684   4.266 -0.1480  0.6901  0.6364
12306SOL    HW238641   3.878   1.803   4.208  1.0690  0.2829 -1.8814
12307SOL     OW38642   9.339   3.191   8.472 -0.1967 -0.6213  0.3237
12307SOL    HW138643   9.258   3.231   8.502 -0.1788 -0.1426 -0.2537
12307SOL    HW238644   9.337   3.201   8.377  1.0207  0.3159  0.3847
12308SOL     OW38645   9.598   1.452   0.647 -0.3486 -0.4229 -0.1648
12308SOL    HW138646   9.534   1.384   0.670  1.3296 -1.9143  0.3626
12308SOL    HW238647   9.612   1.440   0.553 -0.6562 -0.2492 -0.2350
12309SOL     OW38648   4.470   1.045   5.614  0.3076  0.0042  0.2477
12309SOL    HW138649   4.442   1.063   5.524 -2.1476 -0.4864  0.8393
12309SOL    HW238650   4.420   1.107   5.668  1.5660  0.1349  1.3219
12310SOL     OW38651   4.884   8.697   1.119  0.2157  0.4849  0.1211
12310SOL    HW138652   4.895   8.611   1.158  0.2320  0.6935  0.5899
12310SOL    HW238653   4.947   8.700   1.047  0.3067  0.1550  0.1875
12311SOL     OW38654   1.371   8.902   2.529  0.2257 -0.1347 -0.1713
12311SOL    HW138655   1.387   8.842   2.456  0.6542  0.4183 -0.5325
12311SOL    HW238656   1.425   8.868   2.601 -0.6228 -1.0054  0.0767
12312SOL     OW38657   8.378   6.228   6.147  0.0703 -0.0084 -0.3118
12312SOL    HW138658   8.436   6.299   6.121  2.3374 -1.8486 -0.5843
12312SOL    HW238659   8.339   6.258   6.229 -0.3648  2.1926 -1.2414
12313SOL     OW38660   6.336   6.876   7.635  0.8169  0.0417  0.4532
12313SOL    HW138661   6.361   6.967   7.621  0.6649 -0.0547 -0.5124
12313SOL    HW238662   6.292   6.876   7.720 -0.5571  1.1683 -0.2150
12314SOL     OW38663   6.498   3.883   7.130  0.0630 -0.2142  0.1297
12314SOL    HW138664   6.551   3.818   7.083  0.3685  1.1539 -1.4908
12314SOL    HW238665   6.409   3.847   7.129  0.2409 -0.6424 -0.6815
12315SOL     OW38666   7.109   1.682   4.885  0.3297  0.3196  0.1429
12315SOL    HW138667   7.080   1.664   4.975  1.1903  0.0313  0.3667
12315SOL    HW238668   7.037   1.651   4.830  1.3132 -2.9942  0.5389
12316SOL     OW38669   0.927   1.785   8.585 -0.2556 -0.3518  0.8158
12316SOL    HW138670   0.975   1.790   8.502  0.6138  0.6555  1.3588
12316SOL    HW238671   0.851   1.842   8.573  0.5749  0.8584  1.1440
12317SOL     OW38672   8.398   5.756   0.803 -0.2388  0.0440 -0.5759
12317SOL    HW138673   8.491   5.736   0.794 -0.0773  0.3713  0.2684
12317SOL    HW238674   8.389   5.842   0.761  0.2284  0.8978  0.9870
12318SOL     OW38675   1.309   1.031   9.343 -0.5229 -0.0312 -0.0043
12318SOL    HW138676   1.287   1.029   9.436 -0.1714  2.4390  0.1822
12318SOL    HW238677   1.225   1.030   9.298 -0.6959 -1.2401  0.3051
12319SOL     OW38678   3.551   3.488   7.455 -0.4987  0.4069 -0.0165
12319SOL    HW138679   3.504   3.412   7.420 -1.1191  0.5377  0.5147
12319SOL    HW238680   3.504   3.563   7.421  0.1263  0.5643 -0.5542
12320SOL     OW38681   2.537   3.656   5.011  0.1334 -0.1558  0.7781
12320SOL    HW138682   2.475   3.728   4.999  0.1369 -0.0633  1.3033
12320SOL    HW238683   2.494   3.597   5.072  0.6820  0.0545  1.3783
12321SOL     OW38684   4.633   8.233   3.220  0.3144  0.3204  0.3939
12321SOL    HW138685   4.615   8.324   3.243 -0.7723  0.1760  0.1503
12321SOL    HW238686   4.597   8.223   3.131 -1.9063 -1.0097  1.3616
12322SOL     OW38687   8.796   2.536   4.284  0.2830 -0.3503 -0.2404
12322SOL    HW138688   8.701   2.534   4.271  0.2088  0.7929  0.0535
12322SOL    HW238689   8.831   2.571   4.203  0.4007 -0.1639 -0.1099
12323SOL     OW38690   5.332   3.455   1.680  0.5013  0.0160  0.4509
12323SOL    HW138691   5.257   3.400   1.703 -0.1390  0.9244  0.5840
12323SOL    HW238692   5.408   3.407   1.715 -0.2592  0.4490  2.9278
12324SOL     OW38693   2.186   8.987   0.244 -0.1588  0.0840  0.0383
12324SOL    HW138694   2.133   8.980   0.324 -0.8690 -1.2265 -0.5207
12324SOL    HW238695   2.276   8.975   0.274 -0.4167 -0.3798  0.6558
12325SOL     OW38696   8.302   9.368   6.329 -0.2398  0.3670 -0.4704
12325SOL    HW138697   8.270   9.379   6.239 -0.5426  1.9682 -0.1876
12325SOL    HW238698   8.225   9.341   6.378  0.0002 -0.8650 -0.7259
12326SOL     OW38699   6.680   3.413   3.585 -0.0747  0.1311  0.0633
12326SOL    HW138700   6.644   3.497   3.614  0.1425  0.5128 -0.7431
12326SOL    HW238701   6.693   3.423   3.491  0.5380 -0.5937  0.0540
12327SOL     OW38702   9.551   0.275   4.277 -0.0109  0.6896  0.7066
12327SOL    HW138703   9.548   0.303   4.369 -0.2399 -0.9322  1.2326
12327SOL    HW238704   9.472   0.222   4.266  0.9767 -0.7342  0.1440
12328SOL     OW38705   8.220   9.402   4.561 -0.4304 -0.6693 -0.0072
12328SOL    HW138706   8.179   9.465   4.502 -1.2880  0.4497  1.7028
12328SOL    HW238707   8.284   9.356   4.507 -1.1817  0.2973 -1.7809
12329SOL     OW38708   2.301   4.366   0.293  0.2497 -0.2488  0.9123
12329SOL    HW138709   2.287   4.460   0.286 -0.3226 -0.2386  2.0672
12329SOL    HW238710   2.230   4.327   0.242  2.6385 -0.0718 -2.9273
12330SOL     OW38711   5.236   2.364   7.670  1.0579  0.0981 -0.3137
12330SOL    HW138712   5.254   2.271   7.685 -1.2208 -0.6084 -1.5884
12330SOL    HW238713   5.242   2.404   7.757  3.5546 -0.8853  0.0624
12331SOL     OW38714   4.833   7.729   3.870 -0.1723 -0.3207 -0.2637
12331SOL    HW138715   4.812   7.799   3.808  1.0040 -1.5700 -2.1718
12331SOL    HW238716   4.825   7.771   3.956 -1.7911  1.5011 -1.2129
12332SOL     OW38717   6.236   8.205   2.768  0.7501  0.7522 -0.7168
12332SOL    HW138718   6.156   8.183   2.816  1.4225  0.6397  0.3904
12332SOL    HW238719   6.295   8.132   2.786  0.2415 -0.5625 -3.7374
12333SOL     OW38720   7.305   5.172   7.636  0.4250  0.0131 -0.6558
12333SOL    HW138721   7.270   5.124   7.710  0.9991 -0.2857 -0.5708
12333SOL    HW238722   7.234   5.229   7.608  0.1219 -0.0590 -0.0383
12334SOL     OW38723   4.286   0.829   1.453  0.0862  0.2045  0.0697
12334SOL    HW138724   4.348   0.889   1.494 -0.7736 -1.1943  3.8242
12334SOL    HW238725   4.298   0.746   1.500 -2.7698 -0.8833 -0.9063
12335SOL     OW38726   7.753   0.162   0.378  0.4483 -0.0791 -0.1336
12335SOL    HW138727   7.731   0.230   0.314  0.3946 -0.1762 -0.2186
12335SOL    HW238728   7.685   0.171   0.446 -0.4971 -1.0769 -0.9253
12336SOL     OW38729   9.498   6.432   8.498  0.1947  0.4670 -0.3433
12336SOL    HW138730   9.473   6.522   8.476  0.9902  0.8526  0.2926
12336SOL    HW238731   9.447   6.412   8.577 -1.9879 -0.6066 -1.9030
12337SOL     OW38732   8.149   4.431   8.130  0.1073  0.8502 -0.0391
12337SOL    HW138733   8.072   4.439   8.187  0.6884  0.3223  0.8427
12337SOL    HW238734   8.210   4.496   8.163  0.3413  0.7440 -0.2586
12338SOL     OW38735   6.942   3.260   9.526  0.2129 -0.1497  0.1466
12338SOL    HW138736   6.999   3.335   9.512 -0.5315  0.1627 -1.4996
12338SOL    HW238737   6.988   3.186   9.486 -0.2288 -0.0247 -0.6098
12339SOL     OW38738   7.021   8.736   8.219  0.0686  0.1108  0.4011
12339SOL    HW138739   7.113   8.731   8.247  1.4072  1.7378 -3.0603
12339SOL    HW238740   6.997   8.827   8.235 -0.5067  0.0088  0.1228
12340SOL     OW38741   0.704   8.477   7.926 -0.1623 -0.0089  0.1157
12340SOL    HW138742   0.660   8.484   7.841 -1.3941 -2.1534  0.4936
12340SOL    HW238743   0.743   8.563   7.941 -2.1822  1.2432 -1.3948
12341SOL     OW38744   9.303   6.804   3.910 -0.5106 -0.2825 -0.6278
12341SOL    HW138745   9.250   6.865   3.962  1.1176  1.8192 -1.2860
12341SOL    HW238746   9.239   6.752   3.861 -1.9928  0.0754  0.8376
12342SOL     OW38747   5.898   3.884   1.377  0.2524  0.6679  0.1721
12342SOL    HW138748   5.867   3.934   1.452 -0.7776  1.0039 -0.4527
12342SOL    HW238749   5.869   3.934   1.301  0.8105  0.0585 -0.4552
12343SOL     OW38750   5.469   6.227   4.732 -0.7460  0.5117 -0.6499
12343SOL    HW138751   5.523   6.183   4.666 -1.3099 -0.0306 -0.7649
12343SOL    HW238752   5.427   6.155   4.780 -2.7956  0.8698 -1.7635
12344SOL     OW38753   0.065   3.863   0.073  0.3527  0.0229 -0.5212
12344SOL    HW138754  -0.019   3.858   0.028 -0.2751  4.0749 -0.2092
12344SOL    HW238755   0.127   3.890   0.005  0.5565  0.8422 -0.0198
12345SOL     OW38756   0.819   7.056   5.337 -0.4350  1.1314 -0.4871
12345SOL    HW138757   0.755   6.986   5.348  0.3217  0.2707 -1.2836
12345SOL    HW238758   0.852   7.074   5.425  1.4376 -1.5841 -0.5149
12346SOL     OW38759   7.631   8.924   9.007  0.1802 -0.4847  0.0942
12346SOL    HW138760   7.536   8.922   8.996  0.3182 -2.5735 -1.4693
12346SOL    HW238761   7.658   8.832   8.999  2.2403 -0.1280  1.7873
12347SOL     OW38762   6.203   3.434   9.549  0.3150 -0.4603  0.6820
12347SOL    HW138763   6.229   3.524   9.569 -0.5570  0.2739 -1.2206
12347SOL    HW238764   6.109   3.439   9.531 -0.0341 -2.0265  1.8752
12348SOL     OW38765   8.459   0.909   7.672  0.6308 -0.6548  0.0958
12348SOL    HW138766   8.506   0.974   7.724  0.1413  0.7417 -1.1321
12348SOL    HW238767   8.526   0.868   7.616  0.7274 -0.1893 -0.1316
12349SOL     OW38768   1.811   5.165   5.599  0.2328  0.2196  0.1795
12349SOL    HW138769   1.887   5.219   5.578 -0.2646 -0.0239 -2.7940
12349SOL    HW238770   1.811   5.159   5.694  3.5671  0.7357  0.3474
12350SOL     OW38771   5.287   4.515   4.522 -0.1748 -0.4925  0.1237
12350SOL    HW138772   5.331   4.491   4.440  0.8943 -1.6115  0.9973
12350SOL    HW238773   5.205   4.556   4.493  0.8124  0.4436 -1.5169
12351SOL     OW38774   2.184   6.312   6.468 -0.4073 -0.4082 -0.1676
12351SOL    HW138775   2.158   6.321   6.376 -0.6903 -0.5105 -0.0969
12351SOL    HW238776   2.234   6.392   6.486  2.0442 -1.5861 -1.1945
12352SOL     OW38777   0.986   0.851   9.434 -0.0312 -0.1254  0.1915
12352SOL    HW138778   0.989   0.925   9.373  0.0234 -0.4012 -0.1455
12352SOL    HW238779   0.991   0.774   9.377 -3.8187 -0.5377  0.1179
12353SOL     OW38780   1.969   4.026   2.585 -0.0860 -0.3194  0.0586
12353SOL    HW138781   2.043   3.974   2.553 -0.3733 -0.4220 -0.4639
12353SOL    HW238782   1.912   3.962   2.628 -0.3905 -0.4254 -0.4949
12354SOL     OW38783   0.996   6.983   5.583  0.2276  0.1460 -0.6737
12354SOL    HW138784   1.000   7.037   5.662  1.1417  0.6493 -1.0455
12354SOL    HW238785   1.015   6.894   5.613 -0.6601  0.1183 -0.1527
12355SOL     OW38786   9.202   6.647   4.509 -0.2892 -0.3124 -0.2489
12355SOL    HW138787   9.276   6.701   4.535 -1.4247  2.3740 -2.1679
12355SOL    HW238788   9.139   6.658   4.581  0.7030 -1.8255  0.9202
12356SOL     OW38789   0.481   8.689   4.822 -0.0352 -0.0996 -0.0726
12356SOL    HW138790   0.551   8.754   4.814  0.0807 -0.3081 -0.8322
12356SOL    HW238791   0.431   8.717   4.899 -0.1764  1.0800 -0.5563
12357SOL     OW38792   0.299   9.013   4.534  0.3469  0.2339  0.2287
12357SOL    HW138793   0.286   8.920   4.555  1.9906 -0.3207 -0.9648
12357SOL    HW238794   0.360   9.044   4.601  0.2338  0.3071  0.2979
12358SOL     OW38795   2.969   4.967   4.560 -0.3928 -0.0371 -0.5934
12358SOL    HW138796   3.034   4.943   4.493  0.4063  1.0088 -0.2144
12358SOL    HW238797   3.020   4.984   4.639 -1.3239 -1.1724  0.2889
12359SOL     OW38798   8.694   9.582   8.361 -0.3075 -0.3305  0.0101
12359SOL    HW138799   8.738   9.612   8.281 -0.2697  0.6823  0.3917
12359SOL    HW238800   8.725   9.493   8.374  3.1313  0.8877  1.2788
12360SOL     OW38801   7.772   7.774   3.678 -0.0877 -0.1267 -0.2716
12360SOL    HW138802   7.721   7.694   3.693 -1.4728  1.0739  1.9347
12360SOL    HW238803   7.712   7.833   3.634  0.1486  0.4972  0.2309
12361SOL     OW38804   8.477   6.751   3.564 -0.1856  0.5219  0.0291
12361SOL    HW138805   8.569   6.780   3.559 -0.3099  0.6875 -1.7748
12361SOL    HW238806   8.428   6.819   3.518 -0.8620 -1.0023 -1.5826
12362SOL     OW38807   7.433   3.810   7.635  0.1578 -0.1585 -0.1749
12362SOL    HW138808   7.357   3.847   7.680 -0.3354  0.3044 -1.3576
12362SOL    HW238809   7.415   3.717   7.631 -0.2581 -0.0735 -0.2932
12363SOL     OW38810   2.764   5.019   7.918  0.0428  0.0547 -0.4568
12363SOL    HW138811   2.831   5.058   7.973 -0.4322 -0.1442  0.2710
12363SOL    HW238812   2.742   5.087   7.854 -1.5406  1.4378  1.4513
12364SOL     OW38813   9.610   8.809   6.724 -0.6044 -0.4156 -0.0593
12364SOL    HW138814   9.629   8.842   6.811  1.8813 -0.5238 -0.4841
12364SOL    HW238815   9.661   8.728   6.717 -1.9110 -1.2013 -1.1180
12365SOL     OW38816   7.756   9.378   9.173  0.1477 -0.2594  0.2610
12365SOL    HW138817   7.832   9.398   9.119 -1.1459  2.1812 -0.8102
12365SOL    HW238818   7.788   9.386   9.263  1.7260 -1.9360 -0.0862
12366SOL     OW38819   4.984   0.515   0.145 -0.1596  0.6116 -0.2868
12366SOL    HW138820   4.941   0.544   0.226 -1.0474 -1.5048  0.0765
12366SOL    HW238821   5.072   0.490   0.172 -0.0555  1.0585 -0.2110
12367SOL     OW38822   6.109   8.473   8.856 -0.0341  0.2151  0.1525
12367SOL    HW138823   6.146   8.436   8.936  0.8410 -0.9213 -0.7397
12367SOL    HW238824   6.015   8.461   8.865 -0.0207  0.8575  1.3605
12368SOL     OW38825   0.727   4.595   1.431  0.5909  0.3641  0.5027
12368SOL    HW138826   0.690   4.636   1.509  0.4088  0.0537  0.5808
12368SOL    HW238827   0.706   4.656   1.360 -2.6941 -1.1122  0.0108
12369SOL     OW38828   7.416   8.782   6.929 -0.1905  0.1212 -0.3035
12369SOL    HW138829   7.369   8.831   6.862  0.8319  0.6542 -0.6450
12369SOL    HW238830   7.509   8.791   6.906  0.1005 -0.8417  0.3955
12370SOL     OW38831   8.986   3.753   5.136 -0.4586  0.1796 -0.4972
12370SOL    HW138832   9.079   3.762   5.154 -0.4882 -0.0031 -0.2444
12370SOL    HW238833   8.946   3.740   5.222 -0.5721 -1.0559 -0.7165
12371SOL     OW38834   9.633   5.867   4.785  0.2446  0.3777 -0.5105
12371SOL    HW138835   9.592   5.872   4.871  1.2738 -2.1430  0.2217
12371SOL    HW238836   9.708   5.927   4.791  0.0873  0.5137  0.2211
12372SOL     OW38837   0.849   7.825   1.907 -0.3174  0.1689 -0.3187
12372SOL    HW138838   0.767   7.780   1.888 -2.8196  4.4211 -0.7904
12372SOL    HW238839   0.853   7.829   2.003 -0.4036 -0.3887 -0.2878
12373SOL     OW38840   1.419   7.638   7.372 -0.0026 -0.1118 -0.2690
12373SOL    HW138841   1.389   7.600   7.454  2.2527  1.7113  1.5517
12373SOL    HW238842   1.354   7.705   7.351 -0.2380 -0.1151  0.4263
12374SOL     OW38843   6.678   9.195   0.425 -0.2024  0.6834  0.3735
12374SOL    HW138844   6.608   9.224   0.367  0.5012  0.5249 -0.5876
12374SOL    HW238845   6.665   9.100   0.431  0.6356  0.4591 -0.8322
12375SOL     OW38846   9.431   6.749   7.372 -0.9918  0.0326  0.1870
12375SOL    HW138847   9.452   6.683   7.439 -0.5791  1.8522  1.9454
12375SOL    HW238848   9.347   6.785   7.399 -0.7224  0.9301 -0.1312
12376SOL     OW38849   3.817   3.741   9.551  0.1700 -0.4403  0.4820
12376SOL    HW138850   3.808   3.816   9.610  0.4156 -1.2309  1.5619
12376SOL    HW238851   3.906   3.749   9.517  0.5672 -0.7919  1.4026
12377SOL     OW38852   3.989   2.537   0.318  0.4665  0.3935 -0.0186
12377SOL    HW138853   3.985   2.618   0.369  2.0018 -0.1745  1.0725
12377SOL    HW238854   3.932   2.553   0.243  0.6722  2.4545  0.2155
12378SOL     OW38855   8.173   7.519   1.639  0.7519  0.1298 -0.0870
12378SOL    HW138856   8.230   7.491   1.568  1.0206 -2.5576  1.0607
12378SOL    HW238857   8.109   7.448   1.648 -0.6676  1.4590  0.9010
12379SOL     OW38858   4.380   5.545   5.246 -0.3387  0.1663  0.2843
12379SOL    HW138859   4.472   5.535   5.221 -1.1303 -3.6292 -1.7890
12379SOL    HW238860   4.354   5.629   5.208  1.8563  0.5993 -0.4143
12380SOL     OW38861   1.195   1.989   5.882  0.4131  0.1225  0.4183
12380SOL    HW138862   1.271   1.960   5.831 -0.2541 -1.6405  0.3514
12380SOL    HW238863   1.215   2.079   5.906  2.3680 -0.1932  0.1137
12381SOL     OW38864   4.243   0.151   0.842  0.3930 -0.0195  0.1277
12381SOL    HW138865   4.180   0.223   0.838  1.6457  1.0697 -1.6229
12381SOL    HW238866   4.190   0.072   0.828 -0.6006  0.8869 -1.5808
12382SOL     OW38867   0.504   0.932   4.172  0.5186  0.0218  0.4341
12382SOL    HW138868   0.420   0.979   4.173 -0.5355 -1.7808  0.4759
12382SOL    HW238869   0.541   0.952   4.087  0.0198  0.7848  0.3816
12383SOL     OW38870   1.792   7.592   4.774 -0.3474  0.5188 -0.8563
12383SOL    HW138871   1.848   7.638   4.711  0.2751 -0.0564 -0.7353
12383SOL    HW238872   1.852   7.535   4.822 -0.5560  1.9401  1.2252
12384SOL     OW38873   6.752   5.523   4.122  0.1009  0.3060 -0.1435
12384SOL    HW138874   6.674   5.476   4.151 -0.3138  0.4758 -0.9386
12384SOL    HW238875   6.808   5.456   4.083 -0.2055  0.3688 -0.6978
12385SOL     OW38876   3.577   1.194   6.291  0.3160 -0.0312  0.4577
12385SOL    HW138877   3.657   1.142   6.279 -1.1404 -2.0508 -1.3773
12385SOL    HW238878   3.562   1.235   6.206 -0.9801 -0.3239  0.5227
12386SOL     OW38879   2.249   5.365   3.483 -0.1729  0.1211 -0.1784
12386SOL    HW138880   2.178   5.386   3.423 -0.1349 -0.9831 -0.6329
12386SOL    HW238881   2.325   5.410   3.447 -0.5162  0.8916  0.0314
12387SOL     OW38882   5.462   7.588   4.631 -0.4532  0.2840  0.4177
12387SOL    HW138883   5.552   7.579   4.601 -1.2161  0.7967 -2.3122
12387SOL    HW238884   5.430   7.498   4.636 -0.0029  0.1361  0.7307
12388SOL     OW38885   1.469   8.998   5.133 -0.1384 -0.1725 -0.1975
12388SOL    HW138886   1.397   9.048   5.096 -0.4166 -0.1411  0.3862
12388SOL    HW238887   1.429   8.943   5.200  0.2125 -0.9357 -0.5966
12389SOL     OW38888   7.029   6.469   9.236  0.2268  0.0285 -0.0990
12389SOL    HW138889   7.074   6.388   9.257 -1.7090 -0.9127  0.6954
12389SOL    HW238890   7.052   6.529   9.307 -0.1641 -0.6239  0.5971
12390SOL     OW38891   2.015   6.068   5.031  0.7231  0.4456  0.3605
12390SOL    HW138892   2.054   6.040   4.948 -0.0305 -0.5883  0.3442
12390SOL    HW238893   2.050   6.006   5.096  1.8519  1.6579  0.9696
12391SOL     OW38894   3.631   2.973   3.609  0.1663 -0.4768 -0.2756
12391SOL    HW138895   3.615   2.886   3.645 -0.7508  0.2608  1.1829
12391SOL    HW238896   3.645   3.029   3.685 -2.5235  1.2849 -0.9600
12392SOL     OW38897   3.091   3.690   3.374  0.5610 -0.3776 -0.0605
12392SOL    HW138898   3.024   3.682   3.442  0.4857 -1.2935 -0.2272
12392SOL    HW238899   3.042   3.717   3.296  0.6382  0.6061  0.2199
12393SOL     OW38900   4.143   6.877   2.888 -0.0927 -0.2361  0.1359
12393SOL    HW138901   4.117   6.844   2.974 -1.3025  0.8908  0.2469
12393SOL    HW238902   4.060   6.889   2.842  0.5053 -0.1438 -0.9277
12394SOL     OW38903   2.704   5.215   3.244 -0.3144 -0.2614 -0.0461
12394SOL    HW138904   2.649   5.228   3.322 -0.1895 -0.5360  0.0900
12394SOL    HW238905   2.791   5.196   3.279  0.4262  2.3483 -0.2574
12395SOL     OW38906   1.929   2.570   8.036 -0.3560  0.7284  0.7506
12395SOL    HW138907   1.984   2.579   8.114 -1.4341  1.0880  1.4843
12395SOL    HW238908   1.874   2.494   8.054  1.8990 -1.6027 -1.2530
12396SOL     OW38909   6.068   3.815   4.588 -0.5206  0.3442  0.1801
12396SOL    HW138910   6.089   3.859   4.506 -0.9059 -3.0374 -1.9107
12396SOL    HW238911   6.152   3.800   4.631  0.0986 -1.1894 -1.5003
12397SOL     OW38912   1.331   5.946   3.954  0.1281  0.1828  0.3685
12397SOL    HW138913   1.274   5.939   4.031  1.7689 -1.4620  1.5149
12397SOL    HW238914   1.310   6.032   3.917 -2.3521  0.0528  1.2856
12398SOL     OW38915   8.256   7.379   9.396  0.1997  0.3613 -0.0461
12398SOL    HW138916   8.266   7.306   9.457  3.2761  0.0217 -0.7960
12398SOL    HW238917   8.206   7.343   9.323 -0.8742 -0.0844  0.8654
12399SOL     OW38918   0.072   6.700   2.434  0.3395 -0.1096  0.1684
12399SOL    HW138919  -0.020   6.672   2.427  0.8169 -1.8099  0.4252
12399SOL    HW238920   0.069   6.794   2.417 -1.2050 -0.4604 -1.8635
12400SOL     OW38921   4.992   6.186   8.317  0.2047 -0.6925  0.0434
12400SOL    HW138922   5.007   6.188   8.412  0.9877 -2.1195 -0.0234
12400SOL    HW238923   4.903   6.151   8.308 -0.5860  1.1193  0.2549
12401SOL     OW38924   9.043   3.685   7.880 -0.5178 -0.6878  0.5791
12401SOL    HW138925   8.961   3.637   7.892 -0.8567 -0.7709 -1.5298
12401SOL    HW238926   9.056   3.684   7.785  0.9273  1.0029  0.7234
12402SOL     OW38927   5.214   1.022   2.293  0.3110 -0.3749  0.3685
12402SOL    HW138928   5.284   0.989   2.236  0.5322 -0.2953  0.5945
12402SOL    HW238929   5.161   0.944   2.313  0.4769 -0.4787  0.4002
12403SOL     OW38930   7.831   0.214   2.301 -0.2775 -0.4596  0.7638
12403SOL    HW138931   7.812   0.247   2.388  0.9420  1.2481  0.4275
12403SOL    HW238932   7.746   0.217   2.256 -0.5758  0.4079  1.3435
12404SOL     OW38933   9.526   6.632   2.421 -0.2774  0.5663 -0.6899
12404SOL    HW138934   9.541   6.541   2.398  0.1239  0.9954 -2.2589
12404SOL    HW238935   9.458   6.630   2.488 -0.3956 -0.8612 -0.8350
12405SOL     OW38936   1.048   4.578   1.786  0.0636  0.1830  0.0414
12405SOL    HW138937   0.995   4.657   1.772  0.8161  0.7524  0.3910
12405SOL    HW238938   1.128   4.594   1.737  0.7996  0.2267  1.2434
12406SOL     OW38939   5.973   6.437   1.186 -0.3806  0.3070  0.1851
12406SOL    HW138940   5.881   6.416   1.173 -0.5002  0.4201  0.8287
12406SOL    HW238941   5.994   6.403   1.273 -0.0543  1.0857  0.4178
12407SOL     OW38942   6.329   2.089   7.278 -0.2007  0.2237 -0.5704
12407SOL    HW138943   6.311   2.157   7.212  0.3616 -0.4016 -1.3968
12407SOL    HW238944   6.303   2.129   7.361  1.0775  1.8497 -0.9004
12408SOL     OW38945   1.129   5.982   7.730 -0.4280  0.4130 -0.1075
12408SOL    HW138946   1.132   5.974   7.826 -2.9161 -2.3933 -0.1218
12408SOL    HW238947   1.041   6.017   7.712  0.7961  3.1342 -1.4067
12409SOL     OW38948   1.288   4.863   7.254  0.2174  0.3067 -0.2879
12409SOL    HW138949   1.375   4.888   7.286  0.1454  1.6105 -1.0548
12409SOL    HW238950   1.260   4.793   7.313  2.6977 -1.7313 -1.3302
12410SOL     OW38951   1.184   7.762   5.141  0.5864 -0.2639 -0.3645
12410SOL    HW138952   1.243   7.805   5.203  0.7104 -1.6381  0.5270
12410SOL    HW238953   1.132   7.703   5.196  0.7756 -1.5938 -1.5690
12411SOL     OW38954   7.007   7.671   4.086  0.5357 -0.0424  0.4216
12411SOL    HW138955   7.031   7.678   3.993 -0.5741 -0.1915  0.1073
12411SOL    HW238956   6.988   7.578   4.098  0.2116  0.0583  0.6789
12412SOL     OW38957   0.253   2.251   6.748  0.4282 -0.3584 -0.2966
12412SOL    HW138958   0.337   2.239   6.703 -0.1641  0.7724 -1.7957
12412SOL    HW238959   0.265   2.329   6.801 -0.2621  1.1006 -2.1660
12413SOL     OW38960   6.642   3.965   0.182  0.2675 -0.0379 -0.0094
12413SOL    HW138961   6.630   4.051   0.224  1.7230 -0.2796  1.0000
12413SOL    HW238962   6.591   3.970   0.102  0.2052  1.7326  0.0977
12414SOL     OW38963   3.994   3.746   7.848 -0.5017  0.1659  0.3831
12414SOL    HW138964   3.992   3.813   7.779 -0.9895 -1.0899 -0.8914
12414SOL    HW238965   4.075   3.763   7.896  0.2587  0.6393 -0.9940
12415SOL     OW38966   7.532   2.985   6.930  0.2584  0.5402 -0.3613
12415SOL    HW138967   7.574   3.045   6.991 -0.3316  0.3155  0.2835
12415SOL    HW238968   7.545   2.898   6.970 -0.8019  0.4676 -0.1471
12416SOL     OW38969   4.703   2.162   8.241 -0.2532 -0.4541 -0.1258
12416SOL    HW138970   4.666   2.167   8.329  1.0006 -0.4550  0.4313
12416SOL    HW238971   4.773   2.097   8.248  1.7520  1.5243 -0.3507
12417SOL     OW38972   7.447   7.767   6.278 -0.6896 -0.1044  0.6503
12417SOL    HW138973   7.540   7.787   6.290 -0.2714 -1.4420 -0.1403
12417SOL    HW238974   7.418   7.826   6.209 -0.2319 -0.1763  0.3939
12418SOL     OW38975   4.183   9.182   1.504 -0.5704 -0.9758  0.4882
12418SOL    HW138976   4.252   9.245   1.482 -0.4547 -1.5735 -0.9436
12418SOL    HW238977   4.105   9.217   1.462 -1.0001 -0.6745  1.5110
12419SOL     OW38978   8.283   4.929   7.978 -0.0784 -0.6136  0.0684
12419SOL    HW138979   8.192   4.958   7.969 -0.1251 -0.7163  0.2023
12419SOL    HW238980   8.286   4.846   7.930  0.7835  1.0289 -2.9242
12420SOL     OW38981   5.260   4.767   7.989 -0.4726 -0.2473  0.2399
12420SOL    HW138982   5.190   4.771   8.054 -0.8634 -0.8730 -0.1344
12420SOL    HW238983   5.262   4.854   7.950 -0.8422 -0.1413  0.4557
12421SOL     OW38984   3.518   2.778   4.753 -0.1504  0.0501 -0.3484
12421SOL    HW138985   3.500   2.762   4.846 -0.4615  1.4673 -0.1347
12421SOL    HW238986   3.598   2.728   4.735 -0.0473 -0.1939  0.7043
12422SOL     OW38987   3.029   1.624   9.354  0.1832 -0.2110 -0.5066
12422SOL    HW138988   3.002   1.695   9.412 -0.0212 -0.5016 -0.2412
12422SOL    HW238989   2.948   1.594   9.313  0.4935  0.9866 -2.1124
12423SOL     OW38990   4.649   3.302   5.940  0.0611 -0.3656  0.4350
12423SOL    HW138991   4.669   3.395   5.953  0.2010 -0.3860  0.3759
12423SOL    HW238992   4.683   3.259   6.018  0.4821 -0.4315  0.2193
12424SOL     OW38993   5.259   8.497   5.398 -0.0788 -0.1621 -0.3034
12424SOL    HW138994   5.207   8.429   5.441  0.8804 -0.8891 -0.2597
12424SOL    HW238995   5.328   8.449   5.352  0.1264  0.7375 -0.9682
12425SOL     OW38996   7.350   2.286   3.241  0.1164  0.1057 -0.4683
12425SOL    HW138997   7.411   2.251   3.176  0.8831 -0.7579  0.6850
12425SOL    HW238998   7.279   2.324   3.189  1.6401  1.2053 -1.8591
12426SOL     OW38999   8.355   0.784   6.756 -0.0214 -0.1801  0.0435
12426SOL    HW139000   8.261   0.770   6.764 -0.3616 -0.1745 -2.8786
12426SOL    HW239001   8.364   0.877   6.732  0.1853 -1.1044 -4.3265
12427SOL     OW39002   9.521   1.356   2.710 -0.3874  0.0103  0.0072
12427SOL    HW139003   9.543   1.300   2.784 -1.6560 -0.3518  0.1370
12427SOL    HW239004   9.519   1.297   2.634 -2.1518 -0.2486  0.2134
12428SOL     OW39005   7.444   2.345   6.039 -0.0165 -0.2994  0.0258
12428SOL    HW139006   7.375   2.399   6.000 -0.5795  0.0897  1.4897
12428SOL    HW239007   7.514   2.406   6.060 -0.3175 -0.2633  0.9400
12429SOL     OW39008   5.587   4.833   3.939  0.3387 -0.2790  0.7894
12429SOL    HW139009   5.500   4.857   3.908 -0.0268 -1.0580  1.1886
12429SOL    HW239010   5.607   4.898   4.006  0.2024  0.0864  0.4824
12430SOL     OW39011   7.547   8.173   0.912  0.2105 -0.3362 -0.8921
12430SOL    HW139012   7.637   8.204   0.926  0.7022 -0.6394 -3.0352
12430SOL    HW239013   7.497   8.252   0.894  0.4788 -0.3429 -1.6861
12431SOL     OW39014   8.622   3.426   9.280 -0.6944  0.1206  0.0351
12431SOL    HW139015   8.649   3.518   9.273 -1.0719  0.2589  0.3038
12431SOL    HW239016   8.526   3.430   9.280 -0.7989 -0.4802 -2.7123
12432SOL     OW39017   5.763   8.724   3.303  0.7817 -0.0274 -0.5884
12432SOL    HW139018   5.727   8.779   3.372  0.5628 -1.3972  0.4442
12432SOL    HW239019   5.847   8.764   3.282  0.3749  1.0216 -0.2948
12433SOL     OW39020   6.481   7.744   6.659 -0.3046  0.1837  0.1135
12433SOL    HW139021   6.479   7.679   6.729 -2.7042 -1.4220 -1.2917
12433SOL    HW239022   6.413   7.807   6.682 -0.0133  0.5440  0.0015
12434SOL     OW39023   6.754   9.328   0.139 -0.3581  0.1733 -0.0048
12434SOL    HW139024   6.841   9.290   0.127  0.2417  1.5406 -0.1272
12434SOL    HW239025   6.702   9.256   0.175  0.4868 -1.0242 -1.0805
12435SOL     OW39026   4.303   5.007   7.913 -0.5939  0.2819 -0.0522
12435SOL    HW139027   4.393   4.999   7.882 -0.8822  0.1409 -0.8772
12435SOL    HW239028   4.303   4.962   7.998  0.2779  0.9458  0.3080
12436SOL     OW39029   8.753   7.453   4.321  0.1615 -0.2705 -0.3988
12436SOL    HW139030   8.743   7.381   4.383  1.4200 -0.0091  0.1517
12436SOL    HW239031   8.804   7.518   4.368 -0.6549  0.8490 -1.0064
12437SOL     OW39032   4.479   3.433   5.136 -0.1146  0.1743 -0.2262
12437SOL    HW139033   4.539   3.465   5.068 -0.8103  1.4405 -0.2765
12437SOL    HW239034   4.417   3.506   5.150  0.3126  0.1692  2.1320
12438SOL     OW39035   6.504   5.354   4.894 -0.0115 -1.0315 -0.0447
12438SOL    HW139036   6.554   5.293   4.948 -0.2679 -1.8245 -0.6752
12438SOL    HW239037   6.448   5.401   4.955  1.7375  0.1336  0.7302
12439SOL     OW39038   6.545   2.423   5.091 -0.0338 -0.2559 -0.3979
12439SOL    HW139039   6.550   2.432   5.186  0.3070 -1.5225 -0.2720
12439SOL    HW239040   6.631   2.449   5.059 -0.6532  1.7540 -0.5351
12440SOL     OW39041   8.290   4.527   4.801  0.1651  0.0029  0.1603
12440SOL    HW139042   8.195   4.517   4.790  0.0740  0.5292  0.4445
12440SOL    HW239043   8.323   4.541   4.712  0.0733 -0.9114 -0.0301
12441SOL     OW39044   5.368   9.423   4.069 -0.1185  0.2724 -0.1035
12441SOL    HW139045   5.302   9.481   4.107 -0.3861 -0.0184 -0.1311
12441SOL    HW239046   5.452   9.462   4.097 -0.2079  1.9635 -1.9443
12442SOL     OW39047   6.338   5.133   8.685  0.3625  0.0926 -0.3209
12442SOL    HW139048   6.361   5.044   8.657  1.2117  0.0734  0.3731
12442SOL    HW239049   6.419   5.167   8.723  0.0781  1.2080 -0.6727
12443SOL     OW39050   6.805   6.424   9.448 -0.5753  0.0078 -0.1631
12443SOL    HW139051   6.873   6.476   9.403 -0.1368 -0.7067 -0.3434
12443SOL    HW239052   6.747   6.489   9.486  0.0296  0.6394 -0.2900
12444SOL     OW39053   7.409   4.938   4.773 -0.1589 -0.0730 -0.1345
12444SOL    HW139054   7.396   5.033   4.768 -0.6941 -0.0216  1.6645
12444SOL    HW239055   7.324   4.903   4.801  0.3406 -0.9735  0.2966
12445SOL     OW39056   0.742   7.315   9.282 -0.2421  0.1448  0.3157
12445SOL    HW139057   0.749   7.356   9.368  0.2042  0.8588 -0.0495
12445SOL    HW239058   0.833   7.309   9.251 -0.3818 -0.3181 -0.0129
12446SOL     OW39059   3.293   3.181   5.711 -0.1584 -0.9016 -0.5890
12446SOL    HW139060   3.363   3.211   5.653  1.1687  0.0432  1.3748
12446SOL    HW239061   3.239   3.259   5.724 -0.3863 -1.0802 -0.4774
12447SOL     OW39062   9.332   1.428   5.143  0.7889  0.5195 -0.2805
12447SOL    HW139063   9.291   1.405   5.227  2.3030 -0.0890  0.3308
12447SOL    HW239064   9.281   1.503   5.112  0.1426  0.7255  1.1582
12448SOL     OW39065   7.012   4.996   1.481  0.4868 -0.3896 -0.6344
12448SOL    HW139066   7.098   5.008   1.442  0.5208  4.4465  0.2950
12448SOL    HW239067   6.951   5.011   1.409  0.5540  1.7331 -0.3216
12449SOL     OW39068   3.263   5.247   9.283  0.5266  0.3740  0.2269
12449SOL    HW139069   3.253   5.293   9.366 -0.3775  1.6109 -0.5319
12449SOL    HW239070   3.191   5.184   9.281  1.2635 -0.5031  0.8967
12450SOL     OW39071   8.901   1.822   4.728  0.2086  0.3640  0.0178
12450SOL    HW139072   8.864   1.824   4.816  0.6019 -2.6953  0.3608
12450SOL    HW239073   8.841   1.766   4.678  0.9813  0.5485 -1.1642
12451SOL     OW39074   5.822   1.288   6.251 -0.1451 -0.5694  0.4510
12451SOL    HW139075   5.872   1.222   6.299 -0.0008  0.7880  2.2593
12451SOL    HW239076   5.884   1.360   6.238 -0.1925 -0.8385 -1.8006
12452SOL     OW39077   7.115   4.987   6.050  0.5717  0.2110  0.1397
12452SOL    HW139078   7.115   4.943   5.965 -1.9133  1.6579 -0.7046
12452SOL    HW239079   7.158   5.071   6.033  1.2598 -0.0130  0.6833
12453SOL     OW39080   2.131   1.183   0.335  0.1623 -0.1376  0.4668
12453SOL    HW139081   2.166   1.213   0.251  0.9050 -0.5820  0.6057
12453SOL    HW239082   2.148   1.089   0.336 -1.2006 -0.4095  0.4760
12454SOL     OW39083   5.260   1.285   8.385  0.4478 -0.3541  0.3484
12454SOL    HW139084   5.292   1.347   8.450 -0.3943  1.0196 -0.5199
12454SOL    HW239085   5.280   1.326   8.301  1.0716 -1.8744 -0.2869
12455SOL     OW39086   3.971   8.809   9.060  0.6342  0.0737  0.2244
12455SOL    HW139087   3.973   8.715   9.082 -0.4667  0.6537  3.3905
12455SOL    HW239088   4.060   8.828   9.030  1.4879 -1.6428  1.4422
12456SOL     OW39089   6.401   3.189   0.827  0.1806 -0.2482 -0.5205
12456SOL    HW139090   6.394   3.283   0.810 -0.8387 -0.6063 -2.3287
12456SOL    HW239091   6.362   3.148   0.751  2.2532 -2.2150 -0.6217
12457SOL     OW39092   7.911   7.382   5.634  0.4782 -0.1064 -0.6289
12457SOL    HW139093   7.824   7.376   5.595 -0.5372 -1.1588  1.6091
12457SOL    HW239094   7.971   7.378   5.560 -1.3512  1.7630 -2.3502
12458SOL     OW39095   1.687   5.578   3.840  0.8752 -0.3190 -0.2540
12458SOL    HW139096   1.698   5.485   3.819  0.2631 -1.0080  2.1249
12458SOL    HW239097   1.736   5.590   3.922  2.1263  1.8284 -1.2461
12459SOL     OW39098   9.411   9.496   6.433 -0.1087 -0.4347  0.1621
12459SOL    HW139099   9.403   9.401   6.443 -0.8679 -0.2327  1.7231
12459SOL    HW239100   9.478   9.521   6.497  0.9919 -0.0394 -1.0922
12460SOL     OW39101   8.717   6.349   7.119  0.2652 -0.0209  0.1538
12460SOL    HW139102   8.653   6.405   7.075  0.2172 -0.4399 -0.3128
12460SOL    HW239103   8.781   6.411   7.156 -0.2037  0.3787  0.3086
12461SOL     OW39104   1.709   0.629   3.193  0.3736  0.4251  0.1892
12461SOL    HW139105   1.658   0.666   3.121  1.2493 -0.9765 -1.2112
12461SOL    HW239106   1.798   0.664   3.180  1.0709 -1.5785 -0.8079
12462SOL     OW39107   2.265   6.562   0.058  0.5066 -0.5537 -0.6571
12462SOL    HW139108   2.304   6.630   0.114  1.3687  0.0175 -1.8950
12462SOL    HW239109   2.339   6.511   0.028 -0.2444 -3.2121  1.5791
12463SOL     OW39110   3.037   5.226   3.136  0.1439 -0.1510  0.3438
12463SOL    HW139111   3.012   5.243   3.045 -3.1373 -0.2492  1.1310
12463SOL    HW239112   3.038   5.131   3.143  1.9953 -0.1876  0.0803
12464SOL     OW39113   3.198   9.051   7.434 -0.4771  0.0120 -0.5681
12464SOL    HW139114   3.287   9.055   7.398 -0.5403 -0.5270 -0.7999
12464SOL    HW239115   3.147   9.110   7.378 -0.7578 -1.4515 -1.9456
12465SOL     OW39116   1.346   3.037   8.784 -0.3452  0.7333 -0.4671
12465SOL    HW139117   1.272   3.010   8.728 -0.0673 -1.2909  0.0675
12465SOL    HW239118   1.422   2.996   8.743 -0.0283 -0.1165  0.9229
12466SOL     OW39119   5.101   4.901   0.119 -0.3156 -0.6578 -1.0940
12466SOL    HW139120   5.086   4.811   0.091  2.3817 -0.8952 -2.1179
12466SOL    HW239121   5.195   4.905   0.138 -0.9019  1.0796  2.3148
12467SOL     OW39122   4.576   6.317   1.196  0.6215 -0.0994 -0.1851
12467SOL    HW139123   4.623   6.244   1.236 -0.5839 -1.0848 -0.4805
12467SOL    HW239124   4.633   6.392   1.207  1.0142 -0.6487  1.9961
12468SOL     OW39125   0.161   4.481   8.006  0.3328 -0.0762  0.8121
12468SOL    HW139126   0.093   4.459   7.943  1.7899  0.8638 -1.2018
12468SOL    HW239127   0.176   4.400   8.055  1.9599 -2.2585 -2.8291
12469SOL     OW39128   8.637   5.975   2.036  0.0371  0.1334 -0.4101
12469SOL    HW139129   8.615   5.993   2.127  0.5640 -1.1809  0.0060
12469SOL    HW239130   8.562   5.926   2.002 -0.0468  0.3982 -0.6116
12470SOL     OW39131   2.413   0.976   0.570 -0.1389 -0.1409  0.0577
12470SOL    HW139132   2.390   1.052   0.516  0.9941 -1.0931 -1.8636
12470SOL    HW239133   2.399   1.006   0.660 -0.1460  2.2000 -0.6498
12471SOL     OW39134   7.116   4.375   6.464  0.0605 -0.9414 -0.3152
12471SOL    HW139135   7.037   4.419   6.431 -0.5537 -2.7730 -1.4792
12471SOL    HW239136   7.099   4.361   6.557 -0.9383 -1.1853 -0.5233
12472SOL     OW39137   3.635   2.270   1.325  0.1239 -0.3129  0.2079
12472SOL    HW139138   3.661   2.279   1.416  1.9952 -0.0392 -0.3218
12472SOL    HW239139   3.566   2.335   1.313  0.9210  0.7196  1.0420
12473SOL     OW39140   8.270   9.626   5.563  0.2834 -0.5735 -1.0396
12473SOL    HW139141   8.262   9.721   5.564 -0.6305 -0.6386 -0.8303
12473SOL    HW239142   8.224   9.597   5.642 -1.9934 -1.3374 -2.5521
12474SOL     OW39143   1.513   4.485   9.674 -0.7438 -0.0976  0.8382
12474SOL    HW139144   1.546   4.449   9.592  0.3797 -2.0827  2.0579
12474SOL    HW239145   1.418   4.487   9.663 -0.5447  1.0518 -0.9886
12475SOL     OW39146   6.087   5.847   5.831  0.1622 -0.5729 -0.4175
12475SOL    HW139147   6.183   5.848   5.831  0.4326 -1.3167 -5.4794
12475SOL    HW239148   6.061   5.938   5.821  0.2496 -0.3744  0.9258
12476SOL     OW39149   4.526   1.803   8.198 -0.0915  0.0108  0.3808
12476SOL    HW139150   4.496   1.893   8.209  0.0269  0.2074 -0.7527
12476SOL    HW239151   4.472   1.768   8.127  2.0256  0.2663 -1.4893
12477SOL     OW39152   5.955   8.643   3.670 -0.0114  0.2171 -0.0510
12477SOL    HW139153   5.863   8.656   3.692  0.2328  0.9179  0.6007
12477SOL    HW239154   5.997   8.621   3.753  0.2571 -1.0295 -0.5011
12478SOL     OW39155   4.827   7.439   2.797  0.4018  0.3737 -0.5065
12478SOL    HW139156   4.809   7.440   2.891  0.9047 -0.6398 -0.3799
12478SOL    HW239157   4.755   7.388   2.760 -0.1436  1.3081 -0.7697
12479SOL     OW39158   1.279   2.238   1.982  0.1331 -0.3796  0.5694
12479SOL    HW139159   1.358   2.244   2.035  2.2544 -0.5317 -2.3504
12479SOL    HW239160   1.266   2.326   1.947 -0.2519 -0.6293  0.0547
12480SOL     OW39161   6.919   0.661   2.296  0.1902 -0.4267  0.0915
12480SOL    HW139162   6.872   0.584   2.262 -0.1484 -0.3806  0.4511
12480SOL    HW239163   7.007   0.653   2.259  0.7490 -2.0163  1.5907
12481SOL     OW39164   1.642   2.132   1.397  0.2429  0.1364 -0.2172
12481SOL    HW139165   1.563   2.176   1.429  0.7696  1.5206 -0.7309
12481SOL    HW239166   1.636   2.043   1.431 -0.6033  0.7469  1.3189
12482SOL     OW39167   6.378   2.036   6.948 -0.4081 -0.2947 -0.5485
12482SOL    HW139168   6.375   1.941   6.951  0.3488 -0.3765 -1.9216
12482SOL    HW239169   6.471   2.057   6.936 -0.3558  0.6855  1.1811
12483SOL     OW39170   3.968   2.798   0.137  0.2879 -0.3031 -0.6444
12483SOL    HW139171   4.005   2.823   0.222 -1.2276  0.9372 -0.3061
12483SOL    HW239172   4.030   2.833   0.073  0.2150  0.9605 -0.0722
12484SOL     OW39173   4.209   7.251   1.327  0.0548 -0.4270  0.4948
12484SOL    HW139174   4.241   7.173   1.282  0.9708  0.8478 -1.1631
12484SOL    HW239175   4.283   7.312   1.325 -1.5054  1.5329 -0.8275
12485SOL     OW39176   7.179   8.309   6.315 -0.0378  0.0070 -0.3401
12485SOL    HW139177   7.228   8.370   6.261  2.9697 -0.6500  1.4369
12485SOL    HW239178   7.112   8.362   6.356  0.2591  1.3389 -1.4918
12486SOL     OW39179   5.631   7.029   6.965  0.6291  0.9315 -0.2827
12486SOL    HW139180   5.666   7.092   6.902 -0.9562  1.0008 -1.1580
12486SOL    HW239181   5.601   6.955   6.911  3.3237 -1.0942  0.7843
12487SOL     OW39182   6.939   8.511   8.552  0.3289  0.2033 -0.3580
12487SOL    HW139183   6.877   8.559   8.498 -0.8510 -0.7892  0.0662
12487SOL    HW239184   6.955   8.567   8.628 -0.7210  0.1183 -0.0629
12488SOL     OW39185   1.906   3.881   1.467  0.3999 -0.2260 -0.0939
12488SOL    HW139186   1.886   3.915   1.554  0.8169 -1.2950  0.4371
12488SOL    HW239187   1.962   3.947   1.427 -0.0315  0.4038  0.3320
12489SOL     OW39188   3.657   4.696   2.840  0.2072  0.9420 -0.5508
12489SOL    HW139189   3.631   4.632   2.906  1.7560 -0.3028 -1.0952
12489SOL    HW239190   3.635   4.654   2.757 -0.1040  1.7528 -0.8834
12490SOL     OW39191   7.972   6.237   0.341  0.1796  0.0011  0.0570
12490SOL    HW139192   7.997   6.273   0.257 -2.6733  0.4487 -0.7076
12490SOL    HW239193   7.905   6.297   0.374 -0.7633 -1.6478  1.3060
12491SOL     OW39194   0.407   4.479   0.713 -0.1164 -0.5080  0.0584
12491SOL    HW139195   0.415   4.569   0.743  0.8428 -0.9531  1.2161
12491SOL    HW239196   0.477   4.467   0.650  0.0339 -0.5621  0.2340
12492SOL     OW39197   3.342   0.918   8.468  0.1400  0.2565  0.5713
12492SOL    HW139198   3.250   0.924   8.491 -0.3237 -0.4325 -0.9486
12492SOL    HW239199   3.386   0.893   8.549 -1.0300  0.4170  1.2742
12493SOL     OW39200   3.446   9.457   2.825 -0.0844 -0.1780  0.2611
12493SOL    HW139201   3.483   9.544   2.808 -1.2345  0.4429  0.7859
12493SOL    HW239202   3.512   9.396   2.794  1.5354  0.8638  1.4709
12494SOL     OW39203   8.985   5.815   6.136  0.0415  0.1513  0.5516
12494SOL    HW139204   9.024   5.817   6.224  0.2533 -0.1282  0.4668
12494SOL    HW239205   9.060   5.804   6.077 -0.2010 -0.9270  0.4221
12495SOL     OW39206   1.539   1.582   8.740 -0.3504  0.0993 -0.2598
12495SOL    HW139207   1.631   1.561   8.754 -0.0021  1.8229  0.3110
12495SOL    HW239208   1.538   1.677   8.729 -2.2167  0.3137  1.2227
12496SOL     OW39209   3.765   6.695   0.887  0.5051 -0.5702  0.6479
12496SOL    HW139210   3.672   6.701   0.908 -0.2210 -2.6886 -1.4595
12496SOL    HW239211   3.774   6.742   0.804  1.5784  0.5754  1.3851
12497SOL     OW39212   4.048   0.455   8.357 -0.0206  0.7153  0.1011
12497SOL    HW139213   3.986   0.494   8.296 -1.1757 -0.6693  0.3520
12497SOL    HW239214   4.123   0.515   8.356 -0.2316  1.0050 -2.2472
12498SOL     OW39215   6.615   5.093   8.741 -0.2931  0.0561  0.6116
12498SOL    HW139216   6.632   5.125   8.830 -0.4536  1.8799  0.0257
12498SOL    HW239217   6.693   5.117   8.692 -0.0117 -1.3534  0.3224
12499SOL     OW39218   8.368   1.790   5.823  0.0294  0.4349 -0.3674
12499SOL    HW139219   8.413   1.757   5.901 -1.8632  0.4081  0.7684
12499SOL    HW239220   8.317   1.715   5.791  0.2856  0.6284 -1.2710
12500SOL     OW39221   0.371   8.840   8.231 -0.5119  0.5196  0.2217
12500SOL    HW139222   0.294   8.834   8.288  0.0684 -0.3005  0.9523
12500SOL    HW239223   0.353   8.914   8.173 -1.6984  0.5485  0.6007
12501SOL     OW39224   9.043   4.220   6.777  0.2284  0.3329  0.1268
12501SOL    HW139225   8.949   4.228   6.763  0.0302 -0.8654  0.6918
12501SOL    HW239226   9.064   4.287   6.842  0.0919  1.7719 -1.2458
12502SOL     OW39227   5.513   4.616   4.157 -0.0568  0.2872  0.6503
12502SOL    HW139228   5.492   4.690   4.101 -1.9461 -1.2352 -0.7784
12502SOL    HW239229   5.607   4.601   4.144  0.1362  1.8031  0.2227
12503SOL     OW39230   4.555   4.907   1.582 -0.0366 -0.0562 -0.2415
12503SOL    HW139231   4.626   4.971   1.570  0.3605 -0.3822  0.3288
12503SOL    HW239232   4.537   4.874   1.494  1.5163 -1.0270 -0.2209
12504SOL     OW39233   5.684   3.337   2.402 -0.4536  0.5434 -0.6336
12504SOL    HW139234   5.744   3.411   2.415  0.3549 -0.3241  0.8159
12504SOL    HW239235   5.722   3.266   2.454 -2.3939 -0.2202 -0.1764
12505SOL     OW39236   3.488   3.676   4.773  0.3738 -0.3434  0.5042
12505SOL    HW139237   3.532   3.591   4.773  0.0840 -0.5096 -0.5754
12505SOL    HW239238   3.555   3.738   4.743  0.3026 -0.3543  0.3211
12506SOL     OW39239   5.540   8.011   6.832  0.3397  0.5037  0.3947
12506SOL    HW139240   5.612   8.071   6.851 -0.7282  1.5428  1.3307
12506SOL    HW239241   5.462   8.057   6.863 -0.6994 -0.7115 -0.3335
12507SOL     OW39242   2.773   7.786   9.553 -0.3806 -0.1868  0.2030
12507SOL    HW139243   2.859   7.823   9.575 -0.8530  0.4445  1.0241
12507SOL    HW239244   2.763   7.804   9.459  0.5075 -0.5451  0.0227
12508SOL     OW39245   1.248   2.251   3.510 -0.0034 -0.2128 -0.5144
12508SOL    HW139246   1.167   2.230   3.462 -0.6986  1.6152 -0.2414
12508SOL    HW239247   1.232   2.221   3.599 -2.3337  3.9619  0.7452
12509SOL     OW39248   1.933   3.124   9.533 -0.3198 -0.2040  0.0392
12509SOL    HW139249   1.868   3.061   9.565  0.1085 -0.6562  0.0360
12509SOL    HW239250   2.005   3.070   9.501  0.7369  0.2751  1.4493
12510SOL     OW39251   0.671   8.272   8.855  0.1871  0.0111  0.2484
12510SOL    HW139252   0.696   8.256   8.763  0.1516  0.2092  0.2039
12510SOL    HW239253   0.580   8.241   8.860  0.4530 -0.7468  0.4200
12511SOL     OW39254   7.064   7.414   1.605 -0.2619 -0.2762  1.0348
12511SOL    HW139255   7.150   7.396   1.643 -0.6280 -0.5858  1.7322
12511SOL    HW239256   7.012   7.336   1.623  0.3295 -1.7015 -2.6014
12512SOL     OW39257   2.585   4.495   6.966 -0.0688 -0.0101 -0.7532
12512SOL    HW139258   2.507   4.539   6.999  0.2311 -0.6006  0.8409
12512SOL    HW239259   2.657   4.553   6.989 -0.0149  0.8040 -2.7077
12513SOL     OW39260   5.947   7.301   6.757  0.0916 -0.1427  0.5027
12513SOL    HW139261   5.991   7.316   6.840 -0.5953  0.3061  0.7949
12513SOL    HW239262   5.904   7.385   6.737 -1.8822 -0.9774  0.9939
12514SOL     OW39263   2.550   6.359   6.063  0.5317  0.1053 -1.1388
12514SOL    HW139264   2.590   6.386   6.146  0.3354  1.8847 -1.5790
12514SOL    HW239265   2.599   6.282   6.036  3.9749  2.3258 -1.8266
12515SOL     OW39266   7.391   6.962   3.997  0.0036  0.6358  0.5838
12515SOL    HW139267   7.428   6.892   4.052  0.3863 -0.2290 -0.7384
12515SOL    HW239268   7.466   7.015   3.971  0.1767 -0.3462 -1.0171
12516SOL     OW39269   9.214   3.034   9.041  0.1684  0.5826  0.8159
12516SOL    HW139270   9.120   3.040   9.054  0.0658  0.7316  0.0837
12516SOL    HW239271   9.253   3.069   9.121 -0.3919  0.2357  1.2456
12517SOL     OW39272   8.841   2.317   8.718  0.1002 -0.2556  0.3706
12517SOL    HW139273   8.804   2.363   8.643 -0.5720 -0.2897  0.6690
12517SOL    HW239274   8.891   2.245   8.680  2.1570  1.3705 -0.1584
12518SOL     OW39275   5.504   3.071   6.339 -0.2001  0.1288  0.4848
12518SOL    HW139276   5.521   3.079   6.245  0.3811  0.4761  0.6136
12518SOL    HW239277   5.409   3.073   6.346 -0.2797 -0.7228 -0.1668
12519SOL     OW39278   6.709   0.708   8.741 -0.3092 -1.0618 -0.3978
12519SOL    HW139279   6.685   0.627   8.697 -1.3976  0.1645 -2.2403
12519SOL    HW239280   6.626   0.743   8.774  0.0689 -0.5021 -0.0171
12520SOL     OW39281   4.460   5.701   1.004 -0.0241  0.2335 -0.0064
12520SOL    HW139282   4.408   5.640   0.951 -0.3294 -0.7148  1.3339
12520SOL    HW239283   4.460   5.663   1.091  3.3780 -0.1151 -0.0212
12521SOL     OW39284   7.076   7.662   6.630 -0.1167 -0.3800 -0.0796
12521SOL    HW139285   7.145   7.721   6.660 -0.6958  1.5381 -2.2445
12521SOL    HW239286   7.111   7.621   6.551 -1.8843  1.8805 -2.1985
12522SOL     OW39287   7.193   9.208   3.780 -0.3590  0.1738 -0.1498
12522SOL    HW139288   7.153   9.254   3.706 -0.7460 -0.7108 -0.5028
12522SOL    HW239289   7.286   9.202   3.757 -0.6097 -0.8227 -0.9687
12523SOL     OW39290   0.326   2.736   5.512 -0.2250 -0.1938  0.0403
12523SOL    HW139291   0.332   2.831   5.521  2.0108 -0.0109 -2.2819
12523SOL    HW239292   0.368   2.717   5.428 -1.6755 -3.1531 -0.1489
12524SOL     OW39293   0.601   5.750   5.727  0.7863 -0.1540  0.4639
12524SOL    HW139294   0.562   5.746   5.640 -0.3283  0.2405  0.9239
12524SOL    HW239295   0.695   5.753   5.711  0.6934 -1.6995 -0.6775
12525SOL     OW39296   5.454   2.838   2.285 -0.6673 -0.4417 -0.6261
12525SOL    HW139297   5.378   2.801   2.240 -1.3558  2.0662 -1.7283
12525SOL    HW239298   5.529   2.807   2.235 -1.1586 -0.8617 -1.1149
12526SOL     OW39299   1.485   8.230   7.009 -0.2567  0.0980 -0.1632
12526SOL    HW139300   1.552   8.280   6.963 -0.3776 -0.8049 -1.3643
12526SOL    HW239301   1.450   8.171   6.943 -2.3410  0.6356  0.3812
12527SOL     OW39302   8.610   1.649   6.461 -0.3432 -0.3033 -0.4535
12527SOL    HW139303   8.692   1.622   6.502 -1.2462  0.5253  2.0429
12527SOL    HW239304   8.592   1.735   6.498 -2.6053 -0.6733 -0.5793
12528SOL     OW39305   7.391   7.750   6.878  0.2070  0.2308  0.3011
12528SOL    HW139306   7.485   7.756   6.861  0.0625  1.5096 -0.1208
12528SOL    HW239307   7.350   7.765   6.794 -0.3920 -1.7800  0.1735
12529SOL     OW39308   5.543   8.033   1.230 -0.1766  0.0436 -0.1016
12529SOL    HW139309   5.567   8.079   1.150  0.2766 -0.6547 -0.3809
12529SOL    HW239310   5.551   7.940   1.208 -0.4537 -0.1674  0.6316
12530SOL     OW39311   0.380   0.240   5.652  0.3146 -0.3782  0.1244
12530SOL    HW139312   0.325   0.317   5.665 -0.8184 -1.2714  0.9442
12530SOL    HW239313   0.395   0.236   5.558 -1.3913 -0.3070 -0.1960
12531SOL     OW39314   3.989   9.157   7.250 -0.5375  0.4975  0.1674
12531SOL    HW139315   4.081   9.139   7.268 -0.5251  0.9343  0.5589
12531SOL    HW239316   3.984   9.169   7.155 -0.2496  0.1609  0.1091
12532SOL     OW39317   4.946   1.344   8.171  0.2121 -0.2424 -0.1915
12532SOL    HW139318   4.982   1.265   8.213 -3.1715 -2.5939 -1.2762
12532SOL    HW239319   4.876   1.372   8.230  1.0366  1.7174 -0.0862
12533SOL     OW39320   9.544   1.527   2.961 -0.2956 -0.4787 -0.5378
12533SOL    HW139321   9.455   1.501   2.986 -1.0162  1.0134 -1.4034
12533SOL    HW239322   9.546   1.514   2.866  0.3508 -0.3124 -0.5487
12534SOL     OW39323   0.751   2.874   9.615 -0.1355 -0.1516 -0.4431
12534SOL    HW139324   0.791   2.791   9.590  1.0120  0.8893 -2.2598
12534SOL    HW239325   0.762   2.878   9.710 -1.5376 -2.6900 -0.0913
12535SOL     OW39326   5.086   2.474   5.438 -0.4125 -0.1992  0.5204
12535SOL    HW139327   5.078   2.559   5.480 -0.0048  0.6535 -1.0425
12535SOL    HW239328   5.135   2.421   5.500  1.0230  1.3106  0.7419
12536SOL     OW39329   5.526   6.136   4.503  0.0223 -0.0171  0.3098
12536SOL    HW139330   5.579   6.065   4.468 -0.0979 -1.5019  2.9019
12536SOL    HW239331   5.442   6.129   4.456  0.6669 -0.3216 -0.8281
12537SOL     OW39332   2.299   8.802   8.510 -0.0230  0.3169 -0.4582
12537SOL    HW139333   2.374   8.848   8.546 -0.3057  0.1372  0.4046
12537SOL    HW239334   2.335   8.722   8.471  0.4500  1.1751 -1.8348
12538SOL     OW39335   8.602   1.182   6.872  0.3307  0.1866  0.5305
12538SOL    HW139336   8.635   1.241   6.940 -0.1019  0.6544  0.3405
12538SOL    HW239337   8.633   1.221   6.790  3.6292 -2.0528  0.4984
12539SOL     OW39338   0.468   1.700   2.713 -0.1597 -0.2455  0.0304
12539SOL    HW139339   0.409   1.766   2.678 -3.0064 -2.3020  0.5716
12539SOL    HW239340   0.478   1.722   2.805  0.1603  0.2473 -0.1181
12540SOL     OW39341   4.166   7.994   2.302  0.4168  0.1285 -0.6708
12540SOL    HW139342   4.217   7.930   2.352 -1.9821  0.3427  2.3398
12540SOL    HW239343   4.082   7.952   2.286 -0.7257  1.9602  0.1596
12541SOL     OW39344   4.266   8.062   7.813 -0.0819  0.1759  0.2557
12541SOL    HW139345   4.358   8.039   7.799  0.5203  1.0444  2.3682
12541SOL    HW239346   4.236   8.001   7.880 -1.5214 -1.0101 -1.3633
12542SOL     OW39347   4.447   3.982   4.265 -0.2619  0.0943  0.5655
12542SOL    HW139348   4.395   3.919   4.215 -0.0194  1.2185 -1.2132
12542SOL    HW239349   4.403   4.065   4.251  1.4928  0.9318 -0.3220
12543SOL     OW39350   7.311   2.236   7.578 -0.0054  0.0963 -0.1555
12543SOL    HW139351   7.263   2.319   7.575 -2.0072 -0.9535  0.9362
12543SOL    HW239352   7.292   2.195   7.494  0.0002  0.2127 -0.2139
12544SOL     OW39353   5.753   0.522   2.229  0.0283 -0.0315 -0.3349
12544SOL    HW139354   5.738   0.441   2.277 -1.5153  1.4018  1.8192
12544SOL    HW239355   5.848   0.525   2.216 -0.0087 -3.0243 -2.2465
12545SOL     OW39356   0.594   2.087   7.639 -0.5005  0.5362 -0.2050
12545SOL    HW139357   0.662   2.092   7.706  0.0233 -1.4311 -0.5032
12545SOL    HW239358   0.512   2.096   7.687 -0.0691  1.7485  0.3250
12546SOL     OW39359   8.754   1.057   2.293  1.0243 -0.1122  0.1992
12546SOL    HW139360   8.724   0.970   2.266 -1.0188  0.5546  0.1205
12546SOL    HW239361   8.742   1.059   2.388  3.5010 -0.7474  0.5844
12547SOL     OW39362   4.598   3.689   3.389 -0.9435 -0.1246  0.1258
12547SOL    HW139363   4.528   3.626   3.373  0.2588 -1.8524  1.2143
12547SOL    HW239364   4.555   3.763   3.432 -2.0326 -1.3965  1.3185
12548SOL     OW39365   6.286   6.154   2.488  0.1873 -0.9682 -0.3438
12548SOL    HW139366   6.336   6.103   2.551  0.0848 -1.9871 -1.0625
12548SOL    HW239367   6.279   6.097   2.411 -2.0016 -0.8467 -0.2964
12549SOL     OW39368   0.161   8.266   7.392  0.1421  0.1520 -0.5142
12549SOL    HW139369   0.208   8.345   7.366 -0.3869  1.0922  1.2347
12549SOL    HW239370   0.079   8.298   7.431  0.7566 -1.0853  2.0310
12550SOL     OW39371   7.477   8.450   0.294  0.1546 -0.4902  0.4887
12550SOL    HW139372   7.491   8.381   0.230  1.4514 -0.6363  0.9183
12550SOL    HW239373   7.503   8.412   0.377  0.4064  0.3484  0.8043
12551SOL     OW39374   2.031   5.010   8.847  0.7302  0.3036 -0.2051
12551SOL    HW139375   2.024   4.967   8.933  0.3313 -0.0449 -0.4086
12551SOL    HW239376   2.002   4.943   8.785  0.0813  0.8850 -0.5272
12552SOL     OW39377   1.386   5.727   9.453 -0.1324  0.5644  0.2077
12552SOL    HW139378   1.381   5.748   9.360 -1.7065  2.0637  0.5744
12552SOL    HW239379   1.471   5.763   9.481  1.6575 -2.2799 -1.0966
12553SOL     OW39380   4.336   7.343   0.198 -0.1659  0.3049  0.4528
12553SOL    HW139381   4.418   7.292   0.204  0.2648  0.6534 -1.6237
12553SOL    HW239382   4.342   7.406   0.270  0.3936 -1.0259  1.6215
12554SOL     OW39383   8.258   6.457   6.651  0.3593 -0.6510  0.0996
12554SOL    HW139384   8.185   6.505   6.689  1.5619  0.2079  1.4527
12554SOL    HW239385   8.295   6.408   6.725  1.6250 -0.4277 -0.3622
12555SOL     OW39386   6.355   0.170   8.784 -0.1213  0.2269  0.0539
12555SOL    HW139387   6.341   0.140   8.874 -1.1524 -1.4157 -0.6084
12555SOL    HW239388   6.304   0.250   8.777  0.8267  0.9735  1.2151
12556SOL     OW39389   8.835   6.342   7.917  0.4711 -0.6965 -0.3446
12556SOL    HW139390   8.928   6.329   7.900  0.5070  1.8521 -2.9045
12556SOL    HW239391   8.796   6.255   7.906  2.5405 -1.9885  1.5996
12557SOL     OW39392   9.321   3.775   7.119  0.2178  0.0570 -0.0414
12557SOL    HW139393   9.380   3.803   7.190  0.8397  0.3141 -0.6476
12557SOL    HW239394   9.321   3.849   7.058  0.9617 -0.7992 -1.0990
12558SOL     OW39395   7.386   5.776   2.404 -0.1302 -0.2386  0.0580
12558SOL    HW139396   7.469   5.779   2.357 -0.6814  1.5950 -0.8848
12558SOL    HW239397   7.404   5.816   2.489  0.2339 -1.0263  0.3567
12559SOL     OW39398   9.142   5.314   9.369 -0.5517 -0.1916 -0.1830
12559SOL    HW139399   9.162   5.318   9.462 -4.6220  0.5526  0.8692
12559SOL    HW239400   9.201   5.378   9.329  1.0509 -0.2586  1.8888
12560SOL     OW39401   1.435   0.053   4.789 -0.1017  0.0458  0.6260
12560SOL    HW139402   1.482  -0.031   4.781 -2.0965 -0.9529 -3.2897
12560SOL    HW239403   1.492   0.116   4.746  0.9703  0.5905  2.7336
12561SOL     OW39404   3.058   8.519   1.653  0.1868  0.2277 -0.2909
12561SOL    HW139405   3.097   8.491   1.570  1.4801 -1.9845  1.0015
12561SOL    HW239406   3.125   8.573   1.695  1.2345 -1.9962  1.0643
12562SOL     OW39407   0.463   2.685   8.547 -0.2903  0.1519 -0.3763
12562SOL    HW139408   0.534   2.632   8.583 -0.4531  0.7831  0.9313
12562SOL    HW239409   0.479   2.685   8.453  1.2187 -0.0472 -0.1487
12563SOL     OW39410   2.098   3.074   9.087 -0.0723  0.2483  0.2684
12563SOL    HW139411   2.109   3.067   8.993 -3.5161  1.5059 -0.4019
12563SOL    HW239412   2.080   3.167   9.103 -1.0767 -0.1600  1.8852
12564SOL     OW39413   1.130   4.857   4.501  0.5341  0.2302  0.1802
12564SOL    HW139414   1.152   4.950   4.509  0.2695  0.1888  1.5994
12564SOL    HW239415   1.087   4.835   4.583 -0.5624 -0.8520 -0.6499
12565SOL     OW39416   9.146   6.107   6.010  0.2970  0.5338 -0.2452
12565SOL    HW139417   9.180   6.019   5.995 -0.2625  0.5159 -1.6316
12565SOL    HW239418   9.219   6.156   6.047  0.5235 -0.5782  0.8248
12566SOL     OW39419   5.184   9.105   2.543 -0.7085 -0.2763 -0.0389
12566SOL    HW139420   5.193   9.108   2.639 -2.9593  0.8276  0.1947
12566SOL    HW239421   5.208   9.192   2.514 -0.9579 -0.3191 -0.3773
12567SOL     OW39422   4.093   6.777   5.971 -0.4893 -0.0616 -0.0336
12567SOL    HW139423   4.086   6.785   6.066 -0.3720  0.6264 -0.0826
12567SOL    HW239424   4.095   6.867   5.938 -1.1489 -0.2877 -0.7357
12568SOL     OW39425   0.146   4.924   6.112 -0.0114 -0.0797 -0.2105
12568SOL    HW139426   0.157   4.985   6.040  1.4032 -1.4432 -1.2043
12568SOL    HW239427   0.199   4.848   6.088  1.5843 -0.0949  2.8421
12569SOL     OW39428   2.746   3.285   7.707  0.1056  0.1219  0.4021
12569SOL    HW139429   2.662   3.240   7.707  0.1753 -0.0274  1.2109
12569SOL    HW239430   2.731   3.365   7.656 -0.9267  0.8014  1.6759
12570SOL     OW39431   4.771   4.662   4.666 -0.2606  0.1142  0.0387
12570SOL    HW139432   4.847   4.720   4.672 -0.8261  0.8884 -0.1579
12570SOL    HW239433   4.726   4.688   4.586 -0.4045 -0.7542 -0.1772
12571SOL     OW39434   1.817   0.407   5.217 -0.2046 -0.3004  0.3767
12571SOL    HW139435   1.827   0.315   5.194  0.5202 -0.4872  1.3843
12571SOL    HW239436   1.729   0.430   5.187  0.3259 -0.7728 -1.6591
12572SOL     OW39437   7.237   6.115   5.078 -0.8296  0.2058  0.0025
12572SOL    HW139438   7.315   6.110   5.134  1.1503 -2.9290 -2.6657
12572SOL    HW239439   7.185   6.038   5.103 -0.8997 -0.1085 -1.0888
12573SOL     OW39440   1.318   7.523   6.286 -0.3460 -0.6341  0.5302
12573SOL    HW139441   1.386   7.547   6.222  0.0750 -0.6730  0.9588
12573SOL    HW239442   1.246   7.583   6.268  0.7595  1.1023  1.7122
12574SOL     OW39443   2.588   7.248   1.370  0.0331 -0.0165 -0.3586
12574SOL    HW139444   2.627   7.245   1.458  0.2692  1.3624 -0.3934
12574SOL    HW239445   2.497   7.221   1.384 -0.3868  1.7508  0.6085
12575SOL     OW39446   1.241   8.359   1.334 -0.0328 -0.9798 -0.1765
12575SOL    HW139447   1.261   8.282   1.281  2.6050 -0.4606 -0.0661
12575SOL    HW239448   1.239   8.326   1.424 -1.7741 -1.3631 -0.3107
12576SOL     OW39449   0.665   1.994   0.201 -0.0143 -0.0715 -0.3569
12576SOL    HW139450   0.670   2.073   0.147  0.4957  0.4982  0.5092
12576SOL    HW239451   0.755   1.974   0.223 -0.2135 -0.3599  0.2086
12577SOL     OW39452   3.392   3.255   5.962  0.1938 -0.0937 -0.2167
12577SOL    HW139453   3.331   3.229   6.032  1.4956 -0.1012  0.9455
12577SOL    HW239454   3.367   3.200   5.888 -0.0156 -1.4654  0.8219
12578SOL     OW39455   4.442   2.848   2.668 -0.4554 -0.4999  0.9778
12578SOL    HW139456   4.467   2.772   2.722  0.6570 -0.8239  0.0508
12578SOL    HW239457   4.484   2.832   2.583  0.8675  1.7197  1.1164
12579SOL     OW39458   5.833   2.949   3.996  0.1336  0.4249  0.4516
12579SOL    HW139459   5.753   2.900   3.981 -0.5943  1.5559  0.4979
12579SOL    HW239460   5.803   3.034   4.029  1.3646  0.7397  0.8091
12580SOL     OW39461   1.616   1.106   6.511  0.2256 -0.1646  0.0341
12580SOL    HW139462   1.611   1.016   6.477  3.0922 -0.8235  1.0378
12580SOL    HW239463   1.560   1.105   6.588  0.6076 -1.2833  0.3241
12581SOL     OW39464   3.450   5.823   8.375  0.1087  0.0608 -0.2678
12581SOL    HW139465   3.461   5.833   8.470  0.2259  2.3199 -0.4722
12581SOL    HW239466   3.457   5.728   8.360 -0.0911 -0.3686  1.9862
12582SOL     OW39467   8.869   0.772   3.505  0.5296 -0.0182  0.3283
12582SOL    HW139468   8.848   0.865   3.504  0.9663  0.0789 -0.2781
12582SOL    HW239469   8.785   0.728   3.488  0.8101  0.3763 -2.5459
12583SOL     OW39470   5.102   7.447   3.852 -0.2483 -0.2902  0.1417
12583SOL    HW139471   5.093   7.510   3.781  1.5087 -0.7595 -0.5548
12583SOL    HW239472   5.174   7.481   3.906 -0.7389 -0.5763  1.0028
12584SOL     OW39473   5.043   2.102   9.223 -0.6490  0.5449 -0.6135
12584SOL    HW139474   5.099   2.045   9.172  2.5602  1.7725  1.2581
12584SOL    HW239475   5.033   2.181   9.169  0.7260  0.8935 -0.3944
12585SOL     OW39476   0.472   7.323   7.497 -0.7192 -0.6208 -0.3387
12585SOL    HW139477   0.409   7.270   7.449 -0.5415  0.2932 -1.6426
12585SOL    HW239478   0.472   7.407   7.450  1.9598 -0.8193 -0.8092
12586SOL     OW39479   3.502   1.428   8.567 -0.2813  0.2898 -0.1489
12586SOL    HW139480   3.571   1.489   8.591 -1.1823  1.0703  0.5261
12586SOL    HW239481   3.426   1.455   8.619 -0.8323 -1.1398 -0.1547
12587SOL     OW39482   0.981   3.277   7.459 -0.1450 -0.3183 -0.1327
12587SOL    HW139483   0.910   3.278   7.396 -0.4641  1.4489  0.2010
12587SOL    HW239484   0.982   3.188   7.493 -1.2092 -0.7712 -1.2352
12588SOL     OW39485   9.465   4.207   3.266  0.0635 -0.0038  0.4670
12588SOL    HW139486   9.370   4.204   3.258  0.0274  0.4798  0.7100
12588SOL    HW239487   9.484   4.160   3.347 -0.0042  0.2991  0.6604
12589SOL     OW39488   2.382   8.474   4.890 -0.2409  0.0671  0.6346
12589SOL    HW139489   2.394   8.568   4.872  1.5041 -0.0365  1.0628
12589SOL    HW239490   2.348   8.438   4.808  0.2359  0.8752  0.0614
12590SOL     OW39491   5.587   8.059   6.414 -0.3688  0.1878  0.2734
12590SOL    HW139492   5.604   7.977   6.459  1.3788  0.2079 -0.2477
12590SOL    HW239493   5.627   8.047   6.328  0.3795  1.7522  0.3735
12591SOL     OW39494   2.314   4.354   2.116  0.0337  0.2988  0.1084
12591SOL    HW139495   2.231   4.335   2.071  0.1401 -0.5376  0.2507
12591SOL    HW239496   2.366   4.275   2.104  1.2489  1.2051 -0.9297
12592SOL     OW39497   6.758   8.230   3.223 -0.6415  0.3253 -0.5988
12592SOL    HW139498   6.741   8.176   3.301 -1.4454  0.7923 -0.4420
12592SOL    HW239499   6.671   8.252   3.190 -0.3035 -0.0070 -1.7401
12593SOL     OW39500   1.825   4.279   0.126 -0.3726  0.1300 -0.3761
12593SOL    HW139501   1.905   4.236   0.097 -0.8674 -0.3315 -1.0904
12593SOL    HW239502   1.831   4.367   0.090 -1.1318 -0.5311 -2.2438
12594SOL     OW39503   9.075   1.791   3.284  0.5047 -0.5311 -0.3709
12594SOL    HW139504   9.034   1.822   3.364 -0.0007 -1.2756 -0.3317
12594SOL    HW239505   9.096   1.699   3.302  1.3868 -0.4024 -0.7040
12595SOL     OW39506   3.898   2.263   9.263 -0.9410 -0.1924  0.2587
12595SOL    HW139507   3.982   2.258   9.308 -0.7362 -2.2286 -0.2754
12595SOL    HW239508   3.872   2.355   9.272  0.2082 -0.0056  2.4445
12596SOL     OW39509   6.151   8.493   8.594  0.2041  0.4181  0.1177
12596SOL    HW139510   6.134   8.491   8.688 -1.4305  2.1239 -0.0788
12596SOL    HW239511   6.156   8.586   8.572  0.7882  0.0554 -1.4589
12597SOL     OW39512   5.003   3.057   2.933  0.1666 -0.1118  0.5832
12597SOL    HW139513   4.928   3.048   2.875  1.2283  0.9782 -1.0381
12597SOL    HW239514   5.025   2.967   2.958 -0.1949 -0.6222 -0.8756
12598SOL     OW39515   4.883   2.862   9.464 -0.3828 -0.1357 -0.2073
12598SOL    HW139516   4.890   2.874   9.370 -0.8365 -0.8124 -0.3332
12598SOL    HW239517   4.952   2.799   9.485 -0.5373 -0.2843 -0.1459
12599SOL     OW39518   5.661   1.575   3.294 -0.0589 -0.3980 -0.1811
12599SOL    HW139519   5.641   1.665   3.267  1.2517  1.0295  3.1732
12599SOL    HW239520   5.579   1.527   3.279 -1.6183  1.9533  0.2597
12600SOL     OW39521   8.783   3.546   4.042  0.4518  0.1402 -0.2062
12600SOL    HW139522   8.757   3.609   3.975  0.1813  0.2878  0.0359
12600SOL    HW239523   8.855   3.497   4.002  1.1456  1.0740 -0.1518
12601SOL     OW39524   6.005   7.018   6.067 -0.1250  0.5604  0.3530
12601SOL    HW139525   6.034   6.970   6.144 -0.5050  1.3284  0.9791
12601SOL    HW239526   5.917   7.048   6.088 -0.8399 -0.5161 -0.9803
12602SOL     OW39527   8.464   8.122   7.104  0.4578 -0.3114 -0.0467
12602SOL    HW139528   8.497   8.088   7.187 -0.1537 -3.2454 -0.8847
12602SOL    HW239529   8.379   8.079   7.093  1.1792 -1.1958 -2.8642
12603SOL     OW39530   9.676   1.093   0.608 -0.2081  0.5920  0.5572
12603SOL    HW139531   9.602   1.153   0.620 -0.1902  0.8117 -0.3644
12603SOL    HW239532   9.736   1.140   0.550 -0.2447 -0.3441 -0.2675
12604SOL     OW39533   9.146   5.597   4.185  0.0664 -0.3092  0.4548
12604SOL    HW139534   9.104   5.513   4.202  0.1989 -0.1701  1.5352
12604SOL    HW239535   9.217   5.576   4.124  0.2957 -1.0416  0.9602
12605SOL     OW39536   7.708   9.423   1.605  0.2068  0.2633 -0.1306
12605SOL    HW139537   7.793   9.427   1.562  1.5998 -0.7406  2.3094
12605SOL    HW239538   7.681   9.332   1.594  1.0232 -0.2583  1.7515
12606SOL     OW39539   1.923   7.692   8.255 -0.6074  0.3467 -0.1808
12606SOL    HW139540   1.991   7.628   8.273 -0.7194  0.0249 -0.8709
12606SOL    HW239541   1.848   7.662   8.306  0.1790  1.5268  1.7853
12607SOL     OW39542   8.211   3.079   2.167 -0.2484  0.1345  0.5332
12607SOL    HW139543   8.185   3.155   2.220 -0.5619  0.6204 -0.2798
12607SOL    HW239544   8.240   3.014   2.230  0.1696  0.9861  1.2496
12608SOL     OW39545   0.221   4.488   6.073 -0.3569 -0.1888 -0.3376
12608SOL    HW139546   0.186   4.538   6.000  2.7322  1.4640 -0.8905
12608SOL    HW239547   0.268   4.415   6.033  0.3087  0.0235  0.0219
12609SOL     OW39548   6.316   5.727   4.803 -0.1891 -0.5447 -0.2284
12609SOL    HW139549   6.279   5.766   4.724  0.2538  1.8403  0.6455
12609SOL    HW239550   6.271   5.643   4.812 -2.7168  0.5985 -1.1816
12610SOL     OW39551   8.564   7.558   4.662  0.8378  0.2441 -0.4404
12610SOL    HW139552   8.552   7.496   4.590  0.3355 -1.7499  1.2742
12610SOL    HW239553   8.489   7.543   4.719  1.3127  1.6576  0.5992
12611SOL     OW39554   1.639   3.428   8.139  0.7083  0.8355  0.3453
12611SOL    HW139555   1.702   3.458   8.204  0.0365  0.8812  0.9900
12611SOL    HW239556   1.561   3.482   8.153  0.2820  0.3228  0.0237
12612SOL     OW39557   5.033   8.572   3.617  0.0781 -0.0474 -0.4150
12612SOL    HW139558   5.106   8.625   3.585  0.6044 -0.6971 -0.3145
12612SOL    HW239559   4.963   8.587   3.553 -0.7199  2.7699  0.9343
12613SOL     OW39560   8.574   7.598   1.925  0.2114 -0.4433 -0.1731
12613SOL    HW139561   8.533   7.670   1.972  0.8312 -0.9054  1.1468
12613SOL    HW239562   8.529   7.520   1.957 -1.2058 -0.6229 -2.3891
12614SOL     OW39563   0.571   6.662   7.857  0.9233 -0.5227 -0.5971
12614SOL    HW139564   0.526   6.588   7.817  2.3075 -1.0607 -1.2404
12614SOL    HW239565   0.501   6.720   7.886 -0.2130 -2.3034  0.3730
12615SOL     OW39566   4.237   5.415   7.888  0.8471 -0.0278  0.1615
12615SOL    HW139567   4.275   5.388   7.804  2.5191 -0.5104  1.0229
12615SOL    HW239568   4.143   5.406   7.876  1.0783 -0.4903 -1.5248
12616SOL     OW39569   1.124   5.513   5.206 -0.4397  0.5572 -0.1212
12616SOL    HW139570   1.108   5.604   5.183 -1.3814  0.4576  0.0651
12616SOL    HW239571   1.217   5.509   5.228 -0.1670  1.2591 -1.0779
12617SOL     OW39572   1.772   8.569   8.482 -0.4856 -0.5919  0.0460
12617SOL    HW139573   1.735   8.542   8.566 -0.3094 -1.2307 -0.0832
12617SOL    HW239574   1.849   8.515   8.471  1.0823  1.3786  0.7523
12618SOL     OW39575   6.473   5.452   1.528 -0.3070  0.4050 -0.1785
12618SOL    HW139576   6.434   5.488   1.608 -2.7193 -0.6714 -0.7676
12618SOL    HW239577   6.426   5.370   1.514  1.9611 -0.8044 -1.2677
12619SOL     OW39578   1.873   6.236   2.255  0.1210  0.1440 -0.3384
12619SOL    HW139579   1.925   6.187   2.319  1.5270  1.4880 -0.4080
12619SOL    HW239580   1.919   6.223   2.172 -0.5215  0.1142 -0.6955
12620SOL     OW39581   0.214   2.009   2.137  0.4706  0.0983 -0.2050
12620SOL    HW139582   0.229   1.995   2.230  1.5252 -0.6633 -0.4647
12620SOL    HW239583   0.267   1.941   2.094  1.2280  1.3874 -1.4001
12621SOL     OW39584   4.508   5.612   7.798  0.2412 -0.1778 -0.2328
12621SOL    HW139585   4.491   5.662   7.878 -1.0591  0.2199 -0.7352
12621SOL    HW239586   4.428   5.621   7.746 -0.0137 -2.6939 -0.4103
12622SOL     OW39587   1.258   6.222   3.070  0.0675 -0.1931 -0.3016
12622SOL    HW139588   1.237   6.138   3.029 -1.6231 -1.1271  2.2370
12622SOL    HW239589   1.245   6.207   3.164 -0.4173  2.9547  0.2408
12623SOL     OW39590   3.288   4.219   4.074 -0.5568 -0.2768 -0.4543
12623SOL    HW139591   3.228   4.265   4.015  1.4063  0.9499 -1.6229
12623SOL    HW239592   3.300   4.278   4.148  0.6832  0.4351 -1.1757
12624SOL     OW39593   6.052   0.836   0.876 -0.4121  0.6946  0.2211
12624SOL    HW139594   6.083   0.771   0.813 -2.0849  0.7221 -0.6687
12624SOL    HW239595   6.016   0.785   0.948  0.2407  0.6628  0.5344
12625SOL     OW39596   2.256   9.356   4.438 -0.2130  0.5565  0.2553
12625SOL    HW139597   2.225   9.289   4.378  0.2582 -0.1135  0.7498
12625SOL    HW239598   2.224   9.329   4.524  0.7744  0.4487  0.6012
12626SOL     OW39599   0.517   7.602   2.764 -0.1525  0.4414  0.0841
12626SOL    HW139600   0.541   7.533   2.702 -0.4434  0.4412 -0.0292
12626SOL    HW239601   0.521   7.683   2.713 -0.4800  0.4313  0.0374
12627SOL     OW39602   1.004   3.231   3.446 -0.7434 -0.2546 -0.2203
12627SOL    HW139603   0.967   3.262   3.529 -0.4539 -1.6365  0.4582
12627SOL    HW239604   0.949   3.156   3.422  0.0238 -0.7286 -0.5343
12628SOL     OW39605   8.852   2.379   6.875 -0.6681  0.0792 -0.4893
12628SOL    HW139606   8.938   2.388   6.916 -0.7200 -0.1303 -0.3311
12628SOL    HW239607   8.816   2.298   6.912 -1.5189  0.8900  0.5183
12629SOL     OW39608   7.776   8.570   0.311  0.4893  0.2372  0.1049
12629SOL    HW139609   7.822   8.488   0.330 -0.8236 -1.3502 -2.9285
12629SOL    HW239610   7.700   8.544   0.260 -0.8049  3.2771  0.2653
12630SOL     OW39611   4.056   7.962   8.770  0.0178 -0.1784 -0.2182
12630SOL    HW139612   4.022   7.932   8.686 -0.3971 -0.3455  0.0064
12630SOL    HW239613   4.084   7.882   8.814  2.4229  0.0777 -1.1157
12631SOL     OW39614   7.392   3.038   9.126 -0.2666 -0.0576 -0.1242
12631SOL    HW139615   7.313   3.012   9.078  0.4932 -2.9471 -0.0338
12631SOL    HW239616   7.463   3.027   9.063  0.3156  0.1804  0.4826
12632SOL     OW39617   5.154   4.268   4.154  0.0124 -0.2388 -0.4908
12632SOL    HW139618   5.070   4.281   4.199  0.1923 -1.5759  0.3191
12632SOL    HW239619   5.130   4.252   4.063 -0.3847  2.2552 -0.8730
12633SOL     OW39620   6.004   4.929   9.578 -0.0629  0.3662  0.3580
12633SOL    HW139621   6.033   5.021   9.577  1.6609 -0.1603 -0.6804
12633SOL    HW239622   6.005   4.906   9.671  0.7025  1.0279  0.5260
12634SOL     OW39623   5.108   4.817   8.190  0.4998  0.9561  0.1810
12634SOL    HW139624   5.017   4.835   8.213 -0.0721 -1.2224 -0.1744
12634SOL    HW239625   5.157   4.836   8.270 -0.6598 -0.5998  1.3042
12635SOL     OW39626   8.368   2.558   9.626  0.5476 -0.1865 -0.6914
12635SOL    HW139627   8.439   2.570   9.563  0.5610 -2.7443 -1.2470
12635SOL    HW239628   8.297   2.615   9.593  1.9637  1.7237 -0.6088
12636SOL     OW39629   2.115   4.371   1.265  0.3923  0.0376  0.6698
12636SOL    HW139630   2.112   4.299   1.328  0.6428 -1.0930 -0.5525
12636SOL    HW239631   2.084   4.447   1.313 -4.2273 -1.6816  0.9350
12637SOL     OW39632   9.667   7.250   7.339  0.4033 -0.0349 -0.1484
12637SOL    HW139633   9.698   7.232   7.428 -0.9357 -1.1428  0.1244
12637SOL    HW239634   9.707   7.182   7.285  0.8626  0.3719 -0.3255
12638SOL     OW39635   9.526   8.703   0.781 -0.4780 -0.4758  0.3821
12638SOL    HW139636   9.506   8.760   0.707 -0.9745 -3.7904 -2.3046
12638SOL    HW239637   9.454   8.717   0.843 -0.0047  2.4433  0.4010
12639SOL     OW39638   3.201   0.020   5.837  0.2708  0.3143 -0.1327
12639SOL    HW139639   3.218   0.095   5.894 -0.9561 -0.0970  0.8133
12639SOL    HW239640   3.286   0.001   5.797  0.8915  1.3668  0.6249
12640SOL     OW39641   5.441   1.122   6.766  0.2979  0.0239  0.4205
12640SOL    HW139642   5.428   1.044   6.820 -1.3510  0.6962  1.0731
12640SOL    HW239643   5.449   1.089   6.677  0.1681 -0.9324  0.7568
12641SOL     OW39644   0.489   7.844   6.770  0.4362 -0.1561  0.5174
12641SOL    HW139645   0.572   7.829   6.725  0.3192  1.6703 -0.4004
12641SOL    HW239646   0.503   7.808   6.857  1.7715 -0.9684  0.0044
12642SOL     OW39647   7.957   2.513   3.285  0.4915  0.3148  0.7409
12642SOL    HW139648   7.989   2.427   3.313  1.6593  0.6097  0.3650
12642SOL    HW239649   8.026   2.574   3.310  0.6274  0.8622 -0.8534
12643SOL     OW39650   6.824   6.766   5.929  0.0959 -0.0660  0.1005
12643SOL    HW139651   6.888   6.707   5.970 -1.9222 -1.6186  1.1854
12643SOL    HW239652   6.777   6.711   5.867 -0.9300  0.7350  0.1388
12644SOL     OW39653   7.128   9.679   9.622  0.0945  0.5235  0.3229
12644SOL    HW139654   7.046   9.630   9.614  0.4242 -0.2556  1.4889
12644SOL    HW239655   7.138   9.692   9.716  1.5155  0.2288  0.2248
12645SOL     OW39656   0.451   9.550   9.325  0.4761 -0.6642 -0.2172
12645SOL    HW139657   0.499   9.558   9.242  1.5669 -1.0653  0.3613
12645SOL    HW239658   0.375   9.496   9.303 -0.3735  0.9026 -1.4012
12646SOL     OW39659   5.239   7.298   8.766 -0.5768  0.4236  0.5141
12646SOL    HW139660   5.157   7.335   8.799 -0.5947  0.3125  0.5964
12646SOL    HW239661   5.302   7.369   8.773 -1.0530  1.0509 -1.1411
12647SOL     OW39662   8.308   1.102   8.199 -0.3080  1.0699 -0.3684
12647SOL    HW139663   8.255   1.022   8.200 -0.4899  1.1748 -0.9122
12647SOL    HW239664   8.398   1.071   8.189 -0.1799  0.8590  1.2474
12648SOL     OW39665   8.717   3.399   5.135 -0.4751 -0.1296 -0.0928
12648SOL    HW139666   8.674   3.415   5.219 -0.9736  1.6799 -0.6445
12648SOL    HW239667   8.655   3.345   5.086  0.0479 -1.6481  0.8514
12649SOL     OW39668   6.182   7.363   8.750  0.4999 -0.2027 -0.4269
12649SOL    HW139669   6.179   7.449   8.707 -3.3788 -1.0691 -2.3060
12649SOL    HW239670   6.252   7.371   8.814  1.4767  3.7644 -1.7056
12650SOL     OW39671   8.573   8.175   0.684  0.4210  0.1025  0.2319
12650SOL    HW139672   8.550   8.261   0.650 -0.0908 -0.2848 -0.4435
12650SOL    HW239673   8.580   8.120   0.606 -3.0123 -1.3639  0.7880
12651SOL     OW39674   6.655   8.588   2.434 -0.1651  0.1124  0.1694
12651SOL    HW139675   6.668   8.596   2.340  0.9434 -3.5342 -0.1503
12651SOL    HW239676   6.593   8.515   2.443  0.0392  0.1342  2.2462
12652SOL     OW39677   8.719   5.615   7.799  0.1299  0.0307  0.1392
12652SOL    HW139678   8.684   5.700   7.773 -1.4331 -0.0945  1.6598
12652SOL    HW239679   8.798   5.636   7.850  0.8938  0.4325 -1.1543
12653SOL     OW39680   5.550   0.535   2.013 -0.0717 -0.1808 -0.1385
12653SOL    HW139681   5.602   0.553   2.091 -0.5419  0.0709  0.1203
12653SOL    HW239682   5.477   0.483   2.044 -0.3810  0.1100 -0.3728
12654SOL     OW39683   1.199   4.241   1.100  0.5489  0.0915 -0.5545
12654SOL    HW139684   1.244   4.301   1.040 -0.0601  0.6487 -0.4565
12654SOL    HW239685   1.129   4.293   1.139  1.2665 -0.0976  1.0644
12655SOL     OW39686   0.025   9.032   8.012 -0.2114 -0.6495 -0.5558
12655SOL    HW139687  -0.049   9.084   7.980  0.9663  1.3741 -0.2335
12655SOL    HW239688  -0.008   8.988   8.089 -1.5942 -1.3218 -1.4991
12656SOL     OW39689   8.594   8.983   1.522 -0.0046 -0.3038  0.7550
12656SOL    HW139690   8.500   8.995   1.505  0.3267  0.7108 -0.5077
12656SOL    HW239691   8.606   8.888   1.517 -0.9763 -0.4604  1.0197
12657SOL     OW39692   7.083   8.550   5.206  0.5360 -0.1315 -0.0805
12657SOL    HW139693   7.036   8.468   5.218 -0.6945  0.3523 -1.3771
12657SOL    HW239694   7.053   8.584   5.122  0.8141  1.7771  0.5285
12658SOL     OW39695   9.031   7.524   1.428 -0.0046  0.1222  0.2394
12658SOL    HW139696   9.028   7.568   1.343 -2.0387 -1.1766 -0.4365
12658SOL    HW239697   9.087   7.448   1.414  0.3155  0.3472  0.2929
12659SOL     OW39698   3.608   0.443   0.072 -0.2634  0.0876 -0.2875
12659SOL    HW139699   3.560   0.403   0.144  1.7434 -1.8825  0.0723
12659SOL    HW239700   3.545   0.447   0.000 -1.3637 -0.9963  0.5780
12660SOL     OW39701   8.023   0.444   5.803  0.1940  0.5484 -0.0511
12660SOL    HW139702   7.936   0.405   5.793  0.7204 -0.6713 -0.0226
12660SOL    HW239703   8.053   0.457   5.713 -0.0186  0.9828 -0.0608
12661SOL     OW39704   2.633   3.705   8.366 -0.4552  0.5162 -0.0693
12661SOL    HW139705   2.712   3.658   8.343 -1.5236 -0.9718 -0.8792
12661SOL    HW239706   2.638   3.719   8.460  1.0764  1.0964 -0.2170
12662SOL     OW39707   2.579   8.768   7.253  0.3281 -0.3516 -0.0381
12662SOL    HW139708   2.543   8.744   7.338 -0.1871  0.0802 -0.1321
12662SOL    HW239709   2.672   8.743   7.258  0.0892 -1.1930  0.3060
12663SOL     OW39710   5.272   4.096   9.537 -0.1484 -0.4512 -0.4003
12663SOL    HW139711   5.182   4.126   9.524 -0.3410 -1.3169 -1.1187
12663SOL    HW239712   5.264   4.013   9.583  0.3434  0.0379  0.6020
12664SOL     OW39713   5.027   3.644   9.675 -0.5759  0.5564 -0.1345
12664SOL    HW139714   5.043   3.554   9.649 -1.3551  0.5760 -0.7093
12664SOL    HW239715   5.035   3.695   9.594  0.0527  1.0437  0.2151
12665SOL     OW39716   6.117   7.007   0.992  0.4393  0.3088 -0.1010
12665SOL    HW139717   6.173   7.007   0.914  0.5044 -1.4714 -0.0877
12665SOL    HW239718   6.056   7.079   0.978  0.0978 -0.3008 -2.0715
12666SOL     OW39719   9.641   9.602   6.555 -0.1204  0.3028 -0.0375
12666SOL    HW139720   9.686   9.563   6.480  0.6249  1.6122 -0.2889
12666SOL    HW239721   9.696   9.579   6.630  0.6813  1.3806 -0.2683
12667SOL     OW39722   6.086   1.954   9.192 -0.0482 -0.4577  0.0492
12667SOL    HW139723   6.124   1.904   9.120 -0.2143 -0.8687  0.2386
12667SOL    HW239724   5.992   1.959   9.171  0.2390  1.4763 -0.9654
12668SOL     OW39725   0.890   7.314   1.528 -0.2767  0.2543 -0.0357
12668SOL    HW139726   0.925   7.225   1.539 -0.5600  0.1256 -0.1809
12668SOL    HW239727   0.810   7.315   1.582  0.2790  0.7418  0.8058
12669SOL     OW39728   7.826   3.259   1.984 -0.0499 -0.6326 -0.0383
12669SOL    HW139729   7.787   3.342   1.957 -1.0128 -1.8821 -2.8429
12669SOL    HW239730   7.779   3.234   2.063  1.3841  2.1822  1.8890
12670SOL     OW39731   7.510   3.032   6.643 -0.5044 -0.6273  0.0934
12670SOL    HW139732   7.523   3.021   6.737 -0.6054 -1.0667  0.0584
12670SOL    HW239733   7.561   2.961   6.604  0.9660  0.5838 -0.2648
12671SOL     OW39734   2.127   7.781   1.870 -0.5460  0.5919  0.2458
12671SOL    HW139735   2.095   7.871   1.878  0.3540  0.8432  1.2668
12671SOL    HW239736   2.200   7.787   1.808  1.9074  1.2977  2.9691
12672SOL     OW39737   8.879   4.147   3.522 -0.1750  0.6149 -0.1129
12672SOL    HW139738   8.967   4.182   3.514 -0.3523  1.5320  1.4361
12672SOL    HW239739   8.890   4.052   3.514  0.7064  0.8197 -1.5566
12673SOL     OW39740   2.718   1.875   7.163  0.1771 -0.5638 -0.2836
12673SOL    HW139741   2.765   1.943   7.115 -1.4330  0.2680 -0.7806
12673SOL    HW239742   2.727   1.796   7.110  0.9687 -0.4136 -0.3761
12674SOL     OW39743   8.196   3.321   0.217  0.1146  0.0350  0.3377
12674SOL    HW139744   8.245   3.239   0.207 -0.1812 -0.0277 -0.7420
12674SOL    HW239745   8.264   3.388   0.229  0.4247 -0.1786 -0.1933
12675SOL     OW39746   1.479   8.277   4.341  0.1959 -0.3585  0.1436
12675SOL    HW139747   1.493   8.280   4.436  0.5933  2.4626  0.0911
12675SOL    HW239748   1.400   8.328   4.326  1.4590  1.3526 -1.1677
12676SOL     OW39749   7.334   3.440   5.120  0.1425 -0.1609  0.2106
12676SOL    HW139750   7.290   3.454   5.036  0.4473 -1.3459 -0.1623
12676SOL    HW239751   7.375   3.525   5.139  0.6266 -0.0591 -1.1687
12677SOL     OW39752   4.194   7.618   5.285  0.0520  0.0080 -0.0796
12677SOL    HW139753   4.186   7.632   5.380  0.9830  0.4821 -0.0590
12677SOL    HW239754   4.281   7.652   5.264  1.0271 -2.6495 -0.6333
12678SOL     OW39755   8.556   0.677   6.609 -0.4221 -0.2107  0.1198
12678SOL    HW139756   8.505   0.638   6.538 -0.1925 -0.9059  0.3294
12678SOL    HW239757   8.491   0.719   6.665 -0.5343  1.0644 -0.9333
12679SOL     OW39758   7.162   8.518   0.469 -0.1258  0.3430 -0.1933
12679SOL    HW139759   7.257   8.518   0.476 -0.2353 -0.0476  2.2545
12679SOL    HW239760   7.134   8.598   0.516 -1.0419 -0.6590  1.0486
12680SOL     OW39761   7.390   6.565   4.559 -0.3512  0.3596 -0.5259
12680SOL    HW139762   7.400   6.636   4.623 -0.2492 -0.1468  0.0272
12680SOL    HW239763   7.478   6.552   4.523 -0.0406 -0.5489  0.5249
12681SOL     OW39764   2.040   5.878   9.414 -0.1752 -0.4465  0.3813
12681SOL    HW139765   2.053   5.795   9.367  2.7482 -0.5450  1.1623
12681SOL    HW239766   2.107   5.936   9.377 -1.1691  1.0983  0.9406
12682SOL     OW39767   3.480   4.453   1.359  0.1344 -0.0402  0.2432
12682SOL    HW139768   3.497   4.368   1.401 -1.1882 -0.5738 -0.2680
12682SOL    HW239769   3.424   4.432   1.285  1.7215  0.9986 -1.3230
12683SOL     OW39770   1.078   1.550   3.657  0.1929  0.4082 -0.3554
12683SOL    HW139771   1.150   1.601   3.618  0.1350  0.1924 -0.7471
12683SOL    HW239772   1.003   1.566   3.600  0.2667 -0.4015 -0.6893
12684SOL     OW39773   4.979   8.060   7.781  0.3644  0.0885  0.2215
12684SOL    HW139774   5.006   8.101   7.699 -0.0134  0.3534  0.2294
12684SOL    HW239775   5.057   8.064   7.836  1.3589 -2.1007 -0.8668
12685SOL     OW39776   2.753   0.712   8.202 -0.0108  0.5027  0.5656
12685SOL    HW139777   2.797   0.778   8.256  2.1910  1.1763 -1.8209
12685SOL    HW239778   2.722   0.762   8.126  0.1892 -0.9252 -0.4823
12686SOL     OW39779   6.232   7.412   4.622 -0.8692 -0.0629 -0.2274
12686SOL    HW139780   6.156   7.383   4.673 -0.4852 -1.4809 -0.3994
12686SOL    HW239781   6.197   7.429   4.534 -1.0799 -0.2730 -0.1869
12687SOL     OW39782   7.471   7.689   5.758  0.0614 -0.2853 -0.4462
12687SOL    HW139783   7.385   7.698   5.719 -0.5205  0.3700  0.9177
12687SOL    HW239784   7.530   7.678   5.684 -0.8705  1.7773 -1.5671
12688SOL     OW39785   2.690   1.008   6.806  0.7716 -0.3106 -0.1542
12688SOL    HW139786   2.662   1.032   6.717  1.2533  0.1562 -0.1846
12688SOL    HW239787   2.763   1.067   6.824  1.2098 -0.9726  0.2366
12689SOL     OW39788   0.685   2.500   8.480 -0.4594  0.3938  0.3703
12689SOL    HW139789   0.635   2.428   8.443 -1.6006  1.6576 -0.6650
12689SOL    HW239790   0.766   2.502   8.429 -0.0705 -0.5982  0.9172
12690SOL     OW39791   5.769   6.088   0.086 -0.8591  0.4919  0.3538
12690SOL    HW139792   5.826   6.160   0.113 -0.7208  0.8698 -0.8739
12690SOL    HW239793   5.817   6.009   0.107 -0.9464  0.7513  1.5808
12691SOL     OW39794   4.632   3.186   8.058 -0.5619 -0.3718 -0.3354
12691SOL    HW139795   4.587   3.143   8.131 -0.0866  2.0483  1.5135
12691SOL    HW239796   4.563   3.212   7.998 -1.0860 -1.3471 -0.1724
12692SOL     OW39797   7.830   8.377   7.677 -0.4434 -0.4364  0.2378
12692SOL    HW139798   7.850   8.287   7.702 -3.2800 -0.6883  2.0233
12692SOL    HW239799   7.819   8.374   7.582 -0.4456 -1.9442  0.2658
12693SOL     OW39800   7.612   3.951   7.840  0.2337 -0.4010 -0.6083
12693SOL    HW139801   7.517   3.958   7.840  0.3326  3.9435 -1.1769
12693SOL    HW239802   7.635   3.934   7.749  0.0438 -0.9251 -0.5623
12694SOL     OW39803   8.816   4.347   1.052 -0.1643 -0.2377  0.1333
12694SOL    HW139804   8.817   4.441   1.040  0.2469 -0.1955  0.4535
12694SOL    HW239805   8.728   4.328   1.084 -0.8318 -0.1985 -1.5791
12695SOL     OW39806   4.343   1.675   9.551 -0.2183 -0.2725  0.0324
12695SOL    HW139807   4.257   1.632   9.551  0.4390 -1.6523  0.6923
12695SOL    HW239808   4.340   1.732   9.474 -1.7942 -0.1297  0.1504
12696SOL     OW39809   6.700   5.216   4.170 -0.7106  0.1769  0.4464
12696SOL    HW139810   6.628   5.275   4.192 -0.8417 -0.5244  1.9877
12696SOL    HW239811   6.771   5.241   4.229  0.0099  0.2440 -0.4196
12697SOL     OW39812   5.352   6.524   1.415 -0.3357 -0.0804  0.1888
12697SOL    HW139813   5.409   6.448   1.402 -0.1021 -0.1960  1.7467
12697SOL    HW239814   5.409   6.590   1.454 -0.5875  0.8460 -0.9640
12698SOL     OW39815   2.405   5.094   0.442 -0.6856  0.7027 -0.4150
12698SOL    HW139816   2.427   5.112   0.350 -0.3312  0.0442 -0.4592
12698SOL    HW239817   2.404   5.181   0.483  0.9138  0.8572 -0.6504
12699SOL     OW39818   9.557   4.022   7.650 -0.4997 -0.5973 -0.0657
12699SOL    HW139819   9.622   4.090   7.668 -1.2626  0.4674 -1.1911
12699SOL    HW239820   9.599   3.965   7.586  0.3377 -1.5293  1.2571
12700SOL     OW39821   8.520   4.996   2.826  0.1512  0.3435 -0.4602
12700SOL    HW139822   8.492   4.915   2.783 -0.6958  1.1842 -1.5663
12700SOL    HW239823   8.612   5.005   2.803  0.7411 -1.1853  1.1370
12701SOL     OW39824   7.506   7.819   7.129  0.2539 -0.2384 -0.0849
12701SOL    HW139825   7.488   7.823   7.035 -1.9259 -0.6922  0.2761
12701SOL    HW239826   7.420   7.808   7.170  1.3377 -2.2165  1.8456
12702SOL     OW39827   8.127   3.873   8.146 -0.6088  0.1844 -0.4897
12702SOL    HW139828   8.069   3.805   8.182 -0.4800 -1.5736 -3.2736
12702SOL    HW239829   8.075   3.953   8.150 -1.4618 -0.3936  1.2371
12703SOL     OW39830   9.072   8.504   6.737  0.1766 -0.2499 -0.0691
12703SOL    HW139831   8.983   8.522   6.707 -0.1531 -0.4464  0.7629
12703SOL    HW239832   9.060   8.457   6.819  1.0549 -0.2219  0.0803
12704SOL     OW39833   4.012   3.640   7.171  0.3267  0.0888  0.3117
12704SOL    HW139834   4.031   3.668   7.261  1.8831  1.7152 -0.4489
12704SOL    HW239835   4.030   3.546   7.171 -1.6503 -0.3449  2.1474
12705SOL     OW39836   6.291   1.589   4.079 -0.0160  0.4843 -0.2093
12705SOL    HW139837   6.349   1.553   4.011 -0.8566  2.1415 -1.8937
12705SOL    HW239838   6.351   1.632   4.140  0.7640 -1.0595  0.1834
12706SOL     OW39839   3.128   8.307   5.474 -0.3870  0.7426  0.2317
12706SOL    HW139840   3.221   8.324   5.489 -0.3133  1.6889 -1.0477
12706SOL    HW239841   3.085   8.339   5.553 -0.0160  4.9835 -1.0356
12707SOL     OW39842   3.257   0.518   2.995 -0.1348 -0.1106  0.2612
12707SOL    HW139843   3.184   0.580   2.997 -0.8808 -0.9528 -0.0445
12707SOL    HW239844   3.261   0.482   3.084 -0.5462 -0.5632  0.1021
12708SOL     OW39845   1.060   3.616   2.546 -0.0465  0.0704 -0.1239
12708SOL    HW139846   1.136   3.560   2.529 -0.4433 -0.5591  0.1441
12708SOL    HW239847   1.084   3.666   2.624  0.8982  1.3669 -1.1883
12709SOL     OW39848   9.665   9.309   7.003 -0.1483  0.0844  0.2802
12709SOL    HW139849   9.719   9.244   6.958 -1.1865 -0.0348 -0.8517
12709SOL    HW239850   9.625   9.262   7.076  0.0525 -0.2356  0.1819
12710SOL     OW39851   5.783   4.953   8.235 -0.4697 -0.1510  0.0194
12710SOL    HW139852   5.716   4.985   8.297  0.3477 -0.9154  1.3468
12710SOL    HW239853   5.775   4.858   8.239  0.5420 -0.2445  0.0222
12711SOL     OW39854   8.162   4.727   4.034 -0.3165  0.1883  0.3641
12711SOL    HW139855   8.205   4.795   3.982  0.2755 -1.1430 -1.0022
12711SOL    HW239856   8.068   4.739   4.016 -0.2401  0.7903  0.3463
12712SOL     OW39857   2.019   8.714   4.157 -0.2644 -0.2363 -0.4111
12712SOL    HW139858   1.972   8.689   4.236  1.3679  1.4139  1.1635
12712SOL    HW239859   2.109   8.728   4.186  1.0142 -2.0376 -3.0538
12713SOL     OW39860   7.176   0.526   8.571 -0.5243  0.2610 -0.0940
12713SOL    HW139861   7.234   0.589   8.527 -0.5431  0.5762  0.3286
12713SOL    HW239862   7.224   0.443   8.566 -0.0204  0.5222  0.2711
12714SOL     OW39863   4.826   3.521   2.752 -0.0595 -0.5017  0.0031
12714SOL    HW139864   4.750   3.577   2.772  0.8632  1.1626 -0.9077
12714SOL    HW239865   4.878   3.523   2.833  0.4874  0.8986 -0.3437
12715SOL     OW39866   4.172   0.293   3.473 -0.4721 -0.4736 -0.3107
12715SOL    HW139867   4.231   0.272   3.401  0.8092  0.8243  0.3224
12715SOL    HW239868   4.210   0.249   3.550  0.0081  0.8091  0.2077
12716SOL     OW39869   0.385   8.183   0.644  0.6494 -0.0992  0.5940
12716SOL    HW139870   0.347   8.230   0.718 -0.0416  1.2571 -0.5868
12716SOL    HW239871   0.311   8.139   0.603  0.5430  1.3108 -0.8163
12717SOL     OW39872   7.825   7.515   4.092  0.1022 -0.2001  0.1549
12717SOL    HW139873   7.758   7.529   4.025 -0.8659 -1.1057  0.8917
12717SOL    HW239874   7.781   7.539   4.174  1.0545  0.2656  0.5336
12718SOL     OW39875   4.377   0.811   6.860 -0.2051  0.6997  0.4201
12718SOL    HW139876   4.298   0.757   6.853 -0.1573  0.5003  1.2591
12718SOL    HW239877   4.345   0.901   6.864 -0.3616  0.6484  0.3202
12719SOL     OW39878   6.179   0.760   8.704 -0.4876  0.3083  0.3016
12719SOL    HW139879   6.150   0.848   8.729  1.3448  0.4592  2.2177
12719SOL    HW239880   6.130   0.701   8.762 -1.0774  0.1161 -0.3809
12720SOL     OW39881   7.550   1.879   6.147 -0.3063  0.1488 -0.3750
12720SOL    HW139882   7.465   1.862   6.187 -0.0216  0.3817  0.3449
12720SOL    HW239883   7.553   1.973   6.134 -0.6277  0.0125 -1.4900
12721SOL     OW39884   9.434   5.038   0.047  0.0361  0.3129 -0.3738
12721SOL    HW139885   9.469   5.057  -0.040  2.1768  1.4982  0.6556
12721SOL    HW239886   9.508   5.050   0.105 -1.7494  1.3074  1.8357
12722SOL     OW39887   9.307   6.595   2.581 -0.6713 -0.8255  0.7640
12722SOL    HW139888   9.226   6.609   2.532 -0.4471 -1.0055  0.3432
12722SOL    HW239889   9.313   6.672   2.639 -0.1345  0.2073 -0.6032
12723SOL     OW39890   1.689   8.211   8.426  0.1836 -0.1705  0.0316
12723SOL    HW139891   1.596   8.192   8.434  0.2188 -0.4906 -0.2934
12723SOL    HW239892   1.694   8.305   8.411 -0.0478 -0.0456  0.7011
12724SOL     OW39893   6.984   0.556   7.500 -0.4529 -0.1798 -0.7299
12724SOL    HW139894   6.974   0.651   7.510  1.7522  0.0342  0.0263
12724SOL    HW239895   6.969   0.521   7.588  0.6215 -0.3115 -0.5913
12725SOL     OW39896   0.425   1.337   7.616  0.3331 -0.1348  0.0409
12725SOL    HW139897   0.464   1.421   7.593  1.3450 -0.2642  1.1809
12725SOL    HW239898   0.464   1.314   7.700 -1.0999 -1.0102  0.5093
12726SOL     OW39899   2.078   6.710   3.928 -0.4497 -0.1436 -0.0100
12726SOL    HW139900   2.120   6.783   3.973  0.3022 -0.8881  0.5430
12726SOL    HW239901   2.139   6.687   3.858 -0.5157 -0.4464  0.0281
12727SOL     OW39902   4.231   4.709   5.812  0.1226  0.0810  0.4887
12727SOL    HW139903   4.162   4.747   5.866  0.6500  0.2298  1.0759
12727SOL    HW239904   4.255   4.780   5.751 -0.1380  0.0750  0.3772
12728SOL     OW39905   9.270   9.518   8.586 -0.1856  0.4827  0.8720
12728SOL    HW139906   9.301   9.593   8.535 -0.8693  0.0552 -0.1994
12728SOL    HW239907   9.299   9.442   8.537 -0.0147  0.0419  1.6407
12729SOL     OW39908   8.568   8.434   6.284  0.2427 -0.0446 -0.3847
12729SOL    HW139909   8.556   8.410   6.192  2.0734 -0.6068 -0.5030
12729SOL    HW239910   8.597   8.525   6.282  0.3663 -0.0842 -0.3545
12730SOL     OW39911   1.488   1.368   8.431  0.2395 -0.2716 -0.4407
12730SOL    HW139912   1.538   1.435   8.385 -0.6588  0.7076 -0.0522
12730SOL    HW239913   1.407   1.360   8.380 -0.7779  0.8467  0.9090
12731SOL     OW39914   9.158   3.456   1.050 -0.0959  0.3208  0.0202
12731SOL    HW139915   9.166   3.521   1.120  0.1000  1.8517 -1.3571
12731SOL    HW239916   9.247   3.448   1.015 -0.3500  0.2377 -0.6148
12732SOL     OW39917   1.431   3.445   7.443  0.2903  0.4505  0.0367
12732SOL    HW139918   1.483   3.519   7.474  0.7788  0.3061 -0.4099
12732SOL    HW239919   1.495   3.375   7.430 -0.1123  0.0660  0.0928
12733SOL     OW39920   1.122   0.083   9.213  0.0426 -0.1466  1.0348
12733SOL    HW139921   1.175   0.009   9.182 -0.7513 -0.9215  1.4526
12733SOL    HW239922   1.096   0.057   9.301 -1.5183 -0.0685  0.6215
12734SOL     OW39923   7.344   7.707   5.987  0.2360  0.1306  0.1308
12734SOL    HW139924   7.395   7.700   5.907 -0.8230  0.1833 -0.5677
12734SOL    HW239925   7.410   7.710   6.057  1.1970  0.7234 -0.7662
12735SOL     OW39926   5.611   2.495   9.607 -0.5919  0.1729  0.6647
12735SOL    HW139927   5.648   2.503   9.695 -0.8816  0.4812  0.7648
12735SOL    HW239928   5.659   2.560   9.555  1.2890 -1.6486 -0.0241
12736SOL     OW39929   5.453   3.582   0.506  0.2206 -0.1098 -0.1259
12736SOL    HW139930   5.385   3.538   0.455  0.2218  0.6065 -0.7641
12736SOL    HW239931   5.405   3.634   0.571  0.1673  0.1054 -0.3359
12737SOL     OW39932   3.249   0.013   5.361  0.4091 -0.2832  0.0072
12737SOL    HW139933   3.207   0.004   5.275 -1.1158 -0.0449  0.6866
12737SOL    HW239934   3.183   0.056   5.415  1.6221  0.2418  1.1096
12738SOL     OW39935   7.693   0.565   6.351  0.5653 -0.4782 -1.1164
12738SOL    HW139936   7.643   0.605   6.280  0.9835 -2.3388 -2.5308
12738SOL    HW239937   7.781   0.554   6.316  1.0461 -0.5326  0.0494
12739SOL     OW39938   2.300   7.346   6.887  0.5772 -0.5769 -0.0454
12739SOL    HW139939   2.230   7.287   6.915  1.0748 -0.7011  1.0124
12739SOL    HW239940   2.376   7.289   6.873  1.4891 -0.1007  2.4336
12740SOL     OW39941   2.337   0.871   7.614 -0.0612  0.0712  0.2967
12740SOL    HW139942   2.334   0.964   7.591  0.1644  0.5692  2.1441
12740SOL    HW239943   2.276   0.829   7.553 -0.1051  1.3957 -0.6207
12741SOL     OW39944   6.220   0.529   6.641 -0.5338  0.1208 -0.3745
12741SOL    HW139945   6.304   0.573   6.626  0.3587 -2.0498 -2.3493
12741SOL    HW239946   6.157   0.582   6.593  0.9525 -1.9566 -5.2118
12742SOL     OW39947   2.135   9.283   3.271  0.5136 -0.0151 -0.0620
12742SOL    HW139948   2.211   9.226   3.283  0.4440 -0.2352 -0.6668
12742SOL    HW239949   2.092   9.283   3.357  0.4873 -0.9218 -0.0656
12743SOL     OW39950   7.540   5.867   4.303 -0.0715  0.8757 -0.2910
12743SOL    HW139951   7.536   5.780   4.343  4.0878  0.4694 -0.3387
12743SOL    HW239952   7.551   5.927   4.377  2.8830  0.6083 -0.3815
12744SOL     OW39953   1.132   5.498   6.975 -0.1105 -0.1069  0.2106
12744SOL    HW139954   1.094   5.423   6.930  0.7758  0.0850 -0.9181
12744SOL    HW239955   1.075   5.572   6.951  1.5539  0.4254 -2.5169
12745SOL     OW39956   4.534   8.766   1.804  0.1186  0.5764  0.9079
12745SOL    HW139957   4.629   8.770   1.814  0.1937 -1.9088  1.8795
12745SOL    HW239958   4.499   8.803   1.885  0.3191 -0.2426  1.3784
12746SOL     OW39959   9.313   4.354   0.456 -0.1311  0.3770 -0.2532
12746SOL    HW139960   9.261   4.294   0.511  0.7498 -1.3557 -1.2318
12746SOL    HW239961   9.273   4.347   0.369  1.7924 -1.1893 -1.0916
12747SOL     OW39962   5.326   8.257   4.628 -0.0280 -0.1500 -0.3777
12747SOL    HW139963   5.288   8.209   4.702 -0.0208  1.5897  0.8211
12747SOL    HW239964   5.420   8.238   4.635 -0.1056 -0.5486 -0.3661
12748SOL     OW39965   6.574   5.805   6.297  0.2588  0.0664 -0.1338
12748SOL    HW139966   6.511   5.795   6.369 -0.0858 -0.8450 -0.5506
12748SOL    HW239967   6.629   5.879   6.324  0.5451 -0.6534  1.3769
12749SOL     OW39968   7.431   7.474   3.203  0.5575 -0.2977  0.0610
12749SOL    HW139969   7.474   7.558   3.217  1.6269 -0.9215  0.7121
12749SOL    HW239970   7.453   7.450   3.113 -1.5696  1.0899 -0.8979
12750SOL     OW39971   1.331   4.779   3.130 -0.1616 -0.1402  1.0947
12750SOL    HW139972   1.337   4.791   3.225 -0.3335  1.5085  0.9345
12750SOL    HW239973   1.272   4.849   3.101 -1.4506 -1.6398 -0.0507
12751SOL     OW39974   4.059   6.614   4.948  0.0513 -0.0038  0.2635
12751SOL    HW139975   3.992   6.676   4.975  0.6073  0.5168  0.4570
12751SOL    HW239976   4.074   6.634   4.855  0.8236  0.7183  0.5326
12752SOL     OW39977   5.559   4.986   2.492  0.4562  0.5587  0.1660
12752SOL    HW139978   5.517   4.919   2.438  1.1530  0.2376  0.0114
12752SOL    HW239979   5.538   5.068   2.448  0.8118  0.3171 -0.4688
12753SOL     OW39980   8.035   0.597   4.456  0.3172  0.0992  0.2015
12753SOL    HW139981   8.065   0.680   4.492 -0.1204  0.0818  0.6238
12753SOL    HW239982   7.995   0.552   4.530 -1.9673  0.7058 -0.5774
12754SOL     OW39983   8.742   9.439   6.610  0.0031 -0.1673  0.0187
12754SOL    HW139984   8.656   9.426   6.569 -0.5003  1.1885  0.5699
12754SOL    HW239985   8.783   9.353   6.608 -2.2200 -1.3914  1.6657
12755SOL     OW39986   3.379   3.472   6.186 -0.4902  0.3241 -0.3598
12755SOL    HW139987   3.346   3.422   6.111 -0.7869 -0.1991  0.1096
12755SOL    HW239988   3.420   3.406   6.242 -0.9617  0.5954  0.3122
12756SOL     OW39989   6.106   7.521   5.677 -0.5000  0.1604 -0.0554
12756SOL    HW139990   6.090   7.478   5.761 -1.1297 -0.1007 -0.3046
12756SOL    HW239991   6.200   7.511   5.663 -0.6343 -1.2196 -0.1426
12757SOL     OW39992   1.346   6.596   8.026  0.4463  0.3081  0.2719
12757SOL    HW139993   1.298   6.664   7.979 -1.3223  0.6773  2.4763
12757SOL    HW239994   1.350   6.626   8.117  0.7663 -1.9051  1.0722
12758SOL     OW39995   0.729   3.196   1.812  0.0589  0.4048  0.2602
12758SOL    HW139996   0.774   3.273   1.777  1.0070  1.0935  2.8250
12758SOL    HW239997   0.651   3.188   1.756  0.5340  2.4875 -0.8280
12759SOL     OW39998   5.022   6.201   7.838 -0.0803  0.3980 -0.0082
12759SOL    HW139999   4.928   6.204   7.856  0.1878 -1.6560  2.3114
12759SOL    HW240000   5.062   6.248   7.912  0.7552  1.1276 -0.8887
12760SOL     OW40001   0.153   3.236   5.568  0.4284  0.0927  0.0838
12760SOL    HW140002   0.171   3.302   5.634 -0.3649  0.8885 -0.4701
12760SOL    HW240003   0.063   3.208   5.586  0.2698  0.1845 -0.5335
12761SOL     OW40004   8.001   8.480   0.759 -0.0860  0.3265  0.1088
12761SOL    HW140005   7.960   8.565   0.742 -0.0212  0.2631 -0.3802
12761SOL    HW240006   8.093   8.501   0.777  0.5803  0.1675 -2.7106
12762SOL     OW40007   6.317   8.826   3.115 -0.1580 -1.0639 -0.2795
12762SOL    HW140008   6.397   8.878   3.122 -0.8934 -0.1155  2.4205
12762SOL    HW240009   6.253   8.886   3.076 -0.1298 -1.0240 -0.2655
12763SOL     OW40010   7.073   9.119   8.943  0.2208 -0.1666 -0.1461
12763SOL    HW140011   7.139   9.165   8.994  0.0701  0.1049 -0.1903
12763SOL    HW240012   7.053   9.179   8.871  0.6671 -0.6839 -0.7120
12764SOL     OW40013   0.481   6.945   3.944  0.2827 -0.0250  0.0389
12764SOL    HW140014   0.552   6.920   3.886  0.2230 -1.1292  0.4308
12764SOL    HW240015   0.403   6.904   3.907  0.1435 -0.2511  0.5707
12765SOL     OW40016   5.529   3.502   8.424  0.2408  0.1203  0.4648
12765SOL    HW140017   5.562   3.441   8.490  0.4777 -2.3236 -1.7789
12765SOL    HW240018   5.607   3.535   8.379 -0.0301 -0.2230 -0.2661
12766SOL     OW40019   0.285   7.477   8.713 -0.1599  0.2251  0.3260
12766SOL    HW140020   0.326   7.559   8.741  0.7961  0.2474 -1.0508
12766SOL    HW240021   0.339   7.408   8.751  0.4484  0.2522 -0.4719
12767SOL     OW40022   5.796   0.068   6.970 -0.6968 -0.1765 -0.3515
12767SOL    HW140023   5.713   0.023   6.951 -1.1945  0.8819 -0.7806
12767SOL    HW240024   5.827   0.097   6.884  0.2719 -0.7991 -0.2223
12768SOL     OW40025   3.720   7.998   0.067  0.0615 -0.0572  1.2036
12768SOL    HW140026   3.663   7.965   0.137 -1.1251 -1.0454 -0.1738
12768SOL    HW240027   3.807   8.000   0.107 -0.8653  1.3573  3.3299
12769SOL     OW40028   0.973   4.233   4.679  0.2762  0.2313 -0.1846
12769SOL    HW140029   0.924   4.265   4.755  0.0431  1.0423 -0.6636
12769SOL    HW240030   0.916   4.252   4.604  0.6586 -0.2315 -0.6022
12770SOL     OW40031   8.669   0.181   4.883 -0.1040 -0.1897  0.6034
12770SOL    HW140032   8.688   0.121   4.812  0.9124 -0.4377  1.0697
12770SOL    HW240033   8.728   0.255   4.870  0.7242 -0.6325  1.6549
12771SOL     OW40034   5.529   6.368   2.253 -0.0613 -0.4182  0.1332
12771SOL    HW140035   5.573   6.313   2.188 -0.4615 -0.5367 -0.0344
12771SOL    HW240036   5.600   6.397   2.311  0.1052 -1.4110  0.4493
12772SOL     OW40037   1.643   3.040   2.705 -0.1838 -0.5142  0.4196
12772SOL    HW140038   1.623   2.946   2.697 -1.2613 -0.2265 -0.4270
12772SOL    HW240039   1.578   3.073   2.766 -0.8507 -0.0144 -0.5415
12773SOL     OW40040   8.142   4.229   8.691 -0.3016  0.3868  0.2332
12773SOL    HW140041   8.073   4.277   8.736 -0.9296 -0.6366  0.4060
12773SOL    HW240042   8.094   4.169   8.632  0.3445 -1.4810  1.5169
12774SOL     OW40043   7.668   9.599   5.404  0.0920  0.6043 -0.2675
12774SOL    HW140044   7.616   9.531   5.360 -0.9609  1.1918  0.0487
12774SOL    HW240045   7.617   9.679   5.395  1.4990  1.4619 -0.9580
12775SOL     OW40046   3.765   2.191   2.329  0.3761 -0.3467 -0.6594
12775SOL    HW140047   3.706   2.127   2.290 -1.1570  0.7710 -0.2374
12775SOL    HW240048   3.765   2.264   2.267 -0.2879  0.4891  0.2970
12776SOL     OW40049   3.559   2.643   6.132  0.0021 -0.1697 -0.1122
12776SOL    HW140050   3.502   2.599   6.069 -1.5868  1.5144  0.0491
12776SOL    HW240051   3.506   2.715   6.166  2.1905  1.3831  0.2276
12777SOL     OW40052   0.705   9.591   3.638  0.0765  0.4151  0.1963
12777SOL    HW140053   0.768   9.662   3.642  0.6653 -0.1360  3.7346
12777SOL    HW240054   0.744   9.521   3.691 -2.6551 -0.6579  0.9694
12778SOL     OW40055   8.640   1.404   9.515  0.0797  0.2267  0.7891
12778SOL    HW140056   8.653   1.332   9.578 -0.6535  0.1518  0.8553
12778SOL    HW240057   8.705   1.387   9.447  1.3890  0.7114  1.8621
12779SOL     OW40058   4.916   0.696   1.645  0.1721 -0.1971  1.0397
12779SOL    HW140059   4.831   0.739   1.638  0.1015 -0.1589  2.0134
12779SOL    HW240060   4.920   0.665   1.736  0.1741 -2.3646  0.3615
12780SOL     OW40061   9.365   9.671   6.200 -0.1458  0.6517  0.5918
12780SOL    HW140062   9.435   9.736   6.195  1.4063 -0.9370  0.7622
12780SOL    HW240063   9.402   9.600   6.251 -1.2492 -1.0385 -0.8573
12781SOL     OW40064   4.218   6.682   4.276  0.3466  0.2689  0.1891
12781SOL    HW140065   4.252   6.752   4.332  0.1859 -0.1098  0.7777
12781SOL    HW240066   4.248   6.704   4.188  2.9472 -0.5503  0.7783
12782SOL     OW40067   8.817   2.308   2.765 -0.4649 -0.2600  0.2214
12782SOL    HW140068   8.828   2.295   2.671  0.8071  0.7835  0.1884
12782SOL    HW240069   8.734   2.355   2.774 -1.7900 -2.4027 -0.1478
12783SOL     OW40070   6.917   7.546   1.794 -0.1538 -0.5967  0.0649
12783SOL    HW140071   6.978   7.499   1.737  0.6467 -0.4899  0.8227
12783SOL    HW240072   6.942   7.638   1.785 -1.3211 -0.3475 -0.9385
12784SOL     OW40073   4.776   1.428   7.412 -0.2137  0.5181  0.1270
12784SOL    HW140074   4.762   1.453   7.503  1.2936  2.4337 -0.1039
12784SOL    HW240075   4.848   1.365   7.414 -1.0359 -0.4425  0.3332
12785SOL     OW40076   3.119   2.170   3.230 -0.2098  0.9930  0.4659
12785SOL    HW140077   3.165   2.088   3.212  0.5972  1.7935 -1.3642
12785SOL    HW240078   3.084   2.197   3.145  0.5323  3.1072  0.7718
12786SOL     OW40079   6.959   9.170   4.149 -0.1128 -0.4304 -0.0014
12786SOL    HW140080   6.870   9.203   4.142  0.6330  1.4343 -1.5422
12786SOL    HW240081   7.004   9.233   4.205  0.2628 -1.3375  0.7426
12787SOL     OW40082   8.286   7.244   0.924  0.1949  0.7569  0.4125
12787SOL    HW140083   8.325   7.260   0.838  1.1067 -0.6974  0.5270
12787SOL    HW240084   8.192   7.241   0.908  0.3881 -4.4552 -1.5977
12788SOL     OW40085   8.096   0.288   2.351  0.3342 -0.1589 -0.1949
12788SOL    HW140086   8.014   0.237   2.350  0.6796 -0.7707  0.8786
12788SOL    HW240087   8.117   0.301   2.259 -0.5275 -0.7373 -0.4855
12789SOL     OW40088   3.506   4.707   3.650 -0.4736 -0.0319 -0.2688
12789SOL    HW140089   3.501   4.618   3.684  0.1853  0.5004  1.3104
12789SOL    HW240090   3.595   4.714   3.614 -0.4112  0.0881 -0.0925
12790SOL     OW40091   3.150   3.249   5.053  0.1632 -0.5419  0.5252
12790SOL    HW140092   3.185   3.333   5.084  0.2113 -0.5268  0.4299
12790SOL    HW240093   3.090   3.273   4.982  2.0508 -0.7399 -1.2177
12791SOL     OW40094   0.865   2.300   9.021 -0.4976 -0.2025 -0.2764
12791SOL    HW140095   0.827   2.349   9.094  0.7280 -0.5957  0.6720
12791SOL    HW240096   0.852   2.208   9.045  1.0469 -0.3469  0.1059
12792SOL     OW40097   5.565   3.207   5.888  0.5796  0.2723 -0.2421
12792SOL    HW140098   5.627   3.162   5.830 -0.1002  0.9963 -1.5877
12792SOL    HW240099   5.601   3.195   5.975  0.8461 -2.1901 -0.6067
12793SOL     OW40100   3.367   1.080   1.888  0.0899  0.4441  0.0626
12793SOL    HW140101   3.407   1.011   1.941 -0.2069  0.5633  0.4515
12793SOL    HW240102   3.440   1.135   1.861  0.4491 -0.5107 -1.0016
12794SOL     OW40103   4.918   1.041   5.048 -0.6900  0.3759 -0.2633
12794SOL    HW140104   4.874   0.985   5.112  0.2874  0.7017  0.7389
12794SOL    HW240105   4.928   1.125   5.093  0.5267  0.4376 -0.5999
12795SOL     OW40106   2.453   4.616   8.057  0.0117 -0.5513 -0.3378
12795SOL    HW140107   2.392   4.645   8.125  0.5923 -0.0318 -0.0347
12795SOL    HW240108   2.443   4.520   8.057 -0.5948 -0.4953 -0.0977
12796SOL     OW40109   4.553   4.150   5.081 -0.1394 -0.4853  0.7057
12796SOL    HW140110   4.524   4.126   5.169 -1.2692  0.8667  0.7162
12796SOL    HW240111   4.629   4.207   5.096 -0.2023 -0.4243  0.7916
12797SOL     OW40112   6.097   1.825   0.247 -0.6972 -0.8033 -0.1840
12797SOL    HW140113   6.161   1.879   0.295 -1.6201  0.1348  0.0240
12797SOL    HW240114   6.136   1.738   0.246  1.8201  0.2372 -2.3245
12798SOL     OW40115   3.614   6.601   8.608 -0.2616 -0.3253  0.0680
12798SOL    HW140116   3.684   6.649   8.564 -0.6961 -1.1554 -1.6418
12798SOL    HW240117   3.577   6.545   8.539 -0.3044 -2.4979  1.7638
12799SOL     OW40118   2.442   7.450   5.458  0.2666  0.4214  0.1953
12799SOL    HW140119   2.535   7.474   5.465  0.4810  0.2932 -1.8443
12799SOL    HW240120   2.414   7.441   5.549  2.6604 -1.1754  0.8812
12800SOL     OW40121   3.827   4.324   1.760 -0.3105 -0.2495  0.2295
12800SOL    HW140122   3.905   4.379   1.764 -0.2012 -0.1661 -1.9541
12800SOL    HW240123   3.855   4.240   1.798  0.6658 -0.0290  0.0294
12801SOL     OW40124   5.853   2.637   0.720 -0.2663 -0.5372  0.3858
12801SOL    HW140125   5.789   2.604   0.656  0.4941 -1.5709  0.1199
12801SOL    HW240126   5.803   2.651   0.800 -0.9927 -0.4592 -0.0772
12802SOL     OW40127   8.490   9.273   7.702  0.4383  0.4058  0.8668
12802SOL    HW140128   8.485   9.283   7.607 -1.0697 -2.0517  0.6036
12802SOL    HW240129   8.499   9.362   7.736  2.7056  1.2506 -1.6061
12803SOL     OW40130   8.666   7.600   1.639 -0.2370 -0.4236  0.2003
12803SOL    HW140131   8.750   7.564   1.668 -0.9419 -2.1659  0.2119
12803SOL    HW240132   8.615   7.609   1.719 -0.0334  0.7421  0.2067
12804SOL     OW40133   3.188   8.968   4.256 -0.0367  0.2710 -0.3740
12804SOL    HW140134   3.165   9.026   4.183 -2.1711 -0.3342 -0.2371
12804SOL    HW240135   3.172   9.021   4.335 -1.0657 -0.1621 -0.2766
12805SOL     OW40136   3.230   0.386   4.158 -0.1547 -0.0121 -0.2473
12805SOL    HW140137   3.275   0.306   4.132  1.1326  0.7317 -0.4305
12805SOL    HW240138   3.202   0.370   4.248  2.3956  0.2168  0.6695
12806SOL     OW40139   4.327   5.277   0.747 -0.0651 -0.2027  0.5150
12806SOL    HW140140   4.351   5.184   0.750  0.2340 -0.1197  0.7148
12806SOL    HW240141   4.240   5.278   0.707  0.4414 -0.4721 -0.6216
12807SOL     OW40142   2.603   7.331   7.284 -0.6850  0.3611 -0.0005
12807SOL    HW140143   2.571   7.410   7.327 -0.2280 -0.5924  2.2396
12807SOL    HW240144   2.527   7.275   7.275 -0.4890 -0.1357  1.2469
12808SOL     OW40145   4.774   0.838   7.277  0.1704 -0.4474 -0.0005
12808SOL    HW140146   4.766   0.780   7.352 -1.3180  1.5053  1.4710
12808SOL    HW240147   4.709   0.807   7.215 -1.1372  0.0411  1.0843
12809SOL     OW40148   3.111   6.863   6.943  0.0789  0.3705  0.7574
12809SOL    HW140149   3.045   6.857   7.012 -0.5419  1.1309  0.2432
12809SOL    HW240150   3.153   6.777   6.943 -1.7618 -0.5901  0.2689
12810SOL     OW40151   5.773   8.706   4.067 -0.0885  0.1392  0.0779
12810SOL    HW140152   5.685   8.690   4.101 -0.0681 -0.0677  0.0322
12810SOL    HW240153   5.812   8.766   4.131  0.0462 -0.4647  0.5699
12811SOL     OW40154   4.431   8.412   7.539  0.4271  0.2041 -0.0207
12811SOL    HW140155   4.376   8.456   7.604 -2.3549 -1.8281 -0.8211
12811SOL    HW240156   4.467   8.337   7.585 -0.5214 -0.5294 -0.4438
12812SOL     OW40157   6.397   2.978   3.981 -0.8935  0.0689  0.2490
12812SOL    HW140158   6.323   3.021   3.937 -0.2868  1.0198  0.1244
12812SOL    HW240159   6.422   2.908   3.921 -1.6735 -0.2407  0.2768
12813SOL     OW40160   8.801   1.100   1.767  0.1556  0.1391  0.0798
12813SOL    HW140161   8.797   1.126   1.859 -0.0275  1.2110 -0.2259
12813SOL    HW240162   8.883   1.050   1.760 -0.8298 -1.7795  1.2615
12814SOL     OW40163   3.160   4.668   1.575 -0.1120 -1.0237  0.3681
12814SOL    HW140164   3.076   4.625   1.586 -0.5606 -0.3011 -0.1193
12814SOL    HW240165   3.170   4.679   1.480  0.0438 -0.1843  0.4689
12815SOL     OW40166   1.139   5.585   0.637  0.2404  0.4200  0.1574
12815SOL    HW140167   1.220   5.626   0.607 -0.2312  2.2880  1.2515
12815SOL    HW240168   1.156   5.491   0.632  2.1363  0.7521 -0.5032
12816SOL     OW40169   5.111   8.986   3.115  0.1559  0.3292  0.3111
12816SOL    HW140170   5.174   9.018   3.179  0.2190 -0.3063  0.5733
12816SOL    HW240171   5.118   8.891   3.120 -1.2495  0.2262  0.7864
12817SOL     OW40172   7.590   4.102   4.407 -0.1179  0.0402 -0.0360
12817SOL    HW140173   7.618   4.175   4.463  1.2920 -0.5279  0.0464
12817SOL    HW240174   7.620   4.024   4.453 -1.2369 -0.5894 -0.3359
12818SOL     OW40175   3.221   7.975   7.006 -0.0847  0.5072  0.4498
12818SOL    HW140176   3.222   7.879   7.000 -3.1863  0.3593  0.9926
12818SOL    HW240177   3.304   7.996   7.049  1.2113 -1.8066 -0.7225
12819SOL     OW40178   4.797   7.195   7.270 -0.8577 -0.4791 -0.4542
12819SOL    HW140179   4.756   7.127   7.325  1.0954 -1.6303 -0.3435
12819SOL    HW240180   4.886   7.202   7.304  0.2908 -0.9141 -3.1680
12820SOL     OW40181   9.642   6.416   2.029  0.5248 -0.6170  0.1193
12820SOL    HW140182   9.598   6.491   1.988  2.0823  0.4887  0.3948
12820SOL    HW240183   9.570   6.359   2.057 -0.6788  0.3734 -0.8156
12821SOL     OW40184   3.690   2.206   0.884 -0.5091  0.1858  0.8485
12821SOL    HW140185   3.645   2.271   0.830 -1.4050 -0.8672  0.2610
12821SOL    HW240186   3.781   2.208   0.855 -0.6399  0.8081  0.4777
12822SOL     OW40187   8.575   1.076   1.635 -0.5013 -0.1253  0.1431
12822SOL    HW140188   8.522   1.006   1.674 -0.2317  0.3310  1.3675
12822SOL    HW240189   8.659   1.071   1.680  0.0637 -0.0099 -0.8746
12823SOL     OW40190   7.742   2.751   5.390 -0.6249 -0.2479  0.2333
12823SOL    HW140191   7.801   2.743   5.465 -2.5836 -0.3980  1.8528
12823SOL    HW240192   7.683   2.676   5.397 -0.4381 -0.6768 -1.9208
12824SOL     OW40193   9.489   6.746   0.981  0.3788 -0.2251 -0.0065
12824SOL    HW140194   9.425   6.678   0.960 -0.3877  0.1032  1.2190
12824SOL    HW240195   9.573   6.706   0.958 -0.0867 -1.4190  0.2541
12825SOL     OW40196   3.139   6.549   0.887 -0.1640  0.2562  0.2273
12825SOL    HW140197   3.119   6.475   0.945 -0.3130  0.1265  0.0103
12825SOL    HW240198   3.196   6.605   0.939  1.7302 -1.0525 -0.3228
12826SOL     OW40199   6.039   1.991   3.781  0.0189 -0.6296 -0.1561
12826SOL    HW140200   5.966   1.957   3.730 -0.1503 -0.6165  0.0761
12826SOL    HW240201   6.076   1.915   3.826 -0.1210 -0.5691  0.0635
12827SOL     OW40202   7.433   9.009   8.801 -0.1981 -0.2596 -0.2215
12827SOL    HW140203   7.365   9.076   8.805  0.5910  0.5789 -0.4202
12827SOL    HW240204   7.512   9.054   8.832  0.0148 -1.5565  1.2213
12828SOL     OW40205   5.395   7.797   9.472 -0.1233 -0.2299  0.4257
12828SOL    HW140206   5.446   7.828   9.547 -0.6117  0.9015  0.3066
12828SOL    HW240207   5.351   7.718   9.505  1.2315 -0.8944  0.6986
12829SOL     OW40208   3.722   2.653   1.900 -0.6764  0.1768 -0.0810
12829SOL    HW140209   3.778   2.658   1.822  0.2057  0.7039  0.5791
12829SOL    HW240210   3.689   2.563   1.899  1.5420 -0.7083  0.4439
12830SOL     OW40211   8.278   1.172   7.000  0.1128  0.0813  0.5232
12830SOL    HW140212   8.295   1.174   7.094  1.9106  0.3637  0.2299
12830SOL    HW240213   8.249   1.261   6.979 -2.5905 -0.5663  1.1340
12831SOL     OW40214   7.615   8.476   3.830  0.1691  0.5863 -0.4282
12831SOL    HW140215   7.627   8.405   3.892 -0.1145 -0.3589 -1.4300
12831SOL    HW240216   7.703   8.493   3.795  0.0393 -0.2237 -1.1873
12832SOL     OW40217   7.382   6.236   3.391 -0.0796  0.0266 -0.0907
12832SOL    HW140218   7.339   6.266   3.472  0.2824 -2.5576  1.1676
12832SOL    HW240219   7.474   6.258   3.403 -0.1198  0.1932 -0.0829
12833SOL     OW40220   7.497   4.451   8.556 -0.0097  0.2894 -0.1324
12833SOL    HW140221   7.441   4.405   8.619  1.2589 -0.2729  0.6170
12833SOL    HW240222   7.446   4.528   8.530 -1.3585 -0.4831  0.0898
12834SOL     OW40223   2.994   2.076   2.413 -0.2019 -0.1986  0.1527
12834SOL    HW140224   2.988   1.999   2.358  0.1045  1.1538 -1.9006
12834SOL    HW240225   2.930   2.137   2.376 -0.1928  0.6798  1.5009
12835SOL     OW40226   1.319   3.447   0.370  0.0097 -0.2157  0.2708
12835SOL    HW140227   1.371   3.462   0.449  0.2456  1.2508 -0.1312
12835SOL    HW240228   1.229   3.468   0.395 -0.1715 -1.3195  0.5711
12836SOL     OW40229   9.583   5.692   2.396  0.2014  0.1549  0.0757
12836SOL    HW140230   9.584   5.731   2.309  1.5615 -1.1441 -0.5272
12836SOL    HW240231   9.587   5.598   2.380 -0.2861 -0.1374  1.5404
12837SOL     OW40232   8.508   7.632   9.099  0.7012 -0.1630  0.4094
12837SOL    HW140233   8.470   7.719   9.113  0.3594 -0.3950  0.9547
12837SOL    HW240234   8.487   7.612   9.008 -0.1841 -0.1315  0.5949
12838SOL     OW40235   9.442   9.231   8.686  0.7159  1.0031 -0.0549
12838SOL    HW140236   9.497   9.259   8.613 -1.2533  0.3296 -1.9042
12838SOL    HW240237   9.447   9.303   8.749  2.6555  1.5083 -0.7104
12839SOL     OW40238   7.045   3.840   1.807 -0.1575  0.3529  0.1308
12839SOL    HW140239   7.113   3.876   1.750  0.2127  1.4537  1.2388
12839SOL    HW240240   6.971   3.901   1.798  0.1834  0.9733  1.3964
12840SOL     OW40241   5.041   3.457   7.073 -0.3211 -0.3354  0.1209
12840SOL    HW140242   5.035   3.362   7.077  1.1623 -0.4253  0.6046
12840SOL    HW240243   5.033   3.487   7.163 -0.9343  0.0367 -0.0407
12841SOL     OW40244   0.459   6.671   0.555 -0.6151  0.0855 -0.0291
12841SOL    HW140245   0.542   6.709   0.526 -0.7947  2.1937  1.8970
12841SOL    HW240246   0.415   6.743   0.599 -2.6745 -1.4919  0.6177
12842SOL     OW40247   4.500   2.806   5.418  0.1667  0.2241 -0.3558
12842SOL    HW140248   4.571   2.855   5.376 -0.1520 -0.0458 -1.2422
12842SOL    HW240249   4.544   2.741   5.473  0.5959  0.4571 -0.4228
12843SOL     OW40250   5.324   9.011   0.289 -0.4976  0.0933 -0.4947
12843SOL    HW140251   5.267   8.953   0.237 -1.3102 -0.9692  1.4726
12843SOL    HW240252   5.280   9.096   0.286 -0.4754  0.0900 -1.5811
12844SOL     OW40253   7.445   8.779   9.670 -0.0507  0.7403  0.0794
12844SOL    HW140254   7.450   8.773   9.766  1.0952 -1.4386 -0.0560
12844SOL    HW240255   7.441   8.688   9.641  2.5767  1.1963 -2.0488
12845SOL     OW40256   7.818   7.200   9.367 -0.4270 -0.4434 -0.0109
12845SOL    HW140257   7.874   7.237   9.436 -0.4224  1.0920 -0.7937
12845SOL    HW240258   7.740   7.256   9.367  0.0467  0.2717 -1.9573
12846SOL     OW40259   0.655   8.656   5.155  0.2255 -0.1555  0.5815
12846SOL    HW140260   0.600   8.732   5.171  1.4605  0.7382  0.7781
12846SOL    HW240261   0.596   8.590   5.120 -0.5485  1.5724 -1.6268
12847SOL     OW40262   2.171   2.775   8.797  0.3904 -0.2008  0.0399
12847SOL    HW140263   2.175   2.871   8.794  0.3795 -0.1991  0.0802
12847SOL    HW240264   2.118   2.756   8.874  0.8822 -0.2491  0.3695
12848SOL     OW40265   2.474   3.088   8.762 -0.7867  0.4898  0.8640
12848SOL    HW140266   2.555   3.113   8.718 -0.4763 -3.0346 -0.8824
12848SOL    HW240267   2.501   3.065   8.851 -0.3012  1.4403  0.9767
12849SOL     OW40268   2.882   6.429   8.991  0.2442  0.2907  0.2563
12849SOL    HW140269   2.932   6.503   8.957 -0.6287  0.0489 -1.6798
12849SOL    HW240270   2.945   6.379   9.042  0.9850  2.0440  1.1624
12850SOL     OW40271   8.163   8.391   8.972 -0.4004 -0.4102  0.4058
12850SOL    HW140272   8.189   8.483   8.962  0.7754 -0.5326  2.0008
12850SOL    HW240273   8.141   8.382   9.065  0.0541 -1.8756  0.3982
12851SOL     OW40274   5.755   6.646   4.507  0.0350 -0.3546  0.1749
12851SOL    HW140275   5.794   6.575   4.456 -0.4484  0.2630 -1.1045
12851SOL    HW240276   5.727   6.605   4.589  1.8133 -1.1415  0.4154
12852SOL     OW40277   0.554   0.841   9.423 -0.2738  0.0645  0.2587
12852SOL    HW140278   0.572   0.932   9.401  0.3800  0.2107  1.3390
12852SOL    HW240279   0.629   0.813   9.475 -1.1553 -0.6458  1.1858
12853SOL     OW40280   4.664   0.885   4.387  0.1097  0.6551  0.0169
12853SOL    HW140281   4.724   0.951   4.421  0.7780 -0.4244  0.9895
12853SOL    HW240282   4.702   0.802   4.413 -1.2781 -0.0978 -0.2535
12854SOL     OW40283   6.452   1.035   5.186  0.2351 -0.2589  0.3551
12854SOL    HW140284   6.403   0.953   5.187  1.3425 -0.9381  0.3777
12854SOL    HW240285   6.395   1.097   5.232 -0.5419 -1.0490  0.4931
12855SOL     OW40286   7.566   2.227   2.774 -0.3840 -0.8032  0.1970
12855SOL    HW140287   7.558   2.318   2.804  0.1223 -1.3009  1.9449
12855SOL    HW240288   7.614   2.234   2.691 -0.4923  0.5372  0.2146
12856SOL     OW40289   7.845   8.637   7.715 -0.4756  0.3381 -0.3336
12856SOL    HW140290   7.753   8.655   7.695 -0.7471  0.7593  1.2281
12856SOL    HW240291   7.849   8.543   7.731 -0.9094  0.5115  0.8823
12857SOL     OW40292   0.446   2.959   3.518 -0.1302  0.2944 -0.0906
12857SOL    HW140293   0.400   2.945   3.435 -1.2791  0.0495  0.5633
12857SOL    HW240294   0.432   2.878   3.567  1.4908 -0.0017 -0.0680
12858SOL     OW40295   2.261   7.006   0.990 -0.7291 -0.0486 -0.0105
12858SOL    HW140296   2.230   6.916   0.987  1.9749 -1.2174  2.1995
12858SOL    HW240297   2.198   7.051   1.047 -0.9079 -1.1564  0.6976
12859SOL     OW40298   4.043   8.752   5.638  0.3637  0.3529  0.3432
12859SOL    HW140299   4.021   8.741   5.545 -0.7013  1.8136  0.3847
12859SOL    HW240300   3.990   8.686   5.683  0.8185 -0.3036 -0.0656
12860SOL     OW40301   9.140   9.022   2.611  0.8935 -0.1085 -0.2909
12860SOL    HW140302   9.189   8.951   2.651 -1.9382 -1.5355  0.9330
12860SOL    HW240303   9.055   9.020   2.656  0.1415  3.0365 -1.3366
12861SOL     OW40304   4.401   7.854   5.018  0.3212  0.3460  0.0331
12861SOL    HW140305   4.460   7.822   4.950  1.5214 -1.0309  1.6110
12861SOL    HW240306   4.398   7.783   5.083 -0.4646  1.7097  1.5796
12862SOL     OW40307   6.246   6.895   5.554 -0.1821 -0.0405  0.2733
12862SOL    HW140308   6.310   6.879   5.624 -0.1543 -0.6768  0.1024
12862SOL    HW240309   6.299   6.910   5.476 -0.1290  2.4115  0.6807
12863SOL     OW40310   1.725   8.009   2.147  0.1480 -0.5227 -0.2294
12863SOL    HW140311   1.788   7.939   2.126 -0.3245 -0.4462 -2.1356
12863SOL    HW240312   1.711   8.002   2.241  1.5576 -1.7746 -0.0830
12864SOL     OW40313   9.676   5.153   9.027  0.0507  0.0078  0.5030
12864SOL    HW140314   9.754   5.099   9.017  0.0630  0.0959  0.1241
12864SOL    HW240315   9.702   5.240   8.997 -0.6732 -0.3659 -1.2908
12865SOL     OW40316   7.527   3.556   1.444 -0.5338 -0.0359  0.2728
12865SOL    HW140317   7.567   3.638   1.414 -1.4029 -0.2415 -1.5260
12865SOL    HW240318   7.570   3.539   1.529 -1.5759  3.1596  1.5983
12866SOL     OW40319   0.291   5.221   1.902  0.2543  0.1564 -0.3550
12866SOL    HW140320   0.299   5.176   1.818  1.8893  0.8699 -0.6283
12866SOL    HW240321   0.311   5.313   1.882 -0.7571  0.5954  0.5769
12867SOL     OW40322   3.560   6.374   3.144 -0.1424 -0.0892  0.1770
12867SOL    HW140323   3.538   6.466   3.162  2.2515  0.9641 -1.6801
12867SOL    HW240324   3.518   6.356   3.060 -0.2253 -0.5390  0.3141
12868SOL     OW40325   6.096   1.063   7.056 -0.3437  0.1685  0.3011
12868SOL    HW140326   6.047   0.982   7.062 -0.5863  0.0312 -2.2675
12868SOL    HW240327   6.035   1.125   7.015 -0.3004  1.8163  2.5695
12869SOL     OW40328   5.251   0.752   6.263 -0.9398  0.5426  0.0373
12869SOL    HW140329   5.178   0.690   6.262  0.0111 -0.6853  1.4662
12869SOL    HW240330   5.239   0.801   6.344 -1.0638  1.4652 -0.5296
12870SOL     OW40331   4.545   7.447   2.310 -0.4108  0.3691 -0.1004
12870SOL    HW140332   4.455   7.479   2.304 -0.6011  0.2959  1.8689
12870SOL    HW240333   4.536   7.353   2.327  0.0697  0.1622 -0.9358
12871SOL     OW40334   5.317   5.379   5.386 -0.0735 -0.1747  0.0436
12871SOL    HW140335   5.359   5.304   5.429 -0.4456  0.1925  1.0591
12871SOL    HW240336   5.331   5.452   5.446 -3.1721 -0.2742  1.0387
12872SOL     OW40337   0.704   0.053   8.003  0.7266  0.2222 -0.5773
12872SOL    HW140338   0.691   0.116   8.073  1.3881 -0.6135  0.3334
12872SOL    HW240339   0.737   0.105   7.929  0.1911  1.0880 -0.2171
12873SOL     OW40340   8.163   4.380   1.780  0.3387  0.3483 -0.2115
12873SOL    HW140341   8.070   4.398   1.793  0.6820  2.5851 -0.4180
12873SOL    HW240342   8.175   4.385   1.685  0.7359  0.3898 -0.1622
12874SOL     OW40343   3.024   2.595   3.236  0.0619 -0.0371 -0.0260
12874SOL    HW140344   3.073   2.677   3.237  0.4969 -0.2546 -1.1407
12874SOL    HW240345   3.089   2.528   3.256  0.0809 -0.2583 -0.7865
12875SOL     OW40346   9.313   6.376   0.618 -0.3279 -0.0673  0.0142
12875SOL    HW140347   9.219   6.367   0.628 -0.0618 -0.6266  2.7196
12875SOL    HW240348   9.342   6.288   0.592 -0.4332 -0.2512  0.5025
12876SOL     OW40349   7.532   4.478   6.081  0.6306  0.3012 -0.1140
12876SOL    HW140350   7.575   4.423   6.015 -2.5506  0.9703 -2.9950
12876SOL    HW240351   7.444   4.441   6.090  0.0307  1.9901  1.6611
12877SOL     OW40352   1.016   3.296   7.745 -0.0819  0.1985  0.1018
12877SOL    HW140353   0.941   3.329   7.795 -0.6884 -0.5753 -0.2684
12877SOL    HW240354   1.002   3.329   7.656  0.0137  0.0516  0.0323
12878SOL     OW40355   1.603   9.458   5.450  0.0825  0.1839 -0.3566
12878SOL    HW140356   1.586   9.371   5.413 -0.4482  0.6269 -1.2086
12878SOL    HW240357   1.650   9.505   5.381  2.0590  0.0005  0.8006
12879SOL     OW40358   8.371   7.897   9.435  0.5078 -0.1247 -0.0003
12879SOL    HW140359   8.347   7.915   9.526  0.2830  0.6950 -0.2133
12879SOL    HW240360   8.347   7.805   9.421 -2.5644  0.5888 -0.1923
12880SOL     OW40361   2.305   2.841   2.524  0.1831  0.3365 -0.0626
12880SOL    HW140362   2.346   2.853   2.610 -2.3539  0.9926  1.1376
12880SOL    HW240363   2.248   2.917   2.514 -1.7742 -1.1863 -0.9994
12881SOL     OW40364   0.786   4.348   4.496 -0.2733  0.2147 -0.6357
12881SOL    HW140365   0.745   4.430   4.525 -0.7714  0.4032 -1.8429
12881SOL    HW240366   0.715   4.297   4.457 -0.1867 -1.2542  0.9820
12882SOL     OW40367   9.644   5.947   8.841 -0.1292  0.0502  0.0503
12882SOL    HW140368   9.705   5.995   8.897 -0.1136  1.0932 -0.8326
12882SOL    HW240369   9.595   5.891   8.901 -0.8638  1.9140  1.2818
12883SOL     OW40370   5.047   1.263   9.082 -0.4053 -0.4231 -0.0520
12883SOL    HW140371   5.044   1.239   9.175 -0.8702 -1.7150 -0.3756
12883SOL    HW240372   5.118   1.210   9.046 -1.2952 -1.1805 -0.7481
12884SOL     OW40373   6.500   2.345   2.278 -0.4478  0.2716  0.4863
12884SOL    HW140374   6.457   2.263   2.302 -2.0184  0.6671 -0.7553
12884SOL    HW240375   6.559   2.322   2.206 -0.5634  0.1426  0.4316
12885SOL     OW40376   1.609   8.700   4.836  0.1103 -0.3619  0.4348
12885SOL    HW140377   1.554   8.667   4.906  1.1663 -1.0629  0.9709
12885SOL    HW240378   1.593   8.794   4.834 -1.1468 -0.5566  0.5095
12886SOL     OW40379   3.486   7.696   3.536 -0.7165  0.1252 -0.9453
12886SOL    HW140380   3.404   7.702   3.585 -0.9861 -1.5494 -1.1237
12886SOL    HW240381   3.461   7.654   3.453  0.2728 -0.1696 -1.1098
12887SOL     OW40382   7.344   7.266   6.405 -0.6311 -0.0972 -0.1522
12887SOL    HW140383   7.366   7.353   6.370  0.3040  0.0635  0.7802
12887SOL    HW240384   7.418   7.244   6.462 -0.9766 -1.3996 -0.1731
12888SOL     OW40385   8.485   3.418   6.523 -0.6461 -0.0432 -0.0765
12888SOL    HW140386   8.545   3.370   6.465  1.2325  0.8619  1.0417
12888SOL    HW240387   8.441   3.480   6.465 -1.2275 -1.3232 -1.0747
12889SOL     OW40388   1.256   3.539   6.564  0.1989 -0.2733  0.9163
12889SOL    HW140389   1.261   3.505   6.653  0.2833 -0.3321  0.8894
12889SOL    HW240390   1.216   3.469   6.513  1.1220 -0.6644  0.6974
12890SOL     OW40391   2.395   8.040   9.372 -0.6145 -0.5116  0.0801
12890SOL    HW140392   2.406   8.107   9.439 -3.1724 -0.7486  0.8153
12890SOL    HW240393   2.345   7.971   9.414  0.5218 -2.1715 -1.1591
12891SOL     OW40394   0.842   4.899   5.985 -0.2784 -0.0125 -0.7743
12891SOL    HW140395   0.799   4.823   5.946 -0.0520  0.5612 -2.2061
12891SOL    HW240396   0.918   4.915   5.928 -0.0445  0.9672 -0.1947
12892SOL     OW40397   0.321   4.212   8.042  0.1252  0.3942 -0.0153
12892SOL    HW140398   0.412   4.186   8.029  0.2627  2.1537 -3.7926
12892SOL    HW240399   0.323   4.264   8.123  2.5404  0.6822 -0.1953
12893SOL     OW40400   0.387   0.461   5.309 -0.1784 -0.1031  0.6419
12893SOL    HW140401   0.466   0.476   5.360  0.6597 -2.4695  0.1506
12893SOL    HW240402   0.416   0.461   5.218 -0.6845 -1.1925  0.4632
12894SOL     OW40403   8.730   4.159   0.162 -0.9025 -1.1005 -0.0622
12894SOL    HW140404   8.757   4.251   0.160  0.8491 -1.5725 -1.7391
12894SOL    HW240405   8.788   4.119   0.226 -2.1709 -0.9377  1.2267
12895SOL     OW40406   4.376   2.256   4.444  0.0976 -0.1969  0.0092
12895SOL    HW140407   4.460   2.301   4.430  0.0737 -0.0054  0.4557
12895SOL    HW240408   4.380   2.224   4.534 -0.2537 -0.3090 -0.0109
12896SOL     OW40409   0.420   6.229   9.347 -0.5976  0.0056  0.0151
12896SOL    HW140410   0.345   6.280   9.376 -1.2340 -0.0332 -1.4907
12896SOL    HW240411   0.470   6.290   9.292 -0.0367 -0.2572  0.2280
12897SOL     OW40412   8.174   6.157   1.662 -0.3137 -0.1010 -0.1486
12897SOL    HW140413   8.192   6.101   1.587  0.5494  1.2582 -1.0128
12897SOL    HW240414   8.231   6.123   1.731  1.5286  0.6793 -1.1833
12898SOL     OW40415   2.688   7.253   3.793 -0.5466  0.8843  0.3999
12898SOL    HW140416   2.768   7.207   3.820 -0.9694 -0.1789 -0.0849
12898SOL    HW240417   2.619   7.211   3.844 -0.7937  1.9303  0.9614
12899SOL     OW40418   4.559   5.832   5.472 -0.1801  0.3022  0.3798
12899SOL    HW140419   4.632   5.888   5.447  0.4744  1.1916  3.8647
12899SOL    HW240420   4.487   5.859   5.414  1.4351  1.3103 -1.2644
12900SOL     OW40421   2.168   7.982   0.050 -0.1915 -0.1564 -0.2856
12900SOL    HW140422   2.239   8.030   0.091 -1.2177  1.2202 -0.0651
12900SOL    HW240423   2.149   7.911   0.111  0.5585 -0.1637 -0.0499
12901SOL     OW40424   9.378   2.425   3.906  0.9620 -0.0849 -0.1122
12901SOL    HW140425   9.464   2.467   3.899  0.9608 -0.3152 -3.9379
12901SOL    HW240426   9.318   2.497   3.925  1.7664  0.4611  0.3965
12902SOL     OW40427   3.716   9.195   5.581  0.3276  0.1020  0.1105
12902SOL    HW140428   3.634   9.155   5.611  0.2658  0.2225  0.1001
12902SOL    HW240429   3.784   9.148   5.629  0.3383 -0.8956 -0.8087
12903SOL     OW40430   7.293   7.162   3.022  0.0150 -0.4109  0.0387
12903SOL    HW140431   7.329   7.141   3.108 -1.3503  0.3740  0.8197
12903SOL    HW240432   7.222   7.099   3.010 -0.3976  0.0760 -0.1013
12904SOL     OW40433   5.555   9.635   6.907 -0.1733  0.1036  0.2164
12904SOL    HW140434   5.588   9.553   6.945  0.0541 -0.6310 -1.4934
12904SOL    HW240435   5.479   9.609   6.856 -0.6138  1.1015  0.3424
12905SOL     OW40436   7.221   4.655   5.088  0.1542  0.0814  0.4146
12905SOL    HW140437   7.226   4.724   5.154 -0.4206 -0.2607  0.8249
12905SOL    HW240438   7.229   4.701   5.004  1.1740  0.4910  0.7221
12906SOL     OW40439   8.537   5.670   7.049 -0.2156 -0.2510 -0.1575
12906SOL    HW140440   8.625   5.676   7.013 -0.3675 -2.1614 -0.9890
12906SOL    HW240441   8.484   5.637   6.977 -1.8081  1.5697  0.0940
12907SOL     OW40442   5.548   4.269   8.485  0.1619 -0.1995  0.6314
12907SOL    HW140443   5.543   4.279   8.580 -1.8898  0.3740  0.5065
12907SOL    HW240444   5.459   4.244   8.459  0.5407  0.2517 -1.2087
12908SOL     OW40445   0.742   6.983   7.596  0.7890  0.0441  0.0219
12908SOL    HW140446   0.804   7.001   7.525  0.9707  0.3181  0.2468
12908SOL    HW240447   0.712   7.070   7.624  0.7099 -0.0633  0.2736
12909SOL     OW40448   1.728   2.441   3.103 -0.5049 -0.0391  0.0039
12909SOL    HW140449   1.656   2.486   3.145  0.2628  0.3209  0.9703
12909SOL    HW240450   1.767   2.507   3.046  0.2338  0.3594  0.9459
12910SOL     OW40451   4.426   0.875   0.982 -0.1400  0.0350 -0.0765
12910SOL    HW140452   4.401   0.788   1.012  0.9072 -0.4399 -0.5288
12910SOL    HW240453   4.476   0.860   0.902 -0.8469  1.1322 -0.7585
12911SOL     OW40454   9.358   1.965   6.698 -0.2697  0.6152  0.4796
12911SOL    HW140455   9.425   2.028   6.673 -0.5806  0.4605 -0.7998
12911SOL    HW240456   9.394   1.880   6.673 -1.4330  0.6345 -1.4104
12912SOL     OW40457   0.166   5.282   7.432  0.5149  0.5648 -0.1785
12912SOL    HW140458   0.247   5.265   7.480 -0.1633 -1.5349  0.3505
12912SOL    HW240459   0.097   5.273   7.498 -0.4384 -2.3246 -1.4209
12913SOL     OW40460   2.759   3.927   2.507 -0.0953  0.1759 -0.2964
12913SOL    HW140461   2.779   4.019   2.489  0.0963  0.0421 -0.7785
12913SOL    HW240462   2.845   3.883   2.505 -0.3502 -0.3319 -1.9395
12914SOL     OW40463   7.983   8.131   7.718 -0.0754 -0.1404 -0.2823
12914SOL    HW140464   7.994   8.046   7.760  0.3482 -0.8862 -1.8278
12914SOL    HW240465   8.070   8.152   7.683 -0.6526 -0.0864 -1.7237
12915SOL     OW40466   8.611   1.194   3.105 -0.2800  0.1925  0.1051
12915SOL    HW140467   8.545   1.202   3.036  0.8016 -1.9113 -1.2618
12915SOL    HW240468   8.560   1.174   3.184 -1.3416 -1.0571 -0.8481
12916SOL     OW40469   0.329   4.749   1.304 -0.2887  0.7831 -0.1855
12916SOL    HW140470   0.296   4.811   1.239  1.3372  1.5306 -0.3483
12916SOL    HW240471   0.422   4.739   1.283 -0.6562 -2.4892 -0.7661
12917SOL     OW40472   6.298   6.857   3.331 -0.1720  0.1912  0.6732
12917SOL    HW140473   6.237   6.815   3.270  1.9914 -0.0109 -1.5206
12917SOL    HW240474   6.367   6.893   3.275  2.5743 -0.9560  3.0333
12918SOL     OW40475   8.804   4.015   4.825  0.1995 -0.1353 -0.0683
12918SOL    HW140476   8.823   3.948   4.759  1.1716  0.3290 -0.2790
12918SOL    HW240477   8.743   4.075   4.782  1.4835  0.6376 -0.8745
12919SOL     OW40478   6.775   0.268   3.923  0.0328  0.4235  0.1908
12919SOL    HW140479   6.781   0.194   3.983 -2.3113 -0.2296 -0.2417
12919SOL    HW240480   6.837   0.332   3.956  0.9047 -1.0583  1.5723
12920SOL     OW40481   5.832   6.014   6.597  0.1912 -0.5242  0.5103
12920SOL    HW140482   5.811   6.050   6.511  0.6717  0.3887  0.7593
12920SOL    HW240483   5.801   6.080   6.659  2.5895  0.3048  0.9323
12921SOL     OW40484   5.324   1.178   0.094 -0.5307  0.1111  0.0795
12921SOL    HW140485   5.229   1.181   0.091 -0.4798  1.9215 -0.6912
12921SOL    HW240486   5.353   1.239   0.026  1.2153 -2.1240 -1.3406
12922SOL     OW40487   4.382   1.713   3.284 -0.0287 -0.4684 -0.1648
12922SOL    HW140488   4.399   1.664   3.203  1.7663  0.1882 -0.2152
12922SOL    HW240489   4.416   1.800   3.267  0.4705 -0.3502  1.3371
12923SOL     OW40490   8.324   5.456   2.978 -0.1794 -0.0853  0.3628
12923SOL    HW140491   8.355   5.443   3.068  2.0258  2.6900  0.1448
12923SOL    HW240492   8.327   5.368   2.939 -0.6286 -1.2660  2.7613
12924SOL     OW40493   4.631   9.530   1.939 -0.6911  0.1951  0.1896
12924SOL    HW140494   4.560   9.521   1.876 -0.0898  0.1877 -0.4986
12924SOL    HW240495   4.684   9.451   1.928 -1.3890 -0.5327  1.7536
12925SOL     OW40496   7.104   8.326   1.154 -0.2601  0.1068 -0.4684
12925SOL    HW140497   7.123   8.266   1.082  1.1333  1.0033 -0.8928
12925SOL    HW240498   7.012   8.349   1.143 -0.1011  0.1391 -1.9123
12926SOL     OW40499   0.662   2.608   6.256  0.0495 -0.7069  0.2082
12926SOL    HW140500   0.741   2.656   6.281 -1.0603  0.6547  1.2281
12926SOL    HW240501   0.624   2.578   6.338 -1.5737  0.4422 -0.0790
12927SOL     OW40502   5.711   4.713   7.311  0.0283  0.3270 -0.0780
12927SOL    HW140503   5.644   4.651   7.341  0.2354 -0.8896 -1.9649
12927SOL    HW240504   5.662   4.787   7.276 -0.3294 -0.1250 -0.5560
12928SOL     OW40505   8.386   4.013   8.559 -0.2737  0.1241 -0.2540
12928SOL    HW140506   8.307   4.063   8.579 -0.4272 -1.0163  2.4349
12928SOL    HW240507   8.361   3.922   8.574  1.7283 -0.2127  1.5876
12929SOL     OW40508   3.680   1.128   6.019  0.3283  0.4836 -0.2329
12929SOL    HW140509   3.731   1.208   6.030  0.3027  0.4959 -0.2069
12929SOL    HW240510   3.711   1.091   5.936  1.0563 -0.0019  0.2442
12930SOL     OW40511   9.534   3.539   4.169 -0.0517  0.6573 -0.3413
12930SOL    HW140512   9.601   3.504   4.110 -0.4047  0.8068 -0.8423
12930SOL    HW240513   9.554   3.500   4.254  0.2308  0.1258 -0.6449
12931SOL     OW40514   4.158   1.287   5.303 -0.1073  0.0762 -0.1220
12931SOL    HW140515   4.179   1.354   5.239 -0.8666 -0.3300 -0.8094
12931SOL    HW240516   4.093   1.328   5.360 -0.1606  0.1055 -0.2039
12932SOL     OW40517   3.854   9.331   6.286  0.0322 -0.0915  0.0315
12932SOL    HW140518   3.948   9.340   6.305  0.1277  0.3686 -0.6348
12932SOL    HW240519   3.849   9.334   6.190 -0.7802  1.1123  0.1024
12933SOL     OW40520   8.173   4.148   3.657  0.1893  0.1324  0.5450
12933SOL    HW140521   8.189   4.103   3.739  2.0625 -0.3167 -0.0216
12933SOL    HW240522   8.218   4.232   3.667  0.6062 -0.0108 -0.0856
12934SOL     OW40523   6.858   1.833   5.879 -0.0304 -0.1517  0.0199
12934SOL    HW140524   6.889   1.871   5.797  0.8122 -0.9443 -0.0412
12934SOL    HW240525   6.895   1.745   5.881  0.3960  0.0295  1.4950
12935SOL     OW40526   8.060   3.933   3.179  0.3746  0.2390 -0.1974
12935SOL    HW140527   8.069   3.988   3.257 -0.5191  0.6252 -0.3524
12935SOL    HW240528   8.096   3.848   3.206 -1.6458 -0.2304  1.3132
12936SOL     OW40529   3.221   8.889   2.708 -0.1297 -0.0626 -0.0389
12936SOL    HW140530   3.150   8.917   2.651 -1.0298 -2.2529 -0.0696
12936SOL    HW240531   3.209   8.941   2.788  0.5096  2.2548 -1.3602
12937SOL     OW40532   0.136   0.041   2.798 -0.2771 -0.2003 -0.0565
12937SOL    HW140533   0.213   0.022   2.745 -0.1405  1.0911 -0.3703
12937SOL    HW240534   0.068  -0.017   2.763  0.2163 -0.4452 -0.6314
12938SOL     OW40535   1.495   6.359   7.528  0.2576 -0.4042  0.0423
12938SOL    HW140536   1.428   6.313   7.477 -0.6849 -0.3202  1.1604
12938SOL    HW240537   1.463   6.356   7.618  1.1549  0.7359  0.4253
12939SOL     OW40538   0.362   8.373   9.193 -0.0945 -0.0421 -0.4620
12939SOL    HW140539   0.271   8.349   9.179 -0.7097  1.9716 -0.2551
12939SOL    HW240540   0.406   8.350   9.111 -0.9520 -0.3209 -0.8521
12940SOL     OW40541   3.338   2.374   7.537 -0.5339  0.0817 -0.2041
12940SOL    HW140542   3.270   2.441   7.527 -0.6573 -0.0720 -0.4237
12940SOL    HW240543   3.322   2.337   7.624 -0.0907  0.7423  0.1623
12941SOL     OW40544   1.462   8.495   1.051  0.2610 -0.3075  0.4460
12941SOL    HW140545   1.554   8.514   1.037 -0.0953  0.0437 -1.7408
12941SOL    HW240546   1.432   8.561   1.114  0.7306  1.8620 -1.4805
12942SOL     OW40547   1.897   0.279   4.173  0.0438 -0.3958  0.2039
12942SOL    HW140548   1.926   0.249   4.087  0.5371  0.4640  0.0565
12942SOL    HW240549   1.950   0.230   4.235 -1.3069 -2.0760  0.0895
12943SOL     OW40550   4.396   5.486   2.145  0.7017  0.3783 -0.0996
12943SOL    HW140551   4.325   5.422   2.146 -0.0442  1.1839 -0.3486
12943SOL    HW240552   4.369   5.553   2.209 -0.2081  2.1821 -2.2546
12944SOL     OW40553   2.207   7.396   1.523  0.7879  0.0436  0.0499
12944SOL    HW140554   2.245   7.309   1.536  0.9938  0.1214 -0.0211
12944SOL    HW240555   2.127   7.396   1.575  0.9732 -0.0637  0.3390
12945SOL     OW40556   6.250   2.254   4.093  0.3694 -0.3554 -0.1636
12945SOL    HW140557   6.314   2.250   4.022  0.0712 -0.0341 -0.4516
12945SOL    HW240558   6.248   2.347   4.119 -2.0608  0.2314 -2.0890
12946SOL     OW40559   1.856   6.087   8.854  0.0919  0.2057 -0.5610
12946SOL    HW140560   1.910   6.160   8.885 -0.3710  0.0076  0.7790
12946SOL    HW240561   1.919   6.018   8.833  0.4044  0.1437  0.5254
12947SOL     OW40562   8.504   4.567   2.123 -0.2057 -0.0537 -0.1770
12947SOL    HW140563   8.468   4.652   2.149  1.0148  1.0119 -1.8402
12947SOL    HW240564   8.465   4.549   2.038 -0.5638 -1.2728  0.2133
12948SOL     OW40565   7.616   0.636   2.603  0.6977  0.6390  0.0353
12948SOL    HW140566   7.701   0.673   2.627 -0.5094  2.4719  1.7555
12948SOL    HW240567   7.572   0.621   2.687 -0.7214 -0.2258 -0.8230
12949SOL     OW40568   7.338   7.630   1.495  0.1009 -0.6077 -0.1663
12949SOL    HW140569   7.284   7.613   1.418 -0.3017 -0.7064  0.1327
12949SOL    HW240570   7.278   7.669   1.559  0.7314  0.7914 -0.3827
12950SOL     OW40571   6.634   5.698   9.492  0.2598 -0.2568 -0.1240
12950SOL    HW140572   6.696   5.650   9.436 -0.7107 -0.2697 -1.2365
12950SOL    HW240573   6.561   5.718   9.434 -0.7446 -0.1576  1.1435
12951SOL     OW40574   7.951   8.103   9.066  0.1117  0.1600  0.1596
12951SOL    HW140575   7.909   8.047   9.001 -0.4187 -0.0261  0.6631
12951SOL    HW240576   8.024   8.050   9.099  0.6708  0.4350 -0.6206
12952SOL     OW40577   5.781   2.654   1.878 -0.1071  0.0936  1.1066
12952SOL    HW140578   5.836   2.728   1.852 -0.9654  0.2369 -0.3618
12952SOL    HW240579   5.715   2.647   1.809 -0.6258 -1.4404  1.7185
12953SOL     OW40580   6.647   5.626   7.527  0.4143 -0.3415 -0.0269
12953SOL    HW140581   6.671   5.588   7.443 -0.4058  0.2523 -0.5402
12953SOL    HW240582   6.612   5.712   7.506 -1.5662 -0.8917  0.7223
12954SOL     OW40583   4.395   8.207   6.679  0.7892  0.8008  0.6208
12954SOL    HW140584   4.307   8.199   6.642 -0.1589 -0.3985  2.8766
12954SOL    HW240585   4.387   8.277   6.744  1.1114 -0.1620  1.7405
12955SOL     OW40586   7.124   8.001   9.458  0.6398 -0.2277  0.2549
12955SOL    HW140587   7.128   7.974   9.549  0.9236  2.3010  1.0491
12955SOL    HW240588   7.058   8.071   9.456  0.7315 -0.1499 -1.4496
12956SOL     OW40589   2.396   3.633   1.506 -0.0180 -0.4037  0.6325
12956SOL    HW140590   2.415   3.721   1.536 -0.3668 -0.2133  0.2997
12956SOL    HW240591   2.363   3.644   1.417 -1.2567 -0.7691  1.0271
12957SOL     OW40592   2.522   5.056   1.362 -0.3537  0.5292  0.6608
12957SOL    HW140593   2.531   5.100   1.278 -0.6458 -1.2926 -0.3855
12957SOL    HW240594   2.428   5.053   1.378 -0.3095  0.6957  0.9591
12958SOL     OW40595   5.034   8.847   1.711 -0.0425 -0.2503 -0.2665
12958SOL    HW140596   5.096   8.824   1.641  0.7481 -0.2640  0.4163
12958SOL    HW240597   5.053   8.939   1.729  0.5262 -0.5384  0.6674
12959SOL     OW40598   2.423   4.938   8.789  0.0714  0.2632 -0.3422
12959SOL    HW140599   2.468   5.015   8.825  1.3580 -0.7783  0.3732
12959SOL    HW240600   2.372   4.905   8.863  1.1907 -0.7561  0.0164
12960SOL     OW40601   2.564   6.604   3.309 -0.2056  0.4502 -0.0438
12960SOL    HW140602   2.614   6.629   3.387  2.5086  2.8573 -2.3068
12960SOL    HW240603   2.550   6.510   3.319  2.0120  0.2419  2.2786
12961SOL     OW40604   4.966   3.889   7.799  0.3153  0.0306 -0.0411
12961SOL    HW140605   5.038   3.906   7.860  1.5487  1.2431 -1.7398
12961SOL    HW240606   4.891   3.868   7.856  1.3698  1.1552  1.8808
12962SOL     OW40607   9.608   3.316   7.455 -0.1952  0.6914  0.6798
12962SOL    HW140608   9.553   3.340   7.530  0.7075  2.2309  0.8866
12962SOL    HW240609   9.692   3.292   7.494  0.4237  1.9548  0.1423
12963SOL     OW40610   2.055   1.797   6.814 -0.6132  0.0118 -0.0131
12963SOL    HW140611   2.135   1.774   6.767 -0.0234  0.0016  0.9569
12963SOL    HW240612   2.039   1.722   6.871 -1.0537  0.2126  0.1304
12964SOL     OW40613   2.288   3.057   9.299  0.0816  0.7231  0.5857
12964SOL    HW140614   2.246   3.031   9.381  0.5314  0.3557  0.7039
12964SOL    HW240615   2.215   3.079   9.241 -0.2558  0.6083  0.9600
12965SOL     OW40616   9.367   3.581   7.819  0.0682 -0.2651 -0.2821
12965SOL    HW140617   9.352   3.664   7.865  0.5853 -0.8262  0.9383
12965SOL    HW240618   9.309   3.519   7.863  0.5307 -0.8024 -0.4279
12966SOL     OW40619   7.962   0.709   6.225  0.0352 -0.0433  0.2859
12966SOL    HW140620   7.988   0.620   6.248  0.1215  0.3897  1.9847
12966SOL    HW240621   7.900   0.735   6.293 -0.4303  1.0090 -0.4973
12967SOL     OW40622   1.457   5.854   6.204  0.6193  0.3661  0.0211
12967SOL    HW140623   1.531   5.794   6.205  0.2606 -0.0830  0.0466
12967SOL    HW240624   1.395   5.817   6.267 -0.8157 -0.7855 -1.9634
12968SOL     OW40625   5.886   4.513   6.978 -0.3406 -0.5205 -0.3194
12968SOL    HW140626   5.970   4.500   7.022 -0.8432  0.9618  1.1954
12968SOL    HW240627   5.821   4.501   7.047 -1.2459  0.5027 -0.9566
12969SOL     OW40628   9.425   6.913   1.624 -0.4107 -0.8270  0.3192
12969SOL    HW140629   9.518   6.905   1.646 -0.2227 -1.3655 -0.6069
12969SOL    HW240630   9.379   6.868   1.695 -0.0843  0.8351  1.6381
12970SOL     OW40631   0.459   5.664   2.094 -0.5928 -0.0800  0.1861
12970SOL    HW140632   0.540   5.712   2.110  0.0847 -0.7878 -0.9679
12970SOL    HW240633   0.451   5.661   1.999 -0.3239 -2.6513  0.1657
12971SOL     OW40634   5.361   9.235   9.568 -0.4718  0.5461 -0.1147
12971SOL    HW140635   5.290   9.299   9.578 -1.1394 -0.2991  0.7090
12971SOL    HW240636   5.323   9.152   9.598  0.3047 -0.3044 -1.4132
12972SOL     OW40637   9.308   6.167   3.354 -0.0072  0.1160  0.2895
12972SOL    HW140638   9.252   6.235   3.318  0.7697 -0.0590 -1.3200
12972SOL    HW240639   9.250   6.115   3.410 -0.9565  1.1567  0.3114
12973SOL     OW40640   9.408   3.522   7.132  0.2667 -0.6128  0.1503
12973SOL    HW140641   9.440   3.497   7.045 -0.1753 -0.4835 -0.0581
12973SOL    HW240642   9.363   3.606   7.117 -1.3832 -1.4555  0.1389
12974SOL     OW40643   7.991   5.082   1.220 -0.2655 -0.6252  0.2719
12974SOL    HW140644   8.057   5.013   1.210  0.6696 -0.1482  2.4941
12974SOL    HW240645   7.986   5.097   1.314 -1.0661  1.7445 -0.0788
12975SOL     OW40646   1.784   5.658   0.374 -0.6170  0.0930  0.1227
12975SOL    HW140647   1.720   5.718   0.335 -0.7110 -0.3045 -0.3516
12975SOL    HW240648   1.865   5.674   0.325 -0.5909 -0.0313  0.1245
12976SOL     OW40649   6.940   8.081   1.687  0.2685  0.0356  0.1070
12976SOL    HW140650   6.941   8.009   1.750 -0.1211  0.6578  0.8423
12976SOL    HW240651   6.868   8.137   1.716 -0.0962  0.1964 -1.0636
12977SOL     OW40652   3.992   9.158   3.065  0.1782  0.3806 -0.7057
12977SOL    HW140653   4.065   9.126   3.012  0.2311  0.0047 -0.4137
12977SOL    HW240654   4.008   9.122   3.153 -1.7680 -2.0985 -1.2219
12978SOL     OW40655   5.180   9.670   6.159 -0.0479 -0.3185 -0.2183
12978SOL    HW140656   5.129   9.599   6.121  0.2449 -1.1633  0.8998
12978SOL    HW240657   5.129   9.699   6.234  0.4684 -0.2734  0.1228
12979SOL     OW40658   3.292   9.206   0.684 -0.0328 -0.8392  0.1958
12979SOL    HW140659   3.375   9.246   0.708 -0.3273 -0.1834  0.1363
12979SOL    HW240660   3.311   9.159   0.603  0.0327  0.2065 -0.4113
12980SOL     OW40661   0.150   6.274   8.726  0.2775  0.2680 -0.0059
12980SOL    HW140662   0.224   6.216   8.741 -0.6051 -1.1692 -0.9296
12980SOL    HW240663   0.099   6.230   8.658 -2.1941  0.4439  1.6047
12981SOL     OW40664   3.377   8.693   4.559  0.1606  0.4507 -0.2936
12981SOL    HW140665   3.468   8.709   4.534  0.3848 -0.8118 -0.3387
12981SOL    HW240666   3.338   8.653   4.482  0.0637 -0.6897  0.3194
12982SOL     OW40667   9.297   7.997   0.683 -0.4159 -0.3053  0.2386
12982SOL    HW140668   9.262   7.936   0.748 -1.6558  0.1026 -0.0258
12982SOL    HW240669   9.295   8.082   0.726 -1.0391 -0.0667 -0.2486
12983SOL     OW40670   0.107   1.670   4.305 -0.4505  0.4557  0.3466
12983SOL    HW140671   0.084   1.672   4.212 -0.1281  1.2583  0.2798
12983SOL    HW240672   0.193   1.711   4.309  0.3166 -1.1297  0.7841
12984SOL     OW40673   9.592   9.274   4.058 -0.4341 -0.0679 -0.0148
12984SOL    HW140674   9.684   9.297   4.046  1.5508 -3.8703  4.5086
12984SOL    HW240675   9.579   9.195   4.005 -1.1667  0.4731 -0.6627
12985SOL     OW40676   8.686   8.309   5.354 -0.5755 -0.5388 -0.1841
12985SOL    HW140677   8.642   8.238   5.307 -0.9645  0.2291 -1.0102
12985SOL    HW240678   8.674   8.386   5.298  0.6391 -0.0142  0.2402
12986SOL     OW40679   1.597   4.124   0.292 -0.5893  0.4229 -0.4214
12986SOL    HW140680   1.686   4.124   0.327 -1.3036 -0.5166  1.5836
12986SOL    HW240681   1.593   4.199   0.234  1.4245  0.6457 -0.3229
12987SOL     OW40682   3.064   3.929   0.279 -0.0047  0.6709  0.1069
12987SOL    HW140683   3.150   3.970   0.265  1.3177 -2.0876 -0.4682
12987SOL    HW240684   3.074   3.878   0.359 -0.5663 -0.9683 -0.8300
12988SOL     OW40685   3.761   4.660   8.247 -1.0723 -0.7230 -0.0340
12988SOL    HW140686   3.696   4.606   8.292 -1.4682  0.7714  1.2780
12988SOL    HW240687   3.808   4.705   8.317 -0.7600  0.6276 -1.0674
12989SOL     OW40688   4.451   5.678   9.643  0.1650 -0.5418  0.1363
12989SOL    HW140689   4.461   5.637   9.729 -1.3932 -1.6592 -0.1706
12989SOL    HW240690   4.524   5.642   9.591 -0.7913 -2.5075  0.0628
12990SOL     OW40691   2.158   4.981   9.207  0.0965  0.1488  0.4978
12990SOL    HW140692   2.199   4.938   9.282 -0.3051  0.2708  0.7898
12990SOL    HW240693   2.162   5.074   9.227 -3.0545  0.0918  2.0262
12991SOL     OW40694   7.729   4.544   1.323  0.3863  0.7102 -0.1838
12991SOL    HW140695   7.638   4.567   1.340  0.6813  1.3087  0.7234
12991SOL    HW240696   7.753   4.593   1.245 -0.0989  0.4560 -0.4929
12992SOL     OW40697   5.024   8.169   7.534  0.1039 -0.5066 -0.0690
12992SOL    HW140698   4.999   8.149   7.444 -1.9651  0.7820  0.1610
12992SOL    HW240699   4.968   8.243   7.559  0.3844 -1.0334  2.3924
12993SOL     OW40700   2.795   9.119   4.163 -0.4335  0.1154 -0.0140
12993SOL    HW140701   2.823   9.208   4.141 -0.2952  0.2664  0.7478
12993SOL    HW240702   2.704   9.115   4.135 -0.4436  0.4983 -0.0439
12994SOL     OW40703   6.851   9.290   7.009  0.2318 -0.3188 -0.0856
12994SOL    HW140704   6.895   9.222   6.957  0.7695  0.9764 -1.3990
12994SOL    HW240705   6.923   9.335   7.054 -0.1596 -0.8446  1.1031
12995SOL     OW40706   2.783   8.828   5.840  0.5339 -0.5479  0.0756
12995SOL    HW140707   2.808   8.914   5.873 -0.6495 -0.2657  0.2951
12995SOL    HW240708   2.860   8.797   5.792  0.3960  1.4257 -1.5569
12996SOL     OW40709   0.607   2.485   3.957  0.2047 -0.2819 -0.0124
12996SOL    HW140710   0.674   2.481   3.889  1.1506 -1.2550  0.9531
12996SOL    HW240711   0.649   2.448   4.035 -2.0849 -2.9590  0.1035
12997SOL     OW40712   6.950   7.901   7.118  0.2903  0.3146  0.1716
12997SOL    HW140713   6.921   7.955   7.191 -0.3946 -0.9935  0.9110
12997SOL    HW240714   7.037   7.934   7.096  0.0320  1.4538  0.8366
12998SOL     OW40715   5.940   4.835   1.038  0.1851 -0.2523  0.7297
12998SOL    HW140716   5.939   4.755   1.092 -0.2481  0.1212  1.2894
12998SOL    HW240717   5.882   4.815   0.965  3.6353 -2.1853 -1.7912
12999SOL     OW40718   3.805   3.575   9.057 -0.2292 -0.0284  0.4824
12999SOL    HW140719   3.808   3.575   8.961 -1.1995  0.2346  0.4353
12999SOL    HW240720   3.895   3.559   9.084 -0.0919 -0.9826 -0.4735
13000SOL     OW40721   6.973   4.314   8.219  0.0449  0.0012 -0.1799
13000SOL    HW140722   6.947   4.222   8.228 -0.8659  0.3109  0.5146
13000SOL    HW240723   7.027   4.331   8.296  0.9442 -0.1766 -0.7560
13001SOL     OW40724   7.518   7.098   8.420  0.2468 -0.3519 -0.1695
13001SOL    HW140725   7.509   7.005   8.398  0.4095 -0.3091 -0.4242
13001SOL    HW240726   7.429   7.127   8.438  0.1827 -0.5317 -0.1880
13002SOL     OW40727   3.705   4.237   9.084 -0.0030  0.2062  0.0232
13002SOL    HW140728   3.665   4.158   9.047  1.1101 -1.4984  2.2049
13002SOL    HW240729   3.659   4.250   9.167  2.0062 -0.2046  1.2815
13003SOL     OW40730   6.366   5.328   8.110  0.5225 -1.1637 -0.2648
13003SOL    HW140731   6.276   5.349   8.084 -0.3774  0.1512  3.3020
13003SOL    HW240732   6.391   5.400   8.169  3.8424 -1.6672 -0.8704
13004SOL     OW40733   2.115   1.574   8.995  0.2297 -0.5532 -0.4416
13004SOL    HW140734   2.133   1.623   9.075 -0.8550  0.2051 -0.6462
13004SOL    HW240735   2.166   1.618   8.928  2.3527 -2.1004  0.0582
13005SOL     OW40736   0.679   5.274   9.496 -0.3003 -0.1831 -0.6408
13005SOL    HW140737   0.652   5.221   9.570 -0.5234 -0.4221 -0.8909
13005SOL    HW240738   0.742   5.336   9.532  2.0799 -2.3642 -0.8165
13006SOL     OW40739   3.115   9.237   5.590 -0.0302 -0.0226 -0.1007
13006SOL    HW140740   3.208   9.258   5.588  0.5795 -2.5058 -1.2512
13006SOL    HW240741   3.077   9.289   5.520 -0.0862  2.9971  1.9846
13007SOL     OW40742   0.924   3.240   0.073  0.0018  0.5165 -0.6757
13007SOL    HW140743   0.975   3.176   0.024 -0.6087  0.4031 -1.1681
13007SOL    HW240744   0.855   3.189   0.115 -0.7487  0.9000 -1.4181
13008SOL     OW40745   4.969   1.542   9.122 -0.2799  0.4866  0.1868
13008SOL    HW140746   4.892   1.553   9.066 -1.2329  2.5758  1.7898
13008SOL    HW240747   4.991   1.449   9.114 -2.0262  0.1488 -1.4799
13009SOL     OW40748   0.222   7.752   7.531  0.4941 -0.2130  0.2641
13009SOL    HW140749   0.279   7.827   7.516  0.1795  0.0559  0.3970
13009SOL    HW240750   0.157   7.756   7.461  2.3330 -2.2192 -1.7165
13010SOL     OW40751   4.960   6.721   3.730  0.2396  0.0294 -0.1569
13010SOL    HW140752   4.908   6.644   3.755 -1.9441  1.7336  0.8798
13010SOL    HW240753   5.047   6.703   3.766 -0.3151 -1.7642  0.4250
13011SOL     OW40754   3.325   6.208   5.222  0.3219 -0.3229  0.1357
13011SOL    HW140755   3.273   6.135   5.187 -0.9111 -0.0808  1.3320
13011SOL    HW240756   3.261   6.262   5.269  1.2714  1.3638 -0.4348
13012SOL     OW40757   0.577   2.564   3.468 -0.0669 -0.3590 -0.5212
13012SOL    HW140758   0.529   2.571   3.386 -1.4049  0.0302  0.2774
13012SOL    HW240759   0.667   2.542   3.441 -0.7287 -1.3750 -2.0173
13013SOL     OW40760   1.756   0.612   5.634 -1.0524  0.2221  0.5333
13013SOL    HW140761   1.710   0.541   5.679  0.5751  0.3686  2.5753
13013SOL    HW240762   1.725   0.692   5.677  0.5916  0.3611  1.5533
13014SOL     OW40763   5.159   0.362   6.527  0.6239 -0.2475 -0.4113
13014SOL    HW140764   5.240   0.411   6.546 -1.1210  2.0290  1.9243
13014SOL    HW240765   5.095   0.429   6.506 -0.8492 -1.9610 -1.6791
13015SOL     OW40766   9.343   7.270   4.221  0.2203 -0.0631 -0.1485
13015SOL    HW140767   9.408   7.284   4.152  0.0045  0.7451 -0.1972
13015SOL    HW240768   9.343   7.176   4.235  0.5602 -0.1912 -0.9700
13016SOL     OW40769   6.205   2.434   2.940 -0.7688 -0.2919  0.1862
13016SOL    HW140770   6.218   2.473   3.027 -0.1376 -0.8094  0.3384
13016SOL    HW240771   6.252   2.493   2.881 -1.1457  0.0279  0.2011
13017SOL     OW40772   6.361   9.146   9.613 -0.2794 -0.4821  0.7409
13017SOL    HW140773   6.332   9.072   9.666 -0.2676 -0.1481  1.2275
13017SOL    HW240774   6.349   9.117   9.522 -0.2142 -1.0979  0.9223
13018SOL     OW40775   4.160   8.240   1.181 -0.3788 -0.3647 -0.1106
13018SOL    HW140776   4.112   8.180   1.238  0.7704 -0.7659  0.4857
13018SOL    HW240777   4.242   8.256   1.228  0.3626 -0.2571 -1.3948
13019SOL     OW40778   2.595   1.732   6.248  0.6001 -0.0786 -0.2605
13019SOL    HW140779   2.608   1.638   6.236  1.4992 -0.0319  0.2409
13019SOL    HW240780   2.610   1.747   6.341 -1.1489  0.3360 -0.0249
13020SOL     OW40781   2.805   6.765   6.895 -0.2287 -0.2356 -0.3609
13020SOL    HW140782   2.822   6.795   6.984  0.1992  0.2627 -0.6065
13020SOL    HW240783   2.828   6.672   6.896  1.6189  0.1893 -0.4328
13021SOL     OW40784   1.369   5.194   3.284 -0.4659  0.5786  0.2135
13021SOL    HW140785   1.285   5.231   3.258  0.0875  0.9360 -1.1617
13021SOL    HW240786   1.434   5.250   3.241  0.5160  0.9131  2.0339
13022SOL     OW40787   7.648   7.669   2.903 -0.2221  0.1663  0.5839
13022SOL    HW140788   7.725   7.718   2.877  0.1632 -0.5258  0.4007
13022SOL    HW240789   7.668   7.578   2.882 -1.6494  0.1267 -0.8170
13023SOL     OW40790   6.001   8.001   4.026  0.5555  0.1276 -0.4558
13023SOL    HW140791   5.968   8.081   3.986  1.3061  1.5284  1.5554
13023SOL    HW240792   5.978   7.932   3.964  1.6911  2.1028 -3.3006
13024SOL     OW40793   9.292   8.430   3.173 -0.3384  0.0835  0.0417
13024SOL    HW140794   9.375   8.386   3.190  0.2686  1.2725  0.2274
13024SOL    HW240795   9.235   8.360   3.141  0.4779 -0.9078  0.6682
13025SOL     OW40796   5.653   3.473   5.434  0.1207  0.2254 -0.3642
13025SOL    HW140797   5.719   3.526   5.479 -0.5957  0.1278  0.8484
13025SOL    HW240798   5.587   3.455   5.501  0.0984 -1.8004 -0.8612
13026SOL     OW40799   0.172   6.349   9.157 -0.4466  0.4933  0.4569
13026SOL    HW140800   0.107   6.284   9.181 -1.9060  1.0327 -1.7172
13026SOL    HW240801   0.221   6.309   9.085 -0.3093  1.1914  0.1539
13027SOL     OW40802   1.615   3.534   0.670  0.1424  0.1817 -0.0131
13027SOL    HW140803   1.523   3.519   0.690  0.2589 -2.1231 -0.8723
13027SOL    HW240804   1.661   3.518   0.752  0.1285 -3.6116 -0.5710
13028SOL     OW40805   5.471   4.600   6.364  0.6187 -0.0938 -0.0562
13028SOL    HW140806   5.391   4.593   6.312  0.8746  0.8686 -0.6224
13028SOL    HW240807   5.512   4.680   6.332  2.5424 -1.3156 -0.7979
13029SOL     OW40808   8.908   8.802   9.185  0.5786  0.0323  0.5382
13029SOL    HW140809   8.909   8.782   9.092  1.2828  0.2129  0.5037
13029SOL    HW240810   8.838   8.867   9.195  0.4160 -0.0856  0.1597
13030SOL     OW40811   5.674   5.182   9.028  0.1312  0.2609 -0.3931
13030SOL    HW140812   5.672   5.237   8.951  0.9885 -0.5772 -1.0416
13030SOL    HW240813   5.636   5.099   9.000  0.5368 -0.0848  0.0424
13031SOL     OW40814   4.348   2.502   6.956 -0.2444  0.2286 -0.0394
13031SOL    HW140815   4.299   2.423   6.933  0.1863  0.5788 -2.3972
13031SOL    HW240816   4.282   2.562   6.991 -1.0017 -0.3420 -0.4606
13032SOL     OW40817   2.526   4.150   2.818 -0.5874  0.3524 -0.0683
13032SOL    HW140818   2.452   4.151   2.757  0.3969 -0.7716 -1.3346
13032SOL    HW240819   2.600   4.181   2.765  0.3485 -0.9326  0.4509
13033SOL     OW40820   2.859   0.152   5.219  0.4115 -0.0345  0.1778
13033SOL    HW140821   2.928   0.182   5.161  0.4061  0.6231  0.5003
13033SOL    HW240822   2.874   0.058   5.229  0.4223 -0.1444 -0.8578
13034SOL     OW40823   8.205   9.355   7.137 -0.0274 -0.0247  0.0026
13034SOL    HW140824   8.176   9.375   7.048  0.6323 -0.0251 -0.2200
13034SOL    HW240825   8.298   9.334   7.127  0.5049  1.7023  0.9156
13035SOL     OW40826   9.380   2.880   4.802  0.3747  0.1590  0.0315
13035SOL    HW140827   9.341   2.804   4.844 -0.2506 -0.4966 -1.6336
13035SOL    HW240828   9.401   2.849   4.713  2.8202  1.0764  0.2055
13036SOL     OW40829   5.960   5.275   6.333 -0.1806  0.2942  0.2193
13036SOL    HW140830   6.003   5.314   6.256 -1.8228  1.7593 -0.0226
13036SOL    HW240831   6.014   5.303   6.407  0.6500  0.0209 -0.2666
13037SOL     OW40832   2.231   5.142   4.391  0.1653  0.4332 -0.0924
13037SOL    HW140833   2.195   5.111   4.474  2.0714 -0.4069  0.4759
13037SOL    HW240834   2.271   5.064   4.352  0.8187  1.1902 -0.9723
13038SOL     OW40835   9.687   3.327   1.550 -0.0543  0.0323 -0.1903
13038SOL    HW140836   9.591   3.330   1.545 -0.0857  1.2015  0.5891
13038SOL    HW240837   9.716   3.413   1.521  0.7179 -0.0554  0.2753
13039SOL     OW40838   9.315   8.694   2.002  0.1103 -0.4960  0.5525
13039SOL    HW140839   9.273   8.759   2.058  0.0639 -0.4422  0.4562
13039SOL    HW240840   9.407   8.695   2.028  0.3567  0.4889 -0.2701
13040SOL     OW40841   6.168   9.351   7.258 -0.3346 -0.1728  0.0281
13040SOL    HW140842   6.136   9.285   7.319 -1.0708  1.1553  1.1355
13040SOL    HW240843   6.183   9.429   7.312 -1.6389  1.2634 -1.5657
13041SOL     OW40844   1.563   3.161   4.491  0.2119 -0.3776  0.1473
13041SOL    HW140845   1.479   3.192   4.526 -0.8658 -1.7057 -1.1474
13041SOL    HW240846   1.561   3.067   4.503  0.1247 -0.8155 -2.6413
13042SOL     OW40847   4.213   6.813   3.398  0.2334  0.2694  0.0642
13042SOL    HW140848   4.225   6.835   3.491  1.1646 -0.7930  0.2278
13042SOL    HW240849   4.252   6.726   3.390  1.7602  1.0501 -1.7015
13043SOL     OW40850   5.259   2.579   0.149  0.3082  0.1697 -0.3974
13043SOL    HW140851   5.328   2.623   0.197 -0.4760  2.1981 -1.0437
13043SOL    HW240852   5.306   2.519   0.090  1.5316  1.6068 -0.9379
13044SOL     OW40853   8.447   8.824   6.752 -0.7021 -0.5340 -0.3868
13044SOL    HW140854   8.456   8.917   6.774  0.3262 -0.2505 -1.8697
13044SOL    HW240855   8.478   8.778   6.830  0.7719  0.4001 -0.3844
13045SOL     OW40856   8.193   6.212   7.153 -0.3306 -0.1815  0.0818
13045SOL    HW140857   8.213   6.305   7.141  0.0710 -0.2639  0.1073
13045SOL    HW240858   8.238   6.168   7.081  0.1954 -0.4437  0.5673
13046SOL     OW40859   3.455   9.364   4.466  0.4374 -0.2009 -0.2373
13046SOL    HW140860   3.380   9.318   4.503 -0.5291  0.6526 -1.0934
13046SOL    HW240861   3.520   9.364   4.537 -1.5258  1.8370  1.7316
13047SOL     OW40862   3.015   1.875   1.194 -0.1481 -0.3638 -0.1639
13047SOL    HW140863   3.089   1.910   1.145  0.9176 -1.3266  0.6980
13047SOL    HW240864   3.051   1.851   1.279 -1.4621 -0.8437  0.2957
13048SOL     OW40865   5.997   6.813   8.968 -0.0655  0.1424  0.1303
13048SOL    HW140866   5.924   6.868   8.998  0.2090  0.4192  0.3039
13048SOL    HW240867   6.057   6.812   9.043  0.2541  0.1754 -0.1245
13049SOL     OW40868   7.902   1.125   2.566 -0.1955  0.6342  0.2014
13049SOL    HW140869   7.867   1.047   2.523  0.7967  1.1552 -1.6293
13049SOL    HW240870   7.997   1.114   2.562 -0.0580  1.5633  0.6539
13050SOL     OW40871   4.173   7.432   0.013 -0.1288  0.4342  0.4009
13050SOL    HW140872   4.239   7.383   0.062  1.6370  0.7941 -1.4966
13050SOL    HW240873   4.182   7.522   0.043 -1.3747  0.1583  1.7589
13051SOL     OW40874   6.096   0.895   2.593 -0.1670 -0.3843  0.3813
13051SOL    HW140875   6.052   0.956   2.651 -1.1776 -1.1858  0.4921
13051SOL    HW240876   6.189   0.904   2.615 -0.4133  0.2312  1.2343
13052SOL     OW40877   5.673   8.367   1.925  0.4542 -0.8375 -0.0511
13052SOL    HW140878   5.761   8.348   1.957 -0.2085 -1.0674  1.7307
13052SOL    HW240879   5.666   8.319   1.842  1.8040 -1.2485  0.0565
13053SOL     OW40880   2.570   0.004   8.657  0.4402 -0.2958  0.3465
13053SOL    HW140881   2.562   0.052   8.739  0.9571 -0.5447  0.5491
13053SOL    HW240882   2.661   0.016   8.630  0.1000  0.3689 -0.5675
13054SOL     OW40883   3.919   0.270   4.298  0.1189 -0.1745 -0.0963
13054SOL    HW140884   3.967   0.222   4.364 -0.1210 -1.7681 -1.0241
13054SOL    HW240885   3.833   0.226   4.294  0.9401 -1.7837 -3.1043
13055SOL     OW40886   7.885   1.652   2.344 -0.5316  0.1949  0.2058
13055SOL    HW140887   7.953   1.707   2.384 -0.2251 -0.3604  0.4532
13055SOL    HW240888   7.830   1.625   2.417 -0.0704 -0.6823  0.2338
13056SOL     OW40889   2.977   0.379   6.115 -0.3342 -0.4734 -0.5171
13056SOL    HW140890   2.906   0.322   6.144 -0.0592 -0.3601  0.4107
13056SOL    HW240891   3.051   0.320   6.100 -0.8196 -0.7019 -2.2785
13057SOL     OW40892   7.147   9.387   4.654  0.6959 -0.0508  0.4765
13057SOL    HW140893   7.083   9.419   4.718 -1.4081 -3.2962  0.2716
13057SOL    HW240894   7.139   9.447   4.580 -1.0372  0.5119  1.0647
13058SOL     OW40895   8.628   5.328   4.087  0.3456  0.1511 -0.5173
13058SOL    HW140896   8.713   5.353   4.124  0.3373  1.7102 -1.4644
13058SOL    HW240897   8.636   5.234   4.071  1.7000  0.1666 -0.0865
13059SOL     OW40898   3.892   0.683   0.611  0.4095  0.1757 -0.4494
13059SOL    HW140899   3.930   0.622   0.547 -1.6532 -0.5576 -1.0732
13059SOL    HW240900   3.816   0.720   0.565 -2.7708 -2.3259  2.2835
13060SOL     OW40901   4.848   4.859   9.279 -0.7460  0.6518 -0.5088
13060SOL    HW140902   4.811   4.946   9.260 -0.9750  0.4943 -0.7994
13060SOL    HW240903   4.785   4.819   9.338 -1.4128  0.1232 -1.5357
13061SOL     OW40904   1.954   4.655   9.224 -0.1375 -0.4054 -0.7977
13061SOL    HW140905   1.889   4.600   9.269 -0.2229 -1.0097 -1.6237
13061SOL    HW240906   2.026   4.595   9.206  1.5223  0.6637  1.7378
13062SOL     OW40907   8.758   1.204   4.521 -0.4852 -0.6938 -0.4460
13062SOL    HW140908   8.755   1.178   4.429 -0.8026  1.1946 -1.0032
13062SOL    HW240909   8.667   1.222   4.544 -0.4453 -1.4065  0.3465
13063SOL     OW40910   6.088   7.689   0.901 -0.1597  0.1639 -0.5801
13063SOL    HW140911   6.160   7.748   0.878 -0.4479  0.2431 -1.3171
13063SOL    HW240912   6.036   7.684   0.821 -0.7878 -0.1548 -0.1540
13064SOL     OW40913   3.036   0.558   1.957  0.3737 -0.2147 -0.7075
13064SOL    HW140914   3.127   0.584   1.944  0.6007  1.5213  3.1082
13064SOL    HW240915   3.039   0.462   1.954  1.9212 -0.1779 -2.4563
13065SOL     OW40916   7.969   1.667   4.115  0.5402  0.6143 -0.1361
13065SOL    HW140917   7.889   1.639   4.159  1.5513 -0.6757  1.0000
13065SOL    HW240918   7.996   1.745   4.162  1.2757 -0.4017  1.1973
13066SOL     OW40919   6.664   7.654   9.296 -0.0696 -0.3567  0.0814
13066SOL    HW140920   6.582   7.703   9.285  1.7110  2.8542 -0.3388
13066SOL    HW240921   6.706   7.696   9.371  3.0766  1.1972 -2.3563
13067SOL     OW40922   7.969   0.424   2.721 -0.0723 -0.0493  0.2269
13067SOL    HW140923   8.052   0.382   2.743 -1.0051 -1.3819  1.4084
13067SOL    HW240924   7.974   0.441   2.627  1.3592 -0.4946  0.2022
13068SOL     OW40925   1.037   0.893   4.515  0.0009  0.2627 -0.3076
13068SOL    HW140926   1.108   0.834   4.541 -1.2130 -1.2507 -0.3369
13068SOL    HW240927   0.967   0.876   4.577 -0.6999  1.0517 -0.8540
13069SOL     OW40928   6.287   2.594   3.206 -0.4573 -0.6698  0.6266
13069SOL    HW140929   6.314   2.676   3.248 -0.1065 -0.0712 -0.7298
13069SOL    HW240930   6.197   2.609   3.179 -1.0377 -1.4223  2.0180
13070SOL     OW40931   7.604   5.250   4.532  0.1653  0.0115 -0.0377
13070SOL    HW140932   7.545   5.197   4.586  0.2000 -1.5236 -1.4179
13070SOL    HW240933   7.556   5.264   4.450  0.7280  0.9384 -0.2272
13071SOL     OW40934   2.769   0.151   4.337 -0.4943  0.3497  0.1625
13071SOL    HW140935   2.766   0.246   4.329 -0.8828  0.2553 -1.0066
13071SOL    HW240936   2.814   0.135   4.420 -0.4863  1.5467  0.4031
13072SOL     OW40937   8.868   1.049   7.201 -0.5123 -0.3196 -0.2830
13072SOL    HW140938   8.950   1.042   7.251  0.0165 -1.4725 -1.2641
13072SOL    HW240939   8.895   1.039   7.110 -1.5787  0.8022 -0.7515
13073SOL     OW40940   0.773   0.343   2.923  0.1074  0.3600 -0.5256
13073SOL    HW140941   0.778   0.335   2.827  1.6850 -0.2586 -0.4147
13073SOL    HW240942   0.844   0.403   2.946  0.2635 -0.1366  0.3313
13074SOL     OW40943   2.652   3.811   5.866  0.1626 -0.5700 -0.7490
13074SOL    HW140944   2.557   3.821   5.863 -0.1347 -2.5421  0.2671
13074SOL    HW240945   2.684   3.898   5.891 -1.3976  0.0180 -0.6304
13075SOL     OW40946   3.139   2.520   8.138 -0.0476 -0.1091  0.3654
13075SOL    HW140947   3.176   2.432   8.146 -1.1437 -1.0181 -2.8137
13075SOL    HW240948   3.045   2.508   8.154  0.1666  1.1987  3.1932
13076SOL     OW40949   0.266   1.256   2.703 -0.1479 -1.0922  0.2486
13076SOL    HW140950   0.195   1.320   2.713 -0.9859 -1.7963 -0.8608
13076SOL    HW240951   0.253   1.195   2.775  1.7336  0.8791  2.4002
13077SOL     OW40952   2.714   4.863   1.356  0.1542 -0.6583  0.6963
13077SOL    HW140953   2.635   4.916   1.369 -0.4254 -0.7861 -1.7840
13077SOL    HW240954   2.742   4.884   1.267  1.6023 -2.3355  0.7149
13078SOL     OW40955   2.935   2.198   9.138  0.3015 -0.1425  0.0758
13078SOL    HW140956   2.943   2.102   9.136 -1.3029 -0.3889  2.0040
13078SOL    HW240957   3.008   2.227   9.193  0.8721 -0.2251 -0.6255
13079SOL     OW40958   1.222   6.443   0.939  0.5459  0.3407  0.1301
13079SOL    HW140959   1.317   6.433   0.935  0.4178 -0.8574 -2.2921
13079SOL    HW240960   1.208   6.537   0.943  1.7960  0.5096  1.9261
13080SOL     OW40961   3.935   0.020   6.492 -0.5827  0.0578  0.1332
13080SOL    HW140962   3.871   0.023   6.563  0.4940  1.0945  1.0825
13080SOL    HW240963   3.990  -0.055   6.513 -0.8961 -0.2717 -0.1922
13081SOL     OW40964   7.429   9.411   1.705 -0.0051  1.0569 -0.1858
13081SOL    HW140965   7.395   9.374   1.786  1.7554 -2.2759 -0.7870
13081SOL    HW240966   7.518   9.439   1.727  0.9718 -1.0849 -1.1638
13082SOL     OW40967   7.583   8.671   4.313 -0.5855 -0.1579  0.2882
13082SOL    HW140968   7.676   8.662   4.335 -0.4730  0.9280  0.2980
13082SOL    HW240969   7.558   8.584   4.281  0.3529 -0.5502  0.5754
13083SOL     OW40970   7.693   1.973   4.148  0.2898 -0.1815 -0.1278
13083SOL    HW140971   7.749   2.051   4.145 -0.0469  0.0386 -2.3214
13083SOL    HW240972   7.676   1.959   4.241 -1.3636  3.6191  0.3236
13084SOL     OW40973   2.058   6.803   5.340 -0.5178 -0.2195 -0.2182
13084SOL    HW140974   1.993   6.812   5.271 -0.0868 -0.4421 -0.6650
13084SOL    HW240975   2.044   6.878   5.396 -2.1599 -1.0650  0.5625
13085SOL     OW40976   1.172   5.824   2.650  0.2576 -0.4527 -0.4656
13085SOL    HW140977   1.191   5.897   2.591 -0.0541 -0.5397 -0.6804
13085SOL    HW240978   1.255   5.779   2.660  0.8201  0.7869  0.8718
13086SOL     OW40979   8.629   8.985   2.425  0.1508 -0.1185  0.1311
13086SOL    HW140980   8.600   8.896   2.407  1.3117 -0.4608 -0.1363
13086SOL    HW240981   8.617   8.996   2.519  1.0461 -0.9691  0.3659
13087SOL     OW40982   1.208   0.695   4.646 -0.6094 -0.7144 -0.6463
13087SOL    HW140983   1.294   0.651   4.645 -0.3799 -0.5805  2.5056
13087SOL    HW240984   1.145   0.624   4.658 -0.7012 -0.6153 -0.5352
13088SOL     OW40985   4.404   0.937   5.863 -0.2667  0.1994  0.4330
13088SOL    HW140986   4.311   0.958   5.877 -0.9528 -0.8073 -2.1189
13088SOL    HW240987   4.431   0.995   5.792  2.0345  2.6871  3.0765
13089SOL     OW40988   9.383   0.470   5.096  0.2941  0.0531  0.1763
13089SOL    HW140989   9.371   0.390   5.045  0.1649  0.2005 -0.0281
13089SOL    HW240990   9.318   0.531   5.060 -1.4873 -0.5917  2.1014
13090SOL     OW40991   8.458   5.576   2.463 -0.1366  0.1325 -0.2243
13090SOL    HW140992   8.454   5.641   2.534 -0.8813 -0.5488  0.3744
13090SOL    HW240993   8.550   5.550   2.459 -0.3157 -0.9167  1.5217
13091SOL     OW40994   1.891   9.480   6.515 -0.1310  0.3915 -0.2691
13091SOL    HW140995   1.908   9.542   6.444 -2.4740  0.6205 -0.7227
13091SOL    HW240996   1.935   9.399   6.486 -0.7259  0.5897 -1.8270
13092SOL     OW40997   9.538   3.592   9.428  0.0648 -0.0801  0.1368
13092SOL    HW140998   9.477   3.533   9.385 -0.3305 -0.6628  1.4454
13092SOL    HW240999   9.483   3.650   9.482  0.4711  1.2421 -0.8056
13093SOL     OW41000   1.045   3.819   0.464  0.4009 -0.2459 -0.0151
13093SOL    HW141001   1.101   3.778   0.529  1.1493  0.6553 -0.0712
13093SOL    HW241002   0.960   3.830   0.508  0.6358 -0.4610  0.4961
13094SOL     OW41003   1.740   7.856   4.951 -0.1286  0.4062 -0.2106
13094SOL    HW141004   1.760   7.785   4.891  0.7963  0.7067 -0.2773
13094SOL    HW241005   1.824   7.900   4.965 -0.1447 -0.0861  1.8690
13095SOL     OW41006   1.432   9.370   3.840 -0.0232 -0.8621  0.2763
13095SOL    HW141007   1.375   9.332   3.907 -0.3268 -1.2180 -0.1757
13095SOL    HW241008   1.510   9.314   3.841 -0.3337 -1.3111 -0.1631
13096SOL     OW41009   7.524   0.080   1.907 -0.0316 -0.0673  0.1453
13096SOL    HW141010   7.433   0.053   1.906  0.2761 -1.1389  0.3855
13096SOL    HW241011   7.571   0.008   1.948  0.7790  0.9659  1.0942
13097SOL     OW41012   3.137   1.690   7.029  0.4661 -0.1427 -0.1227
13097SOL    HW141013   3.197   1.751   6.986  1.2793 -0.8813 -0.0541
13097SOL    HW241014   3.094   1.743   7.096  0.0431  0.7290 -1.0519
13098SOL     OW41015   4.822   8.990   5.983  0.0202  0.0226  0.2246
13098SOL    HW141016   4.766   8.942   5.922  0.1459 -2.2185  1.7226
13098SOL    HW241017   4.771   8.994   6.064  1.0049  0.2423  0.8517
13099SOL     OW41018   5.125   0.635   5.047 -0.2408  0.3016  0.5371
13099SOL    HW141019   5.042   0.646   5.093 -1.7120  0.5776 -2.0163
13099SOL    HW241020   5.128   0.707   4.984  0.1722 -1.6711 -1.8546
13100SOL     OW41021   5.875   0.413   1.904 -0.1968 -0.0656 -0.4300
13100SOL    HW141022   5.832   0.441   1.985  0.6905 -2.4379  0.9520
13100SOL    HW241023   5.857   0.484   1.842 -1.1419  1.7138  1.7324
13101SOL     OW41024   8.411   4.237   4.733 -0.3702  0.8425  0.4506
13101SOL    HW141025   8.420   4.228   4.828  0.1413 -1.4195  0.2419
13101SOL    HW241026   8.490   4.195   4.698 -0.9554  0.9150 -0.9861
13102SOL     OW41027   1.515   7.144   4.464 -0.2958  0.3498  0.1284
13102SOL    HW141028   1.467   7.099   4.394  0.0345  0.5173 -0.2105
13102SOL    HW241029   1.496   7.093   4.543 -0.9946  0.3944 -0.0090
13103SOL     OW41030   1.576   5.988   6.808  0.0607  0.1720 -0.1639
13103SOL    HW141031   1.604   6.074   6.777 -0.2755  1.0485  1.8005
13103SOL    HW241032   1.602   5.986   6.900 -1.9584 -0.9130  0.4482
13104SOL     OW41033   9.556   1.380   4.263 -0.4384  0.0289  0.1379
13104SOL    HW141034   9.520   1.458   4.221 -0.6018  0.2659  0.7151
13104SOL    HW241035   9.541   1.393   4.356 -2.0497 -1.4837  0.1329
13105SOL     OW41036   0.822   7.528   3.768  0.1065 -0.9229 -0.0001
13105SOL    HW141037   0.865   7.470   3.705  0.3776 -1.6740  0.8585
13105SOL    HW241038   0.883   7.532   3.842 -0.6332 -0.8165  0.6087
13106SOL     OW41039   4.398   0.583   2.745 -0.1091  0.1351  0.8076
13106SOL    HW141040   4.405   0.671   2.781  0.6711  0.8883 -1.0606
13106SOL    HW241041   4.331   0.590   2.677 -1.3019 -1.1634  1.7864
13107SOL     OW41042   2.009   2.417   8.910  0.3515 -0.2395  0.2196
13107SOL    HW141043   1.926   2.371   8.919 -0.1472  0.6204  0.1447
13107SOL    HW241044   1.995   2.500   8.956  0.6049  0.6150 -1.2060
13108SOL     OW41045   1.653   2.915   0.291  0.2942  0.1722  0.2327
13108SOL    HW141046   1.746   2.899   0.306  0.6771  2.6209  1.1208
13108SOL    HW241047   1.612   2.897   0.376  0.2659  0.7342  0.3476
13109SOL     OW41048   7.732   4.115   6.213 -0.4129  0.0215 -0.4160
13109SOL    HW141049   7.737   4.030   6.169  0.7309  0.2931 -0.8470
13109SOL    HW241050   7.727   4.179   6.142 -0.0221  0.3763 -0.1331
13110SOL     OW41051   0.079   3.617   9.533  0.1734 -0.1643 -0.4740
13110SOL    HW141052  -0.014   3.607   9.515  0.3262 -1.5902 -0.6124
13110SOL    HW241053   0.093   3.712   9.536 -1.0601  0.0880 -1.5944
13111SOL     OW41054   8.367   7.730   1.227 -0.1815  0.9230 -0.6593
13111SOL    HW141055   8.383   7.662   1.292 -2.3032 -0.4118 -1.4296
13111SOL    HW241056   8.436   7.718   1.162  0.9438  1.1788  0.4501
13112SOL     OW41057   3.347   9.086   4.484 -0.4511 -0.0192 -0.1200
13112SOL    HW141058   3.407   9.029   4.533 -0.7009  0.5606  0.9070
13112SOL    HW241059   3.400   9.119   4.411 -0.5549 -2.1784 -1.2292
13113SOL     OW41060   8.487   5.309   7.278  0.0285  0.3771  0.7535
13113SOL    HW141061   8.541   5.291   7.202 -0.9138 -0.3296  0.2215
13113SOL    HW241062   8.416   5.244   7.273 -2.1903  2.6731  0.1039
13114SOL     OW41063   7.866   5.491   4.455 -0.3275 -0.3530 -0.8456
13114SOL    HW141064   7.909   5.426   4.511 -1.9771 -0.5904  0.1991
13114SOL    HW241065   7.829   5.555   4.516 -0.5742  0.4076 -1.7624
13115SOL     OW41066   9.113   1.627   0.224  0.3366  0.4170 -0.4953
13115SOL    HW141067   9.132   1.697   0.286  0.2382  0.7989 -0.8908
13115SOL    HW241068   9.032   1.654   0.180  0.1095 -0.1068 -0.4192
13116SOL     OW41069   0.476   3.400   4.504 -0.0210  0.4269 -0.6843
13116SOL    HW141070   0.417   3.475   4.518 -0.6385 -0.2566  0.5656
13116SOL    HW241071   0.432   3.327   4.548  2.1627  0.0730  1.1074
13117SOL     OW41072   7.797   2.094   9.416 -0.1641 -0.2230  0.5784
13117SOL    HW141073   7.756   2.098   9.502  0.4869 -1.9998  1.0079
13117SOL    HW241074   7.758   2.167   9.368  0.1456  1.3971  2.6508
13118SOL     OW41075   3.409   7.631   0.262 -0.2333 -0.3051  0.2676
13118SOL    HW141076   3.479   7.681   0.221 -0.9548 -0.3345 -1.0493
13118SOL    HW241077   3.426   7.638   0.356  1.3464 -0.0646 -0.0165
13119SOL     OW41078   5.080   1.770   0.423 -0.3050  0.3994  0.0855
13119SOL    HW141079   5.079   1.866   0.421 -0.6557  0.3993  0.0850
13119SOL    HW241080   4.991   1.746   0.396 -0.1579  0.0711 -0.1014
13120SOL     OW41081   6.844   1.667   3.342  0.7975  0.3276  0.8387
13120SOL    HW141082   6.756   1.678   3.306  0.5437 -1.8555  0.6482
13120SOL    HW241083   6.831   1.675   3.437  0.6538  1.3228  0.7513
13121SOL     OW41084   6.961   4.781   3.180  1.2268  0.2173 -0.2668
13121SOL    HW141085   7.002   4.769   3.095 -1.0984 -2.2873 -1.1823
13121SOL    HW241086   6.905   4.858   3.169  0.0722 -0.7506 -1.4392
13122SOL     OW41087   3.686   0.368   5.673  0.0795  0.3941 -0.3838
13122SOL    HW141088   3.737   0.381   5.752  0.1084 -0.5364 -0.2411
13122SOL    HW241089   3.623   0.440   5.673 -0.2143  0.1563  0.7173
13123SOL     OW41090   2.164   2.492   5.793 -0.1227  0.1983 -0.6801
13123SOL    HW141091   2.168   2.506   5.888 -1.1959  1.0013 -0.7312
13123SOL    HW241092   2.107   2.416   5.783 -0.5444  0.5075 -0.6892
13124SOL     OW41093   3.392   6.540   6.167 -0.5433  0.0359 -0.0526
13124SOL    HW141094   3.474   6.583   6.189 -0.9185  0.5713  0.3492
13124SOL    HW241095   3.406   6.448   6.187 -0.0498  0.1308  0.0408
13125SOL     OW41096   3.798   1.683   5.544  0.6390 -0.1953 -0.3868
13125SOL    HW141097   3.758   1.632   5.473  0.8247 -1.9784  0.7285
13125SOL    HW241098   3.731   1.747   5.569  0.0342 -0.5001 -1.2028
13126SOL     OW41099   6.020   2.510   5.159 -0.0886 -0.2467 -0.1915
13126SOL    HW141100   5.990   2.600   5.169 -0.5035 -0.4153  0.1187
13126SOL    HW241101   6.039   2.501   5.065  0.2681  0.2557 -0.1672
13127SOL     OW41102   2.245   0.208   6.392 -0.8680 -0.2331  0.1960
13127SOL    HW141103   2.269   0.274   6.326 -1.5871 -0.9478 -0.8043
13127SOL    HW241104   2.176   0.249   6.443 -1.6417 -0.3618 -0.7226
13128SOL     OW41105   8.368   8.223   6.452  0.1099  0.1674 -0.0920
13128SOL    HW141106   8.370   8.318   6.463 -0.2020  0.2239 -0.5464
13128SOL    HW241107   8.351   8.209   6.359  1.1592 -0.3309 -0.2268
13129SOL     OW41108   4.735   5.731   0.159  0.0166  0.8605  0.4562
13129SOL    HW141109   4.773   5.807   0.116 -0.9967  2.3322  2.0688
13129SOL    HW241110   4.810   5.674   0.178  0.7360  1.2433 -1.0824
13130SOL     OW41111   6.570   5.303   1.940  0.0671 -0.2285 -0.1898
13130SOL    HW141112   6.557   5.254   2.021  0.7666 -0.6090 -0.3006
13130SOL    HW241113   6.663   5.324   1.939 -0.2344  1.1964 -0.1019
13131SOL     OW41114   5.834   2.435   1.019  0.6892 -0.5627  0.5245
13131SOL    HW141115   5.856   2.523   1.051  2.2501 -0.6871 -0.1431
13131SOL    HW241116   5.902   2.414   0.956 -0.9233 -1.3502 -1.0649
13132SOL     OW41117   0.675   3.585   3.373 -0.1902 -0.3178 -0.2952
13132SOL    HW141118   0.707   3.538   3.296  0.1420 -0.1053 -0.2926
13132SOL    HW241119   0.587   3.552   3.388 -0.2782 -0.3121 -0.8047
13133SOL     OW41120   7.219   7.325   9.591  0.3113 -0.1258  0.0148
13133SOL    HW141121   7.134   7.346   9.553 -0.3971 -0.9444  1.0751
13133SOL    HW241122   7.205   7.243   9.638  1.8025 -0.5136 -0.1421
13134SOL     OW41123   6.097   1.073   6.032 -0.0244 -0.5224 -0.5926
13134SOL    HW141124   6.105   1.005   6.099  0.3817  1.8836  1.9882
13134SOL    HW241125   6.012   1.112   6.047  0.7413  1.1450 -0.3237
13135SOL     OW41126   4.002   2.250   5.655 -0.1531 -0.1015  0.2852
13135SOL    HW141127   3.976   2.222   5.743 -0.4954  1.2176  0.6322
13135SOL    HW241128   3.970   2.340   5.649 -1.4323 -0.6200 -1.7208
13136SOL     OW41129   4.706   1.979   9.086 -0.2347 -0.4617  0.0055
13136SOL    HW141130   4.651   1.991   9.009 -0.2522 -1.1710 -0.0991
13136SOL    HW241131   4.710   2.066   9.127  1.0685  0.3308 -1.6475
13137SOL     OW41132   4.040   2.612   9.674 -0.6255 -0.0759  0.3324
13137SOL    HW141133   4.106   2.550   9.703  0.4623  0.1615 -1.4889
13137SOL    HW241134   4.032   2.674   9.746 -0.2485 -1.1656  1.3387
13138SOL     OW41135   7.472   8.702   0.221 -0.6205  0.3693 -0.3581
13138SOL    HW141136   7.468   8.609   0.243 -0.2122  0.0536 -1.5468
13138SOL    HW241137   7.511   8.743   0.299  2.0647 -0.8918 -0.9305
13139SOL     OW41138   5.125   6.874   5.818  0.3605  0.2320 -0.0604
13139SOL    HW141139   5.105   6.781   5.827 -0.6247  0.2206 -2.0251
13139SOL    HW241140   5.220   6.879   5.828  0.2582 -0.7130  1.8087
13140SOL     OW41141   1.596   0.775   3.439 -0.3778  0.2028 -0.2177
13140SOL    HW141142   1.586   0.687   3.404  1.9705 -0.0018 -0.5519
13140SOL    HW241143   1.663   0.815   3.384  0.5550  1.2511  1.5724
13141SOL     OW41144   7.222   5.265   3.378 -0.2306  0.4757 -0.1719
13141SOL    HW141145   7.162   5.272   3.452 -0.1071 -1.1868  0.1385
13141SOL    HW241146   7.187   5.192   3.326  0.3149  0.8913 -1.1427
13142SOL     OW41147   5.322   6.131   6.214 -0.5201  0.5314  0.2582
13142SOL    HW141148   5.302   6.056   6.157 -0.9578 -0.5116  1.7099
13142SOL    HW241149   5.243   6.185   6.210 -0.8296  0.0986  0.4276
13143SOL     OW41150   1.035   6.719   4.412  0.3385 -0.8682 -0.0678
13143SOL    HW141151   0.948   6.702   4.447  0.4474 -0.3328  0.5005
13143SOL    HW241152   1.045   6.814   4.419  2.0116 -1.1102  2.5453
13144SOL     OW41153   3.378   4.183   7.358  0.1353 -0.5892 -0.4108
13144SOL    HW141154   3.390   4.230   7.441 -1.1134 -1.1033  0.0821
13144SOL    HW241155   3.357   4.093   7.385  1.4167 -1.2046 -1.3239
13145SOL     OW41156   4.215   0.874   0.012  0.0413 -0.1581 -0.1259
13145SOL    HW141157   4.140   0.876   0.071  1.1637 -0.7955  1.4002
13145SOL    HW241158   4.185   0.823  -0.064 -1.4437  0.7137 -0.1541
13146SOL     OW41159   0.124   1.469   2.700  0.1116  0.3296  0.2116
13146SOL    HW141160   0.121   1.496   2.792 -3.4155 -3.6935  1.5899
13146SOL    HW241161   0.037   1.492   2.666 -0.3311 -2.3217 -0.6479
13147SOL     OW41162   2.026   3.395   0.296 -0.5077 -0.0546  0.3242
13147SOL    HW141163   1.952   3.441   0.257  0.4371  1.0832 -0.1642
13147SOL    HW241164   2.017   3.305   0.265 -1.2078  0.2663 -0.4366
13148SOL     OW41165   5.547   7.100   7.568  0.3960  0.4307 -0.3717
13148SOL    HW141166   5.510   7.014   7.588  0.1129  1.0120  1.8198
13148SOL    HW241167   5.559   7.141   7.653 -0.9398  3.1812 -1.4133
13149SOL     OW41168   5.810   5.246   2.720  0.2144 -0.2294  0.2704
13149SOL    HW141169   5.715   5.258   2.716  0.2945  0.2106 -0.5028
13149SOL    HW241170   5.844   5.333   2.741  0.5568  0.0709 -1.4041
13150SOL     OW41171   3.520   1.189   7.656  0.4171  0.2068  0.1111
13150SOL    HW141172   3.522   1.184   7.560  0.0305 -1.8050  0.1603
13150SOL    HW241173   3.604   1.155   7.684  0.2751  0.1670  0.4955
13151SOL     OW41174   9.479   6.019   4.599 -0.5476 -0.6577  0.3495
13151SOL    HW141175   9.515   5.968   4.671  0.6886 -0.6421 -0.2312
13151SOL    HW241176   9.391   6.042   4.627 -0.2412 -1.0243  1.6641
13152SOL     OW41177   2.829   0.654   7.885  0.2744 -0.0151 -0.4005
13152SOL    HW141178   2.902   0.648   7.823  0.9556 -0.6346  0.4366
13152SOL    HW241179   2.828   0.569   7.929 -0.4970  0.2525  0.1132
13153SOL     OW41180   6.463   0.527   6.858  0.1389 -0.4422 -0.1015
13153SOL    HW141181   6.532   0.472   6.894  0.7912 -0.0796 -0.7645
13153SOL    HW241182   6.404   0.465   6.814 -0.1596 -0.7874  0.7724
13154SOL     OW41183   2.660   4.428   3.669 -0.0866 -0.2814 -0.0452
13154SOL    HW141184   2.725   4.458   3.733 -0.7542 -1.1896  1.1062
13154SOL    HW241185   2.576   4.439   3.714 -0.6222 -0.4042 -0.9914
13155SOL     OW41186   0.166   6.206   6.528 -0.2072  0.4850  0.0791
13155SOL    HW141187   0.109   6.158   6.588 -0.9965  0.4911 -0.6356
13155SOL    HW241188   0.187   6.287   6.574 -0.7118  0.4408  0.3934
13156SOL     OW41189   9.201   4.384   2.079  0.0546 -0.3473 -0.0793
13156SOL    HW141190   9.269   4.349   2.136 -0.0560  1.3381  1.1687
13156SOL    HW241191   9.165   4.308   2.034  0.4549 -1.7006  1.7835
13157SOL     OW41192   5.808   6.764   5.471 -0.8137  0.2666 -0.2589
13157SOL    HW141193   5.792   6.785   5.379 -1.5099  3.0332  0.4000
13157SOL    HW241194   5.901   6.742   5.475 -0.6690  0.5569 -1.5586
13158SOL     OW41195   1.075   0.495   4.250 -0.3788  0.2434  0.5493
13158SOL    HW141196   1.169   0.500   4.267 -0.3014 -1.0551  0.6112
13158SOL    HW241197   1.063   0.544   4.169  0.9124 -2.2310 -1.2995
13159SOL     OW41198   6.756   8.124   6.467  0.1190 -0.3132  0.5912
13159SOL    HW141199   6.699   8.200   6.459  0.3299 -0.1937  0.2068
13159SOL    HW241200   6.705   8.061   6.518 -0.3416 -0.1957  0.2834
13160SOL     OW41201   1.330   1.010   2.954  0.1014  0.3734  0.4912
13160SOL    HW141202   1.365   1.086   3.001  0.4813  0.0321  0.7745
13160SOL    HW241203   1.406   0.952   2.943 -0.1263  0.1612  0.0339
13161SOL     OW41204   3.121   6.392   0.394  0.9815  0.0001  0.7886
13161SOL    HW141205   3.088   6.431   0.312  1.0065 -0.7028  0.4381
13161SOL    HW241206   3.099   6.457   0.461 -0.1208  0.0576  0.3971
13162SOL     OW41207   5.511   6.881   5.062  0.5821  0.3349 -0.8252
13162SOL    HW141208   5.500   6.797   5.107  1.7764 -1.0151 -2.9115
13162SOL    HW241209   5.584   6.923   5.107 -0.7179  0.8351  0.9458
13163SOL     OW41210   5.513   0.763   4.812  0.1434  0.2113 -0.3328
13163SOL    HW141211   5.444   0.733   4.752 -0.1671 -2.1528  1.0732
13163SOL    HW241212   5.473   0.837   4.858 -0.1285  1.1371 -1.9756
13164SOL     OW41213   6.219   2.092   3.548 -0.0557  0.0508  0.2461
13164SOL    HW141214   6.187   2.078   3.637 -0.0727 -0.2109  0.2011
13164SOL    HW241215   6.145   2.068   3.492  0.4774 -1.4182  0.1081
13165SOL     OW41216   4.202   8.866   1.358 -0.4915  0.3804  0.6610
13165SOL    HW141217   4.278   8.903   1.403  0.0813 -0.9972  0.8783
13165SOL    HW241218   4.185   8.783   1.403 -0.3968 -0.6618 -1.1210
13166SOL     OW41219   6.674   3.081   9.564 -0.1704  0.3165 -1.1953
13166SOL    HW141220   6.720   3.159   9.596 -2.8482  1.1064  1.2079
13166SOL    HW241221   6.667   3.095   9.470 -0.6213  3.1390 -0.8483
13167SOL     OW41222   8.078   3.436   6.525 -0.3197 -0.3661  0.4806
13167SOL    HW141223   8.152   3.492   6.501 -0.4565 -0.6012 -0.5532
13167SOL    HW241224   8.023   3.435   6.446 -0.8108 -1.1639  0.8273
13168SOL     OW41225   0.994   7.121   7.686 -0.5078 -0.4491  0.3246
13168SOL    HW141226   1.048   7.044   7.668  0.1538  0.5149 -2.3182
13168SOL    HW241227   1.007   7.138   7.779  2.4986 -1.2231  0.1629
13169SOL     OW41228   7.149   1.888   3.246  0.1509 -0.0982 -0.5165
13169SOL    HW141229   7.235   1.906   3.208  1.1833  0.5696  1.9477
13169SOL    HW241230   7.150   1.794   3.264  1.8622  0.3719  2.6047
13170SOL     OW41231   0.942   0.648   6.039 -0.2091 -0.5687  0.0250
13170SOL    HW141232   0.949   0.563   6.083 -1.1432 -0.7753 -0.2192
13170SOL    HW241233   0.966   0.630   5.948  2.3265 -0.0296  0.5035
13171SOL     OW41234   0.275   5.777   3.536 -0.3213 -0.0566 -0.0750
13171SOL    HW141235   0.208   5.821   3.588 -0.7476 -1.4684  0.6224
13171SOL    HW241236   0.262   5.684   3.555  1.4793 -0.3920 -0.3667
13172SOL     OW41237   2.612   8.855   2.103 -0.0597 -0.2775  0.5098
13172SOL    HW141238   2.641   8.793   2.171 -2.4635 -1.5410  0.4732
13172SOL    HW241239   2.667   8.834   2.027  2.6008  1.0850  1.8872
13173SOL     OW41240   8.979   1.275   6.806 -0.0655 -0.5095  0.2480
13173SOL    HW141241   8.959   1.206   6.869 -2.4488 -1.8239 -1.7745
13173SOL    HW241242   8.896   1.319   6.791  1.3071  2.7924  1.2669
13174SOL     OW41243   8.647   1.319   8.661  0.0436  0.0965 -0.4601
13174SOL    HW141244   8.639   1.409   8.693 -1.5616 -0.3158  0.3911
13174SOL    HW241245   8.677   1.329   8.571  1.1026  1.4280 -0.0012
13175SOL     OW41246   2.121   4.834   6.754  0.1745 -0.4860  0.1193
13175SOL    HW141247   2.036   4.849   6.712  0.5791 -0.4770 -0.7247
13175SOL    HW241248   2.165   4.773   6.695  0.8330 -0.3251  0.4461
13176SOL     OW41249   3.013   9.647   1.601 -0.2924 -0.7512  0.1144
13176SOL    HW141250   3.002   9.631   1.695 -1.5713 -0.8042 -0.0320
13176SOL    HW241251   2.945   9.594   1.560 -1.0022  0.7663 -0.7246
13177SOL     OW41252   2.068   9.620   5.044  0.3590 -0.7824  0.4344
13177SOL    HW141253   2.030   9.547   4.995 -2.4782 -0.1886  1.5815
13177SOL    HW241254   2.089   9.584   5.130 -1.5678 -0.2146  1.1948
13178SOL     OW41255   6.958   5.256   2.648  0.3325  0.1032  0.1725
13178SOL    HW141256   6.932   5.253   2.740 -1.8768 -0.9641 -0.4163
13178SOL    HW241257   7.043   5.212   2.646  0.1282 -0.4136  1.6120
13179SOL     OW41258   0.486   8.329   4.613  0.1733  0.6487  0.7645
13179SOL    HW141259   0.508   8.249   4.661 -1.2421 -0.7083 -0.7005
13179SOL    HW241260   0.569   8.361   4.578  0.4839 -2.2756 -1.6306
13180SOL     OW41261   5.772   4.419   0.313  0.3650  0.1746 -0.0213
13180SOL    HW141262   5.709   4.421   0.241  0.9852  1.1165 -0.5530
13180SOL    HW241263   5.765   4.331   0.348 -0.5133 -0.0550 -0.7250
13181SOL     OW41264   4.385   7.211   9.283 -0.2074 -0.3307  0.4630
13181SOL    HW141265   4.433   7.200   9.201  1.6834 -0.2298  1.5157
13181SOL    HW241266   4.345   7.125   9.300 -0.6326 -0.3445 -0.5479
13182SOL     OW41267   3.179   7.913   0.336 -0.7646  0.1801  0.3164
13182SOL    HW141268   3.226   7.971   0.396  0.4374 -0.0372 -0.3889
13182SOL    HW241269   3.109   7.876   0.390 -0.2491  0.6583  1.3572
13183SOL     OW41270   9.141   5.508   6.812  0.0300 -0.3186 -0.5750
13183SOL    HW141271   9.188   5.591   6.806 -1.0207  0.2146 -1.7262
13183SOL    HW241272   9.209   5.441   6.804  0.8159  0.4279 -0.2432
13184SOL     OW41273   3.513   4.814   4.665  0.3120  0.1570 -0.3506
13184SOL    HW141274   3.583   4.754   4.691  2.1476  2.6018  0.8720
13184SOL    HW241275   3.464   4.830   4.745 -0.5887 -0.2459 -0.8190
13185SOL     OW41276   6.261   5.708   6.146 -0.5540  0.3082 -0.5093
13185SOL    HW141277   6.325   5.651   6.103  1.1480  1.7308  0.0226
13185SOL    HW241278   6.275   5.693   6.240 -0.0652  1.5728 -0.3658
13186SOL     OW41279   6.183   2.518   0.963 -0.3595 -0.3073 -0.0047
13186SOL    HW141280   6.249   2.467   1.011 -0.1447 -0.7659 -0.7572
13186SOL    HW241281   6.210   2.609   0.975  0.0873 -0.4562  0.1679
13187SOL     OW41282   4.381   1.634   7.124 -0.5502  0.0090  0.3153
13187SOL    HW141283   4.308   1.683   7.161 -1.1574  0.1221 -0.9712
13187SOL    HW241284   4.454   1.696   7.123 -0.7865  0.2920  0.4409
13188SOL     OW41285   7.223   6.613   1.975 -0.0836  0.1659 -0.0603
13188SOL    HW141286   7.177   6.696   1.992  1.4996  1.4103 -1.4214
13188SOL    HW241287   7.312   6.629   2.006  0.5665 -0.5714 -1.4436
13189SOL     OW41288   4.546   8.765   8.231 -0.0577  0.4294 -0.0622
13189SOL    HW141289   4.570   8.673   8.243  1.9657  0.8542 -0.4195
13189SOL    HW241290   4.571   8.807   8.314 -0.4310  0.7509 -0.1099
13190SOL     OW41291   6.554   0.651   5.860  0.2025  0.0436 -0.2943
13190SOL    HW141292   6.636   0.673   5.816 -0.3202  0.8478 -0.9002
13190SOL    HW241293   6.517   0.578   5.810  1.2306 -1.3090  0.8455
13191SOL     OW41294   0.294   7.396   0.732 -0.3620  0.5746  0.0153
13191SOL    HW141295   0.286   7.414   0.638  0.4159 -1.5753 -0.5421
13191SOL    HW241296   0.388   7.396   0.748 -0.3874 -0.9995  0.3145
13192SOL     OW41297   3.823   3.739   0.928 -0.5643 -0.2471  0.1883
13192SOL    HW141298   3.778   3.701   1.004 -0.3575 -0.8155  0.0334
13192SOL    HW241299   3.903   3.775   0.964 -1.1269  0.7591  0.4644
13193SOL     OW41300   7.000   0.658   6.844 -0.0918  0.3976  0.2539
13193SOL    HW141301   6.988   0.565   6.866 -1.8589  0.7336  0.8480
13193SOL    HW241302   7.017   0.701   6.927  1.4556  0.5500 -0.1024
13194SOL     OW41303   7.986   0.665   5.194 -0.0315 -0.7041  0.1589
13194SOL    HW141304   8.018   0.673   5.283 -0.8766  0.0405  0.4141
13194SOL    HW241305   8.056   0.700   5.139 -0.1145  0.2378  0.6461
13195SOL     OW41306   8.048   2.582   3.689  0.1398  0.1773 -0.4205
13195SOL    HW141307   8.142   2.580   3.704 -0.0658 -1.1444  0.9134
13195SOL    HW241308   8.029   2.503   3.639 -0.5387 -0.8687  1.4033
13196SOL     OW41309   5.041   6.927   1.723 -0.0903  0.0381  0.3023
13196SOL    HW141310   5.010   6.998   1.780 -0.2879  1.1337 -1.1127
13196SOL    HW241311   5.088   6.868   1.782 -1.8639  0.1284  1.9415
13197SOL     OW41312   8.710   5.252   7.135 -0.4435 -0.1003  0.0770
13197SOL    HW141313   8.796   5.237   7.175  0.3009  0.3371 -1.3050
13197SOL    HW241314   8.728   5.262   7.042 -1.9894  0.1466 -0.2200
13198SOL     OW41315   2.039   5.409   3.325 -0.0859  0.2355 -0.2290
13198SOL    HW141316   1.957   5.407   3.275  0.4204 -0.3320 -1.0522
13198SOL    HW241317   2.106   5.431   3.261  0.5733 -0.5340  0.1852
13199SOL     OW41318   7.327   1.112   5.115 -0.2347 -0.1217  0.1155
13199SOL    HW141319   7.404   1.142   5.164 -0.9500  0.6436  0.8004
13199SOL    HW241320   7.281   1.192   5.089 -0.8303 -0.5652 -0.2455
13200SOL     OW41321   4.519   8.463   3.374  0.3050  0.6576 -0.0260
13200SOL    HW141322   4.492   8.373   3.394  1.0924  0.3738 -0.1964
13200SOL    HW241323   4.442   8.516   3.393 -0.2580 -0.0860 -0.1772
13201SOL     OW41324   4.109   5.607   9.036 -0.0131 -0.5394 -0.4833
13201SOL    HW141325   4.036   5.545   9.032 -0.7086  0.1093  1.2328
13201SOL    HW241326   4.068   5.693   9.031  0.6507 -0.1742  0.1973
13202SOL     OW41327   7.192   1.666   8.782 -0.5381 -0.2458  0.5219
13202SOL    HW141328   7.132   1.735   8.757  0.5075  0.8157  0.8511
13202SOL    HW241329   7.240   1.645   8.702 -0.3173 -0.0347  0.5979
13203SOL     OW41330   8.724   8.254   2.048 -0.5477 -0.3790  0.2538
13203SOL    HW141331   8.650   8.315   2.057 -0.1265  0.3723 -1.1174
13203SOL    HW241332   8.685   8.168   2.061 -1.1356  0.1372  2.3540
13204SOL     OW41333   0.303   5.526   1.535  0.3406  0.4288  0.8969
13204SOL    HW141334   0.289   5.551   1.444 -2.8405  1.8696  1.6382
13204SOL    HW241335   0.342   5.603   1.576  0.1699  0.4168  1.0881
13205SOL     OW41336   1.555   0.233   8.658 -0.1434 -0.6098  0.6925
13205SOL    HW141337   1.620   0.180   8.702  1.6257 -0.2869 -1.3546
13205SOL    HW241338   1.570   0.322   8.689  1.3755 -0.3165 -0.7548
13206SOL     OW41339   8.097   1.518   8.358 -0.0118  0.0043  0.3274
13206SOL    HW141340   8.080   1.468   8.279  0.4200 -0.8299  0.7492
13206SOL    HW241341   8.176   1.569   8.337 -0.0886  0.0353  0.1112
13207SOL     OW41342   6.161   6.276   0.925 -0.1644 -0.0423  0.3641
13207SOL    HW141343   6.148   6.354   0.871  0.5992  0.5765  1.0480
13207SOL    HW241344   6.251   6.283   0.956  0.7792 -2.4089 -1.4443
13208SOL     OW41345   4.808   3.872   5.402  0.2757 -0.0399 -0.2887
13208SOL    HW141346   4.873   3.926   5.447  0.0548 -0.4170  0.4851
13208SOL    HW241347   4.779   3.808   5.467 -0.8850  0.1279 -0.6063
13209SOL     OW41348   6.036   5.671   5.069  0.0519  0.0552 -0.3781
13209SOL    HW141349   6.048   5.749   5.015 -1.1886  2.0132  1.9806
13209SOL    HW241350   5.944   5.648   5.059  0.2650 -0.7471 -0.5684
13210SOL     OW41351   9.113   0.681   5.946  0.1024  0.0563  0.3848
13210SOL    HW141352   9.135   0.773   5.961 -2.5416  0.8809 -0.3775
13210SOL    HW241353   9.167   0.655   5.871  0.6704  1.0486  0.4342
13211SOL     OW41354   2.956   5.820   8.692  0.1856 -0.0758  0.5558
13211SOL    HW141355   2.962   5.900   8.744  0.1768 -0.6815  1.5044
13211SOL    HW241356   3.046   5.801   8.665 -0.0887  1.6347 -1.8555
13212SOL     OW41357   3.415   8.669   1.491 -0.0145 -0.7296 -0.0547
13212SOL    HW141358   3.490   8.617   1.461  1.5615  0.9520  0.7809
13212SOL    HW241359   3.419   8.663   1.586 -0.5639 -0.0780  0.0114
13213SOL     OW41360   2.651   3.204   2.508  0.4258  0.1044  0.8740
13213SOL    HW141361   2.595   3.197   2.586  1.2592  2.5134  1.7742
13213SOL    HW241362   2.601   3.260   2.449  0.8766  0.3567  0.7321
13214SOL     OW41363   0.609   2.636   5.945 -0.0381  0.5593 -0.3557
13214SOL    HW141364   0.646   2.682   5.870  0.3029 -0.5832 -0.9231
13214SOL    HW241365   0.679   2.634   6.009 -0.1033  0.9478 -0.2702
13215SOL     OW41366   9.083   3.963   9.152  0.1738 -0.0914  0.0787
13215SOL    HW141367   9.176   3.977   9.136 -0.2276  1.8750 -0.8612
13215SOL    HW241368   9.043   3.966   9.065 -0.7332 -1.3334  0.4308
13216SOL     OW41369   9.528   1.179   4.084  0.0443  0.4012  0.2899
13216SOL    HW141370   9.432   1.179   4.076  0.0789  1.0008 -0.2642
13216SOL    HW241371   9.546   1.246   4.150 -0.0042 -1.1851  1.9719
13217SOL     OW41372   0.018   7.551   0.816  0.4243  0.4755  0.3126
13217SOL    HW141373   0.044   7.597   0.737  0.1253  0.9844  0.5064
13217SOL    HW241374   0.064   7.466   0.811  2.4222  1.4561  0.8076
13218SOL     OW41375   9.017   8.452   6.127 -0.2136 -0.5647  0.0377
13218SOL    HW141376   9.054   8.371   6.163 -0.2915 -0.8056 -0.4180
13218SOL    HW241377   9.089   8.514   6.128  0.1914 -1.0137 -0.7975
13219SOL     OW41378   5.416   0.433   9.228  0.1461  0.0204 -0.1914
13219SOL    HW141379   5.468   0.474   9.297  0.2186  1.9679 -1.3210
13219SOL    HW241380   5.375   0.357   9.270  1.4322  0.2163  1.5380
13220SOL     OW41381   8.839   4.794   5.356  0.2880 -0.2204 -0.0843
13220SOL    HW141382   8.857   4.749   5.274 -0.9124 -0.5854 -0.1757
13220SOL    HW241383   8.798   4.877   5.330 -1.0545 -0.7810  0.1225
13221SOL     OW41384   0.098   4.802   8.332 -0.4405  0.0349 -0.4587
13221SOL    HW141385   0.043   4.726   8.311  0.6600 -0.7767 -0.4711
13221SOL    HW241386   0.040   4.859   8.383 -0.7520 -1.7070  1.2706
13222SOL     OW41387   7.259   6.236   6.896  0.2074  0.3520  0.2061
13222SOL    HW141388   7.277   6.143   6.880  2.1316  0.8600 -0.9575
13222SOL    HW241389   7.341   6.270   6.932 -0.8149  1.4163  1.6409
13223SOL     OW41390   2.271   7.950   3.439 -0.0689 -0.2693  0.4397
13223SOL    HW141391   2.215   7.910   3.373  0.4913  1.0015 -0.8702
13223SOL    HW241392   2.217   8.016   3.481  0.3887  0.9733 -0.8409
13224SOL     OW41393   2.929   1.809   9.581 -0.1151  0.0131 -0.4925
13224SOL    HW141394   3.009   1.850   9.614 -0.2730 -0.8134  0.9977
13224SOL    HW241395   2.858   1.868   9.608 -0.1901 -0.3401  0.0862
13225SOL     OW41396   1.378   7.137   5.531 -0.1537 -0.2074  0.0903
13225SOL    HW141397   1.466   7.169   5.512 -0.4508 -0.1198 -1.2400
13225SOL    HW241398   1.333   7.213   5.568  0.5469 -0.4835  1.6053
13226SOL     OW41399   3.897   5.903   2.034 -0.5000  0.3945  0.1578
13226SOL    HW141400   3.964   5.963   2.067 -0.7046  0.7841 -0.1269
13226SOL    HW241401   3.822   5.960   2.015 -0.4857  0.1287 -0.7000
13227SOL     OW41402   5.337   0.367   2.087  0.2923 -0.1162  0.0269
13227SOL    HW141403   5.263   0.401   2.136  0.9274  0.2874  0.7258
13227SOL    HW241404   5.359   0.284   2.130 -1.0636 -1.3277 -1.4876
13228SOL     OW41405   9.331   6.095   1.413  0.2136 -0.0790 -0.0528
13228SOL    HW141406   9.342   6.188   1.393 -0.0538 -0.0783 -0.1963
13228SOL    HW241407   9.419   6.065   1.433  0.6156 -0.2210 -1.8407
13229SOL     OW41408   6.897   4.043   4.842 -0.6126 -0.0888  0.3064
13229SOL    HW141409   6.954   4.052   4.918 -2.1393  0.6868  1.4117
13229SOL    HW241410   6.938   3.974   4.789  0.9207 -0.0667  1.4026
13230SOL     OW41411   4.199   9.632   3.321  0.1164  0.8893  0.2622
13230SOL    HW141412   4.176   9.611   3.411  2.9357  0.4587  0.9921
13230SOL    HW241413   4.177   9.553   3.271 -1.0732  0.9812  0.6174
13231SOL     OW41414   9.587   2.110   6.623  0.5044 -0.0009  0.1881
13231SOL    HW141415   9.658   2.047   6.636  0.4711 -0.2494 -0.7912
13231SOL    HW241416   9.611   2.156   6.542 -1.2684 -1.2087 -1.0783
13232SOL     OW41417   5.611   8.044   0.686 -0.2866  0.0249 -0.2290
13232SOL    HW141418   5.700   8.009   0.682 -0.2253 -0.1453  1.6544
13232SOL    HW241419   5.557   7.970   0.714 -0.6711  0.6035  0.6157
13233SOL     OW41420   3.069   5.584   5.543 -0.0148 -0.6263  0.2180
13233SOL    HW141421   3.056   5.512   5.605 -1.4471 -0.8543 -0.3022
13233SOL    HW241422   3.164   5.593   5.536  0.2056 -2.5026  0.2796
13234SOL     OW41423   5.133   3.382   3.854  0.3462 -0.8519 -0.3420
13234SOL    HW141424   5.197   3.413   3.790 -0.9481 -0.0616 -1.3112
13234SOL    HW241425   5.052   3.429   3.832 -1.2714 -3.5816 -0.7648
13235SOL     OW41426   9.173   5.785   7.965  0.0007  0.1259  0.2146
13235SOL    HW141427   9.212   5.724   8.027 -0.2584  0.0126  0.2706
13235SOL    HW241428   9.215   5.766   7.881 -0.3730 -0.4083  0.1476
13236SOL     OW41429   7.533   5.466   3.798 -0.4009  0.2475 -0.0536
13236SOL    HW141430   7.583   5.385   3.805 -1.3736 -0.5466 -1.7774
13236SOL    HW241431   7.445   5.443   3.828 -0.6472  0.7019 -0.4083
13237SOL     OW41432   3.286   6.234   1.380  0.0261  0.7076 -0.0125
13237SOL    HW141433   3.251   6.307   1.432 -0.4691  2.5430 -2.7506
13237SOL    HW241434   3.225   6.162   1.396 -1.7907  2.1180 -0.2540
13238SOL     OW41435   5.624   6.120   7.152 -0.1898 -0.2524  0.0463
13238SOL    HW141436   5.530   6.136   7.157 -0.4517 -0.8101 -1.9849
13238SOL    HW241437   5.652   6.110   7.243 -1.9971  0.3776  0.7147
13239SOL     OW41438   6.308   1.314   2.186 -0.4036  0.0763  0.3872
13239SOL    HW141439   6.290   1.323   2.092 -1.4129 -1.0856  0.4547
13239SOL    HW241440   6.359   1.234   2.193  0.1036  0.4258  0.7968
13240SOL     OW41441   0.805   7.621   8.626 -0.1651 -0.1931  0.4631
13240SOL    HW141442   0.798   7.527   8.611  1.8709 -0.3506  0.1866
13240SOL    HW241443   0.801   7.660   8.538 -1.2580  0.0164  0.5951
13241SOL     OW41444   3.375   3.717   5.441 -0.5538  0.2662 -0.0618
13241SOL    HW141445   3.434   3.650   5.476 -1.8745 -0.5623  0.6398
13241SOL    HW241446   3.432   3.772   5.386  0.8925 -0.4090  0.6927
13242SOL     OW41447   6.168   6.050   4.403 -0.1854 -0.3441  0.3990
13242SOL    HW141448   6.218   6.003   4.336  2.0429  0.3897  1.4511
13242SOL    HW241449   6.131   6.125   4.358  2.2947  0.8128  0.1638
13243SOL     OW41450   5.856   3.139   6.397  0.3429  0.3312 -0.4612
13243SOL    HW141451   5.922   3.083   6.356 -0.2038 -0.5588 -0.1747
13243SOL    HW241452   5.860   3.117   6.490 -0.9405 -0.4101 -0.5468
13244SOL     OW41453   7.106   3.365   0.850  0.0540 -0.1663  0.5183
13244SOL    HW141454   7.109   3.332   0.760 -0.1205  1.2906 -0.0528
13244SOL    HW241455   7.049   3.304   0.896 -2.4012  0.7190 -1.1237
13245SOL     OW41456   8.688   4.370   2.865 -0.1447 -0.2342 -0.0498
13245SOL    HW141457   8.683   4.444   2.926  1.7533 -0.1391  0.0801
13245SOL    HW241458   8.650   4.402   2.784  1.3577  1.1943 -0.2397
13246SOL     OW41459   3.772   5.730   5.226  0.6859 -0.3425 -0.2982
13246SOL    HW141460   3.792   5.720   5.319  0.4857  1.3859 -0.0426
13246SOL    HW241461   3.850   5.772   5.189 -0.6664  2.5525 -0.1116
13247SOL     OW41462   1.262   2.467   2.686  0.0105 -0.4714  0.2163
13247SOL    HW141463   1.226   2.545   2.729 -0.8933 -0.3547 -0.7199
13247SOL    HW241464   1.189   2.405   2.683  0.7211 -1.3855  0.9734
13248SOL     OW41465   2.293   5.400   1.371  0.5674  0.0303  0.0820
13248SOL    HW141466   2.311   5.306   1.372 -2.4509 -0.6352  0.8272
13248SOL    HW241467   2.230   5.412   1.300  0.0364  1.3002  0.7417
13249SOL     OW41468   1.854   2.254   7.471  0.5817  0.3070 -0.0523
13249SOL    HW141469   1.846   2.321   7.538 -0.1938  0.9635 -0.7829
13249SOL    HW241470   1.905   2.184   7.513  0.0823  0.6835  1.2173
13250SOL     OW41471   2.518   7.423   3.281 -0.4683  0.1050  0.5383
13250SOL    HW141472   2.485   7.368   3.352  1.5297 -1.2577  0.4967
13250SOL    HW241473   2.566   7.493   3.326 -1.2182  0.6178  0.5530
13251SOL     OW41474   5.506   0.756   6.175 -0.4598 -0.1665 -0.4460
13251SOL    HW141475   5.415   0.745   6.204  0.2632  0.5830  2.4525
13251SOL    HW241476   5.532   0.669   6.143 -1.9993 -0.5144 -0.8231
13252SOL     OW41477   0.635   5.105   5.980  0.1635 -0.0269 -0.3483
13252SOL    HW141478   0.711   5.135   5.931  1.4694  0.2682  1.7194
13252SOL    HW241479   0.665   5.026   6.024 -0.5808  0.3100  0.8029
13253SOL     OW41480   6.203   5.023   5.796 -0.0282 -0.0342  0.2596
13253SOL    HW141481   6.191   5.053   5.886  1.4262  1.0511  0.1326
13253SOL    HW241482   6.273   4.958   5.802 -1.9984 -2.2792  0.2873
13254SOL     OW41483   7.197   9.017   2.986 -0.5702 -0.8417  0.1455
13254SOL    HW141484   7.266   8.953   2.968  1.3848  1.7423 -2.5583
13254SOL    HW241485   7.121   8.985   2.938 -0.1012 -1.8743  0.0740
13255SOL     OW41486   4.180   3.014   3.205 -0.0510 -0.2813  0.0951
13255SOL    HW141487   4.243   3.032   3.136 -1.1189  0.6433 -0.6759
13255SOL    HW241488   4.218   2.941   3.255  1.5854  0.2433 -0.3486
13256SOL     OW41489   4.891   9.197   8.511 -0.0623  0.1257  0.4694
13256SOL    HW141490   4.943   9.229   8.437  1.4324  0.2651  1.5502
13256SOL    HW241491   4.912   9.104   8.517  1.6768  0.5738  2.1374
13257SOL     OW41492   5.805   6.306   1.965  0.1407  0.0612  0.3786
13257SOL    HW141493   5.710   6.319   1.970  0.2902  2.2023 -1.1623
13257SOL    HW241494   5.842   6.390   1.993  1.5662 -0.4595  0.1198
13258SOL     OW41495   0.880   1.015   5.332 -0.1716  0.1808 -0.4837
13258SOL    HW141496   0.957   1.041   5.381  0.2393 -0.5902 -0.7044
13258SOL    HW241497   0.914   0.985   5.247 -0.7005 -0.2395 -0.5517
13259SOL     OW41498   3.456   8.156   9.353 -0.6051 -0.4967  0.2332
13259SOL    HW141499   3.362   8.136   9.348 -0.5856 -0.8456  1.0008
13259SOL    HW241500   3.483   8.119   9.437 -0.4224  2.2711  1.4893
13260SOL     OW41501   3.681   0.528   5.964  0.1792 -0.0242  0.2555
13260SOL    HW141502   3.605   0.480   5.997 -0.4442  0.2941 -0.6926
13260SOL    HW241503   3.752   0.502   6.023 -0.6675 -0.2559  1.2162
13261SOL     OW41504   7.288   7.675   0.452 -0.2220  0.1889 -0.4273
13261SOL    HW141505   7.265   7.713   0.367  0.1531 -0.2302 -0.7199
13261SOL    HW241506   7.252   7.587   0.450  0.9575 -0.3038 -0.7019
13262SOL     OW41507   8.982   2.870   2.178 -0.1315 -0.1318  0.3177
13262SOL    HW141508   8.934   2.928   2.120  0.3073 -0.5018 -0.4263
13262SOL    HW241509   9.057   2.922   2.209 -0.0489 -0.1218  0.0973
13263SOL     OW41510   6.846   5.046   5.404  0.0758  0.3848 -0.3176
13263SOL    HW141511   6.911   5.097   5.356  1.6424  2.1632  3.2618
13263SOL    HW241512   6.812   5.107   5.470 -0.0381 -2.3591  2.4021
13264SOL     OW41513   8.687   2.975   4.563  0.9612  0.6230  0.0954
13264SOL    HW141514   8.657   2.927   4.486 -0.0960  0.8836  0.3314
13264SOL    HW241515   8.780   2.954   4.569  1.3076  1.4417 -1.8476
13265SOL     OW41516   4.662   5.523   6.375 -0.5858  0.2466 -0.8441
13265SOL    HW141517   4.706   5.477   6.446 -2.7579  1.7474  1.6425
13265SOL    HW241518   4.732   5.547   6.314  1.4354 -0.7010  0.9938
13266SOL     OW41519   0.308   7.146   7.363 -0.1164 -0.3071 -0.0622
13266SOL    HW141520   0.280   7.059   7.336  0.0920 -0.6023  0.6546
13266SOL    HW241521   0.351   7.182   7.285  1.8878 -1.7552  0.2740
13267SOL     OW41522   3.598   2.011   7.257  0.6991  0.2757 -0.2902
13267SOL    HW141523   3.573   2.103   7.249  1.3688  0.3659 -1.5388
13267SOL    HW241524   3.515   1.964   7.266  0.2542  0.8615 -1.2301
13268SOL     OW41525   7.513   4.916   2.531  0.2095  0.3875  0.0990
13268SOL    HW141526   7.500   4.927   2.625  0.6042 -1.7621  0.4406
13268SOL    HW241527   7.431   4.946   2.492 -0.4477  0.1025  1.2178
13269SOL     OW41528   6.588   8.690   0.527  0.3313  0.2261 -0.1695
13269SOL    HW141529   6.564   8.715   0.616 -5.5112 -3.6543 -0.1376
13269SOL    HW241530   6.659   8.626   0.539  1.4616  1.6569  1.3058
13270SOL     OW41531   5.961   0.873   6.757  0.1872  0.0285  0.2706
13270SOL    HW141532   6.039   0.836   6.715  0.2988 -0.5060  0.9224
13270SOL    HW241533   5.897   0.881   6.687  1.7558  3.3447 -0.9727
13271SOL     OW41534   4.325   6.675   2.744  0.0110  0.1751  0.1428
13271SOL    HW141535   4.307   6.734   2.817  3.8663  1.0521  0.5991
13271SOL    HW241536   4.294   6.723   2.667 -1.0437  0.7128  0.8674
13272SOL     OW41537   6.842   7.075   1.023 -0.4976  0.1326 -0.3828
13272SOL    HW141538   6.844   7.027   0.940 -0.3486  0.5673 -0.6319
13272SOL    HW241539   6.824   7.166   0.998 -2.0561  0.0153  0.1627
13273SOL     OW41540   7.684   3.208   3.737 -0.2253  0.1250 -0.3274
13273SOL    HW141541   7.719   3.273   3.798 -0.9284 -0.0704  0.2952
13273SOL    HW241542   7.593   3.197   3.763 -0.1243 -1.0973 -0.4331
13274SOL     OW41543   2.604   8.512   1.969 -0.5485 -0.5645  0.3147
13274SOL    HW141544   2.558   8.596   1.969 -0.8075 -0.7001  1.0539
13274SOL    HW241545   2.571   8.466   2.046  0.0969 -1.0686  0.3028
13275SOL     OW41546   8.395   6.970   2.983  0.5051 -0.1163 -0.3058
13275SOL    HW141547   8.403   6.938   3.073  2.1801 -1.6690 -0.9462
13275SOL    HW241548   8.301   6.981   2.970  0.1761 -0.6216  1.3717
13276SOL     OW41549   9.564   6.621   1.860 -0.0100  0.7006 -0.2533
13276SOL    HW141550   9.486   6.673   1.882 -0.3333 -0.0207  0.3708
13276SOL    HW241551   9.543   6.581   1.776 -1.3447 -1.3515  0.9590
13277SOL     OW41552   6.768   2.480   8.093 -0.5287  0.5574  0.2189
13277SOL    HW141553   6.800   2.556   8.045 -1.5103  2.1089  1.8821
13277SOL    HW241554   6.846   2.443   8.135  0.2670 -0.5615 -2.0846
13278SOL     OW41555   7.340   9.661   4.213 -0.9184 -0.3566  0.3238
13278SOL    HW141556   7.327   9.756   4.210 -0.7665 -0.3468 -0.0668
13278SOL    HW241557   7.431   9.648   4.187 -0.2012 -0.4519  2.6672
13279SOL     OW41558   4.874   2.017   0.240  0.0671  0.2995  0.4402
13279SOL    HW141559   4.870   1.924   0.264 -1.0771 -0.0310 -0.8944
13279SOL    HW241560   4.809   2.059   0.297  0.0216  0.1514  0.4979
13280SOL     OW41561   6.433   1.232   6.411  0.1367 -0.4805 -0.3157
13280SOL    HW141562   6.413   1.148   6.370  0.0918 -0.3600 -0.5405
13280SOL    HW241563   6.528   1.235   6.415  0.1498 -0.3457 -0.7161
13281SOL     OW41564   3.066   9.647   4.848 -0.2438 -0.5794  0.0525
13281SOL    HW141565   3.132   9.633   4.780  0.8108  2.3622  0.3150
13281SOL    HW241566   2.993   9.690   4.802 -0.4859 -0.6314  0.3822
13282SOL     OW41567   3.142   7.019   0.372  0.1522 -0.2171  0.6870
13282SOL    HW141568   3.183   6.958   0.311 -0.6570 -0.1918  0.1080
13282SOL    HW241569   3.212   7.042   0.434  0.4797 -1.6980  0.9011
13283SOL     OW41570   5.905   0.258   4.351  0.0987  0.8003  0.1688
13283SOL    HW141571   5.849   0.282   4.424 -0.5229  1.6094 -0.5491
13283SOL    HW241572   5.906   0.163   4.351 -1.4991  0.7610  0.0390
13284SOL     OW41573   3.884   4.546   2.135  0.3304  0.3758 -0.6026
13284SOL    HW141574   3.906   4.635   2.162 -0.1842  0.8685 -1.7320
13284SOL    HW241575   3.912   4.541   2.043  0.8816 -0.8212 -0.3988
13285SOL     OW41576   8.024   4.424   9.447  0.5676 -0.0298 -0.4647
13285SOL    HW141577   7.958   4.359   9.422  1.0906  0.1639 -2.5109
13285SOL    HW241578   8.096   4.372   9.482 -0.7049 -0.2272  2.0639
13286SOL     OW41579   1.398   0.702   8.086 -0.2447  0.1845 -0.0865
13286SOL    HW141580   1.316   0.656   8.102 -0.9801  1.7059  0.7566
13286SOL    HW241581   1.459   0.665   8.151  0.5739 -2.7553 -2.3415
13287SOL     OW41582   3.045   0.280   1.974 -0.4493  0.2227  0.1213
13287SOL    HW141583   3.140   0.277   1.968 -0.4519 -0.9372  0.4543
13287SOL    HW241584   3.023   0.216   2.042 -1.3815  1.4722  1.0502
13288SOL     OW41585   7.539   9.191   4.138 -0.0533 -0.6062  0.0430
13288SOL    HW141586   7.538   9.096   4.128  0.0562 -0.7564  1.3206
13288SOL    HW241587   7.625   9.210   4.175  0.3576  0.1290 -1.2088
13289SOL     OW41588   8.082   5.669   7.522 -0.2811 -0.1664  0.0626
13289SOL    HW141589   8.108   5.588   7.567  0.7486  0.3890  0.5118
13289SOL    HW241590   8.017   5.709   7.579  0.5773  0.2329  0.7820
13290SOL     OW41591   4.124   8.821   5.212 -0.2135 -0.1986 -0.6146
13290SOL    HW141592   4.206   8.778   5.188  0.1856  0.9976 -1.4805
13290SOL    HW241593   4.090   8.855   5.129 -0.5010  1.1556  0.0426
13291SOL     OW41594   1.017   5.497   6.606 -0.0998 -0.7993  0.2989
13291SOL    HW141595   0.974   5.436   6.666  1.6545 -0.0232  2.4636
13291SOL    HW241596   0.970   5.580   6.617 -0.6442 -0.9883 -0.4819
13292SOL     OW41597   0.322   6.913   0.601  0.0482  0.1891 -0.2510
13292SOL    HW141598   0.246   6.972   0.602 -1.5576 -1.7506 -0.5695
13292SOL    HW241599   0.329   6.883   0.692 -0.9738 -1.2512 -0.6073
13293SOL     OW41600   6.302   4.924   5.122  0.2733 -0.0897  0.2881
13293SOL    HW141601   6.387   4.914   5.164  0.7200 -1.2255 -0.8525
13293SOL    HW241602   6.251   4.849   5.153  0.1695 -0.2038 -0.1509
13294SOL     OW41603   1.637   3.224   7.303  0.1600  0.1032 -0.3160
13294SOL    HW141604   1.661   3.221   7.396 -0.5337  1.4603 -0.0547
13294SOL    HW241605   1.705   3.278   7.263 -0.6141  1.2253 -0.1837
13295SOL     OW41606   0.434   4.271   9.033 -0.0860 -0.0800 -0.6496
13295SOL    HW141607   0.396   4.217   9.102 -2.0212 -0.3887 -1.8628
13295SOL    HW241608   0.523   4.239   9.022 -0.4054 -1.3520  0.3450
13296SOL     OW41609   4.454   0.780   5.541  0.5024 -0.0287  0.1392
13296SOL    HW141610   4.458   0.863   5.587 -0.8861  0.0541  0.1451
13296SOL    HW241611   4.371   0.783   5.492  0.7652 -1.1141 -0.4092
13297SOL     OW41612   8.263   3.864   5.674  0.2559  0.1795  0.2791
13297SOL    HW141613   8.285   3.782   5.631 -0.4171 -0.2659  0.7824
13297SOL    HW241614   8.213   3.913   5.609  2.4756  1.1458 -0.8373
13298SOL     OW41615   8.946   5.956   0.792 -0.0021  0.4666 -0.0215
13298SOL    HW141616   9.005   5.931   0.863  0.3146  0.6940 -0.2060
13298SOL    HW241617   8.935   5.875   0.742  2.5053  1.0525 -1.7006
13299SOL     OW41618   0.433   2.811   6.123 -0.0413 -0.2915  0.2621
13299SOL    HW141619   0.414   2.834   6.032  2.0789  0.3216 -0.0768
13299SOL    HW241620   0.493   2.736   6.117  1.0485  0.4760  1.0835
13300SOL     OW41621   9.217   5.146   1.310  0.0850  0.0486 -0.4129
13300SOL    HW141622   9.130   5.171   1.343 -0.3208 -1.7960  0.0398
13300SOL    HW241623   9.221   5.185   1.223 -0.5861  1.4048  0.1410
13301SOL     OW41624   7.965   9.537   7.099 -0.5709 -0.9015 -0.2427
13301SOL    HW141625   8.002   9.608   7.046 -1.7402 -0.0631  0.0372
13301SOL    HW241626   8.036   9.472   7.103  1.2598  1.0315  1.0353
13302SOL     OW41627   1.292   2.619   8.929  0.4502 -0.8391 -0.0638
13302SOL    HW141628   1.247   2.653   8.852 -1.1549  0.3957  1.3378
13302SOL    HW241629   1.304   2.526   8.911 -2.5391 -1.2214 -0.6542
13303SOL     OW41630   4.105   7.207   0.263  0.3210  0.2740 -0.7479
13303SOL    HW141631   4.114   7.115   0.238  1.5494  0.0013  0.5523
13303SOL    HW241632   4.190   7.246   0.241  0.7676  0.4520  1.0902
13304SOL     OW41633   5.841   9.161   7.248 -0.1834  0.0292 -0.5213
13304SOL    HW141634   5.761   9.200   7.281  0.1687  2.5706 -2.3615
13304SOL    HW241635   5.823   9.141   7.156  0.2204 -2.7598 -0.0964
13305SOL     OW41636   5.292   0.920   1.040  0.1439  0.8394  0.2947
13305SOL    HW141637   5.216   0.863   1.028  0.3306  0.8003 -0.8167
13305SOL    HW241638   5.367   0.859   1.040  0.2481  0.9672  0.3610
13306SOL     OW41639   4.342   2.477   6.591  0.0546  0.2605 -0.0887
13306SOL    HW141640   4.284   2.514   6.524  0.2796  0.7102 -0.0404
13306SOL    HW241641   4.302   2.394   6.614 -0.4762  0.4850 -0.1851
13307SOL     OW41642   1.216   6.776   7.876  0.2606  0.1694 -0.0097
13307SOL    HW141643   1.217   6.802   7.784 -0.9937 -0.5921 -0.2643
13307SOL    HW241644   1.179   6.852   7.922 -1.5180 -0.3584 -0.4897
13308SOL     OW41645   2.028   2.786   0.700 -0.4176  0.2591 -0.0643
13308SOL    HW141646   2.078   2.768   0.779  0.7664  0.1894 -0.7970
13308SOL    HW241647   2.048   2.877   0.679  0.7372 -0.2223 -1.2420
13309SOL     OW41648   5.033   5.736   6.466 -0.6488 -0.1798 -0.2301
13309SOL    HW141649   5.055   5.796   6.538  2.1634 -2.0905  0.6538
13309SOL    HW241650   4.961   5.684   6.500 -0.2947 -0.1087  0.6562
13310SOL     OW41651   2.467   4.158   7.193  0.0811  0.2340  0.2075
13310SOL    HW141652   2.544   4.104   7.211  1.6814  1.8954 -1.2982
13310SOL    HW241653   2.399   4.095   7.170  2.1148 -1.2053 -2.4564
13311SOL     OW41654   2.542   3.145   4.544  0.4253  0.4105  0.6552
13311SOL    HW141655   2.538   3.229   4.589 -1.0405  0.9117 -0.3081
13311SOL    HW241656   2.452   3.131   4.512  0.7811 -1.2243  0.2748
13312SOL     OW41657   3.954   9.324   4.946 -0.1186 -0.4625  0.1430
13312SOL    HW141658   3.888   9.263   4.913  1.0025 -2.1596  0.8954
13312SOL    HW241659   3.961   9.304   5.039  0.4607  0.6648  0.3616
13313SOL     OW41660   4.325   3.052   7.524 -0.5584 -0.4348  0.3359
13313SOL    HW141661   4.266   3.116   7.485 -0.2827 -0.4770 -0.1622
13313SOL    HW241662   4.280   2.968   7.515  0.1209 -0.6601 -1.2275
13314SOL     OW41663   5.494   2.056   0.650 -0.5144  0.2052 -0.9696
13314SOL    HW141664   5.454   2.138   0.622  0.4811  0.5311 -1.4725
13314SOL    HW241665   5.459   1.990   0.590 -0.3872  0.4680 -1.3331
13315SOL     OW41666   8.163   9.131   0.246  0.0833 -0.3150  0.3657
13315SOL    HW141667   8.189   9.103   0.158 -0.8847 -0.4186  0.1057
13315SOL    HW241668   8.245   9.158   0.287  0.5685 -0.3921 -0.5225
13316SOL     OW41669   9.624   3.230   4.986 -0.3761 -0.0498 -0.2975
13316SOL    HW141670   9.639   3.178   5.064  0.9042 -0.9167 -1.0986
13316SOL    HW241671   9.529   3.228   4.974 -0.7081  0.9001  1.7407
13317SOL     OW41672   7.840   8.888   5.447 -0.3589 -0.1360 -0.0850
13317SOL    HW141673   7.928   8.849   5.447 -0.6533 -0.9085  1.7305
13317SOL    HW241674   7.838   8.940   5.528 -1.1618  0.8806 -0.7443
13318SOL     OW41675   2.162   7.566   4.126 -0.5278  0.0725  0.2224
13318SOL    HW141676   2.067   7.549   4.124 -0.4199 -1.2021  2.2265
13318SOL    HW241677   2.182   7.573   4.220  1.4737 -0.4514 -0.1330
13319SOL     OW41678   2.204   6.353   6.941  0.2339 -0.1185  0.2425
13319SOL    HW141679   2.215   6.297   7.017 -1.7669 -0.2620  0.4909
13319SOL    HW241680   2.291   6.359   6.902  1.2163 -0.3877  2.2854
13320SOL     OW41681   0.547   4.738   2.713  0.3958 -0.2452 -0.2240
13320SOL    HW141682   0.572   4.830   2.712  0.3437 -0.2250 -1.5102
13320SOL    HW241683   0.538   4.714   2.621  0.1453 -1.4701  0.0908
13321SOL     OW41684   1.789   4.728   2.586 -0.6043  0.1738 -0.3152
13321SOL    HW141685   1.838   4.702   2.664  1.4242 -0.0799 -1.6205
13321SOL    HW241686   1.769   4.646   2.541  0.5271  0.4466 -1.3626
13322SOL     OW41687   3.332   0.239   5.141 -0.0678 -0.2513 -0.2229
13322SOL    HW141688   3.374   0.168   5.093 -0.0624  0.2464 -0.9697
13322SOL    HW241689   3.380   0.244   5.224 -0.0200 -1.0592 -0.1960
13323SOL     OW41690   6.698   5.060   0.002  0.1275 -0.5340 -0.2251
13323SOL    HW141691   6.749   4.985  -0.028  1.5186 -0.1371  1.0320
13323SOL    HW241692   6.676   5.039   0.093  1.6204  1.0997  0.5592
13324SOL     OW41693   8.037   6.324   3.777 -0.3259  0.3677  0.2757
13324SOL    HW141694   8.070   6.255   3.835  0.0115 -0.0673 -0.4187
13324SOL    HW241695   8.114   6.378   3.759 -0.0142 -0.4816 -1.1167
13325SOL     OW41696   3.212   1.648   3.607  0.0645 -0.1918  0.2260
13325SOL    HW141697   3.251   1.675   3.691 -1.0066  0.4100  0.5485
13325SOL    HW241698   3.227   1.554   3.603 -0.9225 -0.4389  1.6778
13326SOL     OW41699   6.577   7.070   5.145  0.0168 -0.3258 -0.1557
13326SOL    HW141700   6.569   7.125   5.067  1.2984  0.8290  0.4739
13326SOL    HW241701   6.566   7.130   5.218  0.6935 -1.0308  0.5536
13327SOL     OW41702   2.039   6.820   0.218 -0.0989  0.3748 -0.1279
13327SOL    HW141703   2.121   6.827   0.267 -1.6125 -2.2643  3.1669
13327SOL    HW241704   1.977   6.875   0.266 -1.5412 -1.9804  0.8667
13328SOL     OW41705   1.180   1.384   5.154 -0.3263  0.1182  0.4162
13328SOL    HW141706   1.100   1.333   5.139 -0.1852  0.0015  0.0390
13328SOL    HW241707   1.162   1.434   5.233 -0.6711 -0.1137  0.4878
13329SOL     OW41708   4.031   6.273   5.714 -0.2027  0.3263  0.1914
13329SOL    HW141709   3.987   6.193   5.742  1.3272 -0.4399  0.5407
13329SOL    HW241710   4.109   6.242   5.668 -0.6641  1.6170 -1.5301
13330SOL     OW41711   1.248   5.839   1.947 -0.3556  0.0285  0.2699
13330SOL    HW141712   1.294   5.826   2.030  0.2772 -0.2338 -0.1188
13330SOL    HW241713   1.252   5.934   1.933 -0.4035  0.0667  0.5041
13331SOL     OW41714   7.830   8.281   4.583  0.3834  0.7661  0.4592
13331SOL    HW141715   7.880   8.238   4.513  0.1631  1.8343 -0.3823
13331SOL    HW241716   7.743   8.240   4.578  0.3310  0.9200  0.0125
13332SOL     OW41717   6.732   0.609   7.960  0.1929 -0.1559 -0.2027
13332SOL    HW141718   6.732   0.628   8.054  0.5736  1.0773 -0.4346
13332SOL    HW241719   6.657   0.552   7.947  1.2605 -2.0257  1.1656
13333SOL     OW41720   2.330   7.697   1.086  0.0045 -0.1260 -0.0164
13333SOL    HW141721   2.269   7.681   1.014  1.4746 -0.7628 -1.1889
13333SOL    HW241722   2.302   7.638   1.156 -0.0549 -1.2277 -0.9546
13334SOL     OW41723   0.114   8.352   3.948 -0.0565  0.1066 -0.0184
13334SOL    HW141724   0.065   8.432   3.928 -0.6167 -0.4140 -0.8068
13334SOL    HW241725   0.050   8.281   3.937  0.9151 -0.6168 -1.3174
13335SOL     OW41726   6.238   4.464   0.328  0.1866  0.0883  0.0012
13335SOL    HW141727   6.310   4.482   0.388  0.0326  0.8886 -0.0532
13335SOL    HW241728   6.252   4.373   0.301  1.6839  0.4892 -0.6926
13336SOL     OW41729   0.980   3.292   1.104  0.0052 -0.3384  0.3145
13336SOL    HW141730   0.921   3.221   1.079  0.5414 -0.7181  0.1373
13336SOL    HW241731   0.975   3.295   1.199  0.0607 -0.6740  0.3263
13337SOL     OW41732   0.761   3.655   4.024  0.4754 -0.6609  0.2445
13337SOL    HW141733   0.708   3.583   3.990  1.2131 -1.4625  0.7428
13337SOL    HW241734   0.798   3.696   3.946  1.0793 -1.6459 -0.0137
13338SOL     OW41735   7.349   1.269   5.359  0.1358 -0.0908 -0.1940
13338SOL    HW141736   7.430   1.248   5.311  0.8359 -1.2469  1.4167
13338SOL    HW241737   7.311   1.184   5.379 -1.7933  0.4449 -1.3677
13339SOL     OW41738   8.653   0.449   7.288  0.0850  0.1348 -0.2064
13339SOL    HW141739   8.728   0.476   7.235 -0.2780  0.2904 -0.6503
13339SOL    HW241740   8.677   0.363   7.322  0.3778  0.0892 -0.5199
13340SOL     OW41741   1.132   4.237   2.223  0.1704  0.0904 -0.1226
13340SOL    HW141742   1.161   4.210   2.310 -1.2329  1.3454  0.7665
13340SOL    HW241743   1.196   4.196   2.164  1.8410  0.1467  1.5354
13341SOL     OW41744   8.992   2.037   0.321  0.9085 -0.1799 -0.1258
13341SOL    HW141745   8.974   2.094   0.247 -2.5236 -0.2329  0.5241
13341SOL    HW241746   9.036   2.094   0.385  0.9497  0.7193 -0.9390
13342SOL     OW41747   2.729   5.917   8.952  0.4555 -0.0581  0.2538
13342SOL    HW141748   2.786   5.964   8.892  0.4759 -2.5533 -1.8584
13342SOL    HW241749   2.787   5.857   8.998 -0.1085 -0.9989 -0.2295
13343SOL     OW41750   8.747   2.639   7.417 -0.5198 -0.2960 -0.1309
13343SOL    HW141751   8.756   2.612   7.509  1.6055 -1.6091 -0.6419
13343SOL    HW241752   8.748   2.557   7.368 -0.2665  0.4463 -1.3978
13344SOL     OW41753   5.737   7.066   6.089 -0.0533 -0.1330  0.2221
13344SOL    HW141754   5.716   7.113   6.169  1.2799  2.9850 -1.0947
13344SOL    HW241755   5.712   7.126   6.019  0.7343 -1.8842 -1.6567
13345SOL     OW41756   1.051   7.379   5.131 -0.8875  0.2059  0.0235
13345SOL    HW141757   0.959   7.370   5.106 -1.2065 -0.4948  1.3666
13345SOL    HW241758   1.072   7.296   5.175  0.6476  0.0063 -1.0366
13346SOL     OW41759   7.044   2.297   3.170  0.0972  0.2628  0.3478
13346SOL    HW141760   7.012   2.363   3.233 -1.4151  1.1527 -1.2563
13346SOL    HW241761   7.025   2.335   3.085  1.6631 -1.1269 -0.6685
13347SOL     OW41762   1.706   0.754   1.655  0.6453  0.1603  0.1551
13347SOL    HW141763   1.703   0.669   1.611  0.9801 -0.7103  1.7247
13347SOL    HW241764   1.715   0.817   1.584  1.6048 -1.1993 -1.0081
13348SOL     OW41765   5.961   6.479   9.116  0.2900 -0.0093 -0.0742
13348SOL    HW141766   6.039   6.523   9.149  0.4745 -0.0016 -0.5121
13348SOL    HW241767   5.894   6.495   9.183  0.6576 -0.0072  0.2970
13349SOL     OW41768   1.481   1.134   3.787  0.3285  0.2312 -0.0079
13349SOL    HW141769   1.542   1.190   3.834  0.8557 -0.3583  0.0288
13349SOL    HW241770   1.480   1.168   3.698 -0.0253  0.8254  0.2151
13350SOL     OW41771   2.201   7.210   9.289 -0.7133  0.2799 -0.2103
13350SOL    HW141772   2.178   7.199   9.197  0.6681 -0.1149 -0.5392
13350SOL    HW241773   2.283   7.260   9.287  0.2892 -1.2482  0.6888
13351SOL     OW41774   7.547   4.757   5.522 -0.1774 -0.2905  0.6279
13351SOL    HW141775   7.625   4.805   5.550 -0.0116 -0.2722  0.1391
13351SOL    HW241776   7.548   4.764   5.427 -0.1987 -1.1860  0.5563
13352SOL     OW41777   5.134   6.011   0.294  0.4288 -0.1260 -0.1785
13352SOL    HW141778   5.146   6.053   0.379 -0.9772  1.8050 -0.8536
13352SOL    HW241779   5.100   6.080   0.238  0.1963 -1.6419 -2.0068
13353SOL     OW41780   2.237   8.949   0.942 -0.1435 -0.0978  0.0561
13353SOL    HW141781   2.279   8.891   0.879 -0.0656 -0.9906  0.8964
13353SOL    HW241782   2.144   8.946   0.920  0.0045  0.4032 -0.6434
13354SOL     OW41783   1.748   9.356   8.579 -0.2532  0.4564 -0.1885
13354SOL    HW141784   1.790   9.428   8.531 -1.5158  2.4750  1.5413
13354SOL    HW241785   1.704   9.304   8.512  2.8924 -0.3690 -1.8020
13355SOL     OW41786   9.063   1.608   7.482  0.3577 -0.2983  0.1413
13355SOL    HW141787   9.157   1.625   7.486  0.9137 -2.8306 -0.1980
13355SOL    HW241788   9.044   1.598   7.389 -0.4063  0.8023  0.1604
13356SOL     OW41789   7.049   7.743   2.811  0.1634  0.2619 -0.2568
13356SOL    HW141790   6.973   7.687   2.800  1.2584 -1.8685  1.9594
13356SOL    HW241791   7.120   7.697   2.767  1.2622 -0.6474  2.3010
13357SOL     OW41792   1.741   3.486   0.228  0.0060 -0.8149  0.0646
13357SOL    HW141793   1.712   3.407   0.182 -0.0454  0.2904 -1.9150
13357SOL    HW241794   1.666   3.545   0.224  1.2201  0.7274 -1.9273
13358SOL     OW41795   6.400   5.861   2.968 -0.0732 -0.4428  0.3724
13358SOL    HW141796   6.322   5.888   2.919  0.2667 -0.2084 -0.0492
13358SOL    HW241797   6.380   5.773   2.998 -0.1481 -0.7431 -0.5187
13359SOL     OW41798   1.272   8.377   8.557  0.1847 -0.0343 -0.3310
13359SOL    HW141799   1.336   8.398   8.489 -1.3400  0.3630 -1.7138
13359SOL    HW241800   1.244   8.288   8.536  2.7145 -1.6347  2.3378
13360SOL     OW41801   6.543   3.664   2.882  0.3274  0.1360  0.4509
13360SOL    HW141802   6.604   3.666   2.809  1.5351 -4.2303  1.0533
13360SOL    HW241803   6.468   3.715   2.852  1.0548 -0.8011 -3.5788
13361SOL     OW41804   6.337   2.010   5.076 -0.6811  0.0139  0.8738
13361SOL    HW141805   6.242   2.014   5.069 -0.7305 -0.2104  1.3531
13361SOL    HW241806   6.353   1.938   5.138 -0.1871 -0.2922  0.3998
13362SOL     OW41807   4.758   5.247   7.024  0.1086 -0.6230 -0.6404
13362SOL    HW141808   4.769   5.186   7.097  2.1676  0.1269 -0.2377
13362SOL    HW241809   4.665   5.245   7.004 -0.2933 -1.8393  1.1446
13363SOL     OW41810   3.935   5.913   1.759 -0.5202 -0.0718 -0.0624
13363SOL    HW141811   3.999   5.984   1.754  0.0186 -0.5924 -0.7401
13363SOL    HW241812   3.927   5.895   1.853 -1.6845  1.7702  0.2557
13364SOL     OW41813   2.645   6.081   8.534 -0.0294  0.1664 -0.4496
13364SOL    HW141814   2.586   6.120   8.599 -1.4337 -1.0646 -0.9511
13364SOL    HW241815   2.681   6.156   8.486 -1.4222  0.9361 -0.3384
13365SOL     OW41816   5.344   0.505   8.971  0.3786  0.4223 -0.3684
13365SOL    HW141817   5.358   0.510   9.065  0.4557 -0.0588 -0.3562
13365SOL    HW241818   5.314   0.593   8.947 -0.0102  0.4386  0.1613
13366SOL     OW41819   8.532   0.373   1.191 -0.0634  0.5408  1.1041
13366SOL    HW141820   8.613   0.322   1.179  0.2305  1.1057  0.6383
13366SOL    HW241821   8.466   0.322   1.144  0.2635  0.6613  0.4955
13367SOL     OW41822   1.914   8.831   5.280  0.1261 -0.1403  0.0006
13367SOL    HW141823   2.000   8.791   5.296 -0.7018 -2.1252 -0.3121
13367SOL    HW241824   1.870   8.771   5.221 -0.8659  1.7472 -1.2876
13368SOL     OW41825   0.762   6.459   6.790 -0.1757  0.0537  0.5937
13368SOL    HW141826   0.753   6.490   6.700 -0.5138 -0.6097  0.3939
13368SOL    HW241827   0.707   6.517   6.841 -0.8881 -0.2680  0.2091
13369SOL     OW41828   0.443   7.505   3.672  0.2888  0.2121  0.2985
13369SOL    HW141829   0.499   7.469   3.604  0.2832  0.7223  0.0215
13369SOL    HW241830   0.401   7.581   3.631 -1.2945 -0.6738  0.1987
13370SOL     OW41831   2.303   8.104   7.559  0.7035  0.1149 -0.0287
13370SOL    HW141832   2.323   8.196   7.575  0.6052  0.0349  0.5811
13370SOL    HW241833   2.335   8.088   7.470 -0.5685  1.0948 -0.6991
13371SOL     OW41834   2.534   1.586   6.823 -1.0125 -0.0727  0.1744
13371SOL    HW141835   2.566   1.510   6.774 -0.6526  1.5623 -2.3147
13371SOL    HW241836   2.445   1.599   6.791 -1.9152 -0.6925  2.2475
13372SOL     OW41837   9.528   8.848   9.467 -0.0091  0.3894  0.1957
13372SOL    HW141838   9.477   8.860   9.387 -2.0182 -0.9740  1.2015
13372SOL    HW241839   9.486   8.907   9.530  0.9859  0.7664  0.5254
13373SOL     OW41840   1.500   6.749   8.208 -0.0270  0.0952 -0.8259
13373SOL    HW141841   1.539   6.829   8.244 -0.4607 -0.4262  0.9251
13373SOL    HW241842   1.507   6.759   8.113  0.8629  1.7340 -0.6256
13374SOL     OW41843   4.045   1.660   4.417  0.0403 -0.4775  0.2320
13374SOL    HW141844   4.105   1.586   4.418 -1.6732 -1.9302 -0.3212
13374SOL    HW241845   4.013   1.665   4.507  0.8480  0.2398  0.5035
13375SOL     OW41846   6.667   1.595   7.667 -0.4418 -0.7701 -0.6243
13375SOL    HW141847   6.734   1.647   7.712  0.5178 -1.7912 -0.8324
13375SOL    HW241848   6.601   1.578   7.734 -0.4297  0.1102 -0.3718
13376SOL     OW41849   2.369   1.754   3.031  0.4147  0.3871 -0.1424
13376SOL    HW141850   2.334   1.802   3.107 -0.3825 -0.0435 -0.2304
13376SOL    HW241851   2.464   1.757   3.043  0.3085  0.4878  0.7750
13377SOL     OW41852   6.260   8.959   1.495 -0.2287 -0.0923  0.0563
13377SOL    HW141853   6.265   8.888   1.431 -1.5117  0.2651 -0.4741
13377SOL    HW241854   6.318   9.027   1.460  0.9917 -0.8440  0.5604
13378SOL     OW41855   0.237   5.390   5.265 -0.1328 -0.3023  0.2205
13378SOL    HW141856   0.257   5.358   5.177 -2.6465  1.3215 -1.0503
13378SOL    HW241857   0.270   5.480   5.266 -1.1042  0.0647  0.4940
13379SOL     OW41858   2.271   2.522   3.802 -0.6846 -0.7245 -0.4361
13379SOL    HW141859   2.291   2.430   3.817  0.8639 -0.3873 -0.2452
13379SOL    HW241860   2.252   2.528   3.708  1.2829 -0.9285 -0.8944
13380SOL     OW41861   7.184   8.099   2.563  0.7770  0.7300  0.3346
13380SOL    HW141862   7.151   8.013   2.541  0.1630  0.9136  0.5125
13380SOL    HW241863   7.115   8.160   2.536  1.1611  1.1558  0.2923
13381SOL     OW41864   2.489   2.266   0.220 -0.4447 -0.1845  0.3600
13381SOL    HW141865   2.551   2.306   0.281 -2.0141 -1.6008  3.0506
13381SOL    HW241866   2.411   2.320   0.226 -1.2029 -1.3168  0.9806
13382SOL     OW41867   3.067   7.242   6.868 -0.2455  0.2096 -0.1027
13382SOL    HW141868   3.090   7.334   6.879 -0.4420  0.1913  0.4625
13382SOL    HW241869   3.132   7.194   6.919  1.5995 -0.1648 -2.6009
13383SOL     OW41870   8.578   2.404   6.261 -0.0178  0.5483  0.1421
13383SOL    HW141871   8.502   2.436   6.213 -1.2223 -0.5389  1.2184
13383SOL    HW241872   8.649   2.463   6.237 -1.2965  1.8514 -0.5813
13384SOL     OW41873   2.242   8.314   8.262  0.3655  0.3408  0.1086
13384SOL    HW141874   2.257   8.227   8.299 -1.1269  0.3816  0.8667
13384SOL    HW241875   2.265   8.305   8.170  2.5719 -0.1949  0.6620
13385SOL     OW41876   8.241   7.254   2.406 -0.0636 -0.3155  0.8049
13385SOL    HW141877   8.289   7.336   2.396  0.2780 -0.2845  2.5093
13385SOL    HW241878   8.156   7.270   2.363  0.5414  0.4057 -0.1611
13386SOL     OW41879   0.923   8.538   6.433  0.3699 -0.2161  0.7906
13386SOL    HW141880   0.857   8.573   6.492 -1.0654  0.4950 -1.1505
13386SOL    HW241881   0.994   8.602   6.436 -0.3686  0.6302  0.5710
13387SOL     OW41882   7.787   8.352   0.921 -0.6057  0.6314 -0.5293
13387SOL    HW141883   7.746   8.437   0.934 -1.0785  0.0919  2.3595
13387SOL    HW241884   7.881   8.371   0.915 -0.7624  1.4126 -0.5897
13388SOL     OW41885   0.671   2.874   6.748 -0.0928  0.1085 -0.0962
13388SOL    HW141886   0.577   2.889   6.746 -0.0006  0.6663 -0.6149
13388SOL    HW241887   0.694   2.853   6.657  0.1523 -0.8990  0.1849
13389SOL     OW41888   8.394   3.804   0.902 -0.4403 -0.1104 -0.1142
13389SOL    HW141889   8.323   3.822   0.964 -1.2058 -3.2310  0.0856
13389SOL    HW241890   8.447   3.884   0.901 -1.3498  0.6610  3.2690
13390SOL     OW41891   0.377   2.371   0.271 -0.3558  0.3142 -0.1108
13390SOL    HW141892   0.308   2.312   0.303  0.1329  0.1709  0.7183
13390SOL    HW241893   0.458   2.324   0.291 -0.0191  0.2000 -1.6384
13391SOL     OW41894   0.209   4.619   5.823  0.1561  0.1794 -0.2085
13391SOL    HW141895   0.230   4.539   5.775 -1.6565 -0.1691 -0.4571
13391SOL    HW241896   0.192   4.685   5.756 -0.9781  0.0630 -0.0494
13392SOL     OW41897   9.027   1.000   5.400  0.1525 -0.4359  0.4930
13392SOL    HW141898   9.110   0.962   5.427  1.0684  1.0969 -0.0650
13392SOL    HW241899   9.034   1.009   5.305 -1.0030 -1.0719  0.3311
13393SOL     OW41900   3.314   0.573   1.960 -0.1838 -0.1531  0.1838
13393SOL    HW141901   3.301   0.612   1.874 -0.3846  0.4481  0.4837
13393SOL    HW241902   3.409   0.557   1.965 -0.3420 -1.5923 -0.7336
13394SOL     OW41903   5.243   6.549   4.392 -0.4136 -0.4601  0.4258
13394SOL    HW141904   5.318   6.595   4.354 -0.3618 -0.9410 -0.0864
13394SOL    HW241905   5.277   6.506   4.470 -0.2888 -0.2300  0.4975
13395SOL     OW41906   1.345   0.117   1.806 -0.4122 -0.3963 -0.1757
13395SOL    HW141907   1.430   0.147   1.773  0.0605  0.4583  1.6939
13395SOL    HW241908   1.351   0.022   1.807  0.7850 -0.3329  0.5337
13396SOL     OW41909   4.964   8.395   7.895 -0.3334  0.1036 -0.2885
13396SOL    HW141910   4.872   8.388   7.921 -0.2116 -1.7383 -0.1736
13396SOL    HW241911   5.002   8.311   7.921  1.2115  0.5456 -1.0152
13397SOL     OW41912   1.806   3.597   2.341  0.2508 -0.1131  0.4548
13397SOL    HW141913   1.815   3.509   2.304 -1.0957  0.5930 -1.7662
13397SOL    HW241914   1.713   3.618   2.331  0.6732  1.8394  0.2393
13398SOL     OW41915   2.397   3.907   5.861 -0.0025  0.3167  0.7918
13398SOL    HW141916   2.426   3.981   5.914 -0.0461 -0.2268  1.6013
13398SOL    HW241917   2.318   3.938   5.817 -1.9142 -0.2039  3.5862
13399SOL     OW41918   4.121   1.731   6.508  0.1998 -0.2546  0.0314
13399SOL    HW141919   4.036   1.766   6.534  0.9756  1.6208  0.1659
13399SOL    HW241920   4.114   1.717   6.414 -0.2487 -0.1069  0.0405
13400SOL     OW41921   4.573   7.207   0.171 -0.2087 -0.1863 -0.2015
13400SOL    HW141922   4.588   7.121   0.131 -2.6443 -0.6329 -0.2914
13400SOL    HW241923   4.566   7.189   0.264  1.8622  0.3514  0.1165
13401SOL     OW41924   6.408   1.143   2.496  0.5352  0.4263 -0.1421
13401SOL    HW141925   6.420   1.079   2.426 -0.2113  0.5493 -0.3877
13401SOL    HW241926   6.435   1.097   2.575  0.9291  0.1300 -0.4412
13402SOL     OW41927   8.127   3.551   4.038  0.3285 -0.1873 -0.0790
13402SOL    HW141928   8.107   3.567   4.130  0.4058  0.6153 -0.1928
13402SOL    HW241929   8.132   3.638   3.999  0.0339 -0.5285 -0.8998
13403SOL     OW41930   2.493   3.862   2.566 -0.2025 -0.1157 -0.2067
13403SOL    HW141931   2.579   3.884   2.529  1.5219 -0.9291  2.9689
13403SOL    HW241932   2.443   3.943   2.559  0.7429  0.3636 -2.2212
13404SOL     OW41933   7.940   7.733   5.472 -0.1118  0.2318 -0.1640
13404SOL    HW141934   7.925   7.819   5.512 -0.9235  0.2901 -0.5824
13404SOL    HW241935   7.856   7.688   5.478 -0.5040  0.5195 -2.4324
13405SOL     OW41936   5.896   6.075   1.599  0.9886 -0.2982  0.2006
13405SOL    HW141937   5.861   6.074   1.688 -0.7243  1.2947 -0.3895
13405SOL    HW241938   5.936   5.988   1.588  0.1215 -0.9914  2.0657
13406SOL     OW41939   4.618   9.404   6.595 -0.2202 -0.3505  0.0447
13406SOL    HW141940   4.629   9.314   6.626  1.2372 -0.0844  0.3739
13406SOL    HW241941   4.706   9.440   6.594 -0.8268  1.2463  0.4196
13407SOL     OW41942   2.386   1.356   8.524  0.5783  0.1609 -0.5956
13407SOL    HW141943   2.441   1.426   8.489  0.2741 -0.2700 -1.9899
13407SOL    HW241944   2.367   1.300   8.449 -0.1217 -0.7982  0.2650
13408SOL     OW41945   5.286   9.361   3.666 -0.2664  0.2657  0.1494
13408SOL    HW141946   5.366   9.389   3.709 -0.7673  0.1392  1.2073
13408SOL    HW241947   5.305   9.273   3.633  0.9930  1.3773 -2.3230
13409SOL     OW41948   4.923   1.133   4.790  0.0058 -0.1059  0.0703
13409SOL    HW141949   5.009   1.172   4.770 -0.8862  1.3920 -1.0398
13409SOL    HW241950   4.932   1.101   4.880  2.1673 -1.2968 -0.5037
13410SOL     OW41951   1.759   3.379   5.095  0.0201  0.2476  0.3679
13410SOL    HW141952   1.837   3.355   5.045 -0.2463 -1.2724  0.6258
13410SOL    HW241953   1.686   3.344   5.043 -0.2668 -1.2731  1.7252
13411SOL     OW41954   3.381   2.345   2.928 -0.1455 -0.4654 -0.0445
13411SOL    HW141955   3.442   2.289   2.975  0.6457  1.4909  1.3901
13411SOL    HW241956   3.349   2.406   2.994 -2.5199 -0.4718 -1.1085
13412SOL     OW41957   7.432   5.450   4.709  0.2045 -0.2825  0.0737
13412SOL    HW141958   7.342   5.478   4.727  0.0512 -0.3074 -0.6402
13412SOL    HW241959   7.461   5.506   4.637  0.0284 -1.6615 -1.1046
13413SOL     OW41960   2.575   2.662   7.148 -0.0119 -0.0732 -0.0177
13413SOL    HW141961   2.602   2.654   7.057 -0.5870  1.5159 -0.3662
13413SOL    HW241962   2.627   2.735   7.182 -0.5029 -0.0214  0.6382
13414SOL     OW41963   1.039   6.482   2.486  0.7760 -0.6437  0.0853
13414SOL    HW141964   1.016   6.448   2.572 -1.9287 -2.1093 -1.0844
13414SOL    HW241965   1.100   6.418   2.450  0.3819 -1.0666  0.1692
13415SOL     OW41966   7.043   6.835   4.610  0.8183  0.6583 -0.1792
13415SOL    HW141967   7.013   6.795   4.528 -0.9981  0.2085  0.6670
13415SOL    HW241968   7.071   6.761   4.663  1.7704  0.9307 -0.2866
13416SOL     OW41969   6.355   5.704   4.300  0.4131 -0.6104  0.3718
13416SOL    HW141970   6.342   5.715   4.206 -0.4298 -3.6493  0.0515
13416SOL    HW241971   6.448   5.683   4.310  0.7146  0.6308  0.3740
13417SOL     OW41972   4.536   5.947   4.260  0.0234 -0.2808  0.3113
13417SOL    HW141973   4.519   5.912   4.173  2.1177 -3.3266  0.9610
13417SOL    HW241974   4.481   5.894   4.318 -0.6555  1.0992  0.9794
13418SOL     OW41975   1.631   7.685   2.334 -0.7327  0.1137 -0.3048
13418SOL    HW141976   1.588   7.693   2.249  0.0743  1.0006 -0.6425
13418SOL    HW241977   1.724   7.688   2.315 -0.5392  0.6580  0.6261
13419SOL     OW41978   0.539   5.695   8.278  0.2761 -0.3175  0.0747
13419SOL    HW141979   0.568   5.668   8.191 -1.2766 -0.7651 -0.3369
13419SOL    HW241980   0.620   5.712   8.326  1.1815 -0.9329 -1.1751
13420SOL     OW41981   8.139   9.316   0.528  0.2698 -0.0681 -0.0427
13420SOL    HW141982   8.053   9.355   0.541 -1.1118 -1.8425 -2.8883
13420SOL    HW241983   8.187   9.382   0.478  0.3006  0.5681  0.7988
13421SOL     OW41984   8.797   7.289   6.736 -0.0448  0.0878  0.0119
13421SOL    HW141985   8.836   7.213   6.693 -1.5164 -0.3691 -0.5611
13421SOL    HW241986   8.706   7.265   6.750 -0.5496  1.7633 -0.1977
13422SOL     OW41987   3.434   0.316   2.922  0.1028 -0.0757  0.0584
13422SOL    HW141988   3.444   0.331   3.016 -1.2966 -3.5298  0.8877
13422SOL    HW241989   3.340   0.327   2.906  0.3350  0.5103 -0.9663
13423SOL     OW41990   8.317   2.316   3.056  0.3306 -0.0265  0.0912
13423SOL    HW141991   8.390   2.301   3.116  0.5892  2.4202  0.4806
13423SOL    HW241992   8.301   2.410   3.059 -1.8254 -0.2614 -1.2021
13424SOL     OW41993   6.663   1.138   4.276  0.3137 -0.1588 -0.4826
13424SOL    HW141994   6.578   1.178   4.255  0.3728  1.0215  1.3197
13424SOL    HW241995   6.709   1.136   4.192 -1.2104 -0.1476 -1.3660
13425SOL     OW41996   0.542   5.743   4.663 -0.5735 -0.2263  0.4657
13425SOL    HW141997   0.630   5.715   4.688 -0.2522 -0.2434 -0.5961
13425SOL    HW241998   0.527   5.699   4.579 -0.7989  1.2890 -0.3246
13426SOL     OW41999   8.535   3.705   9.522 -0.2041  0.1078  0.1900
13426SOL    HW142000   8.444   3.674   9.516 -0.9619  2.1268  0.3982
13426SOL    HW242001   8.554   3.738   9.434  0.7248 -1.2426 -0.1397
13427SOL     OW42002   4.723   5.862   7.480  0.3270 -0.0970  0.0554
13427SOL    HW142003   4.806   5.879   7.525  0.2179  1.5117 -0.2839
13427SOL    HW242004   4.691   5.781   7.518  1.7277 -0.3819  0.6784
13428SOL     OW42005   7.523   4.535   4.385 -0.5906 -0.2231 -0.1378
13428SOL    HW142006   7.576   4.569   4.457 -0.5402 -1.3719  0.3944
13428SOL    HW242007   7.582   4.536   4.309 -0.7038  1.1773 -0.2244
13429SOL     OW42008   7.219   4.557   3.964 -0.0788  0.1510 -0.5368
13429SOL    HW142009   7.155   4.486   3.958  0.1857 -0.4519  2.3835
13429SOL    HW242010   7.196   4.603   4.045 -0.5954  3.8517 -2.5741
13430SOL     OW42011   7.276   6.511   1.072 -0.0410  0.1236  0.0641
13430SOL    HW142012   7.353   6.564   1.091 -0.0456 -0.2966  1.3477
13430SOL    HW242013   7.305   6.450   1.004  1.3076 -1.1468  1.6771
13431SOL     OW42014   8.959   0.624   4.713 -0.2826 -0.4924 -0.1078
13431SOL    HW142015   8.980   0.694   4.775  0.4357  0.6028 -1.5193
13431SOL    HW242016   9.042   0.577   4.702 -0.6758 -1.3773  0.5558
13432SOL     OW42017   2.037   7.466   3.300 -0.3852 -0.2786 -0.4828
13432SOL    HW142018   2.006   7.452   3.390  2.0516  0.8279  0.6355
13432SOL    HW242019   2.047   7.561   3.293 -0.2524 -0.3726 -1.8477
13433SOL     OW42020   2.039   0.007   8.936 -0.3898 -0.6355  0.1630
13433SOL    HW142021   2.013  -0.082   8.912 -1.4602  0.0838 -1.5379
13433SOL    HW242022   2.114   0.027   8.881 -0.2722 -0.4314  0.3959
13434SOL     OW42023   4.464   7.104   2.936 -0.2024  0.1276 -0.0261
13434SOL    HW142024   4.485   7.015   2.965  1.0913  0.6130  0.5986
13434SOL    HW242025   4.369   7.109   2.942 -0.1424 -0.4387  2.3220
13435SOL     OW42026   7.726   6.737   1.938  0.1440 -0.4612  0.1910
13435SOL    HW142027   7.802   6.684   1.915 -0.9485 -2.4496  0.9478
13435SOL    HW242028   7.762   6.811   1.987  1.6540 -0.9014 -0.2167
13436SOL     OW42029   1.738   1.499   7.385  0.1136  0.2036 -0.2315
13436SOL    HW142030   1.777   1.415   7.409  0.3760  0.4668  0.2864
13436SOL    HW242031   1.646   1.478   7.366 -0.0860 -0.0461  0.9050
13437SOL     OW42032   5.589   5.718   3.455  0.1336  0.4678  0.2072
13437SOL    HW142033   5.596   5.629   3.488 -2.1346 -0.5474 -1.7495
13437SOL    HW242034   5.626   5.713   3.367 -0.4882  1.3351 -0.1127
13438SOL     OW42035   1.594   6.924   6.881 -0.2968  0.1087  0.3715
13438SOL    HW142036   1.680   6.927   6.923  0.0197  0.2477 -0.2733
13438SOL    HW242037   1.545   6.859   6.931  0.4931 -0.6494  0.1957
13439SOL     OW42038   3.851   3.617   0.089 -0.5400  0.0913 -0.2129
13439SOL    HW142039   3.835   3.644  -0.001 -2.0511 -2.2465 -0.7457
13439SOL    HW242040   3.923   3.553   0.082 -1.7565 -1.3533 -0.0633
13440SOL     OW42041   1.207   0.390   8.877  0.1549  0.1733  0.0649
13440SOL    HW142042   1.150   0.330   8.830  0.6312 -0.7192  0.5966
13440SOL    HW242043   1.172   0.477   8.859 -0.2171 -0.2217 -1.1759
13441SOL     OW42044   9.581   9.076   4.227 -0.4327  0.1180 -0.4222
13441SOL    HW142045   9.595   9.152   4.172 -3.0912  0.7523 -0.3852
13441SOL    HW242046   9.488   9.054   4.215 -0.2954 -1.7440  1.2676
13442SOL     OW42047   2.256   6.023   1.583 -0.4446 -0.1108 -0.3574
13442SOL    HW142048   2.177   6.020   1.529 -0.9029 -0.1843  0.3050
13442SOL    HW242049   2.223   6.030   1.673  0.2887 -1.6884  0.0528
13443SOL     OW42050   6.689   0.413   5.622 -0.2879 -0.0249  0.3649
13443SOL    HW142051   6.715   0.321   5.622  0.3643  0.1495 -0.6342
13443SOL    HW242052   6.598   0.412   5.651  0.5045 -0.7261  3.1226
13444SOL     OW42053   8.872   5.680   6.692 -0.2520 -0.3458  0.7124
13444SOL    HW142054   8.871   5.728   6.609  0.5718  1.3479  1.6204
13444SOL    HW242055   8.891   5.590   6.668  0.5210  0.2132 -0.9057
13445SOL     OW42056   1.653   2.206   7.047  0.4405  0.6117  0.1558
13445SOL    HW142057   1.668   2.293   7.085  0.2103  0.1190  1.4341
13445SOL    HW242058   1.719   2.151   7.088 -0.3776 -0.1217  0.5218
13446SOL     OW42059   7.246   9.106   6.746  0.2161 -0.0230 -0.3879
13446SOL    HW142060   7.299   9.034   6.712 -0.5885 -0.3656 -0.9452
13446SOL    HW242061   7.248   9.172   6.677 -1.8797 -0.9474 -1.4111
13447SOL     OW42062   6.666   6.103   7.146 -0.2282  0.1253  0.1279
13447SOL    HW142063   6.740   6.119   7.205 -0.8814 -0.6039  1.1743
13447SOL    HW242064   6.616   6.184   7.149  0.4784  0.6104 -0.5559
13448SOL     OW42065   0.417   2.834   0.566 -0.0307  0.9414  0.5127
13448SOL    HW142066   0.414   2.749   0.523 -1.2736  1.1640  0.1322
13448SOL    HW242067   0.446   2.895   0.498  0.9813  0.8239  0.8172
13449SOL     OW42068   0.147   5.053   8.670 -0.2583 -0.0128  0.5603
13449SOL    HW142069   0.103   5.003   8.739 -0.6452 -0.5847 -0.0889
13449SOL    HW242070   0.210   4.992   8.632  0.0850  0.3559  0.5266
13450SOL     OW42071   5.912   1.657   4.852  0.3635 -0.0871  0.2171
13450SOL    HW142072   5.960   1.591   4.903 -0.7282 -1.2899 -0.2499
13450SOL    HW242073   5.855   1.700   4.915 -0.2061 -0.8353  0.2357
13451SOL     OW42074   5.267   2.881   5.085  0.2087 -0.0966  0.5943
13451SOL    HW142075   5.330   2.901   5.154  0.4386 -0.6412  0.5439
13451SOL    HW242076   5.189   2.932   5.108  1.7083  3.2491 -1.1116
13452SOL     OW42077   2.793   2.777   2.342  0.3522 -0.0034  0.3583
13452SOL    HW142078   2.832   2.855   2.303 -0.3413 -1.0643 -2.7422
13452SOL    HW242079   2.729   2.810   2.405  1.1186  1.8634  0.2133
13453SOL     OW42080   9.514   7.331   1.206  0.1399  0.8067  0.0588
13453SOL    HW142081   9.564   7.382   1.143 -0.7584  2.0620  0.3196
13453SOL    HW242082   9.570   7.326   1.284 -0.4823  3.0645  0.7093
13454SOL     OW42083   1.357   5.597   4.589 -0.1641  0.2461  0.4277
13454SOL    HW142084   1.401   5.679   4.569  0.4603 -0.0921  0.3902
13454SOL    HW242085   1.390   5.571   4.675 -0.4168  0.0744  0.4760
13455SOL     OW42086   6.336   8.919   8.408  0.5859 -0.0001 -0.0028
13455SOL    HW142087   6.258   8.948   8.454  0.6312  0.7990 -0.4159
13455SOL    HW242088   6.328   8.957   8.321  1.1192 -0.4527 -0.2572
13456SOL     OW42089   7.546   2.429   0.631 -0.6099 -0.1940 -0.2621
13456SOL    HW142090   7.527   2.422   0.537 -0.4324 -1.6556 -0.2123
13456SOL    HW242091   7.538   2.339   0.664  1.9585 -0.1853  0.6037
13457SOL     OW42092   5.391   0.847   6.631 -0.2236 -0.4160  0.2568
13457SOL    HW142093   5.414   0.893   6.550 -0.4585 -0.3272  0.2382
13457SOL    HW242094   5.300   0.821   6.619 -0.7617  0.9391  1.0968
13458SOL     OW42095   5.950   1.142   6.444 -0.2408  0.1255 -0.5273
13458SOL    HW142096   5.990   1.201   6.508 -2.4408 -0.0224  1.0984
13458SOL    HW242097   6.017   1.076   6.428  0.5398  0.3901  1.3533
13459SOL     OW42098   1.202   6.371   8.225 -0.2741 -0.7178 -0.9595
13459SOL    HW142099   1.252   6.423   8.287 -0.7957 -0.7643 -0.4908
13459SOL    HW242100   1.235   6.397   8.139 -1.1683  1.0833 -0.7991
13460SOL     OW42101   9.130   9.352   8.180  0.4427  0.1413 -0.2090
13460SOL    HW142102   9.173   9.296   8.244 -1.1122  1.2931  1.9808
13460SOL    HW242103   9.172   9.330   8.097  0.8244 -3.2547  0.7226
13461SOL     OW42104   8.045   6.545   2.366  0.0876 -0.2227 -0.4102
13461SOL    HW142105   7.983   6.588   2.424  0.1139  0.0817 -0.6072
13461SOL    HW242106   8.119   6.604   2.361 -0.0709 -0.0654 -1.0522
13462SOL     OW42107   2.685   3.770   8.658 -0.5213  0.1115  0.0686
13462SOL    HW142108   2.685   3.864   8.641  1.8256  0.5716  2.0420
13462SOL    HW242109   2.660   3.762   8.750 -0.0202 -1.1107  0.1241
13463SOL     OW42110   6.528   6.163   8.898  0.3882  0.3778  0.1496
13463SOL    HW142111   6.529   6.259   8.906 -0.4262  0.4396 -0.4202
13463SOL    HW242112   6.499   6.147   8.809 -0.2235 -0.4151  0.4869
13464SOL     OW42113   0.595   8.006   3.453 -0.1457  0.0778 -0.0573
13464SOL    HW142114   0.674   7.958   3.429  0.3387  0.6610  0.3258
13464SOL    HW242115   0.626   8.074   3.513 -0.9084  0.4477 -0.0708
13465SOL     OW42116   6.374   3.625   3.831 -0.3574 -1.0130 -0.2223
13465SOL    HW142117   6.334   3.619   3.744 -2.4765  0.2534  0.5745
13465SOL    HW242118   6.468   3.611   3.816 -0.4766  0.4131 -2.9039
13466SOL     OW42119   5.317   6.834   2.292 -0.5002  0.9350  0.0193
13466SOL    HW142120   5.353   6.921   2.275 -0.1238  0.5520 -1.2038
13466SOL    HW242121   5.351   6.779   2.222 -2.4509  0.2597 -0.4544
13467SOL     OW42122   6.986   0.755   5.034 -0.0549  0.0187  0.1319
13467SOL    HW142123   7.059   0.817   5.031 -0.2735  0.2422 -1.9745
13467SOL    HW242124   7.021   0.675   4.995 -0.7075 -0.1149 -0.1984
13468SOL     OW42125   1.798   6.318   9.163  0.1545  0.7511  0.3990
13468SOL    HW142126   1.842   6.371   9.097 -1.0680 -0.1618 -1.2267
13468SOL    HW242127   1.868   6.293   9.224  1.9549 -0.5600 -2.0156
13469SOL     OW42128   8.149   9.037   5.920  0.3198  0.1638  0.4249
13469SOL    HW142129   8.228   9.057   5.971  0.3687  0.3196  0.2898
13469SOL    HW242130   8.180   9.030   5.830 -0.1104  2.2723  0.0546
13470SOL     OW42131   0.859   5.202   4.584 -0.2317 -0.0371 -0.4300
13470SOL    HW142132   0.812   5.214   4.667 -0.3868  2.5744 -0.8342
13470SOL    HW242133   0.946   5.171   4.611 -0.8447 -0.9670  0.5729
13471SOL     OW42134   2.572   7.824   5.376 -0.3134 -0.1260 -0.1669
13471SOL    HW142135   2.620   7.899   5.412 -0.7397 -0.6825  1.6177
13471SOL    HW242136   2.483   7.857   5.361  0.2498  0.5735 -2.3850
13472SOL     OW42137   0.561   2.221   8.660 -0.2077  0.1184 -0.3589
13472SOL    HW142138   0.518   2.269   8.589 -1.2250  0.1884  0.2858
13472SOL    HW242139   0.608   2.289   8.709  2.8816 -0.2549 -2.5206
13473SOL     OW42140   7.824   2.765   6.938 -0.0066 -0.4101  0.5646
13473SOL    HW142141   7.905   2.738   6.980  0.4440 -1.7545 -1.0643
13473SOL    HW242142   7.851   2.821   6.865 -0.5951 -0.2610  0.4502
13474SOL     OW42143   2.205   2.151   0.943 -0.0526 -0.8932  0.6201
13474SOL    HW142144   2.147   2.226   0.927  0.2873 -0.4350  1.5092
13474SOL    HW242145   2.257   2.176   1.019  2.1589 -0.8135 -0.8469
13475SOL     OW42146   3.733   4.552   6.112  0.5183 -0.2979 -0.2795
13475SOL    HW142147   3.780   4.521   6.035  0.6754 -0.5448 -0.0889
13475SOL    HW242148   3.666   4.485   6.127 -0.4236  0.4561 -1.0221
13476SOL     OW42149   7.470   7.521   6.576  0.5643  0.0289 -0.5053
13476SOL    HW142150   7.391   7.538   6.525  1.1391 -1.4835 -1.9804
13476SOL    HW242151   7.438   7.477   6.655 -0.1973  0.9527 -0.2801
13477SOL     OW42152   1.886   7.297   7.481 -0.3769 -0.0659  0.0756
13477SOL    HW142153   1.977   7.276   7.504  0.4952  1.9304 -1.1630
13477SOL    HW242154   1.877   7.389   7.506 -1.1921  0.5094 -2.0927
13478SOL     OW42155   5.491   8.359   1.126 -0.3444  0.0800 -0.4355
13478SOL    HW142156   5.522   8.392   1.042  1.0371  1.7578  0.6607
13478SOL    HW242157   5.557   8.295   1.153  0.8237  1.6241  0.6096
13479SOL     OW42158   0.745   2.975   3.774  0.2835 -0.2799 -0.1831
13479SOL    HW142159   0.684   2.986   3.846  0.5808  0.7633 -0.0712
13479SOL    HW242160   0.816   2.922   3.810  0.5271  0.4043  0.3588
13480SOL     OW42161   6.882   8.238   9.225 -0.1677 -0.0331  0.2801
13480SOL    HW142162   6.956   8.274   9.176 -0.3831  0.3259  0.2109
13480SOL    HW242163   6.811   8.232   9.160  0.2246 -1.8027 -0.0319
13481SOL     OW42164   5.324   1.254   2.359 -0.1906 -0.2571  0.2743
13481SOL    HW142165   5.265   1.180   2.348 -0.5429  0.0796 -0.1581
13481SOL    HW242166   5.315   1.304   2.278  1.4359 -0.7277 -0.2247
13482SOL     OW42167   4.072   9.570   2.618 -0.0791  0.2389  0.2601
13482SOL    HW142168   4.082   9.664   2.636 -0.7754  0.3972 -0.1261
13482SOL    HW242169   3.999   9.566   2.557  0.1707 -0.5372  0.0097
13483SOL     OW42170   0.144   4.686   0.033 -0.0189  0.6551  0.0541
13483SOL    HW142171   0.119   4.600   0.068  1.2040  0.2954  0.0834
13483SOL    HW242172   0.162   4.739   0.111  0.6074  0.5065  0.0120
13484SOL     OW42173   5.535   6.203   0.198 -0.7781 -0.5945 -0.0061
13484SOL    HW142174   5.466   6.200   0.132  0.6028 -0.2091 -1.5520
13484SOL    HW242175   5.614   6.178   0.150  0.6818  1.9003  0.9173
13485SOL     OW42176   8.764   2.451   3.739 -0.4393 -0.0094  0.2788
13485SOL    HW142177   8.858   2.431   3.746 -0.4309 -0.5976 -1.2292
13485SOL    HW242178   8.721   2.366   3.746 -0.7280  0.0204 -0.9094
13486SOL     OW42179   1.220   7.521   2.594  0.1453 -0.3157  0.7749
13486SOL    HW142180   1.315   7.528   2.601  0.3554 -2.5595  1.0282
13486SOL    HW242181   1.204   7.522   2.499  0.3209  0.7536  0.7407
13487SOL     OW42182   7.919   4.857   5.893 -0.6000  0.2259  0.1146
13487SOL    HW142183   7.993   4.797   5.886  0.4854  1.1683  2.5596
13487SOL    HW242184   7.902   4.865   5.987 -3.2878  0.7180 -0.3165
13488SOL     OW42185   9.692   7.701   2.328  0.3509 -0.4377 -0.1823
13488SOL    HW142186   9.667   7.785   2.290  0.9336 -0.9718 -1.8246
13488SOL    HW242187   9.615   7.646   2.317 -1.1124  0.5541  3.4304
13489SOL     OW42188   2.580   4.990   2.592 -0.1729  0.1537  0.4397
13489SOL    HW142189   2.550   4.944   2.513 -1.1682  1.8126 -0.2047
13489SOL    HW242190   2.596   5.079   2.563 -0.3078  0.7427  2.0627
13490SOL     OW42191   8.387   9.636   2.645 -0.2423  0.4380 -0.3632
13490SOL    HW142192   8.316   9.595   2.694 -1.6857  2.3862 -0.7296
13490SOL    HW242193   8.450   9.664   2.711 -1.1181  1.0764  0.2186
13491SOL     OW42194   1.797   1.270   4.911  0.0931  0.3235  0.0260
13491SOL    HW142195   1.857   1.344   4.910 -0.8054  1.1108  1.6863
13491SOL    HW242196   1.723   1.299   4.857  0.1590  0.2689 -0.0933
13492SOL     OW42197   0.954   5.745   8.672 -0.1887  0.4335 -0.3307
13492SOL    HW142198   0.897   5.684   8.719  0.2971 -0.1348 -0.4685
13492SOL    HW242199   0.953   5.825   8.726  1.2403 -0.5747  1.2693
13493SOL     OW42200   7.868   4.763   7.106 -0.1804  0.5201 -0.2549
13493SOL    HW142201   7.890   4.673   7.083 -1.9114 -0.8042  2.6936
13493SOL    HW242202   7.827   4.799   7.028 -0.7927 -1.7635 -1.0377
13494SOL     OW42203   0.613   0.267   4.690 -0.1697 -0.1331  0.2960
13494SOL    HW142204   0.644   0.181   4.720 -0.9785 -0.7492 -0.5543
13494SOL    HW242205   0.646   0.273   4.600 -1.8484 -0.4821 -0.3666
13495SOL     OW42206   4.972   7.416   0.595  0.4587  0.1244  0.3584
13495SOL    HW142207   5.063   7.429   0.567  0.2975 -0.5692 -0.5418
13495SOL    HW242208   4.922   7.484   0.549  0.5059  0.4809  0.8228
13496SOL     OW42209   0.972   7.519   2.808  0.1396  0.4994  0.1356
13496SOL    HW142210   0.888   7.474   2.819  0.8440 -0.7155  0.7531
13496SOL    HW242211   0.967   7.557   2.720  0.2546 -2.5035 -1.3023
13497SOL     OW42212   7.712   2.990   7.843 -0.4917 -0.8587 -0.0182
13497SOL    HW142213   7.749   3.031   7.765 -0.8297  1.6169  1.0411
13497SOL    HW242214   7.617   2.998   7.831 -0.5423  0.0321  0.8584
13498SOL     OW42215   7.860   5.887   4.808 -0.0239 -0.1200 -0.1926
13498SOL    HW142216   7.823   5.911   4.892 -0.8799 -2.8870  0.3015
13498SOL    HW242217   7.939   5.838   4.829 -1.1753 -2.3817 -0.8637
13499SOL     OW42218   2.776   7.310   4.268  0.4898  0.0208 -0.1338
13499SOL    HW142219   2.749   7.327   4.358  0.6603  0.6179 -0.1932
13499SOL    HW242220   2.698   7.273   4.226  0.2698  0.1813  0.1319
13500SOL     OW42221   8.628   2.065   7.484  0.0428  0.0892  0.3386
13500SOL    HW142222   8.572   2.092   7.411  2.0214  1.6229 -0.7193
13500SOL    HW242223   8.706   2.121   7.476  1.0454 -0.8635  2.6569
13501SOL     OW42224   6.930   5.583   5.415 -0.4292  0.1401  0.5863
13501SOL    HW142225   6.885   5.666   5.432  0.3212  0.2014  2.5258
13501SOL    HW242226   6.933   5.539   5.501 -1.2109 -2.1248 -0.4648
13502SOL     OW42227   3.771   7.713   0.490 -0.0147  0.1860 -0.1132
13502SOL    HW142228   3.780   7.639   0.430 -3.4511  0.0837 -0.6969
13502SOL    HW242229   3.770   7.673   0.577  1.1027 -0.0869 -0.2136
13503SOL     OW42230   3.217   6.887   9.267 -0.3346  0.4769  0.3186
13503SOL    HW142231   3.294   6.872   9.322 -1.4724 -0.8051  1.6513
13503SOL    HW242232   3.251   6.936   9.192  1.6353  0.5846  1.1987
13504SOL     OW42233   3.949   6.454   7.453  0.3767  0.0720 -0.2028
13504SOL    HW142234   4.039   6.484   7.439  0.4279  0.3474  0.6313
13504SOL    HW242235   3.895   6.527   7.424  0.4804  0.6354  0.9359
13505SOL     OW42236   4.425   1.253   3.859 -0.1189  0.5282 -0.4049
13505SOL    HW142237   4.436   1.346   3.880  0.9676  0.5700 -1.1026
13505SOL    HW242238   4.330   1.239   3.859 -0.3027  0.7351  3.5073
13506SOL     OW42239   7.151   7.732   5.444 -0.4167 -0.5951 -1.1167
13506SOL    HW142240   7.243   7.732   5.471 -0.9604 -2.4155  1.0867
13506SOL    HW242241   7.128   7.825   5.437  1.7582 -0.0973 -2.5578
13507SOL     OW42242   3.637   7.419   0.606  0.3104  0.3212  0.1194
13507SOL    HW142243   3.549   7.429   0.642  0.5653 -1.7678  1.5080
13507SOL    HW242244   3.695   7.449   0.676  0.7367  1.2570 -0.6150
13508SOL     OW42245   9.246   9.473   3.651 -0.2249  0.3978 -0.3064
13508SOL    HW142246   9.164   9.428   3.631 -0.8150  0.3937  1.9583
13508SOL    HW242247   9.232   9.515   3.735  1.9567  0.7980 -0.0690
13509SOL     OW42248   0.861   6.887   7.354 -0.7999 -0.1962  0.5485
13509SOL    HW142249   0.902   6.819   7.408  1.5587  0.8676  0.2025
13509SOL    HW242250   0.924   6.959   7.354 -0.7338 -0.0326 -3.4141
13510SOL     OW42251   7.386   3.867   7.243  0.2791 -0.0554  0.4732
13510SOL    HW142252   7.444   3.885   7.317  0.5145  0.0043  0.2754
13510SOL    HW242253   7.298   3.867   7.281  0.4324 -0.5086  0.8454
13511SOL     OW42254   6.084   1.791   9.410  0.6301  0.1413 -0.2729
13511SOL    HW142255   6.037   1.850   9.469 -0.4756 -1.6024  0.6933
13511SOL    HW242256   6.096   1.842   9.330 -0.2135  1.6869  0.5319
13512SOL     OW42257   8.191   7.670   2.781  0.7166  0.4520  0.2214
13512SOL    HW142258   8.097   7.672   2.764  0.4382 -0.1235  1.5648
13512SOL    HW242259   8.198   7.653   2.875  2.1664  0.4502  0.1351
13513SOL     OW42260   6.878   9.319   5.053  0.0482 -0.2347  0.1752
13513SOL    HW142261   6.919   9.376   4.988  2.6136 -1.7261  0.3553
13513SOL    HW242262   6.787   9.349   5.057  0.8784  2.7697 -0.8423
13514SOL     OW42263   5.784   1.904   3.730  0.0553  0.1969  0.4179
13514SOL    HW142264   5.696   1.932   3.754 -0.0731 -0.4580  0.7482
13514SOL    HW242265   5.772   1.855   3.648  0.3782  1.7090 -0.5802
13515SOL     OW42266   2.708   4.963   4.477 -0.4638 -0.2996  0.1574
13515SOL    HW142267   2.673   4.908   4.406 -0.5744  2.3628 -2.0055
13515SOL    HW242268   2.799   4.935   4.485 -0.8794 -1.7494  0.1428
13516SOL     OW42269   5.296   8.511   4.769  0.1336 -0.0934 -0.0092
13516SOL    HW142270   5.338   8.428   4.746 -0.6342 -0.5565  0.2141
13516SOL    HW242271   5.203   8.495   4.756 -0.3153 -0.1693  2.7062
13517SOL     OW42272   9.153   4.088   8.721 -0.0990  1.0710 -0.1701
13517SOL    HW142273   9.095   4.042   8.782 -1.5253 -0.0483 -2.2331
13517SOL    HW242274   9.228   4.029   8.711  1.6016  2.5453  2.5443
13518SOL     OW42275   7.501   3.778   8.352  0.3548  0.0079 -0.5867
13518SOL    HW142276   7.582   3.786   8.301  1.3102 -1.1687  0.6441
13518SOL    HW242277   7.435   3.825   8.301  1.4743 -0.2624 -2.3760
13519SOL     OW42278   8.209   8.751   6.624  0.1801 -0.1408 -0.1405
13519SOL    HW142279   8.292   8.769   6.668  0.2753  0.3350 -0.5077
13519SOL    HW242280   8.171   8.678   6.673  1.1771 -0.8934 -0.4309
13520SOL     OW42281   7.304   6.548   1.545  0.5624 -0.3199 -0.1873
13520SOL    HW142282   7.254   6.624   1.575  0.2274 -1.1512  1.4896
13520SOL    HW242283   7.246   6.505   1.482  0.5090  0.4506 -0.6869
13521SOL     OW42284   7.076   6.085   7.518  0.5257 -0.1703  0.3711
13521SOL    HW142285   7.045   6.146   7.450  2.1284  0.8398  0.4747
13521SOL    HW242286   7.165   6.115   7.537  0.9240 -1.8296  1.3172
13522SOL     OW42287   4.597   5.275   5.348  0.2085 -0.6438 -0.7610
13522SOL    HW142288   4.525   5.288   5.286  0.7390 -1.3784 -1.5628
13522SOL    HW242289   4.618   5.363   5.379 -0.2122 -0.2826 -1.4722
13523SOL     OW42290   3.761   6.236   4.718 -0.9056 -0.1098 -0.3717
13523SOL    HW142291   3.851   6.266   4.704  0.0588 -2.1334  1.0976
13523SOL    HW242292   3.726   6.223   4.630  1.8171 -3.6041 -1.1591
13524SOL     OW42293   6.914   8.251   6.188  0.0090  0.6267  0.1728
13524SOL    HW142294   6.997   8.220   6.153 -0.9295  1.0322 -2.6149
13524SOL    HW242295   6.851   8.184   6.164 -0.5508  0.3764  2.1619
13525SOL     OW42296   0.633   6.613   7.302 -0.7865  0.6996 -0.4480
13525SOL    HW142297   0.703   6.630   7.240  0.2187 -0.5455  0.2826
13525SOL    HW242298   0.653   6.669   7.377  0.4481 -0.8872  0.4625
13526SOL     OW42299   4.262   4.274   4.405 -0.1137  0.1501 -0.5330
13526SOL    HW142300   4.204   4.302   4.334 -1.2461  3.3303  1.4371
13526SOL    HW242301   4.337   4.333   4.399  1.3440 -1.6482 -0.9205
13527SOL     OW42302   7.310   3.573   9.621  0.4266  0.2694  0.2331
13527SOL    HW142303   7.327   3.629   9.545  1.7529 -0.9279 -0.4001
13527SOL    HW242304   7.215   3.560   9.621  0.2091  1.7135 -0.1557
13528SOL     OW42305   6.612   4.313   4.220  0.5820  0.0090  0.0114
13528SOL    HW142306   6.637   4.373   4.290  0.8198 -0.0381 -0.0325
13528SOL    HW242307   6.596   4.370   4.144 -1.0336  0.2029  0.4541
13529SOL     OW42308   8.763   5.049   8.163  0.1633 -0.1543 -0.3055
13529SOL    HW142309   8.738   5.104   8.237  0.3002  2.1560 -1.8705
13529SOL    HW242310   8.680   5.013   8.131 -0.1189  0.3194 -0.1250
13530SOL     OW42311   5.830   4.488   9.373 -0.4474  0.3760  0.0104
13530SOL    HW142312   5.803   4.578   9.392 -1.4488 -0.0159  0.5170
13530SOL    HW242313   5.789   4.468   9.289 -0.8728  0.1484  0.2642
13531SOL     OW42314   1.975   9.484   8.436  0.2197  0.2791  0.0065
13531SOL    HW142315   2.031   9.502   8.511  0.4838  0.4427 -0.2275
13531SOL    HW242316   2.000   9.396   8.407  0.4060  0.3818 -0.1427
13532SOL     OW42317   8.915   5.608   3.843 -0.0392  0.2372  0.3711
13532SOL    HW142318   8.862   5.552   3.785 -0.6709 -0.2648  1.4093
13532SOL    HW242319   8.996   5.624   3.793 -1.1361  1.0201 -1.2505
13533SOL     OW42320   4.860   6.892   1.054 -0.1135  0.3253 -0.3096
13533SOL    HW142321   4.902   6.957   1.109 -0.4590 -0.9848  1.5888
13533SOL    HW242322   4.807   6.943   0.993  0.8473  1.8455  0.0618
13534SOL     OW42323   5.616   6.719   0.765 -0.2463 -0.1476 -0.1822
13534SOL    HW142324   5.574   6.681   0.688  3.4910 -1.9085 -1.6434
13534SOL    HW242325   5.635   6.809   0.740 -0.9891 -0.0506 -0.4218
13535SOL     OW42326   4.997   2.416   7.220  0.2913 -0.1732 -0.1597
13535SOL    HW142327   5.014   2.415   7.314 -0.1853  0.0297 -0.0662
13535SOL    HW242328   5.071   2.464   7.183 -0.5812  1.7050  0.3611
13536SOL     OW42329   9.656   4.463   0.703  0.2872  0.0025  0.6022
13536SOL    HW142330   9.608   4.381   0.718  0.9903 -0.2748  1.4198
13536SOL    HW242331   9.624   4.494   0.618 -2.0074  0.2980  1.4925
13537SOL     OW42332   2.111   6.241   3.569  0.1619 -0.5265 -0.6330
13537SOL    HW142333   2.068   6.325   3.587  1.8557 -0.0512  1.6559
13537SOL    HW242334   2.198   6.265   3.538  1.2972 -1.3521  1.6999
13538SOL     OW42335   4.086   9.560   0.292  0.4005  0.2034  0.4960
13538SOL    HW142336   4.089   9.553   0.388 -0.2981  0.9301  0.5818
13538SOL    HW242337   4.053   9.474   0.263 -1.3783  0.6605  1.0589
13539SOL     OW42338   1.579   4.010   3.000  0.2312  0.2169  0.1375
13539SOL    HW142339   1.563   4.060   2.920  0.7438 -0.0627 -0.1451
13539SOL    HW242340   1.634   4.067   3.053 -1.1877  0.9521  0.8735
13540SOL     OW42341   2.892   4.380   9.012  0.1500  0.1523 -0.1250
13540SOL    HW142342   2.843   4.309   9.053 -0.7257  0.0416 -1.2975
13540SOL    HW242343   2.948   4.336   8.948  1.8431  0.2769  1.2037
13541SOL     OW42344   3.090   2.138   5.687 -0.3146 -0.0464 -0.2056
13541SOL    HW142345   3.127   2.215   5.729 -1.9323  0.2948  0.6337
13541SOL    HW242346   3.159   2.072   5.694  0.4659  0.8200  0.5449
13542SOL     OW42347   9.180   3.867   6.188  0.0944  0.2593 -0.4245
13542SOL    HW142348   9.111   3.811   6.223 -1.5419  1.4976 -1.4908
13542SOL    HW242349   9.187   3.938   6.252  2.1621 -1.0611  0.9243
13543SOL     OW42350   5.424   9.424   2.045 -0.2033 -0.4328 -0.1663
13543SOL    HW142351   5.484   9.490   2.011 -0.5899  1.0096  1.7982
13543SOL    HW242352   5.350   9.474   2.079 -1.0207 -1.9681  0.3901
13544SOL     OW42353   4.811   9.365   7.267  0.3666  0.7415 -0.6468
13544SOL    HW142354   4.716   9.362   7.256 -0.1585 -1.4335  2.8842
13544SOL    HW242355   4.845   9.311   7.196 -1.2137 -0.0186 -0.8751
13545SOL     OW42356   3.033   1.137   1.616 -0.3562 -0.0778  0.3905
13545SOL    HW142357   3.069   1.224   1.633 -1.2343  0.3049  0.3366
13545SOL    HW242358   3.065   1.115   1.528  0.9896 -0.4055  0.9357
13546SOL     OW42359   7.306   6.337   9.313  0.2707 -0.3484  0.7671
13546SOL    HW142360   7.299   6.361   9.405  1.1232  0.8092  0.5422
13546SOL    HW242361   7.365   6.402   9.275  1.6737 -2.0584 -0.1474
13547SOL     OW42362   0.349   8.916   5.604 -0.3991 -0.4758  0.2870
13547SOL    HW142363   0.335   8.891   5.695  1.6868 -0.2977  0.7212
13547SOL    HW242364   0.407   8.992   5.609 -0.3702 -0.3671 -1.1855
13548SOL     OW42365   1.838   0.137   5.166  0.1094 -0.0107 -0.3645
13548SOL    HW142366   1.893   0.134   5.088  1.1636  2.0468  0.2225
13548SOL    HW242367   1.898   0.122   5.239 -0.7123 -1.0245  0.1362
13549SOL     OW42368   8.634   5.559   5.956 -0.5774  0.4071 -0.5198
13549SOL    HW142369   8.675   5.599   6.032 -1.4598  2.1357 -0.9078
13549SOL    HW242370   8.629   5.466   5.978  0.3087  0.6796  0.9909
13550SOL     OW42371   9.489   4.459   1.393  0.5541  0.1365 -0.9676
13550SOL    HW142372   9.542   4.458   1.473  0.7277  1.0405 -1.0559
13550SOL    HW242373   9.399   4.446   1.423  0.4814  1.5437 -0.4862
13551SOL     OW42374   9.133   1.409   9.042  0.0583  0.2609 -0.2315
13551SOL    HW142375   9.165   1.370   8.961 -1.0505  1.7309 -1.4324
13551SOL    HW242376   9.037   1.406   9.034 -0.0925 -0.3521  1.4277
13552SOL     OW42377   2.898   6.073   2.736 -0.0048  0.7543  0.3727
13552SOL    HW142378   2.931   6.003   2.680 -1.9118  0.3688 -0.3260
13552SOL    HW242379   2.859   6.136   2.675 -1.4984  0.6697  1.2154
13553SOL     OW42380   8.070   4.717   8.039 -0.2675 -0.1161  0.6487
13553SOL    HW142381   8.081   4.717   7.944  2.6182 -0.3739  0.8993
13553SOL    HW242382   7.976   4.730   8.052 -0.9007 -1.0365 -2.2334
13554SOL     OW42383   6.507   5.872   3.907  0.4734  0.0816 -0.7131
13554SOL    HW142384   6.543   5.956   3.881 -0.1413  0.5538 -0.1011
13554SOL    HW242385   6.575   5.832   3.960  0.9758 -0.0476 -1.4432
13555SOL     OW42386   5.669   7.178   8.072 -0.6093 -0.3323  0.3302
13555SOL    HW142387   5.751   7.218   8.043 -1.4093  0.1331 -1.4082
13555SOL    HW242388   5.690   7.139   8.157  0.5632  2.5669  1.5027
13556SOL     OW42389   7.472   9.174   2.961 -0.1451  0.1640 -0.2823
13556SOL    HW142390   7.501   9.134   3.043  2.0292  1.8658 -0.1474
13556SOL    HW242391   7.524   9.254   2.953 -3.3606  2.3431 -1.1816
13557SOL     OW42392   1.646   0.113   2.444  0.1164 -0.0527 -0.7021
13557SOL    HW142393   1.633   0.186   2.505 -0.2759  0.2714 -1.1718
13557SOL    HW242394   1.564   0.108   2.395  0.0775 -0.9081 -0.5753
13558SOL     OW42395   8.549   8.819   3.132 -0.5456 -0.0142 -0.7714
13558SOL    HW142396   8.579   8.908   3.151 -0.7360 -0.1673  0.3324
13558SOL    HW242397   8.596   8.764   3.195 -2.4123 -0.3591  0.4016
13559SOL     OW42398   6.552   4.897   7.935  0.6776  0.0675  0.1664
13559SOL    HW142399   6.527   4.859   8.019  1.5532 -0.2772  0.2859
13559SOL    HW242400   6.644   4.922   7.946  1.2757 -1.3867 -1.1469
13560SOL     OW42401   0.698   8.511   4.216 -0.3895  0.0980 -0.1548
13560SOL    HW142402   0.754   8.510   4.139 -1.2406 -0.2650 -0.7957
13560SOL    HW242403   0.633   8.579   4.198  1.1124  2.0877  1.5526
13561SOL     OW42404   9.025   1.894   5.508  0.4859 -0.2634 -0.0927
13561SOL    HW142405   8.943   1.921   5.549 -1.1523  1.5972 -4.0291
13561SOL    HW242406   9.046   1.810   5.548 -1.3480  0.8027  3.5508
13562SOL     OW42407   0.870   5.209   2.612  0.1613 -0.2851  0.2629
13562SOL    HW142408   0.915   5.161   2.543  0.7354  0.7914 -0.1209
13562SOL    HW242409   0.803   5.260   2.566 -0.4596 -0.7027  0.6731
13563SOL     OW42410   4.781   5.644   3.431 -0.1592  0.2848  0.0752
13563SOL    HW142411   4.762   5.560   3.473 -1.1022  1.6175  2.5313
13563SOL    HW242412   4.871   5.636   3.399 -0.1200 -1.5101  0.5381
13564SOL     OW42413   7.556   7.749   3.153 -0.0783 -0.0079  0.1084
13564SOL    HW142414   7.627   7.791   3.201 -0.7668  0.3163  0.8546
13564SOL    HW242415   7.597   7.720   3.071  0.7325  0.8745  0.1823
13565SOL     OW42416   2.290   3.406   3.517 -0.3273  0.5946 -0.4620
13565SOL    HW142417   2.235   3.338   3.556 -0.0039  1.0829  0.8889
13565SOL    HW242418   2.343   3.360   3.453  0.2078 -0.5284  0.7459
13566SOL     OW42419   0.819   1.231   5.178  0.7293  0.4313  0.7161
13566SOL    HW142420   0.874   1.157   5.205 -1.0491 -1.7449 -1.2687
13566SOL    HW242421   0.733   1.192   5.163  0.4917  2.1934 -3.5974
13567SOL     OW42422   9.174   1.276   7.736 -0.3097  0.0533 -0.3320
13567SOL    HW142423   9.268   1.275   7.754  0.0565  1.7883 -1.7906
13567SOL    HW242424   9.136   1.220   7.803  1.8789 -1.7776 -0.5081
13568SOL     OW42425   8.818   4.051   2.013  0.7075  0.2363 -0.6819
13568SOL    HW142426   8.905   4.089   2.021  1.0018 -0.1545 -1.8102
13568SOL    HW242427   8.826   3.963   2.050  1.0914 -0.2032 -1.7756
13569SOL     OW42428   1.817   1.915   0.108  0.1523 -0.5024  0.8692
13569SOL    HW142429   1.854   1.966   0.179  0.2693 -1.2265  1.3403
13569SOL    HW242430   1.758   1.975   0.063  1.5695  0.5547  0.3502
13570SOL     OW42431   0.358   3.659   3.189  0.2513  0.0321  0.0061
13570SOL    HW142432   0.356   3.614   3.274 -1.0432  1.0897  0.5797
13570SOL    HW242433   0.371   3.751   3.212  0.9345  0.1933 -1.0168
13571SOL     OW42434   9.087   6.702   2.364 -0.4188 -0.4616 -0.3251
13571SOL    HW142435   9.024   6.733   2.430  0.6133  0.0956  0.4337
13571SOL    HW242436   9.036   6.696   2.283 -2.1458 -2.7295  0.7976
13572SOL     OW42437   4.033   6.603   7.918 -0.4755 -0.2624 -0.0589
13572SOL    HW142438   3.939   6.610   7.934 -0.5541  1.6551 -1.0612
13572SOL    HW242439   4.046   6.645   7.833  1.1987 -1.1845 -0.3080
13573SOL     OW42440   8.874   4.294   9.495  0.1295 -0.0737 -0.3170
13573SOL    HW142441   8.927   4.237   9.439  1.2118  0.2935  0.3104
13573SOL    HW242442   8.891   4.382   9.463  0.9588  0.1678  0.7089
13574SOL     OW42443   5.864   3.596   1.381  1.2071  0.2254 -0.3288
13574SOL    HW142444   5.880   3.691   1.383 -0.3612  0.5073  0.1031
13574SOL    HW242445   5.896   3.569   1.295  1.4973  1.1864 -0.5421
13575SOL     OW42446   7.535   1.532   6.295 -0.6470  0.9692  0.5027
13575SOL    HW142447   7.500   1.522   6.207 -0.2233 -0.4164  0.4756
13575SOL    HW242448   7.626   1.561   6.282 -0.6471  0.9667  0.4958
13576SOL     OW42449   7.640   9.190   0.232 -0.7318 -0.0483 -0.3477
13576SOL    HW142450   7.687   9.261   0.189  1.9467  0.4485  2.9763
13576SOL    HW242451   7.709   9.133   0.268 -2.7563 -2.1364  0.5314
13577SOL     OW42452   7.263   9.503   6.730  0.2735  0.2139 -1.0326
13577SOL    HW142453   7.266   9.591   6.768 -0.2743 -0.4246  0.5732
13577SOL    HW242454   7.352   9.470   6.738 -0.2836 -0.8310  2.1124
13578SOL     OW42455   5.123   3.450   8.701  0.4518  0.1945 -0.5296
13578SOL    HW142456   5.163   3.480   8.619  0.9694 -0.9406 -0.7088
13578SOL    HW242457   5.051   3.394   8.674  1.4398 -1.2702 -0.2522
13579SOL     OW42458   1.711   3.426   8.736  0.6499  0.0123  0.1739
13579SOL    HW142459   1.728   3.457   8.825  0.2318 -1.0652  0.6467
13579SOL    HW242460   1.783   3.367   8.716  1.7970  1.7135 -0.9734
13580SOL     OW42461   3.199   5.515   4.671  0.0737  0.2103 -0.0516
13580SOL    HW142462   3.283   5.489   4.633 -0.8178 -3.2037  0.0335
13580SOL    HW242463   3.150   5.552   4.598 -0.2429 -2.7943 -1.5113
13581SOL     OW42464   1.406   2.877   1.811 -0.7873 -0.7340  0.1064
13581SOL    HW142465   1.438   2.955   1.857  0.3774 -0.1933 -1.5279
13581SOL    HW242466   1.315   2.868   1.840 -0.2946 -0.1036  2.0271
13582SOL     OW42467   2.345   6.237   4.994  0.3374 -0.2748  0.5941
13582SOL    HW142468   2.342   6.279   4.908  0.2348 -0.4374  0.5190
13582SOL    HW242469   2.339   6.143   4.976  1.9798 -0.4356  0.6640
13583SOL     OW42470   5.792   1.764   5.103  0.9443 -0.1757  0.5181
13583SOL    HW142471   5.784   1.797   5.192 -0.2285 -0.2591  0.4583
13583SOL    HW242472   5.713   1.711   5.089 -0.8372  2.7110 -1.7434
13584SOL     OW42473   3.553   3.236   5.597  0.1719  0.0063  0.0892
13584SOL    HW142474   3.557   3.184   5.517 -1.0270 -0.7503  0.5038
13584SOL    HW242475   3.610   3.190   5.659  1.7574  1.0327 -0.5294
13585SOL     OW42476   2.296   4.672   0.490 -0.4842  0.2641  0.2841
13585SOL    HW142477   2.323   4.754   0.531 -1.4589  1.8862 -2.0344
13585SOL    HW242478   2.211   4.652   0.529  0.4242 -0.5418  1.9476
13586SOL     OW42479   7.943   8.227   7.296  0.0512  0.0263 -0.3498
13586SOL    HW142480   7.924   8.134   7.285 -1.0837  0.1319  0.4942
13586SOL    HW242481   7.900   8.269   7.222 -1.0765  0.0313  0.2740
13587SOL     OW42482   8.996   4.929   2.064 -0.2509  0.3957  0.0665
13587SOL    HW142483   9.032   4.890   2.144  1.1400 -0.6023 -1.0001
13587SOL    HW242484   9.035   4.878   1.993 -1.6595  1.0890 -1.2514
13588SOL     OW42485   8.434   5.350   7.617 -0.3377 -0.1445 -0.1914
13588SOL    HW142486   8.360   5.319   7.565  1.3246 -4.2022 -0.5134
13588SOL    HW242487   8.445   5.283   7.685  2.0990  1.1409  0.8076
13589SOL     OW42488   6.168   4.028   0.729  0.6614  0.4341  0.2991
13589SOL    HW142489   6.227   4.100   0.750  1.1737  0.3901 -0.9319
13589SOL    HW242490   6.225   3.956   0.702  0.0726  0.7267 -1.9532
13590SOL     OW42491   0.383   0.439   6.988 -0.6688 -0.2210  0.5740
13590SOL    HW142492   0.310   0.481   6.943 -0.0700  0.7001  0.4331
13590SOL    HW242493   0.426   0.510   7.036  0.5977 -0.5710  0.0206
13591SOL     OW42494   1.063   6.285   7.073 -0.3009 -0.2146  0.3798
13591SOL    HW142495   0.987   6.283   7.015 -0.5562  1.8155  0.5851
13591SOL    HW242496   1.028   6.262   7.159  0.0557 -3.0983 -0.1313
13592SOL     OW42497   7.611   8.407   7.164 -0.0413 -0.1032 -0.2280
13592SOL    HW142498   7.698   8.398   7.125 -0.6676  3.2939 -2.9842
13592SOL    HW242499   7.626   8.398   7.258  3.2970  0.3464 -0.5680
13593SOL     OW42500   0.451   9.659   3.716  0.6923 -0.0654  0.9670
13593SOL    HW142501   0.539   9.653   3.680  0.0736  0.1182 -0.6625
13593SOL    HW242502   0.407   9.580   3.685  0.1203  0.1177  1.2965
13594SOL     OW42503   0.152   9.377   5.241 -0.2928 -0.0536  0.4905
13594SOL    HW142504   0.182   9.353   5.153  0.5162 -1.2369  1.0628
13594SOL    HW242505   0.225   9.426   5.278 -0.2762 -0.3144  0.8090
13595SOL     OW42506   7.577   2.151   0.348  0.1435  0.3435  0.3099
13595SOL    HW142507   7.482   2.155   0.347  0.0888 -0.7324  0.2399
13595SOL    HW242508   7.605   2.227   0.297 -0.6147  1.7624  1.9093
13596SOL     OW42509   5.167   5.064   4.278  0.3189  0.1504  0.0469
13596SOL    HW142510   5.221   5.010   4.336 -0.7673  0.3881  1.3122
13596SOL    HW242511   5.106   5.003   4.237 -1.0710  0.3835  1.6617
13597SOL     OW42512   6.182   7.979   1.414  0.2223  0.2426 -0.4052
13597SOL    HW142513   6.186   7.905   1.475 -0.4659  0.5791  0.0617
13597SOL    HW242514   6.258   7.967   1.357  0.1250 -0.8244 -0.3374
13598SOL     OW42515   9.247   2.630   1.997 -0.2947 -0.3263  0.4748
13598SOL    HW142516   9.163   2.621   2.041 -0.6166 -1.1679 -0.2925
13598SOL    HW242517   9.306   2.571   2.045  0.1099  0.9073  1.5602
13599SOL     OW42518   4.784   2.330   6.351  0.2171  0.0797 -0.1467
13599SOL    HW142519   4.815   2.267   6.416 -1.2321  0.6507  1.1693
13599SOL    HW242520   4.862   2.353   6.300  1.0734 -1.5923  0.3320
13600SOL     OW42521   5.983   3.183   4.501  0.3548 -0.7239 -0.0181
13600SOL    HW142522   5.985   3.149   4.412  0.7245 -0.5915 -0.0659
13600SOL    HW242523   5.915   3.251   4.500 -1.1044 -2.1249  0.3442
13601SOL     OW42524   8.927   0.166   3.042  0.0065 -0.5196  0.7404
13601SOL    HW142525   8.985   0.096   3.015 -2.0076 -1.4377 -1.5162
13601SOL    HW242526   8.839   0.129   3.035 -1.1621  2.2495 -0.7546
13602SOL     OW42527   7.124   2.672   4.730 -0.0171 -0.2708 -0.0148
13602SOL    HW142528   7.059   2.682   4.800  1.0930 -0.8517  1.1418
13602SOL    HW242529   7.083   2.613   4.668 -0.4925 -0.8689  0.8399
13603SOL     OW42530   2.602   4.619   4.488 -0.3310  0.1590  0.6720
13603SOL    HW142531   2.528   4.644   4.544  0.2371 -1.4159  2.2005
13603SOL    HW242532   2.573   4.539   4.445  0.5450 -0.6066  1.4714
13604SOL     OW42533   0.334   5.581   8.443 -0.5213 -0.1621 -0.2980
13604SOL    HW142534   0.265   5.625   8.392 -0.7317 -0.4046 -0.2240
13604SOL    HW242535   0.413   5.591   8.391 -1.1950 -2.6611 -1.9800
13605SOL     OW42536   3.013   0.165   3.755  0.1576 -0.6382 -0.1601
13605SOL    HW142537   3.019   0.081   3.710 -0.8051 -1.5096  1.2352
13605SOL    HW242538   3.009   0.229   3.685  1.1848 -1.7179 -1.2643
13606SOL     OW42539   5.049   3.673   7.672 -0.1002  0.2827  0.4195
13606SOL    HW142540   5.014   3.754   7.708 -0.3163 -0.0805  1.0446
13606SOL    HW242541   5.013   3.604   7.727  0.6701 -0.1861  0.3622
13607SOL     OW42542   5.316   4.149   8.399 -0.1737 -0.3353  0.2648
13607SOL    HW142543   5.295   4.086   8.468 -1.0184 -1.5564 -1.0667
13607SOL    HW242544   5.235   4.199   8.386 -0.6772 -1.4808 -1.2111
13608SOL     OW42545   3.474   0.748   4.123 -0.0198 -0.4080 -0.4281
13608SOL    HW142546   3.464   0.843   4.115  1.6929 -0.1359  0.3244
13608SOL    HW242547   3.525   0.722   4.047  2.2612 -0.2118  0.9576
13609SOL     OW42548   5.358   7.557   2.552  0.2684  0.2550  0.2535
13609SOL    HW142549   5.307   7.564   2.472 -0.7839 -0.3096  0.8553
13609SOL    HW242550   5.361   7.462   2.569  1.3547  0.2932  0.3391
13610SOL     OW42551   7.131   1.569   2.539  0.4924  0.1308  0.6283
13610SOL    HW142552   7.166   1.497   2.485 -1.9470 -0.9051  0.2883
13610SOL    HW242553   7.036   1.561   2.530  0.1123  3.1092  1.0210
13611SOL     OW42554   4.584   1.269   8.603 -0.5263 -0.2043  0.5217
13611SOL    HW142555   4.656   1.299   8.658  0.3925  1.1452 -1.3280
13611SOL    HW242556   4.626   1.230   8.526 -1.7287  0.8330 -0.7084
13612SOL     OW42557   7.692   7.293   0.229  0.0767 -0.2004 -0.8790
13612SOL    HW142558   7.722   7.240   0.155  0.2317 -0.3990 -0.6747
13612SOL    HW242559   7.745   7.373   0.225  0.3637 -0.3823 -0.7496
13613SOL     OW42560   5.909   8.184   2.041 -0.2636 -0.1189  0.4129
13613SOL    HW142561   5.872   8.096   2.036 -0.3926 -0.0264 -0.6257
13613SOL    HW242562   5.991   8.178   1.991 -0.1924  0.3035  0.4777
13614SOL     OW42563   4.171   3.537   1.811 -0.3798  0.4463 -0.0191
13614SOL    HW142564   4.211   3.607   1.760  0.8712 -0.8902 -0.9758
13614SOL    HW242565   4.080   3.533   1.781 -0.2423  1.1172 -0.5346
13615SOL     OW42566   8.975   7.068   8.692 -0.0305  0.6191 -0.2187
13615SOL    HW142567   8.942   6.979   8.676  0.5500  0.1585  0.9673
13615SOL    HW242568   9.066   7.064   8.665  0.0529  0.7895  0.0392
13616SOL     OW42569   3.675   5.498   3.874 -0.5482  0.3994 -0.5202
13616SOL    HW142570   3.621   5.577   3.876  1.3047  1.7296 -0.0344
13616SOL    HW242571   3.743   5.517   3.808 -0.1937 -0.8842 -0.5608
13617SOL     OW42572   9.413   3.468   0.868 -0.1304  1.0065  0.2092
13617SOL    HW142573   9.489   3.418   0.838 -1.3335 -0.3582 -0.7306
13617SOL    HW242574   9.448   3.553   0.893  1.6570  0.5011 -0.4288
13618SOL     OW42575   3.511   7.943   1.070  0.1983 -0.1301 -0.4218
13618SOL    HW142576   3.508   7.861   1.021  1.1605  0.0721 -0.8212
13618SOL    HW242577   3.443   7.997   1.030 -2.2814 -1.5978  1.4734
13619SOL     OW42578   8.514   3.740   9.021  0.4224  0.3037 -0.3611
13619SOL    HW142579   8.437   3.793   9.002  1.1377  0.7670 -2.1711
13619SOL    HW242580   8.493   3.654   8.985  0.1349 -0.0392  0.5961
13620SOL     OW42581   6.399   3.571   7.204 -0.4957 -0.3391  0.2022
13620SOL    HW142582   6.375   3.548   7.114 -0.4570 -2.5974  0.7083
13620SOL    HW242583   6.316   3.589   7.247 -0.5787 -0.0297 -0.0833
13621SOL     OW42584   6.770   4.300   6.976 -0.0805 -0.5605 -0.0988
13621SOL    HW142585   6.851   4.310   7.026  0.9465 -1.1458 -1.5612
13621SOL    HW242586   6.728   4.223   7.014 -0.8979  0.7430  1.8267
13622SOL     OW42587   0.601   9.533   9.549  0.0291  0.1071 -0.0250
13622SOL    HW142588   0.630   9.442   9.541  0.6792  0.3457 -0.5296
13622SOL    HW242589   0.532   9.542   9.484 -1.2917 -0.4912  1.2463
13623SOL     OW42590   7.045   1.172   9.011 -1.0437  0.1933 -0.4626
13623SOL    HW142591   7.003   1.101   9.061 -0.7170 -0.0588 -0.5423
13623SOL    HW242592   7.060   1.134   8.924 -0.8999  0.3755 -0.5159
13624SOL     OW42593   0.583   2.759   8.295 -0.5714 -0.3187  0.5924
13624SOL    HW142594   0.629   2.685   8.334 -0.0203  0.4347  1.4081
13624SOL    HW242595   0.566   2.732   8.204  1.5679 -0.5970  0.2193
13625SOL     OW42596   9.300   1.512   8.009 -0.3520  0.5880  0.2638
13625SOL    HW142597   9.292   1.545   7.920 -0.7152 -1.8335 -0.6739
13625SOL    HW242598   9.380   1.461   8.009  0.0913  1.2317  1.5968
13626SOL     OW42599   0.878   0.530   9.513 -0.2424 -0.1070 -0.3055
13626SOL    HW142600   0.828   0.449   9.505 -0.9928  0.2629  0.4178
13626SOL    HW242601   0.967   0.501   9.534 -1.1139 -0.7915  3.1989
13627SOL     OW42602   0.513   2.980   6.327  0.0101  0.6253  0.0853
13627SOL    HW142603   0.485   2.904   6.276  0.3646 -0.0358  0.8493
13627SOL    HW242604   0.488   3.055   6.274 -0.2013 -0.0282 -0.7608
13628SOL     OW42605   4.997   5.977   4.734  0.2994 -0.1751  0.0332
13628SOL    HW142606   4.908   5.951   4.711 -0.0894  0.5572  0.6642
13628SOL    HW242607   5.025   6.033   4.661  0.8025 -1.5447 -0.8777
13629SOL     OW42608   0.876   0.453   5.272  0.1542  0.3175 -1.0122
13629SOL    HW142609   0.890   0.363   5.244 -0.4414  0.1651 -0.8408
13629SOL    HW242610   0.807   0.486   5.214 -1.4452 -0.1593  0.5063
13630SOL     OW42611   4.954   5.919   7.629 -0.6929 -0.0241  1.0394
13630SOL    HW142612   4.972   5.894   7.720  2.3396  0.0241  0.5534
13630SOL    HW242613   5.027   5.883   7.579 -0.5142  2.7166 -0.8934
13631SOL     OW42614   9.650   2.811   8.954  0.0397 -0.7631  0.0616
13631SOL    HW142615   9.714   2.863   8.907 -0.0735  1.6551  2.4032
13631SOL    HW242616   9.568   2.826   8.907  0.2527  0.1843 -0.0257
13632SOL     OW42617   4.484   9.502   5.275 -0.4540  0.4891 -0.0416
13632SOL    HW142618   4.395   9.483   5.244 -0.3503 -0.4742  0.2356
13632SOL    HW242619   4.482   9.596   5.295 -1.5203  0.4162  0.2912
13633SOL     OW42620   8.934   7.538   3.969 -0.5568  0.2003 -0.2724
13633SOL    HW142621   8.882   7.491   4.033  0.1010  0.4428  0.4537
13633SOL    HW242622   8.896   7.626   3.966  0.2974  0.6353  0.8763
13634SOL     OW42623   3.914   7.146   0.700 -0.1119  0.5766  0.1581
13634SOL    HW142624   3.835   7.155   0.648  0.0667 -1.6329 -0.6267
13634SOL    HW242625   3.893   7.187   0.784 -2.8448 -1.6285  0.7017
13635SOL     OW42626   5.765   0.358   7.114  0.3961 -0.0983  0.2195
13635SOL    HW142627   5.750   0.271   7.076  0.3505 -0.6065  1.3673
13635SOL    HW242628   5.757   0.418   7.040 -4.1315 -0.5930  0.0323
13636SOL     OW42629   2.001   7.387   9.397 -0.5118 -0.2766  0.2090
13636SOL    HW142630   2.075   7.328   9.387 -1.0038 -1.0542  1.1015
13636SOL    HW242631   2.024   7.463   9.343  0.4633 -0.9465 -0.3398
13637SOL     OW42632   5.093   0.440   2.203  0.1231 -0.5326 -0.0424
13637SOL    HW142633   5.081   0.349   2.178  0.9252 -0.4541 -0.7710
13637SOL    HW242634   5.057   0.446   2.291  0.5176 -1.6739  0.2096
13638SOL     OW42635   3.423   9.148   9.704  0.3060 -0.4804 -0.2033
13638SOL    HW142636   3.433   9.085   9.632  2.5412 -2.3090  1.5264
13638SOL    HW242637   3.473   9.225   9.676  1.9747 -1.5408 -0.2871
13639SOL     OW42638   8.036   4.668   0.925 -0.3297 -0.1936  0.5439
13639SOL    HW142639   8.094   4.731   0.882 -0.8570  0.5255  0.8416
13639SOL    HW242640   8.028   4.596   0.864  0.6562 -0.1774  0.3847
13640SOL     OW42641   8.835   0.483   1.505  0.2363  0.2462  0.8839
13640SOL    HW142642   8.871   0.459   1.419 -0.6207 -0.9747  0.8549
13640SOL    HW242643   8.856   0.577   1.513  1.6652  0.0427  0.0230
13641SOL     OW42644   6.512   6.731   2.636  0.2809  0.0114 -0.1839
13641SOL    HW142645   6.560   6.721   2.554  0.8187  0.2896  0.0861
13641SOL    HW242646   6.573   6.699   2.703  1.0756  2.5742  0.4253
13642SOL     OW42647   3.308   7.319   8.215 -0.0587 -0.1127  0.0356
13642SOL    HW142648   3.213   7.326   8.221 -0.1648 -1.4200  0.1084
13642SOL    HW242649   3.327   7.229   8.240  1.2876  0.4099  1.0178
13643SOL     OW42650   2.349   5.006   7.839  0.1386 -0.3654  0.4798
13643SOL    HW142651   2.420   4.969   7.891 -1.6743 -1.2809  2.4903
13643SOL    HW242652   2.298   5.057   7.902  0.3801  2.4006 -1.4234
13644SOL     OW42653   0.263   3.124   5.944  0.5041 -0.4616  0.0397
13644SOL    HW142654   0.244   3.136   6.037 -3.9584  1.2332 -0.8685
13644SOL    HW242655   0.228   3.037   5.923  0.2896 -0.2914 -0.3185
13645SOL     OW42656   8.103   6.022   1.964 -0.1657  0.1912  0.2020
13645SOL    HW142657   8.108   6.095   2.027 -0.0085 -0.7163  1.2854
13645SOL    HW242658   8.012   6.022   1.935 -1.1007 -1.2317  2.8051
13646SOL     OW42659   1.892   3.461   6.232 -0.1410 -0.1320 -0.2990
13646SOL    HW142660   1.828   3.498   6.293  1.5784  0.5658  1.2007
13646SOL    HW242661   1.879   3.367   6.238 -0.6251 -0.0294  0.4465
13647SOL     OW42662   4.638   2.338   7.142  0.3487  0.4209 -0.1792
13647SOL    HW142663   4.693   2.281   7.088 -1.8788 -0.3636 -1.8026
13647SOL    HW242664   4.615   2.411   7.085 -1.6065 -0.1316 -0.1708
13648SOL     OW42665   5.902   7.933   9.174 -0.3411  0.4857 -0.0861
13648SOL    HW142666   5.824   7.901   9.220 -0.8784  1.6551 -0.1681
13648SOL    HW242667   5.955   7.973   9.243 -0.6370  1.2651 -0.3112
13649SOL     OW42668   4.334   2.746   4.677  0.4119  0.4566  0.0538
13649SOL    HW142669   4.297   2.833   4.689 -0.7791  0.1911 -1.4508
13649SOL    HW242670   4.420   2.750   4.721  0.0961  2.1531  0.5800
13650SOL     OW42671   7.548   5.554   0.937  0.0875 -0.1683  0.4118
13650SOL    HW142672   7.523   5.627   0.880 -0.6385 -0.6838  0.0442
13650SOL    HW242673   7.643   5.561   0.946  0.1260  0.3184 -0.3137
13651SOL     OW42674   0.190   7.836   2.613 -0.2417 -0.4372  0.6354
13651SOL    HW142675   0.106   7.882   2.619  0.3346  0.8025 -0.5361
13651SOL    HW242676   0.175   7.755   2.663 -2.3741 -0.6269 -0.1756
13652SOL     OW42677   3.432   0.081   1.504 -0.3284  0.6686 -0.0777
13652SOL    HW142678   3.403   0.125   1.584 -0.9383  0.8679 -0.4009
13652SOL    HW242679   3.514   0.038   1.529  0.0149  1.5530  0.3834
13653SOL     OW42680   0.236   4.831   2.091  1.0182 -0.3430 -0.1226
13653SOL    HW142681   0.288   4.867   2.164  0.3390  0.1690  0.1223
13653SOL    HW242682   0.165   4.783   2.133  0.6858 -0.1420 -0.4501
13654SOL     OW42683   7.769   5.711   1.038  0.3876 -0.4413 -0.1180
13654SOL    HW142684   7.763   5.700   1.133  0.9115  0.5137  0.0298
13654SOL    HW242685   7.855   5.749   1.023 -0.1798  0.5997 -0.8615
13655SOL     OW42686   7.737   1.301   3.199  0.1739 -0.3963  0.2752
13655SOL    HW142687   7.823   1.323   3.162  0.9415 -0.7844  1.7621
13655SOL    HW242688   7.676   1.356   3.150  1.4341  0.9976  0.1725
13656SOL     OW42689   8.964   2.924   4.546 -0.0069  0.0200 -0.0716
13656SOL    HW142690   9.006   2.986   4.605 -1.7943 -1.3878  2.9425
13656SOL    HW242691   9.013   2.842   4.556 -0.2356 -0.2000 -0.6539
13657SOL     OW42692   0.058   5.145   2.298  0.3602  0.1219  0.2714
13657SOL    HW142693   0.047   5.053   2.323  0.9653 -0.2112 -0.6331
13657SOL    HW242694   0.059   5.144   2.202 -2.2388  1.3934  0.1210
13658SOL     OW42695   5.067   1.106   6.190 -0.5459 -0.8378  0.1605
13658SOL    HW142696   5.066   1.149   6.105  1.0273 -0.8646  0.1022
13658SOL    HW242697   5.096   1.173   6.251  2.0643 -1.7613  0.0476
13659SOL     OW42698   5.977   4.212   6.636 -0.0338 -0.2454  0.4008
13659SOL    HW142699   5.910   4.239   6.698 -1.8497  0.2387 -1.6259
13659SOL    HW242700   6.045   4.279   6.641 -1.2006  0.9818  0.3424
13660SOL     OW42701   5.629   2.222   3.546 -0.4830 -0.5573 -0.1941
13660SOL    HW142702   5.642   2.231   3.452 -0.4490  0.8964 -0.0777
13660SOL    HW242703   5.703   2.169   3.576  0.2317  0.0535 -0.8210
13661SOL     OW42704   3.466   1.640   1.539 -0.3396  0.1896  0.3366
13661SOL    HW142705   3.533   1.676   1.482  0.1433 -0.0633  0.7398
13661SOL    HW242706   3.385   1.647   1.488  0.0093  0.3862 -0.1971
13662SOL     OW42707   2.588   1.539   4.360 -0.1068 -0.2970  0.1800
13662SOL    HW142708   2.515   1.507   4.308 -0.4460  1.5529 -0.5407
13662SOL    HW242709   2.564   1.520   4.451 -1.6182  0.5318 -0.0265
13663SOL     OW42710   2.212   6.045   2.265  0.0052  0.3620 -0.1553
13663SOL    HW142711   2.297   6.085   2.284 -0.5200  0.9719  0.9894
13663SOL    HW242712   2.154   6.079   2.332 -0.4146 -2.5251  1.1193
13664SOL     OW42713   4.927   5.224   6.712 -0.7530  0.2634  0.0349
13664SOL    HW142714   4.951   5.197   6.800  1.1384  0.9746 -0.2064
13664SOL    HW242715   4.932   5.144   6.660  0.3362  0.2263  0.1721
13665SOL     OW42716   4.190   6.284   1.072 -0.3338  0.1362 -0.0150
13665SOL    HW142717   4.252   6.212   1.068  1.2145  1.1640  2.7252
13665SOL    HW242718   4.214   6.341   0.999  0.2937 -0.6967 -0.4790
13666SOL     OW42719   4.440   4.429   7.072 -0.1320  0.1911 -0.3730
13666SOL    HW142720   4.358   4.386   7.099  0.4480 -0.6302  0.1361
13666SOL    HW242721   4.489   4.440   7.154 -0.1743  1.6703 -0.5173
13667SOL     OW42722   6.234   0.836   5.051 -0.0320 -0.7193 -0.1742
13667SOL    HW142723   6.145   0.872   5.057  0.3633  0.2153  0.3768
13667SOL    HW242724   6.275   0.884   4.980 -0.0610 -1.3832 -0.6493
13668SOL     OW42725   3.059   6.653   5.451 -0.2300 -0.3879  0.4136
13668SOL    HW142726   3.064   6.623   5.360 -0.0975 -4.6357  1.5817
13668SOL    HW242727   3.150   6.651   5.482 -0.1675  1.8403  0.4865
13669SOL     OW42728   9.363   7.969   4.408  0.1881 -0.5047  0.2139
13669SOL    HW142729   9.369   7.874   4.417  0.5672 -0.4233  0.8752
13669SOL    HW242730   9.376   8.002   4.497  0.7526  0.1980 -0.1232
13670SOL     OW42731   0.351   8.279   9.641  0.4301 -0.3896  0.1304
13670SOL    HW142732   0.374   8.219   9.570 -0.4359 -0.0958 -0.4100
13670SOL    HW242733   0.300   8.349   9.598  1.4658  0.7712  0.7316
13671SOL     OW42734   3.471   0.804   7.584  0.2023  0.1485 -0.4090
13671SOL    HW142735   3.524   0.870   7.629  0.4620 -0.1445 -0.2789
13671SOL    HW242736   3.535   0.739   7.554 -0.1920 -0.7967  0.7528
13672SOL     OW42737   4.687   3.634   0.169  0.1126  0.0511 -0.0026
13672SOL    HW142738   4.781   3.651   0.181  0.0661  0.9951 -0.8252
13672SOL    HW242739   4.651   3.718   0.141 -0.9574 -0.3492  0.1272
13673SOL     OW42740   7.716   8.290   4.008 -0.0706 -0.4940 -0.2701
13673SOL    HW142741   7.775   8.283   4.082 -1.5331 -1.0650  0.8944
13673SOL    HW242742   7.756   8.237   3.939  0.6670 -1.0056  0.5395
13674SOL     OW42743   3.928   6.500   4.017 -0.0804 -0.2687 -0.1962
13674SOL    HW142744   3.982   6.556   3.961  0.4815 -0.9722 -0.3627
13674SOL    HW242745   3.843   6.544   4.020  0.0756  0.1084 -1.0758
13675SOL     OW42746   4.364   3.329   6.512 -0.3542 -0.1347 -0.3043
13675SOL    HW142747   4.412   3.365   6.587  0.4695 -0.7668 -0.5109
13675SOL    HW242748   4.412   3.361   6.436 -1.1082  0.3907 -0.5693
13676SOL     OW42749   8.968   3.754   0.833  0.0141 -0.0989  0.3254
13676SOL    HW142750   9.022   3.815   0.882  0.2549  0.1667 -0.2583
13676SOL    HW242751   8.967   3.790   0.744 -0.1854 -0.7197  0.0742
13677SOL     OW42752   5.896   7.485   9.120  0.1576  0.6067  0.2130
13677SOL    HW142753   5.915   7.493   9.213 -2.9585 -1.1572  1.1366
13677SOL    HW242754   5.837   7.558   9.101  0.6885  0.8969 -0.3928
13678SOL     OW42755   7.407   4.287   4.095  0.1319  0.0115 -0.1823
13678SOL    HW142756   7.453   4.367   4.068  0.1133  0.0261 -0.1713
13678SOL    HW242757   7.351   4.266   4.020  0.2943 -0.1115 -0.2702
13679SOL     OW42758   2.011   4.750   1.129  0.0563  0.1038 -1.0741
13679SOL    HW142759   1.924   4.711   1.134 -0.9984  1.7247 -4.0379
13679SOL    HW242760   2.067   4.681   1.094 -0.3376 -0.5387 -0.4449
13680SOL     OW42761   4.340   0.847   2.776 -0.6441  0.3333  0.4702
13680SOL    HW142762   4.350   0.866   2.869 -0.9874  0.1930  0.5354
13680SOL    HW242763   4.246   0.847   2.761 -0.6601 -1.0839  0.4211
13681SOL     OW42764   0.579   9.656   1.253 -0.1761 -0.0154  0.0553
13681SOL    HW142765   0.537   9.653   1.167  1.7865  0.6119 -0.9866
13681SOL    HW242766   0.535   9.727   1.299 -2.7550 -1.7384  0.4915
13682SOL     OW42767   1.210   7.293   8.062 -0.1952  0.2236  0.3803
13682SOL    HW142768   1.261   7.371   8.085 -0.4471  0.1184  1.3264
13682SOL    HW242769   1.182   7.257   8.146  0.3890 -1.2168 -0.0028
13683SOL     OW42770   6.311   7.882   6.122  0.7089  0.0578  0.2434
13683SOL    HW142771   6.242   7.827   6.159  0.5989 -0.5295 -0.7967
13683SOL    HW242772   6.382   7.877   6.186  0.6818 -1.2737  0.1934
13684SOL     OW42773   1.133   5.806   6.169 -0.0821 -0.2124 -0.1667
13684SOL    HW142774   1.116   5.717   6.199  0.2649 -0.1202  0.3100
13684SOL    HW242775   1.206   5.836   6.223 -1.3629  1.0089  0.9481
13685SOL     OW42776   0.912   6.040   3.282  0.6674 -0.0730 -0.2663
13685SOL    HW142777   0.828   6.067   3.321  0.6248  1.0383 -1.0937
13685SOL    HW242778   0.973   6.041   3.356  0.6090  2.1079 -0.1907
13686SOL     OW42779   2.802   9.672   8.878  0.1194  0.2144 -0.4832
13686SOL    HW142780   2.870   9.647   8.815 -2.3393 -1.2196 -2.7892
13686SOL    HW242781   2.793   9.766   8.866  1.3314  0.3585 -0.4680
13687SOL     OW42782   3.769   6.888   0.673 -0.8886 -0.8517 -0.7247
13687SOL    HW142783   3.797   6.979   0.689 -1.2218 -0.6418 -1.2995
13687SOL    HW242784   3.696   6.897   0.612 -0.8641 -1.5205 -0.8496
13688SOL     OW42785   2.993   6.222   9.101 -0.3326  0.0350  0.6893
13688SOL    HW142786   2.969   6.163   9.173  1.1748 -0.6483  0.6774
13688SOL    HW242787   3.082   6.250   9.122  0.1946 -0.3060 -0.9808
13689SOL     OW42788   1.312   4.800   6.083  0.2021 -0.1709 -0.4732
13689SOL    HW142789   1.396   4.847   6.091 -0.1552  0.3353  0.4885
13689SOL    HW242790   1.251   4.852   6.136 -0.3227 -1.4621  0.2345
13690SOL     OW42791   6.203   8.781   3.600 -0.0107 -0.7166  0.3026
13690SOL    HW142792   6.207   8.796   3.694 -0.3512 -1.1443  0.3862
13690SOL    HW242793   6.283   8.822   3.566  0.2232 -0.7544  0.7994
13691SOL     OW42794   8.064   6.708   2.829  0.0804  0.1036  0.1289
13691SOL    HW142795   8.053   6.759   2.909 -0.6804  0.9113 -0.4703
13691SOL    HW242796   7.982   6.659   2.819  0.4074 -0.4585  0.1561
13692SOL     OW42797   4.722   9.550   3.875 -0.0474 -0.4167 -0.3350
13692SOL    HW142798   4.732   9.460   3.844  0.0762  0.0554 -1.7036
13692SOL    HW242799   4.639   9.580   3.837 -0.9208 -0.4582  1.4294
13693SOL     OW42800   1.291   6.435   9.075  1.0286  0.6679  0.5350
13693SOL    HW142801   1.377   6.395   9.063  0.3297 -0.4235 -1.3754
13693SOL    HW242802   1.309   6.525   9.101  2.7354  0.4001  0.3638
13694SOL     OW42803   1.481   4.566   4.011  0.2770  0.4528  0.3217
13694SOL    HW142804   1.574   4.588   4.003  0.2591  0.3046 -0.2826
13694SOL    HW242805   1.475   4.474   3.985 -0.1089  0.5873 -0.0772
13695SOL     OW42806   4.182   2.360   3.229 -0.4088  0.7526  0.1822
13695SOL    HW142807   4.148   2.271   3.219 -0.5589  0.8681 -0.4153
13695SOL    HW242808   4.185   2.375   3.323 -1.7818  0.6431  0.2727
13696SOL     OW42809   2.575   9.082   6.482  0.1691 -0.5185 -0.0510
13696SOL    HW142810   2.597   9.089   6.575 -0.0990 -0.7554  0.0356
13696SOL    HW242811   2.543   9.168   6.458  0.9704 -0.2339 -0.1237
13697SOL     OW42812   5.216   2.016   7.432 -0.2549 -0.2672  0.8153
13697SOL    HW142813   5.164   2.046   7.507 -0.1281  0.1613  0.7373
13697SOL    HW242814   5.154   1.968   7.377 -0.6219  0.4160  0.6210
13698SOL     OW42815   2.315   5.522   4.534 -0.4185 -0.0980 -0.0195
13698SOL    HW142816   2.355   5.597   4.577 -0.3237  0.9252 -1.8109
13698SOL    HW242817   2.380   5.453   4.541  0.1869  0.4867  0.2161
13699SOL     OW42818   5.437   0.913   2.194 -0.2350  0.6486  0.4292
13699SOL    HW142819   5.479   0.993   2.164 -1.1054  1.7377  1.9851
13699SOL    HW242820   5.486   0.889   2.273  0.3754 -0.7059 -0.3175
13700SOL     OW42821   8.697   6.347   5.353 -0.2512 -0.4016 -0.1749
13700SOL    HW142822   8.656   6.304   5.278 -1.0961  0.8717 -0.4650
13700SOL    HW242823   8.781   6.378   5.320 -0.1161 -0.8670 -0.2681
13701SOL     OW42824   6.629   1.516   1.353 -0.0653  0.2700 -0.4984
13701SOL    HW142825   6.558   1.534   1.291 -1.4526 -1.2621  0.5863
13701SOL    HW242826   6.597   1.550   1.436  1.0189  0.6755 -0.2334
13702SOL     OW42827   6.988   0.838   5.837  0.0797 -0.1570 -0.6245
13702SOL    HW142828   6.999   0.776   5.909  0.2838  0.2198 -0.3311
13702SOL    HW242829   6.902   0.878   5.852 -0.4196 -0.9458 -1.2657
13703SOL     OW42830   5.125   2.111   0.465 -0.5098  0.2232  0.7024
13703SOL    HW142831   5.115   2.106   0.370 -1.1629 -0.5830  0.8012
13703SOL    HW242832   5.205   2.161   0.479 -1.0500  1.4157 -0.2623
13704SOL     OW42833   1.543   5.993   7.380 -0.2720  0.3506 -0.3118
13704SOL    HW142834   1.616   6.010   7.440 -0.9649  1.2795  0.2765
13704SOL    HW242835   1.504   5.912   7.413  0.4865 -0.1560 -0.6328
13705SOL     OW42836   1.101   2.636   3.247 -0.5269  0.5756  0.4906
13705SOL    HW142837   1.169   2.616   3.311  0.0072  1.4832  0.2251
13705SOL    HW242838   1.071   2.550   3.216  1.3490  0.1533 -0.2872
13706SOL     OW42839   5.832   4.747   9.454  0.1332 -0.2584  0.2849
13706SOL    HW142840   5.861   4.762   9.364 -0.5195  0.9857  0.2605
13706SOL    HW242841   5.901   4.784   9.508  0.8376 -1.5882  0.3282
13707SOL     OW42842   1.254   3.737   8.059 -0.1312  0.5612  0.4086
13707SOL    HW142843   1.262   3.776   8.146 -0.3540  0.3566  0.5233
13707SOL    HW242844   1.319   3.666   8.059 -0.8445 -0.1141  0.7907
13708SOL     OW42845   8.855   7.001   1.652 -0.5807  0.5166  0.5185
13708SOL    HW142846   8.936   7.035   1.614 -0.1049 -0.0565  0.9938
13708SOL    HW242847   8.813   7.078   1.691 -0.8085  1.0071 -0.6578
13709SOL     OW42848   7.955   2.312   0.300  0.2372  0.8800  0.0223
13709SOL    HW142849   8.011   2.264   0.239 -1.2094 -1.4297  0.3819
13709SOL    HW242850   7.873   2.324   0.252  0.5184  3.0149 -0.0187
13710SOL     OW42851   8.985   6.941   7.983 -0.0155 -0.1335 -0.3657
13710SOL    HW142852   8.938   6.858   7.977  0.5313 -0.6039  1.4725
13710SOL    HW242853   8.988   6.973   7.892 -2.8404 -0.6270 -0.7358
13711SOL     OW42854   1.496   1.267   0.828  0.4743  0.4523 -0.3420
13711SOL    HW142855   1.426   1.331   0.840 -1.2483 -1.1889 -1.2542
13711SOL    HW242856   1.548   1.303   0.756 -0.3458  0.9435 -0.7068
13712SOL     OW42857   0.460   1.301   3.471 -0.5600 -0.0020  0.8321
13712SOL    HW142858   0.487   1.343   3.390 -0.0189 -0.5891  0.6989
13712SOL    HW242859   0.516   1.340   3.538  0.3200 -0.8558  0.6300
13713SOL     OW42860   1.265   0.911   3.371 -0.3110 -0.5518  0.2623
13713SOL    HW142861   1.294   0.843   3.311  2.2564 -0.5195  1.3637
13713SOL    HW242862   1.264   0.869   3.457 -1.8605 -0.0260  0.5424
13714SOL     OW42863   9.454   2.226   4.589  0.4640  0.4690  0.8182
13714SOL    HW142864   9.549   2.212   4.590  0.3812 -1.5109 -2.5202
13714SOL    HW242865   9.439   2.281   4.512 -1.1303  0.7569  1.2965
13715SOL     OW42866   2.225   3.602   7.510  0.7363 -0.0497  0.0526
13715SOL    HW142867   2.291   3.589   7.442  1.6949  0.0081  0.9343
13715SOL    HW242868   2.272   3.587   7.592 -0.7004 -1.4448  0.6862
13716SOL     OW42869   8.242   2.974   5.094 -0.2227 -0.8032  0.1489
13716SOL    HW142870   8.306   2.913   5.131 -0.5466 -0.9941  0.4042
13716SOL    HW242871   8.248   2.961   4.999  0.6944 -0.2244  0.1216
13717SOL     OW42872   6.268   2.488   4.506  0.2179 -0.1841  0.2014
13717SOL    HW142873   6.278   2.393   4.503  0.4957 -0.1405 -0.5594
13717SOL    HW242874   6.182   2.503   4.467 -0.2925 -0.1828  1.2988
13718SOL     OW42875   2.312   2.748   3.027 -0.7548  0.1791 -0.2741
13718SOL    HW142876   2.285   2.658   3.012 -0.9165  0.2512 -0.4175
13718SOL    HW242877   2.348   2.748   3.116  1.3514 -0.5264 -1.0565
13719SOL     OW42878   6.713   1.776   8.860  0.1250 -0.4270  0.6388
13719SOL    HW142879   6.673   1.738   8.938  0.7161 -1.9692  0.2361
13719SOL    HW242880   6.668   1.859   8.848 -2.6880 -1.8472  0.4486
13720SOL     OW42881   3.247   8.736   6.258  0.0093 -0.2142 -0.3551
13720SOL    HW142882   3.336   8.766   6.239 -0.2383  1.2583  0.6494
13720SOL    HW242883   3.191   8.812   6.242 -0.8592 -0.6209  0.6168
13721SOL     OW42884   8.471   4.592   7.408  0.3071 -0.3038 -0.6009
13721SOL    HW142885   8.559   4.604   7.445  0.1527 -0.9128 -0.0097
13721SOL    HW242886   8.487   4.549   7.324  0.5565 -0.9250 -0.2447
13722SOL     OW42887   4.909   0.957   1.910 -0.3455  0.2727 -0.1559
13722SOL    HW142888   4.969   0.884   1.925  0.4793  0.5125 -1.9322
13722SOL    HW242889   4.841   0.946   1.976  0.0078 -1.8194 -0.0490
13723SOL     OW42890   2.202   1.320   0.096  0.1237 -0.1874  0.0390
13723SOL    HW142891   2.270   1.386   0.086 -0.0518 -0.2060 -1.4371
13723SOL    HW242892   2.192   1.281   0.009 -1.6529 -0.2906  0.2381
13724SOL     OW42893   7.570   3.418   1.011  0.3910  0.0040 -0.1479
13724SOL    HW142894   7.509   3.345   1.015  1.1222 -0.5733  0.7356
13724SOL    HW242895   7.533   3.476   0.944 -0.5560 -0.8346 -0.3776
13725SOL     OW42896   9.311   5.750   9.344  0.3788  0.5533  0.1371
13725SOL    HW142897   9.294   5.813   9.274 -2.7685 -2.0086 -1.7003
13725SOL    HW242898   9.224   5.717   9.368  1.5619 -0.4896  3.6081
13726SOL     OW42899   2.624   3.630   7.700  0.0725 -0.1552  0.3602
13726SOL    HW142900   2.561   3.701   7.688 -0.1612 -0.0477  1.9723
13726SOL    HW242901   2.670   3.652   7.781  0.7231 -1.3097  0.3251
13727SOL     OW42902   9.228   6.881   3.352 -0.0531  0.2913 -0.3027
13727SOL    HW142903   9.235   6.816   3.282  0.9650  1.6705 -1.5274
13727SOL    HW242904   9.136   6.907   3.351 -0.6446 -1.5541  0.6598
13728SOL     OW42905   4.843   7.465   0.845 -0.1786  0.1244  0.2109
13728SOL    HW142906   4.774   7.458   0.779 -0.9557 -0.8731  1.1061
13728SOL    HW242907   4.924   7.447   0.797 -0.7226 -0.5104 -0.4896
13729SOL     OW42908   8.946   7.669   8.538 -0.0925 -0.5121 -0.0685
13729SOL    HW142909   8.953   7.574   8.529 -0.9404 -0.6140  0.2289
13729SOL    HW242910   8.999   7.690   8.615  0.3027 -0.7142 -0.2877
13730SOL     OW42911   4.147   3.498   5.885  0.2021  0.5837 -0.2599
13730SOL    HW142912   4.162   3.538   5.799 -0.8640  1.4306 -0.0731
13730SOL    HW242913   4.129   3.406   5.865  0.0051  0.7629 -0.9384
13731SOL     OW42914   9.351   3.111   3.850 -0.0927 -0.4709 -0.5807
13731SOL    HW142915   9.314   3.152   3.772  0.7639  0.7120 -0.3957
13731SOL    HW242916   9.317   3.163   3.923  1.2222  0.1494 -0.3623
13732SOL     OW42917   4.557   5.982   0.949  0.3430 -0.6764 -0.6379
13732SOL    HW142918   4.533   5.889   0.950  3.1069 -1.4891 -1.3952
13732SOL    HW242919   4.653   5.982   0.949  0.4250  2.1912 -1.0504
13733SOL     OW42920   0.924   0.907   5.081 -0.5548  0.4341  0.0335
13733SOL    HW142921   0.837   0.905   5.042 -0.5113 -1.1156 -0.0451
13733SOL    HW242922   0.957   0.818   5.072  1.6980  1.3247 -1.3581
13734SOL     OW42923   0.660   8.264   3.550 -0.3405 -0.1144  0.3897
13734SOL    HW142924   0.716   8.312   3.490 -0.0986  0.9151  1.3917
13734SOL    HW242925   0.586   8.324   3.567 -0.0897 -0.1123  1.5715
13735SOL     OW42926   1.888   1.777   0.767 -0.3488  0.5622  0.0150
13735SOL    HW142927   1.921   1.706   0.822  0.3697  1.1395  0.3493
13735SOL    HW242928   1.948   1.849   0.784 -1.4974  1.4868  0.2358
13736SOL     OW42929   6.705   3.069   5.706 -0.3980 -0.6209 -0.1894
13736SOL    HW142930   6.684   3.015   5.630 -1.0682 -0.7245  0.0670
13736SOL    HW242931   6.648   3.036   5.776 -0.4751  0.1085  0.0993
13737SOL     OW42932   4.327   1.320   6.824  0.0770  0.4559 -0.4175
13737SOL    HW142933   4.393   1.287   6.763 -1.3817  0.5943 -2.1364
13737SOL    HW242934   4.370   1.317   6.909  1.9829 -0.3085 -1.3518
13738SOL     OW42935   4.113   1.155   8.097 -0.0151 -0.5439 -0.2370
13738SOL    HW142936   4.087   1.067   8.071  1.1652 -1.5875  1.8386
13738SOL    HW242937   4.048   1.181   8.162 -1.2060  0.7781 -1.8897
13739SOL     OW42938   7.355   5.075   7.169  0.0487 -0.4132 -0.4913
13739SOL    HW142939   7.449   5.060   7.173  0.2901  0.9151 -0.6687
13739SOL    HW242940   7.341   5.122   7.087 -0.4789  1.1997  0.4803
13740SOL     OW42941   9.447   4.292   1.875  0.4212 -0.2296  0.1422
13740SOL    HW142942   9.488   4.268   1.792 -0.6286  0.2346 -0.5250
13740SOL    HW242943   9.494   4.240   1.940  1.7537 -0.0598 -0.6375
13741SOL     OW42944   1.555   4.304   7.445 -0.5842 -0.2028 -0.1810
13741SOL    HW142945   1.461   4.290   7.459 -1.2089  1.6905 -1.9261
13741SOL    HW242946   1.564   4.308   7.350  0.5273  3.6160 -0.0882
13742SOL     OW42947   5.975   1.843   4.589  0.5395 -0.6129  0.0746
13742SOL    HW142948   5.882   1.862   4.577  0.7754  0.1805 -0.6058
13742SOL    HW242949   5.978   1.778   4.660 -0.4933 -0.2653  0.4476
13743SOL     OW42950   5.172   5.546   2.276  0.8111 -0.3362  0.2935
13743SOL    HW142951   5.109   5.474   2.286  0.1325  0.0074 -1.2286
13743SOL    HW242952   5.241   5.509   2.220  1.0689 -0.1613  0.4941
13744SOL     OW42953   9.701   5.820   9.288 -0.4023  0.2293  0.4982
13744SOL    HW142954   9.677   5.818   9.195 -0.8727  0.7653  0.6067
13744SOL    HW242955   9.789   5.782   9.290  0.4427  2.0175 -0.4248
13745SOL     OW42956   5.418   4.211   3.751 -0.4218 -0.4070 -0.1500
13745SOL    HW142957   5.383   4.208   3.662  0.0752  0.5509 -0.3905
13745SOL    HW242958   5.513   4.200   3.739 -0.4472 -1.2153  0.3424
13746SOL     OW42959   0.735   9.303   7.337  0.2208  0.4251 -0.1981
13746SOL    HW142960   0.707   9.379   7.389 -1.9135  0.9395 -1.9668
13746SOL    HW242961   0.706   9.227   7.387 -0.2763  0.8544  0.1715
13747SOL     OW42962   3.180   4.050   4.394 -0.4746 -0.0200 -0.5416
13747SOL    HW142963   3.117   4.095   4.338 -1.2257 -1.6980 -1.0876
13747SOL    HW242964   3.212   3.977   4.342  0.8055 -0.0879  0.2815
13748SOL     OW42965   4.223   8.645   2.381 -0.6132 -0.2344 -0.0706
13748SOL    HW142966   4.181   8.672   2.299 -1.2297  0.3832  0.4393
13748SOL    HW242967   4.247   8.727   2.424 -2.6577 -0.4231  1.5687
13749SOL     OW42968   4.675   1.083   7.178  0.0155  0.0861  0.4578
13749SOL    HW142969   4.713   1.055   7.095 -1.8535 -0.6182 -0.2165
13749SOL    HW242970   4.689   1.008   7.236 -1.3176 -0.6734 -0.1415
13750SOL     OW42971   4.219   3.220   4.892 -0.2771 -0.0158 -0.4455
13750SOL    HW142972   4.280   3.258   4.830 -0.1359  0.5659  0.0467
13750SOL    HW242973   4.134   3.258   4.869 -0.3620 -0.4013 -0.7772
13751SOL     OW42974   6.363   1.662   8.829 -0.2072 -0.0551  0.0206
13751SOL    HW142975   6.424   1.673   8.902 -1.1707 -0.3532  0.9091
13751SOL    HW242976   6.349   1.567   8.824 -0.3932 -0.0090 -0.3311
13752SOL     OW42977   8.849   5.699   1.222 -0.7773 -0.0279 -0.0627
13752SOL    HW142978   8.770   5.648   1.242 -0.0552 -1.2314 -0.2428
13752SOL    HW242979   8.891   5.653   1.150  0.1699  0.5236  0.1171
13753SOL     OW42980   8.484   6.652   6.250 -0.1413  0.1406 -0.0446
13753SOL    HW142981   8.406   6.707   6.244  0.1797  0.7015  0.7234
13753SOL    HW242982   8.495   6.637   6.344 -0.4001 -1.5057 -0.2546
13754SOL     OW42983   6.288   8.140   1.094  0.2265  0.5139  0.6949
13754SOL    HW142984   6.297   8.053   1.131 -1.0850 -0.1636 -0.4695
13754SOL    HW242985   6.350   8.143   1.021 -0.5578  0.1022 -0.0051
13755SOL     OW42986   8.935   6.864   3.658  0.7466  0.5065  0.5081
13755SOL    HW142987   8.997   6.801   3.695  0.6555  1.1943  1.9100
13755SOL    HW242988   8.982   6.947   3.661  0.2663  0.7870  0.2371
13756SOL     OW42989   0.635   2.571   0.013  0.0479  0.5679  0.1804
13756SOL    HW142990   0.604   2.646   0.063  0.9199  0.8435  0.3353
13756SOL    HW242991   0.669   2.609  -0.068  0.6836  0.3741  0.3481
13757SOL     OW42992   2.216   9.128   8.613 -0.2240 -0.0542 -0.2191
13757SOL    HW142993   2.161   9.107   8.538  0.5384 -2.8032 -0.0906
13757SOL    HW242994   2.305   9.113   8.583  0.6266  3.9586 -0.2943
13758SOL     OW42995   9.264   3.861   8.606  0.0312 -0.1981 -0.1966
13758SOL    HW142996   9.182   3.845   8.558 -0.8204 -1.1934  1.4892
13758SOL    HW242997   9.331   3.864   8.538 -1.0803 -1.8030 -1.4537
13759SOL     OW42998   2.496   0.537   1.857  0.5525  0.6036 -0.4514
13759SOL    HW142999   2.535   0.598   1.920  0.4224  1.0621 -0.8067
13759SOL    HW243000   2.453   0.594   1.793 -0.2015  0.1241 -0.3867
13760SOL     OW43001   4.995   5.343   5.216  0.3663 -0.2044 -0.4641
13760SOL    HW143002   4.942   5.417   5.246 -2.2906 -1.7208 -1.0597
13760SOL    HW243003   5.009   5.290   5.295  0.4371 -0.1083 -0.4129
13761SOL     OW43004   1.945   7.014   1.790 -0.3779  0.2322 -0.5043
13761SOL    HW143005   1.872   7.075   1.779 -0.4995 -0.0220 -1.1695
13761SOL    HW243006   1.904   6.928   1.798 -0.2692  0.3405  1.5991
13762SOL     OW43007   7.099   6.520   0.392 -0.2608  0.0112  0.1675
13762SOL    HW143008   7.062   6.533   0.479  0.4045 -0.9540  0.6107
13762SOL    HW243009   7.192   6.540   0.404  0.4673 -3.0696  0.4489
13763SOL     OW43010   7.239   3.739   9.403  0.1207  0.0112  0.4335
13763SOL    HW143011   7.167   3.778   9.452  0.0305  0.9702 -0.4258
13763SOL    HW243012   7.205   3.730   9.314  1.3873  1.4314 -0.2228
13764SOL     OW43013   3.458   8.800   1.971 -0.5011  0.4648  0.3371
13764SOL    HW143014   3.478   8.738   1.901  0.5066  1.9784 -0.7683
13764SOL    HW243015   3.418   8.874   1.927 -1.5980  0.6908  1.6267
13765SOL     OW43016   4.308   6.566   3.383 -0.7741 -0.2725 -0.6760
13765SOL    HW143017   4.382   6.512   3.412 -1.6168 -1.2271 -0.2463
13765SOL    HW243018   4.336   6.599   3.297  1.2140  1.5345  0.5494
13766SOL     OW43019   1.659   5.878   2.448  0.1826 -0.3501 -0.1562
13766SOL    HW143020   1.567   5.882   2.474  0.4617 -1.7678  1.1848
13766SOL    HW243021   1.660   5.824   2.369 -0.1243 -0.3071 -0.1888
13767SOL     OW43022   3.337   7.731   4.994  0.1739 -0.2304  0.1957
13767SOL    HW143023   3.353   7.692   4.908 -1.8075  2.4186 -1.5550
13767SOL    HW243024   3.287   7.666   5.042  2.0566 -2.1162 -0.2491
13768SOL     OW43025   6.049   2.808   4.193 -1.0251  0.1687  0.1469
13768SOL    HW143026   6.098   2.726   4.195 -0.0365  0.7532  1.3182
13768SOL    HW243027   5.977   2.791   4.132 -0.4785 -1.3466 -0.1346
13769SOL     OW43028   8.769   4.602   1.053  0.6947 -0.1257  1.0185
13769SOL    HW143029   8.739   4.633   1.138 -1.8218 -1.2110  0.6066
13769SOL    HW243030   8.783   4.682   1.001  2.0797  0.5326  2.3285
13770SOL     OW43031   5.683   2.015   7.754 -0.5334  0.1632  0.6232
13770SOL    HW143032   5.610   2.021   7.692  0.0836 -0.1696 -0.1614
13770SOL    HW243033   5.672   2.091   7.811  0.9397  2.7289 -2.2049
13771SOL     OW43034   6.150   2.645   2.503  0.2864  0.7628 -0.2100
13771SOL    HW143035   6.091   2.698   2.450 -0.6464  0.6298  0.6692
13771SOL    HW243036   6.213   2.609   2.440 -0.6593  0.7795 -1.1923
13772SOL     OW43037   2.414   4.594   7.722  0.6556  0.3694  0.6005
13772SOL    HW143038   2.407   4.569   7.630  1.1369 -0.3355  0.7444
13772SOL    HW243039   2.507   4.615   7.734  0.6961 -0.0199  1.0337
13773SOL     OW43040   4.549   7.636   1.622 -0.1269 -0.2564 -0.3479
13773SOL    HW143041   4.613   7.623   1.553 -0.6607  0.4325 -0.9857
13773SOL    HW243042   4.570   7.569   1.687  1.3128  0.0364 -0.4745
13774SOL     OW43043   7.147   0.101   5.180 -0.5907  0.3075 -0.6049
13774SOL    HW143044   7.129   0.108   5.274 -1.3973 -1.6664 -0.5719
13774SOL    HW243045   7.120   0.187   5.145  0.2122  1.2672  1.0009
13775SOL     OW43046   6.670   8.354   0.407 -0.0118 -0.3008 -0.2506
13775SOL    HW143047   6.592   8.358   0.352  0.0959 -1.0955 -0.4752
13775SOL    HW243048   6.717   8.436   0.387 -0.0260 -0.5273 -1.2751
13776SOL     OW43049   4.961   0.443   2.975 -0.0574  0.1035 -0.2869
13776SOL    HW143050   5.030   0.472   3.035 -0.7754  1.4648 -0.0779
13776SOL    HW243051   4.935   0.357   3.008 -0.4621  0.8343  1.3867
13777SOL     OW43052   5.089   5.672   6.205 -0.2004 -0.4062  0.1316
13777SOL    HW143053   5.002   5.636   6.187  0.5549 -1.5800 -1.4182
13777SOL    HW243054   5.091   5.685   6.299 -1.4017 -2.1094  0.4377
13778SOL     OW43055   4.776   2.841   2.127 -0.4708 -0.4731 -0.5141
13778SOL    HW143056   4.706   2.783   2.157  2.1552 -2.6214  1.9722
13778SOL    HW243057   4.795   2.810   2.038 -2.1961 -0.2223 -1.0244
13779SOL     OW43058   4.126   4.518   5.952 -0.1100  0.5593  0.4831
13779SOL    HW143059   4.177   4.550   5.877 -1.7311  0.2986 -0.7833
13779SOL    HW243060   4.083   4.595   5.987 -0.2098  0.5172  0.4547
13780SOL     OW43061   2.005   0.271   0.859  0.3204  0.0281  0.2465
13780SOL    HW143062   2.024   0.252   0.951 -0.5905 -0.4541  0.3448
13780SOL    HW243063   2.012   0.366   0.852 -1.6394  0.3041  1.3210
13781SOL     OW43064   3.876   2.944   5.981  0.1647  0.1274  0.2278
13781SOL    HW143065   3.957   2.965   6.027  0.8791  0.4556 -1.1383
13781SOL    HW243066   3.877   2.849   5.973 -0.2544  0.0127  1.3759
13782SOL     OW43067   7.492   9.625   1.196  0.2812 -0.3902 -0.0399
13782SOL    HW143068   7.544   9.604   1.274 -0.3988 -1.5682  0.1226
13782SOL    HW243069   7.452   9.541   1.170 -0.1397  0.1425 -1.1854
13783SOL     OW43070   0.560   8.560   7.721 -0.8820  0.4402 -0.0599
13783SOL    HW143071   0.602   8.626   7.775  1.7091  0.5212 -1.9799
13783SOL    HW243072   0.552   8.601   7.635 -0.8467 -1.1003 -0.8337
13784SOL     OW43073   2.571   3.889   3.145  0.1761 -0.3508 -0.0314
13784SOL    HW143074   2.562   3.985   3.145  0.9279 -0.2758  0.0738
13784SOL    HW243075   2.616   3.869   3.063  0.3603 -0.5794  0.1232
13785SOL     OW43076   1.940   5.963   2.172 -0.5368 -0.2828  0.0978
13785SOL    HW143077   1.997   6.037   2.153 -0.8536  0.0715  0.5202
13785SOL    HW243078   1.852   6.000   2.174 -0.7137 -0.6969  0.1653
13786SOL     OW43079   7.261   4.158   3.843  0.6697  0.4164  0.2852
13786SOL    HW143080   7.342   4.115   3.817  0.3359 -0.6353  0.8890
13786SOL    HW243081   7.215   4.092   3.896 -1.1752  0.4782 -1.1110
13787SOL     OW43082   6.616   1.371   2.408  0.2306  0.5633 -0.1453
13787SOL    HW143083   6.621   1.397   2.316 -0.3086  0.0180 -0.3329
13787SOL    HW243084   6.538   1.316   2.413  0.8309 -0.2474  0.4381
13788SOL     OW43085   8.645   0.409   2.257  0.0408  0.1239  0.2037
13788SOL    HW143086   8.628   0.346   2.187 -0.9676  0.3113  0.2677
13788SOL    HW243087   8.600   0.373   2.334 -1.6108  1.4960 -0.0619
13789SOL     OW43088   4.318   5.717   1.427  0.1170  0.0043  0.5051
13789SOL    HW143089   4.334   5.808   1.402  1.6316 -0.6814 -1.2225
13789SOL    HW243090   4.405   5.677   1.431 -0.4630 -1.2245  1.9441
13790SOL     OW43091   8.113   5.665   8.711  0.1529  0.3856 -0.0033
13790SOL    HW143092   8.112   5.756   8.741  1.7208  0.5258 -0.2945
13790SOL    HW243093   8.062   5.617   8.777 -1.5952  1.6082 -0.4083
13791SOL     OW43094   7.472   9.246   7.544  0.3496 -0.0290 -0.2648
13791SOL    HW143095   7.491   9.335   7.517  1.3012 -0.4646 -1.1143
13791SOL    HW243096   7.414   9.212   7.475 -2.6162  0.8501  1.6000
13792SOL     OW43097   9.032   7.917   6.587  0.0485  0.1437 -0.1294
13792SOL    HW143098   9.035   7.941   6.494  0.0412  0.9052  0.0603
13792SOL    HW243099   9.123   7.921   6.616  0.0392 -0.0029 -0.0773
13793SOL     OW43100   8.650   7.885   4.350  0.4399 -0.0819 -0.0482
13793SOL    HW143101   8.601   7.803   4.341 -0.8905  0.8019 -1.5054
13793SOL    HW243102   8.656   7.918   4.260 -0.3047  2.0719  0.6414
13794SOL     OW43103   4.707   6.629   5.582 -0.5831 -0.0873  0.3043
13794SOL    HW143104   4.745   6.655   5.666 -0.2736 -0.3302  0.2434
13794SOL    HW243105   4.682   6.537   5.595 -3.0548  0.6137  1.0078
13795SOL     OW43106   6.623   5.722   5.667  0.7825  0.0686  0.2742
13795SOL    HW143107   6.685   5.767   5.610  0.2063  0.6470  0.0984
13795SOL    HW243108   6.672   5.704   5.747  1.6781 -0.9804 -0.4803
13796SOL     OW43109   2.673   1.160   0.874  0.0409  0.6486  0.3645
13796SOL    HW143110   2.597   1.210   0.843 -0.0237  0.3528  0.0296
13796SOL    HW243111   2.738   1.170   0.804 -0.7615 -1.5452 -0.7833
13797SOL     OW43112   5.933   7.341   1.378  0.2041 -0.2923  0.3770
13797SOL    HW143113   5.907   7.321   1.468  1.5373  0.4008  0.9488
13797SOL    HW243114   5.996   7.272   1.356  0.8789  0.2889  0.4642
13798SOL     OW43115   1.973   9.597   7.379 -0.4485  0.0937  0.2770
13798SOL    HW143116   1.993   9.686   7.352  0.8012 -0.1199  0.4678
13798SOL    HW243117   1.974   9.546   7.298  0.9269 -0.1146  0.4100
13799SOL     OW43118   8.047   2.238   5.479 -0.0733 -1.0066 -0.3112
13799SOL    HW143119   8.069   2.325   5.444 -1.4300 -0.6536 -0.3139
13799SOL    HW243120   8.067   2.244   5.573  1.5376 -1.2864 -0.5982
13800SOL     OW43121   3.278   2.322   2.244 -0.3228 -0.3142 -0.2457
13800SOL    HW143122   3.266   2.253   2.309 -0.8357 -0.2156 -0.2253
13800SOL    HW243123   3.233   2.289   2.166 -2.0580  0.6859  0.2640
13801SOL     OW43124   3.045   7.371   8.147  0.2726  0.2066 -0.5533
13801SOL    HW143125   3.014   7.309   8.212  1.1795  0.9470  0.6434
13801SOL    HW243126   2.975   7.377   8.082 -0.6333 -0.5857  0.3368
13802SOL     OW43127   3.068   7.334   4.321  0.2609  1.0458  0.6831
13802SOL    HW143128   2.974   7.335   4.301  0.6698  0.4955 -1.5438
13802SOL    HW243129   3.086   7.244   4.348  0.7351  0.0483 -2.5411
13803SOL     OW43130   0.087   6.643   4.307  0.6060  0.1448 -0.2043
13803SOL    HW143131   0.044   6.648   4.393  1.5561  0.6741  0.2580
13803SOL    HW243132   0.044   6.711   4.255  0.2732  0.0643 -0.0399
13804SOL     OW43133   1.764   3.781   7.345 -0.6602  0.2556 -0.1091
13804SOL    HW143134   1.681   3.776   7.393 -1.3397  1.0402 -1.1372
13804SOL    HW243135   1.778   3.875   7.332 -0.1330  0.0867 -0.8184
13805SOL     OW43136   0.850   3.748   8.495 -0.1873  0.0124  0.1967
13805SOL    HW143137   0.814   3.664   8.467  1.3463 -0.6129 -0.0394
13805SOL    HW243138   0.810   3.764   8.580  0.5873 -1.7235  0.9422
13806SOL     OW43139   1.745   0.044   6.858 -0.7850 -0.1617 -0.5366
13806SOL    HW143140   1.718  -0.039   6.819 -0.3010  0.0372 -1.3299
13806SOL    HW243141   1.667   0.076   6.904 -0.9842 -1.0296 -0.2585
13807SOL     OW43142   4.698   0.382   4.561  0.1871 -0.3227 -0.8865
13807SOL    HW143143   4.781   0.355   4.599 -0.2209  0.2020  0.4508
13807SOL    HW243144   4.634   0.370   4.632 -0.5937  0.7883 -1.3731
13808SOL     OW43145   1.493   1.458   3.005  0.2369 -0.1725 -0.1923
13808SOL    HW143146   1.457   1.398   3.070 -0.9054  0.2243 -0.4245
13808SOL    HW243147   1.475   1.545   3.040  2.1175  0.0692  0.2707
13809SOL     OW43148   8.183   8.389   7.353 -0.3482  0.1038 -0.0720
13809SOL    HW143149   8.102   8.339   7.339 -0.3588 -0.3486  1.4690
13809SOL    HW243150   8.163   8.449   7.424 -0.1238  1.9027 -1.4799
13810SOL     OW43151   4.597   3.908   9.287 -0.1162  0.8237 -0.1105
13810SOL    HW143152   4.545   3.839   9.245 -0.4739  1.3127 -0.4878
13810SOL    HW243153   4.559   3.916   9.375  0.1507  0.3076  0.0544
13811SOL     OW43154   7.156   7.174   6.792  0.2648  0.1248  0.2753
13811SOL    HW143155   7.100   7.140   6.722  1.0061 -0.0691 -0.2379
13811SOL    HW243156   7.098   7.231   6.843 -0.8531 -1.4339  0.8330
13812SOL     OW43157   5.668   2.383   2.792 -0.0796  0.3243 -0.0932
13812SOL    HW143158   5.658   2.478   2.780  0.1321  0.3379 -0.1572
13812SOL    HW243159   5.696   2.351   2.707 -0.2345  0.1919 -0.0938
13813SOL     OW43160   9.316   2.230   8.226  0.4363 -0.0752  0.2243
13813SOL    HW143161   9.372   2.251   8.151 -1.0618 -0.7936 -1.1610
13813SOL    HW243162   9.259   2.307   8.235 -1.1785 -1.0396 -1.1538
13814SOL     OW43163   5.888   4.502   1.465  0.7073 -0.4844 -0.5337
13814SOL    HW143164   5.835   4.535   1.537  2.5232  0.8096  0.2819
13814SOL    HW243165   5.859   4.411   1.453 -2.4871  0.4741 -0.9893
13815SOL     OW43166   8.694   3.456   3.265 -0.1122 -0.4244 -0.0654
13815SOL    HW143167   8.668   3.404   3.341  0.7586 -0.4412  0.2340
13815SOL    HW243168   8.727   3.392   3.202 -0.4945 -0.3755 -0.3208
13816SOL     OW43169   5.361   2.026   3.434 -0.0031 -0.2176 -0.0564
13816SOL    HW143170   5.303   2.002   3.361  0.5592  0.5446 -0.7578
13816SOL    HW243171   5.321   2.104   3.472  1.3061  1.1674 -1.4398
13817SOL     OW43172   5.208   9.374   9.139  0.1565  0.7604  0.8926
13817SOL    HW143173   5.116   9.350   9.145 -0.1341  1.7554  0.7246
13817SOL    HW243174   5.210   9.465   9.170  1.0437  0.8174  0.6827
13818SOL     OW43175   8.795   4.170   5.957 -0.2078 -0.4240 -0.2108
13818SOL    HW143176   8.763   4.105   5.895  0.5547  0.4449 -1.5551
13818SOL    HW243177   8.719   4.191   6.011 -0.9081 -1.1213 -0.9053
13819SOL     OW43178   2.021   5.448   0.654  0.4302  0.6626 -0.1699
13819SOL    HW143179   2.032   5.530   0.606  0.4843  0.4875 -0.4540
13819SOL    HW243180   2.107   5.406   0.650  0.1713  0.1853 -0.7721
13820SOL     OW43181   1.260   9.374   6.473  0.3105  0.0418 -0.1198
13820SOL    HW143182   1.281   9.416   6.390  2.6419  1.1162  0.9271
13820SOL    HW243183   1.301   9.287   6.467 -2.8235 -1.5024 -1.5023
13821SOL     OW43184   6.154   3.079   0.678 -0.5386 -0.5766  0.1591
13821SOL    HW143185   6.132   2.986   0.687  1.6755 -1.1718  0.0936
13821SOL    HW243186   6.099   3.123   0.742 -0.1175 -2.2278  1.7602
13822SOL     OW43187   3.001   0.995   2.715 -0.4753 -0.0470 -0.7254
13822SOL    HW143188   2.921   1.003   2.767 -1.4485  0.2036 -2.1793
13822SOL    HW243189   2.995   1.067   2.652  0.6624 -0.3340 -1.1890
13823SOL     OW43190   5.320   5.909   5.272  0.5347 -0.6074  0.5455
13823SOL    HW143191   5.315   5.855   5.193 -2.3502 -0.5987  0.6124
13823SOL    HW243192   5.270   5.860   5.337 -0.7753  1.3409  1.0837
13824SOL     OW43193   1.783   8.414   3.176 -0.1898 -0.1752 -0.2817
13824SOL    HW143194   1.797   8.500   3.215 -0.1035 -0.6571  0.7679
13824SOL    HW243195   1.858   8.402   3.117  1.0557 -0.5025  1.3146
13825SOL     OW43196   7.240   3.762   2.557 -0.1352 -0.1530 -0.7016
13825SOL    HW143197   7.275   3.839   2.601  2.2194 -1.3795 -0.3029
13825SOL    HW243198   7.303   3.742   2.488  0.4933 -2.9356  0.5531
13826SOL     OW43199   2.452   2.392   3.133 -0.1981 -0.1686  0.3139
13826SOL    HW143200   2.365   2.389   3.175 -0.4286 -0.9702 -0.2153
13826SOL    HW243201   2.461   2.308   3.090  1.2992 -0.5155  1.2373
13827SOL     OW43202   8.041   8.523   0.182  0.6243  0.3731 -0.2987
13827SOL    HW143203   8.028   8.470   0.103  1.0787  0.9808 -0.7890
13827SOL    HW243204   7.997   8.473   0.251 -1.0146  0.5148 -1.1906
13828SOL     OW43205   4.122   9.642   7.821 -0.1067  0.0531 -0.2204
13828SOL    HW143206   4.198   9.698   7.834 -0.5462  0.3023  1.4035
13828SOL    HW243207   4.148   9.582   7.751  0.8877  1.3310 -0.9835
13829SOL     OW43208   3.453   4.313   6.028 -0.3457 -0.4221 -0.0554
13829SOL    HW143209   3.435   4.242   6.090 -0.6725 -1.9882 -1.8627
13829SOL    HW243210   3.536   4.289   5.987 -0.9892 -0.3615 -1.4482
13830SOL     OW43211   2.798   3.081   1.342  0.5311  0.1787 -0.3568
13830SOL    HW143212   2.773   3.062   1.432 -0.5873 -0.1277 -0.7195
13830SOL    HW243213   2.856   3.009   1.318  1.4756  0.6782  0.3649
13831SOL     OW43214   1.704   3.748   9.481  0.4313  0.1387  0.1001
13831SOL    HW143215   1.682   3.664   9.521 -0.2907  1.3527  2.4437
13831SOL    HW243216   1.744   3.799   9.551  3.9332  0.7232 -2.0790
13832SOL     OW43217   9.453   3.199   2.626  0.5887  0.0325 -0.0584
13832SOL    HW143218   9.511   3.126   2.648 -0.7331 -0.8533  0.6329
13832SOL    HW243219   9.512   3.274   2.616  1.7742 -0.5861  1.7232
13833SOL     OW43220   9.683   5.489   2.960 -0.1537  0.3577  0.0611
13833SOL    HW143221   9.604   5.456   3.002 -0.1991  0.4261  0.0284
13833SOL    HW243222   9.754   5.439   3.001 -0.3029 -0.5887 -0.7804
13834SOL     OW43223   9.432   9.044   3.520  0.4804 -0.1593  0.2018
13834SOL    HW143224   9.440   9.094   3.439  2.3985 -1.1908 -0.3053
13834SOL    HW243225   9.522   9.038   3.553 -0.0050 -1.3978  1.3988
13835SOL     OW43226   8.858   9.083   7.990  0.2706  0.4220 -0.3693
13835SOL    HW143227   8.770   9.063   8.021  1.1080  0.4069  2.1986
13835SOL    HW243228   8.849   9.165   7.942 -0.9354  1.2144  1.1474
13836SOL     OW43229   1.169   7.962   9.345 -0.1040  0.2471  0.1619
13836SOL    HW143230   1.182   7.975   9.251  0.7770  1.3599  0.4140
13836SOL    HW243231   1.124   7.878   9.352  0.2976 -0.1049 -1.2186
13837SOL     OW43232   7.108   7.132   0.608  0.1428 -0.5311  0.0972
13837SOL    HW143233   7.139   7.201   0.667 -1.2661 -1.2012  1.7104
13837SOL    HW243234   7.183   7.114   0.551  1.3526  0.6223  1.2369
13838SOL     OW43235   3.693   7.369   7.916  0.0905 -0.0739 -0.5457
13838SOL    HW143236   3.748   7.396   7.989 -0.7702 -2.4040  1.0986
13838SOL    HW243237   3.604   7.380   7.949 -0.3180 -0.7545 -1.4052
13839SOL     OW43238   1.163   3.475   7.523  0.1105  0.5302 -0.1171
13839SOL    HW143239   1.247   3.433   7.504  0.2048  0.5469  0.2534
13839SOL    HW243240   1.098   3.407   7.508  0.2572  0.2642  0.4129
13840SOL     OW43241   4.786   5.482   5.646  0.2660  0.2519 -0.3217
13840SOL    HW143242   4.751   5.500   5.733 -2.0595  0.1190 -1.1547
13840SOL    HW243243   4.844   5.407   5.659  1.3881  1.3493  1.3588
13841SOL     OW43244   1.527   8.233   7.527  0.3037 -0.5685 -0.2698
13841SOL    HW143245   1.460   8.194   7.471 -0.6563 -1.2954  1.3213
13841SOL    HW243246   1.599   8.170   7.527 -0.0682 -0.9885  0.0459
13842SOL     OW43247   6.232   9.169   6.993  0.1182  0.1662  0.0883
13842SOL    HW143248   6.172   9.208   7.056  1.4608 -0.5907  1.9313
13842SOL    HW243249   6.179   9.155   6.915 -1.9680 -0.0289  1.4485
13843SOL     OW43250   8.392   0.635   9.089  0.8852 -0.7073  0.0562
13843SOL    HW143251   8.309   0.653   9.044  2.3851  2.5471 -1.7972
13843SOL    HW243252   8.372   0.566   9.151 -2.5567 -1.9786 -2.2030
13844SOL     OW43253   7.558   8.256   4.851 -0.5297 -0.1132 -0.4921
13844SOL    HW143254   7.606   8.265   4.933 -0.4185  1.0901 -0.6748
13844SOL    HW243255   7.608   8.190   4.802  0.9264  1.0546 -0.6417
13845SOL     OW43256   7.319   3.288   2.823  0.3268 -0.4422  0.3387
13845SOL    HW143257   7.291   3.216   2.766  1.6165  0.1508 -1.1314
13845SOL    HW243258   7.296   3.367   2.774  0.5188  0.1190  1.1364
13846SOL     OW43259   9.180   2.407   5.072 -0.2101  0.8940 -0.0908
13846SOL    HW143260   9.161   2.382   5.162  1.7682 -0.9163 -0.1019
13846SOL    HW243261   9.126   2.349   5.018  0.4271  0.2621 -0.0652
13847SOL     OW43262   0.081   2.008   8.203 -1.0531  0.1784 -0.0313
13847SOL    HW143263   0.080   1.994   8.109 -2.5880 -1.0707  0.1357
13847SOL    HW243264  -0.011   2.019   8.227 -1.3003 -4.0811  1.8615
13848SOL     OW43265   7.213   9.610   4.480  0.1229  0.3009  0.0820
13848SOL    HW143266   7.202   9.690   4.531  2.5001  0.4829  0.4453
13848SOL    HW243267   7.240   9.641   4.393  0.5368 -0.0703  0.0716
13849SOL     OW43268   2.426   5.892   1.810  0.4807 -0.4751  0.2140
13849SOL    HW143269   2.387   5.806   1.793  0.9652 -0.8449  0.9233
13849SOL    HW243270   2.354   5.954   1.796  0.2687 -0.9399 -0.8501
13850SOL     OW43271   4.628   7.163   1.276 -0.2688  0.7304 -0.0272
13850SOL    HW143272   4.648   7.080   1.318 -1.1301 -0.7394 -2.3612
13850SOL    HW243273   4.549   7.146   1.224 -0.8753  3.2019 -0.0664
13851SOL     OW43274   8.775   5.796   9.560 -0.0195 -0.2325 -0.1980
13851SOL    HW143275   8.825   5.753   9.629 -1.5352  1.2804  1.9733
13851SOL    HW243276   8.687   5.807   9.597 -0.8768  0.7051 -2.3549
13852SOL     OW43277   1.266   0.459   7.183  0.4692  0.5218 -0.3774
13852SOL    HW143278   1.252   0.478   7.090  2.5300  0.8529 -0.6697
13852SOL    HW243279   1.358   0.433   7.189  0.7056  1.6121  1.7355
13853SOL     OW43280   8.711   4.654   7.515  0.5827  0.1387 -0.1085
13853SOL    HW143281   8.775   4.627   7.449  1.3992 -2.1489  1.4986
13853SOL    HW243282   8.737   4.743   7.540  3.1348 -0.6846  0.4351
13854SOL     OW43283   4.438   9.568   6.465 -0.1313 -0.9555 -0.9507
13854SOL    HW143284   4.360   9.558   6.520 -0.9112 -0.8700 -2.0165
13854SOL    HW243285   4.503   9.509   6.505 -1.1120 -1.9260 -0.7382
13855SOL     OW43286   8.834   0.244   7.329  0.0213  0.2385  0.1393
13855SOL    HW143287   8.869   0.159   7.302 -1.7063 -0.7268  0.7718
13855SOL    HW243288   8.912   0.295   7.353  1.0484 -1.5534  0.8418
13856SOL     OW43289   1.788   1.129   6.212  0.0335 -0.1227  0.0109
13856SOL    HW143290   1.814   1.059   6.152  1.5364 -1.1766  1.7891
13856SOL    HW243291   1.770   1.084   6.295 -0.2029  1.4694  0.8536
13857SOL     OW43292   7.773   7.626   4.331  0.2078 -0.3155  0.1303
13857SOL    HW143293   7.829   7.597   4.403  0.2873 -1.3660 -0.3262
13857SOL    HW243294   7.752   7.717   4.351 -0.4102 -0.8035  1.8887
13858SOL     OW43295   5.704   6.190   5.463  0.3670 -0.4681  0.7074
13858SOL    HW143296   5.615   6.192   5.499  0.1165 -1.3965  0.1637
13858SOL    HW243297   5.728   6.097   5.464  1.4002 -0.2133  1.0022
13859SOL     OW43298   1.721   2.752   7.729 -0.0347 -0.2997 -0.0354
13859SOL    HW143299   1.788   2.688   7.753  0.5720  0.0685 -0.6997
13859SOL    HW243300   1.749   2.833   7.772  0.6570  0.1751 -1.3278
13860SOL     OW43301   8.003   3.218   2.876 -0.3080  0.3676  0.3013
13860SOL    HW143302   8.086   3.252   2.911 -0.7851  1.3001  0.5615
13860SOL    HW243303   8.027   3.181   2.790  0.2020  1.6268 -0.1297
13861SOL     OW43304   2.905   5.713   9.575  0.4184 -0.1870  0.8225
13861SOL    HW143305   2.963   5.756   9.637 -1.0674  1.0653  1.4218
13861SOL    HW243306   2.840   5.780   9.552 -0.9012 -1.5592  0.3655
13862SOL     OW43307   3.423   7.020   4.164 -0.3185  0.4106 -0.4289
13862SOL    HW143308   3.504   7.070   4.174  0.5194 -0.4238 -2.5794
13862SOL    HW243309   3.404   6.988   4.252  1.5768  0.7811  0.1597
13863SOL     OW43310   8.451   3.221   8.201  0.2935 -0.2014  0.1369
13863SOL    HW143311   8.432   3.134   8.234  0.4403 -0.0888  0.5196
13863SOL    HW243312   8.447   3.278   8.278 -0.3795  0.2205 -0.1936
13864SOL     OW43313   7.878   3.342   0.648 -0.4515  0.0279  0.0476
13864SOL    HW143314   7.970   3.317   0.635 -0.2022  0.9582 -0.0397
13864SOL    HW243315   7.829   3.262   0.627  0.4254 -1.1290  2.1286
13865SOL     OW43316   3.746   4.626   1.705 -0.9143 -0.2514  0.1358
13865SOL    HW143317   3.754   4.675   1.624 -1.2286  0.9268  0.7956
13865SOL    HW243318   3.656   4.593   1.704 -0.5572 -1.2584 -0.5322
13866SOL     OW43319   9.519   2.884   4.016  0.5716  0.1336  0.4963
13866SOL    HW143320   9.483   2.968   4.044 -0.9884 -0.0889 -0.7145
13866SOL    HW243321   9.612   2.902   3.999  0.9671  0.9175  2.9461
13867SOL     OW43322   2.104   6.519   9.360 -0.2003  0.0155  0.2278
13867SOL    HW143323   2.013   6.544   9.374 -0.6029 -1.3900  0.1805
13867SOL    HW243324   2.108   6.493   9.268  0.0635 -0.6891  0.4383
13868SOL     OW43325   9.146   2.755   7.991  0.0493 -0.1016 -0.0553
13868SOL    HW143326   9.152   2.677   7.935  0.5065  0.2948 -0.5672
13868SOL    HW243327   9.058   2.750   8.029 -1.1885  0.8026 -2.5800
13869SOL     OW43328   6.796   5.088   7.632 -0.3450 -0.1800  0.6325
13869SOL    HW143329   6.788   5.041   7.715 -0.4888 -0.3292  0.5354
13869SOL    HW243330   6.821   5.021   7.568 -1.1317 -0.2454  0.3745
13870SOL     OW43331   1.715   8.470   0.661 -0.0932 -0.1416 -0.0741
13870SOL    HW143332   1.776   8.429   0.600 -0.5680 -1.0505  0.0325
13870SOL    HW243333   1.770   8.520   0.721  0.6048 -1.3729  0.3432
13871SOL     OW43334   4.248   6.027   3.782 -0.7239 -0.2497  0.7471
13871SOL    HW143335   4.254   6.087   3.707  1.3455 -1.5621 -0.2310
13871SOL    HW243336   4.154   6.020   3.799 -1.1975  0.9824 -0.9899
13872SOL     OW43337   4.209   6.528   7.404  0.1634 -0.1831 -0.2098
13872SOL    HW143338   4.252   6.474   7.338 -1.0646  1.2119 -2.2423
13872SOL    HW243339   4.264   6.606   7.411 -0.7664  0.5796 -1.1306
13873SOL     OW43340   1.344   5.795   7.721 -0.2962 -0.2070 -0.3807
13873SOL    HW143341   1.262   5.845   7.723 -1.0679 -1.4416  0.9815
13873SOL    HW243342   1.362   5.781   7.628 -1.0658  0.9648 -0.7256
13874SOL     OW43343   5.194   6.534   7.558  0.3215 -0.2920  0.1878
13874SOL    HW143344   5.200   6.515   7.651  1.4951  0.5207  0.3104
13874SOL    HW243345   5.104   6.561   7.544 -0.1413 -1.4457  0.8711
13875SOL     OW43346   6.796   7.334   0.887 -0.4856 -0.3443 -0.3579
13875SOL    HW143347   6.880   7.369   0.858 -0.5838  0.3507  0.1597
13875SOL    HW243348   6.742   7.411   0.902 -0.6203 -0.6880  1.0681
13876SOL     OW43349   6.427   8.053   9.517  0.2612 -0.8676  0.3651
13876SOL    HW143350   6.495   8.046   9.450  0.4588 -1.2005  0.5985
13876SOL    HW243351   6.395   7.963   9.527  0.1753 -0.8046  0.6584
13877SOL     OW43352   6.540   4.677   0.299 -0.1117  0.0594  0.8112
13877SOL    HW143353   6.452   4.671   0.337  0.0429 -1.7299  0.9536
13877SOL    HW243354   6.531   4.739   0.227 -1.2061  0.8234  1.5704
13878SOL     OW43355   4.928   5.499   3.714 -0.5353  0.5056 -0.2166
13878SOL    HW143356   4.841   5.539   3.713 -0.3536  0.9452  0.8935
13878SOL    HW243357   4.989   5.573   3.721 -0.0114  0.2578 -1.7439
13879SOL     OW43358   1.931   8.001   5.109  0.0756  0.0798 -0.3758
13879SOL    HW143359   1.958   7.938   5.176  0.8266  0.1035 -0.6483
13879SOL    HW243360   1.920   8.083   5.157 -1.6256 -0.3812  0.1178
13880SOL     OW43361   6.198   8.433   5.370 -0.0696 -0.5521  0.2059
13880SOL    HW143362   6.171   8.517   5.334 -1.7659 -0.4464  1.6023
13880SOL    HW243363   6.213   8.378   5.294  2.6434  1.4039 -0.8087
13881SOL     OW43364   9.512   7.290   2.263 -0.3741 -0.0652 -0.5623
13881SOL    HW143365   9.416   7.283   2.267 -0.4375  1.0721  0.6721
13881SOL    HW243366   9.541   7.259   2.349  0.0908  2.8984  0.4356
13882SOL     OW43367   1.829   3.728   0.044  0.4146 -0.0330  0.5065
13882SOL    HW143368   1.902   3.723  -0.018 -0.6251  1.0685 -0.8921
13882SOL    HW243369   1.820   3.638   0.078  0.4386 -0.9257 -1.6792
13883SOL     OW43370   1.795   8.340   2.424 -0.1816 -0.5593 -0.1667
13883SOL    HW143371   1.781   8.350   2.518  0.6071  4.3295 -0.3159
13883SOL    HW243372   1.863   8.273   2.416  2.8167  1.7406  3.1882
13884SOL     OW43373   6.130   8.812   4.116 -0.2131 -0.4687  0.1021
13884SOL    HW143374   6.138   8.717   4.123 -1.0802 -0.6301 -0.9333
13884SOL    HW243375   6.049   8.833   4.163  1.3558  0.1252  2.7729
13885SOL     OW43376   6.936   5.833   5.059  0.0029 -0.2434 -0.0303
13885SOL    HW143377   7.001   5.775   5.020  0.0823 -1.0040  1.2041
13885SOL    HW243378   6.852   5.791   5.042 -0.2408  0.8597 -1.8383
13886SOL     OW43379   0.673   7.599   0.947 -0.2001 -0.0578  0.1838
13886SOL    HW143380   0.583   7.633   0.946 -0.9135 -1.8647  0.3565
13886SOL    HW243381   0.711   7.632   0.865 -1.3439 -0.1152 -0.3880
13887SOL     OW43382   9.201   9.094   3.640  0.5118 -0.1209  0.2782
13887SOL    HW143383   9.235   9.131   3.722  0.9225 -0.0378  0.0756
13887SOL    HW243384   9.278   9.091   3.582  0.1397  0.2179 -0.2453
13888SOL     OW43385   5.849   8.554   1.079  0.2061 -0.2925 -0.0142
13888SOL    HW143386   5.809   8.468   1.091  0.1375 -0.2582  0.0031
13888SOL    HW243387   5.941   8.536   1.063  0.4661 -0.2987  1.3886
13889SOL     OW43388   4.456   7.440   1.297  0.0184 -0.1956 -0.1876
13889SOL    HW143389   4.436   7.438   1.391  1.6151  0.6524  0.1967
13889SOL    HW243390   4.551   7.433   1.292 -0.0496 -0.4020 -1.7676
13890SOL     OW43391   8.695   3.285   6.102  0.0381 -0.0941 -0.3038
13890SOL    HW143392   8.780   3.251   6.076 -0.0109 -0.9737  0.5839
13890SOL    HW243393   8.709   3.378   6.117  1.3663 -0.5675  1.7847
13891SOL     OW43394   8.821   0.250   5.999  0.1510  0.4144  0.6580
13891SOL    HW143395   8.863   0.272   5.917  1.5108 -1.3991  0.8038
13891SOL    HW243396   8.892   0.251   6.064 -0.3649 -0.7644  1.2839
13892SOL     OW43397   6.569   5.636   4.443 -0.5727  0.5947  0.5434
13892SOL    HW143398   6.551   5.719   4.488 -0.2545  0.4033  1.0335
13892SOL    HW243399   6.565   5.570   4.512 -0.8696  0.1948  0.1434
13893SOL     OW43400   8.006   1.933   3.559 -0.3574 -0.2749 -0.8795
13893SOL    HW143401   8.058   1.879   3.618  0.2547  1.1817 -0.0239
13893SOL    HW243402   7.918   1.895   3.561 -0.0275 -1.0036 -0.0277
13894SOL     OW43403   4.444   1.386   8.367  0.5678 -0.2519  0.3290
13894SOL    HW143404   4.465   1.372   8.460  0.5220  1.2204  0.5838
13894SOL    HW243405   4.506   1.452   8.338  1.3719 -1.5405 -1.0508
13895SOL     OW43406   3.097   0.876   6.716 -0.4208  0.0415  0.0780
13895SOL    HW143407   3.127   0.962   6.685  1.3778  0.0667  1.6828
13895SOL    HW243408   3.093   0.885   6.811 -3.5722 -0.6874  0.1027
13896SOL     OW43409   2.242   6.329   2.107 -0.6505 -0.1555 -0.2300
13896SOL    HW143410   2.313   6.275   2.073 -0.2958 -0.2471  0.6328
13896SOL    HW243411   2.282   6.378   2.178 -1.4182 -0.0800  0.1532
13897SOL     OW43412   5.497   1.325   9.572 -0.2521  0.6292  0.3175
13897SOL    HW143413   5.577   1.304   9.621 -1.0318  0.4522  1.5755
13897SOL    HW243414   5.526   1.378   9.498  1.1917 -0.6698 -0.0782
13898SOL     OW43415   4.632   5.910   0.512 -0.1497 -0.2883  0.1830
13898SOL    HW143416   4.718   5.884   0.480 -0.3148 -0.3525 -0.2248
13898SOL    HW243417   4.577   5.832   0.497 -0.1135 -0.5026  1.1093
13899SOL     OW43418   8.489   3.224   8.836 -0.6993 -0.0091 -0.1508
13899SOL    HW143419   8.443   3.200   8.756 -0.5473 -1.2293  0.1029
13899SOL    HW243420   8.581   3.205   8.817 -0.4575  1.1748 -0.2098
13900SOL     OW43421   2.745   6.013   1.321  0.0756 -0.0674  0.0042
13900SOL    HW143422   2.745   6.079   1.391 -0.6275  0.0638 -0.1181
13900SOL    HW243423   2.657   6.016   1.284  0.1362 -0.8487 -0.2246
13901SOL     OW43424   5.194   5.894   6.080  0.0615 -0.0976 -0.9225
13901SOL    HW143425   5.161   5.828   6.141  1.1709 -0.3742 -0.5904
13901SOL    HW243426   5.257   5.847   6.026  1.7355  0.9088  0.0664
13902SOL     OW43427   6.333   9.600   0.605 -0.2649 -0.1772  0.4775
13902SOL    HW143428   6.369   9.625   0.690 -1.1523 -1.5667  1.2967
13902SOL    HW243429   6.370   9.513   0.588 -1.4582 -0.6760  0.2960
13903SOL     OW43430   3.168   9.523   9.634 -0.9325  0.0918 -0.1940
13903SOL    HW143431   3.234   9.582   9.671 -1.4570  0.9323 -0.5454
13903SOL    HW243432   3.190   9.518   9.541  0.4405 -2.0943  0.1940
13904SOL     OW43433   7.924   9.419   4.046 -0.1843 -0.6313  0.4544
13904SOL    HW143434   7.996   9.476   4.018 -0.3333 -0.3164  0.7032
13904SOL    HW243435   7.865   9.477   4.094 -0.7922 -0.8062 -0.0557
13905SOL     OW43436   1.153   1.376   7.940  0.3617 -0.3065 -0.2944
13905SOL    HW143437   1.081   1.390   8.001  0.2043 -0.8264 -0.3572
13905SOL    HW243438   1.202   1.459   7.941 -0.4082  0.1613 -0.4814
13906SOL     OW43439   0.851   1.163   5.715 -0.1284  0.7386  0.7069
13906SOL    HW143440   0.939   1.175   5.751  0.8889 -1.7238 -0.6433
13906SOL    HW243441   0.861   1.181   5.621 -0.7477 -0.6690  0.3409
13907SOL     OW43442   3.212   6.050   1.715 -0.5173  0.4361  0.1875
13907SOL    HW143443   3.307   6.065   1.718  0.0465 -2.5031  0.3096
13907SOL    HW243444   3.187   6.037   1.807 -0.7720 -0.0641  0.0522
13908SOL     OW43445   5.559   0.934   1.323 -0.0355 -0.1921 -0.4056
13908SOL    HW143446   5.606   0.855   1.348  0.1004 -0.1359 -0.4840
13908SOL    HW243447   5.618   0.981   1.265 -0.5573 -0.5848 -1.2675
13909SOL     OW43448   7.917   8.157   3.427 -0.2438 -0.1231 -0.1740
13909SOL    HW143449   7.867   8.080   3.399 -0.8625  0.3561 -0.4288
13909SOL    HW243450   7.985   8.167   3.361 -1.2125  0.5372 -1.1061
13910SOL     OW43451   1.627   1.316   3.917  0.2641  0.3555 -0.5561
13910SOL    HW143452   1.584   1.358   3.991 -0.4507 -1.3880  0.0687
13910SOL    HW243453   1.662   1.389   3.865 -0.8175  1.6898  0.5051
13911SOL     OW43454   7.701   5.448   8.921 -0.1088  0.0017 -0.1244
13911SOL    HW143455   7.769   5.492   8.973  0.3387 -1.1125  0.2634
13911SOL    HW243456   7.723   5.355   8.926 -0.3198 -0.1906 -1.9367
13912SOL     OW43457   3.173   0.080   7.009 -0.0838 -0.1573  0.4477
13912SOL    HW143458   3.218   0.154   7.051  0.7923 -0.0638 -0.6197
13912SOL    HW243459   3.243   0.020   6.985 -0.4160  0.2942 -1.8683
13913SOL     OW43460   4.413   3.854   6.800  0.4969 -0.3146 -0.0564
13913SOL    HW143461   4.378   3.790   6.738  1.0589 -1.7939  1.0871
13913SOL    HW243462   4.338   3.908   6.824 -0.2346 -1.2130 -0.2711
13914SOL     OW43463   6.401   1.130   1.634  0.0813 -0.4864 -0.0809
13914SOL    HW143464   6.460   1.165   1.701 -0.7535 -1.3828  1.1767
13914SOL    HW243465   6.391   1.201   1.570 -0.3770  1.0038  1.5774
13915SOL     OW43466   0.879   2.403   3.779 -0.5734 -0.6577 -0.0286
13915SOL    HW143467   0.859   2.489   3.741 -1.7186 -0.0178  1.8586
13915SOL    HW243468   0.813   2.344   3.743 -0.4463 -0.5126 -0.5065
13916SOL     OW43469   4.694   2.436   2.586 -0.1879  0.0400  0.3212
13916SOL    HW143470   4.760   2.500   2.558 -0.8913  0.7117  0.1891
13916SOL    HW243471   4.720   2.355   2.540 -0.6721  0.8329 -1.4588
13917SOL     OW43472   4.853   6.488   7.818 -0.1266  0.1927 -0.4342
13917SOL    HW143473   4.822   6.427   7.885 -0.0340  1.5998  0.9360
13917SOL    HW243474   4.790   6.480   7.747 -0.1085 -1.4885 -0.2952
13918SOL     OW43475   7.273   8.997   4.369 -0.1627  0.0817  0.2543
13918SOL    HW143476   7.272   9.075   4.314 -0.1478 -0.0737  0.0299
13918SOL    HW243477   7.277   9.030   4.458  2.3825  0.3467  0.1274
13919SOL     OW43478   6.639   3.570   6.774 -0.2798 -0.0388 -0.1246
13919SOL    HW143479   6.580   3.636   6.737  1.4921  1.4308 -0.4773
13919SOL    HW243480   6.698   3.548   6.701  1.2340  0.5021  0.8969
13920SOL     OW43481   0.961   6.280   2.988  0.3378  0.0233  0.0084
13920SOL    HW143482   1.024   6.353   2.992 -0.0231  0.5552 -2.5853
13920SOL    HW243483   0.876   6.323   2.980 -0.1828 -0.7145  1.3260
13921SOL     OW43484   3.445   5.421   4.604  0.0966 -0.6714  0.2395
13921SOL    HW143485   3.507   5.494   4.606  0.2942 -0.7981 -0.8255
13921SOL    HW243486   3.470   5.367   4.679  1.3932 -0.7942 -0.2558
13922SOL     OW43487   1.463   9.469   6.933  0.0492 -0.2703  0.3244
13922SOL    HW143488   1.400   9.482   7.004 -0.2120 -1.4921  0.3498
13922SOL    HW243489   1.409   9.464   6.854  0.1114 -1.1752  0.3290
13923SOL     OW43490   6.039   6.844   6.834  0.0425 -0.0500 -0.4682
13923SOL    HW143491   6.056   6.929   6.794  1.4816 -0.0706  0.0357
13923SOL    HW243492   5.983   6.864   6.909  0.2011  0.4365 -0.4738
13924SOL     OW43493   1.054   7.807   3.991  0.0257 -0.2027 -0.5556
13924SOL    HW143494   1.072   7.865   4.065  0.8527 -1.2929  0.1463
13924SOL    HW243495   0.966   7.774   4.007  1.2425 -2.8046  1.7269
13925SOL     OW43496   1.433   5.376   0.709  0.1177 -0.4816 -0.4654
13925SOL    HW143497   1.515   5.343   0.671  0.3408 -1.1433  0.5557
13925SOL    HW243498   1.450   5.467   0.729  0.1566 -0.2524 -1.4842
13926SOL     OW43499   5.003   9.390   6.379 -0.0742  0.4291  0.5154
13926SOL    HW143500   4.937   9.437   6.429 -1.6837 -0.9543 -0.2056
13926SOL    HW243501   4.955   9.350   6.306  1.3440 -1.4830  0.5259
13927SOL     OW43502   3.346   6.930   7.209  0.0512 -0.1068  0.0890
13927SOL    HW143503   3.272   6.985   7.235 -0.5020 -1.6227  1.9561
13927SOL    HW243504   3.422   6.973   7.249  0.0511  0.8054 -0.8396
13928SOL     OW43505   0.804   6.424   8.830 -0.2679 -0.7856  0.2184
13928SOL    HW143506   0.829   6.513   8.857  1.7606 -0.6871 -1.6886
13928SOL    HW243507   0.852   6.367   8.889 -1.4933 -0.6791  1.3799
13929SOL     OW43508   3.323   6.627   5.468  0.1895 -0.0821  0.8277
13929SOL    HW143509   3.389   6.640   5.536  0.0596  0.0769  0.9266
13929SOL    HW243510   3.371   6.625   5.386  0.1730  1.5957  0.7417
13930SOL     OW43511   7.502   4.300   2.848 -0.3664  1.1654  0.3235
13930SOL    HW143512   7.414   4.264   2.834 -0.7451  2.1304  0.1248
13930SOL    HW243513   7.518   4.288   2.941 -0.5822  0.6927  0.3002
13931SOL     OW43514   8.810   4.334   4.687 -0.0286 -0.1265 -0.1270
13931SOL    HW143515   8.865   4.404   4.652 -0.3248 -0.6254 -1.6838
13931SOL    HW243516   8.843   4.254   4.645 -0.9668 -0.6353  0.0643
13932SOL     OW43517   4.622   4.724   6.282  0.1593  0.2669 -0.2636
13932SOL    HW143518   4.564   4.648   6.284  0.0974  0.2888 -0.9219
13932SOL    HW243519   4.567   4.796   6.315 -0.6665  0.5828 -2.2050
13933SOL     OW43520   9.704   8.814   4.267  0.4337  0.2950 -0.0170
13933SOL    HW143521   9.678   8.905   4.281 -1.5656  0.1473 -2.0142
13933SOL    HW243522   9.731   8.811   4.175 -0.7633 -1.3373 -0.3675
13934SOL     OW43523   0.069   8.238   1.137  0.1566 -0.1368  0.1629
13934SOL    HW143524   0.106   8.327   1.138 -1.5566  0.6167 -0.3349
13934SOL    HW243525  -0.022   8.250   1.113  0.0810 -2.1349 -0.7321
13935SOL     OW43526   2.045   8.345   3.307  0.6155  0.0216  0.1286
13935SOL    HW143527   1.987   8.354   3.231 -2.2627 -2.3263  1.8301
13935SOL    HW243528   1.991   8.371   3.381  2.5501 -0.0785  1.6402
13936SOL     OW43529   4.251   6.435   0.080 -0.1183 -0.2292 -0.3891
13936SOL    HW143530   4.240   6.434   0.175 -2.2425 -0.9263 -0.5770
13936SOL    HW243531   4.198   6.509   0.051  0.1375 -0.3026 -1.0710
13937SOL     OW43532   2.185   5.688   7.287  0.0397  0.0067  0.1646
13937SOL    HW143533   2.164   5.725   7.373 -1.4982 -1.6180  0.5688
13937SOL    HW243534   2.271   5.723   7.266 -0.4234  2.0812  1.4153
13938SOL     OW43535   0.523   7.340   2.044 -0.7138 -0.0401  0.3885
13938SOL    HW143536   0.508   7.396   1.968 -1.2770  0.7173  1.0405
13938SOL    HW243537   0.484   7.388   2.117  0.2670 -0.5086  1.2490
13939SOL     OW43538   0.995   8.059   1.886  0.2384  0.5594  0.8156
13939SOL    HW143539   0.947   8.119   1.829  0.8863 -0.4571 -0.9056
13939SOL    HW243540   0.944   7.978   1.884  0.6736  0.2719  1.0571
13940SOL     OW43541   7.641   4.874   5.896  0.2680 -0.7768  0.0711
13940SOL    HW143542   7.687   4.958   5.902 -0.9540 -0.0133 -0.9323
13940SOL    HW243543   7.709   4.808   5.912  1.3817  0.3720  0.1873
13941SOL     OW43544   1.146   7.062   4.591  0.5416 -0.4539  0.1586
13941SOL    HW143545   1.122   7.151   4.619 -0.8009 -0.8721  0.3997
13941SOL    HW243546   1.230   7.046   4.635  0.2825  0.3044  0.9797
13942SOL     OW43547   6.552   8.394   7.943 -0.0234  0.2464 -0.0559
13942SOL    HW143548   6.545   8.488   7.925  3.1974  1.1359  2.4208
13942SOL    HW243549   6.570   8.354   7.858  0.4872  2.1456 -0.8930
13943SOL     OW43550   1.686   6.876   3.769 -0.1691  0.1929  0.5545
13943SOL    HW143551   1.751   6.854   3.836 -0.5056 -1.9859  0.2632
13943SOL    HW243552   1.602   6.864   3.813 -0.3859 -0.7689 -0.0907
13944SOL     OW43553   0.359   1.244   3.024  0.4475 -0.3553  0.1229
13944SOL    HW143554   0.312   1.183   3.080 -0.0467 -1.0771 -1.0383
13944SOL    HW243555   0.434   1.194   2.992  0.7244  0.0471  0.1374
13945SOL     OW43556   1.739   6.106   0.448  0.4898  0.6119  0.1189
13945SOL    HW143557   1.781   6.160   0.381  0.4589 -0.0907 -0.4816
13945SOL    HW243558   1.804   6.099   0.518 -0.2090  3.0113  1.1015
13946SOL     OW43559   6.605   6.149   3.995 -0.1503  0.2753  0.4124
13946SOL    HW143560   6.553   6.230   3.995  1.2220  1.2091 -0.3676
13946SOL    HW243561   6.679   6.168   4.052  0.3955 -0.2765 -0.0844
13947SOL     OW43562   8.110   3.831   1.977  0.6146  0.0509 -0.5507
13947SOL    HW143563   8.063   3.773   1.918 -1.9131  0.3985  0.9796
13947SOL    HW243564   8.072   3.917   1.962  0.6739  0.3363  0.7704
13948SOL     OW43565   1.594   2.576   7.232 -1.2619 -0.4077 -0.2253
13948SOL    HW143566   1.641   2.639   7.288 -0.5908  0.7893 -2.0424
13948SOL    HW243567   1.650   2.498   7.232 -0.1967  0.3209 -0.8311
13949SOL     OW43568   9.290   7.820   8.335  0.2828 -0.5466  0.4181
13949SOL    HW143569   9.302   7.791   8.425 -1.2428  0.7514  1.0862
13949SOL    HW243570   9.297   7.740   8.283 -1.6719 -1.8284  1.9763
13950SOL     OW43571   3.501   0.356   3.386  0.4936 -0.0661 -0.0719
13950SOL    HW143572   3.537   0.345   3.298 -0.1229 -1.9624 -0.1239
13950SOL    HW243573   3.577   0.379   3.440  1.0679  0.0173 -0.8917
13951SOL     OW43574   5.847   2.344   9.258 -0.0187  0.1042 -0.3154
13951SOL    HW143575   5.780   2.284   9.225 -0.3823  0.2341  0.1700
13951SOL    HW243576   5.829   2.427   9.213  0.5954 -0.1873 -1.1199
13952SOL     OW43577   5.208   0.787   0.211  0.0751 -0.5258  0.0830
13952SOL    HW143578   5.152   0.722   0.169  0.3250 -0.3896 -0.4774
13952SOL    HW243579   5.204   0.766   0.305 -0.9679 -0.4577  0.0589
13953SOL     OW43580   3.956   1.900   8.509 -0.0143  0.0058 -0.1629
13953SOL    HW143581   4.033   1.883   8.564 -1.6880  0.3491  2.4810
13953SOL    HW243582   3.992   1.924   8.424  2.7324 -2.1003  0.2459
13954SOL     OW43583   2.862   1.690   2.029 -0.5127  0.3291 -0.0512
13954SOL    HW143584   2.884   1.716   1.940 -0.7603 -0.2072 -0.2725
13954SOL    HW243585   2.793   1.752   2.055 -0.8152  0.1525 -0.4252
13955SOL     OW43586   4.851   3.705   8.388  0.3928  0.2091  0.4622
13955SOL    HW143587   4.860   3.799   8.374 -0.6161  0.1700 -0.5652
13955SOL    HW243588   4.840   3.668   8.300 -0.6297 -0.6967  0.9434
13956SOL     OW43589   4.531   8.862   4.424  0.0655  0.2944 -0.0528
13956SOL    HW143590   4.473   8.889   4.353 -0.7440 -1.3851 -0.0778
13956SOL    HW243591   4.507   8.771   4.441 -0.1321  0.7775  2.7385
13957SOL     OW43592   5.347   3.534   4.383 -0.1625 -0.3173  0.4297
13957SOL    HW143593   5.428   3.483   4.396 -0.4294 -0.8275  0.1116
13957SOL    HW243594   5.282   3.469   4.358  0.2789  0.5307 -3.6015
13958SOL     OW43595   3.195   1.691   7.670 -0.4815  0.0545 -0.0503
13958SOL    HW143596   3.198   1.739   7.753  2.1143  0.0805 -0.0898
13958SOL    HW243597   3.283   1.699   7.634 -1.4942 -0.0750 -2.7787
13959SOL     OW43598   6.446   6.725   3.524  0.1143  0.2136 -0.0175
13959SOL    HW143599   6.524   6.738   3.471  0.4727 -0.0602  0.4366
13959SOL    HW243600   6.376   6.769   3.475  0.5344  0.3948 -0.4617
13960SOL     OW43601   5.390   4.736   8.789  0.3052  0.1184 -0.3142
13960SOL    HW143602   5.467   4.696   8.748  0.5772 -0.1268  0.4341
13960SOL    HW243603   5.316   4.701   8.740  0.5549 -1.0901  0.1485
13961SOL     OW43604   4.401   4.885   2.563  0.0757 -0.5451  0.2431
13961SOL    HW143605   4.356   4.953   2.613  1.1497  0.4126 -0.0368
13961SOL    HW243606   4.340   4.861   2.494 -0.4232 -0.0373  0.5020
13962SOL     OW43607   6.413   0.848   1.431  0.1761 -0.1910 -0.2981
13962SOL    HW143608   6.407   0.756   1.405  0.5395  0.1700 -1.7720
13962SOL    HW243609   6.415   0.896   1.348  1.4301  1.0619  0.4176
13963SOL     OW43610   1.340   2.969   1.357 -0.9272  0.3740  0.2205
13963SOL    HW143611   1.269   2.919   1.318 -1.8655  0.7771  1.3604
13963SOL    HW243612   1.368   3.029   1.287  0.5029 -1.9259 -1.3169
13964SOL     OW43613   8.283   4.785   8.935  0.2021 -0.3284 -0.0862
13964SOL    HW143614   8.275   4.880   8.926  0.4664 -0.3445 -0.5211
13964SOL    HW243615   8.348   4.760   8.870 -1.1730 -1.0385 -1.2431
13965SOL     OW43616   0.538   3.679   8.133 -0.0221 -0.2238  0.2724
13965SOL    HW143617   0.596   3.604   8.141  2.0389  1.0969 -1.0647
13965SOL    HW243618   0.597   3.755   8.129 -1.8387  1.2384 -0.9656
13966SOL     OW43619   0.226   5.946   1.980  0.7161 -0.1067  0.1532
13966SOL    HW143620   0.284   6.013   1.945  1.3007  0.4984  2.1321
13966SOL    HW243621   0.258   5.864   1.943  1.6735  0.4255 -0.2297
13967SOL     OW43622   4.910   8.499   2.827 -0.0874  0.1246 -0.4470
13967SOL    HW143623   4.885   8.456   2.745  1.3052 -0.0360 -0.8116
13967SOL    HW243624   4.952   8.431   2.878  2.6812  1.0671 -1.2647
13968SOL     OW43625   7.741   0.797   8.106  0.1347  0.7082  0.3007
13968SOL    HW143626   7.668   0.743   8.076  0.6417  0.0526  0.2266
13968SOL    HW243627   7.702   0.883   8.122 -0.8178  0.1397  1.0987
13969SOL     OW43628   4.324   2.554   0.799  0.1218 -0.3463  0.0423
13969SOL    HW143629   4.239   2.533   0.761 -0.8500  0.6610  1.5450
13969SOL    HW243630   4.358   2.626   0.746  0.4554 -1.2985 -1.0765
13970SOL     OW43631   7.431   5.319   0.944 -1.3852  0.0721  0.5143
13970SOL    HW143632   7.451   5.409   0.920 -0.1842  0.1880  1.8416
13970SOL    HW243633   7.460   5.311   1.035 -0.0992 -2.0605 -0.0171
13971SOL     OW43634   0.169   3.737   6.354  0.1352 -0.1090 -0.4749
13971SOL    HW143635   0.152   3.829   6.375  0.7527 -0.0737 -0.1030
13971SOL    HW243636   0.160   3.692   6.438 -2.6399 -0.8028 -1.0320
13972SOL     OW43637   2.497   5.792   8.862 -0.4539 -0.2587 -0.3103
13972SOL    HW143638   2.447   5.763   8.939 -1.6086 -2.4953 -1.7846
13972SOL    HW243639   2.581   5.822   8.897 -0.2086 -2.9699  1.7078
13973SOL     OW43640   2.324   6.139   6.092  0.6385 -0.2999  0.5449
13973SOL    HW143641   2.278   6.185   6.022 -0.1694  0.9114  1.8184
13973SOL    HW243642   2.411   6.120   6.055  0.9085  2.0022 -0.1553
13974SOL     OW43643   4.983   3.430   5.203  0.2007 -0.4324  0.6514
13974SOL    HW143644   5.017   3.518   5.219  1.0548 -0.8421  1.1868
13974SOL    HW243645   4.896   3.430   5.242  0.6872 -0.1910  1.7835
13975SOL     OW43646   2.064   1.230   6.157 -0.2969  0.4712 -0.2179
13975SOL    HW143647   1.984   1.178   6.164  0.0755 -0.0306  0.4498
13975SOL    HW243648   2.049   1.305   6.215 -0.4643  0.6095 -0.4424
13976SOL     OW43649   6.207   7.328   2.890  0.3617 -0.3525 -0.1732
13976SOL    HW143650   6.241   7.396   2.833  2.3311 -1.0436  0.0933
13976SOL    HW243651   6.194   7.252   2.833  0.6443 -0.5141 -0.0267
13977SOL     OW43652   4.693   2.845   0.456 -0.2902 -0.3492  0.1193
13977SOL    HW143653   4.763   2.896   0.415  0.0627 -0.6421  0.3519
13977SOL    HW243654   4.733   2.808   0.535 -1.3629  1.3803  1.5311
13978SOL     OW43655   5.067   4.990   3.141 -0.0186 -0.2213 -0.2316
13978SOL    HW143656   5.032   4.971   3.053  1.5658 -0.0147 -0.9377
13978SOL    HW243657   5.082   5.085   3.140  0.6030 -0.3191  0.0443
13979SOL     OW43658   2.938   8.453   8.604 -0.1607 -0.0402 -0.1241
13979SOL    HW143659   2.994   8.526   8.577  2.3301 -1.0204  1.9895
13979SOL    HW243660   2.900   8.421   8.522  1.8523  1.1084 -1.6093
13980SOL     OW43661   4.474   1.393   4.271 -0.1514  0.1953 -0.3810
13980SOL    HW143662   4.490   1.308   4.229 -1.7913 -1.2848  1.7297
13980SOL    HW243663   4.560   1.424   4.297  0.8511  0.7795 -3.8555
13981SOL     OW43664   5.173   3.960   0.106  0.5940 -0.2570 -0.2114
13981SOL    HW143665   5.094   3.960   0.051  0.6998  0.3115 -0.3690
13981SOL    HW243666   5.154   3.896   0.175  0.0706 -0.2598 -0.3520
13982SOL     OW43667   9.697   9.552   7.573 -0.0435 -0.1425  0.1707
13982SOL    HW143668   9.696   9.566   7.478  1.3835 -0.8498  0.0291
13982SOL    HW243669   9.706   9.457   7.583  3.5829  0.1412  0.9283
13983SOL     OW43670   9.269   7.548   1.652 -0.4346  0.5831  0.4875
13983SOL    HW143671   9.250   7.564   1.745  0.3917  0.9225  0.6067
13983SOL    HW243672   9.225   7.466   1.633 -0.4045  0.3785  1.2513
13984SOL     OW43673   0.261   4.508   2.791  0.0476  0.4437 -0.1505
13984SOL    HW143674   0.278   4.596   2.825 -0.0394  0.7143 -0.7942
13984SOL    HW243675   0.208   4.466   2.860 -1.9531  1.6934 -0.8276
13985SOL     OW43676   4.345   2.048   5.330  0.3673 -0.2647  0.3906
13985SOL    HW143677   4.397   1.978   5.290 -0.1699 -0.1117 -0.6175
13985SOL    HW243678   4.397   2.127   5.317 -0.4276  0.0197 -1.3322
13986SOL     OW43679   6.014   2.592   5.548  0.2113 -0.3051 -0.3505
13986SOL    HW143680   6.065   2.660   5.505  2.7541 -2.6284 -1.3078
13986SOL    HW243681   5.952   2.563   5.481  0.6321 -0.3920 -0.7116
13987SOL     OW43682   4.970   6.141   4.191 -0.1781  0.1975  0.3498
13987SOL    HW143683   4.879   6.130   4.163 -0.2662 -0.8626  0.9805
13987SOL    HW243684   4.970   6.221   4.243 -0.3216  1.3229 -1.2889
13988SOL     OW43685   8.606   0.316   4.599  0.7839  0.9633 -0.1458
13988SOL    HW143686   8.628   0.402   4.633 -1.5040  2.7658 -2.7837
13988SOL    HW243687   8.517   0.298   4.631 -0.7530  1.9725 -3.4250
13989SOL     OW43688   7.123   7.900   9.009  0.1973  0.6026 -0.3466
13989SOL    HW143689   7.075   7.863   8.934  1.1459 -0.8242 -0.2957
13989SOL    HW243690   7.055   7.916   9.075 -0.7692  2.5816 -1.7096
13990SOL     OW43691   2.432   5.710   6.836  0.4381  0.6407  0.0139
13990SOL    HW143692   2.433   5.699   6.741 -1.7315  1.1059 -0.1111
13990SOL    HW243693   2.500   5.651   6.868  1.6989  1.0006 -1.8641
13991SOL     OW43694   6.286   2.481   7.961  0.4440 -0.7642 -0.8338
13991SOL    HW143695   6.378   2.466   7.981  0.2359 -1.5299 -0.4215
13991SOL    HW243696   6.262   2.555   8.017  0.5296 -1.2762 -0.0990
13992SOL     OW43697   1.000   4.230   6.136  0.0809  0.4805 -0.0484
13992SOL    HW143698   1.084   4.215   6.180 -0.5607  1.9176  1.7961
13992SOL    HW243699   0.934   4.205   6.200 -0.8954  2.6395 -0.1208
13993SOL     OW43700   4.724   3.948   5.967 -0.3821  0.3345  0.1002
13993SOL    HW143701   4.736   3.855   5.947 -0.7757 -0.1045  1.7295
13993SOL    HW243702   4.661   3.949   6.039 -1.3719  1.9492 -0.7267
13994SOL     OW43703   0.343   5.727   6.729  0.6411  0.1777 -0.4297
13994SOL    HW143704   0.426   5.769   6.707  1.1529 -0.7539 -0.3408
13994SOL    HW243705   0.345   5.643   6.683 -0.7125  0.5623 -1.2535
13995SOL     OW43706   8.801   8.550   6.743 -0.2552  0.0962 -0.4454
13995SOL    HW143707   8.728   8.488   6.740  0.5137 -0.9347  0.9596
13995SOL    HW243708   8.769   8.627   6.697 -1.7602 -0.8124 -0.9845
13996SOL     OW43709   5.625   7.904   1.761  0.1286 -0.0192 -0.4146
13996SOL    HW143710   5.609   7.858   1.678  0.5315 -0.8143 -0.0570
13996SOL    HW243711   5.538   7.916   1.798  0.0378 -0.9220 -0.2983
13997SOL     OW43712   7.690   0.052   2.550 -0.3874 -0.0405 -0.0428
13997SOL    HW143713   7.639   0.132   2.534  1.3500  1.4775  1.4514
13997SOL    HW243714   7.632  -0.003   2.603 -0.4533  1.8413  2.0254
13998SOL     OW43715   8.993   4.379   3.163 -0.1410  0.0972  0.0419
13998SOL    HW143716   9.076   4.426   3.163  0.9480 -1.6027  2.9995
13998SOL    HW243717   8.937   4.430   3.222 -1.3224  1.2648 -1.9742
13999SOL     OW43718   1.700   0.059   4.274  0.0166 -0.3471  0.1613
13999SOL    HW143719   1.632   0.122   4.248  1.6431  0.4743 -2.4802
13999SOL    HW243720   1.779   0.111   4.281  1.5339 -2.0361 -2.5952
14000SOL     OW43721   5.199   1.137   0.741 -0.2494 -0.5922  0.8583
14000SOL    HW143722   5.255   1.205   0.778  0.1653 -0.4551 -0.0171
14000SOL    HW243723   5.181   1.167   0.652  1.1023 -2.3068 -0.0407
14001SOL     OW43724   7.268   6.302   6.389 -0.3369  0.0042  0.5417
14001SOL    HW143725   7.210   6.283   6.315 -1.5895  0.0293  1.4998
14001SOL    HW243726   7.221   6.367   6.441  1.4062  1.5207  0.3377
14002SOL     OW43727   6.113   2.351   1.528 -0.0428  0.0499  0.5982
14002SOL    HW143728   6.064   2.342   1.610 -0.4419 -0.6623  0.2972
14002SOL    HW243729   6.195   2.392   1.553  0.4208 -1.4007  1.5909
14003SOL     OW43730   1.573   7.043   2.948 -0.0977 -0.3321 -0.3033
14003SOL    HW143731   1.489   7.027   2.990  0.8844 -1.8086  1.2487
14003SOL    HW243732   1.588   6.966   2.893  0.2115 -0.0522 -0.6182
14004SOL     OW43733   6.957   5.483   2.359  0.2513  0.9495 -0.3642
14004SOL    HW143734   6.890   5.450   2.418  1.2184  0.4128  0.4596
14004SOL    HW243735   6.927   5.570   2.335 -0.1848  1.1686  0.9022
14005SOL     OW43736   3.014   3.945   5.649 -0.0266  0.0063 -0.0906
14005SOL    HW143737   2.982   3.862   5.614 -0.7624  0.9639 -1.8048
14005SOL    HW243738   3.109   3.942   5.634 -0.1687 -0.1433 -1.0387
14006SOL     OW43739   2.566   7.116   4.652  0.5985 -0.8346  0.1003
14006SOL    HW143740   2.497   7.069   4.699 -0.0433 -1.5746 -1.4988
14006SOL    HW243741   2.536   7.207   4.650 -1.1265 -1.3777 -1.8204
14007SOL     OW43742   5.499   0.472   0.252 -0.5466  1.2911  0.3991
14007SOL    HW143743   5.506   0.563   0.281 -0.1902  0.7540  2.1383
14007SOL    HW243744   5.577   0.458   0.198 -0.3225  1.8656  0.5644
14008SOL     OW43745   4.341   1.837   2.226 -0.0920  0.6122  0.0083
14008SOL    HW143746   4.419   1.855   2.174  1.5119 -1.5119  1.4713
14008SOL    HW243747   4.287   1.781   2.170  0.5118  0.2676 -0.2387
14009SOL     OW43748   6.259   7.905   5.715 -0.0697 -1.3481 -0.0179
14009SOL    HW143749   6.178   7.930   5.671  0.5797  0.3590 -0.3000
14009SOL    HW243750   6.328   7.927   5.653  0.6775 -1.6934  0.6818
14010SOL     OW43751   1.053   6.659   3.680  0.4373  0.0054 -0.2207
14010SOL    HW143752   1.149   6.662   3.684  0.4833 -1.6069  0.9247
14010SOL    HW243753   1.034   6.573   3.642 -0.5688  0.3216 -0.4693
14011SOL     OW43754   9.235   5.357   1.880  0.4326 -0.0165 -0.2829
14011SOL    HW143755   9.233   5.350   1.784  1.9288 -0.7231 -0.2904
14011SOL    HW243756   9.310   5.304   1.906 -0.7811 -0.9875  1.4078
14012SOL     OW43757   8.522   4.890   8.112 -0.2322 -0.7165  0.1828
14012SOL    HW143758   8.534   4.798   8.091 -0.3521 -0.2515 -2.1969
14012SOL    HW243759   8.436   4.912   8.075 -0.6998  0.1183  1.6649
14013SOL     OW43760   7.428   1.892   4.222 -0.0082 -0.0129  0.2130
14013SOL    HW143761   7.359   1.911   4.158  0.3294 -0.5905 -0.3321
14013SOL    HW243762   7.508   1.925   4.180  0.1362  0.1020  0.5792
14014SOL     OW43763   9.690   4.043   7.188  0.4966  0.1382 -0.3939
14014SOL    HW143764   9.781   4.072   7.181  0.3519  0.8029  0.3895
14014SOL    HW243765   9.677   4.024   7.281 -0.7672  2.1752 -0.0746
14015SOL     OW43766   7.398   9.651   7.659  0.5773  0.5273 -0.2810
14015SOL    HW143767   7.483   9.638   7.701  1.0661 -1.0871 -1.6625
14015SOL    HW243768   7.409   9.618   7.570 -1.7965 -0.8508 -0.1610
14016SOL     OW43769   3.817   0.109   0.671 -0.2497 -0.5825 -0.4181
14016SOL    HW143770   3.873   0.140   0.600 -0.9093  0.0128 -0.6864
14016SOL    HW243771   3.732   0.093   0.630 -0.1339 -2.0592 -0.1328
14017SOL     OW43772   9.335   8.931   5.358  0.2150  0.0424  0.3296
14017SOL    HW143773   9.290   8.847   5.368 -0.8606  0.6185  0.5069
14017SOL    HW243774   9.427   8.908   5.344  0.2581 -1.1101  2.2128
14018SOL     OW43775   3.813   2.957   0.001  0.2428 -0.0833  0.1537
14018SOL    HW143776   3.863   3.038   0.010  0.6435 -0.3749  0.5074
14018SOL    HW243777   3.875   2.887   0.018  0.5510 -0.6107 -2.5736
14019SOL     OW43778   4.290   2.682   8.301  0.0905 -0.3772  0.4360
14019SOL    HW143779   4.246   2.632   8.370 -0.5246  0.3395  0.5767
14019SOL    HW243780   4.353   2.737   8.349 -2.8076  2.8283  0.9170
14020SOL     OW43781   1.746   8.834   7.339  0.4371 -0.3011  0.0046
14020SOL    HW143782   1.797   8.896   7.391  0.1489  0.1742 -0.2695
14020SOL    HW243783   1.681   8.799   7.401 -0.3360  0.7555 -0.1737
14021SOL     OW43784   2.289   0.504   1.503 -0.8249 -0.0335 -0.2106
14021SOL    HW143785   2.345   0.574   1.535  3.0335 -1.2778 -3.4103
14021SOL    HW243786   2.206   0.547   1.484 -0.1444  2.5832  2.1202
14022SOL     OW43787   4.307   4.495   2.941 -0.2526 -0.1734  0.1230
14022SOL    HW143788   4.246   4.542   2.885  1.5316  2.3164  0.1049
14022SOL    HW243789   4.303   4.541   3.025  1.6393  0.1449  0.0781
14023SOL     OW43790   3.332   1.925   2.455 -0.5795  0.1160  0.2933
14023SOL    HW143791   3.295   2.012   2.444  0.2104  0.4846  0.5137
14023SOL    HW243792   3.380   1.930   2.537 -0.0277 -0.3524  0.0010
14024SOL     OW43793   3.716   2.087   1.127  0.3155  0.7739 -0.1606
14024SOL    HW143794   3.695   2.125   1.042  1.2559 -0.4392 -0.9724
14024SOL    HW243795   3.684   2.151   1.191 -1.3972  1.2102 -1.3877
14025SOL     OW43796   2.360   3.587   2.368  0.0283  0.0170 -0.9173
14025SOL    HW143797   2.272   3.568   2.336 -0.6331  2.0629 -0.4720
14025SOL    HW243798   2.363   3.682   2.375  1.7537 -0.0849  0.5847
14026SOL     OW43799   9.376   2.796   4.558  0.1045  0.5244 -0.5164
14026SOL    HW143800   9.365   2.889   4.537 -1.9274 -0.1879 -3.1888
14026SOL    HW243801   9.427   2.761   4.485 -0.2356 -0.6628 -0.2062
14027SOL     OW43802   3.426   7.670   1.925  0.5060 -0.0138  0.0464
14027SOL    HW143803   3.331   7.676   1.928  0.5295  0.1161  0.7693
14027SOL    HW243804   3.448   7.676   1.832 -0.3314 -2.1694 -0.3637
14028SOL     OW43805   1.494   5.393   2.847  0.1566 -0.2428 -0.0138
14028SOL    HW143806   1.547   5.367   2.771 -0.0413  1.0771 -0.6321
14028SOL    HW243807   1.507   5.487   2.854 -2.0784  0.1376 -0.1689
14029SOL     OW43808   2.197   9.067   9.667 -0.7021 -0.2903 -0.6158
14029SOL    HW143809   2.152   9.028   9.742 -1.1005  1.9786  0.4258
14029SOL    HW243810   2.189   9.161   9.681  2.0464  0.2151 -1.8364
14030SOL     OW43811   9.572   8.533   1.311 -0.3537  0.9495 -0.3477
14030SOL    HW143812   9.569   8.454   1.256 -0.7781  0.6122  0.1453
14030SOL    HW243813   9.525   8.508   1.390  2.9556  0.2890  1.6446
14031SOL     OW43814   4.935   6.963   0.002  0.0164 -0.5788 -0.4587
14031SOL    HW143815   5.000   6.904   0.040  0.3837 -0.5107 -0.9751
14031SOL    HW243816   4.975   7.050   0.008 -1.3358 -0.0255  2.1722
14032SOL     OW43817   9.645   3.032   7.904 -0.1422  0.0341  0.1078
14032SOL    HW143818   9.632   2.949   7.950  2.2158  0.6235  2.0627
14032SOL    HW243819   9.683   3.008   7.820  3.7739 -0.9299  1.9349
14033SOL     OW43820   8.809   3.912   1.209  0.4225 -0.7079 -0.4932
14033SOL    HW143821   8.826   3.950   1.296  1.4620 -0.1728 -0.9131
14033SOL    HW243822   8.827   3.983   1.148 -3.0813 -0.1511 -1.0875
14034SOL     OW43823   0.641   8.140   1.126  0.3985 -0.0674  0.7370
14034SOL    HW143824   0.715   8.082   1.113 -0.7238 -1.3728 -0.1958
14034SOL    HW243825   0.667   8.223   1.085  0.4865 -1.2489 -1.8161
14035SOL     OW43826   4.912   4.819   0.909  0.4818  0.1108 -0.3734
14035SOL    HW143827   4.856   4.888   0.871 -0.2142  0.2336  0.8067
14035SOL    HW243828   4.996   4.862   0.924  0.1888  0.5999 -0.0726
14036SOL     OW43829   5.785   7.496   4.962  0.0239  0.1640  0.4903
14036SOL    HW143830   5.831   7.543   4.892 -0.1981  0.5481  0.5983
14036SOL    HW243831   5.702   7.470   4.923  1.8515 -4.1861 -1.0855
14037SOL     OW43832   0.162   5.158   3.094 -0.1027  0.3554  0.0590
14037SOL    HW143833   0.235   5.097   3.085 -0.5104 -0.0332 -0.7531
14037SOL    HW243834   0.139   5.154   3.186 -1.6845 -2.6266 -0.3555
14038SOL     OW43835   3.599   1.116   0.751 -0.7382 -0.5174  0.4788
14038SOL    HW143836   3.539   1.069   0.692  0.6088 -1.9082  0.1570
14038SOL    HW243837   3.641   1.047   0.802 -0.8977  0.5766  2.1710
14039SOL     OW43838   3.669   4.281   0.770  0.0921 -0.1458 -0.1880
14039SOL    HW143839   3.694   4.190   0.757 -0.8384 -0.4146 -0.1032
14039SOL    HW243840   3.731   4.331   0.716  0.1642 -0.8674 -0.7828
14040SOL     OW43841   6.033   0.367   6.344 -0.4267 -0.4438  0.1206
14040SOL    HW143842   5.964   0.356   6.279  1.1817 -1.3164 -1.5552
14040SOL    HW243843   6.032   0.460   6.365 -1.3476 -0.2423 -0.7635
14041SOL     OW43844   7.085   7.885   2.446 -0.3453 -0.3384 -0.2626
14041SOL    HW143845   7.108   7.800   2.408 -1.3099 -0.2739 -1.0395
14041SOL    HW243846   7.111   7.948   2.379 -1.4613 -0.1736 -0.5581
14042SOL     OW43847   8.911   7.161   8.429  0.0782  0.7919 -0.4828
14042SOL    HW143848   8.957   7.158   8.513  0.8675 -0.1384 -0.9329
14042SOL    HW243849   8.958   7.099   8.373 -0.4065  1.4190 -1.6310
14043SOL     OW43850   6.120   2.898   0.200 -0.4888 -0.4314  0.3169
14043SOL    HW143851   6.201   2.921   0.246 -0.9951  1.0753  0.5374
14043SOL    HW243852   6.058   2.968   0.225 -0.9492  0.1318 -2.1847
14044SOL     OW43853   6.413   2.375   9.304  0.6005  0.1921 -0.2405
14044SOL    HW143854   6.361   2.437   9.252  0.0468  2.1052  2.3473
14044SOL    HW243855   6.352   2.305   9.326 -0.5682  1.6440  1.4682
14045SOL     OW43856   0.897   4.021   6.337 -0.1708  0.3739  0.2703
14045SOL    HW143857   0.941   3.936   6.337  1.6918  1.2958  0.4137
14045SOL    HW243858   0.804   4.000   6.343  0.2586 -1.6423  0.4221
14046SOL     OW43859   8.374   7.948   4.473  0.1475  0.2900 -0.0856
14046SOL    HW143860   8.379   7.883   4.543  0.8114 -2.3256 -2.3644
14046SOL    HW243861   8.463   7.984   4.468 -0.3547  1.9045  1.5412
14047SOL     OW43862   7.171   7.740   0.204  0.1339  0.5757 -0.3253
14047SOL    HW143863   7.080   7.734   0.231 -0.0329  1.4074 -0.6731
14047SOL    HW243864   7.185   7.664   0.147 -0.6301  0.9860 -1.0770
14048SOL     OW43865   4.506   5.496   7.403 -0.0815  0.5108  0.4869
14048SOL    HW143866   4.446   5.458   7.467 -0.3882 -0.1353 -0.1785
14048SOL    HW243867   4.560   5.423   7.374 -2.5426 -0.2011 -2.9478
14049SOL     OW43868   4.618   6.867   8.259 -0.2569  0.1900 -0.0796
14049SOL    HW143869   4.691   6.817   8.296 -0.9627 -0.4509  0.4716
14049SOL    HW243870   4.550   6.801   8.242  0.0843  0.4168 -2.7049
14050SOL     OW43871   9.164   2.639   3.740  0.9673 -0.4657 -0.2510
14050SOL    HW143872   9.198   2.690   3.813  1.8302  1.1306 -1.7064
14050SOL    HW243873   9.071   2.663   3.735  1.3917  1.1595 -1.0093
14051SOL     OW43874   7.397   4.831   2.183 -0.0392  0.0044 -0.0440
14051SOL    HW143875   7.491   4.832   2.165  0.5859 -3.9711  1.8619
14051SOL    HW243876   7.387   4.881   2.264  0.5583 -0.0315  0.0569
14052SOL     OW43877   0.630   3.537   1.459 -0.1203 -0.0403 -0.0848
14052SOL    HW143878   0.567   3.564   1.526  0.1913  0.0521  0.1743
14052SOL    HW243879   0.685   3.614   1.446  0.3770 -0.3466  0.2017
14053SOL     OW43880   3.940   5.454   8.175 -0.1172  0.1992  0.3674
14053SOL    HW143881   3.896   5.527   8.219  0.6001  0.9412 -0.1243
14053SOL    HW243882   4.024   5.446   8.221  0.2037  0.3092 -0.1918
14054SOL     OW43883   2.473   3.437   3.736 -0.3123  0.5118  0.2359
14054SOL    HW143884   2.514   3.522   3.722 -0.8764  0.6463 -0.6961
14054SOL    HW243885   2.417   3.425   3.659 -0.5310 -0.5275  0.5489
14055SOL     OW43886   0.433   1.829   0.201  0.3494 -0.6549  0.3593
14055SOL    HW143887   0.409   1.795   0.287 -0.4980  1.3123  0.9613
14055SOL    HW243888   0.521   1.866   0.214 -0.4007  1.0520  0.8554
14056SOL     OW43889   6.044   3.563   0.745  0.2818 -0.1993 -0.0352
14056SOL    HW143890   5.958   3.567   0.702 -0.1507 -1.6354  0.6578
14056SOL    HW243891   6.041   3.633   0.810 -0.1676  0.0770 -0.3417
14057SOL     OW43892   6.981   7.014   3.257 -0.2639  0.3526  0.3004
14057SOL    HW143893   6.903   7.045   3.211 -0.2553  0.1682  0.1596
14057SOL    HW243894   7.034   6.972   3.189 -1.4325 -2.2653  0.9010
14058SOL     OW43895   2.256   3.110   5.237 -0.5706 -0.2665  0.2480
14058SOL    HW143896   2.226   3.042   5.297  1.9683 -0.0688  1.8935
14058SOL    HW243897   2.346   3.087   5.217 -1.3307 -0.4618 -3.8812
14059SOL     OW43898   0.158   0.816   3.964  0.3033  0.3841 -0.1804
14059SOL    HW143899   0.066   0.791   3.953  0.5133 -0.0640 -0.9951
14059SOL    HW243900   0.155   0.899   4.012 -0.4795 -0.2527  0.9252
14060SOL     OW43901   1.658   3.188   0.426 -0.2313 -0.9468 -0.0468
14060SOL    HW143902   1.680   3.265   0.374 -3.3561  1.1189  1.3885
14060SOL    HW243903   1.615   3.128   0.364  1.2542 -1.1306 -0.9476
14061SOL     OW43904   9.016   3.913   3.236  0.2225  0.5817 -0.1735
14061SOL    HW143905   8.948   3.891   3.299 -0.7224 -1.1419 -1.6801
14061SOL    HW243906   8.974   3.974   3.175  0.3516  0.3722 -0.4790
14062SOL     OW43907   4.566   4.478   0.683  0.0174  0.3101 -0.3468
14062SOL    HW143908   4.587   4.411   0.748  0.1004 -1.3687 -2.0042
14062SOL    HW243909   4.649   4.519   0.663  0.1124  0.3211  0.0618
14063SOL     OW43910   6.424   2.761   0.542 -0.2466 -0.4388 -0.2546
14063SOL    HW143911   6.402   2.810   0.464 -1.6796  0.6331  0.7612
14063SOL    HW243912   6.484   2.817   0.590 -0.1738 -0.6352 -0.1133
14064SOL     OW43913   6.073   0.247   1.937 -0.1538 -0.5098 -0.5673
14064SOL    HW143914   5.996   0.302   1.917  0.5713  1.1929  1.0677
14064SOL    HW243915   6.065   0.227   2.030  4.0049  4.4609  1.3391
14065SOL     OW43916   8.752   4.872   8.619 -0.1860  0.0089  0.0266
14065SOL    HW143917   8.713   4.845   8.536 -0.3974 -0.2028  0.1942
14065SOL    HW243918   8.757   4.967   8.613  1.2354 -0.0943 -0.8656
14066SOL     OW43919   0.726   1.058   7.549  0.0732 -0.0994  0.4544
14066SOL    HW143920   0.728   0.996   7.622  1.3538 -0.9180 -0.2352
14066SOL    HW243921   0.641   1.043   7.507 -0.3738 -0.1123  1.3482
14067SOL     OW43922   6.094   2.893   5.318  0.2392  0.1751  0.3640
14067SOL    HW143923   6.007   2.856   5.329 -0.8415  2.6110  0.6206
14067SOL    HW243924   6.154   2.821   5.340 -1.6856 -1.0333  1.9873
14068SOL     OW43925   0.420   8.499   6.564  0.5762 -0.1718 -0.3624
14068SOL    HW143926   0.474   8.421   6.550  1.5446  0.3589  0.2508
14068SOL    HW243927   0.331   8.465   6.575  0.8195 -1.0976 -1.1228
14069SOL     OW43928   0.886   3.261   9.378 -0.0178  0.2400 -0.4113
14069SOL    HW143929   0.958   3.253   9.440  0.3311  0.7202 -0.7483
14069SOL    HW243930   0.875   3.355   9.365 -2.0866  0.2931  1.2304
14070SOL     OW43931   4.604   6.244   2.035 -0.5981  0.1117  0.4744
14070SOL    HW143932   4.618   6.212   1.946  0.2458  0.7555  0.3566
14070SOL    HW243933   4.636   6.335   2.033  0.1003 -0.0817  1.5953
14071SOL     OW43934   2.454   2.263   9.249 -0.4088 -0.3395 -0.2367
14071SOL    HW143935   2.530   2.321   9.249 -0.2877 -0.4586 -1.6071
14071SOL    HW243936   2.387   2.311   9.201 -0.2080 -1.4133 -1.6689
14072SOL     OW43937   5.893   8.730   0.660 -0.0748  0.1483  0.0903
14072SOL    HW143938   5.842   8.744   0.580  0.9294  0.2861 -0.5364
14072SOL    HW243939   5.857   8.649   0.697  0.3034 -0.6280 -1.1802
14073SOL     OW43940   3.199   0.087   2.896  0.1892 -0.1060 -0.1832
14073SOL    HW143941   3.176   0.108   2.986  0.5348  0.1794 -0.1582
14073SOL    HW243942   3.195  -0.008   2.891 -3.7521 -0.0590 -0.8943
14074SOL     OW43943   2.504   7.858   1.456 -0.0044  0.0154 -0.0996
14074SOL    HW143944   2.460   7.863   1.371 -0.7490  0.7079  0.3113
14074SOL    HW243945   2.551   7.941   1.464  3.0243 -1.4389 -1.3549
14075SOL     OW43946   2.011   3.007   2.810 -0.0339  0.6436  0.1088
14075SOL    HW143947   1.963   2.925   2.821 -1.1878  1.1009 -1.1527
14075SOL    HW243948   2.057   3.020   2.893 -1.7993 -0.0258  1.2545
14076SOL     OW43949   9.081   3.052   6.244 -0.4241  0.2870 -0.1651
14076SOL    HW143950   9.169   3.063   6.208 -1.0580  0.6321 -1.7033
14076SOL    HW243951   9.076   3.117   6.314  1.0058 -0.7221  0.9254
14077SOL     OW43952   2.436   9.069   6.144  0.5410 -0.6987 -0.0873
14077SOL    HW143953   2.444   9.049   6.051  0.0555 -0.7913 -0.1115
14077SOL    HW243954   2.518   9.112   6.167  0.0505  0.7374 -0.9114
14078SOL     OW43955   0.997   3.267   6.708 -0.4165 -0.0916  0.1601
14078SOL    HW143956   1.046   3.261   6.626 -1.6543  0.1384 -0.6206
14078SOL    HW243957   0.928   3.201   6.700 -0.0086 -0.7024  1.4180
14079SOL     OW43958   3.203   2.816   2.155 -0.0290  0.4219 -0.1902
14079SOL    HW143959   3.134   2.764   2.114  0.0575 -0.6287  0.9475
14079SOL    HW243960   3.279   2.758   2.157  0.2707  0.8245  0.4895
14080SOL     OW43961   4.123   8.584   3.548 -0.0894  0.6089  0.0158
14080SOL    HW143962   4.066   8.522   3.502  0.3795  0.5493 -0.4957
14080SOL    HW243963   4.150   8.538   3.627  0.1723  0.1935 -0.3100
14081SOL     OW43964   0.664   4.833   1.233 -0.3657  0.0569  0.1609
14081SOL    HW143965   0.635   4.898   1.297  0.8917 -1.1804  2.0825
14081SOL    HW243966   0.751   4.863   1.206 -1.0547  0.7966 -1.3506
14082SOL     OW43967   8.109   7.954   6.257  0.7671  0.2609  0.0968
14082SOL    HW143968   8.184   7.967   6.315  0.1803  1.6430  0.5841
14082SOL    HW243969   8.039   8.006   6.295  0.5711  1.8974 -2.2600
14083SOL     OW43970   9.186   8.283   2.192 -0.0593 -0.5367 -0.1814
14083SOL    HW143971   9.106   8.233   2.210  0.3433 -0.9500  0.4872
14083SOL    HW243972   9.184   8.354   2.256 -1.1379  0.9413 -1.7572
14084SOL     OW43973   8.173   2.106   3.801  0.6144 -0.2831  0.4483
14084SOL    HW143974   8.221   2.163   3.740  1.2927 -1.1830  0.1032
14084SOL    HW243975   8.116   2.165   3.850  1.7538  0.7766  0.5502
14085SOL     OW43976   3.420   1.346   4.850  0.1793  0.6223  0.2232
14085SOL    HW143977   3.422   1.400   4.771 -0.2009  1.1100  0.5409
14085SOL    HW243978   3.338   1.369   4.893  0.5285  0.6033  0.9237
14086SOL     OW43979   1.361   5.360   6.871 -0.0223  0.1465  0.1489
14086SOL    HW143980   1.437   5.416   6.888 -0.0306  0.5972 -1.1685
14086SOL    HW243981   1.285   5.417   6.886 -0.0607  0.1046  0.1157
14087SOL     OW43982   4.003   2.424   0.997  0.7335  0.3230  0.1463
14087SOL    HW143983   4.058   2.345   0.987 -0.3503 -0.6397  1.3559
14087SOL    HW243984   3.986   2.453   0.908  0.9483 -0.9808 -0.3484
14088SOL     OW43985   8.628   2.788   4.087 -0.4179  0.0701 -0.3007
14088SOL    HW143986   8.702   2.753   4.037 -0.1297 -3.0139  1.9886
14088SOL    HW243987   8.551   2.752   4.043 -0.2206 -1.6001  0.6444
14089SOL     OW43988   2.548   8.637   0.353 -0.1664  0.7763  0.1474
14089SOL    HW143989   2.563   8.710   0.293  0.6381  1.0535  0.6894
14089SOL    HW243990   2.454   8.621   0.347 -0.2290  1.3538 -0.5513
14090SOL     OW43991   3.833   7.575   6.115  0.1416 -0.2919  0.3220
14090SOL    HW143992   3.814   7.644   6.052  0.4070 -0.6496 -0.1521
14090SOL    HW243993   3.753   7.567   6.167  0.0188  0.1867  0.2050
14091SOL     OW43994   1.281   6.226   9.587  0.2927 -0.1846 -0.3102
14091SOL    HW143995   1.349   6.256   9.647 -1.3766  3.1160  0.2008
14091SOL    HW243996   1.283   6.131   9.592  2.0064 -0.0856  2.9114
14092SOL     OW43997   0.806   2.933   0.552  0.1483  0.3871  0.3142
14092SOL    HW143998   0.898   2.943   0.531  0.5454 -2.7721  0.0158
14092SOL    HW243999   0.805   2.867   0.622 -1.8581  0.6499  0.5934
14093SOL     OW44000   2.085   7.682   0.526  0.0408 -0.1302 -0.2867
14093SOL    HW144001   2.005   7.676   0.578  0.4841 -3.0753  0.1862
14093SOL    HW244002   2.092   7.775   0.504 -4.0236  0.1111 -1.2178
14094SOL     OW44003   9.453   2.537   2.711  0.1129  0.1477 -0.3650
14094SOL    HW144004   9.483   2.460   2.663 -0.4106  0.3633 -1.0491
14094SOL    HW244005   9.472   2.611   2.653  2.7756  0.8568  1.2120
14095SOL     OW44006   5.293   2.505   2.757 -0.7848  0.0520  0.1168
14095SOL    HW144007   5.210   2.551   2.764  0.0466  1.5988  0.2801
14095SOL    HW244008   5.283   2.428   2.813 -2.1348  0.1550  0.0405
14096SOL     OW44009   9.154   9.487   7.093 -0.3249  0.4429  0.2108
14096SOL    HW144010   9.104   9.488   7.174 -0.1618  0.4134  0.3108
14096SOL    HW244011   9.147   9.577   7.060  1.9682  1.2363  1.6973
14097SOL     OW44012   0.632   1.477   8.610 -0.3414 -0.4453 -0.7603
14097SOL    HW144013   0.630   1.525   8.527  1.6257  0.1721 -0.4918
14097SOL    HW244014   0.664   1.541   8.674 -0.3731 -1.3477  0.1858
14098SOL     OW44015   7.570   4.266   2.379 -0.0678 -0.0458 -0.0044
14098SOL    HW144016   7.611   4.352   2.366 -0.2477 -0.0018 -0.2791
14098SOL    HW244017   7.539   4.241   2.293  0.7301 -0.7739 -0.0938
14099SOL     OW44018   4.955   4.383   2.965  0.4971  0.9860 -0.2678
14099SOL    HW144019   4.930   4.313   3.025 -0.8562  1.0833 -0.6857
14099SOL    HW244020   5.048   4.367   2.947  0.6467  0.3395  1.0045
14100SOL     OW44021   4.466   2.857   2.387  0.4117  0.2848  0.2507
14100SOL    HW144022   4.376   2.837   2.414  0.8000  0.7135  2.0390
14100SOL    HW244023   4.462   2.947   2.356 -0.1662 -0.4173 -1.8838
14101SOL     OW44024   1.956   2.745   9.308 -0.0824 -0.1657  0.0154
14101SOL    HW144025   1.922   2.833   9.295 -1.1971 -0.8277 -2.0411
14101SOL    HW244026   2.046   2.757   9.337 -0.4130  1.6346  0.3639
14102SOL     OW44027   3.297   9.411   5.075  0.5503  0.0135  0.1945
14102SOL    HW144028   3.371   9.463   5.107  1.1693  0.3100 -1.5733
14102SOL    HW244029   3.326   9.377   4.990 -0.5989 -1.5872  0.3893
14103SOL     OW44030   7.028   5.091   1.030 -0.1608  0.7686 -0.6087
14103SOL    HW144031   7.002   5.004   1.000  0.7449 -0.1668  1.1752
14103SOL    HW244032   7.098   5.117   0.971  2.0786 -1.3290  0.9155
14104SOL     OW44033   2.231   6.558   3.355  0.6331  0.1685  0.0506
14104SOL    HW144034   2.161   6.531   3.414  2.0257  1.5468  2.4941
14104SOL    HW244035   2.219   6.652   3.345  2.1160  0.4545  0.6032
14105SOL     OW44036   4.214   2.288   5.111 -0.0749 -0.4587  0.1154
14105SOL    HW144037   4.133   2.250   5.147  0.0904  0.4116  1.4688
14105SOL    HW244038   4.208   2.272   5.017 -1.7959 -0.4866  0.1959
14106SOL     OW44039   6.825   6.185   4.152  0.0541 -0.3875  0.0116
14106SOL    HW144040   6.871   6.230   4.083 -1.6793 -0.9308 -1.5848
14106SOL    HW244041   6.871   6.101   4.162 -0.3057 -0.7435 -1.2397
14107SOL     OW44042   0.783   0.848   0.589  0.5553  0.2390 -0.0231
14107SOL    HW144043   0.828   0.764   0.574  1.1242  0.4055  0.7015
14107SOL    HW244044   0.769   0.883   0.501  1.3812 -0.0705 -0.2865
14108SOL     OW44045   6.628   4.926   1.949  0.0229  0.4542  0.6626
14108SOL    HW144046   6.628   4.902   2.042 -1.6139  2.0603  1.1474
14108SOL    HW244047   6.720   4.941   1.928  0.3049  1.9601  2.6014
14109SOL     OW44048   9.457   0.961   9.372  0.2973  0.1653 -0.1723
14109SOL    HW144049   9.537   0.977   9.421  0.1809 -1.2045  0.4968
14109SOL    HW244050   9.468   0.874   9.334  1.1107  1.7930 -4.1081
14110SOL     OW44051   0.385   2.911   8.092  0.1131 -0.6383 -0.3994
14110SOL    HW144052   0.339   2.834   8.060 -0.2427 -0.2389 -0.8743
14110SOL    HW244053   0.477   2.885   8.094  0.2779 -0.4150 -2.6592
14111SOL     OW44054   1.847   7.188   1.204  0.0414  0.1940  0.4378
14111SOL    HW144055   1.861   7.132   1.127 -3.8491  0.0462 -0.3781
14111SOL    HW244056   1.808   7.130   1.269 -2.3049  1.4591  0.2581
14112SOL     OW44057   4.755   2.467   5.384 -0.1275 -0.3128 -0.5148
14112SOL    HW144058   4.840   2.507   5.399 -1.6477  2.8425  0.6752
14112SOL    HW244059   4.692   2.535   5.408 -3.0148 -2.6680 -0.7892
14113SOL     OW44060   7.626   0.301   6.375 -0.2252  0.1837  0.0960
14113SOL    HW144061   7.651   0.392   6.360 -0.1923  0.0751 -0.5225
14113SOL    HW244062   7.544   0.289   6.326  0.3537 -0.4242 -0.7408
14114SOL     OW44063   8.167   8.797   9.470  0.1150  0.1358  0.0769
14114SOL    HW144064   8.134   8.715   9.433  1.6691 -0.1682 -0.6886
14114SOL    HW244065   8.089   8.853   9.477 -0.7544 -0.9613 -0.5537
14115SOL     OW44066   0.361   2.638   0.357 -0.2808  0.0457 -0.0517
14115SOL    HW144067   0.404   2.695   0.292 -3.2012  1.5308 -0.8621
14115SOL    HW244068   0.355   2.553   0.314  0.2232  0.3018 -0.6438
14116SOL     OW44069   6.434   3.529   7.867 -0.4870  0.0386  0.3832
14116SOL    HW144070   6.397   3.480   7.941 -1.4763  0.6122  0.2908
14116SOL    HW244071   6.459   3.613   7.905  1.6622 -0.6533  0.6508
14117SOL     OW44072   3.640   8.058   5.531  0.1745 -0.0640 -0.0904
14117SOL    HW144073   3.646   7.996   5.604 -0.1390 -0.2836 -0.2471
14117SOL    HW244074   3.568   8.025   5.477  0.3997  0.1018 -0.4975
14118SOL     OW44075   6.709   1.385   1.156 -0.0833 -0.0166 -0.0929
14118SOL    HW144076   6.681   1.428   1.237  1.2764  0.2110  0.2764
14118SOL    HW244077   6.762   1.450   1.111  1.0968 -0.9125 -0.0468
14119SOL     OW44078   3.294   5.073   0.119 -0.2448 -0.6203  0.2791
14119SOL    HW144079   3.299   5.123   0.038  1.8937  0.6118  1.0804
14119SOL    HW244080   3.256   5.134   0.183  1.0801 -0.4287  0.9285
14120SOL     OW44081   5.291   2.627   4.890  0.8911 -0.0357  0.4393
14120SOL    HW144082   5.278   2.685   4.966  2.5915 -1.6516  2.0713
14120SOL    HW244083   5.346   2.678   4.830 -3.1116  2.5757 -1.4759
14121SOL     OW44084   1.125   4.673   3.683  0.6095 -0.0318 -0.1414
14121SOL    HW144085   1.124   4.671   3.587  3.3252  0.6782 -0.2580
14121SOL    HW244086   1.097   4.585   3.709  1.6384 -0.8612 -1.6751
14122SOL     OW44087   1.302   3.706   5.438 -0.4131 -0.8780 -0.2716
14122SOL    HW144088   1.340   3.785   5.401  2.1279 -0.9723  1.7880
14122SOL    HW244089   1.267   3.658   5.363 -1.0757  1.6532 -1.6837
14123SOL     OW44090   2.742   2.532   5.000 -0.2680 -0.3920 -0.1872
14123SOL    HW144091   2.702   2.526   5.087 -0.0778  0.4923 -0.0292
14123SOL    HW244092   2.835   2.547   5.017 -0.5902  2.4216 -0.4723
14124SOL     OW44093   7.399   1.178   0.870  0.3378  0.4535  0.2725
14124SOL    HW144094   7.411   1.100   0.816  0.3854 -0.6764  1.8275
14124SOL    HW244095   7.307   1.202   0.859  0.5627  0.7774 -0.9690
14125SOL     OW44096   6.901   3.561   7.084  0.4126  0.0986 -0.1082
14125SOL    HW144097   6.902   3.559   7.180 -0.6444 -1.3332 -0.0952
14125SOL    HW244098   6.945   3.480   7.058 -1.7643 -0.9543 -0.7476
14126SOL     OW44099   0.229   8.306   5.122 -0.4261  0.2478  0.5992
14126SOL    HW144100   0.257   8.396   5.139 -1.7638  0.6419  0.8571
14126SOL    HW244101   0.270   8.284   5.039  1.1998  0.5103  1.2820
14127SOL     OW44102   0.773   6.017   4.582  0.3797  0.2086 -0.3019
14127SOL    HW144103   0.831   6.093   4.588 -0.9836  1.4012 -1.4208
14127SOL    HW244104   0.740   6.005   4.671  0.1124  1.3668 -0.2257
14128SOL     OW44105   4.762   0.998   3.803 -0.3225  0.0719  0.4496
14128SOL    HW144106   4.732   0.927   3.746 -1.3933 -1.0520  2.2655
14128SOL    HW244107   4.690   1.061   3.803  0.7056  1.3195 -1.3079
14129SOL     OW44108   9.064   3.927   2.486  0.2318  0.0897  0.2398
14129SOL    HW144109   9.076   4.004   2.430  3.3545 -1.5499 -1.6753
14129SOL    HW244110   9.060   3.962   2.575 -0.4527  2.5386 -0.6693
14130SOL     OW44111   0.034   8.849   4.631 -0.4238  0.6895  0.0889
14130SOL    HW144112   0.011   8.815   4.545 -0.0621  1.2526 -0.2357
14130SOL    HW244113   0.126   8.825   4.642 -0.7064 -0.1744  0.7110
14131SOL     OW44114   5.299   8.594   7.306 -0.0475  0.0276 -0.0055
14131SOL    HW144115   5.294   8.531   7.234  0.9454 -1.1464  0.9100
14131SOL    HW244116   5.361   8.660   7.277 -0.7232  0.3462 -0.7757
14132SOL     OW44117   6.317   5.399   5.105 -0.1218 -0.1822 -0.3213
14132SOL    HW144118   6.328   5.319   5.157  2.6109  0.3516  0.0665
14132SOL    HW244119   6.282   5.463   5.168  2.2596  0.1911  0.7295
14133SOL     OW44120   2.286   6.913   6.919  0.6459 -0.5538  0.2439
14133SOL    HW144121   2.368   6.893   6.964  1.4649  0.5359 -0.7091
14133SOL    HW244122   2.296   6.875   6.833  0.9653  1.1465 -0.5227
14134SOL     OW44123   8.883   8.810   4.683  0.0332 -0.3570  0.2984
14134SOL    HW144124   8.880   8.903   4.663 -1.2648 -0.0721  1.6502
14134SOL    HW244125   8.969   8.797   4.723 -0.6121  0.7372  2.1404
14135SOL     OW44126   3.208   3.486   1.964 -0.1322  0.1648  0.2973
14135SOL    HW144127   3.276   3.422   1.985 -0.5308 -0.5065 -0.4136
14135SOL    HW244128   3.154   3.490   2.043 -0.1933 -0.5055  0.3018
14136SOL     OW44129   8.152   7.714   6.501  0.3984 -0.5214 -0.1743
14136SOL    HW144130   8.059   7.700   6.483 -0.1429  1.8010  0.4378
14136SOL    HW244131   8.174   7.794   6.453  1.6192 -0.0766  1.0526
14137SOL     OW44132   0.924   4.586   2.729  0.8029 -0.5443  0.7178
14137SOL    HW144133   0.842   4.570   2.775  0.7576  0.1044  0.8655
14137SOL    HW244134   0.949   4.500   2.694 -0.5237 -0.5493 -0.2984
14138SOL     OW44135   0.774   7.079   4.714  0.4033  0.1438 -0.3418
14138SOL    HW144136   0.718   7.069   4.637  0.5409  0.1993 -0.4487
14138SOL    HW244137   0.852   7.124   4.682  0.3820  0.3304 -0.1321
14139SOL     OW44138   9.492   6.503   9.654  0.0877  0.1354 -0.2951
14139SOL    HW144139   9.429   6.560   9.610 -0.1392  1.3634  1.5078
14139SOL    HW244140   9.552   6.564   9.698  0.9026 -1.0353  0.2535
14140SOL     OW44141   0.454   6.243   6.308 -0.3145 -0.5042 -0.5293
14140SOL    HW144142   0.386   6.310   6.303  0.6014  0.3504 -3.1842
14140SOL    HW244143   0.468   6.216   6.217  3.2433 -0.2396 -0.1891
14141SOL     OW44144   2.039   4.384   5.470 -0.9976  0.2374  0.0112
14141SOL    HW144145   2.005   4.457   5.419  0.7070  0.3273 -1.0666
14141SOL    HW244146   2.129   4.409   5.491 -0.5041 -1.3844 -0.0451
14142SOL     OW44147   1.135   2.849   0.654 -0.1291 -0.7405 -0.0652
14142SOL    HW144148   1.167   2.924   0.705 -1.8173  0.6097 -0.8987
14142SOL    HW244149   1.182   2.856   0.571 -0.5679 -0.3762 -0.2835
14143SOL     OW44150   2.586   9.153   3.920  0.2971  0.3140  0.1450
14143SOL    HW144151   2.652   9.216   3.892  0.4145  0.9370  1.7518
14143SOL    HW244152   2.504   9.202   3.919  0.2857  0.3139  0.7645
14144SOL     OW44153   0.226   8.522   8.204 -0.1646 -0.7373 -0.1825
14144SOL    HW144154   0.196   8.508   8.114 -0.6153 -1.4521  0.0633
14144SOL    HW244155   0.315   8.555   8.196 -0.2371 -0.7109 -0.8911
14145SOL     OW44156   6.720   1.828   7.041  0.1492  0.1244  0.1425
14145SOL    HW144157   6.697   1.918   7.067  1.5813  0.2146  1.2238
14145SOL    HW244158   6.768   1.839   6.959 -0.3426  0.2564 -0.1366
14146SOL     OW44159   1.872   7.861   1.290 -0.5062  0.6029  0.3979
14146SOL    HW144160   1.951   7.912   1.273  0.3470 -1.0752 -1.0621
14146SOL    HW244161   1.857   7.811   1.209  0.0117 -3.0767  2.3197
14147SOL     OW44162   8.400   1.599   6.713 -0.3993 -0.0553 -0.4991
14147SOL    HW144163   8.460   1.655   6.764 -1.3517  0.3555  0.2032
14147SOL    HW244164   8.313   1.633   6.733 -0.9616 -1.3820 -0.5917
14148SOL     OW44165   1.725   3.463   7.579 -0.2938 -0.2724 -0.2751
14148SOL    HW144166   1.714   3.537   7.639 -1.1709  0.3548 -1.1752
14148SOL    HW244167   1.737   3.388   7.636  0.5390  0.5512  0.6656
14149SOL     OW44168   6.593   3.138   1.720 -0.5865 -0.2129 -0.5266
14149SOL    HW144169   6.581   3.051   1.757 -2.9244 -0.7939 -2.4167
14149SOL    HW244170   6.526   3.192   1.762 -1.0988 -0.0858 -1.4680
14150SOL     OW44171   4.818   8.550   6.103 -0.2466  0.5617 -1.2380
14150SOL    HW144172   4.794   8.464   6.137 -1.4901  1.2870 -0.1908
14150SOL    HW244173   4.845   8.533   6.013  2.3025 -1.3053 -0.2483
14151SOL     OW44174   6.256   3.721   1.603  0.2338  0.2943 -0.4005
14151SOL    HW144175   6.263   3.791   1.537 -0.4399  1.1004  0.3574
14151SOL    HW244176   6.162   3.717   1.623  0.2188 -1.0563 -0.6495
14152SOL     OW44177   0.883   5.562   1.814  0.1697 -0.1416  0.1786
14152SOL    HW144178   0.806   5.505   1.808  0.8231 -1.1171  0.8836
14152SOL    HW244179   0.852   5.646   1.780 -1.9692  0.2337  2.7042
14153SOL     OW44180   7.357   3.537   7.865  0.2475  0.2923  0.8072
14153SOL    HW144181   7.330   3.561   7.776  1.4255  1.5001  0.7436
14153SOL    HW244182   7.331   3.445   7.874  0.8481 -0.1073 -1.0835
14154SOL     OW44183   3.221   1.304   7.328 -0.7914 -0.2065  0.0175
14154SOL    HW144184   3.284   1.254   7.276  1.1163  2.9074 -0.8818
14154SOL    HW244185   3.149   1.322   7.267 -0.0776  0.6495 -0.5979
14155SOL     OW44186   9.273   4.912   8.540  0.0727 -0.1649 -0.2933
14155SOL    HW144187   9.280   4.820   8.567  0.2166  0.5529  2.4214
14155SOL    HW244188   9.249   4.908   8.447 -0.5678 -2.9345 -0.1044
14156SOL     OW44189   3.817   6.833   7.594  0.0181 -0.3191 -0.0320
14156SOL    HW144190   3.828   6.914   7.645  1.9908 -2.2399  2.8700
14156SOL    HW244191   3.895   6.827   7.540  0.2887 -0.6924  0.3969
14157SOL     OW44192   3.793   3.933   6.973 -0.1715  0.6268 -0.3005
14157SOL    HW144193   3.844   3.948   6.893  1.2841  0.2567  0.5281
14157SOL    HW244194   3.717   3.881   6.944  1.4872 -1.4728 -1.1168
14158SOL     OW44195   7.018   9.212   0.648  0.1671 -1.3223  0.8576
14158SOL    HW144196   7.022   9.197   0.553 -0.4400  1.1033  0.3793
14158SOL    HW244197   6.940   9.163   0.676  0.4153 -2.1573  0.1434
14159SOL     OW44198   0.983   5.910   9.662  0.3132 -0.1355 -1.2374
14159SOL    HW144199   0.951   5.914   9.752  0.2698 -0.5946 -1.2339
14159SOL    HW244200   0.917   5.861   9.614  0.7857 -0.6938 -1.3275
14160SOL     OW44201   0.660   9.122   6.742  0.5932  0.6312 -0.0686
14160SOL    HW144202   0.595   9.114   6.673  1.8258  0.6263 -1.2773
14160SOL    HW244203   0.611   9.111   6.823 -0.8200  0.1725 -0.9551
14161SOL     OW44204   3.938   1.919   1.101  0.0059 -0.3099 -0.5804
14161SOL    HW144205   4.001   1.933   1.171  0.6653  0.4293 -1.2939
14161SOL    HW244206   3.874   1.990   1.113  0.5582  0.3086 -1.1787
14162SOL     OW44207   1.014   3.936   7.435  0.3754  0.1749 -0.3914
14162SOL    HW144208   1.027   3.892   7.352 -0.3812 -0.8334  0.0043
14162SOL    HW244209   0.924   3.915   7.460 -0.3626  2.6952 -0.6173
14163SOL     OW44210   4.107   8.020   0.358 -0.1169 -0.5595  0.2539
14163SOL    HW144211   4.115   8.062   0.272 -0.2099  0.1763  0.6007
14163SOL    HW244212   4.194   7.984   0.375  0.9091  2.1453  1.2928
14164SOL     OW44213   3.187   5.425   2.736 -0.1459 -0.0255  0.3295
14164SOL    HW144214   3.234   5.341   2.733 -0.5936 -0.2954  0.7633
14164SOL    HW244215   3.202   5.464   2.650 -1.9134 -1.6370 -0.7835
14165SOL     OW44216   5.003   8.173   5.127 -0.3420  0.3320 -0.1587
14165SOL    HW144217   5.083   8.162   5.076 -0.1162  0.5039  0.1485
14165SOL    HW244218   4.935   8.130   5.076 -0.0612  0.2282 -0.4476
14166SOL     OW44219   2.009   9.431   9.005  0.0905 -0.0222 -0.3323
14166SOL    HW144220   1.980   9.358   8.951  0.1232  0.4379 -0.9729
14166SOL    HW244221   2.100   9.409   9.027 -0.0547 -0.4137 -0.1021
14167SOL     OW44222   9.676   2.838   8.093  0.1517  0.3035  0.0035
14167SOL    HW144223   9.597   2.870   8.135  0.7734  1.6899  0.1745
14167SOL    HW244224   9.708   2.769   8.151 -0.6681  0.0590  0.1691
14168SOL     OW44225   4.058   6.173   0.627  0.7295 -0.4800 -0.3389
14168SOL    HW144226   4.057   6.121   0.707 -1.6926  1.3530  0.9556
14168SOL    HW244227   4.121   6.243   0.644 -0.3714  0.3756  0.3582
14169SOL     OW44228   2.145   4.172   2.777 -0.1023  0.1839  0.1998
14169SOL    HW144229   2.220   4.161   2.718  0.3665  0.7304  0.6781
14169SOL    HW244230   2.081   4.108   2.747  0.8377 -0.7941  0.2217
14170SOL     OW44231   5.836   5.278   9.448 -0.1561  0.0110 -0.5139
14170SOL    HW144232   5.926   5.254   9.426  0.2775  1.1404 -0.0852
14170SOL    HW244233   5.803   5.205   9.499  0.0153 -1.0707 -1.9127
14171SOL     OW44234   1.506   0.832   0.706 -0.0821 -0.4925  0.5049
14171SOL    HW144235   1.412   0.826   0.723 -0.7370  1.0097 -2.0675
14171SOL    HW244236   1.531   0.744   0.680 -0.2783 -1.3800  3.0397
14172SOL     OW44237   4.029   2.492   0.708  0.0611 -0.3093 -0.3919
14172SOL    HW144238   4.051   2.403   0.681  0.7274 -0.6903  1.3016
14172SOL    HW244239   3.943   2.509   0.669  0.4754 -1.2131 -1.7659
14173SOL     OW44240   8.691   6.281   3.620 -0.1576  0.0923  0.6170
14173SOL    HW144241   8.660   6.236   3.542 -0.3200  1.2882 -0.0472
14173SOL    HW244242   8.782   6.253   3.630  0.2260  0.7610 -0.6874
14174SOL     OW44243   5.670   2.808   4.970  0.2382  0.0480 -0.5576
14174SOL    HW144244   5.753   2.834   4.930 -0.3291  0.8166 -1.2688
14174SOL    HW244245   5.603   2.835   4.907 -0.5605 -0.5371  0.0158
14175SOL     OW44246   5.612   0.767   4.456  0.3665 -0.4821  0.0074
14175SOL    HW144247   5.576   0.684   4.426 -0.6110 -0.4934  1.1317
14175SOL    HW244248   5.542   0.805   4.509 -0.4689  2.4891 -2.8471
14176SOL     OW44249   9.136   4.445   6.238 -0.0373 -0.3525 -0.2993
14176SOL    HW144250   9.220   4.398   6.239  0.3926  0.3752 -1.4194
14176SOL    HW244251   9.130   4.483   6.151 -0.6502  1.2037  0.3917
14177SOL     OW44252   0.780   7.689   0.708  0.6831  0.1741 -0.4848
14177SOL    HW144253   0.850   7.627   0.688  1.2009  0.4689  0.3694
14177SOL    HW244254   0.820   7.775   0.695  0.3627  0.3427 -0.3651
14178SOL     OW44255   8.817   4.337   8.201  0.1931 -0.1892  0.1760
14178SOL    HW144256   8.904   4.370   8.179  0.3366 -1.1101 -0.7016
14178SOL    HW244257   8.774   4.410   8.246  0.8337  0.8522 -0.8617
14179SOL     OW44258   4.679   2.559   7.845 -0.0985  0.3019  0.0382
14179SOL    HW144259   4.583   2.558   7.849 -0.3110  0.5122 -2.9098
14179SOL    HW244260   4.705   2.623   7.911 -1.9649  0.3154  0.8373
14180SOL     OW44261   3.132   2.052   7.600 -0.0432 -0.1979 -0.3120
14180SOL    HW144262   3.120   1.969   7.553  0.0631 -0.0067 -0.6762
14180SOL    HW244263   3.226   2.068   7.597  0.1286 -0.8192  1.0587
14181SOL     OW44264   2.720   2.434   1.521 -0.6555  0.6700  0.7097
14181SOL    HW144265   2.784   2.455   1.453 -0.8076  1.3702  0.7648
14181SOL    HW244266   2.654   2.503   1.513 -1.3072  0.0581  0.7708
14182SOL     OW44267   2.723   0.655   4.727 -0.5543 -0.4607  0.8663
14182SOL    HW144268   2.694   0.589   4.791  0.1155 -2.4111 -0.7528
14182SOL    HW244269   2.686   0.626   4.644 -0.0031  1.0759  0.0494
14183SOL     OW44270   7.940   2.358   2.633 -0.0154  0.5720 -0.3655
14183SOL    HW144271   7.918   2.360   2.726  0.6160 -2.5638 -0.0393
14183SOL    HW244272   7.857   2.343   2.589 -0.1204  0.5999 -0.1773
14184SOL     OW44273   3.890   0.090   8.823  0.3896 -0.4261 -0.2058
14184SOL    HW144274   3.982   0.078   8.849  0.1101 -0.6810  0.7242
14184SOL    HW244275   3.846   0.012   8.856 -0.4678  0.5093  0.9714
14185SOL     OW44276   6.340   6.310   0.273  0.4211  0.1689  0.8466
14185SOL    HW144277   6.316   6.332   0.183 -2.3225 -0.8641  1.2172
14185SOL    HW244278   6.320   6.217   0.282  2.0821 -0.1148  2.1415
14186SOL     OW44279   3.588   8.708   0.967  0.4409 -0.0385 -0.3979
14186SOL    HW144280   3.681   8.690   0.975  0.4409  0.0979 -0.0917
14186SOL    HW244281   3.569   8.770   1.037 -0.3302 -1.7342  0.9551
14187SOL     OW44282   2.071   6.939   2.883 -0.7824  0.2403  0.5561
14187SOL    HW144283   2.142   6.946   2.820 -2.8479  0.6464 -1.9071
14187SOL    HW244284   2.091   6.861   2.934  0.5324 -0.6829 -1.2748
14188SOL     OW44285   5.472   9.299   8.483 -0.3250  0.1357  0.6325
14188SOL    HW144286   5.387   9.314   8.525 -0.1773  3.5166  0.0408
14188SOL    HW244287   5.536   9.338   8.542  0.2418  1.8167 -0.9768
14189SOL     OW44288   6.022   0.334   8.672  0.3485  0.0107 -0.5221
14189SOL    HW144289   6.038   0.313   8.580  0.3028 -1.8686 -0.1262
14189SOL    HW244290   5.953   0.400   8.670 -0.4739 -0.8515 -1.8035
14190SOL     OW44291   9.007   9.139   9.366  0.3498 -0.1566  0.0849
14190SOL    HW144292   9.087   9.088   9.351 -0.0483 -0.5714 -0.7090
14190SOL    HW244293   8.967   9.145   9.279 -1.0401 -0.8935  0.6584
14191SOL     OW44294   4.010   0.565   7.141 -0.0358 -0.1868  0.1565
14191SOL    HW144295   3.917   0.571   7.164 -0.1816 -2.2114  0.3212
14191SOL    HW244296   4.014   0.588   7.048 -0.8567 -0.9479 -0.0823
14192SOL     OW44297   2.035   7.786   5.233 -0.0963 -0.5552 -0.0476
14192SOL    HW144298   2.069   7.699   5.212 -0.8008 -0.8337 -0.0655
14192SOL    HW244299   1.966   7.770   5.297  0.4249  0.0812  0.6928
14193SOL     OW44300   4.439   0.723   4.848 -0.6390 -0.1074 -0.1478
14193SOL    HW144301   4.358   0.688   4.809 -1.1929 -0.8389  1.5701
14193SOL    HW244302   4.506   0.708   4.782 -2.2603  2.7340 -2.7072
14194SOL     OW44303   0.538   3.901   2.995 -0.0725 -0.5180  0.9712
14194SOL    HW144304   0.613   3.842   2.997 -0.7361 -1.4165  3.8803
14194SOL    HW244305   0.475   3.858   2.939  1.3417  0.0632 -1.2070
14195SOL     OW44306   1.745   5.172   0.871  0.3560  0.0421  0.7518
14195SOL    HW144307   1.663   5.214   0.896 -0.1715  0.0117 -0.8427
14195SOL    HW244308   1.812   5.238   0.886  0.1300 -0.0699  2.4691
14196SOL     OW44309   4.861   1.798   1.942 -0.0852  0.0227 -0.1887
14196SOL    HW144310   4.785   1.843   1.978  0.4239  1.0233 -0.3472
14196SOL    HW244311   4.841   1.705   1.954 -1.7937  0.2207 -1.1391
14197SOL     OW44312   7.146   1.055   5.652  0.6374  0.1284 -0.7234
14197SOL    HW144313   7.197   1.110   5.711 -0.2905  1.3982 -1.0680
14197SOL    HW244314   7.074   1.023   5.707  0.9295 -0.3954 -0.6392
14198SOL     OW44315   5.118   3.755   8.630 -0.2484  0.0802 -0.2079
14198SOL    HW144316   5.132   3.671   8.586 -0.9730 -0.7018  1.0125
14198SOL    HW244317   5.112   3.733   8.723  1.5465  1.7184  0.3682
14199SOL     OW44318   0.585   3.880   4.588  0.3905  0.1196  0.0692
14199SOL    HW144319   0.602   3.902   4.497  2.3811 -0.5868  0.2152
14199SOL    HW244320   0.664   3.906   4.635 -0.4360  0.1151  1.5480
14200SOL     OW44321   5.835   3.637   0.110  0.4655 -0.3519 -0.3708
14200SOL    HW144322   5.901   3.598   0.167 -0.0742 -0.7495 -0.0099
14200SOL    HW244323   5.752   3.623   0.156  0.2004  0.7224 -0.5082
14201SOL     OW44324   1.682   2.567   2.807 -0.6256  0.2495  0.3053
14201SOL    HW144325   1.615   2.499   2.801 -0.3933  0.0439  0.0084
14201SOL    HW244326   1.656   2.633   2.743  0.9806 -1.1794 -1.9384
14202SOL     OW44327   2.415   3.308   3.289 -0.5788 -0.4714 -0.7507
14202SOL    HW144328   2.426   3.219   3.254  0.9774 -0.1150 -1.2362
14202SOL    HW244329   2.453   3.365   3.223  0.6686  0.3733  0.6392
14203SOL     OW44330   6.518   8.996   3.123 -0.5891  0.0050  0.1893
14203SOL    HW144331   6.533   9.045   3.041 -1.2939  0.1547  0.1465
14203SOL    HW244332   6.604   8.958   3.143  0.0055  1.3049  0.2508
14204SOL     OW44333   0.015   4.170   2.452  0.2524 -0.0852 -0.3819
14204SOL    HW144334  -0.042   4.097   2.477  0.9297 -0.8442 -0.9725
14204SOL    HW244335   0.102   4.143   2.482  0.7457 -0.1546 -1.7991
14205SOL     OW44336   0.381   1.754   1.578 -0.0973 -0.2278 -0.1008
14205SOL    HW144337   0.454   1.715   1.530 -0.6156 -0.9828 -0.2817
14205SOL    HW244338   0.414   1.765   1.667 -0.4795 -2.6688  0.3889
14206SOL     OW44339   0.468   3.702   6.612 -0.1244  0.2116  0.5158
14206SOL    HW144340   0.558   3.692   6.642 -1.0748 -3.7641  2.8543
14206SOL    HW244341   0.466   3.662   6.525  0.5765  1.6537 -0.1874
14207SOL     OW44342   4.382   4.237   7.811 -0.2253 -0.3683 -0.4780
14207SOL    HW144343   4.351   4.177   7.743  0.0811 -0.2363 -0.7394
14207SOL    HW244344   4.337   4.319   7.793  0.1327 -0.2280 -0.7492
14208SOL     OW44345   4.658   3.038   4.592 -0.2340 -0.1168  0.0443
14208SOL    HW144346   4.710   3.015   4.669 -0.4394 -1.2137 -0.1237
14208SOL    HW244347   4.651   2.956   4.543 -1.5785  0.1526 -0.2496
14209SOL     OW44348   6.332   4.755   7.207  0.0714 -0.5249  0.2747
14209SOL    HW144349   6.364   4.727   7.122 -0.1849 -1.6421  0.5290
14209SOL    HW244350   6.356   4.848   7.213  1.3753 -0.7966 -0.4039
14210SOL     OW44351   9.263   5.142   2.422 -0.1780 -0.2870  0.5080
14210SOL    HW144352   9.266   5.225   2.468  0.3043 -0.4009  0.6852
14210SOL    HW244353   9.228   5.164   2.335 -0.2046  0.0719  0.6100
14211SOL     OW44354   8.632   5.434   7.961  0.8098  0.1168  0.4507
14211SOL    HW144355   8.543   5.466   7.974  0.4121 -0.7689 -0.0171
14211SOL    HW244356   8.672   5.497   7.901 -0.3397 -0.8718 -1.4226
14212SOL     OW44357   0.550   8.306   7.433  0.0801 -0.3266 -0.2300
14212SOL    HW144358   0.483   8.369   7.408 -1.4870 -0.8814  2.1917
14212SOL    HW244359   0.507   8.250   7.498  2.2562 -2.1107 -0.2068
14213SOL     OW44360   4.021   1.505   5.390  0.1125  0.1977 -0.1148
14213SOL    HW144361   4.086   1.568   5.420 -0.9270  1.0455  0.4288
14213SOL    HW244362   3.980   1.547   5.314 -0.4355  0.0820  0.1108
14214SOL     OW44363   3.089   3.018   9.235 -0.2311  0.3994  0.6145
14214SOL    HW144364   3.036   3.001   9.312 -0.4490  0.2244  0.4245
14214SOL    HW244365   3.032   2.998   9.161 -0.8251  2.7710  0.3341
14215SOL     OW44366   6.586   1.329   7.405  0.1463 -0.1191  0.0915
14215SOL    HW144367   6.581   1.338   7.500  3.1947 -0.5026  0.3773
14215SOL    HW244368   6.495   1.332   7.376 -0.8792 -0.0208  3.0041
14216SOL     OW44369   6.514   4.833   4.629 -1.4970  0.5451  0.4287
14216SOL    HW144370   6.594   4.781   4.640  0.0965  2.6329 -0.6913
14216SOL    HW244371   6.447   4.783   4.676  0.2814 -1.6310  0.8349
14217SOL     OW44372   3.556   2.680   8.443 -0.4127  0.1217 -0.0956
14217SOL    HW144373   3.651   2.679   8.452 -0.1425 -2.7938 -1.9499
14217SOL    HW244374   3.541   2.688   8.349 -1.9035 -1.2381 -0.0090
14218SOL     OW44375   5.485   8.223   0.850  0.2267  0.3721  0.2265
14218SOL    HW144376   5.545   8.287   0.888  1.1199  0.1945 -0.8541
14218SOL    HW244377   5.537   8.177   0.785 -1.7591  2.0486 -2.7734
14219SOL     OW44378   0.076   8.941   3.739  0.5599  0.5440 -0.2792
14219SOL    HW144379  -0.011   8.905   3.721  0.7540  0.0898 -0.3040
14219SOL    HW244380   0.074   9.029   3.701 -0.1387  0.8183  0.3517
14220SOL     OW44381   5.164   7.561   0.884  0.5420 -0.1582 -0.0558
14220SOL    HW144382   5.250   7.539   0.849 -0.0592 -0.1057 -1.6655
14220SOL    HW244383   5.136   7.483   0.931  1.1092 -0.4800 -0.2509
14221SOL     OW44384   9.146   8.211   6.950  0.5116 -0.0225 -0.2430
14221SOL    HW144385   9.060   8.189   6.912  0.1678 -1.4418  1.2512
14221SOL    HW244386   9.209   8.161   6.897  0.2511 -0.2984 -0.2989
14222SOL     OW44387   9.584   8.555   2.064 -0.0430  0.3282  0.1687
14222SOL    HW144388   9.591   8.470   2.021 -0.7628  0.4759 -0.2612
14222SOL    HW244389   9.613   8.540   2.153 -0.1786 -0.3733  0.0995
14223SOL     OW44390   1.834   5.527   2.752  0.2143  0.2637  0.2255
14223SOL    HW144391   1.813   5.435   2.769  0.1662  0.2866  0.2926
14223SOL    HW244392   1.853   5.563   2.839  0.5444  0.2393  0.1653
14224SOL     OW44393   1.717   4.954   5.490 -0.3356  0.2305  0.7178
14224SOL    HW144394   1.769   5.025   5.528  0.2176 -0.4878  1.3386
14224SOL    HW244395   1.685   4.905   5.565 -0.7961 -0.1249  0.2950
14225SOL     OW44396   7.998   3.899   2.905  0.0885 -0.3435  0.0225
14225SOL    HW144397   8.019   3.933   2.992  0.1829 -2.5272  0.9004
14225SOL    HW244398   7.971   3.977   2.855  0.5258  1.0314  1.8260
14226SOL     OW44399   5.844   4.181   4.653  0.1082 -0.0308 -0.2687
14226SOL    HW144400   5.805   4.094   4.661 -0.2084 -0.1049 -2.2050
14226SOL    HW244401   5.781   4.240   4.694  1.1216 -0.8273  2.6862
14227SOL     OW44402   7.437   0.323   8.806  0.3036  0.3152 -0.4181
14227SOL    HW144403   7.437   0.366   8.720  0.3104  0.0695 -0.5413
14227SOL    HW244404   7.374   0.252   8.797  1.3113 -0.5877 -0.6649
14228SOL     OW44405   7.627   7.078   3.859  0.0950 -0.8321 -0.2452
14228SOL    HW144406   7.618   7.090   3.765  0.4309  1.0492 -0.0698
14228SOL    HW244407   7.717   7.104   3.878  0.0377 -1.2014  0.6032
14229SOL     OW44408   5.652   6.002   8.689 -0.2566  0.0344 -0.2337
14229SOL    HW144409   5.591   5.974   8.757  0.4257  0.7241  0.6930
14229SOL    HW244410   5.686   6.086   8.720 -0.7953  0.9455 -2.0013
14230SOL     OW44411   4.287   5.920   4.738 -0.1049  0.3891 -0.3189
14230SOL    HW144412   4.209   5.885   4.695  0.8461 -2.3604  0.0272
14230SOL    HW244413   4.271   6.014   4.742 -2.4619  0.1693 -2.1231
14231SOL     OW44414   6.760   1.919   6.770  0.3327  0.0809  0.1060
14231SOL    HW144415   6.789   2.006   6.742  0.1850 -0.6302 -2.5663
14231SOL    HW244416   6.679   1.904   6.720  0.1750 -1.4672  0.7598
14232SOL     OW44417   4.324   3.235   3.386 -0.3273  0.0731 -0.6291
14232SOL    HW144418   4.241   3.198   3.417  0.3522 -0.4529  0.6546
14232SOL    HW244419   4.353   3.291   3.458  0.5722  0.0186 -0.9439
14233SOL     OW44420   1.705   9.513   6.742  0.4293 -0.2826  0.1567
14233SOL    HW144421   1.657   9.431   6.753  1.5111 -0.7815  1.4570
14233SOL    HW244422   1.744   9.506   6.654 -0.6104 -0.5316 -0.2994
14234SOL     OW44423   2.812   7.049   0.024 -0.5586  0.1748 -0.2567
14234SOL    HW144424   2.873   7.122   0.010 -1.3637  1.1263  0.9463
14234SOL    HW244425   2.731   7.091   0.054 -1.6130 -1.0997 -1.1902
14235SOL     OW44426   4.453   7.805   8.244  0.2594 -0.5196 -0.0337
14235SOL    HW144427   4.522   7.806   8.310  0.6275  0.6486 -0.4120
14235SOL    HW244428   4.498   7.777   8.164  0.4966  1.0058 -0.4623
14236SOL     OW44429   4.044   7.404   0.443  0.1020  0.3484 -0.7054
14236SOL    HW144430   4.061   7.361   0.526  0.1648  1.6348 -0.0217
14236SOL    HW244431   4.062   7.338   0.377 -1.4037 -1.1888  0.3346
14237SOL     OW44432   2.188   0.652   9.388 -0.2779 -0.1015  0.0051
14237SOL    HW144433   2.225   0.645   9.476 -2.5816 -0.7379  0.9886
14237SOL    HW244434   2.129   0.728   9.393 -3.8227 -2.6342  0.4554
14238SOL     OW44435   9.057   2.088   9.316 -0.1200 -0.0026 -0.6651
14238SOL    HW144436   9.138   2.113   9.271  0.3558 -0.9723 -0.3823
14238SOL    HW244437   9.087   2.053   9.400 -0.7865 -0.8904 -0.7888
14239SOL     OW44438   6.802   8.859   1.014 -0.6282 -0.0648  0.4428
14239SOL    HW144439   6.736   8.832   1.078 -0.5968 -0.4756  0.3085
14239SOL    HW244440   6.864   8.786   1.012  0.9718  1.1550  2.0680
14240SOL     OW44441   3.527   0.802   0.228 -0.1758 -0.3886 -0.3250
14240SOL    HW144442   3.608   0.775   0.184  0.1371  2.5534 -1.7927
14240SOL    HW244443   3.549   0.803   0.321  0.0502 -3.8855 -0.2125
14241SOL     OW44444   6.646   9.096   4.534 -0.0317  0.0649 -0.1868
14241SOL    HW144445   6.736   9.103   4.565 -0.2459  0.2653  0.4148
14241SOL    HW244446   6.627   9.183   4.498 -0.1947  0.2349  0.2952
14242SOL     OW44447   2.147   7.998   2.166  0.2583 -0.3408  0.2843
14242SOL    HW144448   2.107   8.019   2.081  2.4207 -1.7976 -1.2047
14242SOL    HW244449   2.241   7.993   2.148  0.7048 -1.6098  2.5656
14243SOL     OW44450   0.061   7.934   2.014 -0.4036  0.2701 -0.1059
14243SOL    HW144451  -0.007   7.955   1.950 -1.0150 -1.6569 -0.1395
14243SOL    HW244452   0.108   7.859   1.976  3.5730  3.0384 -1.3677
14244SOL     OW44453   2.824   5.840   7.516  0.1286  0.0177  0.3849
14244SOL    HW144454   2.815   5.765   7.575 -0.4926  0.1280  0.4297
14244SOL    HW244455   2.752   5.898   7.539  0.3658  0.4449  0.0712
14245SOL     OW44456   4.804   6.652   0.853  0.0544  0.5227  0.3604
14245SOL    HW144457   4.781   6.741   0.880 -0.0998  0.0047  2.0342
14245SOL    HW244458   4.899   6.653   0.844  0.1375  0.6414  1.2145
14246SOL     OW44459   7.677   0.480   9.529 -0.5202 -0.2792 -0.0983
14246SOL    HW144460   7.747   0.543   9.548 -0.5126  0.1515 -1.4275
14246SOL    HW244461   7.683   0.466   9.434 -2.7408  0.4281 -0.4053
14247SOL     OW44462   1.581   2.317   4.348  0.9753 -0.4906 -0.0114
14247SOL    HW144463   1.567   2.403   4.309  1.7070  0.8915  2.5963
14247SOL    HW244464   1.594   2.259   4.273 -0.9708  1.3478 -1.9126
14248SOL     OW44465   1.683   9.542   9.278 -0.2979  0.1629  1.0437
14248SOL    HW144466   1.675   9.622   9.330  1.7431 -0.0978  1.8174
14248SOL    HW244467   1.598   9.534   9.234 -1.1570  1.7995  2.2983
14249SOL     OW44468   2.677   5.728   5.528  0.2469  0.3443 -0.0890
14249SOL    HW144469   2.661   5.814   5.567  1.8780  1.3806 -1.5269
14249SOL    HW244470   2.649   5.738   5.437 -2.0858 -1.5422  0.3215
14250SOL     OW44471   7.779   8.923   0.163  0.3458 -0.1820 -0.0268
14250SOL    HW144472   7.813   8.855   0.104 -0.6236  0.7079 -1.7045
14250SOL    HW244473   7.694   8.946   0.125 -0.7113 -0.1338  2.2343
14251SOL     OW44474   8.443   6.232   3.758 -0.2309 -0.0628 -0.2602
14251SOL    HW144475   8.532   6.263   3.738  0.0575  0.5914  1.8437
14251SOL    HW244476   8.455   6.141   3.785 -0.1276  0.1749  0.5033
14252SOL     OW44477   6.847   7.012   4.646  0.2254 -0.4419 -0.0845
14252SOL    HW144478   6.769   6.968   4.681  0.1042  0.8054  1.2980
14252SOL    HW244479   6.913   6.943   4.642 -0.2961 -1.0347  0.8908
14253SOL     OW44480   3.259   4.343   1.046  0.5816 -0.2967 -0.1878
14253SOL    HW144481   3.280   4.405   1.116 -2.2385  0.4108  0.1466
14253SOL    HW244482   3.238   4.398   0.971 -2.5491 -0.6522  0.2736
14254SOL     OW44483   7.855   8.789   0.449 -0.5803 -0.1488  0.1210
14254SOL    HW144484   7.824   8.717   0.395  0.4876 -0.3044 -0.3037
14254SOL    HW244485   7.884   8.856   0.387  0.7722 -0.3766  0.4773
14255SOL     OW44486   3.147   6.020   0.929  0.6227 -0.4361 -0.3481
14255SOL    HW144487   3.117   6.052   1.014  2.0563  1.5225 -0.5272
14255SOL    HW244488   3.066   6.003   0.880 -0.2162  0.6730  0.6012
14256SOL     OW44489   5.924   1.884   1.435  0.2802  0.1741  0.1511
14256SOL    HW144490   5.969   1.853   1.357  0.2683  1.3460 -0.3524
14256SOL    HW244491   5.890   1.805   1.477  2.6880 -0.7463  0.5185
14257SOL     OW44492   7.198   3.361   2.506  0.4632 -0.5290  0.1106
14257SOL    HW144493   7.272   3.303   2.524  0.2805 -0.4598  1.1954
14257SOL    HW244494   7.149   3.363   2.589 -0.5676 -0.3083 -0.4819
14258SOL     OW44495   9.249   5.198   5.171 -0.0511 -0.0134  0.3771
14258SOL    HW144496   9.263   5.242   5.255 -1.6764  2.6361 -0.5982
14258SOL    HW244497   9.334   5.205   5.126 -0.1027  1.8313  0.4639
14259SOL     OW44498   3.736   9.484   1.467  0.2159  0.3725  0.0303
14259SOL    HW144499   3.681   9.413   1.435 -0.6365  0.9616  0.1454
14259SOL    HW244500   3.810   9.488   1.406 -1.0773  1.1041 -1.5638
14260SOL     OW44501   0.743   5.004   5.373  0.5867  0.4548  0.7671
14260SOL    HW144502   0.698   5.073   5.325 -0.9097 -1.3693 -0.6040
14260SOL    HW244503   0.698   5.001   5.458 -1.0231 -0.4150 -0.0740
14261SOL     OW44504   2.028   2.910   6.354 -0.1395 -0.3733  0.2398
14261SOL    HW144505   2.088   2.879   6.286  0.3371 -0.6751  0.7848
14261SOL    HW244506   2.085   2.948   6.421 -0.7006  1.5503 -0.3236
14262SOL     OW44507   1.863   3.911   3.339 -0.0126  0.0900  0.1104
14262SOL    HW144508   1.943   3.895   3.390  0.1377  0.4350 -0.0114
14262SOL    HW244509   1.849   3.830   3.290  0.2767  0.0357  0.1135
14263SOL     OW44510   4.851   3.148   0.409  0.3057 -0.4632  0.1137
14263SOL    HW144511   4.826   3.168   0.499  0.3213 -1.4597  0.3468
14263SOL    HW244512   4.920   3.083   0.417  0.6455 -0.2011 -0.6125
14264SOL     OW44513   2.647   7.382   6.080 -0.0411 -0.5018  0.1691
14264SOL    HW144514   2.584   7.449   6.051  0.0672 -0.9670 -1.2138
14264SOL    HW244515   2.717   7.432   6.122 -0.1673  0.2290 -0.4714
14265SOL     OW44516   3.985   2.711   4.649 -0.2707  0.1584 -0.2462
14265SOL    HW144517   4.077   2.729   4.632 -0.4231  1.1628 -0.1211
14265SOL    HW244518   3.940   2.793   4.625 -0.7298  0.9389  2.8344
14266SOL     OW44519   2.479   7.855   0.851  0.1886 -0.3948  0.5365
14266SOL    HW144520   2.392   7.845   0.811 -0.4261 -0.1380  1.7633
14266SOL    HW244521   2.540   7.837   0.779 -0.8693  0.0304 -0.5146
14267SOL     OW44522   4.825   4.567   3.489  0.0187  0.8961  0.4468
14267SOL    HW144523   4.755   4.581   3.426 -0.0918 -0.9468  0.0923
14267SOL    HW244524   4.899   4.616   3.454 -0.7140  1.7996  0.1386
14268SOL     OW44525   3.939   5.052   5.888 -0.2454 -0.1916  0.3359
14268SOL    HW144526   3.992   5.056   5.808 -0.8859  1.8600 -0.0772
14268SOL    HW244527   3.997   5.081   5.958 -0.2820  0.1744  0.2168
14269SOL     OW44528   1.595   4.182   3.670  0.6785 -0.4428 -0.7646
14269SOL    HW144529   1.572   4.273   3.653  1.0112 -0.0146  0.9109
14269SOL    HW244530   1.661   4.161   3.604  1.0595  0.7276 -0.7742
14270SOL     OW44531   6.926   5.879   3.937  0.4167 -0.1848 -0.1759
14270SOL    HW144532   6.868   5.849   4.006  0.7851 -1.0346 -0.2315
14270SOL    HW244533   7.011   5.890   3.979  0.1532  1.5218  0.0176
14271SOL     OW44534   2.145   8.266   0.621  0.1448 -0.4812  0.7326
14271SOL    HW144535   2.170   8.353   0.589 -1.6726  0.5125  1.8387
14271SOL    HW244536   2.176   8.263   0.711  2.6441 -2.1334 -0.0728
14272SOL     OW44537   8.759   4.854   5.620  0.5828  0.2403 -0.4333
14272SOL    HW144538   8.779   4.846   5.527 -0.2808  1.8099 -0.7970
14272SOL    HW244539   8.684   4.914   5.623 -0.1195 -0.6673  1.2055
14273SOL     OW44540   9.542   2.309   5.204  0.1202 -0.1255  0.2312
14273SOL    HW144541   9.500   2.358   5.275 -1.2843 -1.3739  0.3095
14273SOL    HW244542   9.595   2.375   5.157  0.5457  0.8620  1.9942
14274SOL     OW44543   6.650   8.477   1.139  0.5330 -0.8364 -0.9069
14274SOL    HW144544   6.653   8.489   1.044  1.7595 -0.6097 -0.8540
14274SOL    HW244545   6.730   8.429   1.160 -0.3780 -2.0774 -0.1347
14275SOL     OW44546   4.848   5.140   8.474 -0.1818  0.0912 -0.1108
14275SOL    HW144547   4.924   5.180   8.432 -0.3993 -0.5463 -1.1432
14275SOL    HW244548   4.885   5.070   8.529 -0.0100 -0.1557 -0.5362
14276SOL     OW44549   3.227   7.676   3.193 -0.1549 -0.2791 -0.3998
14276SOL    HW144550   3.169   7.604   3.219  2.1157 -2.2793 -0.5344
14276SOL    HW244551   3.311   7.654   3.233  0.3694  2.9945  0.5612
14277SOL     OW44552   7.087   7.271   8.914  0.0443 -0.7824 -0.4386
14277SOL    HW144553   7.053   7.343   8.967  2.6214 -0.2885  0.6792
14277SOL    HW244554   7.101   7.310   8.827  1.6953  0.2370  0.2331
14278SOL     OW44555   3.485   9.085   5.717 -0.0113  0.1781 -0.2211
14278SOL    HW144556   3.439   9.144   5.656  0.6724  1.1052  0.1371
14278SOL    HW244557   3.442   9.100   5.801  1.1122  1.3121  0.1949
14279SOL     OW44558   0.545   7.841   1.701  0.2778 -0.2339  0.2639
14279SOL    HW144559   0.585   7.756   1.721  0.6140 -0.8122 -2.4933
14279SOL    HW244560   0.451   7.826   1.710  0.3342 -0.9014 -0.1705
14280SOL     OW44561   4.160   0.699   5.311 -0.1128 -0.2075 -0.2295
14280SOL    HW144562   4.132   0.633   5.374 -0.9156 -0.8225 -1.1853
14280SOL    HW244563   4.092   0.696   5.243 -0.5255  2.0613  0.0130
14281SOL     OW44564   7.182   5.130   9.044 -0.0620 -0.0993 -0.5570
14281SOL    HW144565   7.156   5.098   9.129 -2.0779 -0.6131 -1.3136
14281SOL    HW244566   7.243   5.064   9.010  1.5286  0.5848  0.8099
14282SOL     OW44567   1.681   2.469   0.039 -0.4957  0.1163  0.3991
14282SOL    HW144568   1.759   2.485   0.093 -0.3773  1.3789 -0.1175
14282SOL    HW244569   1.698   2.385  -0.003  0.0664 -0.1731  1.1790
14283SOL     OW44570   2.007   4.634   1.952  0.4040 -0.4909 -0.5767
14283SOL    HW144571   1.915   4.654   1.970  0.6273  0.5555 -0.5552
14283SOL    HW244572   2.045   4.617   2.038  0.2598 -0.7909 -0.5723
14284SOL     OW44573   8.774   5.694   4.375 -0.1312  0.9192 -0.1552
14284SOL    HW144574   8.683   5.666   4.364  0.0915  0.4218 -0.7877
14284SOL    HW244575   8.814   5.678   4.290  0.8742 -0.0771  0.4899
14285SOL     OW44576   0.397   7.669   9.521 -0.3052  0.2537  0.5386
14285SOL    HW144577   0.346   7.630   9.450 -0.5133 -1.2987  1.4789
14285SOL    HW244578   0.488   7.649   9.499 -0.2781  0.7362  0.1818
14286SOL     OW44579   8.163   3.136   5.740  0.0415  0.1174  0.2480
14286SOL    HW144580   8.247   3.124   5.696  0.1076  0.8966  0.1566
14286SOL    HW244581   8.141   3.228   5.727 -1.5662 -0.3814 -1.0670
14287SOL     OW44582   3.915   2.506   8.105 -0.5313  0.2571  0.8151
14287SOL    HW144583   3.857   2.568   8.149  0.6023  0.8086  1.6106
14287SOL    HW244584   4.000   2.552   8.102 -0.1970 -0.4070 -0.5532
14288SOL     OW44585   8.182   6.366   0.646 -0.1094  0.4815 -0.1898
14288SOL    HW144586   8.126   6.354   0.723  1.1348 -0.3200  0.6155
14288SOL    HW244587   8.152   6.448   0.607 -0.4952  1.1140  1.3736
14289SOL     OW44588   7.391   8.845   6.645 -0.0916  0.1618 -0.2772
14289SOL    HW144589   7.484   8.840   6.669 -0.4344  0.2637  1.1418
14289SOL    HW244590   7.368   8.755   6.622  0.0517 -0.1163  0.6221
14290SOL     OW44591   5.024   7.960   9.016  0.1610  0.3455 -0.0953
14290SOL    HW144592   5.051   8.033   9.072 -0.4035 -0.5821  1.4442
14290SOL    HW244593   5.016   7.886   9.075 -0.4326 -0.7023 -1.4290
14291SOL     OW44594   8.188   7.375   4.993 -0.3125 -0.5239  0.5453
14291SOL    HW144595   8.246   7.334   4.929 -1.5125 -0.4390 -0.6326
14291SOL    HW244596   8.181   7.312   5.064 -0.4652 -1.4480 -0.2777
14292SOL     OW44597   4.900   2.347   4.090  0.5249  0.5272  0.7260
14292SOL    HW144598   4.843   2.423   4.105  0.3661  0.0769  2.6409
14292SOL    HW244599   4.840   2.275   4.070  0.4548  0.2657  1.8178
14293SOL     OW44600   6.247   2.223   4.556  0.0538 -0.1488 -0.0827
14293SOL    HW144601   6.171   2.206   4.500  0.5396  0.8305 -1.0783
14293SOL    HW244602   6.228   2.175   4.636 -2.6060  1.5952  0.4954
14294SOL     OW44603   3.182   2.595   4.234 -0.1240 -0.1354 -1.0235
14294SOL    HW144604   3.232   2.644   4.169 -1.5514  1.5135 -0.9433
14294SOL    HW244605   3.142   2.524   4.184  0.3264 -0.0235 -1.5566
14295SOL     OW44606   2.292   3.849   0.672 -0.9593 -0.2273  0.2489
14295SOL    HW144607   2.290   3.814   0.761 -3.0016  0.9995  0.7499
14295SOL    HW244608   2.207   3.825   0.635 -0.5952  0.2861 -0.9773
14296SOL     OW44609   8.052   0.981   5.649 -0.2675 -0.0193  0.0132
14296SOL    HW144610   7.998   0.920   5.699  0.6354 -0.0409  0.9737
14296SOL    HW244611   8.123   1.005   5.707  1.2827 -0.6767 -1.5330
14297SOL     OW44612   3.201   4.552   1.228 -0.4117  0.3966 -0.3130
14297SOL    HW144613   3.262   4.625   1.237 -1.0926  0.8119  1.3387
14297SOL    HW244614   3.116   4.588   1.252 -0.9396 -0.7019 -0.4359
14298SOL     OW44615   7.051   0.078   3.963 -0.0519 -0.3168 -0.0194
14298SOL    HW144616   7.029   0.073   3.870 -2.3649  0.9712  0.3947
14298SOL    HW244617   7.061   0.171   3.981 -1.5843 -0.3887  1.3973
14299SOL     OW44618   0.281   7.387   7.960  0.0467  0.8723 -0.2813
14299SOL    HW144619   0.291   7.474   7.921 -0.1834  1.5670  1.1599
14299SOL    HW244620   0.368   7.366   7.995 -0.2764  1.2303  0.7671
14300SOL     OW44621   4.234   2.474   3.823  0.0868  0.0403 -0.7096
14300SOL    HW144622   4.258   2.384   3.803  0.5806  0.1044 -0.4244
14300SOL    HW244623   4.140   2.471   3.839 -0.0030 -0.3178 -1.2828
14301SOL     OW44624   7.315   0.527   5.675  0.3045 -0.1207 -0.1943
14301SOL    HW144625   7.240   0.501   5.728  0.6627 -0.3311  0.2199
14301SOL    HW244626   7.324   0.621   5.689  0.2522 -0.1352 -0.0663
14302SOL     OW44627   3.376   7.968   5.816  0.2723 -0.2606 -0.0928
14302SOL    HW144628   3.445   7.918   5.859  0.3190  0.4420  0.6758
14302SOL    HW244629   3.295   7.924   5.841  0.4566 -1.7181 -1.8380
14303SOL     OW44630   2.595   8.104   0.750 -0.2024  0.2491  0.5543
14303SOL    HW144631   2.550   8.038   0.803 -1.8569  0.8690 -0.0282
14303SOL    HW244632   2.638   8.053   0.680 -2.5006 -0.1782 -0.6376
14304SOL     OW44633   3.608   0.857   0.485 -0.1157 -0.1831  0.0694
14304SOL    HW144634   3.559   0.803   0.547  0.4959 -0.2116  0.5319
14304SOL    HW244635   3.577   0.946   0.501  0.2038 -0.1594  0.5815
14305SOL     OW44636   1.898   9.499   7.794 -0.5485 -0.5301 -0.0828
14305SOL    HW144637   1.825   9.456   7.748 -1.5322  0.4098  0.5299
14305SOL    HW244638   1.891   9.467   7.884  1.3584 -2.3530 -0.5117
14306SOL     OW44639   2.670   3.923   5.554 -0.6585 -0.6992  0.1839
14306SOL    HW144640   2.605   3.989   5.579  0.9840  1.7190 -1.5147
14306SOL    HW244641   2.747   3.943   5.607 -0.0388 -1.0630 -0.5606
14307SOL     OW44642   2.737   0.591   1.558 -0.1630 -0.5190 -0.4680
14307SOL    HW144643   2.746   0.643   1.638  1.1567 -0.6497 -0.5065
14307SOL    HW244644   2.706   0.506   1.588 -2.3432  0.2364 -0.4056
14308SOL     OW44645   2.644   4.394   7.253  0.3319 -0.1237  0.2930
14308SOL    HW144646   2.723   4.442   7.228  1.1216 -0.7224  1.4977
14308SOL    HW244647   2.601   4.373   7.170  1.6066 -0.0417 -0.4161
14309SOL     OW44648   1.622   8.120   0.485  0.1144  0.1903  0.0802
14309SOL    HW144649   1.705   8.083   0.516  0.0356  0.9125  1.2091
14309SOL    HW244650   1.581   8.155   0.563 -2.3399 -2.1317 -0.0387
14310SOL     OW44651   2.124   5.795   1.995 -0.2708 -0.0383 -0.1227
14310SOL    HW144652   2.049   5.761   1.946 -0.3195 -1.3285  0.8117
14310SOL    HW244653   2.176   5.718   2.016  0.6083  0.6872  0.4430
14311SOL     OW44654   7.241   3.881   6.965 -0.5128 -0.6530 -0.2916
14311SOL    HW144655   7.290   3.874   7.047 -2.7400 -1.7834  1.0315
14311SOL    HW244656   7.258   3.798   6.919 -0.5655 -0.7124 -0.2029
14312SOL     OW44657   0.826   3.584   2.771  0.5135  0.1953  0.2314
14312SOL    HW144658   0.898   3.521   2.766 -0.8541 -1.6256  1.9546
14312SOL    HW244659   0.805   3.604   2.680  3.6077  1.3950 -0.3622
14313SOL     OW44660   0.933   6.477   5.974  0.2468 -0.0352 -0.1151
14313SOL    HW144661   0.867   6.425   5.928 -0.7489 -0.4331  1.6421
14313SOL    HW244662   0.991   6.413   6.014 -0.3536  0.1933  1.1756
14314SOL     OW44663   9.604   5.248   4.469  0.0339 -0.7042  1.0076
14314SOL    HW144664   9.638   5.311   4.405 -1.7309 -2.1029 -1.4852
14314SOL    HW244665   9.621   5.289   4.554  1.1555  1.9682 -0.3765
14315SOL     OW44666   8.659   8.988   9.228  0.6187  0.2847  0.0771
14315SOL    HW144667   8.592   8.941   9.277 -0.2482  1.1676 -0.2085
14315SOL    HW244668   8.688   9.058   9.287  1.2821 -0.0793  0.1912
14316SOL     OW44669   9.579   6.093   6.157  0.2572 -0.1287 -0.5135
14316SOL    HW144670   9.555   6.044   6.236  0.1524  0.9479  0.1419
14316SOL    HW244671   9.501   6.144   6.136  0.7729  0.7254 -0.4227
14317SOL     OW44672   1.167   0.783   1.734  0.0231  0.0328  0.5224
14317SOL    HW144673   1.200   0.700   1.768  0.3245 -0.2287 -0.4045
14317SOL    HW244674   1.227   0.849   1.771  1.3554 -0.3977 -0.7757
14318SOL     OW44675   8.721   8.602   9.219 -0.1533  0.1100 -1.0012
14318SOL    HW144676   8.683   8.582   9.133 -0.1695 -1.3310 -0.6798
14318SOL    HW244677   8.803   8.647   9.199  0.2251 -0.8944 -1.8091
14319SOL     OW44678   1.881   4.385   4.395 -0.4115  0.2935  0.6621
14319SOL    HW144679   1.955   4.413   4.340  0.4430 -0.6528  1.2917
14319SOL    HW244680   1.811   4.367   4.332 -0.0487  0.9807  0.0300
14320SOL     OW44681   1.861   0.516   1.063  0.3631 -0.4201 -0.0012
14320SOL    HW144682   1.933   0.456   1.047  1.3537  0.9700 -1.0563
14320SOL    HW244683   1.857   0.570   0.985  1.0030  2.3287  1.7074
14321SOL     OW44684   9.396   7.813   2.343  0.5685  0.4731  0.6514
14321SOL    HW144685   9.455   7.889   2.337  0.2560  0.6736  0.0496
14321SOL    HW244686   9.316   7.848   2.381  0.0023  0.7056 -0.7123
14322SOL     OW44687   0.526   8.394   6.275  0.3618  0.0345 -0.2570
14322SOL    HW144688   0.549   8.487   6.280 -1.5618  0.5808 -0.7692
14322SOL    HW244689   0.562   8.356   6.354 -1.5251  1.8907  1.6390
14323SOL     OW44690   1.254   9.091   2.776  0.3131 -0.2110  0.4058
14323SOL    HW144691   1.265   9.072   2.869 -0.6323  0.5161  0.6935
14323SOL    HW244692   1.209   9.014   2.740  0.2811 -0.3054  0.6510
14324SOL     OW44693   0.772   1.812   3.709  0.1302 -0.2101  0.3471
14324SOL    HW144694   0.794   1.753   3.637  2.2392  0.1877  0.5928
14324SOL    HW244695   0.807   1.897   3.682  3.4908 -0.5659  2.8408
14325SOL     OW44696   1.152   7.810   7.660 -0.2335  0.0381  0.6120
14325SOL    HW144697   1.200   7.871   7.715  0.5299 -1.2270  1.4025
14325SOL    HW244698   1.156   7.727   7.707  1.9202 -1.5596 -2.0295
14326SOL     OW44699   1.095   7.943   2.873  0.1300  0.7319  0.0561
14326SOL    HW144700   1.032   7.895   2.928  0.1783  0.7145  0.0963
14326SOL    HW244701   1.120   7.879   2.806 -0.3980  0.9486 -0.3592
14327SOL     OW44702   7.011   6.987   0.270  0.1455  0.1540 -1.0796
14327SOL    HW144703   7.095   6.965   0.311 -0.1967  1.2476  0.3100
14327SOL    HW244704   6.946   6.942   0.324 -0.2903  1.2185 -0.6916
14328SOL     OW44705   6.857   4.518   7.232  0.4327  0.4180  0.2454
14328SOL    HW144706   6.891   4.439   7.273 -0.0326  0.9804  1.7731
14328SOL    HW244707   6.889   4.590   7.286 -0.8403  1.1341  0.1018
14329SOL     OW44708   8.829   0.681   8.385  0.1362  0.3900 -0.2583
14329SOL    HW144709   8.846   0.650   8.296  2.5313 -1.1791  0.6234
14329SOL    HW244710   8.747   0.639   8.411 -0.9311  1.3760 -1.8940
14330SOL     OW44711   9.420   2.105   5.887  0.1497  0.2328 -0.0429
14330SOL    HW144712   9.432   2.130   5.979  0.1981  1.7364 -0.4223
14330SOL    HW244713   9.408   2.188   5.842  1.6613 -0.3472 -1.6331
14331SOL     OW44714   2.620   1.753   1.763  0.1905 -0.1678 -0.0900
14331SOL    HW144715   2.586   1.665   1.779  0.7788 -0.6350 -1.2709
14331SOL    HW244716   2.661   1.747   1.677  0.5709  1.1712 -0.0195
14332SOL     OW44717   7.968   9.478   9.032  0.8586 -0.3962 -0.5620
14332SOL    HW144718   7.967   9.509   8.941  0.5157 -1.3367 -0.8970
14332SOL    HW244719   8.059   9.489   9.059  0.7525  0.8454 -0.6662
14333SOL     OW44720   1.723   7.229   8.480  0.1676 -0.2046 -0.1204
14333SOL    HW144721   1.738   7.265   8.567  1.9283 -1.3778  0.0998
14333SOL    HW244722   1.811   7.214   8.445 -0.5184 -0.6563 -1.7243
14334SOL     OW44723   7.277   4.488   6.720  0.6799  0.2287 -0.2379
14334SOL    HW144724   7.230   4.405   6.707 -0.5805  0.7371  0.8042
14334SOL    HW244725   7.224   4.553   6.673 -0.5178  1.0379  2.0454
14335SOL     OW44726   8.074   8.922   3.807  0.0922 -0.4114 -0.4764
14335SOL    HW144727   7.979   8.921   3.817 -0.1483 -0.5870 -2.4397
14335SOL    HW244728   8.091   8.868   3.730  1.7639 -0.1507 -0.3294
14336SOL     OW44729   5.989   2.063   2.813 -0.2690  0.0174  0.4036
14336SOL    HW144730   5.975   2.149   2.851 -0.1433  0.1373  0.1764
14336SOL    HW244731   6.083   2.047   2.822 -0.0676  0.4845 -0.7848
14337SOL     OW44732   8.972   8.221   2.581 -0.3920  0.1272 -0.0676
14337SOL    HW144733   8.977   8.198   2.488  0.1860 -3.2268  0.6554
14337SOL    HW244734   9.062   8.217   2.612 -0.8380 -1.8591  1.1680
14338SOL     OW44735   9.632   3.253   3.456  0.4124  0.0198 -0.7384
14338SOL    HW144736   9.682   3.173   3.440  0.4878 -0.0887  0.0198
14338SOL    HW244737   9.554   3.224   3.504  0.5028  0.4111 -0.3432
14339SOL     OW44738   6.700   9.397   4.475 -0.2757  0.2192  0.4896
14339SOL    HW144739   6.792   9.416   4.491 -0.3428  0.2016  0.9044
14339SOL    HW244740   6.676   9.454   4.402  0.1691 -0.0664  0.1129
14340SOL     OW44741   1.298   2.602   7.503  0.3458  0.7500 -0.1930
14340SOL    HW144742   1.369   2.564   7.555 -0.3162  0.9407  0.8777
14340SOL    HW244743   1.338   2.677   7.459  0.9694  0.4563 -0.1317
14341SOL     OW44744   8.897   1.843   7.697 -0.0667  0.1856  0.3398
14341SOL    HW144745   8.975   1.794   7.670  0.0514  1.3883 -1.6555
14341SOL    HW244746   8.837   1.836   7.622 -0.8448  1.4204  0.8262
14342SOL     OW44747   1.400   1.618   4.379  0.4976  0.2340 -0.5169
14342SOL    HW144748   1.492   1.621   4.353 -0.0041 -1.1182 -2.6950
14342SOL    HW244749   1.362   1.697   4.340  0.7003  0.7440  0.3040
14343SOL     OW44750   6.811   6.097   0.409 -0.3461 -0.3330  0.2891
14343SOL    HW144751   6.731   6.133   0.372 -1.5988 -1.2313  1.9792
14343SOL    HW244752   6.829   6.019   0.356 -0.9552 -0.4727  0.2824
14344SOL     OW44753   7.875   4.906   0.192  0.0124 -0.3654  0.1993
14344SOL    HW144754   7.783   4.909   0.221 -0.2520  0.7178 -0.6893
14344SOL    HW244755   7.870   4.889   0.098  0.6859  0.3430  0.0211
14345SOL     OW44756   2.270   7.517   5.254 -0.0396  0.3322 -0.3370
14345SOL    HW144757   2.235   7.583   5.314  1.3020  0.9720 -0.2308
14345SOL    HW244758   2.342   7.477   5.302  0.1158 -0.1687 -0.9771
14346SOL     OW44759   3.347   3.173   2.625  0.0829  0.0668 -0.1693
14346SOL    HW144760   3.355   3.259   2.666 -0.2810  0.7361 -1.4398
14346SOL    HW244761   3.437   3.141   2.618  0.4911  1.4509 -1.9036
14347SOL     OW44762   6.738   8.560   2.937  0.2273  0.7034  0.5147
14347SOL    HW144763   6.732   8.529   3.027 -1.1529  1.1353  0.5875
14347SOL    HW244764   6.814   8.618   2.937 -0.9886  2.4171  1.9621
14348SOL     OW44765   8.620   0.128   6.710 -0.7938  0.3110  0.1315
14348SOL    HW144766   8.683   0.131   6.638  0.9867 -0.2639  1.5749
14348SOL    HW244767   8.572   0.210   6.703 -0.4967  0.3939 -1.5285
14349SOL     OW44768   4.488   5.493   2.971 -0.0428 -0.4371 -0.3404
14349SOL    HW144769   4.468   5.557   2.903  0.2171  0.5964  0.5250
14349SOL    HW244770   4.481   5.408   2.927  1.2617  0.2290 -1.9769
14350SOL     OW44771   1.272   4.581   8.712 -0.8665 -0.3907  0.3485
14350SOL    HW144772   1.198   4.638   8.730 -1.0778 -0.3240 -0.6917
14350SOL    HW244773   1.319   4.624   8.641 -0.4581 -0.9982  0.2414
14351SOL     OW44774   6.944   4.450   5.624  0.5825  0.3572  0.3281
14351SOL    HW144775   7.006   4.394   5.671  0.7726 -0.0805 -0.4284
14351SOL    HW244776   6.868   4.395   5.608  0.4666  0.5436  0.2267
14352SOL     OW44777   4.207   8.029   1.658  0.3130  0.3677 -0.0457
14352SOL    HW144778   4.223   8.118   1.691 -0.5307  0.3317  0.4844
14352SOL    HW244779   4.271   7.975   1.705 -0.0086  0.5148  0.5698
14353SOL     OW44780   1.485   7.463   2.424 -0.1871 -0.0186 -0.0088
14353SOL    HW144781   1.538   7.539   2.398  0.8849 -0.4157  0.9116
14353SOL    HW244782   1.464   7.419   2.342 -0.6963  1.1731 -0.5467
14354SOL     OW44783   0.523   4.804   7.201 -0.2655 -0.5537 -0.4655
14354SOL    HW144784   0.613   4.771   7.195 -0.9035 -3.7227  3.1876
14354SOL    HW244785   0.475   4.754   7.135  0.2400 -0.3617 -0.9970
14355SOL     OW44786   2.422   4.619   9.110 -0.5260 -0.0185 -0.3960
14355SOL    HW144787   2.508   4.599   9.148  0.1616  2.9680 -0.0887
14355SOL    HW244788   2.361   4.564   9.159  0.9966 -0.6089  0.9506
14356SOL     OW44789   9.255   7.358   8.399 -0.0946 -0.2906  0.2779
14356SOL    HW144790   9.287   7.448   8.403  1.6997 -0.7560 -1.9663
14356SOL    HW244791   9.159   7.366   8.406 -0.0465  1.8741 -0.8553
14357SOL     OW44792   9.615   3.934   4.241 -0.2601 -0.0426  0.4565
14357SOL    HW144793   9.574   3.894   4.165 -1.1608  1.1827  0.2620
14357SOL    HW244794   9.646   3.861   4.294 -0.7179 -0.9385 -0.4944
14358SOL     OW44795   8.954   5.476   6.319 -0.1829  0.0416 -0.3010
14358SOL    HW144796   8.927   5.389   6.290  1.6020 -0.7750  0.3178
14358SOL    HW244797   8.962   5.467   6.414  1.4068  0.4341 -0.3740
14359SOL     OW44798   3.929   5.821   8.989 -0.4521  0.5717  0.3061
14359SOL    HW144799   3.952   5.904   8.947  0.8247 -1.2111 -2.9431
14359SOL    HW244800   3.837   5.808   8.968 -0.8954  1.4746  1.5579
14360SOL     OW44801   5.627   2.294   1.450 -0.1847 -0.3710  0.6884
14360SOL    HW144802   5.602   2.328   1.536 -1.7254  0.8054 -0.1844
14360SOL    HW244803   5.581   2.211   1.441 -1.7781  0.5365  0.1587
14361SOL     OW44804   7.113   8.967   1.123 -0.3171 -0.3376  0.2737
14361SOL    HW144805   7.102   9.008   1.209 -0.9632  0.7229 -0.2875
14361SOL    HW244806   7.024   8.954   1.091 -0.0847  0.3339 -0.6966
14362SOL     OW44807   3.472   8.752   8.401 -0.1009  0.0964 -0.5467
14362SOL    HW144808   3.395   8.722   8.450  1.1523 -1.4087  0.5842
14362SOL    HW244809   3.508   8.823   8.454  1.0864 -1.3369  0.6390
14363SOL     OW44810   4.375   0.903   2.497 -0.0621  0.2491  0.2255
14363SOL    HW144811   4.395   0.842   2.569  0.3353  0.3958  0.2430
14363SOL    HW244812   4.280   0.900   2.489 -0.0350 -0.4797  0.1358
14364SOL     OW44813   5.867   6.704   6.682 -0.3819  0.5143  0.1332
14364SOL    HW144814   5.935   6.741   6.738  1.2692 -0.2328 -1.2671
14364SOL    HW244815   5.842   6.776   6.624 -0.3782  0.6485  0.3004
14365SOL     OW44816   3.701   7.505   4.671 -0.1047  0.0646 -0.2594
14365SOL    HW144817   3.720   7.550   4.753  0.7527 -1.3243  0.3323
14365SOL    HW244818   3.609   7.480   4.678 -0.2133  0.5191 -0.0098
14366SOL     OW44819   7.873   0.732   8.333  0.4000  0.5775  0.2477
14366SOL    HW144820   7.832   0.756   8.250 -0.2050  0.4906  0.5156
14366SOL    HW244821   7.951   0.682   8.307 -1.0671 -1.5890 -0.2759
14367SOL     OW44822   0.959   2.519   7.873  0.6258  0.0751 -0.1267
14367SOL    HW144823   0.882   2.473   7.840  0.5224 -0.2063  0.4833
14367SOL    HW244824   0.945   2.610   7.848  1.1839 -0.3123 -1.9919
14368SOL     OW44825   5.714   5.318   6.702 -0.6167  0.3037 -0.3438
14368SOL    HW144826   5.739   5.277   6.619 -0.5830  0.5602 -0.4618
14368SOL    HW244827   5.767   5.398   6.706 -1.9285  1.2378 -0.9436
14369SOL     OW44828   1.529   3.166   0.684 -0.3162  0.2867 -0.7912
14369SOL    HW144829   1.590   3.194   0.752 -0.8075  1.9541 -0.9801
14369SOL    HW244830   1.561   3.209   0.604 -0.9435  0.0731 -1.1689
14370SOL     OW44831   0.709   1.667   3.205  0.6360 -0.6974 -0.3427
14370SOL    HW144832   0.775   1.639   3.142  1.5882  0.2458  0.1984
14370SOL    HW244833   0.756   1.675   3.287 -0.0028  0.6156 -0.0791
14371SOL     OW44834   5.462   6.310   0.736  0.1797  0.5566 -0.6416
14371SOL    HW144835   5.520   6.358   0.795 -2.1306  0.9531  1.5201
14371SOL    HW244836   5.486   6.218   0.748  0.8047  0.7623 -0.2792
14372SOL     OW44837   6.302   1.836   7.278  0.0957  0.5527  0.4991
14372SOL    HW144838   6.336   1.803   7.195 -0.0276  0.9746  0.2820
14372SOL    HW244839   6.295   1.930   7.267 -1.5813  0.4557  0.3624
14373SOL     OW44840   3.512   4.946   9.026  0.0908  0.4524 -0.7092
14373SOL    HW144841   3.463   4.940   9.108 -0.7464  1.0901 -1.1549
14373SOL    HW244842   3.467   4.885   8.967  1.9817 -1.6938 -0.1003
14374SOL     OW44843   9.111   3.493   5.897 -0.4546 -0.4367  0.3321
14374SOL    HW144844   9.053   3.472   5.970 -0.9917 -2.2098 -0.5380
14374SOL    HW244845   9.052   3.502   5.822  0.1738  0.4028 -0.0830
14375SOL     OW44846   3.340   5.286   3.129 -0.6087  0.3030  0.3234
14375SOL    HW144847   3.379   5.346   3.064 -1.7802  1.0842  0.2980
14375SOL    HW244848   3.250   5.318   3.139 -1.1793 -1.2975  0.5330
14376SOL     OW44849   4.585   5.504   5.479  0.1191  0.0479 -0.6268
14376SOL    HW144850   4.644   5.504   5.554 -1.9384 -0.2922  1.1219
14376SOL    HW244851   4.578   5.596   5.453  0.4862  0.2354 -0.0765
14377SOL     OW44852   6.254   1.202   2.881  0.6556 -0.2261 -0.0879
14377SOL    HW144853   6.222   1.291   2.896  1.2095  0.2233 -1.4691
14377SOL    HW244854   6.334   1.197   2.933  1.0806  0.3731 -0.6787
14378SOL     OW44855   1.209   9.580   4.265  0.2312  0.2159  0.2693
14378SOL    HW144856   1.196   9.555   4.357 -1.2082  1.6894  0.5209
14378SOL    HW244857   1.139   9.643   4.248 -0.1029 -0.7164 -2.1386
14379SOL     OW44858   2.827   6.947   9.481 -0.0176  0.3148  0.2186
14379SOL    HW144859   2.742   6.906   9.462  0.7766 -1.4922  0.3794
14379SOL    HW244860   2.816   6.987   9.567 -0.5155 -0.5361  0.5706
14380SOL     OW44861   5.039   5.763   7.862 -0.2654  0.2339  0.1969
14380SOL    HW144862   4.998   5.683   7.831  0.1191  0.2466 -0.3692
14380SOL    HW244863   5.132   5.751   7.843 -0.2888  1.1033 -0.5750
14381SOL     OW44864   0.571   9.136   7.840  0.2136 -0.4179  0.0746
14381SOL    HW144865   0.580   9.230   7.825 -1.7289 -0.4246 -1.4598
14381SOL    HW244866   0.551   9.128   7.933 -0.6289  0.7895  0.0161
14382SOL     OW44867   0.955   1.553   1.223 -0.4373 -0.3867  0.3612
14382SOL    HW144868   0.966   1.599   1.139 -0.8100 -0.7788  0.0926
14382SOL    HW244869   1.003   1.606   1.286 -0.8557  0.3760  0.0554
14383SOL     OW44870   8.299   6.648   0.086 -0.1206  0.0935 -0.3801
14383SOL    HW144871   8.241   6.677   0.016  0.7814 -1.1847 -1.7285
14383SOL    HW244872   8.271   6.559   0.105 -0.8539  0.6732  1.4910
14384SOL     OW44873   3.670   7.089   2.318  0.3350  0.0729  0.4009
14384SOL    HW144874   3.664   7.116   2.226  0.2540 -0.1030  0.3542
14384SOL    HW244875   3.682   7.171   2.366 -1.8347  0.4169  0.4462
14385SOL     OW44876   1.352   8.268   8.917 -0.9801  0.3302  0.2599
14385SOL    HW144877   1.366   8.243   9.008 -1.7561 -2.2052 -0.2461
14385SOL    HW244878   1.434   8.245   8.873 -2.0234 -2.4650 -0.3855
14386SOL     OW44879   7.643   1.461   7.174  0.5446  0.5241 -0.2026
14386SOL    HW144880   7.699   1.384   7.179 -1.1490 -0.7151  0.5492
14386SOL    HW244881   7.690   1.522   7.116  0.2404 -2.5094 -4.0508
14387SOL     OW44882   8.125   7.809   4.894 -0.0128  0.2010 -0.1867
14387SOL    HW144883   8.139   7.825   4.801  1.0621 -1.2658 -0.3176
14387SOL    HW244884   8.177   7.876   4.938  1.1835 -0.3558 -0.6825
14388SOL     OW44885   1.205   1.831   7.403 -0.6843  0.2439  0.2010
14388SOL    HW144886   1.270   1.883   7.355 -0.9837 -0.5983 -1.1597
14388SOL    HW244887   1.127   1.834   7.348 -0.4562 -2.3347 -0.3640
14389SOL     OW44888   0.607   8.340   2.537  0.1080  0.1946 -0.1932
14389SOL    HW144889   0.667   8.266   2.525  0.4696  0.5383 -0.5394
14389SOL    HW244890   0.549   8.337   2.461  0.8906  0.9738 -0.8342
14390SOL     OW44891   7.436   5.440   6.857 -0.0084  0.4831 -0.4924
14390SOL    HW144892   7.390   5.515   6.893 -1.7653  0.7372 -2.9735
14390SOL    HW244893   7.473   5.472   6.775  1.3496 -0.7507 -0.4021
14391SOL     OW44894   7.791   4.654   1.561  0.2318  0.8182  0.5322
14391SOL    HW144895   7.701   4.665   1.592  0.5517 -0.8595  2.2502
14391SOL    HW244896   7.783   4.605   1.479 -0.5423  3.9002 -1.4112
14392SOL     OW44897   4.339   1.727   8.511 -0.1934 -0.1026 -0.0754
14392SOL    HW144898   4.302   1.664   8.450  0.7108 -1.0551  0.3225
14392SOL    HW244899   4.274   1.735   8.580 -0.7740  0.2047 -0.6547
14393SOL     OW44900   3.325   0.357   5.859  0.5172  0.4827 -0.0209
14393SOL    HW144901   3.256   0.316   5.806  0.5471 -1.0862  1.0638
14393SOL    HW244902   3.380   0.402   5.796 -0.1974 -0.1950 -1.1786
14394SOL     OW44903   6.515   0.509   5.361 -0.6156  0.1402  0.0051
14394SOL    HW144904   6.479   0.421   5.348  0.9766 -0.6435  0.6044
14394SOL    HW244905   6.600   0.494   5.402  0.3131  1.9096 -1.1679
14395SOL     OW44906   4.926   1.916   9.607  0.2262  0.1428  0.2107
14395SOL    HW144907   4.882   1.837   9.575  0.7113  0.7389 -2.0472
14395SOL    HW244908   5.015   1.887   9.628  0.7989  0.2874 -1.8394
14396SOL     OW44909   5.095   4.509   5.201 -0.1692 -0.7289  0.4733
14396SOL    HW144910   5.125   4.423   5.232 -1.7601 -1.1329  0.9504
14396SOL    HW244911   5.000   4.508   5.214 -0.0930  1.6282  1.8153
14397SOL     OW44912   5.418   0.428   6.847 -0.0952 -0.0304  0.4347
14397SOL    HW144913   5.393   0.519   6.863  3.0446  0.7006  1.9421
14397SOL    HW244914   5.351   0.377   6.891 -2.9037  1.3636 -1.8630
14398SOL     OW44915   4.748   2.992   4.169  0.7395  0.3907 -0.0648
14398SOL    HW144916   4.774   2.916   4.117  0.4549  0.1269  0.1737
14398SOL    HW244917   4.730   2.957   4.256 -0.5590  0.5230 -0.2585
14399SOL     OW44918   1.937   0.480   2.247  0.6020 -0.3803  0.6085
14399SOL    HW144919   1.949   0.555   2.189  1.1562 -0.1243  1.0427
14399SOL    HW244920   2.022   0.435   2.247  0.6555 -0.2996  1.3217
14400SOL     OW44921   2.533   3.281   6.065 -0.0379  0.5345  0.5646
14400SOL    HW144922   2.566   3.362   6.026  1.8437 -0.2300  0.4851
14400SOL    HW244923   2.545   3.215   5.996 -1.0933  0.0730  0.7989
14401SOL     OW44924   5.978   6.249   1.400 -0.0622  0.3513  0.4232
14401SOL    HW144925   5.930   6.217   1.476 -0.7500  2.4531  0.9457
14401SOL    HW244926   5.959   6.185   1.331 -2.9797  0.6259  0.8407
14402SOL     OW44927   8.277   4.784   5.308  0.2111  0.2903  0.2804
14402SOL    HW144928   8.260   4.825   5.393 -0.5944 -0.2728  0.4094
14402SOL    HW244929   8.190   4.772   5.270  0.4405 -1.1394  0.1784
14403SOL     OW44930   2.136   8.243   9.640 -0.3860 -0.5307  1.0111
14403SOL    HW144931   2.158   8.163   9.687  1.1775  0.6217  2.3574
14403SOL    HW244932   2.214   8.264   9.589 -0.7238  0.2170  0.7823
14404SOL     OW44933   5.106   6.013   8.729  0.4574  0.1067  0.0625
14404SOL    HW144934   5.023   5.966   8.737 -0.1998  1.3439  1.0510
14404SOL    HW244935   5.136   6.023   8.820  1.3011  0.3228 -0.2343
14405SOL     OW44936   9.580   5.332   3.315 -0.2827  0.7770 -0.3299
14405SOL    HW144937   9.581   5.259   3.376 -0.5337 -0.6390 -1.9210
14405SOL    HW244938   9.672   5.353   3.300  0.0127 -1.3190 -2.1266
14406SOL     OW44939   1.410   6.160   5.002 -0.2656 -0.6914 -0.3927
14406SOL    HW144940   1.331   6.123   4.964  0.0841 -0.4265 -1.4196
14406SOL    HW244941   1.416   6.248   4.965 -0.6314  0.1208  1.3496
14407SOL     OW44942   3.832   8.150   4.218 -0.5621 -0.2414  0.6330
14407SOL    HW144943   3.891   8.223   4.200 -2.0663  0.5310 -1.5758
14407SOL    HW244944   3.751   8.191   4.248 -1.5194 -0.9095 -0.9038
14408SOL     OW44945   3.482   0.641   0.632  0.8242  0.0153  0.1324
14408SOL    HW144946   3.552   0.619   0.693  1.0533  0.8543  0.1879
14408SOL    HW244947   3.405   0.597   0.667  0.6980  1.3478  1.6506
14409SOL     OW44948   8.755   2.266   5.469 -0.3975  0.7835 -0.0745
14409SOL    HW144949   8.821   2.311   5.416  0.7239  0.1844  0.7582
14409SOL    HW244950   8.672   2.298   5.436  0.3301  2.8015 -0.1177
14410SOL     OW44951   4.963   8.993   2.870  0.1522 -0.4292  0.0350
14410SOL    HW144952   4.982   8.966   2.960 -1.0375 -1.0776  0.1177
14410SOL    HW244953   4.974   8.913   2.818 -0.1510 -0.2969 -0.2368
14411SOL     OW44954   6.072   8.706   4.729  0.0103  0.2988 -0.1161
14411SOL    HW144955   6.120   8.675   4.806 -0.8130  0.0920  0.3228
14411SOL    HW244956   6.085   8.801   4.729  0.4797  0.2373 -0.0476
14412SOL     OW44957   0.878   8.084   0.532 -0.3678 -0.8249  0.5025
14412SOL    HW144958   0.901   7.994   0.554  0.1175 -1.0552 -0.8509
14412SOL    HW244959   0.811   8.076   0.464  0.2186 -0.1731 -0.1625
14413SOL     OW44960   7.779   7.987   9.545 -0.0704 -0.2394 -0.3163
14413SOL    HW144961   7.734   8.068   9.521  0.5002  0.2365  0.2022
14413SOL    HW244962   7.773   7.983   9.640 -0.6503 -1.1376 -0.3837
14414SOL     OW44963   5.533   0.274   4.011  0.3165  0.0531 -0.2958
14414SOL    HW144964   5.539   0.361   3.972 -0.4330  0.2943  0.1086
14414SOL    HW244965   5.442   0.265   4.037  0.5773 -0.5009  0.4795
14415SOL     OW44966   7.538   3.618   7.203  0.1374 -0.0893  0.6086
14415SOL    HW144967   7.481   3.695   7.208  1.5322  0.9469  1.1971
14415SOL    HW244968   7.479   3.546   7.181 -1.3802  0.9341  1.1747
14416SOL     OW44969   2.615   7.085   0.839 -0.1378  0.0339 -0.3675
14416SOL    HW144970   2.678   7.105   0.908  0.3851  1.3299 -1.1937
14416SOL    HW244971   2.630   6.992   0.820 -0.5158 -0.4410  1.4411
14417SOL     OW44972   6.315   2.240   7.520 -0.1150  0.0638  0.2269
14417SOL    HW144973   6.272   2.280   7.596  0.7655  1.1262  0.1876
14417SOL    HW244974   6.404   2.223   7.550 -0.3289 -1.5096  0.0957
14418SOL     OW44975   0.938   7.872   7.963 -0.4660 -0.9207 -0.3171
14418SOL    HW144976   1.003   7.904   7.900 -0.2422 -0.5536  0.0988
14418SOL    HW244977   0.864   7.846   7.909 -1.2370  1.6206 -0.5987
14419SOL     OW44978   5.894   8.778   2.367  0.2452  0.4988 -0.2742
14419SOL    HW144979   5.884   8.686   2.389 -0.2676  0.3111 -1.2382
14419SOL    HW244980   5.812   8.819   2.393  1.7165  1.4647  3.5732
14420SOL     OW44981   1.012   3.136   5.743 -0.2742 -0.3370  0.0504
14420SOL    HW144982   0.920   3.112   5.732 -0.0173 -0.4704 -2.3103
14420SOL    HW244983   1.017   3.226   5.712  0.5415 -0.6690 -0.8280
14421SOL     OW44984   2.741   0.046   3.543 -0.2544  0.2799 -0.0648
14421SOL    HW144985   2.819   0.060   3.490 -0.8016 -0.2161 -1.0398
14421SOL    HW244986   2.679   0.113   3.514 -0.1232  0.8278  0.8767
14422SOL     OW44987   2.493   7.590   5.996 -0.7214 -0.6302  0.0484
14422SOL    HW144988   2.523   7.665   5.945 -0.2810 -0.4087  0.6239
14422SOL    HW244989   2.417   7.623   6.045 -2.0684 -1.2371 -1.5387
14423SOL     OW44990   5.508   5.034   2.861 -0.1438 -0.1332 -0.0945
14423SOL    HW144991   5.513   5.027   2.765 -0.8797  1.3463 -0.2887
14423SOL    HW244992   5.467   5.120   2.875 -1.0787 -0.8048  1.5326
14424SOL     OW44993   3.521   5.051   2.372  0.1628 -0.0547  0.2763
14424SOL    HW144994   3.497   5.098   2.292  2.6255 -0.2151 -0.6730
14424SOL    HW244995   3.587   4.988   2.343  1.0792 -0.1704  2.4319
14425SOL     OW44996   6.568   1.693   3.232  0.4690 -0.0191  0.4313
14425SOL    HW144997   6.492   1.734   3.272 -0.3687 -2.1020  1.1279
14425SOL    HW244998   6.571   1.728   3.143 -0.4413  1.1410  0.8290
14426SOL     OW44999   5.026   7.592   7.278 -0.2136  0.1492 -0.1377
14426SOL    HW145000   5.037   7.678   7.237 -0.5588 -0.0794 -0.7142
14426SOL    HW245001   5.113   7.572   7.314  0.0324  0.4535 -0.5552
14427SOL     OW45002   8.340   8.909   4.329  0.3564 -0.2050  0.6441
14427SOL    HW145003   8.405   8.913   4.399  2.5762 -0.3196 -1.2993
14427SOL    HW245004   8.291   8.991   4.337  1.3684  0.3274  1.5901
14428SOL     OW45005   8.035   2.629   9.338 -0.0960 -0.4644 -0.4530
14428SOL    HW145006   7.995   2.705   9.296 -0.3819 -0.4441 -0.1473
14428SOL    HW245007   8.014   2.555   9.280 -0.3430 -0.4079 -0.4373
14429SOL     OW45008   3.417   5.855   4.180  0.0572  0.5400  0.0081
14429SOL    HW145009   3.500   5.813   4.204  0.3273  1.5904  1.0305
14429SOL    HW245010   3.442   5.931   4.129 -0.3631  0.1373 -0.8160
14430SOL     OW45011   7.889   4.071   1.886  0.5697  0.5838 -0.0331
14430SOL    HW145012   7.962   4.128   1.864  1.0442 -0.6373 -1.9076
14430SOL    HW245013   7.833   4.124   1.942  1.9544  2.1801 -0.0750
14431SOL     OW45014   6.442   7.372   8.369 -0.5990 -0.0730 -0.4542
14431SOL    HW145015   6.352   7.379   8.337 -1.0389  0.0783  0.7915
14431SOL    HW245016   6.488   7.327   8.298 -0.9678  2.4285 -2.4004
14432SOL     OW45017   4.550   8.035   6.813  0.0228  0.6762 -0.0354
14432SOL    HW145018   4.494   8.090   6.758  1.0281  0.9118 -0.8484
14432SOL    HW245019   4.519   8.050   6.902 -0.2791  1.8959 -0.3383
14433SOL     OW45020   1.606   5.029   0.279 -0.4412 -0.4949 -0.1018
14433SOL    HW145021   1.616   5.019   0.185 -0.0719 -1.5188  0.0322
14433SOL    HW245022   1.549   5.105   0.290 -0.8573 -0.6447 -1.1559
14434SOL     OW45023   3.559   3.753   3.691  0.3904 -0.2476  0.0192
14434SOL    HW145024   3.591   3.792   3.773  0.1921 -0.2527  0.1000
14434SOL    HW245025   3.638   3.721   3.647  0.7051  1.2978 -0.6069
14435SOL     OW45026   3.247   8.259   4.511  0.0790 -0.2207 -0.0672
14435SOL    HW145027   3.228   8.190   4.447 -0.3785 -1.4065  1.2807
14435SOL    HW245028   3.208   8.338   4.474 -0.6046 -0.9816 -1.0248
14436SOL     OW45029   5.692   8.194   3.808 -0.2699  0.0005 -0.1017
14436SOL    HW145030   5.597   8.188   3.798 -0.6152  0.7299  2.0860
14436SOL    HW245031   5.708   8.286   3.830  0.6010 -0.6052  2.0666
14437SOL     OW45032   0.207   1.422   6.842 -0.0126  0.1085 -0.0586
14437SOL    HW145033   0.285   1.368   6.840  0.6393  1.0346 -0.3904
14437SOL    HW245034   0.239   1.511   6.856 -1.1240  0.3019  1.5891
14438SOL     OW45035   5.007   1.855   6.979 -0.2500  0.6319  0.5550
14438SOL    HW145036   4.911   1.861   6.976 -0.3504 -0.5513  0.9583
14438SOL    HW245037   5.028   1.784   6.919  0.2852  0.1007  1.3552
14439SOL     OW45038   5.198   4.434   9.463  0.6677  0.1052 -0.6397
14439SOL    HW145039   5.255   4.510   9.479  0.2137  0.7002 -1.7393
14439SOL    HW245040   5.184   4.397   9.549  2.3548  0.2088 -0.2732
14440SOL     OW45041   1.935   1.495   3.609 -0.6143  0.2442  0.1651
14440SOL    HW145042   1.959   1.570   3.554  0.1748  0.3415  0.6189
14440SOL    HW245043   2.018   1.455   3.633 -1.0367 -0.9288 -0.2534
14441SOL     OW45044   6.264   5.723   0.642  0.0749 -0.3744  0.6350
14441SOL    HW145045   6.213   5.737   0.563  0.0921  0.5843  0.7902
14441SOL    HW245046   6.354   5.747   0.617 -0.0013  0.3863  1.0694
14442SOL     OW45047   3.251   2.752   1.663  0.1075  0.1935  0.0219
14442SOL    HW145048   3.293   2.835   1.685  1.8827 -0.4034 -0.8795
14442SOL    HW245049   3.323   2.690   1.654 -1.0056 -1.0267 -1.1174
14443SOL     OW45050   1.734   2.460   3.568  0.0822 -0.5717 -0.1669
14443SOL    HW145051   1.764   2.439   3.479  0.2987 -0.5341 -0.1037
14443SOL    HW245052   1.807   2.508   3.607 -0.0534 -0.4981 -0.0028
14444SOL     OW45053   6.230   6.703   2.528 -0.5463  0.4219  0.4672
14444SOL    HW145054   6.212   6.618   2.569 -1.6622  0.4595  0.0928
14444SOL    HW245055   6.277   6.682   2.447 -0.1322  0.2214  0.7538
14445SOL     OW45056   2.122   5.982   7.497 -0.5714 -0.9299  0.1280
14445SOL    HW145057   2.158   6.020   7.417 -1.1044  0.2137  0.4071
14445SOL    HW245058   2.198   5.967   7.553 -0.0859 -2.5828 -0.9019
14446SOL     OW45059   5.293   5.686   7.787  0.3961 -0.6476 -0.4069
14446SOL    HW145060   5.383   5.713   7.806  0.7650 -0.8050 -1.8431
14446SOL    HW245061   5.279   5.710   7.696 -0.9816 -0.7521 -0.2442
14447SOL     OW45062   7.564   3.990   2.090  0.2089 -0.2600  0.2663
14447SOL    HW145063   7.516   4.071   2.105  0.1814  0.1594 -1.8534
14447SOL    HW245064   7.498   3.921   2.096 -0.0597  0.0154  0.4758
14448SOL     OW45065   7.805   3.445   1.201  0.5055  0.0319 -0.2775
14448SOL    HW145066   7.838   3.534   1.189  0.7711  0.5230  3.1449
14448SOL    HW245067   7.748   3.430   1.126  1.8299  2.3980 -1.8692
14449SOL     OW45068   4.510   3.065   5.028  0.5284 -0.3418  0.2284
14449SOL    HW145069   4.441   3.109   5.078  0.5631 -0.1301  0.0899
14449SOL    HW245070   4.504   3.102   4.940  0.3406 -0.8574  0.0197
14450SOL     OW45071   5.129   1.283   6.373 -0.0470 -0.2270  0.4275
14450SOL    HW145072   5.045   1.297   6.418 -0.8434 -0.8463 -0.8225
14450SOL    HW245073   5.195   1.291   6.443 -1.1609 -0.1368  1.5053
14451SOL     OW45074   8.939   0.480   5.087 -0.3499  0.4590  0.5931
14451SOL    HW145075   8.923   0.414   5.020 -0.7106  0.2576  0.8749
14451SOL    HW245076   8.966   0.431   5.164  0.5957  0.7288  0.4390
14452SOL     OW45077   6.081   7.487   1.068 -0.3664 -0.2150 -0.1704
14452SOL    HW145078   6.064   7.395   1.049  1.6128 -0.2145 -2.4794
14452SOL    HW245079   6.066   7.532   0.985  0.3159  1.2734  0.4643
14453SOL     OW45080   0.947   8.610   1.911  0.4389 -0.3216 -0.3750
14453SOL    HW145081   1.012   8.569   1.854  1.5394  2.5156 -1.3275
14453SOL    HW245082   0.880   8.642   1.851  0.6752  1.0842  0.0786
14454SOL     OW45083   0.699   5.813   1.637 -0.1558 -0.3430 -0.1688
14454SOL    HW145084   0.606   5.819   1.656 -0.8250  1.6168 -3.2795
14454SOL    HW245085   0.743   5.838   1.718 -2.4612  1.9223  0.5026
14455SOL     OW45086   1.632   5.956   7.648 -0.4748  0.9201 -0.0255
14455SOL    HW145087   1.588   5.871   7.644  0.4518  0.1585  3.1420
14455SOL    HW245088   1.725   5.936   7.641  0.0974  0.9991  4.3069
14456SOL     OW45089   6.130   0.616   9.437  0.7083  0.3353 -0.2494
14456SOL    HW145090   6.154   0.637   9.346 -0.9403 -0.1810 -0.8491
14456SOL    HW245091   6.111   0.523   9.436  1.4981  0.1460  0.8483
14457SOL     OW45092   7.188   5.920   9.414  0.2676  0.5324  0.1278
14457SOL    HW145093   7.257   5.916   9.480  0.4875  0.5792 -0.0967
14457SOL    HW245094   7.129   5.990   9.444 -0.6181 -0.6487  1.2160
14458SOL     OW45095   0.547   1.280   7.009 -0.2199 -0.8126 -0.0076
14458SOL    HW145096   0.600   1.351   6.972  0.6330 -0.8584  1.0868
14458SOL    HW245097   0.541   1.300   7.102 -0.8664 -1.6193  0.1360
14459SOL     OW45098   7.164   0.303   2.880 -0.1106  0.5979 -0.1453
14459SOL    HW145099   7.165   0.210   2.857 -1.6750  0.0823  1.6180
14459SOL    HW245100   7.247   0.318   2.926  0.0796  0.0417 -0.3058
14460SOL     OW45101   2.555   5.515   0.274  0.2570 -0.3920 -0.3239
14460SOL    HW145102   2.645   5.544   0.257 -0.3241  1.8715  0.1894
14460SOL    HW245103   2.511   5.523   0.189  0.1250  0.1411 -0.2068
14461SOL     OW45104   1.231   0.741   0.789 -0.1553  0.4075  0.0101
14461SOL    HW145105   1.140   0.723   0.768 -0.3885 -0.9956  1.9101
14461SOL    HW245106   1.232   0.752   0.884  1.3230  2.7601 -0.1886
14462SOL     OW45107   4.777   6.130   8.670  0.4004  0.0924  0.0825
14462SOL    HW145108   4.841   6.146   8.601 -0.0285 -1.7038 -0.7870
14462SOL    HW245109   4.692   6.138   8.627  0.1334 -1.9114  0.1325
14463SOL     OW45110   5.809   9.662   7.442 -0.1603 -0.9274  0.0881
14463SOL    HW145111   5.806   9.690   7.533 -0.7787 -0.2526 -0.1252
14463SOL    HW245112   5.902   9.654   7.422  0.0457  0.7123  0.2561
14464SOL     OW45113   1.831   0.929   8.129 -0.0896  0.4107  0.0402
14464SOL    HW145114   1.791   0.907   8.213  0.6480 -2.9740 -0.3382
14464SOL    HW245115   1.764   0.979   8.083 -1.1454  0.9088  1.9959
14465SOL     OW45116   0.421   0.847   4.953 -0.5108 -0.1611 -0.0774
14465SOL    HW145117   0.328   0.859   4.932 -0.1535  1.6101 -0.8508
14465SOL    HW245118   0.425   0.852   5.048 -1.0225  1.7465 -0.1087
14466SOL     OW45119   4.964   4.546   6.330  0.1731 -0.1606 -0.2796
14466SOL    HW145120   5.025   4.611   6.296 -0.3524  1.1153  1.1180
14466SOL    HW245121   5.016   4.466   6.340  0.7358 -0.1190 -2.3950
14467SOL     OW45122   8.647   0.388   9.402 -0.8570  0.1711 -0.0667
14467SOL    HW145123   8.705   0.462   9.382 -1.7249  0.2926 -2.4634
14467SOL    HW245124   8.647   0.383   9.498  1.6839  1.2681  0.0811
14468SOL     OW45125   5.993   1.363   8.861 -0.4731 -0.2265 -0.1183
14468SOL    HW145126   5.947   1.436   8.902 -0.9453 -0.9173  0.6129
14468SOL    HW245127   6.076   1.400   8.833 -0.5721  0.5134  0.5313
14469SOL     OW45128   4.326   5.354   9.367 -0.0922  0.5511 -0.0564
14469SOL    HW145129   4.240   5.343   9.326  0.9764 -2.1997 -1.8063
14469SOL    HW245130   4.374   5.411   9.307 -0.1803  0.8008  0.1079
14470SOL     OW45131   0.039   4.653   4.118 -0.4738 -0.4085  0.0140
14470SOL    HW145132   0.087   4.673   4.199 -0.2126 -1.1355  0.0423
14470SOL    HW245133   0.107   4.624   4.057 -0.4194  1.7517 -1.0335
14471SOL     OW45134   5.899   4.235   5.884 -0.4115  0.0809 -0.7962
14471SOL    HW145135   5.928   4.262   5.972 -1.2142 -1.9983  0.1770
14471SOL    HW245136   5.877   4.317   5.840  0.6023  1.2350  0.7180
14472SOL     OW45137   8.174   3.961   6.689  0.3201 -0.1853  0.0602
14472SOL    HW145138   8.117   4.015   6.744 -0.5098 -1.5553  0.6119
14472SOL    HW245139   8.196   4.016   6.614  0.8483  1.4719  1.3674
14473SOL     OW45140   7.212   3.155   9.554 -0.2852  0.7986  0.4612
14473SOL    HW145141   7.172   3.212   9.619 -1.5278 -0.6865  1.0632
14473SOL    HW245142   7.256   3.087   9.605 -0.5749  0.0769 -0.2226
14474SOL     OW45143   7.810   4.244   9.287  0.2106  0.4424  0.3121
14474SOL    HW145144   7.846   4.316   9.236  2.5276  0.3859  1.7483
14474SOL    HW245145   7.771   4.286   9.364  1.2387  0.2167  0.9698
14475SOL     OW45146   8.662   5.051   4.034  0.0302 -0.0044 -0.2436
14475SOL    HW145147   8.679   4.996   4.110 -0.2304  0.5387  0.2111
14475SOL    HW245148   8.645   4.989   3.963  3.6851 -0.6787 -0.7692
14476SOL     OW45149   0.643   0.476   5.438  0.1628 -0.4315  0.1765
14476SOL    HW145150   0.607   0.478   5.527  0.3814 -0.1777  0.2606
14476SOL    HW245151   0.669   0.385   5.425 -0.8727 -0.7109 -0.0346
14477SOL     OW45152   8.903   6.429   2.048 -0.1759 -0.3734 -0.9059
14477SOL    HW145153   8.811   6.405   2.057 -0.3180 -0.2912 -1.9367
14477SOL    HW245154   8.950   6.363   2.098 -0.8394  0.2022  0.5377
14478SOL     OW45155   2.388   1.352   2.682 -0.0910 -0.0833  0.5970
14478SOL    HW145156   2.464   1.302   2.651 -0.5675  0.2515 -1.2193
14478SOL    HW245157   2.422   1.403   2.756  1.6319  0.4715 -0.5051
14479SOL     OW45158   9.067   6.071   1.231  0.5364  0.0812 -0.4449
14479SOL    HW145159   9.145   6.040   1.277  0.4926  0.6307  0.0071
14479SOL    HW245160   8.994   6.045   1.288  0.5441  1.7426  0.3889
14480SOL     OW45161   7.827   0.445   5.216  0.2801 -0.0861 -0.1266
14480SOL    HW145162   7.806   0.459   5.308  2.5109 -0.5740  0.5242
14480SOL    HW245163   7.880   0.520   5.192 -0.4129  0.1116 -1.0841
14481SOL     OW45164   2.530   2.016   0.541 -0.2029  0.2818  0.2140
14481SOL    HW145165   2.528   1.988   0.633 -1.3811 -2.8272 -0.6299
14481SOL    HW245166   2.608   1.975   0.505 -0.9552 -0.4288 -0.6540
14482SOL     OW45167   5.398   3.099   1.511  0.3706 -0.8883 -0.5512
14482SOL    HW145168   5.306   3.118   1.494  0.5062  0.6236  0.2222
14482SOL    HW245169   5.399   3.054   1.595  0.2457 -2.2637 -1.2566
14483SOL     OW45170   4.457   9.019   6.484 -0.2001 -0.0382  0.5143
14483SOL    HW145171   4.381   8.973   6.448  0.7025  0.2641 -1.9490
14483SOL    HW245172   4.520   8.950   6.504 -0.1798 -0.1352  0.1321
14484SOL     OW45173   1.608   3.262   9.374  0.2805 -0.2384 -0.5507
14484SOL    HW145174   1.697   3.279   9.344  0.4044 -0.3290 -0.2450
14484SOL    HW245175   1.614   3.181   9.424  0.0535 -0.1763 -0.4183
14485SOL     OW45176   2.115   2.254   6.936  0.0753  0.1966  0.6138
14485SOL    HW145177   2.026   2.239   6.902 -1.0047 -0.1140  3.3474
14485SOL    HW245178   2.167   2.184   6.897 -0.6709  0.7842 -1.5890
14486SOL     OW45179   4.289   4.489   7.743 -0.3982 -0.1664 -0.2401
14486SOL    HW145180   4.274   4.548   7.670  2.1117  1.7981  0.6642
14486SOL    HW245181   4.253   4.536   7.819 -1.2812 -1.3200  0.0818
14487SOL     OW45182   7.649   3.009   4.258 -0.0998  0.8641  0.1368
14487SOL    HW145183   7.649   2.921   4.221 -0.3671  1.2519 -0.8247
14487SOL    HW245184   7.632   2.996   4.351  0.9510 -0.1769  0.2156
14488SOL     OW45185   7.997   5.390   6.008  0.3673 -0.2103 -0.1070
14488SOL    HW145186   8.030   5.373   5.919  1.9472 -2.1046  0.7623
14488SOL    HW245187   8.037   5.473   6.033  0.6840 -0.1354 -0.8292
14489SOL     OW45188   7.255   7.104   9.088 -0.4429 -0.7156  0.2054
14489SOL    HW145189   7.203   7.119   9.008 -0.6671  1.2434  0.6586
14489SOL    HW245190   7.270   7.192   9.122 -0.6913 -1.5342  2.5611
14490SOL     OW45191   6.716   1.206   2.053  0.2455 -0.3666 -0.2362
14490SOL    HW145192   6.761   1.275   2.102  0.3225 -0.7435  0.2362
14490SOL    HW245193   6.786   1.146   2.027  0.1497 -0.3958 -0.4262
14491SOL     OW45194   3.705   2.962   5.125 -0.2521  0.4875 -1.0620
14491SOL    HW145195   3.707   2.866   5.115  1.0046  0.2760  0.7533
14491SOL    HW245196   3.630   2.978   5.182  0.5595  0.3896  0.0630
14492SOL     OW45197   3.916   7.609   3.098  0.4329  0.0932 -0.9446
14492SOL    HW145198   3.936   7.519   3.072  2.1540 -0.1285  0.8226
14492SOL    HW245199   3.999   7.656   3.085  0.2513  0.8288  0.3698
14493SOL     OW45200   2.888   2.460   4.299  0.2653 -0.0013  0.1207
14493SOL    HW145201   2.855   2.537   4.254  1.7578  0.6764  0.1452
14493SOL    HW245202   2.895   2.486   4.390  1.7614  0.1870 -0.0374
14494SOL     OW45203   7.103   4.445   7.670  0.2933  0.4862  0.3755
14494SOL    HW145204   7.038   4.385   7.632  0.7359  0.4732 -0.3845
14494SOL    HW245205   7.134   4.497   7.595  0.8711  0.7620  0.7999
14495SOL     OW45206   5.148   0.561   5.669  0.6523 -0.0402 -0.1735
14495SOL    HW145207   5.114   0.476   5.697  1.5928 -0.1809  0.5885
14495SOL    HW245208   5.186   0.599   5.748 -1.5314  2.0064  0.0163
14496SOL     OW45209   5.913   2.279   1.719 -0.2892 -0.0577  0.4962
14496SOL    HW145210   5.948   2.191   1.704  1.1623  0.6111 -0.1853
14496SOL    HW245211   5.838   2.285   1.660 -0.5945 -0.9312  0.7716
14497SOL     OW45212   5.876   7.195   5.837  0.5972 -0.1223  0.1717
14497SOL    HW145213   5.805   7.225   5.780  0.4661 -0.1564  0.3145
14497SOL    HW245214   5.870   7.100   5.834  0.0227 -0.1204  0.9368
14498SOL     OW45215   9.151   2.398   2.236  0.0433 -0.2914 -0.0787
14498SOL    HW145216   9.236   2.400   2.193 -0.0376 -1.1134 -0.3080
14498SOL    HW245217   9.108   2.479   2.209  1.1035  0.6024  0.8162
14499SOL     OW45218   8.215   3.177   6.590  0.9623  0.2188 -0.7068
14499SOL    HW145219   8.186   3.263   6.561  0.0401 -0.5920 -2.3397
14499SOL    HW245220   8.300   3.164   6.548  1.9206  0.9698  0.8926
14500SOL     OW45221   7.448   1.834   7.486 -0.1148 -0.2808 -0.4370
14500SOL    HW145222   7.471   1.924   7.510  1.1449 -0.7473  0.2016
14500SOL    HW245223   7.441   1.836   7.390  1.0639  0.2762 -0.5382
14501SOL     OW45224   2.209   6.653   3.694 -0.2052  0.5710  0.0492
14501SOL    HW145225   2.202   6.741   3.656  0.5060  0.7922  0.4068
14501SOL    HW245226   2.302   6.643   3.713 -0.4797  0.2950  1.3405
14502SOL     OW45227   5.420   6.813   1.970  0.0764 -0.6783 -0.3852
14502SOL    HW145228   5.422   6.728   2.013  1.7347 -0.2396  0.4874
14502SOL    HW245229   5.504   6.854   1.992 -0.2376  0.7675 -1.6410
14503SOL     OW45230   6.594   3.644   5.995  0.3533  0.3275 -0.4935
14503SOL    HW145231   6.584   3.564   6.047 -3.0082  0.3572 -0.8824
14503SOL    HW245232   6.595   3.715   6.059  0.4999  0.1364 -0.2823
14504SOL     OW45233   4.769   1.057   0.401 -0.1357  0.1795  0.0359
14504SOL    HW145234   4.783   1.129   0.340 -0.1393  0.1515  0.0024
14504SOL    HW245235   4.848   1.056   0.455  0.5281 -0.7391 -0.9145
14505SOL     OW45236   1.963   5.484   4.846 -0.1650 -0.2456 -0.3262
14505SOL    HW145237   1.975   5.394   4.878  1.3020  0.0340 -0.0237
14505SOL    HW245238   2.022   5.490   4.771  1.6240  1.1601  1.1077
14506SOL     OW45239   2.320   6.721   9.386  0.1220 -0.9145  0.1958
14506SOL    HW145240   2.248   6.661   9.404 -1.0534 -0.2334 -1.8079
14506SOL    HW245241   2.296   6.801   9.433 -0.0881 -0.9153  0.0936
14507SOL     OW45242   1.897   2.018   8.538  0.5527 -0.2660 -0.2258
14507SOL    HW145243   1.857   1.943   8.494 -2.3541  0.2976  1.1969
14507SOL    HW245244   1.931   1.984   8.620  1.6588 -0.4547 -0.7427
14508SOL     OW45245   1.246   9.090   4.998  0.2932 -0.0279 -0.1450
14508SOL    HW145246   1.206   9.142   5.067  1.3707  1.7672 -0.7930
14508SOL    HW245247   1.173   9.062   4.942 -0.4520 -0.5293  1.0481
14509SOL     OW45248   5.001   5.026   7.684 -0.2789  0.1090 -0.3795
14509SOL    HW145249   5.075   5.068   7.728  0.1584 -0.0599 -0.9432
14509SOL    HW245250   5.036   4.943   7.652 -1.2130 -0.8731  1.0007
14510SOL     OW45251   4.704   6.445   4.233  0.2669 -0.1631 -0.0572
14510SOL    HW145252   4.691   6.351   4.222 -0.7549  0.0706 -1.0231
14510SOL    HW245253   4.781   6.466   4.181 -0.3687 -0.2405 -1.0502
14511SOL     OW45254   7.424   3.723   2.321 -0.3664  0.4971 -0.2771
14511SOL    HW145255   7.439   3.751   2.231  0.5992  1.3134  0.1122
14511SOL    HW245256   7.431   3.628   2.318  1.4437  0.6173 -0.7743
14512SOL     OW45257   4.130   7.354   5.227 -0.3796  0.2692  0.0627
14512SOL    HW145258   4.036   7.341   5.244 -0.0796 -0.3255  1.4186
14512SOL    HW245259   4.144   7.447   5.242 -1.0184  0.6913 -1.6859
14513SOL     OW45260   4.481   0.936   8.771 -0.4317 -0.7964  0.2094
14513SOL    HW145261   4.515   0.850   8.795 -0.1422 -0.2295  1.9728
14513SOL    HW245262   4.518   0.995   8.836 -2.8985  0.2174  0.7975
14514SOL     OW45263   7.234   0.383   8.106 -0.1613  0.8410 -0.2712
14514SOL    HW145264   7.254   0.308   8.162 -1.1758  2.1310  1.9110
14514SOL    HW245265   7.138   0.390   8.109 -0.1564  1.6241 -1.2872
14515SOL     OW45266   6.797   8.720   7.353  0.1788  0.6185 -0.2075
14515SOL    HW145267   6.741   8.748   7.425 -1.6133 -2.5297 -0.1802
14515SOL    HW245268   6.778   8.781   7.282 -2.0274  0.6917  0.3751
14516SOL     OW45269   0.072   3.454   0.893 -0.1406  0.1917 -0.4887
14516SOL    HW145270   0.083   3.549   0.893  0.4155  0.1394  0.2917
14516SOL    HW245271   0.148   3.421   0.942 -0.0797 -0.6848 -1.1467
14517SOL     OW45272   1.638   2.150   6.743 -0.8626 -0.0661  0.3385
14517SOL    HW145273   1.732   2.157   6.728 -0.6435 -0.4685  1.4777
14517SOL    HW245274   1.625   2.185   6.831 -1.9459  1.0946 -0.2493
14518SOL     OW45275   8.177   1.063   8.558 -0.3510  0.0825  0.1642
14518SOL    HW145276   8.196   1.156   8.569  3.2066 -0.3908 -0.7265
14518SOL    HW245277   8.117   1.060   8.483  0.8867  1.6294 -0.9669
14519SOL     OW45278   4.357   5.185   5.767 -0.3240  0.0376  0.1240
14519SOL    HW145279   4.282   5.173   5.710 -0.3812  0.5983  0.0786
14519SOL    HW245280   4.433   5.167   5.712 -0.4443 -3.4251  0.8494
14520SOL     OW45281   0.069   8.861   8.772  0.1383  0.3591  0.5105
14520SOL    HW145282   0.062   8.957   8.771  1.5998  0.5126 -2.0365
14520SOL    HW245283  -0.021   8.831   8.759 -0.2405  1.3806  0.6219
14521SOL     OW45284   9.624   8.168   3.919  0.3113 -0.1533  0.4391
14521SOL    HW145285   9.627   8.120   3.836  0.9973  0.9338 -0.1933
14521SOL    HW245286   9.539   8.144   3.957  0.3478 -1.3216 -0.1629
14522SOL     OW45287   0.883   0.978   5.931  0.1759  0.1718 -0.0022
14522SOL    HW145288   0.954   0.962   5.869  0.0670 -1.9095  0.3413
14522SOL    HW245289   0.811   1.011   5.877  0.7936  0.5202 -0.6327
14523SOL     OW45290   2.041   8.182   2.347  0.5339  0.5765 -0.7986
14523SOL    HW145291   2.091   8.117   2.296 -0.1057  1.4210 -2.5920
14523SOL    HW245292   2.029   8.255   2.287 -0.3951  1.5803  0.5587
14524SOL     OW45293   5.354   3.857   7.936 -0.0110  0.6157  0.3816
14524SOL    HW145294   5.284   3.917   7.963 -0.2222  0.0462  1.1239
14524SOL    HW245295   5.341   3.847   7.841 -0.4005  1.1892  0.3639
14525SOL     OW45296   6.097   1.528   3.384 -0.1493  0.5006 -0.6717
14525SOL    HW145297   6.149   1.527   3.465  0.9386 -0.0969 -1.3473
14525SOL    HW245298   6.009   1.503   3.412  0.3929 -0.4931  0.2290
14526SOL     OW45299   1.538   7.845   3.945  0.1378  0.3651  0.3581
14526SOL    HW145300   1.613   7.797   3.910 -0.9382 -1.2287  0.1385
14526SOL    HW245301   1.485   7.779   3.990 -1.4744  1.3025 -0.0449
14527SOL     OW45302   8.177   9.225   2.150 -0.2725  0.9699  0.4997
14527SOL    HW145303   8.099   9.169   2.152  1.0540 -1.0215 -0.8739
14527SOL    HW245304   8.239   9.183   2.209  0.2569  1.8136  0.5623
14528SOL     OW45305   1.885   4.254   2.462  0.0806 -0.2363  0.4914
14528SOL    HW145306   1.898   4.188   2.530  0.1801 -1.2628 -0.5018
14528SOL    HW245307   1.972   4.268   2.425 -0.1575 -0.5349 -0.1905
14529SOL     OW45308   9.321   5.076   1.822 -0.0611 -0.3840  0.2552
14529SOL    HW145309   9.353   5.064   1.733 -1.8799 -1.8831 -0.2545
14529SOL    HW245310   9.229   5.102   1.811  0.1864  1.3550  1.6950
14530SOL     OW45311   2.610   7.524   4.866  0.8030 -0.4821 -0.8678
14530SOL    HW145312   2.585   7.599   4.811  1.7102 -0.3182 -1.0817
14530SOL    HW245313   2.599   7.555   4.956  1.6536  0.1048 -0.9447
14531SOL     OW45314   2.292   6.386   5.958 -0.1727 -0.0423 -0.0473
14531SOL    HW145315   2.269   6.478   5.944 -0.1727  0.0285  0.4145
14531SOL    HW245316   2.370   6.389   6.013 -0.1634 -0.3183 -0.0450
14532SOL     OW45317   6.431   6.041   4.921 -0.1360  0.2806 -0.0325
14532SOL    HW145318   6.406   6.088   4.842 -1.0817  0.2273  0.2187
14532SOL    HW245319   6.449   6.109   4.985  2.6069  0.3945 -0.8117
14533SOL     OW45320   3.434   4.095   6.206 -0.0013  0.4518  0.0833
14533SOL    HW145321   3.428   4.012   6.159  1.4839  0.2916  0.1352
14533SOL    HW245322   3.431   4.071   6.298  0.6552  0.4280  0.1010
14534SOL     OW45323   5.377   4.367   4.283  0.4173  0.2288  0.5102
14534SOL    HW145324   5.409   4.427   4.215  1.0544 -0.6824 -0.0151
14534SOL    HW245325   5.305   4.320   4.242  1.1169 -0.6653  0.2968
14535SOL     OW45326   6.167   8.335   1.258  0.5287 -0.2621 -0.3979
14535SOL    HW145327   6.195   8.374   1.340  0.9219 -1.9136  0.3038
14535SOL    HW245328   6.236   8.271   1.238 -0.0607 -0.5823 -1.4886
14536SOL     OW45329   2.320   4.658   6.638 -0.4068 -0.3357 -0.2934
14536SOL    HW145330   2.403   4.616   6.614  0.1135  0.2790  0.3847
14536SOL    HW245331   2.274   4.591   6.689  0.8802  0.2012  1.7166
14537SOL     OW45332   5.337   7.919   9.212 -0.7137  0.5720  0.2990
14537SOL    HW145333   5.359   7.891   9.301  0.1608  0.3010  0.0016
14537SOL    HW245334   5.272   7.988   9.224  0.8746  1.9735  1.2357
14538SOL     OW45335   0.589   4.549   7.624 -0.0904 -0.0962 -0.0426
14538SOL    HW145336   0.527   4.498   7.678 -0.2831 -0.0602 -0.2283
14538SOL    HW245337   0.573   4.640   7.649  0.4016 -0.1401  0.4424
14539SOL     OW45338   8.588   5.908   0.016 -0.7050  0.1925  0.2735
14539SOL    HW145339   8.515   5.960  -0.016 -0.1135  1.0291  0.2553
14539SOL    HW245340   8.580   5.910   0.111 -0.5591  0.5104  0.2809
14540SOL     OW45341   3.865   5.067   7.151 -0.5971 -0.0282  0.1981
14540SOL    HW145342   3.897   5.156   7.134 -1.7377  0.2208 -0.8329
14540SOL    HW245343   3.781   5.080   7.197  0.5161 -0.6522  2.5701
14541SOL     OW45344   9.630   7.927   2.585 -0.4719 -0.0644  0.3038
14541SOL    HW145345   9.591   8.013   2.569 -0.0873 -0.0974 -0.9429
14541SOL    HW245346   9.597   7.872   2.513 -0.6626 -0.9474  1.0478
14542SOL     OW45347   7.451   6.032   6.131  0.0793  0.1099 -0.5224
14542SOL    HW145348   7.429   6.101   6.068 -1.3242 -1.1283 -1.4412
14542SOL    HW245349   7.536   5.998   6.101 -0.8068 -0.8071 -2.0969
14543SOL     OW45350   0.717   3.234   3.626  0.6325  0.4074 -0.2290
14543SOL    HW145351   0.794   3.251   3.679 -0.4140  1.7317  0.9559
14543SOL    HW245352   0.679   3.154   3.663  1.2954 -0.1308 -0.6862
14544SOL     OW45353   7.380   6.290   5.595 -0.3928  0.0948  0.1955
14544SOL    HW145354   7.328   6.334   5.663  0.0708 -0.1933  0.7417
14544SOL    HW245355   7.315   6.244   5.542 -0.8115  0.7636  0.1065
14545SOL     OW45356   9.123   7.428   4.232 -0.5690 -0.3247 -0.6850
14545SOL    HW145357   9.191   7.371   4.197  0.8150  1.1773 -0.5969
14545SOL    HW245358   9.087   7.473   4.156 -1.0190 -0.6627 -0.6699
14546SOL     OW45359   7.668   8.444   6.592 -0.0795 -0.2208 -0.3955
14546SOL    HW145360   7.702   8.507   6.529 -1.0086 -1.7524 -2.5720
14546SOL    HW245361   7.574   8.461   6.594 -0.0716 -0.2682  0.5075
14547SOL     OW45362   0.804   3.510   0.665  0.2876  0.4517  0.4487
14547SOL    HW145363   0.814   3.603   0.641  1.4060 -0.3491 -2.7050
14547SOL    HW245364   0.894   3.479   0.677 -0.0328 -0.4315  0.6203
14548SOL     OW45365   6.330   7.019   6.955 -0.1519 -0.2816 -0.5044
14548SOL    HW145366   6.280   7.017   7.037  0.4863  0.7986 -0.0602
14548SOL    HW245367   6.296   7.095   6.908  1.8495  1.2318  0.3581
14549SOL     OW45368   3.013   1.787   5.116  0.3054  0.0342 -0.5246
14549SOL    HW145369   3.044   1.709   5.070 -1.3379 -1.4664  0.7738
14549SOL    HW245370   3.049   1.778   5.204 -0.3513  0.4698 -0.2127
14550SOL     OW45371   8.797   9.650   8.116 -0.1243 -0.0010 -0.0717
14550SOL    HW145372   8.809   9.736   8.075 -0.8090 -1.0404 -2.7197
14550SOL    HW245373   8.774   9.592   8.043 -0.3896 -2.3063  1.7107
14551SOL     OW45374   4.865   9.524   5.156  0.3320 -0.1699 -0.5054
14551SOL    HW145375   4.808   9.589   5.115 -0.6347 -0.5220  0.2342
14551SOL    HW245376   4.876   9.456   5.089 -0.6027 -0.3715 -0.4717
14552SOL     OW45377   7.467   6.196   7.896 -0.0808  0.0089 -0.1869
14552SOL    HW145378   7.544   6.142   7.914 -0.3418 -1.0397 -1.9574
14552SOL    HW245379   7.502   6.282   7.874  0.4326  0.1636  1.1515
14553SOL     OW45380   5.736   0.932   7.540  0.3274 -0.3404 -0.2488
14553SOL    HW145381   5.751   0.920   7.446 -1.2974  0.2877 -0.6200
14553SOL    HW245382   5.794   1.004   7.565  0.9301 -0.6581 -0.7052
14554SOL     OW45383   9.441   7.147   3.754  0.0526  0.1740  0.1400
14554SOL    HW145384   9.373   7.172   3.816  1.4293 -2.9274  3.1693
14554SOL    HW245385   9.395   7.097   3.687 -1.0155  0.8397  0.3489
14555SOL     OW45386   8.522   8.300   9.071  0.5322 -0.3834  0.4084
14555SOL    HW145387   8.463   8.312   9.145 -0.0847  1.1069 -0.2801
14555SOL    HW245388   8.464   8.268   9.000  0.3678  1.7061 -0.4609
14556SOL     OW45389   0.186   7.553   3.219 -0.4360  0.0813 -0.2841
14556SOL    HW145390   0.101   7.509   3.215 -1.1464  1.0270  2.3577
14556SOL    HW245391   0.190   7.591   3.307  1.0442  3.4158 -1.6031
14557SOL     OW45392   2.261   7.941   7.972 -0.2780  0.0362  0.1640
14557SOL    HW145393   2.178   7.932   7.925 -0.4868 -0.5276  0.6396
14557SOL    HW245394   2.280   8.035   7.968  0.2691 -0.1061 -1.9873
14558SOL     OW45395   2.882   1.929   3.155  0.2692  0.7895  0.1897
14558SOL    HW145396   2.936   1.984   3.211 -2.7328  1.4065  2.7203
14558SOL    HW245397   2.840   1.990   3.094 -1.2731  1.0356  1.4639
14559SOL     OW45398   7.817   9.241   2.480  0.6346  0.3496  0.1719
14559SOL    HW145399   7.792   9.181   2.409  0.6012 -0.0540  0.5234
14559SOL    HW245400   7.889   9.196   2.525  1.1093  0.9042 -0.0111
14560SOL     OW45401   3.651   2.401   0.237  0.0626  0.0048  0.4632
14560SOL    HW145402   3.624   2.462   0.306  0.5453  1.0696 -0.2503
14560SOL    HW245403   3.646   2.453   0.156  0.6648 -0.8509 -0.1432
14561SOL     OW45404   4.046   8.435   1.389  0.6888 -0.4923  0.4557
14561SOL    HW145405   3.978   8.476   1.336 -1.1870 -0.2599  2.8785
14561SOL    HW245406   4.097   8.383   1.327 -0.7674  0.5033 -1.6834
14562SOL     OW45407   9.647   4.416   9.106  0.6585  0.4799 -0.1521
14562SOL    HW145408   9.732   4.417   9.150  1.6085 -0.1929 -1.8583
14562SOL    HW245409   9.656   4.480   9.035  0.2173 -0.5256 -1.1457
14563SOL     OW45410   0.351   0.437   3.160  0.2912  0.0514 -0.1741
14563SOL    HW145411   0.294   0.372   3.118  1.2780  0.1214 -1.6958
14563SOL    HW245412   0.440   0.412   3.134  0.7886  1.2499  0.2993
14564SOL     OW45413   3.798   1.869   7.162  0.0872 -0.3472 -0.0950
14564SOL    HW145414   3.721   1.908   7.204 -0.3390 -1.7726  0.4933
14564SOL    HW245415   3.761   1.809   7.097  0.6924 -1.4210  0.5396
14565SOL     OW45416   5.683   0.083   7.227 -0.0759 -0.4085 -0.5687
14565SOL    HW145417   5.740   0.068   7.302  0.0630  0.1214 -0.5622
14565SOL    HW245418   5.737   0.062   7.151  0.2420  0.4022 -0.5770
14566SOL     OW45419   0.158   6.039   8.987 -0.2713 -0.3730  0.2366
14566SOL    HW145420   0.233   6.093   8.961 -0.3504  0.8954  2.4110
14566SOL    HW245421   0.179   6.009   9.075 -2.5790  0.5791  1.1906
14567SOL     OW45422   6.700   0.907   4.602  0.0426 -0.5172  0.1695
14567SOL    HW145423   6.709   0.886   4.695  1.0117 -0.5628  0.0842
14567SOL    HW245424   6.789   0.897   4.567 -0.3854 -0.9199 -0.8494
14568SOL     OW45425   5.701   1.086   2.514 -0.4020  0.0771 -0.0355
14568SOL    HW145426   5.729   0.994   2.521  0.4641  0.3354  0.0944
14568SOL    HW245427   5.612   1.087   2.548  0.1100 -0.4666  1.4184
14569SOL     OW45428   1.149   0.729   7.837 -0.3889 -0.5618  0.0431
14569SOL    HW145429   1.061   0.704   7.808  0.7490 -1.8303 -2.6431
14569SOL    HW245430   1.188   0.648   7.868  0.7180 -0.5934 -1.3485
14570SOL     OW45431   2.558   8.070   4.657  0.2668 -0.2374 -0.1901
14570SOL    HW145432   2.620   8.010   4.615  0.3508  0.5021 -1.1463
14570SOL    HW245433   2.477   8.019   4.666 -0.0127 -0.1844 -2.0166
14571SOL     OW45434   7.404   8.832   2.956 -0.1923 -0.0773  0.6036
14571SOL    HW145435   7.495   8.851   2.978  0.1636  1.1762 -1.6275
14571SOL    HW245436   7.385   8.748   2.998  1.9403 -0.2858  1.2204
14572SOL     OW45437   0.114   5.734   5.985 -0.2901 -0.1511  0.1184
14572SOL    HW145438   0.103   5.642   5.960  0.8818 -0.5542  0.9686
14572SOL    HW245439   0.202   5.738   6.024 -0.4440  1.2661  0.3843
14573SOL     OW45440   7.799   7.969   7.542 -0.1264 -0.3527 -0.1279
14573SOL    HW145441   7.846   8.047   7.570 -0.2948 -0.3882  0.2584
14573SOL    HW245442   7.759   7.993   7.459 -1.6671  0.5695  0.8282
14574SOL     OW45443   1.499   6.518   9.331  0.0226  0.5781  0.2133
14574SOL    HW145444   1.454   6.534   9.414 -0.0483  1.3114  0.0470
14574SOL    HW245445   1.490   6.601   9.283  0.6915  0.4045 -0.2261
14575SOL     OW45446   7.481   9.220   2.187  0.2965 -0.0220 -0.3379
14575SOL    HW145447   7.424   9.159   2.235 -0.0714  0.6145  0.0603
14575SOL    HW245448   7.447   9.306   2.210 -0.4757  0.2951 -2.4711
14576SOL     OW45449   9.329   0.130   4.288  0.0656 -0.0985 -0.2143
14576SOL    HW145450   9.341   0.082   4.369 -0.7015  0.0607 -0.0040
14576SOL    HW245451   9.270   0.076   4.236  2.0022 -1.1414 -1.4741
14577SOL     OW45452   8.198   5.279   6.831  0.0233 -0.0758  0.1640
14577SOL    HW145453   8.244   5.341   6.775 -0.2191 -1.5230 -1.7176
14577SOL    HW245454   8.184   5.327   6.913  0.1552  2.1989 -1.0731
14578SOL     OW45455   1.786   6.182   4.587 -0.2325  0.0330  0.0562
14578SOL    HW145456   1.814   6.208   4.500 -2.0644  0.3431 -0.4800
14578SOL    HW245457   1.711   6.124   4.572 -0.6027  0.1121  1.4152
14579SOL     OW45458   4.699   6.150   4.155 -0.1611  0.6209  0.1830
14579SOL    HW145459   4.635   6.092   4.196  0.5687  0.0392  0.5180
14579SOL    HW245460   4.654   6.184   4.078  0.2027 -2.5137 -1.6265
14580SOL     OW45461   4.461   6.337   9.651  0.5745  0.1658  0.3993
14580SOL    HW145462   4.481   6.263   9.593  1.8026  2.5043 -2.4500
14580SOL    HW245463   4.369   6.327   9.673  0.3923 -1.5677 -0.9381
14581SOL     OW45464   4.444   4.948   2.065  0.5084 -0.0606 -0.3810
14581SOL    HW145465   4.415   4.857   2.057  2.4774 -0.6162 -1.7254
14581SOL    HW245466   4.384   4.997   2.008 -1.8874 -0.0868  1.8910
14582SOL     OW45467   5.775   1.273   7.391 -1.0629  0.1177 -0.1254
14582SOL    HW145468   5.767   1.354   7.441  3.3256 -0.2711  1.5746
14582SOL    HW245469   5.798   1.207   7.456  0.5835 -1.3597 -2.1029
14583SOL     OW45470   4.729   6.363   2.739 -0.3785  0.1803 -0.5759
14583SOL    HW145471   4.776   6.400   2.814  0.5930  0.3859 -1.2653
14583SOL    HW245472   4.696   6.279   2.770  1.8911 -0.7670 -0.5491
14584SOL     OW45473   4.715   0.474   6.497 -0.1471  0.2761 -0.4579
14584SOL    HW145474   4.712   0.568   6.476  3.6851  0.3412 -1.3269
14584SOL    HW245475   4.759   0.470   6.582 -2.6877 -0.7398  0.9266
14585SOL     OW45476   5.391   1.202   1.817 -0.4874  0.2116 -0.2887
14585SOL    HW145477   5.299   1.212   1.842  0.0343 -0.4646  2.2156
14585SOL    HW245478   5.395   1.119   1.770 -1.3267  0.8869 -1.6069
14586SOL     OW45479   3.868   3.090   1.247  0.0243 -0.0891  0.1975
14586SOL    HW145480   3.849   3.032   1.174 -1.3514  0.6020 -0.0334
14586SOL    HW245481   3.818   3.054   1.320  0.6972 -0.2807  0.5685
14587SOL     OW45482   4.311   2.687   5.281 -0.4346  0.3294 -0.5216
14587SOL    HW145483   4.370   2.726   5.346  0.1686 -0.4642 -0.5705
14587SOL    HW245484   4.319   2.744   5.205 -1.2420  1.3404  0.1148
14588SOL     OW45485   4.771   0.044   5.674 -0.5313 -1.0410 -0.2332
14588SOL    HW145486   4.853   0.022   5.717  0.4976 -0.1066 -1.6340
14588SOL    HW245487   4.708   0.055   5.746  0.8214 -0.6492  0.9311
14589SOL     OW45488   0.354   8.756   5.395  0.0733  0.3892 -0.1302
14589SOL    HW145489   0.371   8.800   5.312  1.3720  0.1261 -0.0147
14589SOL    HW245490   0.351   8.827   5.459  2.3143  0.3564  0.0807
14590SOL     OW45491   4.420   7.546   3.917  0.3813 -0.4552  0.4417
14590SOL    HW145492   4.443   7.588   3.999  1.0581 -0.2605  0.1560
14590SOL    HW245493   4.334   7.582   3.894  0.6196  0.1957  0.5775
14591SOL     OW45494   9.145   2.465   2.530 -0.0404  0.3664  0.3879
14591SOL    HW145495   9.176   2.416   2.453 -1.0436 -0.7053  0.6456
14591SOL    HW245496   9.174   2.555   2.513 -0.0483  0.1175 -1.1448
14592SOL     OW45497   6.936   6.294   8.413 -0.3889 -0.3575 -0.0475
14592SOL    HW145498   6.949   6.324   8.323  2.5358  1.3273  0.8158
14592SOL    HW245499   6.933   6.374   8.465 -0.3131 -1.3580  1.5433
14593SOL     OW45500   0.651   9.398   0.428  0.4477 -0.7382  0.3873
14593SOL    HW145501   0.699   9.480   0.429  1.1629 -1.0852 -1.5144
14593SOL    HW245502   0.701   9.340   0.486 -1.0613  0.6114  3.2212
14594SOL     OW45503   4.683   7.150   6.710  0.4865 -0.2252 -0.3903
14594SOL    HW145504   4.757   7.173   6.766 -0.5421  0.9493  0.5390
14594SOL    HW245505   4.658   7.232   6.668  0.2146 -0.7725 -1.3208
14595SOL     OW45506   8.963   8.406   0.027 -0.4274 -0.0756  0.2442
14595SOL    HW145507   8.886   8.351   0.045  1.1299 -2.4107  0.1718
14595SOL    HW245508   8.981   8.392  -0.066  0.5107 -0.1573  0.4336
14596SOL     OW45509   8.219   4.819   8.317 -0.1961  0.3606  0.1466
14596SOL    HW145510   8.172   4.823   8.234  1.2804  1.1996 -0.6921
14596SOL    HW245511   8.271   4.739   8.312 -0.7631 -0.0412  0.6376
14597SOL     OW45512   5.064   9.277   1.453 -0.3496  0.5938 -0.8379
14597SOL    HW145513   5.124   9.345   1.423  2.2301 -1.0267  0.2668
14597SOL    HW245514   5.097   9.197   1.413 -1.0859 -0.5319  0.6945
14598SOL     OW45515   4.662   4.395   1.695 -0.1188 -0.5833  0.0468
14598SOL    HW145516   4.585   4.419   1.645 -0.0261 -1.6171 -0.6231
14598SOL    HW245517   4.716   4.344   1.634  1.5008  0.8048  0.2305
14599SOL     OW45518   3.083   5.143   1.752 -0.7510  0.1946  0.0203
14599SOL    HW145519   3.027   5.134   1.829 -1.0438  0.6495 -0.1383
14599SOL    HW245520   3.022   5.150   1.678 -0.4690 -0.8659 -0.3298
14600SOL     OW45521   2.630   2.488   0.678  0.2208  0.0134 -0.0615
14600SOL    HW145522   2.712   2.440   0.671  0.1525 -0.1263  0.0733
14600SOL    HW245523   2.566   2.434   0.631  0.2632  0.2603 -0.4063
14601SOL     OW45524   1.895   6.734   1.831 -0.1798 -0.4172  0.0038
14601SOL    HW145525   1.945   6.653   1.832  0.2026 -0.2027 -0.8205
14601SOL    HW245526   1.832   6.724   1.903  0.8692 -0.7906  0.8905
14602SOL     OW45527   3.320   2.808   7.486  0.1972  0.3220 -0.6432
14602SOL    HW145528   3.272   2.886   7.515  1.7909  1.6791 -1.4656
14602SOL    HW245529   3.390   2.798   7.549 -1.2472 -1.8638  0.7477
14603SOL     OW45530   9.218   3.209   9.528  0.8791 -0.2059  0.0944
14603SOL    HW145531   9.307   3.184   9.552  2.1255  2.4647 -1.2691
14603SOL    HW245532   9.196   3.280   9.588  0.4091  0.3439 -0.7034
14604SOL     OW45533   0.555   8.159   6.121 -0.6995 -0.1356  0.9888
14604SOL    HW145534   0.614   8.158   6.045 -1.6642 -1.9901  0.2093
14604SOL    HW245535   0.547   8.252   6.144  1.1381  0.3027  0.0468
14605SOL     OW45536   9.256   3.168   2.878 -0.5135  0.1610 -0.1059
14605SOL    HW145537   9.201   3.090   2.890 -0.8238  0.3977  0.0334
14605SOL    HW245538   9.312   3.147   2.803 -0.6429 -0.1692 -0.1116
14606SOL     OW45539   2.864   2.576   6.592  0.3478  0.5561  0.1109
14606SOL    HW145540   2.893   2.577   6.684  0.1540  0.3898  0.1758
14606SOL    HW245541   2.937   2.614   6.543 -0.0753  1.8951  0.4831
14607SOL     OW45542   8.256   7.876   3.884  0.1742  0.1418 -0.3084
14607SOL    HW145543   8.257   7.801   3.944 -0.3663  1.0919  0.9389
14607SOL    HW245544   8.229   7.950   3.938  0.5642  1.2310 -1.5351
14608SOL     OW45545   4.335   8.050   2.850 -0.4888 -0.2081 -0.7925
14608SOL    HW145546   4.330   8.066   2.755 -0.9037  1.1913 -0.5570
14608SOL    HW245547   4.282   7.972   2.864 -0.3070 -0.5136 -1.7294
14609SOL     OW45548   9.475   7.049   8.719 -0.4367  0.1782  0.3167
14609SOL    HW145549   9.528   6.969   8.723 -1.8732 -0.8174  0.1733
14609SOL    HW245550   9.539   7.119   8.711  0.9940 -0.7376  2.6797
14610SOL     OW45551   8.578   3.456   1.852 -0.1156 -0.0412  0.0878
14610SOL    HW145552   8.484   3.475   1.849 -0.1823 -0.1913  0.9441
14610SOL    HW245553   8.605   3.455   1.760 -1.5296 -2.9888 -0.4296
14611SOL     OW45554   9.622   4.312   5.688 -0.7766  0.4897 -0.1295
14611SOL    HW145555   9.628   4.283   5.597 -1.0068  0.2974 -0.0868
14611SOL    HW245556   9.564   4.387   5.686  0.8352  1.7842 -0.4188
14612SOL     OW45557   5.562   6.095   8.163 -0.6448 -0.3587 -0.0377
14612SOL    HW145558   5.580   6.063   8.074 -0.7384  1.1992 -0.6473
14612SOL    HW245559   5.641   6.145   8.186 -0.8170 -0.3707  0.5754
14613SOL     OW45560   3.523   0.253   0.285 -0.6063  0.1707  0.1775
14613SOL    HW145561   3.533   0.339   0.326 -0.8895  0.5493 -0.5370
14613SOL    HW245562   3.604   0.206   0.308 -0.3241  0.7253  0.3336
14614SOL     OW45563   0.923   3.912   8.939 -0.0376  0.5482  0.8186
14614SOL    HW145564   0.907   3.839   8.998  1.5340 -0.5779 -0.0944
14614SOL    HW245565   1.015   3.935   8.952  0.4939 -0.0212 -1.4348
14615SOL     OW45566   1.191   4.426   3.762 -0.2730 -0.5326 -0.2466
14615SOL    HW145567   1.236   4.404   3.680 -0.0255  0.8380 -0.5125
14615SOL    HW245568   1.259   4.422   3.829  0.5866  2.5189 -0.7983
14616SOL     OW45569   3.302   2.293   8.512 -0.3423 -0.3612 -0.0086
14616SOL    HW145570   3.307   2.263   8.421 -2.2144  0.5387 -0.4547
14616SOL    HW245571   3.390   2.328   8.531 -0.0248 -0.2618 -1.5668
14617SOL     OW45572   4.984   8.347   8.846 -0.5785  0.2663 -0.6778
14617SOL    HW145573   4.906   8.352   8.901 -0.0525 -0.2089  0.1188
14617SOL    HW245574   5.057   8.336   8.907  0.2577  1.8000 -1.3301
14618SOL     OW45575   5.155   2.507   4.160  0.5076 -0.1465 -0.2413
14618SOL    HW145576   5.084   2.450   4.131  1.5631 -1.8036  0.2836
14618SOL    HW245577   5.217   2.508   4.087  0.3056  0.7087 -0.4165
14619SOL     OW45578   8.756   1.356   2.817  0.5255  0.4793 -0.1934
14619SOL    HW145579   8.711   1.391   2.894  2.2018 -1.5926  1.8723
14619SOL    HW245580   8.847   1.346   2.846  0.7541 -2.5051 -1.6394
14620SOL     OW45581   1.659   1.323   2.546 -0.0434 -0.6512 -0.4721
14620SOL    HW145582   1.724   1.392   2.532  0.5726 -1.1149  0.0646
14620SOL    HW245583   1.580   1.356   2.503  0.2633  0.3587 -0.2970
14621SOL     OW45584   0.759   9.127   0.829 -0.2206 -0.2765  0.1562
14621SOL    HW145585   0.832   9.187   0.815 -1.3276  0.9800 -0.3420
14621SOL    HW245586   0.716   9.159   0.908  0.2700 -1.5611  0.9777
14622SOL     OW45587   6.590   8.763   3.928 -0.0464  0.2835  0.3245
14622SOL    HW145588   6.620   8.693   3.871 -2.1889 -0.7981  0.4230
14622SOL    HW245589   6.617   8.736   4.016  2.1164  1.3163  0.0291
14623SOL     OW45590   6.587   6.998   7.995  0.2710  0.0403  0.2131
14623SOL    HW145591   6.547   6.960   8.073 -0.3231  2.7564  1.3596
14623SOL    HW245592   6.586   6.928   7.930 -4.2965 -0.8431  0.8889
14624SOL     OW45593   7.071   4.561   5.408  0.1348  0.2856  0.3611
14624SOL    HW145594   7.013   4.581   5.334  0.8318  0.4035 -0.1625
14624SOL    HW245595   7.012   4.528   5.476 -0.2904 -2.3613 -1.1349
14625SOL     OW45596   4.564   2.624   9.190  0.1110 -0.6982  0.3428
14625SOL    HW145597   4.527   2.712   9.202 -0.3933 -0.8751  0.1203
14625SOL    HW245598   4.624   2.613   9.264  0.2754 -0.1173  0.3026
14626SOL     OW45599   4.814   5.726   0.745 -0.3912 -0.1459 -0.0533
14626SOL    HW145600   4.821   5.822   0.747 -0.3605 -0.1429 -0.3211
14626SOL    HW245601   4.861   5.697   0.823 -1.7045  0.1354  0.8972
14627SOL     OW45602   4.340   0.141   9.444 -0.1293 -0.1232 -0.0315
14627SOL    HW145603   4.425   0.183   9.445 -0.1409 -0.1122  0.9024
14627SOL    HW245604   4.329   0.110   9.353  0.4344  0.7257 -0.3982
14628SOL     OW45605   4.222   3.216   0.176 -0.0678  0.0315 -0.5560
14628SOL    HW145606   4.219   3.282   0.245  0.8495 -0.0264 -0.4395
14628SOL    HW245607   4.272   3.144   0.214 -2.7665 -1.6598  0.0565
14629SOL     OW45608   0.067   1.797   2.470  0.3680 -0.5530 -0.0434
14629SOL    HW145609  -0.017   1.752   2.459  0.7378 -0.9509 -1.4977
14629SOL    HW245610   0.090   1.784   2.562 -0.3293 -1.9286 -0.0347
14630SOL     OW45611   6.676   0.053   7.618  0.1819 -0.4618 -0.4553
14630SOL    HW145612   6.663   0.009   7.702 -2.0690  0.7001 -0.1364
14630SOL    HW245613   6.701   0.142   7.641 -0.2620 -0.1871 -1.0170
14631SOL     OW45614   0.977   8.270   1.647 -0.0563  0.2764 -0.1608
14631SOL    HW145615   1.010   8.185   1.618  0.8722  0.3343  0.6824
14631SOL    HW245616   0.895   8.282   1.598  0.6470 -0.3355 -1.5398
14632SOL     OW45617   9.597   6.357   2.356  0.6604  0.2930 -0.6487
14632SOL    HW145618   9.645   6.277   2.379  0.1499  0.0631 -0.3669
14632SOL    HW245619   9.588   6.352   2.261  1.5893  0.5701 -0.7643
14633SOL     OW45620   7.035   5.177   5.254  0.2449  0.4422 -0.2267
14633SOL    HW145621   7.087   5.137   5.185 -1.2475  0.7117 -1.5445
14633SOL    HW245622   7.078   5.261   5.271 -0.2315  1.0632 -1.9360
14634SOL     OW45623   3.022   2.401   4.612  0.0591 -0.4166 -0.9660
14634SOL    HW145624   3.020   2.389   4.518  0.0473  0.9633 -1.1650
14634SOL    HW245625   3.066   2.486   4.625 -0.7543 -0.1356  0.2094
14635SOL     OW45626   8.807   5.780   2.650  0.4458  0.0212  0.0462
14635SOL    HW145627   8.775   5.869   2.638 -1.9555 -0.6143  1.1708
14635SOL    HW245628   8.860   5.784   2.729 -1.6586  0.0503  1.5252
14636SOL     OW45629   8.128   4.806   3.276 -0.4410  0.8276  0.0670
14636SOL    HW145630   8.126   4.901   3.292 -1.1053  0.8399 -0.0804
14636SOL    HW245631   8.038   4.783   3.254 -0.1498  0.2820 -0.5970
14637SOL     OW45632   9.091   9.643   4.742  0.0830  0.3770 -0.2388
14637SOL    HW145633   9.009   9.668   4.700 -0.8179 -0.6734  0.7990
14637SOL    HW245634   9.119   9.565   4.695  0.0197  0.2404 -0.0534
14638SOL     OW45635   2.728   8.243   8.330  0.3048  0.7571  0.0697
14638SOL    HW145636   2.701   8.151   8.326  1.7629  0.2718  0.5213
14638SOL    HW245637   2.814   8.244   8.287  0.5618  1.8052  0.5781
14639SOL     OW45638   8.720   0.771   7.201  0.6877  0.5439 -0.4353
14639SOL    HW145639   8.782   0.704   7.173 -1.2536 -1.1012 -0.9940
14639SOL    HW245640   8.725   0.838   7.132  0.7469 -0.2966 -1.2697
14640SOL     OW45641   7.271   2.077   5.867 -0.0449 -0.2810 -0.1577
14640SOL    HW145642   7.246   1.989   5.893 -0.3090 -0.2369 -0.2585
14640SOL    HW245643   7.313   2.114   5.945  1.3435 -0.9749 -0.5464
14641SOL     OW45644   9.091   0.675   3.386 -0.3167 -0.2562  0.1716
14641SOL    HW145645   9.013   0.721   3.415  0.2625 -0.0833  1.5224
14641SOL    HW245646   9.164   0.729   3.416  0.3371 -0.6016 -0.7475
14642SOL     OW45647   1.777   4.171   0.738  0.1734  0.7628  0.1812
14642SOL    HW145648   1.840   4.141   0.674  0.3292 -0.6966  0.9682
14642SOL    HW245649   1.829   4.197   0.814 -0.1353 -0.4407  0.8324
14643SOL     OW45650   9.243   8.414   4.040 -0.0693  0.1050  0.1495
14643SOL    HW145651   9.188   8.492   4.033 -0.1254 -0.0649 -1.9118
14643SOL    HW245652   9.319   8.443   4.089 -1.0832  0.8481  1.3568
14644SOL     OW45653   4.888   4.551   7.211 -0.1670 -0.4341 -0.5142
14644SOL    HW145654   4.961   4.583   7.157  0.5023 -1.2880 -0.1428
14644SOL    HW245655   4.886   4.611   7.286  0.0041 -0.2604 -0.6471
14645SOL     OW45656   1.698   6.243   6.802 -0.1426  0.1559  0.1796
14645SOL    HW145657   1.733   6.296   6.873 -1.1349 -0.1965  0.9636
14645SOL    HW245658   1.734   6.281   6.722  0.9896  0.5577  0.8715
14646SOL     OW45659   2.268   4.963   1.925  0.0982 -0.0017  0.1882
14646SOL    HW145660   2.275   5.005   2.011  0.0427  0.5671 -0.0822
14646SOL    HW245661   2.292   5.031   1.863 -2.9021  0.6104 -0.4622
14647SOL     OW45662   6.755   4.353   9.633  0.7184  0.2228 -0.1308
14647SOL    HW145663   6.787   4.269   9.666 -0.5529  0.3380  1.6075
14647SOL    HW245664   6.723   4.398   9.712 -1.1263  1.1805 -1.3472
14648SOL     OW45665   7.175   4.964   8.094 -0.4073  0.3514 -0.1045
14648SOL    HW145666   7.089   4.928   8.119 -0.9851  1.3577 -0.5597
14648SOL    HW245667   7.230   4.951   8.171 -0.0402 -3.0297 -0.7649
14649SOL     OW45668   0.902   2.452   4.075  0.6337  0.6136  0.1932
14649SOL    HW145669   0.887   2.425   3.984  1.1196  0.3909  0.1743
14649SOL    HW245670   0.997   2.450   4.085  0.5671  0.3090  0.8056
14650SOL     OW45671   7.251   5.438   8.678 -0.1144  0.7610 -0.1555
14650SOL    HW145672   7.261   5.348   8.647 -4.0570  0.5461 -1.3429
14650SOL    HW245673   7.275   5.434   8.771  0.4383 -1.3509 -0.3339
14651SOL     OW45674   7.344   2.929   5.996 -0.0424 -0.1699  0.0543
14651SOL    HW145675   7.291   2.867   6.046 -2.2391  1.4056 -0.1732
14651SOL    HW245676   7.281   2.983   5.950  1.8448  0.6738 -1.7229
14652SOL     OW45677   5.028   1.632   2.377  0.7534 -0.3297  0.0362
14652SOL    HW145678   4.991   1.718   2.359 -1.9884 -1.4916 -0.3838
14652SOL    HW245679   5.081   1.645   2.455 -1.6086  1.3320  1.5050
14653SOL     OW45680   5.850   7.984   9.694 -0.2459  0.4101 -0.5077
14653SOL    HW145681   5.871   7.972   9.786 -0.1857  3.7360  0.0217
14653SOL    HW245682   5.754   7.978   9.690 -0.1623 -1.2432 -0.5415
14654SOL     OW45683   4.566   3.960   3.972 -0.0324  0.1365 -0.2514
14654SOL    HW145684   4.510   3.920   3.906 -0.6352  0.5753 -0.0130
14654SOL    HW245685   4.509   4.021   4.019  0.4230 -0.0694  0.5929
14655SOL     OW45686   2.957   4.364   8.209  0.0708  0.0800  0.1086
14655SOL    HW145687   2.921   4.431   8.267 -0.0119 -0.3461  0.5479
14655SOL    HW245688   2.903   4.371   8.129  2.7029  3.4213 -1.6079
14656SOL     OW45689   3.337   9.483   7.326 -0.0372  0.2059 -0.0990
14656SOL    HW145690   3.406   9.494   7.391 -0.3133  0.5885  0.1280
14656SOL    HW245691   3.262   9.530   7.362  0.0299  1.0656 -1.0354
14657SOL     OW45692   3.358   2.037   8.183 -0.3958  0.1335  0.0271
14657SOL    HW145693   3.262   2.044   8.179 -0.6477 -0.9506  2.2906
14657SOL    HW245694   3.375   2.007   8.272  1.8515 -2.8001 -1.2257
14658SOL     OW45695   7.624   3.702   6.362  0.1680 -0.8487 -0.2927
14658SOL    HW145696   7.543   3.662   6.331 -0.6126 -1.1593  1.9325
14658SOL    HW245697   7.635   3.668   6.451  1.8722  0.4619  0.0533
14659SOL     OW45698   4.991   1.030   7.262 -0.8388  0.7301 -0.0357
14659SOL    HW145699   4.999   1.072   7.348  0.2977  0.5503 -0.0399
14659SOL    HW245700   4.904   0.991   7.263 -0.9661  1.0059  0.9087
14660SOL     OW45701   3.579   0.484   8.566  0.0618 -0.1488  0.3493
14660SOL    HW145702   3.627   0.474   8.484 -0.9173 -0.1478 -0.2455
14660SOL    HW245703   3.499   0.434   8.553 -0.0644 -0.2277  1.3477
14661SOL     OW45704   1.935   2.718   7.196 -0.2449  0.3318  0.1229
14661SOL    HW145705   2.019   2.761   7.210 -0.9833  2.3135 -1.1508
14661SOL    HW245706   1.948   2.665   7.117 -0.3158  1.0266 -0.3610
14662SOL     OW45707   1.064   6.227   5.899  0.0414 -0.0075 -0.2483
14662SOL    HW145708   0.969   6.224   5.885 -0.2914 -0.2922  1.6734
14662SOL    HW245709   1.086   6.140   5.932  0.5815  0.6654  1.2703
14663SOL     OW45710   0.151   1.920   1.216  0.2532  0.0938  0.0443
14663SOL    HW145711   0.219   1.970   1.262 -2.1859  2.3080  1.5567
14663SOL    HW245712   0.147   1.960   1.129  2.1704 -1.4452 -0.8357
14664SOL     OW45713   2.113   7.642   4.405 -0.0321 -0.1221  0.2284
14664SOL    HW145714   2.018   7.651   4.409 -0.0686 -0.5627  0.4165
14664SOL    HW245715   2.141   7.708   4.341 -0.5429 -0.5584 -0.4518
14665SOL     OW45716   9.064   1.154   8.307 -0.4115  0.2994  0.1864
14665SOL    HW145717   8.983   1.192   8.340  0.3199  2.6113 -0.4617
14665SOL    HW245718   9.036   1.094   8.238 -1.5788  2.1962 -1.0988
14666SOL     OW45719   3.005   6.713   9.226 -0.8120  0.8553  0.4810
14666SOL    HW145720   3.024   6.703   9.132  0.1671 -1.9991  0.8889
14666SOL    HW245721   3.073   6.773   9.257  0.8378 -0.6054 -0.1267
14667SOL     OW45722   8.249   7.017   7.156  0.2420  0.0548  0.1577
14667SOL    HW145723   8.220   7.108   7.157 -0.7239 -0.2455  1.2770
14667SOL    HW245724   8.311   7.012   7.084 -0.2942  1.4157 -0.4157
14668SOL     OW45725   4.102   3.389   5.287 -0.0181 -0.4310 -0.0665
14668SOL    HW145726   4.011   3.418   5.291 -0.2850 -1.3820  1.0766
14668SOL    HW245727   4.099   3.304   5.242 -0.0233 -1.5855  1.9972
14669SOL     OW45728   1.105   4.547   4.588  0.1873  0.4839  0.0212
14669SOL    HW145729   1.161   4.495   4.645  0.2442  0.2817 -0.2171
14669SOL    HW245730   1.091   4.629   4.636  0.4548  0.4231  0.2060
14670SOL     OW45731   1.201   6.760   1.978 -0.4526  0.3754  0.2045
14670SOL    HW145732   1.163   6.707   1.908 -0.8887  0.4080  0.4156
14670SOL    HW245733   1.186   6.851   1.950  0.1710  0.3944 -0.0904
14671SOL     OW45734   2.114   2.153   3.144 -0.1356 -0.6343  0.1487
14671SOL    HW145735   2.072   2.068   3.136 -0.1852 -0.5022 -1.2609
14671SOL    HW245736   2.167   2.147   3.224  0.6348 -2.3233 -0.4411
14672SOL     OW45737   6.340   4.548   5.945  0.8856 -0.1686  0.3792
14672SOL    HW145738   6.332   4.457   5.917 -0.5241 -0.1308  0.5979
14672SOL    HW245739   6.380   4.543   6.031  1.8505 -0.4971 -0.0656
14673SOL     OW45740   4.479   0.018   0.905  0.1211 -1.0191 -0.2621
14673SOL    HW145741   4.452  -0.058   0.852  2.6084 -1.0573 -1.6185
14673SOL    HW245742   4.410   0.083   0.889  0.2073 -1.4298 -2.7156
14674SOL     OW45743   8.103   7.173   0.439  0.1176  0.6069  0.4343
14674SOL    HW145744   8.009   7.159   0.449 -0.0152 -0.2073 -1.4301
14674SOL    HW245745   8.110   7.262   0.406 -0.2649 -0.1642 -1.9142
14675SOL     OW45746   3.970   1.601   0.282 -0.0363 -0.1412  0.5296
14675SOL    HW145747   3.990   1.512   0.311 -1.9966 -0.8774 -0.1941
14675SOL    HW245748   3.911   1.636   0.348  1.1327  0.8676  1.0917
14676SOL     OW45749   5.165   7.689   2.973 -0.0451  0.2562  0.0021
14676SOL    HW145750   5.097   7.739   3.018 -0.0531  0.8535 -0.6440
14676SOL    HW245751   5.235   7.681   3.037 -0.6679 -0.2565  0.6349
14677SOL     OW45752   7.187   1.650   2.203 -0.4113  0.3589 -0.0485
14677SOL    HW145753   7.101   1.692   2.212  0.1451  2.1192 -2.1203
14677SOL    HW245754   7.250   1.718   2.229  0.4075 -0.7753  1.0643
14678SOL     OW45755   0.740   7.269   6.370 -0.0054 -0.4081 -0.3510
14678SOL    HW145756   0.656   7.242   6.333 -0.8640 -0.2715  1.3969
14678SOL    HW245757   0.805   7.235   6.309 -1.1620 -3.5167 -0.0034
14679SOL     OW45758   2.741   1.796   4.984  0.6070 -0.3983 -0.1063
14679SOL    HW145759   2.822   1.844   4.970  0.6090 -0.2817  0.2917
14679SOL    HW245760   2.762   1.730   5.051  0.3532 -0.3058  0.0681
14680SOL     OW45761   2.713   0.006   8.171  0.0482  0.0993  0.6044
14680SOL    HW145762   2.672   0.086   8.204 -0.1035  0.8407 -1.2578
14680SOL    HW245763   2.640  -0.054   8.155  0.0685 -0.0265  0.9610
14681SOL     OW45764   8.152   3.684   3.246  0.4781 -0.0640 -0.7087
14681SOL    HW145765   8.096   3.635   3.306  0.7913 -0.1601 -0.4891
14681SOL    HW245766   8.240   3.675   3.283  0.4072  1.5014 -0.1128
14682SOL     OW45767   5.817   8.844   4.849  0.5587 -0.3973  0.3465
14682SOL    HW145768   5.889   8.902   4.826  0.9995 -0.4183  1.5608
14682SOL    HW245769   5.766   8.835   4.769  2.4848 -1.2181 -0.8621
14683SOL     OW45770   2.006   2.492   2.727 -0.0392 -0.1808  0.5429
14683SOL    HW145771   1.984   2.507   2.635  1.0749  0.3099  0.3377
14683SOL    HW245772   1.995   2.398   2.739 -1.6712 -0.0334  0.3247
14684SOL     OW45773   2.360   1.597   3.344  0.0967 -0.6927 -0.2406
14684SOL    HW145774   2.418   1.523   3.360 -0.7533 -1.0485  1.4865
14684SOL    HW245775   2.276   1.557   3.321  0.1505 -0.2159 -1.3225
14685SOL     OW45776   3.646   9.393   2.392  0.1979 -0.0742  0.2815
14685SOL    HW145777   3.596   9.344   2.326 -0.7278  2.5051 -1.0641
14685SOL    HW245778   3.583   9.408   2.463  0.1864  0.0095  0.2534
14686SOL     OW45779   7.671   8.403   2.341 -0.0706  0.5869  0.1202
14686SOL    HW145780   7.617   8.428   2.417  0.9938 -0.6085  1.3201
14686SOL    HW245781   7.621   8.333   2.299 -0.5840  1.1338 -0.1961
14687SOL     OW45782   8.684   3.155   1.239  0.1959 -0.2846 -0.1510
14687SOL    HW145783   8.679   3.243   1.276 -1.0106 -1.0410  1.6099
14687SOL    HW245784   8.778   3.136   1.234  0.4538  0.9475 -0.2514
14688SOL     OW45785   6.130   7.166   4.040 -0.2166  0.4105  0.1038
14688SOL    HW145786   6.114   7.163   3.946 -1.7279  1.1740  0.2919
14688SOL    HW245787   6.211   7.118   4.053  0.9619  1.7603 -1.7974
14689SOL     OW45788   7.953   3.633   8.190  0.1178  0.0707 -0.3150
14689SOL    HW145789   7.885   3.700   8.196  0.1075 -0.0231  0.8879
14689SOL    HW245790   7.918   3.558   8.238  1.2120  0.1678  0.6958
14690SOL     OW45791   3.685   0.762   5.859  0.0727  0.5388 -0.1812
14690SOL    HW145792   3.604   0.790   5.818  0.0262  0.2781 -0.2691
14690SOL    HW245793   3.672   0.668   5.877  0.2695  0.5444 -0.0008
14691SOL     OW45794   3.524   1.620   8.813 -0.3632  0.1587  0.6223
14691SOL    HW145795   3.515   1.560   8.887 -0.5810  0.8200  1.1383
14691SOL    HW245796   3.606   1.666   8.829  0.1870 -0.5154 -0.1626
14692SOL     OW45797   2.654   9.307   7.148  0.0795  0.2221  0.0658
14692SOL    HW145798   2.587   9.298   7.215  0.5485 -0.1315  0.5000
14692SOL    HW245799   2.681   9.217   7.127 -1.2136  0.2124 -1.8147
14693SOL     OW45800   0.490   6.711   1.751 -0.3430 -0.1702  0.3878
14693SOL    HW145801   0.511   6.647   1.819  0.9025  0.7481  0.8917
14693SOL    HW245802   0.546   6.685   1.677 -1.4226 -0.9426 -0.1823
14694SOL     OW45803   1.677   2.480   7.539 -0.4928 -0.1482 -0.9436
14694SOL    HW145804   1.701   2.565   7.502  1.0368 -0.2761 -0.3183
14694SOL    HW245805   1.607   2.499   7.601  2.5783  1.4231  2.4089
14695SOL     OW45806   3.859   8.499   1.187  0.4629 -0.2084  0.1127
14695SOL    HW145807   3.821   8.432   1.131  1.1245  0.3083 -0.9731
14695SOL    HW245808   3.864   8.577   1.132  0.0774  0.6379  1.2374
14696SOL     OW45809   3.016   3.638   5.842  0.2629 -0.1282  0.3217
14696SOL    HW145810   2.954   3.657   5.772  1.3734  2.6497 -0.0167
14696SOL    HW245811   2.976   3.674   5.921  0.3286 -0.6321  0.5941
14697SOL     OW45812   8.043   8.485   3.913 -0.6786 -0.2944 -0.0896
14697SOL    HW145813   8.082   8.416   3.860  0.4115 -0.9227  1.4403
14697SOL    HW245814   8.001   8.544   3.850  2.5678  0.3344 -1.8609
14698SOL     OW45815   7.251   4.142   8.229  0.0124  0.4951  0.1935
14698SOL    HW145816   7.265   4.055   8.191  0.6179 -0.3671  2.2631
14698SOL    HW245817   7.189   4.128   8.300 -1.8408  2.2283 -0.9814
14699SOL     OW45818   2.383   3.528   7.314  0.4820 -0.0296 -0.2964
14699SOL    HW145819   2.456   3.584   7.289  0.0494  1.2433  1.1664
14699SOL    HW245820   2.330   3.521   7.235  0.5616  1.6113 -0.5311
14700SOL     OW45821   4.986   2.082   3.446 -0.4455  0.2251 -0.2168
14700SOL    HW145822   5.005   2.171   3.415  2.4744 -0.4186 -0.5741
14700SOL    HW245823   4.991   2.089   3.541  0.6556  0.3332 -0.2611
14701SOL     OW45824   4.429   4.721   5.504 -0.2460  0.3018 -0.0793
14701SOL    HW145825   4.444   4.626   5.508 -2.1778 -0.0511 -0.1502
14701SOL    HW245826   4.514   4.758   5.480  0.3429 -1.4880 -0.9162
14702SOL     OW45827   8.939   2.434   4.696  0.7530  0.0468  0.5680
14702SOL    HW145828   8.932   2.339   4.706  1.3813 -0.3246 -1.9400
14702SOL    HW245829   9.025   2.448   4.656  1.0159  1.7630  1.6363
14703SOL     OW45830   1.859   0.257   8.759  0.3366  0.4795 -0.0292
14703SOL    HW145831   1.893   0.346   8.770  0.7521  0.4847 -1.2186
14703SOL    HW245832   1.907   0.222   8.685  1.6708 -1.5119  1.6630
14704SOL     OW45833   1.536   7.168   6.396 -0.3235 -0.4141 -0.3845
14704SOL    HW145834   1.546   7.094   6.336 -0.3597  0.3529 -1.3575
14704SOL    HW245835   1.573   7.136   6.479 -1.0637 -1.7939 -0.5411
14705SOL     OW45836   8.640   5.568   1.719 -0.1939  0.0134  0.9508
14705SOL    HW145837   8.575   5.621   1.674 -0.0220 -0.6996 -0.1772
14705SOL    HW245838   8.624   5.478   1.689  0.0856 -0.4547  2.1322
14706SOL     OW45839   0.871   2.940   3.503  0.4931  0.5133 -0.3704
14706SOL    HW145840   0.962   2.918   3.523  0.5417  0.9071 -0.1488
14706SOL    HW245841   0.830   2.953   3.589  0.4561  1.2430 -0.4880
14707SOL     OW45842   7.251   7.476   3.755 -0.1634  0.0572 -0.1809
14707SOL    HW145843   7.199   7.504   3.830  0.1283  1.1667 -0.3792
14707SOL    HW245844   7.268   7.556   3.706 -0.3440 -0.6479 -1.4386
14708SOL     OW45845   2.413   2.817   0.975 -0.4051  0.2041 -0.2373
14708SOL    HW145846   2.381   2.840   1.062 -0.7523  0.9530 -0.5484
14708SOL    HW245847   2.446   2.900   0.939  0.2155 -0.1994 -0.6173
14709SOL     OW45848   1.612   4.231   0.996 -0.2717  0.4248  0.1962
14709SOL    HW145849   1.606   4.290   0.921 -1.3950 -0.3596 -0.3559
14709SOL    HW245850   1.558   4.271   1.064 -2.0164 -0.4943 -0.5772
14710SOL     OW45851   8.553   4.823   6.886  0.6038 -0.1016  0.5505
14710SOL    HW145852   8.533   4.876   6.963 -0.0900 -0.7538  0.8376
14710SOL    HW245853   8.609   4.753   6.919 -0.0226 -0.6131  0.5517
14711SOL     OW45854   1.515   0.870   3.829  0.2558  0.1644  0.4364
14711SOL    HW145855   1.503   0.964   3.815  0.6148  0.3171  1.1224
14711SOL    HW245856   1.607   0.855   3.808  0.5356  0.2088  1.5905
14712SOL     OW45857   3.058   9.634   3.641 -0.4381  0.2665 -0.1451
14712SOL    HW145858   3.062   9.539   3.654  1.2482  0.4376  0.9440
14712SOL    HW245859   3.092   9.647   3.553  2.2827 -0.0220  0.7363
14713SOL     OW45860   4.176   0.330   4.724  0.2896 -0.2227  0.2313
14713SOL    HW145861   4.207   0.314   4.813 -1.5027 -1.3020  0.7253
14713SOL    HW245862   4.081   0.333   4.732  0.0680 -0.6618 -1.6910
14714SOL     OW45863   2.497   5.330   0.550  0.4433 -0.0298 -0.0661
14714SOL    HW145864   2.583   5.306   0.584  0.4189  2.0736  1.7473
14714SOL    HW245865   2.516   5.394   0.482  0.3547  1.0893  0.9221
14715SOL     OW45866   1.412   0.624   3.886  0.4591  0.0301  0.5935
14715SOL    HW145867   1.424   0.718   3.872 -2.1441  0.3930  0.3090
14715SOL    HW245868   1.495   0.595   3.925  1.5883  2.2803  0.0424
14716SOL     OW45869   1.212   6.075   9.316 -0.8494 -0.9149  0.1917
14716SOL    HW145870   1.195   6.070   9.410  0.5918  0.0893  0.5427
14716SOL    HW245871   1.307   6.064   9.309 -0.9666 -1.1581 -1.1740
14717SOL     OW45872   5.520   1.401   6.497 -0.2706 -0.4249 -0.1678
14717SOL    HW145873   5.578   1.326   6.513  1.1032  0.6697  0.1900
14717SOL    HW245874   5.531   1.420   6.404  1.1604  0.7191  0.2084
14718SOL     OW45875   9.620   2.126   4.140 -0.1445  0.2545 -0.0161
14718SOL    HW145876   9.619   2.057   4.206 -0.2982  1.0345  0.7973
14718SOL    HW245877   9.696   2.104   4.085  1.5176  0.9434  1.8751
14719SOL     OW45878   0.960   5.929   0.586 -0.1194 -0.6936  0.1678
14719SOL    HW145879   0.951   5.885   0.502  0.9767 -1.9562  0.6796
14719SOL    HW245880   0.901   6.004   0.580 -0.5136 -1.0956 -1.4882
14720SOL     OW45881   6.496   4.241   6.121  0.4158  0.3326 -0.4142
14720SOL    HW145882   6.467   4.160   6.078 -0.7365  1.1036 -1.1477
14720SOL    HW245883   6.576   4.265   6.074 -0.1852  0.5328 -1.3726
14721SOL     OW45884   7.531   2.629   1.378  0.4029 -0.5390  0.6097
14721SOL    HW145885   7.527   2.719   1.411  0.1750  0.0206 -0.8696
14721SOL    HW245886   7.609   2.628   1.322  0.7811 -1.4646  1.1391
14722SOL     OW45887   8.504   1.376   4.239 -0.1945  0.1241 -0.4202
14722SOL    HW145888   8.598   1.390   4.251 -0.0328  0.1475 -1.5709
14722SOL    HW245889   8.486   1.292   4.280 -0.2113  1.3012  2.1872
14723SOL     OW45890   7.825   4.149   8.284 -0.3602 -0.3371  0.1542
14723SOL    HW145891   7.744   4.126   8.239 -0.6714  0.2998  0.3784
14723SOL    HW245892   7.807   4.233   8.325  0.8453  0.4499 -0.8700
14724SOL     OW45893   1.023   1.018   9.661  0.4960 -0.5473 -0.2030
14724SOL    HW145894   1.091   0.961   9.627  0.7214  0.3009 -1.2136
14724SOL    HW245895   1.055   1.107   9.645 -1.0734 -0.1233 -1.2382
14725SOL     OW45896   5.597   6.870   4.005 -0.7137 -0.1337  0.0250
14725SOL    HW145897   5.630   6.880   4.094 -0.3292  1.2595 -0.2521
14725SOL    HW245898   5.588   6.959   3.972  2.0260 -0.5810 -2.3605
14726SOL     OW45899   6.224   1.757   0.545  0.3300  0.2086 -0.6972
14726SOL    HW145900   6.218   1.801   0.630  1.7129  0.0438 -0.4907
14726SOL    HW245901   6.145   1.702   0.541 -0.5173  1.3505 -0.1954
14727SOL     OW45902   2.539   4.391   2.309 -0.0745  0.1774 -0.1556
14727SOL    HW145903   2.556   4.375   2.217 -1.6281  1.7625 -0.7755
14727SOL    HW245904   2.520   4.485   2.314 -1.2747 -0.1085  1.5598
14728SOL     OW45905   0.176   8.414   4.209  0.5536 -0.7061  0.5482
14728SOL    HW145906   0.128   8.412   4.126 -0.2631  2.3644  0.8279
14728SOL    HW245907   0.219   8.329   4.214 -0.7820 -1.6459 -2.1715
14729SOL     OW45908   4.472   1.442   7.680 -0.3444 -0.1971 -0.0768
14729SOL    HW145909   4.381   1.467   7.696 -0.1932  0.9602 -0.8366
14729SOL    HW245910   4.492   1.478   7.593  1.0505  0.2224  0.3799
14730SOL     OW45911   8.317   7.835   7.969 -0.0658  0.1752 -0.2992
14730SOL    HW145912   8.345   7.836   7.878 -0.8313  0.9140 -0.5336
14730SOL    HW245913   8.273   7.919   7.982  1.6575  0.9139  1.2765
14731SOL     OW45914   7.921   7.215   8.655 -0.2716 -0.1760 -0.0515
14731SOL    HW145915   7.902   7.264   8.575  1.5360 -2.1050 -1.8063
14731SOL    HW245916   8.016   7.222   8.665 -0.2479 -1.4835  0.8651
14732SOL     OW45917   7.372   3.063   7.451  0.1863  0.1454  0.0792
14732SOL    HW145918   7.382   3.053   7.545  1.0672 -0.9224 -0.1164
14732SOL    HW245919   7.426   2.995   7.413  0.8414  1.3480 -1.2373
14733SOL     OW45920   2.797   9.610   3.776  0.0728 -0.2320 -0.4452
14733SOL    HW145921   2.766   9.654   3.697 -0.3168 -1.0947 -0.7774
14733SOL    HW245922   2.882   9.651   3.794 -0.7223  1.3461 -0.1752
14734SOL     OW45923   2.253   2.071   8.069  0.0828  0.3320 -0.3336
14734SOL    HW145924   2.176   2.047   8.016 -0.5993  2.2204 -0.2819
14734SOL    HW245925   2.223   2.062   8.159  0.0117  0.7531 -0.3122
14735SOL     OW45926   0.419   2.129   0.883 -0.1392  0.5848 -0.1163
14735SOL    HW145927   0.340   2.098   0.927  0.5495 -0.2121  0.5898
14735SOL    HW245928   0.471   2.050   0.867  0.4770  1.0855 -0.6481
14736SOL     OW45929   3.487   3.784   2.893  0.5379 -0.4430  0.4469
14736SOL    HW145930   3.444   3.857   2.848  0.2249 -0.6280  0.4431
14736SOL    HW245931   3.417   3.720   2.907  0.8113 -0.7410  0.4547
14737SOL     OW45932   2.143   2.109   2.388 -0.0877  0.2401 -0.1692
14737SOL    HW145933   2.083   2.156   2.330  0.6702  0.6830 -0.6020
14737SOL    HW245934   2.214   2.171   2.406  0.3796 -0.3675  0.1226
14738SOL     OW45935   6.352   7.496   1.019 -0.5968 -0.0986  0.0290
14738SOL    HW145936   6.388   7.531   1.101 -1.1074  0.2188  0.1197
14738SOL    HW245937   6.258   7.514   1.024 -0.6309 -0.0654 -0.6365
14739SOL     OW45938   5.280   9.369   7.472  0.0434 -0.4230  0.4252
14739SOL    HW145939   5.315   9.394   7.386  1.7171 -1.5802  0.7135
14739SOL    HW245940   5.211   9.433   7.490  0.2187  0.3446 -1.3981
14740SOL     OW45941   4.093   6.808   8.675  0.3034 -0.0199 -0.1893
14740SOL    HW145942   4.047   6.891   8.660  2.9076  1.8343  1.3466
14740SOL    HW245943   4.058   6.775   8.758 -0.5675 -0.3763 -0.6862
14741SOL     OW45944   5.957   0.012   7.916  0.0848  0.8846  0.6217
14741SOL    HW145945   5.916  -0.015   7.998  0.4024  1.5010  0.9924
14741SOL    HW245946   5.994   0.099   7.935  0.1107  1.0613 -0.1865
14742SOL     OW45947   5.380   2.241   0.483  0.2836  0.3398  0.0254
14742SOL    HW145948   5.429   2.230   0.401  0.3817 -0.2178  0.1519
14742SOL    HW245949   5.435   2.299   0.536  0.7716 -0.1994  0.1257
14743SOL     OW45950   8.630   5.175   4.963 -0.1392  0.0226 -0.2070
14743SOL    HW145951   8.611   5.087   4.995  0.2428 -0.2744 -0.7796
14743SOL    HW245952   8.632   5.229   5.041 -1.4563 -0.2779  0.0560
14744SOL     OW45953   1.073   8.534   8.049 -0.2794 -0.4561  0.0633
14744SOL    HW145954   1.141   8.541   7.982  0.2405  1.3295  0.7348
14744SOL    HW245955   1.036   8.622   8.055 -2.5208 -1.3180 -0.1169
14745SOL     OW45956   4.338   9.551   1.817  0.2100  0.4100 -0.6119
14745SOL    HW145957   4.361   9.620   1.754  0.4006  1.2359  0.3257
14745SOL    HW245958   4.250   9.575   1.847  0.4334  0.4696  0.0084
14746SOL     OW45959   6.621   6.060   0.225 -0.5673 -0.3998 -0.1752
14746SOL    HW145960   6.619   6.115   0.147 -0.9626 -1.3520 -0.8577
14746SOL    HW245961   6.643   5.973   0.192  0.4528 -0.5752  0.9317
14747SOL     OW45962   8.710   6.051   2.587  0.2601  0.4039  0.0557
14747SOL    HW145963   8.614   6.045   2.581  0.2512  1.3741 -1.2491
14747SOL    HW245964   8.727   6.144   2.605  0.9925  0.5440 -1.2518
14748SOL     OW45965   5.656   5.486   3.576 -0.4240 -0.2090  0.0526
14748SOL    HW145966   5.606   5.407   3.556 -1.1252 -0.1848  1.5684
14748SOL    HW245967   5.747   5.462   3.557 -0.6076 -1.4352  0.6054
14749SOL     OW45968   4.834   4.809   0.195 -0.3506 -0.4967  0.7051
14749SOL    HW145969   4.864   4.782   0.282  1.9491 -0.7126 -0.0640
14749SOL    HW245970   4.915   4.822   0.145 -1.5624  0.8066 -1.0659
14750SOL     OW45971   3.083   8.623   8.442 -0.5007  0.2627  0.2128
14750SOL    HW145972   3.173   8.648   8.460 -0.5237  0.2153  0.4058
14750SOL    HW245973   3.090   8.539   8.397 -0.5068 -1.1373  2.6415
14751SOL     OW45974   4.394   1.164   5.373  0.5607  1.1900  0.0060
14751SOL    HW145975   4.326   1.225   5.401  0.7742  1.0457  0.8761
14751SOL    HW245976   4.347   1.084   5.350  0.4716  0.8426  1.3091
14752SOL     OW45977   4.526   1.933   8.615 -0.1717 -0.2792 -0.2099
14752SOL    HW145978   4.528   1.852   8.564 -1.0413 -1.1141  1.0254
14752SOL    HW245979   4.438   1.968   8.602  0.2453  0.5576 -0.8523
14753SOL     OW45980   3.561   6.359   8.332 -0.0800  0.1673 -0.1243
14753SOL    HW145981   3.559   6.265   8.317  1.1796 -0.0486  0.8630
14753SOL    HW245982   3.482   6.377   8.382 -1.3074 -0.0232 -1.9002
14754SOL     OW45983   8.897   8.095   5.892  0.2117  0.3138  0.1279
14754SOL    HW145984   8.966   8.034   5.916  0.6716  0.1036 -1.5911
14754SOL    HW245985   8.870   8.134   5.975  2.1739  0.1737  0.8973
14755SOL     OW45986   8.876   7.707   6.101 -0.4109  0.2148  0.4615
14755SOL    HW145987   8.858   7.671   6.188  0.0210  1.3681  1.0407
14755SOL    HW245988   8.792   7.743   6.072 -0.4516  0.2254  0.5900
14756SOL     OW45989   7.475   6.244   6.660  0.1914 -0.4275  0.1647
14756SOL    HW145990   7.393   6.209   6.694  1.4882 -2.5821  1.2808
14756SOL    HW245991   7.476   6.218   6.568 -0.5187 -0.0536  0.0435
14757SOL     OW45992   9.284   4.264   5.941 -0.2386 -0.3981  0.5718
14757SOL    HW145993   9.235   4.201   5.888 -0.9125 -1.4139  2.3222
14757SOL    HW245994   9.231   4.344   5.939 -1.0066 -0.8905  0.8847
14758SOL     OW45995   6.282   4.593   4.104 -0.1450 -0.2193 -0.3701
14758SOL    HW145996   6.304   4.661   4.167 -0.6849 -0.4272  0.0505
14758SOL    HW245997   6.196   4.618   4.070  0.5486  0.4250 -1.7766
14759SOL     OW45998   0.713   9.150   0.557  0.1819 -0.0769 -0.4390
14759SOL    HW145999   0.621   9.175   0.557  0.0301 -0.6068 -1.1324
14759SOL    HW246000   0.736   9.140   0.650  0.0908  1.9731 -0.1484
14760SOL     OW46001   7.643   0.915   6.352  0.1398  0.4653  0.3301
14760SOL    HW146002   7.573   0.946   6.410  0.9934  0.0077  1.6407
14760SOL    HW246003   7.723   0.925   6.403  0.5719 -3.0084  0.5560
14761SOL     OW46004   9.311   3.419   2.231  0.3153  0.5316  0.4059
14761SOL    HW146005   9.399   3.456   2.225  0.6148 -0.0064  1.3271
14761SOL    HW246006   9.275   3.429   2.142  0.9430  1.6066  0.2507
14762SOL     OW46007   1.091   8.453   3.119 -0.0691  0.0718 -0.1981
14762SOL    HW146008   1.158   8.506   3.076 -2.0147  1.7542 -1.3645
14762SOL    HW246009   1.024   8.440   3.052 -0.3683 -2.7081  0.5000
14763SOL     OW46010   7.706   4.402   8.369  0.5393  0.4983 -0.0649
14763SOL    HW146011   7.657   4.468   8.321  0.3025  0.2019 -0.2370
14763SOL    HW246012   7.651   4.382   8.445 -0.3697 -0.9366 -1.0365
14764SOL     OW46013   3.526   2.729   3.005  1.0336 -0.2469 -0.3384
14764SOL    HW146014   3.500   2.778   3.083  0.2333 -0.8829 -0.1989
14764SOL    HW246015   3.612   2.765   2.983  1.4537 -0.3062  1.0544
14765SOL     OW46016   8.342   8.572   9.206 -0.6096 -0.7241  0.3805
14765SOL    HW146017   8.365   8.628   9.281 -0.3229  1.8863 -1.5233
14765SOL    HW246018   8.331   8.485   9.244  0.8765  0.2027  3.2330
14766SOL     OW46019   7.464   7.177   3.249 -0.0563 -0.4655  0.3302
14766SOL    HW146020   7.465   7.272   3.254  1.5054 -0.4798  0.7413
14766SOL    HW246021   7.389   7.150   3.302 -0.3814  0.5201  0.3742
14767SOL     OW46022   1.445   0.937   4.518  0.1351  0.3466 -0.2072
14767SOL    HW146023   1.381   0.951   4.587 -0.8248  0.3844 -1.0880
14767SOL    HW246024   1.516   0.888   4.561 -0.6836 -0.1012  0.6755
14768SOL     OW46025   8.777   8.312   0.843  0.5677  0.2910  0.3650
14768SOL    HW146026   8.855   8.258   0.837  0.5519  0.3591 -0.7145
14768SOL    HW246027   8.713   8.269   0.786  0.6629  1.5790 -0.7705
14769SOL     OW46028   4.426   8.902   8.664  0.3411 -0.0573 -0.1750
14769SOL    HW146029   4.358   8.900   8.597 -0.9359 -2.1418  1.0360
14769SOL    HW246030   4.436   8.994   8.687  0.7024  0.6910 -3.0211
14770SOL     OW46031   8.377   0.470   9.313  0.5459 -0.1826  0.0038
14770SOL    HW146032   8.456   0.462   9.365 -0.0429  0.9513  1.1309
14770SOL    HW246033   8.306   0.471   9.377 -0.3442 -0.4637 -0.9401
14771SOL     OW46034   7.686   0.437   7.965 -0.6489 -0.4057 -0.1670
14771SOL    HW146035   7.645   0.391   8.038 -0.8804  0.2522  0.1258
14771SOL    HW246036   7.637   0.519   7.959 -1.5986 -1.0497 -1.9827
14772SOL     OW46037   9.100   3.917   5.856  0.4772 -0.4881  0.4094
14772SOL    HW146038   9.032   3.874   5.908  1.0253  0.2270  1.7645
14772SOL    HW246039   9.180   3.909   5.909  1.0138  0.4114 -0.2380
14773SOL     OW46040   2.041   0.584   5.958 -0.1950  0.1581  0.1360
14773SOL    HW146041   1.982   0.645   5.912  0.8614 -0.4645 -2.2178
14773SOL    HW246042   2.067   0.522   5.890  0.9685 -1.2453  1.8120
14774SOL     OW46043   1.553   5.159   1.783 -0.4390 -0.3585 -0.0388
14774SOL    HW146044   1.489   5.168   1.713 -0.9725  1.3406  0.6185
14774SOL    HW246045   1.517   5.211   1.855  0.9132 -0.6682  0.8942
14775SOL     OW46046   9.197   8.685   9.218 -0.0650  0.4211 -0.2003
14775SOL    HW146047   9.139   8.761   9.211 -0.3481  0.2731  0.4783
14775SOL    HW246048   9.225   8.685   9.310 -2.1582 -1.7992  0.5366
14776SOL     OW46049   6.700   6.870   8.458  0.3805 -0.0614  0.3716
14776SOL    HW146050   6.786   6.865   8.500 -0.4024  0.9887  2.2465
14776SOL    HW246051   6.640   6.829   8.520 -0.6084 -0.0714 -0.5513
14777SOL     OW46052   8.214   0.283   6.458 -0.2900  0.9173  0.2887
14777SOL    HW146053   8.291   0.230   6.477 -0.0550  1.6854  1.6209
14777SOL    HW246054   8.152   0.260   6.528 -1.1919  0.4784 -0.6362
14778SOL     OW46055   0.908   2.911   1.730 -0.2487  0.2934 -0.0890
14778SOL    HW146056   0.918   2.820   1.703  0.7567  0.0422  1.0183
14778SOL    HW246057   0.960   2.960   1.666 -0.1676  0.0078 -0.2460
14779SOL     OW46058   0.755   6.943   8.938  0.2484 -0.2779 -0.1712
14779SOL    HW146059   0.669   6.958   8.977  0.7114 -0.0273  0.7802
14779SOL    HW246060   0.789   7.030   8.921  0.1844 -0.3832 -0.8436
14780SOL     OW46061   7.453   3.130   6.132  0.0175 -0.3025  0.3004
14780SOL    HW146062   7.439   3.206   6.075 -0.6298 -0.0407  0.7948
14780SOL    HW246063   7.389   3.065   6.102 -1.2373  0.3046  1.5235
14781SOL     OW46064   4.044   2.385   1.488  0.0669 -1.0557 -0.1986
14781SOL    HW146065   4.034   2.471   1.530  1.3078 -0.6142 -0.7331
14781SOL    HW246066   4.022   2.401   1.396 -0.8456 -1.5967 -0.0870
14782SOL     OW46067   7.353   3.204   5.874 -0.0908 -0.7726 -0.2559
14782SOL    HW146068   7.275   3.172   5.828 -0.1675  0.5776 -1.1251
14782SOL    HW246069   7.427   3.164   5.828 -0.1539  0.7816 -1.7970
14783SOL     OW46070   2.221   3.050   3.381  0.4457  0.3542 -0.6826
14783SOL    HW146071   2.308   3.064   3.343  0.8481 -1.2856 -0.4356
14783SOL    HW246072   2.236   3.049   3.475 -0.2551  2.4859 -0.5030
14784SOL     OW46073   5.382   1.418   7.349 -0.0098 -0.5882 -0.1204
14784SOL    HW146074   5.372   1.379   7.263  2.1573 -0.6985 -0.3794
14784SOL    HW246075   5.299   1.400   7.394 -0.4688 -2.1741 -1.5184
14785SOL     OW46076   3.686   5.503   0.713  0.6289  0.8430 -0.0385
14785SOL    HW146077   3.725   5.590   0.705  3.1260 -0.0911  0.9434
14785SOL    HW246078   3.694   5.466   0.625  0.2895  1.3217 -0.2732
14786SOL     OW46079   7.994   2.134   9.126 -0.4512  1.0405  0.2376
14786SOL    HW146080   7.934   2.059   9.132 -0.3700  0.8381 -1.0791
14786SOL    HW246081   7.937   2.210   9.123 -0.7060  0.8222 -1.4596
14787SOL     OW46082   7.510   9.142   1.893 -0.5609  0.4827  0.0067
14787SOL    HW146083   7.583   9.187   1.850 -0.0982  0.1753  0.4634
14787SOL    HW246084   7.517   9.168   1.985 -0.7969  0.1504  0.1183
14788SOL     OW46085   0.617   7.249   1.281  0.9593 -0.2493  0.6042
14788SOL    HW146086   0.655   7.264   1.195 -0.1563 -2.2140 -0.2665
14788SOL    HW246087   0.537   7.301   1.282  0.7331 -0.5941  0.2820
14789SOL     OW46088   1.407   7.344   3.817  0.0919 -0.4184 -0.4729
14789SOL    HW146089   1.374   7.283   3.884 -0.7956  0.1083 -0.4190
14789SOL    HW246090   1.344   7.416   3.817  1.4067  0.7759 -0.1581
14790SOL     OW46091   7.907   6.823   6.279  0.3666  0.6824  0.2541
14790SOL    HW146092   7.846   6.874   6.225  0.2251 -1.0839 -1.3517
14790SOL    HW246093   7.858   6.802   6.358 -0.9659 -0.2544 -0.7821
14791SOL     OW46094   5.905   3.727   4.247 -0.5822  0.3272 -0.1210
14791SOL    HW146095   5.927   3.642   4.209 -1.3127  0.8674 -1.8087
14791SOL    HW246096   5.988   3.775   4.247 -0.4596  0.1226 -0.5127
14792SOL     OW46097   0.415   2.030   7.232 -0.3385 -0.3076 -0.0252
14792SOL    HW146098   0.483   1.974   7.195  0.6391  0.4768  0.5540
14792SOL    HW246099   0.458   2.080   7.301 -1.5114  0.1805  0.3954
14793SOL     OW46100   6.782   6.130   8.817 -0.2748 -0.7249  0.1882
14793SOL    HW146101   6.755   6.122   8.725 -0.1278 -0.0371  0.0752
14793SOL    HW246102   6.700   6.143   8.865 -0.3574 -1.1449  0.1639
14794SOL     OW46103   9.304   3.228   4.117 -0.3149 -0.2654  0.3509
14794SOL    HW146104   9.315   3.241   4.211  1.8580  0.3238  0.0642
14794SOL    HW246105   9.299   3.317   4.081 -0.5324 -0.4741 -0.1488
14795SOL     OW46106   5.751   8.037   3.226 -0.6731 -0.1532  0.3096
14795SOL    HW146107   5.730   8.095   3.153  2.7583 -0.6217 -1.2114
14795SOL    HW246108   5.811   8.088   3.281 -0.0682 -1.1914  0.6385
14796SOL     OW46109   3.102   5.252   4.610  0.0766  0.5295  0.0216
14796SOL    HW146110   3.112   5.344   4.632 -0.5821  1.5646 -3.4110
14796SOL    HW246111   3.007   5.236   4.614  0.0615  0.4012 -0.6627
14797SOL     OW46112   3.296   4.439   7.265 -0.4951 -0.0580  0.0082
14797SOL    HW146113   3.332   4.353   7.287  0.9422  0.9441  1.8509
14797SOL    HW246114   3.344   4.466   7.186  0.2074 -0.2771  0.3532
14798SOL     OW46115   2.933   3.789   7.573 -0.1364 -0.0922 -0.0392
14798SOL    HW146116   3.015   3.834   7.593  0.2286 -1.5263  2.0224
14798SOL    HW246117   2.871   3.860   7.555  0.9579  1.1334  0.8171
14799SOL     OW46118   2.468   2.729   3.551  0.2734 -0.1964  0.0070
14799SOL    HW146119   2.437   2.639   3.550 -1.4250  0.2957  1.8308
14799SOL    HW246120   2.519   2.736   3.631  0.1140  0.5528  0.0517
14800SOL     OW46121   3.079   6.048   1.478 -0.0941 -0.4604  0.8066
14800SOL    HW146122   3.149   6.056   1.543  2.5878  1.8793 -2.0520
14800SOL    HW246123   3.001   6.078   1.524  1.6612  1.1505  2.9750
14801SOL     OW46124   8.603   3.938   8.374  0.5302 -0.3994  0.0438
14801SOL    HW146125   8.635   4.021   8.339  4.1916 -1.3629  0.6917
14801SOL    HW246126   8.535   3.963   8.437  2.4872  2.2824  1.2834
14802SOL     OW46127   3.655   6.876   0.150 -0.0896  0.4742  0.4434
14802SOL    HW146128   3.706   6.942   0.196 -1.6029  0.1994  2.6898
14802SOL    HW246129   3.607   6.924   0.082 -0.9465  1.6999  1.8442
14803SOL     OW46130   9.339   7.284   3.074 -0.8452 -0.1071 -0.0672
14803SOL    HW146131   9.287   7.356   3.040 -0.4545  1.0477  1.6310
14803SOL    HW246132   9.292   7.205   3.048 -3.7637  0.8704  1.7689
14804SOL     OW46133   7.845   1.867   9.552  0.5926  0.0234 -0.3433
14804SOL    HW146134   7.821   1.927   9.482  0.1710 -1.4430 -1.4982
14804SOL    HW246135   7.887   1.923   9.618 -1.1644  1.8103 -0.6561
14805SOL     OW46136   1.675   1.986   1.128 -0.3728  0.3429 -0.1922
14805SOL    HW146137   1.609   1.994   1.059  0.6992  0.1904 -1.2672
14805SOL    HW246138   1.730   2.064   1.117  1.0558 -0.7228 -0.8894
14806SOL     OW46139   3.712   8.429   9.612  0.0041 -0.1133  0.1993
14806SOL    HW146140   3.665   8.357   9.655 -0.2864  0.1079  0.2551
14806SOL    HW246141   3.752   8.388   9.536 -2.3269  0.1439 -1.2761
14807SOL     OW46142   5.485   1.415   3.187  0.2037  0.7795  0.2705
14807SOL    HW146143   5.554   1.367   3.140  0.0609  0.3905  0.4506
14807SOL    HW246144   5.428   1.346   3.220  0.1054  1.0733  0.7075
14808SOL     OW46145   2.265   4.608   4.464  0.2873 -0.1574  0.0232
14808SOL    HW146146   2.176   4.641   4.453  0.8395  1.1405 -0.7698
14808SOL    HW246147   2.276   4.544   4.394  0.2591  0.3412 -0.4472
14809SOL     OW46148   0.909   3.929   5.443 -0.3132 -0.1653 -0.2851
14809SOL    HW146149   0.953   3.990   5.502 -1.7541 -0.8113  1.5593
14809SOL    HW246150   0.977   3.900   5.382  1.4419 -0.0003  1.5040
14810SOL     OW46151   5.518   3.418   5.704  0.5013  0.3193 -0.6874
14810SOL    HW146152   5.558   3.487   5.758 -0.9598  0.5979  0.0800
14810SOL    HW246153   5.525   3.339   5.757  0.5696  0.2379 -0.8163
14811SOL     OW46154   4.685   6.154   3.513  0.1156  0.4097 -0.8816
14811SOL    HW146155   4.624   6.093   3.554  2.6986 -0.5461  2.0176
14811SOL    HW246156   4.741   6.099   3.458  0.1828  0.7586 -1.1634
14812SOL     OW46157   6.282   0.415   8.526  0.0455  0.2904 -0.0286
14812SOL    HW146158   6.317   0.337   8.483  0.5801  0.3952  0.2064
14812SOL    HW246159   6.247   0.468   8.454 -0.9047 -0.4440 -0.1321
14813SOL     OW46160   3.572   3.594   4.236 -0.1281  0.1545 -0.0548
14813SOL    HW146161   3.566   3.506   4.272 -0.5802  0.4444  0.6056
14813SOL    HW246162   3.618   3.644   4.304  1.0892  0.1949 -0.8783
14814SOL     OW46163   7.489   2.713   5.031  1.0312  0.2050 -0.3923
14814SOL    HW146164   7.453   2.692   5.117  2.0796  0.1801  0.0558
14814SOL    HW246165   7.581   2.733   5.048  0.9367  1.5308 -1.3237
14815SOL     OW46166   6.790   7.616   1.234 -0.0080 -0.5275  0.2822
14815SOL    HW146167   6.879   7.652   1.238 -1.5435  3.7552  1.0085
14815SOL    HW246168   6.782   7.565   1.315  1.6268 -0.7028  0.3707
14816SOL     OW46169   4.937   9.225   2.446 -0.0401  0.2769  0.2154
14816SOL    HW146170   4.855   9.179   2.464  1.3738 -2.2455  0.8633
14816SOL    HW246171   4.988   9.216   2.526  1.8565 -0.6409 -0.9913
14817SOL     OW46172   8.339   6.369   5.370  0.0145  0.7240  0.2907
14817SOL    HW146173   8.356   6.300   5.305 -3.0408  0.5906 -0.5201
14817SOL    HW246174   8.415   6.366   5.427  0.1777 -3.2128  0.1785
14818SOL     OW46175   1.972   8.930   6.311  0.4555 -0.2060  0.0508
14818SOL    HW146176   1.907   8.872   6.351  1.9323 -0.9649  1.4018
14818SOL    HW246177   1.938   8.945   6.222 -1.1688 -1.1941  0.4634
14819SOL     OW46178   1.911   1.048   4.822  0.3574 -0.0763  0.3116
14819SOL    HW146179   1.850   1.117   4.846  0.2419 -0.1676  0.2783
14819SOL    HW246180   1.863   0.967   4.836  0.1243 -0.1212 -0.6680
14820SOL     OW46181   3.403   2.617   3.654  0.0507 -0.9283  0.1237
14820SOL    HW146182   3.453   2.698   3.658 -1.6453  0.2285 -0.7522
14820SOL    HW246183   3.452   2.562   3.593  1.3881 -0.7030  0.9714
14821SOL     OW46184   0.205   6.202   5.867  0.7905  0.4212  0.0464
14821SOL    HW146185   0.129   6.150   5.896  0.7291  0.1262 -0.6295
14821SOL    HW246186   0.183   6.292   5.891  0.7260  0.1901  0.8766
14822SOL     OW46187   3.659   1.629   0.247  0.1986 -0.3101 -0.4799
14822SOL    HW146188   3.661   1.713   0.202 -1.2945 -0.3410 -0.6521
14822SOL    HW246189   3.720   1.639   0.320  1.5067  0.2474 -1.6051
14823SOL     OW46190   1.960   4.767   8.693  0.6535  0.4221  0.7211
14823SOL    HW146191   1.977   4.681   8.731 -2.6469 -0.5250  0.4106
14823SOL    HW246192   2.032   4.782   8.632  2.2719 -1.2481  2.1217
14824SOL     OW46193   3.895   9.238   4.234  0.1801  0.0769 -0.4463
14824SOL    HW146194   3.826   9.253   4.169  0.4798  0.7949 -0.6100
14824SOL    HW246195   3.975   9.229   4.182  0.1597 -1.1843 -0.2872
14825SOL     OW46196   8.844   8.433   8.509  0.1879  0.0775 -0.0108
14825SOL    HW146197   8.857   8.522   8.476  1.5469 -1.1824 -3.3133
14825SOL    HW246198   8.765   8.403   8.464  0.2501 -0.6535  0.3665
14826SOL     OW46199   8.762   7.216   1.821  0.1953  0.4062 -0.3642
14826SOL    HW146200   8.835   7.279   1.820 -1.2331  2.2510  1.5468
14826SOL    HW246201   8.771   7.171   1.905  0.0138 -0.5033 -0.8192
14827SOL     OW46202   6.321   5.822   5.043  0.0844  0.0207  0.1019
14827SOL    HW146203   6.322   5.771   4.962  1.5252 -2.0028  1.3063
14827SOL    HW246204   6.361   5.905   5.019  1.8936 -1.0984 -0.9610
14828SOL     OW46205   0.642   3.872   5.311  0.0389  0.8938  0.2061
14828SOL    HW146206   0.731   3.879   5.347 -0.3064  1.6458  0.9595
14828SOL    HW246207   0.614   3.963   5.300 -0.3803  0.6679 -0.7072
14829SOL     OW46208   3.437   4.748   5.892  0.0929  0.2463 -0.1222
14829SOL    HW146209   3.382   4.826   5.884  0.8581  0.6807 -1.2694
14829SOL    HW246210   3.389   4.691   5.953 -1.3472  0.8440 -0.6713
14830SOL     OW46211   7.149   1.800   9.566  0.4903  0.1458 -0.1495
14830SOL    HW146212   7.131   1.872   9.506  2.1958  1.0674  0.3753
14830SOL    HW246213   7.081   1.735   9.547 -1.3491  2.0369 -0.3492
14831SOL     OW46214   3.509   1.105   7.972 -0.5923 -0.0104  0.6292
14831SOL    HW146215   3.424   1.123   7.933 -0.2295 -0.0376 -0.2057
14831SOL    HW246216   3.490   1.049   8.047 -1.6446  2.7585  2.6076
14832SOL     OW46217   3.203   2.405   3.344 -0.1816 -0.0093 -0.1390
14832SOL    HW146218   3.184   2.324   3.297 -1.7799  0.5324 -0.4756
14832SOL    HW246219   3.158   2.396   3.428  2.8509 -1.0756  1.5006
14833SOL     OW46220   5.285   6.621   6.803  0.1468  0.3696  0.0825
14833SOL    HW146221   5.306   6.628   6.897  2.5352 -0.4393 -0.3130
14833SOL    HW246222   5.235   6.700   6.784 -0.0720  0.7346  1.9708
14834SOL     OW46223   6.916   0.994   9.690  0.0207 -0.0356 -0.3799
14834SOL    HW146224   6.985   0.990   9.756  0.0370  1.8478 -0.2091
14834SOL    HW246225   6.863   1.069   9.717 -2.4957 -1.7895 -0.1569
14835SOL     OW46226   2.370   2.640   5.018  0.4752 -0.0744 -0.0202
14835SOL    HW146227   2.371   2.586   4.938  0.7856  1.3586 -1.0213
14835SOL    HW246228   2.353   2.729   4.986  1.2932  0.6343  1.4443
14836SOL     OW46229   2.560   9.368   2.382  0.2863  0.1858 -0.2795
14836SOL    HW146230   2.642   9.412   2.404 -0.3301  1.0330  0.4173
14836SOL    HW246231   2.575   9.276   2.404  0.0898  0.7891  2.7570
14837SOL     OW46232   0.193   7.130   8.774  0.1584 -0.6969 -0.6856
14837SOL    HW146233   0.137   7.181   8.715 -1.8068  0.1495  1.7178
14837SOL    HW246234   0.273   7.181   8.781 -0.9559  1.0568  0.0444
14838SOL     OW46235   7.769   7.898   2.515 -0.4001  0.1761  0.3901
14838SOL    HW146236   7.749   7.928   2.426 -2.1070  0.0653  0.6950
14838SOL    HW246237   7.698   7.838   2.536  0.2400 -0.1713  1.6647
14839SOL     OW46238   6.341   3.364   3.492 -0.3075 -0.2509 -0.7325
14839SOL    HW146239   6.312   3.456   3.495  1.1765  0.2673 -1.5446
14839SOL    HW246240   6.259   3.314   3.497 -1.1460  1.1022 -0.2093
14840SOL     OW46241   0.411   3.688   9.388  0.1046 -0.1117 -0.5324
14840SOL    HW146242   0.463   3.758   9.349  1.2924 -1.2510 -1.0790
14840SOL    HW246243   0.367   3.729   9.462  1.8584  0.9027  0.0169
14841SOL     OW46244   4.401   8.989   6.170 -0.3550 -0.0297 -0.0034
14841SOL    HW146245   4.355   9.073   6.162  0.9986  0.6213 -1.5109
14841SOL    HW246246   4.349   8.939   6.234 -1.9840  1.4108 -0.1264
14842SOL     OW46247   8.941   5.068   7.954  0.1461  0.6055  0.1400
14842SOL    HW146248   8.892   5.039   8.031 -0.3457  1.5948  0.2112
14842SOL    HW246249   8.998   5.137   7.987  2.6988 -1.4216  0.3734
14843SOL     OW46250   2.152   5.370   5.318  0.3344 -0.3898  0.0603
14843SOL    HW146251   2.206   5.362   5.240 -0.5807 -1.7501 -0.4763
14843SOL    HW246252   2.072   5.412   5.288 -0.2776 -1.4888  0.1140
14844SOL     OW46253   3.707   3.626   2.350  0.2625 -0.0252 -0.1857
14844SOL    HW146254   3.784   3.658   2.397  0.5717 -0.5405 -0.3353
14844SOL    HW246255   3.707   3.531   2.365 -1.2637  0.1407  1.1850
14845SOL     OW46256   4.919   3.868   3.375  0.4778  0.6677  0.2334
14845SOL    HW146257   5.006   3.832   3.356  1.0312  1.9786  0.2285
14845SOL    HW246258   4.880   3.804   3.435  1.0240 -0.4659 -0.5630
14846SOL     OW46259   6.838   3.067   0.126 -0.2649 -0.4210 -0.0283
14846SOL    HW146260   6.920   3.018   0.112 -0.4595 -0.1977 -2.1522
14846SOL    HW246261   6.818   3.052   0.219  2.2161 -0.4109  0.5947
14847SOL     OW46262   0.257   4.307   5.463  0.2972  0.9728  0.1806
14847SOL    HW146263   0.307   4.327   5.384 -0.1743  2.6819  0.2670
14847SOL    HW246264   0.192   4.243   5.435  0.4894  1.1547 -0.7017
14848SOL     OW46265   5.593   7.756   1.209  0.0410  0.0753 -0.5186
14848SOL    HW146266   5.587   7.664   1.236  3.3777 -0.2762 -0.5612
14848SOL    HW246267   5.671   7.760   1.154  1.1322  3.2563  1.0051
14849SOL     OW46268   0.652   3.911   5.703 -0.2592 -0.0018 -0.4176
14849SOL    HW146269   0.624   3.820   5.703 -1.7932  0.4401  0.0284
14849SOL    HW246270   0.748   3.907   5.698 -0.3476 -1.5917 -1.6830
14850SOL     OW46271   4.935   2.079   5.373 -0.5840  0.2914  0.3008
14850SOL    HW146272   5.001   2.137   5.335 -2.0693  1.9136  0.0710
14850SOL    HW246273   4.934   2.003   5.315  0.7419  0.4216  0.0666
14851SOL     OW46274   0.801   6.691   4.595  0.5805  0.1425 -0.5949
14851SOL    HW146275   0.817   6.601   4.622  1.3851  0.4229 -0.1121
14851SOL    HW246276   0.733   6.684   4.528  0.3215 -0.7815 -0.2526
14852SOL     OW46277   4.603   2.282   7.989 -0.1631 -0.0984 -0.1941
14852SOL    HW146278   4.654   2.259   8.067  1.2728  1.2050 -0.7087
14852SOL    HW246279   4.557   2.363   8.013  0.7216  0.6203 -0.8585
14853SOL     OW46280   4.732   0.436   6.235  0.4610 -0.3682  0.3294
14853SOL    HW146281   4.746   0.529   6.215 -0.2023 -0.3723 -0.1857
14853SOL    HW246282   4.752   0.429   6.328 -0.8555  0.5856  0.7175
14854SOL     OW46283   4.216   6.712   5.384 -0.2295 -0.5483 -0.0329
14854SOL    HW146284   4.175   6.686   5.467  0.6308 -1.7191  0.0674
14854SOL    HW246285   4.300   6.665   5.384 -0.7754 -1.6254 -2.1590
14855SOL     OW46286   6.282   1.989   2.756 -0.0614 -0.2538  0.2674
14855SOL    HW146287   6.232   1.927   2.702 -1.8312  1.5870 -0.3122
14855SOL    HW246288   6.356   2.013   2.701 -1.6858  1.3803 -1.3706
14856SOL     OW46289   8.635   6.364   2.053 -0.0386 -0.0198  0.0421
14856SOL    HW146290   8.643   6.292   2.115  0.2326  1.1467  1.4321
14856SOL    HW246291   8.541   6.369   2.035  0.0450 -1.3368 -0.8766
14857SOL     OW46292   4.914   8.347   4.076 -0.2988  0.6672 -0.8818
14857SOL    HW146293   4.924   8.256   4.048 -0.2592  0.8265 -1.4106
14857SOL    HW246294   4.985   8.393   4.031 -0.4817  0.9987 -0.8306
14858SOL     OW46295   7.698   3.694   6.971 -0.3025 -0.4139 -0.0543
14858SOL    HW146296   7.793   3.698   6.981 -0.0705 -1.6042 -1.4414
14858SOL    HW246297   7.667   3.655   7.052  0.5524 -1.4106 -0.1930
14859SOL     OW46298   0.891   6.017   6.771  0.0123 -1.0240 -0.5811
14859SOL    HW146299   0.796   6.007   6.778 -0.1005  0.4309  0.3588
14859SOL    HW246300   0.903   6.074   6.695 -0.0389  0.6333  0.6001
14860SOL     OW46301   2.448   9.110   8.394 -0.3846 -0.2449  0.1151
14860SOL    HW146302   2.520   9.115   8.331  0.9065  1.5486  1.6156
14860SOL    HW246303   2.484   9.059   8.466 -1.4709 -1.3521 -0.1064
14861SOL     OW46304   3.696   0.451   3.572 -0.1809  0.3596  0.1574
14861SOL    HW146305   3.770   0.435   3.514 -0.5144 -1.5697  0.1700
14861SOL    HW246306   3.733   0.449   3.660  0.1613  2.2332  0.0821
14862SOL     OW46307   5.462   9.036   8.419 -0.0972 -0.2104  0.4891
14862SOL    HW146308   5.378   9.005   8.454 -0.8657  1.2477  0.0009
14862SOL    HW246309   5.464   9.129   8.440  1.7291 -0.3341  1.0877
14863SOL     OW46310   0.994   5.885   9.227 -0.3187  0.1879 -0.0542
14863SOL    HW146311   0.909   5.928   9.238 -0.4456 -0.5122  2.2979
14863SOL    HW246312   1.058   5.953   9.250 -0.2956  0.3424 -0.5649
14864SOL     OW46313   8.430   1.254   6.284 -0.9357 -0.1405 -0.1201
14864SOL    HW146314   8.516   1.233   6.247 -0.4715  0.3489  0.6418
14864SOL    HW246315   8.450   1.302   6.365 -1.9330  0.6822 -0.3415
14865SOL     OW46316   4.905   4.194   6.308 -0.3892  0.2731 -0.3133
14865SOL    HW146317   4.984   4.229   6.351  0.1837 -2.1188  0.8043
14865SOL    HW246318   4.839   4.262   6.319  0.4043  0.7335  2.4550
14866SOL     OW46319   6.468   6.920   8.238 -0.3121 -0.3669 -0.0629
14866SOL    HW146320   6.507   6.839   8.268  1.6185 -0.4003 -2.3864
14866SOL    HW246321   6.500   6.987   8.299 -0.8898 -1.1100  1.0958
14867SOL     OW46322   9.664   3.193   8.307 -0.3025 -0.1493  0.0817
14867SOL    HW146323   9.654   3.215   8.215  1.1263 -1.3039 -0.3737
14867SOL    HW246324   9.744   3.141   8.312 -0.1139  0.2316  2.0361
14868SOL     OW46325   3.448   5.257   0.728 -0.1084 -0.3886 -0.5790
14868SOL    HW146326   3.442   5.350   0.708  3.4223  0.2356  0.6568
14868SOL    HW246327   3.491   5.219   0.652  1.1665 -0.4217  0.1343
14869SOL     OW46328   6.166   4.307   2.377  0.2198  0.3266 -0.3353
14869SOL    HW146329   6.148   4.349   2.461  0.7374  0.4847 -0.3022
14869SOL    HW246330   6.220   4.370   2.330 -0.6452  0.5321 -1.0640
14870SOL     OW46331   7.887   2.723   7.756  0.8256  0.2685  0.2623
14870SOL    HW146332   7.929   2.788   7.811  1.1867 -0.0260  0.3393
14870SOL    HW246333   7.800   2.710   7.794  0.7437  0.7181  0.2309
14871SOL     OW46334   4.828   3.277   4.114  0.0736 -0.4517 -0.2150
14871SOL    HW146335   4.913   3.289   4.157  0.0517  1.0570 -0.5260
14871SOL    HW246336   4.787   3.204   4.161  1.2588 -0.7617  0.3781
14872SOL     OW46337   6.924   8.204   2.484 -0.1253  0.3539  0.4604
14872SOL    HW146338   6.895   8.113   2.476  1.0640 -0.0038  0.0972
14872SOL    HW246339   6.902   8.243   2.400  0.6611  0.0190  0.0957
14873SOL     OW46340   3.837   2.553   9.309  0.4181 -0.0496  0.6246
14873SOL    HW146341   3.875   2.555   9.396 -1.0194  1.1434  1.2828
14873SOL    HW246342   3.849   2.642   9.276 -1.3468  0.2705  0.7109
14874SOL     OW46343   2.524   3.859   9.479  0.5049 -0.3090  0.0137
14874SOL    HW146344   2.522   3.821   9.391  0.9168 -0.5960  0.1230
14874SOL    HW246345   2.517   3.784   9.538 -1.5190 -0.0007  0.2440
14875SOL     OW46346   0.260   5.251   5.751  0.0288  0.0894  0.0688
14875SOL    HW146347   0.215   5.243   5.666 -0.2742 -3.3044  0.3984
14875SOL    HW246348   0.351   5.271   5.728  0.2537 -2.1310 -1.2156
14876SOL     OW46349   8.029   3.137   7.859  0.2276 -0.1154 -0.3608
14876SOL    HW146350   8.049   3.152   7.766  2.9973  0.4762  0.2663
14876SOL    HW246351   7.970   3.209   7.883 -0.1691 -0.0266 -1.5252
14877SOL     OW46352   6.948   1.420   6.972  0.2088 -0.4704  0.2973
14877SOL    HW146353   6.892   1.426   7.050 -1.5005  1.6514 -0.9851
14877SOL    HW246354   6.911   1.348   6.922 -0.0623 -0.4360  0.4442
14878SOL     OW46355   6.530   5.519   6.492  0.0744  0.2908 -0.0898
14878SOL    HW146356   6.494   5.602   6.524 -0.9712 -0.2307  0.1399
14878SOL    HW246357   6.553   5.471   6.571  0.6390  0.3420 -0.2229
14879SOL     OW46358   4.077   7.513   1.570  0.0850  0.0414  0.1695
14879SOL    HW146359   4.014   7.572   1.527  0.3539 -0.3207 -0.7434
14879SOL    HW246360   4.160   7.560   1.566 -0.0467  0.3774  1.0862
14880SOL     OW46361   5.079   7.061   3.898 -0.4462 -0.6090 -0.2417
14880SOL    HW146362   5.152   7.007   3.928 -0.6125 -1.2810 -1.0006
14880SOL    HW246363   5.027   7.078   3.977  1.1254  0.8443  0.5233
14881SOL     OW46364   3.635   4.091   8.449  0.1890  0.1344 -0.0899
14881SOL    HW146365   3.589   4.036   8.385 -0.9531 -0.1483  0.9290
14881SOL    HW246366   3.700   4.139   8.398 -0.3147 -0.4996 -1.3632
14882SOL     OW46367   3.372   6.300   2.952  0.6900 -0.3464 -0.4543
14882SOL    HW146368   3.345   6.391   2.936  0.0304 -0.3010  0.7833
14882SOL    HW246369   3.310   6.247   2.903  1.6128 -0.1463 -1.9174
14883SOL     OW46370   3.701   7.622   2.248 -0.1650 -0.1601 -0.2250
14883SOL    HW146371   3.741   7.624   2.335 -0.6527 -1.3472  0.0530
14883SOL    HW246372   3.610   7.649   2.263 -0.4388 -1.0411 -0.2351
14884SOL     OW46373   2.593   2.718   6.031 -0.9218  0.1457  0.2022
14884SOL    HW146374   2.605   2.680   5.945 -1.5972 -0.4231  0.3518
14884SOL    HW246375   2.664   2.683   6.084  0.1948  1.4179 -0.4113
14885SOL     OW46376   6.551   3.657   4.987 -0.2563 -0.0725  0.6068
14885SOL    HW146377   6.491   3.594   4.947 -0.6358 -0.5867  1.9429
14885SOL    HW246378   6.548   3.733   4.929 -0.8340 -0.7594 -0.2946
14886SOL     OW46379   2.319   5.790   6.321 -0.0535  0.3842  0.1224
14886SOL    HW146380   2.362   5.864   6.363  1.1680 -0.2893  0.1046
14886SOL    HW246381   2.370   5.774   6.242 -0.2124 -0.5612  0.1987
14887SOL     OW46382   5.880   0.338   7.472 -0.4841 -0.0926 -1.4841
14887SOL    HW146383   5.784   0.339   7.480 -0.5246 -1.1240 -1.6429
14887SOL    HW246384   5.902   0.417   7.423 -1.0939  1.1427  0.1543
14888SOL     OW46385   1.168   7.236   2.566  0.2088  0.1199  0.4679
14888SOL    HW146386   1.166   7.327   2.597 -0.0811  0.2461  0.0894
14888SOL    HW246387   1.251   7.202   2.597 -0.8752 -0.3631  3.1340
14889SOL     OW46388   5.635   6.410   7.154 -0.8093  0.5906  0.2039
14889SOL    HW146389   5.614   6.326   7.112  0.2627 -0.0868  0.9576
14889SOL    HW246390   5.642   6.472   7.082  0.6817 -0.4790 -0.6177
14890SOL     OW46391   5.198   5.140   0.315  0.2289  0.4659 -0.1867
14890SOL    HW146392   5.129   5.083   0.281 -0.7626  2.0209 -0.8571
14890SOL    HW246393   5.260   5.148   0.242  0.3720  0.2731 -0.0897
14891SOL     OW46394   2.526   2.029   1.753  0.8850  0.2189 -0.2580
14891SOL    HW146395   2.531   1.934   1.752  3.0723  0.2641 -2.6469
14891SOL    HW246396   2.438   2.049   1.722 -0.1490 -0.9429  1.7211
14892SOL     OW46397   2.582   6.081   6.008 -0.2051  0.1858  0.3410
14892SOL    HW146398   2.537   5.998   5.991 -0.3161  0.0531  1.2763
14892SOL    HW246399   2.644   6.060   6.078  0.1804  0.7561  0.1724
14893SOL     OW46400   8.975   3.690   6.328 -0.5970 -0.2908  0.4323
14893SOL    HW146401   8.940   3.693   6.417 -0.0610 -0.6740  0.6652
14893SOL    HW246402   8.931   3.761   6.282 -0.1487  0.5625  1.2803
14894SOL     OW46403   4.310   4.906   7.372 -0.1996 -0.1240  0.0538
14894SOL    HW146404   4.334   4.884   7.462  0.0246  0.3231  0.1085
14894SOL    HW246405   4.338   4.830   7.321  0.3242 -0.0820  0.2683
14895SOL     OW46406   4.307   3.843   1.842  0.1470 -0.6849 -0.0643
14895SOL    HW146407   4.264   3.860   1.757 -1.0658 -3.1566 -0.0278
14895SOL    HW246408   4.396   3.874   1.830 -1.0534  3.1360 -0.7195
14896SOL     OW46409   8.008   2.863   3.139 -0.1410 -0.0678  0.0339
14896SOL    HW146410   7.972   2.942   3.179 -1.6006 -1.0137  0.6668
14896SOL    HW246411   7.962   2.855   3.056 -1.6493 -1.3867  0.9306
14897SOL     OW46412   5.611   7.371   2.265 -0.2192 -0.0426 -0.4802
14897SOL    HW146413   5.620   7.324   2.348 -0.8895  2.3739  1.0514
14897SOL    HW246414   5.556   7.446   2.285  0.3115  1.1185 -2.9246
14898SOL     OW46415   3.831   1.155   5.358  0.5240 -0.3253  0.1572
14898SOL    HW146416   3.822   1.205   5.278 -0.0410 -0.6004  0.0427
14898SOL    HW246417   3.833   1.220   5.428  0.0252 -0.1322 -0.0078
14899SOL     OW46418   6.511   2.953   5.858 -0.5105  0.5966 -0.0298
14899SOL    HW146419   6.528   2.860   5.877  0.6481  0.9092  0.5740
14899SOL    HW246420   6.429   2.953   5.810 -1.4020 -0.6218  1.3902
14900SOL     OW46421   2.514   6.887   9.526  0.0365 -0.0988  0.0885
14900SOL    HW146422   2.447   6.949   9.500 -1.1487 -1.8290 -1.1642
14900SOL    HW246423   2.492   6.806   9.481  2.7462 -0.8693 -0.0754
14901SOL     OW46424   2.596   0.514   3.129  0.1271 -0.4672 -0.0912
14901SOL    HW146425   2.551   0.518   3.045  0.3897  0.2152 -0.2113
14901SOL    HW246426   2.593   0.422   3.154 -0.4461 -0.5864 -0.5756
14902SOL     OW46427   4.494   2.084   1.219  0.0741  0.3512  0.5099
14902SOL    HW146428   4.491   2.159   1.160  1.0450  0.2372  0.3053
14902SOL    HW246429   4.545   2.115   1.294  0.8160 -0.2199  0.2466
14903SOL     OW46430   1.804   8.823   1.102 -0.1864  0.1206 -0.1550
14903SOL    HW146431   1.732   8.880   1.130 -1.0732 -0.9471 -0.2132
14903SOL    HW246432   1.772   8.734   1.116  1.4210 -0.3863  0.5450
14904SOL     OW46433   4.485   9.670   3.088 -0.0342 -0.1893 -0.2388
14904SOL    HW146434   4.558   9.608   3.088 -1.4577 -1.9649  0.0716
14904SOL    HW246435   4.524   9.754   3.066  2.3239 -0.7930  1.3622
14905SOL     OW46436   3.961   7.727   9.245  0.2665  0.5349 -0.4243
14905SOL    HW146437   3.908   7.805   9.225  0.1725  0.8949  1.1153
14905SOL    HW246438   4.049   7.750   9.216  0.0515  0.8387 -0.8541
14906SOL     OW46439   2.480   9.678   3.261  0.7849 -0.2301 -0.5059
14906SOL    HW146440   2.397   9.698   3.218  0.5172 -1.1850 -0.4469
14906SOL    HW246441   2.455   9.646   3.347  1.3050  1.2626  0.2276
14907SOL     OW46442   0.127   2.624   7.487  0.1943  0.3281  0.0045
14907SOL    HW146443   0.149   2.711   7.453  0.5487 -0.1670 -1.0959
14907SOL    HW246444   0.045   2.637   7.535  0.1130  1.2228 -0.3534
14908SOL     OW46445   2.429   3.700   1.799  0.1510 -0.4764 -0.2866
14908SOL    HW146446   2.505   3.642   1.800 -0.7323 -1.6709  0.0091
14908SOL    HW246447   2.360   3.647   1.759 -1.0692 -0.1337  1.2934
14909SOL     OW46448   0.937   1.126   0.516  0.3225  0.6031 -0.2198
14909SOL    HW146449   1.006   1.061   0.504 -0.6769 -0.5374 -0.0380
14909SOL    HW246450   0.904   1.143   0.428 -1.5096 -1.5590 -0.0341
14910SOL     OW46451   8.927   5.472   9.675  0.1454 -0.0964 -0.3983
14910SOL    HW146452   8.955   5.563   9.686  0.4615 -0.3902  1.5292
14910SOL    HW246453   8.832   5.476   9.672  0.0558  0.1390  1.7825
14911SOL     OW46454   4.879   5.849   8.744 -0.2722 -0.2072  0.6309
14911SOL    HW146455   4.828   5.908   8.688 -0.6460 -1.3027 -0.2029
14911SOL    HW246456   4.819   5.826   8.815  0.6751  2.3893  2.4269
14912SOL     OW46457   1.137   3.038   8.604 -0.0117 -0.2815  0.5991
14912SOL    HW146458   1.185   3.081   8.533 -0.7673  1.2973  1.0206
14912SOL    HW246459   1.045   3.061   8.589 -0.1999 -0.0324  1.9995
14913SOL     OW46460   5.004   2.138   3.705 -0.3716  0.6779  0.2056
14913SOL    HW146461   4.927   2.177   3.748 -0.8660  0.6279 -0.6257
14913SOL    HW246462   5.069   2.208   3.706 -0.3248  0.6365  1.1530
14914SOL     OW46463   1.528   0.991   0.916  0.6772 -0.2760  0.2620
14914SOL    HW146464   1.554   0.934   0.844  0.1495 -1.4571  0.9862
14914SOL    HW246465   1.532   1.079   0.879  0.0373 -0.8820 -1.3242
14915SOL     OW46466   7.235   1.694   4.600 -0.4002  0.1560  0.1217
14915SOL    HW146467   7.180   1.752   4.546 -1.4415  0.8695  1.8804
14915SOL    HW246468   7.188   1.687   4.683  0.8531 -1.4281  0.7372
14916SOL     OW46469   0.364   1.825   7.964  0.7322 -0.4927 -0.5289
14916SOL    HW146470   0.317   1.775   7.897  1.2171 -1.3730 -0.2216
14916SOL    HW246471   0.432   1.766   7.995  0.1137 -0.3468  1.2151
14917SOL     OW46472   4.537   0.209   1.258 -0.0073 -0.3581 -0.5214
14917SOL    HW146473   4.456   0.247   1.292  0.6033  0.3767  0.1347
14917SOL    HW246474   4.606   0.245   1.313  1.0078  0.6522 -2.3541
14918SOL     OW46475   3.448   8.319   0.732  0.1430 -0.5861 -0.0793
14918SOL    HW146476   3.435   8.326   0.637  0.1396  1.1303  0.0122
14918SOL    HW246477   3.415   8.402   0.766 -1.6224 -1.9191  1.6441
14919SOL     OW46478   7.100   8.972   6.075  0.0515 -0.4127 -0.0963
14919SOL    HW146479   7.076   9.016   6.157 -0.0158 -0.8775  0.1372
14919SOL    HW246480   7.195   8.982   6.070  0.2302 -1.5000  0.7093
14920SOL     OW46481   1.175   7.474   0.786 -0.3854 -0.1688 -0.9807
14920SOL    HW146482   1.192   7.380   0.796 -1.6126 -0.3385 -0.2730
14920SOL    HW246483   1.249   7.516   0.830 -0.0525 -0.8112 -0.9137
14921SOL     OW46484   9.608   4.180   1.677  0.3062  0.5150  0.1179
14921SOL    HW146485   9.662   4.228   1.614 -0.5625  1.4472  0.0578
14921SOL    HW246486   9.671   4.145   1.740  0.9633  2.1887  0.4675
14922SOL     OW46487   6.672   1.933   1.948  0.3148  0.2997 -0.2115
14922SOL    HW146488   6.605   1.930   1.880 -0.0786  1.8091  0.0765
14922SOL    HW246489   6.749   1.968   1.904  0.0840  1.1997  0.0755
14923SOL     OW46490   8.200   8.400   6.970 -0.3931 -0.0290 -0.2476
14923SOL    HW146491   8.275   8.406   7.029 -2.0967  0.3481  2.0316
14923SOL    HW246492   8.164   8.313   6.987 -1.9104  0.7356  0.6160
14924SOL     OW46493   8.724   2.179   6.188 -0.3447  0.0130  0.4217
14924SOL    HW146494   8.665   2.106   6.168 -0.2631  0.3425 -1.1489
14924SOL    HW246495   8.666   2.251   6.214 -0.8621  0.8948 -2.8178
14925SOL     OW46496   3.898   0.795   1.077  0.2665  0.1947 -0.1430
14925SOL    HW146497   3.906   0.718   1.134 -0.5324 -0.8601 -1.4212
14925SOL    HW246498   3.891   0.869   1.138  0.9611 -0.7330  1.1118
14926SOL     OW46499   6.333   0.086   7.346  0.5187 -0.5956  0.0810
14926SOL    HW146500   6.279   0.010   7.325  1.3848 -1.2535  0.2140
14926SOL    HW246501   6.270   0.158   7.354 -0.8674 -1.9403  3.7218
14927SOL     OW46502   4.483   7.203   8.974 -0.2160  0.5454 -0.2860
14927SOL    HW146503   4.417   7.272   8.964 -0.4300  0.2312 -1.2114
14927SOL    HW246504   4.477   7.152   8.893  0.2606 -0.2862  0.1810
14928SOL     OW46505   7.169   0.550   2.178 -0.5529 -0.0259  0.9280
14928SOL    HW146506   7.103   0.485   2.156 -0.1524 -0.2804  0.4620
14928SOL    HW246507   7.239   0.537   2.113 -1.0008  1.6543  0.0427
14929SOL     OW46508   2.665   4.051   8.070 -0.2183  0.1870 -0.3494
14929SOL    HW146509   2.726   4.064   8.142  0.6712  1.1803 -1.2456
14929SOL    HW246510   2.707   4.093   7.995 -2.0409  0.9643 -0.9886
14930SOL     OW46511   4.894   7.121   9.172 -0.0493 -0.2273  0.1680
14930SOL    HW146512   4.908   7.095   9.263  1.5296  0.4408  0.1510
14930SOL    HW246513   4.811   7.169   9.173  1.2159  2.1707  1.8352
14931SOL     OW46514   6.126   6.375   1.747  0.1158 -0.2781 -0.0558
14931SOL    HW146515   6.166   6.300   1.703  0.5943  0.4011 -0.8147
14931SOL    HW246516   6.049   6.396   1.695  0.6294  0.4711 -0.5309
14932SOL     OW46517   2.939   2.492   6.850 -0.4017  0.2116 -0.7503
14932SOL    HW146518   2.927   2.426   6.782 -0.2011  0.5344 -1.1066
14932SOL    HW246519   3.009   2.457   6.905 -0.5358 -0.0312 -0.7333
14933SOL     OW46520   9.585   6.319   5.752  0.3517 -0.1764 -0.5741
14933SOL    HW146521   9.551   6.397   5.797  0.2518 -0.0224 -0.9177
14933SOL    HW246522   9.581   6.250   5.819 -0.5922 -0.1513 -0.5858
14934SOL     OW46523   0.744   6.609   5.255 -0.5411 -0.2406 -0.2032
14934SOL    HW146524   0.725   6.523   5.292 -1.7425  0.6199  1.2994
14934SOL    HW246525   0.659   6.648   5.238 -0.0219  0.7284 -0.6972
14935SOL     OW46526   2.634   2.045   3.469 -0.2797  0.2609 -0.1858
14935SOL    HW146527   2.571   2.029   3.539 -0.9406  0.6096 -0.6922
14935SOL    HW246528   2.644   1.961   3.425 -0.6692  0.2936 -0.3340
14936SOL     OW46529   0.861   2.636   6.633  0.2946  0.0519  0.0617
14936SOL    HW146530   0.826   2.554   6.670 -1.3557 -0.4141 -2.2910
14936SOL    HW246531   0.894   2.610   6.547  1.6518  1.5394  0.0983
14937SOL     OW46532   4.505   4.919   6.421  0.9711  0.3006 -0.2760
14937SOL    HW146533   4.526   5.002   6.465  1.6798  1.9594 -3.4677
14937SOL    HW246534   4.419   4.934   6.382  0.9178 -0.6602 -0.5532
14938SOL     OW46535   6.581   2.570   9.531 -0.2532  0.4522  0.1752
14938SOL    HW146536   6.499   2.592   9.575 -0.7428 -0.1888 -0.4074
14938SOL    HW246537   6.597   2.644   9.472  0.6969  1.5881  1.7793
14939SOL     OW46538   1.516   0.710   2.102  0.4113 -0.5543  0.0089
14939SOL    HW146539   1.610   0.705   2.085  0.2086 -1.0777 -1.0700
14939SOL    HW246540   1.475   0.682   2.019 -0.6677 -2.6921  1.1643
14940SOL     OW46541   2.719   6.047   4.226  0.0889 -0.7635 -0.4933
14940SOL    HW146542   2.687   5.964   4.260 -2.0939  0.4686  0.6772
14940SOL    HW246543   2.800   6.063   4.273 -1.4624 -0.4160  2.2205
14941SOL     OW46544   2.705   7.303   7.598 -0.1346 -0.8382  0.3742
14941SOL    HW146545   2.778   7.328   7.655 -0.9340 -0.8721  1.4421
14941SOL    HW246546   2.743   7.300   7.511  0.2935  3.1067  0.2388
14942SOL     OW46547   5.810   5.789   4.324 -0.0142  0.6282 -0.0159
14942SOL    HW146548   5.790   5.706   4.279 -1.1403  0.7695  0.2049
14942SOL    HW246549   5.753   5.853   4.282 -0.1277  1.0218  0.7280
14943SOL     OW46550   3.330   5.457   0.148  0.1927 -0.1371  0.0067
14943SOL    HW146551   3.285   5.383   0.189 -1.1202  0.7055  0.1363
14943SOL    HW246552   3.295   5.459   0.059  2.1901 -1.2608 -0.8601
14944SOL     OW46553   3.385   0.826   5.268  0.4050 -0.1215  0.1755
14944SOL    HW146554   3.458   0.848   5.211  2.7743 -0.1170  2.9770
14944SOL    HW246555   3.400   0.735   5.292 -2.2668 -1.1075 -1.4677
14945SOL     OW46556   7.357   7.595   5.190  0.0350  0.1391 -0.6145
14945SOL    HW146557   7.302   7.536   5.138 -0.0671 -3.1342  2.7475
14945SOL    HW246558   7.297   7.661   5.223 -1.0712 -1.0160 -0.2353
14946SOL     OW46559   0.055   8.804   1.849 -0.0164 -0.0402  0.7881
14946SOL    HW146560   0.101   8.881   1.815 -0.6564  0.0298  0.0497
14946SOL    HW246561   0.001   8.775   1.776 -0.7382 -0.4386  1.4710
14947SOL     OW46562   1.055   2.190   5.732  0.4001  0.1685 -0.0323
14947SOL    HW146563   1.032   2.115   5.786  1.3836  0.4341  0.7950
14947SOL    HW246564   0.991   2.257   5.754  0.2761 -0.0142  0.1579
14948SOL     OW46565   0.840   0.235   7.840 -0.0354 -0.1201  0.2422
14948SOL    HW146566   0.893   0.300   7.886  0.5308 -0.0520 -0.4970
14948SOL    HW246567   0.861   0.246   7.748 -2.4257  0.8961 -0.2685
14949SOL     OW46568   6.406   0.214   0.219  0.0150  0.1654  0.2435
14949SOL    HW146569   6.425   0.126   0.249  0.5228  0.6991  1.5580
14949SOL    HW246570   6.415   0.269   0.297 -0.0696  1.4142 -0.5905
14950SOL     OW46571   2.350   0.197   3.109  0.0594 -0.3153 -0.3681
14950SOL    HW146572   2.425   0.257   3.118 -0.2000  0.3790 -2.3804
14950SOL    HW246573   2.389   0.116   3.077  0.3032 -1.0073  1.5654
14951SOL     OW46574   1.502   2.162   4.027  0.3372  0.1007  0.2631
14951SOL    HW146575   1.567   2.094   4.041 -0.5119 -0.5680  1.1490
14951SOL    HW246576   1.463   2.142   3.942  0.3895 -0.2599  0.3240
14952SOL     OW46577   0.581   4.393   4.971 -0.1461  0.0848 -0.0852
14952SOL    HW146578   0.657   4.340   4.948  0.1462 -0.0553  1.1538
14952SOL    HW246579   0.521   4.331   5.014  0.8316  0.9630  2.7914
14953SOL     OW46580   3.323   5.940   6.860  0.3555 -0.4779 -0.0205
14953SOL    HW146581   3.317   5.860   6.808 -2.7348 -0.8947  0.7312
14953SOL    HW246582   3.273   6.005   6.810  0.9073  0.3268  0.4408
14954SOL     OW46583   6.763   7.124   8.762  0.3029 -0.0928 -0.6872
14954SOL    HW146584   6.776   7.198   8.822 -0.9619 -1.5938  1.6044
14954SOL    HW246585   6.709   7.160   8.691  0.4716  1.3964 -0.1064
14955SOL     OW46586   3.952   5.391   0.319  1.0431 -0.2158  0.4249
14955SOL    HW146587   4.021   5.331   0.289  1.6683  0.2872  0.8203
14955SOL    HW246588   3.990   5.478   0.307 -0.3971  0.2206 -1.5466
14956SOL     OW46589   3.362   7.626   9.261  0.3592 -0.1466 -0.0927
14956SOL    HW146590   3.375   7.720   9.253 -1.2548  0.0157 -1.2018
14956SOL    HW246591   3.310   7.601   9.185 -0.0772 -1.7693  0.6708
14957SOL     OW46592   8.200   8.423   4.203  0.5843  0.1015 -0.2503
14957SOL    HW146593   8.276   8.412   4.145  0.2295 -0.1285 -0.6804
14957SOL    HW246594   8.179   8.516   4.196  0.3051 -0.0005 -0.7991
14958SOL     OW46595   2.649   5.776   8.055  0.1359 -0.2198  0.0595
14958SOL    HW146596   2.619   5.867   8.047 -0.9771 -0.6178 -0.5790
14958SOL    HW246597   2.579   5.732   8.104  0.9536 -0.6127  0.8969
14959SOL     OW46598   7.626   1.757   1.809 -0.2962  0.4287 -0.2519
14959SOL    HW146599   7.709   1.804   1.817 -0.3922  0.7797 -1.1899
14959SOL    HW246600   7.639   1.698   1.735 -0.6071 -0.1194  0.1259
14960SOL     OW46601   8.396   5.737   8.785 -0.6058  0.4453 -0.0823
14960SOL    HW146602   8.411   5.781   8.868  0.7078  1.9280 -1.0394
14960SOL    HW246603   8.308   5.701   8.792 -0.5471  0.5919  1.9085
14961SOL     OW46604   4.607   9.151   7.134 -0.5301  0.2661 -0.1669
14961SOL    HW146605   4.699   9.125   7.136 -0.4437  0.4416  2.8345
14961SOL    HW246606   4.565   9.086   7.078  1.2687 -0.3306 -0.9080
14962SOL     OW46607   4.069   7.107   7.030 -0.2605  0.4473  0.8003
14962SOL    HW146608   4.017   7.175   6.987  1.7893  1.7358  0.2158
14962SOL    HW246609   4.005   7.055   7.079 -2.0176  2.2636  0.5656
14963SOL     OW46610   2.768   7.075   7.255  0.2615  0.0449  0.3336
14963SOL    HW146611   2.689   7.086   7.307 -1.0539 -1.1730 -1.3151
14963SOL    HW246612   2.737   7.060   7.166  2.3485 -0.5612 -0.3520
14964SOL     OW46613   2.382   8.799   1.772  0.5739 -0.0114 -0.1588
14964SOL    HW146614   2.427   8.821   1.690 -0.9683  2.8598 -0.3863
14964SOL    HW246615   2.414   8.864   1.835 -0.4538 -0.2875  0.6766
14965SOL     OW46616   5.934   6.296   0.164 -0.0395  0.2949  0.3510
14965SOL    HW146617   6.021   6.316   0.131 -0.3255  0.7299 -0.1558
14965SOL    HW246618   5.943   6.301   0.260  0.4205  0.6194  0.2940
14966SOL     OW46619   5.153   1.295   3.074 -0.0054  0.1403 -0.1492
14966SOL    HW146620   5.117   1.206   3.068 -0.7850  0.4922 -0.9461
14966SOL    HW246621   5.133   1.335   2.989  1.7296  0.5793 -0.3901
14967SOL     OW46622   7.803   3.059   9.565  0.2852 -0.2810  0.1104
14967SOL    HW146623   7.760   2.974   9.563  0.5457 -0.4020 -0.6267
14967SOL    HW246624   7.785   3.093   9.653 -0.0993 -0.9478  0.2959
14968SOL     OW46625   6.991   2.875   8.090 -0.2083  0.0579 -0.3197
14968SOL    HW146626   7.009   2.957   8.046  1.7842  0.1995  0.6584
14968SOL    HW246627   7.042   2.879   8.171  0.4656 -2.3781 -0.5408
14969SOL     OW46628   1.086   3.013   8.060  0.3876 -0.3449 -0.0602
14969SOL    HW146629   1.155   3.005   7.994  1.3093  0.7165  0.7360
14969SOL    HW246630   1.119   2.963   8.135  0.3457  0.2234  0.3466
14970SOL     OW46631   5.477   8.690   1.897 -0.5907  0.2199  0.7684
14970SOL    HW146632   5.539   8.741   1.845 -2.4499  0.1633 -1.6378
14970SOL    HW246633   5.427   8.756   1.946  1.0314  0.2813  2.4706
14971SOL     OW46634   2.618   0.703   4.379  0.2052 -0.1192 -0.0433
14971SOL    HW146635   2.688   0.653   4.420 -0.0382  0.2070  0.7889
14971SOL    HW246636   2.645   0.794   4.388 -0.2939  0.0078  0.2535
14972SOL     OW46637   7.475   8.861   8.431  0.6268 -0.0304 -0.3792
14972SOL    HW146638   7.533   8.857   8.507 -1.3741 -0.7395  1.2045
14972SOL    HW246639   7.506   8.936   8.381  1.5303  0.9531  1.5493
14973SOL     OW46640   4.471   7.866   2.012  0.5764  0.2303 -0.3884
14973SOL    HW146641   4.401   7.928   2.034 -0.5626 -1.2099  0.1809
14973SOL    HW246642   4.477   7.869   1.917  1.3144  1.9951 -0.3333
14974SOL     OW46643   5.867   8.329   8.076  0.2125  0.2316  0.7106
14974SOL    HW146644   5.854   8.262   8.143  0.3200  0.4976  1.0002
14974SOL    HW246645   5.810   8.302   8.004  2.4995 -1.8702 -0.4514
14975SOL     OW46646   8.192   6.626   9.461  0.1063  0.2098 -0.6984
14975SOL    HW146647   8.253   6.560   9.494  1.8884  1.5090 -1.2403
14975SOL    HW246648   8.202   6.622   9.365 -0.4135  0.6663 -0.7776
14976SOL     OW46649   3.775   1.469   8.613  0.1213 -0.2998  0.5967
14976SOL    HW146650   3.834   1.488   8.540 -0.9934 -1.4789 -0.6511
14976SOL    HW246651   3.797   1.380   8.639 -0.8644 -0.6316  0.3326
14977SOL     OW46652   5.015   8.109   0.065 -0.1920 -0.5087  0.5350
14977SOL    HW146653   4.939   8.089   0.009 -0.1438  0.5854  0.0462
14977SOL    HW246654   5.038   8.199   0.042 -0.6481  0.2685  2.8755
14978SOL     OW46655   3.738   2.607   4.742  0.2765  0.9539  0.5621
14978SOL    HW146656   3.746   2.562   4.826 -0.2082 -0.0545  0.0867
14978SOL    HW246657   3.824   2.647   4.728  0.9435 -0.3967  0.6926
14979SOL     OW46658   9.458   3.911   6.447  0.1694  0.2073  0.0231
14979SOL    HW146659   9.408   3.927   6.527  2.1385 -0.1514  1.4064
14979SOL    HW246660   9.399   3.858   6.393 -0.2238 -2.1166  2.4983
14980SOL     OW46661   1.408   3.056   7.674 -0.0644 -0.4158  0.7016
14980SOL    HW146662   1.382   3.140   7.713 -0.3604  0.0016 -0.3491
14980SOL    HW246663   1.328   3.003   7.676 -0.4109  0.0422 -0.4236
14981SOL     OW46664   2.558   3.443   3.101  0.3951 -0.0997  0.6426
14981SOL    HW146665   2.600   3.504   3.162  1.5334 -0.4825  0.2673
14981SOL    HW246666   2.593   3.467   3.016  0.0630 -0.6151  0.3554
14982SOL     OW46667   0.710   3.338   5.339 -0.0050  0.6881 -0.7059
14982SOL    HW146668   0.748   3.425   5.324 -0.0120  0.8659  0.2465
14982SOL    HW246669   0.782   3.287   5.376  0.0642  0.2121 -1.4839
14983SOL     OW46670   3.933   1.207   2.251 -0.1469  0.1044  0.7608
14983SOL    HW146671   4.027   1.208   2.273 -0.4293 -1.9303  2.3079
14983SOL    HW246672   3.916   1.117   2.223 -1.2667  0.9561 -1.5728
14984SOL     OW46673   8.923   6.077   8.547  0.0881 -0.7123 -0.2005
14984SOL    HW146674   8.872   6.005   8.585 -0.4464 -0.9561 -1.3213
14984SOL    HW246675   8.992   6.034   8.497 -0.4775 -0.4937 -1.2134
14985SOL     OW46676   5.073   5.173   7.328 -0.2354  0.3920 -0.3545
14985SOL    HW146677   4.996   5.122   7.352 -0.3010  1.1933  1.2518
14985SOL    HW246678   5.044   5.264   7.334  0.6570  0.6830 -0.3691
14986SOL     OW46679   8.184   0.755   9.437  0.4545  0.2297 -0.1676
14986SOL    HW146680   8.271   0.791   9.455  0.8803 -0.4479 -0.7971
14986SOL    HW246681   8.147   0.812   9.370  0.2163  0.7860  0.4222
14987SOL     OW46682   6.767   1.519   8.714 -0.1706  0.5956  0.5256
14987SOL    HW146683   6.717   1.590   8.753  0.1690  1.2083 -0.1393
14987SOL    HW246684   6.850   1.559   8.688  1.1469 -0.5967  2.5332
14988SOL     OW46685   7.902   3.238   0.340 -0.2461  0.2152 -0.0437
14988SOL    HW146686   7.887   3.332   0.351  0.7636  0.5862 -1.5008
14988SOL    HW246687   7.986   3.222   0.382 -1.6083 -0.6210  2.5746
14989SOL     OW46688   8.196   8.966   1.729  0.2517  0.2282  0.3010
14989SOL    HW146689   8.263   8.952   1.795 -0.6558  0.1917  1.2405
14989SOL    HW246690   8.189   8.882   1.684 -0.0119 -0.1312  1.0073
14990SOL     OW46691   1.670   0.936   9.063  0.1588  0.4172 -0.0817
14990SOL    HW146692   1.597   0.896   9.110 -0.2459  1.2157 -0.0153
14990SOL    HW246693   1.631   1.008   9.014  0.5213 -0.5729 -1.9034
14991SOL     OW46694   5.910   8.689   6.435 -0.1222 -0.5704 -0.2869
14991SOL    HW146695   5.821   8.699   6.404 -0.4076 -0.0239  0.6623
14991SOL    HW246696   5.957   8.764   6.398 -0.1805 -0.5759 -0.3717
14992SOL     OW46697   0.000   1.268   0.174 -0.3272 -0.4098 -0.1492
14992SOL    HW146698   0.082   1.227   0.202 -0.5064 -0.1587  0.7709
14992SOL    HW246699  -0.066   1.231   0.232 -1.0750 -1.4866 -1.6272
14993SOL     OW46700   3.217   1.898   8.478  0.9823  0.5317 -0.4044
14993SOL    HW146701   3.126   1.928   8.480  0.3267 -1.2016 -1.9581
14993SOL    HW246702   3.239   1.882   8.570 -0.3619  0.7191 -0.0316
14994SOL     OW46703   5.120   1.176   1.899 -0.7880  0.2508  0.3157
14994SOL    HW146704   5.047   1.114   1.895 -0.6724  0.0835  0.7278
14994SOL    HW246705   5.079   1.259   1.924 -0.6677 -0.1718  2.0622
14995SOL     OW46706   4.889   2.933   6.676  0.3812 -0.0943 -0.1554
14995SOL    HW146707   4.897   2.954   6.583  0.0813  0.6652 -0.0207
14995SOL    HW246708   4.965   2.878   6.695  1.0546  0.6567 -0.6083
14996SOL     OW46709   9.443   1.215   0.636 -0.1703 -0.6121  0.0477
14996SOL    HW146710   9.412   1.126   0.649  0.5927 -0.9874 -0.6506
14996SOL    HW246711   9.365   1.269   0.648 -0.6288 -1.3655  0.5139
14997SOL     OW46712   5.164   4.206   5.966  0.8079  0.4303 -0.4340
14997SOL    HW146713   5.201   4.119   5.949  1.8774  0.7277  0.2856
14997SOL    HW246714   5.104   4.192   6.039  0.3416  0.1523 -0.8608
14998SOL     OW46715   2.883   8.515   7.797  0.7681 -0.3860 -0.1697
14998SOL    HW146716   2.879   8.611   7.789  0.6793 -0.2133  1.5100
14998SOL    HW246717   2.917   8.485   7.713  0.8232  1.1233 -0.7184
14999SOL     OW46718   2.845   3.842   9.652 -0.1984  0.4287  0.0399
14999SOL    HW146719   2.792   3.877   9.581  0.7840  0.5475 -0.6559
14999SOL    HW246720   2.842   3.910   9.720 -3.8169 -1.0098  1.5892
15000SOL     OW46721   7.775   4.111   5.215  0.1208  0.7066 -0.1423
15000SOL    HW146722   7.822   4.060   5.149 -0.1233  0.5253 -0.1721
15000SOL    HW246723   7.815   4.198   5.209  1.6944  0.1050  1.0649
15001SOL     OW46724   1.977   4.842   3.252  0.2346 -0.2164 -0.0209
15001SOL    HW146725   1.986   4.855   3.346 -0.7701  0.0269  0.0593
15001SOL    HW246726   2.066   4.834   3.220  0.5808 -2.4691  1.2456
15002SOL     OW46727   5.112   7.717   0.552  0.1643 -0.1367  0.9082
15002SOL    HW146728   5.182   7.652   0.546  0.6576  0.4180  0.5657
15002SOL    HW246729   5.032   7.665   0.566  0.0511 -1.0529 -2.3724
15003SOL     OW46730   4.149   3.266   0.571 -0.0103  0.1923  0.1136
15003SOL    HW146731   4.148   3.320   0.650 -0.6175  0.0781  0.1938
15003SOL    HW246732   4.198   3.318   0.507  1.6012 -0.2757  0.9383
15004SOL     OW46733   1.007   4.265   3.003 -0.4636 -0.3397 -0.0078
15004SOL    HW146734   1.087   4.216   2.983 -0.0176  0.4156 -0.1245
15004SOL    HW246735   1.026   4.307   3.087 -1.1959 -1.0999  0.5604
15005SOL     OW46736   6.188   8.517   0.795  0.0891 -0.1404  0.2738
15005SOL    HW146737   6.169   8.527   0.888  0.1668  0.6505  0.2153
15005SOL    HW246738   6.129   8.579   0.752  0.6932  0.1692 -0.1317
15006SOL     OW46739   0.082   9.224   4.352 -0.1084  0.0416  0.0062
15006SOL    HW146740   0.157   9.173   4.323 -1.0161 -1.3681  0.0068
15006SOL    HW246741   0.008   9.163   4.345 -1.3978  1.6394 -0.7991
15007SOL     OW46742   8.262   9.067   8.121  0.0431 -0.3497 -0.0776
15007SOL    HW146743   8.305   9.114   8.193  0.0951 -0.6574  0.0926
15007SOL    HW246744   8.250   9.134   8.053 -1.5308  0.3786  0.8474
15008SOL     OW46745   2.059   2.646   4.430 -0.0101 -0.1610  0.6899
15008SOL    HW146746   1.983   2.705   4.431  1.0786  1.4727 -1.8685
15008SOL    HW246747   2.024   2.563   4.397 -0.8216  0.3301  0.2751
15009SOL     OW46748   0.675   0.788   5.335  0.4433  0.1332 -0.2767
15009SOL    HW146749   0.748   0.842   5.363  1.5445 -0.3883 -2.0179
15009SOL    HW246750   0.670   0.719   5.402  2.3689 -0.5334 -0.7565
15010SOL     OW46751   3.474   1.179   9.487 -0.1027 -0.4345  0.2710
15010SOL    HW146752   3.517   1.261   9.511 -0.9736 -0.4775  2.1211
15010SOL    HW246753   3.483   1.123   9.564 -2.0623 -1.0113  0.1393
15011SOL     OW46754   1.241   7.980   3.364  0.1429  0.4120 -0.1872
15011SOL    HW146755   1.292   7.943   3.292 -0.1446  1.3531 -0.9020
15011SOL    HW246756   1.259   8.074   3.361  1.4086  0.3105  2.0198
15012SOL     OW46757   2.195   0.629   4.258 -0.2727  0.3062 -0.7139
15012SOL    HW146758   2.263   0.655   4.320 -0.7975 -1.0719  0.4856
15012SOL    HW246759   2.150   0.711   4.236  0.7613  0.9995 -0.3088
15013SOL     OW46760   6.033   5.274   9.239 -0.0036 -0.2842  0.3377
15013SOL    HW146761   6.116   5.313   9.214  0.8871 -0.0207  3.3310
15013SOL    HW246762   5.973   5.348   9.247 -0.1046 -0.2972 -0.2300
15014SOL     OW46763   2.875   8.475   1.970  0.0845 -0.0633 -0.0011
15014SOL    HW146764   2.874   8.564   1.935 -0.9139 -0.6397 -1.4868
15014SOL    HW246765   2.783   8.454   1.986  0.1488 -1.4521 -1.3297
15015SOL     OW46766   2.858   6.648   9.519 -0.1567 -0.2496  0.4677
15015SOL    HW146767   2.901   6.730   9.544 -0.6449 -0.0549  0.6731
15015SOL    HW246768   2.816   6.666   9.435  0.3175 -0.4992  0.1688
15016SOL     OW46769   8.484   3.056   6.525 -0.5143  0.0499 -0.0826
15016SOL    HW146770   8.473   2.994   6.453  0.5510 -1.4139  0.9531
15016SOL    HW246771   8.523   3.133   6.484  3.5226 -2.0185 -0.6953
15017SOL     OW46772   0.828   9.169   8.715 -0.3415 -0.1122 -0.0025
15017SOL    HW146773   0.837   9.075   8.731 -0.4088  0.2597  2.6629
15017SOL    HW246774   0.825   9.177   8.619  0.7671 -2.6969 -0.3329
15018SOL     OW46775   3.970   1.504   2.311 -0.1228 -0.1319  0.1492
15018SOL    HW146776   4.016   1.446   2.372  0.6469  0.1407 -0.1606
15018SOL    HW246777   3.888   1.458   2.292  0.8090 -1.5326 -0.7036
15019SOL     OW46778   1.876   3.817   4.308 -0.4600 -0.0106 -0.7764
15019SOL    HW146779   1.874   3.806   4.403 -1.3638 -0.7499 -0.8651
15019SOL    HW246780   1.908   3.906   4.295 -1.3530  0.4898  0.2671
15020SOL     OW46781   4.534   6.521   1.934 -0.0172 -0.9367  0.2065
15020SOL    HW146782   4.566   6.467   1.862 -0.4565 -0.7645 -0.1175
15020SOL    HW246783   4.613   6.541   1.985  0.8332  1.3029 -1.7956
15021SOL     OW46784   8.185   0.679   6.557 -0.4218  0.8241 -0.2901
15021SOL    HW146785   8.181   0.763   6.511 -0.2760 -0.0475 -1.9442
15021SOL    HW246786   8.246   0.626   6.506 -2.8925 -1.3802 -1.1754
15022SOL     OW46787   4.944   6.412   7.372 -0.1656  0.4705  0.3031
15022SOL    HW146788   4.898   6.494   7.392  0.7536  0.8314  1.0413
15022SOL    HW246789   4.948   6.366   7.456  1.1577  0.6310  0.3401
15023SOL     OW46790   4.172   3.042   4.406  0.4639  0.3354 -0.4163
15023SOL    HW146791   4.101   2.996   4.451 -0.5217  1.7683 -0.4364
15023SOL    HW246792   4.237   2.974   4.388 -1.0623 -1.1049 -0.7419
15024SOL     OW46793   2.794   1.293   5.369  0.1927 -0.0844 -0.0207
15024SOL    HW146794   2.844   1.351   5.311  0.8474  0.0432  0.6470
15024SOL    HW246795   2.711   1.280   5.324  0.3446  0.7296 -0.5695
15025SOL     OW46796   2.646   4.421   1.614  0.2801 -0.4005 -0.0532
15025SOL    HW146797   2.644   4.484   1.543  0.3541  0.0917  0.3696
15025SOL    HW246798   2.561   4.378   1.612  0.3926 -0.6077 -0.6223
15026SOL     OW46799   1.867   8.144   3.605 -0.4383 -0.1604 -0.1802
15026SOL    HW146800   1.822   8.099   3.677 -0.5423  1.1676  0.6176
15026SOL    HW246801   1.907   8.073   3.554  0.1378 -1.1307  1.5141
15027SOL     OW46802   5.981   5.393   3.528  0.3319  0.2992  0.1654
15027SOL    HW146803   5.959   5.372   3.618 -1.0995  0.7782 -0.0528
15027SOL    HW246804   6.051   5.332   3.505 -1.3794 -1.9548  0.5969
15028SOL     OW46805   6.067   0.673   5.812 -0.2111 -0.0551  0.2593
15028SOL    HW146806   5.975   0.667   5.835  0.1156 -1.7953  1.3359
15028SOL    HW246807   6.081   0.600   5.751  0.0543  1.3840 -1.4594
15029SOL     OW46808   6.091   0.392   9.175 -0.2246  0.2510  0.3160
15029SOL    HW146809   5.998   0.393   9.200  0.3435  1.6494  2.7176
15029SOL    HW246810   6.110   0.300   9.155 -1.5598 -0.4981  2.2426
15030SOL     OW46811   6.976   7.905   8.231 -0.1841 -0.2220 -0.2970
15030SOL    HW146812   6.889   7.924   8.265 -0.7911  0.7609 -2.2501
15030SOL    HW246813   7.024   7.870   8.306 -2.0087 -0.0500  1.0184
15031SOL     OW46814   0.662   6.377   8.132  0.2638 -0.2729  0.9410
15031SOL    HW146815   0.699   6.340   8.052  0.6316 -0.2055  1.0791
15031SOL    HW246816   0.710   6.459   8.145  0.3130 -0.3624  1.3200
15032SOL     OW46817   1.360   8.129   4.897  0.8955 -0.2890 -1.1759
15032SOL    HW146818   1.433   8.114   4.956 -0.4193 -2.1510  0.0923
15032SOL    HW246819   1.400   8.131   4.810  2.6441  0.6881 -0.4170
15033SOL     OW46820   2.258   8.648   8.730 -0.1902  0.3164 -0.0466
15033SOL    HW146821   2.354   8.642   8.735 -0.2755 -1.5590 -0.0809
15033SOL    HW246822   2.240   8.653   8.636 -0.0919  1.9141  0.0004
15034SOL     OW46823   3.265   5.771   7.684  0.1317 -0.2481 -0.2913
15034SOL    HW146824   3.226   5.730   7.607 -1.0279  0.3478 -0.0295
15034SOL    HW246825   3.317   5.843   7.650  1.6728 -1.4880 -0.7031
15035SOL     OW46826   4.548   9.407   0.976 -0.0129 -0.6233  0.3590
15035SOL    HW146827   4.543   9.312   0.965 -2.0710 -0.4449 -0.7992
15035SOL    HW246828   4.631   9.422   1.021  0.3142 -2.9670  0.6537
15036SOL     OW46829   8.791   8.276   5.732  0.2313 -0.1928 -0.3522
15036SOL    HW146830   8.824   8.223   5.805  0.7288  0.3550 -0.1738
15036SOL    HW246831   8.822   8.365   5.750  2.3886 -0.4332 -2.4291
15037SOL     OW46832   5.297   4.897   6.830  0.3880 -0.1533  0.0348
15037SOL    HW146833   5.216   4.889   6.780  0.3244  0.9679 -0.0500
15037SOL    HW246834   5.328   4.806   6.840 -1.0349 -0.6261  0.3596
15038SOL     OW46835   5.783   0.100   3.507 -0.2376 -0.4451 -0.0035
15038SOL    HW146836   5.774   0.167   3.575 -0.9825 -0.0314 -0.4965
15038SOL    HW246837   5.703   0.048   3.514  0.3052 -1.2552  0.3336
15039SOL     OW46838   0.750   5.086   8.665 -0.0486  0.3081  0.8006
15039SOL    HW146839   0.839   5.072   8.696  1.2034  2.7516 -1.2523
15039SOL    HW246840   0.734   5.016   8.603  1.3724  1.0583 -0.4669
15040SOL     OW46841   9.083   4.474   8.896 -0.1387 -0.0438 -0.0580
15040SOL    HW146842   9.110   4.426   8.817 -0.9227  1.2832 -1.1606
15040SOL    HW246843   9.166   4.498   8.938  0.3041 -0.2109 -0.8131
15041SOL     OW46844   3.716   9.563   7.711 -0.3232  0.4838  0.0923
15041SOL    HW146845   3.778   9.635   7.707  0.2930 -0.0701 -0.5828
15041SOL    HW246846   3.709   9.543   7.804  1.8854 -0.5884  0.0985
15042SOL     OW46847   6.490   2.135   3.585  0.2860 -0.1845  0.1473
15042SOL    HW146848   6.403   2.095   3.580 -0.5143  1.1821  2.2465
15042SOL    HW246849   6.506   2.166   3.496 -1.2596 -0.6534 -0.3428
15043SOL     OW46850   1.131   6.760   2.889 -0.0886  0.0503 -0.0668
15043SOL    HW146851   1.060   6.708   2.852 -2.2145  0.7364  2.6655
15043SOL    HW246852   1.193   6.772   2.817 -3.4102  0.6499 -3.1007
15044SOL     OW46853   6.355   8.866   4.414 -0.0836 -0.1939  0.0533
15044SOL    HW146854   6.383   8.774   4.407  1.5770  0.2541  0.4488
15044SOL    HW246855   6.382   8.905   4.332  2.2625  0.6828  1.1721
15045SOL     OW46856   3.173   6.634   8.397  0.7334  0.3397 -0.5840
15045SOL    HW146857   3.154   6.540   8.404  0.1199  0.5467  0.7071
15045SOL    HW246858   3.234   6.652   8.468  0.6367  0.9795 -0.6574
15046SOL     OW46859   2.135   1.288   2.602 -0.1681 -0.1212  0.1338
15046SOL    HW146860   2.225   1.307   2.626 -0.1666 -0.1156  0.1240
15046SOL    HW246861   2.124   1.329   2.516  0.5022 -2.0732 -0.9270
15047SOL     OW46862   9.513   3.938   1.551 -0.0989  0.3889 -0.3756
15047SOL    HW146863   9.565   3.873   1.598 -1.7356 -0.9892 -0.3752
15047SOL    HW246864   9.540   4.022   1.589  0.6797 -0.4362  0.9916
15048SOL     OW46865   5.889   6.501   2.122  0.2276 -0.6966  0.1049
15048SOL    HW146866   5.879   6.492   2.217  1.2066  0.6329  0.3603
15048SOL    HW246867   5.951   6.573   2.111 -0.4120 -0.3509 -1.5591
15049SOL     OW46868   2.695   5.922   2.524  0.0876  0.0082  0.1933
15049SOL    HW146869   2.698   5.845   2.581  1.5472 -0.1022  0.0244
15049SOL    HW246870   2.766   5.907   2.461 -2.0123 -0.2797 -2.2314
15050SOL     OW46871   9.349   7.357   4.505  0.0052  0.3666  0.9871
15050SOL    HW146872   9.339   7.383   4.414  0.7912  1.7705  1.2779
15050SOL    HW246873   9.359   7.262   4.502 -1.6516  0.1806 -0.2287
15051SOL     OW46874   8.111   5.800   5.641 -0.0846  0.2845  0.0186
15051SOL    HW146875   8.096   5.706   5.636 -1.8758  0.5240  0.0632
15051SOL    HW246876   8.143   5.815   5.729 -1.8521 -0.0852  0.7701
15052SOL     OW46877   5.312   8.153   6.947 -0.2213  0.3454 -0.2052
15052SOL    HW146878   5.290   8.141   7.040 -0.6724  0.1730 -0.3304
15052SOL    HW246879   5.241   8.109   6.900 -1.2787  2.3987 -0.6655
15053SOL     OW46880   3.270   6.002   4.701 -0.1602  0.1488 -0.3328
15053SOL    HW146881   3.207   5.930   4.694 -1.1074  1.0918 -2.4093
15053SOL    HW246882   3.312   5.989   4.786 -3.2281 -0.4684  1.2389
15054SOL     OW46883   0.615   8.381   3.113 -0.1687 -0.4551  0.2844
15054SOL    HW146884   0.588   8.433   3.037  0.2808  0.5798  0.8029
15054SOL    HW246885   0.535   8.341   3.145 -0.6495  0.4542  0.2461
15055SOL     OW46886   7.701   5.853   6.318 -0.2099 -0.1692 -0.3964
15055SOL    HW146887   7.776   5.793   6.318  0.6605  0.8685 -0.6707
15055SOL    HW246888   7.725   5.920   6.383 -1.2094 -0.1750 -0.0081
15056SOL     OW46889   3.149   0.289   9.400  0.7765 -0.3721 -0.6584
15056SOL    HW146890   3.068   0.316   9.443  1.5794 -0.2517  0.8138
15056SOL    HW246891   3.134   0.198   9.375 -0.1850 -0.0379 -1.3410
15057SOL     OW46892   6.564   3.795   9.208 -0.5551 -0.1453 -0.0792
15057SOL    HW146893   6.479   3.808   9.250 -0.0444  2.6610  0.2904
15057SOL    HW246894   6.544   3.799   9.114 -0.8598  0.2022 -0.0027
15058SOL     OW46895   0.488   7.151   2.890  0.1294  0.1180 -0.1655
15058SOL    HW146896   0.429   7.082   2.921 -0.7804  1.3645  0.9927
15058SOL    HW246897   0.572   7.130   2.930 -0.2772 -0.0160  0.6437
15059SOL     OW46898   7.720   8.798   8.024 -0.0780  0.2667 -0.1745
15059SOL    HW146899   7.640   8.777   7.977 -0.5353  0.2919  0.5786
15059SOL    HW246900   7.708   8.888   8.054  0.2163  0.2614 -0.0334
15060SOL     OW46901   3.345   5.534   8.926 -0.0041  0.1883 -0.0370
15060SOL    HW146902   3.363   5.610   8.982  1.1569  0.2912 -0.5316
15060SOL    HW246903   3.410   5.469   8.951 -0.2554 -0.2214 -0.4261
15061SOL     OW46904   5.742   0.560   5.617 -0.4845  0.1894 -0.1786
15061SOL    HW146905   5.673   0.587   5.555 -0.5808  2.0220  0.6593
15061SOL    HW246906   5.714   0.597   5.700 -0.6676 -2.7370  1.1862
15062SOL     OW46907   1.523   3.087   6.208 -0.0123 -0.3145  0.9403
15062SOL    HW146908   1.566   3.006   6.234  0.3876 -0.7466 -0.9167
15062SOL    HW246909   1.576   3.121   6.135 -1.7921  0.0552 -0.2517
15063SOL     OW46910   3.456   5.456   1.902 -0.3816  0.2796 -0.1309
15063SOL    HW146911   3.412   5.374   1.882  1.4213 -0.4908 -1.1353
15063SOL    HW246912   3.526   5.432   1.963 -0.8112  1.3480  0.8357
15064SOL     OW46913   0.563   5.033   5.593  0.2068  0.3718  0.1882
15064SOL    HW146914   0.569   5.128   5.581 -0.7109  0.5246  0.8490
15064SOL    HW246915   0.469   5.015   5.592  0.3555 -0.4568  0.6214
15065SOL     OW46916   4.857   6.805   8.413 -0.0623 -0.1700 -0.1303
15065SOL    HW146917   4.875   6.821   8.506  0.0532 -2.7343  0.3574
15065SOL    HW246918   4.923   6.856   8.367 -1.0002  2.3087  1.0881
15066SOL     OW46919   8.323   0.540   7.011  0.3375  0.4080 -0.0507
15066SOL    HW146920   8.286   0.519   6.926 -1.2172  0.8448  0.4794
15066SOL    HW246921   8.406   0.494   7.013 -0.3167 -0.8959 -1.1903
15067SOL     OW46922   0.817   5.677   4.668 -0.3856 -0.2821  0.0853
15067SOL    HW146923   0.888   5.634   4.715 -1.1733 -1.7785 -0.0403
15067SOL    HW246924   0.855   5.698   4.583  0.0997 -0.4749  0.2472
15068SOL     OW46925   7.308   7.517   5.529 -0.0694  0.2982 -0.6121
15068SOL    HW146926   7.232   7.573   5.545 -0.1179  0.0131  0.1840
15068SOL    HW246927   7.321   7.522   5.434 -1.5899 -0.3058 -0.8864
15069SOL     OW46928   4.727   7.983   3.767 -0.4485  0.2646 -0.0967
15069SOL    HW146929   4.633   7.976   3.752 -0.3946  0.6048 -0.5869
15069SOL    HW246930   4.765   7.996   3.681  0.0204  0.4875  0.1393
15070SOL     OW46931   4.698   7.731   9.551  0.0809  0.1562  0.0624
15070SOL    HW146932   4.656   7.681   9.482 -1.5867  0.2857  0.9323
15070SOL    HW246933   4.671   7.688   9.632  3.0119 -0.7844  0.6575
15071SOL     OW46934   3.101   6.576   0.154  0.2443  0.1986 -0.2596
15071SOL    HW146935   3.026   6.633   0.174 -0.1604 -0.7474  1.0467
15071SOL    HW246936   3.081   6.541   0.067 -0.9799 -0.2623  0.1883
15072SOL     OW46937   7.020   6.256   4.623 -0.0254 -0.2451  0.4758
15072SOL    HW146938   7.042   6.254   4.530 -0.7064 -2.6703  0.3018
15072SOL    HW246939   7.087   6.313   4.662  0.8045  0.1059 -1.3616
15073SOL     OW46940   9.274   1.859   7.860 -0.2224 -0.6685 -0.2783
15073SOL    HW146941   9.279   1.776   7.814 -1.3806 -1.2522  0.6140
15073SOL    HW246942   9.364   1.876   7.888 -0.1412 -2.1545  0.4463
15074SOL     OW46943   1.372   7.587   3.591  0.0980  0.2503 -0.5596
15074SOL    HW146944   1.297   7.586   3.532 -1.0517 -0.3972  0.8638
15074SOL    HW246945   1.334   7.596   3.679  1.5738 -1.4171  0.3199
15075SOL     OW46946   6.270   1.930   0.770 -0.3579 -0.1708 -0.3039
15075SOL    HW146947   6.181   1.965   0.765 -0.1986  0.3726  0.4725
15075SOL    HW246948   6.326   2.001   0.737 -0.0369  0.3335  1.2335
15076SOL     OW46949   0.942   0.325   7.164  0.0023 -0.5976  0.5786
15076SOL    HW146950   0.854   0.311   7.199 -0.7903 -0.1048 -1.0794
15076SOL    HW246951   0.992   0.362   7.237 -1.1750 -0.8208  1.5291
15077SOL     OW46952   4.811   1.551   2.922  0.4454  0.0109 -0.1954
15077SOL    HW146953   4.779   1.635   2.955  0.1127 -0.5099  0.8373
15077SOL    HW246954   4.743   1.523   2.859 -0.2762 -0.2553  0.6829
15078SOL     OW46955   9.636   1.577   1.414  0.0707 -0.3486 -0.0435
15078SOL    HW146956   9.608   1.522   1.488 -0.2400 -1.3697 -0.9015
15078SOL    HW246957   9.731   1.586   1.426 -0.1095  0.3717  1.0446
15079SOL     OW46958   3.988   4.712   0.542  0.4278  0.1689  0.2457
15079SOL    HW146959   3.915   4.685   0.485 -0.3740 -1.6845  2.0231
15079SOL    HW246960   3.948   4.772   0.604  0.0514 -1.6977  1.9167
15080SOL     OW46961   6.285   3.794   6.429 -0.1956  0.2522 -0.1741
15080SOL    HW146962   6.290   3.799   6.334  0.6083  1.0083 -0.1121
15080SOL    HW246963   6.216   3.731   6.447  0.3052 -0.6316 -1.2557
15081SOL     OW46964   5.716   3.156   6.098 -0.1736 -0.1250  0.5636
15081SOL    HW146965   5.741   3.067   6.073 -0.8136 -0.1540 -0.0009
15081SOL    HW246966   5.732   3.160   6.192  0.8579 -0.5011  0.4181
15082SOL     OW46967   8.845   4.946   6.941  0.2358 -0.1079 -0.2714
15082SOL    HW146968   8.800   4.916   7.020  0.7543 -1.2350 -0.3959
15082SOL    HW246969   8.806   4.896   6.870  0.1142  0.5535 -0.6799
15083SOL     OW46970   1.412   8.023   2.212  0.3989 -0.1363 -0.0834
15083SOL    HW146971   1.375   8.063   2.134 -0.0542  1.5601  0.9299
15083SOL    HW246972   1.413   7.929   2.194 -2.6486 -0.1031 -0.9209
15084SOL     OW46973   3.157   4.511   1.915 -0.4402  0.3371  0.0430
15084SOL    HW146974   3.185   4.423   1.892  1.3320  0.0253  2.9344
15084SOL    HW246975   3.069   4.500   1.950 -0.9641  0.0268 -1.3308
15085SOL     OW46976   0.905   6.903   8.095  0.7738 -0.2498  0.3479
15085SOL    HW146977   0.822   6.910   8.048 -0.0117  0.8372  1.7966
15085SOL    HW246978   0.953   6.835   8.049 -0.6463 -0.4364 -0.9453
15086SOL     OW46979   8.318   3.349   7.686 -0.0683 -0.1585  0.3594
15086SOL    HW146980   8.310   3.331   7.780  1.5063 -0.4606  0.4555
15086SOL    HW246981   8.353   3.438   7.682 -1.6272  0.4758 -0.0030
15087SOL     OW46982   3.165   2.262   9.280  0.3524  0.3578  0.1277
15087SOL    HW146983   3.148   2.261   9.374  0.2733 -0.4489  0.1091
15087SOL    HW246984   3.260   2.273   9.274  0.3134  0.8173  0.2902
15088SOL     OW46985   6.535   0.905   2.357 -0.2409 -0.3747  0.1963
15088SOL    HW146986   6.530   0.827   2.411 -0.5586  0.0549  0.8015
15088SOL    HW246987   6.625   0.907   2.325  0.5029  0.3191  2.1869
15089SOL     OW46988   0.284   5.203   9.035 -0.1614  0.2617  0.4672
15089SOL    HW146989   0.363   5.202   8.982 -1.6479 -0.3566 -1.8900
15089SOL    HW246990   0.231   5.275   8.998 -1.7351 -0.9307  0.2760
15090SOL     OW46991   6.260   3.742   6.162  0.4432 -0.0840  0.0567
15090SOL    HW146992   6.265   3.654   6.199  1.6645 -0.0200  0.0664
15090SOL    HW246993   6.178   3.742   6.112 -0.5364 -0.6107  1.5945
15091SOL     OW46994   8.028   0.941   0.794  0.2219 -0.2269  0.2134
15091SOL    HW146995   8.008   0.848   0.804 -1.7176  0.0436 -0.7435
15091SOL    HW246996   7.973   0.984   0.859 -0.0189  0.3464 -0.3593
15092SOL     OW46997   2.068   2.909   1.816  0.0347 -0.0383  0.6957
15092SOL    HW146998   2.154   2.917   1.774 -0.8983 -0.3166 -1.4018
15092SOL    HW246999   2.042   2.999   1.835 -0.0325  0.2094 -0.4836
15093SOL     OW47000   5.140   7.963   6.364 -0.2241  0.3984 -0.3128
15093SOL    HW147001   5.176   7.993   6.447 -0.4601  3.1210 -1.0752
15093SOL    HW247002   5.202   7.996   6.298 -0.9848 -0.1065 -1.3134
15094SOL     OW47003   6.304   5.751   7.509 -0.2083  0.6617  0.8281
15094SOL    HW147004   6.310   5.659   7.534  0.8075  0.3717 -0.3916
15094SOL    HW247005   6.269   5.749   7.419 -2.4121  1.6026  1.5898
15095SOL     OW47006   2.210   1.460   5.729  0.2906  0.5521  0.5488
15095SOL    HW147007   2.220   1.416   5.645  0.3522  1.6279 -0.0297
15095SOL    HW247008   2.300   1.475   5.759  0.3453  2.4224 -0.4351
15096SOL     OW47009   7.675   8.610   6.964  0.6445 -0.4088  0.3339
15096SOL    HW147010   7.748   8.573   7.013  2.0865  0.0934 -1.3317
15096SOL    HW247011   7.610   8.539   6.961  1.5613 -1.2977  0.8417
15097SOL     OW47012   4.839   2.658   7.158  0.1518 -0.0753 -0.5312
15097SOL    HW147013   4.861   2.588   7.219 -0.6536  0.0902 -0.0362
15097SOL    HW247014   4.743   2.661   7.157  0.1671  0.8379 -0.7478
15098SOL     OW47015   0.092   9.636   3.468 -0.1771  0.1190  0.0118
15098SOL    HW147016   0.016   9.594   3.507 -2.0344  0.5290 -2.8209
15098SOL    HW247017   0.074   9.730   3.476  0.8098  0.2694  0.6550
15099SOL     OW47018   7.843   7.173   4.528 -0.1473  0.2322  0.0366
15099SOL    HW147019   7.916   7.234   4.537  0.2920 -0.3987  0.9554
15099SOL    HW247020   7.850   7.140   4.439 -0.0764  1.1292 -0.2950
15100SOL     OW47021   5.486   6.238   7.844  0.3568 -0.1057 -0.3189
15100SOL    HW147022   5.521   6.276   7.764  0.6248 -0.5087 -0.3960
15100SOL    HW247023   5.510   6.300   7.913  2.9743 -1.2831 -0.0617
15101SOL     OW47024   7.127   3.665   6.290  0.3688  0.1415  0.3530
15101SOL    HW147025   7.044   3.711   6.286 -0.8695 -1.8797  1.2243
15101SOL    HW247026   7.165   3.692   6.374  1.2702  2.0658 -0.6207
15102SOL     OW47027   3.575   7.667   1.688  0.1306  0.1347  0.4163
15102SOL    HW147028   3.637   7.595   1.702 -2.0513 -1.7416  1.0723
15102SOL    HW247029   3.561   7.669   1.593  0.7985  0.2292  0.3185
15103SOL     OW47030   9.252   3.115   5.994  0.2708  0.3663 -0.6093
15103SOL    HW147031   9.225   3.072   5.913  0.9396 -0.4221 -0.4181
15103SOL    HW247032   9.343   3.090   6.006  0.5028  1.3569 -0.1729
15104SOL     OW47033   8.862   1.628   6.604  0.2701  0.1227 -0.0484
15104SOL    HW147034   8.885   1.676   6.683  2.5008 -1.4482  0.3815
15104SOL    HW247035   8.945   1.623   6.555 -0.9462  0.6986 -2.3251
15105SOL     OW47036   6.027   0.107   3.440  0.1616 -0.6012  0.3813
15105SOL    HW147037   6.043   0.201   3.438 -0.5755 -0.4697 -0.3745
15105SOL    HW247038   5.940   0.099   3.479 -0.2137 -0.8806 -0.4758
15106SOL     OW47039   0.733   4.161   0.291  0.3310  0.0485  0.0138
15106SOL    HW147040   0.716   4.149   0.384 -0.7927  1.8458  0.0791
15106SOL    HW247041   0.669   4.105   0.247 -0.6418  0.8695  0.3399
15107SOL     OW47042   4.356   5.155   1.034  0.6319 -0.1187  0.1440
15107SOL    HW147043   4.306   5.199   0.965 -0.4360  0.2222  1.0916
15107SOL    HW247044   4.320   5.067   1.037  0.2683  0.0390  0.6303
15108SOL     OW47045   8.792   1.300   9.308  0.0061 -0.3095  0.2265
15108SOL    HW147046   8.791   1.361   9.235 -1.0765 -0.4387  0.1234
15108SOL    HW247047   8.789   1.213   9.267 -0.0783 -0.3954  0.4141
15109SOL     OW47048   8.119   8.443   1.665  0.2818 -0.1015  0.7286
15109SOL    HW147049   8.186   8.376   1.653 -0.2339 -0.4114 -0.5405
15109SOL    HW247050   8.036   8.396   1.659 -0.0782  0.3540  1.8284
15110SOL     OW47051   1.842   4.654   0.112  0.1915 -0.1007  0.1084
15110SOL    HW147052   1.778   4.664   0.183  0.0401 -0.0817 -0.0288
15110SOL    HW247053   1.801   4.699   0.037  0.7441  0.6575  0.2532
15111SOL     OW47054   7.503   8.428   8.343 -0.0518 -0.1735 -0.6950
15111SOL    HW147055   7.444   8.353   8.343 -1.2181  0.6623 -2.8094
15111SOL    HW247056   7.534   8.434   8.253 -0.3649  2.1492 -0.7020
15112SOL     OW47057   8.380   0.390   4.249 -0.2484 -0.2793  0.3011
15112SOL    HW147058   8.429   0.313   4.277  1.6625  0.7109 -0.2100
15112SOL    HW247059   8.389   0.452   4.322 -0.5162  0.0165  0.0864
15113SOL     OW47060   2.550   1.306   8.743 -0.3022 -0.1783  0.1075
15113SOL    HW147061   2.580   1.336   8.657  0.7670  0.0607  0.5443
15113SOL    HW247062   2.456   1.323   8.743  0.0067  1.6930 -0.2679
15114SOL     OW47063   6.196   8.697   1.405  0.4884 -0.0585  0.1833
15114SOL    HW147064   6.202   8.606   1.431 -2.0853  0.5291  3.5048
15114SOL    HW247065   6.102   8.717   1.407  1.0235  2.8772  0.5092
15115SOL     OW47066   7.830   7.427   6.665 -0.0450 -0.2282  0.4263
15115SOL    HW147067   7.816   7.508   6.617  1.0891 -0.7079 -0.7898
15115SOL    HW247068   7.840   7.453   6.756  0.1173  0.9793  0.0731
15116SOL     OW47069   8.563   1.450   5.056 -0.4114 -0.2040  0.5621
15116SOL    HW147070   8.578   1.356   5.060 -2.8759 -0.6681  0.6879
15116SOL    HW247071   8.649   1.489   5.069  0.7425 -2.4321  0.0040
15117SOL     OW47072   8.276   1.751   3.228  0.0353  0.2275  0.0079
15117SOL    HW147073   8.249   1.688   3.294  2.4767  0.4289  1.3214
15117SOL    HW247074   8.251   1.836   3.263 -0.1795  0.2257 -0.1381
15118SOL     OW47075   3.720   3.695   3.012 -0.1142  0.1980  0.0614
15118SOL    HW147076   3.678   3.629   3.067  1.5326 -2.5532 -1.7523
15118SOL    HW247077   3.654   3.715   2.945 -1.4607  2.2593  1.8367
15119SOL     OW47078   9.600   1.380   7.494  0.2420  0.5170 -0.0193
15119SOL    HW147079   9.608   1.285   7.502  0.3115  0.5455  0.2940
15119SOL    HW247080   9.521   1.394   7.441  1.0667  0.2630 -1.3554
15120SOL     OW47081   2.020   6.069   9.656 -0.5471 -0.4567 -0.0727
15120SOL    HW147082   2.114   6.065   9.673 -0.2315  0.0004 -1.5808
15120SOL    HW247083   2.010   6.037   9.566 -1.3585  2.9054 -1.3094
15121SOL     OW47084   9.571   0.924   7.209  0.2543 -0.1075  0.0270
15121SOL    HW147085   9.620   0.851   7.247 -2.3355 -1.7186  0.4590
15121SOL    HW247086   9.525   0.963   7.282 -1.3573 -0.4738 -0.7499
15122SOL     OW47087   3.277   8.230   7.829 -0.1842  0.0879  0.4123
15122SOL    HW147088   3.279   8.212   7.923 -0.9586  2.8340  1.0260
15122SOL    HW247089   3.201   8.183   7.797  0.5853 -1.5985  0.9410
15123SOL     OW47090   5.303   5.927   3.614  0.0014  0.3796 -0.0438
15123SOL    HW147091   5.397   5.942   3.621  0.2305 -0.4301 -1.0736
15123SOL    HW247092   5.263   6.008   3.645  1.0829  1.3709 -1.1509
15124SOL     OW47093   1.393   6.008   6.004 -0.3212 -0.3908  0.3261
15124SOL    HW147094   1.434   5.970   6.081 -1.2603 -0.3681  0.8442
15124SOL    HW247095   1.433   5.961   5.930 -0.8656 -1.8072  0.9078
15125SOL     OW47096   3.955   9.382   5.957  0.2223  0.4212  0.4032
15125SOL    HW147097   3.960   9.397   5.862  1.5993 -0.6206  0.2768
15125SOL    HW247098   3.862   9.391   5.978 -0.0674  0.9603 -0.9920
15126SOL     OW47099   8.986   9.301   2.684 -0.3450  0.2305 -0.3388
15126SOL    HW147100   8.984   9.315   2.589 -1.4509 -0.0497 -0.3746
15126SOL    HW247101   8.949   9.213   2.696  0.8881 -0.2357  0.2849
15127SOL     OW47102   3.583   3.204   8.430 -0.0012  0.5749 -0.2120
15127SOL    HW147103   3.546   3.192   8.342  0.7114 -0.4660 -0.3851
15127SOL    HW247104   3.676   3.183   8.420  0.3451  1.6567  0.5405
15128SOL     OW47105   4.645   0.903   6.764 -0.0449 -0.1468  0.2873
15128SOL    HW147106   4.572   0.857   6.805 -0.0549 -0.0886  0.3363
15128SOL    HW247107   4.676   0.963   6.832 -0.1977  0.1017  0.1388
15129SOL     OW47108   5.053   4.713   7.055  0.1525 -0.2173 -0.1978
15129SOL    HW147109   5.008   4.786   7.012  0.3998 -0.3605 -0.7081
15129SOL    HW247110   5.141   4.744   7.071  0.8027 -0.9749 -2.0138
15130SOL     OW47111   9.556   4.172   3.811  0.1307  0.3784  0.1991
15130SOL    HW147112   9.609   4.246   3.780 -1.4949  1.8717  0.7519
15130SOL    HW247113   9.527   4.199   3.898 -0.5081 -0.9245  0.4098
15131SOL     OW47114   2.292   0.291   5.100  0.0445 -0.5591  0.3208
15131SOL    HW147115   2.263   0.337   5.021 -0.4463  1.1111  1.4250
15131SOL    HW247116   2.226   0.223   5.114 -1.3410  0.7997  0.7055
15132SOL     OW47117   7.657   0.579   6.630 -0.4407  0.2707  0.9832
15132SOL    HW147118   7.621   0.573   6.542  2.3925 -1.5243 -0.1827
15132SOL    HW247119   7.713   0.657   6.628  0.6596 -0.5019  0.7232
15133SOL     OW47120   1.585   7.574   3.418  0.1252 -0.0931  0.5969
15133SOL    HW147121   1.533   7.619   3.351  0.6847 -1.2278 -0.6622
15133SOL    HW247122   1.520   7.531   3.474 -0.3544 -0.6799 -0.3682
15134SOL     OW47123   3.475   6.918   7.535  0.3932 -0.1935 -0.0406
15134SOL    HW147124   3.518   6.979   7.475  0.4119 -1.2299 -1.1232
15134SOL    HW247125   3.482   6.833   7.492 -0.4426 -0.8165  0.9951
15135SOL     OW47126   3.830   4.974   6.405  0.2953 -0.5677 -0.4269
15135SOL    HW147127   3.850   5.001   6.316 -0.3998  1.1508 -0.1061
15135SOL    HW247128   3.871   5.040   6.460 -0.0102 -1.1248  0.4951
15136SOL     OW47129   7.075   5.200   3.604  0.1995 -0.1786  0.4522
15136SOL    HW147130   7.070   5.278   3.659  0.1738 -0.7212  1.2311
15136SOL    HW247131   6.983   5.179   3.585  0.2187  0.1717 -0.0367
15137SOL     OW47132   2.545   0.288   4.127 -0.0862  0.2560  0.2859
15137SOL    HW147133   2.636   0.297   4.097  0.3075 -1.8107  0.6606
15137SOL    HW247134   2.493   0.331   4.059  1.0796  0.0018 -0.8174
15138SOL     OW47135   0.294   3.832   4.055 -0.5445  0.3045 -0.0620
15138SOL    HW147136   0.343   3.767   4.106 -0.0096  0.7817  0.0518
15138SOL    HW247137   0.278   3.791   3.971  0.2464  0.2150 -0.1735
15139SOL     OW47138   2.420   2.127   4.768 -0.2493  0.1756  0.3897
15139SOL    HW147139   2.341   2.179   4.780  0.1485  1.1945 -1.1922
15139SOL    HW247140   2.491   2.191   4.769  0.3310 -0.4296 -0.6722
15140SOL     OW47141   4.732   3.891   9.631 -0.5217  0.6581  0.2876
15140SOL    HW147142   4.762   3.978   9.659 -1.1331  1.6990 -2.0985
15140SOL    HW247143   4.810   3.850   9.593 -0.6538  0.9044 -0.2566
15141SOL     OW47144   8.169   5.960   7.642  0.2435  0.5852 -0.5706
15141SOL    HW147145   8.231   6.016   7.690  1.7193  0.5617 -2.3215
15141SOL    HW247146   8.206   5.872   7.651  0.2148  0.5033 -1.2327
15142SOL     OW47147   4.995   6.222   4.592  0.3816  0.5050 -0.4348
15142SOL    HW147148   5.075   6.208   4.540  1.7157  0.2672  1.5543
15142SOL    HW247149   4.994   6.316   4.609  1.2114  0.2985  0.9250
15143SOL     OW47150   8.170   3.152   9.159  0.3834 -0.3991 -0.0515
15143SOL    HW147151   8.184   3.229   9.213  2.5644  0.4761 -1.7124
15143SOL    HW247152   8.253   3.105   9.160  0.0570 -1.0890 -1.4957
15144SOL     OW47153   5.433   0.142   2.234 -0.4096 -0.4824 -0.1899
15144SOL    HW147154   5.486   0.120   2.310 -0.2298  0.6776  0.0377
15144SOL    HW247155   5.382   0.063   2.216  2.4332 -2.1921 -1.3284
15145SOL     OW47156   9.594   7.966   6.902  0.1109  0.4500  0.1165
15145SOL    HW147157   9.594   7.909   6.979  0.9342  1.6576  1.0620
15145SOL    HW247158   9.513   8.016   6.910 -0.1265  0.1110 -0.1665
15146SOL     OW47159   5.368   7.738   0.194 -0.2157 -0.2166  0.0964
15146SOL    HW147160   5.434   7.770   0.133  0.8094 -0.8773  0.8218
15146SOL    HW247161   5.291   7.792   0.177  0.0894 -0.2855 -1.6552
15147SOL     OW47162   6.816   0.449   2.611 -0.0717  0.3584  0.1487
15147SOL    HW147163   6.722   0.433   2.624 -0.4784  2.4557  0.0678
15147SOL    HW247164   6.853   0.449   2.699 -0.2925  0.4040  0.2409
15148SOL     OW47165   8.375   9.587   1.109 -0.6198 -0.1229  0.1991
15148SOL    HW147166   8.329   9.562   1.189 -0.3444 -0.5295  0.2368
15148SOL    HW247167   8.307   9.617   1.049 -1.3367 -3.1810 -0.7156
15149SOL     OW47168   0.449   7.560   1.887  0.3338 -0.1961  0.3518
15149SOL    HW147169   0.368   7.521   1.854  0.5530 -0.2240 -0.1610
15149SOL    HW247170   0.420   7.623   1.953 -0.0328 -1.0490  1.0164
15150SOL     OW47171   0.330   5.765   4.826  0.1518 -0.2425  0.0246
15150SOL    HW147172   0.410   5.763   4.773  0.2278 -0.3295  0.1420
15150SOL    HW247173   0.266   5.715   4.775 -0.4541  1.5888 -1.0709
15151SOL     OW47174   3.649   5.652   7.529  0.2879 -0.3098 -0.5518
15151SOL    HW147175   3.654   5.687   7.618  3.3930  0.3673 -0.8868
15151SOL    HW247176   3.672   5.560   7.538  1.6305 -0.0160 -0.6994
15152SOL     OW47177   2.291   1.336   8.940 -0.2000  0.3431 -0.1392
15152SOL    HW147178   2.234   1.398   8.893 -2.2469 -0.0404  1.6915
15152SOL    HW247179   2.300   1.374   9.027 -0.4899 -1.3140  0.6366
15153SOL     OW47180   6.014   8.252   3.817  0.4329 -0.0522 -0.0101
15153SOL    HW147181   6.030   8.345   3.829 -0.4043  0.0054  0.8030
15153SOL    HW247182   5.918   8.245   3.808  0.5147 -0.7951 -0.4273
15154SOL     OW47183   0.294   4.976   5.615 -0.1376 -0.1208  0.0489
15154SOL    HW147184   0.231   5.033   5.571  1.8333  1.3264 -1.0769
15154SOL    HW247185   0.273   4.888   5.585 -0.0841  0.6082 -2.3145
15155SOL     OW47186   5.013   2.807   8.338 -0.7032  0.0102  0.1965
15155SOL    HW147187   5.021   2.712   8.341  2.3651  0.0124 -2.3049
15155SOL    HW247188   5.082   2.839   8.397  0.9351  0.5190 -1.8653
15156SOL     OW47189   4.157   5.556   1.301 -0.0535  0.2428 -0.3327
15156SOL    HW147190   4.113   5.576   1.384 -1.3289 -0.4848 -0.8019
15156SOL    HW247191   4.226   5.622   1.294 -2.5090  2.9845 -0.6513
15157SOL     OW47192   7.258   1.211   9.268  0.2547  0.5753  0.0529
15157SOL    HW147193   7.235   1.296   9.229 -1.6373  0.1965  0.2334
15157SOL    HW247194   7.305   1.165   9.199  3.0539  2.4005  0.5484
15158SOL     OW47195   2.985   3.105   0.594 -0.3363  0.5602 -0.6487
15158SOL    HW147196   2.900   3.083   0.556 -1.2070  1.7101  0.5412
15158SOL    HW247197   3.048   3.057   0.541 -1.8177 -1.4245 -0.7169
15159SOL     OW47198   4.686   7.319   0.991 -0.0546  0.1604 -0.8784
15159SOL    HW147199   4.680   7.292   1.083  0.3190 -3.0170 -1.6578
15159SOL    HW247200   4.741   7.397   0.992  1.3282 -0.7394  1.4899
15160SOL     OW47201   9.605   6.700   0.137  0.3302  0.0732 -0.7530
15160SOL    HW147202   9.522   6.729   0.176  0.2407  0.1515 -0.9953
15160SOL    HW247203   9.667   6.700   0.209 -0.4061 -2.2650 -0.0355
15161SOL     OW47204   8.099   9.228   5.205 -0.1897  0.2258 -0.0378
15161SOL    HW147205   8.151   9.175   5.144  0.3857 -0.5158  1.0732
15161SOL    HW247206   8.159   9.248   5.277 -1.1960  0.1019  0.8529
15162SOL     OW47207   4.667   8.338   0.930  0.3335 -0.3558 -0.2042
15162SOL    HW147208   4.729   8.338   1.002  0.1115  0.3843 -0.0121
15162SOL    HW247209   4.587   8.302   0.967  0.6374 -1.3219 -0.4551
15163SOL     OW47210   5.254   1.655   0.963 -0.4175 -0.0187  0.5642
15163SOL    HW147211   5.255   1.658   1.058  0.0776 -0.3445  0.5760
15163SOL    HW247212   5.347   1.657   0.938 -0.5490  0.1886  0.0891
15164SOL     OW47213   7.707   5.331   5.971  0.4317  0.0227 -0.0059
15164SOL    HW147214   7.801   5.347   5.979  0.4072  0.7125 -0.8903
15164SOL    HW247215   7.667   5.416   5.991 -0.0904 -0.5674  1.6238
15165SOL     OW47216   3.695   3.509   9.422 -0.1112  0.0047 -0.1346
15165SOL    HW147217   3.615   3.512   9.474 -1.4436 -0.2505 -2.0518
15165SOL    HW247218   3.748   3.581   9.455 -0.0123 -1.2826  2.8125
15166SOL     OW47219   6.135   6.814   7.142 -0.0638 -0.5499 -0.3891
15166SOL    HW147220   6.107   6.899   7.109  1.3364 -0.1033 -0.4805
15166SOL    HW247221   6.179   6.772   7.068  2.1576  0.0305  0.4968
15167SOL     OW47222   5.507   3.932   5.930  0.8099  0.5014 -0.4527
15167SOL    HW147223   5.522   4.020   5.898 -0.3276  0.7317 -0.3723
15167SOL    HW247224   5.465   3.944   6.015 -0.6583 -0.0940 -1.0556
15168SOL     OW47225   3.882   9.227   2.600  0.3036  0.1957 -0.5095
15168SOL    HW147226   3.920   9.315   2.602  1.0870 -0.1195 -1.3217
15168SOL    HW247227   3.870   9.205   2.693 -0.9968  1.6123 -0.3017
15169SOL     OW47228   0.827   6.078   2.567  0.4774  0.0157  0.2125
15169SOL    HW147229   0.802   6.005   2.623  0.6412 -0.4543 -0.3192
15169SOL    HW247230   0.753   6.089   2.507  0.0481  0.8990  0.8955
15170SOL     OW47231   8.513   5.113   4.375  0.1678 -0.1898 -0.3138
15170SOL    HW147232   8.583   5.056   4.342  0.2468  0.2604 -0.9587
15170SOL    HW247233   8.475   5.065   4.448  1.4145 -0.2666  0.3073
15171SOL     OW47234   4.002   1.864   9.412  0.9118 -0.2047  0.1340
15171SOL    HW147235   4.017   1.919   9.488  1.8809  1.5894 -1.2776
15171SOL    HW247236   3.930   1.806   9.438  1.6671 -0.1414  2.6081
15172SOL     OW47237   4.749   3.564   1.304 -0.1002  0.1623 -0.2468
15172SOL    HW147238   4.666   3.519   1.322 -0.2699  0.9035  0.9108
15172SOL    HW247239   4.724   3.656   1.294  0.4915  0.2798 -0.6941
15173SOL     OW47240   3.067   7.074   7.565 -0.2642  0.0210 -0.0462
15173SOL    HW147241   3.140   7.037   7.615 -0.7427  0.9307  1.3960
15173SOL    HW247242   3.004   7.002   7.558 -0.2216 -0.1081  0.7656
15174SOL     OW47243   2.828   8.324   7.097 -0.4447  0.6963  0.2719
15174SOL    HW147244   2.833   8.237   7.136  0.2883  1.3333  1.6777
15174SOL    HW247245   2.842   8.309   7.003 -1.7742 -0.8262  0.2673
15175SOL     OW47246   7.507   1.748   5.364 -0.3092 -0.7365  0.4239
15175SOL    HW147247   7.509   1.760   5.459 -0.2566 -1.0196  0.4588
15175SOL    HW247248   7.415   1.761   5.340  0.0523  1.7939  0.1838
15176SOL     OW47249   6.497   6.418   1.859  0.0611  0.0466 -0.1019
15176SOL    HW147250   6.559   6.387   1.925  0.9687 -0.0579 -0.9732
15176SOL    HW247251   6.461   6.338   1.820 -0.8385  0.1067  0.5893
15177SOL     OW47252   0.534   3.977   9.509  0.0035 -0.3194 -0.6362
15177SOL    HW147253   0.527   4.068   9.478 -1.8640 -0.2875 -0.2396
15177SOL    HW247254   0.627   3.967   9.532  0.4312  1.1974 -1.5213
15178SOL     OW47255   5.457   3.594   4.978 -0.6833 -0.4114 -0.0388
15178SOL    HW147256   5.489   3.512   4.938 -0.5954 -0.4385  0.0882
15178SOL    HW247257   5.521   3.614   5.046 -0.4585  0.0077 -0.3666
15179SOL     OW47258   1.791   7.302   6.743 -0.4184 -0.1092  0.6659
15179SOL    HW147259   1.741   7.356   6.805  0.4535  0.9916  0.4419
15179SOL    HW247260   1.725   7.254   6.694 -1.2873  1.5658  0.1534
15180SOL     OW47261   2.269   6.999   9.473 -0.7052 -0.1899  0.0891
15180SOL    HW147262   2.247   7.089   9.449  0.1269  0.0811  0.3326
15180SOL    HW247263   2.213   6.980   9.548 -0.9350  0.0981 -0.0077
15181SOL     OW47264   8.281   9.299   1.927 -0.0596  0.1757  0.4425
15181SOL    HW147265   8.247   9.290   2.016 -0.1844 -0.8015  0.3120
15181SOL    HW247266   8.342   9.226   1.918  0.1738  0.4450 -0.1746
15182SOL     OW47267   9.005   3.807   9.511 -0.0739  0.3033 -0.7439
15182SOL    HW147268   8.933   3.802   9.574  0.6998 -0.3284  0.1197
15182SOL    HW247269   8.970   3.770   9.430 -1.6537  2.7576 -1.2880
15183SOL     OW47270   7.480   1.729   6.931 -0.0014 -0.0059  0.6417
15183SOL    HW147271   7.466   1.642   6.967 -0.5555 -0.8457 -1.4976
15183SOL    HW247272   7.410   1.741   6.867  1.5132  0.9524 -0.9288
15184SOL     OW47273   9.458   6.491   4.592  0.6396 -0.1643 -0.4806
15184SOL    HW147274   9.363   6.486   4.603  0.7409 -1.1198  0.0328
15184SOL    HW247275   9.490   6.403   4.613  1.6972  0.3122  0.0154
15185SOL     OW47276   9.321   7.886   6.324 -0.6828  0.1617  0.3971
15185SOL    HW147277   9.282   7.817   6.377 -0.9624 -0.3786 -0.4864
15185SOL    HW247278   9.250   7.949   6.310 -0.6021  0.3169  0.6731
15186SOL     OW47279   8.850   4.942   0.473 -0.2561  0.8477 -0.6913
15186SOL    HW147280   8.928   4.987   0.504 -0.0338  0.2272 -0.3366
15186SOL    HW247281   8.821   4.993   0.397  1.6642 -0.0535 -2.1189
15187SOL     OW47282   1.791   8.727   4.329  0.2573  0.2786 -0.2610
15187SOL    HW147283   1.751   8.805   4.367 -0.6540 -0.8455  1.1878
15187SOL    HW247284   1.720   8.681   4.286  0.5055 -0.3987  0.0303
15188SOL     OW47285   2.676   1.158   3.142  0.1172 -0.5216  0.2586
15188SOL    HW147286   2.597   1.104   3.151 -1.3191  1.4016 -0.1930
15188SOL    HW247287   2.643   1.248   3.137  2.1934  0.2194 -2.0238
15189SOL     OW47288   1.596   5.810   2.175 -0.7732 -0.3034 -0.0087
15189SOL    HW147289   1.654   5.870   2.128 -0.7862  0.0287  0.3910
15189SOL    HW247290   1.565   5.749   2.108 -0.9711  0.2975 -0.4723
15190SOL     OW47291   4.338   4.052   7.594 -0.3701  0.1619 -0.2849
15190SOL    HW147292   4.372   4.045   7.505 -0.0450 -0.0529 -0.1416
15190SOL    HW247293   4.303   3.965   7.613 -1.8040  0.5964 -0.7517
15191SOL     OW47294   4.905   8.773   0.509  0.3697 -0.2014 -0.6987
15191SOL    HW147295   4.951   8.857   0.509  1.2513 -0.6150 -2.6545
15191SOL    HW247296   4.822   8.791   0.466 -0.1255 -0.0338  0.3006
15192SOL     OW47297   5.215   5.657   1.868 -0.1535  0.5984  0.2204
15192SOL    HW147298   5.204   5.615   1.783  0.8859 -0.3091  0.5128
15192SOL    HW247299   5.170   5.600   1.930  0.5434  0.3369  0.5016
15193SOL     OW47300   2.696   4.062   9.491 -0.2023 -0.2107 -0.2558
15193SOL    HW147301   2.742   4.013   9.423  0.5214 -1.2397  0.9146
15193SOL    HW247302   2.623   4.005   9.516  0.1246 -0.3156  0.5042
15194SOL     OW47303   1.727   6.099   8.128  0.1683 -0.4430  0.1262
15194SOL    HW147304   1.646   6.133   8.091  0.8938  1.3446  0.0643
15194SOL    HW247305   1.791   6.108   8.058  0.5887 -1.1659  0.4052
15195SOL     OW47306   3.196   3.856   8.871  0.4200  0.0274  0.3958
15195SOL    HW147307   3.112   3.839   8.829 -0.8408  2.1577  1.8648
15195SOL    HW247308   3.231   3.769   8.891 -2.6923 -1.0068  2.0784
15196SOL     OW47309   7.082   7.232   2.081  0.0120  0.3148  0.4580
15196SOL    HW147310   7.140   7.200   2.012  0.5350  1.3953  0.3618
15196SOL    HW247311   7.049   7.316   2.047 -1.9211 -0.4476  0.3489
15197SOL     OW47312   9.561   1.209   2.935  0.6107  0.3813 -0.2707
15197SOL    HW147313   9.558   1.197   3.030  2.1385  1.5141 -0.0444
15197SOL    HW247314   9.514   1.133   2.900 -1.7930  0.9781  1.4146
15198SOL     OW47315   3.275   8.451   7.629  0.5564  0.1728  0.4097
15198SOL    HW147316   3.271   8.399   7.709 -0.7078 -0.0006  0.2609
15198SOL    HW247317   3.183   8.473   7.610  0.8560  0.4517 -0.8309
15199SOL     OW47318   1.406   3.824   2.690  0.1069  0.6677 -0.0257
15199SOL    HW147319   1.444   3.757   2.746 -0.7043 -0.5517 -0.8802
15199SOL    HW247320   1.481   3.874   2.658  0.8987 -0.8536 -0.6392
15200SOL     OW47321   4.027   9.684   3.040  0.0606 -0.1758  0.8629
15200SOL    HW147322   4.076   9.617   2.994  1.0351 -0.1926  1.8735
15200SOL    HW247323   4.034   9.762   2.984  1.2555 -0.1807  0.9838
15201SOL     OW47324   1.236   8.635   5.769 -0.0533  0.7323  0.1736
15201SOL    HW147325   1.288   8.675   5.699  0.0932 -1.0108 -0.7731
15201SOL    HW247326   1.149   8.675   5.759  0.0570  0.7728 -0.7820
15202SOL     OW47327   3.453   1.071   0.505 -0.3916  1.1461 -0.3080
15202SOL    HW147328   3.465   1.166   0.508 -1.6330  1.3004  0.2411
15202SOL    HW247329   3.364   1.059   0.471 -0.2767  0.1783 -0.2912
15203SOL     OW47330   8.270   6.801   1.881 -0.6132  0.4024  0.1704
15203SOL    HW147331   8.260   6.716   1.924 -0.0997 -0.3767 -1.1909
15203SOL    HW247332   8.364   6.819   1.885 -0.8911  1.7786  1.9783
15204SOL     OW47333   5.679   0.608   1.784 -0.7346  0.0247 -0.5466
15204SOL    HW147334   5.743   0.661   1.831 -0.1087 -0.6984 -0.5524
15204SOL    HW247335   5.640   0.552   1.852  1.6841 -2.5541 -1.0663
15205SOL     OW47336   0.410   2.382   9.694  0.2634 -0.0687 -0.6168
15205SOL    HW147337   0.487   2.439   9.692  0.3308 -0.1430 -0.1291
15205SOL    HW247338   0.388   2.373   9.787 -0.6363  0.3567 -0.7702
15206SOL     OW47339   1.213   2.775   0.178  0.2246 -0.3047 -0.8038
15206SOL    HW147340   1.305   2.768   0.152  0.4877  0.6224 -0.1941
15206SOL    HW247341   1.166   2.719   0.117  1.2439 -1.1068 -0.8729
15207SOL     OW47342   4.707   0.869   8.498 -0.1246 -0.0376 -0.5459
15207SOL    HW147343   4.718   0.963   8.488 -1.6483  0.2725  0.3680
15207SOL    HW247344   4.639   0.859   8.564  1.4354 -1.7948  0.9521
15208SOL     OW47345   1.779   4.593   4.551 -0.1019 -0.2983  0.1521
15208SOL    HW147346   1.803   4.515   4.501 -0.5674  0.3808 -1.1803
15208SOL    HW247347   1.686   4.583   4.568 -0.1701 -0.0363 -0.0508
15209SOL     OW47348   3.205   1.500   5.529 -0.2841 -0.3179 -0.0293
15209SOL    HW147349   3.276   1.453   5.486 -0.4235 -0.6773  0.1317
15209SOL    HW247350   3.155   1.433   5.575 -0.0482  0.0764  0.8279
15210SOL     OW47351   2.107   8.914   5.022 -0.4590  0.4150 -0.3739
15210SOL    HW147352   2.028   8.886   5.068 -0.2275 -0.7424 -0.6396
15210SOL    HW247353   2.169   8.842   5.036 -0.4186 -0.0471 -2.5732
15211SOL     OW47354   2.787   3.369   3.695  0.0723 -0.1716  0.4028
15211SOL    HW147355   2.761   3.280   3.671 -0.0688 -0.2688  0.9119
15211SOL    HW247356   2.754   3.423   3.623  0.6801 -0.5966 -0.2087
15212SOL     OW47357   5.553   7.519   1.361 -0.2362  0.0568  0.0466
15212SOL    HW147358   5.586   7.445   1.412 -0.8769 -0.0073  0.3741
15212SOL    HW247359   5.486   7.558   1.416  0.0292  0.8265 -0.1697
15213SOL     OW47360   8.806   2.521   6.648  0.5178  0.2222  0.4303
15213SOL    HW147361   8.803   2.478   6.733 -0.4477 -0.7694 -0.0717
15213SOL    HW247362   8.890   2.495   6.611  0.2324 -0.7283  0.4139
15214SOL     OW47363   9.553   4.811   5.585  0.3416  0.2154 -0.0565
15214SOL    HW147364   9.543   4.822   5.680 -0.1114  0.7562 -0.1621
15214SOL    HW247365   9.466   4.827   5.549  0.8017  1.4817 -0.6888
15215SOL     OW47366   4.752   4.595   1.016 -0.1600  0.3349  0.1009
15215SOL    HW147367   4.802   4.676   1.006 -0.1579  0.0550 -2.9113
15215SOL    HW247368   4.668   4.624   1.052  1.4038  0.9837  3.7063
15216SOL     OW47369   0.954   2.928   6.958  0.2837 -0.2816 -0.3076
15216SOL    HW147370   0.884   2.862   6.964  1.0595 -1.0038  1.2884
15216SOL    HW247371   0.974   2.934   6.864  1.5806 -3.8364 -0.3861
15217SOL     OW47372   7.598   8.793   5.346 -0.3281  0.7857 -0.1323
15217SOL    HW147373   7.680   8.838   5.363 -1.4666  2.5683  0.9659
15217SOL    HW247374   7.624   8.704   5.323  1.8769  1.1478  0.7188
15218SOL     OW47375   7.432   4.808   7.356  0.2023  0.6916  0.3639
15218SOL    HW147376   7.474   4.818   7.271 -0.2173 -2.1216 -0.2778
15218SOL    HW247377   7.338   4.805   7.335  0.1390 -0.9547  0.7459
15219SOL     OW47378   8.455   6.765   0.761 -0.1385  0.1447  0.4150
15219SOL    HW147379   8.394   6.772   0.687  0.1731 -0.1569  0.1244
15219SOL    HW247380   8.412   6.813   0.832 -0.8714 -0.3487  0.3221
15220SOL     OW47381   4.166   4.654   2.767  0.1328  0.1773  0.0175
15220SOL    HW147382   4.122   4.589   2.712  0.4680  0.9084 -1.1347
15220SOL    HW247383   4.096   4.697   2.815 -0.0731 -1.3190  1.1630
15221SOL     OW47384   3.422   9.602   0.884 -0.0499  0.2804  0.1516
15221SOL    HW147385   3.414   9.532   0.949 -3.5802  0.2566 -0.1222
15221SOL    HW247386   3.362   9.670   0.914  0.5707  1.6038 -1.4752
15222SOL     OW47387   2.362   7.202   1.637 -0.0792 -0.5801  0.2285
15222SOL    HW147388   2.303   7.132   1.610 -0.6547  0.1520 -0.4659
15222SOL    HW247389   2.366   7.195   1.732 -1.0769 -0.8103  0.2613
15223SOL     OW47390   9.267   9.127   5.162  0.4805  0.0554  0.1727
15223SOL    HW147391   9.344   9.179   5.186 -0.3120  1.0431  0.6557
15223SOL    HW247392   9.265   9.057   5.226  1.3951 -0.4177 -0.3016
15224SOL     OW47393   4.896   1.539   4.060  0.4816 -0.6009  0.1890
15224SOL    HW147394   4.958   1.604   4.027  1.9476 -0.9471  2.1108
15224SOL    HW247395   4.811   1.584   4.058  1.1612  0.7316 -0.2063
15225SOL     OW47396   5.061   6.806   2.502  1.1620  0.3662 -0.0378
15225SOL    HW147397   5.113   6.747   2.447  0.8689  0.4516 -0.4081
15225SOL    HW247398   4.974   6.807   2.461  0.5788 -0.5365  1.1184
15226SOL     OW47399   5.476   0.406   2.437 -0.3571 -0.5395 -0.3060
15226SOL    HW147400   5.471   0.437   2.346 -0.9460  0.7506  0.1392
15226SOL    HW247401   5.527   0.473   2.482  0.1488 -1.3051  0.2728
15227SOL     OW47402   1.267   2.267   1.305  0.3781 -0.2926 -0.4110
15227SOL    HW147403   1.317   2.344   1.332  2.8241 -1.9586  0.1330
15227SOL    HW247404   1.176   2.289   1.328  1.0602  2.1529  0.3025
15228SOL     OW47405   2.909   1.180   2.518 -0.5393  0.4679  0.6955
15228SOL    HW147406   2.840   1.130   2.474 -0.9257  0.2811  1.4852
15228SOL    HW247407   2.891   1.271   2.493 -0.6574  0.3490  0.3413
15229SOL     OW47408   5.541   4.142   2.034  0.1147  0.4585 -0.4083
15229SOL    HW147409   5.458   4.136   2.082 -0.8151  2.8548 -1.5151
15229SOL    HW247410   5.540   4.067   1.975 -0.3049 -0.6272  0.9188
15230SOL     OW47411   6.716   6.810   6.643 -0.0369 -0.8997  0.3923
15230SOL    HW147412   6.677   6.820   6.730 -1.1851  2.8525 -0.3734
15230SOL    HW247413   6.643   6.785   6.587  0.2341 -1.1215  0.1368
15231SOL     OW47414   1.225   9.167   7.197 -0.4177  0.0863 -0.9180
15231SOL    HW147415   1.135   9.162   7.227 -0.1124 -1.3576 -0.1758
15231SOL    HW247416   1.268   9.091   7.235  1.5288  1.5985  0.1156
15232SOL     OW47417   1.461   1.730   6.661  0.1129 -0.0561 -0.3860
15232SOL    HW147418   1.535   1.755   6.606 -1.3749 -0.4758 -2.7140
15232SOL    HW247419   1.436   1.811   6.706  3.2700 -0.3367  2.2861
15233SOL     OW47420   2.564   6.677   5.005  0.0377  0.3884  0.3452
15233SOL    HW147421   2.597   6.713   5.087 -0.9412  1.7324  0.2001
15233SOL    HW247422   2.480   6.723   4.991 -0.3989 -0.6989 -0.7829
15234SOL     OW47423   1.453   2.894   8.526  0.6578  0.4473  0.0029
15234SOL    HW147424   1.491   2.806   8.522 -2.5093 -1.0394 -0.1864
15234SOL    HW247425   1.460   2.928   8.437  0.3383 -0.3661 -0.3375
15235SOL     OW47426   3.469   8.023   1.366 -0.0187 -0.4532  0.4017
15235SOL    HW147427   3.400   8.036   1.302  1.1311  0.4336 -0.7267
15235SOL    HW247428   3.469   8.104   1.417  0.3094 -0.3576  0.2542
15236SOL     OW47429   5.471   6.657   9.039 -0.0027  0.0168 -0.0124
15236SOL    HW147430   5.514   6.704   8.968  0.2071  1.0554  0.7776
15236SOL    HW247431   5.387   6.629   9.002  0.7877 -0.9387 -1.1710
15237SOL     OW47432   5.763   1.194   5.293 -0.3105 -0.4681  0.8613
15237SOL    HW147433   5.812   1.260   5.244 -1.6711 -0.2757 -0.2933
15237SOL    HW247434   5.824   1.165   5.361  1.7540 -0.9076 -1.0470
15238SOL     OW47435   7.897   6.249   6.325 -0.1928 -0.0128 -0.2340
15238SOL    HW147436   7.903   6.268   6.418  1.9292  1.6041 -0.6277
15238SOL    HW247437   7.977   6.286   6.287  0.0803 -2.5111 -2.4134
15239SOL     OW47438   2.812   7.335   1.752 -0.6139  0.1000  1.1985
15239SOL    HW147439   2.841   7.401   1.689  1.7207 -1.6134  0.2990
15239SOL    HW247440   2.874   7.341   1.824 -1.6113  0.2041  2.0760
15240SOL     OW47441   1.223   1.485   7.533  0.1033 -0.6071  0.0105
15240SOL    HW147442   1.178   1.473   7.449 -1.7638 -3.7381  1.2845
15240SOL    HW247443   1.301   1.430   7.526  0.9407  0.5554 -0.2317
15241SOL     OW47444   1.783   2.252   8.455  0.3142  0.1912 -0.4551
15241SOL    HW147445   1.758   2.293   8.538  0.6455 -0.3587 -0.0792
15241SOL    HW247446   1.834   2.176   8.481  0.4861  0.0612 -1.1725
15242SOL     OW47447   4.278   1.127   1.237 -0.4070  0.2422 -0.1880
15242SOL    HW147448   4.359   1.092   1.273  0.4931  1.7510 -0.6361
15242SOL    HW247449   4.230   1.160   1.313  0.5207  1.5054 -0.1178
15243SOL     OW47450   5.222   2.531   7.168 -0.1586  0.4278 -0.2717
15243SOL    HW147451   5.253   2.518   7.258  1.2313  0.8193 -0.6825
15243SOL    HW247452   5.300   2.550   7.118 -0.7339 -1.1756 -1.8630
15244SOL     OW47453   6.654   2.936   5.147 -0.1039 -0.2840 -0.1487
15244SOL    HW147454   6.592   2.974   5.209  0.3482  1.3232 -0.6231
15244SOL    HW247455   6.601   2.911   5.071 -0.5438 -1.5273  0.5523
15245SOL     OW47456   4.626   8.233   6.519 -0.1755  0.0935 -0.1384
15245SOL    HW147457   4.689   8.161   6.513 -1.2825 -0.9313  0.3331
15245SOL    HW247458   4.550   8.196   6.562 -1.4604  1.0728 -1.4482
15246SOL     OW47459   6.658   3.677   3.640  0.0533  0.1422  0.6923
15246SOL    HW147460   6.684   3.671   3.732  1.8024 -1.4495  0.1545
15246SOL    HW247461   6.718   3.741   3.602  0.9336 -0.9377  0.1958
15247SOL     OW47462   3.875   9.105   3.966 -0.2667  0.3049 -0.1059
15247SOL    HW147463   3.933   9.181   3.964  0.3419 -0.1635 -1.7666
15247SOL    HW247464   3.874   9.073   3.876 -0.2976 -1.8001  0.5910
15248SOL     OW47465   7.442   0.650   4.639  0.5221  0.0410 -0.2218
15248SOL    HW147466   7.455   0.745   4.633 -0.5441  0.2038 -0.1238
15248SOL    HW247467   7.499   0.613   4.572 -0.2054  0.8587 -1.3214
15249SOL     OW47468   4.198   6.835   3.670  0.3686 -0.1406  0.1343
15249SOL    HW147469   4.255   6.903   3.706 -0.4234  0.7978 -0.3321
15249SOL    HW247470   4.110   6.871   3.677 -0.0071 -0.8480 -0.7143
15250SOL     OW47471   7.234   5.015   6.583  0.1515  0.5270 -0.6814
15250SOL    HW147472   7.310   5.043   6.636  0.5260 -1.2349 -0.2060
15250SOL    HW247473   7.273   4.977   6.505 -0.2507  0.0299 -0.6446
15251SOL     OW47474   0.164   4.378   2.022 -1.0649 -0.6630  0.1957
15251SOL    HW147475   0.162   4.293   1.979 -0.7506 -0.5955  0.0504
15251SOL    HW247476   0.233   4.371   2.088  0.7386  0.2961 -1.5127
15252SOL     OW47477   8.269   2.055   0.705 -0.4605  0.4094  0.7451
15252SOL    HW147478   8.244   2.064   0.613  0.6624 -0.2311  0.3614
15252SOL    HW247479   8.200   2.101   0.753 -0.4177  1.8168 -0.4739
15253SOL     OW47480   0.055   5.097   2.031 -0.1397 -0.3026  0.3762
15253SOL    HW147481   0.118   5.025   2.032  1.2935  0.8261 -1.2785
15253SOL    HW247482  -0.030   5.055   2.018  0.6836 -1.6936 -0.7638
15254SOL     OW47483   6.874   7.156   5.469 -0.1624  0.0678  0.7446
15254SOL    HW147484   6.901   7.136   5.559 -0.9283 -0.3190  0.9025
15254SOL    HW247485   6.843   7.246   5.473 -1.3413 -0.3375  1.1596
15255SOL     OW47486   1.400   9.660   0.305  0.2430 -0.1908 -0.1470
15255SOL    HW147487   1.450   9.705   0.373 -1.6743  0.3849  0.9656
15255SOL    HW247488   1.455   9.667   0.226  0.4397  3.4630  0.1320
15256SOL     OW47489   1.065   7.517   9.533  1.1444  0.1000 -0.3707
15256SOL    HW147490   0.983   7.471   9.551  1.6077 -0.5915  0.0269
15256SOL    HW247491   1.121   7.452   9.491  1.2245  0.7883 -1.3698
15257SOL     OW47492   3.724   7.474   5.428 -0.3954 -0.1882 -0.3627
15257SOL    HW147493   3.772   7.549   5.392  0.6704 -0.3556  0.6572
15257SOL    HW247494   3.656   7.512   5.483  1.1229  0.0946  1.4334
15258SOL     OW47495   5.771   3.303   4.663  0.0030 -0.0425 -0.0232
15258SOL    HW147496   5.703   3.236   4.653 -0.1927  0.1535 -0.0195
15258SOL    HW247497   5.787   3.306   4.757 -1.2205  1.1129  0.1853
15259SOL     OW47498   6.552   3.245   8.167  0.9052 -0.1167  0.0025
15259SOL    HW147499   6.478   3.253   8.227  1.5996  3.1438  0.6114
15259SOL    HW247500   6.616   3.191   8.214  0.1947 -0.2275  0.8563
15260SOL     OW47501   0.157   5.199   1.110 -0.3749  0.4286 -0.0311
15260SOL    HW147502   0.105   5.119   1.111  2.6752 -1.7342 -0.4054
15260SOL    HW247503   0.153   5.231   1.200 -0.9912 -0.6330  0.3404
15261SOL     OW47504   3.684   6.068   1.974 -0.3808  0.1788 -0.2883
15261SOL    HW147505   3.596   6.101   1.988 -0.8348 -1.4331  0.9631
15261SOL    HW247506   3.673   5.994   1.915  0.2067  0.2989 -0.5557
15262SOL     OW47507   6.374   0.971   6.979 -0.0226  0.0524  0.2726
15262SOL    HW147508   6.451   0.918   6.959 -0.5026  0.0035 -1.7388
15262SOL    HW247509   6.405   1.036   7.041  1.3472 -0.6805  0.4015
15263SOL     OW47510   6.210   3.209   6.125 -0.5218 -0.0833 -0.3444
15263SOL    HW147511   6.222   3.143   6.193  0.3307 -0.5873 -0.9625
15263SOL    HW247512   6.189   3.290   6.172  0.6280 -0.2885  0.5603
15264SOL     OW47513   6.489   5.916   7.083  0.3293 -0.7007 -0.0287
15264SOL    HW147514   6.555   5.981   7.109 -0.8973  0.3262  0.6010
15264SOL    HW247515   6.405   5.960   7.098 -0.7421 -3.4954  3.5673
15265SOL     OW47516   8.313   5.042   6.824 -0.3678 -0.0364 -0.0134
15265SOL    HW147517   8.365   5.051   6.903 -2.0391 -0.0170  1.1372
15265SOL    HW247518   8.302   5.132   6.792  1.8259 -0.1747 -1.3651
15266SOL     OW47519   5.072   4.673   0.009  0.1376  0.6943 -0.0721
15266SOL    HW147520   5.003   4.623  -0.035 -0.8678  0.5334  1.6279
15266SOL    HW247521   5.134   4.606   0.038  0.9156  0.8180 -1.3680
15267SOL     OW47522   6.695   6.801   7.288 -0.3659 -0.0761  0.1899
15267SOL    HW147523   6.694   6.713   7.325 -0.8698 -0.2923 -0.3270
15267SOL    HW247524   6.762   6.798   7.221  1.1129  0.5381  1.5745
15268SOL     OW47525   8.123   4.901   2.505 -0.0089  0.2005 -0.4973
15268SOL    HW147526   8.066   4.830   2.535  0.0800  0.3074 -0.0709
15268SOL    HW247527   8.212   4.870   2.523  0.0563  0.1530 -0.8980
15269SOL     OW47528   2.619   5.496   3.605 -0.1973  0.0473  0.5637
15269SOL    HW147529   2.643   5.550   3.681 -0.0211  0.6691  0.0722
15269SOL    HW247530   2.564   5.426   3.642  0.5802 -0.1528  1.3901
15270SOL     OW47531   5.940   1.786   0.955 -0.2284 -0.4611 -0.2301
15270SOL    HW147532   5.903   1.704   0.990 -1.0941  0.0890  0.1652
15270SOL    HW247533   5.906   1.790   0.865  0.8276 -1.1456 -0.6849
15271SOL     OW47534   1.333   0.316   5.012  0.1022 -0.1446  0.4642
15271SOL    HW147535   1.259   0.372   4.991  0.5276  0.0928 -0.4981
15271SOL    HW247536   1.381   0.308   4.929  2.3187  1.4519  1.4966
15272SOL     OW47537   7.324   4.054   4.643  0.3121 -0.0064 -0.7232
15272SOL    HW147538   7.291   4.029   4.729  0.2582  0.3500 -0.6407
15272SOL    HW247539   7.334   3.970   4.596 -2.7309 -0.0659 -1.5070
15273SOL     OW47540   4.963   3.971   4.720 -0.1768 -0.8701 -0.5262
15273SOL    HW147541   5.025   4.044   4.719 -0.8384 -0.2592 -2.2584
15273SOL    HW247542   5.005   3.902   4.668 -0.8574 -0.4725 -1.6623
15274SOL     OW47543   0.080   2.677   9.403 -0.2916 -0.3949  0.2408
15274SOL    HW147544   0.128   2.624   9.339  1.1383 -1.0864  1.7836
15274SOL    HW247545   0.136   2.675   9.481 -1.2374  1.6468  1.0422
15275SOL     OW47546   9.293   7.554   5.643 -0.4360  0.1884 -0.0891
15275SOL    HW147547   9.309   7.460   5.654  1.8182  0.4520 -0.5215
15275SOL    HW247548   9.236   7.560   5.567 -1.0281 -0.8473  0.2576
15276SOL     OW47549   4.816   0.024   1.933  0.4081 -0.4157 -0.3473
15276SOL    HW147550   4.894  -0.030   1.943 -0.7488 -2.0456  0.3613
15276SOL    HW247551   4.743  -0.038   1.940 -0.9900  1.2445  0.6948
15277SOL     OW47552   5.210   1.428   6.154 -0.0595 -0.2063  0.6266
15277SOL    HW147553   5.199   1.370   6.230  1.1538 -0.8064  0.3721
15277SOL    HW247554   5.261   1.502   6.188 -0.8987  0.3247  0.7574
15278SOL     OW47555   0.141   7.702   1.695  0.0379 -0.0431 -0.1286
15278SOL    HW147556   0.063   7.705   1.639  1.9732  1.5105 -2.9467
15278SOL    HW247557   0.110   7.659   1.775 -3.7415  0.6436 -0.9981
15279SOL     OW47558   0.727   6.292   7.894 -0.0792  0.8043 -0.7189
15279SOL    HW147559   0.666   6.345   7.842  1.6134  1.7631 -1.8332
15279SOL    HW247560   0.813   6.312   7.857  1.0820  0.5678  1.6814
15280SOL     OW47561   8.682   4.503   5.004  0.5473 -0.0772 -0.9015
15280SOL    HW147562   8.743   4.466   4.940  2.0522  2.4065 -1.0448
15280SOL    HW247563   8.603   4.523   4.952  0.6044 -0.8186 -1.2963
15281SOL     OW47564   1.051   0.655   5.093 -0.2379 -0.6407 -0.5040
15281SOL    HW147565   1.113   0.603   5.042  0.0331 -0.6814 -0.1317
15281SOL    HW247566   0.988   0.591   5.126 -0.3371 -0.6316 -0.6725
15282SOL     OW47567   3.196   0.010   8.643  1.0943  0.2886  0.4239
15282SOL    HW147568   3.139  -0.050   8.690  0.0863  0.2719 -0.7610
15282SOL    HW247569   3.243  -0.045   8.580  2.6986  0.2493  1.5839
15283SOL     OW47570   9.675   7.331   0.127 -0.4495  0.5410 -0.1448
15283SOL    HW147571   9.667   7.310   0.034  0.4369  0.4833 -0.2184
15283SOL    HW247572   9.619   7.266   0.171  1.3733 -1.3487 -0.4414
15284SOL     OW47573   6.947   3.893   8.493 -0.2599  0.3221  0.0730
15284SOL    HW147574   6.964   3.906   8.586  0.9287  0.0622 -0.0881
15284SOL    HW247575   7.022   3.842   8.462 -1.7107 -1.5111 -0.5881
15285SOL     OW47576   3.113   4.349   3.873 -0.6627 -0.1476  0.0250
15285SOL    HW147577   3.132   4.341   3.779 -0.1947 -0.0713  0.1115
15285SOL    HW247578   3.116   4.443   3.889 -2.2066 -0.0443 -0.1785
15286SOL     OW47579   6.514   9.627   1.911 -0.0843  0.1669  0.0525
15286SOL    HW147580   6.563   9.545   1.914  1.0316  0.7020 -1.7996
15286SOL    HW247581   6.506   9.654   2.002  1.0478 -1.1132  0.5602
15287SOL     OW47582   9.362   9.230   5.856  0.2878  0.2895  0.4334
15287SOL    HW147583   9.370   9.315   5.812  2.2794  0.3540  0.8040
15287SOL    HW247584   9.278   9.234   5.900  0.6805  2.4481  1.1428
15288SOL     OW47585   3.035   0.721   9.421  0.0674 -0.4770  0.1692
15288SOL    HW147586   3.066   0.632   9.440  1.4282  0.1270  0.9502
15288SOL    HW247587   2.956   0.730   9.474  0.2770 -1.0188  0.5929
15289SOL     OW47588   6.765   5.251   1.102 -0.0511  0.3322  0.1265
15289SOL    HW147589   6.859   5.265   1.105 -0.1074  0.6339  0.5690
15289SOL    HW247590   6.742   5.258   1.010  0.5448 -0.9741 -0.1453
15290SOL     OW47591   1.569   7.282   7.455 -0.2993  0.2260  0.2316
15290SOL    HW147592   1.537   7.282   7.546 -1.4226 -0.4207 -0.1366
15290SOL    HW247593   1.662   7.305   7.462  0.1139 -1.5634  1.7436
15291SOL     OW47594   8.562   4.174   5.238  0.0696 -0.6518 -0.2628
15291SOL    HW147595   8.495   4.120   5.279 -1.4667  0.6431 -0.9400
15291SOL    HW247596   8.539   4.174   5.145  0.9575 -0.1007 -0.4910
15292SOL     OW47597   5.730   2.432   5.162  0.1353  0.0831  0.3447
15292SOL    HW147598   5.777   2.385   5.093  0.6190 -0.2859  0.9083
15292SOL    HW247599   5.799   2.464   5.221 -0.2008  1.3329  0.0877
15293SOL     OW47600   9.381   3.326   3.062  0.0072 -0.3574  0.0525
15293SOL    HW147601   9.333   3.292   3.138 -0.8555  0.3867 -0.1460
15293SOL    HW247602   9.354   3.269   2.990 -0.3232 -0.1482  0.0088
15294SOL     OW47603   2.813   5.007   1.119  0.4262 -0.1472 -0.3979
15294SOL    HW147604   2.896   4.968   1.093 -0.1664 -1.2301 -0.7474
15294SOL    HW247605   2.791   5.067   1.048 -0.5052 -2.0615 -1.8170
15295SOL     OW47606   8.062   3.823   8.621 -0.0907 -0.3276  0.2619
15295SOL    HW147607   7.989   3.879   8.646  1.8316  1.7213  1.6672
15295SOL    HW247608   8.026   3.734   8.625 -2.8917  0.6424 -0.7047
15296SOL     OW47609   4.806   9.041   4.653  0.1946 -0.0314  0.0110
15296SOL    HW147610   4.820   8.950   4.678 -0.1038 -0.2432 -0.5986
15296SOL    HW247611   4.890   9.069   4.617  0.4415  0.0918  0.6623
15297SOL     OW47612   5.615   1.961   9.266 -0.2264 -0.1977 -0.0085
15297SOL    HW147613   5.536   1.906   9.271  1.5266 -2.8075  1.2443
15297SOL    HW247614   5.629   1.991   9.355  0.3146  0.0734 -0.1812
15298SOL     OW47615   2.820   0.409   0.872 -0.2751 -0.1533  0.7195
15298SOL    HW147616   2.798   0.407   0.779  1.4747 -1.8986  0.2887
15298SOL    HW247617   2.771   0.336   0.911  0.3642 -0.5281  0.8258
15299SOL     OW47618   8.818   9.611   2.664  0.0574  0.7508 -0.3122
15299SOL    HW147619   8.861   9.693   2.687  0.7220  0.3814 -0.2345
15299SOL    HW247620   8.857   9.586   2.581  0.9534 -0.2659  0.3969
15300SOL     OW47621   6.712   0.956   6.831  0.0123 -0.2846  0.4039
15300SOL    HW147622   6.681   0.876   6.872  1.4676 -0.1316  1.9147
15300SOL    HW247623   6.719   1.019   6.903 -0.7041  1.0987 -0.6761
15301SOL     OW47624   3.984   4.213   9.684 -0.5423 -0.3165  0.4389
15301SOL    HW147625   3.939   4.271   9.745  0.5872 -0.4392  1.4340
15301SOL    HW247626   4.065   4.189   9.729  0.6338  0.0711 -1.3695
15302SOL     OW47627   7.732   1.736   2.119  0.0374 -0.3040 -0.8458
15302SOL    HW147628   7.677   1.663   2.091  0.0216 -0.2998 -0.8251
15302SOL    HW247629   7.769   1.706   2.203  0.5679 -0.5719 -1.1697
15303SOL     OW47630   8.458   1.504   4.651  0.4164  0.6441  0.2382
15303SOL    HW147631   8.388   1.519   4.587 -2.1582 -1.2847  2.3455
15303SOL    HW247632   8.431   1.553   4.729  1.8456  0.4954  0.8590
15304SOL     OW47633   7.537   3.746   1.801  0.2544 -0.6280  0.5422
15304SOL    HW147634   7.471   3.816   1.796 -0.2534 -1.1759 -2.3170
15304SOL    HW247635   7.620   3.792   1.791 -0.0648 -0.3501 -1.1269
15305SOL     OW47636   9.663   0.621   6.701 -0.4372 -0.1299  0.2848
15305SOL    HW147637   9.578   0.578   6.710  0.2413 -1.5429  0.3211
15305SOL    HW247638   9.658   0.667   6.617 -0.9945 -0.8022 -0.0592
15306SOL     OW47639   8.895   8.230   1.550  0.3051 -0.0734  0.1048
15306SOL    HW147640   8.823   8.286   1.520 -0.6109 -1.7104 -0.9338
15306SOL    HW247641   8.862   8.189   1.630 -0.4106 -1.6362 -0.9393
15307SOL     OW47642   0.186   5.926   8.670 -0.2348  0.5783  0.1352
15307SOL    HW147643   0.274   5.924   8.709  0.9225  1.2356 -2.2709
15307SOL    HW247644   0.129   5.951   8.743  1.3317 -1.1459  2.0951
15308SOL     OW47645   3.137   0.129   4.410  0.4568 -0.3732 -0.8780
15308SOL    HW147646   3.146   0.068   4.337  1.2959  1.1556 -2.1162
15308SOL    HW247647   3.227   0.149   4.436  0.2843  1.3986 -1.4775
15309SOL     OW47648   6.003   8.422   1.745 -0.2977  0.9047  0.2530
15309SOL    HW147649   6.040   8.353   1.689  0.6586 -1.0459  3.0580
15309SOL    HW247650   5.911   8.427   1.718 -0.3498 -1.3290 -0.2293
15310SOL     OW47651   3.644   8.948   0.490 -0.1494 -0.2579 -0.3045
15310SOL    HW147652   3.633   8.996   0.408 -0.3588 -0.1418 -0.2084
15310SOL    HW247653   3.728   8.903   0.480  0.1742  0.3313 -0.2907
15311SOL     OW47654   6.313   3.407   4.577 -0.4151 -0.2761  0.0808
15311SOL    HW147655   6.240   3.435   4.522 -0.0172 -1.0182 -0.8548
15311SOL    HW247656   6.390   3.413   4.520  0.3553  0.9046  1.1707
15312SOL     OW47657   2.387   4.477   4.694 -0.3389 -0.0558 -0.5258
15312SOL    HW147658   2.352   4.551   4.647 -0.5294 -0.4744 -1.0515
15312SOL    HW247659   2.364   4.401   4.641  0.8823 -0.3927 -0.6148
15313SOL     OW47660   5.319   5.392   6.031  0.0336 -0.2124  0.4223
15313SOL    HW147661   5.358   5.308   6.006  0.2038  0.1436 -0.5514
15313SOL    HW247662   5.343   5.451   5.960 -1.5508  0.2305  0.2103
15314SOL     OW47663   4.605   1.736   9.672 -0.0909 -0.3606  0.3526
15314SOL    HW147664   4.533   1.702   9.619 -0.1191  0.5843 -0.2246
15314SOL    HW247665   4.580   1.714   9.762  0.5028 -3.0241 -0.0306
15315SOL     OW47666   2.676   6.932   0.355 -0.2943 -0.0059 -0.0536
15315SOL    HW147667   2.744   6.867   0.337  0.6703  0.6427  1.1241
15315SOL    HW247668   2.610   6.884   0.406  0.0172 -0.2528  0.1198
15316SOL     OW47669   8.454   7.571   1.424  0.0040  1.0441 -0.2943
15316SOL    HW147670   8.497   7.489   1.403 -1.8687  0.2461 -1.1821
15316SOL    HW247671   8.484   7.591   1.513 -1.1116 -1.7286  0.8218
15317SOL     OW47672   3.141   3.422   5.731  0.0389  0.1394  0.3151
15317SOL    HW147673   3.092   3.494   5.770 -0.2202 -0.0801  0.3978
15317SOL    HW247674   3.190   3.462   5.659 -0.9600  0.2110 -0.3513
15318SOL     OW47675   8.925   4.309   9.150  0.1563 -0.0838  0.5998
15318SOL    HW147676   8.956   4.280   9.065 -2.6056  0.7404 -0.8133
15318SOL    HW247677   8.999   4.355   9.188  0.7451  1.8202 -2.5171
15319SOL     OW47678   0.730   5.051   8.065 -0.0617  0.1754  0.3195
15319SOL    HW147679   0.822   5.042   8.089  0.1855  0.2924 -0.5873
15319SOL    HW247680   0.717   5.145   8.052 -0.1783  0.1066 -0.0657
15320SOL     OW47681   4.415   2.970   1.381  0.0212 -0.0116 -0.0569
15320SOL    HW147682   4.355   3.011   1.444  0.3956  0.0579  0.2611
15320SOL    HW247683   4.398   2.876   1.389 -0.4952  0.0494 -0.4313
15321SOL     OW47684   3.449   8.039   9.599  0.3376  0.0011 -0.2790
15321SOL    HW147685   3.526   7.986   9.621  0.7870  0.3184 -1.0800
15321SOL    HW247686   3.378   7.975   9.588  0.2309 -0.2237  1.4288
15322SOL     OW47687   0.215   9.404   6.112 -0.3562 -0.5884  0.0087
15322SOL    HW147688   0.177   9.355   6.038 -1.2251 -0.0562  0.0926
15322SOL    HW247689   0.243   9.336   6.173 -3.6375 -1.0844  1.2108
15323SOL     OW47690   5.660   5.785   5.656  0.6041 -0.0510  0.2160
15323SOL    HW147691   5.637   5.825   5.740 -1.2567  0.8197 -0.6408
15323SOL    HW247692   5.577   5.752   5.622  1.3674 -0.6458 -1.1591
15324SOL     OW47693   0.822   4.126   3.259  0.1163 -0.0827  0.6185
15324SOL    HW147694   0.800   4.039   3.292 -0.3556 -0.1224  0.2101
15324SOL    HW247695   0.738   4.163   3.230  0.3140  0.4984  0.7649
15325SOL     OW47696   3.044   8.383   8.840 -0.1701 -0.0949 -0.2604
15325SOL    HW147697   3.089   8.467   8.838  0.0726 -0.2419 -1.8105
15325SOL    HW247698   2.994   8.380   8.758  0.7329 -1.9376 -0.7985
15326SOL     OW47699   3.289   6.360   8.803  0.3707 -0.5328  0.5537
15326SOL    HW147700   3.227   6.295   8.769  1.3155  0.3960 -3.5393
15326SOL    HW247701   3.374   6.316   8.800  0.5343 -0.3092  1.5836
15327SOL     OW47702   6.694   0.257   5.044 -0.3072  0.2591  0.2829
15327SOL    HW147703   6.787   0.251   5.022 -0.0838 -0.1065  1.2661
15327SOL    HW247704   6.692   0.286   5.135 -1.1017 -1.1468  0.7529
15328SOL     OW47705   1.082   7.187   5.325 -0.0530 -0.0497  1.0782
15328SOL    HW147706   1.137   7.129   5.378 -0.1313 -0.2135  0.9821
15328SOL    HW247707   1.012   7.130   5.293  0.4761 -0.1580  0.0688
15329SOL     OW47708   2.581   1.897   1.329  0.3381  0.0726  0.6278
15329SOL    HW147709   2.520   1.860   1.392 -0.1516 -0.1741  0.0183
15329SOL    HW247710   2.594   1.988   1.358 -1.9105  0.7795 -0.3660
15330SOL     OW47711   6.586   2.171   7.452 -0.3489 -0.5459 -0.2573
15330SOL    HW147712   6.551   2.141   7.368  1.1209 -1.9018 -0.4496
15330SOL    HW247713   6.612   2.090   7.497  0.3300  0.2481  0.8184
15331SOL     OW47714   9.541   0.203   2.790 -0.1013 -0.2628 -0.0877
15331SOL    HW147715   9.609   0.210   2.857  0.4437  2.0373 -0.7552
15331SOL    HW247716   9.588   0.172   2.712 -0.2456 -0.6667 -0.0142
15332SOL     OW47717   2.313   5.539   2.452  0.8276  0.6263 -0.0335
15332SOL    HW147718   2.259   5.589   2.514  0.7055 -0.7431  1.0164
15332SOL    HW247719   2.402   5.546   2.487  0.6589 -0.7191  0.7190
15333SOL     OW47720   6.850   6.717   0.118  0.4591  0.5435  0.2265
15333SOL    HW147721   6.849   6.716   0.214 -0.9982  1.3488  0.2550
15333SOL    HW247722   6.820   6.805   0.095  1.3257  0.5422 -0.9749
15334SOL     OW47723   3.856   9.458   2.760 -0.3609  0.0079 -0.4501
15334SOL    HW147724   3.891   9.547   2.755  0.6684 -0.3573 -0.0236
15334SOL    HW247725   3.930   9.405   2.789 -0.8799 -1.0407 -0.9862
15335SOL     OW47726   9.358   3.600   2.686 -0.4287 -0.3315  0.4690
15335SOL    HW147727   9.445   3.564   2.702  0.0468  0.4392 -0.3237
15335SOL    HW247728   9.314   3.595   2.771  0.1874 -1.2487  0.7422
15336SOL     OW47729   9.662   8.236   2.260 -0.2071  0.2156 -0.0428
15336SOL    HW147730   9.578   8.283   2.257 -0.4490 -0.2358 -0.5586
15336SOL    HW247731   9.704   8.267   2.340 -0.7368  0.6734  0.0647
15337SOL     OW47732   6.519   9.048   5.907  0.0401 -0.2932  0.1502
15337SOL    HW147733   6.456   8.987   5.868 -1.6313  0.8984  0.9037
15337SOL    HW247734   6.467   9.105   5.963  2.1503 -0.9789  3.0262
15338SOL     OW47735   9.511   7.947   3.676 -0.1235 -0.5914 -0.2617
15338SOL    HW147736   9.547   7.908   3.596 -1.6357 -1.7969 -0.3936
15338SOL    HW247737   9.520   7.878   3.742 -1.2566 -0.5602 -0.0592
15339SOL     OW47738   8.484   1.981   6.992  0.6232  0.0847 -0.1940
15339SOL    HW147739   8.429   2.055   6.967  1.5540  0.6088 -0.7603
15339SOL    HW247740   8.573   2.017   6.996  0.8838 -0.6142  1.1889
15340SOL     OW47741   6.314   0.971   0.935  0.1858 -0.3552 -0.0801
15340SOL    HW147742   6.235   0.939   0.891  0.6701 -0.6677 -0.7412
15340SOL    HW247743   6.386   0.940   0.880  0.7461  0.3620  0.2329
15341SOL     OW47744   9.196   0.195   3.963 -0.1483  0.5840 -0.7200
15341SOL    HW147745   9.125   0.259   3.950  1.5828  2.9128  0.4995
15341SOL    HW247746   9.256   0.239   4.023  2.4550 -1.2036 -1.8668
15342SOL     OW47747   1.622   9.098   1.364 -0.2442  0.1791 -0.3662
15342SOL    HW147748   1.606   9.025   1.423  1.9518 -0.4630 -0.4915
15342SOL    HW247749   1.580   9.072   1.281 -2.6995  0.7682  0.5847
15343SOL     OW47750   7.941   4.137   5.988 -0.2187 -0.1951  0.0485
15343SOL    HW147751   7.914   4.182   5.908 -0.5249 -0.5065 -0.0266
15343SOL    HW247752   8.011   4.191   6.024 -0.0585 -0.0693 -0.4464
15344SOL     OW47753   1.751   6.607   9.449  0.0376  0.1786 -0.3916
15344SOL    HW147754   1.760   6.692   9.405  0.0064 -0.8634 -2.5250
15344SOL    HW247755   1.664   6.577   9.426 -0.8516  0.5171  2.2401
15345SOL     OW47756   6.814   2.512   5.439  0.2630  0.1885  0.6080
15345SOL    HW147757   6.887   2.472   5.486 -0.8565 -0.8264  1.5559
15345SOL    HW247758   6.853   2.586   5.393  1.6179  0.5934  2.2895
15346SOL     OW47759   0.102   5.393   7.174 -0.4440  0.1815 -0.6637
15346SOL    HW147760   0.084   5.341   7.251 -1.6353 -0.8883 -1.6316
15346SOL    HW247761   0.081   5.483   7.200 -0.2052 -0.0691  0.4328
15347SOL     OW47762   6.471   9.014   6.630 -0.2429  0.4679  0.7680
15347SOL    HW147763   6.509   9.069   6.562  2.9717 -1.2569  0.9898
15347SOL    HW247764   6.436   8.939   6.583 -0.1880  0.4056  0.8264
15348SOL     OW47765   6.414   6.425   0.733 -0.1685 -0.1140  0.1971
15348SOL    HW147766   6.370   6.376   0.664  0.3432 -0.0022 -0.2228
15348SOL    HW247767   6.432   6.361   0.802 -1.8049  0.0347  0.7887
15349SOL     OW47768   1.740   7.289   8.768 -0.3442 -0.6120  0.3730
15349SOL    HW147769   1.741   7.202   8.809  0.2380 -0.2527  1.1616
15349SOL    HW247770   1.711   7.347   8.839 -1.3051 -0.2385 -0.3149
15350SOL     OW47771   6.026   3.736   6.041 -0.5883  0.5238  0.1550
15350SOL    HW147772   5.934   3.733   6.068 -0.4902 -0.3750  0.4010
15350SOL    HW247773   6.022   3.745   5.945 -0.9791 -2.1887 -0.1650
15351SOL     OW47774   7.954   8.346   0.379  0.1485  0.5649  0.5399
15351SOL    HW147775   7.923   8.317   0.465  2.0840 -0.1275  1.0432
15351SOL    HW247776   7.993   8.268   0.340  1.2293  1.3911 -0.0682
15352SOL     OW47777   7.113   3.367   5.307  0.0443  0.1673 -0.1785
15352SOL    HW147778   7.194   3.383   5.258  0.5497 -0.0391  0.5661
15352SOL    HW247779   7.044   3.375   5.242  0.6267  0.8092 -0.7367
15353SOL     OW47780   7.665   6.132   6.847  0.0027 -0.1414 -0.3225
15353SOL    HW147781   7.712   6.186   6.911 -1.2218 -1.1575  1.5434
15353SOL    HW247782   7.604   6.192   6.805  1.7165  0.8201 -1.5397
15354SOL     OW47783   5.198   0.021   2.699  0.3949 -0.2714 -0.0816
15354SOL    HW147784   5.214  -0.031   2.778 -0.1822 -0.8112 -0.3048
15354SOL    HW247785   5.281   0.065   2.681  1.5506 -2.6486 -0.9922
15355SOL     OW47786   2.662   6.886   7.969  0.1052  0.2941 -0.5665
15355SOL    HW147787   2.577   6.847   7.948 -0.2554  0.5602  0.3247
15355SOL    HW247788   2.726   6.822   7.938 -0.4463 -2.5848  3.3856
15356SOL     OW47789   0.901   9.081   7.054 -0.9817 -0.2118  0.2851
15356SOL    HW147790   0.814   9.044   7.071 -1.3069 -0.6297 -1.9960
15356SOL    HW247791   0.953   9.007   7.023  0.1205  0.1159  1.2811
15357SOL     OW47792   3.135   0.104   1.419  0.4201 -0.8575 -0.3054
15357SOL    HW147793   3.065   0.068   1.475 -0.7381  4.5121  2.4108
15357SOL    HW247794   3.216   0.076   1.462 -0.3239 -1.2151  0.9379
15358SOL     OW47795   5.758   0.442   8.214 -0.5088  0.1622  0.5195
15358SOL    HW147796   5.850   0.436   8.239 -0.7992 -1.1579  1.3705
15358SOL    HW247797   5.720   0.358   8.241 -1.7043  0.1893 -0.9379
15359SOL     OW47798   5.046   4.277   6.709  0.0350  0.0384  0.5286
15359SOL    HW147799   4.957   4.312   6.710  0.4580  1.2787 -1.2163
15359SOL    HW247800   5.103   4.353   6.713  1.0434 -0.7110  1.0786
15360SOL     OW47801   4.309   4.640   3.233  0.0826 -0.8421  0.4314
15360SOL    HW147802   4.355   4.705   3.180 -0.3461 -0.5134  0.4557
15360SOL    HW247803   4.219   4.672   3.237 -0.0351 -1.2126  0.8055
15361SOL     OW47804   2.971   6.852   1.590  0.5477  0.2387 -0.3605
15361SOL    HW147805   3.049   6.864   1.643  0.9265  0.6303 -1.0064
15361SOL    HW247806   2.972   6.924   1.527 -0.9314  0.9251  0.3361
15362SOL     OW47807   8.654   5.511   1.286 -0.7284  0.1007 -0.2978
15362SOL    HW147808   8.658   5.472   1.199 -1.4102  0.8189 -0.6768
15362SOL    HW247809   8.567   5.488   1.318  0.9165 -3.7142  1.9921
15363SOL     OW47810   3.329   7.256   6.623 -0.1414 -0.4620 -0.2226
15363SOL    HW147811   3.341   7.167   6.589 -0.4048 -0.8734  0.7399
15363SOL    HW247812   3.395   7.308   6.578 -1.3983 -0.6759 -2.4913
15364SOL     OW47813   5.018   6.523   3.092  0.7264  0.2137 -0.4558
15364SOL    HW147814   5.020   6.599   3.034 -0.0726  0.9483  0.4436
15364SOL    HW247815   5.085   6.540   3.157 -1.1751  1.4666  1.2872
15365SOL     OW47816   6.649   5.297   3.160 -0.0118  0.5616 -0.2499
15365SOL    HW147817   6.618   5.387   3.145  0.8143  0.8579 -0.2424
15365SOL    HW247818   6.616   5.274   3.247 -0.8838  0.5642 -0.5727
15366SOL     OW47819   8.166   8.735   3.201  0.3278 -0.8552  0.0528
15366SOL    HW147820   8.149   8.642   3.183 -2.1021 -0.2307 -1.3382
15366SOL    HW247821   8.103   8.757   3.270  0.1269  0.0142 -0.4032
15367SOL     OW47822   2.497   0.984   1.785 -0.2594  0.0472  0.1182
15367SOL    HW147823   2.545   1.026   1.714  1.7446 -1.1928  0.6478
15367SOL    HW247824   2.497   1.048   1.856  0.8968 -0.0133  0.1967
15368SOL     OW47825   0.609   1.837   7.152  0.2583 -0.3541 -0.8428
15368SOL    HW147826   0.664   1.915   7.153 -2.5513  1.8565  1.7825
15368SOL    HW247827   0.659   1.772   7.200  0.9010  1.3587  0.9307
15369SOL     OW47828   7.002   4.216   3.662 -0.1010  0.0976 -0.0788
15369SOL    HW147829   6.919   4.247   3.698 -0.3184  0.3757 -0.8006
15369SOL    HW247830   7.063   4.223   3.735 -0.6525  0.1335  0.3919
15370SOL     OW47831   9.325   2.441   9.503 -0.1011 -0.0400  0.3444
15370SOL    HW147832   9.396   2.456   9.566  0.8889 -2.5059 -0.0520
15370SOL    HW247833   9.368   2.401   9.428 -1.8300 -1.0954 -0.1381
15371SOL     OW47834   6.528   9.336   4.726 -0.1114  0.5202 -0.0353
15371SOL    HW147835   6.433   9.340   4.717 -0.1623 -0.3443 -0.0408
15371SOL    HW247836   6.561   9.349   4.637 -0.2684 -0.0757 -0.1859
15372SOL     OW47837   6.808   7.602   2.801  0.1666 -0.2475  0.0726
15372SOL    HW147838   6.719   7.636   2.813  0.4536  0.3169  0.6916
15372SOL    HW247839   6.802   7.510   2.827 -0.8050 -0.9515 -2.4207
15373SOL     OW47840   2.676   0.882   8.414 -0.0971 -0.0798 -0.5137
15373SOL    HW147841   2.664   0.961   8.467 -0.5992 -0.3799 -0.1743
15373SOL    HW247842   2.720   0.821   8.473  1.3262  0.3188 -1.1204
15374SOL     OW47843   4.347   8.675   6.736 -0.1130 -0.2642  0.1931
15374SOL    HW147844   4.442   8.679   6.743 -0.2062  0.3267  1.3478
15374SOL    HW247845   4.317   8.763   6.759 -1.0057 -0.8427  1.4037
15375SOL     OW47846   5.169   8.302   6.680  0.0546  0.1167 -0.5384
15375SOL    HW147847   5.193   8.366   6.747  0.1263 -0.5567  0.0904
15375SOL    HW247848   5.253   8.274   6.642  0.2723 -1.5433  1.0174
15376SOL     OW47849   7.665   2.232   1.512  0.5170 -0.3767 -0.4591
15376SOL    HW147850   7.582   2.207   1.552 -0.0274  1.7876 -0.1145
15376SOL    HW247851   7.642   2.258   1.423  0.1102  3.5148  0.6064
15377SOL     OW47852   7.913   4.149   2.813 -0.4286 -0.1401  0.4239
15377SOL    HW147853   7.888   4.186   2.728 -0.3361  1.8561  1.2054
15377SOL    HW247854   7.980   4.208   2.847 -1.2468 -0.2184  2.3670
15378SOL     OW47855   8.619   0.157   9.216 -0.1496  0.1646  0.1798
15378SOL    HW147856   8.634   0.230   9.275  1.3431 -0.1590  0.2406
15378SOL    HW247857   8.524   0.145   9.216 -0.3304  1.4399  0.9488
15379SOL     OW47858   1.340   1.726   5.994  0.2221  0.2950 -0.6632
15379SOL    HW147859   1.251   1.691   5.995 -0.0078  0.6942  2.2622
15379SOL    HW247860   1.396   1.649   6.002  0.0949  0.1365 -1.2320
15380SOL     OW47861   6.193   7.720   1.501 -0.0273  0.1913 -0.4168
15380SOL    HW147862   6.220   7.630   1.522  1.8401  0.9842  0.8524
15380SOL    HW247863   6.133   7.710   1.427  1.4583 -1.9702 -1.4499
15381SOL     OW47864   0.328   9.700   3.977 -0.1939 -0.0218 -0.6551
15381SOL    HW147865   0.387   9.688   3.903  1.1958 -0.6760  0.5012
15381SOL    HW247866   0.306   9.793   3.975 -0.6696 -0.1310 -2.1968
15382SOL     OW47867   2.293   5.958   3.208 -0.0401  0.0828  0.0564
15382SOL    HW147868   2.203   5.934   3.186  0.3949 -0.1256 -1.6452
15382SOL    HW247869   2.342   5.941   3.128  1.8350 -1.3403  1.4229
15383SOL     OW47870   8.559   6.763   1.905  0.5139  1.0399  0.0569
15383SOL    HW147871   8.648   6.799   1.903  0.4655  1.2506  1.1095
15383SOL    HW247872   8.551   6.723   1.991  0.1938 -0.6064 -0.6928
15384SOL     OW47873   1.495   7.699   2.105  0.0675  0.1623 -0.3705
15384SOL    HW147874   1.546   7.672   2.029 -0.5079  0.1486 -0.7551
15384SOL    HW247875   1.404   7.679   2.082  0.0422 -2.0317  1.1960
15385SOL     OW47876   0.660   3.365   2.850 -0.0578  0.2686 -0.5366
15385SOL    HW147877   0.730   3.426   2.829 -2.0633  1.5130 -4.7453
15385SOL    HW247878   0.591   3.420   2.889  0.0506 -0.3891  0.6496
15386SOL     OW47879   3.802   5.220   4.721  0.1564 -0.4975  0.3734
15386SOL    HW147880   3.806   5.271   4.639 -0.9700 -0.2015  0.4803
15386SOL    HW247881   3.799   5.129   4.692 -1.0804 -0.3683  0.0196
15387SOL     OW47882   6.347   7.529   2.219 -0.0934 -0.2025  0.2925
15387SOL    HW147883   6.351   7.482   2.303  2.3037  0.0052  0.3643
15387SOL    HW247884   6.342   7.621   2.244 -0.5116 -0.1926  0.1815
15388SOL     OW47885   1.325   8.776   4.939  0.1337  0.2755  0.4409
15388SOL    HW147886   1.329   8.855   4.994 -0.5909 -0.7462  2.0552
15388SOL    HW247887   1.231   8.756   4.935  0.3342 -0.6288  0.2630
15389SOL     OW47888   3.064   4.815   0.200  0.5086  0.7445  0.2284
15389SOL    HW147889   3.083   4.845   0.288  1.2677  0.6984  0.0870
15389SOL    HW247890   3.022   4.730   0.212 -0.5461  1.3058  0.5845
15390SOL     OW47891   2.878   3.397   9.093  0.3183  0.0303  0.2328
15390SOL    HW147892   2.900   3.421   9.183 -0.5880 -0.0989  0.4925
15390SOL    HW247893   2.807   3.334   9.101  0.1292  0.1279 -0.5783
15391SOL     OW47894   6.315   0.337   2.576 -0.1137 -0.1620  0.5351
15391SOL    HW147895   6.320   0.432   2.565 -0.4514 -0.1994  0.0229
15391SOL    HW247896   6.233   0.323   2.625 -1.7146 -0.3677 -2.0207
15392SOL     OW47897   4.401   1.142   0.168 -0.1622 -0.2291  0.6585
15392SOL    HW147898   4.349   1.088   0.228  1.8154  0.1685  2.9109
15392SOL    HW247899   4.466   1.082   0.132  0.1605  0.0292  0.8043
15393SOL     OW47900   0.145   2.623   2.605 -0.0336 -0.5385 -0.0756
15393SOL    HW147901   0.240   2.621   2.606 -0.0253 -1.2208 -1.0025
15393SOL    HW247902   0.124   2.698   2.548 -0.0546 -0.3735  0.1478
15394SOL     OW47903   9.473   4.851   1.132  0.1674 -0.0462 -0.4426
15394SOL    HW147904   9.380   4.829   1.131  0.0554 -0.8495 -6.1752
15394SOL    HW247905   9.517   4.766   1.140  0.3417  0.0649 -0.2297
15395SOL     OW47906   3.106   0.604   6.801  0.3629 -0.4395 -0.3368
15395SOL    HW147907   3.110   0.695   6.770  1.9856  0.0463  1.1002
15395SOL    HW247908   3.066   0.556   6.729  0.5012  1.2207 -1.6022
15396SOL     OW47909   8.850   7.287   8.184 -0.4989  0.0235  0.0400
15396SOL    HW147910   8.863   7.232   8.261  0.6509  0.1868 -0.0204
15396SOL    HW247911   8.758   7.276   8.162 -0.5877 -0.8577  0.7992
15397SOL     OW47912   6.999   0.026   6.417  0.3573  0.7250  0.1462
15397SOL    HW147913   7.082   0.030   6.463  0.7505  1.5635 -0.6142
15397SOL    HW247914   6.934   0.052   6.481  0.5323 -0.8710  1.0358
15398SOL     OW47915   8.167   6.926   6.180  0.0801 -0.2332 -0.0051
15398SOL    HW147916   8.180   6.836   6.210 -0.2053 -0.8337 -1.5675
15398SOL    HW247917   8.073   6.940   6.186  0.2071  0.2563  0.9840
15399SOL     OW47918   4.224   4.016   1.594 -0.2752  0.6046 -0.5866
15399SOL    HW147919   4.315   4.030   1.566 -0.1891  1.2543 -0.0098
15399SOL    HW247920   4.205   3.926   1.568  0.6278  0.3714 -0.4923
15400SOL     OW47921   6.993   8.294   4.289  0.0235  0.5525 -0.6681
15400SOL    HW147922   6.926   8.361   4.275  1.1325  1.3961 -2.2623
15400SOL    HW247923   7.062   8.339   4.336  0.9180  0.6863 -2.0352
15401SOL     OW47924   5.258   4.503   8.275 -0.0983  0.0394 -0.4310
15401SOL    HW147925   5.213   4.420   8.291  0.7725 -0.3391  0.1238
15401SOL    HW247926   5.297   4.493   8.188  0.1244 -0.1913 -0.3048
15402SOL     OW47927   9.647   1.100   9.027  1.1315 -0.1618  0.2621
15402SOL    HW147928   9.681   1.163   9.090 -0.4505  0.3330  0.6713
15402SOL    HW247929   9.694   1.019   9.046  1.7849  0.3881  1.0423
15403SOL     OW47930   0.416   1.444   8.064  0.1690 -0.5176 -0.3232
15403SOL    HW147931   0.414   1.379   7.993  1.9518 -1.2212  0.2268
15403SOL    HW247932   0.509   1.458   8.081 -0.1880 -1.1814  2.6148
15404SOL     OW47933   7.795   2.505   0.679  0.0468  0.0447  0.2333
15404SOL    HW147934   7.707   2.476   0.655  0.1337 -1.0577  1.1252
15404SOL    HW247935   7.850   2.428   0.663  0.5709  0.2134  1.1528
15405SOL     OW47936   3.208   1.298   8.495  0.3339  0.1952 -0.5913
15405SOL    HW147937   3.192   1.251   8.577  0.5876  1.5428  0.2717
15405SOL    HW247938   3.237   1.231   8.434  0.0483 -0.8641  0.3970
15406SOL     OW47939   2.593   7.638   7.642  0.5660  0.3503  0.0043
15406SOL    HW147940   2.632   7.589   7.714  0.7604  0.7198  0.1531
15406SOL    HW247941   2.661   7.699   7.615 -0.4286  2.1602  1.3609
15407SOL     OW47942   3.559   3.303   1.437  0.2859  0.1691  0.1477
15407SOL    HW147943   3.528   3.254   1.361  1.4476 -0.5735  0.1225
15407SOL    HW247944   3.490   3.366   1.455  0.0079  0.3890 -1.5547
15408SOL     OW47945   9.326   6.207   2.840  0.4678  0.9164  0.4330
15408SOL    HW147946   9.372   6.290   2.826  1.0945  0.4494 -0.3635
15408SOL    HW247947   9.393   6.149   2.876 -0.4105  1.2513  2.7507
15409SOL     OW47948   4.808   6.252   6.773  0.0362  0.1451  0.5430
15409SOL    HW147949   4.832   6.337   6.810  2.4999 -0.1631 -0.1515
15409SOL    HW247950   4.770   6.273   6.688  1.5024  0.5561 -0.0410
15410SOL     OW47951   3.633   2.882   2.024 -0.3734 -0.1644 -0.7547
15410SOL    HW147952   3.643   2.811   1.961 -1.9968 -0.1420 -1.0721
15410SOL    HW247953   3.540   2.882   2.046  0.0216  0.3392  1.0612
15411SOL     OW47954   7.724   2.045   4.884 -0.0072 -0.0408  0.0427
15411SOL    HW147955   7.770   2.119   4.924  1.5651 -1.3680  0.7511
15411SOL    HW247956   7.695   2.079   4.799  1.1487  1.2273  0.1170
15412SOL     OW47957   9.265   5.587   8.391  0.2327  0.2382  0.0726
15412SOL    HW147958   9.258   5.495   8.413 -1.0748  0.5342  0.9848
15412SOL    HW247959   9.237   5.634   8.470 -0.0474  1.3969 -0.6763
15413SOL     OW47960   9.523   3.971   0.939  0.2094 -0.0701  0.0761
15413SOL    HW147961   9.574   4.052   0.942  0.4218 -0.1385 -1.2874
15413SOL    HW247962   9.483   3.971   0.853 -0.6388 -0.9156  0.4579
15414SOL     OW47963   4.529   3.632   8.257 -0.3061  0.0097  0.1447
15414SOL    HW147964   4.610   3.580   8.257  0.4504  1.1418  0.1856
15414SOL    HW247965   4.523   3.667   8.346  0.8677  2.4223 -0.6222
15415SOL     OW47966   4.053   1.698   7.640 -0.3084  0.1161 -0.4291
15415SOL    HW147967   4.091   1.772   7.594 -1.7499  0.7021 -0.7306
15415SOL    HW247968   4.019   1.735   7.722 -1.5957 -0.0628 -0.8619
15416SOL     OW47969   4.288   5.810   5.160 -0.0758 -0.2784 -0.3072
15416SOL    HW147970   4.217   5.790   5.099  0.0434  0.5658 -0.7479
15416SOL    HW247971   4.361   5.835   5.103  0.8171 -1.8179  0.1119
15417SOL     OW47972   0.952   2.573   5.959 -0.0153  0.3551 -0.1374
15417SOL    HW147973   1.043   2.546   5.959 -0.1312 -0.1790  1.6745
15417SOL    HW247974   0.954   2.666   5.983  0.1663  1.1735 -2.9389
15418SOL     OW47975   7.032   1.502   0.164  0.3239 -0.2557  0.1391
15418SOL    HW147976   6.985   1.490   0.246 -1.6024 -0.0933 -0.8891
15418SOL    HW247977   7.082   1.582   0.176  0.2188 -0.3376  1.2136
15419SOL     OW47978   5.699   3.039   1.798 -0.4203  0.3350 -0.1878
15419SOL    HW147979   5.693   3.061   1.891  0.8022  1.4888 -0.3416
15419SOL    HW247980   5.609   3.039   1.767 -0.7400  1.5091  0.6681
15420SOL     OW47981   3.002   5.838   5.439  0.2310  0.1070  0.9883
15420SOL    HW147982   3.083   5.835   5.387  0.8387  1.1373  1.8301
15420SOL    HW247983   2.999   5.754   5.485  0.2780 -0.3517  0.1691
15421SOL     OW47984   5.959   0.414   3.589  0.3603  0.2996  0.2357
15421SOL    HW147985   5.903   0.477   3.634  0.1759  0.3032  0.0001
15421SOL    HW247986   5.971   0.343   3.653 -1.2723 -0.4981 -0.2904
15422SOL     OW47987   8.306   1.491   4.398  0.3768 -0.0576  0.3583
15422SOL    HW147988   8.361   1.457   4.328  1.0666 -1.4361  1.5004
15422SOL    HW247989   8.275   1.575   4.366  0.8811 -0.5231 -1.4699
15423SOL     OW47990   6.043   6.220   7.494  0.2338  0.3591  0.6421
15423SOL    HW147991   5.997   6.241   7.413  1.8967 -1.3396 -0.8492
15423SOL    HW247992   6.068   6.305   7.530  0.5693  1.1625 -1.3340
15424SOL     OW47993   6.562   9.374   5.499 -0.0164  0.1974  0.0531
15424SOL    HW147994   6.504   9.359   5.573  0.5964  2.0291  0.9537
15424SOL    HW247995   6.651   9.367   5.535  0.2971  0.5161 -0.6236
15425SOL     OW47996   0.728   3.623   5.203  0.0285 -0.8568  0.2715
15425SOL    HW147997   0.638   3.595   5.185 -0.1403 -0.3667  0.3461
15425SOL    HW247998   0.720   3.716   5.223  0.4486 -0.9886  1.0722
15426SOL     OW47999   7.778   7.400   1.773 -0.4391 -0.5063  0.1933
15426SOL    HW148000   7.791   7.464   1.843  1.7263  2.2905 -2.4869
15426SOL    HW248001   7.683   7.392   1.765 -0.7600  1.1503  1.7066
15427SOL     OW48002   6.833   5.199   1.966 -0.2242 -1.2258  0.1516
15427SOL    HW148003   6.906   5.257   1.943 -0.3390 -0.5349  1.4320
15427SOL    HW248004   6.859   5.114   1.932  0.6630 -0.7490 -0.4154
15428SOL     OW48005   7.794   7.846   5.818 -0.0440  0.4736 -0.5667
15428SOL    HW148006   7.833   7.782   5.758  0.2824 -0.2752  0.4175
15428SOL    HW248007   7.827   7.821   5.904 -1.6824  0.5953  0.1437
15429SOL     OW48008   6.364   3.125   9.209  0.0426  0.1241 -0.0027
15429SOL    HW148009   6.312   3.051   9.178 -0.4047  0.5469 -0.2719
15429SOL    HW248010   6.306   3.172   9.269  0.9231 -0.7336  1.5846
15430SOL     OW48011   2.850   9.584   5.239 -0.0482  0.1063  0.0318
15430SOL    HW148012   2.842   9.500   5.192 -0.1661  0.2580 -0.2229
15430SOL    HW248013   2.913   9.567   5.308  0.7711  0.1042 -0.6977
15431SOL     OW48014   6.954   8.812   3.823  0.3189 -0.2331  1.0021
15431SOL    HW148015   6.977   8.901   3.850  0.8035  0.2191 -0.7827
15431SOL    HW248016   7.017   8.756   3.868  2.1278  0.6295 -0.3550
15432SOL     OW48017   2.637   1.493   3.322  0.2885  0.0087  0.4815
15432SOL    HW148018   2.623   1.460   3.233  0.1927 -0.2256  0.5821
15432SOL    HW248019   2.718   1.544   3.316 -0.5883  1.3803 -0.1007
15433SOL     OW48020   7.940   1.789   2.770 -0.0105 -0.4232 -0.8367
15433SOL    HW148021   8.001   1.810   2.841  0.6193 -2.0509 -0.8562
15433SOL    HW248022   7.939   1.868   2.715  0.0161  0.6032  0.5831
15434SOL     OW48023   6.655   0.552   7.277  0.1343  0.2300  0.4814
15434SOL    HW148024   6.697   0.500   7.345  1.3973 -0.3980 -0.7127
15434SOL    HW248025   6.563   0.556   7.302 -0.2722 -3.5041  0.1016
15435SOL     OW48026   1.819   8.003   2.996  0.6841 -0.0313  0.2058
15435SOL    HW148027   1.905   8.046   2.996 -0.2617  1.9980  1.8960
15435SOL    HW248028   1.797   7.994   3.089 -1.2151  0.1077 -0.1996
15436SOL     OW48029   9.515   3.517   3.422  0.2877 -0.0612 -0.5888
15436SOL    HW148030   9.523   3.422   3.422 -0.1705 -0.1404  1.1611
15436SOL    HW248031   9.421   3.533   3.419  0.1574  0.1940  2.0638
15437SOL     OW48032   0.026   5.740   5.504 -0.0701 -0.0420 -0.2186
15437SOL    HW148033   0.065   5.669   5.555 -2.1443  0.9081  3.0059
15437SOL    HW248034  -0.057   5.703   5.471 -1.1577  0.7712  1.4721
15438SOL     OW48035   8.513   2.958   5.837  0.1102  0.3338 -0.8209
15438SOL    HW148036   8.585   2.996   5.787  0.4624 -1.1787 -1.5141
15438SOL    HW248037   8.547   2.874   5.868 -0.5621  0.6376  0.8525
15439SOL     OW48038   3.009   4.052   8.914  0.1994  0.6912 -0.2329
15439SOL    HW148039   3.079   3.990   8.896  1.3905  1.7811  0.4293
15439SOL    HW248040   3.009   4.062   9.010 -1.7122 -0.2142 -0.0987
15440SOL     OW48041   7.287   7.336   7.246  0.4366 -0.0312  0.2879
15440SOL    HW148042   7.335   7.348   7.328  0.6560 -2.0458  0.4905
15440SOL    HW248043   7.335   7.269   7.199 -0.7011 -0.1932 -0.6889
15441SOL     OW48044   5.838   6.017   0.697 -0.0047 -0.5094 -0.2536
15441SOL    HW148045   5.791   6.093   0.732  0.4245 -0.1772 -0.3835
15441SOL    HW248046   5.900   5.994   0.767  1.0373  0.3185 -0.8789
15442SOL     OW48047   3.366   5.113   2.570 -0.2609 -0.5716  0.2053
15442SOL    HW148048   3.292   5.148   2.520  1.0955  1.5448 -0.4692
15442SOL    HW248049   3.428   5.085   2.503  0.3333 -0.5089  0.7200
15443SOL     OW48050   8.202   1.698   2.136 -0.4308 -0.1769  1.1753
15443SOL    HW148051   8.161   1.651   2.208 -2.9920  1.3552  0.8145
15443SOL    HW248052   8.206   1.789   2.165  1.7219 -0.0629  0.7045
15444SOL     OW48053   0.237   0.772   5.719  0.0364  0.2799 -0.0433
15444SOL    HW148054   0.281   0.796   5.637  1.2066  0.1347  0.5245
15444SOL    HW248055   0.233   0.854   5.769 -1.4813  0.5659 -0.5829
15445SOL     OW48056   8.995   2.891   3.499  0.1123  0.1540 -0.2328
15445SOL    HW148057   9.023   2.812   3.453  1.2667  0.3762  0.0516
15445SOL    HW248058   9.073   2.947   3.500 -0.7914  1.4797 -0.7943
15446SOL     OW48059   9.218   5.612   0.944 -0.1427  0.5116  0.2100
15446SOL    HW148060   9.232   5.588   0.852 -1.2203 -0.0134  0.1674
15446SOL    HW248061   9.300   5.653   0.971  0.8525 -0.9475 -0.4631
15447SOL     OW48062   7.475   5.285   9.360  0.1340 -0.4367 -0.0704
15447SOL    HW148063   7.547   5.222   9.362 -0.5067 -1.3145 -2.1863
15447SOL    HW248064   7.490   5.334   9.279 -1.4332 -0.3838 -0.3452
15448SOL     OW48065   3.492   5.766   5.240  0.0554 -0.0055  0.7411
15448SOL    HW148066   3.580   5.804   5.240  0.2512 -0.4612  0.4726
15448SOL    HW248067   3.503   5.679   5.279 -0.1721 -0.3000  0.1522
15449SOL     OW48068   9.670   0.952   6.106  0.6695 -0.2040 -0.4349
15449SOL    HW148069   9.706   1.033   6.142  1.6393 -0.9640  0.3510
15449SOL    HW248070   9.693   0.956   6.013  0.5161  0.5197 -0.4483
15450SOL     OW48071   3.142   7.797   0.828 -0.2091  0.4721 -0.2503
15450SOL    HW148072   3.120   7.785   0.920 -1.9508  0.7393 -0.5953
15450SOL    HW248073   3.128   7.890   0.811 -0.5121  0.3132 -0.9215
15451SOL     OW48074   1.284   3.497   0.716  0.2957  0.0965 -0.3802
15451SOL    HW148075   1.278   3.589   0.690  2.2087  0.1512 -0.7486
15451SOL    HW248076   1.241   3.493   0.801  1.6718  1.6972  0.4527
15452SOL     OW48077   1.014   6.948   1.731 -0.3752  0.0422  0.2852
15452SOL    HW148078   0.939   6.911   1.683  0.1546  0.1000 -0.6067
15452SOL    HW248079   1.048   7.016   1.673 -0.4511  0.9589  1.2875
15453SOL     OW48080   8.407   3.636   6.139  0.0034  0.6013  0.2492
15453SOL    HW148081   8.352   3.714   6.139  0.9393  1.2916 -1.0613
15453SOL    HW248082   8.473   3.653   6.072  0.7300 -0.9687  0.5263
15454SOL     OW48083   1.305   5.644   4.156  0.0258 -0.1849 -0.5582
15454SOL    HW148084   1.309   5.557   4.197  0.1092 -0.8091 -1.8523
15454SOL    HW248085   1.349   5.633   4.072 -0.2666  1.0364 -0.8873
15455SOL     OW48086   1.197   4.305   0.166 -0.2298 -0.0576  0.5191
15455SOL    HW148087   1.132   4.265   0.224 -0.9411 -0.0589 -0.2620
15455SOL    HW248088   1.206   4.243   0.094  1.2469 -0.4459  0.9854
15456SOL     OW48089   7.128   7.751   3.102 -0.2192  0.3271  0.1734
15456SOL    HW148090   7.083   7.805   3.168 -0.5511  1.1380 -0.6937
15456SOL    HW248091   7.081   7.769   3.021  0.8369  0.1412 -0.4930
15457SOL     OW48092   0.095   0.159   0.428  0.0531  0.3420  0.2015
15457SOL    HW148093   0.088   0.218   0.354 -0.4759  0.0694  0.0302
15457SOL    HW248094   0.178   0.183   0.471  0.2164  0.6863 -0.3061
15458SOL     OW48095   1.532   3.605   6.054 -0.0066 -0.1453  0.0336
15458SOL    HW148096   1.546   3.660   6.130 -0.9610 -1.1003  0.9311
15458SOL    HW248097   1.614   3.611   6.004  1.3938 -1.0122  2.1060
15459SOL     OW48098   0.875   2.631   9.244 -0.0257  0.4701 -0.1735
15459SOL    HW148099   0.960   2.609   9.207  0.6982  0.3102  1.4860
15459SOL    HW248100   0.840   2.698   9.186  0.9464  0.0899 -1.2388
15460SOL     OW48101   5.206   1.616   5.938 -0.3989 -0.5303 -0.0226
15460SOL    HW148102   5.212   1.580   5.850 -1.8517  0.5907 -0.6200
15460SOL    HW248103   5.203   1.539   5.995 -2.8451 -1.4231 -1.2117
15461SOL     OW48104   5.316   8.120   2.970  0.1054  0.2736 -0.1677
15461SOL    HW148105   5.370   8.159   3.040  1.8618 -2.0667 -0.0931
15461SOL    HW248106   5.254   8.064   3.017 -0.9230  1.2069 -0.3763
15462SOL     OW48107   5.683   8.963   8.731  0.4503 -0.0997  0.1026
15462SOL    HW148108   5.635   8.882   8.714  1.9581 -1.2956  1.2324
15462SOL    HW248109   5.732   8.979   8.650 -0.4617  0.1504 -0.4120
15463SOL     OW48110   5.382   8.622   6.978  0.0972 -0.2969 -0.0647
15463SOL    HW148111   5.287   8.610   6.969 -0.3940  2.0247  1.2369
15463SOL    HW248112   5.407   8.673   6.901  0.3037 -0.9428 -0.4277
15464SOL     OW48113   7.748   0.202   6.883  0.4158 -0.3530 -0.4120
15464SOL    HW148114   7.798   0.197   6.802  1.9991  0.0150  0.4987
15464SOL    HW248115   7.694   0.281   6.874  1.7987  0.6226 -0.4742
15465SOL     OW48116   1.691   2.547   2.123  0.3129  0.1092 -0.1939
15465SOL    HW148117   1.670   2.640   2.111  1.9653  0.5517  0.1374
15465SOL    HW248118   1.730   2.520   2.041 -0.2503 -0.3335 -0.3214
15466SOL     OW48119   4.736   1.750   8.012 -0.3165 -0.3966 -0.2558
15466SOL    HW148120   4.703   1.725   7.925 -0.3462 -3.3873  0.5335
15466SOL    HW248121   4.658   1.748   8.068 -0.0950  0.4415  0.0993
15467SOL     OW48122   3.022   7.992   2.249 -0.2426  0.3474 -0.2744
15467SOL    HW148123   3.081   8.051   2.296 -0.3258  0.4008 -0.2374
15467SOL    HW248124   2.956   7.967   2.314 -0.8125  1.0459 -0.5754
15468SOL     OW48125   1.798   5.179   1.672  0.0634  0.3013  0.2815
15468SOL    HW148126   1.709   5.173   1.707 -0.3889 -1.0166 -0.9739
15468SOL    HW248127   1.790   5.236   1.596  0.0998 -0.4463 -0.3009
15469SOL     OW48128   2.490   9.694   2.304  0.1318 -0.6737 -0.3048
15469SOL    HW148129   2.538   9.684   2.386  0.8124  1.7353 -0.3182
15469SOL    HW248130   2.558   9.694   2.237 -0.0761  0.5111 -0.5347
15470SOL     OW48131   3.079   4.917   0.938  0.1561 -0.4783 -0.6792
15470SOL    HW148132   3.126   4.987   0.892  0.4431 -0.9045 -1.0412
15470SOL    HW248133   3.148   4.858   0.969 -0.0662 -0.4472 -0.1129
15471SOL     OW48134   1.206   8.412   9.195 -1.0032  0.4661 -0.2440
15471SOL    HW148135   1.226   8.319   9.205 -0.3638  0.4745 -1.2827
15471SOL    HW248136   1.289   8.457   9.212 -1.0466  0.7702 -0.8132
15472SOL     OW48137   5.637   8.123   8.937  0.1497 -0.5006  0.5442
15472SOL    HW148138   5.723   8.137   8.976  0.4933 -0.9781 -0.0266
15472SOL    HW248139   5.605   8.211   8.917  1.9705 -0.3625 -2.3453
15473SOL     OW48140   4.754   6.283   2.496  0.6277  0.1350  0.2874
15473SOL    HW148141   4.753   6.327   2.581 -0.4524  0.7943 -0.0349
15473SOL    HW248142   4.663   6.255   2.483  1.2479 -2.1471  0.4271
15474SOL     OW48143   6.092   5.141   7.593  0.0104  0.4934 -0.1967
15474SOL    HW148144   6.154   5.079   7.556 -0.1814  0.0636  0.1880
15474SOL    HW248145   6.009   5.093   7.596 -0.5929  1.3910 -1.6523
15475SOL     OW48146   9.638   3.599   8.837  0.0755  0.3758  0.3684
15475SOL    HW148147   9.720   3.625   8.879  0.4908  1.1338 -0.8328
15475SOL    HW248148   9.591   3.549   8.903  2.4119 -1.9183  0.4430
15476SOL     OW48149   7.496   0.825   9.546  0.3097  0.3594  0.3723
15476SOL    HW148150   7.521   0.741   9.508  0.7483 -0.5857  2.6173
15476SOL    HW248151   7.516   0.816   9.639 -1.4214  2.2716  0.9913
15477SOL     OW48152   0.052   6.683   8.524 -0.0195  0.7159 -0.3685
15477SOL    HW148153   0.074   6.761   8.576 -0.4829 -0.2843  1.4262
15477SOL    HW248154   0.110   6.615   8.557 -1.8243 -0.5039  0.4531
15478SOL     OW48155   5.583   0.370   5.468  0.3353  0.2842  0.4120
15478SOL    HW148156   5.661   0.349   5.519 -0.3384 -0.0573  1.3363
15478SOL    HW248157   5.616   0.418   5.392  1.4363  0.1475  0.7832
15479SOL     OW48158   3.077   9.446   0.290  0.2060  0.9579 -0.0803
15479SOL    HW148159   3.012   9.505   0.328  0.1893  0.0012  1.4527
15479SOL    HW248160   3.081   9.472   0.197 -1.4165  1.8662  0.0589
15480SOL     OW48161   0.973   9.069   8.076 -0.8427  0.2992  0.3402
15480SOL    HW148162   0.993   9.152   8.033 -2.0116 -0.2786 -1.4335
15480SOL    HW248163   0.891   9.039   8.035 -1.6593 -0.6747  2.4819
15481SOL     OW48164   3.747   0.359   8.812 -0.4586  0.1256  0.4320
15481SOL    HW148165   3.801   0.281   8.831  0.4653  0.8857  1.0554
15481SOL    HW248166   3.659   0.325   8.800 -0.3562 -0.9022  2.1490
15482SOL     OW48167   5.916   2.310   8.639  0.6576  0.1454  0.4436
15482SOL    HW148168   5.893   2.342   8.726 -0.4768  0.1186  0.1705
15482SOL    HW248169   5.895   2.217   8.642  0.7536  0.1162  0.1902
15483SOL     OW48170   4.601   2.156   7.484 -0.4578 -0.0734  0.0287
15483SOL    HW148171   4.655   2.234   7.500 -0.0097 -0.2751 -0.4750
15483SOL    HW248172   4.524   2.169   7.539  0.5734 -0.2750  1.6104
15484SOL     OW48173   5.192   4.266   5.189  0.2389  0.4005  0.5080
15484SOL    HW148174   5.154   4.235   5.107 -1.7997  2.8416  0.3943
15484SOL    HW248175   5.286   4.253   5.179 -0.2027 -2.5044 -0.7526
15485SOL     OW48176   5.665   7.195   6.331  0.1813 -0.1419  0.5020
15485SOL    HW148177   5.651   7.289   6.345 -1.8284 -0.5325  1.4303
15485SOL    HW248178   5.720   7.168   6.405  0.7503  0.2887  0.2415
15486SOL     OW48179   8.967   5.273   5.773  0.6954  0.1047 -0.4420
15486SOL    HW148180   8.902   5.343   5.778  0.3608 -0.2000 -0.4428
15486SOL    HW248181   9.044   5.307   5.818  0.1704  0.0743  0.4977
15487SOL     OW48182   7.162   0.673   0.295 -0.0298 -0.3208  0.1245
15487SOL    HW148183   7.246   0.636   0.267  0.6426  0.8247  0.5635
15487SOL    HW248184   7.096   0.616   0.255  0.9248 -0.3123 -1.5492
15488SOL     OW48185   0.710   4.454   5.517 -0.6114 -0.3077 -0.3564
15488SOL    HW148186   0.663   4.512   5.457 -2.1644 -0.2544  0.8596
15488SOL    HW248187   0.757   4.393   5.459 -1.7830 -0.0492 -1.6365
15489SOL     OW48188   7.013   9.606   1.253 -0.4226 -0.1081  0.4224
15489SOL    HW148189   6.980   9.558   1.178  1.0706 -2.1837  1.0037
15489SOL    HW248190   7.021   9.696   1.222 -0.2153 -0.8203 -1.7919
15490SOL     OW48191   7.987   3.378   6.788  0.7522 -0.1188 -0.4487
15490SOL    HW148192   8.020   3.392   6.698 -1.0229 -1.2792 -1.3265
15490SOL    HW248193   8.025   3.294   6.814  0.8852 -0.0110 -0.2952
15491SOL     OW48194   1.396   1.970   2.223  0.0284 -0.6608  0.0405
15491SOL    HW148195   1.485   2.000   2.206  0.0788 -1.4201 -1.1406
15491SOL    HW248196   1.356   2.041   2.274  0.5254  0.8463 -1.5851
15492SOL     OW48197   7.787   0.759   1.546 -0.7771 -0.3828 -0.2405
15492SOL    HW148198   7.772   0.764   1.451 -0.8470  0.4106 -0.1912
15492SOL    HW248199   7.787   0.665   1.565  1.8733 -0.7472 -1.4606
15493SOL     OW48200   2.084   4.134   9.174 -0.6502 -0.1338 -0.5065
15493SOL    HW148201   2.076   4.137   9.079  0.7878 -1.0735 -0.6737
15493SOL    HW248202   2.139   4.210   9.196 -0.0152 -0.5754 -0.5495
15494SOL     OW48203   7.684   2.284   2.544 -0.4464 -0.3521 -0.1526
15494SOL    HW148204   7.652   2.355   2.488  1.1308  0.9143  0.4838
15494SOL    HW248205   7.690   2.208   2.485 -1.7427  0.1254 -0.9476
15495SOL     OW48206   1.284   1.423   0.906  0.1136 -0.5538  0.3891
15495SOL    HW148207   1.291   1.497   0.966  2.7251 -0.4594  0.0735
15495SOL    HW248208   1.286   1.462   0.819 -0.7245 -0.8777  0.2163
15496SOL     OW48209   6.413   3.972   4.571 -0.0693 -0.4547  0.2500
15496SOL    HW148210   6.474   3.966   4.498 -0.1701  0.7294  0.0504
15496SOL    HW248211   6.399   3.881   4.598  0.6691 -0.8403 -0.6105
15497SOL     OW48212   7.617   6.401   3.188 -0.2982 -0.2079  0.2531
15497SOL    HW148213   7.566   6.389   3.108 -0.0837 -0.5160  0.1604
15497SOL    HW248214   7.673   6.324   3.193  0.1484  0.1129  0.3614
15498SOL     OW48215   2.994   3.602   7.758 -0.2594  0.1427  0.1441
15498SOL    HW148216   2.952   3.528   7.715  0.2076 -0.2949  0.4302
15498SOL    HW248217   2.983   3.675   7.697  0.1529 -0.3978 -0.6027
15499SOL     OW48218   0.621   9.010   8.934 -0.3500  0.1843 -0.2404
15499SOL    HW148219   0.573   9.092   8.941 -0.6099 -0.0551  1.1587
15499SOL    HW248220   0.664   9.000   9.019  0.5614 -0.5933 -0.7731
15500SOL     OW48221   4.492   8.977   3.152  0.0927  0.4794 -0.4175
15500SOL    HW148222   4.458   8.895   3.116 -0.6488  0.9005 -0.7108
15500SOL    HW248223   4.550   9.011   3.084  0.2492  0.2916 -0.3772
15501SOL     OW48224   0.838   5.777   2.219  0.9399 -0.5781  0.2260
15501SOL    HW148225   0.765   5.746   2.272  1.2702 -0.1848  0.9166
15501SOL    HW248226   0.860   5.702   2.163  0.3300 -0.8593  0.3613
15502SOL     OW48227   5.287   2.374   1.038 -0.4484 -0.2056 -0.0838
15502SOL    HW148228   5.382   2.388   1.036  0.0072 -2.1653  2.5802
15502SOL    HW248229   5.253   2.452   1.083 -0.1332  0.4791 -0.9996
15503SOL     OW48230   5.954   4.147   4.396 -0.2975  0.2428 -0.2026
15503SOL    HW148231   6.047   4.163   4.410 -0.5997  2.7940 -0.5516
15503SOL    HW248232   5.921   4.120   4.482  0.5905  0.3038  0.1605
15504SOL     OW48233   1.252   1.201   0.102 -0.0794  0.2244  0.0908
15504SOL    HW148234   1.326   1.181   0.160 -1.8725 -1.0354  2.1023
15504SOL    HW248235   1.277   1.283   0.059  1.5387  1.0628  2.4057
15505SOL     OW48236   8.099   0.046   9.283  0.5436 -0.2766  0.5800
15505SOL    HW148237   8.132  -0.023   9.226 -3.0551 -1.2733 -0.5597
15505SOL    HW248238   8.015   0.013   9.315 -1.8206  3.7463 -0.6878
15506SOL     OW48239   7.802   6.128   1.968 -0.2182  0.3624  0.3068
15506SOL    HW148240   7.834   6.152   1.881 -0.7718  0.1560  0.0375
15506SOL    HW248241   7.728   6.069   1.950  0.5282 -0.8156  0.9188
15507SOL     OW48242   6.536   4.531   1.641 -0.0442  0.5066 -0.0219
15507SOL    HW148243   6.568   4.442   1.655  3.1594  1.6340  0.5644
15507SOL    HW248244   6.522   4.566   1.729 -1.6260  0.5366 -0.2510
15508SOL     OW48245   3.299   1.972   2.192  0.5496  0.0286 -0.1387
15508SOL    HW148246   3.340   1.954   2.277  0.4638 -0.6410 -0.2370
15508SOL    HW248247   3.354   2.040   2.154  0.5469  0.3937  0.4856
15509SOL     OW48248   5.013   5.960   5.303 -0.1301  0.5174 -0.0117
15509SOL    HW148249   5.075   5.901   5.346 -1.7613 -1.0750  0.3387
15509SOL    HW248250   5.066   6.017   5.248  1.5473 -1.6778 -0.8163
15510SOL     OW48251   0.790   8.097   5.910 -0.3836  0.2890 -0.4100
15510SOL    HW148252   0.835   8.181   5.920  0.7817  0.1206 -3.4122
15510SOL    HW248253   0.851   8.033   5.947 -0.6323  0.5912  0.5483
15511SOL     OW48254   8.986   1.090   1.248  0.4555 -0.0611 -0.7060
15511SOL    HW148255   8.992   1.000   1.280  1.1998  0.1944 -0.0924
15511SOL    HW248256   8.940   1.137   1.317  0.7735  0.1924 -0.6655
15512SOL     OW48257   4.653   7.134   3.795  0.0041 -0.2978  0.1495
15512SOL    HW148258   4.701   7.159   3.874  0.3523 -0.4555 -0.0116
15512SOL    HW248259   4.709   7.069   3.752 -0.5446 -0.8116  0.1838
15513SOL     OW48260   0.651   1.823   7.511  0.4174  0.3534 -0.5162
15513SOL    HW148261   0.585   1.877   7.554 -0.0537 -2.5735  2.9507
15513SOL    HW248262   0.735   1.863   7.536  0.0554  0.8417 -0.0625
15514SOL     OW48263   6.906   1.834   6.519 -0.2571 -0.3148  0.2129
15514SOL    HW148264   6.847   1.848   6.594  0.7152 -0.0430  0.9427
15514SOL    HW248265   6.870   1.758   6.474 -1.0641 -0.2619  0.7462
15515SOL     OW48266   6.691   3.698   1.267  0.0188  0.6411  0.4169
15515SOL    HW148267   6.604   3.663   1.248 -0.7772  2.0460  1.3570
15515SOL    HW248268   6.742   3.621   1.293  0.8528 -1.3150 -5.5028
15516SOL     OW48269   8.985   8.816   5.364 -0.7549 -0.0504 -0.3409
15516SOL    HW148270   9.074   8.780   5.365  1.3959  4.4166 -2.5018
15516SOL    HW248271   8.960   8.822   5.456  1.9885  0.1586  0.4624
15517SOL     OW48272   0.486   2.527   6.493  0.3259 -0.0039 -0.6266
15517SOL    HW148273   0.469   2.573   6.576 -0.9316 -0.9477 -0.3271
15517SOL    HW248274   0.549   2.458   6.516 -0.7889 -0.9132 -0.2033
15518SOL     OW48275   2.793   0.434   5.093  0.1684  0.1823  0.1214
15518SOL    HW148276   2.707   0.391   5.084  0.1188  0.2245  0.3781
15518SOL    HW248277   2.856   0.366   5.068  0.0165  0.4864 -1.1466
15519SOL     OW48278   3.633   2.620   3.295 -0.1126 -0.3419  0.7693
15519SOL    HW148279   3.686   2.561   3.241 -1.5828 -1.7422  0.7910
15519SOL    HW248280   3.599   2.564   3.364 -2.1385  0.3599  0.3939
15520SOL     OW48281   6.371   7.542   7.465 -0.4697  0.7501  0.5704
15520SOL    HW148282   6.442   7.551   7.401 -0.2304  3.6311  1.0732
15520SOL    HW248283   6.416   7.526   7.548 -0.5447  0.4785  0.5580
15521SOL     OW48284   6.582   8.837   2.164 -0.0382  0.6727  0.2868
15521SOL    HW148285   6.491   8.862   2.148 -0.1145  0.0032 -0.3776
15521SOL    HW248286   6.582   8.741   2.162  0.7268  0.6641  0.0034
15522SOL     OW48287   1.975   7.331   2.132 -1.3907  0.2196 -0.2396
15522SOL    HW148288   2.052   7.305   2.181 -1.1349  0.8585 -0.2926
15522SOL    HW248289   1.981   7.282   2.049 -1.4001 -0.2399  0.0279
15523SOL     OW48290   5.253   6.716   0.339  0.3971 -0.2673 -0.2996
15523SOL    HW148291   5.229   6.802   0.373  0.0878  0.3591 -2.0061
15523SOL    HW248292   5.346   6.724   0.316  0.8310 -0.9449  1.0844
15524SOL     OW48293   0.838   3.886   0.170  0.1230 -0.7305  0.2284
15524SOL    HW148294   0.821   3.887   0.264 -0.3283  0.7859  0.1604
15524SOL    HW248295   0.755   3.858   0.131 -0.0627 -0.1871  0.2295
15525SOL     OW48296   9.132   3.628   7.491 -0.0583  0.5889  0.1413
15525SOL    HW148297   9.105   3.682   7.417 -2.5234  2.0497  1.9902
15525SOL    HW248298   9.227   3.643   7.497 -0.3216  3.1091 -0.6678
15526SOL     OW48299   7.184   3.703   8.028  0.1760  0.0905 -0.3052
15526SOL    HW148300   7.132   3.627   8.053  0.0850  0.6794  1.4550
15526SOL    HW248301   7.236   3.674   7.954  1.0313 -2.0659  1.0555
15527SOL     OW48302   7.971   8.771   8.568 -0.0116 -0.7248 -0.2890
15527SOL    HW148303   7.914   8.719   8.511 -1.0652 -1.3147  1.2280
15527SOL    HW248304   8.052   8.781   8.519 -0.5682 -1.9579 -1.5161
15528SOL     OW48305   6.971   1.867   4.254 -0.2372 -0.1245  0.2570
15528SOL    HW148306   6.995   1.946   4.204 -1.2900  1.6397  2.3700
15528SOL    HW248307   6.875   1.873   4.261 -0.4010 -1.9516 -0.0162
15529SOL     OW48308   7.672   5.514   8.644  0.6094  0.1066 -0.0302
15529SOL    HW148309   7.637   5.604   8.646  2.0572  0.7040 -0.5415
15529SOL    HW248310   7.679   5.489   8.736  0.7682  0.7450  0.1352
15530SOL     OW48311   0.941   8.328   9.184 -0.0098  0.4875  0.2587
15530SOL    HW148312   1.030   8.351   9.211  0.3023  1.3832 -1.4291
15530SOL    HW248313   0.951   8.249   9.132 -0.3562 -0.0262  0.9511
15531SOL     OW48314   0.710   4.811   5.619 -0.4126  0.1817 -0.4197
15531SOL    HW148315   0.669   4.732   5.653  1.1866  0.0075  1.2559
15531SOL    HW248316   0.653   4.882   5.650 -0.3755 -0.1501  0.4407
15532SOL     OW48317   3.978   8.293   0.592 -0.4179 -0.2226 -0.0609
15532SOL    HW148318   3.997   8.199   0.602 -2.2643 -0.5468  0.7621
15532SOL    HW248319   3.897   8.295   0.541  0.2378  0.9854 -1.0847
15533SOL     OW48320   1.776   0.230   4.596  0.4227 -0.1347  0.0780
15533SOL    HW148321   1.864   0.257   4.624  0.3360 -0.0628  0.2845
15533SOL    HW248322   1.789   0.144   4.555  0.5539 -0.2364  0.3310
15534SOL     OW48323   7.177   5.009   5.095  0.1220 -0.3728 -0.3311
15534SOL    HW148324   7.208   4.962   5.172 -3.0204 -1.6215  0.2708
15534SOL    HW248325   7.181   4.945   5.024  1.2200  0.2240 -0.8418
15535SOL     OW48326   1.995   8.379   1.607  0.2479 -0.0696  0.5432
15535SOL    HW148327   1.957   8.400   1.692 -1.9199 -1.7574  0.0890
15535SOL    HW248328   2.067   8.319   1.626 -0.2381 -0.4507  1.2105
15536SOL     OW48329   5.847   0.729   1.965  0.3121 -0.2417 -0.3328
15536SOL    HW148330   5.932   0.772   1.955  0.9802 -1.3261  0.4516
15536SOL    HW248331   5.804   0.777   2.036  0.3081  0.2161 -0.6346
15537SOL     OW48332   2.366   0.395   6.855  0.6196 -0.3882 -0.1088
15537SOL    HW148333   2.347   0.317   6.803 -0.1639  0.4965 -1.1763
15537SOL    HW248334   2.440   0.436   6.812  0.0672  0.2655 -0.4561
15538SOL     OW48335   1.074   6.719   2.345 -0.3211  0.6794 -0.3778
15538SOL    HW148336   1.049   6.653   2.409  0.3495  2.6581  2.0712
15538SOL    HW248337   0.992   6.743   2.302 -1.1876  0.7545  1.2418
15539SOL     OW48338   8.463   8.923   5.438  0.5783  0.4659  0.6750
15539SOL    HW148339   8.497   9.012   5.431 -1.3025  1.2926  1.4365
15539SOL    HW248340   8.376   8.927   5.399  0.4454 -1.0407  0.7540
15540SOL     OW48341   6.051   0.348   9.548 -0.1496 -0.8345 -0.4957
15540SOL    HW148342   6.072   0.294   9.624 -0.6995 -1.5153 -0.8152
15540SOL    HW248343   5.959   0.329   9.530 -0.2964  0.0607 -0.7418
15541SOL     OW48344   1.145   5.978   4.413  0.4519  0.3539 -0.2083
15541SOL    HW148345   1.181   5.952   4.328  2.1484  1.0272  0.2702
15541SOL    HW248346   1.168   6.071   4.421 -1.0001  0.6946  0.3589
15542SOL     OW48347   3.998   9.390   8.828  0.0452  0.1776 -0.3969
15542SOL    HW148348   4.064   9.419   8.766 -0.6391  1.3977 -0.5938
15542SOL    HW248349   3.956   9.471   8.859  1.3786 -0.1989  2.8517
15543SOL     OW48350   4.402   6.115   1.109 -0.1167  0.2509 -0.5356
15543SOL    HW148351   4.450   6.069   1.040  1.0471 -0.5614  0.7656
15543SOL    HW248352   4.462   6.184   1.139 -0.8531  0.9919 -0.7286
15544SOL     OW48353   3.987   9.348   0.141 -0.2066  0.2164 -0.6318
15544SOL    HW148354   3.985   9.410   0.069 -1.4204  2.2275  1.0177
15544SOL    HW248355   3.897   9.346   0.174  0.9877  2.8735  3.5210
15545SOL     OW48356   3.694   0.192   7.299  0.1151 -0.5176 -0.6391
15545SOL    HW148357   3.626   0.136   7.336  0.5425 -0.3976  0.3809
15545SOL    HW248358   3.726   0.242   7.374 -0.3539  1.2140 -1.5346
15546SOL     OW48359   5.193   7.605   7.623  0.4712  0.0706  0.0476
15546SOL    HW148360   5.231   7.518   7.633 -0.3108 -0.2627  0.2672
15546SOL    HW248361   5.098   7.590   7.624  0.3230  0.8321 -0.7830
15547SOL     OW48362   0.082   3.371   9.627 -0.6885 -0.1450  0.1157
15547SOL    HW148363  -0.012   3.354   9.635 -0.9150  1.0001  0.0338
15547SOL    HW248364   0.087   3.462   9.598  0.4506 -0.2208  0.0568
15548SOL     OW48365   8.776   5.442   5.754  0.3439 -0.2955 -0.1940
15548SOL    HW148366   8.721   5.485   5.820  0.1335 -1.4251  0.3853
15548SOL    HW248367   8.803   5.513   5.696  2.1474  1.1159  2.2038
15549SOL     OW48368   4.400   9.437   3.532  0.3168 -0.1988 -0.0805
15549SOL    HW148369   4.421   9.470   3.620  0.6785 -2.2875  0.6724
15549SOL    HW248370   4.310   9.405   3.541  0.7293 -1.4066 -0.1471
15550SOL     OW48371   7.901   6.296   0.054 -0.1897 -0.1979 -0.5087
15550SOL    HW148372   7.882   6.202   0.054 -2.7708  0.2645 -0.2433
15550SOL    HW248373   7.895   6.322  -0.038 -0.9461 -0.0505 -0.4240
15551SOL     OW48374   6.149   1.574   7.080 -0.0643 -0.0715  0.2772
15551SOL    HW148375   6.124   1.504   7.019  0.1696  0.6392 -0.6468
15551SOL    HW248376   6.070   1.591   7.131 -1.3181  1.5621 -2.0285
15552SOL     OW48377   1.124   3.984   5.274 -0.4353 -0.4346 -0.0987
15552SOL    HW148378   1.159   4.071   5.295  1.2106 -1.3074  0.9775
15552SOL    HW248379   1.201   3.932   5.252 -1.5223 -1.2992 -2.1109
15553SOL     OW48380   3.904   0.104   5.005  0.1834 -0.5689 -0.2221
15553SOL    HW148381   3.821   0.141   4.975 -0.0390 -1.1458 -0.3429
15553SOL    HW248382   3.915   0.025   4.952  1.0614 -0.2357 -0.5541
15554SOL     OW48383   1.860   4.391   9.209 -0.5662 -0.4766 -0.3490
15554SOL    HW148384   1.950   4.397   9.179 -0.6146 -1.1512 -0.6440
15554SOL    HW248385   1.861   4.319   9.273 -0.4840  0.8452  1.2100
15555SOL     OW48386   0.636   8.550   6.856  0.3436 -0.0737  0.4520
15555SOL    HW148387   0.587   8.468   6.852 -1.0192  0.7360 -0.0247
15555SOL    HW248388   0.663   8.556   6.947 -0.0442 -0.7678  0.6283
15556SOL     OW48389   2.600   8.439   4.063  0.0102 -0.5591 -0.0468
15556SOL    HW148390   2.651   8.455   3.984 -0.0241  1.7120  0.3191
15556SOL    HW248391   2.532   8.507   4.062 -0.8144 -1.3086  1.2690
15557SOL     OW48392   6.136   3.685   0.160 -0.0061 -0.0439 -0.6774
15557SOL    HW148393   6.114   3.692   0.253 -1.5476 -0.5413 -0.9759
15557SOL    HW248394   6.231   3.689   0.158  0.1131 -0.9450  1.0086
15558SOL     OW48395   2.062   8.004   6.323 -0.1531  0.4796 -0.2557
15558SOL    HW148396   2.092   8.075   6.379 -0.1554  1.0163 -0.9237
15558SOL    HW248397   2.052   8.044   6.237  0.8940 -0.5789 -0.8866
15559SOL     OW48398   2.964   3.756   1.946 -0.0991  0.2626 -0.8473
15559SOL    HW148399   3.023   3.702   1.895  0.5086 -0.3599  0.4501
15559SOL    HW248400   2.885   3.763   1.893  1.0161  0.8798 -2.4915
15560SOL     OW48401   4.868   8.235   1.948 -0.7688 -1.0079  0.1235
15560SOL    HW148402   4.814   8.160   1.923 -2.8512  0.2381  0.6314
15560SOL    HW248403   4.870   8.291   1.870 -2.4381  0.1527  0.8510
15561SOL     OW48404   3.494   8.341   2.750 -0.9026  0.1508  0.3618
15561SOL    HW148405   3.580   8.308   2.727 -0.5026 -0.9751  3.0749
15561SOL    HW248406   3.500   8.362   2.843 -3.7109 -0.5652  0.8002
15562SOL     OW48407   2.880   5.920   9.232 -0.4312  0.0806 -0.8056
15562SOL    HW148408   2.800   5.867   9.240  0.5814 -1.3225  0.3085
15562SOL    HW248409   2.880   5.976   9.310  0.4947 -1.1144  0.0822
15563SOL     OW48410   5.685   8.528   4.533  0.0243  0.1314 -0.1717
15563SOL    HW148411   5.638   8.591   4.588 -1.4399 -1.0400 -0.0129
15563SOL    HW248412   5.761   8.502   4.585 -0.7600 -0.1506  0.8727
15564SOL     OW48413   4.175   6.081   7.275  0.2849  0.0111 -0.1859
15564SOL    HW148414   4.224   6.000   7.286 -1.3187 -1.0418 -0.5818
15564SOL    HW248415   4.236   6.149   7.305  1.9690 -1.2243 -0.6359
15565SOL     OW48416   8.254   1.493   1.788 -0.4417  0.3307  0.5681
15565SOL    HW148417   8.217   1.405   1.789  0.6947 -0.1972 -0.6555
15565SOL    HW248418   8.348   1.481   1.804  0.1451  1.0330 -1.8540
15566SOL     OW48419   6.712   4.577   7.009 -0.3209  0.4612  0.6757
15566SOL    HW148420   6.802   4.578   7.041 -0.1737  0.7354  0.2656
15566SOL    HW248421   6.697   4.487   6.982  0.3173  0.7049 -0.5775
15567SOL     OW48422   0.203   7.311   8.215  0.3655  0.4588 -0.7902
15567SOL    HW148423   0.141   7.238   8.213  0.2581  0.5462 -0.7079
15567SOL    HW248424   0.249   7.306   8.132  0.5309  0.1477 -0.6831
15568SOL     OW48425   6.058   6.831   7.436  0.3576 -0.3499 -0.1382
15568SOL    HW148426   6.130   6.806   7.495 -0.3227  0.2783  0.9955
15568SOL    HW248427   6.092   6.814   7.349  0.4688 -3.9304  0.4325
15569SOL     OW48428   6.725   1.995   6.214  0.6405  0.2934  0.5783
15569SOL    HW148429   6.671   1.993   6.294 -1.4962 -0.0360 -0.7746
15569SOL    HW248430   6.747   1.904   6.198 -0.1485  0.1762  0.0699
15570SOL     OW48431   1.550   7.131   2.349 -0.5192  0.3104 -0.2973
15570SOL    HW148432   1.575   7.082   2.270  1.7232  0.4905  0.2376
15570SOL    HW248433   1.606   7.209   2.348 -0.4841  0.3506  1.4368
15571SOL     OW48434   2.617   8.010   6.263  0.6151 -0.1501 -0.5423
15571SOL    HW148435   2.537   8.015   6.210 -0.3474  0.8061  0.9087
15571SOL    HW248436   2.619   7.921   6.297  0.8104 -0.5272 -1.5335
15572SOL     OW48437   4.157   5.727   5.595  0.4551  0.0193  0.1939
15572SOL    HW148438   4.215   5.666   5.641 -0.5400 -1.8106 -0.8758
15572SOL    HW248439   4.140   5.796   5.659  2.5262 -0.2050  1.0680
15573SOL     OW48440   6.454   3.399   5.428 -0.3405 -0.0363  0.2412
15573SOL    HW148441   6.437   3.400   5.522 -2.3131 -0.4799 -0.0767
15573SOL    HW248442   6.537   3.352   5.420  0.9219  1.7424  1.8672
15574SOL     OW48443   1.368   2.623   3.828  0.0565  0.0252 -0.1952
15574SOL    HW148444   1.427   2.668   3.889 -1.3239  1.1452  0.3711
15574SOL    HW248445   1.281   2.636   3.865 -0.6174 -1.1062 -1.3071
15575SOL     OW48446   0.037   6.208   3.748  0.2343  0.0649 -0.5283
15575SOL    HW148447  -0.019   6.254   3.686  0.0075  0.6048  0.0688
15575SOL    HW248448   0.060   6.273   3.813 -0.5606 -0.7840  0.6457
15576SOL     OW48449   4.428   6.634   5.803  0.1456  0.0776 -0.4150
15576SOL    HW148450   4.410   6.700   5.736  0.6646 -1.1162 -1.7905
15576SOL    HW248451   4.486   6.678   5.865 -1.2721  1.5692 -0.0861
15577SOL     OW48452   8.159   3.540   8.943 -0.3514  0.0234  0.2838
15577SOL    HW148453   8.135   3.517   8.853 -0.0400 -2.4400  0.7369
15577SOL    HW248454   8.232   3.482   8.963 -0.1782  0.7837  2.0211
15578SOL     OW48455   8.584   4.336   2.237  0.2069  0.3994  0.1926
15578SOL    HW148456   8.552   4.413   2.190  1.6154 -0.6023 -2.6188
15578SOL    HW248457   8.679   4.348   2.241  0.4103 -1.0117  0.0206
15579SOL     OW48458   0.392   2.753   3.012 -0.3050  0.3074  0.4711
15579SOL    HW148459   0.411   2.804   2.933  0.4965 -0.1456  0.3605
15579SOL    HW248460   0.362   2.668   2.978  0.0526  0.1089  0.6592
15580SOL     OW48461   0.355   5.603   7.239 -0.2626 -0.0764 -0.1023
15580SOL    HW148462   0.433   5.583   7.290  0.3337  2.1963 -0.0246
15580SOL    HW248463   0.321   5.517   7.212  0.7321 -1.2241  2.0782
15581SOL     OW48464   1.890   5.892   3.476  0.6155 -0.3059  0.6279
15581SOL    HW148465   1.882   5.977   3.434 -0.8645 -0.4828  0.5046
15581SOL    HW248466   1.807   5.880   3.523 -0.2162 -2.6613 -1.2577
15582SOL     OW48467   9.514   9.521   3.932  0.3112  0.1570  0.4057
15582SOL    HW148468   9.496   9.433   3.964 -0.5506  0.6947  1.4627
15582SOL    HW248469   9.429   9.556   3.907  0.8569  0.0835 -1.7268
15583SOL     OW48470   2.863   8.688   9.675  0.4485 -0.1603 -0.4173
15583SOL    HW148471   2.894   8.706   9.586 -0.7597 -1.1451 -1.0891
15583SOL    HW248472   2.775   8.652   9.662 -0.0935  0.4574  1.2417
15584SOL     OW48473   8.974   8.112   0.814 -0.3753 -0.4727 -0.0993
15584SOL    HW148474   8.986   8.018   0.807 -2.2696 -0.9660  2.0597
15584SOL    HW248475   9.060   8.149   0.797  1.1089 -2.7940  1.8480
15585SOL     OW48476   7.292   2.081   1.359 -0.1275 -0.1777 -0.4428
15585SOL    HW148477   7.335   2.159   1.323 -1.6159  1.1093  0.4416
15585SOL    HW248478   7.325   2.074   1.448  0.8594 -1.2709 -0.8657
15586SOL     OW48479   4.238   4.345   6.140  0.3056  0.1741 -0.3199
15586SOL    HW148480   4.178   4.291   6.192 -0.9702  0.3126 -1.5907
15586SOL    HW248481   4.181   4.401   6.088  1.5437  0.2232 -1.6698
15587SOL     OW48482   6.499   1.712   9.071 -0.8976  0.5710 -0.4714
15587SOL    HW148483   6.497   1.795   9.119 -0.8071  0.2008  0.1860
15587SOL    HW248484   6.420   1.665   9.099 -1.5969  0.9180 -1.7545
15588SOL     OW48485   6.687   9.695   3.180 -0.0683 -0.4453 -0.6174
15588SOL    HW148486   6.772   9.681   3.139  0.3460  0.9610 -0.2746
15588SOL    HW248487   6.689   9.642   3.259  1.4255  1.3434  0.6178
15589SOL     OW48488   7.124   4.075   8.712 -0.2320  0.3291 -0.0780
15589SOL    HW148489   7.050   4.024   8.744  0.7910  0.0363  2.0185
15589SOL    HW248490   7.175   4.013   8.660 -0.9539  0.2903 -0.7609
15590SOL     OW48491   9.178   0.523   2.417  0.0702 -0.4320  0.1668
15590SOL    HW148492   9.109   0.462   2.391 -0.2384 -0.3190  0.7022
15590SOL    HW248493   9.258   0.469   2.419  0.0720 -0.4751 -0.8263
15591SOL     OW48494   8.885   9.031   1.049  0.3672 -0.0561 -0.4542
15591SOL    HW148495   8.868   9.117   1.011  0.1691  0.6385  1.1296
15591SOL    HW248496   8.813   9.018   1.111  0.4774 -1.3060 -0.5714
15592SOL     OW48497   5.938   3.542   8.559  0.9944 -0.4315 -0.0033
15592SOL    HW148498   6.012   3.541   8.619  2.6153  0.3726 -1.8874
15592SOL    HW248499   5.931   3.634   8.531 -0.4697 -0.5731 -0.1800
15593SOL     OW48500   4.667   4.838   0.814  0.4005  0.4126  0.1319
15593SOL    HW148501   4.712   4.753   0.822 -0.9559 -0.2896  0.6504
15593SOL    HW248502   4.574   4.816   0.823  0.1198  2.2370  2.7994
15594SOL     OW48503   7.680   3.392   5.330  0.3414  0.1773 -0.4002
15594SOL    HW148504   7.619   3.334   5.283 -0.4276  1.3212 -0.8624
15594SOL    HW248505   7.745   3.417   5.264  2.2340 -2.1646  0.4303
15595SOL     OW48506   2.591   1.010   3.800 -0.0790 -0.2930  0.4474
15595SOL    HW148507   2.634   0.930   3.828  0.6863 -0.3402 -0.7793
15595SOL    HW248508   2.603   1.071   3.873  4.8134  0.7117 -0.8414
15596SOL     OW48509   9.003   8.986   5.761  0.0794 -0.1073  0.0315
15596SOL    HW148510   8.928   9.006   5.704  0.4407  0.1491 -0.3586
15596SOL    HW248511   8.977   8.907   5.808  0.1319 -0.8411 -1.1487
15597SOL     OW48512   7.533   6.425   2.897  0.2582  0.1910 -0.3764
15597SOL    HW148513   7.538   6.516   2.926  0.4098  0.1532 -0.2854
15597SOL    HW248514   7.608   6.415   2.838 -1.0215  0.7841 -2.2130
15598SOL     OW48515   7.256   7.717   4.934 -0.4981  0.3288  0.6572
15598SOL    HW148516   7.227   7.757   4.852  0.1032 -0.5693 -0.0237
15598SOL    HW248517   7.346   7.690   4.916 -1.3987 -2.9197  0.4163
15599SOL     OW48518   0.966   7.003   1.227 -0.1407  0.0200 -0.0439
15599SOL    HW148519   1.021   7.080   1.223  1.5052 -1.1353 -0.7043
15599SOL    HW248520   1.012   6.937   1.174 -2.5771 -0.7580 -1.3510
15600SOL     OW48521   5.486   4.636   1.743  0.5084  0.1545 -0.1225
15600SOL    HW148522   5.503   4.608   1.654  1.7085  0.7170 -0.0969
15600SOL    HW248523   5.407   4.690   1.737  1.1211  0.9828 -1.0205
15601SOL     OW48524   2.045   1.101   5.364  0.4289 -0.5093 -0.4193
15601SOL    HW148525   2.114   1.035   5.375 -0.3355 -1.3638 -0.5999
15601SOL    HW248526   2.058   1.135   5.276 -0.7490 -2.3305 -1.3495
15602SOL     OW48527   6.665   0.200   4.699  0.2236  0.0896 -0.3751
15602SOL    HW148528   6.754   0.225   4.723  0.4679 -1.6305  0.6808
15602SOL    HW248529   6.637   0.142   4.770 -1.1371 -0.6868 -1.5043
15603SOL     OW48530   4.634   6.727   2.164  0.1359  0.2437 -0.0902
15603SOL    HW148531   4.656   6.643   2.205 -0.0972  0.3409  0.2442
15603SOL    HW248532   4.561   6.760   2.217 -0.1379  0.3974 -0.5620
15604SOL     OW48533   8.871   2.972   6.963 -0.1540  0.6139 -0.1677
15604SOL    HW148534   8.892   3.037   7.031  0.4283 -0.4464  0.6893
15604SOL    HW248535   8.849   2.893   7.012 -0.5783  0.0754 -1.2090
15605SOL     OW48536   3.648   2.398   4.567  0.3970 -0.1739 -0.0112
15605SOL    HW148537   3.577   2.414   4.504 -0.1595 -1.4306  0.2583
15605SOL    HW248538   3.652   2.477   4.620  1.0253  1.0083 -1.7398
15606SOL     OW48539   1.016   3.946   6.934  0.1337  0.0617  0.0892
15606SOL    HW148540   1.047   4.028   6.974 -0.8494  0.3991  0.1840
15606SOL    HW248541   1.058   3.877   6.985  1.6807  0.4913 -0.5501
15607SOL     OW48542   5.326   1.222   3.249 -0.1314  0.5728  0.0361
15607SOL    HW148543   5.253   1.258   3.200 -0.8258  0.2809  0.8284
15607SOL    HW248544   5.328   1.130   3.225  1.0345  0.9012 -1.2472
15608SOL     OW48545   6.261   5.975   5.282 -0.1992  0.1221  0.2588
15608SOL    HW148546   6.255   5.909   5.213  1.0592  0.1524  0.1094
15608SOL    HW248547   6.278   6.057   5.235  0.1555  0.2287  0.5748
15609SOL     OW48548   5.625   4.117   6.597  0.0603 -0.4410  0.8741
15609SOL    HW148549   5.531   4.099   6.594 -0.3380  1.5213 -0.8560
15609SOL    HW248550   5.651   4.098   6.687 -1.5929 -2.7010  0.9559
15610SOL     OW48551   3.878   0.619   2.870  0.2792  0.6130 -0.5859
15610SOL    HW148552   3.807   0.655   2.817 -0.9220  0.9758  1.1809
15610SOL    HW248553   3.858   0.648   2.959  1.6910 -0.7619  0.2178
15611SOL     OW48554   0.602   9.485   8.787  0.3580 -0.0966 -0.4756
15611SOL    HW148555   0.648   9.521   8.864 -1.8523 -0.5127  1.1354
15611SOL    HW248556   0.579   9.562   8.735  0.3289  0.3772  0.2138
15612SOL     OW48557   9.058   7.554   7.168  0.3583 -0.0172 -0.0219
15612SOL    HW148558   8.974   7.538   7.210 -0.2730  1.7844 -0.4750
15612SOL    HW248559   9.118   7.493   7.210 -0.8466 -0.2744  1.4320
15613SOL     OW48560   1.640   8.686   3.128  0.0473  0.0748 -0.0497
15613SOL    HW148561   1.610   8.655   3.214 -1.7991 -0.3583 -0.8024
15613SOL    HW248562   1.661   8.778   3.143  0.1878 -0.1044  0.9721
15614SOL     OW48563   5.250   8.999   0.850 -0.0866  0.5819  0.2728
15614SOL    HW148564   5.265   8.944   0.772 -1.0071 -0.5653  0.8748
15614SOL    HW248565   5.268   9.088   0.820  1.9632 -0.0747 -0.6050
15615SOL     OW48566   6.756   0.363   0.292  0.1363  0.0693  0.0197
15615SOL    HW148567   6.674   0.315   0.281 -0.5844  0.8669  1.5835
15615SOL    HW248568   6.816   0.299   0.330  0.6815 -0.8748 -2.2708
15616SOL     OW48569   6.478   1.483   6.987  0.0509  0.3187 -0.2602
15616SOL    HW148570   6.430   1.561   6.958  2.2607  2.5582  1.5983
15616SOL    HW248571   6.509   1.506   7.075  0.4029 -2.9169  0.5655
15617SOL     OW48572   5.510   6.631   2.773 -0.4220  0.1578  0.0713
15617SOL    HW148573   5.467   6.677   2.701 -0.0810  0.5417  0.1039
15617SOL    HW248574   5.452   6.559   2.795 -1.5507  1.2401  0.7701
15618SOL     OW48575   6.903   4.917   1.919 -0.2553  0.1543  0.6001
15618SOL    HW148576   6.998   4.912   1.913 -0.1518  1.1140  1.2664
15618SOL    HW248577   6.872   4.848   1.860  0.7991  2.0401 -2.3908
15619SOL     OW48578   9.097   8.577   1.139  0.0866  0.2967  0.8038
15619SOL    HW148579   9.068   8.600   1.051 -1.4054  0.7587  1.3891
15619SOL    HW248580   9.123   8.660   1.179 -0.9181  0.3614  1.3653
15620SOL     OW48581   3.587   1.049   1.099 -0.7269  0.4123 -0.8399
15620SOL    HW148582   3.542   0.987   1.157 -0.6692  1.9080  0.8961
15620SOL    HW248583   3.581   1.009   1.012 -0.0704 -2.3590  0.2863
15621SOL     OW48584   2.247   3.278   6.101 -0.0152 -0.8037 -0.5001
15621SOL    HW148585   2.342   3.279   6.115  0.1430 -0.2829 -1.5091
15621SOL    HW248586   2.213   3.223   6.172  0.8926  0.1066  0.6748
15622SOL     OW48587   8.635   9.039   1.909  0.3430  0.0734 -0.2821
15622SOL    HW148588   8.675   8.972   1.964  0.0271  0.7399  0.7999
15622SOL    HW248589   8.596   8.991   1.836 -1.3888 -1.1290  1.3462
15623SOL     OW48590   4.212   6.140   7.613 -0.2841  0.0299 -0.3673
15623SOL    HW148591   4.167   6.219   7.644 -1.4848 -0.4168 -0.8963
15623SOL    HW248592   4.305   6.160   7.621 -0.5325  2.0055 -1.6632
15624SOL     OW48593   8.735   0.656   0.722  0.4335  0.5244 -0.0201
15624SOL    HW148594   8.752   0.704   0.641  0.1508  1.4423  0.4460
15624SOL    HW248595   8.659   0.700   0.760  0.4376 -0.0233  0.6366
15625SOL     OW48596   1.645   2.515   5.888  0.1213 -0.1337 -0.6443
15625SOL    HW148597   1.694   2.554   5.960 -1.2101  0.6985 -0.1625
15625SOL    HW248598   1.685   2.429   5.875 -0.2707 -0.7326  1.7716
15626SOL     OW48599   6.384   8.302   8.766  0.0134  0.1651 -0.3263
15626SOL    HW148600   6.412   8.271   8.680 -0.0830  0.3258 -0.4144
15626SOL    HW248601   6.314   8.364   8.748 -1.5282 -1.4032 -0.0493
15627SOL     OW48602   7.162   3.478   8.413 -0.2250 -0.0343 -0.3021
15627SOL    HW148603   7.167   3.426   8.493  0.4876 -0.6061 -0.7006
15627SOL    HW248604   7.069   3.496   8.401 -0.4267 -0.7702  0.1271
15628SOL     OW48605   7.435   4.233   2.056  0.1735 -0.1015 -0.1532
15628SOL    HW148606   7.410   4.314   2.099 -2.6057  0.3501 -2.3499
15628SOL    HW248607   7.356   4.203   2.012  1.2645 -3.7060  0.0026
15629SOL     OW48608   0.623   9.252   9.099  0.1785 -0.4895 -0.0199
15629SOL    HW148609   0.629   9.243   9.004  0.1558 -0.5822 -0.0133
15629SOL    HW248610   0.632   9.345   9.116  0.9361 -0.5493 -0.0615
15630SOL     OW48611   8.900   5.238   3.316  0.4250 -0.0374  0.0142
15630SOL    HW148612   8.932   5.252   3.405  0.9724 -0.7020 -0.0646
15630SOL    HW248613   8.963   5.285   3.260  1.7071 -1.8836 -0.1852
15631SOL     OW48614   5.931   7.341   8.823 -0.3586 -0.3159  0.6012
15631SOL    HW148615   6.024   7.354   8.804 -0.5038  1.5261  0.9776
15631SOL    HW248616   5.930   7.300   8.909  0.1139  0.4375  0.9815
15632SOL     OW48617   1.447   7.661   1.172 -0.5521  0.4875 -0.0323
15632SOL    HW148618   1.540   7.664   1.193 -0.9075  4.1613  1.9306
15632SOL    HW248619   1.406   7.620   1.248 -0.6232 -0.6496 -0.6659
15633SOL     OW48620   0.403   4.447   0.311  0.4134 -0.3110  0.0218
15633SOL    HW148621   0.488   4.413   0.339  0.5431 -0.4674 -0.5472
15633SOL    HW248622   0.343   4.426   0.383  1.1403  1.0835  1.0735
15634SOL     OW48623   1.803   0.475   0.557  0.0699  0.5769  0.1255
15634SOL    HW148624   1.856   0.526   0.496 -0.4540  0.2599 -0.6175
15634SOL    HW248625   1.852   0.394   0.570 -0.7852 -0.2696 -1.5655
15635SOL     OW48626   3.698   4.812   1.932 -0.1784 -0.4637  0.3521
15635SOL    HW148627   3.706   4.717   1.928  1.0052 -0.5074  2.3585
15635SOL    HW248628   3.741   4.837   2.014 -0.7082  1.7841  0.0335
15636SOL     OW48629   9.177   0.268   6.112  0.3489  0.1217  0.1671
15636SOL    HW148630   9.166   0.227   6.027  1.0302  0.2488  0.0090
15636SOL    HW248631   9.131   0.210   6.173 -1.6328  0.9418 -0.4888
15637SOL     OW48632   6.354   7.517   6.331  0.7764 -0.0325 -0.6442
15637SOL    HW148633   6.447   7.506   6.347  0.8898  0.9090 -0.6059
15637SOL    HW248634   6.333   7.603   6.367 -0.5725 -1.1014  1.3347
15638SOL     OW48635   4.428   3.414   3.571 -0.1545 -0.1533  0.4006
15638SOL    HW148636   4.447   3.432   3.663  0.0336  0.3573  0.2647
15638SOL    HW248637   4.377   3.490   3.541 -1.2335 -0.8532  0.3870
15639SOL     OW48638   4.975   4.846   2.914  0.3137  0.1264  0.5559
15639SOL    HW148639   4.942   4.767   2.957 -2.6507  1.4913  1.0351
15639SOL    HW248640   4.983   4.821   2.822 -0.3123 -0.8345  0.7441
15640SOL     OW48641   9.625   8.917   6.972 -0.1621  0.2085 -0.0259
15640SOL    HW148642   9.554   8.884   7.027  0.0210 -1.7492 -0.8767
15640SOL    HW248643   9.702   8.916   7.030 -0.1058 -1.2301 -0.0686
15641SOL     OW48644   4.851   3.884   8.692 -0.1731  0.3721  0.2215
15641SOL    HW148645   4.890   3.810   8.645  0.2205  1.1271 -0.6889
15641SOL    HW248646   4.897   3.960   8.657 -1.0599  1.1029  0.6245
15642SOL     OW48647   7.478   0.299   0.875  0.1397  0.5351 -0.5383
15642SOL    HW148648   7.561   0.255   0.895 -0.1546 -1.0707 -2.5349
15642SOL    HW248649   7.411   0.242   0.914 -0.1511  0.1575 -1.5605
15643SOL     OW48650   2.160   4.545   6.422 -0.1548  0.0895 -0.2637
15643SOL    HW148651   2.204   4.567   6.504  0.0302  0.7225 -0.5313
15643SOL    HW248652   2.168   4.624   6.368 -1.2126  0.0575 -0.4900
15644SOL     OW48653   4.296   1.893   5.777  0.0163 -0.5015  0.1608
15644SOL    HW148654   4.375   1.940   5.751 -0.4898  2.7478  3.6337
15644SOL    HW248655   4.226   1.931   5.723  0.2499 -0.5893 -0.2066
15645SOL     OW48656   5.863   9.267   2.923  0.3841  0.5377  0.7084
15645SOL    HW148657   5.810   9.327   2.975  0.0424  0.5892  0.3008
15645SOL    HW248658   5.800   9.220   2.868  0.6357 -0.2745  1.1006
15646SOL     OW48659   5.221   2.848   7.044  0.0543 -0.3877 -0.4513
15646SOL    HW148660   5.268   2.928   7.070  1.3944 -1.7434  1.6418
15646SOL    HW248661   5.288   2.792   7.005 -0.8668 -0.5313 -1.8855
15647SOL     OW48662   6.357   6.044   0.706  0.1830 -0.8028 -0.5197
15647SOL    HW148663   6.438   6.076   0.747 -1.1320  1.1045  0.7499
15647SOL    HW248664   6.382   6.022   0.617  2.2645 -1.0495  0.0678
15648SOL     OW48665   9.589   2.033   2.641 -0.0911 -0.0845  0.0539
15648SOL    HW148666   9.554   1.958   2.689  2.9016 -2.1807 -0.8147
15648SOL    HW248667   9.536   2.037   2.561 -1.0842 -0.4491  0.6776
15649SOL     OW48668   6.772   5.542   3.424 -0.0007  0.1504 -0.7592
15649SOL    HW148669   6.753   5.612   3.487 -0.7517 -1.2733  0.6352
15649SOL    HW248670   6.714   5.560   3.350 -1.0915  0.3218  0.1141
15650SOL     OW48671   8.472   4.480   6.929  0.4130  0.6656  0.3831
15650SOL    HW148672   8.556   4.526   6.932 -0.0709  1.8532 -1.9661
15650SOL    HW248673   8.470   4.439   6.842  0.1827 -2.6922  1.7992
15651SOL     OW48674   2.248   8.882   4.791 -0.2942 -0.3008 -0.3515
15651SOL    HW148675   2.247   8.946   4.720 -2.2986  1.2369  0.9423
15651SOL    HW248676   2.168   8.900   4.840 -0.2658 -3.0023  0.8298
15652SOL     OW48677   1.784   2.734   2.987  0.4259 -0.0984  0.1854
15652SOL    HW148678   1.868   2.746   2.941  0.4815  1.9776  0.6991
15652SOL    HW248679   1.734   2.676   2.930  1.7951 -0.4583 -0.7106
15653SOL     OW48680   4.302   5.490   7.589  0.1359 -0.0430 -0.1889
15653SOL    HW148681   4.240   5.421   7.613  0.8664 -0.5777  0.1836
15653SOL    HW248682   4.246   5.562   7.559 -0.7513 -0.0670  1.2762
15654SOL     OW48683   9.099   8.752   7.349  0.1079 -0.0853 -0.4412
15654SOL    HW148684   9.058   8.673   7.313 -0.0663 -0.4051  0.4490
15654SOL    HW248685   9.056   8.824   7.303 -1.1539 -0.4277  0.1619
15655SOL     OW48686   5.363   7.797   8.982  0.5013  0.3968 -0.1605
15655SOL    HW148687   5.365   7.835   9.070  0.9686 -1.6132  0.7454
15655SOL    HW248688   5.319   7.713   8.993  0.2816  0.2426 -1.9218
15656SOL     OW48689   0.594   3.350   2.403  0.1592  0.4980  0.0590
15656SOL    HW148690   0.661   3.407   2.441  1.6490 -0.5778 -0.8287
15656SOL    HW248691   0.511   3.391   2.427  1.1357  2.7025 -0.0365
15657SOL     OW48692   4.523   2.071   5.683  0.1221 -0.3721 -0.1966
15657SOL    HW148693   4.564   2.079   5.597  0.1906  0.1508 -0.1148
15657SOL    HW248694   4.499   2.160   5.707  1.4107 -0.3034  0.9722
15658SOL     OW48695   0.614   7.513   2.511 -0.3477 -0.1269 -0.7585
15658SOL    HW148696   0.530   7.481   2.479  1.1237 -3.0182 -2.0802
15658SOL    HW248697   0.678   7.478   2.449  2.1808 -1.2211  2.2404
15659SOL     OW48698   9.238   1.587   6.540 -0.0900 -0.3006  0.7179
15659SOL    HW148699   9.263   1.500   6.510 -0.0689 -0.0576  0.0202
15659SOL    HW248700   9.174   1.570   6.610 -2.0964 -0.8843 -1.1344
15660SOL     OW48701   5.461   4.673   8.338 -0.4011 -0.4988 -0.3922
15660SOL    HW148702   5.387   4.612   8.333 -2.5073  1.7932  0.3120
15660SOL    HW248703   5.462   4.717   8.253  0.1820 -0.5185 -0.3985
15661SOL     OW48704   2.435   1.592   9.375  0.1577 -0.0541  0.6492
15661SOL    HW148705   2.520   1.635   9.387 -0.1066  0.5120  0.4862
15661SOL    HW248706   2.376   1.661   9.347 -0.2531 -0.5391  0.2909
15662SOL     OW48707   4.585   3.643   2.842 -0.9376  0.0187  0.2096
15662SOL    HW148708   4.576   3.656   2.936 -0.9857  0.4277  0.1497
15662SOL    HW248709   4.576   3.730   2.804  1.5984  0.2795 -0.0004
15663SOL     OW48710   3.390   0.486   4.398 -0.2946  0.8297  0.1125
15663SOL    HW148711   3.343   0.525   4.325  0.0712  0.7208 -0.1847
15663SOL    HW248712   3.332   0.499   4.473  0.2275  2.8350  0.2313
15664SOL     OW48713   7.220   8.481   9.284  0.2254 -0.3986  0.2735
15664SOL    HW148714   7.217   8.554   9.346 -0.9953 -0.4290  0.2759
15664SOL    HW248715   7.146   8.496   9.226  0.8499 -0.8372 -0.6650
15665SOL     OW48716   6.771   3.473   1.458 -0.1415  0.5667  0.0312
15665SOL    HW148717   6.779   3.381   1.483 -0.2819  0.4548 -0.3216
15665SOL    HW248718   6.858   3.499   1.430 -0.4078  0.0969 -1.3298
15666SOL     OW48719   0.263   3.414   6.479 -0.0624 -0.2214  0.6272
15666SOL    HW148720   0.231   3.325   6.497  0.5666 -0.5519  0.1551
15666SOL    HW248721   0.292   3.446   6.564  0.6576 -0.8585  0.6305
15667SOL     OW48722   5.854   8.688   5.562 -0.6977  0.1854  0.1011
15667SOL    HW148723   5.869   8.712   5.471 -0.2031  1.2415  0.4389
15667SOL    HW248724   5.833   8.771   5.605  0.0360 -0.1326  1.1153
15668SOL     OW48725   5.095   1.498   2.881  0.0805 -0.2322  0.0273
15668SOL    HW148726   5.026   1.492   2.816 -0.1385 -0.5112  0.2826
15668SOL    HW248727   5.063   1.561   2.946  1.0567  1.4400 -1.0418
15669SOL     OW48728   2.862   4.053   7.822  0.1565 -0.2996  0.4390
15669SOL    HW148729   2.954   4.078   7.834  0.2101  0.5699 -1.4241
15669SOL    HW248730   2.832   4.107   7.749 -1.5406 -1.3535  0.3010
15670SOL     OW48731   8.988   5.445   9.033  0.0684 -0.6306 -0.0459
15670SOL    HW148732   8.971   5.502   8.959 -0.9778 -0.4773  0.3010
15670SOL    HW248733   8.981   5.502   9.110  0.3661 -0.9461  0.2196
15671SOL     OW48734   2.576   6.317   1.224 -0.0902  0.6872 -0.1045
15671SOL    HW148735   2.503   6.343   1.168  0.6306 -0.3110 -1.5829
15671SOL    HW248736   2.650   6.369   1.192  0.7194 -1.0606 -1.2567
15672SOL     OW48737   2.609   1.470   7.856 -0.4978  0.3683  0.1434
15672SOL    HW148738   2.583   1.447   7.946  0.6700 -1.7673 -0.0060
15672SOL    HW248739   2.546   1.424   7.801 -1.2597  1.7404 -0.1754
15673SOL     OW48740   1.079   3.019   7.509 -0.2847 -0.0452  0.1320
15673SOL    HW148741   1.087   2.995   7.417  0.0937  0.7358 -0.0478
15673SOL    HW248742   1.078   2.935   7.556 -0.4946 -0.4461 -0.5798
15674SOL     OW48743   5.284   1.830   2.876 -0.1009  0.1416  0.1026
15674SOL    HW148744   5.313   1.759   2.934 -1.7677 -0.7746 -0.0964
15674SOL    HW248745   5.363   1.857   2.830  0.3031 -3.1713 -1.4759
15675SOL     OW48746   4.632   0.906   5.287 -0.5030 -0.3027 -0.3380
15675SOL    HW148747   4.537   0.898   5.277 -0.5791 -2.4505  1.2139
15675SOL    HW248748   4.649   0.879   5.378  1.6328 -0.4722 -0.7282
15676SOL     OW48749   7.900   3.410   8.382 -0.1745 -0.3950 -0.2127
15676SOL    HW148750   7.830   3.440   8.440 -1.8006 -0.0923 -2.2493
15676SOL    HW248751   7.969   3.380   8.442 -1.4896  0.5058  1.8577
15677SOL     OW48752   9.612   5.430   2.300 -0.0568  0.4128  0.0370
15677SOL    HW148753   9.533   5.434   2.246  0.0994 -1.4307 -0.3823
15677SOL    HW248754   9.622   5.338   2.322  1.3656  0.7710  1.0319
15678SOL     OW48755   3.303   0.693   9.496 -0.0349 -0.5163 -0.9249
15678SOL    HW148756   3.233   0.728   9.441  0.2667  2.3679  0.3367
15678SOL    HW248757   3.384   0.714   9.448  0.2711  2.5565  0.6513
15679SOL     OW48758   0.893   5.117   4.849  0.1183  0.0317 -0.0668
15679SOL    HW148759   0.901   5.035   4.898  0.1154  0.6411  0.9922
15679SOL    HW248760   0.839   5.174   4.905  2.2293  1.6493  0.4410
15680SOL     OW48761   4.769   8.863   7.006  0.7182 -0.8318 -0.4357
15680SOL    HW148762   4.857   8.860   7.043  0.1464  1.5841  1.3830
15680SOL    HW248763   4.783   8.871   6.911  2.5802  1.5097 -0.0625
15681SOL     OW48764   4.707   3.361   8.312 -0.1404 -0.0826 -0.2103
15681SOL    HW148765   4.626   3.352   8.362 -0.0344 -1.3509 -0.2423
15681SOL    HW248766   4.692   3.309   8.233  1.6767 -2.7137  1.0150
15682SOL     OW48767   4.208   7.966   2.019 -0.2852 -0.1612  0.2425
15682SOL    HW148768   4.145   7.998   1.954  0.5058 -0.6826 -0.8056
15682SOL    HW248769   4.157   7.957   2.099 -1.1445  1.1001 -0.1253
15683SOL     OW48770   4.167   0.874   7.519 -0.0316  0.1002  0.1026
15683SOL    HW148771   4.149   0.786   7.484  2.3353 -0.9768  1.3610
15683SOL    HW248772   4.239   0.907   7.466  0.0390  0.6831  0.5590
15684SOL     OW48773   8.858   6.309   7.472 -0.1099  0.6039  0.5144
15684SOL    HW148774   8.864   6.292   7.566  0.1349 -2.3796  0.0720
15684SOL    HW248775   8.773   6.273   7.446  0.1961  0.5996 -0.5286
15685SOL     OW48776   7.059   7.745   0.835  0.0828  0.0515  0.3769
15685SOL    HW148777   7.143   7.781   0.808 -0.0820 -0.9551 -1.6639
15685SOL    HW248778   7.081   7.665   0.881  0.2669  0.0585  0.3035
15686SOL     OW48779   9.267   6.171   7.605 -0.1689 -0.3570 -0.0989
15686SOL    HW148780   9.226   6.173   7.518 -0.3179  1.7085 -0.0240
15686SOL    HW248781   9.311   6.255   7.612  1.9391 -1.4814  0.8804
15687SOL     OW48782   8.655   6.952   2.276 -0.3013 -0.1087  0.2824
15687SOL    HW148783   8.684   6.875   2.326  1.4111  2.0642  2.8938
15687SOL    HW248784   8.577   6.982   2.322 -1.1261 -0.3710 -0.8937
15688SOL     OW48785   5.890   3.771   4.951 -0.0566 -0.0532 -0.0617
15688SOL    HW148786   5.798   3.786   4.972 -0.2816 -1.3919 -0.0546
15688SOL    HW248787   5.925   3.859   4.934 -1.1242  0.5546  0.7657
15689SOL     OW48788   5.648   1.639   9.124 -0.2060 -0.2047 -0.5625
15689SOL    HW148789   5.687   1.599   9.202 -1.0106 -2.1221 -1.0812
15689SOL    HW248790   5.573   1.688   9.157  2.0978  3.0253  0.3751
15690SOL     OW48791   3.464   5.679   7.280 -0.3723  0.0904  0.2269
15690SOL    HW148792   3.386   5.725   7.312  0.7066  2.0234  0.2058
15690SOL    HW248793   3.536   5.738   7.300  1.0484 -1.4404 -0.2063
15691SOL     OW48794   0.243   7.165   5.581 -0.1352  0.1284  0.4098
15691SOL    HW148795   0.154   7.151   5.614 -0.8922  1.0848 -1.0832
15691SOL    HW248796   0.299   7.113   5.638 -1.5694  0.1308  1.8862
15692SOL     OW48797   5.809   8.446   4.917 -0.0491 -0.0403  0.2331
15692SOL    HW148798   5.828   8.356   4.944 -1.9591 -0.5853 -0.0782
15692SOL    HW248799   5.849   8.455   4.831 -0.7319 -0.9512 -0.1889
15693SOL     OW48800   5.737   3.167   8.793  0.0386  0.6953  0.4983
15693SOL    HW148801   5.698   3.101   8.735  0.0540 -0.6708  1.9847
15693SOL    HW248802   5.805   3.208   8.739  0.4369 -0.9291 -0.3035
15694SOL     OW48803   3.811   0.993   9.284 -0.2183 -0.2616  0.0004
15694SOL    HW148804   3.718   0.987   9.263 -0.4183  1.6088  0.1346
15694SOL    HW248805   3.832   1.086   9.272  1.1183 -0.2404  2.0235
15695SOL     OW48806   6.735   2.184   1.583 -0.0060 -0.0920  0.0485
15695SOL    HW148807   6.811   2.182   1.641 -0.4981  0.9293  0.7453
15695SOL    HW248808   6.772   2.182   1.494  0.7435 -1.8829  0.3576
15696SOL     OW48809   6.635   3.280   2.506 -0.3572 -0.1742 -0.0019
15696SOL    HW148810   6.619   3.369   2.536 -0.4961  0.2609 -1.3133
15696SOL    HW248811   6.553   3.234   2.522 -0.6916  0.2609 -0.4450
15697SOL     OW48812   4.482   7.032   0.843  0.1267 -0.0079  0.0071
15697SOL    HW148813   4.463   7.126   0.846 -0.2329 -0.0271 -1.1251
15697SOL    HW248814   4.577   7.027   0.832  0.4237  0.1608  2.1756
15698SOL     OW48815   4.507   4.291   2.387  0.1871 -0.0496  0.0803
15698SOL    HW148816   4.422   4.294   2.431  0.9256  0.2390  1.5537
15698SOL    HW248817   4.521   4.381   2.358 -0.6165 -0.3754 -1.4659
15699SOL     OW48818   3.704   6.040   6.206  0.5349 -0.0488 -0.5799
15699SOL    HW148819   3.678   6.114   6.151 -1.1195  0.1111  0.3622
15699SOL    HW248820   3.650   5.967   6.174  0.4947 -0.2667 -0.0197
15700SOL     OW48821   8.894   0.183   0.406 -0.1007  0.5301 -0.0936
15700SOL    HW148822   8.961   0.226   0.459  2.0632 -1.6503 -0.8832
15700SOL    HW248823   8.853   0.121   0.466  1.5329 -1.0909 -0.5721
15701SOL     OW48824   9.269   6.934   2.359 -0.6583  0.3025 -0.3111
15701SOL    HW148825   9.204   6.865   2.349 -0.5470  0.1941 -0.2997
15701SOL    HW248826   9.346   6.901   2.311  0.4623 -0.9719  2.1646
15702SOL     OW48827   3.915   0.104   9.517  0.2187 -0.5100 -0.4070
15702SOL    HW148828   3.958   0.031   9.561  0.1275 -0.6949 -0.6220
15702SOL    HW248829   3.871   0.064   9.442 -0.7652 -0.4222  0.0931
15703SOL     OW48830   3.564   7.097   1.238  0.5077 -0.4106 -0.1352
15703SOL    HW148831   3.653   7.130   1.229  0.1568  0.4093 -0.7493
15703SOL    HW248832   3.542   7.110   1.330  1.0709 -0.7581  0.0483
15704SOL     OW48833   3.467   3.176   9.573 -0.3152 -0.1899 -0.2195
15704SOL    HW148834   3.441   3.205   9.661 -0.6249  0.4268 -0.5059
15704SOL    HW248835   3.450   3.082   9.573  2.0829 -0.6925  1.2293
15705SOL     OW48836   7.080   7.370   4.435 -0.4384  0.1349 -0.3855
15705SOL    HW148837   7.142   7.298   4.443  0.3091  0.4867 -2.4429
15705SOL    HW248838   7.012   7.337   4.376  0.2854  1.2975 -1.9359
15706SOL     OW48839   7.795   9.658   3.128 -0.4166  0.1206 -0.3882
15706SOL    HW148840   7.790   9.564   3.110 -0.6220  0.2312 -0.9447
15706SOL    HW248841   7.788   9.665   3.223 -0.3277 -0.4330 -0.3409
15707SOL     OW48842   2.018   6.301   2.971 -0.1403 -0.5336 -0.5394
15707SOL    HW148843   1.944   6.273   3.025 -0.4205 -0.0803 -0.6768
15707SOL    HW248844   2.090   6.313   3.032 -0.7202  0.9465 -0.0920
15708SOL     OW48845   6.700   7.764   8.151  0.5096 -0.1461 -0.0674
15708SOL    HW148846   6.784   7.719   8.155 -0.6604 -2.3757  1.1730
15708SOL    HW248847   6.639   7.699   8.117 -1.1823  0.6559  1.2617
15709SOL     OW48848   5.893   9.612   0.613 -0.2259 -0.0727  0.2812
15709SOL    HW148849   5.971   9.636   0.563 -0.0899 -1.6238 -0.3210
15709SOL    HW248850   5.881   9.684   0.675 -0.3785  1.9067 -1.9162
15710SOL     OW48851   4.147   3.489   7.746  0.0035 -0.5123 -0.2004
15710SOL    HW148852   4.090   3.534   7.809 -0.0600 -2.1275  0.9724
15710SOL    HW248853   4.130   3.396   7.761  1.5772 -0.9908 -1.1380
15711SOL     OW48854   1.223   8.052   4.069  0.7787 -0.4992  0.2890
15711SOL    HW148855   1.270   8.023   3.991  0.7322 -0.7149  0.3413
15711SOL    HW248856   1.279   8.025   4.142 -0.2641 -2.3632  0.4413
15712SOL     OW48857   0.718   4.591   0.892  0.2086 -0.0015 -0.1461
15712SOL    HW148858   0.642   4.649   0.894 -1.4651 -2.0980  0.4017
15712SOL    HW248859   0.707   4.534   0.968  2.2726 -0.4817 -0.1453
15713SOL     OW48860   5.870   3.975   3.106  0.5508 -0.0673  0.0540
15713SOL    HW148861   5.918   4.033   3.165  0.9515  0.3325 -0.6598
15713SOL    HW248862   5.810   4.032   3.059 -2.1876 -0.7947  2.3772
15714SOL     OW48863   6.669   7.390   3.777  0.0149  0.3818  0.2977
15714SOL    HW148864   6.586   7.407   3.821  0.3446  1.9182  0.3829
15714SOL    HW248865   6.650   7.320   3.716 -0.9683 -0.3279  1.3874
15715SOL     OW48866   6.261   2.369   5.463  0.2146 -0.3443 -0.7649
15715SOL    HW148867   6.166   2.378   5.450  0.0164 -0.3748  0.5299
15715SOL    HW248868   6.279   2.276   5.448  0.4050 -0.0010 -3.0161
15716SOL     OW48869   0.687   9.266   7.090  0.2388 -0.0491 -0.2890
15716SOL    HW148870   0.759   9.299   7.036  1.6720 -3.0805 -0.4309
15716SOL    HW248871   0.712   9.288   7.180  0.4180  0.4941 -0.4705
15717SOL     OW48872   8.485   2.578   8.934 -0.3196  0.5600  0.1224
15717SOL    HW148873   8.474   2.669   8.961 -0.5176  1.9568 -4.0581
15717SOL    HW248874   8.569   2.576   8.889 -0.3368 -1.3615  0.1053
15718SOL     OW48875   3.231   8.232   2.898  0.0899 -0.2132 -0.7307
15718SOL    HW148876   3.187   8.151   2.926  1.8822 -0.5233  1.5703
15718SOL    HW248877   3.320   8.204   2.878  0.6757  1.1247 -0.1216
15719SOL     OW48878   2.437   5.391   7.171  0.6943 -0.2619  0.3333
15719SOL    HW148879   2.440   5.307   7.217 -0.5820 -1.4426 -1.5993
15719SOL    HW248880   2.346   5.400   7.143  1.2024  0.8569 -1.0707
15720SOL     OW48881   0.183   2.065   7.017  0.3496 -0.3660  0.5555
15720SOL    HW148882   0.254   2.021   6.971  2.6194  0.6141  2.9111
15720SOL    HW248883   0.137   1.994   7.063  1.4313 -0.7406  1.0863
15721SOL     OW48884   6.568   9.024   2.845  0.4120 -0.0993 -0.0605
15721SOL    HW148885   6.486   8.980   2.824  0.9603 -1.6910  0.8867
15721SOL    HW248886   6.604   9.050   2.760  0.0225 -1.4737 -0.6827
15722SOL     OW48887   7.601   8.548   4.819 -0.8678  0.2452  0.4958
15722SOL    HW148888   7.681   8.561   4.869  0.4642 -0.4150 -1.3648
15722SOL    HW248889   7.570   8.461   4.845 -0.8455  0.4040  1.0476
15723SOL     OW48890   1.684   3.027   4.009 -0.6631 -0.0201  0.3593
15723SOL    HW148891   1.760   3.069   3.967 -2.1019  1.2165 -1.1504
15723SOL    HW248892   1.646   3.096   4.063 -0.5007 -0.7657  1.4558
15724SOL     OW48893   5.981   4.330   3.695 -0.2245 -0.3912 -0.5667
15724SOL    HW148894   6.062   4.352   3.740  0.4271 -0.1110 -1.8482
15724SOL    HW248895   5.912   4.356   3.756  0.6326 -1.7057  1.0471
15725SOL     OW48896   1.336   2.226   0.523 -0.2813 -0.1822 -0.3273
15725SOL    HW148897   1.400   2.287   0.485 -0.1840 -0.5487 -0.7564
15725SOL    HW248898   1.263   2.282   0.549  0.0466  0.1915 -0.1966
15726SOL     OW48899   9.020   0.469   8.563 -0.4692 -0.2722 -0.0026
15726SOL    HW148900   8.977   0.541   8.515 -1.9324 -1.8686 -1.2096
15726SOL    HW248901   8.958   0.447   8.633 -0.5200 -1.0157 -0.2756
15727SOL     OW48902   2.154   3.491   1.265 -0.0517 -0.4515 -0.4770
15727SOL    HW148903   2.113   3.557   1.320  0.8656  0.4073 -0.7976
15727SOL    HW248904   2.211   3.442   1.326 -1.4881 -1.6413 -0.0341
15728SOL     OW48905   3.067   6.741   4.505  0.1371  0.4241 -0.4876
15728SOL    HW148906   3.024   6.771   4.585  0.7438 -0.0828  0.0350
15728SOL    HW248907   3.060   6.646   4.507  0.6295  0.3735 -0.7620
15729SOL     OW48908   5.098   6.286   6.255  0.5230  0.4029 -0.0174
15729SOL    HW148909   5.090   6.220   6.324  3.6283  1.5276  1.5722
15729SOL    HW248910   5.007   6.312   6.237 -0.5906 -2.0209  1.4753
15730SOL     OW48911   8.075   3.048   3.473  0.1599  0.7713 -0.1247
15730SOL    HW148912   8.076   2.953   3.487  3.0964  0.6584 -0.5199
15730SOL    HW248913   8.014   3.060   3.401  1.0646 -1.0919 -1.2939
15731SOL     OW48914   5.808   6.835   3.073  0.4413  0.2228 -0.1419
15731SOL    HW148915   5.886   6.890   3.065  0.9193 -0.6257 -1.6571
15731SOL    HW248916   5.837   6.762   3.128  0.4555  0.3462  0.0163
15732SOL     OW48917   8.499   0.812   0.808  0.3930  0.0532  0.1438
15732SOL    HW148918   8.440   0.780   0.739 -0.1408  1.2148  0.0521
15732SOL    HW248919   8.457   0.785   0.890  0.8444 -1.0092  0.0436
15733SOL     OW48920   1.087   1.119   0.826  0.5138 -0.1027  0.0687
15733SOL    HW148921   1.003   1.075   0.824  0.1160  0.6434 -1.7530
15733SOL    HW248922   1.144   1.060   0.875 -0.4942 -1.6807 -0.5730
15734SOL     OW48923   8.158   2.434   1.310  0.4852 -0.7893  0.2595
15734SOL    HW148924   8.211   2.407   1.235  0.5786 -1.6090  0.6106
15734SOL    HW248925   8.146   2.354   1.361  0.7397 -0.1617  1.3212
15735SOL     OW48926   5.242   1.464   3.857 -0.7945 -0.8097 -0.6428
15735SOL    HW148927   5.303   1.441   3.927 -3.7316 -2.3366  1.6726
15735SOL    HW248928   5.219   1.556   3.875 -0.3926 -0.7308 -0.5297
15736SOL     OW48929   2.778   7.753   8.560  0.8118  0.1448  0.2933
15736SOL    HW148930   2.826   7.768   8.642 -0.7373 -2.0053  1.7227
15736SOL    HW248931   2.805   7.665   8.534  0.2067  0.2590 -0.7441
15737SOL     OW48932   8.951   4.031   0.295 -0.8505  0.1445 -0.3878
15737SOL    HW148933   9.040   4.029   0.260 -0.7076 -0.4517  0.0088
15737SOL    HW248934   8.953   3.975   0.372 -1.8676 -0.9015 -1.0860
15738SOL     OW48935   4.743   4.823   5.385  0.2402 -0.0087 -0.2327
15738SOL    HW148936   4.725   4.832   5.291 -0.0869 -0.7320 -0.2460
15738SOL    HW248937   4.779   4.908   5.411  1.0045 -0.0310 -1.1598
15739SOL     OW48938   8.468   5.615   5.662 -0.1736 -0.2693 -0.4731
15739SOL    HW148939   8.507   5.665   5.734  1.5818 -1.7469 -0.3166
15739SOL    HW248940   8.374   5.620   5.677  0.1477 -0.9880  2.2694
15740SOL     OW48941   2.495   8.888   9.317 -0.2259  0.9061  0.4072
15740SOL    HW148942   2.464   8.797   9.317  1.7506  0.1749 -1.0293
15740SOL    HW248943   2.417   8.939   9.339 -1.5193 -1.0853  0.7394
15741SOL     OW48944   3.153   6.232   4.605 -0.2483  0.1254 -0.1548
15741SOL    HW148945   3.141   6.187   4.521  1.5852  0.4921 -0.6561
15741SOL    HW248946   3.203   6.170   4.657  0.8344  0.8875 -0.2560
15742SOL     OW48947   5.269   1.161   1.140 -0.7061  0.2276 -0.2848
15742SOL    HW148948   5.276   1.068   1.117 -1.6174 -0.7798  2.9355
15742SOL    HW248949   5.194   1.192   1.089 -1.5429 -1.3309 -0.0925
15743SOL     OW48950   9.356   0.612   3.825 -0.3264 -0.0286 -0.0984
15743SOL    HW148951   9.284   0.568   3.782 -2.3114 -0.3583  3.2271
15743SOL    HW248952   9.345   0.705   3.802 -1.1353 -0.2179 -0.4984
15744SOL     OW48953   4.668   7.579   5.424  0.0519 -0.5346 -0.3390
15744SOL    HW148954   4.681   7.667   5.387 -0.9025 -1.0886 -2.1088
15744SOL    HW248955   4.732   7.524   5.380 -1.1883 -1.2369 -1.3278
15745SOL     OW48956   5.622   5.269   6.979  0.1938 -0.1528  0.7676
15745SOL    HW148957   5.530   5.293   6.963 -0.1019 -2.2488 -1.0993
15745SOL    HW248958   5.661   5.266   6.892  1.3845 -1.6825  1.3253
15746SOL     OW48959   8.222   8.848   2.486  0.0441 -0.0637  0.4059
15746SOL    HW148960   8.228   8.812   2.574  0.2915  0.6146  0.6789
15746SOL    HW248961   8.142   8.901   2.487  0.3868  0.4679  0.4324
15747SOL     OW48962   3.824   2.457   2.124 -0.2883 -0.6072 -0.6261
15747SOL    HW148963   3.845   2.421   2.038 -0.3860  1.5083 -1.6026
15747SOL    HW248964   3.728   2.457   2.128 -0.2960 -0.2526 -0.7435
15748SOL     OW48965   0.970   5.205   3.907 -0.1654  0.6320  0.3307
15748SOL    HW148966   1.058   5.209   3.944 -0.7517  1.8784  1.6893
15748SOL    HW248967   0.965   5.281   3.849 -0.2052  0.2774 -0.1431
15749SOL     OW48968   5.812   4.191   1.956  0.4103 -0.0439  0.0000
15749SOL    HW148969   5.722   4.181   1.986  0.9300 -0.8542  1.4003
15749SOL    HW248970   5.824   4.285   1.943 -1.0428 -0.0346 -1.6306
15750SOL     OW48971   0.347   6.547   2.541  0.7157 -0.9606  0.7969
15750SOL    HW148972   0.363   6.476   2.479 -0.8967 -0.3099 -0.4486
15750SOL    HW248973   0.261   6.528   2.578 -0.8945  1.4403 -1.3179
15751SOL     OW48974   4.155   2.822   6.663  0.3215 -0.2217 -0.3119
15751SOL    HW148975   4.207   2.902   6.659 -0.5179  0.6883  3.3334
15751SOL    HW248976   4.215   2.756   6.697  0.0204 -0.1251  0.4070
15752SOL     OW48977   3.859   2.797   8.194  0.2096  0.0754 -0.3202
15752SOL    HW148978   3.898   2.818   8.110 -0.8699 -1.4413 -1.2410
15752SOL    HW248979   3.767   2.820   8.184  0.2223  0.6439  0.7333
15753SOL     OW48980   2.034   2.553   8.323  0.3062  0.3249 -0.2061
15753SOL    HW148981   2.070   2.542   8.411  0.9980  0.8082 -0.4243
15753SOL    HW248982   2.034   2.647   8.308 -0.1493  0.2701 -0.5937
15754SOL     OW48983   3.285   3.442   6.507  0.0486  0.2027 -0.0157
15754SOL    HW148984   3.336   3.362   6.515  1.9789  1.4316  0.4304
15754SOL    HW248985   3.299   3.489   6.589 -0.3837  1.3792 -0.5869
15755SOL     OW48986   3.073   3.522   2.202 -0.4618  0.3779 -0.4676
15755SOL    HW148987   3.075   3.585   2.275 -0.7212 -0.3150  0.1460
15755SOL    HW248988   3.013   3.454   2.231 -0.1206 -0.2019 -1.1003
15756SOL     OW48989   2.350   9.228   9.264 -0.2224 -0.5035 -0.1211
15756SOL    HW148990   2.332   9.151   9.317  2.3793 -0.4169  1.0342
15756SOL    HW248991   2.346   9.302   9.326 -2.7494  0.4054 -1.2167
15757SOL     OW48992   8.097   4.282   9.058  0.0256  0.3283  0.2614
15757SOL    HW148993   8.039   4.350   9.092 -2.3173 -1.3251 -0.2047
15757SOL    HW248994   8.163   4.329   9.007 -1.2882  2.2611  0.2762
15758SOL     OW48995   8.500   6.357   5.563  0.2201 -0.8753  0.2273
15758SOL    HW148996   8.577   6.331   5.512 -0.4892 -0.8090 -0.9019
15758SOL    HW248997   8.535   6.375   5.651  1.7950  0.9295 -0.6998
15759SOL     OW48998   9.220   2.628   6.734  0.0944  0.2068  0.4528
15759SOL    HW148999   9.287   2.586   6.787  0.3187 -1.6615 -1.1936
15759SOL    HW249000   9.174   2.686   6.794  2.1643  0.3593  1.9795
15760SOL     OW49001   5.727   4.407   0.640 -0.1418  0.2369  0.0484
15760SOL    HW149002   5.716   4.381   0.548  0.0278 -0.6686  0.2779
15760SOL    HW249003   5.640   4.399   0.678 -0.0898 -0.0013  0.1186
15761SOL     OW49004   3.783   4.296   9.381 -0.4630 -0.0617  0.1670
15761SOL    HW149005   3.763   4.300   9.475 -0.6819 -0.9358  0.1723
15761SOL    HW249006   3.719   4.355   9.341 -1.8852 -1.3832  0.3682
15762SOL     OW49007   0.261   1.749   5.590  0.0837  0.1937  0.5257
15762SOL    HW149008   0.245   1.674   5.531  1.5915  1.2415 -1.3186
15762SOL    HW249009   0.355   1.764   5.584 -0.0937  1.8029  1.4361
15763SOL     OW49010   8.639   6.848   8.575 -0.1444  0.0825 -0.5484
15763SOL    HW149011   8.720   6.810   8.609  0.3147 -0.6336 -2.3119
15763SOL    HW249012   8.645   6.835   8.480 -2.0841  0.5173 -0.7638
15764SOL     OW49013   0.894   7.490   4.168 -0.7489 -0.4147 -0.1647
15764SOL    HW149014   0.941   7.491   4.085 -0.6426  2.2926 -0.1791
15764SOL    HW249015   0.913   7.575   4.207 -1.4152 -1.3039  2.3027
15765SOL     OW49016   4.942   0.533   0.579  0.2827 -0.4741 -0.4009
15765SOL    HW149017   5.033   0.537   0.608 -0.4800  1.5287  2.0472
15765SOL    HW249018   4.899   0.479   0.645 -0.4143 -1.0896 -1.3366
15766SOL     OW49019   4.318   3.215   5.149 -0.5834 -0.6663 -0.3521
15766SOL    HW149020   4.281   3.234   5.063  0.5309 -1.2077 -0.9774
15766SOL    HW249021   4.376   3.288   5.168  0.1282 -1.1433 -0.6421
15767SOL     OW49022   5.120   3.199   9.556 -0.0178 -0.1720  0.5558
15767SOL    HW149023   5.197   3.255   9.562 -1.2935  1.5445  2.2739
15767SOL    HW249024   5.048   3.256   9.583 -1.9892 -1.5616 -1.4655
15768SOL     OW49025   1.578   4.148   2.779 -0.0472 -0.0415 -0.1503
15768SOL    HW149026   1.613   4.070   2.738 -1.3530 -0.7292 -0.0273
15768SOL    HW249027   1.518   4.185   2.714 -1.4734 -0.6584  0.7648
15769SOL     OW49028   6.636   7.126   6.596 -0.1770  0.1263 -0.6214
15769SOL    HW149029   6.711   7.180   6.575  0.8021 -0.9827 -0.1360
15769SOL    HW249030   6.632   7.061   6.526 -0.5555  0.0587 -0.5414
15770SOL     OW49031   1.522   7.818   6.204 -0.3739 -0.2806  0.6013
15770SOL    HW149032   1.597   7.858   6.248 -0.1323 -2.4388  2.3060
15770SOL    HW249033   1.475   7.772   6.273 -0.8913 -2.4662 -1.0931
15771SOL     OW49034   7.313   6.499   3.241 -0.4046 -0.2039 -0.4058
15771SOL    HW149035   7.242   6.444   3.274  0.1314 -0.9092 -0.4121
15771SOL    HW249036   7.377   6.438   3.207  1.8119  0.1762  2.7198
15772SOL     OW49037   7.912   9.039   4.981 -0.0715  0.2458 -0.2053
15772SOL    HW149038   7.988   9.006   5.028  0.1896 -0.2944 -0.9748
15772SOL    HW249039   7.884   8.965   4.927 -0.3068  0.8699 -0.9547
15773SOL     OW49040   1.844   3.617   3.934  0.3507  0.2046 -0.4779
15773SOL    HW149041   1.805   3.656   3.856 -0.5591  1.4115  0.5486
15773SOL    HW249042   1.811   3.669   4.006  0.5683 -1.3690  0.8036
15774SOL     OW49043   1.633   9.519   5.715  0.2373  0.0041  0.1405
15774SOL    HW149044   1.637   9.485   5.626  1.2438 -2.5595  1.0773
15774SOL    HW249045   1.565   9.468   5.758  0.2168  0.7419  1.0145
15775SOL     OW49046   0.137   2.656   4.994  0.0328 -0.4755  0.0041
15775SOL    HW149047   0.195   2.580   4.992 -0.0392 -0.5409  0.3989
15775SOL    HW249048   0.128   2.677   5.087  2.3876  1.8000 -0.1586
15776SOL     OW49049   8.691   7.121   0.758  0.0556 -0.3686  0.2479
15776SOL    HW149050   8.751   7.196   0.761 -0.2506 -0.1426  0.8568
15776SOL    HW249051   8.608   7.158   0.727  0.4889 -0.8742 -1.6690
15777SOL     OW49052   4.227   1.512   7.723 -0.0582 -1.0963 -0.2407
15777SOL    HW149053   4.182   1.436   7.758  1.3031 -1.3914  0.9790
15777SOL    HW249054   4.159   1.579   7.713 -0.8112 -1.5887  1.3056
15778SOL     OW49055   5.938   0.306   4.648  0.3359  0.1314  0.3988
15778SOL    HW149056   5.897   0.376   4.699  0.1100 -0.4343  1.0024
15778SOL    HW249057   6.001   0.352   4.591  0.3830  0.7969  0.9742
15779SOL     OW49058   1.673   9.078   6.270  0.6928  0.3921 -0.3099
15779SOL    HW149059   1.709   9.157   6.310  0.2531  1.2476 -1.5282
15779SOL    HW249060   1.738   9.053   6.205  0.5711  0.0744 -0.3088
15780SOL     OW49061   7.174   1.862   1.782 -0.5725 -0.5743  0.1907
15780SOL    HW149062   7.204   1.837   1.695 -1.9396  0.4205 -0.6055
15780SOL    HW249063   7.246   1.838   1.840  0.3986 -1.1804 -1.2195
15781SOL     OW49064   6.859   7.464   5.475 -0.1003 -0.6692 -0.3898
15781SOL    HW149065   6.908   7.498   5.399  0.7982  0.1340  0.5189
15781SOL    HW249066   6.907   7.496   5.551  0.2231 -3.1614  0.5592
15782SOL     OW49067   4.759   8.281   1.182  0.8410 -0.0664  0.4305
15782SOL    HW149068   4.739   8.339   1.256 -0.3451 -0.1305  0.1765
15782SOL    HW249069   4.700   8.207   1.194  2.1612 -1.1150  0.5969
15783SOL     OW49070   8.984   3.065   3.954 -0.3184  0.1786 -0.2017
15783SOL    HW149071   8.936   3.071   4.036 -4.0294 -1.3939 -2.0318
15783SOL    HW249072   8.994   3.156   3.925  0.2018  0.6795  1.4654
15784SOL     OW49073   2.904   6.640   3.811 -0.0659  0.7544 -0.3325
15784SOL    HW149074   2.889   6.724   3.853  0.6623  1.2541 -1.0366
15784SOL    HW249075   2.857   6.645   3.728  1.0138  0.9748 -0.9484
15785SOL     OW49076   9.571   5.670   0.635  0.0824 -0.3446 -0.3367
15785SOL    HW149077   9.590   5.593   0.581 -1.9462  0.2949 -2.0934
15785SOL    HW249078   9.479   5.659   0.659 -0.4574  1.8520 -1.2161
15786SOL     OW49079   6.224   0.380   6.946  0.5526  0.0572  0.0037
15786SOL    HW149080   6.317   0.368   6.966  0.4169  1.0436  1.3814
15786SOL    HW249081   6.215   0.473   6.929  0.2270 -0.3876 -2.7313
15787SOL     OW49082   3.150   8.418   3.257  0.0146  0.8970 -0.0147
15787SOL    HW149083   3.091   8.430   3.182  1.2590 -0.1468 -1.2110
15787SOL    HW249084   3.107   8.351   3.310  0.0074  0.2744 -0.7799
15788SOL     OW49085   1.687   8.450   5.996 -0.4878 -0.5301 -1.0267
15788SOL    HW149086   1.657   8.531   5.954 -2.2804 -0.3774  0.4132
15788SOL    HW249087   1.620   8.432   6.062  1.6914 -1.2873  1.0746
15789SOL     OW49088   4.544   9.241   3.705  0.5622 -0.5070 -0.2467
15789SOL    HW149089   4.496   9.285   3.634  1.3244  0.5623 -0.1196
15789SOL    HW249090   4.635   9.268   3.693  1.1864 -2.5541 -0.5215
15790SOL     OW49091   1.794   1.512   7.720  0.2402  0.6372 -0.3457
15790SOL    HW149092   1.714   1.563   7.735  0.0826  1.2869 -2.9517
15790SOL    HW249093   1.861   1.578   7.701  0.7341 -0.0060 -0.8834
15791SOL     OW49094   0.916   2.007   2.060 -0.0504  1.1207 -0.2193
15791SOL    HW149095   0.915   2.069   2.133 -0.6977  2.1790 -1.1112
15791SOL    HW249096   0.970   2.050   1.993  2.0715 -0.6125  0.2529
15792SOL     OW49097   2.954   9.227   4.394 -0.0099 -0.1491 -0.0563
15792SOL    HW149098   3.008   9.161   4.437 -1.5353 -0.9112  0.8128
15792SOL    HW249099   2.913   9.180   4.321  0.4182  0.3921 -0.6536
15793SOL     OW49100   4.662   1.452   9.309  0.8054 -0.3209 -0.1487
15793SOL    HW149101   4.664   1.534   9.260  1.0499 -0.8751 -1.0900
15793SOL    HW249102   4.726   1.395   9.265  0.4454 -1.1050  0.3083
15794SOL     OW49103   6.139   2.537   1.297 -0.2594  0.9135  0.4802
15794SOL    HW149104   6.115   2.614   1.246 -1.6515 -0.8987 -1.8379
15794SOL    HW249105   6.227   2.514   1.266 -0.0036  1.3519  0.8842
15795SOL     OW49106   6.275   4.262   3.586 -0.3017  0.5386  0.4775
15795SOL    HW149107   6.330   4.285   3.661  1.0294 -1.1435  0.0866
15795SOL    HW249108   6.322   4.297   3.510 -0.1508 -0.1991  0.2131
15796SOL     OW49109   6.311   3.073   5.545 -0.5549  0.1095  0.5373
15796SOL    HW149110   6.255   3.110   5.476 -0.9159  0.0434  0.7940
15796SOL    HW249111   6.267   3.096   5.626  0.1707  0.6969  0.7867
15797SOL     OW49112   0.261   5.015   4.964 -0.5613 -0.3107 -0.0059
15797SOL    HW149113   0.214   5.097   4.978  1.0423  0.6019  0.2290
15797SOL    HW249114   0.283   4.985   5.053  1.2442  0.4721 -0.1453
15798SOL     OW49115   6.933   8.713   8.745  0.2622  0.5514  0.4689
15798SOL    HW149116   6.850   8.760   8.750  0.2405  0.4261  1.3865
15798SOL    HW249117   6.996   8.778   8.714  0.0022  0.8782  0.6256
15799SOL     OW49118   8.247   4.140   1.858  0.8157  0.0267  0.2941
15799SOL    HW149119   8.334   4.148   1.895  0.3078  0.8036  1.3843
15799SOL    HW249120   8.220   4.230   1.840  0.5826 -0.2643 -0.8927
15800SOL     OW49121   2.945   7.283   0.021  0.4602 -0.3062 -0.1113
15800SOL    HW149122   3.025   7.319  -0.016 -0.3472  0.4088 -1.2313
15800SOL    HW249123   2.878   7.348  -0.001 -0.6521 -1.4883 -0.3054
15801SOL     OW49124   7.188   7.394   4.950  0.2640  0.2466 -0.3764
15801SOL    HW149125   7.162   7.314   4.904 -0.0538  0.9169 -1.4092
15801SOL    HW249126   7.266   7.424   4.903  0.9121  0.0722  0.5731
15802SOL     OW49127   8.813   6.072   0.300  0.1520  0.2512  0.3773
15802SOL    HW149128   8.810   6.124   0.220  2.6981  0.7589  0.5478
15802SOL    HW249129   8.755   5.998   0.282  0.3291  0.5694 -1.7734
15803SOL     OW49130   2.453   0.958   0.890 -0.2611 -0.2086  0.0730
15803SOL    HW149131   2.490   0.874   0.918 -0.4267  0.3433  2.1381
15803SOL    HW249132   2.528   1.016   0.881 -0.3460  0.3033  2.0678
15804SOL     OW49133   9.411   3.186   7.733 -0.0180 -0.3941 -0.0421
15804SOL    HW149134   9.494   3.166   7.775  0.5892  2.0423  0.0149
15804SOL    HW249135   9.357   3.109   7.750  1.6256 -1.2772  1.4486
15805SOL     OW49136   5.165   4.679   9.165  0.2629 -0.1145  0.3327
15805SOL    HW149137   5.104   4.679   9.092 -1.1944  1.2977  1.4977
15805SOL    HW249138   5.210   4.594   9.158 -1.5028 -1.0124 -0.8137
15806SOL     OW49139   8.000   5.095   6.939 -0.0413  0.0659  0.6055
15806SOL    HW149140   8.086   5.134   6.926  0.0090  0.2553  1.4440
15806SOL    HW249141   7.990   5.033   6.867  0.0160  1.3772 -0.5672
15807SOL     OW49142   2.474   3.736   5.494  0.3648 -0.0534 -0.3085
15807SOL    HW149143   2.417   3.772   5.426  1.2472 -1.4474 -1.8561
15807SOL    HW249144   2.538   3.806   5.511 -0.9514  1.0087  0.4844
15808SOL     OW49145   9.659   3.884   7.417  0.1087 -0.2803 -1.2220
15808SOL    HW149146   9.654   3.789   7.428  0.7265 -0.1281  0.7577
15808SOL    HW249147   9.751   3.905   7.428 -0.2079  0.6753 -0.0419
15809SOL     OW49148   7.251   1.529   2.809  0.3727 -0.4665  0.1814
15809SOL    HW149149   7.337   1.494   2.787  0.3486  0.3449 -1.3162
15809SOL    HW249150   7.203   1.530   2.726 -0.6288  0.3221  0.7422
15810SOL     OW49151   4.938   1.246   5.187  0.4202 -0.0686 -0.5765
15810SOL    HW149152   4.856   1.249   5.235  0.9771 -1.4652  0.5449
15810SOL    HW249153   4.967   1.337   5.182 -0.8575  0.3584 -0.4061
15811SOL     OW49154   3.381   7.083   3.328  0.0800 -0.2128  0.1500
15811SOL    HW149155   3.287   7.074   3.313 -0.5001  3.0238  1.0905
15811SOL    HW249156   3.418   7.103   3.242 -0.0202 -1.6485 -0.2488
15812SOL     OW49157   2.011   8.448   7.978  0.2395  0.1735  0.4041
15812SOL    HW149158   2.094   8.401   7.974  0.4678  0.2782  2.4889
15812SOL    HW249159   2.000   8.486   7.891  2.6820  0.6526  0.2319
15813SOL     OW49160   6.374   6.132   4.665  0.0393 -0.7843 -0.2638
15813SOL    HW149161   6.433   6.119   4.590  1.5818 -1.4138  1.0093
15813SOL    HW249162   6.345   6.223   4.657  1.3795 -0.3712 -0.8118
15814SOL     OW49163   8.591   9.296   2.973 -0.0576  0.4090  0.4077
15814SOL    HW149164   8.664   9.345   2.935  0.5067 -0.6271  0.1260
15814SOL    HW249165   8.515   9.355   2.964  0.8850  1.8576  1.4995
15815SOL     OW49166   3.260   8.352   5.940  0.3801 -0.0275  0.2958
15815SOL    HW149167   3.185   8.296   5.921 -1.1374  1.8201  0.5412
15815SOL    HW249168   3.248   8.428   5.883  1.7728  0.5441  0.7310
15816SOL     OW49169   8.169   5.813   3.247 -0.5255 -0.6244 -0.2058
15816SOL    HW149170   8.237   5.762   3.204 -1.0164 -1.0078 -0.5387
15816SOL    HW249171   8.197   5.904   3.237  0.2286 -0.8119  0.1757
15817SOL     OW49172   1.174   6.081   0.661  0.0999 -0.4261  0.3787
15817SOL    HW149173   1.123   6.017   0.611  1.6906 -0.3429 -1.4813
15817SOL    HW249174   1.177   6.158   0.604  0.0131  0.5566  1.6615
15818SOL     OW49175   2.980   0.353   0.583 -0.1747  0.6994 -0.0661
15818SOL    HW149176   2.987   0.448   0.576  0.2184  0.7433  0.8582
15818SOL    HW249177   3.069   0.321   0.570 -0.1683  0.5122  0.4152
15819SOL     OW49178   2.465   1.201   0.437 -0.8550 -0.0144 -0.5602
15819SOL    HW149179   2.427   1.282   0.402 -1.2208 -0.0022 -0.1439
15819SOL    HW249180   2.535   1.180   0.375 -0.3908  0.9130 -0.3755
15820SOL     OW49181   1.133   2.629   5.611  0.2664 -0.2077 -0.2321
15820SOL    HW149182   1.196   2.570   5.652  1.3393  0.3736 -0.9946
15820SOL    HW249183   1.149   2.714   5.652  0.8936  0.2270 -1.3079
15821SOL     OW49184   0.198   4.652   4.353  0.5987 -0.4898  0.9405
15821SOL    HW149185   0.292   4.657   4.336  0.6084 -1.2066  0.7741
15821SOL    HW249186   0.188   4.578   4.413  0.1198 -0.5340  0.8126
15822SOL     OW49187   5.951   0.738   7.570 -0.2622 -0.6675  0.0880
15822SOL    HW149188   5.860   0.726   7.543 -0.9746  1.1264  1.4710
15822SOL    HW249189   5.948   0.737   7.666  1.0714  0.0411  0.1571
15823SOL     OW49190   7.445   7.133   7.082 -0.3042 -0.1685  0.2659
15823SOL    HW149191   7.403   7.080   7.014 -1.0530 -1.0626  1.3903
15823SOL    HW249192   7.505   7.190   7.034  0.4071 -1.9021 -1.0340
15824SOL     OW49193   8.841   0.717   1.054 -0.1262  0.5632  0.0215
15824SOL    HW149194   8.769   0.654   1.050  0.8826 -0.5460 -2.0570
15824SOL    HW249195   8.812   0.790   0.999 -0.4677  1.0880  0.8569
15825SOL     OW49196   2.064   5.822   6.633 -0.4378 -0.3403  0.6640
15825SOL    HW149197   2.114   5.859   6.705  0.3572  0.7299 -0.4033
15825SOL    HW249198   2.028   5.898   6.587  1.0585 -0.8437 -1.4668
15826SOL     OW49199   5.500   6.606   3.641 -0.1089  0.7780  0.0503
15826SOL    HW149200   5.499   6.512   3.622  4.4680  0.4827  0.1276
15826SOL    HW249201   5.498   6.648   3.555 -3.5195  0.8499  0.0343
15827SOL     OW49202   2.346   1.943   7.170  0.1012 -0.1746 -0.6091
15827SOL    HW149203   2.363   1.883   7.243  0.1918  1.2755  0.6007
15827SOL    HW249204   2.417   2.007   7.176 -1.3993  1.5160 -0.2871
15828SOL     OW49205   3.090   1.853   6.409  0.7425  0.2748 -0.6121
15828SOL    HW149206   3.070   1.822   6.497 -0.0008  1.6343 -0.2874
15828SOL    HW249207   3.186   1.859   6.406  0.7164  2.2576  0.8439
15829SOL     OW49208   9.384   3.663   5.343 -0.0514 -0.3125 -0.0785
15829SOL    HW149209   9.440   3.676   5.420  0.3448 -1.2905 -0.1796
15829SOL    HW249210   9.331   3.586   5.365 -1.1401  0.4147 -0.1182
15830SOL     OW49211   4.709   9.691   0.134 -0.0070 -0.2086 -0.5241
15830SOL    HW149212   4.752   9.768   0.172 -1.9155 -0.7116  3.0740
15830SOL    HW249213   4.781   9.629   0.119  1.0575  0.5451  1.1547
15831SOL     OW49214   8.001   0.625   1.206  0.2217 -0.7293 -0.6010
15831SOL    HW149215   7.960   0.546   1.170  0.5317 -0.7130 -1.0006
15831SOL    HW249216   7.933   0.665   1.259  0.0565 -1.2632 -0.3945
15832SOL     OW49217   1.235   0.332   7.836 -0.1516  0.6142 -0.5045
15832SOL    HW149218   1.157   0.386   7.829  0.2402  1.3444  0.5607
15832SOL    HW249219   1.218   0.274   7.910  0.4353  0.9816 -0.0783
15833SOL     OW49220   1.395   1.859   0.024  0.5989  0.6081 -0.5459
15833SOL    HW149221   1.443   1.870  -0.058  0.9274 -1.9198 -0.7732
15833SOL    HW249222   1.449   1.798   0.075 -1.6481 -1.3010 -0.2701
15834SOL     OW49223   3.773   0.276   7.031 -0.3514  0.0291 -0.8234
15834SOL    HW149224   3.770   0.268   7.126 -2.2566 -0.3825 -0.8875
15834SOL    HW249225   3.856   0.321   7.014 -0.7917  1.7642  1.1427
15835SOL     OW49226   7.182   2.685   5.549 -0.2790 -0.1615  0.0363
15835SOL    HW149227   7.229   2.744   5.492 -1.3466  2.4435  1.6690
15835SOL    HW249228   7.210   2.709   5.638 -2.3938 -0.5433  0.8759
15836SOL     OW49229   6.083   9.705   8.865  0.0372 -0.6043  0.3675
15836SOL    HW149230   6.111   9.621   8.902 -1.2462 -0.9341  0.6596
15836SOL    HW249231   6.020   9.681   8.798 -0.5445  0.1317  0.6415
15837SOL     OW49232   0.985   3.275   4.223 -0.0925 -0.0765 -0.2937
15837SOL    HW149233   0.901   3.232   4.232  0.6675 -1.3145  1.4676
15837SOL    HW249234   1.050   3.205   4.234  1.1589  1.1019  0.1893
15838SOL     OW49235   5.735   1.276   1.918 -0.3751 -0.1798  0.1095
15838SOL    HW149236   5.753   1.297   2.009 -1.4834  0.7553  0.1386
15838SOL    HW249237   5.816   1.237   1.886  1.4065  2.8621  0.4871
15839SOL     OW49238   1.702   0.501   4.474 -0.0516  0.0107  0.0979
15839SOL    HW149239   1.730   0.410   4.479  2.2704  0.6428 -0.5604
15839SOL    HW249240   1.738   0.542   4.553 -2.1305  0.1639  1.0524
15840SOL     OW49241   5.210   2.788   8.527  0.2992  0.3290 -0.5285
15840SOL    HW149242   5.227   2.721   8.593 -3.0174 -0.9520 -0.7938
15840SOL    HW249243   5.170   2.860   8.575  1.9011  1.2855 -0.5681
15841SOL     OW49244   1.957   7.077   5.503  0.8996 -0.3934  0.0933
15841SOL    HW149245   1.901   7.098   5.577  1.0080 -0.0751  0.0856
15841SOL    HW249246   1.908   7.106   5.426  1.0069 -0.2591  0.0756
15842SOL     OW49247   5.661   8.401   7.414 -0.6936 -0.5253 -0.2157
15842SOL    HW149248   5.734   8.460   7.434  0.8393 -2.3585 -0.0528
15842SOL    HW249249   5.605   8.405   7.492  0.1724 -0.3795  0.4240
15843SOL     OW49250   9.530   4.653   2.658 -0.0814  0.0516 -0.0001
15843SOL    HW149251   9.586   4.636   2.582  0.0774  0.6669 -0.0346
15843SOL    HW249252   9.548   4.581   2.719 -0.2826 -0.4938 -0.5847
15844SOL     OW49253   4.494   9.139   5.947  0.0369  0.0224  0.9753
15844SOL    HW149254   4.484   9.084   6.024 -1.2721 -1.1847 -0.0122
15844SOL    HW249255   4.409   9.136   5.903  0.9510  0.0273 -0.9242
15845SOL     OW49256   7.027   9.520   4.907 -0.3964  0.0864 -0.5346
15845SOL    HW149257   6.963   9.552   4.843  0.7641  1.7510 -0.9144
15845SOL    HW249258   7.000   9.560   4.990 -1.7564 -1.8787  0.0555
15846SOL     OW49259   8.373   9.002   1.955  0.8333 -0.0645  0.0926
15846SOL    HW149260   8.459   8.979   1.989  0.6132 -0.8322  0.1589
15846SOL    HW249261   8.312   8.979   2.026  0.3623 -1.7696 -0.7990
15847SOL     OW49262   7.665   0.164   8.626 -0.4354 -0.0395  0.2630
15847SOL    HW149263   7.715   0.106   8.569  0.5639 -0.7797  1.8233
15847SOL    HW249264   7.713   0.164   8.709 -1.1864  1.9129  0.7642
15848SOL     OW49265   0.149   0.599   5.355  0.0059 -0.1650  0.4051
15848SOL    HW149266   0.227   0.545   5.341 -1.2764 -1.8468 -0.6010
15848SOL    HW249267   0.090   0.575   5.284 -0.6302  2.6593 -0.1207
15849SOL     OW49268   2.021   6.107   4.440  0.2515 -0.1082  0.3750
15849SOL    HW149269   2.114   6.126   4.455  0.6275 -1.4086 -0.2214
15849SOL    HW249270   2.005   6.135   4.350  0.4133 -1.1101  0.0263
15850SOL     OW49271   7.591   8.722   7.595 -0.3247  0.1242 -0.1632
15850SOL    HW149272   7.571   8.700   7.686 -1.2826 -0.0158 -0.3932
15850SOL    HW249273   7.545   8.804   7.579 -1.4237 -0.6057 -0.9395
15851SOL     OW49274   8.164   5.363   2.082  0.2880  0.2227 -0.2037
15851SOL    HW149275   8.259   5.357   2.068  0.4090  0.3314  0.5374
15851SOL    HW249276   8.154   5.425   2.154 -0.2729 -0.8316  0.6556
15852SOL     OW49277   8.403   3.321   3.313 -0.1620 -0.1918  0.2190
15852SOL    HW149278   8.415   3.404   3.267  1.0368 -0.2688  0.3620
15852SOL    HW249279   8.365   3.345   3.397  1.7185  0.4186  0.9457
15853SOL     OW49280   4.398   0.036   8.919 -0.6169  0.1063  0.0001
15853SOL    HW149281   4.410  -0.045   8.870  0.3908 -1.0221  2.0172
15853SOL    HW249282   4.476   0.088   8.898 -0.8106  0.1796 -0.5641
15854SOL     OW49283   7.302   7.513   2.755 -0.0521  0.8508  0.4290
15854SOL    HW149284   7.281   7.425   2.723 -0.2824  1.1022 -0.1195
15854SOL    HW249285   7.342   7.498   2.840 -1.2739  0.2756  0.9253
15855SOL     OW49286   4.108   7.882   8.303  0.3306 -0.5518  0.4992
15855SOL    HW149287   4.192   7.913   8.269 -1.1227  0.5510 -2.4465
15855SOL    HW249288   4.070   7.958   8.347  0.2486 -0.5857  0.4873
15856SOL     OW49289   4.008   0.436   6.340 -0.0897 -0.4281 -0.0431
15856SOL    HW149290   3.947   0.508   6.360  1.0386  0.5638 -0.0217
15856SOL    HW249291   4.043   0.411   6.425  0.5930  0.0012 -0.1891
15857SOL     OW49292   9.053   4.272   5.352 -0.5111 -0.3690  0.2687
15857SOL    HW149293   9.059   4.266   5.257  0.2691  0.3183  0.2615
15857SOL    HW249294   8.998   4.198   5.377 -0.6187 -0.6374 -0.6988
15858SOL     OW49295   0.137   4.766   6.655 -0.2435 -0.4191 -0.1180
15858SOL    HW149296   0.088   4.848   6.663 -0.5641 -0.7397  1.4648
15858SOL    HW249297   0.195   4.781   6.580 -0.2694  1.2698  0.1477
15859SOL     OW49298   3.840   6.748   5.031  0.3615  0.0683 -0.1175
15859SOL    HW149299   3.827   6.843   5.035 -2.5218 -0.2460 -0.1796
15859SOL    HW249300   3.753   6.711   5.046  1.3064 -2.5774 -0.6338
15860SOL     OW49301   9.138   7.771   3.857  0.1814 -0.1062 -0.4513
15860SOL    HW149302   9.216   7.768   3.912 -0.5422 -1.0183  0.5620
15860SOL    HW249303   9.086   7.843   3.893  0.2818  0.1195 -0.7542
15861SOL     OW49304   1.597   2.890   4.568 -0.6081 -0.0345 -0.2271
15861SOL    HW149305   1.671   2.834   4.594 -1.0613 -0.1473  0.8661
15861SOL    HW249306   1.526   2.828   4.548 -0.6365  0.1044 -0.5775
15862SOL     OW49307   2.998   0.988   3.587  0.4438 -0.1139 -0.2627
15862SOL    HW149308   2.979   0.895   3.603  1.7363 -0.5243 -0.9745
15862SOL    HW249309   2.916   1.033   3.608  0.6130 -1.0697  2.9229
15863SOL     OW49310   5.339   7.326   6.097  0.1375  0.1589 -0.1550
15863SOL    HW149311   5.428   7.332   6.062  0.9407 -0.1208  1.7202
15863SOL    HW249312   5.332   7.237   6.131 -1.3340 -0.2459 -1.4037
15864SOL     OW49313   0.690   2.946   3.319  0.2256  0.0563 -0.1193
15864SOL    HW149314   0.594   2.949   3.328  0.2694 -0.2627  0.5044
15864SOL    HW249315   0.722   2.941   3.409  0.8270  0.0823 -0.3308
15865SOL     OW49316   8.890   5.372   8.434 -0.4124  0.0398 -0.1484
15865SOL    HW149317   8.804   5.384   8.394 -0.7764 -1.3587  0.1384
15865SOL    HW249318   8.952   5.375   8.361 -0.8036  0.0813 -0.4764
15866SOL     OW49319   9.152   5.960   3.541  0.5493 -0.3438  0.0317
15866SOL    HW149320   9.206   5.923   3.472  1.7090  0.0164  0.7082
15866SOL    HW249321   9.083   5.895   3.556  1.6244 -1.4944  0.1250
15867SOL     OW49322   9.193   4.822   2.526  0.2507 -0.1486 -0.2556
15867SOL    HW149323   9.121   4.785   2.577 -1.2383  2.6887 -0.0685
15867SOL    HW249324   9.168   4.809   2.435  0.4251 -0.8191 -0.2062
15868SOL     OW49325   2.579   5.534   4.970  0.0865 -0.4723 -0.1997
15868SOL    HW149326   2.551   5.625   4.963  1.5627  0.0072 -0.2534
15868SOL    HW249327   2.604   5.510   4.881  0.2445 -0.7423 -0.0829
15869SOL     OW49328   5.117   8.951   3.533 -0.1214  0.5553  1.2866
15869SOL    HW149329   5.188   9.015   3.535 -0.0302  0.5669  5.1483
15869SOL    HW249330   5.147   8.884   3.471  1.3359  2.4922 -0.2370
15870SOL     OW49331   8.724   1.649   7.009  0.3576  0.3526 -0.4492
15870SOL    HW149332   8.745   1.582   7.074  0.4147 -0.9610 -1.7754
15870SOL    HW249333   8.801   1.706   7.009  0.2453  0.5306  0.8070
15871SOL     OW49334   3.141   5.492   1.081 -0.3294 -0.0296  0.5208
15871SOL    HW149335   3.117   5.404   1.113  2.1541 -0.9778  0.0024
15871SOL    HW249336   3.195   5.528   1.151 -1.2230  1.0722  0.6633
15872SOL     OW49337   1.860   7.388   9.085  0.0084 -0.5587  0.0083
15872SOL    HW149338   1.810   7.369   9.164  2.2107  0.4841  1.7575
15872SOL    HW249339   1.814   7.460   9.043 -0.2166  0.1154  1.3647
15873SOL     OW49340   8.801   8.670   8.419  0.6590 -0.1767 -0.4420
15873SOL    HW149341   8.830   8.680   8.329  1.0533  1.4242 -0.1613
15873SOL    HW249342   8.770   8.756   8.445  0.6475 -0.5770  0.9965
15874SOL     OW49343   9.258   9.154   2.203 -0.2701 -0.2168  0.0122
15874SOL    HW149344   9.190   9.194   2.150  1.4145  1.1673 -1.2109
15874SOL    HW249345   9.336   9.156   2.148  1.1127 -0.4168  1.8679
15875SOL     OW49346   7.883   0.343   7.073 -0.1760 -0.1620  0.1105
15875SOL    HW149347   7.914   0.401   7.003  0.9199 -1.8564 -0.8827
15875SOL    HW249348   7.820   0.285   7.030  2.0049 -2.5555 -0.0425
15876SOL     OW49349   6.995   3.558   0.245  0.3034  0.3291  0.1250
15876SOL    HW149350   7.016   3.572   0.152 -2.6633  0.2838 -0.6285
15876SOL    HW249351   7.012   3.644   0.286  0.0484  0.8232 -0.7791
15877SOL     OW49352   9.688   7.390   6.451  0.1193 -0.1239  0.2419
15877SOL    HW149353   9.762   7.451   6.454  0.4969 -0.2238 -2.9561
15877SOL    HW249354   9.611   7.444   6.467  0.5464  1.0147 -1.2623
15878SOL     OW49355   0.599   3.653   7.337 -0.4304  0.0832 -0.1657
15878SOL    HW149356   0.519   3.695   7.307 -1.0496 -0.8596  0.1588
15878SOL    HW249357   0.570   3.582   7.394  0.5930 -0.8656 -0.7897
15879SOL     OW49358   0.620   1.119   6.483  0.4636 -0.2244  0.3531
15879SOL    HW149359   0.571   1.192   6.522  1.1566  0.3729  0.1243
15879SOL    HW249360   0.698   1.111   6.538  1.2946  0.4184 -0.6981
15880SOL     OW49361   4.976   3.452   5.975 -0.0442 -0.4990  0.4593
15880SOL    HW149362   4.988   3.524   6.037  0.1037  0.2140 -0.3755
15880SOL    HW249363   4.943   3.494   5.895 -1.5497 -1.5644  0.4779
15881SOL     OW49364   8.673   1.925   0.126 -0.5117  0.5626 -0.2776
15881SOL    HW149365   8.743   1.873   0.087 -0.0856  1.7892 -1.2033
15881SOL    HW249366   8.593   1.897   0.080 -0.9882 -1.9952  1.8647
15882SOL     OW49367   4.264   0.570   0.921  0.0742  0.6825  0.5592
15882SOL    HW149368   4.309   0.493   0.954 -0.5772  0.6199  1.3565
15882SOL    HW249369   4.237   0.617   1.000 -0.2621  1.2918  0.0927
15883SOL     OW49370   5.876   4.670   8.319 -0.0603 -0.1054 -0.0494
15883SOL    HW149371   5.814   4.602   8.344 -0.2045 -1.0766 -2.7558
15883SOL    HW249372   5.960   4.640   8.354 -0.1559 -1.6171 -1.0497
15884SOL     OW49373   2.908   5.379   7.522 -0.2550  0.5828 -0.3371
15884SOL    HW149374   2.884   5.463   7.484 -0.6870  0.1144 -1.1380
15884SOL    HW249375   2.948   5.330   7.450 -0.2047  0.0265  0.0592
15885SOL     OW49376   8.654   4.040   5.488  0.1225 -0.1268  0.1344
15885SOL    HW149377   8.670   4.105   5.555 -2.9293 -1.1652  2.0857
15885SOL    HW249378   8.642   4.091   5.407  0.4980  1.4705  1.0531
15886SOL     OW49379   5.283   8.693   7.726  0.0465 -0.1694 -0.3512
15886SOL    HW149380   5.329   8.637   7.664 -0.0508 -0.4479 -0.1740
15886SOL    HW249381   5.217   8.738   7.673 -0.4266 -0.8421 -0.3558
15887SOL     OW49382   2.626   0.661   0.273  0.3934  0.0154  0.2685
15887SOL    HW149383   2.616   0.724   0.202 -1.2911 -0.2039  0.2617
15887SOL    HW249384   2.673   0.587   0.233 -0.6810 -0.1793 -0.6980
15888SOL     OW49385   0.414   6.026   4.656 -0.8819  0.2796 -0.2073
15888SOL    HW149386   0.336   5.998   4.704 -0.5585  0.6526  0.5582
15888SOL    HW249387   0.463   5.945   4.639 -0.5559  0.2320  0.9055
15889SOL     OW49388   5.323   6.281   7.579  0.3980  0.9740 -0.2511
15889SOL    HW149389   5.242   6.245   7.543  0.7748 -0.8639  0.6160
15889SOL    HW249390   5.311   6.376   7.574 -1.8447  0.7688 -0.0790
15890SOL     OW49391   9.172   6.620   0.273  0.3494  0.3483  0.5687
15890SOL    HW149392   9.118   6.699   0.273 -0.6579 -0.3156 -0.4271
15890SOL    HW249393   9.257   6.650   0.242 -0.5541  0.7604 -1.7599
15891SOL     OW49394   3.932   0.911   8.468  0.5557  0.4467  0.1165
15891SOL    HW149395   3.986   0.884   8.542  0.2403  0.7166  0.4477
15891SOL    HW249396   3.850   0.864   8.479  1.2671 -1.2413 -1.2752
15892SOL     OW49397   9.455   1.178   4.892 -0.1447  0.3238  0.1003
15892SOL    HW149398   9.509   1.203   4.967  1.4086 -0.7805 -0.5731
15892SOL    HW249399   9.495   1.223   4.817 -0.7545  0.2552 -0.2743
15893SOL     OW49400   4.447   4.679   8.609 -0.4675  0.2397 -0.3682
15893SOL    HW149401   4.400   4.741   8.666 -1.0002 -0.2142 -0.2962
15893SOL    HW249402   4.500   4.627   8.670  0.8987  1.3715 -0.5356
15894SOL     OW49403   2.965   6.754   2.965 -0.0826  0.4595  0.5795
15894SOL    HW149404   2.882   6.758   2.917 -0.2948 -0.7877  0.8055
15894SOL    HW249405   3.029   6.793   2.906 -0.7144  0.8556  0.1453
15895SOL     OW49406   8.969   7.127   3.927  0.1340 -0.3651  0.5224
15895SOL    HW149407   8.938   7.193   3.990  1.0073 -0.8864  1.5236
15895SOL    HW249408   9.021   7.066   3.980  3.3509  0.7453 -1.1166
15896SOL     OW49409   3.474   3.149   7.488  0.6704 -0.2746  0.2100
15896SOL    HW149410   3.476   3.085   7.417  1.6346 -1.1661  0.9979
15896SOL    HW249411   3.411   3.215   7.460  0.9775 -0.6432 -1.4261
15897SOL     OW49412   9.359   2.833   9.592 -0.3569  0.6301  0.1349
15897SOL    HW149413   9.424   2.818   9.523 -0.4128 -0.8435  0.3620
15897SOL    HW249414   9.276   2.845   9.546  0.0515  2.6965 -0.1672
15898SOL     OW49415   3.828   6.166   6.736 -0.4541  0.6858 -0.9455
15898SOL    HW149416   3.784   6.099   6.685 -2.0807  1.2897 -0.3915
15898SOL    HW249417   3.885   6.211   6.673  0.7322 -1.1932 -1.3144
15899SOL     OW49418   7.933   0.345   8.193 -0.2426 -0.3344  0.1727
15899SOL    HW149419   7.841   0.357   8.168  0.0580  1.2738 -0.2917
15899SOL    HW249420   7.929   0.314   8.283 -1.2587  0.8965  0.5976
15900SOL     OW49421   8.445   1.413   6.482  0.4604 -0.7103 -0.4009
15900SOL    HW149422   8.362   1.442   6.519  1.0113 -0.3713  0.5935
15900SOL    HW249423   8.501   1.491   6.484  0.1694 -0.3501 -3.0361
15901SOL     OW49424   0.998   3.883   9.425  0.7267 -0.2009  0.5671
15901SOL    HW149425   1.000   3.962   9.478  0.4966  0.4148 -0.3188
15901SOL    HW249426   0.936   3.825   9.469  1.4575 -0.2057  1.6322
15902SOL     OW49427   4.423   8.895   0.370 -0.0916  0.9870 -0.5264
15902SOL    HW149428   4.519   8.898   0.379 -0.0494 -0.5437 -0.2094
15902SOL    HW249429   4.406   8.932   0.284  0.6578  2.6230 -0.0180
15903SOL     OW49430   8.109   5.515   4.022 -0.3176  0.1021 -0.5609
15903SOL    HW149431   8.069   5.541   4.105 -2.5294 -0.2939 -1.4141
15903SOL    HW249432   8.172   5.584   4.003 -1.1771  1.2319  0.5049
15904SOL     OW49433   1.038   7.590   5.302  0.2289  0.0598 -0.1433
15904SOL    HW149434   1.043   7.515   5.242  1.6200 -0.5045  0.6370
15904SOL    HW249435   1.087   7.563   5.379  1.8766  2.2098 -0.3230
15905SOL     OW49436   6.791   2.376   8.678  0.2009 -0.5601  0.0068
15905SOL    HW149437   6.752   2.460   8.702 -2.2258 -0.9103 -2.1959
15905SOL    HW249438   6.762   2.316   8.747  0.9862  0.1393  0.9742
15906SOL     OW49439   6.587   5.838   0.040  0.4332 -0.0982 -0.0012
15906SOL    HW149440   6.574   5.908  -0.024 -1.3719  1.1115  1.5682
15906SOL    HW249441   6.596   5.759  -0.012  4.1557  1.3734 -1.9389
15907SOL     OW49442   3.015   0.604   0.738  0.2576  0.1601  0.2691
15907SOL    HW149443   3.047   0.514   0.736  0.3295  0.1617 -2.2248
15907SOL    HW249444   3.082   0.654   0.690 -1.2353  0.9676 -1.0546
15908SOL     OW49445   1.242   2.988   3.922  0.4817  0.1077 -0.2703
15908SOL    HW149446   1.225   3.080   3.942  3.1999  0.4986  0.6729
15908SOL    HW249447   1.269   2.989   3.830 -1.9337 -0.1840 -1.0465
15909SOL     OW49448   2.553   5.219   2.437  0.3039 -0.0500 -0.1110
15909SOL    HW149449   2.525   5.309   2.454  0.3447 -0.0523 -0.0327
15909SOL    HW249450   2.575   5.219   2.344 -0.5490 -0.2024 -0.3217
15910SOL     OW49451   6.805   8.780   3.567 -0.2921  0.1260 -0.2763
15910SOL    HW149452   6.728   8.729   3.593 -1.1941  1.5411 -0.0341
15910SOL    HW249453   6.849   8.800   3.649  1.4408 -2.2289 -0.5253
15911SOL     OW49454   3.886   5.094   6.171 -0.3515  0.3484  0.0024
15911SOL    HW149455   3.812   5.103   6.110 -1.8947  1.0030  1.8846
15911SOL    HW249456   3.913   5.184   6.190 -0.5271  0.1921  1.0168
15912SOL     OW49457   0.017   4.296   7.369 -0.2541  0.0235 -0.4463
15912SOL    HW149458   0.002   4.384   7.401 -2.7524 -0.5258  0.1370
15912SOL    HW249459   0.035   4.307   7.276 -2.7773  1.0945 -0.9058
15913SOL     OW49460   7.753   3.999   9.482  0.0210  0.2484 -0.4939
15913SOL    HW149461   7.685   4.015   9.417 -1.9411  0.0097  1.3838
15913SOL    HW249462   7.791   4.085   9.500 -0.6925  0.5944 -0.6286
15914SOL     OW49463   0.099   8.961   5.502  0.8196  0.2817 -0.2188
15914SOL    HW149464   0.189   8.947   5.533  0.9505  1.6844  0.0923
15914SOL    HW249465   0.091   9.056   5.493 -1.4372  0.4465  2.2876
15915SOL     OW49466   8.528   4.433   8.558 -0.4536  0.2792  0.0262
15915SOL    HW149467   8.597   4.431   8.491  0.1107  0.1157  0.5915
15915SOL    HW249468   8.567   4.387   8.633 -1.3685 -0.2707  0.1863
15916SOL     OW49469   1.385   5.996   1.096 -0.4696  0.3022 -0.0500
15916SOL    HW149470   1.331   6.036   1.029  1.1549 -0.4081 -1.8692
15916SOL    HW249471   1.329   5.993   1.174 -1.5301  3.5680 -0.5618
15917SOL     OW49472   1.417   1.197   7.430  0.0031 -0.2834 -0.1461
15917SOL    HW149473   1.489   1.146   7.390 -0.0801 -0.0971 -0.5394
15917SOL    HW249474   1.406   1.158   7.517 -0.0665 -0.9555 -0.4448
15918SOL     OW49475   5.776   8.826   3.803  0.6313 -0.8288  0.3555
15918SOL    HW149476   5.819   8.911   3.816  1.8944 -1.4283  0.2794
15918SOL    HW249477   5.769   8.789   3.891 -0.5141 -0.3916  0.4672
15919SOL     OW49478   8.976   4.953   3.338  0.2794  0.3229  0.0725
15919SOL    HW149479   8.953   5.040   3.305 -0.1251 -0.7296 -2.6987
15919SOL    HW249480   8.896   4.902   3.328  1.5902 -1.4552 -2.5954
15920SOL     OW49481   6.009   7.045   4.587 -0.1105 -0.6009 -0.2254
15920SOL    HW149482   5.973   6.960   4.610 -0.6977  0.0528  1.4388
15920SOL    HW249483   5.933   7.096   4.559  0.0967 -0.3526 -0.3411
15921SOL     OW49484   3.958   1.954   0.000 -0.3470 -0.2581 -0.2494
15921SOL    HW149485   3.876   1.905   0.015  0.4763 -2.0860 -1.3763
15921SOL    HW249486   4.026   1.895   0.033  0.6015  0.7489 -0.3815
15922SOL     OW49487   7.182   0.126   4.851 -0.0577  0.6341 -0.4715
15922SOL    HW149488   7.243   0.178   4.799 -0.0413  1.3729  0.2704
15922SOL    HW249489   7.235   0.089   4.922 -0.8914  3.6536  1.9329
15923SOL     OW49490   7.590   1.064   0.283 -0.2666  0.1014  0.2866
15923SOL    HW149491   7.638   1.137   0.243  0.6902 -0.3077  0.6608
15923SOL    HW249492   7.512   1.105   0.321 -1.4244  0.4496 -2.2913
15924SOL     OW49493   8.993   3.300   8.950 -0.0607  0.2549 -0.2871
15924SOL    HW149494   8.974   3.223   9.004 -0.2150  0.5599  0.1021
15924SOL    HW249495   8.912   3.352   8.953  0.2786  0.7823  0.0581
15925SOL     OW49496   9.513   3.790   4.639 -0.2958  0.4265  0.0812
15925SOL    HW149497   9.485   3.877   4.669  0.0622  0.3982  0.5140
15925SOL    HW249498   9.432   3.740   4.633 -0.5935  1.0163 -0.9489
15926SOL     OW49499   2.265   2.712   7.698 -0.0377  0.0467 -0.1652
15926SOL    HW149500   2.290   2.660   7.775 -0.0476  0.3948  0.0736
15926SOL    HW249501   2.199   2.773   7.730 -0.1259  0.1194 -0.4775
15927SOL     OW49502   5.752   3.789   9.176 -0.0245 -0.3935  0.5966
15927SOL    HW149503   5.743   3.738   9.095 -0.2864  0.3229  0.1711
15927SOL    HW249504   5.819   3.742   9.226  2.6551  0.9477 -1.4660
15928SOL     OW49505   4.923   1.842   8.614  0.5596  0.3298 -0.2855
15928SOL    HW149506   5.002   1.896   8.609  1.7034 -1.2860 -0.3499
15928SOL    HW249507   4.893   1.837   8.523  1.5502 -0.6775 -0.5777
15929SOL     OW49508   7.045   1.607   8.061  0.6107  0.3672 -0.2282
15929SOL    HW149509   7.106   1.634   8.130 -1.0869  0.2519  1.4002
15929SOL    HW249510   6.994   1.536   8.100  0.3085 -0.4568 -2.0093
15930SOL     OW49511   7.874   2.212   3.663 -0.3284 -0.0923 -0.0479
15930SOL    HW149512   7.835   2.251   3.741 -1.2777  0.3489 -0.7301
15930SOL    HW249513   7.921   2.135   3.697 -2.7703 -1.3844  0.7257
15931SOL     OW49514   6.770   9.048   8.529 -0.0895 -0.3591  0.0913
15931SOL    HW149515   6.763   9.139   8.559  0.0149  0.0445 -1.0649
15931SOL    HW249516   6.681   9.015   8.533  0.0795 -0.7183  1.9790
15932SOL     OW49517   8.351   3.686   7.731 -0.1830  0.3768  0.3631
15932SOL    HW149518   8.321   3.690   7.640 -0.3351 -0.0297  0.3978
15932SOL    HW249519   8.310   3.762   7.773 -1.1043 -0.1310  0.3945
15933SOL     OW49520   2.941   4.396   2.345  0.0745 -0.4409 -0.1414
15933SOL    HW149521   2.892   4.476   2.327 -0.7084 -0.7819  0.4328
15933SOL    HW249522   3.032   4.423   2.343 -0.2082  0.7481  1.3495
15934SOL     OW49523   7.060   8.948   4.741 -0.2167  0.2061 -0.1604
15934SOL    HW149524   6.981   8.998   4.761 -1.3235 -1.1327 -0.9578
15934SOL    HW249525   7.130   9.013   4.740 -1.1334  1.3002  1.4635
15935SOL     OW49526   5.784   7.857   6.649  0.2640 -0.1702 -0.0160
15935SOL    HW149527   5.780   7.767   6.679 -0.2073  0.2209  1.1592
15935SOL    HW249528   5.741   7.908   6.718  1.0707  1.0191 -0.3421
15936SOL     OW49529   3.776   8.556   7.382 -0.6233  0.1626 -0.4461
15936SOL    HW149530   3.757   8.503   7.305 -1.0289 -0.4006  0.0360
15936SOL    HW249531   3.767   8.496   7.456 -2.6601  1.2425  0.2568
15937SOL     OW49532   4.313   0.092   7.062 -0.0531  0.1433  0.2541
15937SOL    HW149533   4.399   0.059   7.037 -0.9980 -1.4022 -1.1279
15937SOL    HW249534   4.267   0.106   6.980 -1.1916  0.8177  0.9729
15938SOL     OW49535   6.024   6.829   4.298  0.1285 -0.1023  0.5561
15938SOL    HW149536   6.000   6.780   4.219 -1.6680  1.7669 -0.1384
15938SOL    HW249537   6.098   6.884   4.271 -0.5552  0.6145  0.1300
15939SOL     OW49538   0.987   1.086   0.217 -0.2077 -0.0879 -0.2299
15939SOL    HW149539   1.054   1.155   0.223 -0.4939  0.0889  1.5456
15939SOL    HW249540   0.992   1.056   0.127  2.8859 -0.6833  0.0194
15940SOL     OW49541   0.556   1.533   5.009 -0.0427 -0.1464  0.1580
15940SOL    HW149542   0.511   1.593   4.949 -1.4270  0.4223  1.7054
15940SOL    HW249543   0.568   1.453   4.958 -0.8427  0.4289 -0.9840
15941SOL     OW49544   2.936   9.653   4.206  0.2681 -0.0942  0.1618
15941SOL    HW149545   2.867   9.718   4.221 -0.8445 -1.0701 -0.5504
15941SOL    HW249546   2.980   9.683   4.126  0.8458  0.6705  0.7591
15942SOL     OW49547   6.448   9.490   6.659  0.4109 -0.7698 -0.3370
15942SOL    HW149548   6.425   9.575   6.697 -1.6274 -1.3542 -0.1160
15942SOL    HW249549   6.426   9.426   6.727  1.7641 -1.5127 -0.5588
15943SOL     OW49550   1.052   3.468   0.384 -0.0074  0.6138  0.2056
15943SOL    HW149551   0.989   3.510   0.326 -0.1678  1.7509  1.1727
15943SOL    HW249552   1.003   3.451   0.465 -0.0181 -1.6634 -0.2104
15944SOL     OW49553   7.569   3.976   2.529 -0.6668  0.5062 -0.3731
15944SOL    HW149554   7.575   4.071   2.515  0.9980  0.7081  1.3125
15944SOL    HW249555   7.487   3.965   2.578 -0.2373  1.2630  0.5604
15945SOL     OW49556   8.476   1.549   0.293 -0.7839 -0.7899 -0.3767
15945SOL    HW149557   8.515   1.554   0.206  0.5227 -0.3553  0.2069
15945SOL    HW249558   8.441   1.637   0.310  0.7360 -0.2805  0.2993
15946SOL     OW49559   8.734   2.581   4.570  0.1500 -0.5049 -0.4347
15946SOL    HW149560   8.771   2.603   4.485  0.6991 -0.3802 -0.1672
15946SOL    HW249561   8.806   2.542   4.619 -0.1133 -0.4250  0.0328
15947SOL     OW49562   7.864   4.778   7.381 -0.4391 -0.4380  0.5706
15947SOL    HW149563   7.859   4.782   7.285 -0.6950 -0.7815  0.5652
15947SOL    HW249564   7.832   4.864   7.410 -0.3745 -0.3378  0.3489
15948SOL     OW49565   5.051   8.637   6.640  0.1440  0.6454 -0.0929
15948SOL    HW149566   5.010   8.552   6.625 -1.0817  0.9763  1.0908
15948SOL    HW249567   5.105   8.652   6.563 -0.5874 -0.6462 -0.9020
15949SOL     OW49568   7.960   3.229   2.579 -0.1022 -0.0854 -0.0273
15949SOL    HW149569   7.868   3.251   2.566  0.0964  0.2413 -1.0193
15949SOL    HW249570   7.971   3.143   2.539 -0.2933 -0.8327  1.4636
15950SOL     OW49571   7.827   3.081   6.430  0.9645  0.1617 -0.3313
15950SOL    HW149572   7.917   3.051   6.448  0.5619 -1.0493 -0.2425
15950SOL    HW249573   7.790   3.011   6.376 -0.0931  0.4075  0.0682
15951SOL     OW49574   6.795   1.092   6.177  0.1279  0.1499  0.2185
15951SOL    HW149575   6.706   1.056   6.169  1.0723 -2.0776 -1.6486
15951SOL    HW249576   6.812   1.130   6.091  0.5514  1.7262  0.9777
15952SOL     OW49577   6.647   0.611   0.880  0.0914  0.2293  0.0102
15952SOL    HW149578   6.651   0.564   0.796  1.5908 -0.3732  0.3940
15952SOL    HW249579   6.583   0.563   0.931 -0.0870 -0.0118 -0.4313
15953SOL     OW49580   6.332   9.531   4.234 -0.3353 -0.1283 -0.2962
15953SOL    HW149581   6.348   9.454   4.179  0.9505 -1.6325  2.0357
15953SOL    HW249582   6.419   9.567   4.251 -0.6429 -0.0420  1.2005
15954SOL     OW49583   3.144   7.562   9.407  0.1075 -0.0696 -0.3932
15954SOL    HW149584   3.222   7.611   9.380  1.1579 -2.1751 -1.4352
15954SOL    HW249585   3.099   7.541   9.325 -2.7284  2.7450  0.2573
15955SOL     OW49586   9.668   6.730   3.524  0.3428 -0.1204 -0.1309
15955SOL    HW149587   9.680   6.764   3.436  1.6140 -0.1431  0.0184
15955SOL    HW249588   9.596   6.782   3.560  0.3618  0.4529 -0.8906
15956SOL     OW49589   6.904   0.122   0.100 -0.0323  0.2698  0.2964
15956SOL    HW149590   6.814   0.089   0.105 -0.6881  2.0604  0.9192
15956SOL    HW249591   6.955   0.061   0.153 -0.4329 -1.9961 -1.7397
15957SOL     OW49592   7.811   7.814   9.332  0.4507 -0.4339 -0.4285
15957SOL    HW149593   7.729   7.824   9.284  0.8064 -1.9436 -1.4378
15957SOL    HW249594   7.796   7.859   9.415 -0.9833  0.3048 -1.0500
15958SOL     OW49595   0.871   2.998   5.178 -0.3207  0.2636 -0.2887
15958SOL    HW149596   0.907   2.911   5.191 -2.2198 -0.7644 -1.4166
15958SOL    HW249597   0.797   3.004   5.238  1.2830  2.1571  1.6684
15959SOL     OW49598   8.080   1.973   5.493 -0.2293 -0.0204 -0.1605
15959SOL    HW149599   8.045   2.056   5.461 -1.4069 -0.6376 -0.5219
15959SOL    HW249600   8.137   1.998   5.566 -0.7023  1.0811 -0.1452
15960SOL     OW49601   0.342   6.174   3.483  0.1641 -0.2920 -0.0360
15960SOL    HW149602   0.429   6.205   3.505  0.1485  0.8535 -1.4056
15960SOL    HW249603   0.285   6.249   3.502 -0.8046 -1.5465  2.3899
15961SOL     OW49604   6.766   0.896   3.395 -0.0713 -0.1891 -0.0977
15961SOL    HW149605   6.753   0.848   3.313 -1.2291 -0.8405  0.4372
15961SOL    HW249606   6.748   0.832   3.464  3.8734 -0.5620  0.8266
15962SOL     OW49607   3.062   8.086   7.742 -0.0179  0.4005  0.7012
15962SOL    HW149608   2.985   8.113   7.792 -0.4991 -0.4693  0.4393
15962SOL    HW249609   3.028   8.060   7.657  0.5784  0.1096  0.5485
15963SOL     OW49610   3.142   4.252   9.493 -0.0403  0.0327 -0.0217
15963SOL    HW149611   3.108   4.297   9.416 -0.0697  1.2185  0.6592
15963SOL    HW249612   3.064   4.220   9.538  0.0040 -1.1740 -0.7626
15964SOL     OW49613   7.402   1.786   1.969  0.0366  0.4073 -0.3540
15964SOL    HW149614   7.487   1.822   1.942 -0.1975  1.1274 -0.1474
15964SOL    HW249615   7.391   1.815   2.060  1.1011 -2.5211  0.8099
15965SOL     OW49616   9.694   2.164   4.612 -0.2003 -0.1813 -0.1012
15965SOL    HW149617   9.739   2.223   4.673 -0.9030 -0.4301  0.6719
15965SOL    HW249618   9.763   2.103   4.584  0.1318 -0.0751  0.4601
15966SOL     OW49619   0.531   5.245   7.500  0.4352  0.5183 -0.1268
15966SOL    HW149620   0.487   5.261   7.417  2.2107 -2.4994 -1.8249
15966SOL    HW249621   0.615   5.290   7.492  0.4104  0.6400  0.2644
15967SOL     OW49622   4.771   0.332   5.303  0.7584 -0.8335 -0.5926
15967SOL    HW149623   4.698   0.334   5.241  1.0034 -0.5073 -0.8721
15967SOL    HW249624   4.741   0.384   5.377  0.6463 -0.8357 -0.6360
15968SOL     OW49625   6.929   6.701   0.674 -0.2777 -0.1831 -0.0256
15968SOL    HW149626   6.864   6.682   0.606  0.5894  0.7568 -1.1418
15968SOL    HW249627   6.909   6.790   0.702 -0.7583 -0.6251  1.1567
15969SOL     OW49628   5.678   9.662   1.678 -0.2651  0.2373  0.0846
15969SOL    HW149629   5.598   9.695   1.719 -0.0348 -0.4779  1.1350
15969SOL    HW249630   5.748   9.715   1.717 -0.1568  0.3468 -0.2595
15970SOL     OW49631   8.189   7.584   8.721  0.0911  0.1780  0.3478
15970SOL    HW149632   8.178   7.489   8.718 -1.5576  0.3366  0.5696
15970SOL    HW249633   8.135   7.616   8.649  0.7710  0.9568  0.1675
15971SOL     OW49634   4.396   2.807   5.038 -0.6009 -0.2980 -0.4908
15971SOL    HW149635   4.460   2.747   5.000  0.4913  0.5216 -0.0017
15971SOL    HW249636   4.438   2.893   5.033 -1.6593  0.2543 -0.1378
15972SOL     OW49637   3.535   2.417   6.932 -0.0264  0.4804 -0.0255
15972SOL    HW149638   3.512   2.472   7.007 -3.3244 -2.0914  1.1321
15972SOL    HW249639   3.489   2.457   6.858  1.2979  1.7153 -0.2039
15973SOL     OW49640   7.941   0.365   0.643  0.2953 -0.0736  0.1350
15973SOL    HW149641   8.023   0.390   0.600  0.0073  0.8300  0.0805
15973SOL    HW249642   7.924   0.276   0.612  1.9762 -0.8396  1.2486
15974SOL     OW49643   8.831   6.267   2.414 -0.7444 -0.3065  0.3908
15974SOL    HW149644   8.739   6.287   2.395 -1.2835 -2.3234  0.6294
15974SOL    HW249645   8.858   6.208   2.344 -0.0504 -0.8151  1.0702
15975SOL     OW49646   1.134   0.625   3.507 -0.4698  0.7268 -0.8320
15975SOL    HW149647   1.056   0.658   3.550  0.9013  1.0742  1.6107
15975SOL    HW249648   1.207   0.657   3.561  1.2557 -1.2614 -1.7960
15976SOL     OW49649   9.336   8.594   6.673  0.0999 -0.1052  0.3928
15976SOL    HW149650   9.360   8.622   6.761 -1.8505  0.2894  0.8363
15976SOL    HW249651   9.244   8.570   6.679  0.1716 -1.0150 -1.3351
15977SOL     OW49652   2.844   8.404   6.773 -0.6875  0.0717 -0.5791
15977SOL    HW149653   2.846   8.412   6.678 -0.2779 -0.2251 -0.5987
15977SOL    HW249654   2.792   8.479   6.802 -0.8999  0.1082 -1.0403
15978SOL     OW49655   1.170   3.747   7.058  0.3915 -0.3615 -0.1203
15978SOL    HW149656   1.170   3.717   7.149  0.7419 -0.1348 -0.0439
15978SOL    HW249657   1.089   3.712   7.022 -0.1859  0.3036  0.5181
15979SOL     OW49658   0.798   7.542   0.291 -0.0625  0.4930 -0.6562
15979SOL    HW149659   0.730   7.556   0.357  1.4671  3.1833  0.5065
15979SOL    HW249660   0.862   7.485   0.335  0.7855  2.0019  0.1529
15980SOL     OW49661   5.995   6.900   2.518  0.1904  0.0947  0.1833
15980SOL    HW149662   5.925   6.845   2.553 -0.0328 -0.1001 -0.5554
15980SOL    HW249663   6.073   6.845   2.524  0.1846  0.1255  0.5337
15981SOL     OW49664   3.506   7.307   5.061  0.3228 -0.4125 -0.6594
15981SOL    HW149665   3.491   7.253   4.983 -0.6716 -0.3438 -0.5261
15981SOL    HW249666   3.444   7.274   5.125 -2.4875  2.7335 -1.4968
15982SOL     OW49667   0.704   7.774   9.334  0.1231 -0.0992 -0.0272
15982SOL    HW149668   0.641   7.832   9.290 -0.6911  0.1423  1.4023
15982SOL    HW249669   0.718   7.814   9.419  2.0909 -0.2714 -0.2286
15983SOL     OW49670   7.139   5.617   9.033  0.4043 -0.6369 -0.6184
15983SOL    HW149671   7.208   5.558   9.001  0.8422 -0.9998  0.9221
15983SOL    HW249672   7.176   5.658   9.111 -0.0049  1.5064 -1.4802
15984SOL     OW49673   5.301   0.961   8.518  0.3526  0.4275  0.5452
15984SOL    HW149674   5.340   0.873   8.527  1.7104  0.9026 -0.3906
15984SOL    HW249675   5.255   0.975   8.601 -1.3842 -1.8424  0.1006
15985SOL     OW49676   4.987   9.036   0.495 -0.0610  0.3113  0.1463
15985SOL    HW149677   4.975   9.102   0.426 -0.6610 -0.0650 -0.1195
15985SOL    HW249678   5.036   9.081   0.563  1.2653  0.4685 -0.8642
15986SOL     OW49679   2.399   7.985   2.669  0.1583  0.6793 -0.5464
15986SOL    HW149680   2.307   7.967   2.689  0.2555  2.9686  2.6469
15986SOL    HW249681   2.398   8.026   2.583 -1.9073  1.1936 -0.3201
15987SOL     OW49682   2.027   6.244   1.747  0.6384  0.4779 -0.2153
15987SOL    HW149683   2.102   6.186   1.760 -1.2422 -2.1168 -0.1144
15987SOL    HW249684   1.969   6.195   1.689 -0.9930  2.3904 -0.3065
15988SOL     OW49685   7.525   1.548   7.521  0.0031  0.3643  0.0888
15988SOL    HW149686   7.495   1.635   7.493 -1.0675 -0.5431 -1.6821
15988SOL    HW249687   7.613   1.564   7.557 -0.0595  2.1310 -0.4601
15989SOL     OW49688   7.352   4.263   0.846  0.1131 -0.3175 -0.0772
15989SOL    HW149689   7.262   4.236   0.831  0.6658 -0.9484 -2.6731
15989SOL    HW249690   7.350   4.305   0.932 -2.6158 -0.3478 -0.0394
15990SOL     OW49691   7.384   0.211   0.356  1.0417  0.4453 -0.3861
15990SOL    HW149692   7.371   0.247   0.268 -0.9287  1.4131  0.2521
15990SOL    HW249693   7.434   0.279   0.402  1.2588  0.3434 -0.4655
15991SOL     OW49694   4.892   7.869   4.109  0.1527  0.0212 -0.0447
15991SOL    HW149695   4.949   7.897   4.181 -0.3236  1.3255 -0.1474
15991SOL    HW249696   4.816   7.928   4.115 -0.4458 -0.6497 -0.8800
15992SOL     OW49697   8.850   1.045   2.564  0.0713  0.1172  0.0747
15992SOL    HW149698   8.850   1.135   2.598 -0.6654 -0.5966  2.1595
15992SOL    HW249699   8.808   0.994   2.634 -0.0873 -1.7518 -1.3262
15993SOL     OW49700   4.272   8.347   4.675  0.0960 -0.2818 -0.3567
15993SOL    HW149701   4.329   8.305   4.740 -0.9719  0.1329  0.8884
15993SOL    HW249702   4.330   8.406   4.627  0.9934 -0.9058 -0.0675
15994SOL     OW49703   3.171   6.360   5.612 -0.0522  0.4604  0.0976
15994SOL    HW149704   3.203   6.429   5.553  1.1163  0.0059  0.1748
15994SOL    HW249705   3.133   6.295   5.553  1.8161 -0.3695 -0.2749
15995SOL     OW49706   8.500   1.885   7.936  0.3083  0.5405  0.0479
15995SOL    HW149707   8.482   1.879   7.842 -1.3656 -0.7373  0.3946
15995SOL    HW249708   8.595   1.886   7.943  0.4690 -0.4670 -1.6249
15996SOL     OW49709   8.780   7.855   4.099 -0.7032  0.1668  0.6169
15996SOL    HW149710   8.869   7.867   4.066 -0.9553  1.1941  0.2649
15996SOL    HW249711   8.724   7.896   4.032 -1.4245 -0.2830  0.9313
15997SOL     OW49712   2.465   4.150   8.567  0.8476  0.6017 -0.2090
15997SOL    HW149713   2.411   4.191   8.499 -0.0507 -1.1129 -0.5989
15997SOL    HW249714   2.509   4.078   8.521  0.1872 -0.6160  1.0036
15998SOL     OW49715   5.848   7.404   3.044 -0.1215 -0.0070  0.3592
15998SOL    HW149716   5.805   7.318   3.047 -1.3697  0.5791 -0.0518
15998SOL    HW249717   5.799   7.458   3.106  1.9046 -0.0917  2.1393
15999SOL     OW49718   9.044   0.502   7.481  0.2062 -0.3551 -0.1307
15999SOL    HW149719   8.988   0.578   7.465  0.4510 -0.4500 -1.5270
15999SOL    HW249720   9.126   0.523   7.437  1.3258 -0.2171  1.8862
16000SOL     OW49721   0.456   5.955   5.021  0.2148  0.2944  0.7821
16000SOL    HW149722   0.392   6.002   5.075  1.4795  0.7276  1.9702
16000SOL    HW249723   0.405   5.923   4.947 -1.0790  1.8568  0.9286
16001SOL     OW49724   5.636   3.030   1.400  0.1795  0.3544 -0.2942
16001SOL    HW149725   5.565   3.056   1.459  0.3481 -1.0364  0.5508
16001SOL    HW249726   5.591   2.990   1.325  0.0322 -2.4473  1.1621
16002SOL     OW49727   5.853   5.596   5.570  0.0937  0.5576 -0.2488
16002SOL    HW149728   5.794   5.664   5.603 -1.2650 -1.2181  1.2121
16002SOL    HW249729   5.935   5.611   5.617 -0.5601  0.5158  0.9466
16003SOL     OW49730   3.656   7.494   1.460  0.4909  0.3615  0.3974
16003SOL    HW149731   3.694   7.455   1.539 -0.2739  3.0588  2.2544
16003SOL    HW249732   3.562   7.480   1.469  0.4851 -0.5365 -0.8108
16004SOL     OW49733   6.046   0.295   5.178 -0.7431 -0.4311  0.0144
16004SOL    HW149734   6.114   0.253   5.126 -0.8119  0.4810 -0.8388
16004SOL    HW249735   6.079   0.384   5.195 -1.8822  0.1767 -0.7877
16005SOL     OW49736   1.113   5.062   0.564  0.5159 -0.5491 -0.4585
16005SOL    HW149737   1.106   4.976   0.607  0.7992 -1.6287 -2.4557
16005SOL    HW249738   1.155   5.043   0.480 -0.6724  1.3441 -1.5454
16006SOL     OW49739   2.634   6.295   4.353  0.3762 -0.3102  0.3885
16006SOL    HW149740   2.681   6.238   4.292  1.2530  0.9276 -0.1254
16006SOL    HW249741   2.683   6.289   4.435  2.4735  2.1251 -0.5390
16007SOL     OW49742   4.090   9.214   1.938  0.4769 -0.1776  0.3132
16007SOL    HW149743   4.185   9.212   1.925  0.6247  0.0450  1.2852
16007SOL    HW249744   4.079   9.253   2.025 -0.5683  1.1869 -0.4091
16008SOL     OW49745   8.949   4.273   7.180 -0.4218 -0.7024 -0.4862
16008SOL    HW149746   8.996   4.198   7.217 -2.5629 -3.4482 -2.8854
16008SOL    HW249747   8.899   4.309   7.253  0.5346 -1.7077  0.7006
16009SOL     OW49748   3.466   5.040   8.168  0.2437  0.1539 -0.5983
16009SOL    HW149749   3.535   5.049   8.102  0.4285  0.4650 -0.3684
16009SOL    HW249750   3.502   4.979   8.232  1.4452  2.3603  0.9402
16010SOL     OW49751   8.881   6.136   2.918 -0.3035  0.1114 -0.2981
16010SOL    HW149752   8.893   6.159   2.826  0.4731  0.5683 -0.0959
16010SOL    HW249753   8.836   6.212   2.956  1.5312  1.0145  0.1952
16011SOL     OW49754   7.180   0.068   1.677  0.8682  0.0728  1.1618
16011SOL    HW149755   7.211   0.041   1.764  2.8580 -0.5509  0.3128
16011SOL    HW249756   7.217   0.003   1.617 -0.6886  0.3370 -0.1534
16012SOL     OW49757   1.617   0.499   8.914  0.1334  0.2148 -0.3389
16012SOL    HW149758   1.644   0.567   8.853 -0.4620  0.7076 -0.0668
16012SOL    HW249759   1.699   0.463   8.948  0.5450  2.8432  1.7919
16013SOL     OW49760   8.467   2.178   7.306 -0.1155 -0.3449 -0.1695
16013SOL    HW149761   8.455   2.198   7.213  1.5846  1.5319 -0.0566
16013SOL    HW249762   8.445   2.259   7.351 -0.8321 -1.2040  1.0841
16014SOL     OW49763   2.975   2.894   7.805  0.2414 -0.1819  0.0739
16014SOL    HW149764   2.990   2.988   7.801 -0.1243 -0.1092  0.4192
16014SOL    HW249765   3.005   2.868   7.892  0.3553 -0.3880 -0.0255
16015SOL     OW49766   6.264   3.432   0.722  0.0353  0.3362 -0.7141
16015SOL    HW149767   6.180   3.477   0.719  0.2518  0.9587  1.1546
16015SOL    HW249768   6.327   3.500   0.746  0.8129 -0.4511 -0.4679
16016SOL     OW49769   7.560   0.949   7.854  0.1152  0.4291  0.0835
16016SOL    HW149770   7.493   1.002   7.811 -1.2864 -0.4780  1.0440
16016SOL    HW249771   7.632   0.944   7.791 -0.8000  1.2763 -1.0620
16017SOL     OW49772   1.250   6.184   6.219  0.4712 -0.1433 -0.3995
16017SOL    HW149773   1.271   6.109   6.163 -1.3714  0.1052 -1.4979
16017SOL    HW249774   1.183   6.151   6.278  0.0038  0.4985 -0.5640
16018SOL     OW49775   8.391   7.482   6.314 -0.1303 -0.2735  0.4218
16018SOL    HW149776   8.428   7.415   6.256  0.9561  0.3210  0.4036
16018SOL    HW249777   8.324   7.525   6.262  1.3497  0.7680 -0.6895
16019SOL     OW49778   0.638   0.424   7.959 -0.2226 -0.2065  0.0785
16019SOL    HW149779   0.635   0.450   8.051  2.1351 -1.3362  0.5493
16019SOL    HW249780   0.702   0.353   7.956  0.5165  0.4539 -2.5840
16020SOL     OW49781   5.967   3.121   6.662 -0.2588  0.7162  0.0372
16020SOL    HW149782   5.946   3.193   6.722 -0.6155  0.0001  0.8103
16020SOL    HW249783   6.055   3.140   6.631 -0.4787  1.6626 -0.0461
16021SOL     OW49784   6.622   8.255   4.217  0.4552 -0.5247  0.4013
16021SOL    HW149785   6.586   8.168   4.232  2.0053 -1.0358  1.4536
16021SOL    HW249786   6.635   8.291   4.305  0.0761  0.6727 -0.0144
16022SOL     OW49787   7.481   3.293   3.930 -0.5261 -0.0211 -0.1600
16022SOL    HW149788   7.390   3.300   3.902 -0.8240 -1.0955  0.5040
16022SOL    HW249789   7.476   3.262   4.020  0.4645  1.5572  0.4842
16023SOL     OW49790   7.581   2.523   5.325  0.0587  0.0374 -0.2472
16023SOL    HW149791   7.533   2.477   5.256  0.0940 -0.1285 -0.1614
16023SOL    HW249792   7.513   2.544   5.390 -0.0829  0.7185 -0.6027
16024SOL     OW49793   6.546   7.792   2.933  0.0485  0.4862  0.2233
16024SOL    HW149794   6.545   7.799   2.837  1.2630 -1.9895 -0.0727
16024SOL    HW249795   6.493   7.715   2.952  0.2691  0.6242  1.4942
16025SOL     OW49796   1.686   4.779   5.701 -0.0393  0.3808 -0.2838
16025SOL    HW149797   1.706   4.823   5.784 -0.5214 -0.6935  0.4242
16025SOL    HW249798   1.631   4.706   5.726  1.3250 -1.0666 -1.3419
16026SOL     OW49799   7.834   9.061   8.610 -0.0852  0.4170  0.1541
16026SOL    HW149800   7.755   9.006   8.603  0.0354 -0.2634  2.8736
16026SOL    HW249801   7.857   9.056   8.703  1.2984  3.2474  0.0400
16027SOL     OW49802   1.631   1.259   8.886 -0.6078 -0.3217 -0.2724
16027SOL    HW149803   1.638   1.230   8.795 -0.8183 -2.6190  0.3802
16027SOL    HW249804   1.541   1.292   8.893 -0.9097 -1.0354 -0.6704
16028SOL     OW49805   7.123   2.780   4.437 -0.4372  0.0806 -0.1020
16028SOL    HW149806   7.076   2.698   4.451  0.5268 -0.5870 -0.6521
16028SOL    HW249807   7.081   2.842   4.496 -0.8793 -0.9287  0.6781
16029SOL     OW49808   5.732   7.688   9.037  0.5391  0.1614 -0.5966
16029SOL    HW149809   5.735   7.730   9.123  1.1610 -1.5046  0.2333
16029SOL    HW249810   5.643   7.705   9.006 -0.0798 -0.1635  0.8957
16030SOL     OW49811   6.566   5.524   9.025  0.5684  0.4963  0.5462
16030SOL    HW149812   6.641   5.478   8.986  0.4743  0.3913  0.4857
16030SOL    HW249813   6.599   5.611   9.046  1.1970 -0.0816  2.1222
16031SOL     OW49814   1.037   5.161   9.557 -0.0335  0.0214 -0.2572
16031SOL    HW149815   1.055   5.244   9.600 -0.7781  0.0004  0.1131
16031SOL    HW249816   0.989   5.184   9.478 -1.1060 -0.0967  0.3366
16032SOL     OW49817   9.219   5.839   5.942  0.4781 -0.6734  0.0656
16032SOL    HW149818   9.248   5.883   5.863  4.0045  2.3264  2.6552
16032SOL    HW249819   9.293   5.784   5.968 -0.7393 -1.9035  1.1402
16033SOL     OW49820   2.409   0.454   6.245 -0.0649  0.4152 -0.4210
16033SOL    HW149821   2.455   0.437   6.163  0.3259  0.7758 -0.2750
16033SOL    HW249822   2.373   0.542   6.235 -1.0887 -0.0210 -0.7037
16034SOL     OW49823   0.687   6.182   8.704  0.3009  0.7446  0.7518
16034SOL    HW149824   0.733   6.241   8.644 -0.0046  1.1054  0.8688
16034SOL    HW249825   0.627   6.239   8.752 -2.6136 -0.1069 -1.5663
16035SOL     OW49826   8.072   2.004   7.525 -0.5466  0.6274  0.1080
16035SOL    HW149827   8.072   2.037   7.615 -0.1153  0.0394  0.3283
16035SOL    HW249828   7.982   1.976   7.510 -0.3243 -0.5770  0.8566
16036SOL     OW49829   1.914   7.974   4.390  0.0918 -0.8259  0.3293
16036SOL    HW149830   1.997   8.022   4.398  0.9771 -1.5800 -2.8915
16036SOL    HW249831   1.847   8.042   4.393  1.0680  0.2123 -0.3712
16037SOL     OW49832   3.386   1.271   4.447  0.4068  0.1389 -0.2439
16037SOL    HW149833   3.398   1.315   4.363 -1.1371 -0.1050 -0.6308
16037SOL    HW249834   3.294   1.288   4.469  0.4407 -0.9022  0.7508
16038SOL     OW49835   1.760   9.217   3.262 -0.6079  0.3898 -0.3695
16038SOL    HW149836   1.829   9.171   3.310  0.7642  1.4254 -1.2683
16038SOL    HW249837   1.684   9.161   3.271  1.0826 -2.3542 -1.8575
16039SOL     OW49838   3.667   0.324   1.853  0.5579  0.3432  0.2968
16039SOL    HW149839   3.682   0.338   1.759  1.1887  0.4539  0.4110
16039SOL    HW249840   3.616   0.400   1.880 -1.1816 -0.5515 -0.3123
16040SOL     OW49841   3.300   3.609   8.940  0.0769  0.6394  0.4692
16040SOL    HW149842   3.378   3.555   8.927  0.0767  0.7650 -0.0984
16040SOL    HW249843   3.227   3.553   8.912  0.0727  0.9142 -0.0797
16041SOL     OW49844   3.080   4.726   3.776 -0.1283  0.1429 -0.3725
16041SOL    HW149845   3.000   4.759   3.818 -1.3472 -0.7383 -1.8758
16041SOL    HW249846   3.130   4.686   3.847 -1.0599  0.6314  0.5893
16042SOL     OW49847   4.254   8.555   8.570  0.2691 -0.0051  0.2681
16042SOL    HW149848   4.189   8.516   8.629  0.3468  0.7173  0.8431
16042SOL    HW249849   4.322   8.589   8.628 -0.2583  1.8515 -0.1284
16043SOL     OW49850   5.607   2.141   5.611  0.4663  0.4012  0.2129
16043SOL    HW149851   5.543   2.112   5.676 -0.0806 -1.8316 -1.2107
16043SOL    HW249852   5.560   2.139   5.528  1.6487  1.3743 -0.5219
16044SOL     OW49853   0.736   5.768   8.450 -0.3981 -0.1226 -0.3078
16044SOL    HW149854   0.672   5.758   8.520 -0.4228  1.2099 -0.1009
16044SOL    HW249855   0.821   5.768   8.496 -0.2525 -1.5342 -0.5429
16045SOL     OW49856   7.084   3.155   8.268  0.2897 -0.0742 -0.5257
16045SOL    HW149857   7.112   3.164   8.359  1.2310 -1.9892 -0.5868
16045SOL    HW249858   7.160   3.185   8.217  0.0218  0.3228 -0.6994
16046SOL     OW49859   6.138   8.806   2.536  0.5459 -0.0517  0.0860
16046SOL    HW149860   6.188   8.865   2.479 -1.2901  1.2721 -0.2259
16046SOL    HW249861   6.059   8.786   2.486 -0.1096 -0.5765  1.3091
16047SOL     OW49862   1.341   3.036   3.344 -0.3231  0.4470  0.5027
16047SOL    HW149863   1.269   2.973   3.350 -0.3456  0.2443 -1.2976
16047SOL    HW249864   1.299   3.121   3.342 -0.3674  0.4609  1.7135
16048SOL     OW49865   3.086   5.452   8.851 -0.1679 -0.0302  0.0224
16048SOL    HW149866   3.176   5.476   8.874 -0.4075  1.3137 -0.3188
16048SOL    HW249867   3.033   5.491   8.920 -0.5533  0.0503 -0.3163
16049SOL     OW49868   5.841   6.490   5.281 -0.2887 -0.1180  0.0873
16049SOL    HW149869   5.837   6.478   5.376  2.3844 -0.4457  0.2231
16049SOL    HW249870   5.778   6.427   5.247 -0.8627 -0.4201  1.6210
16050SOL     OW49871   3.480   6.458   3.837  0.0962  0.1638  0.0974
16050SOL    HW149872   3.407   6.413   3.880 -0.0903 -0.1063 -0.4931
16050SOL    HW249873   3.450   6.474   3.748  0.8000 -0.0561 -0.1898
16051SOL     OW49874   7.800   5.210   8.893 -0.0192  0.4322  0.7588
16051SOL    HW149875   7.875   5.152   8.890  1.2798  2.0776 -0.9880
16051SOL    HW249876   7.731   5.163   8.846  0.3580 -0.4988  1.1228
16052SOL     OW49877   5.889   9.274   3.405  0.4180 -0.3295 -0.5060
16052SOL    HW149878   5.831   9.224   3.348  0.0055  0.7276 -1.0249
16052SOL    HW249879   5.962   9.300   3.349 -0.7037  1.9848 -1.0089
16053SOL     OW49880   4.711   6.245   4.647 -0.1413  0.2954  0.4402
16053SOL    HW149881   4.703   6.322   4.703  0.3180  1.1481 -0.6364
16053SOL    HW249882   4.805   6.227   4.645 -0.0911  0.6270 -0.5088
16054SOL     OW49883   4.126   2.645   7.070  0.2395 -0.5024 -0.0404
16054SOL    HW149884   4.066   2.626   6.999 -0.3680  0.5076  0.1781
16054SOL    HW249885   4.106   2.735   7.095  0.5140 -0.7965  1.3287
16055SOL     OW49886   6.888   4.419   0.335 -0.4375 -0.5753 -0.1344
16055SOL    HW149887   6.932   4.360   0.395  0.6274  0.0139 -0.3092
16055SOL    HW249888   6.835   4.475   0.391 -2.4181 -2.4126 -0.0463
16056SOL     OW49889   9.406   7.656   8.129 -0.1714 -0.5615  0.2361
16056SOL    HW149890   9.322   7.615   8.108 -0.2828  0.3227 -1.2063
16056SOL    HW249891   9.467   7.582   8.138 -0.5698 -1.1121 -1.3123
16057SOL     OW49892   0.189   1.901   3.866  0.1009 -0.0923  0.6291
16057SOL    HW149893   0.226   1.883   3.780  0.5834 -0.5385  0.9296
16057SOL    HW249894   0.126   1.830   3.881 -0.9588  0.7051  0.0853
16058SOL     OW49895   6.641   4.190   4.679 -0.2184  0.6255  0.4437
16058SOL    HW149896   6.614   4.123   4.617 -0.9418  0.1593  1.2485
16058SOL    HW249897   6.705   4.243   4.631  2.0688 -1.9134  0.4735
16059SOL     OW49898   2.301   5.686   7.600  0.5803 -0.2808  0.0794
16059SOL    HW149899   2.359   5.736   7.658  0.6495 -0.8644  0.5211
16059SOL    HW249900   2.356   5.613   7.569  0.7053  0.3113 -1.1375
16060SOL     OW49901   4.129   0.885   8.725  0.4527 -0.0776  0.1089
16060SOL    HW149902   4.174   0.801   8.715  3.1359  1.3176 -0.5512
16060SOL    HW249903   4.131   0.903   8.819  3.0609  0.7436 -0.0170
16061SOL     OW49904   5.940   3.796   7.755 -0.0917 -0.0642  0.1910
16061SOL    HW149905   5.950   3.785   7.850  0.8790 -0.8579  0.0061
16061SOL    HW249906   5.937   3.707   7.721  2.5240  0.1574 -0.8169
16062SOL     OW49907   8.648   9.489   0.690  0.2885  0.0222 -0.3531
16062SOL    HW149908   8.601   9.425   0.637 -0.0454 -0.0093 -0.0218
16062SOL    HW249909   8.611   9.479   0.778 -0.0338  0.9396 -0.3786
16063SOL     OW49910   3.481   7.602   7.002  0.5692  0.0334  0.0500
16063SOL    HW149911   3.533   7.594   6.922  1.6366 -0.5303  0.7773
16063SOL    HW249912   3.530   7.663   7.056  0.0087  0.1796  0.3952
16064SOL     OW49913   6.035   3.783   3.554 -0.3736  0.2388 -0.3702
16064SOL    HW149914   6.065   3.837   3.481 -2.2456 -1.5903 -2.6203
16064SOL    HW249915   5.964   3.833   3.593  0.6428  1.2283  0.2835
16065SOL     OW49916   8.313   3.839   5.220  0.2117  0.3333 -0.0504
16065SOL    HW149917   8.232   3.795   5.193 -0.6949  2.5855 -1.3230
16065SOL    HW249918   8.370   3.769   5.250 -1.9161 -1.4312  0.1248
16066SOL     OW49919   0.479   7.275   8.088  0.2330  0.5999 -0.0446
16066SOL    HW149920   0.465   7.181   8.086 -0.1786  0.6166 -3.4972
16066SOL    HW249921   0.575   7.285   8.085  0.2625  0.2957 -0.1326
16067SOL     OW49922   3.888   7.826   2.706 -0.7598 -0.1864 -0.3086
16067SOL    HW149923   3.895   7.730   2.703  1.1763 -0.1440  0.9280
16067SOL    HW249924   3.813   7.842   2.764 -1.9365 -0.9169 -1.5770
16068SOL     OW49925   1.368   0.785   3.598  0.3630  0.2802 -0.6606
16068SOL    HW149926   1.409   0.822   3.676 -0.8018  3.1646 -1.2537
16068SOL    HW249927   1.439   0.781   3.533  1.3383 -2.1588  0.4432
16069SOL     OW49928   1.469   5.196   1.195  0.1292 -0.3006  0.2496
16069SOL    HW149929   1.420   5.115   1.210  1.8251 -1.5961 -0.8947
16069SOL    HW249930   1.472   5.204   1.100  1.0716  0.4310  0.3332
16070SOL     OW49931   6.694   2.533   5.704 -0.2439  0.2576 -0.3332
16070SOL    HW149932   6.615   2.479   5.712 -0.3654  0.3532 -0.8395
16070SOL    HW249933   6.714   2.531   5.611 -0.5124  1.4570 -0.4313
16071SOL     OW49934   1.183   3.481   3.080 -0.4663  0.2995  0.5638
16071SOL    HW149935   1.109   3.542   3.083 -1.0300 -0.3391 -0.0735
16071SOL    HW249936   1.150   3.406   3.031 -0.0487 -0.8783  2.0210
16072SOL     OW49937   6.417   9.075   1.079 -0.0961 -0.0600 -0.0372
16072SOL    HW149938   6.355   9.142   1.107 -1.5695 -1.3466 -0.0652
16072SOL    HW249939   6.433   9.022   1.158  1.2607  0.4438  0.0552
16073SOL     OW49940   8.680   2.151   7.982 -0.0108  0.5152 -0.2324
16073SOL    HW149941   8.751   2.131   8.043 -0.0147  2.0311  0.3221
16073SOL    HW249942   8.685   2.083   7.916  1.2453 -0.0521  0.4151
16074SOL     OW49943   3.574   4.403   5.183  0.1436  0.2361  0.3433
16074SOL    HW149944   3.570   4.333   5.248  0.9876  0.0736  0.2385
16074SOL    HW249945   3.634   4.467   5.221  0.8875 -0.0010 -0.3896
16075SOL     OW49946   9.334   9.082   1.813 -0.0298 -0.7092  0.2925
16075SOL    HW149947   9.311   8.998   1.773  1.3985 -1.0198  0.0400
16075SOL    HW249948   9.258   9.138   1.798 -0.6534 -1.6890 -0.3328
16076SOL     OW49949   8.856   0.575   9.247  0.0916  0.2510  0.1008
16076SOL    HW149950   8.947   0.583   9.218 -0.1744 -0.7313 -1.1396
16076SOL    HW249951   8.862   0.558   9.341  1.4325 -3.0548 -0.4280
16077SOL     OW49952   5.180   8.082   4.340  0.2854  0.0618 -0.0771
16077SOL    HW149953   5.254   8.043   4.387  1.3543  1.5005 -0.4906
16077SOL    HW249954   5.156   8.158   4.392 -0.3774  0.0667 -0.3851
16078SOL     OW49955   8.999   1.858   5.230 -0.3217 -0.3768 -0.1957
16078SOL    HW149956   9.071   1.901   5.184 -2.3384  1.8856 -1.5049
16078SOL    HW249957   9.006   1.890   5.320 -0.1784  0.5416 -0.5212
16079SOL     OW49958   1.900   2.899   4.466 -0.4027 -0.4540  0.4433
16079SOL    HW149959   1.910   2.984   4.509 -1.4525  0.5080 -1.1173
16079SOL    HW249960   1.870   2.841   4.536 -0.2597  0.6025  1.4235
16080SOL     OW49961   0.579   7.733   2.997  0.2011 -0.0532  0.2247
16080SOL    HW149962   0.488   7.749   3.020  0.1889  2.7403 -1.3199
16080SOL    HW249963   0.575   7.671   2.924 -0.5785  1.0284 -0.6790
16081SOL     OW49964   0.271   6.278   5.609  0.2847  0.0002  0.4520
16081SOL    HW149965   0.258   6.239   5.696 -1.5913  1.1714  0.7571
16081SOL    HW249966   0.283   6.204   5.551  0.3334 -0.8736  1.5365
16082SOL     OW49967   3.726   2.171   0.033 -0.0312  0.0406 -0.5997
16082SOL    HW149968   3.783   2.161  -0.043 -1.4169 -0.5535 -1.6094
16082SOL    HW249969   3.734   2.264   0.057  1.2477 -0.0038 -0.7658
16083SOL     OW49970   5.571   3.174   6.633 -0.6506 -0.3429 -0.0127
16083SOL    HW149971   5.574   3.134   6.546  0.4073  0.0720 -0.1770
16083SOL    HW249972   5.558   3.101   6.693 -2.9139 -0.5057 -0.5931
16084SOL     OW49973   4.640   6.758   1.192  0.2845  0.3136  0.1091
16084SOL    HW149974   4.672   6.828   1.134 -0.6732 -0.3471 -1.2742
16084SOL    HW249975   4.580   6.707   1.137 -0.1248 -0.7651  1.5018
16085SOL     OW49976   4.964   7.249   7.595  0.5843 -0.3158 -0.4993
16085SOL    HW149977   4.997   7.199   7.520 -0.2427 -0.0780 -1.0392
16085SOL    HW249978   4.871   7.228   7.599  0.1095  1.4593 -1.0009
16086SOL     OW49979   2.836   4.535   7.149  0.1524  0.0544  0.1561
16086SOL    HW149980   2.926   4.526   7.180  0.6333 -1.4606 -1.5326
16086SOL    HW249981   2.842   4.597   7.076 -0.0962 -0.4220 -0.2676
16087SOL     OW49982   3.094   8.809   1.961  0.2972  0.0966  0.3529
16087SOL    HW149983   3.009   8.791   1.920 -0.1327  1.9873  0.3615
16087SOL    HW249984   3.098   8.904   1.970  2.0369 -0.0084  1.2018
16088SOL     OW49985   7.689   4.886   0.919 -0.4627 -0.0327 -0.0033
16088SOL    HW149986   7.723   4.886   0.830  0.0520 -0.9367  0.1777
16088SOL    HW249987   7.648   4.971   0.929 -3.5436 -1.0644 -2.2396
16089SOL     OW49988   3.522   9.043   7.437 -0.3658  0.2444  0.9105
16089SOL    HW149989   3.597   9.064   7.381 -1.8761  0.1264 -1.3054
16089SOL    HW249990   3.503   9.126   7.482  0.2517  0.6601  0.4328
16090SOL     OW49991   4.044   6.653   8.891 -0.1331  0.1107  0.8666
16090SOL    HW149992   3.992   6.652   8.971 -1.5980  1.5843  0.0025
16090SOL    HW249993   4.001   6.590   8.833 -0.6333  0.8720  0.3791
16091SOL     OW49994   8.954   1.619   3.991 -0.4105  0.3338 -0.0925
16091SOL    HW149995   9.049   1.624   3.979 -0.4431  0.6701 -0.2323
16091SOL    HW249996   8.924   1.564   3.918 -0.0544 -2.0375  1.4172
16092SOL     OW49997   6.846   7.022   2.194 -0.1277  0.0943 -0.1051
16092SOL    HW149998   6.768   7.013   2.140 -0.9987  1.4289  0.8814
16092SOL    HW249999   6.910   7.065   2.137 -0.3148 -0.4116 -0.7087
16093SOL     OW50000   7.176   1.916   5.003 -0.5184 -0.1958 -0.4513
16093SOL    HW150001   7.144   1.978   4.938  0.8109  0.4345 -0.5327
16093SOL    HW250002   7.135   1.833   4.978 -2.2708  0.5891 -0.3719
16094SOL     OW50003   7.680   5.664   7.106  0.4228  0.4197 -0.5916
16094SOL    HW150004   7.634   5.587   7.072 -0.5289  0.7762 -0.1452
16094SOL    HW250005   7.753   5.677   7.045  0.0417 -0.2694 -1.2125
16095SOL     OW50006   0.514   6.546   5.002  0.3827  0.0529  0.2130
16095SOL    HW150007   0.466   6.562   4.921  1.8553 -1.1152 -0.9493
16095SOL    HW250008   0.519   6.632   5.044 -0.1253  0.7503 -1.0903
16096SOL     OW50009   7.530   5.911   4.027  0.5590  0.1736 -0.4718
16096SOL    HW150010   7.617   5.872   4.021  1.1611  1.6124 -1.8543
16096SOL    HW250011   7.510   5.912   4.121  1.7969 -0.6487 -0.1850
16097SOL     OW50012   8.491   2.598   2.998 -0.0133 -0.0415  0.3123
16097SOL    HW150013   8.398   2.619   3.010  0.1345 -0.0218  1.6546
16097SOL    HW250014   8.523   2.580   3.087  0.9846 -1.2609 -0.2605
16098SOL     OW50015   0.726   7.532   6.618 -0.6972  0.3778  0.1942
16098SOL    HW150016   0.697   7.473   6.688  1.4820 -0.2458  0.6470
16098SOL    HW250017   0.792   7.587   6.659 -2.5666  3.1854 -0.2485
16099SOL     OW50018   8.373   8.374   5.438  0.2792  0.3801  0.0359
16099SOL    HW150019   8.420   8.408   5.362  0.7474 -3.4827 -1.6602
16099SOL    HW250020   8.426   8.300   5.468 -3.0212 -2.3210 -0.1080
16100SOL     OW50021   8.415   4.560   7.663 -0.2084  0.2843  0.4198
16100SOL    HW150022   8.504   4.535   7.689 -0.4558 -0.6809  0.3684
16100SOL    HW250023   8.423   4.581   7.570  0.0081  0.4172  0.4662
16101SOL     OW50024   1.309   4.008   6.617 -0.0884  0.1301  0.0925
16101SOL    HW150025   1.250   3.934   6.604 -0.2762  0.4348 -0.8890
16101SOL    HW250026   1.385   3.987   6.563 -1.1408  1.7160 -2.1824
16102SOL     OW50027   1.249   3.853   9.323  0.4178  0.4663  0.4402
16102SOL    HW150028   1.164   3.855   9.366  1.0612  0.2447  1.7719
16102SOL    HW250029   1.311   3.829   9.392  1.5244  0.2921 -0.5684
16103SOL     OW50030   6.974   0.509   4.697 -0.4295 -0.0077  0.1439
16103SOL    HW150031   6.967   0.434   4.639 -1.3600  0.1927 -0.0187
16103SOL    HW250032   6.905   0.569   4.669  1.9852  2.2163 -1.5536
16104SOL     OW50033   6.352   8.419   6.153 -0.6993  0.2896  0.1547
16104SOL    HW150034   6.391   8.506   6.160  0.1565  0.0554 -1.1522
16104SOL    HW250035   6.260   8.431   6.176 -0.7670  1.7015 -0.7161
16105SOL     OW50036   7.806   4.578   5.941  0.1071  0.3786  0.2187
16105SOL    HW150037   7.758   4.561   5.859  0.3351 -1.4720  0.4164
16105SOL    HW250038   7.896   4.591   5.913  0.4704 -1.7549  0.2252
16106SOL     OW50039   6.410   8.211   6.331  0.5523  0.0205 -0.1113
16106SOL    HW150040   6.368   8.270   6.269  0.2629  0.6359  0.6443
16106SOL    HW250041   6.338   8.161   6.369  0.8727 -1.4111 -1.3206
16107SOL     OW50042   8.718   9.684   3.006 -1.1786 -0.2634  0.3765
16107SOL    HW150043   8.755   9.611   3.056 -1.7937 -1.2654 -0.5822
16107SOL    HW250044   8.633   9.652   2.977 -0.9509  0.3776 -1.0901
16108SOL     OW50045   3.738   9.421   0.928  0.2878 -0.3878  0.4554
16108SOL    HW150046   3.786   9.347   0.965 -1.0753 -1.2695  0.5280
16108SOL    HW250047   3.789   9.498   0.954  1.2107 -1.2291  1.2100
16109SOL     OW50048   1.416   1.202   0.326  0.1716 -0.0800 -0.3246
16109SOL    HW150049   1.503   1.225   0.292 -0.4006  2.3020 -0.3410
16109SOL    HW250050   1.434   1.154   0.407  1.4978 -0.2316 -0.6784
16110SOL     OW50051   1.850   8.944   3.741 -0.2546 -0.2126  0.0695
16110SOL    HW150052   1.811   9.019   3.788  0.4632 -1.0462  2.0999
16110SOL    HW250053   1.848   8.873   3.805  4.8710 -0.2778  0.5639
16111SOL     OW50054   3.978   0.098   4.538  0.2826 -0.4473  0.3174
16111SOL    HW150055   3.975   0.153   4.616  1.0549 -1.8377  1.3741
16111SOL    HW250056   4.037   0.026   4.561  0.5665 -0.8876 -1.5648
16112SOL     OW50057   2.187   0.177   4.450 -0.2506  0.0236 -0.0537
16112SOL    HW150058   2.194   0.249   4.513 -0.1535 -0.0991  0.0763
16112SOL    HW250059   2.238   0.206   4.375 -0.2940  0.1337 -0.0409
16113SOL     OW50060   6.832   4.201   1.320 -0.2434 -0.5495  0.4290
16113SOL    HW150061   6.779   4.268   1.364  0.7097  1.9428 -1.9230
16113SOL    HW250062   6.778   4.174   1.245 -0.2754 -1.8881  0.9056
16114SOL     OW50063   4.870   0.527   1.282 -0.4478 -0.2884  0.2919
16114SOL    HW150064   4.947   0.561   1.326  0.5530  0.9464 -2.2541
16114SOL    HW250065   4.854   0.442   1.324  3.0029 -1.1510  0.1526
16115SOL     OW50066   4.072   4.811   3.849  0.2136  0.0850  0.2483
16115SOL    HW150067   4.098   4.723   3.820  0.1022 -0.7217  2.4086
16115SOL    HW250068   4.120   4.871   3.792  0.1371 -1.3743 -1.4082
16116SOL     OW50069   2.375   8.584   7.116 -0.0656  0.1761 -0.1406
16116SOL    HW150070   2.339   8.624   7.195 -1.5275 -2.2648  0.5293
16116SOL    HW250071   2.406   8.498   7.144 -1.3951 -1.1097 -2.3257
16117SOL     OW50072   2.435   3.072   0.886 -0.6675  0.8150 -0.3338
16117SOL    HW150073   2.470   3.138   0.826 -0.0881 -0.0533 -0.9891
16117SOL    HW250074   2.368   3.117   0.936  0.5139  2.2048  0.0657
16118SOL     OW50075   2.953   9.559   9.114  0.0406 -0.0460  0.2168
16118SOL    HW150076   2.904   9.577   9.034  0.9132 -0.6592 -0.4696
16118SOL    HW250077   2.936   9.467   9.134  1.2130 -0.3838 -0.2628
16119SOL     OW50078   9.340   1.666   5.800 -0.3346  0.0939  0.3670
16119SOL    HW150079   9.430   1.678   5.830 -0.3299  1.9103 -0.2832
16119SOL    HW250080   9.320   1.574   5.821  1.5236 -0.2377  0.8536
16120SOL     OW50081   7.922   2.039   2.625  0.1624 -0.1945  0.0490
16120SOL    HW150082   7.878   2.043   2.540  2.3177  0.3896 -1.1119
16120SOL    HW250083   7.943   2.131   2.645  1.1586 -0.4833  0.3717
16121SOL     OW50084   2.560   7.221   0.590 -0.2524 -0.1241 -0.2509
16121SOL    HW150085   2.637   7.209   0.535 -1.9027 -0.8970 -2.5568
16121SOL    HW250086   2.579   7.173   0.670  0.6867 -2.4658 -1.7914
16122SOL     OW50087   5.052   4.473   1.651 -0.9343  0.3253  0.3395
16122SOL    HW150088   5.050   4.383   1.618  1.3393 -0.2718  1.5559
16122SOL    HW250089   5.013   4.466   1.738  0.6602  0.1307  1.0789
16123SOL     OW50090   1.167   3.028   2.773  0.3342 -0.1076  0.0619
16123SOL    HW150091   1.074   3.051   2.774  0.1512 -0.8059  1.2853
16123SOL    HW250092   1.195   3.042   2.863  1.2804 -0.4583 -0.1723
16124SOL     OW50093   3.105   1.666   3.361 -0.1561  0.2647  0.1252
16124SOL    HW150094   3.148   1.585   3.337  0.9863  0.9930 -0.3718
16124SOL    HW250095   3.139   1.688   3.447 -0.0586  0.4894  0.0305
16125SOL     OW50096   2.115   8.213   6.495 -0.2195 -0.3248  0.1862
16125SOL    HW150097   2.038   8.270   6.496 -0.4591 -0.6444  0.1731
16125SOL    HW250098   2.162   8.234   6.575 -0.3261 -0.1339  0.1997
16126SOL     OW50099   4.820   6.078   1.613 -0.0672  0.2145  0.3060
16126SOL    HW150100   4.735   6.053   1.649 -0.8150  0.5271 -1.1634
16126SOL    HW250101   4.873   6.101   1.689 -0.9874 -0.8951  1.3220
16127SOL     OW50102   6.873   5.871   0.278 -0.2215  0.1619 -0.1528
16127SOL    HW150103   6.919   5.861   0.195  0.4860 -0.0642  0.2611
16127SOL    HW250104   6.911   5.804   0.335 -0.1660  0.8097  0.5873
16128SOL     OW50105   7.785   6.990   6.747 -0.1461  0.3980  0.5842
16128SOL    HW150106   7.791   7.042   6.667  0.1960 -0.4383  0.0585
16128SOL    HW250107   7.706   6.937   6.735 -0.4692  0.7489  1.1006
16129SOL     OW50108   0.895   0.645   4.596  0.3789  0.3773  0.6554
16129SOL    HW150109   0.855   0.731   4.581 -2.2786 -0.8311  0.2118
16129SOL    HW250110   0.874   0.624   4.686  1.6229  0.4344  0.9806
16130SOL     OW50111   8.618   4.431   7.206  0.2540 -0.3307 -0.1177
16130SOL    HW150112   8.562   4.371   7.256 -2.2811  1.9236  0.0244
16130SOL    HW250113   8.565   4.455   7.130  1.4889  1.0547 -0.5861
16131SOL     OW50114   0.236   6.594   9.222 -0.3552 -0.1191 -0.1668
16131SOL    HW150115   0.163   6.622   9.277  0.4398  0.7889  0.4642
16131SOL    HW250116   0.216   6.503   9.200 -1.1297 -0.2293  0.9068
16132SOL     OW50117   4.839   3.844   3.724  0.1040 -0.3638  0.5663
16132SOL    HW150118   4.930   3.871   3.709  0.1672 -0.4715  0.7450
16132SOL    HW250119   4.843   3.748   3.725  0.0995 -0.3578  1.2456
16133SOL     OW50120   9.038   6.387   5.510 -0.0764  0.2566  0.3854
16133SOL    HW150121   9.125   6.403   5.545  1.3248 -2.3915 -1.5548
16133SOL    HW250122   8.997   6.328   5.573  1.1866 -1.8403 -0.6636
16134SOL     OW50123   9.062   5.705   7.684  0.1973  0.5175 -0.3369
16134SOL    HW150124   9.062   5.632   7.746 -1.2178 -0.2211 -1.1645
16134SOL    HW250125   9.153   5.712   7.655  0.0779 -2.1496 -1.6170
16135SOL     OW50126   3.850   9.026   3.309  0.3544  0.1519 -0.8151
16135SOL    HW150127   3.945   9.014   3.306  0.5777  1.7529 -4.1778
16135SOL    HW250128   3.815   8.937   3.316  1.9985 -0.4251  1.5277
16136SOL     OW50129   7.362   6.930   7.243  0.5543  0.0741  0.0127
16136SOL    HW150130   7.364   6.985   7.165 -0.6050  0.1752  0.0497
16136SOL    HW250131   7.434   6.962   7.296  2.0361 -0.6535 -1.4444
16137SOL     OW50132   7.026   5.192   9.309  0.0703  0.2945 -0.1616
16137SOL    HW150133   7.041   5.286   9.303 -0.4121  0.3838 -0.0205
16137SOL    HW250134   6.946   5.183   9.361  0.5301 -0.2285  0.4680
16138SOL     OW50135   1.377   1.404   9.674  0.2527  0.2498  0.1072
16138SOL    HW150136   1.471   1.393   9.688  0.3067  0.9467  0.3253
16138SOL    HW250137   1.371   1.463   9.599 -0.0321 -1.3754 -1.2122
16139SOL     OW50138   4.898   5.330   2.920  0.2635 -0.0676  0.5278
16139SOL    HW150139   4.871   5.414   2.958  0.5992  0.8226 -1.1016
16139SOL    HW250140   4.816   5.281   2.910 -0.0151  0.3074  0.9498
16140SOL     OW50141   7.034   8.098   8.040  0.0875  0.7768 -0.5439
16140SOL    HW150142   6.949   8.142   8.032  0.8074  2.1299 -1.1563
16140SOL    HW250143   7.020   8.031   8.107 -1.0757  1.9533  0.4643
16141SOL     OW50144   4.889   8.109   0.742  0.1836 -0.0106 -0.4087
16141SOL    HW150145   4.865   8.190   0.787 -0.2683 -0.4944  0.2399
16141SOL    HW250146   4.872   8.040   0.806 -0.3691 -0.7076 -1.2793
16142SOL     OW50147   2.231   9.314   7.030 -0.2236  1.0461 -0.1522
16142SOL    HW150148   2.296   9.244   7.027  0.6353  1.8511 -0.7367
16142SOL    HW250149   2.202   9.324   6.940  0.8743  2.5422 -0.3687
16143SOL     OW50150   5.084   6.569   1.388 -0.0587 -0.0968 -0.2281
16143SOL    HW150151   5.180   6.573   1.394  0.2180 -1.0889 -2.7466
16143SOL    HW250152   5.063   6.627   1.314 -1.0106 -2.4890 -1.9523
16144SOL     OW50153   7.103   9.262   8.028 -0.0138 -0.0175 -0.4903
16144SOL    HW150154   7.117   9.206   7.952  0.6350 -0.6604  0.0926
16144SOL    HW250155   7.191   9.290   8.054 -0.2199  0.1286  0.0704
16145SOL     OW50156   4.150   7.856   4.336 -0.1737  0.1620 -0.0886
16145SOL    HW150157   4.061   7.839   4.366 -0.2658 -0.9930 -0.9307
16145SOL    HW250158   4.149   7.947   4.307 -1.2495 -0.0042 -0.6175
16146SOL     OW50159   3.982   8.829   9.603  0.6482 -0.1143  0.0674
16146SOL    HW150160   3.908   8.868   9.651 -0.8408 -0.7693 -1.6204
16146SOL    HW250161   3.959   8.839   9.511  1.3847 -2.7448 -0.4804
16147SOL     OW50162   5.401   6.877   7.370 -0.2586  0.2215  0.8090
16147SOL    HW150163   5.469   6.911   7.312  1.5248 -1.6799  1.6559
16147SOL    HW250164   5.435   6.889   7.458 -1.5881  0.3543  1.3315
16148SOL     OW50165   8.171   0.524   3.532  0.0334  0.5855 -0.7576
16148SOL    HW150166   8.077   0.518   3.516  0.1675  0.4455 -1.5413
16148SOL    HW250167   8.186   0.470   3.610 -0.3623 -0.3928 -1.3426
16149SOL     OW50168   7.472   1.044   4.204 -0.1210  0.1890  0.4832
16149SOL    HW150169   7.424   1.100   4.264 -0.1121  0.5264  0.1780
16149SOL    HW250170   7.494   1.100   4.130  0.4894 -0.0343  0.4826
16150SOL     OW50171   8.303   4.094   5.812  0.5056  0.0758 -0.2535
16150SOL    HW150172   8.375   4.150   5.783 -0.9152  1.3744 -1.5240
16150SOL    HW250173   8.308   4.016   5.757 -0.0968  0.9831 -1.6638
16151SOL     OW50174   2.328   8.747   5.847  0.5034 -0.2940  0.8694
16151SOL    HW150175   2.374   8.775   5.768 -0.5472  0.3665  0.4838
16151SOL    HW250176   2.236   8.741   5.821  0.4805 -2.9073  1.2658
16152SOL     OW50177   0.815   6.996   9.526 -0.0416  0.3571 -0.5440
16152SOL    HW150178   0.818   6.919   9.469 -2.6366  1.1564 -1.8856
16152SOL    HW250179   0.907   7.013   9.547  0.6759 -2.6938 -0.6841
16153SOL     OW50180   2.863   3.316   0.075  0.1209 -0.4049  0.1878
16153SOL    HW150181   2.779   3.282   0.044 -0.1597  0.4349  0.0058
16153SOL    HW250182   2.856   3.411   0.063  0.1197 -0.0488  2.4554
16154SOL     OW50183   9.151   8.929   8.577 -0.5284  0.7347  0.2777
16154SOL    HW150184   9.164   9.024   8.575  1.6373  0.4693 -0.3121
16154SOL    HW250185   9.142   8.904   8.485  0.5574  0.1772  0.3151
16155SOL     OW50186   6.630   4.799   7.238  0.6601 -0.2805  0.2541
16155SOL    HW150187   6.576   4.788   7.316 -1.1892 -0.8336 -1.0413
16155SOL    HW250188   6.583   4.752   7.170  0.6550  2.5927 -1.9084
16156SOL     OW50189   1.180   3.286   1.533  0.3184 -0.4497  0.1645
16156SOL    HW150190   1.273   3.298   1.514  0.6944 -0.7354  1.6541
16156SOL    HW250191   1.167   3.328   1.618 -1.3111  1.0513 -0.7430
16157SOL     OW50192   5.802   2.394   7.079  0.0677 -0.3537  0.0737
16157SOL    HW150193   5.731   2.335   7.101 -1.0555  1.2842  1.0996
16157SOL    HW250194   5.818   2.443   7.159  1.8950 -0.1915 -0.3447
16158SOL     OW50195   0.070   7.882   3.306  0.1004  0.2582  0.1279
16158SOL    HW150196   0.121   7.807   3.335 -0.5461 -0.5981 -0.8644
16158SOL    HW250197  -0.021   7.858   3.326 -0.0887  0.9089  0.0786
16159SOL     OW50198   1.327   4.732   0.319  0.0013  0.0211 -0.7148
16159SOL    HW150199   1.324   4.681   0.238 -2.0810  0.7292 -1.1271
16159SOL    HW250200   1.298   4.671   0.387  1.2247 -0.4162 -0.5666
16160SOL     OW50201   5.111   1.508   3.292  0.0431 -0.4572 -0.2782
16160SOL    HW150202   5.095   1.416   3.273 -2.3364 -0.4635  1.2714
16160SOL    HW250203   5.155   1.509   3.377 -1.7829 -0.1773  0.7085
16161SOL     OW50204   5.016   2.090   1.290  0.2593  0.3953  0.3709
16161SOL    HW150205   4.945   2.124   1.235 -1.9983 -0.5816  2.4843
16161SOL    HW250206   5.018   1.996   1.273  0.8712  0.3764  0.5217
16162SOL     OW50207   6.448   5.787   8.480 -0.0740 -0.0458 -0.7875
16162SOL    HW150208   6.535   5.823   8.460  0.4152  0.2752  1.5837
16162SOL    HW250209   6.397   5.863   8.509 -0.6321 -0.4775 -0.6275
16163SOL     OW50210   2.161   0.671   2.425  0.2859 -0.5180  0.2327
16163SOL    HW150211   2.133   0.585   2.455  0.6149 -0.0295  2.0293
16163SOL    HW250212   2.100   0.733   2.466  0.3741  0.1476 -0.6088
16164SOL     OW50213   9.644   5.754   1.790 -0.8354 -0.0894 -0.1771
16164SOL    HW150214   9.644   5.682   1.852 -0.6597 -0.8754 -1.0779
16164SOL    HW250215   9.625   5.831   1.844  0.3179 -0.5954  1.0098
16165SOL     OW50216   6.066   5.647   1.447  0.3008 -0.0577 -0.6667
16165SOL    HW150217   6.119   5.721   1.476  1.7940 -0.7706 -1.4590
16165SOL    HW250218   5.984   5.686   1.418 -1.1312  0.7944  3.7242
16166SOL     OW50219   1.000   3.174   9.018  0.1147  0.4207  0.6285
16166SOL    HW150220   1.025   3.091   8.977 -0.0132  0.1239  1.1455
16166SOL    HW250221   0.909   3.161   9.045 -1.4551  2.1756 -3.0675
16167SOL     OW50222   1.808   3.447   6.707 -0.2570 -0.6035  0.2506
16167SOL    HW150223   1.730   3.457   6.652 -0.6643 -2.3765  0.4301
16167SOL    HW250224   1.775   3.413   6.790  0.6104 -0.4385  0.6757
16168SOL     OW50225   0.128   0.460   7.640  0.4150  1.1398  0.4038
16168SOL    HW150226   0.219   0.483   7.661  1.4070 -2.5598  0.8023
16168SOL    HW250227   0.079   0.481   7.720  1.2310  1.6001  0.7965
16169SOL     OW50228   4.865   8.646   7.694  0.4692  0.8900 -0.3390
16169SOL    HW150229   4.775   8.653   7.665  0.9506  2.1474 -1.6170
16169SOL    HW250230   4.887   8.553   7.683  0.6357  1.2543 -4.1910
16170SOL     OW50231   0.887   2.759   6.310  0.1541 -0.6899  0.2160
16170SOL    HW150232   0.889   2.798   6.222 -0.7571 -0.9921  0.0504
16170SOL    HW250233   0.978   2.737   6.329  0.3663 -0.5585 -0.6231
16171SOL     OW50234   2.199   3.530   0.086 -0.3532  0.3469 -0.2728
16171SOL    HW150235   2.286   3.548   0.119 -0.4267  1.8450 -0.8125
16171SOL    HW250236   2.157   3.477   0.154  1.5650 -2.0609 -0.8447
16172SOL     OW50237   4.495   8.942   3.426 -0.3139 -0.5496  0.1019
16172SOL    HW150238   4.584   8.946   3.459  0.1577  0.5278 -1.2122
16172SOL    HW250239   4.502   8.966   3.334 -2.1444  1.1920  0.3437
16173SOL     OW50240   7.158   6.065   4.802  0.5153 -0.1912 -0.2170
16173SOL    HW150241   7.224   6.082   4.869  0.4606  0.0368 -0.2221
16173SOL    HW250242   7.117   6.150   4.786 -0.6400 -0.5484  0.6773
16174SOL     OW50243   9.638   7.503   2.599 -0.3954  0.3242  0.7675
16174SOL    HW150244   9.620   7.463   2.684  0.4177  1.3097  1.4232
16174SOL    HW250245   9.567   7.566   2.586 -0.9615 -0.3917  0.3328
16175SOL     OW50246   8.556   9.368   8.756 -0.0565 -0.2414 -0.3510
16175SOL    HW150247   8.638   9.383   8.803 -0.3317 -0.6341  0.2640
16175SOL    HW250248   8.530   9.278   8.779 -1.6885  0.5290  1.0955
16176SOL     OW50249   3.431   0.449   8.014  0.2186 -0.0451 -0.2947
16176SOL    HW150250   3.440   0.482   7.925 -0.3153  0.2406 -0.2426
16176SOL    HW250251   3.464   0.359   8.010  0.3140  0.0086 -0.7470
16177SOL     OW50252   2.616   0.802   0.523 -0.5606 -0.2578  0.1959
16177SOL    HW150253   2.598   0.725   0.470 -0.9613 -0.5272  0.7113
16177SOL    HW250254   2.550   0.866   0.496 -1.6207 -0.8550  1.2883
16178SOL     OW50255   6.577   4.508   8.358 -0.0960  0.2335 -0.0426
16178SOL    HW150256   6.546   4.518   8.268  0.9397  0.6354 -0.3773
16178SOL    HW250257   6.513   4.555   8.411 -0.4393  0.4419 -0.6294
16179SOL     OW50258   8.110   4.096   8.442  0.3601  0.0838  0.0585
16179SOL    HW150259   8.052   4.124   8.371  1.9742  0.3895 -1.1962
16179SOL    HW250260   8.093   4.002   8.451 -0.1430  0.1163 -0.4616
16180SOL     OW50261   3.833   6.676   1.873  0.6364  0.6974  0.4558
16180SOL    HW150262   3.846   6.582   1.857 -1.0508  0.1038  2.1458
16180SOL    HW250263   3.763   6.701   1.812  1.6726  1.1069 -0.6024
16181SOL     OW50264   6.667   0.526   9.319 -0.5162  0.0002 -0.0641
16181SOL    HW150265   6.620   0.448   9.289 -0.6248 -0.4896  1.3346
16181SOL    HW250266   6.601   0.580   9.362 -0.4271  0.8599 -0.9426
16182SOL     OW50267   6.500   4.151   9.139  0.5756  0.0944  0.2156
16182SOL    HW150268   6.482   4.226   9.083 -0.8818 -0.7684 -0.5206
16182SOL    HW250269   6.420   4.098   9.135  1.5883 -1.5386  0.6391
16183SOL     OW50270   0.119   9.143   8.272 -0.0588 -0.1085 -0.0396
16183SOL    HW150271   0.121   9.062   8.323 -0.3284 -0.4173 -0.5126
16183SOL    HW250272   0.200   9.188   8.296  0.1942 -0.6152  0.0731
16184SOL     OW50273   1.259   4.570   8.235  0.9332 -0.4230 -0.1352
16184SOL    HW150274   1.299   4.651   8.267  0.7674 -0.1619 -0.5840
16184SOL    HW250275   1.322   4.502   8.260  0.2911 -0.3753  1.7101
16185SOL     OW50276   0.493   1.408   5.339  0.1211 -0.1462  0.1340
16185SOL    HW150277   0.485   1.315   5.321  1.1890  0.0121 -1.3133
16185SOL    HW250278   0.539   1.444   5.263 -0.2872  1.5673  0.6490
16186SOL     OW50279   6.165   7.500   7.255 -0.5483 -0.0601  0.2362
16186SOL    HW150280   6.217   7.474   7.331  1.4817 -0.4255 -1.2180
16186SOL    HW250281   6.171   7.596   7.254 -1.3819  0.0257  1.0207
16187SOL     OW50282   9.287   7.312   8.926 -0.1589  0.6254  0.1070
16187SOL    HW150283   9.382   7.300   8.924 -0.0255  0.2986  3.3865
16187SOL    HW250284   9.271   7.367   9.002 -2.4937  2.8242 -1.7924
16188SOL     OW50285   0.360   5.570   2.638 -0.2128  0.4628  0.2277
16188SOL    HW150286   0.287   5.538   2.586  1.1057 -0.9554 -0.8380
16188SOL    HW250287   0.387   5.651   2.595 -1.1287  0.9927  0.6282
16189SOL     OW50288   7.852   7.336   3.083 -0.3008  0.1742  0.5127
16189SOL    HW150289   7.829   7.361   2.993 -0.0100 -1.0268  0.0847
16189SOL    HW250290   7.774   7.293   3.116  0.2519 -1.1654  0.1257
16190SOL     OW50291   0.964   4.329   1.666  0.4513  0.4144  0.2765
16190SOL    HW150292   0.994   4.403   1.717  0.6685 -0.7624  1.9430
16190SOL    HW250293   1.043   4.279   1.647  0.1546 -0.0838  0.3242
16191SOL     OW50294   2.135   8.694   4.534  0.3804 -0.0375  0.0098
16191SOL    HW150295   2.056   8.650   4.565 -0.5397  0.5470 -1.3752
16191SOL    HW250296   2.201   8.677   4.601 -0.5809 -1.5721  0.6099
16192SOL     OW50297   3.379   1.361   0.143  0.0750  0.2281 -0.4854
16192SOL    HW150298   3.409   1.271   0.156 -2.9169 -0.8913 -0.4266
16192SOL    HW250299   3.417   1.387   0.058 -0.3495 -1.7532 -1.3436
16193SOL     OW50300   6.347   7.010   6.497  0.8750  0.1121  0.5601
16193SOL    HW150301   6.390   7.066   6.431  1.3347  0.1311  0.8684
16193SOL    HW250302   6.254   7.019   6.479  1.0027 -0.0158 -0.1984
16194SOL     OW50303   8.838   7.670   6.908 -1.3019  0.0426 -0.3121
16194SOL    HW150304   8.788   7.653   6.988 -0.8488  0.3302  0.0361
16194SOL    HW250305   8.774   7.709   6.848 -1.6010 -0.0093 -0.0339
16195SOL     OW50306   6.848   0.425   4.317 -0.1213 -0.0631 -0.6277
16195SOL    HW150307   6.826   0.508   4.360  0.3969 -0.7617  1.0723
16195SOL    HW250308   6.784   0.416   4.247 -1.5756  0.7243  0.5550
16196SOL     OW50309   0.969   8.978   5.990 -0.6913 -0.0619 -0.1584
16196SOL    HW150310   1.024   8.948   6.063 -3.8579  0.8398  2.9015
16196SOL    HW250311   0.979   9.073   5.989 -1.0428 -0.0250 -0.5467
16197SOL     OW50312   5.439   6.147   6.737  0.1463  0.0293 -0.3270
16197SOL    HW150313   5.474   6.059   6.738 -1.7695 -0.7925 -0.3988
16197SOL    HW250314   5.389   6.153   6.656  0.7339  1.3976 -0.6239
16198SOL     OW50315   7.150   6.873   6.367 -0.0116 -0.4811 -0.1451
16198SOL    HW150316   7.065   6.892   6.407  0.3223 -0.7914  0.7398
16198SOL    HW250317   7.196   6.821   6.433  1.2990  0.6244 -0.1382
16199SOL     OW50318   3.237   6.011   3.845  0.1199  0.1620 -0.0705
16199SOL    HW150319   3.220   6.088   3.791 -1.2230 -0.9825 -1.3676
16199SOL    HW250320   3.169   5.948   3.819  0.1904 -0.8927  2.0824
16200SOL     OW50321   8.626   6.982   8.119  0.1932  0.5814 -0.5771
16200SOL    HW150322   8.597   6.916   8.182  0.4126 -0.9026 -1.9606
16200SOL    HW250323   8.716   6.957   8.097  0.5892  1.8477 -0.5285
16201SOL     OW50324   2.770   2.715   5.443  0.2898 -0.8419 -0.4965
16201SOL    HW150325   2.837   2.673   5.498  0.0522  1.8983  2.1351
16201SOL    HW250326   2.696   2.731   5.502 -0.3871  1.4292 -1.8129
16202SOL     OW50327   2.874   5.077   0.083 -0.2368 -0.2506  0.8041
16202SOL    HW150328   2.828   5.027   0.016  0.7971 -0.2087  0.0298
16202SOL    HW250329   2.929   5.012   0.127  2.6170  0.3794 -1.4924
16203SOL     OW50330   7.590   2.886   7.381 -0.0884  0.2494  0.4732
16203SOL    HW150331   7.535   2.839   7.319 -1.5563  2.8985 -0.3905
16203SOL    HW250332   7.676   2.890   7.339 -0.0898 -1.0988  0.3173
16204SOL     OW50333   8.187   9.452   1.272  0.3488  0.1871  0.5110
16204SOL    HW150334   8.177   9.417   1.184 -1.3130 -0.0898  0.7732
16204SOL    HW250335   8.221   9.379   1.324 -0.1409 -0.1212  0.4053
16205SOL     OW50336   5.172   7.017   2.608  0.7664 -0.2368  0.1526
16205SOL    HW150337   5.111   7.022   2.682  0.0589  1.1175 -0.4785
16205SOL    HW250338   5.142   6.943   2.556  0.0197  0.0521  0.1679
16206SOL     OW50339   0.594   1.086   5.163  0.3473  0.5902 -0.0045
16206SOL    HW150340   0.501   1.096   5.185  0.0965 -0.8924 -0.2751
16206SOL    HW250341   0.604   0.992   5.144  1.3387  1.1473 -2.6016
16207SOL     OW50342   6.035   8.789   7.488  0.1060 -0.1471 -0.0927
16207SOL    HW150343   5.952   8.805   7.443  0.7023 -0.4500 -1.3666
16207SOL    HW250344   6.048   8.694   7.481  0.1968 -0.2054  0.7749
16208SOL     OW50345   4.124   5.665   1.611 -0.2860  0.1769  0.2722
16208SOL    HW150346   4.196   5.663   1.549 -0.3171 -0.0268  0.2415
16208SOL    HW250347   4.136   5.747   1.659 -0.0675  0.1709  0.2295
16209SOL     OW50348   8.333   7.051   5.411 -0.2260 -0.1462 -0.6578
16209SOL    HW150349   8.339   7.034   5.505  0.5832  0.4693 -0.5854
16209SOL    HW250350   8.336   6.965   5.371  0.3547 -0.3690 -0.1557
16210SOL     OW50351   5.963   6.336   5.088  0.2230 -0.2713 -0.4478
16210SOL    HW150352   6.050   6.326   5.051 -0.6128  0.2149 -2.7160
16210SOL    HW250353   5.964   6.421   5.131  1.1105 -0.6922  0.4070
16211SOL     OW50354   3.246   1.073   4.658  0.3257 -0.1989  0.1539
16211SOL    HW150355   3.178   1.139   4.643  0.0357 -0.4065  0.5438
16211SOL    HW250356   3.276   1.089   4.747  0.3390 -0.5231  0.2063
16212SOL     OW50357   6.148   3.179   3.554  0.3055 -0.1923 -0.0407
16212SOL    HW150358   6.059   3.168   3.521  1.1368 -1.1202 -2.1713
16212SOL    HW250359   6.175   3.091   3.580  0.7327  0.0047  0.1890
16213SOL     OW50360   5.171   9.098   5.231  0.0331  0.2604  0.5571
16213SOL    HW150361   5.259   9.063   5.246  0.6406  1.5212  0.0306
16213SOL    HW250362   5.157   9.088   5.137 -0.0433  0.8457  0.5062
16214SOL     OW50363   3.900   3.621   6.926 -0.1122  0.0407 -0.5239
16214SOL    HW150364   3.916   3.642   7.019  1.3668 -0.6886 -0.5811
16214SOL    HW250365   3.888   3.707   6.884  0.0590  0.4276  0.1979
16215SOL     OW50366   5.802   1.102   6.028  0.7035 -0.8955 -0.6316
16215SOL    HW150367   5.792   1.197   6.029 -1.8603 -1.0831  1.4946
16215SOL    HW250368   5.792   1.078   5.935  0.6554  0.8285 -1.0959
16216SOL     OW50369   3.118   4.123   7.879 -0.4082 -0.5749  0.3566
16216SOL    HW150370   3.190   4.186   7.872  0.8127 -1.7327  1.7553
16216SOL    HW250371   3.143   4.066   7.952 -2.6769 -1.1325  0.7921
16217SOL     OW50372   9.388   4.978   6.257  0.6227 -0.4037 -0.3168
16217SOL    HW150373   9.339   4.895   6.262  1.2374 -0.7052  1.2383
16217SOL    HW250374   9.451   4.973   6.329  0.2449  1.7062  0.2290
16218SOL     OW50375   4.670   5.462   4.572  0.1709  0.5502 -0.4299
16218SOL    HW150376   4.642   5.381   4.529 -1.1316  0.1442  1.1032
16218SOL    HW250377   4.758   5.443   4.603 -0.2554 -0.4324  0.2280
16219SOL     OW50378   2.443   8.334   6.555 -0.2747  0.4605 -0.3539
16219SOL    HW150379   2.396   8.276   6.615 -1.8611  2.1894  0.1737
16219SOL    HW250380   2.384   8.345   6.480  0.3182  0.8291 -0.7806
16220SOL     OW50381   4.029   7.050   2.085  0.1157 -0.3574 -0.4098
16220SOL    HW150382   4.115   7.028   2.047  1.2267 -0.4396  1.9743
16220SOL    HW250383   3.967   6.995   2.037  1.6801 -1.9392 -0.7293
16221SOL     OW50384   4.480   0.905   0.043  0.6228 -0.2553 -0.1435
16221SOL    HW150385   4.385   0.912   0.036  0.6745  0.5837 -0.0751
16221SOL    HW250386   4.495   0.878   0.134  0.4970  0.9528  0.2584
16222SOL     OW50387   9.437   0.100   8.667 -0.0528 -0.6767  0.1442
16222SOL    HW150388   9.503   0.032   8.680  1.1113  0.4554  0.4530
16222SOL    HW250389   9.452   0.162   8.739 -1.2764 -0.2443  0.0519
16223SOL     OW50390   9.455   0.370   6.285 -0.3120 -0.3488 -0.2993
16223SOL    HW150391   9.471   0.314   6.209  0.2403  2.2063 -2.1961
16223SOL    HW250392   9.520   0.440   6.277 -0.1938 -0.0096  2.6032
16224SOL     OW50393   8.867   1.207   5.813 -0.2704 -0.1163  0.1853
16224SOL    HW150394   8.779   1.225   5.780 -0.4199 -0.5126  0.3650
16224SOL    HW250395   8.883   1.116   5.790 -0.0695 -0.1646  0.5107
16225SOL     OW50396   7.958   4.560   2.310  0.0959  0.0794  0.2759
16225SOL    HW150397   8.032   4.515   2.268 -0.2746 -1.2776  1.0102
16225SOL    HW250398   7.999   4.627   2.364  0.7641 -0.2164  0.1554
16226SOL     OW50399   1.698   1.448   4.721 -0.3833  0.4340  0.2608
16226SOL    HW150400   1.657   1.534   4.711  1.4683  1.2212 -1.3134
16226SOL    HW250401   1.791   1.465   4.709 -0.1168 -2.0454 -2.0519
16227SOL     OW50402   9.623   8.303   1.963  0.6680 -0.0917 -0.0463
16227SOL    HW150403   9.537   8.263   1.978  1.2553 -1.6772 -0.6817
16227SOL    HW250404   9.674   8.280   2.041  0.6164  0.5865  0.1924
16228SOL     OW50405   3.540   1.094   4.818  0.3159 -0.4382 -0.4285
16228SOL    HW150406   3.491   1.059   4.743 -0.4013  0.4162 -0.3647
16228SOL    HW250407   3.513   1.039   4.892  2.0425 -2.1777 -0.9966
16229SOL     OW50408   2.198   0.472   4.528 -0.4125 -0.5131 -0.2237
16229SOL    HW150409   2.247   0.521   4.462 -0.9831 -1.4431 -1.3755
16229SOL    HW250410   2.143   0.537   4.571  1.0241  0.3633  0.3725
16230SOL     OW50411   6.977   5.838   9.235 -0.0806  0.3755  0.1566
16230SOL    HW150412   6.937   5.788   9.305 -1.8760  0.8855 -0.4386
16230SOL    HW250413   7.053   5.881   9.275 -0.2882 -0.4146  1.4142
16231SOL     OW50414   5.726   4.795   2.269 -0.3062 -0.0672 -0.6058
16231SOL    HW150415   5.797   4.746   2.226 -0.7506 -0.9995 -0.3116
16231SOL    HW250416   5.764   4.820   2.353 -0.4949 -1.0621 -0.2084
16232SOL     OW50417   9.275   9.119   4.525 -0.5021  0.1431  0.1205
16232SOL    HW150418   9.304   9.029   4.531 -0.8759  0.0612  0.8134
16232SOL    HW250419   9.228   9.124   4.441 -0.2591 -0.2312 -0.0405
16233SOL     OW50420   0.903   4.842   5.000  0.3861 -0.6410  0.0003
16233SOL    HW150421   0.824   4.788   5.001  0.6683 -1.0551  0.9002
16233SOL    HW250422   0.915   4.869   5.091  0.0015  1.3367 -0.4913
16234SOL     OW50423   6.339   1.477   2.692  0.0916  0.3960 -0.5809
16234SOL    HW150424   6.428   1.461   2.659  0.2964 -2.0760  0.9439
16234SOL    HW250425   6.351   1.493   2.785 -1.0802  0.0970 -0.3720
16235SOL     OW50426   0.033   1.204   5.090 -0.5683  0.0907  0.5117
16235SOL    HW150427  -0.020   1.283   5.079 -0.7294 -0.0749  0.0737
16235SOL    HW250428  -0.012   1.153   5.157 -0.7299  0.1476  0.4464
16236SOL     OW50429   4.412   7.541   1.044  0.4230 -0.2188 -0.7123
16236SOL    HW150430   4.450   7.510   1.126  1.0471  0.7783 -0.6005
16236SOL    HW250431   4.371   7.464   1.005 -1.4601 -0.3773  1.3786
16237SOL     OW50432   1.964   4.994   3.961 -0.3395  0.3777 -0.2908
16237SOL    HW150433   1.911   4.947   4.026 -0.4238  0.8435 -0.0197
16237SOL    HW250434   1.927   5.083   3.960 -0.3817  0.3559 -1.0228
16238SOL     OW50435   2.726   9.283   1.189 -0.2454 -0.7243  0.0834
16238SOL    HW150436   2.790   9.227   1.144 -0.3294  0.0103 -1.0062
16238SOL    HW250437   2.778   9.348   1.235 -0.1759 -0.3772 -0.4681
16239SOL     OW50438   9.309   5.530   2.501 -0.1585 -0.0579  0.2241
16239SOL    HW150439   9.336   5.501   2.414 -0.7588  0.6226 -0.2087
16239SOL    HW250440   9.330   5.624   2.502 -1.5534  0.2783  0.2244
16240SOL     OW50441   8.802   7.328   7.508 -0.0534  0.2946  0.3163
16240SOL    HW150442   8.738   7.267   7.472 -0.1015 -0.0017  0.8967
16240SOL    HW250443   8.874   7.328   7.445 -1.2997  1.8680 -1.2086
16241SOL     OW50444   5.426   1.161   2.952  0.1708 -0.4376  0.8394
16241SOL    HW150445   5.370   1.120   3.018  0.6450 -0.6132  1.1401
16241SOL    HW250446   5.367   1.215   2.901 -0.6029 -1.9621  0.0434
16242SOL     OW50447   6.403   6.448   6.236 -0.1903  0.1760  0.4058
16242SOL    HW150448   6.408   6.518   6.171 -2.4929 -1.1262 -1.3377
16242SOL    HW250449   6.405   6.368   6.185 -1.2631 -0.9274  1.9883
16243SOL     OW50450   8.920   0.546   9.515  0.5107 -0.1059  0.2716
16243SOL    HW150451   8.920   0.459   9.555 -0.0590 -1.0515 -1.6332
16243SOL    HW250452   9.011   0.563   9.495  0.4188 -1.4331 -1.5789
16244SOL     OW50453   2.225   7.597   3.559  0.5311 -0.1281 -1.2650
16244SOL    HW150454   2.260   7.567   3.642 -2.1347 -3.3013 -1.0605
16244SOL    HW250455   2.301   7.608   3.502  2.2609  0.4015  1.0392
16245SOL     OW50456   6.931   8.354   5.014  0.4741 -0.7050 -0.1355
16245SOL    HW150457   6.985   8.293   4.963  0.4914 -0.7480 -0.0669
16245SOL    HW250458   6.932   8.318   5.103 -1.3372 -1.8560 -0.5289
16246SOL     OW50459   8.257   7.753   8.483  0.0922  0.5388 -0.0205
16246SOL    HW150460   8.180   7.741   8.427 -0.6251  0.9689  0.8707
16246SOL    HW250461   8.225   7.798   8.560  1.5608  2.3229 -0.3868
16247SOL     OW50462   1.940   1.973   1.606  0.3851 -0.1704 -0.8734
16247SOL    HW150463   1.933   1.945   1.698 -0.6871  0.5883 -0.7047
16247SOL    HW250464   1.950   1.891   1.557 -0.2842 -0.6834 -0.1867
16248SOL     OW50465   6.329   5.861   8.162 -0.5499 -0.0783 -0.7354
16248SOL    HW150466   6.289   5.865   8.076  0.5433  0.3858 -1.2454
16248SOL    HW250467   6.298   5.778   8.200 -2.1176  0.3628 -1.0022
16249SOL     OW50468   0.465   6.110   7.257 -0.2319 -0.1334  0.0886
16249SOL    HW150469   0.427   6.143   7.338  1.8516  1.0358  0.6795
16249SOL    HW250470   0.393   6.111   7.194 -1.6943 -0.2580  1.6817
16250SOL     OW50471   9.165   2.813   5.158  0.2860  0.4630 -0.0924
16250SOL    HW150472   9.125   2.787   5.241  0.8678  0.0975  0.0758
16250SOL    HW250473   9.215   2.892   5.179 -1.4230  1.7357 -0.5881
16251SOL     OW50474   2.724   5.220   5.363  0.3072  0.0245 -0.8201
16251SOL    HW150475   2.816   5.194   5.362  0.3323  0.0945 -0.4300
16251SOL    HW250476   2.723   5.303   5.409 -0.0499 -0.3905 -0.0612
16252SOL     OW50477   6.886   0.392   1.528  0.1890 -0.9079  0.4383
16252SOL    HW150478   6.923   0.392   1.440  0.7480  0.4115  0.6531
16252SOL    HW250479   6.891   0.301   1.556 -0.0790 -1.3678 -0.9144
16253SOL     OW50480   6.229   3.404   2.256 -0.0859 -1.2093 -0.0864
16253SOL    HW150481   6.279   3.470   2.209 -0.8174 -2.3931 -2.7231
16253SOL    HW250482   6.194   3.450   2.332  0.5861  1.0375 -1.0492
16254SOL     OW50483   6.542   8.554   2.701  0.0461  0.4922  0.5481
16254SOL    HW150484   6.607   8.543   2.770  0.9097 -2.8342 -0.6099
16254SOL    HW250485   6.594   8.577   2.623 -0.2112 -1.0675 -0.1252
16255SOL     OW50486   4.363   0.263   4.969 -0.1209  0.0087  0.9601
16255SOL    HW150487   4.405   0.299   5.047 -1.0805  0.9430  1.0777
16255SOL    HW250488   4.300   0.200   5.003 -0.1325 -0.0109  0.9026
16256SOL     OW50489   8.484   1.492   3.703  0.3034 -0.9895  0.2045
16256SOL    HW150490   8.464   1.563   3.643  0.5612 -1.0865  0.0035
16256SOL    HW250491   8.578   1.499   3.718  0.4590 -1.7451 -0.4025
16257SOL     OW50492   7.422   4.746   3.950  0.1325 -0.0858  0.0719
16257SOL    HW150493   7.355   4.678   3.947  1.1364 -1.0594 -1.6151
16257SOL    HW250494   7.499   4.706   3.910  1.4983  1.2704  1.2187
16258SOL     OW50495   6.829   1.609   0.026 -0.2423 -0.6151 -0.6782
16258SOL    HW150496   6.774   1.595   0.104  0.6356  0.3368  0.1243
16258SOL    HW250497   6.910   1.562   0.045 -0.7195 -2.0308 -1.8737
16259SOL     OW50498   0.582   2.072   1.701  0.3586  0.0850  0.3601
16259SOL    HW150499   0.487   2.076   1.699  0.3852  0.4470 -0.4749
16259SOL    HW250500   0.607   2.032   1.618  0.8887 -1.3590  1.1646
16260SOL     OW50501   8.119   6.397   3.035  0.0292  0.7204  0.7788
16260SOL    HW150502   8.200   6.429   3.075 -0.0974  1.5331  0.3906
16260SOL    HW250503   8.130   6.413   2.942 -0.4586  0.5576  0.6925
16261SOL     OW50504   0.138   5.358   2.135  0.2829 -0.0274 -0.2047
16261SOL    HW150505   0.062   5.332   2.187 -1.4310  1.1868 -1.9626
16261SOL    HW250506   0.153   5.285   2.076  0.1055 -0.0089 -0.2710
16262SOL     OW50507   3.019   2.896   2.970 -0.2074 -0.1822  0.7188
16262SOL    HW150508   3.082   2.865   3.035  0.1870 -0.2960  0.2892
16262SOL    HW250509   3.068   2.957   2.915 -1.3509  2.4615  2.4534
16263SOL     OW50510   8.102   3.474   1.429 -0.0851  0.2195 -0.4074
16263SOL    HW150511   8.128   3.544   1.488  2.0867 -1.1337  0.3647
16263SOL    HW250512   8.007   3.478   1.427 -0.0527  3.5129 -0.8718
16264SOL     OW50513   5.144   9.137   6.214 -0.2741  0.1998  0.4522
16264SOL    HW150514   5.051   9.158   6.222 -1.2111 -3.3828  0.6334
16264SOL    HW250515   5.154   9.109   6.123  0.6579  0.4753  0.4618
16265SOL     OW50516   8.624   7.545   6.704  0.1822  0.3655 -0.2609
16265SOL    HW150517   8.669   7.544   6.619  0.8332 -0.3109  0.0814
16265SOL    HW250518   8.669   7.479   6.756 -1.3635 -0.5126  0.0345
16266SOL     OW50519   2.994   7.663   5.025 -0.1637  0.0554  0.4523
16266SOL    HW150520   2.993   7.745   4.976 -0.6523  0.1814  0.6673
16266SOL    HW250521   2.957   7.599   4.963 -0.0115  0.0482  0.3691
16267SOL     OW50522   1.326   3.655   9.144  0.8633 -0.6736  0.0834
16267SOL    HW150523   1.284   3.722   9.198  2.9749  1.0720 -0.3144
16267SOL    HW250524   1.354   3.702   9.065  3.2993 -1.7671  0.2289
16268SOL     OW50525   7.712   9.238   0.770 -0.2227 -0.0141  0.3433
16268SOL    HW150526   7.632   9.265   0.725 -0.3288  1.3820  1.3289
16268SOL    HW250527   7.757   9.182   0.706 -1.8469 -0.6319 -0.3108
16269SOL     OW50528   6.895   7.434   3.930  0.2331  0.1770 -0.0781
16269SOL    HW150529   6.817   7.397   3.889  2.4576 -2.6573 -2.3069
16269SOL    HW250530   6.938   7.359   3.971  1.1917  1.8878  2.2519
16270SOL     OW50531   6.662   9.350   2.828 -0.7474  0.0334 -0.7100
16270SOL    HW150532   6.632   9.295   2.756  0.6887 -1.4245 -0.2535
16270SOL    HW250533   6.613   9.321   2.904 -0.7439  0.1140 -0.6766
16271SOL     OW50534   8.229   3.011   2.713 -0.8995 -0.8196 -0.3188
16271SOL    HW150535   8.142   2.982   2.684 -1.0860 -2.1756  1.3982
16271SOL    HW250536   8.217   3.034   2.806  0.4963 -0.7126 -0.1425
16272SOL     OW50537   6.974   3.161   4.366  0.0697 -0.0428 -0.6424
16272SOL    HW150538   6.906   3.223   4.341 -1.5028 -1.7916 -0.9757
16272SOL    HW250539   6.948   3.131   4.454  1.2928  0.4047 -0.1130
16273SOL     OW50540   3.524   8.621   7.731  0.3648 -0.3558  0.0030
16273SOL    HW150541   3.538   8.626   7.825 -0.5398  0.2738  0.1218
16273SOL    HW250542   3.455   8.555   7.720  1.0725 -1.0612 -0.2992
16274SOL     OW50543   1.026   7.595   7.801 -0.6904  0.0795  0.2986
16274SOL    HW150544   0.982   7.543   7.734 -1.5945 -0.0385  0.9717
16274SOL    HW250545   0.971   7.586   7.879  0.3786  0.1420  1.0885
16275SOL     OW50546   8.353   3.746   6.772  0.0239  0.6595  0.5964
16275SOL    HW150547   8.313   3.827   6.740 -1.1257 -0.3017 -0.5192
16275SOL    HW250548   8.326   3.740   6.863 -2.2861  0.1544 -0.0540
16276SOL     OW50549   1.501   1.273   3.537  0.4468 -0.3486 -0.3095
16276SOL    HW150550   1.459   1.359   3.541 -0.4794 -0.7911 -0.0797
16276SOL    HW250551   1.594   1.290   3.554  0.1341  0.4990  0.6958
16277SOL     OW50552   8.055   4.170   5.642 -0.2846 -0.3102 -0.2698
16277SOL    HW150553   8.050   4.176   5.547  1.4427 -0.4094 -0.3944
16277SOL    HW250554   8.148   4.182   5.662 -0.7863  1.0734  1.5088
16278SOL     OW50555   1.222   6.636   3.403 -0.5874 -0.1005 -0.1919
16278SOL    HW150556   1.301   6.677   3.439 -0.3345 -0.6940 -0.0635
16278SOL    HW250557   1.236   6.639   3.308 -1.9218  2.8229 -0.4050
16279SOL     OW50558   4.001   6.785   4.561 -0.1489 -0.3178 -0.2697
16279SOL    HW150559   4.086   6.743   4.571 -0.6921 -1.3183  0.3833
16279SOL    HW250560   3.945   6.740   4.625 -1.3801 -0.3080 -1.2966
16280SOL     OW50561   4.042   6.329   8.157  0.6836  0.2446  0.3080
16280SOL    HW150562   4.112   6.312   8.094  1.0996 -0.0733  0.8437
16280SOL    HW250563   4.033   6.247   8.206 -2.2342 -0.8567 -1.7813
16281SOL     OW50564   3.003   4.678   5.745  0.7762 -0.8063  0.3025
16281SOL    HW150565   2.975   4.766   5.718  2.0593 -0.5466 -0.2648
16281SOL    HW250566   3.036   4.690   5.834  3.3860 -0.1029 -0.6474
16282SOL     OW50567   9.391   5.874   7.332 -0.7676  0.1924 -0.4346
16282SOL    HW150568   9.424   5.795   7.289 -1.8382  0.4558 -1.7900
16282SOL    HW250569   9.296   5.868   7.325 -0.8753  1.4947 -0.3443
16283SOL     OW50570   6.800   5.712   5.892  0.0528 -0.1317 -0.0614
16283SOL    HW150571   6.871   5.770   5.865  0.2721 -0.0271  0.7041
16283SOL    HW250572   6.777   5.742   5.980 -2.5185  1.3641 -1.1169
16284SOL     OW50573   3.974   9.440   7.939  0.6332 -0.4617  0.0711
16284SOL    HW150574   3.887   9.473   7.965  0.8154 -0.2883  0.4768
16284SOL    HW250575   4.018   9.516   7.901 -0.4062 -1.2149 -2.8273
16285SOL     OW50576   5.285   9.227   8.674 -0.3740 -0.2400  0.6402
16285SOL    HW150577   5.274   9.298   8.737 -0.5175  0.5272 -0.2300
16285SOL    HW250578   5.371   9.191   8.693  0.8669  1.8776 -0.5622
16286SOL     OW50579   9.508   7.343   4.704 -0.5383  0.1283 -0.4568
16286SOL    HW150580   9.599   7.338   4.673 -0.8995 -0.6309 -1.4429
16286SOL    HW250581   9.455   7.342   4.624 -1.4525 -0.4796  0.1343
16287SOL     OW50582   2.455   6.197   1.670  0.3973 -0.0431 -0.7471
16287SOL    HW150583   2.396   6.135   1.628 -1.6999  2.2462 -1.3981
16287SOL    HW250584   2.527   6.206   1.607  0.4251 -1.2809 -0.9315
16288SOL     OW50585   2.240   8.138   3.200  0.1680 -0.8608 -0.2133
16288SOL    HW150586   2.194   8.174   3.276 -0.0697 -0.2461 -0.6396
16288SOL    HW250587   2.333   8.149   3.221  0.1033 -0.0497 -0.3023
16289SOL     OW50588   4.308   6.840   0.962 -0.0346  0.3112  0.2227
16289SOL    HW150589   4.351   6.762   0.929 -1.4366 -1.5176  2.4143
16289SOL    HW250590   4.370   6.911   0.944  2.8613 -1.8008  1.1262
16290SOL     OW50591   3.286   4.826   2.763  0.2123  0.1805 -0.0879
16290SOL    HW150592   3.224   4.890   2.728 -1.2555 -0.5434  1.0650
16290SOL    HW250593   3.266   4.823   2.857  1.6039 -0.5243  0.2073
16291SOL     OW50594   1.366   1.215   2.577 -0.5479 -0.3052 -0.0290
16291SOL    HW150595   1.398   1.264   2.501  1.0060 -1.5899 -0.2656
16291SOL    HW250596   1.421   1.247   2.649 -1.1089 -0.0501  0.2871
16292SOL     OW50597   3.278   4.330   7.884  0.0741 -0.0115 -0.5651
16292SOL    HW150598   3.304   4.422   7.897 -1.9311  0.5136  0.1456
16292SOL    HW250599   3.326   4.282   7.952  0.0846  0.7306 -0.0313
16293SOL     OW50600   8.318   2.865   0.709  0.1022 -0.7039  0.2077
16293SOL    HW150601   8.319   2.769   0.705 -0.9977 -0.7541  0.7217
16293SOL    HW250602   8.337   2.892   0.619  1.4156 -1.3746  0.2542
16294SOL     OW50603   5.523   3.313   1.105 -0.0689 -0.1726 -0.0890
16294SOL    HW150604   5.561   3.400   1.106 -1.0346  0.2961  1.9494
16294SOL    HW250605   5.479   3.305   1.190 -1.0004 -2.2037 -0.6907
16295SOL     OW50606   9.084   5.319   4.228 -0.4626  0.2070  0.2506
16295SOL    HW150607   9.170   5.308   4.269 -0.5748  1.4538  0.8743
16295SOL    HW250608   9.089   5.269   4.147  1.8045  2.3225 -1.0422
16296SOL     OW50609   3.269   4.963   8.822  0.1111  0.4579  0.7601
16296SOL    HW150610   3.240   4.876   8.792 -1.0559  1.3102 -0.7198
16296SOL    HW250611   3.325   4.995   8.751 -2.1875  2.2601 -0.3645
16297SOL     OW50612   9.578   3.463   2.163  0.2115 -0.1883  0.6802
16297SOL    HW150613   9.638   3.533   2.189  0.7382 -0.4584  0.2203
16297SOL    HW250614   9.635   3.388   2.145  0.1304  0.4016 -2.8294
16298SOL     OW50615   7.828   5.857   9.434  0.4574  0.3205 -0.3705
16298SOL    HW150616   7.740   5.823   9.445  0.1673  1.1456 -0.0858
16298SOL    HW250617   7.821   5.916   9.359  0.4230  1.5460  0.5843
16299SOL     OW50618   3.179   8.128   6.317  0.3598  0.5658 -0.1203
16299SOL    HW150619   3.128   8.118   6.236 -0.7661 -1.1927  0.7546
16299SOL    HW250620   3.114   8.139   6.386  1.2104 -0.1467  0.8260
16300SOL     OW50621   8.740   1.851   8.252  0.4607  0.3427  0.5904
16300SOL    HW150622   8.789   1.886   8.327  0.5689  1.9815 -0.2269
16300SOL    HW250623   8.655   1.895   8.255 -1.2280 -2.6679  2.1527
16301SOL     OW50624   8.920   7.216   1.257  0.3613 -0.2934 -0.6887
16301SOL    HW150625   8.843   7.220   1.313  0.7924  0.0056 -0.1025
16301SOL    HW250626   8.958   7.129   1.275  1.4573  0.4458  0.8164
16302SOL     OW50627   6.682   4.119   1.111 -0.0180 -0.0431 -0.2383
16302SOL    HW150628   6.617   4.052   1.135 -0.3349  0.4438  0.2935
16302SOL    HW250629   6.697   4.105   1.018 -1.2033  0.0885 -0.4662
16303SOL     OW50630   4.414   4.694   7.223  0.1961 -0.3541 -0.0604
16303SOL    HW150631   4.491   4.725   7.175  0.5014 -0.1127  0.5770
16303SOL    HW250632   4.380   4.623   7.170 -0.2035  0.7195 -1.2960
16304SOL     OW50633   5.260   6.968   5.010 -0.4929  0.0348  0.0373
16304SOL    HW150634   5.352   6.941   5.009 -0.7572 -0.9350  0.7577
16304SOL    HW250635   5.253   7.026   5.086 -0.1303  1.4750 -0.9805
16305SOL     OW50636   1.030   7.737   0.340  0.9779  0.1089 -0.4602
16305SOL    HW150637   1.066   7.817   0.302  0.6907  0.1201 -0.7117
16305SOL    HW250638   1.060   7.667   0.282  1.2629  0.0310 -0.2170
16306SOL     OW50639   3.133   3.098   2.791  0.0490  0.6273 -0.1692
16306SOL    HW150640   3.147   3.170   2.853  0.7814  0.4225 -0.0858
16306SOL    HW250641   3.196   3.114   2.721  0.5977 -0.2236  0.1164
16307SOL     OW50642   7.443   2.783   1.670  0.6241  0.0955 -0.9090
16307SOL    HW150643   7.385   2.839   1.721  1.3378  0.6617 -0.7133
16307SOL    HW250644   7.475   2.839   1.600  1.1825 -0.1243 -0.8337
16308SOL     OW50645   0.050   9.250   7.778  0.4290 -0.1876 -0.3213
16308SOL    HW150646   0.029   9.334   7.819  0.9167 -0.8098  1.2609
16308SOL    HW250647  -0.008   9.246   7.702 -0.6399  0.9334  0.3931
16309SOL     OW50648   7.368   6.581   0.431 -0.1768 -0.0068  0.1075
16309SOL    HW150649   7.460   6.608   0.433 -0.5755  1.4690 -0.1350
16309SOL    HW250650   7.351   6.544   0.518  1.4015 -3.1787 -0.7785
16310SOL     OW50651   6.816   1.624   6.362 -0.0177  0.0431 -0.1433
16310SOL    HW150652   6.830   1.529   6.356  2.0016  0.3759 -2.0168
16310SOL    HW250653   6.761   1.645   6.286 -0.9464  0.3269  0.5889
16311SOL     OW50654   7.881   8.929   4.234  0.3801  0.0854  0.4072
16311SOL    HW150655   7.911   8.852   4.186 -1.4687 -0.2438 -0.3203
16311SOL    HW250656   7.788   8.936   4.212 -0.1024  1.0405  2.4954
16312SOL     OW50657   0.831   6.610   8.178  0.0587 -0.2070 -0.0625
16312SOL    HW150658   0.772   6.677   8.143  2.2974  1.8497 -0.1610
16312SOL    HW250659   0.903   6.607   8.115  1.4576 -0.5148  1.4953
16313SOL     OW50660   1.421   3.373   1.423  0.1517 -0.3270  0.7276
16313SOL    HW150661   1.513   3.352   1.438  0.0946  0.2860  2.0398
16313SOL    HW250662   1.422   3.460   1.384  0.2380 -1.4734 -2.0781
16314SOL     OW50663   4.492   3.551   6.005  0.3613 -0.6559 -0.4983
16314SOL    HW150664   4.458   3.513   5.924  0.4105 -0.8785 -0.4168
16314SOL    HW250665   4.514   3.641   5.982  0.4674 -0.7469 -0.7582
16315SOL     OW50666   5.118   7.307   1.027 -0.0531  0.4132 -0.3733
16315SOL    HW150667   5.076   7.309   1.113 -3.0133  4.0163 -1.6168
16315SOL    HW250668   5.069   7.241   0.978 -1.3031  1.3638 -0.4590
16316SOL     OW50669   8.088   7.873   7.003  0.3037 -0.0841 -0.0173
16316SOL    HW150670   8.161   7.863   7.065  0.0004  0.5716  0.4606
16316SOL    HW250671   8.123   7.844   6.920  0.4900 -1.7521  0.6074
16317SOL     OW50672   5.546   1.128   2.053 -0.2625  0.4268 -0.1663
16317SOL    HW150673   5.608   1.189   2.013  0.8415 -0.5377  0.0104
16317SOL    HW250674   5.477   1.117   1.987  0.6528  0.1831 -1.1157
16318SOL     OW50675   6.643   2.121   7.059  0.3229 -0.2111  0.1832
16318SOL    HW150676   6.713   2.175   7.023 -0.3328  0.9424  0.5845
16318SOL    HW250677   6.587   2.183   7.107 -1.1354 -1.0545 -0.3693
16319SOL     OW50678   0.977   4.407   1.196  0.7191 -0.3843  0.6450
16319SOL    HW150679   0.914   4.343   1.163 -2.6312  2.9167 -0.0632
16319SOL    HW250680   0.972   4.399   1.292  1.7080 -2.2016  0.5981
16320SOL     OW50681   4.630   6.513   1.577  0.3949 -0.4035 -0.1718
16320SOL    HW150682   4.647   6.533   1.485  2.1618 -0.6332  0.0740
16320SOL    HW250683   4.629   6.598   1.621  2.8453 -0.4498  0.0784
16321SOL     OW50684   3.624   8.066   0.725 -0.3245 -0.6155  0.2395
16321SOL    HW150685   3.612   8.032   0.637 -2.9939 -1.8212  0.9652
16321SOL    HW250686   3.562   8.139   0.732  0.2886 -0.1372  0.9498
16322SOL     OW50687   8.216   7.953   9.192 -0.7738 -0.0229  0.2562
16322SOL    HW150688   8.234   7.921   9.281  1.2273  2.0349  0.6788
16322SOL    HW250689   8.233   8.047   9.197 -2.6511  0.5068 -1.8438
16323SOL     OW50690   5.192   0.349   4.916 -0.0923  0.1336 -0.1057
16323SOL    HW150691   5.286   0.364   4.931 -0.2330  1.2266 -0.2396
16323SOL    HW250692   5.152   0.435   4.927 -0.9578 -0.1357 -1.0347
16324SOL     OW50693   7.960   0.448   6.287 -0.6110 -0.7197 -0.2642
16324SOL    HW150694   7.972   0.404   6.371  0.1392  0.0670  0.0676
16324SOL    HW250695   8.010   0.396   6.224 -0.1205 -0.6057  0.0292
16325SOL     OW50696   6.343   7.033   9.019  0.4050  0.0715  0.1864
16325SOL    HW150697   6.278   6.981   8.970  0.2456  0.4592 -0.0197
16325SOL    HW250698   6.426   7.014   8.975 -0.2650  3.8740 -3.3022
16326SOL     OW50699   9.051   4.102   1.704  0.6103 -0.2885 -0.0703
16326SOL    HW150700   9.080   4.027   1.652  1.3213  0.3389 -0.5962
16326SOL    HW250701   9.108   4.102   1.781  0.4214 -0.4502  0.0707
16327SOL     OW50702   6.593   0.418   6.294 -0.5135  0.8402 -0.3980
16327SOL    HW150703   6.604   0.436   6.387  0.2260  0.7474 -0.4600
16327SOL    HW250704   6.500   0.434   6.277 -0.4884  1.6561  0.1794
16328SOL     OW50705   0.137   3.539   9.274  0.3403 -0.2431 -0.7413
16328SOL    HW150706   0.217   3.588   9.294 -0.2458  0.9855 -1.2750
16328SOL    HW250707   0.072   3.574   9.336 -0.1900 -0.0424 -1.3917
16329SOL     OW50708   9.665   6.853   4.153  0.0897  0.4988  0.6804
16329SOL    HW150709   9.572   6.842   4.173 -0.2461 -0.6551 -1.2671
16329SOL    HW250710   9.668   6.919   4.084  0.5983 -0.2287 -0.0156
16330SOL     OW50711   6.471   7.529   7.716 -0.8764 -0.1024 -0.2041
16330SOL    HW150712   6.437   7.557   7.801 -1.4947 -0.7618 -0.2187
16330SOL    HW250713   6.559   7.565   7.711 -0.7200 -0.3246  0.8596
16331SOL     OW50714   8.975   7.738   7.947  0.1668  0.3021  0.1709
16331SOL    HW150715   8.965   7.643   7.960  1.2568  0.2897  1.0520
16331SOL    HW250716   8.979   7.774   8.036 -0.5307  1.2220 -0.1549
16332SOL     OW50717   5.737   6.547   2.944 -0.5708  0.1407  0.0534
16332SOL    HW150718   5.734   6.452   2.950 -2.2712  0.1689 -0.0506
16332SOL    HW250719   5.670   6.570   2.880  2.5830  1.1922 -3.2476
16333SOL     OW50720   8.612   6.127   6.979  0.3215  0.1262  0.0530
16333SOL    HW150721   8.680   6.076   6.934  0.6184 -0.2384  0.9056
16333SOL    HW250722   8.657   6.207   7.007 -0.1652  0.9415 -1.3611
16334SOL     OW50723   4.754   3.479   6.778 -0.3573 -0.1773  0.1245
16334SOL    HW150724   4.669   3.436   6.772 -0.9087  0.9274 -0.3918
16334SOL    HW250725   4.809   3.433   6.715 -0.4252 -1.1730  0.7608
16335SOL     OW50726   5.851   8.543   2.456 -0.4436  0.5675 -0.1058
16335SOL    HW150727   5.766   8.548   2.500 -1.0713  0.5859 -1.2869
16335SOL    HW250728   5.844   8.466   2.400  0.2183  0.7492 -0.4453
16336SOL     OW50729   0.716   6.910   1.624  0.0643  0.0743  0.1896
16336SOL    HW150730   0.718   6.821   1.590 -0.3186 -0.4409  1.4505
16336SOL    HW250731   0.659   6.957   1.564 -1.4305 -1.0530  0.6735
16337SOL     OW50732   1.253   0.955   6.349 -0.0868  0.4563 -0.2156
16337SOL    HW150733   1.301   0.993   6.275  0.5016 -0.6629 -0.4333
16337SOL    HW250734   1.201   1.028   6.384  0.2304  1.1984 -1.2350
16338SOL     OW50735   1.682   2.529   8.912 -0.1663 -0.4485  0.7087
16338SOL    HW150736   1.649   2.479   8.987 -0.2752 -0.2396  0.8007
16338SOL    HW250737   1.715   2.611   8.950 -0.9150 -0.0152  0.4432
16339SOL     OW50738   6.613   1.878   3.873 -0.3830 -0.9482  0.2453
16339SOL    HW150739   6.587   1.904   3.961 -0.4376 -2.0974  0.5852
16339SOL    HW250740   6.709   1.877   3.876 -0.3583 -0.2605  0.0534
16340SOL     OW50741   9.426   8.704   4.294  0.6321  0.1289  0.1589
16340SOL    HW150742   9.423   8.643   4.367  0.2868  0.8759  0.7789
16340SOL    HW250743   9.520   8.723   4.282  0.5745  2.8805  2.8938
16341SOL     OW50744   8.320   5.289   3.691 -0.0446 -0.7712  0.2028
16341SOL    HW150745   8.249   5.240   3.650  0.3624 -1.4095  0.2534
16341SOL    HW250746   8.370   5.223   3.739  0.4324 -0.2861  0.3773
16342SOL     OW50747   3.569   4.528   7.680  0.2478 -0.6108 -0.2385
16342SOL    HW150748   3.647   4.574   7.709  0.8242 -1.8624  0.3017
16342SOL    HW250749   3.552   4.560   7.592 -0.3059  1.7492  0.6460
16343SOL     OW50750   6.539   1.079   6.111  0.0112 -0.5420  0.3218
16343SOL    HW150751   6.530   1.095   6.018 -1.2288  3.3811  0.9563
16343SOL    HW250752   6.451   1.056   6.141  0.2316 -0.9509  0.6804
16344SOL     OW50753   6.523   4.845   9.588 -0.5037 -0.3868  0.0211
16344SOL    HW150754   6.602   4.812   9.632 -1.0229 -1.4136  0.2246
16344SOL    HW250755   6.530   4.940   9.594  0.9230 -0.4427 -0.3230
16345SOL     OW50756   2.944   1.494   7.002  0.2185 -0.0792  0.0240
16345SOL    HW150757   3.007   1.558   7.038  0.5155 -0.9358  1.0788
16345SOL    HW250758   2.953   1.418   7.059 -0.6648 -0.7949 -0.7787
16346SOL     OW50759   3.148   0.986   5.812 -0.2686  0.0105  0.0773
16346SOL    HW150760   3.236   1.020   5.792  0.1369 -0.7267  0.5492
16346SOL    HW250761   3.160   0.936   5.893 -1.0640 -0.3791 -0.0369
16347SOL     OW50762   3.853   7.038   3.543 -0.1506  0.2976  0.2891
16347SOL    HW150763   3.796   6.972   3.582 -1.9470  1.9608  0.6564
16347SOL    HW250764   3.881   6.999   3.460 -0.2208 -1.3520  0.9995
16348SOL     OW50765   6.996   0.604   5.464  0.4145  0.1869  0.0123
16348SOL    HW150766   6.978   0.551   5.543 -2.7289  0.0658 -0.6643
16348SOL    HW250767   7.045   0.545   5.407 -0.9644 -1.2019  0.2180
16349SOL     OW50768   5.953   7.248   0.954  0.0479 -0.2934  0.0586
16349SOL    HW150769   5.866   7.243   0.994 -0.2106 -2.1035 -0.6568
16349SOL    HW250770   5.935   7.252   0.860  0.7367 -0.6178 -0.0862
16350SOL     OW50771   3.355   5.544   1.295  0.2635  0.3775  0.0777
16350SOL    HW150772   3.383   5.454   1.307 -1.2916 -0.0981  0.3769
16350SOL    HW250773   3.413   5.579   1.227  0.6951 -0.9394 -0.2468
16351SOL     OW50774   4.078   6.079   2.445 -0.0158 -0.0229 -0.5396
16351SOL    HW150775   4.086   6.174   2.448 -0.6825  0.0311  0.0518
16351SOL    HW250776   4.005   6.060   2.504 -1.1294 -0.7529 -2.0791
16352SOL     OW50777   3.302   5.297   7.060  0.0855 -0.0611 -0.6532
16352SOL    HW150778   3.268   5.211   7.035 -0.1606  0.2854 -1.5562
16352SOL    HW250779   3.310   5.345   6.977 -0.0105  0.8655 -0.1429
16353SOL     OW50780   6.960   6.503   7.198 -0.1884 -0.0919  1.2963
16353SOL    HW150781   6.884   6.551   7.165 -0.2684  0.8217  2.7218
16353SOL    HW250782   6.961   6.422   7.146  0.4098  1.7041 -1.7468
16354SOL     OW50783   3.434   8.015   1.823  0.4796 -0.8823 -0.1519
16354SOL    HW150784   3.347   8.001   1.784 -0.5330  0.5119  1.4465
16354SOL    HW250785   3.416   8.033   1.916  2.2363  1.7067 -0.1908
16355SOL     OW50786   6.662   5.053   4.731  0.0270 -0.1920 -0.1687
16355SOL    HW150787   6.605   4.978   4.716 -0.2862 -0.0809  0.4520
16355SOL    HW250788   6.652   5.107   4.652  0.9737 -1.2449 -1.0531
16356SOL     OW50789   7.707   2.193   8.294 -0.5443  0.2569 -0.4017
16356SOL    HW150790   7.635   2.227   8.347  0.1241 -0.0749  0.7540
16356SOL    HW250791   7.746   2.271   8.253 -1.6618  0.4186 -1.2068
16357SOL     OW50792   3.565   7.256   5.734  0.1979  0.2952  1.0362
16357SOL    HW150793   3.493   7.200   5.705  0.2038  0.8279 -0.0661
16357SOL    HW250794   3.644   7.207   5.711  0.2018  0.6890  0.1839
16358SOL     OW50795   1.915   2.170   6.697  0.6170 -0.2301  0.0401
16358SOL    HW150796   1.951   2.125   6.620 -1.8835 -0.3926 -1.1249
16358SOL    HW250797   1.919   2.105   6.767  0.3286 -1.0509 -0.6872
16359SOL     OW50798   5.524   7.100   4.628 -0.5284  0.0974  0.1796
16359SOL    HW150799   5.474   7.176   4.660  0.4580  0.2853  1.3625
16359SOL    HW250800   5.615   7.124   4.644 -0.2216 -1.6111  1.2442
16360SOL     OW50801   8.781   5.208   8.944  0.4524  0.7943  0.0323
16360SOL    HW150802   8.842   5.267   8.986  2.1696  0.5491 -1.9693
16360SOL    HW250803   8.784   5.231   8.851 -1.6423 -0.0058 -0.3053
16361SOL     OW50804   6.922   1.621   7.347 -0.1766  0.1622 -0.0343
16361SOL    HW150805   6.873   1.668   7.279  0.5324  2.2572  0.7930
16361SOL    HW250806   6.911   1.529   7.326 -4.1446  0.5024 -0.1008
16362SOL     OW50807   4.798   2.751   8.016 -0.1339  0.0203 -0.2681
16362SOL    HW150808   4.828   2.788   7.933 -0.9497 -1.1132 -1.0982
16362SOL    HW250809   4.846   2.800   8.083 -0.3138  1.7534 -1.3482
16363SOL     OW50810   4.860   5.663   1.934 -0.1416 -0.2004 -0.1842
16363SOL    HW150811   4.929   5.598   1.924 -0.4095 -0.1937 -2.7027
16363SOL    HW250812   4.779   5.611   1.934 -0.2420 -0.0684  0.9477
16364SOL     OW50813   2.537   0.668   4.088  1.0857 -0.1973  0.2485
16364SOL    HW150814   2.575   0.690   4.173  3.3597  1.4035 -1.0704
16364SOL    HW250815   2.489   0.747   4.062 -1.4076 -1.3953  0.8529
16365SOL     OW50816   5.316   7.771   7.827  0.1491 -0.0872  0.3842
16365SOL    HW150817   5.275   7.712   7.763  0.3196 -0.9347  1.0414
16365SOL    HW250818   5.310   7.857   7.786 -0.1146 -0.5494 -0.5978
16366SOL     OW50819   4.761   2.726   3.823  0.6595 -0.6981 -0.5303
16366SOL    HW150820   4.760   2.632   3.841 -2.1082 -0.8558 -1.1088
16366SOL    HW250821   4.802   2.734   3.737  0.0011 -1.4880 -0.9274
16367SOL     OW50822   2.656   7.469   4.047  0.0922 -0.2647 -0.4200
16367SOL    HW150823   2.737   7.434   4.083 -0.1141  1.0398  1.4435
16367SOL    HW250824   2.680   7.556   4.015 -0.5859  0.1823  0.2689
16368SOL     OW50825   7.381   8.410   2.415 -0.2157  0.4795 -0.1581
16368SOL    HW150826   7.384   8.324   2.456 -1.0272  0.1845 -0.6911
16368SOL    HW250827   7.323   8.461   2.472  1.6211  1.2450  1.1437
16369SOL     OW50828   1.040   8.192   2.448  0.0770 -0.1451 -0.6460
16369SOL    HW150829   0.955   8.160   2.418 -0.6813 -1.2375  2.3907
16369SOL    HW250830   1.092   8.113   2.461  1.3388  0.4766 -1.7217
16370SOL     OW50831   8.350   1.624   4.938 -0.3269  0.1064  0.2536
16370SOL    HW150832   8.411   1.564   4.980 -0.0315 -0.1132 -0.4694
16370SOL    HW250833   8.305   1.668   5.011 -0.7040 -1.1366  0.7852
16371SOL     OW50834   8.299   7.503   7.094  0.5840  0.5914  0.1586
16371SOL    HW150835   8.204   7.513   7.099  0.3150 -1.3130 -0.3085
16371SOL    HW250836   8.334   7.590   7.115 -1.2570  1.4185 -0.0223
16372SOL     OW50837   4.413   0.116   7.546  0.0399 -0.4711 -0.1016
16372SOL    HW150838   4.443   0.151   7.462  0.8628 -0.8602  0.0168
16372SOL    HW250839   4.404   0.021   7.531  1.8545 -0.8050  0.6903
16373SOL     OW50840   7.746   4.920   0.637 -0.0303 -0.2485  0.6357
16373SOL    HW150841   7.814   4.971   0.593  0.1347  0.6206  1.8609
16373SOL    HW250842   7.665   4.966   0.618  0.0474  0.1563  1.2698
16374SOL     OW50843   5.152   8.620   2.012 -0.1937  0.2724 -0.0030
16374SOL    HW150844   5.192   8.569   2.082  1.3468  1.8728  0.3426
16374SOL    HW250845   5.206   8.698   2.005 -2.0178  1.5207 -1.0361
16375SOL     OW50846   1.772   3.334   6.940 -0.9723  0.2776 -0.0782
16375SOL    HW150847   1.847   3.282   6.968 -0.8970  0.1836 -0.4517
16375SOL    HW250848   1.706   3.269   6.915 -0.7755  0.3524 -0.8255
16376SOL     OW50849   2.900   3.681   4.248 -0.4136 -0.1091 -0.6096
16376SOL    HW150850   2.916   3.773   4.229  0.2911  0.2343  1.3880
16376SOL    HW250851   2.810   3.678   4.282 -1.3320 -0.5788 -2.8934
16377SOL     OW50852   9.410   4.940   1.589  0.3206 -0.2117  0.1129
16377SOL    HW150853   9.489   4.887   1.602 -0.6326 -2.0637 -1.2382
16377SOL    HW250854   9.427   4.988   1.508 -0.7565 -2.4039 -1.5269
16378SOL     OW50855   2.433   0.726   1.283 -0.1962  0.2964  0.4451
16378SOL    HW150856   2.523   0.743   1.312 -0.2825 -1.6127  2.0694
16378SOL    HW250857   2.380   0.744   1.360 -1.3487  2.0718 -0.6913
16379SOL     OW50858   8.739   9.165   0.342 -0.0689  1.1254  0.8200
16379SOL    HW150859   8.749   9.248   0.389 -0.5263  0.4403  2.1878
16379SOL    HW250860   8.752   9.098   0.409 -2.3033  0.1007  0.3263
16380SOL     OW50861   4.268   3.585   5.201 -0.0162  0.1299  0.0600
16380SOL    HW150862   4.246   3.661   5.254  0.4313  0.4077 -0.1492
16380SOL    HW250863   4.226   3.511   5.245 -2.9616  0.8512 -1.3067
16381SOL     OW50864   2.816   0.777   6.737  0.2654  0.7412 -0.4762
16381SOL    HW150865   2.894   0.827   6.714  0.9930  0.2077  0.7125
16381SOL    HW250866   2.753   0.843   6.767  1.6679  0.9561  2.3479
16382SOL     OW50867   3.007   8.086   6.015  0.6650 -0.2907  0.3196
16382SOL    HW150868   2.997   8.115   5.925 -0.3224 -1.5093  0.0260
16382SOL    HW250869   3.004   8.167   6.067 -0.3778  0.2710 -0.6013
16383SOL     OW50870   8.424   3.790   3.629  0.9010 -0.3812  0.2928
16383SOL    HW150871   8.371   3.736   3.687 -1.1141  1.8341  0.6513
16383SOL    HW250872   8.474   3.847   3.688  0.9438 -0.0180 -0.0871
16384SOL     OW50873   3.864   3.798   5.707  0.2298  0.6096 -0.7172
16384SOL    HW150874   3.851   3.729   5.772 -0.7443 -0.1066 -1.6308
16384SOL    HW250875   3.895   3.873   5.757  0.3186 -0.1800  0.4457
16385SOL     OW50876   5.898   0.902   3.183  0.3327  0.4300  0.3845
16385SOL    HW150877   5.921   0.876   3.093 -0.0663 -0.3643  0.5026
16385SOL    HW250878   5.831   0.839   3.209  0.6825  0.4548  1.3658
16386SOL     OW50879   6.649   9.578   7.825 -0.2493 -0.5160 -0.3440
16386SOL    HW150880   6.580   9.532   7.873  0.4086 -0.8592  0.2903
16386SOL    HW250881   6.726   9.520   7.832  0.4420  0.4158 -0.0040
16387SOL     OW50882   4.097   1.048   6.373 -0.4994 -0.0637 -0.1473
16387SOL    HW150883   4.190   1.036   6.358 -0.8250 -0.8060 -1.7938
16387SOL    HW250884   4.058   1.049   6.285 -2.0378  0.2227  0.4979
16388SOL     OW50885   7.287   4.790   9.107 -0.4538  0.0380  0.1248
16388SOL    HW150886   7.215   4.790   9.044 -0.1408 -1.5972 -0.2661
16388SOL    HW250887   7.353   4.847   9.068 -0.7013 -0.0957 -0.5059
16389SOL     OW50888   6.070   0.268   7.909  0.2527  0.1305 -0.2741
16389SOL    HW150889   6.137   0.303   7.849  0.3577 -0.2120 -0.3610
16389SOL    HW250890   5.990   0.315   7.885  0.7916  1.7997  0.9620
16390SOL     OW50891   8.300   4.125   9.194 -0.0751  0.3246 -0.2567
16390SOL    HW150892   8.267   4.044   9.154  2.6881 -0.4317 -1.2542
16390SOL    HW250893   8.228   4.187   9.186 -2.8261 -2.3277  1.7663
16391SOL     OW50894   4.270   7.953   4.677 -0.0768  0.3727  0.0865
16391SOL    HW150895   4.266   7.890   4.605 -1.7499  1.6904 -1.0737
16391SOL    HW250896   4.257   7.901   4.756 -0.2401 -0.8603 -0.7300
16392SOL     OW50897   0.912   2.602   0.510  0.2227 -0.5415  0.2975
16392SOL    HW150898   0.958   2.673   0.466 -0.4059  0.3983  1.1144
16392SOL    HW250899   0.834   2.586   0.456 -1.3608  1.6536  1.7764
16393SOL     OW50900   8.500   2.327   4.897  0.3893 -0.8466 -0.1023
16393SOL    HW150901   8.512   2.386   4.822 -0.8679  2.1518  1.8512
16393SOL    HW250902   8.432   2.266   4.870 -2.0193  1.8778 -0.6216
16394SOL     OW50903   4.555   6.422   3.405 -0.5407 -0.4333 -0.3921
16394SOL    HW150904   4.578   6.353   3.468 -1.6081  0.5529  1.1592
16394SOL    HW250905   4.628   6.425   3.344  0.3138 -1.7752  0.5198
16395SOL     OW50906   8.504   1.534   3.322 -0.0264 -0.3894  0.2252
16395SOL    HW150907   8.437   1.474   3.291 -1.0468  0.2614  1.0884
16395SOL    HW250908   8.476   1.621   3.292  0.9800 -0.2219 -0.2842
16396SOL     OW50909   1.148   3.459   0.944  0.1946  0.5973  0.1839
16396SOL    HW150910   1.216   3.467   1.011  1.6134 -1.2655 -0.9472
16396SOL    HW250911   1.070   3.432   0.993  1.2971 -1.1323  1.0776
16397SOL     OW50912   5.066   7.245   4.625 -0.4892 -0.1049  0.8559
16397SOL    HW150913   5.077   7.164   4.576  0.4010  0.7361 -0.4283
16397SOL    HW250914   5.006   7.223   4.696 -1.9591 -1.3694 -0.6968
16398SOL     OW50915   9.385   5.731   7.737 -0.1435 -0.0113  0.3028
16398SOL    HW150916   9.386   5.643   7.697  0.8358 -0.3386  1.0193
16398SOL    HW250917   9.445   5.782   7.683  2.2068 -0.7963  2.0173
16399SOL     OW50918   8.879   3.448   6.469  0.0651 -0.7578 -0.0797
16399SOL    HW150919   8.806   3.504   6.442  0.5924 -0.0405 -0.0454
16399SOL    HW250920   8.863   3.429   6.561 -0.6116 -1.4423 -0.3367
16400SOL     OW50921   2.122   9.606   2.002 -0.2798 -0.0989  0.4962
16400SOL    HW150922   2.108   9.562   1.918 -0.0288  0.0245  0.3870
16400SOL    HW250923   2.047   9.664   2.013 -0.9589 -1.0294  0.9546
16401SOL     OW50924   4.191   2.465   8.439 -0.2458 -0.9665  0.2406
16401SOL    HW150925   4.168   2.401   8.372 -0.5088 -0.0538 -0.5562
16401SOL    HW250926   4.232   2.413   8.508 -0.2742 -1.9674 -0.4709
16402SOL     OW50927   7.551   6.811   1.728 -0.2745 -0.3102 -0.0067
16402SOL    HW150928   7.555   6.731   1.676 -0.1932 -0.5090  0.3044
16402SOL    HW250929   7.606   6.793   1.804 -0.4524 -0.0451  0.1857
16403SOL     OW50930   4.156   2.999   5.112  0.5188  0.4824  0.3059
16403SOL    HW150931   4.210   2.922   5.092 -0.1196 -0.0051  0.4435
16403SOL    HW250932   4.220   3.069   5.129  1.1347 -0.3858  1.7077
16404SOL     OW50933   7.843   8.983   5.700 -0.6112  0.3916 -0.4390
16404SOL    HW150934   7.819   8.914   5.761 -1.1054 -0.0900 -1.1548
16404SOL    HW250935   7.819   9.065   5.743  2.2324  0.3531  1.5021
16405SOL     OW50936   6.944   6.411   1.175 -0.0407 -0.1935 -0.0007
16405SOL    HW150937   7.029   6.440   1.208  0.0368  1.0573 -1.2155
16405SOL    HW250938   6.965   6.340   1.114  0.2041  0.5327 -0.7778
16406SOL     OW50939   5.709   6.801   2.052  0.3644  0.1044  0.0663
16406SOL    HW150940   5.763   6.873   2.019 -0.5146  0.9000  0.3271
16406SOL    HW250941   5.718   6.805   2.147  1.4034 -1.0212  0.0539
16407SOL     OW50942   1.329   7.140   6.935 -0.5939  0.0080  0.1208
16407SOL    HW150943   1.283   7.222   6.952  0.0898  0.3950  0.1470
16407SOL    HW250944   1.372   7.154   6.851  0.4947  0.1323  0.6758
16408SOL     OW50945   6.971   2.022   3.041 -0.7629 -0.5411 -0.2706
16408SOL    HW150946   7.029   1.953   3.071  0.9713  0.8054 -0.3413
16408SOL    HW250947   6.976   2.089   3.109 -2.4340 -0.4642 -0.1755
16409SOL     OW50948   8.656   8.044   3.921 -0.3870  0.3633  0.1127
16409SOL    HW150949   8.622   7.984   3.855 -0.4621 -0.6940  1.0753
16409SOL    HW250950   8.708   8.107   3.872 -0.2859 -0.5029 -0.9400
16410SOL     OW50951   8.909   0.586   0.442 -0.7945  0.4233 -0.0359
16410SOL    HW150952   9.002   0.561   0.444 -0.7400  0.4567 -1.4002
16410SOL    HW250953   8.869   0.525   0.381 -1.3298  1.5155 -0.8081
16411SOL     OW50954   3.519   6.193   8.750 -0.4091 -0.0073  0.5017
16411SOL    HW150955   3.516   6.101   8.725  0.1089  0.4096 -1.1862
16411SOL    HW250956   3.541   6.192   8.843 -0.1864 -1.5737  0.4500
16412SOL     OW50957   2.625   8.902   1.109 -0.4052  0.0588 -0.2726
16412SOL    HW150958   2.616   8.979   1.165  0.6888  0.8440 -1.1326
16412SOL    HW250959   2.623   8.828   1.170 -0.0133  0.8479  0.7293
16413SOL     OW50960   2.982   3.512   4.042 -0.3416 -0.5428  0.5126
16413SOL    HW150961   3.066   3.467   4.032 -0.4309 -0.5168 -0.3665
16413SOL    HW250962   2.983   3.543   4.133  1.1830  0.6334  0.1407
16414SOL     OW50963   5.174   4.064   7.985  0.6767 -0.4978 -0.1577
16414SOL    HW150964   5.262   4.092   8.010  0.4162  0.4989 -0.2996
16414SOL    HW250965   5.145   4.129   7.920  0.0808 -1.1697 -0.5776
16415SOL     OW50966   4.489   0.357   5.216  0.0410 -0.1508 -0.1018
16415SOL    HW150967   4.503   0.438   5.168  2.8660 -0.7581 -0.4781
16415SOL    HW250968   4.449   0.385   5.299 -3.4463  1.0515 -1.9969
16416SOL     OW50969   3.238   4.991   3.373 -0.1725 -0.3813 -0.3378
16416SOL    HW150970   3.320   5.036   3.356  0.3352 -1.5138 -1.0243
16416SOL    HW250971   3.260   4.925   3.439 -1.1873  1.1475  1.6381
16417SOL     OW50972   6.592   6.658   5.429 -0.5797 -0.4025 -0.4660
16417SOL    HW150973   6.618   6.746   5.457  2.7079 -1.1094 -0.8832
16417SOL    HW250974   6.605   6.658   5.335 -1.3503 -1.0973 -0.5791
16418SOL     OW50975   7.011   4.617   4.185  0.2020  0.0557  0.1475
16418SOL    HW150976   7.094   4.649   4.221  1.4749 -3.5240  0.8491
16418SOL    HW250977   6.951   4.619   4.259  1.1209 -1.7540  1.0142
16419SOL     OW50978   9.384   7.213   5.919 -0.1583 -0.3034  0.5243
16419SOL    HW150979   9.377   7.252   5.832  0.6393  0.3903  0.7603
16419SOL    HW250980   9.322   7.262   5.973 -0.2943 -0.4046  0.4594
16420SOL     OW50981   1.687   4.360   0.448  0.1440  0.0359  0.1433
16420SOL    HW150982   1.689   4.453   0.427  0.3819 -0.1091 -0.4677
16420SOL    HW250983   1.775   4.340   0.481  0.6295 -0.3475 -1.3430
16421SOL     OW50984   4.072   0.494   8.640  0.7813 -0.4267  0.3213
16421SOL    HW150985   4.145   0.553   8.660 -0.0159  1.2859 -1.4046
16421SOL    HW250986   4.094   0.458   8.554 -0.0894 -0.3953  0.0782
16422SOL     OW50987   4.050   5.026   8.888 -0.0643 -0.0319 -0.2817
16422SOL    HW150988   4.008   4.952   8.932  0.1246 -0.2467 -0.4648
16422SOL    HW250989   4.117   5.054   8.950 -0.3221  0.1654 -0.0893
16423SOL     OW50990   2.902   8.162   6.439 -0.0970 -0.1597 -0.0228
16423SOL    HW150991   2.884   8.167   6.345 -0.6836  0.5582  0.1228
16423SOL    HW250992   2.847   8.229   6.478  1.9560  1.2602  0.6017
16424SOL     OW50993   1.936   8.348   2.958 -0.2581 -0.1243  0.0906
16424SOL    HW150994   2.006   8.375   2.899 -0.4548 -0.5927 -0.3661
16424SOL    HW250995   1.857   8.352   2.904 -0.1695 -2.6641 -0.3550
16425SOL     OW50996   3.347   1.874   0.430 -0.6222 -0.3553  0.3792
16425SOL    HW150997   3.416   1.896   0.493  0.5850  0.4537 -1.1666
16425SOL    HW250998   3.294   1.953   0.425  0.4550  0.3139 -1.0505
16426SOL     OW50999   8.105   0.123   5.419 -0.4133  0.1322  0.3890
16426SOL    HW151000   8.095   0.183   5.345 -0.8494  0.1384  0.4527
16426SOL    HW251001   8.058   0.044   5.392 -0.2352 -0.0117  0.4984
16427SOL     OW51002   9.160   7.562   7.651 -0.3093 -0.8154  0.5510
16427SOL    HW151003   9.237   7.611   7.621 -0.7616  0.2424  1.0402
16427SOL    HW251004   9.171   7.557   7.746 -0.8671 -0.5873  0.6330
16428SOL     OW51005   3.104   3.110   7.113 -0.1830  0.2650 -0.6288
16428SOL    HW151006   3.176   3.052   7.139 -2.1836 -1.3765  1.7976
16428SOL    HW251007   3.039   3.051   7.075 -0.0720  1.8055 -3.4539
16429SOL     OW51008   4.771   0.106   8.591 -0.0930 -0.1614  0.1537
16429SOL    HW151009   4.750   0.012   8.593  1.1336 -0.4703 -0.3921
16429SOL    HW251010   4.862   0.109   8.563 -0.3398  1.2383 -0.5809
16430SOL     OW51011   0.650   0.757   3.578  0.0013  0.1489  0.7110
16430SOL    HW151012   0.583   0.775   3.644  0.0232 -0.3732  0.8876
16430SOL    HW251013   0.607   0.698   3.516  0.3402 -0.3286  0.9182
16431SOL     OW51014   9.292   9.518   9.576 -0.3427 -0.5438  0.0012
16431SOL    HW151015   9.226   9.488   9.513 -1.3626 -1.5230  1.4963
16431SOL    HW251016   9.264   9.483   9.660  0.8408  0.9558  1.0890
16432SOL     OW51017   6.377   5.999   4.190 -0.4474 -0.0010  0.3443
16432SOL    HW151018   6.326   6.049   4.126  0.0687 -0.1378 -0.1746
16432SOL    HW251019   6.455   5.971   4.143  0.7757  1.3415  1.5190
16433SOL     OW51020   5.965   5.670   4.619  0.6002  0.1497 -0.4067
16433SOL    HW151021   5.927   5.728   4.685 -0.2819  0.2339 -0.9592
16433SOL    HW251022   6.043   5.715   4.589  0.7475  0.3321  0.2385
16434SOL     OW51023   7.518   0.112   5.327  0.3075 -0.6738  0.3422
16434SOL    HW151024   7.431   0.073   5.338 -0.1937  0.0885 -0.7377
16434SOL    HW251025   7.525   0.176   5.398  0.2937 -1.2557  0.8743
16435SOL     OW51026   2.185   4.936   1.226 -0.5470 -0.6023  0.1741
16435SOL    HW151027   2.127   4.883   1.171 -0.7283 -0.7977  0.5475
16435SOL    HW251028   2.269   4.937   1.179 -0.3421 -1.7796  0.4732
16436SOL     OW51029   1.040   9.584   4.851  0.0090  0.0233  0.1186
16436SOL    HW151030   0.994   9.664   4.827  0.9036  0.3598 -0.5456
16436SOL    HW251031   1.114   9.614   4.904  0.9656 -0.2532 -1.0319
16437SOL     OW51032   2.655   2.071   2.761 -0.6228  0.3051  0.0498
16437SOL    HW151033   2.732   2.026   2.795 -1.8391  0.4359  3.3629
16437SOL    HW251034   2.675   2.164   2.770 -0.5860  0.3595 -0.5701
16438SOL     OW51035   1.962   6.063   9.153  0.1714  0.7137  0.1302
16438SOL    HW151036   2.039   6.048   9.098 -0.8108  0.5075 -1.2484
16438SOL    HW251037   1.989   6.133   9.213  1.0117  1.5928 -1.2148
16439SOL     OW51038   1.402   4.515   7.998 -0.6075 -0.2057  0.5325
16439SOL    HW151039   1.325   4.492   8.049 -0.3123  0.4018  1.2702
16439SOL    HW251040   1.459   4.561   8.060  0.6851 -1.2956  0.2106
16440SOL     OW51041   2.205   8.992   2.382  0.9896 -0.2778  0.3449
16440SOL    HW151042   2.249   9.017   2.300 -1.4382  1.5784 -0.5351
16440SOL    HW251043   2.251   9.041   2.450  1.5710 -0.0159 -0.2239
16441SOL     OW51044   5.569   2.901   1.160 -0.4738  0.4108 -0.2477
16441SOL    HW151045   5.497   2.928   1.105 -0.4777  0.0945 -0.3998
16441SOL    HW251046   5.542   2.816   1.196 -1.0736  1.2408  1.3441
16442SOL     OW51047   3.696   8.393   6.603 -0.5851  0.4810  0.5286
16442SOL    HW151048   3.668   8.393   6.695 -3.2300 -0.6898 -0.1797
16442SOL    HW251049   3.625   8.438   6.556 -0.8703 -1.6994 -1.2907
16443SOL     OW51050   9.206   2.087   7.613 -0.2729  0.2987  0.1404
16443SOL    HW151051   9.164   2.136   7.683 -1.4217  1.7236 -1.4601
16443SOL    HW251052   9.298   2.083   7.639 -0.4999  1.6060  1.2844
16444SOL     OW51053   6.066   1.536   0.077  0.0216  0.5103 -0.1450
16444SOL    HW151054   6.057   1.510   0.168  0.2995  0.0309 -0.2478
16444SOL    HW251055   6.158   1.521   0.057 -0.1519  0.0867 -0.6551
16445SOL     OW51056   0.756   4.928   6.962  0.3710  0.2496  0.1125
16445SOL    HW151057   0.843   4.966   6.949 -0.3039  2.3031  1.2263
16445SOL    HW251058   0.696   4.990   6.920 -0.6056 -1.1460 -0.6610
16446SOL     OW51059   4.270   2.219   3.705 -0.6939  0.1118 -0.1524
16446SOL    HW151060   4.248   2.157   3.775  0.6602  1.5762  1.6442
16446SOL    HW251061   4.328   2.170   3.646 -2.2774 -1.2996 -0.6105
16447SOL     OW51062   6.794   9.326   5.633  0.4236 -0.5032  0.1338
16447SOL    HW151063   6.886   9.342   5.653  0.2608  1.2759 -0.4129
16447SOL    HW251064   6.783   9.232   5.647  1.8951 -0.4711  1.9061
16448SOL     OW51065   0.062   5.649   7.252 -0.1405 -0.0713  0.3567
16448SOL    HW151066   0.020   5.699   7.181 -1.3998  0.4941  1.4456
16448SOL    HW251067   0.149   5.688   7.260 -0.3386  0.5139 -0.2167
16449SOL     OW51068   3.028   0.411   3.612  0.0903 -0.2293 -0.7256
16449SOL    HW151069   2.952   0.465   3.632  0.7338  0.1768  0.8155
16449SOL    HW251070   3.042   0.422   3.518 -1.0184  0.6525 -0.8017
16450SOL     OW51071   8.892   5.768   7.988  0.1023 -0.0760 -0.2004
16450SOL    HW151072   8.976   5.781   7.945  0.0585  0.0739 -0.2430
16450SOL    HW251073   8.913   5.726   8.071  0.1753 -0.5181 -0.4388
16451SOL     OW51074   4.648   9.628   9.033  0.2091 -0.3643  0.2843
16451SOL    HW151075   4.720   9.626   8.969  1.2392 -0.1917  1.4065
16451SOL    HW251076   4.595   9.703   9.006  0.2378 -0.6942 -0.7631
16452SOL     OW51077   6.357   1.456   6.233  0.5446 -0.1911  0.2138
16452SOL    HW151078   6.387   1.393   6.298  0.0598 -1.6398 -0.9115
16452SOL    HW251079   6.416   1.444   6.159  2.1819  2.6368  0.9200
16453SOL     OW51080   1.850   0.649   0.052  0.1997 -0.4369 -0.3205
16453SOL    HW151081   1.930   0.603   0.027  0.5192 -1.6512  2.5759
16453SOL    HW251082   1.882   0.728   0.097 -0.1087 -1.4985  1.8798
16454SOL     OW51083   6.083   3.420   2.971 -0.4114 -0.1238 -0.5157
16454SOL    HW151084   6.063   3.446   2.881  1.8762  0.8266 -0.8255
16454SOL    HW251085   6.149   3.352   2.962 -0.2355 -0.0950  0.4445
16455SOL     OW51086   3.009   8.332   0.390  0.1063  0.0663 -0.4483
16455SOL    HW151087   3.022   8.323   0.295  0.8771 -0.7615 -0.2785
16455SOL    HW251088   2.921   8.368   0.399 -0.9866 -2.1862 -1.4232
16456SOL     OW51089   8.028   8.907   6.437  0.2689 -0.6023  0.2134
16456SOL    HW151090   8.061   8.863   6.515  0.4513  0.4364  0.7401
16456SOL    HW251091   8.094   8.973   6.417 -0.1315 -0.3777 -0.3944
16457SOL     OW51092   6.988   3.503   7.751  0.6258  0.0929 -0.2709
16457SOL    HW151093   6.993   3.525   7.658 -0.7763  2.0989  0.0565
16457SOL    HW251094   6.905   3.541   7.781  1.4971  0.4102  1.9957
16458SOL     OW51095   3.575   4.061   3.704 -0.1996 -0.1851  0.4799
16458SOL    HW151096   3.582   4.018   3.789  0.4895  1.1471  1.1369
16458SOL    HW251097   3.481   4.070   3.689 -0.3340 -0.9837  0.7938
16459SOL     OW51098   2.081   3.092   1.419  0.3226  0.1216 -0.1866
16459SOL    HW151099   2.114   3.012   1.460  0.5025  1.6123  2.8156
16459SOL    HW251100   2.027   3.133   1.486  0.4002  2.6279 -1.5307
16460SOL     OW51101   8.596   3.822   7.596  0.0766 -0.2258 -0.0230
16460SOL    HW151102   8.660   3.763   7.557 -0.3010  0.0175 -1.0367
16460SOL    HW251103   8.550   3.768   7.661  0.1239 -0.8811 -0.5275
16461SOL     OW51104   2.445   6.754   1.024  0.2108 -0.1127  0.5133
16461SOL    HW151105   2.356   6.753   0.990  0.8722  2.4339 -1.5963
16461SOL    HW251106   2.442   6.815   1.097  0.8629  3.4585 -2.1679
16462SOL     OW51107   8.679   7.162   0.061 -0.1268 -0.0764  0.9546
16462SOL    HW151108   8.744   7.221   0.099  0.5488  0.2162 -0.5623
16462SOL    HW251109   8.699   7.076   0.097 -0.7128  0.4827  2.6970
16463SOL     OW51110   9.383   3.033   8.832  0.2179  0.7439  0.0351
16463SOL    HW151111   9.437   3.110   8.850  0.5262  0.4160  0.5269
16463SOL    HW251112   9.323   3.027   8.906  0.9890 -0.1691  0.6087
16464SOL     OW51113   2.725   3.145   0.978 -0.7834 -0.1721  0.0131
16464SOL    HW151114   2.703   3.187   0.895  0.3354  1.0540  0.3094
16464SOL    HW251115   2.753   3.056   0.954  0.6100  0.5186 -1.0580
16465SOL     OW51116   8.597   9.314   1.928 -0.2029  0.7145 -0.3027
16465SOL    HW151117   8.598   9.219   1.942  0.5516  0.9925  1.9876
16465SOL    HW251118   8.505   9.336   1.918 -0.5135 -0.1135  0.5476
16466SOL     OW51119   2.041   8.631   6.423 -0.2970 -0.1312  0.4178
16466SOL    HW151120   1.971   8.609   6.361 -0.5209  0.7739  0.3399
16466SOL    HW251121   2.001   8.694   6.483  0.1990 -0.2774  0.9055
16467SOL     OW51122   2.770   6.241   5.227 -0.2293  0.0373  0.0824
16467SOL    HW151123   2.800   6.313   5.283  0.1068  0.6282 -0.8439
16467SOL    HW251124   2.786   6.163   5.280  0.4395  0.5522  0.6697
16468SOL     OW51125   3.794   7.163   7.239 -0.0490  0.0264  0.0665
16468SOL    HW151126   3.845   7.221   7.295 -0.6622  0.9035 -0.2676
16468SOL    HW251127   3.750   7.222   7.177 -0.4805 -0.8140 -0.4433
16469SOL     OW51128   8.353   3.355   7.996  0.2413 -0.1545 -0.1778
16469SOL    HW151129   8.395   3.303   8.065 -0.2720 -0.8233 -0.3592
16469SOL    HW251130   8.275   3.392   8.039 -0.3794 -1.0214 -0.5400
16470SOL     OW51131   4.438   1.128   7.691  0.1893 -0.2692  0.0055
16470SOL    HW151132   4.407   1.217   7.678  0.8394  0.0521  0.5934
16470SOL    HW251133   4.533   1.132   7.675 -0.0957 -1.3548 -2.3580
16471SOL     OW51134   8.944   2.587   5.906  0.5330 -0.4130  0.0316
16471SOL    HW151135   8.936   2.669   5.955  0.0640  0.2592 -1.1250
16471SOL    HW251136   8.861   2.542   5.921  1.2251 -1.2614  1.6144
16472SOL     OW51137   3.270   3.149   4.198 -0.0670 -0.4428  0.1322
16472SOL    HW151138   3.245   3.200   4.275  0.9805  1.4048 -0.6872
16472SOL    HW251139   3.194   3.094   4.179 -1.0269  0.4064  1.3936
16473SOL     OW51140   6.289   6.028   3.687 -0.3955  0.5749 -0.1923
16473SOL    HW151141   6.352   6.031   3.616  0.3530 -1.5931  0.2819
16473SOL    HW251142   6.204   6.037   3.645  0.0865  0.2774 -1.2588
16474SOL     OW51143   1.101   5.478   3.096  0.8015  0.0082 -0.3164
16474SOL    HW151144   1.006   5.471   3.080  1.0317 -1.0144 -1.3568
16474SOL    HW251145   1.126   5.560   3.053  0.6728 -0.6017 -1.5830
16475SOL     OW51146   1.872   8.056   0.618 -0.2300  0.7496 -0.3207
16475SOL    HW151147   1.870   7.981   0.678 -2.6588  0.9905  0.0015
16475SOL    HW251148   1.891   8.131   0.674 -0.6946  0.7421 -0.1504
16476SOL     OW51149   0.417   4.796   1.868 -0.1499 -0.7910  0.3090
16476SOL    HW151150   0.426   4.882   1.826 -1.5750 -0.4683  0.6098
16476SOL    HW251151   0.354   4.810   1.939  0.5997 -1.8056  1.2096
16477SOL     OW51152   5.098   6.705   9.013 -0.2899  0.1596 -0.0406
16477SOL    HW151153   5.050   6.636   9.060  0.6961  1.5370  3.3175
16477SOL    HW251154   5.031   6.755   8.968 -1.2294 -1.7397 -0.8459
16478SOL     OW51155   1.533   4.741   2.937 -0.5884  0.2077 -0.1586
16478SOL    HW151156   1.530   4.645   2.930 -0.8500  0.2633 -0.8363
16478SOL    HW251157   1.449   4.765   2.977 -0.6786  0.1836 -0.3341
16479SOL     OW51158   2.722   4.162   3.527  0.3229  0.8033 -0.7621
16479SOL    HW151159   2.754   4.221   3.594  1.3854 -0.7334  0.1344
16479SOL    HW251160   2.637   4.133   3.559  1.3654 -0.9036  0.6213
16480SOL     OW51161   3.685   4.444   0.489  0.1078  0.0979 -0.0473
16480SOL    HW151162   3.618   4.494   0.535 -0.5696 -0.4532 -0.4126
16480SOL    HW251163   3.761   4.446   0.548 -0.2888  0.5729  0.4563
16481SOL     OW51164   8.839   6.600   5.557  0.0720 -0.2878 -0.1224
16481SOL    HW151165   8.860   6.589   5.650 -1.4523 -1.0603  0.1503
16481SOL    HW251166   8.912   6.558   5.511 -0.0796 -1.5567  0.7621
16482SOL     OW51167   0.591   4.366   1.479 -0.2078  0.0345 -0.7226
16482SOL    HW151168   0.634   4.446   1.448  0.0154  0.8364  1.4906
16482SOL    HW251169   0.499   4.379   1.458 -0.2306  1.0687 -0.0872
16483SOL     OW51170   8.010   3.874   7.080 -0.5548  0.1651  0.1417
16483SOL    HW151171   7.982   3.790   7.044  1.0203 -0.2089 -0.2581
16483SOL    HW251172   7.944   3.894   7.147 -1.1688 -1.1919 -0.0193
16484SOL     OW51173   9.285   9.411   2.559  0.0305  0.7780  0.0534
16484SOL    HW151174   9.315   9.331   2.517 -0.2566  0.5131  0.3572
16484SOL    HW251175   9.201   9.430   2.518  0.4195  1.3209 -0.5313
16485SOL     OW51176   3.144   7.167   5.680 -0.1280  0.2073  0.6924
16485SOL    HW151177   3.090   7.088   5.680  0.7411 -0.4179 -0.5333
16485SOL    HW251178   3.094   7.231   5.629  0.7506 -0.7500 -1.4945
16486SOL     OW51179   1.558   6.716   6.110  0.1974 -0.4015 -0.1770
16486SOL    HW151180   1.471   6.722   6.071  0.0917  0.9005  0.2399
16486SOL    HW251181   1.544   6.666   6.191 -0.2262  0.1308  0.0805
16487SOL     OW51182   4.951   2.720   4.237  0.2413  0.2952 -0.0152
16487SOL    HW151183   4.972   2.773   4.160 -1.6593 -1.8238 -2.1988
16487SOL    HW251184   5.015   2.648   4.234  1.4846  1.2584  1.7023
16488SOL     OW51185   1.424   8.175   9.211 -0.2021 -0.5559 -0.3856
16488SOL    HW151186   1.419   8.086   9.246 -0.9571 -0.3278  0.0935
16488SOL    HW251187   1.480   8.222   9.272  1.7331 -1.1335 -1.6062
16489SOL     OW51188   2.946   3.554   2.675 -0.0284  0.1604 -0.1579
16489SOL    HW151189   2.868   3.567   2.729 -0.0207  1.1862 -0.3759
16489SOL    HW251190   2.933   3.468   2.635 -0.4202 -0.2505  0.8222
16490SOL     OW51191   2.254   0.109   8.772  0.1563 -0.4682 -0.1005
16490SOL    HW151192   2.344   0.106   8.805 -0.5203 -1.0850  1.8161
16490SOL    HW251193   2.246   0.196   8.733  2.1866 -1.1462 -2.2727
16491SOL     OW51194   5.375   7.952   8.578 -0.2309  0.6751 -0.0324
16491SOL    HW151195   5.324   7.944   8.659 -0.9924  1.1236 -0.4490
16491SOL    HW251196   5.356   7.872   8.529 -1.9558  1.5717 -0.9442
16492SOL     OW51197   8.440   9.026   5.845 -0.7986  0.3065  0.0145
16492SOL    HW151198   8.474   9.108   5.810  0.0588 -0.2118 -0.3748
16492SOL    HW251199   8.412   9.048   5.935  2.1545  0.3726  1.0057
16493SOL     OW51200   8.740   4.932   3.091  0.2176 -0.1138  0.3531
16493SOL    HW151201   8.741   4.919   3.185 -0.9189 -0.4426  0.3321
16493SOL    HW251202   8.791   5.012   3.077 -0.0298  0.2164  1.2886
16494SOL     OW51203   4.883   3.193   0.135  0.0638 -0.2139 -0.3451
16494SOL    HW151204   4.870   3.157   0.223  0.4873  0.3937 -0.0271
16494SOL    HW251205   4.890   3.116   0.078 -0.5586 -0.6046  0.0998
16495SOL     OW51206   3.523   7.530   5.609 -0.0798 -0.0198  0.1573
16495SOL    HW151207   3.458   7.575   5.664 -0.0925 -0.5428  0.5812
16495SOL    HW251208   3.541   7.449   5.656  0.4480 -0.1454 -0.2587
16496SOL     OW51209   4.877   5.629   9.477 -0.5206  0.0353 -0.3712
16496SOL    HW151210   4.923   5.558   9.521  1.8026  1.0127 -1.0672
16496SOL    HW251211   4.792   5.592   9.453 -0.4142 -1.6406  1.6119
16497SOL     OW51212   7.680   3.471   1.925 -0.1770 -0.1276 -0.1974
16497SOL    HW151213   7.590   3.441   1.934 -0.7472  1.3954 -0.4914
16497SOL    HW251214   7.680   3.559   1.963  1.2274 -0.1631 -0.0638
16498SOL     OW51215   1.905   4.669   5.491 -0.5451 -0.0266 -0.4647
16498SOL    HW151216   1.818   4.682   5.527 -0.2334 -2.2011  1.2607
16498SOL    HW251217   1.900   4.705   5.402 -3.4916 -0.9543 -0.7826
16499SOL     OW51218   2.499   5.505   7.544  0.3996 -0.0148  0.1306
16499SOL    HW151219   2.564   5.539   7.483 -0.3777  1.1804 -0.0586
16499SOL    HW251220   2.477   5.418   7.509  0.2149  0.5091 -1.1139
16500SOL     OW51221   1.909   7.788   4.586  1.1041 -0.3366  0.1037
16500SOL    HW151222   1.899   7.862   4.526  1.0834  0.1068  0.6443
16500SOL    HW251223   1.865   7.715   4.542  1.3920 -0.1117 -0.5729
16501SOL     OW51224   7.893   6.260   6.617 -0.0441  0.3990 -0.2169
16501SOL    HW151225   7.952   6.221   6.681  0.1769  0.6998 -0.2321
16501SOL    HW251226   7.878   6.349   6.649  0.4913  0.7265 -0.8574
16502SOL     OW51227   0.431   2.045   5.549  0.3621  0.1331  0.3033
16502SOL    HW151228   0.479   1.993   5.614  1.1816 -0.6160 -0.8417
16502SOL    HW251229   0.450   2.136   5.572  1.3065 -0.1337  0.6463
16503SOL     OW51230   5.021   2.691   5.102 -0.2042 -0.0099 -0.5204
16503SOL    HW151231   5.106   2.733   5.112 -0.6330  0.7697  0.1039
16503SOL    HW251232   4.988   2.722   5.018  0.1865 -0.4315 -0.8304
16504SOL     OW51233   7.508   1.101   6.088 -0.0184  0.1936 -0.1495
16504SOL    HW151234   7.440   1.040   6.115  1.2882 -0.7518  1.1835
16504SOL    HW251235   7.520   1.158   6.164  1.0124  0.0196 -0.1657
16505SOL     OW51236   6.195   6.652   1.756 -0.3292  0.2227 -0.0137
16505SOL    HW151237   6.204   6.676   1.664  0.3842 -0.2359 -0.0799
16505SOL    HW251238   6.162   6.562   1.754 -0.3517  0.2259  0.1762
16506SOL     OW51239   2.870   1.784   5.472 -0.3340  0.4903  0.0962
16506SOL    HW151240   2.862   1.879   5.482 -0.1590  0.5038  0.1159
16506SOL    HW251241   2.853   1.749   5.559 -0.9806  0.4649 -0.0386
16507SOL     OW51242   4.300   6.870   4.480 -0.1701 -0.3418  0.1229
16507SOL    HW151243   4.213   6.908   4.484 -0.5390 -1.2616  1.7486
16507SOL    HW251244   4.355   6.930   4.531 -0.0220 -0.2152 -0.1807
16508SOL     OW51245   8.782   3.832   1.666 -0.4130 -0.5969 -0.1000
16508SOL    HW151246   8.758   3.769   1.598  1.0142  0.2110 -1.4217
16508SOL    HW251247   8.878   3.832   1.666 -0.3500  1.6282 -0.2400
16509SOL     OW51248   5.576   0.227   6.470  0.2725 -0.6625 -0.2618
16509SOL    HW151249   5.531   0.311   6.470  1.0691 -0.2174  0.2666
16509SOL    HW251250   5.628   0.227   6.390  1.3652 -0.0124  0.4057
16510SOL     OW51251   0.855   1.047   6.588 -0.0872  0.4347  0.5056
16510SOL    HW151252   0.941   1.080   6.614 -0.3412  2.7951 -1.3005
16510SOL    HW251253   0.875   0.970   6.535  0.8819  0.6580  0.5215
16511SOL     OW51254   4.180   3.697   6.299  0.2708  0.1216 -0.0004
16511SOL    HW151255   4.146   3.697   6.210  0.8913 -0.0775 -0.2469
16511SOL    HW251256   4.160   3.610   6.333  0.9030 -0.1492 -0.2987
16512SOL     OW51257   1.293   6.388   2.847  0.0647  0.7210 -0.2978
16512SOL    HW151258   1.302   6.304   2.893 -0.0077  0.1066 -1.3736
16512SOL    HW251259   1.259   6.448   2.914 -2.6321 -0.8014 -0.1309
16513SOL     OW51260   0.663   0.792   8.264 -0.0613  0.6439  0.2350
16513SOL    HW151261   0.634   0.703   8.247  0.0735  0.0480  2.7339
16513SOL    HW251262   0.758   0.787   8.268  0.0298  1.1769 -0.8272
16514SOL     OW51263   0.331   1.915   6.108  0.5848  0.5344 -0.0038
16514SOL    HW151264   0.247   1.946   6.075  0.8267  0.2905 -0.8954
16514SOL    HW251265   0.364   1.857   6.038  1.3937  0.4691  0.4183
16515SOL     OW51266   6.437   2.143   0.710  0.1360  0.0277 -0.1977
16515SOL    HW151267   6.426   2.201   0.785 -1.0925  1.1196 -1.1628
16515SOL    HW251268   6.433   2.202   0.634 -1.1582 -1.3161 -1.2139
16516SOL     OW51269   1.579   6.947   3.532  0.4448 -0.1489 -0.2798
16516SOL    HW151270   1.656   6.935   3.477  1.0572  0.5222  0.4033
16516SOL    HW251271   1.607   6.918   3.619 -0.0977  0.0249 -0.0416
16517SOL     OW51272   8.867   2.693   2.372 -0.1640  1.3536 -0.0566
16517SOL    HW151273   8.870   2.742   2.454  0.4093  0.8202  0.2410
16517SOL    HW251274   8.882   2.760   2.304  2.0084  1.4087  0.4152
16518SOL     OW51275   8.708   9.062   0.730  0.7757  0.5002  0.0052
16518SOL    HW151276   8.796   9.082   0.699  0.0391  2.7334 -0.8210
16518SOL    HW251277   8.662   9.030   0.652 -0.4415  4.0266 -0.9486
16519SOL     OW51278   2.552   1.474   3.797 -0.4323  0.1305 -0.6133
16519SOL    HW151279   2.566   1.560   3.756  0.8402  0.7807  1.0562
16519SOL    HW251280   2.619   1.469   3.866 -1.8595 -1.2848  0.7636
16520SOL     OW51281   3.746   2.785   6.647 -0.0145 -0.0687 -0.4029
16520SOL    HW151282   3.667   2.756   6.600 -1.0309  0.6123  0.8277
16520SOL    HW251283   3.818   2.742   6.601 -1.1324 -1.0980 -1.2613
16521SOL     OW51284   6.466   7.258   0.097  0.1656  0.0443  0.6373
16521SOL    HW151285   6.476   7.228   0.187 -1.2287  3.0369  1.9050
16521SOL    HW251286   6.374   7.244   0.077 -0.0518  1.4708  0.5450
16522SOL     OW51287   2.417   1.824   0.212 -0.5486 -0.4454  0.1700
16522SOL    HW151288   2.360   1.859   0.280 -0.0395 -0.5904  0.6772
16522SOL    HW251289   2.506   1.844   0.242 -0.2199 -2.2828  0.5539
16523SOL     OW51290   4.133   4.456   1.069 -0.0028  0.0897 -0.1941
16523SOL    HW151291   4.076   4.468   1.144 -2.3665 -1.1685 -1.6631
16523SOL    HW251292   4.162   4.544   1.046 -1.2834  0.7724  0.6733
16524SOL     OW51293   7.283   8.359   5.445 -0.3210 -0.2165 -0.3320
16524SOL    HW151294   7.337   8.341   5.368  2.3159  0.4441  1.2256
16524SOL    HW251295   7.313   8.444   5.476  1.9214 -2.1745  3.7581
16525SOL     OW51296   8.774   3.326   9.499 -0.6056  0.0998  0.3220
16525SOL    HW151297   8.765   3.406   9.551  1.5294  1.0116 -0.6045
16525SOL    HW251298   8.721   3.342   9.421  0.9653  1.2862 -0.5524
16526SOL     OW51299   5.332   5.984   2.673  1.1641  0.0652 -0.3153
16526SOL    HW151300   5.330   5.985   2.769  0.9467 -0.9160 -0.3013
16526SOL    HW251301   5.290   6.066   2.648  1.1266  0.2844  0.4244
16527SOL     OW51302   6.128   9.680   4.139  0.6011 -0.4278  0.3733
16527SOL    HW151303   6.209   9.654   4.183  1.1884  0.5476 -0.1056
16527SOL    HW251304   6.152   9.757   4.088 -0.3043 -0.9491 -0.8866
16528SOL     OW51305   6.148   3.870   4.213 -0.5189  0.4382  0.8055
16528SOL    HW151306   6.193   3.796   4.172 -0.7859 -0.0086  1.2994
16528SOL    HW251307   6.211   3.942   4.209  0.9221 -0.5982  2.9487
16529SOL     OW51308   8.913   7.665   5.279  0.3197 -0.0619  0.5589
16529SOL    HW151309   8.945   7.650   5.190  0.4093 -0.1611  0.6075
16529SOL    HW251310   8.841   7.727   5.268 -0.0693 -0.5446  0.3506
16530SOL     OW51311   2.789   5.864   2.899 -0.4458  0.0899  0.2898
16530SOL    HW151312   2.810   5.941   2.846  1.3786 -0.6213 -0.0669
16530SOL    HW251313   2.774   5.794   2.835 -1.5079 -0.0140  0.6317
16531SOL     OW51314   7.443   8.084   9.637 -0.2946 -0.2514 -0.3252
16531SOL    HW151315   7.380   8.018   9.609 -0.5531  0.0869 -0.5479
16531SOL    HW251316   7.453   8.142   9.561 -1.2456  0.8698  0.3637
16532SOL     OW51317   8.917   1.897   5.952  0.6013  0.1922  0.2944
16532SOL    HW151318   8.983   1.925   6.016  2.0786 -0.9977 -0.6562
16532SOL    HW251319   8.952   1.925   5.867  0.5661 -1.6518 -0.3577
16533SOL     OW51320   6.261   5.282   3.736  0.3672  0.0913  0.1042
16533SOL    HW151321   6.212   5.278   3.819 -1.9686  0.7236 -1.1528
16533SOL    HW251322   6.267   5.191   3.708 -0.3156  0.0269  0.1550
16534SOL     OW51323   5.399   6.934   9.310  0.2046 -0.2256  0.0636
16534SOL    HW151324   5.321   6.880   9.301 -0.1857  0.2643  0.4909
16534SOL    HW251325   5.437   6.936   9.222  0.8350 -2.0797  0.2493
16535SOL     OW51326   5.575   8.334   4.106  0.2695 -0.5897  0.6835
16535SOL    HW151327   5.561   8.243   4.132  1.3762 -1.1492 -0.5429
16535SOL    HW251328   5.525   8.344   4.025 -0.4612  0.1379  1.2061
16536SOL     OW51329   0.880   5.809   3.788  0.1219  0.2261 -0.0224
16536SOL    HW151330   0.909   5.794   3.877 -1.3665 -0.0289  0.4484
16536SOL    HW251331   0.838   5.727   3.762 -0.8545  0.8152 -0.3757
16537SOL     OW51332   0.055   2.410   7.309 -0.1937  0.0806  0.6744
16537SOL    HW151333   0.033   2.461   7.231 -4.0887 -2.1542  0.0815
16537SOL    HW251334   0.073   2.476   7.376 -3.7631  2.3846 -0.3242
16538SOL     OW51335   3.967   8.544   6.218 -0.4002  0.1534 -0.5333
16538SOL    HW151336   3.879   8.544   6.256 -0.7606 -2.9584 -1.1017
16538SOL    HW251337   4.024   8.573   6.289 -1.6186 -0.3894  0.7065
16539SOL     OW51338   8.149   4.783   1.592  0.2403 -0.1523 -0.1905
16539SOL    HW151339   8.078   4.761   1.652 -1.2046  1.7355 -1.0956
16539SOL    HW251340   8.181   4.867   1.625  1.2069 -0.3732 -0.5476
16540SOL     OW51341   1.577   4.834   9.276  0.0012  1.1424 -0.2296
16540SOL    HW151342   1.600   4.839   9.183 -2.8015 -0.1140 -1.1356
16540SOL    HW251343   1.531   4.917   9.294  1.1848  1.7034  0.2739
16541SOL     OW51344   7.246   2.697   0.506  0.5653  0.4264  0.0075
16541SOL    HW151345   7.288   2.691   0.420  0.5475  0.2260  0.0130
16541SOL    HW251346   7.192   2.618   0.512 -0.0701  0.8446 -0.1373
16542SOL     OW51347   9.399   3.166   3.586 -0.0692  0.1432 -0.1023
16542SOL    HW151348   9.318   3.186   3.539  0.3652 -1.3020 -1.5451
16542SOL    HW251349   9.398   3.071   3.596  0.5554  0.2826  1.5981
16543SOL     OW51350   3.032   3.026   1.742 -0.2593  0.1143 -0.2722
16543SOL    HW151351   3.096   3.096   1.754  2.0305 -2.1223  1.9442
16543SOL    HW251352   3.082   2.955   1.701 -2.6567 -0.1304 -3.0899
16544SOL     OW51353   3.586   4.946   7.124 -0.2821  0.0574  0.3465
16544SOL    HW151354   3.500   4.915   7.153  0.6326 -0.3862  2.8359
16544SOL    HW251355   3.594   5.033   7.165 -0.0071  0.6215 -0.8662
16545SOL     OW51356   5.857   3.652   7.051 -0.3120 -0.3134 -0.6336
16545SOL    HW151357   5.847   3.557   7.042  0.2186 -0.1989 -3.2146
16545SOL    HW251358   5.817   3.688   6.973 -1.7145  1.7546  0.9298
16546SOL     OW51359   4.423   2.837   9.022  0.5437  0.0897 -0.3018
16546SOL    HW151360   4.384   2.804   8.941  0.3202 -1.3888  0.3795
16546SOL    HW251361   4.349   2.850   9.082  0.9258 -1.4819  0.5610
16547SOL     OW51362   1.240   7.294   4.868  0.4216 -0.0823  0.5185
16547SOL    HW151363   1.241   7.369   4.927 -1.2470  0.5856 -0.2677
16547SOL    HW251364   1.317   7.307   4.811  0.4313  0.7556  0.7149
16548SOL     OW51365   6.512   8.631   8.197  0.2241 -0.2523 -0.5480
16548SOL    HW151366   6.424   8.624   8.162  0.6587 -0.2729 -1.6851
16548SOL    HW251367   6.518   8.562   8.262 -1.3144  1.1449  1.1859
16549SOL     OW51368   6.015   3.078   4.245  0.1242 -0.8401  0.1256
16549SOL    HW151369   6.001   2.984   4.232 -0.2118 -0.5578 -1.7343
16549SOL    HW251370   5.939   3.120   4.205  1.7111  0.3337 -1.8430
16550SOL     OW51371   6.828   8.313   3.557  0.7474 -0.0385  0.1876
16550SOL    HW151372   6.763   8.245   3.538  2.3379 -0.8336 -3.2490
16550SOL    HW251373   6.909   8.264   3.573  1.6280  0.9480 -1.0439
16551SOL     OW51374   0.493   4.524   8.551  0.5375 -0.2692  0.1048
16551SOL    HW151375   0.541   4.593   8.505 -0.6804 -0.3580 -1.3634
16551SOL    HW251376   0.402   4.550   8.547  0.3353 -0.4523  2.2575
16552SOL     OW51377   1.022   5.084   2.087  0.2516  0.2726  0.0812
16552SOL    HW151378   1.102   5.036   2.111 -0.8385 -1.7545 -0.1607
16552SOL    HW251379   0.956   5.053   2.148 -1.2763 -1.0289 -2.1070
16553SOL     OW51380   7.928   6.197   7.242  0.6207  0.2713  0.0593
16553SOL    HW151381   7.906   6.288   7.264 -0.5620 -0.2148  1.0438
16553SOL    HW251382   8.023   6.195   7.242  0.6664  1.4468  0.3573
16554SOL     OW51383   6.000   8.633   6.673  0.3969 -0.3971  0.3839
16554SOL    HW151384   6.063   8.563   6.654  0.6819 -0.4183  1.3745
16554SOL    HW251385   5.966   8.658   6.587 -0.1111 -2.1249  0.0370
16555SOL     OW51386   4.866   2.881   1.384 -0.4277 -0.4762  0.2858
16555SOL    HW151387   4.792   2.822   1.364 -0.4682 -0.1913 -0.4560
16555SOL    HW251388   4.944   2.827   1.370 -0.4688 -0.4085 -0.2349
16556SOL     OW51389   3.324   8.050   8.742  0.1472  0.4122  0.5957
16556SOL    HW151390   3.414   8.083   8.741 -0.4242  2.0637 -0.0879
16556SOL    HW251391   3.277   8.112   8.798 -0.7508  0.0833  0.2224
16557SOL     OW51392   2.940   5.119   9.376  0.0978 -0.1672 -0.4969
16557SOL    HW151393   2.858   5.168   9.372  1.5702  2.5007  0.1399
16557SOL    HW251394   2.927   5.055   9.446 -0.7671  1.5980  1.0204
16558SOL     OW51395   3.339   8.182   8.098 -0.3160 -0.1881  0.8114
16558SOL    HW151396   3.400   8.194   8.171  0.2555 -1.0126  0.4892
16558SOL    HW251397   3.290   8.102   8.120 -1.1071  0.3259  0.9440
16559SOL     OW51398   2.750   4.747   6.518 -0.1024  0.3158 -0.4296
16559SOL    HW151399   2.800   4.815   6.473  0.5439  0.1114 -0.0291
16559SOL    HW251400   2.664   4.786   6.532  0.0386  0.7822 -0.8532
16560SOL     OW51401   7.235   4.670   5.931  0.8866  0.0966  0.0527
16560SOL    HW151402   7.323   4.697   5.956  0.8326 -0.6019  1.0396
16560SOL    HW251403   7.234   4.676   5.835  1.9771  0.1821  0.0403
16561SOL     OW51404   8.179   7.287   1.964 -0.1888 -0.6360  0.0495
16561SOL    HW151405   8.102   7.250   2.007 -1.0232 -0.2330 -1.0321
16561SOL    HW251406   8.197   7.228   1.891 -1.8533  1.2029 -2.0175
16562SOL     OW51407   7.309   0.901   0.724 -0.5576  0.2298  0.3350
16562SOL    HW151408   7.244   0.873   0.788 -0.6835 -0.8664 -0.2567
16562SOL    HW251409   7.373   0.831   0.722 -0.3839  0.4000 -0.5063
16563SOL     OW51410   9.646   9.393   2.485  1.0531  0.8399 -0.1239
16563SOL    HW151411   9.727   9.343   2.494  0.3924 -0.2176  0.1470
16563SOL    HW251412   9.620   9.382   2.394  0.5205  0.0412  0.1106
16564SOL     OW51413   0.057   0.121   4.300  0.9904  0.0044 -0.3370
16564SOL    HW151414  -0.017   0.181   4.290  1.9492  1.1796 -0.5660
16564SOL    HW251415   0.029   0.041   4.255 -0.0451  0.4965 -0.6042
16565SOL     OW51416   8.097   9.223   6.445  0.3678  0.0702  0.1625
16565SOL    HW151417   8.017   9.212   6.394  1.0502 -3.9199 -0.3317
16565SOL    HW251418   8.075   9.187   6.531  1.5323 -0.8015  0.1066
16566SOL     OW51419   4.223   7.726   3.851 -0.4914  0.8869 -0.4733
16566SOL    HW151420   4.181   7.735   3.937  2.1882 -2.5203  1.4226
16566SOL    HW251421   4.255   7.814   3.831 -0.8763  1.7340  2.2339
16567SOL     OW51422   0.320   4.863   8.804 -0.5799 -0.0117 -0.7160
16567SOL    HW151423   0.353   4.775   8.824  0.6262  0.5201 -0.2108
16567SOL    HW251424   0.319   4.867   8.709 -1.8077 -0.9709 -0.7694
16568SOL     OW51425   6.576   3.250   3.382  0.0885 -0.0342 -0.1619
16568SOL    HW151426   6.597   3.341   3.362 -0.0297 -0.1268 -0.7174
16568SOL    HW251427   6.499   3.255   3.439 -0.6474  0.1771 -1.1528
16569SOL     OW51428   8.232   8.096   8.421 -0.2466 -0.3786  0.1127
16569SOL    HW151429   8.256   8.017   8.372 -1.4292  0.6876 -2.3268
16569SOL    HW251430   8.290   8.164   8.386 -0.1676  0.1481  1.2290
16570SOL     OW51431   9.296   0.841   9.695  0.2461  0.2476 -0.7377
16570SOL    HW151432   9.357   0.914   9.684 -0.4106  1.1966  1.4129
16570SOL    HW251433   9.221   0.865   9.640 -0.1562  1.4808  0.2769
16571SOL     OW51434   8.023   8.653   8.815  0.4962  0.0358  0.1209
16571SOL    HW151435   8.100   8.671   8.868  0.1153 -0.2642  0.7853
16571SOL    HW251436   8.036   8.704   8.735  1.0407  0.5413  0.5311
16572SOL     OW51437   0.360   3.576   5.262  0.2342 -0.1693 -0.8339
16572SOL    HW151438   0.389   3.499   5.311  0.7197  0.9629  0.7540
16572SOL    HW251439   0.405   3.569   5.178  0.8527 -1.2319 -0.4367
16573SOL     OW51440   8.042   2.885   7.938  0.3440  0.1549 -0.3108
16573SOL    HW151441   8.132   2.876   7.907 -0.3610 -1.0281 -2.2083
16573SOL    HW251442   8.015   2.972   7.908 -0.2255 -0.8514 -3.0188
16574SOL     OW51443   5.032   0.066   3.499 -0.2198  0.1531  0.3699
16574SOL    HW151444   4.950   0.073   3.450 -0.2259  3.6516  0.6326
16574SOL    HW251445   5.024   0.131   3.569  1.9914 -0.8353  1.6482
16575SOL     OW51446   2.744   0.670   2.251 -0.1015 -0.6183 -0.2748
16575SOL    HW151447   2.831   0.642   2.221  0.3365  0.1031  0.2980
16575SOL    HW251448   2.755   0.685   2.345  0.5451  4.3767 -0.8648
16576SOL     OW51449   6.677   7.911   5.849 -0.0485 -0.2802  0.1447
16576SOL    HW151450   6.628   7.831   5.869 -1.1996  0.7146  1.5447
16576SOL    HW251451   6.628   7.952   5.778 -0.7291  0.2392  0.8986
16577SOL     OW51452   2.751   3.558   3.866  0.1977  0.2541  0.6607
16577SOL    HW151453   2.843   3.549   3.891 -0.4007 -1.8984  2.4461
16577SOL    HW251454   2.737   3.487   3.803 -0.2538  0.4871  0.4984
16578SOL     OW51455   7.187   4.561   3.548  0.1230 -0.1536  0.1367
16578SOL    HW151456   7.226   4.498   3.609  2.2417 -1.0848 -2.0287
16578SOL    HW251457   7.120   4.511   3.502  2.1367 -1.1126 -1.9286
16579SOL     OW51458   9.096   5.317   7.643  0.4764  0.2488 -0.6488
16579SOL    HW151459   9.055   5.362   7.716  2.1300 -0.2472  0.6588
16579SOL    HW251460   9.027   5.309   7.577 -0.4521  2.7136 -0.0737
16580SOL     OW51461   5.264   2.977   2.448 -0.0224  0.3047  0.4467
16580SOL    HW151462   5.338   2.959   2.390 -0.1554 -1.2437  0.7105
16580SOL    HW251463   5.302   2.979   2.536  0.0045  1.5626  0.4298
16581SOL     OW51464   8.921   9.150   8.292 -0.1331 -0.5813  0.2137
16581SOL    HW151465   8.915   9.213   8.221 -1.0667 -4.0314 -3.1483
16581SOL    HW251466   9.009   9.114   8.286 -1.0860 -2.9363 -1.3742
16582SOL     OW51467   0.335   3.016   5.479 -0.4057 -0.5482  0.0372
16582SOL    HW151468   0.281   3.093   5.493  0.1573 -0.4415  1.8452
16582SOL    HW251469   0.327   2.998   5.385 -0.1625  1.9823 -0.5294
16583SOL     OW51470   2.926   6.086   8.831 -0.5759 -0.2302 -0.4753
16583SOL    HW151471   2.937   6.157   8.895 -0.5970 -0.2801 -0.4164
16583SOL    HW251472   2.981   6.112   8.757  0.9080 -1.0786  0.3049
16584SOL     OW51473   0.917   7.448   7.015 -0.1552  0.0798 -0.3358
16584SOL    HW151474   0.998   7.428   7.062 -1.1037  1.0730  1.8591
16584SOL    HW251475   0.917   7.387   6.941  2.2276 -0.4209 -0.0160
16585SOL     OW51476   1.550   0.413   7.225 -0.6070  0.2325  0.0360
16585SOL    HW151477   1.609   0.424   7.150 -0.8481 -0.9236 -0.3423
16585SOL    HW251478   1.586   0.339   7.273 -1.9602 -0.7605 -0.4318
16586SOL     OW51479   1.606   3.048   1.582  0.0873  0.2477 -0.3241
16586SOL    HW151480   1.665   2.982   1.618 -0.6217 -0.7520 -0.9181
16586SOL    HW251481   1.524   3.001   1.567 -0.6449  1.4373 -0.1552
16587SOL     OW51482   4.072   6.187   1.766  0.5936 -0.5797 -0.3292
16587SOL    HW151483   4.004   6.198   1.699  0.1556  0.2655  0.2339
16587SOL    HW251484   4.055   6.258   1.828  1.4022 -0.9562  0.3290
16588SOL     OW51485   4.382   5.147   8.956 -0.1288 -0.5379  0.1542
16588SOL    HW151486   4.323   5.207   8.911 -0.0887 -0.6616 -0.0585
16588SOL    HW251487   4.335   5.124   9.037 -1.6637 -2.9092 -1.2985
16589SOL     OW51488   5.642   9.259   7.411  0.6465  0.2754  0.0435
16589SOL    HW151489   5.585   9.329   7.380 -0.4553  0.1637  1.6544
16589SOL    HW251490   5.657   9.280   7.503 -0.3857 -1.9705  0.8128
16590SOL     OW51491   4.992   3.638   1.449  1.0263 -0.2492 -0.4001
16590SOL    HW151492   4.911   3.605   1.411  0.7244 -2.5889  1.9953
16590SOL    HW251493   5.004   3.724   1.409 -2.4944  0.0843 -1.0450
16591SOL     OW51494   7.924   9.586   8.217  0.0065 -0.4362 -0.2525
16591SOL    HW151495   8.000   9.644   8.229  1.7859 -2.0524 -2.6349
16591SOL    HW251496   7.957   9.499   8.238 -1.7311 -0.9903  0.3200
16592SOL     OW51497   0.819   7.524   6.297 -0.0715  0.1909 -0.4919
16592SOL    HW151498   0.823   7.620   6.296 -2.0648  0.3584 -2.9924
16592SOL    HW251499   0.861   7.497   6.215 -0.0701 -1.0280 -0.1105
16593SOL     OW51500   8.572   9.051   6.851 -0.8298  0.2331  0.0390
16593SOL    HW151501   8.665   9.063   6.831 -1.4064  0.8422 -2.5317
16593SOL    HW251502   8.569   9.046   6.947  1.9467 -0.7865  0.1579
16594SOL     OW51503   2.586   1.280   8.133 -0.7216 -0.0826  0.6170
16594SOL    HW151504   2.674   1.301   8.167 -0.9063  1.0932  0.4149
16594SOL    HW251505   2.558   1.205   8.186  0.6367 -0.8622  0.2806
16595SOL     OW51506   6.836   5.266   6.047  0.2598 -0.0812 -0.2327
16595SOL    HW151507   6.902   5.324   6.008 -1.4763  2.5761  0.5382
16595SOL    HW251508   6.806   5.212   5.974 -1.3851  3.2842 -2.2718
16596SOL     OW51509   3.929   4.221   7.850 -0.5890  0.5096 -0.1830
16596SOL    HW151510   3.957   4.286   7.915 -0.5237 -0.5425  0.9025
16596SOL    HW251511   3.932   4.138   7.898 -2.4919 -0.0642 -0.9679
16597SOL     OW51512   0.288   2.385   7.673  0.2159  0.0697 -0.1261
16597SOL    HW151513   0.275   2.292   7.690 -0.3823 -0.0104 -0.9490
16597SOL    HW251514   0.212   2.411   7.620  0.6480  0.8982 -0.3699
16598SOL     OW51515   0.000   5.271   6.471 -0.3775  0.4748 -0.1281
16598SOL    HW151516   0.053   5.348   6.449 -1.1895  0.9544 -0.4408
16598SOL    HW251517   0.038   5.200   6.417  1.7446  0.0981  1.7096
16599SOL     OW51518   8.773   0.800   0.444 -0.0430  0.3606  0.3123
16599SOL    HW151519   8.717   0.764   0.376  1.1145  1.6635 -1.3874
16599SOL    HW251520   8.849   0.742   0.446 -0.5272 -0.2748  1.2637
16600SOL     OW51521   2.587   0.937   8.829  0.6999  0.0730 -0.5951
16600SOL    HW151522   2.590   0.971   8.919  0.5670  0.5204 -0.7576
16600SOL    HW251523   2.541   0.854   8.837  0.3842  0.2734 -0.2928
16601SOL     OW51524   5.379   6.701   7.061 -0.2502  0.2993 -0.8155
16601SOL    HW151525   5.366   6.796   7.060  1.2341  0.5440 -0.1857
16601SOL    HW251526   5.475   6.690   7.060 -0.3973 -1.1933 -1.0647
16602SOL     OW51527   5.993   7.144   7.496  0.1471 -0.1907  0.3366
16602SOL    HW151528   5.949   7.185   7.422 -0.3207 -1.3305 -0.0316
16602SOL    HW251529   6.005   7.053   7.470  0.5204 -0.4667  1.4217
16603SOL     OW51530   2.737   7.503   3.724 -0.3930  0.0428 -0.0462
16603SOL    HW151531   2.827   7.530   3.745  0.4221 -0.5982 -2.3589
16603SOL    HW251532   2.731   7.413   3.757 -0.0780 -0.0118 -0.1302
16604SOL     OW51533   8.236   6.494   7.072  0.1283 -0.4928  0.4143
16604SOL    HW151534   8.247   6.589   7.067  1.0178 -0.5544  0.9991
16604SOL    HW251535   8.285   6.460   6.997 -2.2424 -0.3822 -1.2802
16605SOL     OW51536   6.172   6.789   6.314 -0.0833 -0.0031 -0.1427
16605SOL    HW151537   6.139   6.715   6.364 -0.1967  0.6352  0.7475
16605SOL    HW251538   6.146   6.866   6.364  2.0343  0.5720  0.1839
16606SOL     OW51539   3.020   0.693   4.226 -0.1307  0.4450 -0.5243
16606SOL    HW151540   3.115   0.685   4.240 -0.3418  0.3919  1.0780
16606SOL    HW251541   2.992   0.759   4.289 -1.2096  0.2211 -0.7536
16607SOL     OW51542   7.727   9.395   6.008  0.8045 -0.2932  0.2878
16607SOL    HW151543   7.722   9.485   5.977  1.4440  0.2661  1.7293
16607SOL    HW251544   7.818   9.369   5.995  0.4235 -1.0871 -0.9946
16608SOL     OW51545   7.235   2.086   0.898  0.4509 -0.1021  0.3387
16608SOL    HW151546   7.202   2.050   0.980 -0.6235 -1.1442 -0.5168
16608SOL    HW251547   7.318   2.127   0.922  0.9340 -1.7247  1.6912
16609SOL     OW51548   3.280   9.129   1.216 -0.3446 -0.2207 -0.5586
16609SOL    HW151549   3.278   9.068   1.143  0.9445 -2.5145  1.1940
16609SOL    HW251550   3.191   9.129   1.250 -1.0180  1.0735 -2.2194
16610SOL     OW51551   3.137   2.348   6.963 -0.1054 -0.0680  0.8406
16610SOL    HW151552   3.177   2.264   6.982 -1.0906 -0.4572  1.2881
16610SOL    HW251553   3.071   2.359   7.031  0.1411  1.1680  0.9142
16611SOL     OW51554   2.459   3.066   3.193  0.4134 -0.0533 -0.0550
16611SOL    HW151555   2.469   2.978   3.229 -0.3566 -0.1450 -0.0449
16611SOL    HW251556   2.515   3.066   3.116  0.1694 -0.6647 -0.2436
16612SOL     OW51557   7.447   8.196   7.379 -0.1631 -0.3136  0.4851
16612SOL    HW151558   7.444   8.290   7.397 -1.8238 -0.3356  0.4846
16612SOL    HW251559   7.533   8.181   7.340 -0.1518  1.3260 -0.1603
16613SOL     OW51560   0.053   9.241   5.465  0.1977 -0.1100  0.0786
16613SOL    HW151561   0.079   9.301   5.394  1.7096 -0.6144  0.1659
16613SOL    HW251562  -0.040   9.256   5.476  0.5709  2.4668  0.3091
16614SOL     OW51563   0.122   5.781   0.995 -0.0916 -0.3592  0.6396
16614SOL    HW151564   0.130   5.769   1.090  0.0194  0.5240  0.7481
16614SOL    HW251565   0.194   5.840   0.973 -0.8536  0.4170  0.1958
16615SOL     OW51566   5.382   9.647   1.879 -0.2396  0.1736 -0.0418
16615SOL    HW151567   5.316   9.650   1.947  0.9099  0.5659  1.0995
16615SOL    HW251568   5.412   9.738   1.870  0.0951  0.0195 -0.5879
16616SOL     OW51569   6.224   0.222   8.151  0.3162 -0.2653 -0.4085
16616SOL    HW151570   6.170   0.221   8.072 -0.9849  1.4017  0.3872
16616SOL    HW251571   6.312   0.241   8.119 -0.3473  1.3660 -1.4395
16617SOL     OW51572   5.352   2.316   4.950  0.1827  0.9475 -0.4069
16617SOL    HW151573   5.271   2.366   4.954  0.3655  1.1537  1.5166
16617SOL    HW251574   5.414   2.373   4.903  0.1472  2.1851  1.0024
16618SOL     OW51575   5.207   0.508   8.249 -0.1242 -0.5587  0.4852
16618SOL    HW151576   5.283   0.471   8.294 -0.5508  1.4622  3.1292
16618SOL    HW251577   5.242   0.580   8.197  0.0910 -1.5444 -0.7870
16619SOL     OW51578   1.409   0.745   7.265  0.2982  0.0682  0.3710
16619SOL    HW151579   1.321   0.781   7.251  0.6425  0.7158 -0.2123
16619SOL    HW251580   1.436   0.714   7.178  1.3283  1.4995  0.1323
16620SOL     OW51581   0.976   8.989   4.887 -0.0519 -0.2780 -0.2168
16620SOL    HW151582   0.884   8.983   4.911  0.2194 -3.1893  0.5238
16620SOL    HW251583   1.010   8.901   4.901  2.6575  0.4775 -1.3272
16621SOL     OW51584   0.395   1.511   4.528  0.1950  0.0196  0.4043
16621SOL    HW151585   0.302   1.490   4.533  0.1375  0.3727  0.8649
16621SOL    HW251586   0.439   1.426   4.515 -0.2140 -0.1071 -0.1919
16622SOL     OW51587   3.387   9.191   2.956 -0.1554 -0.3004  0.0662
16622SOL    HW151588   3.402   9.136   3.033 -0.6374  1.2632  1.3445
16622SOL    HW251589   3.462   9.251   2.955 -0.3679 -0.0399 -0.4382
16623SOL     OW51590   8.636   0.398   8.024 -0.4845 -0.0135 -0.1000
16623SOL    HW151591   8.545   0.376   8.045  0.1883 -2.0289  0.9803
16623SOL    HW251592   8.637   0.408   7.928 -1.7784 -0.2771 -0.1563
16624SOL     OW51593   2.821   4.543   6.278  0.1408 -0.3769  0.4866
16624SOL    HW151594   2.737   4.541   6.231  0.3754  0.0042  0.0512
16624SOL    HW251595   2.866   4.620   6.244  1.4821 -1.6086 -0.6790
16625SOL     OW51596   2.245   5.122   1.417  0.0114 -0.0560  0.2713
16625SOL    HW151597   2.206   5.080   1.340 -0.7995  0.0289  0.6366
16625SOL    HW251598   2.172   5.136   1.477  0.5332  0.4770  0.7913
16626SOL     OW51599   3.616   6.237   4.484  0.3559 -0.1122 -0.0042
16626SOL    HW151600   3.678   6.258   4.414 -0.2859  0.1848 -0.4946
16626SOL    HW251601   3.548   6.305   4.478 -1.2390 -1.6962 -0.9816
16627SOL     OW51602   8.039   2.834   5.188 -0.2528 -0.0485 -0.0403
16627SOL    HW151603   8.017   2.782   5.111 -0.3030 -1.1430  0.6825
16627SOL    HW251604   8.097   2.903   5.155  1.5178 -1.7851 -0.7470
16628SOL     OW51605   8.669   4.109   9.575  0.3929  0.1630 -0.3537
16628SOL    HW151606   8.602   4.117   9.507 -0.6309  0.4695  0.6597
16628SOL    HW251607   8.741   4.165   9.545 -0.6962  1.5798 -0.4328
16629SOL     OW51608   2.945   7.309   7.874  0.1087  0.2978  0.3990
16629SOL    HW151609   2.995   7.344   7.800  1.2653 -1.7128  0.1501
16629SOL    HW251610   2.955   7.214   7.866 -2.6462 -0.1284  1.1697
16630SOL     OW51611   4.144   8.163   4.548  0.0708 -0.4534 -0.1475
16630SOL    HW151612   4.176   8.244   4.589  1.1083 -1.1695  0.5228
16630SOL    HW251613   4.184   8.093   4.600 -2.0133 -1.4244  0.2374
16631SOL     OW51614   9.284   8.611   0.597  0.5772  0.1353 -0.0619
16631SOL    HW151615   9.356   8.569   0.551  1.8619 -0.4776  2.3507
16631SOL    HW251616   9.317   8.697   0.621  0.4785 -0.1050  0.9677
16632SOL     OW51617   9.616   9.279   8.168  0.0719 -0.1705 -0.1228
16632SOL    HW151618   9.664   9.201   8.195 -1.1272 -1.4428 -1.5104
16632SOL    HW251619   9.681   9.349   8.172  0.6843 -0.7751  3.0830
16633SOL     OW51620   7.855   6.089   8.191 -0.3416  0.2682  0.0548
16633SOL    HW151621   7.809   6.088   8.107  1.0288  1.2641 -0.7502
16633SOL    HW251622   7.794   6.132   8.251 -0.3836  1.8167 -1.0448
16634SOL     OW51623   7.009   4.491   1.623 -0.7616  0.2781 -0.3691
16634SOL    HW151624   6.965   4.565   1.666 -0.1380  0.4222  0.0355
16634SOL    HW251625   7.102   4.517   1.620 -0.3341 -1.0276  0.9218
16635SOL     OW51626   4.216   6.992   6.262  0.7628 -0.4328  0.1930
16635SOL    HW151627   4.224   6.935   6.338 -1.6102 -1.0195  0.0884
16635SOL    HW251628   4.277   6.955   6.198 -0.9835 -3.2960 -0.0478
16636SOL     OW51629   1.840   9.663   4.549  0.0470  0.3042 -0.7657
16636SOL    HW151630   1.804   9.642   4.463 -0.1511  1.0545 -0.8727
16636SOL    HW251631   1.927   9.623   4.549  0.0283  0.2575 -1.2949
16637SOL     OW51632   4.936   6.593   6.109  0.3653  0.1240  0.5465
16637SOL    HW151633   4.915   6.503   6.135 -0.8428  0.2838  0.1982
16637SOL    HW251634   4.932   6.643   6.190  1.1238 -0.1477  0.7539
16638SOL     OW51635   4.232   9.480   5.169 -0.6161 -0.1809  0.1286
16638SOL    HW151636   4.157   9.467   5.227  0.2801 -0.9079  1.1750
16638SOL    HW251637   4.194   9.504   5.085 -2.0288 -1.0118  0.5011
16639SOL     OW51638   6.412   3.849   3.566  0.0184 -0.2156  0.1990
16639SOL    HW151639   6.338   3.827   3.510  1.4381 -0.1194 -1.8191
16639SOL    HW251640   6.461   3.767   3.575 -0.6991 -0.4831  2.1974
16640SOL     OW51641   7.949   7.446   9.092  0.6411 -0.2717  0.3444
16640SOL    HW151642   7.986   7.534   9.078 -1.7696  0.6198 -1.0333
16640SOL    HW251643   7.855   7.461   9.102  0.1817 -2.7097  0.1576
16641SOL     OW51644   3.067   8.782   0.377 -0.4361  0.3624  0.3957
16641SOL    HW151645   3.085   8.688   0.375 -2.4195 -0.0678 -0.5048
16641SOL    HW251646   2.973   8.788   0.397 -0.1226  2.2135  1.6301
16642SOL     OW51647   4.128   7.719   2.164  0.2497  0.1480  0.2581
16642SOL    HW151648   4.193   7.727   2.094  1.1496 -0.5884  0.9871
16642SOL    HW251649   4.177   7.683   2.238 -1.3448 -2.1773  0.2910
16643SOL     OW51650   8.291   1.719   1.111 -0.4238 -0.2049 -0.0608
16643SOL    HW151651   8.200   1.690   1.124 -0.4348  0.5653  2.0325
16643SOL    HW251652   8.286   1.783   1.040 -1.8884  1.1636  1.1744
16644SOL     OW51653   2.965   3.695   2.419  0.0071 -0.1370  0.8354
16644SOL    HW151654   2.958   3.616   2.472 -2.1065 -0.4080  0.2490
16644SOL    HW251655   2.887   3.693   2.362  0.9822  1.3084 -0.6503
16645SOL     OW51656   6.459   1.487   3.887 -0.2820 -0.3069  0.4287
16645SOL    HW151657   6.384   1.451   3.840 -1.4346  2.5214 -0.0872
16645SOL    HW251658   6.527   1.496   3.821  0.4932 -2.5046  0.8184
16646SOL     OW51659   1.639   0.372   6.962 -0.0305 -0.0624  0.3649
16646SOL    HW151660   1.602   0.284   6.970 -0.8873  0.1320 -1.1157
16646SOL    HW251661   1.703   0.365   6.892  1.4420  0.0382  1.6619
16647SOL     OW51662   6.846   5.716   6.155 -0.4869  0.1955  0.3068
16647SOL    HW151663   6.905   5.772   6.207  0.7832  0.0034 -0.8656
16647SOL    HW251664   6.760   5.729   6.194  0.0463  1.7867  1.0432
16648SOL     OW51665   5.188   7.387   2.341  0.5705  0.0406  0.0917
16648SOL    HW151666   5.221   7.347   2.422 -1.2297  0.7325  1.2321
16648SOL    HW251667   5.102   7.420   2.364  1.3727  3.3726 -1.1579
16649SOL     OW51668   6.927   7.589   8.396 -0.0513 -0.3118 -0.6958
16649SOL    HW151669   6.957   7.509   8.354  1.5846  0.4152 -0.9762
16649SOL    HW251670   6.837   7.569   8.425  0.1034 -2.0120 -1.3029
16650SOL     OW51671   7.770   4.677   0.507 -0.2007  0.4770  0.6853
16650SOL    HW151672   7.767   4.761   0.552 -0.2433  1.0507 -0.3751
16650SOL    HW251673   7.712   4.687   0.432 -0.0567 -0.4350  0.4381
16651SOL     OW51674   5.258   1.675   0.579  0.0104 -0.2734 -0.2112
16651SOL    HW151675   5.231   1.589   0.613 -1.4926  0.7037  1.2121
16651SOL    HW251676   5.183   1.705   0.528 -0.0515  0.7743  0.4609
16652SOL     OW51677   6.114   8.068   8.145 -0.0885  0.3892  0.1282
16652SOL    HW151678   6.126   8.090   8.052  2.5458 -0.5470  0.1601
16652SOL    HW251679   6.041   8.123   8.173  1.0418  3.0711 -1.7123
16653SOL     OW51680   7.963   5.290   6.648  0.2299  0.1246 -0.4889
16653SOL    HW151681   8.052   5.307   6.680  0.1471  2.0031 -1.1317
16653SOL    HW251682   7.968   5.204   6.607  0.7948 -1.5429  2.7778
16654SOL     OW51683   1.300   7.336   4.529  0.2112  0.0900  0.9788
16654SOL    HW151684   1.367   7.272   4.505  0.7189  0.3765  1.5919
16654SOL    HW251685   1.342   7.389   4.597 -0.4860  0.5582  1.0460
16655SOL     OW51686   6.985   9.095   6.845 -0.4931 -0.7367 -0.1975
16655SOL    HW151687   7.072   9.107   6.807 -1.0983 -1.1310 -1.8069
16655SOL    HW251688   6.985   9.004   6.876  0.3294 -0.1295  1.7234
16656SOL     OW51689   4.432   9.540   0.497 -0.1657  0.1293  0.0116
16656SOL    HW151690   4.489   9.513   0.569  0.3955 -4.9521 -1.9200
16656SOL    HW251691   4.344   9.544   0.536  0.4746  0.5363  1.4979
16657SOL     OW51692   2.284   5.604   1.048  0.3853  0.1513 -0.2893
16657SOL    HW151693   2.232   5.659   0.989 -0.0967 -0.2658 -0.2601
16657SOL    HW251694   2.349   5.663   1.086 -0.5563  0.8475  0.2608
16658SOL     OW51695   7.657   6.383   2.633  0.5136  0.3905 -0.1906
16658SOL    HW151696   7.728   6.446   2.650 -1.0075  1.8279  1.0696
16658SOL    HW251697   7.612   6.419   2.556 -0.5629  1.0754  0.7325
16659SOL     OW51698   5.323   7.215   7.233  0.3199 -0.0676 -0.7485
16659SOL    HW151699   5.391   7.241   7.295  1.2512  0.4273 -1.9362
16659SOL    HW251700   5.316   7.290   7.173  0.0093 -0.8489 -1.7075
16660SOL     OW51701   7.832   3.611   5.063  0.6980 -0.2186  0.2187
16660SOL    HW151702   7.768   3.681   5.072  0.5814 -0.5692  2.9298
16660SOL    HW251703   7.787   3.533   5.096  1.4723 -1.1586 -0.8922
16661SOL     OW51704   9.599   7.496   8.405  0.0633  0.2856 -0.3340
16661SOL    HW151705   9.681   7.452   8.427 -0.6701 -1.4524 -0.8707
16661SOL    HW251706   9.586   7.477   8.312  0.0484  2.2920 -0.7969
16662SOL     OW51707   9.156   7.934   0.103 -0.3565  0.3490 -0.0043
16662SOL    HW151708   9.178   8.026   0.120  0.4224  0.8587 -3.1136
16662SOL    HW251709   9.070   7.923   0.144 -0.5822  2.5661  0.2781
16663SOL     OW51710   6.461   5.512   3.818 -0.2696  0.1205 -0.1223
16663SOL    HW151711   6.416   5.476   3.894  0.0106  0.7694  0.3641
16663SOL    HW251712   6.440   5.452   3.746  0.9943 -1.5726  0.8517
16664SOL     OW51713   4.085   1.099   1.907  0.0128  0.5662 -0.2083
16664SOL    HW151714   3.990   1.095   1.914 -0.1774  2.3370 -1.0869
16664SOL    HW251715   4.110   1.021   1.859 -1.0271  0.2269 -0.2059
16665SOL     OW51716   6.224   7.823   1.946  0.3545 -0.5159  0.3853
16665SOL    HW151717   6.165   7.750   1.925  1.0168 -0.6805 -1.0844
16665SOL    HW251718   6.293   7.816   1.880  1.1584  0.6346  1.0824
16666SOL     OW51719   5.749   4.812   2.584  0.0078 -0.5167 -0.3098
16666SOL    HW151720   5.679   4.870   2.553  0.4770 -0.1459 -0.6925
16666SOL    HW251721   5.807   4.869   2.634 -1.5075 -1.3545  2.6561
16667SOL     OW51722   3.816   0.283   9.125 -0.1217 -0.2376 -0.2404
16667SOL    HW151723   3.749   0.259   9.060 -0.8237  0.1003  0.3492
16667SOL    HW251724   3.769   0.287   9.208  0.5051  0.6519  0.0834
16668SOL     OW51725   2.050   0.168   4.995  0.2700  0.3023  0.9635
16668SOL    HW151726   2.070   0.078   5.020  0.2365 -0.0787 -0.2918
16668SOL    HW251727   2.113   0.188   4.925 -1.4320  0.2761 -0.6582
16669SOL     OW51728   5.189   2.347   9.495 -0.0534 -0.4949 -0.0542
16669SOL    HW151729   5.196   2.277   9.430 -3.9346 -1.2068  0.0052
16669SOL    HW251730   5.138   2.415   9.451 -1.3586 -0.2922  1.6621
16670SOL     OW51731   3.263   4.475   2.676 -0.4215  0.0619  0.3100
16670SOL    HW151732   3.325   4.483   2.749  0.2880 -0.6228 -0.2099
16670SOL    HW251733   3.307   4.519   2.603 -0.5774 -0.3739 -0.0447
16671SOL     OW51734   3.533   2.954   7.275 -0.7250  0.4836 -0.5126
16671SOL    HW151735   3.569   2.983   7.192 -0.1057  0.1271 -0.3784
16671SOL    HW251736   3.456   2.902   7.252  0.1865 -0.7260 -0.9574
16672SOL     OW51737   0.084   2.576   2.288 -0.0241  0.1280 -0.0974
16672SOL    HW151738   0.151   2.560   2.222 -0.0032 -0.5668  0.0778
16672SOL    HW251739   0.098   2.666   2.316  1.5994 -0.3695  0.8022
16673SOL     OW51740   4.127   9.118   4.515  0.1948  0.3064 -0.0999
16673SOL    HW151741   4.164   9.042   4.561  1.8282 -0.0137 -1.8180
16673SOL    HW251742   4.126   9.188   4.581  1.6060 -0.3583  0.6847
16674SOL     OW51743   1.328   0.259   8.277  0.7166 -0.3661 -0.1940
16674SOL    HW151744   1.285   0.246   8.361  0.8354 -3.9130 -0.5084
16674SOL    HW251745   1.421   0.270   8.299  0.7444 -1.2693  0.1868
16675SOL     OW51746   1.517   2.791   2.708  0.7151  0.0140 -0.0798
16675SOL    HW151747   1.441   2.797   2.650 -0.3386 -2.9564  0.7901
16675SOL    HW251748   1.482   2.808   2.795  1.5508  0.8022  0.1225
16676SOL     OW51749   4.633   1.874   4.426 -0.2699  0.2790  0.1431
16676SOL    HW151750   4.616   1.966   4.404  0.3889  0.0488 -1.5282
16676SOL    HW251751   4.575   1.825   4.368 -0.2951 -0.3660  0.7110
16677SOL     OW51752   1.584   7.450   4.087  0.4688  0.0656 -0.3766
16677SOL    HW151753   1.532   7.371   4.104 -0.0956  0.2179 -1.3063
16677SOL    HW251754   1.623   7.435   4.001  0.6562  0.6370 -0.3954
16678SOL     OW51755   2.542   8.014   7.720  0.4352 -0.3186 -0.0740
16678SOL    HW151756   2.459   8.036   7.677 -0.1689 -0.4312  1.0077
16678SOL    HW251757   2.606   8.012   7.648 -0.6521 -1.1442 -1.0684
16679SOL     OW51758   7.008   7.132   1.657  0.0443 -0.0061  0.1830
16679SOL    HW151759   7.077   7.152   1.721  1.1871  1.0187 -1.2847
16679SOL    HW251760   6.978   7.045   1.680  1.9923 -0.5760  0.7673
16680SOL     OW51761   8.014   0.805   1.816 -0.0189 -0.2579 -0.4257
16680SOL    HW151762   7.922   0.833   1.821 -0.1914 -0.8297 -0.3153
16680SOL    HW251763   8.055   0.844   1.894 -0.1729 -0.0297 -0.4563
16681SOL     OW51764   1.733   0.180   1.422 -0.1329 -0.2728 -0.3125
16681SOL    HW151765   1.683   0.102   1.398 -0.6142 -0.0534 -0.0281
16681SOL    HW251766   1.720   0.240   1.349 -0.9236  0.0799  0.1102
16682SOL     OW51767   8.140   1.640   5.763 -0.3077  0.1068  0.0378
16682SOL    HW151768   8.090   1.695   5.703  2.1027  1.7982 -0.5524
16682SOL    HW251769   8.150   1.557   5.716 -3.5653 -0.7993  0.7307
16683SOL     OW51770   1.624   7.953   9.535  0.0302 -0.2220 -0.4608
16683SOL    HW151771   1.589   8.037   9.566 -3.5439 -2.0868  1.2699
16683SOL    HW251772   1.577   7.936   9.453  0.4367 -0.7059 -0.5999
16684SOL     OW51773   7.032   0.289   3.166  0.5227  0.0089 -0.2326
16684SOL    HW151774   7.072   0.270   3.081  1.1242  2.0195 -0.4380
16684SOL    HW251775   7.089   0.247   3.230  0.7752 -0.4495 -0.7533
16685SOL     OW51776   9.621   3.507   8.219 -0.2656 -0.3475 -0.1386
16685SOL    HW151777   9.689   3.511   8.286 -0.7843 -1.2063  0.4725
16685SOL    HW251778   9.652   3.563   8.148  1.2666 -1.0583 -0.0487
16686SOL     OW51779   5.624   5.600   2.022 -1.0665 -0.0640 -0.2531
16686SOL    HW151780   5.694   5.589   2.086 -1.7382 -0.1614  0.4861
16686SOL    HW251781   5.544   5.580   2.071 -1.7851  1.8038 -0.5849
16687SOL     OW51782   8.566   9.418   1.423 -0.0349  0.0647  0.0381
16687SOL    HW151783   8.551   9.363   1.346 -0.4800 -1.3839  1.0903
16687SOL    HW251784   8.555   9.358   1.497  0.6523  1.3404  1.2277
16688SOL     OW51785   6.543   2.268   1.771  0.2227 -0.2207 -0.4165
16688SOL    HW151786   6.457   2.261   1.729  0.2716  0.0153 -0.5579
16688SOL    HW251787   6.604   2.239   1.704  0.1211 -2.2239  0.2886
16689SOL     OW51788   0.338   5.394   1.036 -0.2254  0.4607 -0.6016
16689SOL    HW151789   0.278   5.321   1.055  0.9373 -0.5533 -0.6816
16689SOL    HW251790   0.333   5.404   0.941  0.0050  0.1198 -0.6524
16690SOL     OW51791   8.355   9.632   0.079 -0.2946 -0.2474  0.0200
16690SOL    HW151792   8.319   9.595  -0.002  0.6211  1.2095 -1.1144
16690SOL    HW251793   8.434   9.580   0.095 -1.3631 -1.6512  0.9776
16691SOL     OW51794   2.779   2.272   9.363  0.5449 -0.0540  0.5406
16691SOL    HW151795   2.803   2.262   9.271  2.9982  1.0271  0.9733
16691SOL    HW251796   2.836   2.342   9.395  0.2623 -0.8669  3.0352
16692SOL     OW51797   8.253   8.555   1.910 -0.1461  0.1169 -0.2925
16692SOL    HW151798   8.305   8.623   1.866  0.3539 -0.1210 -0.0728
16692SOL    HW251799   8.252   8.483   1.848  0.2827 -0.0951 -0.0593
16693SOL     OW51800   7.827   3.043   0.166  0.7127  0.4794  0.2304
16693SOL    HW151801   7.848   3.128   0.204 -0.3790  0.0874  1.8325
16693SOL    HW251802   7.732   3.042   0.160  0.7613 -0.2454 -0.7466
16694SOL     OW51803   9.485   9.226   5.263 -0.0252 -0.0721  0.1215
16694SOL    HW151804   9.488   9.212   5.358 -0.0063  0.4287  0.1943
16694SOL    HW251805   9.557   9.173   5.229 -0.2737 -0.5684  0.3437
16695SOL     OW51806   2.042   5.060   6.102  0.1755 -0.1298  0.4840
16695SOL    HW151807   2.056   5.154   6.109  1.6007 -0.2922  0.1447
16695SOL    HW251808   2.117   5.028   6.051 -0.8869 -1.2903 -0.4096
16696SOL     OW51809   4.109   3.860   9.650  0.0910 -0.3038 -0.1543
16696SOL    HW151810   4.128   3.876   9.558 -1.4135 -0.3373 -0.4966
16696SOL    HW251811   4.120   3.765   9.661  1.3297 -0.1675 -0.0079
16697SOL     OW51812   2.818   6.773   8.747 -0.3833  0.4899 -0.2061
16697SOL    HW151813   2.755   6.809   8.810 -2.4713  0.7758 -2.3334
16697SOL    HW251814   2.848   6.849   8.697 -0.1824  0.0487 -0.7691
16698SOL     OW51815   2.259   3.533   7.783  0.1047  0.1116 -0.0789
16698SOL    HW151816   2.282   3.603   7.844 -1.0562  0.0706  0.4210
16698SOL    HW251817   2.164   3.524   7.791  0.1331 -0.9508 -0.7597
16699SOL     OW51818   2.423   2.446   6.594 -0.6854 -0.1570 -1.0384
16699SOL    HW151819   2.462   2.363   6.621 -0.0217  0.4438 -0.1298
16699SOL    HW251820   2.333   2.423   6.571 -1.1958 -0.7933  1.3159
16700SOL     OW51821   3.639   6.647   5.506 -0.4607 -0.1742 -0.0127
16700SOL    HW151822   3.652   6.729   5.459 -0.1838 -1.2257 -1.8426
16700SOL    HW251823   3.651   6.671   5.598  1.4814  1.4720 -0.6052
16701SOL     OW51824   6.313   2.349   4.953  0.2915  0.5014 -0.7038
16701SOL    HW151825   6.354   2.408   5.016  1.6524 -1.7042  0.6215
16701SOL    HW251826   6.386   2.305   4.910 -0.6167 -1.3786 -0.4271
16702SOL     OW51827   9.540   5.847   8.406 -0.9506  0.1542  0.4357
16702SOL    HW151828   9.632   5.874   8.414 -0.8244  0.1109 -0.7725
16702SOL    HW251829   9.543   5.767   8.353 -1.8337  1.2609 -1.3554
16703SOL     OW51830   8.024   4.015   7.845 -0.1081  0.3907  0.0929
16703SOL    HW151831   7.950   3.967   7.882 -0.4146 -0.2008 -1.2140
16703SOL    HW251832   8.068   4.053   7.921 -0.5425 -0.9689  1.0734
16704SOL     OW51833   8.585   2.829   4.355 -0.0776  0.4546 -0.3748
16704SOL    HW151834   8.506   2.788   4.389  0.8802 -1.1687 -0.0257
16704SOL    HW251835   8.574   2.827   4.260  0.3179 -1.4781 -0.4201
16705SOL     OW51836   1.181   6.705   8.859 -0.8405 -0.6145  0.6074
16705SOL    HW151837   1.217   6.740   8.941 -2.5364 -0.5261  1.3590
16705SOL    HW251838   1.233   6.747   8.791  1.0505 -1.1920  1.6276
16706SOL     OW51839   1.003   8.491   8.500 -0.5046 -0.0509 -0.0484
16706SOL    HW151840   0.932   8.514   8.560  1.0132 -0.2786  1.9510
16706SOL    HW251841   1.005   8.395   8.501  0.5070 -0.0406  0.8069
16707SOL     OW51842   6.769   8.983   2.287  0.1981  0.0833  0.7767
16707SOL    HW151843   6.706   8.935   2.233 -0.1659  0.2847  1.0201
16707SOL    HW251844   6.738   8.971   2.377  0.1353  0.7253  0.8440
16708SOL     OW51845   5.177   1.801   3.246  0.1185  0.5424 -0.5003
16708SOL    HW151846   5.148   1.724   3.295 -0.0234  1.7685  1.4357
16708SOL    HW251847   5.116   1.807   3.172  0.1936 -1.2302 -0.7427
16709SOL     OW51848   5.084   0.468   7.506 -0.0340  0.3327  0.3362
16709SOL    HW151849   5.175   0.443   7.488 -0.9550 -3.0383 -0.2991
16709SOL    HW251850   5.041   0.462   7.421 -1.3607 -0.7911  1.0536
16710SOL     OW51851   0.901   1.356   6.779 -0.1009 -0.1671 -0.3520
16710SOL    HW151852   0.939   1.269   6.763  0.4467 -0.0815  0.3983
16710SOL    HW251853   0.878   1.388   6.692 -0.5500 -1.1691 -0.6172
16711SOL     OW51854   5.353   6.309   8.132 -0.0386  0.4173  0.3901
16711SOL    HW151855   5.413   6.234   8.141 -0.8089 -0.0869  1.5918
16711SOL    HW251856   5.410   6.386   8.138  0.8900 -0.0187 -1.7482
16712SOL     OW51857   4.268   7.481   2.314 -0.1577 -0.3842  0.5224
16712SOL    HW151858   4.223   7.411   2.265 -0.4452  1.3631 -1.9090
16712SOL    HW251859   4.231   7.475   2.402 -0.8045 -2.7169  0.1780
16713SOL     OW51860   9.292   0.572   7.363 -0.4707  0.0108  0.6029
16713SOL    HW151861   9.348   0.627   7.417 -0.6166 -0.3152  1.0948
16713SOL    HW251862   9.352   0.509   7.323 -0.2759  0.6451 -0.1237
16714SOL     OW51863   1.267   8.218   9.502 -0.3404 -0.3839  0.0662
16714SOL    HW151864   1.213   8.297   9.505  1.8902  1.2510 -0.2767
16714SOL    HW251865   1.216   8.156   9.450 -1.8129  1.0926 -0.3412
16715SOL     OW51866   2.608   7.652   0.998  0.0458 -0.1566 -0.1547
16715SOL    HW151867   2.554   7.581   1.034  0.1854 -0.4212 -0.4682
16715SOL    HW251868   2.544   7.715   0.964 -0.0900  0.1372  0.6274
16716SOL     OW51869   8.958   2.998   8.798  0.0642 -0.2355  0.6592
16716SOL    HW151870   8.954   3.015   8.893  1.0212 -0.9906  0.8493
16716SOL    HW251871   9.020   3.064   8.765 -2.4847  2.0337  0.0232
16717SOL     OW51872   3.774   1.173   4.360 -0.0859  0.1226  0.0259
16717SOL    HW151873   3.727   1.092   4.343  0.6531 -0.8550  2.2641
16717SOL    HW251874   3.751   1.197   4.450  0.0442  2.1825 -0.4319
16718SOL     OW51875   8.201   5.217   7.567 -0.1095  0.0465 -0.4295
16718SOL    HW151876   8.134   5.151   7.587 -0.5863  0.3987 -0.8222
16718SOL    HW251877   8.161   5.300   7.596 -0.3117  0.4101 -1.6618
16719SOL     OW51878   3.738   8.455   7.649 -0.2881  0.1706  0.3128
16719SOL    HW151879   3.687   8.529   7.681  0.4460  1.0812 -0.5495
16719SOL    HW251880   3.676   8.401   7.601 -0.5043  1.1584 -0.5499
16720SOL     OW51881   5.046   1.510   7.151 -0.8056  0.3180 -0.0852
16720SOL    HW151882   4.978   1.576   7.166 -0.0833  1.3344 -1.1061
16720SOL    HW251883   5.066   1.476   7.238 -2.9200 -0.3465  0.1990
16721SOL     OW51884   4.247   8.965   3.513  0.2719  0.1876 -0.3978
16721SOL    HW151885   4.340   8.970   3.488  0.2928  1.4447 -0.1411
16721SOL    HW251886   4.249   8.951   3.608  0.1855 -0.9670 -0.5529
16722SOL     OW51887   1.654   4.390   1.511 -0.2125 -0.3434  0.5508
16722SOL    HW151888   1.688   4.319   1.458  0.3500 -0.3898  0.9644
16722SOL    HW251889   1.562   4.368   1.524 -0.4773 -0.0995 -0.7716
16723SOL     OW51890   5.443   8.372   5.238  0.4728 -0.1502 -0.2450
16723SOL    HW151891   5.403   8.322   5.167  0.7330 -0.3576 -0.2460
16723SOL    HW251892   5.508   8.427   5.194  2.4326 -2.0990  0.0908
16724SOL     OW51893   4.727   2.508   7.378 -0.6388  0.0338 -0.4863
16724SOL    HW151894   4.737   2.479   7.468 -0.5707 -1.7615 -1.0227
16724SOL    HW251895   4.719   2.426   7.328  0.9634  0.8971 -2.2910
16725SOL     OW51896   9.444   1.492   6.946  0.4480 -0.0144  0.7364
16725SOL    HW151897   9.372   1.434   6.925  1.1136 -0.3541 -0.6977
16725SOL    HW251898   9.522   1.436   6.944  0.8290  0.4382  1.7895
16726SOL     OW51899   8.351   6.616   1.077  0.1663  0.5556  0.8327
16726SOL    HW151900   8.300   6.656   1.006 -0.2648 -0.1563  0.7326
16726SOL    HW251901   8.433   6.589   1.035 -0.8867 -1.7111  0.0923
16727SOL     OW51902   4.186   8.309   6.561  0.0081  0.1346  0.0155
16727SOL    HW151903   4.095   8.281   6.568 -0.5307  1.7739  0.0910
16727SOL    HW251904   4.202   8.317   6.467  0.2570 -0.6750 -0.0161
16728SOL     OW51905   5.975   9.474   7.094  0.2656 -0.0696  0.2002
16728SOL    HW151906   5.990   9.567   7.109  0.9571 -0.1652  0.1436
16728SOL    HW251907   6.051   9.431   7.133  0.4369 -0.5435 -0.6312
16729SOL     OW51908   4.071   3.194   7.704 -0.6646  0.7183 -0.0876
16729SOL    HW151909   4.010   3.127   7.734  0.1298  0.4427  0.9729
16729SOL    HW251910   4.157   3.162   7.731 -0.1015  1.3715 -1.0403
16730SOL     OW51911   9.587   4.733   6.117 -0.1660 -0.5216 -0.1363
16730SOL    HW151912   9.610   4.792   6.189  0.2587  0.4029 -1.0024
16730SOL    HW251913   9.670   4.692   6.092 -0.3546 -1.0321  0.0516
16731SOL     OW51914   3.473   0.482   7.751 -0.3137 -0.5491 -0.5742
16731SOL    HW151915   3.523   0.401   7.742 -1.9321 -1.5586 -0.8207
16731SOL    HW251916   3.427   0.492   7.668 -3.5149 -1.7979  0.8546
16732SOL     OW51917   9.207   1.168   8.595 -0.0417  0.0920  0.1849
16732SOL    HW151918   9.175   1.223   8.523  2.0161  0.9901 -0.1133
16732SOL    HW251919   9.156   1.087   8.589  1.1050 -0.5115 -3.2821
16733SOL     OW51920   0.821   2.423   7.353  0.3422  0.1098 -0.6295
16733SOL    HW151921   0.913   2.403   7.334 -0.1310 -1.8067 -1.1471
16733SOL    HW251922   0.776   2.416   7.268 -0.7764 -2.2776  0.0796
16734SOL     OW51923   2.150   6.694   8.047 -0.4935  0.3019  0.3233
16734SOL    HW151924   2.106   6.611   8.065 -0.6575  0.0827 -0.9516
16734SOL    HW251925   2.103   6.731   7.972  1.8134 -0.2790 -1.5566
16735SOL     OW51926   1.242   1.577   6.354 -0.3782 -0.6318 -0.6986
16735SOL    HW151927   1.272   1.486   6.353  0.9729 -0.2145 -0.8132
16735SOL    HW251928   1.151   1.573   6.327 -0.8925 -2.1373  1.0929
16736SOL     OW51929   7.682   8.787   5.049  0.4410 -0.2832 -0.3935
16736SOL    HW151930   7.745   8.762   5.116 -0.0745 -1.0693 -0.1971
16736SOL    HW251931   7.733   8.790   4.968  0.8702 -0.2247 -0.1247
16737SOL     OW51932   9.702   3.621   5.752 -0.8184  0.5333 -0.0584
16737SOL    HW151933   9.681   3.616   5.845 -0.3837  2.0023  0.1428
16737SOL    HW251934   9.781   3.568   5.742 -1.5191 -0.5900  0.1706
16738SOL     OW51935   9.654   5.679   2.683 -0.0019  0.7176 -0.2539
16738SOL    HW151936   9.600   5.713   2.611 -2.3563 -0.0843  1.0274
16738SOL    HW251937   9.719   5.624   2.640 -1.0731  0.6132 -1.8287
16739SOL     OW51938   0.149   5.837   7.742  0.1729  0.0960  0.1995
16739SOL    HW151939   0.092   5.761   7.759 -3.3264  2.9856  3.2237
16739SOL    HW251940   0.115   5.874   7.660  0.0374 -0.1261  0.1530
16740SOL     OW51941   2.291   3.282   1.417  0.5960 -0.2829 -0.6816
16740SOL    HW151942   2.349   3.237   1.356 -0.2556  0.0921 -1.8083
16740SOL    HW251943   2.217   3.223   1.428  1.4185 -1.0229  1.2151
16741SOL     OW51944   2.754   7.357   6.728  0.4664 -0.1778  0.3422
16741SOL    HW151945   2.829   7.414   6.741 -1.1405  1.7044  2.2055
16741SOL    HW251946   2.718   7.383   6.643  1.1449 -0.1836  0.0487
16742SOL     OW51947   4.810   0.605   5.094 -1.0778 -0.2731 -0.0038
16742SOL    HW151948   4.720   0.636   5.083 -0.4277  1.6621 -0.2716
16742SOL    HW251949   4.824   0.547   5.020 -2.4790 -1.6208  0.7234
16743SOL     OW51950   2.734   3.791   7.911  0.0541  0.4321 -0.6289
16743SOL    HW151951   2.802   3.853   7.886  0.2816  0.2894 -0.3679
16743SOL    HW251952   2.661   3.845   7.940 -0.3133  0.6073 -1.8482
16744SOL     OW51953   1.708   2.477   1.190 -0.7151 -0.3192 -0.5056
16744SOL    HW151954   1.733   2.521   1.109 -0.0953  2.1108  0.9332
16744SOL    HW251955   1.770   2.508   1.256 -4.2170  2.0142  2.0812
16745SOL     OW51956   1.896   9.280   8.815 -0.1946  0.3220 -0.0367
16745SOL    HW151957   1.870   9.325   8.735 -0.2192  1.8728  0.8121
16745SOL    HW251958   1.860   9.192   8.806 -0.5052  0.5868 -1.5605
16746SOL     OW51959   8.272   2.541   8.591  0.3904 -0.6118  0.1440
16746SOL    HW151960   8.279   2.556   8.497 -0.3886 -0.4499  0.0997
16746SOL    HW251961   8.281   2.628   8.630 -1.7894 -0.2631  0.0369
16747SOL     OW51962   0.321   1.665   9.693  0.2024  0.0862  0.0093
16747SOL    HW151963   0.337   1.576   9.727  0.5133  0.7879  1.7953
16747SOL    HW251964   0.382   1.720   9.742 -0.4131  1.3781 -0.6573
16748SOL     OW51965   7.609   6.936   1.505  0.1921  0.0938 -0.0813
16748SOL    HW151966   7.545   6.889   1.451 -0.8621  1.0849  0.2538
16748SOL    HW251967   7.606   6.890   1.589  0.5716 -0.3976 -0.3310
16749SOL     OW51968   1.813   6.436   7.701  0.1634  0.1844 -0.0344
16749SOL    HW151969   1.903   6.425   7.671 -0.2976  0.1451 -1.5073
16749SOL    HW251970   1.760   6.418   7.623 -1.0822  1.1482  0.5552
16750SOL     OW51971   0.189   3.525   8.328 -0.1650  0.5281  0.5070
16750SOL    HW151972   0.248   3.601   8.333  0.8051 -0.2508  1.3827
16750SOL    HW251973   0.183   3.493   8.418  0.4524 -1.1702 -0.0104
16751SOL     OW51974   3.314   1.231   2.176  0.0359 -0.7993 -0.0771
16751SOL    HW151975   3.335   1.225   2.083 -0.9955 -2.6183 -0.2482
16751SOL    HW251976   3.279   1.319   2.187  1.0641 -0.2076 -1.1804
16752SOL     OW51977   0.717   0.247   0.135 -0.3258 -0.2237  0.9435
16752SOL    HW151978   0.657   0.200   0.194 -1.0065 -0.1068  0.3639
16752SOL    HW251979   0.716   0.195   0.055 -0.6963  0.4981  0.4679
16753SOL     OW51980   5.022   0.555   9.582 -0.4136  0.0992  0.7816
16753SOL    HW151981   5.069   0.472   9.576 -0.4068  0.0367  1.6274
16753SOL    HW251982   5.021   0.576   9.676 -1.3060  0.5326  0.6888
16754SOL     OW51983   0.260   9.581   7.681  0.2432 -0.4696  0.6561
16754SOL    HW151984   0.222   9.574   7.769 -0.4822  0.9637  0.4829
16754SOL    HW251985   0.190   9.553   7.623 -0.1194  0.8479  0.4200
16755SOL     OW51986   5.564   1.924   5.906 -0.3172  0.2065  0.2742
16755SOL    HW151987   5.559   1.978   5.985 -0.1403 -0.5048  0.7770
16755SOL    HW251988   5.488   1.951   5.854 -0.1964  0.9803  0.4835
16756SOL     OW51989   6.175   3.796   5.520  0.9287 -0.2068  0.0201
16756SOL    HW151990   6.169   3.858   5.447 -0.1567 -1.6548 -1.1924
16756SOL    HW251991   6.268   3.776   5.528  1.0903  0.1746 -0.7951
16757SOL     OW51992   4.472   8.656   8.790 -0.4121  0.5210  0.0290
16757SOL    HW151993   4.428   8.731   8.750  1.9641  1.9886 -0.0335
16757SOL    HW251994   4.462   8.670   8.885 -2.0286 -0.4554  0.0501
16758SOL     OW51995   0.792   0.380   3.886 -0.7017  0.0045  0.6027
16758SOL    HW151996   0.762   0.310   3.943 -1.2225  1.8063  2.6671
16758SOL    HW251997   0.887   0.379   3.896 -0.7279 -0.2254  0.8485
16759SOL     OW51998   4.842   3.624   3.507  0.5030  0.3093  0.1176
16759SOL    HW151999   4.749   3.643   3.498  0.1896 -0.7718  0.7610
16759SOL    HW252000   4.867   3.583   3.424  0.2369  0.0219  0.1764
16760SOL     OW52001   2.575   0.728   2.050  0.1556 -0.1623 -0.1686
16760SOL    HW152002   2.624   0.713   2.131  0.1682  0.4240 -0.0658
16760SOL    HW252003   2.640   0.764   1.989  0.7219 -2.6742 -1.1972
16761SOL     OW52004   0.645   3.407   1.161 -0.8352 -0.9989 -0.3233
16761SOL    HW152005   0.679   3.318   1.144  2.1043 -0.1133  0.2453
16761SOL    HW252006   0.649   3.451   1.076  1.6533 -0.2969  0.0772
16762SOL     OW52007   0.310   7.112   2.039 -0.1125  0.0418 -0.1887
16762SOL    HW152008   0.367   7.185   2.016 -0.4768  0.6698  0.8426
16762SOL    HW252009   0.338   7.041   1.982  1.2785  0.5238 -0.1454
16763SOL     OW52010   5.417   1.257   5.677 -0.1137  0.6250  0.0863
16763SOL    HW152011   5.396   1.178   5.728  1.2141  0.1044 -0.1505
16763SOL    HW252012   5.505   1.281   5.704  1.2862 -0.5487 -2.9914
16764SOL     OW52013   8.995   5.536   7.071  0.3427  0.0224 -0.6427
16764SOL    HW152014   9.034   5.524   6.984 -0.8342 -1.4774 -0.9941
16764SOL    HW252015   9.018   5.456   7.119  0.4947  0.5868  0.2568
16765SOL     OW52016   3.700   3.360   1.207  0.2090 -0.1859  0.5033
16765SOL    HW152017   3.743   3.384   1.289 -0.2149 -1.2935  1.0601
16765SOL    HW252018   3.718   3.267   1.196  0.1804 -0.0718 -0.6233
16766SOL     OW52019   0.841   9.493   5.845 -0.4007 -0.2245 -0.1582
16766SOL    HW152020   0.813   9.562   5.785  1.3892 -1.3531 -2.4618
16766SOL    HW252021   0.931   9.473   5.818 -0.9384 -3.6404  0.1589
16767SOL     OW52022   6.899   6.326   5.547 -0.1481  0.0443 -0.2921
16767SOL    HW152023   6.840   6.266   5.592 -0.2753 -1.2170 -2.0554
16767SOL    HW252024   6.848   6.407   5.539 -1.9847 -1.2062 -2.3321
16768SOL     OW52025   5.010   4.660   2.424  0.3347 -0.6887  0.1493
16768SOL    HW152026   4.977   4.662   2.513 -0.3811  0.0151 -0.1217
16768SOL    HW252027   5.001   4.568   2.397 -0.9663 -0.6086  0.2474
16769SOL     OW52028   3.020   4.159   5.332  0.0264 -0.0221  0.1081
16769SOL    HW152029   2.976   4.183   5.413 -1.2283  1.0339 -0.8430
16769SOL    HW252030   3.037   4.243   5.288  1.8397 -0.4904 -0.1492
16770SOL     OW52031   8.243   2.078   2.736 -0.1608  0.2188 -0.2540
16770SOL    HW152032   8.321   2.130   2.758  0.1436 -0.0660 -0.6535
16770SOL    HW252033   8.169   2.134   2.763  0.1788  0.4309  0.2528
16771SOL     OW52034   4.940   4.965   2.594  0.3739  0.7872  0.1340
16771SOL    HW152035   4.861   4.920   2.624  0.0061  1.0149 -0.4770
16771SOL    HW252036   4.909   5.026   2.527  1.2218  0.0753 -0.9274
16772SOL     OW52037   5.925   2.724   2.341 -0.1119 -0.5844  0.0055
16772SOL    HW152038   5.858   2.698   2.403  1.1648 -0.3790  1.5354
16772SOL    HW252039   5.969   2.642   2.317  1.7854 -0.3467  2.3042
16773SOL     OW52040   0.095   1.987   6.743  0.1230 -0.2250  0.5133
16773SOL    HW152041   0.114   2.079   6.762 -0.8564  0.3018 -0.9383
16773SOL    HW252042   0.163   1.962   6.681 -0.4924 -0.0307 -0.2458
16774SOL     OW52043   3.657   2.844   7.003  0.0472  0.2266  0.0973
16774SOL    HW152044   3.747   2.871   7.023  0.6477 -1.4700 -0.1434
16774SOL    HW252045   3.648   2.855   6.909 -0.0962  0.6523  0.1588
16775SOL     OW52046   8.547   2.748   0.162  0.4318 -0.4327 -0.3207
16775SOL    HW152047   8.489   2.786   0.096 -0.3869  1.1401  1.2386
16775SOL    HW252048   8.635   2.768   0.129  0.0561 -0.3691 -1.3279
16776SOL     OW52049   1.338   0.542   9.342  0.1491  0.1761  0.8172
16776SOL    HW152050   1.323   0.478   9.272  3.6722 -0.8854  0.8404
16776SOL    HW252051   1.432   0.557   9.341 -0.2479  3.8846  2.2044
16777SOL     OW52052   8.674   1.679   7.395 -0.0221 -0.5991  0.1711
16777SOL    HW152053   8.691   1.749   7.457 -1.2293  0.0621 -0.2204
16777SOL    HW252054   8.607   1.625   7.438  1.7547 -2.2597  1.0117
16778SOL     OW52055   7.033   4.169   9.462 -0.5502 -0.3233 -0.6641
16778SOL    HW152056   7.013   4.107   9.393 -1.5376 -1.2487  0.4096
16778SOL    HW252057   7.046   4.252   9.417  1.4138 -1.4007 -2.1825
16779SOL     OW52058   1.738   8.348   9.585 -0.3440 -0.9012 -0.1800
16779SOL    HW152059   1.702   8.396   9.510  0.9922 -0.9212 -0.8667
16779SOL    HW252060   1.662   8.304   9.624 -1.0662 -0.9479 -1.5589
16780SOL     OW52061   2.503   8.993   5.886 -0.0483  0.1533  0.0271
16780SOL    HW152062   2.597   9.010   5.882 -0.1689  0.6577 -1.8859
16780SOL    HW252063   2.481   8.960   5.798 -1.7806  0.8189  0.1756
16781SOL     OW52064   2.064   7.153   6.541  0.9382  0.2463 -0.1129
16781SOL    HW152065   2.014   7.216   6.593 -0.2840 -0.2575 -0.6222
16781SOL    HW252066   2.006   7.076   6.536  0.2419  0.8394 -3.5313
16782SOL     OW52067   5.632   6.845   1.370 -0.2301 -0.1107 -0.6514
16782SOL    HW152068   5.705   6.786   1.348  1.7223  1.4472  1.2120
16782SOL    HW252069   5.588   6.801   1.443  0.9804  0.4970  0.4756
16783SOL     OW52070   5.161   7.842   7.185 -0.4179  0.8076  0.1713
16783SOL    HW152071   5.197   7.790   7.114 -0.9821  1.9397 -0.9873
16783SOL    HW252072   5.235   7.860   7.243  0.3717  1.0912 -0.9078
16784SOL     OW52073   8.848   0.516   7.090  0.1298  0.3237  0.5867
16784SOL    HW152074   8.887   0.584   7.036 -1.1633  1.2630  0.7886
16784SOL    HW252075   8.920   0.457   7.111  1.0434  1.0211 -0.5197
16785SOL     OW52076   0.429   6.154   9.622  0.7007  0.1490  0.0246
16785SOL    HW152077   0.441   6.147   9.527 -2.3119 -0.9503 -0.3931
16785SOL    HW252078   0.359   6.217   9.633  1.2810  0.5585  1.5757
16786SOL     OW52079   1.878   5.672   3.012  0.0928  0.6433  0.0144
16786SOL    HW152080   1.847   5.761   2.998 -1.4482  0.9691  3.9709
16786SOL    HW252081   1.963   5.683   3.056 -0.0260  0.1678  0.3680
16787SOL     OW52082   6.793   1.298   8.876 -0.5487  0.0132 -0.2304
16787SOL    HW152083   6.872   1.318   8.926 -0.3289 -0.9140 -0.2002
16787SOL    HW252084   6.789   1.367   8.809  0.9185 -0.5912 -0.9710
16788SOL     OW52085   7.697   8.671   2.574 -0.0826 -0.0445 -0.4565
16788SOL    HW152086   7.669   8.762   2.586 -0.6270  0.1960 -2.8992
16788SOL    HW252087   7.662   8.625   2.650  0.0327  1.7303  0.7381
16789SOL     OW52088   0.083   8.049   8.960 -0.5324 -0.0674 -0.1265
16789SOL    HW152089  -0.010   8.057   8.981 -0.8940 -1.0810 -1.2556
16789SOL    HW252090   0.088   8.060   8.865  0.7186  1.5805  0.0872
16790SOL     OW52091   2.345   5.866   9.294 -0.0820 -0.5410 -0.0400
16790SOL    HW152092   2.341   5.961   9.303  1.5069 -0.5280  0.9564
16790SOL    HW252093   2.365   5.835   9.383 -2.0243 -1.9380 -0.0359
16791SOL     OW52094   5.456   8.095   4.211 -0.6968  0.4296  0.3388
16791SOL    HW152095   5.472   8.039   4.287 -0.2505 -2.3236 -1.6408
16791SOL    HW252096   5.361   8.104   4.206 -0.7870 -0.3856  0.5508
16792SOL     OW52097   1.037   2.002   0.636 -0.5615  0.1219 -0.2334
16792SOL    HW152098   1.029   1.907   0.628 -1.3486  0.2134 -0.6286
16792SOL    HW252099   1.118   2.015   0.686 -0.7467 -0.7709  0.3211
16793SOL     OW52100   5.187   0.094   4.828 -0.5620 -0.5091  0.6463
16793SOL    HW152101   5.127   0.085   4.754  0.9343 -0.7362 -0.5675
16793SOL    HW252102   5.190   0.188   4.845  1.0984 -0.1457 -1.3396
16794SOL     OW52103   8.529   3.151   3.796  0.3965  0.5562  0.1766
16794SOL    HW152104   8.453   3.192   3.836  0.1195  0.0520  0.1707
16794SOL    HW252105   8.493   3.091   3.730  0.6672 -1.3284  1.6494
16795SOL     OW52106   0.722   1.614   0.145  0.3438 -0.0097  0.6230
16795SOL    HW152107   0.811   1.578   0.151  0.8866  0.7255 -1.7050
16795SOL    HW252108   0.664   1.539   0.157  1.3200 -0.7682  0.6805
16796SOL     OW52109   4.604   5.943   7.148 -0.2086 -0.0499  0.1215
16796SOL    HW152110   4.692   5.972   7.125  0.3379 -1.5968  0.1878
16796SOL    HW252111   4.608   5.848   7.144 -2.2690 -0.1450 -1.3041
16797SOL     OW52112   7.235   0.639   6.725 -0.4198 -0.7092  0.0897
16797SOL    HW152113   7.142   0.638   6.749 -0.1142 -2.2865  1.4143
16797SOL    HW252114   7.268   0.722   6.760 -1.2899 -0.1884 -0.2919
16798SOL     OW52115   0.138   8.287   6.020  0.4682  0.0487  0.0885
16798SOL    HW152116   0.115   8.234   6.096 -1.2166 -0.4522 -0.7229
16798SOL    HW252117   0.203   8.235   5.974  0.2682 -0.4206  0.3252
16799SOL     OW52118   0.750   7.204   8.091 -0.4158  0.0315 -0.6643
16799SOL    HW152119   0.823   7.230   8.034 -0.2944  0.7665 -0.1872
16799SOL    HW252120   0.791   7.186   8.176 -0.9737  2.2495  0.1403
16800SOL     OW52121   2.995   7.494   1.005  0.0729 -0.4000  0.4304
16800SOL    HW152122   2.951   7.577   1.019  1.9018  0.5056  1.0909
16800SOL    HW252123   2.962   7.437   1.075 -1.9753 -0.6451 -0.6377
16801SOL     OW52124   5.480   6.694   4.379  0.1363  0.2636 -0.2664
16801SOL    HW152125   5.492   6.788   4.394 -0.5108  0.5849 -1.5725
16801SOL    HW252126   5.569   6.659   4.374  0.5135  1.3710 -2.8213
16802SOL     OW52127   8.493   9.166   5.377 -0.0686  0.2472  0.0114
16802SOL    HW152128   8.418   9.223   5.394  0.3338  0.6073  0.6243
16802SOL    HW252129   8.554   9.221   5.328  0.8814  0.7841  1.7324
16803SOL     OW52130   1.439   8.910   4.566 -0.1284  0.3515 -0.8987
16803SOL    HW152131   1.498   8.977   4.531  0.7440  0.0282 -0.1033
16803SOL    HW252132   1.494   8.831   4.572 -0.3061  0.3272  0.8902
16804SOL     OW52133   2.358   4.988   5.509 -0.2091 -0.2131  0.5118
16804SOL    HW152134   2.365   5.007   5.416  2.6307  1.6320  0.9423
16804SOL    HW252135   2.286   5.043   5.540 -0.8113 -0.4284 -0.4958
16805SOL     OW52136   5.180   4.496   7.655  0.0467  0.4681 -0.9825
16805SOL    HW152137   5.177   4.475   7.562  1.0405  0.3668 -1.0016
16805SOL    HW252138   5.247   4.564   7.662  1.3701 -0.8631 -0.1133
16806SOL     OW52139   5.434   4.770   5.696  0.4969 -0.2442 -0.2028
16806SOL    HW152140   5.400   4.748   5.609  0.8473 -0.1388 -0.3704
16806SOL    HW252141   5.524   4.736   5.696  1.5100  2.1857 -0.9193
16807SOL     OW52142   2.778   7.484   8.405  0.4681  0.1758  0.1091
16807SOL    HW152143   2.784   7.398   8.362 -1.5713  0.7558 -1.4795
16807SOL    HW252144   2.851   7.534   8.370  0.2205 -0.1368 -0.8717
16808SOL     OW52145   9.571   8.278   0.004  0.6375  0.2231  0.4430
16808SOL    HW152146   9.538   8.189   0.014  3.8132 -0.9243  2.3566
16808SOL    HW252147   9.524   8.329   0.071  0.7183 -0.7061  1.2281
16809SOL     OW52148   9.616   2.681   7.177 -0.0897 -0.3328  0.1764
16809SOL    HW152149   9.640   2.626   7.102  1.4899 -1.1879  1.2438
16809SOL    HW252150   9.596   2.767   7.139  1.1162 -0.6266 -1.1984
16810SOL     OW52151   9.419   1.025   2.799  0.1872 -0.2892  0.0106
16810SOL    HW152152   9.427   0.950   2.740 -1.3393 -1.1048  0.7959
16810SOL    HW252153   9.331   1.058   2.783  1.1532  2.0007 -1.0364
16811SOL     OW52154   5.634   0.058   9.626 -0.0190 -0.4736 -0.1809
16811SOL    HW152155   5.685  -0.001   9.683 -0.2402 -0.0212  0.5006
16811SOL    HW252156   5.701   0.105   9.576  0.2709  0.3384  0.9306
16812SOL     OW52157   4.978   7.549   5.582  0.0296  0.3481  0.6659
16812SOL    HW152158   5.008   7.551   5.492 -0.9260  1.5317  0.3371
16812SOL    HW252159   5.053   7.578   5.634  0.9327 -1.4205  0.3897
16813SOL     OW52160   1.576   1.233   6.061 -0.1556  0.0342 -0.0477
16813SOL    HW152161   1.517   1.159   6.079  0.7059 -0.3094  1.6208
16813SOL    HW252162   1.652   1.217   6.116 -0.3506  2.6566  1.1879
16814SOL     OW52163   1.621   2.514   6.591  0.4630  0.2207 -0.2286
16814SOL    HW152164   1.613   2.560   6.508 -0.9896  0.3484 -0.0347
16814SOL    HW252165   1.655   2.580   6.652  0.6273  0.3822 -0.4942
16815SOL     OW52166   2.348   9.605   5.574  0.0950  0.5654 -0.9129
16815SOL    HW152167   2.366   9.534   5.512  2.8688  0.9925 -0.7089
16815SOL    HW252168   2.370   9.569   5.660 -2.4702  0.4043 -0.2452
16816SOL     OW52169   7.848   2.964   3.681 -0.4992  0.8662  0.5895
16816SOL    HW152170   7.763   2.929   3.654 -0.7794  1.3159  0.8634
16816SOL    HW252171   7.829   3.053   3.709 -0.1853  0.5328  1.9570
16817SOL     OW52172   4.353   8.445   5.619  0.5892  0.1356  0.5364
16817SOL    HW152173   4.317   8.522   5.577  1.0993  1.6278  2.6482
16817SOL    HW252174   4.419   8.479   5.680  1.0348 -1.9874  1.3516
16818SOL     OW52175   6.942   2.630   1.603  0.2727  0.5241  0.2598
16818SOL    HW152176   6.977   2.547   1.636 -0.2661 -0.4686 -1.5365
16818SOL    HW252177   6.976   2.637   1.514 -1.8702  0.8412 -0.5969
16819SOL     OW52178   5.727   2.062   0.774  0.7459  0.1674 -0.5516
16819SOL    HW152179   5.642   2.041   0.736  0.3700 -1.2482  1.0007
16819SOL    HW252180   5.710   2.137   0.831 -0.2028 -1.9955  2.1906
16820SOL     OW52181   4.009   8.655   5.386  0.1534  0.0965  0.3806
16820SOL    HW152182   4.046   8.696   5.308 -1.0679  0.9123  0.2080
16820SOL    HW252183   3.997   8.563   5.362 -0.3986  0.3842 -0.4542
16821SOL     OW52184   6.942   3.272   5.119 -0.3237  0.0149 -0.0358
16821SOL    HW152185   7.005   3.246   5.052 -1.2224 -0.7742 -0.5925
16821SOL    HW252186   6.918   3.362   5.095 -0.1569 -0.0341 -0.3923
16822SOL     OW52187   5.902   8.013   8.496 -0.1213  0.4393 -0.3495
16822SOL    HW152188   5.892   7.944   8.563  0.1758  1.7084  1.0495
16822SOL    HW252189   5.940   8.087   8.543 -1.1145  1.8388 -1.6467
16823SOL     OW52190   7.804   8.195   2.575 -0.1212 -0.0539  0.2125
16823SOL    HW152191   7.769   8.206   2.664 -0.6522 -1.3224  0.1904
16823SOL    HW252192   7.726   8.183   2.521  0.2684 -2.0506  0.0205
16824SOL     OW52193   4.461   8.079   3.373  0.4299 -0.5321 -0.0409
16824SOL    HW152194   4.523   8.128   3.318  0.4271 -1.4296 -0.8815
16824SOL    HW252195   4.452   7.994   3.329 -3.7805  0.5397 -1.7687
16825SOL     OW52196   8.254   7.105   1.764  0.2622 -0.1553  0.7507
16825SOL    HW152197   8.342   7.119   1.798  1.0667  1.0792 -1.6187
16825SOL    HW252198   8.253   7.015   1.734  0.2067 -0.6141  2.0637
16826SOL     OW52199   2.996   8.800   3.209  0.5035  0.3005 -0.9678
16826SOL    HW152200   2.969   8.878   3.258  1.6099 -1.5407  2.9696
16826SOL    HW252201   3.084   8.820   3.178  0.5322  0.8582 -0.5362
16827SOL     OW52202   4.849   0.135   4.429  0.1549  0.3594 -0.3092
16827SOL    HW152203   4.789   0.209   4.440  0.3284  0.5472 -0.6079
16827SOL    HW252204   4.795   0.067   4.389  0.0224  0.3608 -0.1363
16828SOL     OW52205   5.286   1.659   4.201 -0.3118 -0.5013 -0.8394
16828SOL    HW152206   5.226   1.628   4.269  0.0787  2.0897  0.8379
16828SOL    HW252207   5.373   1.643   4.236 -0.0988  1.7983 -0.1110
16829SOL     OW52208   8.011   6.134   5.712 -0.2706  0.0214 -0.4243
16829SOL    HW152209   8.079   6.107   5.650 -0.4389  0.8495 -0.9838
16829SOL    HW252210   7.988   6.223   5.686 -0.7531  0.1784  0.4807
16830SOL     OW52211   2.925   1.435   7.536  0.3554  0.4480 -0.5790
16830SOL    HW152212   2.840   1.397   7.560  0.9449 -1.1552 -0.9077
16830SOL    HW252213   2.903   1.499   7.468 -0.5204 -0.7148 -1.4435
16831SOL     OW52214   0.033   0.413   9.529  0.2960  0.1360 -0.2947
16831SOL    HW152215   0.100   0.480   9.548 -0.6118  0.7625  0.8700
16831SOL    HW252216  -0.050   0.461   9.535 -0.4491 -1.2604  1.6443
16832SOL     OW52217   5.949   2.316   2.956 -0.5208 -0.1574  0.1726
16832SOL    HW152218   6.036   2.353   2.970 -0.0011  0.0249 -2.7941
16832SOL    HW252219   5.896   2.391   2.928 -1.0539 -0.6313 -0.1057
16833SOL     OW52220   0.019   3.619   8.003 -0.3838  0.0112 -0.2004
16833SOL    HW152221   0.111   3.647   7.998 -0.1650 -0.8456 -1.6091
16833SOL    HW252222  -0.029   3.687   7.954 -0.4949  0.3924  0.4285
16834SOL     OW52223   2.112   1.841   0.228  0.5041  0.4086 -0.0233
16834SOL    HW152224   2.149   1.889   0.302  2.1044 -0.9305  0.0941
16834SOL    HW252225   2.125   1.900   0.153 -1.3966  1.8991  0.7315
16835SOL     OW52226   7.509   2.364   6.894 -0.2800  0.3646 -0.1956
16835SOL    HW152227   7.592   2.409   6.879 -0.2319  0.5730  0.6694
16835SOL    HW252228   7.531   2.271   6.892  0.1524  0.4332  1.0042
16836SOL     OW52229   3.422   6.004   7.919 -0.0185 -0.4432  0.3589
16836SOL    HW152230   3.391   5.991   7.830  1.0138 -1.6225  0.1460
16836SOL    HW252231   3.433   5.916   7.955  0.3925 -0.0076  1.3640
16837SOL     OW52232   5.466   8.963   9.405 -0.1676 -0.3101 -0.1839
16837SOL    HW152233   5.423   9.041   9.371  2.3771  0.9166 -0.8364
16837SOL    HW252234   5.513   8.993   9.482  1.6902 -0.9094 -1.0292
16838SOL     OW52235   4.479   7.917   4.197 -0.5035 -0.2229  0.7136
16838SOL    HW152236   4.526   7.972   4.259  0.0828 -0.0321  0.1093
16838SOL    HW252237   4.466   7.973   4.120 -0.9665 -0.5484  0.5486
16839SOL     OW52238   7.351   7.448   8.557 -1.0287 -0.0058  0.0784
16839SOL    HW152239   7.431   7.442   8.609 -1.6088  1.5839  1.2208
16839SOL    HW252240   7.324   7.357   8.546  1.1192 -0.6216 -0.7037
16840SOL     OW52241   7.233   7.285   5.338  0.5051  0.0175  0.7517
16840SOL    HW152242   7.248   7.332   5.419  0.2232  0.0921  0.7639
16840SOL    HW252243   7.177   7.211   5.363 -0.0244  0.3440  0.5387
16841SOL     OW52244   0.828   1.876   4.138  0.6435  0.4400  0.1129
16841SOL    HW152245   0.883   1.799   4.155  0.1506  0.1671  0.5120
16841SOL    HW252246   0.868   1.919   4.063  2.0062  0.8343  1.0413
16842SOL     OW52247   1.926   3.829   4.908  0.2664  0.1509  0.3178
16842SOL    HW152248   1.933   3.788   4.995  1.1292  0.9252  0.6282
16842SOL    HW252249   1.954   3.919   4.922  1.2778  0.0489 -0.9473
16843SOL     OW52250   5.505   0.655   2.768  0.0322 -0.1178 -0.2176
16843SOL    HW152251   5.431   0.594   2.774  0.0474 -0.0844  0.3522
16843SOL    HW252252   5.474   0.723   2.707  0.6020 -1.4842 -2.1517
16844SOL     OW52253   4.395   7.038   8.456 -0.0233  0.3364  0.4905
16844SOL    HW152254   4.467   6.982   8.483  0.5173 -0.1463 -1.7431
16844SOL    HW252255   4.426   7.080   8.375 -1.7616  1.1204  0.1761
16845SOL     OW52256   6.202   7.380   7.673  0.5361  0.1337  0.1030
16845SOL    HW152257   6.184   7.332   7.592  0.4140 -1.0033  0.7854
16845SOL    HW252258   6.270   7.442   7.648 -0.8916  1.2081 -1.3491
16846SOL     OW52259   6.841   9.092   7.453 -0.5605 -0.9177 -0.1740
16846SOL    HW152260   6.935   9.099   7.440 -0.5637  0.4974  0.3588
16846SOL    HW252261   6.830   9.067   7.545 -0.7148  0.7974  0.2976
16847SOL     OW52262   4.420   1.639   8.026 -0.4212  0.2913  0.2317
16847SOL    HW152263   4.336   1.629   8.069  0.1475 -0.7212  1.1582
16847SOL    HW252264   4.424   1.566   7.964 -1.2289  1.7229 -1.6145
16848SOL     OW52265   3.162   4.987   4.332 -0.8986  0.0154  0.4483
16848SOL    HW152266   3.248   5.018   4.305 -1.9781  0.6565 -2.6186
16848SOL    HW252267   3.162   4.894   4.311  0.0263 -0.7411  3.3853
16849SOL     OW52268   3.849   3.197   7.515  0.1405 -0.0116 -0.3366
16849SOL    HW152269   3.917   3.200   7.583 -0.3416  0.4334  0.1420
16849SOL    HW252270   3.768   3.177   7.563 -0.0484 -0.6696 -0.9164
16850SOL     OW52271   3.251   2.192   2.477  0.2999 -0.4020  0.1502
16850SOL    HW152272   3.176   2.132   2.477  0.8737 -1.1311  0.2473
16850SOL    HW252273   3.237   2.248   2.553 -0.8174  0.3298 -0.5669
16851SOL     OW52274   6.301   6.097   7.160 -0.4201 -0.2646 -0.2989
16851SOL    HW152275   6.246   6.151   7.104 -0.2813 -0.2323 -0.4049
16851SOL    HW252276   6.301   6.142   7.244 -0.8345 -0.4489 -0.2002
16852SOL     OW52277   3.377   6.676   1.309  0.2555 -0.5877  0.6653
16852SOL    HW152278   3.397   6.589   1.343  1.2925 -0.6515 -0.0728
16852SOL    HW252279   3.426   6.736   1.366 -0.4822 -0.4639  1.1924
16853SOL     OW52280   5.195   3.945   5.456  0.0372  0.1615 -0.1927
16853SOL    HW152281   5.157   4.029   5.480 -1.3103 -0.2447 -0.8448
16853SOL    HW252282   5.272   3.968   5.404 -0.5752  1.0015 -0.7649
16854SOL     OW52283   8.356   6.073   6.933 -0.0886 -0.2994 -0.0905
16854SOL    HW152284   8.345   5.978   6.932  2.1985 -0.6164 -0.7908
16854SOL    HW252285   8.443   6.086   6.970  0.3807  1.4088 -1.6773
16855SOL     OW52286   2.954   7.129   0.892  0.1370 -0.0044  0.0122
16855SOL    HW152287   3.008   7.088   0.824  1.9814  1.3229  0.5834
16855SOL    HW252288   2.932   7.215   0.857 -2.0294 -0.6509 -0.3633
16856SOL     OW52289   8.275   9.105   3.430 -0.6894  0.4268  0.1977
16856SOL    HW152290   8.328   9.039   3.385 -2.5469 -0.4090 -0.8739
16856SOL    HW252291   8.324   9.124   3.510  2.3016  1.3053 -1.6608
16857SOL     OW52292   1.200   0.150   1.430  0.1644  0.0733  0.2421
16857SOL    HW152293   1.173   0.160   1.338 -0.9421 -0.8353  0.4464
16857SOL    HW252294   1.253   0.071   1.431  0.5606  0.3380  0.3156
16858SOL     OW52295   3.229   4.790   9.665 -0.6312 -0.2263  0.2665
16858SOL    HW152296   3.210   4.820   9.754 -1.9029 -2.1873  0.7254
16858SOL    HW252297   3.189   4.703   9.660  0.2616 -0.5814 -1.9194
16859SOL     OW52298   8.181   0.571   1.991 -0.5747  0.2561  0.1923
16859SOL    HW152299   8.261   0.622   1.984 -0.4821 -0.0510 -1.2002
16859SOL    HW252300   8.148   0.565   1.902 -0.6407 -2.0270  0.3252
16860SOL     OW52301   3.437   3.158   2.274  0.0315 -0.0284 -0.1496
16860SOL    HW152302   3.376   3.227   2.300  1.3098  0.2625  2.3919
16860SOL    HW252303   3.507   3.204   2.230 -0.6428 -0.1399 -1.3786
16861SOL     OW52304   7.314   2.812   3.101  0.1828  0.4406  0.6350
16861SOL    HW152305   7.376   2.744   3.127 -0.6263 -0.8009 -0.5283
16861SOL    HW252306   7.327   2.820   3.006 -1.9553 -0.4443  0.2223
16862SOL     OW52307   5.238   5.525   7.251  0.2500 -0.1688  0.2741
16862SOL    HW152308   5.288   5.472   7.190 -1.9665  2.0049 -3.8806
16862SOL    HW252309   5.162   5.471   7.273  0.6190 -0.6460  0.3871
16863SOL     OW52310   9.159   9.195   7.296 -0.4107  0.3644  1.0121
16863SOL    HW152311   9.121   9.282   7.301 -0.4151  0.3237  1.9000
16863SOL    HW252312   9.085   9.135   7.311 -0.6733  0.1377 -0.9672
16864SOL     OW52313   5.032   0.959   1.208 -0.1938  0.1803  0.3797
16864SOL    HW152314   5.046   0.920   1.121  1.2797  2.2365 -0.3861
16864SOL    HW252315   4.947   1.003   1.201 -0.1179  0.2725  0.0082
16865SOL     OW52316   9.101   3.066   0.265  0.2009 -0.1620  0.1552
16865SOL    HW152317   9.020   3.043   0.310 -1.3437  0.6618 -2.0641
16865SOL    HW252318   9.073   3.121   0.192  2.8911  1.2618  0.0659
16866SOL     OW52319   4.842   7.999   8.150  0.4370 -0.0423  0.4737
16866SOL    HW152320   4.829   7.905   8.155  1.5726 -0.2727 -0.4664
16866SOL    HW252321   4.864   8.025   8.240  1.7365 -0.9583  0.4489
16867SOL     OW52322   8.671   9.434   7.967  0.0622 -1.3061  0.3143
16867SOL    HW152323   8.628   9.359   8.007 -0.3051 -0.4174  1.6658
16867SOL    HW252324   8.600   9.486   7.930 -0.0005 -0.2172  1.8864
16868SOL     OW52325   2.789   1.007   1.458  0.4309  0.3529 -0.1151
16868SOL    HW152326   2.753   0.920   1.441  0.9178  0.1558 -0.1410
16868SOL    HW252327   2.880   1.002   1.429  0.0666  1.3166 -1.5376
16869SOL     OW52328   6.994   7.789   1.212 -0.2474  0.1832 -0.2501
16869SOL    HW152329   6.972   7.843   1.136 -0.3955 -1.2826 -1.3195
16869SOL    HW252330   6.973   7.843   1.288 -1.3679  1.2212 -1.2539
16870SOL     OW52331   8.762   1.036   8.388 -0.3482 -0.0016  0.2026
16870SOL    HW152332   8.837   1.013   8.332 -0.1440  0.5296  0.2513
16870SOL    HW252333   8.771   0.978   8.464  0.8464  1.0250  0.8931
16871SOL     OW52334   2.838   8.218   9.523  0.3424 -0.5887 -0.2901
16871SOL    HW152335   2.755   8.180   9.552 -0.7634  1.7284 -0.1760
16871SOL    HW252336   2.871   8.157   9.458  0.3578 -3.3780  2.1038
16872SOL     OW52337   7.291   3.738   1.364 -0.1498 -0.5130  0.2127
16872SOL    HW152338   7.366   3.698   1.408 -0.0244 -1.8298 -1.1482
16872SOL    HW252339   7.321   3.754   1.275 -1.3725 -0.7522 -0.2609
16873SOL     OW52340   2.514   3.140   1.260  0.7142  0.5182 -0.6876
16873SOL    HW152341   2.604   3.107   1.269  0.7268  0.6031 -0.4965
16873SOL    HW252342   2.501   3.147   1.165  1.3181  1.6165 -0.7022
16874SOL     OW52343   6.548   3.454   3.075  0.4200  0.6598  0.2217
16874SOL    HW152344   6.546   3.535   3.024  1.3795 -0.7598 -2.2379
16874SOL    HW252345   6.589   3.390   3.017  0.0074 -1.5303  2.1951
16875SOL     OW52346   5.102   5.032   0.673  0.1453 -0.1578  0.1364
16875SOL    HW152347   5.168   5.088   0.633 -0.1116 -0.0440 -0.1316
16875SOL    HW252348   5.019   5.061   0.635 -0.1139 -0.0055  0.7885
16876SOL     OW52349   7.641   4.775   4.569  0.1350  0.2477 -0.0348
16876SOL    HW152350   7.679   4.844   4.624 -0.6495  0.9825 -0.3982
16876SOL    HW252351   7.607   4.820   4.493  1.1865 -0.7616 -1.1500
16877SOL     OW52352   2.691   6.279   3.229 -0.5434 -0.3063  0.1769
16877SOL    HW152353   2.735   6.218   3.289 -1.1145  0.1282  1.0703
16877SOL    HW252354   2.607   6.296   3.271 -0.0430  1.7955  0.4523
16878SOL     OW52355   2.570   5.592   5.973  0.2834 -0.2079  0.0989
16878SOL    HW152356   2.641   5.605   5.910 -1.1607  1.1059 -1.3484
16878SOL    HW252357   2.613   5.587   6.058  2.2897 -1.8433 -0.9282
16879SOL     OW52358   8.709   4.586   3.045 -0.0697 -0.8100 -0.0550
16879SOL    HW152359   8.759   4.646   2.990 -1.5370 -0.2000 -0.7958
16879SOL    HW252360   8.751   4.591   3.131  2.8215 -2.4554 -1.2659
16880SOL     OW52361   7.173   0.748   8.903 -0.0209  0.0399  0.4183
16880SOL    HW152362   7.082   0.718   8.899 -0.1897  0.3608  1.4697
16880SOL    HW252363   7.188   0.767   8.995  0.5540  1.7411  0.0072
16881SOL     OW52364   6.217   3.142   4.635  0.1887 -0.8018 -0.2058
16881SOL    HW152365   6.141   3.146   4.577 -0.5405  0.0840  0.7775
16881SOL    HW252366   6.246   3.233   4.642 -0.0459 -0.8225  1.2079
16882SOL     OW52367   6.146   4.624   3.366  0.1728 -0.0330  0.1387
16882SOL    HW152368   6.197   4.660   3.439  0.0113 -2.4535  1.5229
16882SOL    HW252369   6.204   4.560   3.325 -0.6725 -0.6124 -0.1749
16883SOL     OW52370   4.572   8.077   1.205 -0.5648 -0.4126 -0.7438
16883SOL    HW152371   4.577   7.990   1.243  0.5293 -0.0756 -0.0446
16883SOL    HW252372   4.492   8.077   1.153 -0.2616 -2.0279 -1.2654
16884SOL     OW52373   0.701   2.467   6.842 -0.0056 -0.4118 -0.6195
16884SOL    HW152374   0.630   2.531   6.840 -0.0300 -0.4403 -0.7005
16884SOL    HW252375   0.662   2.387   6.805  0.0068 -0.4903 -0.4633
16885SOL     OW52376   5.939   2.945   1.294  0.3369  0.0472 -0.2953
16885SOL    HW152377   5.991   3.020   1.322 -0.5905  0.0418  1.5932
16885SOL    HW252378   5.851   2.963   1.327 -0.1993 -1.2815 -0.9258
16886SOL     OW52379   3.940   8.259   9.120 -0.4136  0.3969  0.4112
16886SOL    HW152380   4.028   8.223   9.106 -0.8213 -0.9656  1.0911
16886SOL    HW252381   3.946   8.350   9.091  1.0087  0.1159 -0.2834
16887SOL     OW52382   1.503   7.323   7.732 -0.0562  0.8419  0.3994
16887SOL    HW152383   1.477   7.413   7.712  0.1478  0.7310 -0.4375
16887SOL    HW252384   1.579   7.332   7.789  0.1318  1.2061  0.1001
16888SOL     OW52385   4.640   2.689   5.017 -0.9681 -0.8455  0.1931
16888SOL    HW152386   4.654   2.601   5.053  1.6420 -1.4785 -2.0219
16888SOL    HW252387   4.687   2.748   5.076 -2.7361 -0.8557  1.6941
16889SOL     OW52388   2.707   7.669   2.969 -0.5472  0.5520  0.2751
16889SOL    HW152389   2.640   7.720   2.923  0.3678  0.0621 -1.6914
16889SOL    HW252390   2.678   7.579   2.960 -0.9973  0.5027  1.8211
16890SOL     OW52391   8.413   9.552   8.318  0.1464  0.0172  0.0857
16890SOL    HW152392   8.371   9.495   8.383  0.4678 -0.6981 -0.3328
16890SOL    HW252393   8.505   9.528   8.322  0.0151 -0.8161 -1.4221
16891SOL     OW52394   6.549   5.205   5.211  0.4037 -0.0140  0.1856
16891SOL    HW152395   6.617   5.270   5.225  0.0581  1.3661 -3.4745
16891SOL    HW252396   6.480   5.228   5.274  1.6822  0.9876  1.2706
16892SOL     OW52397   7.623   7.750   8.854  0.5693 -0.2271  0.3040
16892SOL    HW152398   7.605   7.813   8.924 -0.2051  0.3344 -0.3792
16892SOL    HW252399   7.620   7.803   8.774 -0.9182 -1.2544 -0.3636
16893SOL     OW52400   2.708   6.639   3.087  0.2932 -0.2085  0.4350
16893SOL    HW152401   2.663   6.633   3.171  1.4715 -2.1377  0.9776
16893SOL    HW252402   2.801   6.642   3.109  0.5953  0.0910 -0.7914
16894SOL     OW52403   2.447   6.419   2.949  0.2398 -0.6770 -0.3131
16894SOL    HW152404   2.533   6.406   2.989  0.4233  0.2322 -0.3793
16894SOL    HW252405   2.384   6.401   3.019  0.4793 -1.4365 -0.2931
16895SOL     OW52406   7.849   3.031   1.538  0.4123 -0.1837 -0.1206
16895SOL    HW152407   7.844   2.942   1.501 -0.1064 -0.7006  1.1528
16895SOL    HW252408   7.830   3.088   1.464 -0.2251 -1.1812 -0.7516
16896SOL     OW52409   6.402   4.319   3.865 -0.0218 -0.1427 -0.1946
16896SOL    HW152410   6.471   4.366   3.913  0.6741 -1.3395  0.0282
16896SOL    HW252411   6.407   4.229   3.899 -2.0987 -0.1281  0.2575
16897SOL     OW52412   6.126   4.149   1.547  0.2945  0.4655  0.0881
16897SOL    HW152413   6.046   4.156   1.496  0.1244  2.1426  0.5135
16897SOL    HW252414   6.096   4.136   1.637  0.4552  1.6246  0.3262
16898SOL     OW52415   1.905   8.070   8.878  0.1463 -0.0466  0.1994
16898SOL    HW152416   1.882   8.157   8.910  0.7783  0.4771 -0.7119
16898SOL    HW252417   1.980   8.043   8.931  1.0216  0.7004 -0.6180
16899SOL     OW52418   2.626   8.357   1.408 -0.6167  0.0240 -0.5140
16899SOL    HW152419   2.533   8.372   1.426 -0.1608  1.4824  0.9381
16899SOL    HW252420   2.660   8.444   1.389  0.6422 -0.3493 -0.0261
16900SOL     OW52421   1.739   5.275   2.744  0.4196  0.0929 -0.0913
16900SOL    HW152422   1.687   5.217   2.689 -2.3170  0.4666  1.8957
16900SOL    HW252423   1.774   5.217   2.812 -0.2100  0.3364  0.4518
16901SOL     OW52424   8.140   3.190   1.335  0.2151 -0.4066 -0.2725
16901SOL    HW152425   8.102   3.277   1.347 -1.1282 -0.9839 -0.2013
16901SOL    HW252426   8.112   3.141   1.412  1.6413 -0.6928  0.0909
16902SOL     OW52427   6.949   0.172   8.979  0.7946 -0.3045 -0.5097
16902SOL    HW152428   6.926   0.191   9.070 -0.4948 -1.4596 -0.5665
16902SOL    HW252429   6.904   0.240   8.928  1.0162 -0.0260 -0.3405
16903SOL     OW52430   0.517   6.427   7.738 -0.1946 -0.0839 -0.3719
16903SOL    HW152431   0.447   6.391   7.792 -0.3246  1.1189  0.3057
16903SOL    HW252432   0.473   6.454   7.657 -0.2805 -0.4470 -0.4492
16904SOL     OW52433   8.653   6.184   5.127  0.1743  0.3351  0.0674
16904SOL    HW152434   8.630   6.254   5.067  2.1985  1.2618  0.3117
16904SOL    HW252435   8.729   6.142   5.088  1.0872  0.4999  1.5940
16905SOL     OW52436   0.438   4.279   3.633  0.2792 -0.3316  0.0229
16905SOL    HW152437   0.508   4.258   3.571 -0.2562 -0.7155 -0.4599
16905SOL    HW252438   0.393   4.355   3.594  0.7149  0.2153  0.5684
16906SOL     OW52439   6.480   9.663   2.182  0.5555 -0.2121 -0.1346
16906SOL    HW152440   6.480   9.690   2.274  1.4541  1.4553 -0.5809
16906SOL    HW252441   6.572   9.647   2.163  0.4760  0.2697 -0.9526
16907SOL     OW52442   7.657   1.572   1.598 -0.1033  0.0266 -0.3091
16907SOL    HW152443   7.721   1.502   1.613 -0.8761 -0.7043 -0.2876
16907SOL    HW252444   7.646   1.574   1.503  0.8648  1.0110 -0.4123
16908SOL     OW52445   3.451   3.197   9.286  0.3041  0.1886  0.0057
16908SOL    HW152446   3.442   3.220   9.379  0.0360  1.9001 -0.4177
16908SOL    HW252447   3.529   3.244   9.257 -0.1520  0.4194 -0.8679
16909SOL     OW52448   7.785   8.846   5.938 -0.0513  0.0120  0.8026
16909SOL    HW152449   7.726   8.775   5.911  1.1153 -0.6656 -0.0727
16909SOL    HW252450   7.861   8.800   5.974  0.3255  0.8455  1.0753
16910SOL     OW52451   5.020   9.071   2.226 -0.2034  0.1430 -0.1618
16910SOL    HW152452   4.980   9.136   2.285 -0.6091 -0.7175  0.5299
16910SOL    HW252453   4.954   9.057   2.158 -0.3255  0.0738 -0.0289
16911SOL     OW52454   5.570   4.849   7.034  0.1140  0.2380  0.3403
16911SOL    HW152455   5.594   4.799   6.957 -2.7828 -0.7278 -0.0396
16911SOL    HW252456   5.527   4.928   7.000 -0.3976  0.2302  0.9404
16912SOL     OW52457   2.888   9.131   1.000  0.0425 -0.0891  0.4793
16912SOL    HW152458   2.978   9.142   0.969 -0.4982  0.9390 -0.7928
16912SOL    HW252459   2.834   9.150   0.924 -1.2705 -0.1760  1.3672
16913SOL     OW52460   3.658   4.504   1.982 -0.1962  0.1815  0.3177
16913SOL    HW152461   3.689   4.442   1.916  0.0880  0.2401  0.3938
16913SOL    HW252462   3.736   4.524   2.034 -0.3068  0.5365  0.3487
16914SOL     OW52463   2.410   9.112   6.985  0.4974  0.5382  0.6798
16914SOL    HW152464   2.501   9.084   6.999  1.1237  1.9664 -0.3559
16914SOL    HW252465   2.388   9.078   6.898 -0.0554 -0.0073  1.0273
16915SOL     OW52466   3.080   9.227   7.168 -0.2829 -0.9569  0.0949
16915SOL    HW152467   3.142   9.280   7.118 -1.0957 -1.5649 -1.6379
16915SOL    HW252468   3.014   9.289   7.198  1.1866 -0.2665  2.1389
16916SOL     OW52469   1.758   6.180   7.858  0.6177  0.0191  0.0294
16916SOL    HW152470   1.754   6.273   7.839 -0.9380 -0.1575 -0.6678
16916SOL    HW252471   1.699   6.139   7.795  0.8246 -1.3832  0.6847
16917SOL     OW52472   2.909   3.336   7.374 -0.4273  0.1410 -0.6925
16917SOL    HW152473   2.839   3.391   7.409 -1.2609 -1.5372  0.3914
16917SOL    HW252474   2.984   3.395   7.365 -0.7593  1.1136  2.0427
16918SOL     OW52475   1.961   4.461   1.755 -0.5974 -0.2960  0.2644
16918SOL    HW152476   1.896   4.503   1.698  0.5580  0.2402 -0.7255
16918SOL    HW252477   1.974   4.524   1.826 -0.0759  0.3308 -0.3534
16919SOL     OW52478   5.601   8.923   0.846  0.0496 -0.3049 -0.2595
16919SOL    HW152479   5.689   8.896   0.873 -0.1149  0.4701  1.1785
16919SOL    HW252480   5.614   8.973   0.765  0.6587 -2.0928 -1.3088
16920SOL     OW52481   0.132   7.863   6.139 -0.1756 -0.2067 -0.1718
16920SOL    HW152482   0.058   7.914   6.172  0.5214  0.3261  0.6032
16920SOL    HW252483   0.105   7.836   6.051 -0.6595  1.3465 -0.5405
16921SOL     OW52484   4.095   1.508   3.272 -0.2592  0.7522  0.1509
16921SOL    HW152485   4.140   1.498   3.356  0.2828 -2.2730 -0.3805
16921SOL    HW252486   4.009   1.470   3.287  0.0866 -0.4563 -0.8029
16922SOL     OW52487   4.329   4.716   0.134  0.5270 -0.3792 -0.6524
16922SOL    HW152488   4.293   4.788   0.187 -2.0164  0.7945 -3.6524
16922SOL    HW252489   4.413   4.749   0.103 -0.2510  1.0307 -1.3453
16923SOL     OW52490   4.169   1.602   6.014  0.3546  0.1190 -0.1035
16923SOL    HW152491   4.192   1.613   5.921 -0.5820 -1.1188 -0.5127
16923SOL    HW252492   4.253   1.603   6.059  0.7379  2.0967 -0.7911
16924SOL     OW52493   8.000   3.159   1.128  0.2318  0.0756  0.1280
16924SOL    HW152494   8.083   3.148   1.174  0.7724 -0.1595 -0.8631
16924SOL    HW252495   7.933   3.137   1.193  0.9068  1.0002  1.1548
16925SOL     OW52496   9.642   5.943   2.779  0.3042 -0.4376  0.1101
16925SOL    HW152497   9.568   5.890   2.810  1.1434 -0.4362  2.3015
16925SOL    HW252498   9.606   5.995   2.707 -1.3941 -1.5832  0.0724
16926SOL     OW52499   4.746   1.923   3.900 -0.1385  0.7566  0.2269
16926SOL    HW152500   4.674   1.862   3.881 -0.1619  0.2592  1.7607
16926SOL    HW252501   4.820   1.889   3.849 -0.3517 -0.1620  0.4965
16927SOL     OW52502   5.122   6.514   7.859 -0.4241  0.1589  0.1834
16927SOL    HW152503   5.124   6.472   7.945 -0.8819 -0.2530 -0.0008
16927SOL    HW252504   5.031   6.539   7.847 -0.0539  1.8075  0.5615
16928SOL     OW52505   6.736   0.637   0.334 -0.1277  0.5884 -0.5069
16928SOL    HW152506   6.740   0.550   0.293  0.6993  0.1821  0.3901
16928SOL    HW252507   6.709   0.696   0.263 -0.5276 -0.3711 -1.1688
16929SOL     OW52508   1.254   1.218   8.590 -0.3463  0.6509 -0.0454
16929SOL    HW152509   1.297   1.133   8.591  2.1508  1.8123 -0.2465
16929SOL    HW252510   1.229   1.232   8.499  1.4249  1.1075 -0.4902
16930SOL     OW52511   4.546   3.626   2.545 -0.4280  0.1639  0.2935
16930SOL    HW152512   4.569   3.549   2.597  1.5882 -1.2967 -2.4877
16930SOL    HW252513   4.473   3.597   2.490 -0.6679  0.7617  0.2877
16931SOL     OW52514   1.381   8.738   5.558 -0.0836  0.2979  0.4648
16931SOL    HW152515   1.438   8.777   5.492  0.8345  1.2040  1.7477
16931SOL    HW252516   1.293   8.746   5.522  0.1023  3.2159  0.4710
16932SOL     OW52517   2.045   7.578   3.016  0.2041  0.0272  0.4437
16932SOL    HW152518   2.021   7.643   3.082  0.6427  1.7126 -0.9724
16932SOL    HW252519   2.103   7.517   3.062 -0.6941  0.2695  1.9654
16933SOL     OW52520   8.753   6.307   5.977  0.5324 -0.2222 -0.5241
16933SOL    HW152521   8.818   6.253   6.022 -0.3621 -2.0992 -1.3354
16933SOL    HW252522   8.700   6.243   5.929  0.1735  1.5148 -2.5577
16934SOL     OW52523   2.299   7.106   1.342 -0.3417  0.0414 -0.1677
16934SOL    HW152524   2.240   7.137   1.273  0.8618  0.4389 -1.0506
16934SOL    HW252525   2.241   7.068   1.408 -1.6502  1.2695 -0.5621
16935SOL     OW52526   6.879   1.639   9.230  0.3124  0.2365 -0.4227
16935SOL    HW152527   6.820   1.623   9.303 -1.5956  2.4504 -1.3690
16935SOL    HW252528   6.839   1.595   9.155  0.6970  0.4292 -0.7515
16936SOL     OW52529   4.952   8.035   9.426 -0.4994  0.1567 -0.2948
16936SOL    HW152530   4.864   8.034   9.462  0.3932  1.6606  2.1610
16936SOL    HW252531   5.006   8.078   9.493  1.8406  0.6422 -2.3071
16937SOL     OW52532   0.266   6.887   3.370 -0.2439  0.3322 -0.5830
16937SOL    HW152533   0.330   6.880   3.300  0.4267 -0.4337  0.0839
16937SOL    HW252534   0.189   6.841   3.337 -0.3178  0.9016 -1.2266
16938SOL     OW52535   0.063   1.522   3.273 -0.2196 -0.2344  0.2796
16938SOL    HW152536  -0.010   1.564   3.228 -0.7986 -2.7910 -1.3689
16938SOL    HW252537   0.138   1.538   3.216 -0.3608 -1.0138 -0.1439
16939SOL     OW52538   6.814   9.562   8.405 -0.7280  0.0146  0.3523
16939SOL    HW152539   6.910   9.565   8.414 -0.2842 -2.9703 -1.6286
16939SOL    HW252540   6.788   9.488   8.459 -2.0765  1.2438  1.4365
16940SOL     OW52541   3.260   0.862   0.971 -0.1613 -0.2347  0.0758
16940SOL    HW152542   3.324   0.792   0.961 -0.1889 -0.3325  0.5370
16940SOL    HW252543   3.233   0.884   0.882  0.0916 -0.5828 -0.0873
16941SOL     OW52544   1.868   4.388   3.412 -0.2234  0.4688  0.0823
16941SOL    HW152545   1.870   4.449   3.338 -0.7828  0.7886  0.3274
16941SOL    HW252546   1.960   4.370   3.431 -0.0771  0.1269 -0.8979
16942SOL     OW52547   4.778   4.100   4.089  0.1560 -0.6686 -0.4699
16942SOL    HW152548   4.826   4.163   4.035  0.5071 -0.7958 -0.3049
16942SOL    HW252549   4.735   4.042   4.026 -0.2736 -0.1931 -0.6280
16943SOL     OW52550   4.495   6.591   9.538  0.1658  0.6137  0.3069
16943SOL    HW152551   4.570   6.576   9.480  0.0027 -1.0378  0.4708
16943SOL    HW252552   4.490   6.512   9.592 -1.4235  0.8878  0.6210
16944SOL     OW52553   6.856   3.606   1.852  0.4740 -0.0888 -0.7846
16944SOL    HW152554   6.844   3.511   1.840  2.9050 -0.7419  1.0702
16944SOL    HW252555   6.774   3.644   1.821 -1.4971 -2.9716  0.3584
16945SOL     OW52556   9.079   6.178   5.151  0.7893  0.0552  0.4107
16945SOL    HW152557   9.031   6.152   5.072  2.0849 -0.0856 -0.3487
16945SOL    HW252558   9.071   6.102   5.210  1.1681 -0.4747 -0.2168
16946SOL     OW52559   6.207   7.630   2.510  0.1647  0.3493  0.2847
16946SOL    HW152560   6.165   7.546   2.488 -0.0288  0.9454 -1.8834
16946SOL    HW252561   6.137   7.682   2.550  0.3222 -0.5258  1.7819
16947SOL     OW52562   2.033   1.960   8.786 -0.3583  0.2397 -0.0838
16947SOL    HW152563   2.113   1.986   8.832  0.3778 -1.6499 -0.2136
16947SOL    HW252564   1.968   1.952   8.856  0.2425 -0.6931  0.3940
16948SOL     OW52565   8.373   6.069   8.652  0.2811  0.4037 -0.1211
16948SOL    HW152566   8.307   6.105   8.593  0.6176  0.2490 -0.5950
16948SOL    HW252567   8.455   6.072   8.602  0.2573 -1.3949 -0.3437
16949SOL     OW52568   4.136   2.647   8.081 -0.1203  0.2349  0.3759
16949SOL    HW152569   4.188   2.656   8.161 -0.1371  0.5914  0.3469
16949SOL    HW252570   4.166   2.718   8.024  0.3497 -0.4149 -0.1939
16950SOL     OW52571   1.960   4.713   7.410  0.3296  0.3582 -0.4214
16950SOL    HW152572   1.881   4.744   7.455  0.8307  0.1827  0.6227
16950SOL    HW252573   1.930   4.645   7.351  0.0406 -2.2868  2.5099
16951SOL     OW52574   9.005   4.915   3.964 -0.1757  0.2609 -0.0689
16951SOL    HW152575   8.979   4.875   3.881  0.8226 -0.6804  0.0629
16951SOL    HW252576   8.986   4.849   4.030 -0.5787  0.8512  0.4259
16952SOL     OW52577   8.153   4.711   6.218 -0.0521 -0.5234 -0.5736
16952SOL    HW152578   8.117   4.785   6.267 -1.8847 -1.3158 -0.6284
16952SOL    HW252579   8.086   4.643   6.225  0.4340 -1.2804 -2.6984
16953SOL     OW52580   7.810   0.208   7.294 -0.0243  0.0366  0.0260
16953SOL    HW152581   7.828   0.272   7.225 -0.5371 -0.4747 -0.5848
16953SOL    HW252582   7.895   0.193   7.335  0.8718 -1.7065 -2.2642
16954SOL     OW52583   7.101   1.933   2.514 -0.0774  0.1825 -0.2116
16954SOL    HW152584   7.081   1.976   2.431 -0.9757  2.0247  0.8993
16954SOL    HW252585   7.019   1.890   2.539 -0.8886  2.4238  1.2695
16955SOL     OW52586   7.236   2.934   8.927  0.2776  0.3881  0.0248
16955SOL    HW152587   7.149   2.893   8.926  1.4694 -2.3516 -1.5070
16955SOL    HW252588   7.248   2.968   8.839  0.5965  1.2011  0.3713
16956SOL     OW52589   0.173   4.375   0.460  0.2664  0.2935 -0.5590
16956SOL    HW152590   0.100   4.322   0.429 -0.6323  1.4729 -0.5416
16956SOL    HW252591   0.157   4.386   0.553 -0.8541  2.4505 -0.9348
16957SOL     OW52592   7.365   3.964   9.155 -0.2141  0.2007  0.2161
16957SOL    HW152593   7.409   4.031   9.208 -0.4221  1.1780 -0.8158
16957SOL    HW252594   7.431   3.895   9.145  0.5898  0.9879 -0.0781
16958SOL     OW52595   8.761   0.047   5.797 -0.3219 -0.5787 -0.0172
16958SOL    HW152596   8.820   0.004   5.859 -0.0709 -0.1329  0.0582
16958SOL    HW252597   8.711  -0.025   5.757 -0.9987 -0.8155  1.2128
16959SOL     OW52598   2.902   4.971   7.521  0.2104  0.4716  0.0901
16959SOL    HW152599   2.924   5.057   7.488  1.1778  0.0171 -0.4904
16959SOL    HW252600   2.949   4.910   7.464 -1.0408 -0.4789  0.0180
16960SOL     OW52601   8.132   8.851   0.933 -0.1902  0.2408 -0.0041
16960SOL    HW152602   8.222   8.820   0.936 -0.2894 -0.0545 -0.0796
16960SOL    HW252603   8.094   8.809   0.856 -0.0606  1.2795 -0.6620
16961SOL     OW52604   0.901   1.385   8.401  0.5098  0.1731 -0.2157
16961SOL    HW152605   0.811   1.353   8.403  0.5550 -0.1242 -1.8553
16961SOL    HW252606   0.922   1.403   8.493 -1.3799  0.7284  0.1496
16962SOL     OW52607   0.345   5.782   6.101  0.1914 -0.5068  0.2539
16962SOL    HW152608   0.361   5.699   6.147 -1.5054 -0.2362  1.4635
16962SOL    HW252609   0.371   5.849   6.164  0.8828 -0.0998 -0.4487
16963SOL     OW52610   0.475   8.889   0.328 -0.1136 -0.2795  0.3944
16963SOL    HW152611   0.553   8.868   0.378 -0.9071  0.5525  2.0953
16963SOL    HW252612   0.490   8.978   0.295  0.8957 -1.2463 -1.9513
16964SOL     OW52613   6.184   3.461   1.344  0.2181 -0.0438  0.1316
16964SOL    HW152614   6.187   3.440   1.438 -1.5014  0.1308  0.2566
16964SOL    HW252615   6.182   3.375   1.302  2.3699 -0.1617  0.1257
16965SOL     OW52616   7.552   9.024   4.669 -0.1928 -0.3918 -0.7196
16965SOL    HW152617   7.589   8.946   4.627 -0.2811 -0.5597 -0.4880
16965SOL    HW252618   7.494   8.989   4.736  0.3898 -0.1238 -0.0719
16966SOL     OW52619   9.704   5.052   0.135  0.0348  0.6506  0.2934
16966SOL    HW152620   9.791   5.026   0.107 -0.1575  0.9573 -0.6324
16966SOL    HW252621   9.714   5.075   0.228  0.8712  0.4145  0.2682
16967SOL     OW52622   7.785   9.543   6.877  0.0914 -0.1118  0.0162
16967SOL    HW152623   7.834   9.551   6.958  0.3754 -0.7600 -0.0886
16967SOL    HW252624   7.749   9.454   6.879 -2.6801  0.9135  0.9992
16968SOL     OW52625   3.249   6.216   0.038  0.1667  0.3457 -0.0895
16968SOL    HW152626   3.201   6.143   0.077 -3.2291  1.1683 -2.3009
16968SOL    HW252627   3.218   6.293   0.085 -0.5731  0.8751 -1.3955
16969SOL     OW52628   4.289   6.891   7.111 -0.1332  0.1813 -0.1209
16969SOL    HW152629   4.223   6.959   7.094 -0.5620 -0.4644 -1.0826
16969SOL    HW252630   4.246   6.809   7.087  1.6060 -0.0996 -2.5661
16970SOL     OW52631   7.560   5.136   6.146 -0.1176 -0.8157  0.3002
16970SOL    HW152632   7.583   5.222   6.111 -0.5377 -0.6539  0.4183
16970SOL    HW252633   7.467   5.143   6.169 -0.1214 -1.2585  0.4345
16971SOL     OW52634   4.470   7.267   9.556 -0.2275 -0.9511 -0.1914
16971SOL    HW152635   4.419   7.228   9.626 -3.3105  3.2145  0.2741
16971SOL    HW252636   4.416   7.256   9.478 -0.0018  0.1589 -0.5220
16972SOL     OW52637   8.057   1.005   6.905  0.2249  0.0262 -0.0165
16972SOL    HW152638   8.092   0.998   6.816 -0.4430  0.7436 -0.3488
16972SOL    HW252639   8.134   1.016   6.960  0.6480 -0.4333 -0.5016
16973SOL     OW52640   2.901   4.876   5.287  0.1217  0.2019 -0.0693
16973SOL    HW152641   2.930   4.939   5.354  0.3232  1.2924 -1.1423
16973SOL    HW252642   2.903   4.926   5.206 -1.6175 -0.6423 -0.6718
16974SOL     OW52643   6.896   6.032   1.388 -0.3686 -0.1343  0.4163
16974SOL    HW152644   6.856   6.061   1.306 -0.5319 -0.2878  0.4418
16974SOL    HW252645   6.974   5.984   1.361 -0.4695 -0.2607  0.3470
16975SOL     OW52646   8.896   4.745   7.208  0.3447  0.1742  0.5129
16975SOL    HW152647   8.857   4.830   7.228  0.8744 -0.1655  3.4832
16975SOL    HW252648   8.991   4.761   7.211  0.4560 -0.1669 -0.8108
16976SOL     OW52649   2.059   0.695   8.631 -0.0356  0.1539  0.0689
16976SOL    HW152650   2.118   0.762   8.665 -0.1028  0.8894 -1.2149
16976SOL    HW252651   2.113   0.647   8.567 -0.0227 -0.9510  0.8844
16977SOL     OW52652   2.035   2.205   2.700 -0.1999  0.0257  0.0357
16977SOL    HW152653   2.064   2.158   2.778  1.6758  0.0481 -0.5971
16977SOL    HW252654   2.051   2.144   2.628 -0.6372  0.4997 -0.4742
16978SOL     OW52655   4.889   3.915   6.899  0.3702  0.0468  0.5156
16978SOL    HW152656   4.816   3.930   6.840  0.2694 -2.1122  0.0143
16978SOL    HW252657   4.918   3.826   6.879  2.6545  0.5660  1.2274
16979SOL     OW52658   8.839   3.324   7.634  0.1488  0.1858  0.4852
16979SOL    HW152659   8.887   3.253   7.678  1.3269 -0.1310 -1.2155
16979SOL    HW252660   8.758   3.333   7.685  1.1753 -0.5284  2.3534
16980SOL     OW52661   8.445   0.489   2.878  0.3837 -0.1828 -0.1196
16980SOL    HW152662   8.471   0.497   2.786 -1.2273 -0.5974 -0.6577
16980SOL    HW252663   8.360   0.444   2.874  0.6234 -0.8583  1.6220
16981SOL     OW52664   5.146   3.629   8.033  0.1002 -0.5219 -0.3847
16981SOL    HW152665   5.143   3.579   7.951  0.8376  1.2832 -1.5599
16981SOL    HW252666   5.223   3.685   8.024 -0.8083  0.9854  0.7818
16982SOL     OW52667   6.633   0.085   1.065 -0.0871  0.5182  0.1762
16982SOL    HW152668   6.651   0.095   1.158  2.5051 -1.0752 -0.0432
16982SOL    HW252669   6.683   0.007   1.039 -0.7834  0.8567 -2.5210
16983SOL     OW52670   4.146   5.257   2.947  0.5384  0.1688  0.0701
16983SOL    HW152671   4.174   5.309   2.872 -2.4984  0.3601 -1.0705
16983SOL    HW252672   4.143   5.320   3.019  1.0135  0.5901 -0.2721
16984SOL     OW52673   8.477   6.111   2.219 -0.0113 -0.9140  0.2560
16984SOL    HW152674   8.424   6.054   2.274 -3.9153  0.4424 -1.6903
16984SOL    HW252675   8.478   6.195   2.265 -1.8524 -0.2479 -0.8047
16985SOL     OW52676   9.172   4.969   0.815  0.2859  0.3368 -0.3307
16985SOL    HW152677   9.211   5.039   0.762 -0.3610  1.2483  0.3570
16985SOL    HW252678   9.084   5.001   0.836  0.5602  0.0663  1.4005
16986SOL     OW52679   9.021   0.753   0.185 -0.4473 -0.0245 -0.9629
16986SOL    HW152680   9.008   0.769   0.279 -0.7250 -1.8443 -0.6679
16986SOL    HW252681   8.941   0.786   0.144 -0.3065  0.8189 -0.5978
16987SOL     OW52682   6.180   8.752   8.587 -0.1967  0.3279  0.5017
16987SOL    HW152683   6.215   8.819   8.647  0.3008 -0.5522  1.2193
16987SOL    HW252684   6.240   8.753   8.513  0.4282 -0.0459  0.9933
16988SOL     OW52685   8.962   4.075   1.415  0.3319 -0.2641 -0.4080
16988SOL    HW152686   9.053   4.050   1.429  0.3974  0.9499  1.8357
16988SOL    HW252687   8.943   4.136   1.486 -2.7270 -1.6953  0.1568
16989SOL     OW52688   6.602   7.543   8.027  0.0886 -0.0036  0.7239
16989SOL    HW152689   6.617   7.448   8.018  0.9291  0.1233  0.6617
16989SOL    HW252690   6.507   7.553   8.021  0.1174 -0.5081 -2.8083
16990SOL     OW52691   1.810   1.524   8.260 -0.4926 -0.2594 -0.1538
16990SOL    HW152692   1.738   1.461   8.253 -1.5203  1.0241 -3.2906
16990SOL    HW252693   1.854   1.519   8.176 -0.5253  2.9788 -0.4992
16991SOL     OW52694   8.212   9.207   7.516 -0.4342  0.1783  0.0790
16991SOL    HW152695   8.165   9.201   7.600 -1.4436 -0.3409 -0.4973
16991SOL    HW252696   8.196   9.297   7.487 -0.3661  0.2568  0.2811
16992SOL     OW52697   7.676   6.824   6.986  0.3423  0.2086 -0.3947
16992SOL    HW152698   7.650   6.843   6.895  0.6461 -1.1450 -0.7867
16992SOL    HW252699   7.595   6.796   7.028 -0.7560  4.6550  0.9577
16993SOL     OW52700   9.320   8.001   1.693  0.5074  0.1036 -0.3352
16993SOL    HW152701   9.262   8.068   1.731 -0.5606  0.0593 -1.8045
16993SOL    HW252702   9.261   7.938   1.653  1.5149 -1.4933  0.5717
16994SOL     OW52703   1.445   3.464   4.118  0.3882 -0.2218 -0.1112
16994SOL    HW152704   1.407   3.536   4.169  1.4184 -0.1130  0.5239
16994SOL    HW252705   1.397   3.387   4.146 -0.6609  0.1872 -0.7233
16995SOL     OW52706   4.145   4.686   4.279  0.0497  0.1903  0.0349
16995SOL    HW152707   4.070   4.715   4.330  0.2248 -0.8030  0.8949
16995SOL    HW252708   4.183   4.767   4.244 -0.1609  0.9014  1.3678
16996SOL     OW52709   1.485   2.502   4.138  0.1710  0.6163  0.1049
16996SOL    HW152710   1.489   2.457   4.053 -0.2592 -0.5088  0.6703
16996SOL    HW252711   1.469   2.594   4.115 -1.4460  0.1061 -1.0044
16997SOL     OW52712   5.665   3.794   3.047 -0.5335 -0.2216  0.0119
16997SOL    HW152713   5.654   3.699   3.046 -1.2320 -0.1522  0.5788
16997SOL    HW252714   5.753   3.808   3.081 -0.2144 -0.6789 -0.6070
16998SOL     OW52715   4.355   3.391   0.916  0.3235 -0.2820  0.0434
16998SOL    HW152716   4.435   3.440   0.934  0.1151  1.4831 -3.1767
16998SOL    HW252717   4.347   3.330   0.990  3.0638  1.4081  1.8963
16999SOL     OW52718   3.382   5.886   3.614  0.2247  0.4959 -0.0408
16999SOL    HW152719   3.477   5.890   3.623  0.6689 -1.9694 -2.3281
16999SOL    HW252720   3.358   5.797   3.640 -1.0609  0.2263 -1.9327
17000SOL     OW52721   4.165   9.220   5.470  0.4588  0.1787  0.6739
17000SOL    HW152722   4.197   9.309   5.479  2.0832 -0.4498  1.4650
17000SOL    HW252723   4.143   9.211   5.377 -1.6183  1.9578  0.9079
17001SOL     OW52724   2.121   5.087   6.551 -0.2250 -0.2275 -0.2834
17001SOL    HW152725   2.057   5.095   6.621  0.9061 -2.5727  1.1433
17001SOL    HW252726   2.089   5.015   6.496  0.9845 -1.2667  0.3126
17002SOL     OW52727   9.317   0.084   5.608  0.1574  0.1745 -0.5997
17002SOL    HW152728   9.232   0.059   5.573 -0.0545 -1.3156  0.8656
17002SOL    HW252729   9.378   0.021   5.569  0.2673 -0.0387 -0.0878
17003SOL     OW52730   4.114   3.156   1.331  0.7524 -0.5563 -0.4850
17003SOL    HW152731   4.032   3.119   1.298  0.1221  0.3138  0.0324
17003SOL    HW252732   4.108   3.249   1.307  1.7012 -0.5314 -0.6427
17004SOL     OW52733   4.606   7.454   8.098  0.3588 -0.6034  0.1567
17004SOL    HW152734   4.692   7.472   8.135 -0.0075 -0.0567  0.7762
17004SOL    HW252735   4.550   7.437   8.174 -0.2973  0.0237 -0.1723
17005SOL     OW52736   0.853   3.470   9.676 -0.1770 -0.2685 -0.0976
17005SOL    HW152737   0.914   3.442   9.744  0.9994  1.1012 -0.5563
17005SOL    HW252738   0.799   3.392   9.659  1.3538 -1.4783  0.3823
17006SOL     OW52739   7.052   1.101   4.204  0.0554 -0.1869 -0.5698
17006SOL    HW152740   7.023   1.193   4.209 -2.2949 -0.8978  0.1434
17006SOL    HW252741   7.137   1.101   4.248 -0.8526  1.3046  1.3418
17007SOL     OW52742   8.110   9.339   8.639 -0.2140  0.5826  0.0914
17007SOL    HW152743   8.016   9.321   8.649 -0.0031  0.1381  1.5823
17007SOL    HW252744   8.149   9.252   8.627  0.0614  0.7207 -0.0096
17008SOL     OW52745   6.326   4.185   2.043 -0.0870  0.6138 -0.1602
17008SOL    HW152746   6.309   4.124   2.114 -1.4677  1.0575 -0.0784
17008SOL    HW252747   6.410   4.157   2.006  0.6235  0.3418  1.5851
17009SOL     OW52748   6.941   7.930   6.329  0.4646 -0.1736  0.3678
17009SOL    HW152749   7.013   7.948   6.268 -0.9260  0.8485 -1.0624
17009SOL    HW252750   6.907   8.016   6.352 -0.2613 -0.6328  1.0685
17010SOL     OW52751   0.022   2.276   6.432 -0.2587 -0.3958 -0.0329
17010SOL    HW152752  -0.050   2.241   6.380  0.2556 -1.0466 -0.3227
17010SOL    HW252753   0.100   2.231   6.399  0.1862 -0.2222  0.7449
17011SOL     OW52754   0.837   4.714   7.508  0.6591  1.0476 -0.0335
17011SOL    HW152755   0.774   4.675   7.568  0.1566  2.5611  0.4680
17011SOL    HW252756   0.820   4.808   7.512  0.2697  1.2022 -2.8962
17012SOL     OW52757   1.488   5.148   4.831 -0.5609  0.0747  0.6057
17012SOL    HW152758   1.430   5.075   4.811 -1.1722  0.7759 -0.2801
17012SOL    HW252759   1.461   5.217   4.770  0.6978  0.6800  0.7022
17013SOL     OW52760   6.995   0.873   5.448 -0.3609 -0.5129 -0.1711
17013SOL    HW152761   7.090   0.885   5.448 -0.5620  1.5001  0.9570
17013SOL    HW252762   6.983   0.780   5.470  1.3458 -0.6798  0.1915
17014SOL     OW52763   6.968   8.438   3.325  0.0423 -0.6858 -0.3817
17014SOL    HW152764   6.909   8.414   3.396 -0.8137  1.6233 -0.2407
17014SOL    HW252765   7.018   8.357   3.307 -0.6478 -1.6993  1.8923
17015SOL     OW52766   0.261   8.651   7.757 -0.4329  0.1236 -0.5657
17015SOL    HW152767   0.306   8.735   7.745 -1.2755  0.5384 -0.9608
17015SOL    HW252768   0.331   8.588   7.775  0.1386  1.0732  0.6300
17016SOL     OW52769   6.835   5.055   3.131  0.4425 -0.0003  0.1499
17016SOL    HW152770   6.786   5.131   3.162  0.6087  0.2483 -0.1857
17016SOL    HW252771   6.792   5.031   3.049 -0.8411 -1.4844  1.2203
17017SOL     OW52772   1.597   5.895   9.533 -0.3294  0.4862  0.2972
17017SOL    HW152773   1.658   5.854   9.594 -0.2908  1.6055  1.0415
17017SOL    HW252774   1.645   5.899   9.451  0.3213  0.6549  0.6769
17018SOL     OW52775   0.976   3.140   2.229 -0.3993 -0.0717  0.0098
17018SOL    HW152776   0.967   3.234   2.212 -0.0367  0.1877  1.1761
17018SOL    HW252777   1.070   3.128   2.242 -0.3157 -0.7863 -1.1307
17019SOL     OW52778   0.480   1.533   3.296 -1.0580  0.1722  0.1650
17019SOL    HW152779   0.544   1.603   3.306  0.8704 -1.5409  0.3902
17019SOL    HW252780   0.455   1.536   3.203 -0.7403  0.9220  0.1015
17020SOL     OW52781   4.824   5.421   8.548 -0.8451 -0.2929 -0.6654
17020SOL    HW152782   4.768   5.365   8.495 -2.0748  0.6516 -0.3968
17020SOL    HW252783   4.913   5.393   8.527 -1.3027 -0.2329 -2.8837
17021SOL     OW52784   0.485   2.390   5.864 -0.0415  0.1218 -0.7648
17021SOL    HW152785   0.540   2.466   5.881 -0.0003  0.2912 -1.6023
17021SOL    HW252786   0.408   2.403   5.919 -0.3114  1.0858 -1.3534
17022SOL     OW52787   9.206   5.255   0.217 -0.3237  0.0323  0.3362
17022SOL    HW152788   9.171   5.343   0.230 -0.1696  0.2467 -0.6357
17022SOL    HW252789   9.230   5.252   0.125  0.2697 -0.8175  0.5071
17023SOL     OW52790   9.322   0.220   0.486  0.1145  0.2514 -0.3921
17023SOL    HW152791   9.393   0.258   0.537 -0.3093 -0.6642  0.9381
17023SOL    HW252792   9.361   0.202   0.400  1.4157  0.0146  0.2224
17024SOL     OW52793   4.750   2.247   9.191  0.0831 -0.0202 -0.3420
17024SOL    HW152794   4.797   2.330   9.187 -2.1171  1.3916  0.8851
17024SOL    HW252795   4.787   2.202   9.267 -0.9267  1.3760  1.0335
17025SOL     OW52796   7.451   7.699   2.418 -0.5626 -0.3103  0.5200
17025SOL    HW152797   7.461   7.785   2.460  0.3249  0.2366 -0.7283
17025SOL    HW252798   7.482   7.636   2.484 -1.0672  0.3359  1.3919
17026SOL     OW52799   4.296   4.239   8.837 -0.2008 -0.0149  0.0841
17026SOL    HW152800   4.282   4.147   8.856  2.1509 -0.2353  1.0574
17026SOL    HW252801   4.278   4.248   8.744  0.0972 -1.5858 -0.1382
17027SOL     OW52802   2.454   3.370   5.124 -0.4060 -0.0197  0.1778
17027SOL    HW152803   2.453   3.378   5.220 -1.0835  1.4723  0.0731
17027SOL    HW252804   2.501   3.288   5.108 -0.7558 -0.5918  1.8010
17028SOL     OW52805   9.515   2.821   2.258 -0.3982 -0.1569  0.2723
17028SOL    HW152806   9.500   2.731   2.286 -0.8068  0.1531  1.0828
17028SOL    HW252807   9.599   2.845   2.298 -1.2555  0.4745  1.7503
17029SOL     OW52808   2.319   2.277   2.143  0.1813 -0.2232 -0.5933
17029SOL    HW152809   2.231   2.250   2.170  0.0866  0.7231  0.0774
17029SOL    HW252810   2.307   2.310   2.054  0.1697 -1.6678 -1.1469
17030SOL     OW52811   4.221   8.909   6.795 -0.0109  0.2996 -0.1885
17030SOL    HW152812   4.204   8.997   6.764  0.6845  0.9386  1.1285
17030SOL    HW252813   4.161   8.897   6.869 -0.8821 -0.7745 -1.0222
17031SOL     OW52814   3.766   4.996   8.913 -0.5104 -0.1180 -0.6321
17031SOL    HW152815   3.845   5.014   8.965 -0.0656 -1.2521 -0.8772
17031SOL    HW252816   3.704   4.959   8.976 -0.3125 -0.5994 -0.7144
17032SOL     OW52817   1.437   4.319   6.142  0.0538 -0.2709  0.3069
17032SOL    HW152818   1.396   4.399   6.109  0.1442 -0.1273  0.5407
17032SOL    HW252819   1.531   4.337   6.140  0.0222  0.2589  1.9213
17033SOL     OW52820   7.850   6.751   5.038  0.3645  0.4102 -0.0571
17033SOL    HW152821   7.897   6.833   5.021 -0.8952  1.0645 -0.5293
17033SOL    HW252822   7.801   6.767   5.119 -0.2280  0.2886 -0.3836
17034SOL     OW52823   3.916   3.907   0.477  0.1514 -0.2289 -0.2757
17034SOL    HW152824   3.898   3.822   0.517  3.8225 -0.9412  0.1921
17034SOL    HW252825   3.899   3.893   0.383  0.8060 -1.5515 -0.2268
17035SOL     OW52826   2.574   5.620   8.657 -0.2077  0.1962  0.5245
17035SOL    HW152827   2.572   5.665   8.742 -1.0657  1.5499 -0.1781
17035SOL    HW252828   2.534   5.682   8.596 -0.1538 -0.9921 -0.7673
17036SOL     OW52829   2.423   8.005   9.104  0.5927 -1.3821 -0.5753
17036SOL    HW152830   2.517   7.989   9.093  0.5847 -2.1631  0.3468
17036SOL    HW252831   2.407   7.992   9.198  0.2273  2.4017  0.0496
17037SOL     OW52832   8.084   5.153   2.972  0.6687 -0.8905  0.2379
17037SOL    HW152833   8.041   5.087   2.916  0.5992 -0.8995  0.3019
17037SOL    HW252834   8.159   5.182   2.921  0.4608 -0.7142  0.0283
17038SOL     OW52835   1.147   0.996   1.095 -0.6420 -0.1556  0.1590
17038SOL    HW152836   1.190   1.044   1.166 -0.0942 -1.2135  0.5464
17038SOL    HW252837   1.198   0.917   1.084 -1.1819 -0.3748 -0.9048
17039SOL     OW52838   8.430   6.077   4.526 -0.0754  0.2601 -0.0273
17039SOL    HW152839   8.386   6.069   4.441 -1.2049  1.9978  0.3285
17039SOL    HW252840   8.494   6.147   4.514  0.8490 -0.5376  0.1556
17040SOL     OW52841   6.438   7.495   3.239  0.3510 -0.0997 -0.1027
17040SOL    HW152842   6.460   7.410   3.198  1.4103 -0.5665  1.3649
17040SOL    HW252843   6.505   7.555   3.205  2.4042 -0.8987  2.2124
17041SOL     OW52844   3.750   0.670   9.108  0.4119 -0.2230  1.1541
17041SOL    HW152845   3.819   0.611   9.076  0.3758  0.1289  0.3969
17041SOL    HW252846   3.675   0.650   9.053  0.6745  1.1736  0.2311
17042SOL     OW52847   9.472   1.942   7.459  0.4000  0.3167  0.1012
17042SOL    HW152848   9.422   1.981   7.387 -0.8237 -0.1901  0.6416
17042SOL    HW252849   9.487   2.013   7.520  0.2007  0.4428  0.0035
17043SOL     OW52850   0.165   0.629   9.680  0.1089 -0.5441  0.3040
17043SOL    HW152851   0.223   0.703   9.699  0.7426 -0.8705 -0.3428
17043SOL    HW252852   0.176   0.570   9.755 -0.9376  0.3236  1.1773
17044SOL     OW52853   5.362   4.532   0.491 -0.2275 -0.1241 -0.5852
17044SOL    HW152854   5.383   4.503   0.402  1.8122 -0.1250 -0.1640
17044SOL    HW252855   5.418   4.478   0.547 -4.0994 -2.8234  1.1013
17045SOL     OW52856   4.864   7.642   7.938  0.4149  0.5053  0.1060
17045SOL    HW152857   4.879   7.573   7.873 -1.4000 -1.2888  1.4388
17045SOL    HW252858   4.930   7.626   8.005  0.2964  0.3483  0.1872
17046SOL     OW52859   1.623   3.098   6.941  0.0577  0.3153  0.2433
17046SOL    HW152860   1.666   3.049   7.011 -1.7735 -2.1918 -0.2560
17046SOL    HW252861   1.547   3.139   6.984 -0.2752 -0.0570  0.0157
17047SOL     OW52862   3.656   4.398   2.323  0.4547 -0.5952 -0.2786
17047SOL    HW152863   3.726   4.399   2.389 -0.6256  0.4410  0.8960
17047SOL    HW252864   3.703   4.388   2.240  2.1684  1.5469  0.3202
17048SOL     OW52865   7.187   6.818   1.087  0.0488  0.1575  0.3903
17048SOL    HW152866   7.175   6.733   1.131 -0.3157  0.4269  0.8231
17048SOL    HW252867   7.193   6.796   0.994 -1.6300 -0.2168  0.3320
17049SOL     OW52868   2.993   7.508   6.687 -0.0475 -0.2075 -1.1606
17049SOL    HW152869   3.089   7.514   6.684  0.0608  0.1868  1.1896
17049SOL    HW252870   2.963   7.598   6.697 -0.4890 -0.5081  0.5011
17050SOL     OW52871   6.166   7.125   5.319 -0.3136 -0.4958 -0.5048
17050SOL    HW152872   6.252   7.091   5.341 -0.1803 -0.3571 -0.8039
17050SOL    HW252873   6.114   7.113   5.398  0.2709  0.3689  0.0351
17051SOL     OW52874   9.252   5.637   8.683  0.4512 -0.1552 -0.5603
17051SOL    HW152875   9.286   5.725   8.666 -0.6237  0.7195  1.5423
17051SOL    HW252876   9.330   5.582   8.685  1.4243  1.1940  0.5914
17052SOL     OW52877   5.298   0.153   6.680  0.1775  0.5234  0.6425
17052SOL    HW152878   5.379   0.198   6.656  0.1979  0.8799  1.3627
17052SOL    HW252879   5.230   0.196   6.629  0.2184  1.2737  1.2136
17053SOL     OW52880   0.462   5.553   6.226 -0.5395 -0.6263 -0.0888
17053SOL    HW152881   0.532   5.491   6.209  1.0265  0.7361  1.1080
17053SOL    HW252882   0.451   5.552   6.321  0.0325  1.3899  0.0451
17054SOL     OW52883   2.725   7.905   3.115 -0.0339 -1.0101  0.4397
17054SOL    HW152884   2.705   7.830   3.058 -2.0290  0.1998 -0.5814
17054SOL    HW252885   2.678   7.886   3.196 -0.9446 -0.6698  0.0045
17055SOL     OW52886   0.586   3.447   4.235  0.6336 -0.2687  0.1889
17055SOL    HW152887   0.538   3.409   4.308  1.9997  0.8059  1.7091
17055SOL    HW252888   0.549   3.534   4.224 -1.9472 -1.5289 -2.7745
17056SOL     OW52889   1.087   1.074   5.491  0.1229  0.2089  0.1461
17056SOL    HW152890   1.146   0.998   5.489 -2.9663 -2.3753 -0.1084
17056SOL    HW252891   1.104   1.116   5.575  2.1123 -0.5305  0.1634
17057SOL     OW52892   8.666   3.784   5.596  0.1971  0.4090 -0.0796
17057SOL    HW152893   8.658   3.850   5.527  3.4476  1.0258 -0.0101
17057SOL    HW252894   8.744   3.734   5.572  0.4482 -0.4494  2.2899
17058SOL     OW52895   7.578   3.519   8.040 -0.3198 -0.2546  0.3563
17058SOL    HW152896   7.530   3.532   7.958  0.3654 -0.4075 -0.0800
17058SOL    HW252897   7.510   3.499   8.104 -0.8770 -0.0551 -0.1532
17059SOL     OW52898   4.275   2.478   1.144 -0.4155 -0.5473 -0.2542
17059SOL    HW152899   4.261   2.569   1.171  1.7830 -0.1219 -0.3507
17059SOL    HW252900   4.235   2.472   1.057  1.3278  1.0558 -1.2744
17060SOL     OW52901   2.274   7.271   5.828 -0.0607 -0.8901  0.5210
17060SOL    HW152902   2.244   7.223   5.750 -1.1618 -1.8960  1.5296
17060SOL    HW252903   2.207   7.254   5.894  0.7910  0.0464  1.6617
17061SOL     OW52904   9.060   4.792   8.899 -0.0489 -0.3041  0.1322
17061SOL    HW152905   8.981   4.845   8.903 -0.4241 -0.8958  1.1213
17061SOL    HW252906   9.041   4.724   8.835 -0.3181 -0.4036  0.3163
17062SOL     OW52907   4.839   8.926   9.351  0.6226 -0.0377 -0.1570
17062SOL    HW152908   4.846   8.831   9.367 -0.1090 -0.4690 -2.1153
17062SOL    HW252909   4.920   8.962   9.387  1.3364 -1.5355 -0.1761
17063SOL     OW52910   2.409   5.661   8.163  0.7820 -0.4461  0.2230
17063SOL    HW152911   2.334   5.623   8.209 -0.0962  0.4670 -0.3892
17063SOL    HW252912   2.443   5.589   8.109  0.5326 -0.9511  0.7302
17064SOL     OW52913   8.077   5.707   4.570  0.0860 -0.0155  0.1939
17064SOL    HW152914   8.147   5.671   4.514 -0.2867  0.2631 -0.4591
17064SOL    HW252915   8.121   5.729   4.652  0.8274  0.4187 -0.3104
17065SOL     OW52916   6.111   6.359   3.198 -0.3879  0.1017 -0.4118
17065SOL    HW152917   6.122   6.403   3.114  1.0420  0.5581 -0.0134
17065SOL    HW252918   6.179   6.395   3.254 -0.9462 -0.6090  0.7866
17066SOL     OW52919   5.178   9.369   8.413  0.1815  0.2879  0.1888
17066SOL    HW152920   5.103   9.342   8.361  0.7174 -0.4238 -0.2176
17066SOL    HW252921   5.166   9.325   8.497  1.6377 -2.2363 -0.8351
17067SOL     OW52922   5.652   1.615   3.008  0.4187 -0.4484 -0.3395
17067SOL    HW152923   5.609   1.579   3.086 -0.9809 -0.1750 -0.9536
17067SOL    HW252924   5.741   1.633   3.036 -0.1101 -0.1537  1.2641
17068SOL     OW52925   6.638   6.476   1.479  0.3282  0.0760  0.0304
17068SOL    HW152926   6.625   6.571   1.469  2.8158  0.4597 -0.0599
17068SOL    HW252927   6.710   6.468   1.541 -0.9001 -1.8428  1.3270
17069SOL     OW52928   5.629   6.925   8.687 -0.2192 -0.1524 -0.1560
17069SOL    HW152929   5.583   6.999   8.728 -1.1322 -0.8835  0.1684
17069SOL    HW252930   5.563   6.882   8.633  0.2485 -0.8408 -0.1972
17070SOL     OW52931   9.402   6.267   4.876 -0.1848  0.7481 -0.0472
17070SOL    HW152932   9.451   6.267   4.959 -0.4791  0.5213  0.1280
17070SOL    HW252933   9.469   6.280   4.809 -0.1605  3.2462  0.3517
17071SOL     OW52934   4.679   7.640   7.559 -0.3439  0.2907  0.0025
17071SOL    HW152935   4.639   7.559   7.591  0.3622  0.1315  0.5074
17071SOL    HW252936   4.687   7.628   7.464 -1.7117  0.4353 -0.1462
17072SOL     OW52937   8.841   7.039   5.425  0.6979  0.6729  0.0062
17072SOL    HW152938   8.893   7.116   5.403 -0.0850  1.0501 -0.5343
17072SOL    HW252939   8.751   7.063   5.403  0.2585  0.0851  1.0930
17073SOL     OW52940   3.257   6.735   3.180  0.3346  0.6009 -0.2841
17073SOL    HW152941   3.251   6.706   3.271 -1.0249 -1.8034 -1.0415
17073SOL    HW252942   3.254   6.830   3.185 -1.1154  0.5250  2.1369
17074SOL     OW52943   4.272   1.652   4.667 -0.2657  0.4583  0.0647
17074SOL    HW152944   4.312   1.566   4.653 -1.1645 -0.2330  1.4921
17074SOL    HW252945   4.235   1.676   4.582 -0.8079 -0.9973 -0.1238
17075SOL     OW52946   0.921   3.571   1.314  0.4273 -0.0404  0.4858
17075SOL    HW152947   0.880   3.485   1.326 -0.2871  0.3159  0.6447
17075SOL    HW252948   0.887   3.602   1.230  0.0841  0.4262  0.8030
17076SOL     OW52949   0.895   9.360   8.004 -0.2028  0.1240  0.2266
17076SOL    HW152950   0.975   9.403   8.034  0.4182 -0.5454 -0.4200
17076SOL    HW252951   0.882   9.393   7.915 -0.7544  0.3732  0.4001
17077SOL     OW52952   0.985   7.806   6.540 -0.2477  0.7423 -0.2391
17077SOL    HW152953   1.013   7.716   6.521 -2.3308 -0.1149  0.4468
17077SOL    HW252954   0.944   7.835   6.459  1.7523  1.6951 -0.9724
17078SOL     OW52955   6.333   6.133   1.969  0.3491  0.7201 -0.4874
17078SOL    HW152956   6.379   6.165   1.892  0.6949  0.9644 -0.1833
17078SOL    HW252957   6.255   6.188   1.976  0.6713  1.1564 -0.2701
17079SOL     OW52958   8.656   5.630   2.033 -0.4095  0.4962  0.7636
17079SOL    HW152959   8.636   5.615   1.941  0.6388 -1.3321  0.7973
17079SOL    HW252960   8.576   5.668   2.069 -1.2389  0.1357 -0.6407
17080SOL     OW52961   2.726   2.074   1.938 -0.4655 -0.3239 -0.4010
17080SOL    HW152962   2.685   2.010   1.996  0.3768 -0.0748  0.5172
17080SOL    HW252963   2.660   2.095   1.873 -0.7055 -2.2487 -0.8247
17081SOL     OW52964   6.470   4.858   0.896 -0.1762 -1.0229  0.9015
17081SOL    HW152965   6.467   4.950   0.869  1.4487 -0.9794  0.7646
17081SOL    HW252966   6.400   4.849   0.960 -0.3645  0.3044  0.9074
17082SOL     OW52967   3.374   3.196   0.128  0.8829  0.5948 -0.0242
17082SOL    HW152968   3.282   3.208   0.151  0.2965 -1.6207 -0.8886
17082SOL    HW252969   3.414   3.158   0.206  1.7180  3.6908  1.1961
17083SOL     OW52970   5.501   1.135   8.464 -0.0170  0.1539  0.3314
17083SOL    HW152971   5.443   1.064   8.492 -0.1071 -0.2920 -0.9178
17083SOL    HW252972   5.442   1.203   8.434  0.0594 -0.7324 -1.9891
17084SOL     OW52973   8.382   4.756   2.772  0.1917  0.1951  0.1069
17084SOL    HW152974   8.323   4.789   2.840 -2.0718  1.8021 -2.4069
17084SOL    HW252975   8.348   4.669   2.752  1.1608 -0.4818  1.2770
17085SOL     OW52976   3.678   2.920   7.872 -0.2045  0.0174  0.1391
17085SOL    HW152977   3.772   2.901   7.880  0.2929  1.9664 -0.3986
17085SOL    HW252978   3.655   2.960   7.956  0.3215  2.5818 -0.8224
17086SOL     OW52979   4.963   7.137   4.186  0.2613 -0.1735 -0.6566
17086SOL    HW152980   5.001   7.089   4.260  1.7051  0.7864 -0.7483
17086SOL    HW252981   4.900   7.197   4.226  0.7564  0.0686 -0.2299
17087SOL     OW52982   6.217   2.530   3.790  0.1494 -0.0617  0.3632
17087SOL    HW152983   6.247   2.440   3.804  0.1202 -0.0980  0.1858
17087SOL    HW252984   6.223   2.544   3.695  2.4098  0.8818  0.5755
17088SOL     OW52985   0.631   0.101   0.632  0.0451 -0.5071 -0.6008
17088SOL    HW152986   0.696   0.163   0.598  0.3283 -0.7704 -0.5454
17088SOL    HW252987   0.640   0.108   0.727  0.6484 -1.2194 -0.5947
17089SOL     OW52988   6.315   6.246   8.016  0.0451 -0.2883 -0.3530
17089SOL    HW152989   6.322   6.152   8.034  0.1988  0.0118  1.3098
17089SOL    HW252990   6.406   6.276   8.008  0.0434 -0.0747  0.3585
17090SOL     OW52991   4.821   3.237   4.416  0.1429  0.1454 -0.5705
17090SOL    HW152992   4.900   3.285   4.441  1.9250 -1.5420 -2.5956
17090SOL    HW252993   4.821   3.160   4.472 -2.1708  1.8060  1.9693
17091SOL     OW52994   6.596   0.055   8.464 -0.3213  0.7031  0.1457
17091SOL    HW152995   6.592   0.081   8.556  0.4831 -0.5192  0.5424
17091SOL    HW252996   6.666  -0.010   8.460 -0.4179  0.6540 -1.3158
17092SOL     OW52997   6.844   3.166   6.743 -0.8015  0.3697 -0.3997
17092SOL    HW152998   6.787   3.208   6.807 -0.6974  0.9999 -0.7163
17092SOL    HW252999   6.863   3.080   6.781  0.8129  1.4197  1.3854
17093SOL     OW53000   0.671   7.355   1.695  0.3873 -0.2358  0.1345
17093SOL    HW153001   0.639   7.372   1.606  1.5742 -1.4729 -0.5679
17093SOL    HW253002   0.602   7.303   1.736 -0.9630  1.7926  0.5857
17094SOL     OW53003   7.935   9.397   1.464  0.1168  0.3331  0.4762
17094SOL    HW153004   7.961   9.313   1.424 -1.2883  0.4861 -0.8445
17094SOL    HW253005   7.983   9.463   1.413 -0.3512  0.4384  0.1723
17095SOL     OW53006   7.320   7.688   8.956 -0.5312  0.2502 -0.6069
17095SOL    HW153007   7.262   7.764   8.946 -0.7850 -0.0822 -1.7778
17095SOL    HW253008   7.403   7.717   8.919 -0.9690 -0.3998 -2.2148
17096SOL     OW53009   2.291   1.068   9.348 -0.4660 -0.6826  0.3886
17096SOL    HW153010   2.212   1.101   9.389  0.0549  0.1856  0.7100
17096SOL    HW253011   2.272   1.071   9.254 -0.0086  1.7569  0.3083
17097SOL     OW53012   3.698   9.110   7.709  0.3950  0.1921 -0.1954
17097SOL    HW153013   3.760   9.154   7.768 -0.4084  1.4956 -0.2832
17097SOL    HW253014   3.742   9.029   7.684  1.8583  0.8613  0.1171
17098SOL     OW53015   4.636   4.692   9.095  0.1849  0.6719  0.0595
17098SOL    HW153016   4.567   4.755   9.114  0.6516  0.8624  1.1458
17098SOL    HW253017   4.628   4.625   9.163  1.3871  0.9686  0.5294
17099SOL     OW53018   3.751   3.116   1.918  0.2184  0.0155 -0.2845
17099SOL    HW153019   3.831   3.071   1.944 -0.9190 -1.0722  1.6671
17099SOL    HW253020   3.684   3.047   1.916 -1.3400  1.3414  1.5462
17100SOL     OW53021   9.260   1.062   3.050  0.0839  0.4059 -0.5370
17100SOL    HW153022   9.216   1.142   3.022 -0.0921  0.0353 -1.3310
17100SOL    HW253023   9.334   1.053   2.989 -0.2432 -0.3539 -0.8265
17101SOL     OW53024   7.550   1.549   4.011 -0.1338  0.0307 -0.0151
17101SOL    HW153025   7.539   1.643   4.021 -0.1141  0.0294  0.0173
17101SOL    HW253026   7.460   1.515   4.007 -0.1493  0.1701 -1.1604
17102SOL     OW53027   4.604   7.507   0.026  0.0495 -0.0197  0.2443
17102SOL    HW153028   4.596   7.423   0.069 -0.1945 -0.3825 -0.4853
17102SOL    HW253029   4.515   7.527  -0.004  0.2035  0.2512 -0.0401
17103SOL     OW53030   7.663   8.745   4.584  0.0723 -0.0956  0.2878
17103SOL    HW153031   7.709   8.673   4.627 -1.3102 -0.0379  1.9725
17103SOL    HW253032   7.573   8.715   4.577 -0.6718  1.6759  1.6002
17104SOL     OW53033   3.595   5.483   5.537  0.9723  0.0567  0.5233
17104SOL    HW153034   3.581   5.478   5.442 -0.4458 -1.8773  0.7683
17104SOL    HW253035   3.657   5.413   5.556 -1.1545 -1.7146  1.3403
17105SOL     OW53036   4.921   2.082   2.173 -0.5552  0.1335  0.2391
17105SOL    HW153037   4.889   2.150   2.233 -1.0488  0.4276 -0.3551
17105SOL    HW253038   5.015   2.076   2.193 -0.5039  0.9818  0.3043
17106SOL     OW53039   3.209   3.447   3.359 -0.0258  0.3585  0.4132
17106SOL    HW153040   3.301   3.473   3.347  0.1956 -1.4258 -2.8872
17106SOL    HW253041   3.162   3.529   3.369  1.7023  1.4504 -0.0223
17107SOL     OW53042   1.409   6.820   7.194 -0.1526 -0.3568  0.5234
17107SOL    HW153043   1.361   6.818   7.111  1.9572  0.0317 -0.8080
17107SOL    HW253044   1.377   6.745   7.243 -1.9102 -0.2310 -0.3572
17108SOL     OW53045   3.335   2.418   0.196  0.6464  0.1028  0.5986
17108SOL    HW153046   3.266   2.428   0.130 -0.5070 -1.7491  1.4686
17108SOL    HW253047   3.379   2.337   0.172  1.8987  0.7445  0.6547
17109SOL     OW53048   0.028   0.743   7.369  0.1297 -0.8591  0.2173
17109SOL    HW153049   0.085   0.693   7.311  0.8372  0.4769 -0.2896
17109SOL    HW253050   0.066   0.731   7.456  0.1651 -1.3749  0.1299
17110SOL     OW53051   7.211   6.084   5.523 -0.3211 -0.0757  0.2145
17110SOL    HW153052   7.258   6.030   5.587  1.8312  1.0301 -0.3443
17110SOL    HW253053   7.144   6.026   5.488  1.4284 -2.1794  0.1389
17111SOL     OW53054   7.389   4.995   2.783  0.1672 -0.2447 -0.1823
17111SOL    HW153055   7.307   5.000   2.833  0.4976  0.3295  0.3068
17111SOL    HW253056   7.369   5.040   2.701  0.3412  0.9708  0.4252
17112SOL     OW53057   0.236   1.541   5.432  0.4762  0.7942 -0.2670
17112SOL    HW153058   0.315   1.541   5.378  0.4262 -2.0233 -0.4850
17112SOL    HW253059   0.175   1.596   5.384  1.4208  0.8016 -1.5249
17113SOL     OW53060   0.093   5.952   8.438  0.8456 -0.0567 -0.0348
17113SOL    HW153061   0.118   5.930   8.528  1.0583 -1.1312 -0.3399
17113SOL    HW253062   0.154   5.902   8.383  0.4777  0.2932 -0.7797
17114SOL     OW53063   7.197   4.997   0.703  0.2025  0.1257 -0.3495
17114SOL    HW153064   7.196   5.083   0.744  0.0117  1.2082 -2.4940
17114SOL    HW253065   7.122   4.997   0.644 -0.4056 -1.9125  0.3505
17115SOL     OW53066   9.069   1.232   6.007  0.3123 -0.1721  0.1693
17115SOL    HW153067   9.051   1.238   6.101  1.4377  0.4446  0.3681
17115SOL    HW253068   8.984   1.218   5.967 -0.0530 -1.8081  1.3866
17116SOL     OW53069   8.297   7.953   6.447  0.5057  0.2749 -0.0968
17116SOL    HW153070   8.337   8.038   6.466  0.9488  0.0980 -0.2220
17116SOL    HW253071   8.370   7.891   6.449  0.2547 -0.0375 -0.4413
17117SOL     OW53072   2.502   3.419   9.467 -0.3639 -0.3732  0.2254
17117SOL    HW153073   2.417   3.397   9.504 -0.7665 -0.8305 -0.9427
17117SOL    HW253074   2.485   3.490   9.405 -0.4188 -2.3412 -2.1614
17118SOL     OW53075   2.980   7.590   3.820 -0.7581  0.2613 -0.4657
17118SOL    HW153076   2.967   7.652   3.892  0.4441  0.8611 -0.7486
17118SOL    HW253077   3.075   7.579   3.814 -0.8784 -0.3230 -1.5138
17119SOL     OW53078   5.560   4.385   6.745 -0.5608  0.2974  0.1617
17119SOL    HW153079   5.605   4.445   6.686 -1.3399  0.3985 -0.3494
17119SOL    HW253080   5.627   4.356   6.806  0.0186  1.0262 -0.1159
17120SOL     OW53081   3.750   7.108   9.540 -0.1505 -0.5959  0.2550
17120SOL    HW153082   3.840   7.082   9.555  0.3003  0.7273  0.0301
17120SOL    HW253083   3.734   7.088   9.447 -0.5836 -2.1648  0.6480
17121SOL     OW53084   5.469   2.408   5.676 -0.2953 -0.1767 -0.2325
17121SOL    HW153085   5.430   2.453   5.601 -0.6352 -0.2565 -0.1049
17121SOL    HW253086   5.488   2.320   5.644  0.2630  0.0210 -0.4485
17122SOL     OW53087   7.919   8.058   6.413 -0.2654 -0.0212 -0.1076
17122SOL    HW153088   7.862   8.129   6.443  0.6623  0.5580  0.3037
17122SOL    HW253089   7.860   7.983   6.404 -1.4559  0.9938 -1.4226
17123SOL     OW53090   0.685   6.662   3.010  0.0394  0.1319  0.3827
17123SOL    HW153091   0.641   6.681   3.093 -0.3707  0.0472  0.1909
17123SOL    HW253092   0.659   6.735   2.953 -0.1679 -0.1184  0.1526
17124SOL     OW53093   2.133   1.793   5.932  0.4543  0.0539  0.2752
17124SOL    HW153094   2.206   1.731   5.932  0.1014 -0.4331 -1.4503
17124SOL    HW253095   2.173   1.878   5.918  0.8617  0.1022  1.6514
17125SOL     OW53096   0.795   7.711   8.899 -0.4250  0.1059  0.3609
17125SOL    HW153097   0.785   7.656   8.821 -2.5022  0.2368  0.4771
17125SOL    HW253098   0.793   7.801   8.866  1.4794  0.1700  0.3235
17126SOL     OW53099   0.606   9.385   5.334 -0.0346  0.1950  0.0221
17126SOL    HW153100   0.597   9.291   5.350  0.1240 -0.0890 -1.4170
17126SOL    HW253101   0.528   9.408   5.283 -0.0295  0.8350  0.2925
17127SOL     OW53102   6.102   1.279   1.664  0.1937 -0.0947  0.3389
17127SOL    HW153103   6.056   1.340   1.606 -1.1082  2.0179  3.3227
17127SOL    HW253104   6.079   1.192   1.631 -1.2008  0.9834 -1.7361
17128SOL     OW53105   6.639   7.533   8.480  0.3080 -0.0648 -0.3437
17128SOL    HW153106   6.578   7.488   8.422  1.5560 -0.6363 -1.2672
17128SOL    HW253107   6.607   7.623   8.485 -0.2304 -0.1977 -1.3364
17129SOL     OW53108   1.141   1.610   7.055 -0.1433 -0.1322  0.3897
17129SOL    HW153109   1.161   1.544   6.989 -1.5237 -0.2925  0.0935
17129SOL    HW253110   1.226   1.634   7.092  0.3628 -2.4232  0.8726
17130SOL     OW53111   7.166   3.888   6.485  0.0198  0.2937  0.3437
17130SOL    HW153112   7.204   3.914   6.401 -0.0671 -0.7653 -0.0355
17130SOL    HW253113   7.221   3.931   6.550  0.2718  0.8815 -0.2450
17131SOL     OW53114   3.946   5.382   6.224 -0.2109  0.1741 -0.3793
17131SOL    HW153115   3.886   5.420   6.289  1.0086 -0.0632  0.9354
17131SOL    HW253116   3.949   5.448   6.154 -1.3527  0.5623 -0.0937
17132SOL     OW53117   1.085   1.722   8.082 -0.0054 -0.4045 -0.2431
17132SOL    HW153118   1.156   1.676   8.128  0.4129 -1.3185 -1.7376
17132SOL    HW253119   1.125   1.751   8.000 -1.6260 -2.0629 -1.7099
17133SOL     OW53120   7.860   4.566   3.322  0.2484  0.3215  0.3739
17133SOL    HW153121   7.810   4.629   3.374 -3.5882 -0.8158 -1.5274
17133SOL    HW253122   7.860   4.486   3.374 -3.0143 -0.6260 -0.8422
17134SOL     OW53123   6.862   8.297   1.483 -0.2123 -0.0272 -0.1501
17134SOL    HW153124   6.792   8.295   1.548 -0.3271 -0.7479 -0.2859
17134SOL    HW253125   6.942   8.304   1.535 -0.3820  1.0065 -0.0016
17135SOL     OW53126   5.413   3.713   5.529 -0.7155 -0.0534  0.0212
17135SOL    HW153127   5.427   3.767   5.452  2.2645 -0.3246  0.2762
17135SOL    HW253128   5.384   3.628   5.494  0.9293 -0.2853 -0.8697
17136SOL     OW53129   7.388   2.515   6.283 -0.2055  0.5563 -0.1303
17136SOL    HW153130   7.402   2.562   6.365  1.9296  0.8735 -0.6062
17136SOL    HW253131   7.380   2.423   6.309  1.3665  0.5397  0.4076
17137SOL     OW53132   0.868   6.947   0.730 -0.0161 -0.4751 -0.1266
17137SOL    HW153133   0.780   6.942   0.769 -0.2306  1.5403 -0.2120
17137SOL    HW253134   0.860   6.903   0.646 -1.5458  1.3335 -1.0143
17138SOL     OW53135   7.853   2.553   4.371 -0.0855  0.2416  0.3622
17138SOL    HW153136   7.869   2.475   4.318  0.1714  0.5419 -0.0024
17138SOL    HW253137   7.876   2.526   4.460 -0.0681 -0.1202  0.2513
17139SOL     OW53138   2.598   2.280   2.527  0.0211 -0.5887  0.6055
17139SOL    HW153139   2.567   2.368   2.506 -0.7575 -0.8126  0.7851
17139SOL    HW253140   2.533   2.246   2.589 -0.0166 -1.5098  0.0822
17140SOL     OW53141   8.668   0.078   0.857  0.6352  0.1878  0.0486
17140SOL    HW153142   8.649   0.171   0.872  0.8537  0.1271  0.7320
17140SOL    HW253143   8.582   0.036   0.858  0.5148  0.4127 -0.5039
17141SOL     OW53144   5.977   9.361   4.098  0.0269  0.1779 -0.3910
17141SOL    HW153145   6.031   9.383   4.173 -1.2405  0.0633  0.5903
17141SOL    HW253146   5.920   9.291   4.129 -0.6958  0.3048 -1.3702
17142SOL     OW53147   9.631   6.146   5.302 -0.3637  0.4280  0.1824
17142SOL    HW153148   9.704   6.206   5.297  0.4295 -0.4018  1.3170
17142SOL    HW253149   9.666   6.068   5.345 -1.4103 -0.7722 -1.0313
17143SOL     OW53150   2.484   6.415   0.711  0.2137  0.1315 -0.1636
17143SOL    HW153151   2.419   6.369   0.658  0.0510 -0.9290  0.9137
17143SOL    HW253152   2.468   6.507   0.694  0.0185 -0.1650 -1.7681
17144SOL     OW53153   8.763   6.904   3.864 -0.3240  0.6198  0.0714
17144SOL    HW153154   8.823   6.976   3.883  0.0798  0.0956  0.8002
17144SOL    HW253155   8.788   6.874   3.777 -0.2061  1.0724 -0.0521
17145SOL     OW53156   9.695   6.285   6.343 -0.1228  0.5089  0.0776
17145SOL    HW153157   9.744   6.245   6.415  2.2192  0.6338 -1.3568
17145SOL    HW253158   9.686   6.216   6.278  1.2798  1.4129 -1.1295
17146SOL     OW53159   7.164   4.828   4.860  0.4549  0.7247 -0.1851
17146SOL    HW153160   7.071   4.818   4.880  0.2748  2.9863  0.3366
17146SOL    HW253161   7.168   4.826   4.764  0.1207 -0.9491 -0.2005
17147SOL     OW53162   0.342   0.322   3.816  0.4117  0.5555  0.2950
17147SOL    HW153163   0.315   0.283   3.899 -0.0554 -0.5677 -0.3639
17147SOL    HW253164   0.265   0.313   3.759  1.2825 -0.3099 -0.8031
17148SOL     OW53165   7.980   9.630   3.549  1.0204  0.4203 -0.3037
17148SOL    HW153166   7.964   9.676   3.631 -0.0505 -1.2165  0.4672
17148SOL    HW253167   7.981   9.537   3.574 -1.2866 -0.2648 -2.4020
17149SOL     OW53168   5.092   0.747   3.731  0.0168  0.0880  0.4827
17149SOL    HW153169   5.123   0.735   3.641 -0.0460 -0.1568  0.4931
17149SOL    HW253170   5.002   0.714   3.729  0.2822 -0.6794  0.8266
17150SOL     OW53171   0.438   7.745   0.930  0.3273  0.6221 -0.4633
17150SOL    HW153172   0.382   7.730   1.005 -0.9848  1.2914 -1.2781
17150SOL    HW253173   0.445   7.840   0.923  2.9300  0.6074  0.5651
17151SOL     OW53174   8.359   2.637   3.710  0.1911 -0.3498  0.3731
17151SOL    HW153175   8.351   2.668   3.800  0.4536 -1.4663  0.7906
17151SOL    HW253176   8.389   2.714   3.661 -0.3758  0.3804  1.1471
17152SOL     OW53177   2.186   0.876   3.059 -0.0503 -0.5638 -0.2476
17152SOL    HW153178   2.263   0.931   3.074 -0.2701 -0.3050 -0.0596
17152SOL    HW253179   2.137   0.921   2.991 -0.3517 -0.3954  0.0738
17153SOL     OW53180   2.259   0.910   8.226  0.2141  0.6181  0.2990
17153SOL    HW153181   2.203   0.985   8.248  0.5724  0.2467  2.8289
17153SOL    HW253182   2.198   0.839   8.206 -0.2323  0.6675  1.3980
17154SOL     OW53183   5.176   7.778   6.123 -0.5958 -0.0332  0.1006
17154SOL    HW153184   5.229   7.854   6.145 -2.8203  1.2879  1.3024
17154SOL    HW253185   5.228   7.703   6.153  0.3140  1.2298  1.8750
17155SOL     OW53186   5.273   0.030   7.624 -0.2667  0.0045 -0.2943
17155SOL    HW153187   5.206   0.041   7.556 -0.6205 -0.5137 -0.0358
17155SOL    HW253188   5.351   0.071   7.588  0.4947 -2.9554 -2.3746
17156SOL     OW53189   1.504   9.181   4.751 -0.1378 -0.2139  0.0511
17156SOL    HW153190   1.489   9.223   4.835  0.1032  2.1045 -1.0067
17156SOL    HW253191   1.425   9.201   4.699 -0.9336 -2.8012  0.1015
17157SOL     OW53192   1.753   7.247   7.040 -0.2911  0.4993 -0.1379
17157SOL    HW153193   1.740   7.340   7.022 -0.6800  1.0141  2.4109
17157SOL    HW253194   1.819   7.245   7.109 -0.2420 -1.1360 -0.1918
17158SOL     OW53195   2.283   1.354   4.982  0.5083  0.2771 -0.2511
17158SOL    HW153196   2.327   1.404   4.913  2.3153 -0.2188  0.4990
17158SOL    HW253197   2.255   1.273   4.939  0.9387  0.2996 -0.5781
17159SOL     OW53198   1.132   3.689   7.319 -0.4493 -0.0198  0.5561
17159SOL    HW153199   1.167   3.686   7.408 -0.9246 -0.3539  0.7349
17159SOL    HW253200   1.068   3.619   7.316 -1.0742  0.5528  0.2231
17160SOL     OW53201   9.580   9.332   2.195 -0.3253 -0.4314  0.8265
17160SOL    HW153202   9.601   9.380   2.116  1.6375 -0.7406  1.1025
17160SOL    HW253203   9.555   9.245   2.164  0.1538 -0.4645  0.5236
17161SOL     OW53204   5.875   0.346   2.662  0.3466  0.5555  0.4304
17161SOL    HW153205   5.832   0.357   2.746  1.8417 -2.7417  1.7909
17161SOL    HW253206   5.962   0.313   2.683 -0.0538 -2.9215 -2.3340
17162SOL     OW53207   4.210   2.648   3.405  0.2112  0.7153  0.3267
17162SOL    HW153208   4.160   2.632   3.324  1.5498  0.0108 -0.3798
17162SOL    HW253209   4.186   2.576   3.463  1.5753 -0.5292 -0.6002
17163SOL     OW53210   8.138   2.890   1.537  0.6635 -0.2673 -0.2357
17163SOL    HW153211   8.136   2.806   1.492  0.8666 -1.2747  1.5366
17163SOL    HW253212   8.100   2.872   1.624 -0.4659  1.7577 -0.2405
17164SOL     OW53213   6.915   8.534   7.566 -0.2109  0.2096  0.1200
17164SOL    HW153214   6.964   8.549   7.646  0.0331  1.8816 -0.3037
17164SOL    HW253215   6.824   8.551   7.590 -0.5893 -2.2138  0.7309
17165SOL     OW53216   5.584   9.576   1.246  0.7131 -0.5411 -0.1275
17165SOL    HW153217   5.599   9.658   1.200  1.2731  1.5599  3.4163
17165SOL    HW253218   5.491   9.578   1.270  1.0937 -0.0561  1.3983
17166SOL     OW53219   0.096   4.306   7.087 -0.5307  0.1627 -0.3736
17166SOL    HW153220   0.041   4.310   7.009  0.2920  1.0979 -0.9291
17166SOL    HW253221   0.179   4.345   7.060 -0.2908  0.6859  1.0201
17167SOL     OW53222   4.956   1.861   3.076  0.0517 -0.1014 -0.3544
17167SOL    HW153223   5.003   1.910   3.008 -0.2878  0.7581  0.0231
17167SOL    HW253224   4.875   1.832   3.033 -0.0713  0.2681 -0.3746
17168SOL     OW53225   4.825   8.310   2.325  0.2555 -0.6996 -0.3956
17168SOL    HW153226   4.753   8.324   2.263  0.5774  0.9171 -0.4279
17168SOL    HW253227   4.880   8.388   2.317  1.2737 -1.2817  0.6380
17169SOL     OW53228   8.182   0.744   4.777 -0.2831 -0.4646  0.4765
17169SOL    HW153229   8.164   0.795   4.856  1.1809  0.2903  0.3518
17169SOL    HW253230   8.269   0.707   4.792 -0.0404 -0.4106 -0.7175
17170SOL     OW53231   3.798   5.042   0.404 -0.3729  0.6521 -0.2567
17170SOL    HW153232   3.880   5.079   0.372 -1.0336  1.1252 -1.4893
17170SOL    HW253233   3.780   4.970   0.343 -1.4659  1.3178 -0.7575
17171SOL     OW53234   8.566   8.259   8.493 -0.4771 -0.1211  0.0279
17171SOL    HW153235   8.535   8.318   8.562 -0.0040  1.4429 -1.0615
17171SOL    HW253236   8.608   8.188   8.541  1.4394  1.8089  1.4122
17172SOL     OW53237   0.676   1.726   4.758  0.4732 -0.1588  0.0375
17172SOL    HW153238   0.759   1.755   4.795 -0.0714 -0.0215  1.1733
17172SOL    HW253239   0.641   1.803   4.714  1.3965 -0.4747 -1.3286
17173SOL     OW53240   8.531   6.694   5.705  0.0211  0.0498  0.0305
17173SOL    HW153241   8.527   6.775   5.757 -1.5608  0.5310 -0.7858
17173SOL    HW253242   8.596   6.713   5.637 -1.5217  1.2926 -1.1689
17174SOL     OW53243   3.943   0.718   5.743 -0.5783  0.1100 -0.4045
17174SOL    HW153244   3.910   0.632   5.716 -1.2283 -0.0795  0.8985
17174SOL    HW253245   3.867   0.760   5.784  0.7209 -0.3151  2.6587
17175SOL     OW53246   1.571   3.517   4.588  0.0769 -0.5659 -0.4380
17175SOL    HW153247   1.599   3.567   4.511 -0.6259 -0.1361 -0.4227
17175SOL    HW253248   1.563   3.427   4.556  1.5413 -0.7338 -0.4173
17176SOL     OW53249   0.643   2.496   7.536 -0.3121 -0.1582  0.1462
17176SOL    HW153250   0.574   2.517   7.472 -0.0934 -0.3256 -0.1505
17176SOL    HW253251   0.722   2.487   7.483  0.0673  0.6580  0.5570
17177SOL     OW53252   1.774   8.082   1.437  0.0567  0.1105  0.1360
17177SOL    HW153253   1.686   8.098   1.403  0.0068  2.0710  1.0156
17177SOL    HW253254   1.803   8.002   1.393 -1.6986  0.0693 -1.0566
17178SOL     OW53255   2.547   2.089   7.717  0.3310  0.0294 -0.2266
17178SOL    HW153256   2.571   2.083   7.625  2.1007  1.0363  0.1268
17178SOL    HW253257   2.600   2.022   7.760  2.1594  1.8266  0.4786
17179SOL     OW53258   1.602   4.855   6.155 -0.4357  0.5388  0.8327
17179SOL    HW153259   1.671   4.815   6.102 -0.2265  0.7653  0.9345
17179SOL    HW253260   1.605   4.948   6.132 -2.3533  0.2343 -1.0657
17180SOL     OW53261   1.890   1.724   3.891  0.3052 -0.5969  0.0834
17180SOL    HW153262   1.914   1.656   3.953  0.8389  1.5873  2.4305
17180SOL    HW253263   1.969   1.736   3.837  0.1543 -1.8476 -0.4657
17181SOL     OW53264   2.863   7.343   9.399  0.0618  0.1322 -0.5127
17181SOL    HW153265   2.915   7.419   9.373 -1.9805  1.1870 -1.8487
17181SOL    HW253266   2.900   7.270   9.349  0.6614  0.7056 -0.9323
17182SOL     OW53267   1.780   2.352   5.266 -0.1792 -0.1750 -0.1814
17182SOL    HW153268   1.701   2.373   5.314 -0.1964  0.7438 -0.6013
17182SOL    HW253269   1.849   2.351   5.333 -0.2063  1.0667 -0.1120
17183SOL     OW53270   7.815   7.310   0.656  0.2080  0.1570 -0.0406
17183SOL    HW153271   7.895   7.362   0.651  0.7445 -0.6723 -0.5133
17183SOL    HW253272   7.745   7.373   0.670  0.7623  1.0499 -1.1876
17184SOL     OW53273   2.597   8.218   2.674 -0.1421  0.2190  0.7202
17184SOL    HW153274   2.536   8.159   2.630  1.6073 -2.4166  1.5811
17184SOL    HW253275   2.562   8.228   2.762  0.7838 -1.6695  1.3630
17185SOL     OW53276   3.342   2.499   0.987  0.6896  0.2209 -0.0014
17185SOL    HW153277   3.415   2.561   0.989  1.6624 -0.9284  1.7426
17185SOL    HW253278   3.283   2.529   1.057 -0.3154  0.8437 -1.0658
17186SOL     OW53279   0.378   4.528   2.233 -0.6520 -0.2114 -0.1579
17186SOL    HW153280   0.417   4.462   2.176  1.6845  0.1162  0.9602
17186SOL    HW253281   0.429   4.524   2.313 -1.0549  2.2979  0.3105
17187SOL     OW53282   4.839   1.743   0.322 -0.1878  0.1635 -0.2634
17187SOL    HW153283   4.806   1.655   0.306 -0.9832  0.5538 -0.8406
17187SOL    HW253284   4.777   1.782   0.383  0.6652  0.0286  0.7210
17188SOL     OW53285   2.048   4.420   6.093 -0.1653 -0.1591 -0.3167
17188SOL    HW153286   2.132   4.464   6.081  0.3186 -0.8819  0.3165
17188SOL    HW253287   1.984   4.480   6.054  0.8850 -0.7849 -3.2520
17189SOL     OW53288   5.844   5.354   4.842 -0.0016 -0.0807 -0.6040
17189SOL    HW153289   5.927   5.352   4.793  0.3134 -0.2824 -0.0634
17189SOL    HW253290   5.812   5.443   4.831  0.0421 -0.1370 -1.2254
17190SOL     OW53291   2.294   1.635   6.717 -0.2480 -0.3460  0.3496
17190SOL    HW153292   2.332   1.707   6.667  3.3728 -2.5510 -0.4649
17190SOL    HW253293   2.280   1.566   6.652  0.0735 -1.6706  1.6277
17191SOL     OW53294   3.668   7.780   5.574  0.0042  0.2417  0.4551
17191SOL    HW153295   3.743   7.759   5.518 -0.5678 -0.0854 -0.2042
17191SOL    HW253296   3.612   7.703   5.570 -0.5944  0.6607  0.5696
17192SOL     OW53297   7.704   4.409   6.399 -0.0188 -0.3442 -0.2166
17192SOL    HW153298   7.613   4.379   6.391  0.0314 -0.0765 -2.6823
17192SOL    HW253299   7.701   4.500   6.371  1.0894 -0.5281 -0.9852
17193SOL     OW53300   6.211   3.026   6.839 -0.0733 -0.1421  0.1567
17193SOL    HW153301   6.195   3.027   6.744  0.3291 -0.3197  0.0868
17193SOL    HW253302   6.157   2.953   6.871  0.6458 -0.8092 -0.0958
17194SOL     OW53303   6.717   7.794   1.535 -0.2014 -0.3151  0.1158
17194SOL    HW153304   6.780   7.726   1.510  0.6586 -0.0642  1.5482
17194SOL    HW253305   6.752   7.832   1.615 -1.4862  0.7659  0.1986
17195SOL     OW53306   5.233   8.764   1.548 -0.1170 -0.1884  0.3030
17195SOL    HW153307   5.253   8.743   1.456  1.4469  1.9313  0.0829
17195SOL    HW253308   5.306   8.725   1.597 -2.4619 -4.0483  1.1621
17196SOL     OW53309   6.417   4.471   2.567  0.3624  0.2861 -0.3882
17196SOL    HW153310   6.505   4.508   2.562 -0.1117  1.3491 -1.4086
17196SOL    HW253311   6.376   4.517   2.640 -0.0129  1.3711 -1.2475
17197SOL     OW53312   1.862   6.689   2.870  0.1238 -0.3763  0.7458
17197SOL    HW153313   1.826   6.613   2.824 -0.7978 -0.7304  1.9697
17197SOL    HW253314   1.953   6.666   2.885 -0.1538 -1.3009  1.1588
17198SOL     OW53315   0.732   2.402   2.141  0.0871 -0.0434  0.0473
17198SOL    HW153316   0.680   2.483   2.142 -1.3201 -0.8930  1.3916
17198SOL    HW253317   0.687   2.345   2.078  1.4170  0.3769 -1.3481
17199SOL     OW53318   6.399   4.755   6.723 -0.1575  0.6523  0.2063
17199SOL    HW153319   6.377   4.830   6.668 -1.2858 -0.0538 -0.3298
17199SOL    HW253320   6.464   4.706   6.672  1.0034  1.5255  0.7960
17200SOL     OW53321   8.114   2.267   4.627  0.5869  0.5165 -0.3312
17200SOL    HW153322   8.130   2.361   4.628  0.5039  0.5870 -2.1213
17200SOL    HW253323   8.029   2.258   4.584 -0.4204 -0.2938  1.7080
17201SOL     OW53324   9.562   6.117   9.067  0.4196  0.1745 -0.3081
17201SOL    HW153325   9.580   6.157   8.981 -0.4475 -2.0231 -1.6027
17201SOL    HW253326   9.468   6.127   9.078  0.5250  0.4094  0.3965
17202SOL     OW53327   0.295   3.857   0.450 -0.0098 -0.2655  0.3407
17202SOL    HW153328   0.240   3.787   0.484 -0.0499  0.4948  1.9297
17202SOL    HW253329   0.339   3.893   0.527  1.4447  0.2381 -0.6764
17203SOL     OW53330   7.922   4.508   6.220  0.8687 -0.4953 -0.2355
17203SOL    HW153331   7.904   4.539   6.131  0.5095 -0.6806 -0.2267
17203SOL    HW253332   7.863   4.434   6.233  2.6994 -2.1417 -0.7770
17204SOL     OW53333   1.503   6.319   2.016  0.3869 -0.3775 -0.3801
17204SOL    HW153334   1.577   6.320   1.955 -0.4373 -1.4865 -1.4367
17204SOL    HW253335   1.428   6.348   1.964  0.2212  1.8332  0.9576
17205SOL     OW53336   0.513   8.663   5.646 -0.1530 -0.3514 -0.2995
17205SOL    HW153337   0.516   8.756   5.624 -0.8065 -0.5477 -1.2901
17205SOL    HW253338   0.463   8.659   5.727  0.0849  0.1775 -0.1192
17206SOL     OW53339   3.521   6.274   0.005  0.0474  0.4244  0.2374
17206SOL    HW153340   3.428   6.251   0.018 -0.0301  1.1871  1.1269
17206SOL    HW253341   3.552   6.211  -0.060 -0.9581 -0.1950  0.3327
17207SOL     OW53342   4.044   6.724   2.020 -0.2635  0.2004  0.0462
17207SOL    HW153343   3.967   6.692   1.974  1.2408 -2.0334 -1.1254
17207SOL    HW253344   4.043   6.677   2.104 -0.1959  0.2012  0.0473
17208SOL     OW53345   2.954   2.065   7.826 -0.0821 -0.6799  0.7798
17208SOL    HW153346   3.023   2.066   7.760  0.1348  2.2836  0.9082
17208SOL    HW253347   2.913   1.979   7.817  1.6239 -1.3557 -1.3906
17209SOL     OW53348   6.548   7.868   4.726 -0.3070  0.1832 -0.5902
17209SOL    HW153349   6.578   7.878   4.636  0.9302 -1.9525 -0.4730
17209SOL    HW253350   6.594   7.937   4.775  0.7200 -0.0331 -1.2300
17210SOL     OW53351   8.471   8.148   7.808  0.2504 -0.1323 -0.2354
17210SOL    HW153352   8.451   8.167   7.900 -0.6038 -1.0866 -0.2027
17210SOL    HW253353   8.529   8.072   7.811 -0.3025 -0.5728 -0.4948
17211SOL     OW53354   1.599   3.442   1.974 -0.0122 -0.0874  0.0653
17211SOL    HW153355   1.691   3.462   1.993 -0.1287 -0.6915  1.3577
17211SOL    HW253356   1.601   3.408   1.885  0.9782  0.1582 -0.0288
17212SOL     OW53357   4.251   1.288   4.823  0.0825  0.0105  0.5878
17212SOL    HW153358   4.330   1.332   4.793  1.5136 -2.1150  1.0434
17212SOL    HW253359   4.188   1.359   4.836  2.2278  1.9199  1.2688
17213SOL     OW53360   8.866   7.329   0.221 -0.0673 -0.3033 -0.1473
17213SOL    HW153361   8.808   7.310   0.295  0.0572  1.1267  0.3573
17213SOL    HW253362   8.897   7.418   0.237 -1.1878  0.6502 -2.6629
17214SOL     OW53363   7.234   1.402   6.854  0.2968  0.3260  0.2932
17214SOL    HW153364   7.242   1.426   6.947  0.7232  0.8433  0.1243
17214SOL    HW253365   7.231   1.485   6.808 -0.9983  0.0904 -0.0826
17215SOL     OW53366   5.846   6.449   8.845  0.0142  0.0151 -0.0040
17215SOL    HW153367   5.845   6.539   8.812 -0.0202  0.6083  1.4907
17215SOL    HW253368   5.870   6.459   8.938 -2.1156 -1.3187  0.7487
17216SOL     OW53369   3.655   4.837   5.521 -0.1953  0.0822 -0.4720
17216SOL    HW153370   3.603   4.907   5.562 -0.6097 -0.1045 -0.6760
17216SOL    HW253371   3.745   4.866   5.531 -0.3072  0.1801  0.3151
17217SOL     OW53372   5.064   8.309   0.309  0.1527  0.2407 -0.2375
17217SOL    HW153373   5.052   8.264   0.392 -0.3126  1.4350  0.3556
17217SOL    HW253374   4.987   8.284   0.257  0.2991 -0.2766 -0.2071
17218SOL     OW53375   7.354   5.745   3.139 -0.3669  0.1462 -0.2152
17218SOL    HW153376   7.260   5.742   3.122 -0.4826 -1.3113  0.5609
17218SOL    HW253377   7.367   5.689   3.215  1.2113 -0.1272 -0.6481
17219SOL     OW53378   1.435   0.193   0.810  0.1255 -0.0077 -0.0735
17219SOL    HW153379   1.487   0.117   0.784 -0.1737  0.3360 -1.7524
17219SOL    HW253380   1.347   0.158   0.823  0.4582 -0.3542  1.5391
17220SOL     OW53381   2.498   2.836   0.590 -0.0869  0.2618  0.0648
17220SOL    HW153382   2.590   2.856   0.574 -0.4964 -0.0774 -3.6482
17220SOL    HW253383   2.490   2.742   0.572 -1.1810  0.3365  0.0724
17221SOL     OW53384   6.467   0.210   5.702  0.2972  0.1837 -0.5630
17221SOL    HW153385   6.492   0.131   5.750  1.4925  1.7609  1.5954
17221SOL    HW253386   6.439   0.178   5.616  0.2178 -2.6012  0.3991
17222SOL     OW53387   3.846   3.440   0.470  0.1085  0.2520 -0.1543
17222SOL    HW153388   3.821   3.367   0.526  0.3778 -0.2138 -0.6337
17222SOL    HW253389   3.785   3.436   0.396  0.3775  0.2685 -0.3804
17223SOL     OW53390   1.104   5.544   5.495 -0.1973  0.2183 -0.3730
17223SOL    HW153391   1.103   5.562   5.401  0.5008 -2.2309 -0.9193
17223SOL    HW253392   1.037   5.476   5.507 -1.0656  1.2635  1.1181
17224SOL     OW53393   2.106   6.628   6.189 -0.4542  0.0249  0.1073
17224SOL    HW153394   2.047   6.591   6.123 -1.6492  2.1587 -0.1286
17224SOL    HW253395   2.190   6.637   6.144 -1.2017  1.2587 -1.1224
17225SOL     OW53396   2.900   6.786   7.811  0.1626  0.3962 -0.0930
17225SOL    HW153397   2.871   6.695   7.812  0.3363  0.3388 -0.2320
17225SOL    HW253398   2.992   6.783   7.838 -0.2050  0.6669  1.2539
17226SOL     OW53399   3.477   3.708   7.284  0.0739 -0.1071 -0.0097
17226SOL    HW153400   3.411   3.678   7.223  0.9075 -2.8286  0.2803
17226SOL    HW253401   3.560   3.684   7.243  0.7071 -0.2122  1.2754
17227SOL     OW53402   2.749   6.268   4.609  0.0267  0.4477  0.5556
17227SOL    HW153403   2.671   6.232   4.653 -0.3321  0.2643 -0.2122
17227SOL    HW253404   2.811   6.284   4.680 -0.4565 -0.0612  1.1093
17228SOL     OW53405   4.289   9.539   7.580  0.5226  0.4458 -0.0032
17228SOL    HW153406   4.368   9.485   7.574 -0.2974 -0.7663 -0.5354
17228SOL    HW253407   4.217   9.477   7.566 -0.8150  0.7341  4.0952
17229SOL     OW53408   5.185   5.819   3.158 -0.4896 -0.4053  0.2111
17229SOL    HW153409   5.187   5.724   3.145  0.4092 -0.4613  0.6586
17229SOL    HW253410   5.240   5.834   3.235 -0.9059  0.4522  0.3541
17230SOL     OW53411   4.687   4.764   1.771  0.2338 -0.1472 -0.0152
17230SOL    HW153412   4.619   4.785   1.708 -0.7897 -1.6572  0.5216
17230SOL    HW253413   4.763   4.741   1.718 -0.1182  0.1437 -0.6536
17231SOL     OW53414   4.145   1.210   3.896 -0.9912  0.3203 -0.0788
17231SOL    HW153415   4.069   1.216   3.837 -0.5252  0.7045 -0.6557
17231SOL    HW253416   4.116   1.253   3.976 -0.6958  2.4588 -1.0458
17232SOL     OW53417   2.747   7.831   4.553  0.5992  0.0899 -0.1072
17232SOL    HW153418   2.839   7.830   4.581  0.3218 -0.6610  0.8558
17232SOL    HW253419   2.747   7.881   4.472  1.7725  0.5989  0.1845
17233SOL     OW53420   9.350   0.325   2.399 -0.1867  0.3090  0.5600
17233SOL    HW153421   9.290   0.250   2.396  0.0656  0.0911  0.8271
17233SOL    HW253422   9.428   0.291   2.443  0.5013  0.3185 -0.5953
17234SOL     OW53423   5.961   4.042   7.651  0.2821 -0.2215  0.2938
17234SOL    HW153424   5.886   4.090   7.688 -0.5851 -0.3694 -1.2100
17234SOL    HW253425   5.944   3.951   7.675 -1.2262 -0.5822 -1.8660
17235SOL     OW53426   2.445   5.458   2.026  0.2399  0.1221 -0.1937
17235SOL    HW153427   2.483   5.545   2.011 -0.7284  0.8863  1.4280
17235SOL    HW253428   2.447   5.415   1.941  2.5974  0.9619 -0.6294
17236SOL     OW53429   6.837   3.299   7.490 -0.2201  0.6418  0.1407
17236SOL    HW153430   6.835   3.341   7.576 -1.2127 -1.1214  1.0394
17236SOL    HW253431   6.823   3.206   7.508 -1.6236  0.3514 -1.9887
17237SOL     OW53432   2.467   3.869   7.625  0.0709  0.3745 -0.4646
17237SOL    HW153433   2.465   3.938   7.691 -2.4879  0.2838 -0.3585
17237SOL    HW253434   2.375   3.852   7.605  0.6976 -1.5831 -1.9986
17238SOL     OW53435   5.988   8.212   9.597 -0.2433 -0.2908 -0.2268
17238SOL    HW153436   5.958   8.144   9.658 -0.4495  0.6330  0.7258
17238SOL    HW253437   6.079   8.228   9.621 -0.0296 -0.6022 -0.8074
17239SOL     OW53438   5.865   8.890   6.796  0.0330  0.4098 -0.3371
17239SOL    HW153439   5.809   8.920   6.725 -0.6559  0.1252  0.0762
17239SOL    HW253440   5.940   8.849   6.752 -0.3641  0.2774 -0.8943
17240SOL     OW53441   1.617   2.637   6.347  0.3566  0.0386 -0.2694
17240SOL    HW153442   1.671   2.648   6.269  0.0920  1.8318 -0.2285
17240SOL    HW253443   1.583   2.724   6.366 -1.7550 -0.8460  0.3084
17241SOL     OW53444   3.609   5.533   8.508  0.0232 -0.2212  0.0769
17241SOL    HW153445   3.535   5.546   8.567 -0.2697  2.7705 -0.8127
17241SOL    HW253446   3.569   5.501   8.427  0.0064 -0.8082  0.3096
17242SOL     OW53447   1.279   8.395   4.192  0.3740 -0.3687 -0.7266
17242SOL    HW153448   1.269   8.472   4.137  0.1282  0.0226 -0.1455
17242SOL    HW253449   1.197   8.390   4.242  1.5592  0.8390  1.5234
17243SOL     OW53450   3.693   2.182   7.606  0.8298 -0.0242  0.6514
17243SOL    HW153451   3.678   2.276   7.612 -0.3079 -0.2304  1.3222
17243SOL    HW253452   3.759   2.172   7.537  2.6983  1.4169  2.1287
17244SOL     OW53453   6.024   8.623   2.148 -0.7472  0.0691  0.3020
17244SOL    HW153454   6.089   8.682   2.110  0.7314 -1.6375  0.0678
17244SOL    HW253455   5.971   8.680   2.205 -0.0642  1.7935 -0.6992
17245SOL     OW53456   2.149   4.294   5.055  0.1985 -0.0164  0.5109
17245SOL    HW153457   2.095   4.219   5.033  0.6206 -0.1717 -0.0402
17245SOL    HW253458   2.094   4.370   5.038  0.2791 -0.1583 -0.4598
17246SOL     OW53459   7.459   5.667   1.842  0.0956  0.3488  0.4716
17246SOL    HW153460   7.517   5.653   1.916 -0.5520  0.1272  0.9435
17246SOL    HW253461   7.430   5.758   1.851  1.8502  1.1034 -0.8445
17247SOL     OW53462   0.479   7.915   3.984  0.0466 -0.3448 -0.0638
17247SOL    HW153463   0.397   7.964   3.987  1.0291  1.4070 -0.6257
17247SOL    HW253464   0.519   7.939   3.900  0.4017 -2.4380 -0.5616
17248SOL     OW53465   3.712   4.229   3.211  0.7704  0.7127  0.1241
17248SOL    HW153466   3.673   4.142   3.199  1.2783  0.2418  1.5921
17248SOL    HW253467   3.795   4.224   3.164  0.5857  0.5514 -0.1855
17249SOL     OW53468   3.787   7.767   8.735 -0.0365 -0.3489  0.0429
17249SOL    HW153469   3.708   7.786   8.684  0.7887 -0.4214 -1.3120
17249SOL    HW253470   3.859   7.788   8.676  0.9536 -1.8241  0.6750
17250SOL     OW53471   0.692   9.412   1.236 -0.0088 -0.1390 -0.5703
17250SOL    HW153472   0.703   9.414   1.141 -0.5866  0.9605 -0.6274
17250SOL    HW253473   0.663   9.500   1.259  1.6209  0.1011  0.8224
17251SOL     OW53474   0.060   6.759   3.257 -0.6439  0.1213  0.0388
17251SOL    HW153475  -0.016   6.747   3.200 -0.5373  0.2858 -0.1396
17251SOL    HW253476   0.113   6.680   3.244 -0.5495  0.2226 -0.1980
17252SOL     OW53477   1.303   6.229   4.039 -0.2251 -0.0727  0.0351
17252SOL    HW153478   1.226   6.247   4.094  0.3580  0.2171  0.7669
17252SOL    HW253479   1.378   6.242   4.097  0.3474 -2.6972  0.0156
17253SOL     OW53480   8.187   1.609   9.293  0.5565  0.0483  0.9896
17253SOL    HW153481   8.264   1.576   9.340 -1.3652 -3.3529  2.0371
17253SOL    HW253482   8.190   1.565   9.208 -0.1488  0.0416  0.9675
17254SOL     OW53483   5.017   8.537   4.724 -0.4739  0.6894  0.4389
17254SOL    HW153484   5.007   8.556   4.631 -0.3011 -0.6177  0.1410
17254SOL    HW253485   4.927   8.533   4.757 -0.5248  1.6171  0.4403
17255SOL     OW53486   7.017   3.747   4.965 -0.1815 -0.3420 -0.5291
17255SOL    HW153487   7.014   3.748   4.869  0.0477  0.2997 -0.5298
17255SOL    HW253488   7.034   3.838   4.990  0.1214 -0.5697  0.1105
17256SOL     OW53489   5.419   4.876   0.168  0.9291 -0.5082  0.0618
17256SOL    HW153490   5.500   4.916   0.137  0.2562  0.1477 -0.9353
17256SOL    HW253491   5.444   4.825   0.245  2.0606  0.7624  0.5751
17257SOL     OW53492   1.014   8.394   5.352 -0.1234  0.8160 -0.5857
17257SOL    HW153493   0.939   8.425   5.403  0.1565 -1.2462  1.1960
17257SOL    HW253494   1.077   8.364   5.417  0.7792 -0.7915 -2.1110
17258SOL     OW53495   7.535   3.111   1.225  0.2636  0.0424 -0.0331
17258SOL    HW153496   7.487   3.136   1.304  1.4109 -3.3060  1.9099
17258SOL    HW253497   7.477   3.137   1.153 -2.3468  0.3137  2.0134
17259SOL     OW53498   2.676   8.132   4.006  0.0202 -0.4273  0.0423
17259SOL    HW153499   2.699   8.050   3.963 -2.1156 -1.2269  0.3152
17259SOL    HW253500   2.649   8.190   3.935  1.8710  0.2138 -0.1875
17260SOL     OW53501   4.879   1.394   3.612  0.4458 -0.6190  0.2890
17260SOL    HW153502   4.912   1.337   3.542  1.8934 -1.2391  1.4289
17260SOL    HW253503   4.784   1.396   3.598  0.6406 -1.1001 -1.3952
17261SOL     OW53504   4.696   3.191   0.697 -0.3316 -0.2124  0.3538
17261SOL    HW153505   4.689   3.108   0.745  3.8559 -0.8638  0.2790
17261SOL    HW253506   4.729   3.253   0.762  2.3005 -0.2813 -0.7618
17262SOL     OW53507   4.312   9.376   5.851  0.4056  0.6320  0.0756
17262SOL    HW153508   4.296   9.371   5.945  0.3052  0.0031  0.0311
17262SOL    HW253509   4.257   9.307   5.814  0.7685  0.5966 -0.4050
17263SOL     OW53510   5.417   9.497   5.703  1.6299  0.5108  0.0228
17263SOL    HW153511   5.486   9.438   5.673  1.0349  0.0969 -0.5439
17263SOL    HW253512   5.384   9.538   5.623  0.9816  0.4484  0.2551
17264SOL     OW53513   0.409   0.070   9.501  0.1921 -0.9564 -0.1058
17264SOL    HW153514   0.414  -0.013   9.453  1.8245  0.0191 -1.7932
17264SOL    HW253515   0.448   0.134   9.441  0.4103  0.7546  1.7637
17265SOL     OW53516   8.782   0.131   8.886  0.4859  0.4904 -0.0230
17265SOL    HW153517   8.730   0.140   8.966  1.8606 -1.1768  1.1337
17265SOL    HW253518   8.723   0.090   8.823 -0.7826  2.3177 -0.1180
17266SOL     OW53519   3.451   0.974   8.207  0.1377  0.2215  0.3195
17266SOL    HW153520   3.546   0.960   8.212  0.4069  2.0852  1.4027
17266SOL    HW253521   3.417   0.937   8.289 -0.1909 -1.0499 -0.3664
17267SOL     OW53522   6.217   5.385   0.755 -0.1667  0.1187  0.4510
17267SOL    HW153523   6.124   5.380   0.734 -0.2736  0.3980  0.8500
17267SOL    HW253524   6.261   5.390   0.670 -0.5544  0.5863  0.2729
17268SOL     OW53525   0.502   9.577   6.856 -0.4115 -0.0509 -0.5591
17268SOL    HW153526   0.426   9.632   6.874 -0.9998 -0.6238 -1.2210
17268SOL    HW253527   0.488   9.546   6.766  0.2552 -0.7104 -0.4439
17269SOL     OW53528   8.767   1.386   4.221 -0.0280  0.4747 -0.2555
17269SOL    HW153529   8.731   1.469   4.191  1.4795  1.1598 -0.2505
17269SOL    HW253530   8.818   1.354   4.147  0.8648  0.4428  0.3624
17270SOL     OW53531   5.788   4.603   4.177 -0.0840  0.4565  0.1262
17270SOL    HW153532   5.869   4.638   4.140  1.0902 -0.4396  1.7640
17270SOL    HW253533   5.816   4.539   4.243 -2.0801  1.0699  1.6869
17271SOL     OW53534   8.709   4.857   3.373  0.3766  0.1684  0.1023
17271SOL    HW153535   8.643   4.919   3.405 -1.1472 -1.2140 -0.2273
17271SOL    HW253536   8.727   4.801   3.448  0.5242 -0.0110 -0.0676
17272SOL     OW53537   0.726   8.778   3.422  0.1201 -0.0370  0.1433
17272SOL    HW153538   0.664   8.838   3.380 -2.0490 -1.4569  1.1021
17272SOL    HW253539   0.724   8.803   3.515 -0.5610 -1.3017  0.5008
17273SOL     OW53540   0.862   0.056   1.212 -0.2053  0.1432  0.3859
17273SOL    HW153541   0.923  -0.017   1.218 -0.0041  0.3229  0.5066
17273SOL    HW253542   0.775   0.015   1.218 -0.1958 -0.3729 -2.0305
17274SOL     OW53543   3.343   1.989   1.373  0.5689  0.1931 -0.1981
17274SOL    HW153544   3.321   1.943   1.292  0.2741 -0.6585  0.3528
17274SOL    HW253545   3.434   1.964   1.391  0.5505  0.1742 -0.1310
17275SOL     OW53546   3.161   0.948   0.746 -0.2756 -0.3956  0.1043
17275SOL    HW153547   3.145   0.961   0.652 -0.6015 -4.1575 -0.4861
17275SOL    HW253548   3.080   0.975   0.788 -0.3224  0.8155 -0.6866
17276SOL     OW53549   6.929   9.655   5.146 -0.1401 -0.1438  0.0044
17276SOL    HW153550   6.929   9.593   5.219 -1.8834  1.4193  1.4079
17276SOL    HW253551   6.996   9.720   5.170 -1.1772  0.7376  0.5897
17277SOL     OW53552   2.753   0.875   3.435 -0.0490  0.0498  0.2526
17277SOL    HW153553   2.681   0.821   3.468  0.2936  0.2684  1.4276
17277SOL    HW253554   2.742   0.960   3.479  0.4429  0.3490 -0.1903
17278SOL     OW53555   8.946   5.419   0.794  0.3894 -0.4013 -0.1563
17278SOL    HW153556   9.027   5.401   0.746  0.8806 -0.6160  0.7437
17278SOL    HW253557   8.878   5.421   0.726  1.2379  0.4717 -1.0142
17279SOL     OW53558   4.429   8.563   2.142 -0.4035 -0.0480 -0.1268
17279SOL    HW153559   4.368   8.607   2.201  0.5878 -1.0277  1.7237
17279SOL    HW253560   4.372   8.517   2.080 -1.5326  0.1002  0.7533
17280SOL     OW53561   1.009   4.599   7.227 -0.3165 -0.0786 -0.4137
17280SOL    HW153562   1.031   4.574   7.316  1.0321 -0.1788 -0.7614
17280SOL    HW253563   0.942   4.667   7.237 -1.3490 -1.2261  0.6119
17281SOL     OW53564   1.238   3.142   2.301  0.3750  0.2348 -0.0683
17281SOL    HW153565   1.247   3.237   2.304  2.1789  0.0756  0.8431
17281SOL    HW253566   1.328   3.109   2.304 -0.1713 -1.4969 -1.0679
17282SOL     OW53567   3.804   8.068   2.310 -0.1893 -0.1712 -0.2178
17282SOL    HW153568   3.863   8.060   2.385  0.1100 -0.2451 -0.4610
17282SOL    HW253569   3.833   8.001   2.249 -1.0540 -0.7649  0.0064
17283SOL     OW53570   5.154   3.320   4.289 -0.3171  0.1348  0.3849
17283SOL    HW153571   5.171   3.288   4.201 -1.3106  1.8789 -0.4882
17283SOL    HW253572   5.194   3.254   4.346  1.6496 -0.2971 -1.3558
17284SOL     OW53573   6.306   3.546   7.488 -0.1470 -0.3320  0.2172
17284SOL    HW153574   6.284   3.463   7.529 -0.5030 -0.1646  0.3766
17284SOL    HW253575   6.228   3.600   7.500 -0.1418 -0.1697 -0.3988
17285SOL     OW53576   2.611   5.754   9.640  1.0762 -0.0034 -0.1699
17285SOL    HW153577   2.633   5.674   9.592  1.0972  0.7174 -1.4013
17285SOL    HW253578   2.533   5.788   9.597  1.2414  0.8064  0.1395
17286SOL     OW53579   6.272   5.686   8.676 -0.4105  0.1485  0.4033
17286SOL    HW153580   6.274   5.707   8.770 -0.3167  0.2120  0.3879
17286SOL    HW253581   6.358   5.712   8.644  0.0195 -1.0290  0.5436
17287SOL     OW53582   3.205   2.203   8.748  0.1614 -0.1363  0.3866
17287SOL    HW153583   3.231   2.245   8.666  1.4846  0.5271  1.1131
17287SOL    HW253584   3.282   2.209   8.804 -0.7381 -0.4949  1.7229
17288SOL     OW53585   4.165   4.566   0.677 -0.0303 -0.6437  0.1547
17288SOL    HW153586   4.095   4.604   0.623  0.4555  0.7104  0.4546
17288SOL    HW253587   4.159   4.472   0.660 -2.2637 -0.6206  0.5862
17289SOL     OW53588   6.331   2.053   1.220 -0.4248 -0.1208 -0.6922
17289SOL    HW153589   6.276   2.058   1.298 -1.0131  2.6660 -1.1788
17289SOL    HW253590   6.419   2.071   1.252 -0.7940  1.9863 -0.6961
17290SOL     OW53591   9.310   7.428   2.511  0.6108 -0.3674  0.4510
17290SOL    HW153592   9.379   7.450   2.573 -0.0947  1.2218  0.7388
17290SOL    HW253593   9.289   7.337   2.530  1.7443 -0.4949  1.2160
17291SOL     OW53594   3.678   5.311   7.803 -0.6169 -0.3502 -0.5750
17291SOL    HW153595   3.627   5.314   7.722 -0.9906 -1.3537 -0.3785
17291SOL    HW253596   3.638   5.379   7.858 -0.3333  0.3711 -1.2286
17292SOL     OW53597   2.529   6.622   8.485 -0.1913  0.5769  0.3799
17292SOL    HW153598   2.501   6.703   8.528 -0.2763  1.0260 -0.5035
17292SOL    HW253599   2.608   6.596   8.532 -0.5535  0.7829  1.1224
17293SOL     OW53600   3.088   7.113   7.196 -0.0679  0.3638  1.4103
17293SOL    HW153601   3.046   7.180   7.250 -1.3402 -1.0230  2.1941
17293SOL    HW253602   3.018   7.052   7.173  0.3837  0.9146 -1.9667
17294SOL     OW53603   2.823   1.096   2.087 -0.0558  0.2243  0.6630
17294SOL    HW153604   2.905   1.086   2.136  0.3757  0.4547  0.0106
17294SOL    HW253605   2.850   1.091   1.995 -0.4128  2.6075  0.3594
17295SOL     OW53606   8.506   5.441   0.882 -0.2874  0.4530 -0.5162
17295SOL    HW153607   8.423   5.449   0.929 -0.8527  0.6727 -1.5300
17295SOL    HW253608   8.481   5.430   0.790  0.6157 -3.5073 -0.4712
17296SOL     OW53609   9.217   1.907   5.051 -0.7032 -0.0989  0.2782
17296SOL    HW153610   9.276   1.948   5.113  1.2448 -0.8579 -0.9674
17296SOL    HW253611   9.208   1.970   4.980  0.5560 -0.8965 -0.6294
17297SOL     OW53612   1.009   4.489   6.370 -0.0214 -0.5543  0.1822
17297SOL    HW153613   1.090   4.497   6.419 -0.4259  2.8895  0.5124
17297SOL    HW253614   0.962   4.570   6.387 -3.8957 -2.6224  0.5339
17298SOL     OW53615   8.125   7.328   7.264 -0.6794 -0.0060  0.1367
17298SOL    HW153616   8.088   7.320   7.352  0.7660  0.3854  0.8010
17298SOL    HW253617   8.219   7.339   7.278 -0.4562  0.3387 -1.4509
17299SOL     OW53618   6.019   0.771   3.993 -0.5910  0.1952 -0.7090
17299SOL    HW153619   6.064   0.692   4.021 -0.5337  0.9675  1.6365
17299SOL    HW253620   5.965   0.796   4.068 -0.0456  2.7613 -1.0612
17300SOL     OW53621   1.119   7.485   7.280  0.1696  0.0419  0.6074
17300SOL    HW153622   1.043   7.525   7.322 -0.9938 -0.8799 -0.5568
17300SOL    HW253623   1.180   7.558   7.267  0.0225  0.5769  2.6511
17301SOL     OW53624   5.067   8.593   4.443  0.1613  0.0358 -0.5885
17301SOL    HW153625   4.997   8.642   4.401  0.6236  0.6433 -0.6677
17301SOL    HW253626   5.146   8.615   4.393  0.3057 -1.1899 -0.9439
17302SOL     OW53627   6.539   6.343   7.216 -0.0766  0.5302 -0.6759
17302SOL    HW153628   6.501   6.426   7.187  0.4301  1.0493  0.1032
17302SOL    HW253629   6.469   6.302   7.268  0.5328  1.7165  1.1869
17303SOL     OW53630   8.476   6.848   3.226  0.3522 -0.4444  0.5505
17303SOL    HW153631   8.502   6.889   3.309 -0.7743  0.7681  0.3263
17303SOL    HW253632   8.398   6.797   3.248  0.3980 -0.6068  0.3429
17304SOL     OW53633   0.437   0.824   1.248  0.1347 -0.2855 -0.0716
17304SOL    HW153634   0.440   0.873   1.331 -0.4080  0.2029 -0.3333
17304SOL    HW253635   0.525   0.832   1.213  0.7142 -1.4990  1.0215
17305SOL     OW53636   6.561   4.114   1.916 -0.1438  0.0957  0.4994
17305SOL    HW153637   6.616   4.062   1.974 -0.1954 -1.0108 -0.4189
17305SOL    HW253638   6.614   4.192   1.897 -0.1382  0.4793  2.0259
17306SOL     OW53639   0.791   8.603   8.665  0.1220  0.1088  0.2290
17306SOL    HW153640   0.753   8.516   8.669 -0.1928  0.2556  0.5423
17306SOL    HW253641   0.724   8.660   8.703 -0.2039  0.6690 -1.1129
17307SOL     OW53642   3.594   3.633   8.245  0.1796  0.1394  0.3920
17307SOL    HW153643   3.645   3.552   8.240 -0.2038 -0.0136 -1.4975
17307SOL    HW253644   3.509   3.610   8.208  0.0790  1.4097 -0.2125
17308SOL     OW53645   3.074   2.292   4.856 -0.1630 -0.1468  0.5756
17308SOL    HW153646   3.040   2.295   4.767  3.0129 -0.6735 -0.7759
17308SOL    HW253647   3.070   2.382   4.886  0.5027  0.3789 -0.8473
17309SOL     OW53648   0.647   8.021   8.066 -0.3736  0.2407 -0.0776
17309SOL    HW153649   0.649   8.062   8.153 -1.2687  3.5194 -1.4478
17309SOL    HW253650   0.737   7.994   8.050  0.0731  0.8034  1.3287
17310SOL     OW53651   0.307   0.488   5.763 -0.4370  0.3772 -0.6518
17310SOL    HW153652   0.299   0.442   5.846  2.1307  1.7140  0.4605
17310SOL    HW253653   0.297   0.581   5.785 -0.7689  0.6969 -2.0221
17311SOL     OW53654   0.568   6.456   0.297 -0.0386  0.0011  0.0288
17311SOL    HW153655   0.651   6.464   0.249  0.0279  1.3164  0.3143
17311SOL    HW253656   0.594   6.426   0.384 -0.0734 -1.5142 -0.4583
17312SOL     OW53657   3.302   5.187   6.701  0.6000 -0.2756  0.0477
17312SOL    HW153658   3.366   5.228   6.644  1.6350  0.2449  1.5157
17312SOL    HW253659   3.244   5.258   6.728  0.6925 -0.3273  0.3887
17313SOL     OW53660   8.042   9.063   2.558 -0.0721 -0.3358  0.2047
17313SOL    HW153661   8.044   9.050   2.653 -2.5985 -1.1527  0.2265
17313SOL    HW253662   7.962   9.018   2.530 -1.2011  2.6849 -1.8620
17314SOL     OW53663   7.084   1.200   6.739 -0.1919  0.1287  0.0440
17314SOL    HW153664   7.126   1.278   6.776 -0.2449 -0.6956  1.9245
17314SOL    HW253665   7.155   1.135   6.733 -0.5816 -0.3345  0.4345
17315SOL     OW53666   4.600   0.659   8.819  0.3835  0.0381  0.5217
17315SOL    HW153667   4.560   0.587   8.866 -0.6717 -0.1101 -0.5532
17315SOL    HW253668   4.694   0.646   8.831  0.1884 -1.0191  1.0466
17316SOL     OW53669   8.612   6.933   9.124 -0.4977  0.8443 -0.0355
17316SOL    HW153670   8.535   6.904   9.173  0.4022 -1.9829 -0.1366
17316SOL    HW253671   8.604   6.890   9.039  2.0243 -0.9914  0.5633
17317SOL     OW53672   5.673   3.091   5.162 -0.2566  0.1604  0.0608
17317SOL    HW153673   5.691   3.034   5.087  1.2287 -0.8196  1.1029
17317SOL    HW253674   5.612   3.040   5.216  1.6631 -0.8765  1.3739
17318SOL     OW53675   7.747   2.350   1.874  1.0297  0.3591 -0.3786
17318SOL    HW153676   7.778   2.415   1.937  0.2080 -0.2097  0.6493
17318SOL    HW253677   7.684   2.398   1.820  0.6758  0.5194  0.1618
17319SOL     OW53678   5.651   1.289   1.528 -0.4638  0.2702  0.2725
17319SOL    HW153679   5.614   1.266   1.443  0.2711  1.0004 -0.2559
17319SOL    HW253680   5.655   1.385   1.528  0.0594  0.2599  0.8954
17320SOL     OW53681   4.451   8.722   2.733 -0.5045 -0.6679  0.6095
17320SOL    HW153682   4.417   8.633   2.720  0.6144 -1.0895  0.3786
17320SOL    HW253683   4.534   8.723   2.683 -1.4926  1.1727 -1.1521
17321SOL     OW53684   6.621   1.084   4.990  0.2348 -0.0774 -0.1301
17321SOL    HW153685   6.690   1.025   5.020 -0.3530 -0.7958 -0.1394
17321SOL    HW253686   6.546   1.062   5.046  0.0791  0.8472  0.0353
17322SOL     OW53687   7.712   0.404   3.197 -0.2991 -0.4726  0.5304
17322SOL    HW153688   7.743   0.336   3.136  1.1266  0.1920  0.4705
17322SOL    HW253689   7.738   0.486   3.157 -2.2585  0.1691  0.4719
17323SOL     OW53690   4.243   7.022   5.888 -0.6359 -0.8902  0.1608
17323SOL    HW153691   4.187   7.070   5.827  2.4564  1.1844 -1.3047
17323SOL    HW253692   4.249   7.079   5.964  0.8938 -0.1644 -0.4682
17324SOL     OW53693   5.559   0.823   7.109 -0.1613  0.1770 -0.5594
17324SOL    HW153694   5.562   0.818   7.205 -1.0151  1.1689 -0.4633
17324SOL    HW253695   5.597   0.740   7.080 -1.4529 -0.9016  0.6571
17325SOL     OW53696   1.260   0.221   5.575 -0.2970  0.0686  0.0542
17325SOL    HW153697   1.241   0.303   5.528 -3.9568 -1.4691 -1.5545
17325SOL    HW253698   1.331   0.181   5.525  0.5485  1.5768 -0.0089
17326SOL     OW53699   7.668   8.856   8.640 -0.0646  0.2190 -1.1765
17326SOL    HW153700   7.644   8.850   8.732  0.2273 -0.1594 -1.1252
17326SOL    HW253701   7.701   8.769   8.617  0.5773  0.5223 -1.4377
17327SOL     OW53702   6.557   8.249   6.064 -0.6191 -0.3829  0.2300
17327SOL    HW153703   6.555   8.220   6.155 -1.5280  0.2634  0.4327
17327SOL    HW253704   6.473   8.293   6.051  0.2435  1.1938 -0.3579
17328SOL     OW53705   6.260   8.798   9.183  0.5291  0.5534 -0.1554
17328SOL    HW153706   6.206   8.853   9.239  0.1931  0.1487 -0.0725
17328SOL    HW253707   6.282   8.853   9.108 -0.6993  0.4545 -0.6000
17329SOL     OW53708   0.121   1.371   2.965 -0.0941  0.2579 -0.0296
17329SOL    HW153709   0.184   1.301   2.986  0.0807 -0.1210 -1.6520
17329SOL    HW253710   0.036   1.327   2.965  0.0369 -0.0352 -1.2505
17330SOL     OW53711   6.397   5.538   8.307  0.1461 -0.7878  0.4167
17330SOL    HW153712   6.491   5.551   8.291  0.2516 -0.9677  0.8873
17330SOL    HW253713   6.374   5.605   8.372 -0.3254  0.0629 -0.5882
17331SOL     OW53714   3.374   8.393   0.200  0.0251 -0.3757 -0.1858
17331SOL    HW153715   3.419   8.352   0.125 -0.5018  0.2022 -0.8258
17331SOL    HW253716   3.444   8.407   0.264  0.4747 -0.9458 -0.5348
17332SOL     OW53717   0.177   8.029   7.478  0.1238  0.2148 -0.3641
17332SOL    HW153718   0.157   8.068   7.564 -0.6429 -0.8688 -0.0353
17332SOL    HW253719   0.173   8.103   7.417 -1.4951  0.6288  0.2131
17333SOL     OW53720   8.946   1.550   4.877  0.0618 -0.0332  0.1500
17333SOL    HW153721   8.897   1.539   4.958 -0.7750 -0.2484 -0.3692
17333SOL    HW253722   8.888   1.602   4.821 -0.2911 -1.6048 -1.0426
17334SOL     OW53723   9.361   3.895   7.359  0.0288 -0.5948 -0.5076
17334SOL    HW153724   9.450   3.921   7.382  1.3025 -3.6044 -1.6323
17334SOL    HW253725   9.318   3.882   7.444  0.0383  2.4453  0.0766
17335SOL     OW53726   4.190   2.913   3.474  0.1863  0.0844 -0.5927
17335SOL    HW153727   4.216   2.824   3.451 -0.4479 -0.6740  1.4116
17335SOL    HW253728   4.096   2.907   3.489  0.4436  0.6341  1.4452
17336SOL     OW53729   1.155   7.699   5.895  0.2418 -0.2080 -0.0372
17336SOL    HW153730   1.238   7.732   5.928  0.7660 -0.4676 -1.0503
17336SOL    HW253731   1.178   7.650   5.816 -0.7546 -1.1708  0.2365
17337SOL     OW53732   7.879   2.989   8.815 -0.2684  0.0250 -0.4893
17337SOL    HW153733   7.963   2.943   8.809  0.0937  0.6721 -0.5184
17337SOL    HW253734   7.876   3.022   8.905 -0.6781 -0.3358 -0.3683
17338SOL     OW53735   9.249   3.552   3.454  0.5238 -0.2172 -0.1213
17338SOL    HW153736   9.190   3.576   3.525  0.9306 -0.2268  0.2228
17338SOL    HW253737   9.240   3.623   3.390  0.5255  0.0352  0.1599
17339SOL     OW53738   0.398   0.100   1.118 -0.1732  0.2111 -0.0565
17339SOL    HW153739   0.315   0.064   1.148 -0.4681  1.1782  0.3337
17339SOL    HW253740   0.382   0.194   1.109  0.9780  0.4801  0.4235
17340SOL     OW53741   8.537   5.329   1.599 -0.5074  0.1234  0.2852
17340SOL    HW153742   8.592   5.264   1.642 -0.0209  1.2858  1.4991
17340SOL    HW253743   8.462   5.339   1.658 -0.0574  1.4051  0.6676
17341SOL     OW53744   4.936   0.281   6.073 -0.0496  0.2147  0.1537
17341SOL    HW153745   4.864   0.333   6.110  0.2965  0.5600  0.3559
17341SOL    HW253746   4.936   0.200   6.123 -0.2564  0.2442  0.2007
17342SOL     OW53747   7.928   9.072   6.042  0.5129  0.2572  0.8080
17342SOL    HW153748   7.859   9.013   6.012 -0.0363  1.5618 -0.6182
17342SOL    HW253749   8.000   9.058   5.981 -0.0085  1.7801 -0.1902
17343SOL     OW53750   9.222   3.915   2.882  0.5141  0.1420 -0.1675
17343SOL    HW153751   9.151   3.877   2.933  1.4246  0.5258  1.4580
17343SOL    HW253752   9.183   3.992   2.840 -0.3000 -0.2962 -0.2265
17344SOL     OW53753   5.570   9.532   4.466 -0.1951  0.1642 -0.2772
17344SOL    HW153754   5.541   9.623   4.473 -2.7592 -0.4418 -1.6169
17344SOL    HW253755   5.662   9.534   4.490 -0.9673  2.5379  3.4569
17345SOL     OW53756   7.631   1.879   1.275 -0.1844 -0.4001  0.1398
17345SOL    HW153757   7.690   1.890   1.350  0.2794 -0.1703 -0.2584
17345SOL    HW253758   7.596   1.966   1.260 -0.7526 -0.5653  0.4731
17346SOL     OW53759   7.863   9.474   4.860  0.4798  0.3065 -0.0284
17346SOL    HW153760   7.838   9.387   4.890 -1.6189  0.9073  0.0894
17346SOL    HW253761   7.897   9.518   4.938 -0.4558  0.2734  0.4087
17347SOL     OW53762   3.016   3.800   3.953  0.0077 -0.4407  0.0964
17347SOL    HW153763   2.974   3.731   4.004  1.5230 -0.8774  0.8335
17347SOL    HW253764   2.988   3.882   3.993 -2.7387 -0.5008 -1.5003
17348SOL     OW53765   9.546   2.989   9.177 -0.0526  0.4999 -0.1340
17348SOL    HW153766   9.558   2.927   9.249 -0.2396  1.0999  0.4255
17348SOL    HW253767   9.590   2.949   9.102 -1.3507 -0.9734 -0.1593
17349SOL     OW53768   8.166   6.398   8.633  0.4730  0.2653  0.3158
17349SOL    HW153769   8.153   6.486   8.669  2.0257  0.6579  0.0082
17349SOL    HW253770   8.101   6.392   8.563  0.7151  1.4169 -0.0410
17350SOL     OW53771   4.478   1.009   1.933  0.2359 -0.4228  0.5753
17350SOL    HW153772   4.533   0.971   1.864 -0.1633 -2.2516  1.2119
17350SOL    HW253773   4.446   0.933   1.982 -0.1952  0.7944  2.2412
17351SOL     OW53774   8.345   7.988   7.545 -0.2124 -0.7888 -0.5690
17351SOL    HW153775   8.320   8.029   7.628  1.9753 -1.2722  0.4041
17351SOL    HW253776   8.401   8.052   7.502  0.8515 -1.5649 -0.3924
17352SOL     OW53777   0.303   4.500   3.564 -0.1572 -0.9674  0.0903
17352SOL    HW153778   0.228   4.553   3.538  0.1138 -0.6876 -0.1236
17352SOL    HW253779   0.337   4.542   3.643  2.7369  1.9089 -2.3610
17353SOL     OW53780   5.823   4.227   0.036 -0.3813  0.1794 -0.4109
17353SOL    HW153781   5.783   4.190  -0.043  1.3683  1.3004 -1.9076
17353SOL    HW253782   5.776   4.310   0.050 -0.4078  0.1806 -0.5071
17354SOL     OW53783   2.953   2.503   0.458  0.3897  0.0546  0.2951
17354SOL    HW153784   3.011   2.429   0.438  2.8566  1.3665  1.9954
17354SOL    HW253785   2.982   2.532   0.545 -0.4831  2.9899 -0.2935
17355SOL     OW53786   3.875   9.096   1.846  0.4561  0.4185 -0.3979
17355SOL    HW153787   3.857   9.021   1.903 -0.2781 -0.1372 -1.3407
17355SOL    HW253788   3.950   9.140   1.887  0.8294 -0.7654  0.2264
17356SOL     OW53789   6.420   9.652   8.144 -0.1508 -1.0142 -0.0804
17356SOL    HW153790   6.367   9.636   8.222  0.3175  0.3990  0.5501
17356SOL    HW253791   6.357   9.654   8.072 -1.0816  1.0954  0.7028
17357SOL     OW53792   0.602   7.005   4.490  0.4118  0.3830 -0.5144
17357SOL    HW153793   0.553   6.925   4.507  0.4511  0.8333  2.1595
17357SOL    HW253794   0.600   7.015   4.394 -1.7745 -1.3908 -0.7320
17358SOL     OW53795   5.235   8.140   0.937 -0.0281  0.4071  0.1953
17358SOL    HW153796   5.323   8.174   0.921 -0.8401  2.3568 -0.4648
17358SOL    HW253797   5.236   8.052   0.900  1.7299  0.2693  0.5105
17359SOL     OW53798   0.060   5.233   0.655  0.1605  0.0911  0.1818
17359SOL    HW153799   0.113   5.238   0.735  0.5884 -1.8726  0.0589
17359SOL    HW253800  -0.029   5.222   0.686  0.6715 -6.2250  0.7720
17360SOL     OW53801   5.329   3.962   5.047  0.3535  0.5533 -0.0460
17360SOL    HW153802   5.335   3.892   4.982 -0.3533  0.9438 -0.5493
17360SOL    HW253803   5.235   3.977   5.057  0.4985  1.5054 -0.0389
17361SOL     OW53804   1.539   3.268   1.767 -0.1478 -0.0241  0.7496
17361SOL    HW153805   1.556   3.190   1.820 -1.4896 -1.1951 -0.4472
17361SOL    HW253806   1.543   3.237   1.677  1.3415  1.7661  0.1436
17362SOL     OW53807   0.454   7.783   0.339  0.1352 -0.2371 -0.0738
17362SOL    HW153808   0.437   7.741   0.423 -1.6805 -0.7170 -0.6334
17362SOL    HW253809   0.457   7.711   0.276  0.5162  0.1971 -0.5659
17363SOL     OW53810   8.597   3.507   0.160  0.1696 -0.6019  0.0104
17363SOL    HW153811   8.634   3.420   0.148  1.3528 -0.1868  0.5066
17363SOL    HW253812   8.533   3.497   0.231 -0.7256 -1.3332 -0.8762
17364SOL     OW53813   5.351   2.941   4.362  0.1293 -1.0828  0.5912
17364SOL    HW153814   5.441   2.972   4.348  0.2439 -0.9586  1.5187
17364SOL    HW253815   5.304   3.018   4.393  0.5943 -1.9215  3.6443
17365SOL     OW53816   0.882   6.544   2.082 -0.3098 -0.0634  0.2923
17365SOL    HW153817   0.905   6.452   2.094 -0.3327 -0.1309 -0.1853
17365SOL    HW253818   0.947   6.577   2.020 -0.6382  0.1020  0.0381
17366SOL     OW53819   8.097   8.721   5.718  0.0837 -0.3367  0.1979
17366SOL    HW153820   8.188   8.690   5.726  1.7663  4.0344  0.7886
17366SOL    HW253821   8.070   8.742   5.807 -1.1208 -0.5004 -0.1070
17367SOL     OW53822   2.585   7.279   9.076 -0.3168  0.0836  0.6740
17367SOL    HW153823   2.675   7.247   9.078  0.2499  1.5115 -0.1946
17367SOL    HW253824   2.539   7.220   9.016  1.0222  1.5533 -1.9424
17368SOL     OW53825   5.915   9.074   8.940  0.4302  0.9329  0.4440
17368SOL    HW153826   5.970   9.085   8.863  0.9257 -1.3489  0.4148
17368SOL    HW253827   5.833   9.039   8.907  0.5445  0.2047  0.9137
17369SOL     OW53828   2.106   5.370   4.589 -0.2484  0.1266  0.5827
17369SOL    HW153829   2.163   5.298   4.616  1.1227  1.1938  0.6653
17369SOL    HW253830   2.164   5.432   4.545 -1.9023 -0.1613 -2.2305
17370SOL     OW53831   7.448   2.912   8.406 -0.0039 -0.0265  0.7328
17370SOL    HW153832   7.475   2.999   8.434 -2.3243  0.8756  0.4031
17370SOL    HW253833   7.522   2.878   8.356  1.9855  0.6409  3.0540
17371SOL     OW53834   0.203   2.310   1.762 -0.5340  0.5452 -0.0032
17371SOL    HW153835   0.292   2.337   1.782 -0.7212  1.3940 -0.2397
17371SOL    HW253836   0.151   2.390   1.771 -1.0394  0.3864 -1.2130
17372SOL     OW53837   1.163   3.313   1.825  0.0027 -0.4375  0.3216
17372SOL    HW153838   1.231   3.325   1.891 -0.2996 -3.3257  1.2891
17372SOL    HW253839   1.099   3.255   1.866 -2.4919  1.2239 -0.9829
17373SOL     OW53840   0.374   2.723   3.598  0.0801  0.4733  0.6543
17373SOL    HW153841   0.458   2.695   3.561 -0.7778 -2.2916  0.5374
17373SOL    HW253842   0.309   2.680   3.543 -1.4043  1.4807  1.5543
17374SOL     OW53843   5.248   0.019   6.910  0.1752 -0.7052  0.2732
17374SOL    HW153844   5.279   0.077   6.981 -0.5601 -0.8719  0.7393
17374SOL    HW253845   5.263   0.069   6.830  0.2698 -0.1827  0.6119
17375SOL     OW53846   1.113   7.869   2.247  0.6843 -0.3654  0.1580
17375SOL    HW153847   1.112   7.954   2.203  1.2343 -0.6250 -0.3761
17375SOL    HW253848   1.147   7.888   2.335 -2.2155  0.4736  1.2309
17376SOL     OW53849   4.662   9.303   5.200  0.2367 -0.3967  0.2633
17376SOL    HW153850   4.748   9.342   5.185 -0.9869  1.7154 -1.7445
17376SOL    HW253851   4.606   9.376   5.224 -1.2620 -1.5825  0.5322
17377SOL     OW53852   6.559   5.859   7.397 -0.3371  0.1406  0.6161
17377SOL    HW153853   6.526   5.795   7.334 -0.0040  0.6673 -0.0935
17377SOL    HW253854   6.481   5.909   7.423 -1.0834 -2.0187  2.9665
17378SOL     OW53855   3.776   6.420   1.715  0.8449 -0.1035  0.0881
17378SOL    HW153856   3.687   6.449   1.735  0.6181  1.2357 -2.3943
17378SOL    HW253857   3.763   6.347   1.655  1.4326 -0.3803  0.2957
17379SOL     OW53858   9.392   1.104   8.892  0.2782 -0.1679 -0.0532
17379SOL    HW153859   9.450   1.103   8.969 -0.7103  1.2053  0.7495
17379SOL    HW253860   9.350   1.189   8.895  1.2047  0.5087 -2.9312
17380SOL     OW53861   4.774   9.105   7.464  0.1359  0.0895 -0.0796
17380SOL    HW153862   4.823   9.119   7.545 -0.3463 -0.4495  0.3146
17380SOL    HW253863   4.802   9.176   7.406 -0.6782  1.4544  1.1162
17381SOL     OW53864   1.158   8.005   9.064  0.6978 -0.2931  0.1605
17381SOL    HW153865   1.207   7.995   8.982 -0.3475  0.3878 -0.5767
17381SOL    HW253866   1.070   8.028   9.036  0.2551 -0.2986  1.4862
17382SOL     OW53867   4.179   6.846   2.541 -0.0534  0.2355 -0.0147
17382SOL    HW153868   4.130   6.912   2.492 -1.0816  0.9586  1.8920
17382SOL    HW253869   4.116   6.776   2.556 -0.3886  0.9093  1.9527
17383SOL     OW53870   3.235   4.673   6.982  0.1815  0.1322 -0.4598
17383SOL    HW153871   3.282   4.589   6.980  0.7914  0.4792 -1.1923
17383SOL    HW253872   3.210   4.688   6.892  0.6534  1.0561 -0.4467
17384SOL     OW53873   7.824   8.607   1.187 -0.1018  0.4673 -0.6165
17384SOL    HW153874   7.805   8.692   1.227 -2.2275  0.1953 -0.8925
17384SOL    HW253875   7.760   8.599   1.116  0.3701 -1.1494 -0.9129
17385SOL     OW53876   9.598   5.717   6.948  0.1244  0.2427 -0.4242
17385SOL    HW153877   9.535   5.692   7.015 -0.5420  2.5475 -0.1057
17385SOL    HW253878   9.630   5.634   6.913 -2.4733 -1.0168 -0.0548
17386SOL     OW53879   8.285   2.263   6.279  0.2632 -0.3223 -0.4370
17386SOL    HW153880   8.212   2.219   6.234  0.4164  1.2300 -2.3478
17386SOL    HW253881   8.327   2.315   6.211  0.1899  2.6765  1.5966
17387SOL     OW53882   4.083   2.777   0.572 -0.5766  0.1294  0.5350
17387SOL    HW153883   4.100   2.866   0.601  0.5197 -0.1872  0.9049
17387SOL    HW253884   4.055   2.731   0.651 -3.2200  0.5963 -0.0202
17388SOL     OW53885   4.907   9.525   9.459  0.0417  0.0614  0.1905
17388SOL    HW153886   4.821   9.533   9.501 -0.8254  1.3445 -1.6942
17388SOL    HW253887   4.893   9.553   9.369  2.6450  1.3131  0.0642
17389SOL     OW53888   0.999   5.716   4.446  0.3327 -0.4844 -0.3259
17389SOL    HW153889   1.048   5.787   4.404  0.9117 -1.9530 -2.2716
17389SOL    HW253890   1.000   5.645   4.382 -2.2800 -1.4495  0.5750
17390SOL     OW53891   3.099   2.912   3.419 -0.6453 -0.0490 -0.3191
17390SOL    HW153892   3.026   2.936   3.476 -1.2872 -3.8442  0.7865
17390SOL    HW253893   3.176   2.921   3.474 -0.9883 -1.2869  0.4131
17391SOL     OW53894   3.783   3.608   5.895 -0.1495  0.0709  0.4641
17391SOL    HW153895   3.695   3.576   5.876  0.5054 -1.2225 -0.5783
17391SOL    HW253896   3.839   3.531   5.886  1.2977  1.1767 -0.4627
17392SOL     OW53897   0.253   2.271   3.154 -0.1788  0.1628 -0.0303
17392SOL    HW153898   0.194   2.290   3.081  0.9630  0.0533 -1.0290
17392SOL    HW253899   0.335   2.245   3.112  1.5186  3.0270  1.2210
17393SOL     OW53900   0.310   4.202   7.543 -0.2786  0.0060 -0.3147
17393SOL    HW153901   0.315   4.237   7.454  0.8163 -2.2901 -1.2360
17393SOL    HW253902   0.383   4.243   7.589  0.2964 -0.1948 -1.0316
17394SOL     OW53903   2.362   4.655   9.524  0.1414  0.4515  0.2718
17394SOL    HW153904   2.335   4.689   9.610 -1.0962 -0.4998  0.2932
17394SOL    HW253905   2.279   4.630   9.482  0.9030 -1.2457 -0.2767
17395SOL     OW53906   6.748   9.092   6.122  0.1007 -0.2984  0.4211
17395SOL    HW153907   6.789   9.042   6.051 -1.7647 -0.1381 -0.8378
17395SOL    HW253908   6.815   9.157   6.146  1.3364 -1.3170 -0.1386
17396SOL     OW53909   7.120   0.995   4.883 -1.0802  0.1029 -0.1202
17396SOL    HW153910   7.192   1.027   4.938 -0.6481  0.5966 -0.9461
17396SOL    HW253911   7.159   0.924   4.832 -1.3906 -0.1360 -0.0234
17397SOL     OW53912   2.592   2.436   0.963 -0.5757  0.1456  0.1095
17397SOL    HW153913   2.580   2.443   0.868  1.2302 -0.2613 -0.1807
17397SOL    HW253914   2.641   2.354   0.975  0.3411  0.8400  1.2759
17398SOL     OW53915   9.269   7.536   2.264  0.2626 -0.0895 -0.2090
17398SOL    HW153916   9.291   7.627   2.283  0.9957 -0.1707 -0.6106
17398SOL    HW253917   9.284   7.490   2.347 -1.1333  0.3165  0.2876
17399SOL     OW53918   7.041   6.223   2.355 -0.1369  0.5221  0.3431
17399SOL    HW153919   7.069   6.308   2.323 -1.2012  0.5705 -0.5194
17399SOL    HW253920   7.118   6.167   2.346 -0.3653  0.5362 -2.3661
17400SOL     OW53921   5.970   7.529   7.753 -0.0110 -0.2064 -0.1013
17400SOL    HW153922   5.957   7.593   7.683  1.4892  0.0833 -0.1481
17400SOL    HW253923   6.055   7.489   7.734  1.6803  1.6228  2.8579
17401SOL     OW53924   7.589   4.514   3.983 -0.4721 -0.5857 -0.2507
17401SOL    HW153925   7.620   4.529   4.072 -1.9437 -2.3282  0.6257
17401SOL    HW253926   7.644   4.443   3.950 -0.3482 -0.3772 -0.4944
17402SOL     OW53927   5.849   5.704   0.268  0.7850  0.7549 -0.0146
17402SOL    HW153928   5.787   5.645   0.311 -0.2291  1.4832 -0.4393
17402SOL    HW253929   5.879   5.654   0.191 -0.1963  0.8296 -0.4664
17403SOL     OW53930   5.427   7.124   6.714 -0.2758 -0.0248 -0.4874
17403SOL    HW153931   5.449   7.203   6.664  1.6218 -1.6907 -2.5166
17403SOL    HW253932   5.508   7.102   6.759 -1.0801 -0.2947  0.8641
17404SOL     OW53933   8.036   6.911   4.472 -0.1307 -0.0334 -0.2790
17404SOL    HW153934   8.068   6.920   4.382  0.5624 -2.0834 -0.2790
17404SOL    HW253935   8.113   6.927   4.527 -0.3419  0.3203 -0.0874
17405SOL     OW53936   8.979   6.311   6.902  0.3019 -0.2745  0.3824
17405SOL    HW153937   8.920   6.325   6.977  0.2429 -0.0887  0.3039
17405SOL    HW253938   8.926   6.336   6.826  0.2629 -0.7497  0.2536
17406SOL     OW53939   7.248   1.671   1.258 -0.1109 -0.4264 -0.9645
17406SOL    HW153940   7.267   1.578   1.248  1.3726 -0.2316 -0.1274
17406SOL    HW253941   7.273   1.692   1.348  1.2298  1.1517 -1.6470
17407SOL     OW53942   2.319   9.661   6.362 -0.6709 -0.1042 -0.4194
17407SOL    HW153943   2.292   9.752   6.363 -0.3796 -0.0112 -0.6289
17407SOL    HW253944   2.410   9.662   6.391 -1.1702 -0.5208  1.2299
17408SOL     OW53945   6.271   1.348   3.291 -0.1613  0.0796 -0.3953
17408SOL    HW153946   6.201   1.405   3.323  0.8121  0.2073  1.6797
17408SOL    HW253947   6.226   1.272   3.254 -1.4333  1.4005 -1.6642
17409SOL     OW53948   3.153   1.520   2.841 -0.0832  0.8102  0.0747
17409SOL    HW153949   3.133   1.610   2.815 -0.6432  0.1831 -1.7674
17409SOL    HW253950   3.151   1.470   2.760 -0.9242 -1.0955  1.2106
17410SOL     OW53951   8.533   0.290   8.744  0.7506 -0.0790 -0.5094
17410SOL    HW153952   8.476   0.346   8.692  0.8045  0.0526 -0.4290
17410SOL    HW253953   8.563   0.346   8.815  1.4831  0.0487 -0.9038
17411SOL     OW53954   7.025   8.918   2.247  0.0126  0.2182  0.8177
17411SOL    HW153955   7.050   8.857   2.315  1.4386  1.5822  1.5955
17411SOL    HW253956   6.941   8.954   2.276  1.0169  1.4376  2.3879
17412SOL     OW53957   0.346   4.825   6.471  0.0410  0.1928  0.0657
17412SOL    HW153958   0.312   4.782   6.394 -2.5008 -1.1455  1.8027
17412SOL    HW253959   0.406   4.892   6.437  0.9899 -1.9778 -2.8797
17413SOL     OW53960   1.299   1.764   4.614 -0.3066  0.1983 -0.0490
17413SOL    HW153961   1.366   1.747   4.548 -0.1307 -2.1753  0.6524
17413SOL    HW253962   1.221   1.718   4.582 -0.5237 -0.1042  0.8772
17414SOL     OW53963   5.890   2.667   6.524 -0.4395  0.6700 -0.3372
17414SOL    HW153964   5.880   2.708   6.610  1.0039 -0.5004  0.4312
17414SOL    HW253965   5.905   2.740   6.465  1.0385  1.3672  0.8329
17415SOL     OW53966   6.785   1.042   7.101  0.2003  0.6862  0.2728
17415SOL    HW153967   6.774   0.953   7.136  1.2725  0.3945 -0.0977
17415SOL    HW253968   6.879   1.059   7.107  0.5420  0.4645 -2.7243
17416SOL     OW53969   8.253   9.490   8.841  0.2294 -0.3294  0.2765
17416SOL    HW153970   8.341   9.455   8.825  0.5350  0.2566  0.6155
17416SOL    HW253971   8.195   9.431   8.794  0.7230 -1.2971  0.8371
17417SOL     OW53972   3.123   0.608   5.299  0.4252  0.7288  0.5273
17417SOL    HW153973   3.200   0.576   5.252  0.5606  1.0042  0.5647
17417SOL    HW253974   3.065   0.642   5.231 -0.0372 -0.2401  0.4084
17418SOL     OW53975   8.064   5.379   5.361  0.0152 -0.1223 -0.1251
17418SOL    HW153976   7.999   5.406   5.297 -0.1220 -0.0652  0.0376
17418SOL    HW253977   8.016   5.325   5.424 -0.5901  2.3999  1.7416
17419SOL     OW53978   8.395   7.649   6.821  0.1953 -0.0063 -0.0845
17419SOL    HW153979   8.475   7.612   6.783 -0.9772 -1.4754 -1.1907
17419SOL    HW253980   8.396   7.618   6.912 -0.1493 -1.8164 -0.6652
17420SOL     OW53981   2.035   6.113   3.823  0.2383 -0.0116 -0.1741
17420SOL    HW153982   2.050   6.149   3.736 -1.0508  1.1844  0.0476
17420SOL    HW253983   1.940   6.103   3.828  0.3714 -1.0281  0.7487
17421SOL     OW53984   4.178   6.986   0.082  0.2732 -0.6217 -0.1903
17421SOL    HW153985   4.242   6.942   0.026  0.6639 -0.9138  0.4795
17421SOL    HW253986   4.164   6.926   0.155  1.9052  0.9424  1.5015
17422SOL     OW53987   8.017   7.290   0.916  0.5238 -0.1084  0.2721
17422SOL    HW153988   7.941   7.348   0.923  0.0455 -0.8660  1.8964
17422SOL    HW253989   8.049   7.281   1.006  2.3346 -0.1047 -0.3253
17423SOL     OW53990   6.934   0.283   4.539  0.3259 -0.3282 -0.0831
17423SOL    HW153991   7.026   0.298   4.518  0.6644 -1.8568  0.2505
17423SOL    HW253992   6.887   0.320   4.464  1.1823  0.5686 -0.2053
17424SOL     OW53993   2.715   7.840   9.267  0.3266 -0.6459 -0.1588
17424SOL    HW153994   2.726   7.842   9.172  1.2717 -3.4557 -0.1925
17424SOL    HW253995   2.631   7.796   9.279 -0.0395  0.1708  0.3363
17425SOL     OW53996   6.943   1.758   2.210  0.6874 -0.0191 -0.6504
17425SOL    HW153997   6.889   1.748   2.289  0.6897 -0.1313 -0.6628
17425SOL    HW253998   6.880   1.756   2.138  0.6986 -0.0487 -0.6593
17426SOL     OW53999   8.281   2.757   6.071  0.2417  0.4005 -0.2113
17426SOL    HW154000   8.229   2.727   6.145 -2.2199 -2.0298 -2.6894
17426SOL    HW254001   8.244   2.843   6.049  1.9274  1.8436  1.9936
17427SOL     OW54002   1.239   0.027   4.990  0.1236 -0.4234 -0.1633
17427SOL    HW154003   1.260   0.116   5.019 -0.5836  0.0219 -0.9480
17427SOL    HW254004   1.292   0.014   4.912 -0.4444 -0.3294 -0.5767
17428SOL     OW54005   8.175   3.883   7.303  0.2074  0.1576 -0.6273
17428SOL    HW154006   8.224   3.960   7.274  0.0329  0.6977  0.4746
17428SOL    HW254007   8.108   3.871   7.236  0.7589  0.4544 -1.2405
17429SOL     OW54008   1.115   6.812   1.101  0.4845  0.2245 -0.2827
17429SOL    HW154009   1.169   6.798   1.024 -1.2962 -1.8347 -1.2561
17429SOL    HW254010   1.148   6.749   1.166 -0.7106 -1.1049 -0.9121
17430SOL     OW54011   3.014   8.263   3.812 -0.1817  0.3241  0.4392
17430SOL    HW154012   3.059   8.323   3.752  0.6978 -1.4566 -0.7837
17430SOL    HW254013   2.925   8.257   3.776  0.1973 -0.3426 -0.4290
17431SOL     OW54014   9.048   6.255   3.303 -0.2128 -0.2823  0.0444
17431SOL    HW154015   9.009   6.313   3.368 -1.2575 -0.5344 -0.3238
17431SOL    HW254016   8.975   6.232   3.245  0.7966  0.4917 -1.6379
17432SOL     OW54017   1.135   5.755   2.954  0.4198  0.8253 -0.3631
17432SOL    HW154018   1.083   5.736   2.876 -0.8815  2.3342  0.0852
17432SOL    HW254019   1.100   5.838   2.987  2.6419  1.5194  0.4081
17433SOL     OW54020   1.499   5.486   4.829 -0.4867 -0.7874 -0.0654
17433SOL    HW154021   1.582   5.448   4.802 -0.2933  0.1732 -0.9318
17433SOL    HW254022   1.515   5.581   4.829 -1.3667 -0.6229  0.4857
17434SOL     OW54023   6.066   4.709   6.452 -0.4813 -0.7786  0.2549
17434SOL    HW154024   6.127   4.671   6.515  0.9551  1.0161  0.0096
17434SOL    HW254025   6.002   4.639   6.437 -0.3556 -1.6040  2.9623
17435SOL     OW54026   3.923   8.841   0.532  0.0500  0.0090  0.4765
17435SOL    HW154027   4.007   8.798   0.544  0.4227  0.8168  0.8084
17435SOL    HW254028   3.924   8.915   0.593 -0.8280  0.1303  0.3670
17436SOL     OW54029   2.934   2.003   4.263 -0.6573 -0.5516 -0.0538
17436SOL    HW154030   2.920   1.998   4.357 -2.4561  0.7381 -0.2041
17436SOL    HW254031   2.990   2.080   4.251 -2.4856  0.8223 -0.1583
17437SOL     OW54032   9.228   1.623   3.972 -0.6164  0.0848 -0.8409
17437SOL    HW154033   9.276   1.582   3.900 -0.9886  1.2080 -1.7402
17437SOL    HW254034   9.254   1.715   3.969 -1.9257  0.4807 -0.6067
17438SOL     OW54035   0.062   0.132   8.181  0.3694  0.3011  0.1132
17438SOL    HW154036   0.003   0.143   8.256  1.1037  0.1776  0.7230
17438SOL    HW254037   0.008   0.092   8.113  0.3604 -2.3305  1.5336
17439SOL     OW54038   6.930   7.638   7.126  0.2088 -0.4197 -0.6588
17439SOL    HW154039   7.024   7.623   7.127  0.3414  0.3286  0.2093
17439SOL    HW254040   6.921   7.734   7.124 -0.4187 -0.1736  3.5911
17440SOL     OW54041   4.409   0.661   6.016  0.1495  0.4910  0.0712
17440SOL    HW154042   4.394   0.750   5.984 -3.2165 -0.1270 -0.4925
17440SOL    HW254043   4.325   0.635   6.055  1.0072 -2.3967  0.2579
17441SOL     OW54044   2.490   6.657   3.784  0.1559  0.2353  0.1988
17441SOL    HW154045   2.522   6.725   3.844 -2.0015  1.1655  0.3816
17441SOL    HW254046   2.558   6.653   3.716  1.0561  1.5308  0.9547
17442SOL     OW54047   2.043   5.739   6.346 -0.0132 -0.3157  0.2158
17442SOL    HW154048   2.017   5.780   6.429  1.6368 -0.1977  0.7089
17442SOL    HW254049   2.135   5.764   6.335 -0.6261  1.1397 -2.5536
17443SOL     OW54050   3.891   1.649   9.536 -0.1432  0.6464 -0.3514
17443SOL    HW154051   3.981   1.617   9.543 -0.7121 -1.4505 -1.8026
17443SOL    HW254052   3.842   1.595   9.598 -0.8158 -0.0794 -1.4826
17444SOL     OW54053   7.653   7.893   8.360  0.0086  0.1060  0.0754
17444SOL    HW154054   7.654   7.800   8.382 -0.1051  0.0778 -0.0374
17444SOL    HW254055   7.573   7.905   8.310  1.3480 -0.3267 -2.3561
17445SOL     OW54056   0.551   3.506   7.108  0.0453 -0.0373  0.3149
17445SOL    HW154057   0.588   3.541   7.190  0.1843  0.7667 -0.0822
17445SOL    HW254058   0.557   3.579   7.046 -0.0045 -0.6639 -0.4328
17446SOL     OW54059   0.597   8.496   1.432  0.0810 -0.5296 -0.3048
17446SOL    HW154060   0.609   8.401   1.433  2.2788 -0.4180 -2.9515
17446SOL    HW254061   0.531   8.511   1.364 -1.0559 -0.1512  0.8394
17447SOL     OW54062   4.712   5.001   1.953  0.1939  0.7283  0.5882
17447SOL    HW154063   4.620   4.976   1.967  0.0671  1.5776  1.3801
17447SOL    HW254064   4.742   4.943   1.882 -0.5621 -0.4645  1.2023
17448SOL     OW54065   5.567   9.155   3.395 -0.0639 -0.0237 -0.0611
17448SOL    HW154066   5.610   9.092   3.452  1.2198  0.4646 -0.4698
17448SOL    HW254067   5.575   9.239   3.441 -1.2325 -0.0212  0.1917
17449SOL     OW54068   1.746   6.705   2.513  0.4091  0.1588 -0.5461
17449SOL    HW154069   1.787   6.624   2.481  0.8727  0.6172 -1.1364
17449SOL    HW254070   1.653   6.692   2.498  0.5754  0.1767 -1.7033
17450SOL     OW54071   4.306   6.391   2.323  0.1783  0.0880  0.2789
17450SOL    HW154072   4.285   6.384   2.230  1.1288  1.5586 -0.0808
17450SOL    HW254073   4.221   6.388   2.367 -0.4045  0.7417 -0.7481
17451SOL     OW54074   8.175   3.583   7.194 -0.5563  0.2413  0.1375
17451SOL    HW154075   8.183   3.592   7.289 -1.6291  0.5290  0.2143
17451SOL    HW254076   8.153   3.491   7.180 -0.6968  0.2661  0.1928
17452SOL     OW54077   5.822   0.837   6.528  0.5952  0.1963 -0.0122
17452SOL    HW154078   5.732   0.804   6.535  0.3939  0.8341  0.5313
17452SOL    HW254079   5.817   0.905   6.461  0.9217 -0.5421 -0.8148
17453SOL     OW54080   9.192   9.179   6.055 -0.1521 -0.1151 -0.4793
17453SOL    HW154081   9.162   9.116   6.120  2.1258 -0.2110  0.5927
17453SOL    HW254082   9.286   9.189   6.073 -0.1477  2.5342 -1.5155
17454SOL     OW54083   3.656   6.033   4.931  0.7347 -0.2322  0.0959
17454SOL    HW154084   3.737   5.982   4.924  1.2207  0.6520 -0.8354
17454SOL    HW254085   3.659   6.095   4.859 -0.3676  0.4114  0.5675
17455SOL     OW54086   4.019   7.052   4.832  0.1735  0.0864 -0.0843
17455SOL    HW154087   3.951   7.060   4.766 -1.8865  1.2453  2.0289
17455SOL    HW254088   4.059   7.139   4.835  0.5835 -0.0995 -0.1225
17456SOL     OW54089   9.220   6.123   7.092 -0.1968 -0.2728  0.0465
17456SOL    HW154090   9.313   6.105   7.108 -0.0410 -0.7715 -1.2896
17456SOL    HW254091   9.219   6.173   7.010 -1.1141 -0.4262 -0.0474
17457SOL     OW54092   2.772   3.381   1.557 -0.1388  0.1449 -0.1240
17457SOL    HW154093   2.791   3.457   1.502 -1.8261  0.5708 -0.1651
17457SOL    HW254094   2.841   3.318   1.535  2.0573  2.0717  0.8206
17458SOL     OW54095   8.810   0.370   4.162  0.0499 -0.5850  0.0483
17458SOL    HW154096   8.880   0.381   4.226  0.3271  0.7648 -0.4513
17458SOL    HW254097   8.731   0.356   4.214 -0.0133  2.0741  0.8019
17459SOL     OW54098   9.424   5.214   8.100 -0.0034  0.3650  0.2598
17459SOL    HW154099   9.436   5.223   8.006  0.9815 -1.0834  0.2258
17459SOL    HW254100   9.330   5.231   8.114  0.0009  1.3932 -0.8553
17460SOL     OW54101   4.016   5.018   2.873 -0.1870  0.0172 -0.9348
17460SOL    HW154102   4.090   5.050   2.822  0.0312 -0.3973 -0.8765
17460SOL    HW254103   4.002   5.086   2.940  0.1970  0.0499 -0.8861
17461SOL     OW54104   1.114   4.164   5.789  0.0476  0.1354  0.0982
17461SOL    HW154105   1.092   4.183   5.698 -0.8141 -0.7123  0.1151
17461SOL    HW254106   1.107   4.069   5.796 -0.3115  0.2267  1.1537
17462SOL     OW54107   6.246   6.409   9.334 -0.0841  0.2973  0.1807
17462SOL    HW154108   6.254   6.336   9.273  0.7585  0.6589 -0.1702
17462SOL    HW254109   6.170   6.388   9.388 -1.1834  0.2150 -1.3338
17463SOL     OW54110   1.872   5.960   0.755 -0.2557  0.8867  0.2925
17463SOL    HW154111   1.867   5.940   0.661 -0.9728  0.2085  0.4611
17463SOL    HW254112   1.959   5.928   0.781 -0.5501 -0.1034  0.1101
17464SOL     OW54113   4.218   0.116   0.531  0.2872 -0.4103 -0.8393
17464SOL    HW154114   4.304   0.136   0.493  0.6235  2.3414  1.0714
17464SOL    HW254115   4.237   0.086   0.620 -0.6625 -2.8751 -1.3810
17465SOL     OW54116   7.088   8.562   0.799  0.7386 -0.3797 -0.2692
17465SOL    HW154117   7.089   8.469   0.777  2.9768 -0.0814 -1.7013
17465SOL    HW254118   7.170   8.596   0.764  0.4402  1.9539  1.1153
17466SOL     OW54119   9.150   2.316   9.015 -0.1763 -0.2093  0.3509
17466SOL    HW154120   9.057   2.306   8.996  0.1162  0.3658 -1.6153
17466SOL    HW254121   9.180   2.227   9.036 -0.9152 -0.5973 -0.2075
17467SOL     OW54122   9.053   8.859   8.288 -0.0503  0.1138 -0.1088
17467SOL    HW154123   8.970   8.827   8.251  0.2970 -0.3383 -0.5028
17467SOL    HW254124   9.119   8.831   8.225  0.5524 -0.6374  0.8309
17468SOL     OW54125   8.602   1.579   1.924  0.3313 -0.1604  0.5132
17468SOL    HW154126   8.603   1.644   1.853  1.4868  0.5779  1.1670
17468SOL    HW254127   8.572   1.498   1.883  0.0144  0.4940 -0.5871
17469SOL     OW54128   8.699   3.955   8.985 -0.6461  0.4369 -0.2218
17469SOL    HW154129   8.685   4.021   9.054 -1.5429  0.3652 -0.3320
17469SOL    HW254130   8.633   3.888   9.002 -0.0401 -0.2093 -0.3941
17470SOL     OW54131   0.112   8.340   3.138  0.0682 -0.8032 -0.5166
17470SOL    HW154132   0.144   8.271   3.197  0.4125 -2.1457 -2.1797
17470SOL    HW254133   0.019   8.349   3.159  0.9073  1.7756  3.0622
17471SOL     OW54134   3.155   2.366   5.818  0.1711  0.3706 -0.1080
17471SOL    HW154135   3.223   2.431   5.835 -0.3033  0.8155  0.0680
17471SOL    HW254136   3.125   2.339   5.904  0.7385 -0.4826 -0.1645
17472SOL     OW54137   3.166   4.691   8.768 -0.0002 -0.5403 -0.2127
17472SOL    HW154138   3.121   4.643   8.698  0.7642 -2.1284  0.3188
17472SOL    HW254139   3.098   4.745   8.807 -0.6873 -0.4389 -1.4727
17473SOL     OW54140   3.486   2.634   0.244 -1.1174 -0.4155  0.1560
17473SOL    HW154141   3.450   2.558   0.200  0.9167 -0.9980 -0.6219
17473SOL    HW254142   3.447   2.709   0.199 -0.6335 -1.0077 -1.2873
17474SOL     OW54143   9.228   9.330   0.051 -0.3174  0.4060 -0.3943
17474SOL    HW154144   9.157   9.284   0.096  1.2467  0.8774  2.8783
17474SOL    HW254145   9.282   9.261   0.014  0.0575 -0.2918  1.3375
17475SOL     OW54146   6.019   2.066   7.047  0.5608  0.1877 -0.6155
17475SOL    HW154147   6.083   2.006   7.010 -1.7895 -1.9237 -1.4715
17475SOL    HW254148   5.955   2.080   6.977 -0.3361  1.6355  0.4313
17476SOL     OW54149   3.218   0.821   2.715  0.3526  0.3324 -0.1625
17476SOL    HW154150   3.141   0.876   2.720  0.2304  0.2654 -1.1980
17476SOL    HW254151   3.242   0.820   2.623  1.0715 -0.3550  0.0150
17477SOL     OW54152   3.490   8.896   6.226 -0.7236  0.4868 -0.3345
17477SOL    HW154153   3.559   8.855   6.175  0.0481  1.5973 -0.2038
17477SOL    HW254154   3.492   8.851   6.310  1.1536  1.7610  0.3629
17478SOL     OW54155   0.446   3.591   8.951 -0.3897 -0.1100  0.0239
17478SOL    HW154156   0.359   3.601   8.913  0.2487 -0.0504 -1.4937
17478SOL    HW254157   0.458   3.670   9.005 -1.7444 -0.7330  1.2815
17479SOL     OW54158   9.389   2.654   5.988  0.5439  0.0692 -0.2204
17479SOL    HW154159   9.388   2.644   6.083 -3.4272  1.7043  0.1087
17479SOL    HW254160   9.338   2.580   5.956  2.5912 -0.9656 -1.2597
17480SOL     OW54161   4.297   3.082   6.605  0.3032 -0.0635  0.5019
17480SOL    HW154162   4.208   3.079   6.639 -0.2484 -1.3098 -0.9442
17480SOL    HW254163   4.316   3.176   6.594 -0.7539  0.2125  0.9865
17481SOL     OW54164   0.309   5.008   6.943 -0.5903 -0.2226  0.2262
17481SOL    HW154165   0.222   4.970   6.955 -1.6880  1.6792 -1.1636
17481SOL    HW254166   0.306   5.091   6.992  0.7026 -0.4576  0.7459
17482SOL     OW54167   8.576   6.325   2.383  0.7015  0.4601  0.1452
17482SOL    HW154168   8.586   6.364   2.470 -0.5995 -2.1967  1.6010
17482SOL    HW254169   8.525   6.389   2.334  1.0651  1.8342  1.4763
17483SOL     OW54170   9.310   6.676   9.528 -0.1037  0.1195  0.6730
17483SOL    HW154171   9.228   6.670   9.578 -0.1300 -0.3764  0.5691
17483SOL    HW254172   9.317   6.769   9.505 -0.1058  0.3545  1.5799
17484SOL     OW54173   5.900   1.191   3.994  0.3424  0.4097  0.0962
17484SOL    HW154174   5.990   1.168   3.969  0.1757  1.7283 -1.9107
17484SOL    HW254175   5.910   1.264   4.055  0.6486  1.2250 -0.9005
17485SOL     OW54176   2.163   5.053   4.664 -0.2075 -0.2632  0.3774
17485SOL    HW154177   2.254   5.021   4.666  0.0990  0.5342 -0.1854
17485SOL    HW254178   2.128   5.031   4.750  0.2754 -1.2615  0.3344
17486SOL     OW54179   7.332   5.154   1.622 -0.1217 -0.0794 -0.5106
17486SOL    HW154180   7.315   5.226   1.561  0.9447 -0.5694 -1.4166
17486SOL    HW254181   7.373   5.086   1.569  0.5169 -0.6628  0.6810
17487SOL     OW54182   5.356   6.288   6.487  0.5814 -0.2181 -0.0816
17487SOL    HW154183   5.432   6.328   6.444 -0.6368  1.5061 -0.7355
17487SOL    HW254184   5.327   6.220   6.426  1.1440 -0.3884 -0.1664
17488SOL     OW54185   1.196   6.517   4.035 -0.6141  0.4013 -0.3841
17488SOL    HW154186   1.173   6.440   4.087 -0.7755  0.5476 -0.2387
17488SOL    HW254187   1.250   6.483   3.964 -0.4743  0.1896 -0.1749
17489SOL     OW54188   2.268   2.110   7.689 -0.1477 -0.3892 -0.6707
17489SOL    HW154189   2.227   2.073   7.768 -1.0034  0.1169 -0.8571
17489SOL    HW254190   2.362   2.102   7.704 -0.2980 -0.1710  0.4748
17490SOL     OW54191   5.123   1.695   3.985  0.0890  0.4887 -0.3167
17490SOL    HW154192   5.182   1.707   4.060 -1.2135  0.5445  0.7384
17490SOL    HW254193   5.136   1.774   3.932  0.7512  0.6322  0.0384
17491SOL     OW54194   0.435   0.607   7.221  0.1408  0.6041 -0.1288
17491SOL    HW154195   0.488   0.596   7.299  0.5295  1.5524 -0.2425
17491SOL    HW254196   0.353   0.646   7.253  0.4641  1.3835 -0.2371
17492SOL     OW54197   8.807   9.188   6.604  0.0857 -0.7393 -0.2379
17492SOL    HW154198   8.809   9.147   6.690  0.3303 -1.7437 -0.7019
17492SOL    HW254199   8.898   9.183   6.573  1.2239  4.1566  1.4437
17493SOL     OW54200   2.645   6.175   0.054  0.6272  0.3747  0.2650
17493SOL    HW154201   2.609   6.219   0.131  0.3986  0.0995  0.3161
17493SOL    HW254202   2.621   6.083   0.065 -1.9072  0.7271 -1.5035
17494SOL     OW54203   7.481   2.218   1.978  0.0280 -0.3021  0.2834
17494SOL    HW154204   7.498   2.202   2.071  2.5773 -2.4455 -0.4195
17494SOL    HW254205   7.561   2.261   1.946  0.5015 -2.2820 -1.4326
17495SOL     OW54206   7.516   1.464   0.278 -0.4709  0.3232 -0.1631
17495SOL    HW154207   7.425   1.436   0.283 -0.3294  0.0267  1.1811
17495SOL    HW254208   7.514   1.547   0.231 -1.4027  0.1838 -0.3738
17496SOL     OW54209   0.046   0.492   0.244 -0.1347 -0.0671  0.2999
17496SOL    HW154210  -0.026   0.526   0.191 -0.9137  0.9912  1.9643
17496SOL    HW254211   0.081   0.419   0.193 -2.1162 -0.3565 -0.7373
17497SOL     OW54212   8.639   1.705   5.499 -0.3559  0.3079  0.1641
17497SOL    HW154213   8.566   1.645   5.480 -0.0684  0.0404 -0.0954
17497SOL    HW254214   8.698   1.653   5.554  0.1801  0.1537 -0.5421
17498SOL     OW54215   0.391   8.683   6.820  0.0996 -0.0354  0.1633
17498SOL    HW154216   0.484   8.665   6.835  0.4561  1.3109 -0.3111
17498SOL    HW254217   0.370   8.634   6.741  0.6817  0.4662 -0.3133
17499SOL     OW54218   8.409   1.125   4.345 -0.2800  0.6706  0.0277
17499SOL    HW154219   8.318   1.099   4.334 -0.6108  1.8225 -0.0171
17499SOL    HW254220   8.446   1.057   4.401 -1.1194  0.1129 -0.0691
17500SOL     OW54221   7.358   2.892   9.363  0.3629 -0.1376  0.0732
17500SOL    HW154222   7.321   2.807   9.339 -0.2134 -0.2616  1.2859
17500SOL    HW254223   7.368   2.939   9.280 -1.0905 -0.6899 -0.4524
17501SOL     OW54224   7.273   5.720   6.717  0.6428 -0.7329  0.1066
17501SOL    HW154225   7.331   5.740   6.644 -0.5798 -0.3383 -0.7712
17501SOL    HW254226   7.333   5.694   6.788  2.2672  3.4099  0.5647
17502SOL     OW54227   7.098   9.044   6.356 -0.5461  0.4830  0.1447
17502SOL    HW154228   7.184   9.073   6.326 -0.1283 -0.5231  0.3377
17502SOL    HW254229   7.081   9.096   6.434 -1.0269  2.1301 -1.0101
17503SOL     OW54230   7.459   8.043   3.906 -0.0737 -0.0009  0.0605
17503SOL    HW154231   7.541   8.058   3.859  0.2807 -1.9272 -0.0275
17503SOL    HW254232   7.390   8.070   3.845  0.4132 -1.5177 -1.2406
17504SOL     OW54233   9.107   6.529   8.070  0.0217  0.3245  0.6263
17504SOL    HW154234   9.107   6.434   8.086 -0.7947  0.6004  2.6273
17504SOL    HW254235   9.074   6.539   7.981 -2.5217 -1.1816  1.3230
17505SOL     OW54236   4.813   9.526   8.262  0.4258 -0.1811 -0.0226
17505SOL    HW154237   4.730   9.512   8.216  1.6503 -0.9244 -2.1751
17505SOL    HW254238   4.848   9.606   8.222  0.9391 -0.1208  0.5434
17506SOL     OW54239   9.450   4.504   5.647 -0.1148 -0.3591  0.3263
17506SOL    HW154240   9.436   4.590   5.686  0.6815 -0.5133  0.9899
17506SOL    HW254241   9.437   4.517   5.553  1.8969  0.9478  0.1726
17507SOL     OW54242   6.407   7.239   1.774 -0.7531  0.5322 -0.6365
17507SOL    HW154243   6.415   7.166   1.835  0.0478  1.5732  0.5454
17507SOL    HW254244   6.354   7.304   1.820 -0.6313  1.0942 -1.2695
17508SOL     OW54245   9.455   7.542   6.142  0.2633 -0.3082 -0.2278
17508SOL    HW154246   9.537   7.557   6.096  0.1551 -1.0631 -0.6658
17508SOL    HW254247   9.480   7.539   6.235  0.6705 -0.1597 -0.3312
17509SOL     OW54248   2.285   1.072   9.683 -0.0823  0.1169  0.6051
17509SOL    HW154249   2.375   1.097   9.703  0.2565 -1.2245  0.8979
17509SOL    HW254250   2.269   0.994   9.736 -0.5063 -1.2372 -1.3764
17510SOL     OW54251   4.410   4.838   3.027  0.7376  0.1753  0.2139
17510SOL    HW154252   4.476   4.905   3.045 -0.4882  1.5556 -0.2924
17510SOL    HW254253   4.425   4.815   2.935 -0.9362  2.2549 -0.6709
17511SOL     OW54254   0.902   7.148   8.879  0.2627  0.2326  1.0060
17511SOL    HW154255   0.928   7.180   8.965  1.3125  0.9983  0.4198
17511SOL    HW254256   0.974   7.171   8.821 -0.7503  0.3991 -0.2441
17512SOL     OW54257   1.915   6.027   0.179  0.4078 -0.5960  0.8561
17512SOL    HW154258   1.945   6.017   0.089 -2.5728 -0.2030 -0.2981
17512SOL    HW254259   1.909   6.121   0.193 -0.2573 -0.6576  1.0377
17513SOL     OW54260   0.630   2.784   8.916  0.1745  0.1992  0.0931
17513SOL    HW154261   0.713   2.737   8.910 -0.9131 -1.8210 -0.1158
17513SOL    HW254262   0.597   2.787   8.826  1.4731  4.0139 -0.4636
17514SOL     OW54263   2.100   4.619   0.186 -0.3330 -0.2678 -0.0278
17514SOL    HW154264   2.116   4.700   0.234 -1.5016  0.0178 -0.0713
17514SOL    HW254265   2.013   4.631   0.147  0.9481 -0.0210 -3.1299
17515SOL     OW54266   5.625   5.963   2.268 -0.3918 -0.5542 -0.3751
17515SOL    HW154267   5.529   5.965   2.275 -0.4478  0.1435 -1.1698
17515SOL    HW254268   5.642   5.969   2.174  0.4451  0.0859 -0.1913
17516SOL     OW54269   5.246   5.537   8.524  0.2824 -0.2637 -0.4371
17516SOL    HW154270   5.191   5.551   8.601  3.0058 -1.8516  1.9470
17516SOL    HW254271   5.323   5.592   8.539  1.2806 -1.2952 -1.6021
17517SOL     OW54272   1.383   4.430   2.424 -0.6425 -0.1129  0.8839
17517SOL    HW154273   1.305   4.485   2.427 -0.5018  0.1784 -0.4042
17517SOL    HW254274   1.438   4.469   2.355 -0.5160 -1.8236 -0.0311
17518SOL     OW54275   1.786   1.286   7.584 -0.1563 -0.2010  0.1288
17518SOL    HW154276   1.785   1.374   7.622  1.6269  0.4297 -1.1200
17518SOL    HW254277   1.780   1.227   7.659  0.1966  0.9882  1.1268
17519SOL     OW54278   5.160   4.405   7.097  0.4758  0.0532  0.6101
17519SOL    HW154279   5.086   4.449   7.055  0.6671  0.2705  0.5007
17519SOL    HW254280   5.220   4.384   7.025  0.8180  0.4550  0.7773
17520SOL     OW54281   8.221   1.812   5.116 -0.0421  0.0967 -0.0137
17520SOL    HW154282   8.139   1.857   5.135 -0.5857 -0.8607 -0.0590
17520SOL    HW254283   8.289   1.873   5.146 -0.8002 -0.4084  3.1298
17521SOL     OW54284   3.534   8.627   9.502 -0.1051 -0.3418 -0.2997
17521SOL    HW154285   3.604   8.594   9.560 -0.3301 -0.6826 -0.2180
17521SOL    HW254286   3.511   8.551   9.448  1.2795  0.3881 -2.0312
17522SOL     OW54287   0.552   1.471   0.322 -0.0353 -0.0172 -0.2264
17522SOL    HW154288   0.619   1.414   0.284  0.9387 -0.2645  1.7179
17522SOL    HW254289   0.482   1.473   0.257  1.0503 -1.2787 -1.5024
17523SOL     OW54290   4.537   3.966   0.655  0.1017  0.3426 -0.6374
17523SOL    HW154291   4.538   4.047   0.603  0.8872  0.0589 -1.0760
17523SOL    HW254292   4.519   3.897   0.592 -1.2970  0.2277 -0.1503
17524SOL     OW54293   2.812   4.407   0.640 -0.3487  0.4640 -0.4123
17524SOL    HW154294   2.827   4.498   0.617  1.6518  0.9016  2.1431
17524SOL    HW254295   2.898   4.366   0.634 -0.8037 -0.7046  0.5696
17525SOL     OW54296   4.250   8.871   6.404  0.2353  0.3314  0.6009
17525SOL    HW154297   4.250   8.798   6.465 -0.1929 -0.0646  0.1363
17525SOL    HW254298   4.158   8.892   6.391  0.2842 -0.0298 -0.4226
17526SOL     OW54299   4.329   2.945   6.914 -0.0297 -0.7955  0.1138
17526SOL    HW154300   4.402   3.004   6.932 -1.7101  1.1088  1.0466
17526SOL    HW254301   4.369   2.871   6.868  2.0087  1.5981 -2.2528
17527SOL     OW54302   1.323   7.031   9.503 -0.5130  0.0876 -0.4170
17527SOL    HW154303   1.340   7.120   9.532  0.6270  0.2912 -1.5991
17527SOL    HW254304   1.401   7.008   9.451 -0.4164 -1.8750  0.5139
17528SOL     OW54305   9.054   7.631   9.315  0.0767  0.0178 -0.0100
17528SOL    HW154306   9.143   7.661   9.292 -0.5199  0.9787 -1.2085
17528SOL    HW254307   9.032   7.681   9.394  0.2817  0.4036 -0.1939
17529SOL     OW54308   5.338   5.759   3.902 -0.0193 -0.2483  0.3936
17529SOL    HW154309   5.312   5.701   3.973  0.6895  1.1365  1.8527
17529SOL    HW254310   5.294   5.842   3.921 -0.6140 -0.1183 -1.3523
17530SOL     OW54311   6.108   1.041   8.733  0.3077 -0.6144 -0.2029
17530SOL    HW154312   6.126   1.108   8.800 -2.0743 -0.1012 -0.0023
17530SOL    HW254313   6.138   1.080   8.652  2.3318 -0.8463  0.3717
17531SOL     OW54314   6.514   5.340   5.887  0.0032 -0.4605 -0.9109
17531SOL    HW154315   6.513   5.434   5.906 -2.5201 -0.5596 -0.1415
17531SOL    HW254316   6.556   5.300   5.963 -2.0612 -0.1526  0.4783
17532SOL     OW54317   3.420   1.821   3.504 -0.1863  0.1313 -0.0437
17532SOL    HW154318   3.392   1.729   3.506 -0.8812  0.2856 -1.4889
17532SOL    HW254319   3.400   1.854   3.591 -0.3825 -0.9564  0.3394
17533SOL     OW54320   7.779   5.538   4.969 -0.5004 -0.5205  0.1222
17533SOL    HW154321   7.842   5.492   4.913 -1.3195 -0.0037 -1.2741
17533SOL    HW254322   7.696   5.492   4.954 -1.1688  0.8951 -0.7331
17534SOL     OW54323   0.131   1.812   3.333 -0.2142 -0.0843 -0.2589
17534SOL    HW154324   0.052   1.816   3.279  0.5527  2.4749 -1.3269
17534SOL    HW254325   0.133   1.722   3.366 -4.3243  0.1001  1.0173
17535SOL     OW54326   3.321   1.022   6.909  0.0671  0.6701  0.2213
17535SOL    HW154327   3.383   0.950   6.897 -0.9520 -0.2695  0.4621
17535SOL    HW254328   3.277   1.030   6.825 -1.1917 -0.3235  0.7529
17536SOL     OW54329   5.465   9.279   0.530 -0.0486 -0.4224  0.2953
17536SOL    HW154330   5.447   9.287   0.436  2.5431 -1.2402 -0.3678
17536SOL    HW254331   5.536   9.341   0.546  0.9186 -1.7050  1.2287
17537SOL     OW54332   1.854   8.689   8.055 -0.2687  0.4838 -0.7426
17537SOL    HW154333   1.918   8.621   8.035  2.4100  2.8798 -0.9535
17537SOL    HW254334   1.861   8.702   8.150 -0.2786  0.8458 -0.7872
17538SOL     OW54335   7.600   5.765   8.654 -0.0202 -0.0078  1.0065
17538SOL    HW154336   7.589   5.833   8.588 -1.6060 -3.0556 -2.2090
17538SOL    HW254337   7.528   5.780   8.716 -2.7338 -0.7023 -1.7226
17539SOL     OW54338   6.394   5.826   1.388  0.2318  0.8336 -0.0328
17539SOL    HW154339   6.374   5.754   1.447  0.6099  0.7767  0.0302
17539SOL    HW254340   6.414   5.899   1.446 -1.2555  1.3140 -0.0923
17540SOL     OW54341   6.029   0.471   8.205 -0.2757 -0.3071  0.2910
17540SOL    HW154342   6.096   0.476   8.273  0.9683 -0.4964 -0.8899
17540SOL    HW254343   6.030   0.557   8.163  0.7682 -0.9734 -1.1221
17541SOL     OW54344   8.955   1.211   6.467  0.4930 -0.0169  0.1653
17541SOL    HW154345   8.985   1.120   6.462 -1.3465 -0.6402 -0.1801
17541SOL    HW254346   8.864   1.204   6.493 -0.3886  1.6081 -2.2051
17542SOL     OW54347   9.253   9.245   7.920 -0.1591  0.1032  0.1665
17542SOL    HW154348   9.227   9.286   7.838  0.2163  0.4703  0.2240
17542SOL    HW254349   9.198   9.167   7.928  1.8913 -1.7061 -1.9597
17543SOL     OW54350   1.600   0.357   6.411  0.0616  0.2353  0.1049
17543SOL    HW154351   1.599   0.297   6.486  0.8148 -0.4684 -0.4296
17543SOL    HW254352   1.690   0.388   6.405  0.1261 -0.0787 -0.7810
17544SOL     OW54353   5.326   1.028   6.094 -0.1265  0.3060 -0.7377
17544SOL    HW154354   5.260   1.065   6.151 -1.0148 -0.8080 -1.0089
17544SOL    HW254355   5.338   0.938   6.125  0.3330  0.0998 -1.4693
17545SOL     OW54356   4.037   4.399   8.014 -0.3243  0.4584 -0.1788
17545SOL    HW154357   4.063   4.380   8.104 -0.0316  1.3438 -0.0577
17545SOL    HW254358   4.099   4.467   7.985 -1.4986  1.4641 -0.4333
17546SOL     OW54359   6.447   4.874   8.418  0.5808 -0.6278 -0.3583
17546SOL    HW154360   6.455   4.897   8.511 -2.3045  0.7673 -0.3327
17546SOL    HW254361   6.417   4.955   8.377  2.9170 -0.8609 -2.7991
17547SOL     OW54362   2.682   3.719   2.324 -0.4274  0.2630 -0.3893
17547SOL    HW154363   2.636   3.738   2.242  2.9731  0.3901 -2.4273
17547SOL    HW254364   2.682   3.802   2.372  0.7224  1.2316 -2.0024
17548SOL     OW54365   6.440   9.003   4.009  0.0497 -0.1230 -0.3473
17548SOL    HW154366   6.480   8.970   4.090 -0.6594  2.3323  1.0842
17548SOL    HW254367   6.488   8.957   3.939  0.5538 -2.4601  1.4175
17549SOL     OW54368   3.198   6.278   7.485  0.3049  0.1563 -0.0084
17549SOL    HW154369   3.181   6.365   7.450 -0.4462  0.6052  1.3942
17549SOL    HW254370   3.288   6.284   7.520  0.3653  0.2722 -0.1819
17550SOL     OW54371   3.220   4.288   5.747 -0.5165 -0.1980 -0.6573
17550SOL    HW154372   3.275   4.210   5.756 -1.1775 -0.6978 -0.8295
17550SOL    HW254373   3.185   4.303   5.835  0.2346  0.3888 -0.4472
17551SOL     OW54374   1.838   5.900   1.228  0.1319 -0.3151  0.5944
17551SOL    HW154375   1.769   5.923   1.165  2.1202  1.2529 -1.1609
17551SOL    HW254376   1.848   5.805   1.220  0.7489 -0.0904 -2.0024
17552SOL     OW54377   5.160   7.933   3.082  0.1915 -0.3893  0.0870
17552SOL    HW154378   5.117   7.934   3.168 -0.9180  0.7407 -0.4493
17552SOL    HW254379   5.238   7.880   3.095 -0.6242 -1.3038  1.4741
17553SOL     OW54380   5.298   0.299   7.460  0.0231 -0.4788  0.2290
17553SOL    HW154381   5.235   0.233   7.430  1.3647 -1.4438 -0.5629
17553SOL    HW254382   5.371   0.292   7.399  1.1259  0.2767  1.4165
17554SOL     OW54383   4.372   5.147   4.006  0.3878  0.5412  0.1491
17554SOL    HW154384   4.387   5.206   4.080  0.6333  1.4841 -0.6412
17554SOL    HW254385   4.282   5.164   3.979 -0.0908 -0.6028  0.9006
17555SOL     OW54386   3.751   6.549   4.457  0.5407  0.2323 -0.6631
17555SOL    HW154387   3.674   6.569   4.403 -0.1321 -0.7755 -0.1240
17555SOL    HW254388   3.826   6.569   4.400 -0.1379 -0.4360 -1.8442
17556SOL     OW54389   3.558   9.544   7.140  0.3807 -0.1479 -0.0887
17556SOL    HW154390   3.493   9.531   7.209  0.2102  0.6038 -0.0957
17556SOL    HW254391   3.562   9.460   7.095 -0.8058 -0.1211 -0.2726
17557SOL     OW54392   5.418   9.249   0.800  0.1701 -0.4582 -0.4384
17557SOL    HW154393   5.490   9.243   0.863  0.4401  2.6276 -0.3185
17557SOL    HW254394   5.460   9.277   0.718 -0.8370  1.4013 -0.3646
17558SOL     OW54395   0.010   3.660   3.092 -0.2924  0.3131  0.5384
17558SOL    HW154396  -0.080   3.678   3.120 -0.4167 -0.1655  0.4444
17558SOL    HW254397   0.062   3.729   3.134 -0.7118  0.6336  0.5324
17559SOL     OW54398   7.168   7.676   5.777  0.1151  0.5609  0.7638
17559SOL    HW154399   7.127   7.598   5.741  2.1764 -0.3561  0.2429
17559SOL    HW254400   7.208   7.647   5.859 -0.1849  1.3847  1.2129
17560SOL     OW54401   6.773   6.575   5.616 -0.6025 -0.3089 -0.2587
17560SOL    HW154402   6.736   6.561   5.703 -0.5338  1.4121  0.0745
17560SOL    HW254403   6.698   6.594   5.561 -0.7176 -2.0005 -0.7610
17561SOL     OW54404   4.181   0.507   5.000 -0.1619  0.0605 -0.5812
17561SOL    HW154405   4.106   0.562   5.020 -0.0285  0.0133  0.0604
17561SOL    HW254406   4.228   0.554   4.931  1.4333  2.1540  1.7521
17562SOL     OW54407   5.346   5.536   2.790  0.0570 -0.1221 -0.8201
17562SOL    HW154408   5.380   5.612   2.741 -1.1886  2.4876  1.9906
17562SOL    HW254409   5.256   5.525   2.760  0.0636 -0.1029 -0.8467
17563SOL     OW54410   2.762   2.790   9.679  0.2978  0.4744  0.0990
17563SOL    HW154411   2.693   2.843   9.719  0.2263 -0.8201  1.8038
17563SOL    HW254412   2.809   2.851   9.622 -0.6789  1.9933  0.8588
17564SOL     OW54413   4.882   2.305   8.626 -0.0938  0.7911  0.3754
17564SOL    HW154414   4.888   2.264   8.713  1.5414 -0.6474 -0.3401
17564SOL    HW254415   4.793   2.284   8.596 -0.0988 -0.2130  1.0229
17565SOL     OW54416   9.049   7.119   5.917 -0.3558  0.5199  0.1175
17565SOL    HW154417   9.142   7.128   5.894  0.0411 -0.3492  1.2597
17565SOL    HW254418   9.026   7.202   5.958  0.5240  0.0220  1.7155
17566SOL     OW54419   5.363   1.367   9.061  0.2059 -0.5197  0.2391
17566SOL    HW154420   5.313   1.287   9.077 -1.1502  0.4450  0.9978
17566SOL    HW254421   5.301   1.425   9.017  1.2243  0.0721 -0.4412
17567SOL     OW54422   8.749   9.150   3.678  0.6793  0.0453  0.6985
17567SOL    HW154423   8.663   9.129   3.716  0.6324  0.9961  1.1437
17567SOL    HW254424   8.778   9.228   3.726  0.2662  1.8116 -1.7518
17568SOL     OW54425   2.877   3.717   7.278 -0.6983 -0.5108  0.5710
17568SOL    HW154426   2.916   3.785   7.333  0.3250 -0.4406 -0.2187
17568SOL    HW254427   2.800   3.688   7.328 -0.1829  0.0133  1.7220
17569SOL     OW54428   1.662   6.360   2.852  0.1418 -0.1621 -0.1395
17569SOL    HW154429   1.719   6.284   2.838  1.2324  0.8284 -1.2757
17569SOL    HW254430   1.683   6.389   2.941  1.3329  0.0822 -0.4743
17570SOL     OW54431   1.296   4.432   2.834  1.0670  0.5843  0.3401
17570SOL    HW154432   1.291   4.389   2.919  1.7076  0.8139  0.4966
17570SOL    HW254433   1.389   4.429   2.811  0.9124  0.6118 -0.3050
17571SOL     OW54434   6.717   5.200   6.851  0.1960 -0.3280 -0.1777
17571SOL    HW154435   6.654   5.155   6.907 -0.7303 -0.0590 -0.9759
17571SOL    HW254436   6.799   5.151   6.863  0.3959  0.4888  2.3516
17572SOL     OW54437   1.374   4.317   0.666  0.2605  0.8951  0.3298
17572SOL    HW154438   1.462   4.343   0.695  0.9256 -1.0509  0.2364
17572SOL    HW254439   1.378   4.323   0.571  0.9468 -0.8969  0.1972
17573SOL     OW54440   0.769   2.354   0.656  0.1400 -0.0591  0.1248
17573SOL    HW154441   0.815   2.282   0.612 -1.1072 -0.4737 -0.5665
17573SOL    HW254442   0.740   2.411   0.584 -2.9204 -1.3366  0.2036
17574SOL     OW54443   5.830   1.046   9.492 -0.6605 -0.1207 -0.2892
17574SOL    HW154444   5.848   0.952   9.492 -0.1687 -0.0331 -0.4291
17574SOL    HW254445   5.809   1.066   9.401  1.8853  0.3607 -0.8644
17575SOL     OW54446   2.866   4.985   0.753  0.3660 -0.4875  0.4842
17575SOL    HW154447   2.943   4.957   0.802  1.3498 -1.8305 -1.6699
17575SOL    HW254448   2.898   5.001   0.664 -1.5625  0.4959 -0.1073
17576SOL     OW54449   2.358   5.739   9.060 -0.3279 -0.0911 -0.0973
17576SOL    HW154450   2.355   5.805   9.129 -0.8330  0.0674 -0.2711
17576SOL    HW254451   2.273   5.744   9.017 -0.7504 -1.4957  0.4983
17577SOL     OW54452   1.115   7.518   3.512 -0.0821 -0.5571 -0.1184
17577SOL    HW154453   1.022   7.503   3.497 -0.5504  0.0654  1.8890
17577SOL    HW254454   1.148   7.434   3.544  0.2849 -1.0521 -1.7262
17578SOL     OW54455   8.467   8.789   0.278  0.2486 -0.4957 -0.2305
17578SOL    HW154456   8.415   8.710   0.286  0.2235 -0.6773 -1.7692
17578SOL    HW254457   8.476   8.802   0.183  1.2862  0.6541 -0.0054
17579SOL     OW54458   7.862   3.660   3.924  0.2570  0.1063 -0.2192
17579SOL    HW154459   7.793   3.612   3.970  0.1629  0.2531 -0.2071
17579SOL    HW254460   7.902   3.715   3.991  2.6068 -2.3712  0.6063
17580SOL     OW54461   8.644   5.758   8.242  0.5067 -0.8047 -0.0933
17580SOL    HW154462   8.593   5.749   8.323  0.3202 -0.4340 -0.1658
17580SOL    HW254463   8.735   5.746   8.270  0.6308  1.1016  0.5187
17581SOL     OW54464   8.784   9.576   1.564 -0.0774  0.3529 -0.1683
17581SOL    HW154465   8.711   9.532   1.520  1.4331 -0.0808 -2.4057
17581SOL    HW254466   8.752   9.593   1.653 -2.2329 -1.4424 -0.5160
17582SOL     OW54467   2.639   5.257   9.042  0.0515  0.0407 -0.1666
17582SOL    HW154468   2.733   5.245   9.025  0.0840  1.9062 -1.7813
17582SOL    HW254469   2.607   5.170   9.063  1.9365 -0.8652 -0.7846
17583SOL     OW54470   4.498   8.221   2.998  0.4716 -0.3109 -0.2486
17583SOL    HW154471   4.436   8.160   2.959  0.5287 -0.5670  0.0555
17583SOL    HW254472   4.452   8.306   2.996 -0.0062 -0.5479  0.2204
17584SOL     OW54473   6.650   4.296   5.287 -0.1778  0.5227 -0.2217
17584SOL    HW154474   6.664   4.236   5.360  1.0132  2.4493  1.2331
17584SOL    HW254475   6.563   4.331   5.301 -0.6446 -0.3821 -0.7507
17585SOL     OW54476   4.055   8.148   5.943  0.1564  0.2458 -0.3294
17585SOL    HW154477   4.017   8.145   6.031 -0.1477  3.6519 -0.1927
17585SOL    HW254478   4.137   8.196   5.954  0.8934 -0.6204 -1.7203
17586SOL     OW54479   9.336   4.330   1.003  0.4181  0.1929  0.2757
17586SOL    HW154480   9.272   4.302   0.937  0.1721 -0.2839  0.7076
17586SOL    HW254481   9.357   4.250   1.052  2.0200  0.1566 -0.4153
17587SOL     OW54482   2.684   7.001   3.063  0.5190 -0.3941  0.3964
17587SOL    HW154483   2.620   7.025   3.130  1.0505  0.9864  0.4233
17587SOL    HW254484   2.641   6.930   3.014 -1.8831  1.7297 -0.7942
17588SOL     OW54485   3.602   2.515   9.679 -0.4491 -0.1741 -0.6050
17588SOL    HW154486   3.600   2.610   9.679 -0.9453 -0.1777  0.4106
17588SOL    HW254487   3.513   2.489   9.653 -0.9023 -0.3457  1.0266
17589SOL     OW54488   8.469   3.313   5.912  0.3131  0.1216  0.0247
17589SOL    HW154489   8.545   3.290   5.965  0.6965  0.0398 -0.5467
17589SOL    HW254490   8.394   3.292   5.967  0.7046  0.8696  0.8735
17590SOL     OW54491   2.444   7.228   0.984  0.5283 -0.4737 -0.3489
17590SOL    HW154492   2.392   7.148   0.997  0.4166 -0.3020  0.2898
17590SOL    HW254493   2.515   7.201   0.924  0.7583 -1.1692  0.2208
17591SOL     OW54494   6.320   2.071   6.262 -0.0977  0.2852 -0.4352
17591SOL    HW154495   6.372   2.002   6.301 -3.1944 -1.9445  0.1112
17591SOL    HW254496   6.306   2.134   6.333 -0.3450 -0.4727  0.2018
17592SOL     OW54497   5.880   0.180   0.134 -0.0570  0.0443  0.5163
17592SOL    HW154498   5.972   0.207   0.129 -0.4244  1.0662 -1.7170
17592SOL    HW254499   5.881   0.089   0.106  0.4982 -0.7225  2.7761
17593SOL     OW54500   6.257   0.629   6.013 -0.1147  0.2258  0.0348
17593SOL    HW154501   6.222   0.662   5.930  0.7761  0.5541 -0.2291
17593SOL    HW254502   6.266   0.535   5.999 -2.6593 -0.1916  0.7882
17594SOL     OW54503   8.045   1.546   1.087  0.5782 -0.0527  0.1068
17594SOL    HW154504   8.097   1.465   1.091 -1.0446 -1.1049  0.8001
17594SOL    HW254505   8.002   1.551   1.172  0.3304  1.3601 -0.0737
17595SOL     OW54506   4.547   9.014   7.797  0.2362 -0.5070  0.1870
17595SOL    HW154507   4.567   8.957   7.871 -1.0784 -1.3467 -0.0608
17595SOL    HW254508   4.529   9.099   7.836 -1.6202 -1.2112  1.0241
17596SOL     OW54509   5.778   9.339   2.156  0.0057  0.4622  0.2896
17596SOL    HW154510   5.855   9.326   2.101  1.6280  0.2472  2.4773
17596SOL    HW254511   5.745   9.425   2.131  2.4427  1.6749  0.9598
17597SOL     OW54512   0.016   6.102   2.422  0.3543  0.7071 -0.0570
17597SOL    HW154513   0.081   6.066   2.482  0.5083 -1.1097 -1.2199
17597SOL    HW254514   0.043   6.070   2.336 -1.9954 -0.0414 -0.5857
17598SOL     OW54515   1.753   2.567   4.198  0.2364  0.8039 -0.0912
17598SOL    HW154516   1.660   2.552   4.183  0.4557  1.2068 -2.0939
17598SOL    HW254517   1.758   2.655   4.235 -0.1158  1.4003 -1.3965
17599SOL     OW54518   8.282   1.398   0.432 -0.1745  0.7466 -0.1450
17599SOL    HW154519   8.364   1.434   0.399  0.6837  0.1929  1.2940
17599SOL    HW254520   8.255   1.460   0.500  1.4485 -1.2989  2.5459
17600SOL     OW54521   1.339   7.035   3.427 -0.4012 -0.2083 -0.2129
17600SOL    HW154522   1.416   6.995   3.467 -0.2384  0.7724  0.5020
17600SOL    HW254523   1.335   7.123   3.466 -1.9638 -0.2948 -0.1151
17601SOL     OW54524   8.473   6.780   2.578 -0.2780  0.4770 -0.1764
17601SOL    HW154525   8.464   6.696   2.624 -0.5184  1.2439  1.2270
17601SOL    HW254526   8.404   6.835   2.616  1.6211  2.1885  0.9478
17602SOL     OW54527   0.223   8.382   8.587 -0.0287 -0.3266  0.5541
17602SOL    HW154528   0.279   8.460   8.585 -0.1088 -0.2380 -2.5170
17602SOL    HW254529   0.134   8.417   8.596 -0.2045  0.1326 -2.2952
17603SOL     OW54530   0.737   2.404   9.255 -0.2046  0.7221  0.1075
17603SOL    HW154531   0.673   2.440   9.316  0.0965  1.9040 -0.2345
17603SOL    HW254532   0.802   2.474   9.245  1.2830 -0.5081  0.6161
17604SOL     OW54533   1.528   5.747   4.890 -0.1265  0.6447 -0.3691
17604SOL    HW154534   1.543   5.809   4.962 -1.7662  0.8214 -0.1457
17604SOL    HW254535   1.441   5.710   4.908  0.4140 -1.0264 -1.0249
17605SOL     OW54536   5.447   6.962   3.444  0.6534 -0.3874  0.2833
17605SOL    HW154537   5.353   6.958   3.427  0.7797 -0.8272 -0.3363
17605SOL    HW254538   5.473   7.050   3.418  0.1308  0.3443  2.0263
17606SOL     OW54539   9.057   6.482   4.841 -0.1348  0.1182 -0.2160
17606SOL    HW154540   9.027   6.496   4.931 -2.4163 -1.0629 -0.7133
17606SOL    HW254541   8.999   6.536   4.787  2.9005  2.9852 -0.9467
17607SOL     OW54542   5.717   7.689   2.392 -0.4761 -0.1419  0.4203
17607SOL    HW154543   5.642   7.697   2.332 -2.1119 -3.2354  1.8161
17607SOL    HW254544   5.791   7.668   2.335 -1.7098 -1.7040 -0.7010
17608SOL     OW54545   7.316   2.689   3.729  0.1424 -0.2298  0.3381
17608SOL    HW154546   7.293   2.600   3.757  1.3345 -0.0227  2.1451
17608SOL    HW254547   7.298   2.743   3.806 -0.3015  1.0768 -0.6420
17609SOL     OW54548   4.264   3.509   2.654 -0.4942 -0.4947 -0.3958
17609SOL    HW154549   4.213   3.428   2.644 -1.5746  0.1341 -0.0880
17609SOL    HW254550   4.209   3.577   2.616  0.6033  0.0447 -1.0644
17610SOL     OW54551   3.589   4.282   8.073  0.0649 -0.2820  0.1566
17610SOL    HW154552   3.640   4.354   8.036 -1.6733  1.3328  0.7342
17610SOL    HW254553   3.606   4.286   8.167  0.1385 -0.7760  0.1670
17611SOL     OW54554   1.326   1.127   1.557 -0.6079 -0.0194 -0.1421
17611SOL    HW154555   1.359   1.039   1.579 -3.1232 -0.3520  2.8796
17611SOL    HW254556   1.349   1.181   1.632  0.0857  1.7739 -1.5609
17612SOL     OW54557   9.214   3.461   8.967 -0.1725 -0.0672  0.1962
17612SOL    HW154558   9.147   3.396   8.986 -0.7367  0.5038  0.1867
17612SOL    HW254559   9.192   3.494   8.880 -0.1477  0.4568  0.3871
17613SOL     OW54560   0.722   6.695   7.572  0.1897  0.1153  0.2172
17613SOL    HW154561   0.672   6.631   7.623 -0.4263 -0.9653 -1.6473
17613SOL    HW254562   0.700   6.780   7.611 -1.1701 -0.5688  1.0068
17614SOL     OW54563   6.871   5.323   2.907 -0.1900  0.3778  0.1396
17614SOL    HW154564   6.926   5.369   2.971 -0.4163 -1.3166  1.6502
17614SOL    HW254565   6.782   5.351   2.928 -0.1323  1.1802 -0.6372
17615SOL     OW54566   7.202   5.962   6.874  0.0641 -0.2282 -0.5779
17615SOL    HW154567   7.141   6.006   6.815 -1.6405 -0.7047  0.7397
17615SOL    HW254568   7.240   5.891   6.821  0.7799  1.0932 -1.9068
17616SOL     OW54569   2.573   7.134   8.304 -0.2946 -0.2469  0.4516
17616SOL    HW154570   2.651   7.185   8.281 -1.1383  0.5272 -0.7640
17616SOL    HW254571   2.528   7.186   8.370  1.0180 -1.4696  2.4244
17617SOL     OW54572   2.793   0.536   3.651  0.4230 -0.2251 -0.2187
17617SOL    HW154573   2.725   0.532   3.584 -0.5864  2.2815  0.5238
17617SOL    HW254574   2.760   0.482   3.723  0.9395 -1.9105 -1.1993
17618SOL     OW54575   9.543   2.286   8.049 -0.0272 -0.2164  0.1326
17618SOL    HW154576   9.546   2.376   8.079 -0.9356 -0.3601  0.6965
17618SOL    HW254577   9.627   2.248   8.077  0.3165  0.4120 -0.0271
17619SOL     OW54578   1.107   1.850   0.386 -0.4863  0.1318 -0.1322
17619SOL    HW154579   1.149   1.935   0.396  2.0710 -1.2297  2.4974
17619SOL    HW254580   1.180   1.788   0.377 -2.0650 -2.0418  0.9325
17620SOL     OW54581   7.147   7.069   5.877  0.1538 -0.1146  0.2324
17620SOL    HW154582   7.177   7.037   5.962  4.5890  0.3367 -0.9268
17620SOL    HW254583   7.154   6.993   5.819  2.1585  0.6711 -0.6721
17621SOL     OW54584   5.756   0.900   2.135 -0.0300  0.1776  0.3331
17621SOL    HW154585   5.685   0.951   2.096 -0.1556  0.7764  1.3153
17621SOL    HW254586   5.824   0.965   2.156  0.7580 -0.3665 -0.4560
17622SOL     OW54587   2.826   3.575   1.368  0.3538  0.0363  0.2828
17622SOL    HW154588   2.828   3.659   1.323  0.2614 -0.5894 -0.9244
17622SOL    HW254589   2.746   3.533   1.336  0.7615 -0.7954  0.3359
17623SOL     OW54590   7.191   4.829   4.583  0.3218 -0.5637 -0.1547
17623SOL    HW154591   7.165   4.769   4.514  1.8215 -1.7052  0.2111
17623SOL    HW254592   7.155   4.914   4.557 -1.3787 -1.4942 -0.9535
17624SOL     OW54593   9.059   1.406   8.123  0.4825  0.4735  0.3289
17624SOL    HW154594   9.098   1.337   8.176  0.2001 -1.5276 -1.8631
17624SOL    HW254595   9.134   1.446   8.077  0.5967  1.3734  1.2597
17625SOL     OW54596   6.926   8.627   0.093  1.1109  0.4684 -0.3767
17625SOL    HW154597   7.022   8.628   0.093  1.1599  0.3412 -2.6295
17625SOL    HW254598   6.902   8.619   0.001 -1.0940  1.9800 -0.0145
17626SOL     OW54599   3.211   6.091   3.547 -0.3836  0.0685 -0.1271
17626SOL    HW154600   3.247   6.080   3.459  0.0268  1.1481 -0.1144
17626SOL    HW254601   3.257   6.027   3.600 -0.9963 -0.9476 -0.7834
17627SOL     OW54602   7.003   5.092   6.922  0.2638 -0.0967 -0.2045
17627SOL    HW154603   7.003   5.071   7.015 -2.1771  0.1229 -0.0778
17627SOL    HW254604   7.085   5.139   6.907  1.9565 -2.4130  1.2271
17628SOL     OW54605   3.693   8.388   3.271  0.3215 -0.4517  0.4091
17628SOL    HW154606   3.721   8.458   3.213 -0.0823 -0.0036  0.7468
17628SOL    HW254607   3.600   8.376   3.251 -0.1595  0.5934  1.8330
17629SOL     OW54608   8.874   3.062   5.097 -0.6264  0.1711  0.3934
17629SOL    HW154609   8.853   3.097   5.183  1.8106  0.3838  0.9582
17629SOL    HW254610   8.923   2.981   5.114 -1.3044 -0.5329 -0.8224
17630SOL     OW54611   4.957   9.413   0.688  0.2136 -0.2064  0.1696
17630SOL    HW154612   5.050   9.392   0.679 -0.0712 -1.5849  0.2421
17630SOL    HW254613   4.940   9.404   0.782  0.0650  0.3883  0.2084
17631SOL     OW54614   8.394   5.527   7.999  0.2872  0.4792  0.1554
17631SOL    HW154615   8.311   5.481   8.015 -0.2106  0.9310 -1.0019
17631SOL    HW254616   8.386   5.609   8.048  0.7654 -0.1951  1.4117
17632SOL     OW54617   6.639   7.658   3.150 -0.2372  0.2759 -0.5553
17632SOL    HW154618   6.619   7.712   3.073 -0.7773  0.4946 -0.2666
17632SOL    HW254619   6.667   7.720   3.217  2.4441 -0.0974 -1.2399
17633SOL     OW54620   8.118   2.613   4.124  0.0324  0.7226  0.6770
17633SOL    HW154621   8.038   2.602   4.073 -0.1742 -0.2985  1.1835
17633SOL    HW254622   8.138   2.706   4.119 -0.6981  0.8419 -0.1834
17634SOL     OW54623   4.545   2.336   8.826 -0.4073  0.2138  0.6575
17634SOL    HW154624   4.604   2.271   8.863 -1.0768 -0.8013 -0.0002
17634SOL    HW254625   4.484   2.358   8.897 -1.4058 -1.3832  0.3448
17635SOL     OW54626   6.419   1.929   8.048 -0.2378  0.4113 -0.3513
17635SOL    HW154627   6.385   1.918   7.959  2.1209 -0.6183 -1.1927
17635SOL    HW254628   6.399   2.020   8.071  0.8859  1.3226 -2.7395
17636SOL     OW54629   7.789   5.190   0.478  0.4249  0.4396  0.4530
17636SOL    HW154630   7.799   5.261   0.415 -0.2109  0.9568  0.9261
17636SOL    HW254631   7.834   5.220   0.557 -0.8679  0.8467  1.0585
17637SOL     OW54632   1.045   3.564   1.763  0.0347 -0.0948  0.2146
17637SOL    HW154633   1.102   3.488   1.765 -0.1693 -0.3529 -1.5418
17637SOL    HW254634   0.959   3.531   1.787  0.4858  0.1946  2.3590
17638SOL     OW54635   4.175   0.973   5.482  0.1143  0.2391  0.0834
17638SOL    HW154636   4.116   0.949   5.411  0.1743  1.8509 -0.5633
17638SOL    HW254637   4.169   0.901   5.545 -1.1404 -0.4707 -0.8221
17639SOL     OW54638   8.290   9.161   4.218  0.1088 -0.1764  0.4421
17639SOL    HW154639   8.331   9.208   4.145 -1.1229  0.7922  0.3342
17639SOL    HW254640   8.320   9.208   4.296  1.8876 -1.5650  0.6411
17640SOL     OW54641   8.732   8.605   7.012  0.2775  0.3498 -0.4711
17640SOL    HW154642   8.773   8.629   6.928  0.4025 -1.4304 -0.9513
17640SOL    HW254643   8.756   8.677   7.071  3.3620 -0.1319 -0.9740
17641SOL     OW54644   6.694   2.328   2.940 -0.8170 -0.4790 -0.2383
17641SOL    HW154645   6.689   2.233   2.935  0.7411 -0.5906 -0.2568
17641SOL    HW254646   6.665   2.349   3.029 -1.2601 -0.9612 -0.2698
17642SOL     OW54647   5.419   1.186   1.353 -0.7325  0.3486 -0.0691
17642SOL    HW154648   5.490   1.123   1.368 -0.8995  0.3185  0.6277
17642SOL    HW254649   5.374   1.153   1.275 -1.0591 -0.6340  0.5033
17643SOL     OW54650   6.829   9.050   8.074  0.0598  0.4082  0.2197
17643SOL    HW154651   6.736   9.035   8.092  0.0087 -0.3411 -0.5579
17643SOL    HW254652   6.831   9.136   8.032 -0.3851  0.1227 -0.4112
17644SOL     OW54653   7.921   1.511   4.919 -0.3870  0.4471  0.1071
17644SOL    HW154654   7.977   1.437   4.943 -1.4217 -0.2925  0.2816
17644SOL    HW254655   7.962   1.546   4.839 -0.0097 -0.4531 -0.1091
17645SOL     OW54656   0.414   1.358   8.730 -0.2672 -0.1286  0.0672
17645SOL    HW154657   0.473   1.328   8.799 -1.3845 -3.7287 -0.3291
17645SOL    HW254658   0.472   1.384   8.658  0.9112 -2.2845  0.1688
17646SOL     OW54659   0.497   8.401   8.093  0.0490 -0.1190  1.0883
17646SOL    HW154660   0.580   8.417   8.047  0.7241 -2.1199  1.5025
17646SOL    HW254661   0.518   8.412   8.185 -0.2819 -0.1052  1.1624
17647SOL     OW54662   4.622   9.061   8.951 -0.3246  0.3520  0.0301
17647SOL    HW154663   4.665   9.107   8.879  0.5902  0.4452  0.6117
17647SOL    HW254664   4.624   8.969   8.925 -0.7277  0.4729 -0.4274
17648SOL     OW54665   1.442   8.301   2.782 -0.1906  0.7966  0.3756
17648SOL    HW154666   1.447   8.350   2.864  0.5078 -1.7518  1.9788
17648SOL    HW254667   1.415   8.213   2.808 -3.8788  0.7994 -2.6130
17649SOL     OW54668   4.772   1.530   8.433 -0.1346  0.1767  0.8418
17649SOL    HW154669   4.829   1.574   8.370 -0.7033 -0.3911 -0.0939
17649SOL    HW254670   4.696   1.588   8.441 -0.7320 -0.4309 -0.1389
17650SOL     OW54671   9.555   4.186   0.717 -0.5789 -0.0733  0.1869
17650SOL    HW154672   9.493   4.131   0.669  0.4760 -2.6195  1.5541
17650SOL    HW254673   9.639   4.143   0.706  0.0603  0.4369  2.5063
17651SOL     OW54674   0.308   6.498   0.672 -0.2351 -0.4420 -0.0860
17651SOL    HW154675   0.374   6.435   0.700  1.4857  1.7593  1.1012
17651SOL    HW254676   0.353   6.554   0.609 -1.9367 -0.7622 -1.6906
17652SOL     OW54677   9.474   6.289   6.810 -0.4445  0.3604  0.0943
17652SOL    HW154678   9.384   6.316   6.832 -1.2086 -1.2948 -0.8241
17652SOL    HW254679   9.471   6.269   6.717  1.3529  1.9191 -0.3496
17653SOL     OW54680   8.250   2.588   0.640 -0.8378  0.1394  0.2652
17653SOL    HW154681   8.295   2.584   0.555 -1.3312 -1.2649  0.0430
17653SOL    HW254682   8.204   2.504   0.646 -1.2229  0.4399  1.7035
17654SOL     OW54683   1.091   5.275   5.793  1.0832 -0.6214  0.5592
17654SOL    HW154684   1.131   5.270   5.706  2.3770  0.7807  1.0221
17654SOL    HW254685   1.092   5.368   5.815  0.2455 -0.8854  1.8409
17655SOL     OW54686   4.937   4.065   1.876 -0.4790  0.0432  0.2031
17655SOL    HW154687   4.902   3.984   1.911 -0.7901  0.2387  0.3392
17655SOL    HW254688   4.884   4.135   1.914  1.1972  0.4907  1.8977
17656SOL     OW54689   5.462   3.827   7.399 -0.4361  0.2428  0.4679
17656SOL    HW154690   5.553   3.829   7.430 -0.5693  0.5301  0.8359
17656SOL    HW254691   5.468   3.786   7.312  0.0016 -0.0718  0.6392
17657SOL     OW54692   2.065   6.607   2.306  0.3339 -0.2688  1.1607
17657SOL    HW154693   2.083   6.525   2.352 -0.9740 -0.6419  1.0316
17657SOL    HW254694   1.970   6.615   2.307  0.2060 -0.4207 -1.6596
17658SOL     OW54695   7.383   0.308   7.807 -0.1182 -0.3789 -0.0877
17658SOL    HW154696   7.294   0.326   7.839 -0.2578  3.0714 -1.9043
17658SOL    HW254697   7.371   0.240   7.741 -1.2503 -0.6053  0.3168
17659SOL     OW54698   7.380   8.149   3.187  0.1038 -0.3527  0.6786
17659SOL    HW154699   7.476   8.139   3.190  0.2460  0.5891 -0.2872
17659SOL    HW254700   7.350   8.075   3.134  0.5183  0.4977 -0.7993
17660SOL     OW54701   6.003   1.628   7.855 -0.2358  0.5147 -0.9107
17660SOL    HW154702   5.949   1.680   7.795  0.0123  0.8608 -0.8364
17660SOL    HW254703   5.980   1.661   7.942  1.2474  1.8029 -0.9500
17661SOL     OW54704   3.985   5.233   8.732  0.6303  1.1679 -0.1040
17661SOL    HW154705   4.038   5.183   8.795  1.3508  0.6019 -1.1298
17661SOL    HW254706   4.026   5.215   8.648  0.4677  2.9334 -0.5964
17662SOL     OW54707   0.107   5.385   5.930  0.0649 -0.1239 -0.2287
17662SOL    HW154708   0.163   5.454   5.894 -0.1857 -0.3345 -1.0407
17662SOL    HW254709   0.140   5.304   5.890  2.0170 -0.9098  2.5643
17663SOL     OW54710   8.942   3.611   4.684  0.5804  0.2839  0.0899
17663SOL    HW154711   9.021   3.593   4.735  1.4877  0.3364 -1.2462
17663SOL    HW254712   8.929   3.532   4.631 -0.1992  0.3171  0.2304
17664SOL     OW54713   9.580   2.492   4.980 -0.7402  0.3658 -0.3009
17664SOL    HW154714   9.533   2.526   4.904  1.6303 -0.2267 -2.1736
17664SOL    HW254715   9.657   2.549   4.988 -0.1842 -0.4875  0.7309
17665SOL     OW54716   8.036   3.011   2.423  0.3304 -0.4725  0.5318
17665SOL    HW154717   7.966   3.014   2.358 -0.3599  1.4852  1.2801
17665SOL    HW254718   8.101   2.952   2.386 -0.8643 -0.8496 -1.0676
17666SOL     OW54719   1.497   7.572   2.880  0.2688 -0.2484 -0.5835
17666SOL    HW154720   1.491   7.656   2.926  1.0738  0.2535 -1.3528
17666SOL    HW254721   1.591   7.553   2.879  0.0670 -1.3360 -0.1282
17667SOL     OW54722   9.220   0.508   8.386  0.1494  0.7770 -0.0294
17667SOL    HW154723   9.171   0.481   8.463  1.9014 -2.1789  0.2049
17667SOL    HW254724   9.167   0.479   8.312 -0.2062  1.0560  0.1131
17668SOL     OW54725   4.126   1.423   1.329  0.6572 -0.4198  0.6139
17668SOL    HW154726   4.162   1.507   1.360  0.9745 -0.4823  0.4264
17668SOL    HW254727   4.102   1.439   1.238 -0.2061 -0.2574  0.8610
17669SOL     OW54728   7.650   2.977   3.363 -0.1503 -0.1430  0.0769
17669SOL    HW154729   7.674   2.887   3.345  0.2398 -0.8954  3.6043
17669SOL    HW254730   7.563   2.971   3.403  0.6771  0.7177  2.1802
17670SOL     OW54731   6.103   4.498   4.935 -0.1397 -0.3331 -0.6037
17670SOL    HW154732   6.060   4.582   4.953 -0.5817 -0.8759  1.0070
17670SOL    HW254733   6.036   4.445   4.893 -0.2666 -0.3259 -0.4102
17671SOL     OW54734   7.573   5.983   0.052  0.0185  0.0173  0.0452
17671SOL    HW154735   7.664   6.006   0.070 -0.0984  0.2498  0.3618
17671SOL    HW254736   7.554   5.912   0.113  0.0839 -0.2552 -0.2483
17672SOL     OW54737   2.885   3.064   7.403 -0.0374 -0.3121  0.0063
17672SOL    HW154738   2.900   3.158   7.405 -1.0911 -0.1357  2.3987
17672SOL    HW254739   2.971   3.025   7.418 -0.0232  0.3629  1.8047
17673SOL     OW54740   6.527   8.260   0.091 -0.4471 -0.3154 -0.4399
17673SOL    HW154741   6.481   8.194   0.143  1.8791 -0.5994  1.4594
17673SOL    HW254742   6.539   8.219   0.006 -1.4440 -1.2104 -0.1801
17674SOL     OW54743   9.295   7.303   5.319  0.0293 -0.0171  0.2942
17674SOL    HW154744   9.271   7.287   5.228  0.5886 -0.1922  0.1716
17674SOL    HW254745   9.322   7.395   5.321  1.6765 -0.4610 -0.1037
17675SOL     OW54746   4.314   4.013   2.301 -0.2028  0.3569 -0.1314
17675SOL    HW154747   4.289   4.035   2.391 -0.5032 -1.8193  0.3914
17675SOL    HW254748   4.264   3.934   2.282  1.1907 -0.2367 -1.5578
17676SOL     OW54749   3.053   5.848   4.646  0.3642 -0.5464 -0.0740
17676SOL    HW154750   3.039   5.768   4.696  0.3716 -0.8358 -0.5279
17676SOL    HW254751   2.972   5.899   4.659  0.5875 -0.3681  0.6732
17677SOL     OW54752   4.378   2.100   4.802 -0.0252  0.0589 -0.3698
17677SOL    HW154753   4.447   2.155   4.765  1.2026 -0.0879  1.5593
17677SOL    HW254754   4.421   2.016   4.821 -1.6581 -1.3777 -2.4740
17678SOL     OW54755   8.260   3.705   0.654 -0.3265 -0.2029 -0.0458
17678SOL    HW154756   8.241   3.684   0.745 -0.4457  1.6622  0.3877
17678SOL    HW254757   8.355   3.695   0.646 -0.3886 -0.9713  0.1044
17679SOL     OW54758   2.482   6.241   5.471 -0.2567 -0.7879  0.0885
17679SOL    HW154759   2.524   6.308   5.417 -2.2914 -0.8759 -1.7503
17679SOL    HW254760   2.459   6.286   5.552 -0.0366  0.2479 -0.4078
17680SOL     OW54761   5.202   0.192   5.264 -0.1378  0.4487  0.3024
17680SOL    HW154762   5.222   0.279   5.231  0.9328 -0.0038 -0.2845
17680SOL    HW254763   5.128   0.205   5.324 -1.6038  1.4069 -1.6166
17681SOL     OW54764   7.672   4.850   4.150 -0.1630 -0.2298 -0.7224
17681SOL    HW154765   7.610   4.871   4.220  2.7199  0.8121  1.6949
17681SOL    HW254766   7.638   4.897   4.074 -0.7701  2.8673  1.2817
17682SOL     OW54767   5.694   5.987   9.015  0.1959 -0.1259 -0.3580
17682SOL    HW154768   5.730   5.986   9.103 -1.1781  2.9274  0.3718
17682SOL    HW254769   5.771   5.978   8.958  1.3133 -0.5015  1.1378
17683SOL     OW54770   3.325   5.739   4.798  0.1779 -0.9023 -0.0727
17683SOL    HW154771   3.397   5.774   4.746  0.0674  0.3729  0.5885
17683SOL    HW254772   3.282   5.676   4.741  0.0971  0.4013 -1.5008
17684SOL     OW54773   7.829   8.308   8.314 -0.2787 -0.0648 -0.0480
17684SOL    HW154774   7.750   8.360   8.328 -0.2427 -0.0384  0.0576
17684SOL    HW254775   7.801   8.239   8.253 -1.1081 -1.7001  2.0629
17685SOL     OW54776   6.330   2.612   0.170  0.1204 -0.6538 -1.1970
17685SOL    HW154777   6.341   2.654   0.085 -0.7817  2.3078  0.0497
17685SOL    HW254778   6.349   2.680   0.234 -2.0362 -1.9316  0.9878
17686SOL     OW54779   2.262   9.004   9.419 -0.5655 -0.4407 -0.4697
17686SOL    HW154780   2.231   9.012   9.509  1.0804 -1.4589  0.2312
17686SOL    HW254781   2.182   9.001   9.366 -1.5568  0.2455  0.9342
17687SOL     OW54782   3.613   4.032   0.985 -0.3411  0.0197 -0.6495
17687SOL    HW154783   3.616   3.937   0.989  0.2638  0.0217 -0.9796
17687SOL    HW254784   3.641   4.053   0.896 -2.8800  0.4107 -1.4582
17688SOL     OW54785   3.266   3.218   8.772 -0.2020 -0.6459  0.1951
17688SOL    HW154786   3.310   3.280   8.829  1.0855 -2.3610  1.1625
17688SOL    HW254787   3.225   3.272   8.705  2.1031  1.1713  0.1179
17689SOL     OW54788   0.459   4.349   2.684 -0.1657 -0.0900  0.0253
17689SOL    HW154789   0.403   4.422   2.711 -1.4321 -0.7845 -0.6654
17689SOL    HW254790   0.495   4.376   2.600 -0.8848 -0.3928 -0.3809
17690SOL     OW54791   0.808   1.087   3.747  0.4029 -0.0001  0.3617
17690SOL    HW154792   0.854   1.114   3.667 -1.5032 -0.8921 -1.1144
17690SOL    HW254793   0.719   1.119   3.735 -0.3562 -1.6314  1.3596
17691SOL     OW54794   5.671   8.461   8.380  0.2341 -0.2379  0.4731
17691SOL    HW154795   5.718   8.467   8.296  0.0607  0.3571  0.4134
17691SOL    HW254796   5.685   8.371   8.408  1.5863 -0.0350  0.5502
17692SOL     OW54797   1.840   0.692   0.846  0.2843 -0.3437  0.1173
17692SOL    HW154798   1.847   0.781   0.879  0.7144 -0.8760  1.5000
17692SOL    HW254799   1.828   0.703   0.751 -2.7550  1.2946  0.5451
17693SOL     OW54800   6.035   0.654   2.455 -0.1240  0.4359  0.0677
17693SOL    HW154801   6.019   0.597   2.530 -0.9988  0.7164  0.1070
17693SOL    HW254802   6.055   0.739   2.494 -0.2391  0.4993 -0.0123
17694SOL     OW54803   3.857   4.040   9.321 -0.5057  0.4618  0.0544
17694SOL    HW154804   3.804   4.009   9.247  0.6891  1.4911 -1.2871
17694SOL    HW254805   3.824   4.128   9.340  0.9875  1.3179 -1.1292
17695SOL     OW54806   4.220   5.497   4.957  0.2241  0.0534 -0.3502
17695SOL    HW154807   4.220   5.430   4.888  1.1231  1.0721 -1.3635
17695SOL    HW254808   4.281   5.564   4.927 -0.2498  1.0980  0.8968
17696SOL     OW54809   6.779   2.218   7.782 -0.0324  0.4566  0.5267
17696SOL    HW154810   6.852   2.216   7.845  0.0991  0.6733  0.3804
17696SOL    HW254811   6.786   2.134   7.736 -0.4751  0.0442  1.1896
17697SOL     OW54812   8.585   0.348   3.302 -0.1235 -0.4259  0.4118
17697SOL    HW154813   8.491   0.329   3.295 -0.5773  1.6212  0.3841
17697SOL    HW254814   8.605   0.399   3.223  1.4601 -2.2980 -0.4921
17698SOL     OW54815   6.481   0.636   9.493 -0.5502  0.0361 -0.0974
17698SOL    HW154816   6.386   0.641   9.486 -0.5284  0.8668  0.0488
17698SOL    HW254817   6.497   0.591   9.575 -0.8225  0.4094  0.1633
17699SOL     OW54818   3.593   3.364   2.208  0.2263  0.6731  0.2030
17699SOL    HW154819   3.675   3.406   2.180  0.3637 -0.1110 -0.5945
17699SOL    HW254820   3.583   3.391   2.300  0.4328  2.2349 -0.2022
17700SOL     OW54821   5.409   1.296   4.802  0.6491  0.3174  0.3974
17700SOL    HW154822   5.375   1.376   4.761  2.3083  1.7486  1.6520
17700SOL    HW254823   5.335   1.236   4.803 -1.2165  2.4892  1.0064
17701SOL     OW54824   4.789   0.415   0.795  0.5920 -0.8199  0.7842
17701SOL    HW154825   4.697   0.443   0.793  0.7401 -0.3428  0.0980
17701SOL    HW254826   4.828   0.468   0.864  0.4095 -0.8241  0.8916
17702SOL     OW54827   9.241   1.315   4.128 -0.2327  0.5809  0.1073
17702SOL    HW154828   9.220   1.321   4.222 -2.0186  0.9024 -0.2938
17702SOL    HW254829   9.253   1.406   4.100 -1.0948  0.5881 -0.2648
17703SOL     OW54830   0.463   6.562   6.281  0.7747  0.6430 -0.5609
17703SOL    HW154831   0.483   6.564   6.187 -0.0855 -2.3553 -0.9012
17703SOL    HW254832   0.372   6.534   6.286  0.9994  0.1043  1.1859
17704SOL     OW54833   7.974   8.514   1.968  0.5115  0.4177 -0.2880
17704SOL    HW154834   7.974   8.577   1.895 -0.7998 -0.1963 -0.8513
17704SOL    HW254835   7.922   8.441   1.936  2.7934 -1.4242 -0.0031
17705SOL     OW54836   6.639   5.062   6.146 -0.4820 -0.3744 -0.2439
17705SOL    HW154837   6.704   5.013   6.197 -0.8180 -0.0968  0.4593
17705SOL    HW254838   6.684   5.082   6.064  0.2462 -0.3811  0.1396
17706SOL     OW54839   0.647   2.628   2.850  0.3557 -0.8868  0.1805
17706SOL    HW154840   0.671   2.681   2.926 -0.8646 -1.1171  0.7574
17706SOL    HW254841   0.648   2.538   2.883 -0.7219 -0.9473  0.0954
17707SOL     OW54842   4.034   6.936   7.443 -0.1048  0.0676 -0.2713
17707SOL    HW154843   4.097   6.954   7.513  0.5363  0.0182 -0.8207
17707SOL    HW254844   4.038   7.015   7.388 -1.1779  0.4341  0.1667
17708SOL     OW54845   3.265   1.155   7.872  0.4396 -0.0414  0.0017
17708SOL    HW154846   3.206   1.082   7.893 -0.5078  0.6937 -0.0541
17708SOL    HW254847   3.212   1.215   7.822  1.4420  0.3374 -0.6369
17709SOL     OW54848   2.909   9.533   8.091  0.4956  0.0072  0.3065
17709SOL    HW154849   2.948   9.595   8.029 -0.4516  0.3275  0.0023
17709SOL    HW254850   2.849   9.587   8.142 -0.6255 -0.7162 -0.2107
17710SOL     OW54851   4.742   3.524   1.852 -0.0754 -0.3922  0.4598
17710SOL    HW154852   4.788   3.448   1.889  1.4934  1.2937  2.1702
17710SOL    HW254853   4.804   3.561   1.789 -0.8038 -0.4381 -0.3049
17711SOL     OW54854   7.329   8.502   5.861  0.6473  0.6632 -1.4550
17711SOL    HW154855   7.388   8.452   5.805  0.9357 -1.2071  0.3822
17711SOL    HW254856   7.253   8.446   5.873 -0.7321  2.2755 -2.2918
17712SOL     OW54857   7.459   5.784   1.260 -0.5230 -0.0015 -0.1889
17712SOL    HW154858   7.427   5.693   1.263  0.0709 -0.2192 -0.1751
17712SOL    HW254859   7.484   5.803   1.351 -0.8305  0.2461 -0.1554
17713SOL     OW54860   4.307   6.748   8.970  0.1448 -0.2508  0.2921
17713SOL    HW154861   4.345   6.703   8.894  0.2778  1.7908 -0.9406
17713SOL    HW254862   4.213   6.753   8.949  0.5021  2.6914 -1.2041
17714SOL     OW54863   5.589   8.944   0.276  0.1153  0.0917  0.4585
17714SOL    HW154864   5.495   8.962   0.276 -0.1054 -0.8836 -1.3343
17714SOL    HW254865   5.610   8.930   0.369 -1.5761 -0.0800  0.8534
17715SOL     OW54866   5.327   0.172   1.000 -0.3084  0.0499 -0.0156
17715SOL    HW154867   5.268   0.205   0.933  0.8175  0.1916 -0.9715
17715SOL    HW254868   5.270   0.135   1.067 -1.4465 -0.7885 -1.3971
17716SOL     OW54869   4.149   8.244   7.651  0.4111  0.3237  0.1654
17716SOL    HW154870   4.211   8.251   7.578  0.7527 -1.9335  0.1647
17716SOL    HW254871   4.186   8.176   7.707 -0.2061  1.5086  2.1214
17717SOL     OW54872   4.318   4.265   9.322  0.3085  0.0115  0.3242
17717SOL    HW154873   4.264   4.203   9.370  0.4134  1.1498  1.9954
17717SOL    HW254874   4.340   4.220   9.240 -1.3641 -1.2913  0.5453
17718SOL     OW54875   1.314   4.368   3.133 -0.7445  0.0511 -0.7126
17718SOL    HW154876   1.288   4.299   3.194  0.9864 -1.4838 -1.5995
17718SOL    HW254877   1.401   4.396   3.163 -0.4486  0.2155 -1.6653
17719SOL     OW54878   7.048   7.978   6.728  0.4062 -0.2416 -0.1166
17719SOL    HW154879   7.000   7.906   6.689 -0.9237 -0.0485  1.1072
17719SOL    HW254880   7.011   8.057   6.686 -1.3034 -0.0046  1.7022
17720SOL     OW54881   7.955   7.247   7.613 -0.2835 -0.4246  0.2470
17720SOL    HW154882   7.919   7.275   7.697  0.6654 -0.9486  0.8364
17720SOL    HW254883   7.974   7.154   7.624 -0.8976 -0.6932 -0.8203
17721SOL     OW54884   6.238   1.608   5.085 -0.0395  0.1319  0.3853
17721SOL    HW154885   6.276   1.690   5.116 -2.0469  0.9547  0.8100
17721SOL    HW254886   6.227   1.556   5.165  2.3655 -1.1249 -0.0137
17722SOL     OW54887   8.185   1.929   4.883 -0.1830  0.0980  0.5525
17722SOL    HW154888   8.094   1.921   4.854  0.1700 -0.1996 -0.5295
17722SOL    HW254889   8.205   1.846   4.925  0.0156 -0.4179 -0.5205
17723SOL     OW54890   1.853   0.742   7.221  0.4333  0.1026  0.3965
17723SOL    HW154891   1.827   0.821   7.174  0.8944  1.7177  2.6972
17723SOL    HW254892   1.930   0.710   7.174  0.0756  0.8346 -0.7237
17724SOL     OW54893   6.369   2.890   3.246 -0.3264 -0.7950  0.5102
17724SOL    HW154894   6.461   2.918   3.242 -0.7525  0.5249 -1.6166
17724SOL    HW254895   6.343   2.908   3.336  1.1423  0.0657  0.7970
17725SOL     OW54896   7.691   1.920   0.278 -0.0538  0.4625 -0.0929
17725SOL    HW154897   7.752   1.957   0.214  1.2273 -0.5089  0.5309
17725SOL    HW254898   7.652   1.997   0.320  1.6333  1.1330  0.3123
17726SOL     OW54899   0.369   3.535   0.966  0.3131  0.3761  0.3715
17726SOL    HW154900   0.415   3.499   0.890 -0.5974  0.5691 -0.2787
17726SOL    HW254901   0.328   3.615   0.934  1.9885  1.8721  1.6953
17727SOL     OW54902   9.147   2.222   5.990  0.0096 -0.6401  0.0279
17727SOL    HW154903   9.084   2.230   6.062  0.2278  0.3475  0.1269
17727SOL    HW254904   9.098   2.177   5.920 -0.6525 -0.3357  0.2864
17728SOL     OW54905   8.659   7.957   3.200  0.1546  0.1752 -0.4160
17728SOL    HW154906   8.685   8.021   3.266  0.1410  0.4874 -0.7113
17728SOL    HW254907   8.576   7.922   3.233  0.7878 -0.6364  0.3949
17729SOL     OW54908   8.132   6.451   1.667  0.0333  0.2057 -0.0741
17729SOL    HW154909   8.131   6.356   1.679 -1.3664  0.0716 -1.0847
17729SOL    HW254910   8.189   6.466   1.592  0.3719  0.1842  0.1771
17730SOL     OW54911   0.810   3.509   2.490 -0.0502  0.3400 -0.0392
17730SOL    HW154912   0.906   3.514   2.490  0.3921 -3.4052 -2.9643
17730SOL    HW254913   0.783   3.584   2.436  1.5344 -0.2184 -1.7317
17731SOL     OW54914   5.430   3.037   7.027 -0.6484 -0.4726  0.4471
17731SOL    HW154915   5.478   2.987   6.961 -1.4680  0.6819 -1.0838
17731SOL    HW254916   5.470   3.125   7.024  0.6424 -0.8716  2.9450
17732SOL     OW54917   8.156   0.715   2.902 -0.9408  0.2649  0.5816
17732SOL    HW154918   8.245   0.739   2.927 -1.0229 -0.1484  1.2991
17732SOL    HW254919   8.132   0.647   2.964 -1.1367 -0.8431 -0.6806
17733SOL     OW54920   9.450   4.659   6.551 -0.4362  0.0296  0.2500
17733SOL    HW154921   9.360   4.634   6.530 -0.4480  0.6133 -0.4096
17733SOL    HW254922   9.502   4.582   6.528 -0.8985 -0.8284  1.9199
17734SOL     OW54923   2.932   6.361   1.270 -0.4814  0.6177 -0.4177
17734SOL    HW154924   2.889   6.415   1.337  0.9591  0.5818  0.5796
17734SOL    HW254925   2.996   6.420   1.230  1.7572 -0.4860  1.3011
17735SOL     OW54926   0.753   5.582   5.427  0.0559  0.1398  0.5604
17735SOL    HW154927   0.773   5.585   5.334 -0.8834  0.1957  0.3543
17735SOL    HW254928   0.688   5.650   5.441 -3.5463 -2.9074  0.2714
17736SOL     OW54929   9.193   8.766   8.043 -0.4418 -0.4938  0.4239
17736SOL    HW154930   9.235   8.683   8.064 -1.0525 -0.9390 -0.0884
17736SOL    HW254931   9.237   8.796   7.963 -0.8232 -0.7616  0.1133
17737SOL     OW54932   7.593   1.161   2.219 -0.5749  0.1463  0.0431
17737SOL    HW154933   7.649   1.087   2.240 -1.0488 -1.0290 -2.4292
17737SOL    HW254934   7.515   1.148   2.274 -0.2029 -0.5719  0.4198
17738SOL     OW54935   8.607   0.182   6.131  0.3212  0.2191 -0.5633
17738SOL    HW154936   8.601   0.272   6.162 -0.0543 -0.3990  1.2190
17738SOL    HW254937   8.683   0.183   6.072  0.0374  1.7826 -0.9504
17739SOL     OW54938   0.036   2.092   8.489  0.2459 -0.7184 -0.1477
17739SOL    HW154939   0.069   2.044   8.564  2.4330 -0.0445 -0.6008
17739SOL    HW254940   0.057   2.038   8.413  0.1781 -0.3366 -0.4470
17740SOL     OW54941   6.455   0.332   8.096  0.0523 -0.6395 -0.2500
17740SOL    HW154942   6.467   0.374   8.010 -0.2487  2.9664  1.3012
17740SOL    HW254943   6.541   0.336   8.137 -0.6043  1.3544  1.0506
17741SOL     OW54944   4.611   8.571   3.619 -0.0002 -0.2001  0.4746
17741SOL    HW154945   4.661   8.651   3.600 -2.1542  1.0324 -0.3734
17741SOL    HW254946   4.606   8.525   3.536  0.4741 -0.8070  0.7679
17742SOL     OW54947   6.937   2.968   3.891 -0.4889 -0.2311  0.4379
17742SOL    HW154948   6.957   3.026   3.965  1.5890 -0.4045  0.0883
17742SOL    HW254949   6.971   3.014   3.815 -1.0258 -0.8378 -0.1813
17743SOL     OW54950   2.870   4.407   5.747 -0.2169  0.5996  0.7023
17743SOL    HW154951   2.940   4.444   5.801 -0.7333  1.7532  0.6104
17743SOL    HW254952   2.838   4.481   5.695 -0.5737 -0.2207 -0.2739
17744SOL     OW54953   1.181   0.151   7.613  0.1820  0.4757  0.1348
17744SOL    HW154954   1.218   0.231   7.649 -0.0408  0.6622 -0.0478
17744SOL    HW254955   1.095   0.177   7.579 -0.3349 -0.0449  0.9910
17745SOL     OW54956   7.722   4.407   2.729 -0.4095 -0.2755  0.2491
17745SOL    HW154957   7.642   4.365   2.761 -1.2905  0.4795 -0.8818
17745SOL    HW254958   7.741   4.476   2.792 -0.2674 -0.8686  0.8671
17746SOL     OW54959   4.500   7.165   4.976  0.3410 -0.0827 -0.4523
17746SOL    HW154960   4.556   7.103   5.022  1.3942  1.4658  0.4364
17746SOL    HW254961   4.482   7.234   5.041 -1.1694  0.3345 -1.2598
17747SOL     OW54962   7.045   9.486   8.934 -0.1007  0.3545  0.5732
17747SOL    HW154963   7.048   9.542   9.012 -0.7171  0.4993  0.4959
17747SOL    HW254964   7.130   9.499   8.892  1.3689 -1.7273  2.5996
17748SOL     OW54965   9.421   2.395   8.950 -0.5091 -0.0856  0.2005
17748SOL    HW154966   9.425   2.390   8.855  1.9160  0.0801  0.2108
17748SOL    HW254967   9.329   2.411   8.971 -0.7235  2.8382 -2.2828
17749SOL     OW54968   4.715   1.498   4.593 -0.0612 -0.1645 -0.1761
17749SOL    HW154969   4.764   1.577   4.572 -2.1793  0.6622 -2.4949
17749SOL    HW254970   4.695   1.459   4.508  0.4299 -2.9426  0.8803
17750SOL     OW54971   5.411   0.297   8.786  0.0794  0.6603 -0.4636
17750SOL    HW154972   5.403   0.392   8.799  0.6935  0.4506  1.9929
17750SOL    HW254973   5.326   0.271   8.752 -1.2416  1.7427  1.7513
17751SOL     OW54974   6.435   6.348   6.782  0.0659  0.1165 -0.2556
17751SOL    HW154975   6.467   6.268   6.823 -0.6024 -0.1218 -0.1848
17751SOL    HW254976   6.421   6.325   6.691 -1.0786 -0.1476 -0.0324
17752SOL     OW54977   5.348   0.725   8.113 -0.7588  0.0095 -0.0120
17752SOL    HW154978   5.334   0.711   8.020 -0.8974  1.4367 -0.2193
17752SOL    HW254979   5.430   0.774   8.119 -1.2622  0.8143  0.5359
17753SOL     OW54980   3.577   3.752   6.952 -0.2537  0.0133 -0.2749
17753SOL    HW154981   3.607   3.695   7.023  0.1808  0.2040 -0.2998
17753SOL    HW254982   3.595   3.701   6.873 -0.2760  0.0026 -0.2729
17754SOL     OW54983   7.365   4.022   6.302  0.0446  0.6617 -0.6233
17754SOL    HW154984   7.380   3.948   6.243 -1.4848 -1.1109  1.0710
17754SOL    HW254985   7.451   4.042   6.338  0.5369 -0.0284 -1.3776
17755SOL     OW54986   5.206   2.019   1.657 -0.6362 -0.0570  0.9927
17755SOL    HW154987   5.173   2.096   1.609 -0.4833  0.0959  1.1340
17755SOL    HW254988   5.149   2.013   1.733 -0.1988  0.3400  1.3542
17756SOL     OW54989   7.093   6.348   3.329  0.5648 -0.5117 -0.4487
17756SOL    HW154990   7.088   6.262   3.286  0.9924 -0.3430 -0.8405
17756SOL    HW254991   7.092   6.327   3.423 -0.1381 -0.8958 -0.5283
17757SOL     OW54992   8.959   7.771   8.247 -0.9566 -0.2534 -0.1069
17757SOL    HW154993   8.959   7.867   8.255 -0.1816 -0.2357 -0.3187
17757SOL    HW254994   8.961   7.740   8.338 -0.5331 -0.0665 -0.0485
17758SOL     OW54995   6.947   8.336   5.304 -0.2521 -0.7846  0.0262
17758SOL    HW154996   6.908   8.384   5.377 -0.6108 -0.9225 -0.0710
17758SOL    HW254997   7.041   8.338   5.320 -0.2004  0.6023 -0.3672
17759SOL     OW54998   7.220   3.307   7.390 -0.8207 -0.2775  0.1413
17759SOL    HW154999   7.284   3.256   7.439  1.3232  0.1818 -2.0019
17759SOL    HW255000   7.174   3.243   7.336  0.1172 -0.2603 -0.6950
17760SOL     OW55001   4.762   8.473   4.787 -0.2857 -0.1393 -0.1837
17760SOL    HW155002   4.678   8.488   4.831 -1.4536 -1.4907 -1.8353
17760SOL    HW255003   4.749   8.506   4.698  0.4218 -1.6215 -0.8772
17761SOL     OW55004   4.451   8.760   2.990  0.2195  0.6082 -0.0154
17761SOL    HW155005   4.361   8.729   3.000  0.8315 -1.4035 -0.3479
17761SOL    HW255006   4.466   8.757   2.896  0.3860  1.7640 -0.0378
17762SOL     OW55007   2.013   1.392   9.244 -0.1869 -0.0423  0.0465
17762SOL    HW155008   2.001   1.305   9.207  0.5183 -0.5167  0.8810
17762SOL    HW255009   1.941   1.444   9.208 -0.2681 -0.8087 -0.9318
17763SOL     OW55010   5.276   9.427   8.862  0.2108  0.0540 -0.1175
17763SOL    HW155011   5.271   9.396   8.953  0.8212  2.2350  0.7118
17763SOL    HW255012   5.325   9.509   8.867  1.1363 -0.2659 -2.5715
17764SOL     OW55013   4.455   5.580   8.641 -0.2730  0.2352 -0.6796
17764SOL    HW155014   4.385   5.547   8.584 -0.9475  1.4102 -0.5667
17764SOL    HW255015   4.531   5.588   8.583 -0.0603 -1.5056 -0.7032
17765SOL     OW55016   9.307   3.338   6.143 -0.0774  0.0627  0.2601
17765SOL    HW155017   9.333   3.284   6.217  0.7303  0.7050  0.4690
17765SOL    HW255018   9.258   3.280   6.086 -1.6775 -0.1739  1.8181
17766SOL     OW55019   7.658   1.314   8.091  0.2671  0.4759 -0.6325
17766SOL    HW155020   7.699   1.375   8.030 -0.5983  0.3793 -1.3325
17766SOL    HW255021   7.636   1.368   8.167  1.6313  0.5332 -0.2489
17767SOL     OW55022   7.541   7.839   1.493 -0.3034 -0.1819 -0.2038
17767SOL    HW155023   7.589   7.814   1.414 -1.4554  0.5982 -1.1743
17767SOL    HW255024   7.463   7.783   1.493 -1.4582  1.3517 -0.8680
17768SOL     OW55025   8.065   5.326   3.839  0.5227  0.2567  1.4211
17768SOL    HW155026   7.973   5.301   3.849 -0.0645  1.4440 -0.5973
17768SOL    HW255027   8.075   5.402   3.896 -0.1920  1.1017  0.4409
17769SOL     OW55028   0.458   7.424   2.980  0.5105  0.0397 -0.4253
17769SOL    HW155029   0.460   7.507   2.934  1.7170 -0.8899 -2.1379
17769SOL    HW255030   0.409   7.365   2.922 -0.9982 -0.3021  1.0972
17770SOL     OW55031   9.387   7.623   6.805 -0.3418  0.9084 -0.7960
17770SOL    HW155032   9.338   7.702   6.824 -0.3384  1.2643 -2.1614
17770SOL    HW255033   9.347   7.555   6.860 -0.0182  1.9383  0.7598
17771SOL     OW55034   6.292   2.528   4.148  0.3768  0.1574 -0.3251
17771SOL    HW155035   6.337   2.565   4.224  0.4059 -1.5601  0.5506
17771SOL    HW255036   6.314   2.586   4.076  1.3557  1.1478  0.7328
17772SOL     OW55037   0.167   5.292   4.603 -0.1442 -0.7827  0.0357
17772SOL    HW155038   0.087   5.305   4.653 -0.1050 -1.4580  0.2802
17772SOL    HW255039   0.152   5.341   4.521  0.2699  1.3460  1.1572
17773SOL     OW55040   1.629   7.710   3.086 -0.2375  0.0005  0.2486
17773SOL    HW155041   1.641   7.804   3.103 -1.9646  0.5209 -1.1735
17773SOL    HW255042   1.666   7.667   3.164  0.5925  1.8364  0.9293
17774SOL     OW55043   3.800   1.304   9.519 -0.2097  0.6251 -0.1146
17774SOL    HW155044   3.768   1.376   9.572 -1.4873 -0.2208  0.3126
17774SOL    HW255045   3.775   1.225   9.568  0.1733 -0.1271 -1.0945
17775SOL     OW55046   6.357   0.579   7.310 -0.2454  0.4376 -0.0673
17775SOL    HW155047   6.350   0.483   7.309  2.2266  0.1154  1.8523
17775SOL    HW255048   6.281   0.608   7.361 -0.2096 -0.6506  0.6399
17776SOL     OW55049   1.913   3.593   5.549  0.2041 -0.4419 -0.4432
17776SOL    HW155050   1.899   3.527   5.480 -1.9865 -0.5444  0.0462
17776SOL    HW255051   1.982   3.555   5.604 -0.2206 -1.8140 -0.8142
17777SOL     OW55052   9.702   5.329   8.624 -0.3751  0.5752  0.2065
17777SOL    HW155053   9.610   5.319   8.596 -0.3050 -1.0383  0.4521
17777SOL    HW255054   9.752   5.328   8.542 -0.3215 -2.2827  0.1760
17778SOL     OW55055   5.025   9.527   1.974  0.1193  0.4401  0.5468
17778SOL    HW155056   4.968   9.451   1.989 -0.2065  0.7128  0.6896
17778SOL    HW255057   5.067   9.509   1.889 -0.1259  0.2065  0.4740
17779SOL     OW55058   4.355   3.860   5.244 -0.0971  0.4988  0.5385
17779SOL    HW155059   4.315   3.922   5.183  0.5272  2.1719  1.7467
17779SOL    HW255060   4.421   3.815   5.192 -1.2923  0.0649 -0.6402
17780SOL     OW55061   8.065   1.360   8.113  0.3740 -0.4321  0.4337
17780SOL    HW155062   8.045   1.419   8.041  0.9429 -0.9451 -0.1460
17780SOL    HW255063   7.988   1.303   8.120  1.0218 -1.5088 -0.9033
17781SOL     OW55064   0.489   0.977   8.351  0.3037 -0.3366 -0.4460
17781SOL    HW155065   0.551   0.913   8.315  0.4817 -0.9351  0.8924
17781SOL    HW255066   0.486   0.958   8.444  0.6331  1.8644  0.0560
17782SOL     OW55067   3.031   5.340   0.729  0.4178 -1.0928 -0.0238
17782SOL    HW155068   2.984   5.279   0.672  0.8577 -1.9614  0.5106
17782SOL    HW255069   3.104   5.288   0.764 -0.0698 -0.7285  1.6319
17783SOL     OW55070   1.827   2.509   1.634 -0.1952  0.3051 -0.2635
17783SOL    HW155071   1.813   2.418   1.661  1.3179 -0.4762 -1.9023
17783SOL    HW255072   1.872   2.549   1.708  0.6119 -0.7509 -0.1595
17784SOL     OW55073   8.925   4.491   3.776 -0.1069  0.0192  0.1478
17784SOL    HW155074   8.864   4.419   3.787 -0.5534  0.6282  1.8860
17784SOL    HW255075   9.009   4.449   3.757 -0.5172 -0.9159  0.3719
17785SOL     OW55076   3.951   6.334   6.550 -0.8354 -0.2392  0.3571
17785SOL    HW155077   3.877   6.344   6.490 -0.7751 -1.1201  0.1215
17785SOL    HW255078   3.992   6.421   6.553 -0.8797 -0.1647 -0.8253
17786SOL     OW55079   7.001   7.643   9.277 -0.6738 -0.0250 -0.6612
17786SOL    HW155080   6.968   7.708   9.215 -1.7814  1.6547  1.5379
17786SOL    HW255081   6.996   7.687   9.362  0.4730 -2.3215  0.6809
17787SOL     OW55082   1.022   4.259   5.556  0.5522 -0.1667  0.1604
17787SOL    HW155083   0.977   4.321   5.613  0.1755 -1.2386  1.0795
17787SOL    HW255084   0.977   4.267   5.472 -0.5823 -0.3525  0.7301
17788SOL     OW55085   8.314   2.521   8.056  0.0955  0.1392 -0.0827
17788SOL    HW155086   8.357   2.441   8.088  1.8744  0.8943 -0.4333
17788SOL    HW255087   8.335   2.523   7.962 -0.7295  0.5518 -0.2654
17789SOL     OW55088   2.094   7.667   3.883 -0.0296 -0.0046 -0.5109
17789SOL    HW155089   2.129   7.629   3.963 -0.2525 -1.0084 -0.8749
17789SOL    HW255090   2.162   7.652   3.817  0.2767  1.0723 -0.4582
17790SOL     OW55091   0.076   3.331   7.091  0.3475  0.0365  0.7231
17790SOL    HW155092   0.166   3.298   7.086 -0.1826 -1.3768 -0.0175
17790SOL    HW255093   0.079   3.415   7.045  1.0988 -0.4503 -0.1514
17791SOL     OW55094   1.533   3.061   4.793  0.0473 -0.1966 -0.0881
17791SOL    HW155095   1.584   3.004   4.736 -0.9249  0.8903 -2.1297
17791SOL    HW255096   1.443   3.048   4.766 -0.5066  0.0076  1.5615
17792SOL     OW55097   6.242   4.791   6.264  0.6459  0.2359 -0.3591
17792SOL    HW155098   6.202   4.856   6.206  2.1071  1.5527  0.0624
17792SOL    HW255099   6.171   4.766   6.324 -0.5032 -0.1321 -1.8020
17793SOL     OW55100   4.056   2.368   8.774  0.0969 -0.6922 -0.4186
17793SOL    HW155101   3.979   2.314   8.793 -0.1297 -0.3454 -0.3373
17793SOL    HW255102   4.081   2.404   8.858 -0.3820  0.1571 -0.6356
17794SOL     OW55103   1.332   0.819   1.073 -0.0001  0.1359  0.5352
17794SOL    HW155104   1.391   0.880   1.028  1.7813  0.9567  3.6414
17794SOL    HW255105   1.388   0.745   1.096 -1.2194 -0.9368  0.1378
17795SOL     OW55106   7.977   1.036   4.894  0.0093 -0.1489  0.9740
17795SOL    HW155107   8.021   1.120   4.903  1.9519 -1.1908  1.6754
17795SOL    HW255108   7.884   1.056   4.904  0.3353  2.0435  0.0011
17796SOL     OW55109   5.723   3.074   3.660  0.6980  0.3453 -0.4664
17796SOL    HW155110   5.789   3.050   3.595 -0.1024  0.9440 -1.5441
17796SOL    HW255111   5.642   3.084   3.609 -0.1335  0.0601  0.7505
17797SOL     OW55112   5.672   7.758   3.018 -0.1281 -0.1414  0.0042
17797SOL    HW155113   5.622   7.833   2.987  2.1789  0.7636 -1.8684
17797SOL    HW255114   5.749   7.756   2.962  1.0222 -2.5647  1.4972
17798SOL     OW55115   3.373   8.758   5.908  0.2914  0.1233  0.0769
17798SOL    HW155116   3.442   8.769   5.973  1.1062 -2.0076 -0.3498
17798SOL    HW255117   3.407   8.801   5.830 -0.0782  1.4363  0.6034
17799SOL     OW55118   6.514   8.483   4.718  0.3832 -0.0358  0.1422
17799SOL    HW155119   6.463   8.563   4.734  0.1646 -0.4157  1.4379
17799SOL    HW255120   6.588   8.489   4.779  0.9559 -0.3274 -0.5053
17800SOL     OW55121   1.162   6.414   8.825  0.6058 -0.1258 -0.4379
17800SOL    HW155122   1.201   6.440   8.908  0.9966 -0.5265 -0.4935
17800SOL    HW255123   1.134   6.496   8.784 -1.9368 -0.0427  1.2171
17801SOL     OW55124   7.614   5.033   2.921 -0.2596  0.7391  0.4330
17801SOL    HW155125   7.522   5.017   2.899 -0.0914  0.8150 -0.3499
17801SOL    HW255126   7.651   5.072   2.841  1.2189 -2.1126 -0.4037
17802SOL     OW55127   2.891   0.248   1.747  0.7576 -0.0996  0.2219
17802SOL    HW155128   2.827   0.303   1.792  0.0826 -0.6079 -0.0967
17802SOL    HW255129   2.968   0.249   1.804  0.5191  0.6256  0.5456
17803SOL     OW55130   0.648   8.047   1.830 -0.6155  0.5426 -0.1506
17803SOL    HW155131   0.681   8.112   1.768  0.0448  1.9241  1.5669
17803SOL    HW255132   0.631   7.970   1.776  1.8367  0.9878 -1.7450
17804SOL     OW55133   8.446   1.572   2.664 -0.6944 -0.4105 -0.0891
17804SOL    HW155134   8.490   1.517   2.729 -1.5421 -2.4859 -1.1901
17804SOL    HW255135   8.462   1.529   2.581 -3.1964 -0.2047 -0.7543
17805SOL     OW55136   8.252   7.999   5.295  0.5485 -0.6243 -0.4919
17805SOL    HW155137   8.258   7.991   5.390  0.8063  1.0768 -0.3392
17805SOL    HW255138   8.178   7.942   5.271 -0.7330  0.3365  0.9576
17806SOL     OW55139   8.418   0.823   9.560 -0.0882 -0.8097  0.7354
17806SOL    HW155140   8.393   0.868   9.641 -0.1168  0.7434 -0.0893
17806SOL    HW255141   8.456   0.892   9.505 -0.0466 -1.8256 -0.5645
17807SOL     OW55142   1.311   2.498   3.346  0.2165 -0.1423  0.3730
17807SOL    HW155143   1.383   2.553   3.377  0.6795  0.4886 -1.6769
17807SOL    HW255144   1.293   2.439   3.420  0.2247  2.1898  2.3723
17808SOL     OW55145   8.241   6.052   1.372  0.2088  0.5177 -0.0697
17808SOL    HW155146   8.306   6.122   1.372 -0.0934  0.8011 -0.0174
17808SOL    HW255147   8.276   5.985   1.313  0.7388  0.4884  0.2753
17809SOL     OW55148   1.034   1.731   1.682 -0.9736  0.1283  0.6856
17809SOL    HW155149   1.019   1.766   1.594 -2.3771 -0.9812  0.4465
17809SOL    HW255150   1.129   1.725   1.689 -0.8457 -0.5455 -1.0890
17810SOL     OW55151   1.132   4.236   3.945  0.3722  0.0989 -0.3659
17810SOL    HW155152   1.127   4.291   3.866 -1.8692 -0.5196 -0.7371
17810SOL    HW255153   1.154   4.298   4.015 -0.5095  1.2159 -1.0277
17811SOL     OW55154   3.428   3.697   4.024  0.5677  0.3682  0.2010
17811SOL    HW155155   3.342   3.657   4.027 -0.2337  2.0599  2.7943
17811SOL    HW255156   3.481   3.644   4.083  0.9655  0.1411 -0.3445
17812SOL     OW55157   5.119   5.948   9.596  0.6148 -0.4388 -0.3740
17812SOL    HW155158   5.156   6.027   9.634 -0.3699 -0.6369  1.0652
17812SOL    HW255159   5.042   5.978   9.548  0.1683 -0.5223  0.2776
17813SOL     OW55160   8.244   6.104   3.900 -0.0430  0.9260  0.2668
17813SOL    HW155161   8.239   6.044   3.826 -1.3497 -0.1078  1.1421
17813SOL    HW255162   8.310   6.168   3.875 -0.3843  0.5514 -1.7450
17814SOL     OW55163   6.273   4.025   2.732 -0.7380 -0.0043 -0.0741
17814SOL    HW155164   6.212   3.954   2.711  0.8431 -1.3790 -0.2224
17814SOL    HW255165   6.288   4.016   2.826  1.4645 -1.6443 -0.4795
17815SOL     OW55166   2.494   1.287   0.712 -0.0772  0.4332  0.3527
17815SOL    HW155167   2.446   1.370   0.722  1.7702  1.6404 -0.2911
17815SOL    HW255168   2.475   1.258   0.623 -1.7780 -0.5719  1.0070
17816SOL     OW55169   7.937   0.411   3.431 -0.3068 -0.0849 -0.3854
17816SOL    HW155170   7.868   0.395   3.367 -0.8634 -1.2478  0.4768
17816SOL    HW255171   8.000   0.341   3.416 -1.0114 -1.0717  1.0763
17817SOL     OW55172   2.325   6.125   4.496 -0.1432  0.3778 -0.0799
17817SOL    HW155173   2.343   6.174   4.415  0.4059 -0.7491 -0.6573
17817SOL    HW255174   2.323   6.193   4.564 -1.0916  1.4060 -1.0839
17818SOL     OW55175   5.361   2.734   1.913  0.0734 -0.7990  0.3398
17818SOL    HW155176   5.431   2.669   1.917 -1.1279 -2.1208  0.4486
17818SOL    HW255177   5.311   2.720   1.993 -0.3288  0.1484  0.2708
17819SOL     OW55178   3.542   0.009   2.897  0.6457 -0.4705  0.0897
17819SOL    HW155179   3.605  -0.024   2.962  1.5590  0.4323 -0.3029
17819SOL    HW255180   3.509   0.090   2.936  1.3524  0.1841 -0.6413
17820SOL     OW55181   2.006   6.101   6.543 -0.4033  0.0291  0.3938
17820SOL    HW155182   2.084   6.153   6.520 -1.1218  0.4426 -1.3347
17820SOL    HW255183   1.934   6.164   6.538 -1.0314 -0.6756  0.4400
17821SOL     OW55184   0.271   7.218   6.877 -0.2589  0.0234 -0.0876
17821SOL    HW155185   0.213   7.269   6.934  2.0287  0.4107  2.0520
17821SOL    HW255186   0.216   7.146   6.845 -2.4129  1.4405  0.2187
17822SOL     OW55187   6.988   5.932   4.251 -0.2216  0.1901 -0.2693
17822SOL    HW155188   6.960   5.841   4.259  0.6410  0.0980  2.7724
17822SOL    HW255189   6.915   5.983   4.286  0.2123  0.5102  0.1716
17823SOL     OW55190   0.954   5.698   2.723 -0.1420 -0.0881 -0.1553
17823SOL    HW155191   1.025   5.736   2.670 -0.0727 -1.9813 -1.5066
17823SOL    HW255192   0.914   5.633   2.665 -2.5096  0.3856  0.8510
17824SOL     OW55193   1.330   0.654   1.384 -0.8288 -0.2676 -0.2297
17824SOL    HW155194   1.371   0.729   1.427 -0.0011 -1.4539  1.1274
17824SOL    HW255195   1.396   0.622   1.323 -0.9522 -0.2610 -0.3671
17825SOL     OW55196   0.487   0.150   9.246  0.3029 -0.6962  0.1675
17825SOL    HW155197   0.448   0.138   9.159  1.7513 -0.9514 -0.4726
17825SOL    HW255198   0.581   0.157   9.230  0.4615  1.1592  1.5375
17826SOL     OW55199   3.619   6.288   6.098  0.4773 -0.1020 -0.1636
17826SOL    HW155200   3.532   6.256   6.074  0.4922  0.4736 -1.0526
17826SOL    HW255201   3.643   6.347   6.026  0.0169  2.7618  1.8934
17827SOL     OW55202   1.944   7.547   6.765 -0.2894  0.3714 -0.3377
17827SOL    HW155203   1.899   7.586   6.840  1.6033  0.6767  0.7061
17827SOL    HW255204   1.920   7.454   6.769  0.1576  0.2898  0.9459
17828SOL     OW55205   4.962   7.526   9.355 -0.4772 -0.0542  0.3224
17828SOL    HW155206   5.047   7.483   9.342 -0.7929 -0.2567 -1.3847
17828SOL    HW255207   4.926   7.485   9.433  1.0187  0.0958  1.1337
17829SOL     OW55208   5.298   0.362   4.325 -0.0043 -0.0434 -0.2722
17829SOL    HW155209   5.306   0.301   4.398  0.6859 -0.1811 -0.4614
17829SOL    HW255210   5.204   0.365   4.306 -0.0772 -0.7547 -0.0189
17830SOL     OW55211   1.040   4.998   5.819  0.0186 -0.0755 -0.2817
17830SOL    HW155212   1.056   5.092   5.816 -1.0796  0.1560  0.5411
17830SOL    HW255213   1.036   4.972   5.727 -2.1891  1.1679 -0.6274
17831SOL     OW55214   9.670   0.162   0.695 -0.0954 -0.2247  0.3609
17831SOL    HW155215   9.691   0.185   0.605 -0.3072  0.7972  0.5595
17831SOL    HW255216   9.613   0.233   0.726  0.1305 -0.4574  1.3587
17832SOL     OW55217   4.786   2.187   1.974  0.4895 -0.0335 -0.4015
17832SOL    HW155218   4.741   2.244   2.036 -1.8779 -1.5927 -0.5847
17832SOL    HW255219   4.863   2.155   2.022  0.1939  0.9163  0.7432
17833SOL     OW55220   8.250   8.642   2.187  0.4087  0.6409  0.3868
17833SOL    HW155221   8.222   8.635   2.096 -1.4727  0.5990  0.9243
17833SOL    HW255222   8.237   8.555   2.224  0.6321  0.7877  0.8262
17834SOL     OW55223   6.756   3.021   7.980  0.1736  0.4656 -0.0206
17834SOL    HW155224   6.679   3.063   7.940 -0.3127  0.5925  1.0084
17834SOL    HW255225   6.824   3.026   7.913  0.0537  2.6800 -0.0470
17835SOL     OW55226   7.086   4.755   0.060  0.1590 -0.3257  0.6739
17835SOL    HW155227   7.173   4.752   0.099  0.7939  0.8727 -0.5696
17835SOL    HW255228   7.058   4.663   0.056  1.0592 -0.6688  1.7042
17836SOL     OW55229   4.718   7.901   2.724 -0.6714 -0.1040  0.6500
17836SOL    HW155230   4.671   7.982   2.744 -0.9097 -0.2061  0.5127
17836SOL    HW255231   4.807   7.917   2.755 -0.4282  0.6156 -0.3410
17837SOL     OW55232   2.770   0.136   1.519  0.1352 -0.1368  0.1831
17837SOL    HW155233   2.819   0.173   1.592 -2.5368  0.5877  1.7324
17837SOL    HW255234   2.701   0.200   1.500 -2.5740 -2.6553  0.7028
17838SOL     OW55235   7.680   0.134   9.429  0.1403  0.0199 -0.1261
17838SOL    HW155236   7.613   0.147   9.495 -0.6342 -2.9942 -0.1605
17838SOL    HW255237   7.634   0.148   9.346 -0.1538 -0.8603 -0.1190
17839SOL     OW55238   4.425   4.561   5.970 -0.1265 -0.7729 -0.7118
17839SOL    HW155239   4.386   4.624   5.909  1.3444  0.4159 -0.4810
17839SOL    HW255240   4.384   4.581   6.055  0.1549 -0.2787 -0.6885
17840SOL     OW55241   3.821   1.389   4.558  0.5672  0.1645  0.4486
17840SOL    HW155242   3.756   1.319   4.564 -0.2163  0.6955 -1.3367
17840SOL    HW255243   3.773   1.463   4.523  1.3887  1.6371  2.2896
17841SOL     OW55244   0.876   1.748   0.465  0.2168  0.3468  0.2822
17841SOL    HW155245   0.965   1.769   0.438  0.0583  1.8178  0.8049
17841SOL    HW255246   0.821   1.805   0.413 -0.4488 -0.7081 -0.1888
17842SOL     OW55247   1.040   8.793   4.569  0.8602  0.2634  0.4106
17842SOL    HW155248   1.076   8.843   4.643  1.5505  2.4007 -1.2532
17842SOL    HW255249   0.955   8.834   4.552 -0.5413 -1.9734  1.6181
17843SOL     OW55250   2.648   7.417   8.791  0.6290  0.0215  0.3465
17843SOL    HW155251   2.647   7.340   8.735  0.6077  0.0562  0.2991
17843SOL    HW255252   2.739   7.423   8.822  0.2674 -0.9985  1.7082
17844SOL     OW55253   3.847   1.743   9.015 -0.1002 -0.3414  0.2849
17844SOL    HW155254   3.932   1.703   9.033 -0.5497 -1.1782  0.6312
17844SOL    HW255255   3.834   1.731   8.921 -0.0518 -0.6648  0.3179
17845SOL     OW55256   9.521   7.074   6.998 -0.1278  0.4574  0.4955
17845SOL    HW155257   9.431   7.079   7.028 -0.3170  0.3469 -0.0380
17845SOL    HW255258   9.529   6.986   6.960  0.2501  0.4069  0.6904
17846SOL     OW55259   7.920   7.600   8.276 -0.3026 -0.2649 -0.8102
17846SOL    HW155260   7.850   7.560   8.224 -1.1822 -0.4360  0.4690
17846SOL    HW255261   7.943   7.680   8.227 -0.5222 -0.8312 -1.8774
17847SOL     OW55262   9.676   8.020   5.923  0.2254  0.1319  0.5745
17847SOL    HW155263   9.764   8.034   5.957  0.1564 -0.5164  1.0431
17847SOL    HW255264   9.667   7.925   5.918 -0.6969  0.1773  1.1903
17848SOL     OW55265   1.681   6.615   2.041  0.2438  0.4908  0.2939
17848SOL    HW155266   1.719   6.576   2.121  0.2330  3.8217  2.1112
17848SOL    HW255267   1.588   6.596   2.048  0.5294 -1.2429 -0.2086
17849SOL     OW55268   2.115   3.042   8.513 -0.9004  0.2898 -0.4840
17849SOL    HW155269   2.090   3.014   8.425 -1.8301  2.2213 -0.8798
17849SOL    HW255270   2.052   2.999   8.571  0.1779 -1.6033 -0.6252
17850SOL     OW55271   6.907   5.133   2.394  0.0765 -1.3134  0.6924
17850SOL    HW155272   7.001   5.122   2.382  0.1450 -0.7418  0.6804
17850SOL    HW255273   6.899   5.195   2.466 -0.2649  0.0042 -0.4492
17851SOL     OW55274   5.896   2.880   2.711 -0.0207  0.3634  0.2235
17851SOL    HW155275   5.982   2.900   2.675  1.0792 -4.0372 -0.1432
17851SOL    HW255276   5.845   2.851   2.636 -0.8785  0.1576  0.8699
17852SOL     OW55277   5.758   7.211   8.650  0.8665 -0.6784 -0.0427
17852SOL    HW155278   5.814   7.274   8.696 -2.0712  2.2206 -0.0302
17852SOL    HW255279   5.703   7.172   8.718  0.1244 -0.3735 -0.4442
17853SOL     OW55280   5.984   3.480   6.797  0.0214  0.2793 -0.7828
17853SOL    HW155281   5.946   3.435   6.872 -0.4816  1.4599 -0.3136
17853SOL    HW255282   5.910   3.501   6.741  0.3875 -0.5335 -1.5971
17854SOL     OW55283   1.236   5.235   2.931  0.2296 -0.3017  0.5955
17854SOL    HW155284   1.180   5.296   2.884 -0.5134 -1.1125  0.4053
17854SOL    HW255285   1.322   5.276   2.931 -0.5824  1.5015  1.8676
17855SOL     OW55286   7.103   6.052   7.106  0.2883 -0.4162 -0.1971
17855SOL    HW155287   7.070   5.977   7.156  2.0216 -0.3934  1.0517
17855SOL    HW255288   7.137   6.013   7.025 -1.5773 -0.5745 -0.9532
17856SOL     OW55289   3.327   1.954   4.191 -0.4316  0.2214 -0.0587
17856SOL    HW155290   3.383   1.971   4.116  0.7022 -2.8022 -0.0278
17856SOL    HW255291   3.338   2.030   4.248  1.6267  0.8627 -1.2472
17857SOL     OW55292   9.012   3.365   7.971 -0.1825  0.5886 -0.1021
17857SOL    HW155293   9.075   3.380   7.900  0.4657  0.6500  0.4680
17857SOL    HW255294   8.937   3.420   7.949 -1.0028 -1.1385 -1.9541
17858SOL     OW55295   5.886   2.949   4.635  0.0587 -0.4751  0.1364
17858SOL    HW155296   5.900   2.974   4.727 -0.4718 -0.3390  0.1830
17858SOL    HW255297   5.913   3.026   4.585  1.5427 -0.9778  0.0925
17859SOL     OW55298   1.356   8.682   1.875  0.0143 -0.5249 -0.6451
17859SOL    HW155299   1.327   8.745   1.941  1.0260  0.2164 -0.8847
17859SOL    HW255300   1.275   8.641   1.843 -0.4280 -2.1357  2.2152
17860SOL     OW55301   8.886   5.334   7.476 -1.0164  0.1955  0.4216
17860SOL    HW155302   8.869   5.408   7.419  2.4388  1.8002  1.2214
17860SOL    HW255303   8.814   5.336   7.540 -2.9005  0.5931 -1.5913
17861SOL     OW55304   1.286   0.280   6.396 -0.1277  0.1051  0.1844
17861SOL    HW155305   1.335   0.240   6.468  2.3067  1.5371 -0.5368
17861SOL    HW255306   1.194   0.269   6.420  0.4424 -3.0430  1.5023
17862SOL     OW55307   0.688   0.206   5.163 -0.5259 -0.2391  0.4462
17862SOL    HW155308   0.631   0.152   5.108  1.2472 -1.8187  0.0686
17862SOL    HW255309   0.696   0.156   5.245  0.6654 -0.2991  0.3129
17863SOL     OW55310   3.667   4.534   2.625  0.1451 -0.1472 -0.0431
17863SOL    HW155311   3.658   4.440   2.613 -1.9037  0.1257 -0.9953
17863SOL    HW255312   3.578   4.568   2.619  0.9226  1.9596 -0.6708
17864SOL     OW55313   4.162   3.279   3.930  0.5144  0.1978  0.4198
17864SOL    HW155314   4.206   3.223   3.994  2.4493  1.1146 -0.0356
17864SOL    HW255315   4.213   3.360   3.931  0.7499  0.1608 -2.4147
17865SOL     OW55316   9.540   0.830   6.963 -0.0632 -0.2992  0.3462
17865SOL    HW155317   9.465   0.881   6.932  0.3196 -0.4032 -0.7820
17865SOL    HW255318   9.537   0.841   7.058 -1.4446 -0.2250  0.3260
17866SOL     OW55319   1.371   0.130   3.423 -0.6919 -0.0264 -0.6727
17866SOL    HW155320   1.296   0.104   3.476 -0.4582 -1.2875 -0.9341
17866SOL    HW255321   1.445   0.086   3.464 -0.1249  1.0234 -0.5574
17867SOL     OW55322   5.815   7.806   8.706  0.1542  0.5079 -0.1131
17867SOL    HW155323   5.779   7.744   8.643 -0.4709  1.8541 -1.1489
17867SOL    HW255324   5.747   7.816   8.772  0.3557 -0.0706  0.1894
17868SOL     OW55325   7.179   9.282   9.127 -0.0002 -0.1133 -0.4225
17868SOL    HW155326   7.141   9.368   9.144  0.7820  0.1849 -0.1721
17868SOL    HW255327   7.273   9.298   9.119  0.1577 -0.9540 -0.3037
17869SOL     OW55328   4.959   9.609   1.514 -0.5271  0.5330  0.1737
17869SOL    HW155329   5.047   9.644   1.529 -0.2835  0.9131 -1.8165
17869SOL    HW255330   4.956   9.594   1.419 -2.9375  1.4559  0.0369
17870SOL     OW55331   4.611   3.078   2.086  0.5604 -0.2343  0.3659
17870SOL    HW155332   4.668   3.127   2.144  2.1353 -0.4118 -0.9404
17870SOL    HW255333   4.644   2.988   2.090  0.4876 -0.3153 -0.5095
17871SOL     OW55334   0.629   4.124   8.242  0.0943 -0.5491 -0.0125
17871SOL    HW155335   0.635   4.215   8.269 -0.5559  0.1393 -2.0196
17871SOL    HW255336   0.708   4.083   8.279  0.9441  1.0661  0.0522
17872SOL     OW55337   9.144   4.501   1.107 -0.1494  0.6905 -0.0414
17872SOL    HW155338   9.223   4.449   1.095 -0.1316  0.8495 -0.6320
17872SOL    HW255339   9.107   4.470   1.189  0.9838  1.1944  0.6870
17873SOL     OW55340   6.367   2.947   2.356  0.7312 -0.2402  0.2969
17873SOL    HW155341   6.291   2.993   2.322  0.6480  0.2875  1.1559
17873SOL    HW255342   6.419   2.925   2.279  1.1021  1.8580 -0.0956
17874SOL     OW55343   3.537   0.152   2.055  0.2603 -0.4222 -0.0822
17874SOL    HW155344   3.561   0.059   2.045  0.8437 -0.1877 -0.9965
17874SOL    HW255345   3.600   0.199   2.001  0.3472  0.5699  0.8404
17875SOL     OW55346   3.037   1.260   4.637  0.6936 -0.3778  0.4945
17875SOL    HW155347   2.942   1.246   4.636  0.6044  0.1500  1.0159
17875SOL    HW255348   3.050   1.337   4.581  0.9865 -1.3613 -0.8424
17876SOL     OW55349   0.313   9.063   8.058  0.4627  0.8004 -0.2608
17876SOL    HW155350   0.222   9.037   8.043 -0.0265  1.5840  1.1698
17876SOL    HW255351   0.323   9.144   8.007 -0.1420  1.5622  0.7824
17877SOL     OW55352   0.050   0.086   5.962  0.2788  0.0329  0.2864
17877SOL    HW155353   0.045   0.062   6.054 -0.3352  0.6751  0.4286
17877SOL    HW255354   0.101   0.167   5.962  1.0123 -0.4229 -0.0278
17878SOL     OW55355   3.380   5.670   5.918  0.3414  0.4057 -0.2982
17878SOL    HW155356   3.294   5.634   5.941 -0.4590  1.6871 -1.1301
17878SOL    HW255357   3.434   5.594   5.898 -0.5071 -0.4362  0.5367
17879SOL     OW55358   4.048   5.600   2.705  0.0087 -0.5342  0.3715
17879SOL    HW155359   4.063   5.685   2.665  1.2751 -0.8383  0.1512
17879SOL    HW255360   3.993   5.619   2.781 -0.0851  0.4193  0.0779
17880SOL     OW55361   4.828   6.347   6.260 -0.3164  0.4189  0.4455
17880SOL    HW155362   4.765   6.393   6.316 -1.2423 -1.7666  1.3015
17880SOL    HW255363   4.775   6.300   6.196  0.4434 -0.8513  0.7070
17881SOL     OW55364   0.943   6.331   2.684 -0.2509 -0.4107  0.0463
17881SOL    HW155365   0.936   6.241   2.652  3.4923 -1.0829  0.6919
17881SOL    HW255366   0.984   6.323   2.770  2.4444  1.9534 -0.8909
17882SOL     OW55367   3.345   2.434   1.272 -0.2950 -0.0676 -0.2058
17882SOL    HW155368   3.314   2.350   1.306  0.8515 -1.2758 -1.9758
17882SOL    HW255369   3.273   2.465   1.217 -0.1079 -0.6805 -0.8050
17883SOL     OW55370   9.210   9.364   2.829  0.5060  0.0543 -0.3939
17883SOL    HW155371   9.122   9.333   2.805  0.2957  1.0526 -0.9706
17883SOL    HW255372   9.253   9.381   2.745  0.9884  0.2848 -0.1023
17884SOL     OW55373   8.827   1.180   1.464  0.3383  0.5862 -0.3574
17884SOL    HW155374   8.789   1.160   1.550  1.2901 -0.3563 -0.1231
17884SOL    HW255375   8.783   1.260   1.436 -1.5383 -0.2664  0.0340
17885SOL     OW55376   0.296   4.075   2.415 -0.1705  0.2744  0.2850
17885SOL    HW155377   0.288   3.980   2.427  1.6502  0.1000  0.4797
17885SOL    HW255378   0.345   4.104   2.492 -1.1834  1.4649  0.4889
17886SOL     OW55379   0.209   2.936   8.535  0.6250 -0.4779 -0.1217
17886SOL    HW155380   0.135   2.882   8.506  0.3600 -0.4882  0.5503
17886SOL    HW255381   0.220   3.000   8.465 -1.1331  0.5876  0.5140
17887SOL     OW55382   6.383   7.159   0.363  0.4328 -0.1051  0.2338
17887SOL    HW155383   6.366   7.067   0.341  0.3159  0.0216 -0.2121
17887SOL    HW255384   6.297   7.194   0.385  0.6987 -0.5272  2.0638
17888SOL     OW55385   1.767   2.612   6.104 -0.8409 -0.1140 -0.1382
17888SOL    HW155386   1.792   2.536   6.158  0.8930 -0.2943 -1.1238
17888SOL    HW255387   1.830   2.679   6.127 -1.0412  0.3185 -0.8284
17889SOL     OW55388   2.814   9.074   5.943 -0.3187 -0.8480 -0.5437
17889SOL    HW155389   2.882   9.132   5.908 -0.8123 -0.1249 -0.3151
17889SOL    HW255390   2.802   9.102   6.033 -2.5900  0.6351 -1.2324
17890SOL     OW55391   8.036   8.746   6.021  0.6146  0.3475  0.3568
17890SOL    HW155392   8.020   8.740   6.115  0.4145  1.4091  0.3965
17890SOL    HW255393   8.125   8.778   6.013  0.5227  0.5634  0.1886
17891SOL     OW55394   6.105   5.999   0.797 -0.5658 -0.4426  0.7165
17891SOL    HW155395   6.195   5.976   0.776 -0.5807  0.4654 -0.4353
17891SOL    HW255396   6.112   6.079   0.850 -0.7188  2.6994 -3.5152
17892SOL     OW55397   5.959   8.549   6.182  0.5919  0.0447  0.2750
17892SOL    HW155398   6.002   8.468   6.211  1.3709  0.1104 -0.6754
17892SOL    HW255399   5.965   8.607   6.258  0.4343 -0.6300  0.8119
17893SOL     OW55400   2.070   8.977   0.492 -0.5107 -0.1933 -0.7747
17893SOL    HW155401   2.017   9.029   0.552 -0.3514 -0.2257 -0.6067
17893SOL    HW255402   2.093   8.898   0.541  1.9986  1.0096  0.1805
17894SOL     OW55403   4.245   0.642   8.369  0.2530  0.6082  0.0766
17894SOL    HW155404   4.337   0.625   8.347  0.3668  1.6359 -0.3258
17894SOL    HW255405   4.245   0.733   8.399 -0.4195  0.1854  1.4217
17895SOL     OW55406   2.422   9.568   0.548  0.2650 -0.3201 -0.0095
17895SOL    HW155407   2.482   9.513   0.498  1.1455  0.4552  0.1489
17895SOL    HW255408   2.467   9.583   0.631  0.2212  0.9206 -0.1888
17896SOL     OW55409   4.213   4.028   6.854 -0.2044  0.7662 -0.2953
17896SOL    HW155410   4.166   4.101   6.814 -2.1654 -0.4089 -0.2447
17896SOL    HW255411   4.193   4.035   6.948 -0.9407 -0.1834 -0.3698
17897SOL     OW55412   3.093   7.202   6.472  0.7553  0.0408 -0.6626
17897SOL    HW155413   3.012   7.239   6.507  1.5449 -0.7468  2.2329
17897SOL    HW255414   3.161   7.234   6.531  2.6623  0.7546 -3.0578
17898SOL     OW55415   7.000   3.035   7.769 -0.0418 -0.4053  0.9706
17898SOL    HW155416   7.088   2.999   7.762  0.6697  1.2783  0.8738
17898SOL    HW255417   6.974   3.053   7.678  0.8530  2.0818  1.1320
17899SOL     OW55418   6.056   6.259   8.976  0.0461 -0.4962  0.2592
17899SOL    HW155419   6.003   6.334   9.004 -0.2662 -1.4527  2.4164
17899SOL    HW255420   6.120   6.248   9.047 -0.9691 -3.2621  0.8496
17900SOL     OW55421   1.905   4.083   9.362 -0.1274 -0.7219  0.3499
17900SOL    HW155422   1.974   4.090   9.296 -0.9508  1.6554 -0.3292
17900SOL    HW255423   1.828   4.053   9.313 -0.8463  1.4259  0.0700
17901SOL     OW55424   2.562   1.476   9.100 -0.6731  0.7243 -0.2536
17901SOL    HW155425   2.534   1.566   9.082  0.4257  1.0350 -0.4900
17901SOL    HW255426   2.497   1.442   9.162 -2.2563  0.9844 -1.7144
17902SOL     OW55427   7.104   2.930   0.420 -0.1683  0.0919  0.3487
17902SOL    HW155428   7.016   2.894   0.434 -0.8307  1.0457 -1.1338
17902SOL    HW255429   7.163   2.863   0.456 -1.4452 -1.2169  0.1154
17903SOL     OW55430   6.823   1.073   1.786  0.1444 -0.7770  0.1583
17903SOL    HW155431   6.885   1.105   1.720  0.5016  0.0981  0.9062
17903SOL    HW255432   6.756   1.027   1.735 -1.1254  2.2532 -1.1220
17904SOL     OW55433   8.751   7.853   6.729 -0.4324  0.0800 -0.1355
17904SOL    HW155434   8.823   7.840   6.667 -0.7253 -0.4499 -0.3705
17904SOL    HW255435   8.693   7.915   6.685 -0.4281  0.0301 -0.2116
17905SOL     OW55436   0.093   5.476   0.255 -0.5066  0.2672  0.1191
17905SOL    HW155437   0.189   5.474   0.248 -0.5490  0.4100 -0.4962
17905SOL    HW255438   0.076   5.465   0.349  0.1196  0.4747  0.2612
17906SOL     OW55439   2.800   1.905   6.343 -0.1887  0.0896  0.3411
17906SOL    HW155440   2.885   1.877   6.378 -1.0406 -1.4840  1.2613
17906SOL    HW255441   2.783   1.846   6.270  0.3610  1.6666 -1.1223
17907SOL     OW55442   5.324   2.256   8.172 -0.4168 -0.0530 -0.2138
17907SOL    HW155443   5.263   2.229   8.241  1.0639 -1.6584  0.5667
17907SOL    HW255444   5.389   2.309   8.218 -0.8265  1.0916 -0.9122
17908SOL     OW55445   2.058   3.175   8.265 -0.3407  0.0801 -0.1702
17908SOL    HW155446   2.096   3.255   8.300 -0.2926  0.1609 -0.4029
17908SOL    HW255447   1.975   3.203   8.226  0.4719  0.3482 -1.8267
17909SOL     OW55448   5.956   5.664   9.536  0.0213  0.0180 -0.0153
17909SOL    HW155449   5.985   5.743   9.582  0.9879  0.8739 -1.9813
17909SOL    HW255450   5.864   5.681   9.514  0.1177  0.4361 -0.0980
17910SOL     OW55451   0.403   5.883   5.861 -0.0568 -0.2842 -0.3114
17910SOL    HW155452   0.483   5.842   5.828  0.0065  0.1048 -0.6505
17910SOL    HW255453   0.381   5.833   5.939 -0.3723 -1.4314 -1.1016
17911SOL     OW55454   4.689   4.870   2.632  0.0570  0.4019  0.1470
17911SOL    HW155455   4.713   4.787   2.674 -0.9117  0.2896  0.5078
17911SOL    HW255456   4.595   4.861   2.614 -0.3159  1.8611  1.2194
17912SOL     OW55457   3.545   9.176   9.179 -0.4062  0.2520  0.5583
17912SOL    HW155458   3.502   9.229   9.246 -0.3922 -1.0991  1.6802
17912SOL    HW255459   3.479   9.110   9.154 -0.4551  0.8069 -0.8665
17913SOL     OW55460   1.703   4.513   5.163 -0.3483  0.0318 -0.3040
17913SOL    HW155461   1.700   4.582   5.096 -1.2777  1.7138  1.3890
17913SOL    HW255462   1.617   4.516   5.204 -0.9740 -3.1895 -1.0879
17914SOL     OW55463   2.081   2.169   1.376 -0.0071 -0.1302 -0.4439
17914SOL    HW155464   2.005   2.115   1.354  0.1008  0.4643 -2.5030
17914SOL    HW255465   2.045   2.240   1.429 -0.6649 -0.5812 -0.2759
17915SOL     OW55466   4.514   4.071   5.762 -0.1396 -0.7959  0.6853
17915SOL    HW155467   4.588   4.025   5.802 -0.6269 -2.6860 -0.4653
17915SOL    HW255468   4.486   4.014   5.691 -2.4188  0.1107  0.7782
17916SOL     OW55469   0.708   5.117   7.256  0.0048  0.5860  0.7564
17916SOL    HW155470   0.727   5.190   7.197  2.5615  0.4696  1.2935
17916SOL    HW255471   0.613   5.106   7.252 -0.0588  1.4511 -2.2661
17917SOL     OW55472   5.793   1.511   9.332 -0.4567 -0.4060 -0.6725
17917SOL    HW155473   5.845   1.430   9.330  0.6161  0.2141  0.6661
17917SOL    HW255474   5.768   1.520   9.424 -2.4778 -0.3707 -1.1902
17918SOL     OW55475   6.116   9.637   4.819 -0.1798 -0.1282 -0.5363
17918SOL    HW155476   6.174   9.589   4.761  1.7691 -0.0748  1.2425
17918SOL    HW255477   6.047   9.671   4.762  0.2415 -2.1342 -2.3666
17919SOL     OW55478   1.236   2.341   1.646 -0.4473 -0.0665  0.6326
17919SOL    HW155479   1.324   2.375   1.633 -0.1044 -1.6286 -1.7395
17919SOL    HW255480   1.211   2.371   1.733  2.4204  0.4249  1.3714
17920SOL     OW55481   4.731   7.321   3.574  0.0020  0.4382 -0.0900
17920SOL    HW155482   4.685   7.402   3.597 -0.5100 -0.3664  1.9138
17920SOL    HW255483   4.709   7.260   3.644  1.9109 -0.8601 -0.5425
17921SOL     OW55484   8.027   9.624   7.934 -0.7090 -0.4126  1.1004
17921SOL    HW155485   8.087   9.693   7.964 -1.4434  0.5859  0.3279
17921SOL    HW255486   7.944   9.644   7.977 -0.4624 -1.9937  2.4398
17922SOL     OW55487   3.893   7.191   7.533 -0.7189 -0.1724 -0.1765
17922SOL    HW155488   3.857   7.272   7.497  0.7802  0.9739  0.7822
17922SOL    HW255489   3.963   7.167   7.472  1.4041  1.4294  1.4926
17923SOL     OW55490   9.041   9.425   3.941  0.1313 -0.3208 -0.2098
17923SOL    HW155491   9.091   9.345   3.927 -2.3221 -1.8978 -0.7228
17923SOL    HW255492   9.001   9.413   4.028  1.3510  1.3378  0.6226
17924SOL     OW55493   5.941   9.221   4.404  0.5592 -0.6613  0.3315
17924SOL    HW155494   5.921   9.304   4.447  1.1431  0.6914 -1.8370
17924SOL    HW255495   6.036   9.221   4.394  0.6205 -1.8278  0.6653
17925SOL     OW55496   7.996   7.738   4.099 -0.7924 -1.0200  0.3241
17925SOL    HW155497   7.940   7.662   4.085 -1.2889 -0.5956 -0.0461
17925SOL    HW255498   7.949   7.810   4.056  0.0660 -0.6695 -0.0462
17926SOL     OW55499   0.495   4.311   2.103 -0.4707 -0.1753  0.2850
17926SOL    HW155500   0.536   4.335   2.020 -0.6985 -2.4441 -0.5746
17926SOL    HW255501   0.567   4.299   2.164 -0.1599 -0.2873 -0.1033
17927SOL     OW55502   5.548   9.053   5.064 -0.2228  0.2210  0.5421
17927SOL    HW155503   5.603   9.128   5.084  3.2217 -1.6609 -1.0296
17927SOL    HW255504   5.474   9.090   5.016  0.4517  2.7209  1.2477
17928SOL     OW55505   8.417   1.382   0.770  0.3588  0.3658 -0.3495
17928SOL    HW155506   8.416   1.292   0.737  2.1173  0.0809  0.2435
17928SOL    HW255507   8.455   1.374   0.858 -2.0448  1.3711  0.8834
17929SOL     OW55508   9.291   8.430   1.278  0.1648  0.0071  0.2583
17929SOL    HW155509   9.238   8.480   1.215  0.5382 -0.3519 -0.3484
17929SOL    HW255510   9.231   8.363   1.311 -0.4577  1.0772  1.3744
17930SOL     OW55511   9.625   1.008   6.580  0.0280 -0.3041  0.1417
17930SOL    HW155512   9.677   0.952   6.522 -1.0948  0.7660 -2.0508
17930SOL    HW255513   9.667   1.000   6.665  1.9158 -1.8227 -0.8438
17931SOL     OW55514   2.158   0.468   2.628 -0.5973 -0.6142 -0.0861
17931SOL    HW155515   2.149   0.561   2.651  0.3066 -0.1652 -1.4823
17931SOL    HW255516   2.073   0.430   2.652  0.0401 -0.1407  3.4846
17932SOL     OW55517   5.750   4.197   2.412  0.6588 -0.5438 -0.2812
17932SOL    HW155518   5.680   4.133   2.400 -0.5161  0.7205 -0.3714
17932SOL    HW255519   5.795   4.168   2.492  0.7762 -2.0136 -0.8450
17933SOL     OW55520   4.448   7.875   1.719  0.0691 -0.5156 -0.3554
17933SOL    HW155521   4.485   7.951   1.672 -1.3876 -0.7370 -1.9584
17933SOL    HW255522   4.491   7.799   1.679  1.0408 -0.5958  0.7954
17934SOL     OW55523   6.909   4.065   6.125 -0.1663  0.2699 -0.7198
17934SOL    HW155524   6.989   4.108   6.156 -0.0478 -0.8682  0.6208
17934SOL    HW255525   6.846   4.136   6.118  0.3979  0.8903  0.1603
17935SOL     OW55526   2.876   3.638   8.071  0.2774  0.2799  0.7084
17935SOL    HW155527   2.828   3.682   8.000 -0.3190 -1.9268 -0.3762
17935SOL    HW255528   2.914   3.560   8.029 -1.0590 -1.7581  2.9852
17936SOL     OW55529   0.121   6.121   2.863  0.3387  0.2007 -0.0572
17936SOL    HW155530   0.162   6.110   2.949 -0.1177 -0.4956  0.0839
17936SOL    HW255531   0.062   6.046   2.856  1.7816 -0.8376 -1.8156
17937SOL     OW55532   2.915   7.261   7.407 -0.2609 -0.1376  0.3616
17937SOL    HW155533   2.986   7.217   7.455  0.2327 -0.1604 -0.3667
17937SOL    HW255534   2.862   7.189   7.372 -0.8903 -0.1190  1.2396
17938SOL     OW55535   8.303   0.812   2.374 -0.0945 -0.4400 -0.0562
17938SOL    HW155536   8.315   0.829   2.281 -0.5996 -0.1447 -0.0687
17938SOL    HW255537   8.368   0.869   2.417 -0.0935 -0.3232 -0.2118
17939SOL     OW55538   9.389   8.494   8.090  0.0889 -0.3729 -0.6394
17939SOL    HW155539   9.437   8.570   8.056  0.9574 -0.4012  0.4857
17939SOL    HW255540   9.455   8.425   8.097 -0.5427 -1.0237 -0.9433
17940SOL     OW55541   0.413   8.316   2.352  0.0693 -0.6422  0.2316
17940SOL    HW155542   0.396   8.223   2.366 -0.4960 -1.0256 -2.4691
17940SOL    HW255543   0.332   8.350   2.313  0.9359  0.4983 -0.6581
17941SOL     OW55544   3.994   2.089   7.941 -0.3625  0.2438 -0.2151
17941SOL    HW155545   3.967   2.069   8.031 -1.0791  3.1868  0.3429
17941SOL    HW255546   3.921   2.061   7.887 -0.5116 -0.3047  0.2591
17942SOL     OW55547   3.072   3.158   9.683  0.5881  0.2361 -1.0001
17942SOL    HW155548   3.025   3.227   9.730  2.1902  0.2742  0.6496
17942SOL    HW255549   3.033   3.158   9.596  0.0520  2.7247 -0.8275
17943SOL     OW55550   8.021   8.999   3.452  0.0272 -0.2092 -0.4130
17943SOL    HW155551   8.102   9.049   3.436  0.7290 -0.7032  1.3572
17943SOL    HW255552   8.051   8.916   3.489 -1.3216 -0.0484  1.1149
17944SOL     OW55553   0.731   6.458   3.378 -0.5833 -0.4530  0.0456
17944SOL    HW155554   0.825   6.477   3.380 -0.8610  0.9997  1.3456
17944SOL    HW255555   0.709   6.440   3.469 -2.1496  2.6254  0.3917
17945SOL     OW55556   9.427   9.512   0.203  0.4857 -0.2141  0.2340
17945SOL    HW155557   9.506   9.510   0.148  0.0113  1.4904 -0.5550
17945SOL    HW255558   9.369   9.447   0.164  0.8790 -0.3580 -0.1247
17946SOL     OW55559   9.667   1.325   6.898 -0.4325 -0.1393  0.2963
17946SOL    HW155560   9.680   1.252   6.958 -1.0691  0.8015  1.6473
17946SOL    HW255561   9.754   1.363   6.887 -0.3267 -0.2545  0.7137
17947SOL     OW55562   1.517   7.678   7.055  0.0713  0.2941 -0.5442
17947SOL    HW155563   1.494   7.588   7.077  0.4647  0.7256  1.8482
17947SOL    HW255564   1.434   7.720   7.031 -0.1053 -0.6678 -1.7128
17948SOL     OW55565   6.229   6.686   5.786  0.1333  0.4139  0.2687
17948SOL    HW155566   6.135   6.669   5.796  0.5064 -1.3372  1.1046
17948SOL    HW255567   6.255   6.629   5.714  0.8248 -0.1964  0.9946
17949SOL     OW55568   1.793   6.884   8.534  0.0103  0.0171 -0.1254
17949SOL    HW155569   1.789   6.876   8.439  1.5743 -0.3010 -0.1942
17949SOL    HW255570   1.822   6.798   8.564 -0.3021  0.1675  0.6320
17950SOL     OW55571   0.899   9.374   4.741  0.1222 -0.0031  0.0710
17950SOL    HW155572   0.957   9.403   4.811 -0.2286 -0.6894  0.6504
17950SOL    HW255573   0.811   9.383   4.776 -0.0217 -4.6414  1.5732
17951SOL     OW55574   4.692   9.396   4.219  1.1856  0.4061 -0.3136
17951SOL    HW155575   4.781   9.388   4.185  0.5643 -0.9923 -1.6985
17951SOL    HW255576   4.684   9.324   4.282  0.0110 -1.6223 -2.6559
17952SOL     OW55577   6.600   6.216   0.539  0.0960 -0.4696 -0.4459
17952SOL    HW155578   6.592   6.298   0.490  2.1886 -0.7373 -1.3466
17952SOL    HW255579   6.677   6.173   0.501 -0.3025 -2.3508  0.7472
17953SOL     OW55580   8.699   9.310   8.368 -0.8486  0.5918  0.0621
17953SOL    HW155581   8.681   9.289   8.277  0.5436  2.0765 -0.6192
17953SOL    HW255582   8.783   9.267   8.386  0.0329  2.1665 -0.1173
17954SOL     OW55583   4.480   0.904   7.520 -0.0423 -0.6378 -0.2964
17954SOL    HW155584   4.454   0.979   7.573 -1.4650 -1.9570  1.0147
17954SOL    HW255585   4.439   0.920   7.434  0.9824  0.7848 -0.5484
17955SOL     OW55586   4.173   3.337   5.621 -0.6720  0.2945 -0.2743
17955SOL    HW155587   4.095   3.379   5.585 -0.4587  0.2164 -0.8318
17955SOL    HW255588   4.240   3.349   5.554 -0.9898 -2.2310 -1.1509
17956SOL     OW55589   2.060   4.921   7.892 -0.1863 -0.8623 -0.1276
17956SOL    HW155590   2.066   4.826   7.902 -1.4505 -1.0023 -0.5027
17956SOL    HW255591   1.969   4.941   7.912  0.3463  0.4463  1.2025
17957SOL     OW55592   2.592   1.166   4.067 -0.2202  0.4867  0.2255
17957SOL    HW155593   2.506   1.205   4.082  0.1964  0.7264  2.2608
17957SOL    HW255594   2.655   1.234   4.091  0.5471  0.2504 -1.0471
17958SOL     OW55595   1.323   8.053   5.219  0.5673  0.6550  0.3133
17958SOL    HW155596   1.409   8.089   5.196  0.4550  1.0786  0.5450
17958SOL    HW255597   1.261   8.104   5.169  0.2862  1.9094  1.8701
17959SOL     OW55598   6.470   8.856   3.603  0.4302 -0.1204  0.2019
17959SOL    HW155599   6.471   8.951   3.596  0.6688 -0.0867  0.7206
17959SOL    HW255600   6.504   8.826   3.519  1.9176  0.2758  0.6440
17960SOL     OW55601   0.127   5.975   5.404  0.1336 -0.2684 -0.7651
17960SOL    HW155602   0.157   5.983   5.313 -1.1805  1.9088 -1.0749
17960SOL    HW255603   0.082   5.891   5.407  1.3317 -0.9710 -1.7648
17961SOL     OW55604   9.130   4.367   7.013 -0.6837 -0.5507 -0.7587
17961SOL    HW155605   9.063   4.334   7.074 -1.2675  1.0283 -0.4836
17961SOL    HW255606   9.200   4.400   7.070  0.4391 -2.3369 -1.0486
17962SOL     OW55607   5.782   5.389   8.882 -0.3629  0.3380  0.0467
17962SOL    HW155608   5.854   5.440   8.846  0.0168 -1.5864 -2.1870
17962SOL    HW255609   5.705   5.416   8.831 -0.3147 -0.6662 -0.5927
17963SOL     OW55610   5.190   3.776   3.055  0.4893 -0.0738 -0.3418
17963SOL    HW155611   5.225   3.855   3.097 -2.7958  0.7842  1.0913
17963SOL    HW255612   5.221   3.704   3.111  0.7295  0.5330  0.3258
17964SOL     OW55613   5.894   4.618   0.736 -0.3679 -0.4820  0.0677
17964SOL    HW155614   5.963   4.639   0.673  0.5084 -0.8600  0.8784
17964SOL    HW255615   5.827   4.572   0.684 -0.8503  1.4200 -1.0817
17965SOL     OW55616   2.722   9.637   5.813  0.1466 -0.9373  0.2380
17965SOL    HW155617   2.815   9.641   5.790  0.3982 -2.6899  0.7933
17965SOL    HW255618   2.714   9.690   5.892  0.8938 -1.6499  0.8037
17966SOL     OW55619   1.587   0.001   0.060  0.0839 -0.5915  0.5601
17966SOL    HW155620   1.667  -0.051   0.062  0.6429  0.2744  1.1314
17966SOL    HW255621   1.605   0.076   0.116 -0.0720  1.1360 -1.5699
17967SOL     OW55622   6.466   1.876   6.691 -0.2072  0.3410  0.0904
17967SOL    HW155623   6.377   1.909   6.680 -0.5918 -0.4499  0.7534
17967SOL    HW255624   6.456   1.781   6.699  0.4786  0.3941  2.1554
17968SOL     OW55625   4.480   0.615   3.183  0.0847  0.3944 -0.5885
17968SOL    HW155626   4.438   0.647   3.263 -0.0612 -0.5294 -0.2884
17968SOL    HW255627   4.526   0.536   3.210  1.5784  1.0716 -1.0331
17969SOL     OW55628   7.457   8.419   0.845 -0.2156 -0.0512  0.0361
17969SOL    HW155629   7.511   8.493   0.820 -0.0010  0.0625  0.7976
17969SOL    HW255630   7.418   8.445   0.929  2.6091 -2.1215  2.1737
17970SOL     OW55631   1.281   7.216   2.837  0.3069  1.1720 -0.5908
17970SOL    HW155632   1.206   7.192   2.891  1.7864  0.2110  1.1543
17970SOL    HW255633   1.307   7.134   2.795  1.4923  1.0772  0.2971
17971SOL     OW55634   7.059   7.389   7.410 -0.1575 -0.0599  0.0132
17971SOL    HW155635   7.060   7.351   7.498 -0.8224  0.1536  0.1160
17971SOL    HW255636   7.125   7.340   7.362  1.0151  0.5474  0.9425
17972SOL     OW55637   5.818   0.841   2.566 -0.1874  0.0935 -0.6055
17972SOL    HW155638   5.810   0.808   2.655 -0.4357 -0.5587 -0.8635
17972SOL    HW255639   5.911   0.859   2.555 -0.2413  0.7403 -0.0186
17973SOL     OW55640   2.564   2.885   7.989 -0.0101  0.3321  0.2483
17973SOL    HW155641   2.492   2.936   7.951  1.5156  1.3689 -1.3667
17973SOL    HW255642   2.602   2.838   7.915  2.0867  1.2025  0.7003
17974SOL     OW55643   2.543   1.895   4.127  0.2917  0.4775  0.1545
17974SOL    HW155644   2.540   1.929   4.038 -2.9990 -0.4063 -0.2298
17974SOL    HW255645   2.527   1.971   4.183  0.4198  0.7254 -0.1466
17975SOL     OW55646   8.619   9.018   1.180 -0.5929  0.1611 -1.0025
17975SOL    HW155647   8.595   8.932   1.212 -0.7538  0.2132 -0.9808
17975SOL    HW255648   8.563   9.032   1.103 -0.7703  0.3651 -0.8366
17976SOL     OW55649   8.400   8.712   3.463 -0.1326 -0.2463 -0.1923
17976SOL    HW155650   8.403   8.679   3.373 -0.4965  2.2211 -1.1920
17976SOL    HW255651   8.307   8.710   3.486 -0.0323 -0.9364  0.1705
17977SOL     OW55652   4.207   2.070   6.964  0.1790 -0.5092 -0.0735
17977SOL    HW155653   4.194   2.147   6.908 -1.3069  0.0949  1.0316
17977SOL    HW255654   4.293   2.084   7.004  0.5462 -0.1485 -0.9595
17978SOL     OW55655   0.010   1.975   6.219 -0.5744  0.0850 -0.6993
17978SOL    HW155656  -0.062   1.942   6.272  0.4680  0.3254  0.9173
17978SOL    HW255657  -0.024   1.974   6.129 -1.4842 -2.9137 -0.4280
17979SOL     OW55658   5.945   0.673   4.250 -0.2628 -1.2444  0.2766
17979SOL    HW155659   5.909   0.613   4.185 -1.9448 -0.5948  0.5364
17979SOL    HW255660   6.040   0.663   4.243 -0.4659 -3.4727 -0.0862
17980SOL     OW55661   8.875   9.114   1.710 -0.1735  0.1933 -0.0443
17980SOL    HW155662   8.842   9.113   1.800 -1.1616 -0.5160 -0.3965
17980SOL    HW255663   8.858   9.026   1.677  0.4831  0.3463 -0.8235
17981SOL     OW55664   9.312   0.837   0.277  0.5265 -0.1079 -0.1435
17981SOL    HW155665   9.262   0.806   0.201  0.2968 -0.2446  0.0628
17981SOL    HW255666   9.295   0.931   0.280 -0.5487 -0.3034  0.5247
17982SOL     OW55667   2.296   5.393   5.555  0.2128 -0.1894 -0.9344
17982SOL    HW155668   2.355   5.467   5.544 -0.2739  0.3592 -0.0230
17982SOL    HW255669   2.252   5.385   5.471 -0.2366  1.0212 -0.8417
17983SOL     OW55670   3.122   9.139   9.653  0.2927  0.2374  0.6073
17983SOL    HW155671   3.064   9.144   9.729 -1.4603 -1.3887 -0.5382
17983SOL    HW255672   3.209   9.125   9.690 -0.2863  0.9266  2.3316
17984SOL     OW55673   4.871   0.079   3.756 -0.0353  0.1547 -0.5208
17984SOL    HW155674   4.939   0.086   3.823  0.2145  1.3871 -0.8849
17984SOL    HW255675   4.802   0.026   3.797  0.2443  0.6292  0.5896
17985SOL     OW55676   6.917   0.986   6.656 -0.1382  0.1963 -0.3087
17985SOL    HW155677   6.974   1.054   6.692  0.7514 -0.9844  0.5531
17985SOL    HW255678   6.838   0.990   6.710  0.9075 -1.0974  1.4057
17986SOL     OW55679   0.777   9.467   0.963 -0.2298  0.6695 -0.0351
17986SOL    HW155680   0.862   9.492   0.999  0.2845  0.5035 -1.0877
17986SOL    HW255681   0.799   9.417   0.884 -1.3021  0.2767 -0.1000
17987SOL     OW55682   3.156   0.018   5.094  0.1180  0.3453  0.3129
17987SOL    HW155683   3.250   0.014   5.078  0.2139 -0.6443  1.0271
17987SOL    HW255684   3.117   0.002   5.008  0.5673  2.2567 -0.2930
17988SOL     OW55685   6.822   7.562   4.544  0.0690 -0.0936 -0.3485
17988SOL    HW155686   6.747   7.559   4.604  0.0481 -1.7588 -0.4043
17988SOL    HW255687   6.839   7.655   4.531 -0.5679  0.3144  1.4377
17989SOL     OW55688   4.417   2.807   3.198  0.2980 -0.0348  0.4232
17989SOL    HW155689   4.480   2.738   3.182 -0.0302 -0.5372  1.2568
17989SOL    HW255690   4.383   2.829   3.111  1.6877  0.3311 -0.0531
17990SOL     OW55691   2.580   9.169   1.666 -0.5384 -0.0751 -0.0360
17990SOL    HW155692   2.550   9.097   1.610 -0.6382 -0.1887  0.1637
17990SOL    HW255693   2.675   9.165   1.662 -0.5429 -0.2720  0.0448
17991SOL     OW55694   2.197   2.791   7.206  0.1475  0.8362  0.3685
17991SOL    HW155695   2.248   2.721   7.246  0.4816  0.5396 -0.5339
17991SOL    HW255696   2.230   2.795   7.116  1.4398  3.3413  0.8459
17992SOL     OW55697   1.416   5.315   7.585 -0.2030 -0.3502 -0.4569
17992SOL    HW155698   1.352   5.244   7.578  1.1804 -1.6082 -0.9179
17992SOL    HW255699   1.501   5.271   7.582  0.7127  1.3668 -1.2624
17993SOL     OW55700   0.687   4.261   6.354 -0.0831 -0.2440 -0.0158
17993SOL    HW155701   0.728   4.175   6.346 -1.2771 -0.8709  0.3617
17993SOL    HW255702   0.687   4.296   6.264  0.9433 -0.3529 -0.0795
17994SOL     OW55703   7.682   3.324   5.583  0.2748 -0.3764 -0.7366
17994SOL    HW155704   7.698   3.359   5.496  1.2820  0.0274 -0.4047
17994SOL    HW255705   7.755   3.263   5.598  0.2357 -0.2721 -0.0856
17995SOL     OW55706   8.395   5.747   5.319  0.4434  0.3309 -0.5899
17995SOL    HW155707   8.491   5.749   5.321  0.4554 -0.5235  0.9431
17995SOL    HW255708   8.368   5.775   5.406 -0.5781 -2.6834  0.1988
17996SOL     OW55709   5.854   6.541   6.384 -0.5692 -0.0847  0.0728
17996SOL    HW155710   5.845   6.452   6.419  0.1619 -0.2398 -0.1151
17996SOL    HW255711   5.949   6.556   6.379 -0.6836  0.9337  0.6718
17997SOL     OW55712   7.963   8.330   4.321  0.1091 -0.0058  0.2013
17997SOL    HW155713   7.935   8.264   4.258  0.1544  1.4797 -1.4683
17997SOL    HW255714   8.040   8.370   4.280  0.8467  0.2580  1.7575
17998SOL     OW55715   3.947   4.634   6.274 -0.2073 -0.1182  0.0250
17998SOL    HW155716   3.853   4.632   6.256 -0.2808 -1.1626  0.4129
17998SOL    HW255717   3.964   4.552   6.321  0.8018  0.3128  0.4494
17999SOL     OW55718   8.558   1.011   4.049  0.1413  0.1773  0.8336
17999SOL    HW155719   8.545   0.919   4.025  3.1964  0.2732 -1.8563
17999SOL    HW255720   8.480   1.056   4.015 -1.2855 -1.3325  1.9874
18000SOL     OW55721   7.487   6.749   6.160 -0.3110  0.3789  0.0420
18000SOL    HW155722   7.563   6.709   6.203  0.0259  0.0102 -0.8702
18000SOL    HW255723   7.474   6.832   6.206  0.4222  0.2807  0.4384
18001SOL     OW55724   8.929   4.749   0.093 -0.0993  0.1253  0.9036
18001SOL    HW155725   8.857   4.780   0.038  0.5896  2.4387  1.1884
18001SOL    HW255726   8.979   4.690   0.037 -2.4577 -1.9726  0.8725
18002SOL     OW55727   4.756   6.566   8.485 -0.4289  0.4590 -0.2206
18002SOL    HW155728   4.800   6.646   8.459  1.0103 -0.4372 -0.6494
18002SOL    HW255729   4.730   6.524   8.402 -0.4369  0.0829 -0.0338
18003SOL     OW55730   1.078   6.395   9.430 -0.1146  0.1315 -0.2841
18003SOL    HW155731   1.172   6.403   9.447  0.4103 -1.9399 -1.7536
18003SOL    HW255732   1.050   6.320   9.482 -0.7048  0.0440 -0.7174
18004SOL     OW55733   7.410   7.595   7.742  0.0865 -0.6057  0.0934
18004SOL    HW155734   7.324   7.635   7.728  0.1342 -0.7778 -0.7631
18004SOL    HW255735   7.390   7.506   7.772 -0.0605 -1.0459 -1.2542
18005SOL     OW55736   7.841   4.298   5.795 -0.4955 -0.1694  0.0169
18005SOL    HW155737   7.821   4.391   5.780 -3.6147 -0.7332  0.0338
18005SOL    HW255738   7.845   4.260   5.708 -1.4227 -0.3769  0.0535
18006SOL     OW55739   3.417   3.667   0.057  0.0594 -0.2525  0.0240
18006SOL    HW155740   3.417   3.632   0.146 -0.0272 -2.1490 -0.6905
18006SOL    HW255741   3.463   3.751   0.064  0.7070 -0.7187  1.7070
18007SOL     OW55742   7.191   8.595   2.608 -0.3622 -0.2385  0.1575
18007SOL    HW155743   7.101   8.577   2.580 -0.4696 -0.8930  0.8973
18007SOL    HW255744   7.182   8.634   2.695  0.0270  0.5870 -0.1633
18008SOL     OW55745   5.000   8.421   0.884 -0.0050  0.2846  0.3751
18008SOL    HW155746   5.005   8.506   0.840  1.7067  0.0655  0.0558
18008SOL    HW255747   4.907   8.400   0.886 -0.3173  1.3650 -1.0973
18009SOL     OW55748   6.140   5.385   1.602 -0.0341 -0.5480 -0.1477
18009SOL    HW155749   6.095   5.360   1.683 -0.5298 -0.8363 -0.5075
18009SOL    HW255750   6.112   5.476   1.587  0.1132 -0.4706  0.0349
18010SOL     OW55751   5.225   4.109   4.676  0.1195  0.3192 -0.0956
18010SOL    HW155752   5.307   4.114   4.725  0.1036  1.3062 -0.1437
18010SOL    HW255753   5.251   4.093   4.585  0.1218 -2.3216  0.2902
18011SOL     OW55754   5.618   7.463   8.523 -0.1744 -0.3972  0.2068
18011SOL    HW155755   5.652   7.376   8.544 -0.5939 -0.9922 -1.4631
18011SOL    HW255756   5.693   7.510   8.487 -0.5033 -0.9144 -1.2147
18012SOL     OW55757   7.674   8.830   3.648 -0.2316 -0.3955 -0.7868
18012SOL    HW155758   7.660   8.774   3.725 -1.2473 -0.6295 -1.1190
18012SOL    HW255759   7.685   8.918   3.683 -1.9750 -0.2835 -0.3927
18013SOL     OW55760   1.152   3.916   9.078 -0.3826 -0.3990  0.2448
18013SOL    HW155761   1.159   3.884   9.168  0.6102  0.3827  0.4661
18013SOL    HW255762   1.243   3.936   9.053 -0.8996  1.9334  0.0297
18014SOL     OW55763   2.004   0.146   3.839 -0.0562  0.2544 -0.2806
18014SOL    HW155764   2.050   0.229   3.843 -0.9838  0.8269 -1.0594
18014SOL    HW255765   1.917   0.168   3.805 -0.1025 -1.1024 -1.1322
18015SOL     OW55766   0.387   9.346   7.643 -0.2877  0.3663  1.3342
18015SOL    HW155767   0.342   9.430   7.646  0.2516  0.7421  0.0278
18015SOL    HW255768   0.470   9.362   7.688 -0.6387  0.2129  2.0498
18016SOL     OW55769   0.969   6.137   5.536  0.1719 -0.4050 -0.3197
18016SOL    HW155770   1.052   6.184   5.540  0.6745 -1.2884 -0.0936
18016SOL    HW255771   0.969   6.081   5.613 -0.3850 -0.8175 -0.6115
18017SOL     OW55772   8.562   8.990   0.501 -0.2763 -0.2905 -0.4033
18017SOL    HW155773   8.470   8.976   0.524  0.0331  0.1402  1.2854
18017SOL    HW255774   8.578   8.932   0.427 -1.7568 -0.8043 -0.3555
18018SOL     OW55775   1.159   6.493   2.185 -0.5608 -0.2234 -0.3701
18018SOL    HW155776   1.207   6.445   2.253 -0.8880 -2.7936 -1.8121
18018SOL    HW255777   1.118   6.565   2.232  1.9692  0.1392  1.5072
18019SOL     OW55778   4.560   0.055   4.107 -0.2067 -0.2838 -0.1825
18019SOL    HW155779   4.553   0.126   4.171 -1.1853 -1.2470  0.8175
18019SOL    HW255780   4.545   0.097   4.022  0.3186  0.8776  0.2793
18020SOL     OW55781   9.297   0.960   5.118  0.0721  0.1104 -1.1648
18020SOL    HW155782   9.342   0.906   5.184  0.0914  0.7100 -0.6827
18020SOL    HW255783   9.208   0.969   5.152  0.4410  1.5630 -0.5052
18021SOL     OW55784   8.726   1.436   6.181  0.2032  0.1010 -0.0901
18021SOL    HW155785   8.689   1.447   6.269  0.2204  0.9126 -0.1774
18021SOL    HW255786   8.730   1.524   6.145 -0.3661 -0.2879 -1.1507
18022SOL     OW55787   2.509   6.176   8.767 -0.3890 -0.2408 -0.2326
18022SOL    HW155788   2.416   6.196   8.750 -0.6977 -2.1257 -1.0386
18022SOL    HW255789   2.506   6.100   8.825  0.6685 -0.1672 -0.0778
18023SOL     OW55790   1.778   5.315   1.973 -0.2981 -0.5059  0.3991
18023SOL    HW155791   1.794   5.262   1.895 -1.6695  0.3456 -0.4908
18023SOL    HW255792   1.866   5.331   2.009  0.3189 -1.3498 -0.6560
18024SOL     OW55793   9.073   1.906   3.017 -0.5011 -0.3394  0.1550
18024SOL    HW155794   9.130   1.839   2.979 -0.1039  0.5644 -0.9133
18024SOL    HW255795   9.100   1.912   3.108  0.7662 -0.3146 -0.1994
18025SOL     OW55796   7.685   5.631   5.487 -1.0560 -0.4125 -0.0523
18025SOL    HW155797   7.721   5.554   5.530  3.2261 -0.5011 -3.1194
18025SOL    HW255798   7.722   5.705   5.535 -1.2196 -0.3618 -0.0023
18026SOL     OW55799   3.559   5.371   0.255  0.0112 -0.1767 -0.1221
18026SOL    HW155800   3.605   5.325   0.185  1.1990  0.5158  0.1775
18026SOL    HW255801   3.482   5.409   0.213 -0.3894 -1.4598 -0.6098
18027SOL     OW55802   0.555   3.157   5.180  0.3673  0.2522  0.4815
18027SOL    HW155803   0.593   3.160   5.092 -2.9846  1.8301 -1.1153
18027SOL    HW255804   0.604   3.222   5.229  0.7382  1.1597 -1.0138
18028SOL     OW55805   9.507   2.242   2.378 -0.1684  0.2453 -0.0557
18028SOL    HW155806   9.515   2.327   2.334  0.6050 -0.1952 -0.7914
18028SOL    HW255807   9.414   2.220   2.370  0.1328 -0.4133 -2.6665
18029SOL     OW55808   6.340   3.970   1.454 -0.1226  0.3378  0.1222
18029SOL    HW155809   6.273   4.037   1.472 -0.9255 -0.4123 -0.0431
18029SOL    HW255810   6.415   3.998   1.506 -1.1025  0.3209  1.6156
18030SOL     OW55811   5.456   4.883   8.151 -0.5146 -0.2904  0.4639
18030SOL    HW155812   5.419   4.970   8.165  1.6663  0.6851  0.6492
18030SOL    HW255813   5.401   4.844   8.084 -1.5514  1.2413  0.3733
18031SOL     OW55814   4.706   2.501   2.873  0.1843  0.4341 -0.3702
18031SOL    HW155815   4.615   2.519   2.849 -0.6470 -2.4591  0.2525
18031SOL    HW255816   4.744   2.459   2.796 -0.3084 -2.1616  0.7263
18032SOL     OW55817   9.032   2.379   3.717 -0.1762  0.5331 -0.0389
18032SOL    HW155818   9.103   2.443   3.722  0.9213 -0.7428  1.1636
18032SOL    HW255819   9.068   2.307   3.666 -1.6527  1.1068 -2.0225
18033SOL     OW55820   5.907   3.595   2.292 -0.4792  1.0573 -0.1372
18033SOL    HW155821   5.939   3.630   2.209  1.7796  0.6506  0.4962
18033SOL    HW255822   5.834   3.652   2.315 -1.8153  0.6122 -2.8136
18034SOL     OW55823   1.315   1.489   8.627  0.2245  0.5985  0.5742
18034SOL    HW155824   1.317   1.421   8.560  0.6803  0.7077  0.4805
18034SOL    HW255825   1.400   1.483   8.671 -0.1539  0.3638  1.3082
18035SOL     OW55826   0.367   3.982   1.887 -0.6937  0.0992  0.1798
18035SOL    HW155827   0.335   4.056   1.835 -1.8426 -0.3902  0.1430
18035SOL    HW255828   0.370   4.015   1.977  0.3370  0.6525 -0.0511
18036SOL     OW55829   1.955   6.770   9.108  0.3958 -0.2026 -0.3832
18036SOL    HW155830   2.010   6.816   9.171 -1.1287 -0.7536  1.4431
18036SOL    HW255831   1.885   6.832   9.088 -0.1629 -0.7179 -0.0496
18037SOL     OW55832   1.017   5.294   6.874 -0.7933 -0.4975 -0.7663
18037SOL    HW155833   0.995   5.201   6.880 -1.0350 -0.4497 -0.8964
18037SOL    HW255834   0.939   5.334   6.836 -1.0091 -0.1169  0.0530
18038SOL     OW55835   7.812   7.976   6.775  0.6832 -0.1806  0.0284
18038SOL    HW155836   7.903   7.986   6.747  0.6915  1.4406  0.5362
18038SOL    HW255837   7.769   8.056   6.747 -0.2072 -0.2063  1.2343
18039SOL     OW55838   2.771   8.962   4.382  0.0758  0.7146 -0.1579
18039SOL    HW155839   2.691   8.919   4.352  0.4446  0.3696 -0.6576
18039SOL    HW255840   2.806   9.005   4.304  0.1741  1.1906  0.1447
18040SOL     OW55841   9.232   5.194   3.051  0.7112 -0.2315 -0.3972
18040SOL    HW155842   9.205   5.173   2.961 -0.1685  2.1218 -0.7769
18040SOL    HW255843   9.316   5.150   3.062  0.9663 -0.3803 -2.4936
18041SOL     OW55844   1.778   9.094   7.418 -0.1411 -0.2015 -0.3968
18041SOL    HW155845   1.776   9.159   7.347  0.2553 -0.7515 -0.9169
18041SOL    HW255846   1.686   9.068   7.429 -0.4078  0.9779  0.3190
18042SOL     OW55847   5.143   0.627   7.183  0.4789 -0.2269 -0.0536
18042SOL    HW155848   5.094   0.547   7.203  2.0543 -1.8317 -2.1525
18042SOL    HW255849   5.075   0.690   7.156 -0.6683 -1.5066 -0.3023
18043SOL     OW55850   2.304   3.311   1.974  0.2135  0.3021  0.3357
18043SOL    HW155851   2.367   3.347   1.911 -0.2691  0.6630  0.0588
18043SOL    HW255852   2.323   3.218   1.975 -0.2650  0.1787 -0.9026
18044SOL     OW55853   6.045   2.252   0.570 -0.3616 -0.6047  0.5340
18044SOL    HW155854   6.052   2.343   0.600  0.4447 -0.7006  0.6657
18044SOL    HW255855   6.112   2.244   0.502 -1.2818 -0.7603 -0.3631
18045SOL     OW55856   3.449   4.968   4.885  0.0201  0.1839 -0.0851
18045SOL    HW155857   3.441   5.003   4.974 -1.2446 -0.2491 -0.0152
18045SOL    HW255858   3.390   5.023   4.833  1.6108  1.1832 -0.9082
18046SOL     OW55859   1.649   6.557   6.963  0.4892  0.2430  0.0330
18046SOL    HW155860   1.603   6.477   6.989 -0.5608  1.3224  1.6409
18046SOL    HW255861   1.644   6.557   6.867 -3.8163  0.7452  0.0820
18047SOL     OW55862   0.818   2.353   5.344 -0.1739  0.1827  0.0690
18047SOL    HW155863   0.842   2.277   5.291  0.9387  1.1846 -0.9141
18047SOL    HW255864   0.782   2.315   5.424  1.4707 -1.4010  0.1285
18048SOL     OW55865   6.460   6.586   5.949 -0.6294  0.3270  0.2563
18048SOL    HW155866   6.409   6.519   5.902 -0.2393  1.1911 -1.4778
18048SOL    HW255867   6.412   6.667   5.935  0.3041  0.8616  0.0690
18049SOL     OW55868   6.127   9.222   1.314  0.5307 -0.4073  0.1290
18049SOL    HW155869   6.162   9.225   1.403 -1.2357  0.4498  0.8505
18049SOL    HW255870   6.194   9.264   1.260  1.3813 -0.4194  1.1493
18050SOL     OW55871   7.119   3.821   9.146 -0.0783 -0.4848 -0.1612
18050SOL    HW155872   7.040   3.857   9.186 -0.3230 -1.1831 -0.0102
18050SOL    HW255873   7.186   3.886   9.164 -0.7640  0.4637 -0.8981
18051SOL     OW55874   4.876   9.246   6.163  0.1928  0.4630 -0.5513
18051SOL    HW155875   4.786   9.222   6.143  0.7745 -1.4951 -1.0706
18051SOL    HW255876   4.922   9.238   6.079  0.7158  2.2423 -0.4674
18052SOL     OW55877   4.056   5.430   8.468 -0.5825  0.0640 -0.2863
18052SOL    HW155878   4.000   5.446   8.544  0.1414 -2.2600  0.8461
18052SOL    HW255879   4.033   5.341   8.440  1.0492 -0.1299 -1.1141
18053SOL     OW55880   2.742   9.514   1.561 -0.0845 -0.1445  0.4653
18053SOL    HW155881   2.738   9.608   1.547 -1.6020  0.2546  2.9061
18053SOL    HW255882   2.653   9.484   1.541 -0.0738 -0.7591  1.2938
18054SOL     OW55883   6.537   8.097   7.518 -0.2738 -0.5967  0.1263
18054SOL    HW155884   6.622   8.115   7.478 -0.5182  1.3212  0.3567
18054SOL    HW255885   6.504   8.184   7.543 -1.8417 -1.3960  0.9643
18055SOL     OW55886   4.553   9.600   2.781 -0.1962  0.6205  0.1054
18055SOL    HW155887   4.463   9.578   2.756 -0.7611  0.3041  2.2642
18055SOL    HW255888   4.599   9.516   2.780 -0.5919  0.3698  1.4995
18056SOL     OW55889   6.581   2.613   7.657 -0.5085 -0.1122  0.0556
18056SOL    HW155890   6.574   2.532   7.707  1.0349  0.0138  0.5256
18056SOL    HW255891   6.522   2.674   7.702 -0.3922 -0.4790  0.7238
18057SOL     OW55892   5.438   3.914   3.156 -0.3605  0.1359 -0.8901
18057SOL    HW155893   5.507   3.956   3.208 -0.1152 -1.2278 -0.0479
18057SOL    HW255894   5.484   3.879   3.079 -0.5346  1.2189 -1.5010
18058SOL     OW55895   8.915   3.104   6.047 -0.1850  0.5978  0.1803
18058SOL    HW155896   8.970   3.114   5.969  0.9252  1.9421  1.1002
18058SOL    HW255897   8.975   3.081   6.117 -1.3975 -2.4469  0.3665
18059SOL     OW55898   1.580   3.491   8.478  0.9334 -0.2645  0.5897
18059SOL    HW155899   1.624   3.574   8.461 -0.4591  0.8845  2.1871
18059SOL    HW255900   1.640   3.444   8.536  0.9369  0.4601  1.1996
18060SOL     OW55901   8.638   2.202   9.369  1.3030  0.6687  0.2429
18060SOL    HW155902   8.729   2.231   9.365  0.6990  2.6960  0.2163
18060SOL    HW255903   8.600   2.251   9.442 -0.0325  0.6864 -0.4297
18061SOL     OW55904   0.664   8.868   6.543 -0.4527  0.4049  0.0773
18061SOL    HW155905   0.733   8.909   6.490 -1.1481  0.0337 -1.1683
18061SOL    HW255906   0.711   8.816   6.608  0.4723  0.0207 -0.8564
18062SOL     OW55907   9.518   7.609   4.112  0.7119  0.0366  0.1398
18062SOL    HW155908   9.570   7.638   4.187 -0.7431 -0.0848  1.2316
18062SOL    HW255909   9.455   7.547   4.149  1.8113 -2.3156 -1.6466
18063SOL     OW55910   7.527   4.211   7.505  0.6412  0.1790  0.4447
18063SOL    HW155911   7.614   4.252   7.509  1.2637 -1.1849  1.7479
18063SOL    HW255912   7.544   4.123   7.473 -0.0131 -0.6647  2.2893
18064SOL     OW55913   1.551   1.433   5.665 -0.0644 -1.0657 -0.0012
18064SOL    HW155914   1.540   1.501   5.599 -1.9862 -1.6725 -0.3563
18064SOL    HW255915   1.646   1.431   5.681  0.1801  0.7142 -0.9789
18065SOL     OW55916   5.187   2.095   2.043 -0.1694  0.0853 -0.2141
18065SOL    HW155917   5.255   2.109   1.978 -1.7177  1.3093 -1.6675
18065SOL    HW255918   5.231   2.106   2.128  1.4515  0.6506 -1.0965
18066SOL     OW55919   3.945   8.612   5.963 -0.0319 -0.4970 -0.2678
18066SOL    HW155920   3.946   8.586   6.055  1.1940 -0.4051 -0.2358
18066SOL    HW255921   3.955   8.530   5.914  0.1573 -0.4618 -0.2895
18067SOL     OW55922   6.073   0.959   4.380 -0.1378 -0.4070 -0.1887
18067SOL    HW155923   5.991   0.968   4.330 -0.9063  1.1414  1.2747
18067SOL    HW255924   6.112   0.879   4.345 -0.6204  0.5412 -3.2624
18068SOL     OW55925   4.697   2.810   3.524 -0.3837  0.2246  0.1343
18068SOL    HW155926   4.633   2.744   3.499 -0.6593  0.9060 -1.0230
18068SOL    HW255927   4.647   2.891   3.532  0.5894  1.3008 -3.1396
18069SOL     OW55928   3.644   3.962   3.124  0.1328  0.4195  0.2630
18069SOL    HW155929   3.668   3.915   3.204  3.6715  1.5777  0.0793
18069SOL    HW255930   3.613   3.894   3.065  0.4201 -0.9493  1.6033
18070SOL     OW55931   1.808   5.322   8.982  0.6008  0.3166 -0.2858
18070SOL    HW155932   1.763   5.250   9.026  2.3567 -0.6471  0.0188
18070SOL    HW255933   1.858   5.366   9.052  0.7744  0.8537 -0.7378
18071SOL     OW55934   2.609   1.940   6.719 -0.7919 -0.6941  0.2847
18071SOL    HW155935   2.570   1.936   6.807 -1.1123 -3.5142  0.1090
18071SOL    HW255936   2.695   1.900   6.729 -0.1674  0.4298 -0.4142
18072SOL     OW55937   0.805   6.759   2.249 -0.7569 -0.0505  0.0491
18072SOL    HW155938   0.755   6.837   2.224 -0.2882 -0.3092 -1.8164
18072SOL    HW255939   0.806   6.705   2.170 -0.5265 -1.6718  1.1184
18073SOL     OW55940   6.006   8.416   3.465 -1.2734 -0.4378  0.3169
18073SOL    HW155941   5.993   8.398   3.372 -0.6368 -0.3153  0.2019
18073SOL    HW255942   6.039   8.334   3.501  2.2024  0.5449 -0.3191
18074SOL     OW55943   6.401   9.308   4.094 -0.0409 -0.3127 -0.1437
18074SOL    HW155944   6.341   9.289   4.022  0.8192  0.3757 -1.0767
18074SOL    HW255945   6.479   9.257   4.075 -0.1476 -0.8618  0.8246
18075SOL     OW55946   4.604   0.770   7.082 -0.2962 -0.0009 -0.5012
18075SOL    HW155947   4.517   0.730   7.073 -0.5089 -0.0918  1.5213
18075SOL    HW255948   4.663   0.709   7.038 -1.2938  0.4392 -2.6096
18076SOL     OW55949   7.551   1.623   1.288 -0.4368  0.1611  0.1376
18076SOL    HW155950   7.476   1.613   1.229  1.2298  0.0540 -2.1201
18076SOL    HW255951   7.585   1.710   1.268 -0.1224  0.3260  1.3559
18077SOL     OW55952   5.235   4.656   2.715 -0.2341 -0.6819 -0.4841
18077SOL    HW155953   5.294   4.625   2.647 -0.0095 -1.0317 -0.1328
18077SOL    HW255954   5.286   4.649   2.796 -1.0368 -1.8190 -0.0541
18078SOL     OW55955   4.633   8.378   2.159 -0.2861  0.0891 -0.1834
18078SOL    HW155956   4.639   8.344   2.069 -1.6347 -2.5230  0.5916
18078SOL    HW255957   4.557   8.436   2.157 -0.7710 -0.5388 -0.5980
18079SOL     OW55958   3.850   0.905   2.208  0.0001  0.1813  0.3739
18079SOL    HW155959   3.782   0.932   2.270 -0.6185  0.9452 -0.5963
18079SOL    HW255960   3.827   0.815   2.186  0.5420 -0.2838  1.6417
18080SOL     OW55961   8.264   5.661   3.478  0.0437  0.1515  0.1658
18080SOL    HW155962   8.310   5.589   3.435 -0.7783  0.6117 -1.5946
18080SOL    HW255963   8.232   5.715   3.405 -2.6908  0.2015  1.2823
18081SOL     OW55964   6.961   9.275   2.569 -0.2675 -0.0502 -0.0064
18081SOL    HW155965   6.947   9.316   2.484  0.7053 -0.9579 -0.6339
18081SOL    HW255966   6.892   9.209   2.576  0.5564 -1.0422 -0.8200
18082SOL     OW55967   4.836   9.321   1.882  0.6329 -0.1601 -0.5402
18082SOL    HW155968   4.865   9.363   1.801 -0.2944 -1.3454 -1.5402
18082SOL    HW255969   4.842   9.227   1.863 -0.2818 -0.4538  0.5015
18083SOL     OW55970   2.411   3.326   6.431  0.2039  0.4853 -0.0641
18083SOL    HW155971   2.382   3.359   6.516  1.2806  0.8786  0.1603
18083SOL    HW255972   2.396   3.399   6.371  3.1855  1.7348  0.5467
18084SOL     OW55973   8.496   2.414   6.498  0.1033 -0.2043  0.4776
18084SOL    HW155974   8.478   2.506   6.517  3.4641  0.5998  0.2636
18084SOL    HW255975   8.536   2.414   6.411 -0.3808 -1.9761  0.2062
18085SOL     OW55976   5.133   4.439   0.648  0.1138 -0.0378  1.0977
18085SOL    HW155977   5.219   4.463   0.616 -0.1485  0.6594  0.9020
18085SOL    HW255978   5.112   4.506   0.713 -0.7567  0.4606  0.3226
18086SOL     OW55979   5.361   9.349   5.914  0.4998  0.1050  0.4149
18086SOL    HW155980   5.401   9.403   5.847  2.3792 -1.1687  0.4272
18086SOL    HW255981   5.407   9.265   5.908 -0.8081 -0.7768  1.8256
18087SOL     OW55982   6.964   2.997   4.609 -0.4166  0.1982 -0.2689
18087SOL    HW155983   6.891   2.957   4.657 -1.7999  1.9791 -0.7585
18087SOL    HW255984   7.035   3.004   4.672 -0.5611 -1.7662  0.1730
18088SOL     OW55985   9.097   6.412   6.510  0.2460 -0.2152 -0.0082
18088SOL    HW155986   9.142   6.338   6.469  0.8085 -0.6475  1.3304
18088SOL    HW255987   9.051   6.455   6.438  0.5460 -1.4045 -0.9464
18089SOL     OW55988   4.586   4.471   9.312  0.4294  0.1711  0.2797
18089SOL    HW155989   4.491   4.461   9.307  0.1877  0.1863  2.9934
18089SOL    HW255990   4.616   4.391   9.355  1.8426 -0.3640 -1.5738
18090SOL     OW55991   6.696   6.954   0.031 -0.0765  0.1821  0.1484
18090SOL    HW155992   6.680   6.929  -0.060  0.9114 -1.7329  0.4248
18090SOL    HW255993   6.746   7.035   0.026 -0.5360  0.4039 -0.9966
18091SOL     OW55994   4.524   5.005   2.310 -0.1871  0.1535 -0.0296
18091SOL    HW155995   4.503   4.982   2.220 -1.5030 -0.3904  0.3965
18091SOL    HW255996   4.494   4.931   2.362  0.5241  0.4697  0.8709
18092SOL     OW55997   2.386   3.710   8.264 -0.4912  0.1852 -0.1646
18092SOL    HW155998   2.330   3.705   8.341 -0.1142  1.3098  0.2065
18092SOL    HW255999   2.475   3.715   8.299 -0.1758 -0.9577 -0.7306
18093SOL     OW56000   1.584   0.602   9.398 -1.1533 -0.0417  0.2160
18093SOL    HW156001   1.582   0.509   9.422 -0.5231  0.5856  3.0448
18093SOL    HW256002   1.677   0.625   9.397 -1.1970  0.3067 -1.9073
18094SOL     OW56003   1.917   1.013   2.539 -0.2999  0.2218 -0.0494
18094SOL    HW156004   2.010   1.024   2.524 -0.0200 -0.0960  1.2911
18094SOL    HW256005   1.884   0.971   2.460  1.1151 -1.6622  0.2997
18095SOL     OW56006   5.224   4.152   2.506 -0.1017  0.6890 -0.2492
18095SOL    HW156007   5.143   4.107   2.481 -0.4296  0.5935  0.8980
18095SOL    HW256008   5.272   4.163   2.424 -1.5277  1.2528 -1.0447
18096SOL     OW56009   8.778   7.749   1.411  0.3428 -0.1712  0.3574
18096SOL    HW156010   8.725   7.746   1.490 -2.2070 -1.0592 -1.2543
18096SOL    HW256011   8.786   7.657   1.384  0.7096  0.1468 -0.6793
18097SOL     OW56012   3.282   8.038   6.743 -0.3272 -0.3441  0.1735
18097SOL    HW156013   3.214   8.000   6.687  0.4901  1.2371 -2.0414
18097SOL    HW256014   3.247   8.030   6.831 -2.0991 -2.1472 -0.5962
18098SOL     OW56015   2.148   1.377   3.325  0.3250  0.3007 -0.0387
18098SOL    HW156016   2.055   1.353   3.324 -0.5092  3.1301  0.2722
18098SOL    HW256017   2.172   1.378   3.417  0.1949  1.0042 -0.0007
18099SOL     OW56018   7.810   8.679   3.440  0.0012  0.3007  0.1571
18099SOL    HW156019   7.900   8.665   3.470 -0.2796 -2.0768  0.0389
18099SOL    HW256020   7.775   8.746   3.499  1.4437  0.3596  0.9906
18100SOL     OW56021   4.995   6.255   0.549 -0.3155 -0.2926  0.1599
18100SOL    HW156022   5.042   6.309   0.485 -0.4525 -1.4817 -0.9833
18100SOL    HW256023   4.907   6.247   0.512 -0.0957 -1.8773 -0.0730
18101SOL     OW56024   7.949   2.558   0.418  0.3849 -0.3206 -0.3543
18101SOL    HW156025   7.971   2.624   0.352  2.4383 -0.0269  0.5334
18101SOL    HW256026   7.955   2.474   0.371  1.0614 -0.0719 -0.7230
18102SOL     OW56027   7.676   1.664   4.783 -0.1676  0.5627 -0.4344
18102SOL    HW156028   7.746   1.621   4.832 -0.7465  0.5140  0.3606
18102SOL    HW256029   7.608   1.681   4.848  0.6814  4.2257 -0.3085
18103SOL     OW56030   7.441   6.549   6.806  0.2314 -0.1629  0.2859
18103SOL    HW156031   7.478   6.636   6.789  0.3286 -0.1232  0.7101
18103SOL    HW256032   7.461   6.531   6.897  1.2791 -1.1658 -0.1156
18104SOL     OW56033   8.399   2.312   5.608 -0.1600  0.4867  0.1573
18104SOL    HW156034   8.427   2.290   5.519 -0.8582  0.0369  0.0425
18104SOL    HW256035   8.342   2.389   5.596  1.1598  1.5381  0.4122
18105SOL     OW56036   0.555   6.553   1.959 -0.3539 -0.2983  0.4162
18105SOL    HW156037   0.502   6.620   2.002  1.4751  1.1337  0.5525
18105SOL    HW256038   0.562   6.483   2.024 -2.0049 -0.5141  0.4009
18106SOL     OW56039   7.133   0.903   0.943  0.6527  0.2254  0.3440
18106SOL    HW156040   7.046   0.865   0.940  0.9520 -0.8354  2.8304
18106SOL    HW256041   7.149   0.922   1.036  3.1047  0.2443  0.0080
18107SOL     OW56042   1.431   6.478   0.102  0.1210  0.5467  0.4038
18107SOL    HW156043   1.434   6.454   0.195  0.1552  0.7970  0.4673
18107SOL    HW256044   1.519   6.459   0.070 -0.4647 -1.5719 -0.0893
18108SOL     OW56045   9.472   9.071   7.890  0.1036  0.2762 -0.1687
18108SOL    HW156046   9.471   9.158   7.850  0.4516  0.8334  1.0000
18108SOL    HW256047   9.404   9.074   7.957 -0.2088 -0.5172 -0.4377
18109SOL     OW56048   0.422   4.828   3.541 -0.3357 -0.1450 -0.5055
18109SOL    HW156049   0.494   4.797   3.487  0.5533  1.6837 -0.4409
18109SOL    HW256050   0.420   4.767   3.616  0.5875 -0.7031 -0.9190
18110SOL     OW56051   5.240   0.603   5.409 -0.0875 -0.3515 -0.2213
18110SOL    HW156052   5.149   0.598   5.379  0.0415 -2.7804 -0.4359
18110SOL    HW256053   5.234   0.610   5.504 -0.5319 -1.0151 -0.1913
18111SOL     OW56054   4.758   0.007   5.013 -0.2546  0.3566  0.1898
18111SOL    HW156055   4.827   0.073   5.024  2.7585 -2.7129  1.9826
18111SOL    HW256056   4.752  -0.006   4.919  0.8129  1.4805 -0.0689
18112SOL     OW56057   8.459   5.065   3.767 -0.5119 -0.2803  0.2031
18112SOL    HW156058   8.542   5.112   3.773  0.2517 -1.6822  0.9629
18112SOL    HW256059   8.480   4.983   3.723 -1.1976 -1.2405  1.5887
18113SOL     OW56060   4.258   3.805   3.487 -0.1522  0.5433 -0.0176
18113SOL    HW156061   4.236   3.728   3.540 -2.9029  2.1501  1.4287
18113SOL    HW256062   4.342   3.835   3.521  0.7167 -1.4609 -0.2657
18114SOL     OW56063   0.429   7.424   9.319 -0.5108  0.2464  0.0778
18114SOL    HW156064   0.524   7.420   9.328 -0.5491  1.8854  1.9226
18114SOL    HW256065   0.414   7.458   9.230  0.5916 -0.3392 -0.3441
18115SOL     OW56066   2.031   4.834   3.538 -0.6193  0.4747 -0.0163
18115SOL    HW156067   1.976   4.775   3.589 -1.5700  0.1278 -1.3665
18115SOL    HW256068   2.069   4.893   3.602 -0.4699 -0.9404  1.2698
18116SOL     OW56069   3.032   0.411   7.492  0.1921  0.0558  0.1127
18116SOL    HW156070   3.087   0.376   7.422  0.1503  0.9627 -0.3937
18116SOL    HW256071   2.982   0.481   7.450 -0.0896  0.3860  0.9773
18117SOL     OW56072   8.025   8.735   0.664  0.7133  0.2549 -0.4253
18117SOL    HW156073   7.974   8.737   0.584  0.5978 -0.0473 -0.3637
18117SOL    HW256074   8.114   8.754   0.637  1.0520 -1.7910 -0.9479
18118SOL     OW56075   3.766   8.505   9.052 -0.3839  0.4408 -0.0588
18118SOL    HW156076   3.724   8.562   9.116  0.4637 -0.4102  1.3341
18118SOL    HW256077   3.732   8.418   9.071  2.6653 -0.5073  1.9217
18119SOL     OW56078   8.876   1.407   3.826 -0.4336  0.2326 -0.2348
18119SOL    HW156079   8.938   1.340   3.798 -0.6393  1.0842 -2.9893
18119SOL    HW256080   8.808   1.359   3.874  0.4808 -1.1994 -0.3420
18120SOL     OW56081   6.879   9.555   3.660  0.2767  0.0832  0.6771
18120SOL    HW156082   6.918   9.517   3.738  2.3249 -1.1573 -0.8243
18120SOL    HW256083   6.891   9.649   3.670  3.2640 -0.1845  0.6100
18121SOL     OW56084   6.592   7.652   7.317  0.1816  0.2994 -0.1797
18121SOL    HW156085   6.677   7.652   7.361  0.5708  0.8604 -0.9208
18121SOL    HW256086   6.610   7.622   7.228 -0.2264  1.4103 -0.6479
18122SOL     OW56087   4.406   8.879   9.208 -0.4043  0.5142 -0.2001
18122SOL    HW156088   4.398   8.975   9.214 -1.5152  0.4072  0.2181
18122SOL    HW256089   4.481   8.858   9.265  0.1187  1.1672 -0.6287
18123SOL     OW56090   2.452   9.696   1.000  0.3551 -0.1278  0.5832
18123SOL    HW156091   2.461   9.621   1.058  2.2588 -0.7598 -0.4487
18123SOL    HW256092   2.359   9.717   1.003  0.3374 -0.0225  3.9292
18124SOL     OW56093   0.977   1.952   7.217 -0.0234  0.1229  0.0442
18124SOL    HW156094   0.918   1.923   7.147 -0.0934  0.0555  0.1307
18124SOL    HW256095   1.017   2.032   7.183  0.8760 -0.5643 -0.5849
18125SOL     OW56096   6.903   1.999   1.819  0.1726  0.6173  0.1398
18125SOL    HW156097   6.949   1.920   1.791  0.7748  0.7574  0.6819
18125SOL    HW256098   6.970   2.068   1.816 -0.5389  1.2873 -1.1033
18126SOL     OW56099   0.456   7.442   6.527  0.6588  0.4329  0.0008
18126SOL    HW156100   0.400   7.487   6.591  0.0003  0.9879 -0.9397
18126SOL    HW256101   0.461   7.352   6.560 -1.0337  0.2915 -0.0104
18127SOL     OW56102   8.652   7.182   8.526 -0.0290 -0.1680 -0.0702
18127SOL    HW156103   8.616   7.097   8.502 -1.7891  0.1453  1.2101
18127SOL    HW256104   8.743   7.179   8.497 -1.0160 -1.0165 -3.5364
18128SOL     OW56105   6.649   5.185   5.666 -0.2444  0.8687 -0.0797
18128SOL    HW156106   6.566   5.231   5.681 -1.1071 -0.9557  1.0369
18128SOL    HW256107   6.624   5.105   5.621  0.9236  0.2685  0.3010
18129SOL     OW56108   3.821   3.883   7.250  0.0533  0.4157 -0.0513
18129SOL    HW156109   3.850   3.796   7.277 -0.5777  0.6856  1.6207
18129SOL    HW256110   3.797   3.873   7.158  0.6320 -1.0016 -0.0701
18130SOL     OW56111   5.545   2.305   6.580  0.7502  0.1161 -0.1292
18130SOL    HW156112   5.501   2.294   6.665 -0.8454 -0.3860 -0.9784
18130SOL    HW256113   5.600   2.382   6.592  0.7579 -0.0884  1.4418
18131SOL     OW56114   2.083   0.066   8.316 -0.4194  0.5866  0.5127
18131SOL    HW156115   2.119  -0.015   8.353  0.6094  0.7150 -0.1462
18131SOL    HW256116   2.007   0.038   8.265 -0.5709  0.1430  0.9863
18132SOL     OW56117   2.944   1.325   7.208 -0.4783  0.1231 -0.4528
18132SOL    HW156118   2.908   1.378   7.279 -0.4798  1.8397 -1.6746
18132SOL    HW256119   2.887   1.248   7.204 -0.1577 -0.2846  1.7133
18133SOL     OW56120   7.435   1.166   7.740 -0.5666  0.7818  0.0552
18133SOL    HW156121   7.437   1.113   7.661 -0.4899  2.3016 -0.9909
18133SOL    HW256122   7.434   1.257   7.709  0.6108  1.4493  1.7878
18134SOL     OW56123   0.738   1.470   1.696 -0.1017 -0.2217 -0.2629
18134SOL    HW156124   0.690   1.552   1.711 -1.5839 -1.1312  0.1189
18134SOL    HW256125   0.779   1.483   1.610 -1.7530  0.2782 -1.0183
18135SOL     OW56126   0.167   2.578   4.679  0.0037 -0.0105  0.1206
18135SOL    HW156127   0.179   2.664   4.639 -0.6898  0.1163  0.1682
18135SOL    HW256128   0.129   2.598   4.765  0.1057 -0.3509  0.2440
18136SOL     OW56129   8.478   4.241   1.476  0.2826  0.1677  0.1194
18136SOL    HW156130   8.511   4.152   1.491  1.6746  0.5357 -0.5248
18136SOL    HW256131   8.500   4.288   1.556 -1.7228 -0.3592  1.0505
18137SOL     OW56132   4.491   6.595   8.013  0.2086 -0.6732 -0.1875
18137SOL    HW156133   4.498   6.503   7.987 -0.7927 -1.0063  0.6137
18137SOL    HW256134   4.406   6.600   8.057  0.6850  0.4176  0.6538
18138SOL     OW56135   7.165   1.340   5.807  0.1290  0.0637  0.3220
18138SOL    HW156136   7.209   1.260   5.835 -0.2764 -0.1215  0.4463
18138SOL    HW256137   7.072   1.317   5.806  0.1703 -0.2234 -2.0383
18139SOL     OW56138   7.160   3.627   8.693 -0.3623 -0.1820 -0.3759
18139SOL    HW156139   7.216   3.642   8.769  1.0675 -0.1651 -1.3928
18139SOL    HW256140   7.168   3.708   8.641 -0.8047 -0.4441 -0.8606
18140SOL     OW56141   4.770   7.302   2.509 -0.1122 -0.3525 -0.4266
18140SOL    HW156142   4.717   7.255   2.443 -0.4168 -0.8814  0.1808
18140SOL    HW256143   4.749   7.258   2.591 -1.6148  1.8595  0.4461
18141SOL     OW56144   3.403   5.899   5.559 -0.1089  0.3898  0.5123
18141SOL    HW156145   3.476   5.958   5.539  1.5614 -1.5652  0.5411
18141SOL    HW256146   3.398   5.899   5.654 -1.3979  1.9290  0.4728
18142SOL     OW56147   1.248   4.920   4.943  0.3808 -0.7316 -0.2157
18142SOL    HW156148   1.228   4.990   4.881  0.8408  0.5152  0.9886
18142SOL    HW256149   1.193   4.938   5.019  1.4670 -0.9009  0.6354
18143SOL     OW56150   8.882   2.192   7.524 -0.5128 -0.1314 -0.1091
18143SOL    HW156151   8.892   2.232   7.610  0.5382 -0.4177 -0.0801
18143SOL    HW256152   8.935   2.112   7.528 -1.5001 -0.8220 -0.6014
18144SOL     OW56153   2.132   4.980   8.245  0.0525  0.4070 -0.6496
18144SOL    HW156154   2.215   4.952   8.283 -0.0382  1.0158  0.0083
18144SOL    HW256155   2.094   4.900   8.208  1.1631  0.2151 -1.4055
18145SOL     OW56156   8.680   1.573   8.787  0.2129 -0.0692 -0.1880
18145SOL    HW156157   8.695   1.636   8.716  1.6913  0.5261  0.6029
18145SOL    HW256158   8.604   1.608   8.834 -0.6428 -0.3540 -1.3133
18146SOL     OW56159   5.394   0.483   6.559 -0.1215  0.1934  0.3176
18146SOL    HW156160   5.422   0.478   6.651 -1.6470 -1.4330  0.7749
18146SOL    HW256161   5.465   0.527   6.514  0.4839  1.4521  2.3563
18147SOL     OW56162   6.873   3.482   9.272 -0.3348 -0.1044 -0.7685
18147SOL    HW156163   6.841   3.533   9.346  0.2647  0.0920 -0.6414
18147SOL    HW256164   6.955   3.443   9.303 -0.3017 -0.3753 -1.1817
18148SOL     OW56165   6.946   5.040   6.626  0.5463  0.4087 -0.4144
18148SOL    HW156166   7.032   5.001   6.607  0.5393  0.0092  0.3362
18148SOL    HW256167   6.946   5.053   6.721  0.1514  1.3194 -0.5340
18149SOL     OW56168   5.747   2.512   0.135 -0.1836  0.3707 -0.4851
18149SOL    HW156169   5.775   2.429   0.175  0.3521  1.2439  1.0644
18149SOL    HW256170   5.825   2.568   0.141 -0.1280  0.6230 -2.6844
18150SOL     OW56171   4.992   6.942   6.204  0.5137  0.7735  0.1021
18150SOL    HW156172   5.063   6.990   6.162  0.0777  1.4146  0.0743
18150SOL    HW256173   5.014   6.943   6.297  1.7775 -1.1451 -0.1228
18151SOL     OW56174   5.207   5.244   4.060  0.2242 -0.6326  0.4280
18151SOL    HW156175   5.163   5.177   4.008  2.4857 -1.1129 -1.0126
18151SOL    HW256176   5.216   5.205   4.147  0.7341 -1.8945 -0.1593
18152SOL     OW56177   9.337   0.206   3.753  0.4705  0.1206 -0.1526
18152SOL    HW156178   9.269   0.190   3.819  0.2957  1.2328 -0.0432
18152SOL    HW256179   9.373   0.120   3.735  0.2218 -0.2681  1.0754
18153SOL     OW56180   4.831   8.862   4.376 -0.1486 -0.2360 -0.0555
18153SOL    HW156181   4.752   8.807   4.373 -0.2529 -0.0498 -1.8681
18153SOL    HW256182   4.830   8.899   4.464 -1.0849 -1.6691  0.5935
18154SOL     OW56183   6.883   2.994   5.038 -0.1363 -0.1348 -0.5043
18154SOL    HW156184   6.802   2.951   5.067 -0.0022  0.4878  0.8795
18154SOL    HW256185   6.857   3.082   5.013 -0.4844 -1.0361 -3.7714
18155SOL     OW56186   6.419   0.960   1.191 -0.0010 -0.0085  0.3644
18155SOL    HW156187   6.498   1.006   1.162 -0.1956  0.3975  0.4789
18155SOL    HW256188   6.362   0.961   1.115 -0.3709  0.7491  0.6398
18156SOL     OW56189   5.044   1.359   2.607 -0.0410  0.6037  0.3052
18156SOL    HW156190   4.998   1.431   2.565  1.4651  1.8670  0.7163
18156SOL    HW256191   5.124   1.347   2.555  0.5936  0.4607  1.2796
18157SOL     OW56192   6.277   8.249   7.346  0.4623  0.0601 -0.6161
18157SOL    HW156193   6.358   8.227   7.300  1.3414  0.7197  0.5589
18157SOL    HW256194   6.242   8.165   7.375  1.0212 -0.1950 -0.6622
18158SOL     OW56195   3.131   1.788   4.072 -0.4498  0.3370 -0.2742
18158SOL    HW156196   3.175   1.705   4.090 -1.0705 -0.4476 -2.1610
18158SOL    HW256197   3.196   1.854   4.095  0.1076 -0.6371  1.1469
18159SOL     OW56198   2.985   0.719   7.197  0.3687  0.1455  0.8475
18159SOL    HW156199   2.957   0.631   7.223  0.5543  0.2756  1.4891
18159SOL    HW256200   2.973   0.773   7.275 -0.9649  0.9796  0.1066
18160SOL     OW56201   1.376   1.995   6.692  0.2096 -0.1704 -0.6841
18160SOL    HW156202   1.440   2.048   6.643  0.0010 -0.1812 -0.9714
18160SOL    HW256203   1.311   1.970   6.626  0.9160 -1.7585 -0.8210
18161SOL     OW56204   4.344   4.256   2.107  0.2776  0.2757  0.2666
18161SOL    HW156205   4.310   4.177   2.150  0.6365  0.4720  0.9309
18161SOL    HW256206   4.406   4.223   2.042  2.2224  0.0352  2.1169
18162SOL     OW56207   4.602   2.540   8.675 -0.0624 -0.4147  0.1638
18162SOL    HW156208   4.514   2.562   8.645 -0.1562 -2.4984 -1.3035
18162SOL    HW256209   4.592   2.455   8.718  1.4649 -1.6139 -1.6895
18163SOL     OW56210   8.610   1.569   0.004  0.2167 -0.3171 -0.5498
18163SOL    HW156211   8.619   1.651  -0.045 -1.3269 -0.8039 -1.7110
18163SOL    HW256212   8.647   1.502  -0.053 -1.8419 -0.9301 -1.2446
18164SOL     OW56213   3.429   7.696   4.266  0.3051 -0.5743 -0.6817
18164SOL    HW156214   3.402   7.662   4.351  2.1513 -0.6109 -0.0815
18164SOL    HW256215   3.447   7.788   4.280 -1.6352  0.0086 -1.6097
18165SOL     OW56216   3.067   1.936   2.025 -0.7311  0.5440 -0.0879
18165SOL    HW156217   2.998   1.897   2.080 -0.8420  1.0529  0.1423
18165SOL    HW256218   3.138   1.956   2.087 -0.6764  0.7078 -0.2039
18166SOL     OW56219   3.388   8.420   3.159  0.0032 -0.6423  0.4491
18166SOL    HW156220   3.363   8.404   3.069  0.3650  0.0103  0.2285
18166SOL    HW256221   3.305   8.429   3.206 -0.3034  2.7890 -0.4921
18167SOL     OW56222   7.051   2.601   1.351 -0.0595 -0.3601  0.6697
18167SOL    HW156223   7.111   2.559   1.290  0.3426 -1.1056  1.5581
18167SOL    HW256224   7.033   2.687   1.312  2.1307  0.1651  0.7075
18168SOL     OW56225   2.128   1.293   7.713  0.2525 -0.2401 -0.1411
18168SOL    HW156226   2.068   1.304   7.786  0.4319  2.0710 -0.2676
18168SOL    HW256227   2.212   1.275   7.753 -0.0009 -0.8112  0.1401
18169SOL     OW56228   0.074   7.378   3.876 -0.1776  0.0478  0.1521
18169SOL    HW156229   0.066   7.441   3.948 -1.2369  0.4001 -0.2491
18169SOL    HW256230  -0.007   7.389   3.826  0.1972 -0.7419 -0.6527
18170SOL     OW56231   7.171   6.759   1.630  0.2191  0.0726 -0.3791
18170SOL    HW156232   7.085   6.791   1.660 -0.9594 -1.7094 -1.6731
18170SOL    HW256233   7.209   6.833   1.583  1.2619  2.2938  3.4930
18171SOL     OW56234   0.361   1.862   4.995 -0.0985 -0.5805 -0.0979
18171SOL    HW156235   0.350   1.798   4.926 -0.1030 -0.3900 -0.2751
18171SOL    HW256236   0.279   1.858   5.045 -0.8421  0.5227 -1.1493
18172SOL     OW56237   7.163   7.981   6.132 -0.0663  0.4010 -0.6083
18172SOL    HW156238   7.258   7.976   6.126 -0.1134 -0.0528 -1.0732
18172SOL    HW256239   7.143   8.073   6.114  0.2876  0.5080 -0.4583
18173SOL     OW56240   1.367   1.280   3.177 -0.4630  0.4578  0.5116
18173SOL    HW156241   1.289   1.273   3.231 -1.1282 -0.8447 -0.5569
18173SOL    HW256242   1.430   1.222   3.219 -0.7036  0.0844  0.3637
18174SOL     OW56243   5.583   7.121   3.905 -0.4386  0.6577 -0.2995
18174SOL    HW156244   5.546   7.098   3.820  1.8124  2.4025 -1.9044
18174SOL    HW256245   5.519   7.182   3.943 -0.2143  2.1705 -2.1452
18175SOL     OW56246   1.890   7.026   0.982 -0.3719  0.0271  0.2703
18175SOL    HW156247   1.858   7.043   0.894  2.8107 -0.6188 -1.1543
18175SOL    HW256248   1.891   6.930   0.989  0.5709  0.0449  0.5117
18176SOL     OW56249   7.464   0.301   9.525  0.7353  0.2903 -0.0189
18176SOL    HW156250   7.422   0.319   9.441 -0.5462  0.3418  0.6134
18176SOL    HW256251   7.535   0.365   9.530  0.2579  0.8923 -0.6603
18177SOL     OW56252   8.798   0.439   2.737 -0.3445  0.0149  0.7918
18177SOL    HW156253   8.742   0.505   2.695  0.7249  0.0341 -0.7082
18177SOL    HW256254   8.737   0.375   2.773 -1.3720  1.1137  1.0924
18178SOL     OW56255   7.685   4.600   9.404  0.5428 -0.1446  0.1430
18178SOL    HW156256   7.691   4.524   9.462 -1.0990 -1.6346 -1.5147
18178SOL    HW256257   7.654   4.565   9.321  1.0405  2.1770 -1.1277
18179SOL     OW56258   4.562   5.210   2.843 -0.0280  0.5702 -0.1180
18179SOL    HW156259   4.582   5.211   2.749 -0.1351  0.2893 -0.1461
18179SOL    HW256260   4.624   5.147   2.880 -0.2580  0.3730 -0.0658
18180SOL     OW56261   3.701   5.119   8.028  0.1562 -0.4223  0.2295
18180SOL    HW156262   3.686   5.190   7.965  2.1981 -0.9528 -0.9717
18180SOL    HW256263   3.785   5.141   8.068 -0.2098 -1.0918  1.4036
18181SOL     OW56264   0.205   1.586   8.152 -0.4378 -0.0100 -0.5094
18181SOL    HW156265   0.238   1.671   8.182 -0.5613  0.7468 -2.3474
18181SOL    HW256266   0.284   1.538   8.125 -0.3625 -0.5259  0.5859
18182SOL     OW56267   3.678   8.117   6.872 -0.2421  0.1347  0.0630
18182SOL    HW156268   3.608   8.182   6.878 -1.6114 -1.2678  0.1191
18182SOL    HW256269   3.756   8.167   6.850 -1.1776  1.8145  0.4105
18183SOL     OW56270   7.018   1.161   7.176 -0.0041 -0.5205  0.4545
18183SOL    HW156271   6.969   1.241   7.160  1.5644  0.1479 -1.2519
18183SOL    HW256272   7.095   1.189   7.226  1.2698 -0.6763 -1.3394
18184SOL     OW56273   3.416   8.275   5.519  0.0348 -0.6075 -0.0245
18184SOL    HW156274   3.495   8.280   5.464 -0.2539  0.8527 -0.3518
18184SOL    HW256275   3.449   8.255   5.607  0.4713 -3.4559 -0.7297
18185SOL     OW56276   8.136   1.131   6.644  0.0757  0.2091  0.2640
18185SOL    HW156277   8.151   1.206   6.702 -0.2865  2.0727 -1.9577
18185SOL    HW256278   8.159   1.162   6.557  2.0098 -2.9267 -0.5388
18186SOL     OW56279   7.156   3.901   0.541  0.0993  0.0566 -0.3610
18186SOL    HW156280   7.211   3.941   0.609  1.2477 -1.1616 -0.5514
18186SOL    HW256281   7.067   3.931   0.563  0.6074  0.7255  0.9198
18187SOL     OW56282   2.778   4.457   9.527  0.1322 -0.0830 -0.0322
18187SOL    HW156283   2.838   4.387   9.554  0.1517  0.4308  1.3533
18187SOL    HW256284   2.695   4.436   9.570 -0.5075 -0.4304 -1.4054
18188SOL     OW56285   7.718   4.302   1.574 -0.3541 -0.2749  0.1387
18188SOL    HW156286   7.666   4.352   1.511 -1.4688 -1.2478  0.2552
18188SOL    HW256287   7.660   4.289   1.649  0.6358  0.0465  0.9771
18189SOL     OW56288   5.628   3.099   9.603  0.4257 -0.3542 -0.1779
18189SOL    HW156289   5.701   3.159   9.619 -0.2830  1.3986 -2.7424
18189SOL    HW256290   5.607   3.062   9.689  3.3835  0.1318  0.8592
18190SOL     OW56291   1.041   0.054   4.204 -0.1282 -0.0457  0.3156
18190SOL    HW156292   0.976   0.104   4.253 -2.7226 -2.0535 -0.8677
18190SOL    HW256293   1.039   0.091   4.116 -0.3982 -0.7294  0.0268
18191SOL     OW56294   1.784   7.582   9.488  0.0412  0.4650  0.2941
18191SOL    HW156295   1.844   7.528   9.437  1.4749  0.3855  1.9681
18191SOL    HW256296   1.737   7.520   9.543 -0.3216  0.6848  0.2348
18192SOL     OW56297   3.796   5.436   6.444  0.3172  0.2053  0.3048
18192SOL    HW156298   3.749   5.372   6.499  2.3220  0.0101  1.8974
18192SOL    HW256299   3.740   5.514   6.446 -1.2377 -0.8490 -0.0941
18193SOL     OW56300   6.880   1.076   0.323  0.4123 -0.1369 -0.3974
18193SOL    HW156301   6.827   1.087   0.244  1.3141  0.0817 -0.9835
18193SOL    HW256302   6.953   1.020   0.295  1.4682  1.0347 -0.0833
18194SOL     OW56303   8.643   8.359   6.545  0.7488  0.2403 -0.3579
18194SOL    HW156304   8.583   8.395   6.611 -0.9180 -2.8569  0.0025
18194SOL    HW256305   8.596   8.367   6.463  0.4773 -0.7636 -0.3137
18195SOL     OW56306   9.271   8.216   9.508 -0.2618 -0.0359  0.0914
18195SOL    HW156307   9.277   8.304   9.545 -0.5566 -0.1829  0.4914
18195SOL    HW256308   9.196   8.220   9.448  0.3044  0.2409 -0.6159
18196SOL     OW56309   8.254   4.107   6.972  0.0032 -0.8124 -0.5093
18196SOL    HW156310   8.223   4.179   6.917  0.9462  0.4594  0.5773
18196SOL    HW256311   8.211   4.121   7.056  1.1158 -0.8096  0.0732
18197SOL     OW56312   7.243   6.912   4.897  0.0563  0.3720  0.2868
18197SOL    HW156313   7.295   6.890   4.974 -0.0608  0.3486  0.3604
18197SOL    HW256314   7.193   6.990   4.924 -0.8908 -0.3421  0.6524
18198SOL     OW56315   1.059   3.760   3.997  0.3065 -0.2899 -0.1862
18198SOL    HW156316   0.994   3.778   3.930  0.2531  1.3945  0.2874
18198SOL    HW256317   1.129   3.823   3.982  0.1758  0.3117  1.4707
18199SOL     OW56318   8.628   5.136   0.191 -0.5216 -0.7204  0.1917
18199SOL    HW156319   8.695   5.148   0.125 -0.6300 -1.1530 -0.0015
18199SOL    HW256320   8.550   5.111   0.142 -0.6622 -0.8172  0.4618
18200SOL     OW56321   8.087   7.571   0.025 -0.1264  0.3317  0.2010
18200SOL    HW156322   8.182   7.578   0.038 -0.0814 -1.0223  0.7638
18200SOL    HW256323   8.073   7.602  -0.065  1.0129 -0.5202 -0.3072
18201SOL     OW56324   2.546   7.360   1.842 -0.1801 -0.3881  0.2908
18201SOL    HW156325   2.635   7.390   1.825  0.2399 -0.9798  1.3783
18201SOL    HW256326   2.492   7.406   1.778  1.1265 -1.3627 -1.6088
18202SOL     OW56327   5.297   7.826   7.484  0.3261 -0.1097  0.2428
18202SOL    HW156328   5.246   7.751   7.515 -0.4561  0.9882  1.7612
18202SOL    HW256329   5.385   7.811   7.518 -0.2925  0.5888  2.3257
18203SOL     OW56330   6.954   8.697   6.061 -0.8648 -0.0904 -0.1093
18203SOL    HW156331   6.919   8.656   6.140 -1.2998  1.5466  0.5878
18203SOL    HW256332   7.020   8.759   6.093  1.6661 -1.9821 -1.2839
18204SOL     OW56333   0.002   4.189   9.417 -0.1021  0.0189 -0.2628
18204SOL    HW156334  -0.029   4.257   9.477  0.1084 -0.2981  0.2094
18204SOL    HW256335  -0.074   4.170   9.361 -0.4601 -0.0529  0.2400
18205SOL     OW56336   6.986   6.234   8.004 -0.6464  0.0314 -0.2450
18205SOL    HW156337   7.023   6.148   8.024 -1.7796 -0.1051  1.4134
18205SOL    HW256338   7.057   6.280   7.959  0.4697 -1.2604  0.1168
18206SOL     OW56339   4.957   0.012   0.662  0.1573  0.2109 -0.4892
18206SOL    HW156340   4.929  -0.078   0.645  0.9689 -0.1558  0.0502
18206SOL    HW256341   4.876   0.059   0.682 -0.1204 -0.7750  0.8360
18207SOL     OW56342   3.697   9.328   0.212  0.3257  0.2683 -0.0067
18207SOL    HW156343   3.636   9.259   0.239  0.4141  0.9526  2.1988
18207SOL    HW256344   3.668   9.353   0.125 -0.8116 -1.3170 -0.1373
18208SOL     OW56345   9.375   6.872   1.352 -0.0459 -0.0097  0.5062
18208SOL    HW156346   9.397   6.953   1.306  0.0157  0.0578  0.6537
18208SOL    HW256347   9.368   6.898   1.444 -2.0848  0.2395  0.3188
18209SOL     OW56348   5.670   4.425   9.152 -0.1193  0.0730  0.2893
18209SOL    HW156349   5.585   4.428   9.196 -0.2123  1.0659  0.0656
18209SOL    HW256350   5.659   4.481   9.075 -0.4213 -2.7274 -1.8588
18210SOL     OW56351   1.705   6.143   7.196  0.5274  0.0400  0.3510
18210SOL    HW156352   1.668   6.120   7.281  0.8881 -1.9952  0.0148
18210SOL    HW256353   1.799   6.145   7.211  0.5577  0.2502  0.1337
18211SOL     OW56354   2.754   9.507   0.897 -0.0990  0.5096 -0.2343
18211SOL    HW156355   2.842   9.515   0.932  0.4854  1.8747 -1.8900
18211SOL    HW256356   2.763   9.452   0.819 -0.9254 -0.3223  0.2366
18212SOL     OW56357   9.249   6.217   9.143 -0.3374  0.7612  0.7185
18212SOL    HW156358   9.299   6.258   9.073  2.1057  0.1056  1.9586
18212SOL    HW256359   9.208   6.289   9.190 -0.5837  1.3294 -0.3507
18213SOL     OW56360   5.473   6.055   1.758  0.9288 -0.4313 -0.2241
18213SOL    HW156361   5.435   6.009   1.683 -0.1693  1.7361 -1.1089
18213SOL    HW256362   5.565   6.030   1.758  2.3892  3.2250 -5.5872
18214SOL     OW56363   7.519   4.778   1.243 -0.4114  0.2131 -0.0092
18214SOL    HW156364   7.595   4.831   1.223 -0.1494 -0.7120 -1.6243
18214SOL    HW256365   7.446   4.824   1.203 -0.0206 -1.1411 -2.5015
18215SOL     OW56366   3.283   7.969   3.798 -0.3684  0.0392 -0.2658
18215SOL    HW156367   3.243   8.030   3.859  0.1182 -1.3094  1.5029
18215SOL    HW256368   3.377   7.983   3.808 -0.2549 -0.9552  0.1264
18216SOL     OW56369   4.442   7.327   6.870  0.2251  0.2614  0.5749
18216SOL    HW156370   4.484   7.346   6.786 -0.9569  0.3387 -0.0289
18216SOL    HW256371   4.386   7.251   6.853  0.4399 -0.1133  1.4621
18217SOL     OW56372   1.123   3.715   8.498  0.0233  0.1671  0.0406
18217SOL    HW156373   1.143   3.776   8.569 -1.5161 -0.8643  1.4448
18217SOL    HW256374   1.030   3.728   8.482  0.4991  0.9448 -2.4010
18218SOL     OW56375   7.786   6.801   8.375  0.0989 -0.0814  0.0039
18218SOL    HW156376   7.843   6.725   8.365  0.7957  0.5484 -0.9221
18218SOL    HW256377   7.805   6.833   8.463  0.3227 -0.5471  0.1302
18219SOL     OW56378   3.246   8.332   3.979  0.3959  0.0606  0.1709
18219SOL    HW156379   3.325   8.280   3.992 -0.0078 -0.1279  2.0480
18219SOL    HW256380   3.182   8.270   3.944  1.1301  0.2875 -1.6794
18220SOL     OW56381   2.049   1.900   3.181  0.1546  0.2967  0.1711
18220SOL    HW156382   2.047   1.849   3.100 -0.6312  1.9136 -0.8707
18220SOL    HW256383   1.996   1.850   3.243  0.7639 -0.9587 -0.3011
18221SOL     OW56384   9.476   6.051   7.009  0.3278 -0.3750  0.0781
18221SOL    HW156385   9.468   5.975   6.952 -1.3247  0.1092 -0.3949
18221SOL    HW256386   9.483   6.126   6.949 -1.2990  0.1258  0.4484
18222SOL     OW56387   2.118   5.913   5.998 -0.2019  0.7090  0.5112
18222SOL    HW156388   2.103   6.007   5.989  0.4082  0.8714  1.0645
18222SOL    HW256389   2.213   5.905   6.011 -0.1418 -0.0518 -0.3030
18223SOL     OW56390   5.713   6.263   8.735  0.2760  0.6780 -0.2498
18223SOL    HW156391   5.783   6.318   8.770  1.5092 -1.2411  0.4834
18223SOL    HW256392   5.664   6.234   8.813  0.2290 -0.0121 -0.5313
18224SOL     OW56393   8.262   2.853   2.345  0.3548 -0.3037 -0.1012
18224SOL    HW156394   8.327   2.825   2.409 -0.3406 -1.3111  0.1871
18224SOL    HW256395   8.262   2.784   2.279  0.8120  0.5502 -1.0393
18225SOL     OW56396   6.814   5.798   6.834  0.2208  0.0724  0.6658
18225SOL    HW156397   6.862   5.879   6.821 -1.2365  0.8955  0.1744
18225SOL    HW256398   6.790   5.770   6.745 -0.6014 -0.0476  0.9140
18226SOL     OW56399   4.658   7.529   4.985  0.3965 -0.3748  0.3358
18226SOL    HW156400   4.574   7.570   4.964  0.7368  0.4803  0.5905
18226SOL    HW256401   4.675   7.471   4.911 -0.7496 -1.0956  0.6229
18227SOL     OW56402   5.306   6.172   5.401 -0.1817  0.8569 -0.1876
18227SOL    HW156403   5.267   6.235   5.340 -2.0552  0.1987  0.2487
18227SOL    HW256404   5.302   6.088   5.355 -0.5720  0.5512  0.3913
18228SOL     OW56405   6.745   3.398   0.767  0.0087  0.1707 -0.4921
18228SOL    HW156406   6.756   3.460   0.695  1.8447 -0.9673 -1.2681
18228SOL    HW256407   6.723   3.316   0.724 -2.4223  0.2123  0.5251
18229SOL     OW56408   7.660   0.970   8.937  0.5036 -0.0549  0.0175
18229SOL    HW156409   7.680   1.051   8.985  0.8829 -0.3116  0.2999
18229SOL    HW256410   7.568   0.952   8.957  0.4543  0.2343  0.0619
18230SOL     OW56411   0.708   9.701   4.718 -0.0914  0.4409 -0.0786
18230SOL    HW156412   0.632   9.674   4.771  1.1521  0.9710  2.1315
18230SOL    HW256413   0.710   9.639   4.646 -1.1592 -1.2101  1.2252
18231SOL     OW56414   0.327   3.508   8.623  0.0618  0.1214  0.0479
18231SOL    HW156415   0.376   3.573   8.573 -0.6818  1.3472  0.8400
18231SOL    HW256416   0.391   3.440   8.645  0.3949 -0.4845 -2.5340
18232SOL     OW56417   7.651   8.872   1.602  0.1462 -0.0271 -0.7976
18232SOL    HW156418   7.667   8.966   1.602  2.0619 -0.3289 -1.0229
18232SOL    HW256419   7.655   8.846   1.510 -0.3630 -0.3505 -0.7385
18233SOL     OW56420   2.570   8.811   3.206  0.0237 -0.7442 -0.0326
18233SOL    HW156421   2.577   8.819   3.111  1.7222 -0.8787  0.0496
18233SOL    HW256422   2.612   8.890   3.240  0.4408 -1.2200  0.5926
18234SOL     OW56423   6.838   1.075   5.552 -0.0287  0.2444 -0.1516
18234SOL    HW156424   6.904   1.014   5.519 -0.2637  0.4667 -1.0791
18234SOL    HW256425   6.754   1.032   5.536 -0.1741  0.6113 -0.3830
18235SOL     OW56426   6.074   2.484   0.731 -0.0383 -0.2064  0.2369
18235SOL    HW156427   6.105   2.495   0.821 -0.1575  0.1427  0.2375
18235SOL    HW256428   6.004   2.549   0.722 -0.6947 -0.9085  0.2003
18236SOL     OW56429   6.279   8.390   2.539  0.6768 -0.1919 -0.0070
18236SOL    HW156430   6.210   8.453   2.559  0.7036  0.2864 -1.3083
18236SOL    HW256431   6.251   8.309   2.582 -0.5472  0.0783 -0.2549
18237SOL     OW56432   7.161   1.230   3.302 -0.0667 -0.0127 -0.3588
18237SOL    HW156433   7.199   1.297   3.358  0.7363 -0.9764  0.2931
18237SOL    HW256434   7.067   1.234   3.318 -0.2119  1.8899 -1.4044
18238SOL     OW56435   8.371   8.151   3.015  0.1791  0.2426 -0.0563
18238SOL    HW156436   8.456   8.142   2.971 -0.5852  1.3464 -1.8611
18238SOL    HW256437   8.328   8.067   3.001 -0.1457  0.6583 -1.6873
18239SOL     OW56438   1.850   6.888   6.004  0.1529  0.1729 -0.0354
18239SOL    HW156439   1.826   6.815   5.945  1.1015  0.2520 -0.5310
18239SOL    HW256440   1.781   6.953   5.990 -0.3593 -0.3679 -0.0653
18240SOL     OW56441   3.152   9.202   2.532  0.1349  0.3882 -0.1701
18240SOL    HW156442   3.222   9.192   2.596  0.8131  1.6962 -0.6573
18240SOL    HW256443   3.130   9.296   2.535 -1.1964  0.1093 -0.4393
18241SOL     OW56444   6.889   5.281   4.444  0.0605  0.3332 -0.1116
18241SOL    HW156445   6.953   5.314   4.507 -0.2351 -1.2569  1.0755
18241SOL    HW256446   6.807   5.276   4.494 -0.4236  0.0427 -0.9216
18242SOL     OW56447   7.455   8.088   7.654  0.4622 -0.2546 -0.5610
18242SOL    HW156448   7.470   8.132   7.570  0.1747 -0.2381 -0.6046
18242SOL    HW256449   7.371   8.121   7.684  0.4786 -0.3977 -0.3514
18243SOL     OW56450   1.914   9.627   1.754  0.3966  0.2251  0.6796
18243SOL    HW156451   1.825   9.602   1.780  0.1344 -1.3705 -1.5000
18243SOL    HW256452   1.923   9.718   1.783 -1.6870  0.2079  1.5485
18244SOL     OW56453   6.516   9.617   3.619  0.4075 -0.1491  0.1342
18244SOL    HW156454   6.421   9.620   3.605  0.5741  0.2517 -0.9885
18244SOL    HW256455   6.534   9.697   3.669  0.2384  0.1385 -0.2529
18245SOL     OW56456   9.495   3.403   5.226 -0.2063 -0.3832 -0.0016
18245SOL    HW156457   9.456   3.382   5.311  0.6725 -1.2374  0.2043
18245SOL    HW256458   9.589   3.389   5.238 -0.0747 -0.5914 -1.1336
18246SOL     OW56459   1.502   2.455   8.186 -0.2450 -0.0220 -0.0958
18246SOL    HW156460   1.576   2.402   8.217  0.5631  0.6326 -0.8229
18246SOL    HW256461   1.525   2.475   8.095  1.2670  4.4306  1.0073
18247SOL     OW56462   5.577   2.261   0.947  0.1359  0.2325 -0.2672
18247SOL    HW156463   5.524   2.182   0.958  0.4504 -0.2559 -1.9283
18247SOL    HW256464   5.639   2.259   1.019  0.0172 -0.9451 -0.1734
18248SOL     OW56465   4.154   8.583   6.578 -0.4275 -0.1622  0.2675
18248SOL    HW156466   4.179   8.491   6.567  2.3095  0.4549  0.6259
18248SOL    HW256467   4.219   8.619   6.638 -0.1729  2.4643 -1.3876
18249SOL     OW56468   9.122   6.709   6.014 -0.4206  0.0993 -0.0520
18249SOL    HW156469   9.189   6.706   5.946  1.4540 -0.8377  1.6938
18249SOL    HW256470   9.041   6.684   5.970  0.8267 -1.0634 -1.8083
18250SOL     OW56471   8.359   3.336   1.531  0.2401  0.7455 -0.3685
18250SOL    HW156472   8.279   3.342   1.478  0.2993  0.3732 -0.5059
18250SOL    HW256473   8.427   3.370   1.473  0.4436 -0.4402 -0.8523
18251SOL     OW56474   0.305   7.976   4.405  0.9744 -0.2698 -0.3978
18251SOL    HW156475   0.349   7.916   4.345  1.5224  0.6114 -0.9029
18251SOL    HW256476   0.307   7.931   4.489  3.1078 -0.1914 -0.3286
18252SOL     OW56477   8.953   6.580   5.074  0.3840  0.2987 -0.5432
18252SOL    HW156478   8.859   6.596   5.061 -0.1878  0.0015  2.3737
18252SOL    HW256479   8.956   6.522   5.150  2.9703  1.6275  0.4676
18253SOL     OW56480   3.413   7.060   3.042 -0.1059  0.3640  0.4052
18253SOL    HW156481   3.333   7.107   3.018  0.2661  0.3915 -0.8421
18253SOL    HW256482   3.480   7.094   2.983  1.1536  1.2244  2.2179
18254SOL     OW56483   1.091   3.990   1.257 -0.3691  0.1677 -0.3977
18254SOL    HW156484   1.068   4.046   1.331 -0.1169 -0.1445 -0.0796
18254SOL    HW256485   1.110   4.051   1.186  2.0865  0.6112  0.5568
18255SOL     OW56486   0.987   5.072   7.608  0.6500 -0.1561 -0.5581
18255SOL    HW156487   0.906   5.045   7.565 -1.0024  2.1772  0.8828
18255SOL    HW256488   1.001   5.006   7.676 -0.5130 -0.1649 -0.3077
18256SOL     OW56489   8.883   5.750   8.377  0.5950 -0.2240 -0.1615
18256SOL    HW156490   8.933   5.685   8.328  0.2013  1.4718 -3.0703
18256SOL    HW256491   8.946   5.822   8.391  0.3175 -0.1300  0.6436
18257SOL     OW56492   4.821   6.927   4.702  0.6280  0.2563  0.1203
18257SOL    HW156493   4.829   6.968   4.616  0.6199 -0.0531 -0.0302
18257SOL    HW256494   4.727   6.912   4.712  0.5910  0.6374  0.3464
18258SOL     OW56495   6.027   0.972   8.026 -0.0779  0.4596  0.1867
18258SOL    HW156496   6.085   0.999   7.955  0.3653 -0.2904  0.2566
18258SOL    HW256497   6.048   0.879   8.040 -1.6524  0.0302 -0.1363
18259SOL     OW56498   5.808   9.144   6.985  0.3114 -0.1834  0.2525
18259SOL    HW156499   5.824   9.202   6.911  2.1773 -0.8640  0.0618
18259SOL    HW256500   5.790   9.059   6.946  0.2697 -0.3274  0.5784
18260SOL     OW56501   1.012   7.599   2.301 -0.4063 -0.4426 -1.1163
18260SOL    HW156502   1.009   7.562   2.213 -1.7961  1.2154 -1.8249
18260SOL    HW256503   1.037   7.690   2.287 -1.1448 -0.0257  0.1473
18261SOL     OW56504   6.117   8.630   5.712  0.2018  0.2694 -0.0605
18261SOL    HW156505   6.063   8.689   5.659  0.3109  1.0443  0.6816
18261SOL    HW256506   6.078   8.544   5.699  1.3455  0.0748 -2.9230
18262SOL     OW56507   6.816   6.424   8.067  0.4023 -0.1154 -0.1186
18262SOL    HW156508   6.804   6.430   7.972  0.8083  2.4757 -0.0835
18262SOL    HW256509   6.860   6.340   8.081  2.0649  0.2776 -2.4398
18263SOL     OW56510   0.316   6.735   6.836 -0.6899 -0.3212  0.1230
18263SOL    HW156511   0.281   6.650   6.862 -0.5103 -0.2307  0.6729
18263SOL    HW256512   0.269   6.756   6.755 -3.9729  1.0529  2.2026
18264SOL     OW56513   5.575   6.421   4.543  0.0681  0.1470 -0.2692
18264SOL    HW156514   5.564   6.426   4.448 -1.5770  0.4178 -0.0869
18264SOL    HW256515   5.503   6.366   4.572  1.7099 -1.6275  0.6526
18265SOL     OW56516   7.879   6.783   9.220  0.3597 -0.6904  0.1119
18265SOL    HW156517   7.873   6.878   9.214 -1.2756 -0.5347  2.6429
18265SOL    HW256518   7.942   6.767   9.291 -0.6799 -1.4006  0.9114
18266SOL     OW56519   7.534   1.762   9.641  1.3678  0.0112  0.4752
18266SOL    HW156520   7.512   1.698   9.573  3.7537  0.1224 -0.4986
18266SOL    HW256521   7.509   1.846   9.603 -1.4774 -0.1908  1.6311
18267SOL     OW56522   7.251   2.145   1.832 -0.2946 -0.1598  0.1048
18267SOL    HW156523   7.329   2.181   1.874  0.7880  1.2699 -2.8300
18267SOL    HW256524   7.245   2.055   1.864  1.7698  0.1301  1.4378
18268SOL     OW56525   6.011   5.622   3.087 -0.4089 -0.4607 -0.1680
18268SOL    HW156526   6.065   5.677   3.144  1.2812 -2.0309 -0.1707
18268SOL    HW256527   5.978   5.553   3.144  1.2182 -1.9951 -1.0123
18269SOL     OW56528   1.775   7.459   3.190 -0.0971 -0.0034  0.2572
18269SOL    HW156529   1.748   7.370   3.213  2.5433 -1.1974 -0.8967
18269SOL    HW256530   1.847   7.479   3.248 -0.7644  1.5018  0.6175
18270SOL     OW56531   8.532   2.416   5.388 -0.3816 -0.0148  0.5862
18270SOL    HW156532   8.524   2.505   5.423 -1.6318  0.6219 -1.1760
18270SOL    HW256533   8.526   2.427   5.293  2.8699 -1.6544  0.0511
18271SOL     OW56534   0.342   2.881   9.338  0.2717  0.0989  0.1667
18271SOL    HW156535   0.345   2.969   9.375 -0.5205 -0.0937  0.7143
18271SOL    HW256536   0.312   2.894   9.248 -1.0174  0.3069  0.6021
18272SOL     OW56537   4.595   9.385   5.909  0.0193 -0.2814  0.0497
18272SOL    HW156538   4.508   9.417   5.885 -0.4045 -1.2581  0.2286
18272SOL    HW256539   4.582   9.292   5.927  0.6650 -0.0346  2.1357
18273SOL     OW56540   8.991   7.329   9.155  0.1124  0.3253  0.0885
18273SOL    HW156541   9.012   7.296   9.068 -0.3348  1.4396 -0.4626
18273SOL    HW256542   9.067   7.382   9.179  0.1888  0.1036  0.3356
18274SOL     OW56543   8.332   1.676   5.476  0.0326  0.1311  0.7575
18274SOL    HW156544   8.297   1.757   5.440 -0.8947 -1.5562 -2.6425
18274SOL    HW256545   8.256   1.619   5.487  0.9797 -1.8784 -1.8340
18275SOL     OW56546   6.271   6.715   9.184 -0.1861 -0.3406  0.0391
18275SOL    HW156547   6.352   6.711   9.133 -1.0268 -1.0150 -1.3026
18275SOL    HW256548   6.276   6.641   9.244  0.3083 -0.2186  0.1495
18276SOL     OW56549   0.150   6.620   5.387  0.1651  0.4881  0.6341
18276SOL    HW156550   0.093   6.575   5.450  0.7408  0.6791  1.3092
18276SOL    HW256551   0.164   6.556   5.317 -1.7859  0.8309 -0.1216
18277SOL     OW56552   9.181   2.736   8.477 -0.1074  0.2848  0.1412
18277SOL    HW156553   9.146   2.747   8.389 -2.6429 -2.9541  0.5483
18277SOL    HW256554   9.260   2.683   8.465  0.4000  1.1171 -0.2540
18278SOL     OW56555   9.614   6.291   4.717  0.1511 -0.2110  0.1786
18278SOL    HW156556   9.664   6.292   4.635 -0.5701 -1.0681 -0.2803
18278SOL    HW256557   9.667   6.238   4.777  0.6413  0.3537  0.2594
18279SOL     OW56558   4.181   7.929   5.559 -0.2806  0.0911  0.1397
18279SOL    HW156559   4.243   7.983   5.607 -1.6309  0.0800  2.0522
18279SOL    HW256560   4.144   7.987   5.492 -0.0532  0.8671  0.6727
18280SOL     OW56561   3.329   5.502   0.646  0.0572 -0.0988 -0.2393
18280SOL    HW156562   3.291   5.568   0.704  0.0321 -1.6888  1.6761
18280SOL    HW256563   3.254   5.450   0.617  0.3116 -0.7681  0.2712
18281SOL     OW56564   4.705   4.842   4.088  0.0161 -0.0019  0.2280
18281SOL    HW156565   4.617   4.835   4.052  0.2142 -0.0109 -0.2698
18281SOL    HW256566   4.746   4.758   4.065  0.0833 -0.0868  0.6526
18282SOL     OW56567   9.112   4.053   7.280  0.1016  0.5812  0.3146
18282SOL    HW156568   9.067   4.082   7.359 -0.7350 -1.6621  0.7490
18282SOL    HW256569   9.155   3.971   7.305  1.0664  0.5909 -1.1711
18283SOL     OW56570   6.120   3.765   8.762 -0.1383 -0.2975  0.4921
18283SOL    HW156571   6.074   3.844   8.790  0.7687  0.4208 -0.0095
18283SOL    HW256572   6.172   3.792   8.686 -1.4390 -1.8534 -1.0471
18284SOL     OW56573   9.397   5.015   9.163 -1.0592  0.0375  0.0779
18284SOL    HW156574   9.467   5.071   9.196 -1.4446  1.0853 -0.8030
18284SOL    HW256575   9.433   4.974   9.085 -0.8673 -0.7702  0.5758
18285SOL     OW56576   6.971   7.432   5.101  0.0482 -0.1839  0.1528
18285SOL    HW156577   7.060   7.418   5.068 -0.4072  1.4413 -2.0051
18285SOL    HW256578   6.979   7.506   5.162  0.2521 -0.4727  0.4822
18286SOL     OW56579   4.485   6.276   2.533  0.0587  0.5061 -0.7693
18286SOL    HW156580   4.472   6.266   2.439  1.7664  0.1779 -0.9899
18286SOL    HW256581   4.495   6.186   2.565 -0.6848  0.6062 -0.2376
18287SOL     OW56582   7.448   6.845   1.300  0.4290  0.2061  0.0926
18287SOL    HW156583   7.386   6.887   1.241  0.2654  0.3539  0.3711
18287SOL    HW256584   7.532   6.849   1.253  0.1607 -0.3444 -0.4494
18288SOL     OW56585   5.378   7.152   9.452  0.4433  0.8025  0.8697
18288SOL    HW156586   5.406   7.089   9.387  0.2477 -0.0733  1.6091
18288SOL    HW256587   5.405   7.114   9.536 -2.4883  0.0910  1.6025
18289SOL     OW56588   1.711   5.769   6.305  0.1999 -0.4443  0.0337
18289SOL    HW156589   1.703   5.826   6.381 -0.9441 -0.0686 -0.3467
18289SOL    HW256590   1.780   5.808   6.252 -0.4607  0.5130 -0.1449
18290SOL     OW56591   4.053   5.669   2.133  0.6463  0.3218 -0.4969
18290SOL    HW156592   3.991   5.727   2.090 -1.9202  0.0091  2.4003
18290SOL    HW256593   4.064   5.595   2.073 -0.4083  1.2337 -1.8525
18291SOL     OW56594   1.290   8.922   7.852  0.1020  0.6385 -0.3180
18291SOL    HW156595   1.347   8.867   7.798  0.1221  0.5697 -0.2255
18291SOL    HW256596   1.202   8.888   7.836  0.3537 -1.3144  1.9535
18292SOL     OW56597   2.293   2.419   1.889 -0.3663 -0.0968 -0.3519
18292SOL    HW156598   2.340   2.367   1.823 -1.7884 -0.3624 -1.1917
18292SOL    HW256599   2.349   2.496   1.902 -0.9473  0.9701 -3.3844
18293SOL     OW56600   5.285   8.691   4.333 -0.2614 -0.6386  0.2534
18293SOL    HW156601   5.302   8.756   4.402  0.0930 -0.9151  0.4318
18293SOL    HW256602   5.360   8.632   4.337  1.2920  0.9656 -2.3100
18294SOL     OW56603   3.186   1.056   5.272  0.3689 -0.1221 -0.3269
18294SOL    HW156604   3.256   0.998   5.302  0.4639  0.0208 -0.2713
18294SOL    HW256605   3.134   1.002   5.213 -0.2776 -0.6535  0.7079
18295SOL     OW56606   4.869   5.266   1.417 -0.2004  0.1005 -0.7273
18295SOL    HW156607   4.900   5.206   1.349  0.3032  0.4792 -0.8382
18295SOL    HW256608   4.942   5.326   1.432 -0.4975  0.3485 -0.2251
18296SOL     OW56609   7.999   5.816   0.977  0.6309 -0.0654  0.1889
18296SOL    HW156610   8.022   5.885   0.914 -0.4733 -0.7283 -0.9969
18296SOL    HW256611   8.077   5.761   0.982  0.5597 -0.3247 -1.0836
18297SOL     OW56612   2.731   1.098   3.591  0.1662  0.7161  0.2204
18297SOL    HW156613   2.674   1.061   3.659 -0.8822 -1.6620 -1.8131
18297SOL    HW256614   2.693   1.184   3.572 -1.8878 -0.2060 -0.0509
18298SOL     OW56615   0.760   0.938   8.742 -0.4670 -0.4188 -0.3367
18298SOL    HW156616   0.763   1.028   8.710 -0.5312 -0.4541 -0.4430
18298SOL    HW256617   0.796   0.943   8.831  0.3677 -0.4383 -0.6669
18299SOL     OW56618   7.233   0.124   3.699 -0.2628  0.3182 -0.3800
18299SOL    HW156619   7.304   0.187   3.710 -1.4077  1.7209 -0.7874
18299SOL    HW256620   7.255   0.052   3.758  0.1069  1.9527  1.5596
18300SOL     OW56621   6.139   7.248   6.187 -0.4342 -0.2402 -0.2125
18300SOL    HW156622   6.106   7.247   6.097 -2.5739 -0.1718  0.5234
18300SOL    HW256623   6.111   7.164   6.224  0.7315 -0.4168  0.3072
18301SOL     OW56624   3.385   0.165   8.800 -0.2823 -0.0061 -0.2021
18301SOL    HW156625   3.307   0.137   8.752 -1.0863  1.8985 -0.0928
18301SOL    HW256626   3.457   0.116   8.760 -1.4437 -1.3963 -0.6719
18302SOL     OW56627   9.533   0.658   4.437 -0.1014 -0.0251  0.2640
18302SOL    HW156628   9.613   0.632   4.392 -0.2061 -1.5233  0.8907
18302SOL    HW256629   9.499   0.731   4.385 -0.4030 -1.8991 -2.3243
18303SOL     OW56630   4.642   3.521   4.577 -0.2043 -0.1993  0.0565
18303SOL    HW156631   4.599   3.594   4.623 -0.9184 -0.7065  0.2014
18303SOL    HW256632   4.712   3.563   4.526  1.3201  0.2879  2.3929
18304SOL     OW56633   3.586   7.126   2.842 -0.0639  0.2973  0.1792
18304SOL    HW156634   3.680   7.124   2.822 -0.0689  2.3600 -0.3267
18304SOL    HW256635   3.546   7.156   2.760 -1.2610 -1.1627  0.1977
18305SOL     OW56636   2.949   5.401   9.308 -0.0207 -0.4918  0.3940
18305SOL    HW156637   2.988   5.317   9.285  0.4151 -0.7582  1.9884
18305SOL    HW256638   3.024   5.460   9.321 -0.3119  0.0758 -0.3870
18306SOL     OW56639   8.443   7.256   3.190 -0.1321 -0.5393 -0.7548
18306SOL    HW156640   8.443   7.350   3.167  0.3032 -0.4621 -0.4530
18306SOL    HW256641   8.534   7.237   3.210 -0.3547 -0.8420 -0.0282
18307SOL     OW56642   1.248   0.824   0.157  0.5507 -0.2086  0.0169
18307SOL    HW156643   1.160   0.792   0.133  0.5028  0.4017 -0.6581
18307SOL    HW256644   1.293   0.746   0.190  0.5939 -1.1355 -2.0415
18308SOL     OW56645   8.740   9.278   0.911 -0.3269 -0.4244 -0.4345
18308SOL    HW156646   8.647   9.296   0.923 -0.1458 -0.1292  0.5557
18308SOL    HW256647   8.744   9.232   0.827 -1.3882 -0.6639 -0.3711
18309SOL     OW56648   5.272   2.425   1.634 -0.2630 -0.3974 -0.0819
18309SOL    HW156649   5.332   2.375   1.690  1.6778 -0.8749 -2.4555
18309SOL    HW256650   5.211   2.360   1.600 -2.1248  0.0494  2.1266
18310SOL     OW56651   2.291   1.075   9.006 -0.0660  0.2662 -0.7597
18310SOL    HW156652   2.377   1.053   9.041 -0.8923  0.4016  1.4779
18310SOL    HW256653   2.298   1.166   8.977 -0.3587  1.5725  2.8255
18311SOL     OW56654   1.601   8.249   3.275 -0.1710 -0.1324 -0.9754
18311SOL    HW156655   1.672   8.303   3.241 -0.4743  1.1787  0.3691
18311SOL    HW256656   1.640   8.163   3.290  1.2612  0.6655  0.1032
18312SOL     OW56657   6.867   6.206   2.142  0.1012 -0.7778  0.0845
18312SOL    HW156658   6.921   6.203   2.221 -0.9537  1.1934  0.9345
18312SOL    HW256659   6.899   6.282   2.093 -0.1184 -1.2111 -0.7601
18313SOL     OW56660   0.437   9.627   4.797 -0.3270  0.3304 -0.2756
18313SOL    HW156661   0.348   9.634   4.832 -0.6476  0.9379 -1.1456
18313SOL    HW256662   0.441   9.540   4.759  0.2939 -0.6515  1.8976
18314SOL     OW56663   8.128   6.984   2.472 -0.3939  0.4015 -0.4222
18314SOL    HW156664   8.164   7.073   2.471  2.0558 -0.5233 -0.6215
18314SOL    HW256665   8.166   6.944   2.550  0.2320 -1.0877 -1.4432
18315SOL     OW56666   3.531   4.849   2.197 -0.0048  0.3077 -0.3416
18315SOL    HW156667   3.545   4.767   2.150  1.1135  0.8135 -0.9216
18315SOL    HW256668   3.451   4.834   2.248  1.0198 -1.6923  0.7979
18316SOL     OW56669   1.013   2.866   0.921  0.7730 -0.2586  0.7291
18316SOL    HW156670   0.982   2.795   0.865  0.4823 -2.0375  3.0078
18316SOL    HW256671   1.096   2.893   0.881 -0.3324 -0.0758 -1.6094
18317SOL     OW56672   7.617   1.761   5.917 -0.1343  0.2108  0.4980
18317SOL    HW156673   7.605   1.813   5.997 -0.9117 -1.9674  1.8917
18317SOL    HW256674   7.570   1.680   5.934  3.4260 -2.2465 -0.2812
18318SOL     OW56675   9.042   8.340   7.724  0.7059 -0.0733 -0.6815
18318SOL    HW156676   8.991   8.415   7.756 -0.9154 -2.2083  2.0979
18318SOL    HW256677   9.130   8.354   7.758  0.4947  0.6881 -0.4308
18319SOL     OW56678   4.227   8.419   2.522  0.0837 -0.0042 -0.2956
18319SOL    HW156679   4.228   8.358   2.448  1.8568  1.2095 -1.3377
18319SOL    HW256680   4.245   8.505   2.483  2.4282  0.5018  1.6381
18320SOL     OW56681   9.252   1.977   5.709  0.8478 -0.1781 -0.1849
18320SOL    HW156682   9.329   2.031   5.726 -0.3930  1.3990  0.6360
18320SOL    HW256683   9.273   1.893   5.750  2.4869 -0.1060 -0.7751
18321SOL     OW56684   3.853   9.459   6.833 -0.1449  0.0667  0.4319
18321SOL    HW156685   3.847   9.522   6.905  0.2087  0.4505  0.1310
18321SOL    HW256686   3.763   9.433   6.816 -0.4467  1.4604 -0.2845
18322SOL     OW56687   4.535   1.986   2.840  0.0275 -0.0656 -0.4119
18322SOL    HW156688   4.459   1.937   2.809 -0.7993  2.2606 -2.4065
18322SOL    HW256689   4.498   2.058   2.891  1.1828 -1.2450  2.2477
18323SOL     OW56690   7.961   5.657   1.843  0.4281  0.2521 -0.2863
18323SOL    HW156691   7.926   5.732   1.892  1.5053  0.1668  0.6495
18323SOL    HW256692   7.938   5.676   1.752 -0.0918  1.2830  0.0328
18324SOL     OW56693   8.676   4.442   9.686 -0.1270  0.0795  0.4500
18324SOL    HW156694   8.727   4.465   9.764  0.9724  1.0342 -0.5151
18324SOL    HW256695   8.731   4.381   9.638 -0.2943  0.3817 -0.1395
18325SOL     OW56696   8.565   7.219   3.964  0.3289 -0.0713 -0.2710
18325SOL    HW156697   8.575   7.208   4.058 -0.5369  0.6284 -0.0846
18325SOL    HW256698   8.608   7.303   3.945 -0.0389  0.0869 -0.4010
18326SOL     OW56699   9.424   8.909   8.333 -0.6889  0.2063 -0.1411
18326SOL    HW156700   9.472   8.971   8.388 -2.2792  2.8724 -1.5672
18326SOL    HW256701   9.369   8.860   8.395 -2.2942  2.9786  0.8335
18327SOL     OW56702   6.672   0.013   4.491  0.4554  0.2765  0.0751
18327SOL    HW156703   6.749  -0.025   4.534  1.3668  1.4826 -0.4473
18327SOL    HW256704   6.662   0.099   4.530 -0.8660  0.0031  0.3876
18328SOL     OW56705   7.784   4.541   3.612 -0.0390 -0.7866 -0.2580
18328SOL    HW156706   7.776   4.633   3.588 -1.6891 -0.6141  0.8409
18328SOL    HW256707   7.857   4.538   3.674  0.5207 -0.3704 -0.8766
18329SOL     OW56708   9.008   9.177   7.014 -0.0543 -0.2603  0.8310
18329SOL    HW156709   8.949   9.212   7.082 -1.7472 -1.2246 -0.0679
18329SOL    HW256710   9.059   9.253   6.986 -1.9180  0.9840  0.6277
18330SOL     OW56711   0.591   4.207   7.921  0.2389 -0.0564  0.8893
18330SOL    HW156712   0.598   4.113   7.941  0.6678 -0.1283  0.4131
18330SOL    HW256713   0.634   4.251   7.994  1.2747 -0.2915  0.4413
18331SOL     OW56714   3.698   1.954   2.175  0.0029 -0.4935 -0.0507
18331SOL    HW156715   3.678   1.895   2.247  3.0742  0.5146  1.8112
18331SOL    HW256716   3.770   1.913   2.129 -1.0445 -0.4649 -1.8195
18332SOL     OW56717   1.028   7.245   9.246  0.2331 -0.0153 -0.1019
18332SOL    HW156718   1.065   7.294   9.319 -0.8122 -0.1158  0.5286
18332SOL    HW256719   1.093   7.178   9.226  1.2883  1.0590 -0.3975
18333SOL     OW56720   5.481   6.037   5.587 -0.4404 -0.2559 -0.1757
18333SOL    HW156721   5.408   6.044   5.649  0.0019  1.2373  0.2299
18333SOL    HW256722   5.441   6.057   5.502 -0.7217 -0.5925 -0.1234
18334SOL     OW56723   1.405   3.777   2.398  0.0072  0.2931  0.4218
18334SOL    HW156724   1.393   3.798   2.491  1.2043  0.0521  0.6502
18334SOL    HW256725   1.481   3.828   2.372  0.6300 -0.8188 -0.0125
18335SOL     OW56726   2.981   8.334   2.177  0.7235 -0.4319 -0.0800
18335SOL    HW156727   3.022   8.392   2.241 -2.8499  0.7686  1.3760
18335SOL    HW256728   2.956   8.392   2.105 -0.7098 -0.5510  0.2870
18336SOL     OW56729   8.038   9.698   4.449  0.3146 -0.1736  0.1372
18336SOL    HW156730   8.013   9.677   4.539  0.4892 -0.2651  0.1651
18336SOL    HW256731   8.058   9.792   4.451  2.2647 -0.5522  0.6584
18337SOL     OW56732   1.093   8.298   3.450  0.3314 -0.3513 -0.1143
18337SOL    HW156733   1.117   8.256   3.532 -1.0531 -0.3626  0.3119
18337SOL    HW256734   1.165   8.278   3.390  1.7574  0.3288  1.3020
18338SOL     OW56735   7.905   0.492   7.779  0.2026 -0.5623 -0.1623
18338SOL    HW156736   7.997   0.513   7.798  0.5271 -0.2466 -1.8976
18338SOL    HW256737   7.860   0.506   7.862  1.3143  1.7978  0.1514
18339SOL     OW56738   8.824   1.407   7.196  0.2165 -0.0907  0.2747
18339SOL    HW156739   8.794   1.322   7.228 -1.4978  1.2573  2.5085
18339SOL    HW256740   8.831   1.461   7.274  1.5156  1.7951 -1.0585
18340SOL     OW56741   3.158   5.274   0.322 -0.5656  0.0271 -0.4480
18340SOL    HW156742   3.102   5.232   0.388  2.0763 -0.2569  1.7633
18340SOL    HW256743   3.163   5.365   0.349  3.7737 -0.8051  2.4524
18341SOL     OW56744   0.354   4.288   4.581 -0.4648  0.0229 -0.4792
18341SOL    HW156745   0.266   4.314   4.553 -0.6915  0.4777  0.5837
18341SOL    HW256746   0.351   4.294   4.676  1.1000  1.3248 -0.4772
18342SOL     OW56747   1.832   5.080   3.524 -0.2877  0.0785 -0.2052
18342SOL    HW156748   1.870   5.100   3.438  0.6133  0.7670  0.3350
18342SOL    HW256749   1.906   5.088   3.585 -0.0005 -3.9361  0.2324
18343SOL     OW56750   4.363   2.467   4.660 -0.1318 -0.3456 -0.2154
18343SOL    HW156751   4.381   2.561   4.662  1.0759 -0.5843  1.0394
18343SOL    HW256752   4.289   2.459   4.599 -0.6468  1.4728  0.1002
18344SOL     OW56753   3.710   8.472   7.116 -0.1682 -0.1928  0.5291
18344SOL    HW156754   3.744   8.387   7.144 -1.7279 -1.6751 -1.6683
18344SOL    HW256755   3.615   8.460   7.114 -0.4681  1.8163  0.7061
18345SOL     OW56756   3.855   8.149   0.839  0.2029 -0.0978  0.3869
18345SOL    HW156757   3.822   8.236   0.864 -2.4389 -0.7942 -0.3067
18345SOL    HW256758   3.790   8.116   0.776  1.1129 -2.5723  0.6322
18346SOL     OW56759   3.498   9.118   0.279 -0.2889 -0.1412  0.2988
18346SOL    HW156760   3.463   9.080   0.199 -2.5869 -0.7626  1.4815
18346SOL    HW256761   3.425   9.169   0.315  1.6965  2.8560  0.3983
18347SOL     OW56762   7.235   0.595   7.902  0.6195  0.3116 -0.2479
18347SOL    HW156763   7.324   0.628   7.891  0.9493 -0.2744  0.6151
18347SOL    HW256764   7.240   0.537   7.977 -0.3414 -0.3056 -0.6476
18348SOL     OW56765   4.514   7.122   8.209 -0.2133 -0.5527 -0.6583
18348SOL    HW156766   4.449   7.090   8.147 -2.6831 -0.5001  1.7465
18348SOL    HW256767   4.568   7.045   8.229 -1.6911 -1.4853 -0.1604
18349SOL     OW56768   9.090   9.231   8.885  0.7644 -0.5145 -0.4382
18349SOL    HW156769   9.101   9.138   8.904  0.2078 -0.5718 -0.3950
18349SOL    HW256770   9.157   9.274   8.940  1.0244 -0.8836 -0.4622
18350SOL     OW56771   3.407   1.811   6.907  0.0730 -0.4418 -0.2630
18350SOL    HW156772   3.448   1.845   6.827  1.7658 -0.2862  0.6169
18350SOL    HW256773   3.479   1.774   6.957 -0.5479  1.2395  2.0946
18351SOL     OW56774   7.052   0.139   1.120  0.0121 -0.0040  0.7994
18351SOL    HW156775   6.963   0.158   1.091 -0.1590 -1.1135  0.5542
18351SOL    HW256776   7.064   0.196   1.196 -0.8406  0.2741  0.7465
18352SOL     OW56777   6.193   4.892   6.910  0.0850  0.3050  0.3513
18352SOL    HW156778   6.219   4.967   6.964  1.0419  1.8708 -2.0953
18352SOL    HW256779   6.275   4.853   6.881 -0.4096 -1.5292  1.2790
18353SOL     OW56780   0.943   4.875   5.270  0.6492  0.1243  0.0894
18353SOL    HW156781   0.888   4.938   5.315 -0.0115  0.0936 -0.6592
18353SOL    HW256782   0.931   4.793   5.318  1.6650  0.5845  1.1844
18354SOL     OW56783   0.477   6.530   9.519  0.2529  0.6068 -0.1434
18354SOL    HW156784   0.414   6.484   9.574 -0.0550  0.3634 -0.6887
18354SOL    HW256785   0.438   6.617   9.506 -0.1781  0.3231 -0.8116
18355SOL     OW56786   7.531   5.092   1.419  0.1499  0.7713 -0.7500
18355SOL    HW156787   7.591   5.107   1.492  1.4251 -0.0125 -1.5983
18355SOL    HW256788   7.588   5.084   1.342 -0.9733 -0.6161 -1.4999
18356SOL     OW56789   0.837   3.626   3.606 -0.4445  0.3343  0.5069
18356SOL    HW156790   0.777   3.571   3.656  1.2935 -1.0252  1.2339
18356SOL    HW256791   0.807   3.619   3.516 -0.8265 -1.0700  0.7232
18357SOL     OW56792   1.993   3.176   7.016  0.6772 -0.5274  0.3714
18357SOL    HW156793   2.085   3.182   7.041  0.7746  1.4457 -0.3422
18357SOL    HW256794   1.989   3.099   6.959  1.6575 -1.2199  1.1818
18358SOL     OW56795   7.988   9.625   6.677 -0.0926 -0.2390  0.1292
18358SOL    HW156796   7.985   9.567   6.601  0.5287  0.7655 -0.6840
18358SOL    HW256797   7.909   9.604   6.726  0.1108 -1.7703 -0.1356
18359SOL     OW56798   1.522   5.089   9.477 -0.3142 -0.4443  0.0872
18359SOL    HW156799   1.549   5.101   9.568  3.0691  0.8184 -0.9146
18359SOL    HW256800   1.500   5.176   9.447 -0.4090 -0.6872 -0.5607
18360SOL     OW56801   6.315   2.684   7.262  0.2135  0.2466 -0.7506
18360SOL    HW156802   6.364   2.617   7.310  2.4442  1.4471 -1.2274
18360SOL    HW256803   6.306   2.755   7.325 -1.7685 -0.2668 -0.3895
18361SOL     OW56804   8.328   2.797   4.463  0.0103 -0.3521  0.0249
18361SOL    HW156805   8.336   2.889   4.437  0.9509 -0.4105  0.0761
18361SOL    HW256806   8.248   2.794   4.515  0.4508  0.6222  0.7894
18362SOL     OW56807   7.534   0.671   3.967  0.2690 -0.2812  0.6179
18362SOL    HW156808   7.539   0.713   3.881  0.0422 -1.0808  0.2100
18362SOL    HW256809   7.577   0.733   4.026 -0.6806  0.8536  0.1545
18363SOL     OW56810   5.486   0.949   1.744  0.8488 -0.4365 -0.2312
18363SOL    HW156811   5.452   0.884   1.682  0.4857  0.3608 -0.8925
18363SOL    HW256812   5.461   0.916   1.830  1.0370 -1.3800 -0.5256
18364SOL     OW56813   6.871   6.912   6.445 -0.5083 -0.1890 -0.0108
18364SOL    HW156814   6.826   6.883   6.524  0.2873  1.1920  0.9926
18364SOL    HW256815   6.803   6.915   6.378 -1.5897  0.3925  1.0743
18365SOL     OW56816   4.973   3.722   5.093 -0.1797  0.6339  0.0018
18365SOL    HW156817   5.047   3.720   5.032 -1.5096  0.7217 -1.7108
18365SOL    HW256818   5.012   3.727   5.179  1.8212 -0.1083 -0.8088
18366SOL     OW56819   0.973   1.774   1.951  0.5281 -0.1710 -0.1330
18366SOL    HW156820   0.968   1.865   1.979  2.6990 -0.3539  1.1249
18366SOL    HW256821   0.984   1.778   1.856 -0.7224  0.7821 -0.2612
18367SOL     OW56822   5.593   6.074   5.114  0.0685  0.5654 -0.3360
18367SOL    HW156823   5.610   5.991   5.159 -0.1584  1.3875  1.3395
18367SOL    HW256824   5.619   6.057   5.023  2.4183 -0.5861  0.4580
18368SOL     OW56825   3.723   4.893   4.194  0.2179 -0.2044 -0.1356
18368SOL    HW156826   3.753   4.876   4.284 -0.2778  1.5076  0.3889
18368SOL    HW256827   3.628   4.903   4.202  0.3538  1.8030 -0.4991
18369SOL     OW56828   0.840   4.934   8.464  0.1608 -0.4445  0.2674
18369SOL    HW156829   0.897   4.977   8.401 -2.0094  1.7041 -0.3987
18369SOL    HW256830   0.823   4.848   8.426  1.1305 -0.2496 -0.6431
18370SOL     OW56831   2.505   4.157   2.030  0.0205  0.1627 -0.3205
18370SOL    HW156832   2.476   4.087   1.972  1.6635  0.3667 -1.4548
18370SOL    HW256833   2.533   4.112   2.109 -0.1675 -0.3297 -0.5278
18371SOL     OW56834   1.102   2.406   8.953  0.1574 -0.3012 -0.1925
18371SOL    HW156835   1.056   2.490   8.950 -0.0944 -0.4518 -0.7158
18371SOL    HW256836   1.035   2.343   8.980  0.1012 -0.4899 -0.7606
18372SOL     OW56837   1.884   6.945   6.486  0.0211  0.2768 -0.9437
18372SOL    HW156838   1.802   6.922   6.529  0.2525 -1.7116 -1.4870
18372SOL    HW256839   1.883   6.897   6.403  2.2326 -0.7820 -0.4402
18373SOL     OW56840   2.710   3.639   6.831 -0.2411 -0.0450 -0.1359
18373SOL    HW156841   2.669   3.554   6.815  1.1758 -1.0404  1.0751
18373SOL    HW256842   2.763   3.624   6.910  1.8263  1.3178 -1.1825
18374SOL     OW56843   2.430   4.021   6.555 -0.3783 -0.0459  0.8451
18374SOL    HW156844   2.344   4.062   6.562 -0.8743 -0.9715  0.3537
18374SOL    HW256845   2.451   4.023   6.461 -0.7592 -1.5696  0.7046
18375SOL     OW56846   7.205   4.381   8.418 -0.0321  0.6260  0.4959
18375SOL    HW156847   7.224   4.363   8.510  3.0784 -0.1565 -0.1821
18375SOL    HW256848   7.224   4.474   8.407  0.1527  0.5956  0.5491
18376SOL     OW56849   4.277   9.117   9.416 -0.1608 -0.3146 -0.9959
18376SOL    HW156850   4.288   9.194   9.473  1.2288 -0.2953 -1.2528
18376SOL    HW256851   4.336   9.133   9.342 -1.0459 -0.9035 -1.8457
18377SOL     OW56852   5.189   8.534   0.649  0.2356  0.4078 -0.2468
18377SOL    HW156853   5.180   8.440   0.631 -0.0351  0.1928  0.9120
18377SOL    HW256854   5.173   8.577   0.565 -2.2161 -0.4520 -0.2993
18378SOL     OW56855   7.132   4.209   6.259 -0.0764  0.5134 -0.0160
18378SOL    HW156856   7.195   4.140   6.282 -0.9548  0.0362  1.0517
18378SOL    HW256857   7.128   4.265   6.336 -2.3998 -0.5937  0.7606
18379SOL     OW56858   8.802   1.827   4.972  0.2518 -0.0187  0.1677
18379SOL    HW156859   8.709   1.851   4.965 -0.1185 -1.7707 -2.1217
18379SOL    HW256860   8.812   1.799   5.063 -1.4089  0.3250  0.5020
18380SOL     OW56861   6.697   6.896   7.551  0.1940  0.3549  0.0706
18380SOL    HW156862   6.614   6.912   7.597  1.1887 -0.0231  2.0993
18380SOL    HW256863   6.671   6.857   7.468 -1.7186  1.5800  0.0217
18381SOL     OW56864   1.220   3.279   6.035  0.1546  0.1648 -0.2797
18381SOL    HW156865   1.270   3.291   6.115 -1.8561  0.8526  0.9529
18381SOL    HW256866   1.251   3.348   5.977 -0.3321  1.5198  0.9997
18382SOL     OW56867   7.387   2.318   0.107 -0.8015  0.1192 -0.4266
18382SOL    HW156868   7.475   2.357   0.111 -1.1240  0.8053  0.7272
18382SOL    HW256869   7.383   2.261   0.184 -1.7201  0.9054  0.1304
18383SOL     OW56870   0.613   7.567   7.792  0.0237 -0.6597  0.2879
18383SOL    HW156871   0.563   7.593   7.714  1.7951 -1.1730 -1.1016
18383SOL    HW256872   0.675   7.639   7.805 -1.3641  0.2550  2.3414
18384SOL     OW56873   5.276   0.718   0.491 -0.3480  0.6127  0.1421
18384SOL    HW156874   5.283   0.637   0.541  1.8717  0.5671 -0.1394
18384SOL    HW256875   5.277   0.787   0.557  0.6384  0.4861  0.2722
18385SOL     OW56876   7.837   8.543   8.016 -0.1593 -0.2761  0.0457
18385SOL    HW156877   7.929   8.557   7.995  0.0541  0.4134  1.3324
18385SOL    HW256878   7.799   8.631   8.017 -0.3249 -0.3282  1.6243
18386SOL     OW56879   5.347   5.185   3.271  0.0361 -0.9635 -0.1153
18386SOL    HW156880   5.370   5.265   3.318  2.4661 -1.7882  0.2087
18386SOL    HW256881   5.267   5.208   3.224 -2.3791  0.0823  3.9741
18387SOL     OW56882   2.806   7.644   5.228 -0.4990 -0.4354 -0.1135
18387SOL    HW156883   2.758   7.725   5.246 -2.3776 -1.4533 -0.3054
18387SOL    HW256884   2.858   7.664   5.150 -1.0163  0.5445 -0.2284
18388SOL     OW56885   3.545   2.527   2.819  0.1804  0.2693  0.5432
18388SOL    HW156886   3.475   2.470   2.850  1.0566 -0.1617  1.8112
18388SOL    HW256887   3.532   2.609   2.868 -1.4133  1.4436 -1.6753
18389SOL     OW56888   5.504   1.973   1.130 -0.0015  0.0579  0.1622
18389SOL    HW156889   5.464   1.978   1.043 -2.1865 -1.8354  0.9584
18389SOL    HW256890   5.450   2.029   1.185  0.8172  0.5226  0.5132
18390SOL     OW56891   1.240   7.915   0.134 -0.1758  0.3342  0.2968
18390SOL    HW156892   1.285   7.831   0.125  1.7549  1.4091 -0.8001
18390SOL    HW256893   1.167   7.911   0.073 -0.2563 -0.6436  0.4544
18391SOL     OW56894   3.856   5.630   1.187 -0.5328  0.2958 -0.1872
18391SOL    HW156895   3.840   5.553   1.133 -0.0321  0.9693 -1.3285
18391SOL    HW256896   3.951   5.640   1.187 -0.6489  1.6502 -1.1398
18392SOL     OW56897   6.199   1.805   8.979 -0.2298 -0.1407 -0.0565
18392SOL    HW156898   6.244   1.747   8.919 -1.0883 -1.0942  0.1934
18392SOL    HW256899   6.122   1.756   9.007  0.1264  0.2752  1.7926
18393SOL     OW56900   4.890   2.728   5.718  0.1895 -0.5616 -0.5944
18393SOL    HW156901   4.850   2.677   5.789 -0.0076 -1.9846 -1.6856
18393SOL    HW256902   4.976   2.687   5.705 -0.3611 -1.3095 -2.1396
18394SOL     OW56903   9.515   8.311   1.104 -0.6216  0.0068  0.5455
18394SOL    HW156904   9.499   8.319   1.010  0.1623  1.7101  0.5256
18394SOL    HW256905   9.431   8.336   1.144 -0.9278 -0.6267  0.3156
18395SOL     OW56906   1.298   2.838   6.178 -0.6000  0.3314  0.3416
18395SOL    HW156907   1.322   2.930   6.176 -1.6043  0.6168  0.8381
18395SOL    HW256908   1.369   2.793   6.132  1.3782  1.0127  2.5283
18396SOL     OW56909   7.462   4.592   6.522  0.1356  0.0654 -0.6864
18396SOL    HW156910   7.499   4.638   6.598  2.4542 -1.3766 -0.8448
18396SOL    HW256911   7.388   4.543   6.558  1.4504 -0.9265  0.7689
18397SOL     OW56912   4.753   9.196   5.689  0.2963 -0.2892  0.1399
18397SOL    HW156913   4.671   9.160   5.724 -0.8158  0.6223 -1.3879
18397SOL    HW256914   4.740   9.291   5.691  0.8378 -0.1659 -1.1698
18398SOL     OW56915   9.025   6.629   1.848  0.6290 -0.2140  0.4897
18398SOL    HW156916   8.993   6.604   1.761  1.9452  0.5819 -0.2570
18398SOL    HW256917   9.039   6.546   1.893  1.4122 -0.7054 -0.6207
18399SOL     OW56918   6.414   3.581   0.244  0.5541  0.2312 -0.1622
18399SOL    HW156919   6.505   3.590   0.217  0.4324 -0.0406 -0.6890
18399SOL    HW256920   6.393   3.490   0.224 -0.1396  0.5678 -1.0201
18400SOL     OW56921   4.000   7.090   9.630  0.3058  0.1396  0.1481
18400SOL    HW156922   4.059   7.136   9.571  0.7759 -1.6731 -0.8849
18400SOL    HW256923   4.058   7.054   9.698 -0.2390  2.2828  1.8514
18401SOL     OW56924   6.587   7.601   5.193  0.7621  0.4252 -0.5886
18401SOL    HW156925   6.599   7.693   5.168  1.6875  0.5303  0.2181
18401SOL    HW256926   6.675   7.569   5.212  0.5473 -0.8581 -1.5905
18402SOL     OW56927   9.069   5.141   1.697  0.4973  0.8002 -0.6834
18402SOL    HW156928   9.060   5.217   1.753 -0.8499 -0.2185  0.5425
18402SOL    HW256929   9.017   5.161   1.619 -0.9993  0.5939  0.2413
18403SOL     OW56930   8.523   0.334   8.434  0.1405  0.2053  0.2806
18403SOL    HW156931   8.453   0.274   8.458  1.0305 -0.4785  1.2723
18403SOL    HW256932   8.597   0.277   8.411  0.2246  0.8992 -1.2956
18404SOL     OW56933   1.325   6.976   2.725  0.0569 -0.0616 -0.6695
18404SOL    HW156934   1.359   6.890   2.747 -2.0383 -0.4562  1.4824
18404SOL    HW256935   1.299   6.969   2.633  2.1518 -0.8891 -1.2485
18405SOL     OW56936   1.773   7.548   2.576 -0.1606  0.3049  0.4778
18405SOL    HW156937   1.704   7.554   2.642 -1.7564  0.9100 -1.1543
18405SOL    HW256938   1.750   7.615   2.511  1.0549 -0.5690 -0.9173
18406SOL     OW56939   9.666   9.579   7.311  0.2655  0.1325  0.1559
18406SOL    HW156940   9.584   9.579   7.260 -0.1629 -0.4129  0.8395
18406SOL    HW256941   9.722   9.642   7.265  0.1331 -0.8300 -1.3882
18407SOL     OW56942   8.446   3.983   3.443  0.1722 -0.0561  0.3928
18407SOL    HW156943   8.434   3.905   3.497 -0.8806  0.1468  0.4793
18407SOL    HW256944   8.372   3.981   3.382  0.3214  0.6960  0.1801
18408SOL     OW56945   3.442   4.495   2.901  0.4888 -0.2105  0.5036
18408SOL    HW156946   3.491   4.444   2.966  1.9478 -0.2657 -0.5851
18408SOL    HW256947   3.424   4.578   2.944  2.1572  0.0692  0.7230
18409SOL     OW56948   7.376   2.728   1.080 -0.1712 -0.3421 -0.1999
18409SOL    HW156949   7.460   2.767   1.106  1.4414 -4.0480  0.7759
18409SOL    HW256950   7.394   2.688   0.995 -1.7590  0.8633 -1.1630
18410SOL     OW56951   3.776   6.414   5.599 -0.5712 -0.0230  0.0582
18410SOL    HW156952   3.723   6.490   5.574 -0.6291  0.2194  0.8916
18410SOL    HW256953   3.749   6.345   5.539 -1.2168  0.3448 -0.0829
18411SOL     OW56954   8.575   8.201   4.846  0.0324  0.1514 -0.3766
18411SOL    HW156955   8.655   8.150   4.837 -0.0868  0.1626 -1.7770
18411SOL    HW256956   8.557   8.233   4.758 -2.1864 -0.8796 -0.3830
18412SOL     OW56957   4.751   1.220   6.244  0.0086  1.2337  0.3250
18412SOL    HW156958   4.664   1.257   6.256 -1.6442 -2.2453  0.2407
18412SOL    HW256959   4.784   1.260   6.163 -1.4262  2.6907  0.4238
18413SOL     OW56960   7.979   4.041   8.888  0.9360 -0.5182  0.5723
18413SOL    HW156961   8.046   3.975   8.908  1.5607  0.4186  1.7301
18413SOL    HW256962   7.989   4.107   8.957  0.3744  0.8224 -0.5675
18414SOL     OW56963   8.421   6.298   0.240  0.4390  0.2460 -0.2862
18414SOL    HW156964   8.445   6.298   0.332  2.1330  1.6295 -0.6795
18414SOL    HW256965   8.483   6.358   0.198 -0.3212 -0.2771 -2.3203
18415SOL     OW56966   5.086   0.688   7.958 -0.1870  0.0435  0.7084
18415SOL    HW156967   5.116   0.600   7.937 -0.8367 -0.5245  2.0350
18415SOL    HW256968   5.035   0.715   7.881 -1.5583 -1.4933  1.0239
18416SOL     OW56969   5.806   7.616   6.241 -0.0720 -0.3118 -0.2987
18416SOL    HW156970   5.852   7.588   6.320  1.4132 -0.0235 -1.0417
18416SOL    HW256971   5.833   7.554   6.174  1.0218  1.1914 -1.2812
18417SOL     OW56972   7.768   2.348   6.630  0.3238  0.1947 -0.0679
18417SOL    HW156973   7.795   2.278   6.689  2.0477  2.6995  2.4119
18417SOL    HW256974   7.739   2.419   6.688 -1.2900  1.5936 -2.4017
18418SOL     OW56975   3.350   4.429   4.274  0.0411 -0.1422 -0.4488
18418SOL    HW156976   3.312   4.435   4.362  2.1822 -2.9905  0.8435
18418SOL    HW256977   3.431   4.481   4.281  1.7768 -2.7517  0.3784
18419SOL     OW56978   2.654   6.405   6.327  0.2340  0.0855  0.0982
18419SOL    HW156979   2.630   6.445   6.410  0.6323  1.4710 -0.4358
18419SOL    HW256980   2.746   6.379   6.338  1.0834  2.4756 -0.6611
18420SOL     OW56981   2.953   8.665   3.879  0.0023  0.5856  0.0459
18420SOL    HW156982   3.045   8.646   3.897 -0.1799  1.1311  1.7983
18420SOL    HW256983   2.952   8.698   3.790  1.3927 -0.1453 -0.2721
18421SOL     OW56984   3.923   6.113   7.166 -0.2770  0.4246  0.6273
18421SOL    HW156985   3.866   6.163   7.225 -1.6425 -1.1737  0.7411
18421SOL    HW256986   4.003   6.099   7.217 -0.8603  0.3278  1.5488
18422SOL     OW56987   1.896   4.166   5.645  0.3530  0.4928 -0.2731
18422SOL    HW156988   1.852   4.105   5.704 -4.7714  3.0091 -0.9228
18422SOL    HW256989   1.970   4.199   5.696  1.1566 -3.3745  1.4087
18423SOL     OW56990   7.884   6.978   2.567  0.1834  0.7761 -0.1491
18423SOL    HW156991   7.835   6.971   2.485 -0.6687 -0.1607  0.4140
18423SOL    HW256992   7.975   6.962   2.543  0.1274  1.7543 -1.0967
18424SOL     OW56993   1.211   4.654   4.318  0.3755  0.0956  0.0466
18424SOL    HW156994   1.187   4.718   4.384 -0.9093 -0.5967  0.2786
18424SOL    HW256995   1.302   4.632   4.338  0.2310  0.4361  1.1423
18425SOL     OW56996   6.557   1.777   5.486 -0.3893 -0.1198  0.5354
18425SOL    HW156997   6.539   1.859   5.533 -2.6510  0.8354 -1.8095
18425SOL    HW256998   6.507   1.711   5.533 -0.5903  0.3334  0.9687
18426SOL     OW56999   3.158   6.352   2.139  0.0954  0.1853  0.2258
18426SOL    HW157000   3.076   6.396   2.162 -0.2505 -1.6935  3.1877
18426SOL    HW257001   3.227   6.415   2.159 -0.5027  2.0032 -2.8527
18427SOL     OW57002   2.300   9.168   2.584 -0.2179  0.0413  0.2501
18427SOL    HW157003   2.375   9.119   2.618  0.7982  0.2147 -1.5980
18427SOL    HW257004   2.237   9.168   2.656  2.2123  1.4117  2.5945
18428SOL     OW57005   9.553   9.281   0.088  0.2303 -0.2996 -0.2475
18428SOL    HW157006   9.585   9.243   0.170 -1.6726  0.2722  0.8121
18428SOL    HW257007   9.484   9.221   0.060  1.5568 -1.0592 -2.0382
18429SOL     OW57008   8.665   3.224   3.424 -0.0167  0.2373  0.2997
18429SOL    HW157009   8.570   3.210   3.428  0.2007 -1.1593  1.2522
18429SOL    HW257010   8.699   3.184   3.504  1.5597 -0.9539 -0.9013
18430SOL     OW57011   6.919   4.566   6.387 -0.2097  0.2555  0.3604
18430SOL    HW157012   6.828   4.535   6.384 -0.4244  0.9038 -0.9456
18430SOL    HW257013   6.953   4.547   6.299  0.6764  0.6930  0.5976
18431SOL     OW57014   0.500   4.097   0.892  0.2749  0.0920  0.1295
18431SOL    HW157015   0.573   4.140   0.848  0.1840 -0.3237 -0.4355
18431SOL    HW257016   0.425   4.153   0.874  0.7291  1.4654  2.1516
18432SOL     OW57017   7.625   8.048   3.620  0.1088  0.2998 -0.9624
18432SOL    HW157018   7.531   8.058   3.602  0.0130 -3.2066 -3.7069
18432SOL    HW257019   7.661   8.016   3.537  3.9436  2.0725 -0.1839
18433SOL     OW57020   0.516   7.019   4.848  0.1433 -0.1990 -0.0565
18433SOL    HW157021   0.558   6.934   4.832 -1.4057 -0.6231 -2.3901
18433SOL    HW257022   0.555   7.078   4.784 -0.2405  0.3071  0.1676
18434SOL     OW57023   2.377   7.039   0.513  0.0802  0.0518  0.0927
18434SOL    HW157024   2.453   7.096   0.521 -0.6484  1.2246 -0.8770
18434SOL    HW257025   2.310   7.094   0.470 -0.7776 -1.4119 -0.5377
18435SOL     OW57026   1.619   7.234   0.535 -0.2083  0.2887 -0.0244
18435SOL    HW157027   1.650   7.161   0.589 -0.7296  0.5972  0.7097
18435SOL    HW257028   1.525   7.219   0.528 -0.5758  1.6679  1.3833
18436SOL     OW57029   2.254   6.297   9.518 -0.1112  0.1588 -0.1864
18436SOL    HW157030   2.268   6.391   9.506  0.7957  0.0304 -0.1907
18436SOL    HW257031   2.297   6.277   9.601 -0.2306 -0.2752 -0.2290
18437SOL     OW57032   2.800   7.199   5.730 -0.0845  0.2679  0.0717
18437SOL    HW157033   2.716   7.184   5.774 -0.8816  1.7850 -0.8436
18437SOL    HW257034   2.777   7.214   5.638  1.3666 -0.9770 -0.5381
18438SOL     OW57035   0.296   8.798   8.620  0.3264 -0.1117  0.7243
18438SOL    HW157036   0.358   8.870   8.630  0.6169 -0.5846  2.6769
18438SOL    HW257037   0.216   8.830   8.662 -0.7813  0.4198 -1.5983
18439SOL     OW57038   4.108   6.354   3.834 -0.2155 -0.9542 -0.4821
18439SOL    HW157039   4.110   6.369   3.928 -0.8272 -0.1104 -0.5928
18439SOL    HW257040   4.157   6.427   3.796 -0.7466 -0.7977 -0.8725
18440SOL     OW57041   4.339   7.489   6.289 -0.1729  0.1549 -0.3561
18440SOL    HW157042   4.349   7.394   6.291 -0.8896  0.0829  1.3820
18440SOL    HW257043   4.245   7.504   6.302 -0.0378  1.1112 -0.3849
18441SOL     OW57044   6.728   1.998   5.065 -0.5692  1.0363 -0.1210
18441SOL    HW157045   6.680   1.927   5.024 -2.3268  3.6231 -2.9116
18441SOL    HW257046   6.684   2.012   5.149 -1.1714 -0.1063 -0.2342
18442SOL     OW57047   1.410   1.542   1.337  0.3675  0.4021 -0.1457
18442SOL    HW157048   1.490   1.490   1.343 -0.4657 -0.7473  2.1199
18442SOL    HW257049   1.438   1.625   1.300  1.7863 -1.4952 -3.8573
18443SOL     OW57050   6.542   2.952   8.667  0.3683 -0.0597  0.7033
18443SOL    HW157051   6.468   3.002   8.634  0.0933 -0.4682  0.6877
18443SOL    HW257052   6.506   2.901   8.740 -0.1446 -2.5882 -1.1725
18444SOL     OW57053   0.439   6.121   6.043  0.1970 -0.0880 -0.4734
18444SOL    HW157054   0.368   6.172   6.004  0.6123  1.0941  0.2722
18444SOL    HW257055   0.452   6.048   5.983 -1.3142 -0.0585 -0.8742
18445SOL     OW57056   8.503   1.199   4.628 -0.1417  0.7650  0.1514
18445SOL    HW157057   8.518   1.184   4.721 -0.5598  0.9154  0.2410
18445SOL    HW257058   8.457   1.282   4.623 -1.6847 -0.0556 -0.0622
18446SOL     OW57059   5.183   9.091   1.677  0.0529  0.4035 -0.2079
18446SOL    HW157060   5.264   9.052   1.646  0.1936  1.0735 -0.6880
18446SOL    HW257061   5.156   9.152   1.607  0.4809  2.0922  1.0378
18447SOL     OW57062   9.022   6.872   0.122 -0.0295 -0.2658  0.3448
18447SOL    HW157063   8.980   6.896   0.040 -0.2149 -1.6303  0.0169
18447SOL    HW257064   9.034   6.955   0.168 -1.0229  0.3887 -0.5320
18448SOL     OW57065   4.849   1.711   6.654  0.2259 -0.2174  0.0340
18448SOL    HW157066   4.937   1.692   6.688  0.1559  0.5087  0.6421
18448SOL    HW257067   4.865   1.754   6.570  0.4458 -0.4236 -0.0295
18449SOL     OW57068   0.392   4.928   0.567 -0.6431  0.3547 -0.6674
18449SOL    HW157069   0.343   4.918   0.648 -0.4033  1.4399 -0.3646
18449SOL    HW257070   0.376   4.848   0.518  0.2234 -0.8735  0.9812
18450SOL     OW57071   9.692   7.259   4.486 -0.3478  0.3888  0.1994
18450SOL    HW157072   9.762   7.194   4.478 -1.3444 -0.5959 -0.9328
18450SOL    HW257073   9.653   7.263   4.398 -1.1854  1.5251  0.5991
18451SOL     OW57074   8.701   2.939   3.082 -0.3655 -0.0500 -0.2743
18451SOL    HW157075   8.733   2.902   3.000 -0.5938  0.2197 -0.4835
18451SOL    HW257076   8.781   2.954   3.133 -0.2714 -0.8995 -0.1511
18452SOL     OW57077   1.908   0.525   8.765  0.3845 -0.1290  0.3793
18452SOL    HW157078   1.817   0.550   8.748 -0.2478 -2.0527  0.6838
18452SOL    HW257079   1.960   0.590   8.719 -1.1124  1.7421  1.1902
18453SOL     OW57080   4.835   8.377   7.580  0.2901  0.6779 -0.2236
18453SOL    HW157081   4.769   8.399   7.647  0.8443 -0.7416  0.8382
18453SOL    HW257082   4.792   8.398   7.497 -1.6899 -0.5985  0.4091
18454SOL     OW57083   4.086   1.124   5.704  0.1981 -0.0190  0.1410
18454SOL    HW157084   3.993   1.103   5.709  0.0125  0.3186 -1.4020
18454SOL    HW257085   4.112   1.097   5.616  0.6100  3.5168 -0.9717
18455SOL     OW57086   6.904   9.092   0.922 -0.2872  0.1034 -0.1437
18455SOL    HW157087   6.850   9.020   0.954  0.1256  0.3576  1.1770
18455SOL    HW257088   6.849   9.137   0.858 -1.1690 -0.3846  0.2547
18456SOL     OW57089   3.949   8.406   5.320  0.3849  1.1542 -0.2847
18456SOL    HW157090   3.961   8.319   5.357 -0.4907  1.1651  0.0466
18456SOL    HW257091   3.900   8.391   5.239 -1.3020  1.4442  0.6242
18457SOL     OW57092   6.766   7.255   0.175 -0.8325  0.3080  0.3273
18457SOL    HW157093   6.696   7.312   0.144 -0.9873  0.7225  1.4127
18457SOL    HW257094   6.802   7.300   0.251 -1.2764 -1.2558  1.5121
18458SOL     OW57095   7.836   1.062   5.218 -0.2060  0.2355  0.7396
18458SOL    HW157096   7.862   1.066   5.311  1.4184  0.9649  0.2867
18458SOL    HW257097   7.808   0.971   5.205 -0.4198  0.1105  1.9219
18459SOL     OW57098   5.433   9.357   0.253  0.2759  0.2096  0.2880
18459SOL    HW157099   5.471   9.324   0.172 -0.5179 -1.7395  0.6470
18459SOL    HW257100   5.437   9.452   0.245  1.3089  0.0548 -1.4944
18460SOL     OW57101   5.505   1.554   2.791 -0.5451  0.7424 -0.2258
18460SOL    HW157102   5.575   1.513   2.741  0.3751  0.7623  0.9793
18460SOL    HW257103   5.551   1.599   2.863 -1.8802 -0.7756  1.6833
18461SOL     OW57104   8.839   9.335   8.771 -0.2060 -0.1933 -0.4589
18461SOL    HW157105   8.918   9.301   8.814 -1.0085 -1.4218  0.1108
18461SOL    HW257106   8.871   9.405   8.715  1.0033  0.9815  1.5688
18462SOL     OW57107   6.060   8.992   4.761  0.4696  0.0062  0.4337
18462SOL    HW157108   6.046   9.086   4.751  2.0380  0.1444 -0.8083
18462SOL    HW257109   6.131   8.984   4.824  0.1454 -0.3689  0.7613
18463SOL     OW57110   4.062   3.424   1.241  0.3012  0.1864 -0.1978
18463SOL    HW157111   3.991   3.439   1.304 -0.2960  0.7025 -0.9660
18463SOL    HW257112   4.019   3.385   1.165  0.9964 -0.3309 -0.3369
18464SOL     OW57113   9.469   4.558   1.138 -1.0786  0.8415 -0.2114
18464SOL    HW157114   9.448   4.487   1.077 -0.9754  1.3538 -0.8570
18464SOL    HW257115   9.480   4.515   1.222 -0.0688 -0.0395 -0.7680
18465SOL     OW57116   3.479   5.018   5.712 -0.0850 -0.1038 -0.1254
18465SOL    HW157117   3.448   5.106   5.731  0.1278 -0.3633  1.6169
18465SOL    HW257118   3.401   4.971   5.684 -0.6519  0.1064  1.0194
18466SOL     OW57119   8.641   1.923   4.126  0.0280  0.5571 -0.2569
18466SOL    HW157120   8.571   1.944   4.187  0.7457  0.4254  0.6258
18466SOL    HW257121   8.722   1.942   4.174  0.6066  0.2289 -1.0787
18467SOL     OW57122   0.741   6.532   9.382 -0.7912 -0.1146  0.2850
18467SOL    HW157123   0.795   6.454   9.375 -1.4293 -0.4327 -1.7848
18467SOL    HW257124   0.673   6.509   9.445  0.4870 -0.2721  1.6649
18468SOL     OW57125   2.099   4.047   6.333  0.6588 -0.5249  0.2620
18468SOL    HW157126   2.107   4.042   6.428 -0.0443  0.8262  0.4085
18468SOL    HW257127   2.184   4.016   6.301  1.7732  1.1292  1.4004
18469SOL     OW57128   5.509   8.761   8.212  0.6868  0.0777 -0.1135
18469SOL    HW157129   5.465   8.682   8.242  0.4813  0.7713  1.5381
18469SOL    HW257130   5.496   8.762   8.118  1.0581 -2.0643 -0.2297
18470SOL     OW57131   6.421   4.161   0.770  0.4655  0.3745  0.2842
18470SOL    HW157132   6.347   4.184   0.826 -0.7051 -0.3662 -0.9142
18470SOL    HW257133   6.488   4.130   0.831  0.4346  2.5414  1.5397
18471SOL     OW57134   4.526   0.841   0.752  0.1033 -0.3760  0.2077
18471SOL    HW157135   4.622   0.839   0.744  0.1067 -0.0918  0.1785
18471SOL    HW257136   4.498   0.903   0.686  0.0207  0.8065  1.3101
18472SOL     OW57137   7.406   5.279   0.515 -0.1257 -0.0119 -0.6736
18472SOL    HW157138   7.350   5.335   0.569  2.1358 -0.3188  2.2386
18472SOL    HW257139   7.475   5.337   0.482  0.0928 -0.3767 -0.8664
18473SOL     OW57140   2.650   0.229   3.118  0.4735  0.3669 -0.0570
18473SOL    HW157141   2.740   0.214   3.146  0.4500  1.1235  0.4350
18473SOL    HW257142   2.640   0.173   3.041  1.3602  0.2650 -0.1109
18474SOL     OW57143   8.117   1.121   5.264 -0.5174  0.7606  0.0646
18474SOL    HW157144   8.077   1.134   5.351 -0.7450 -0.5149  0.1718
18474SOL    HW257145   8.043   1.126   5.204 -0.8824 -1.4640  0.2507
18475SOL     OW57146   7.194   4.609   7.893 -0.4900 -0.5223 -0.4910
18475SOL    HW157147   7.232   4.583   7.976  1.7486  1.9161 -0.6007
18475SOL    HW257148   7.182   4.528   7.844  2.5342 -1.6602  0.4830
18476SOL     OW57149   0.867   1.246   6.241  0.6079  0.3820 -0.3375
18476SOL    HW157150   0.785   1.203   6.218  0.9178 -0.4522  0.1121
18476SOL    HW257151   0.856   1.336   6.209 -0.5081  0.3051 -0.2108
18477SOL     OW57152   6.200   1.473   5.330  0.2740  0.3552 -0.0984
18477SOL    HW157153   6.287   1.469   5.369  0.1334  0.5688  0.2378
18477SOL    HW257154   6.151   1.403   5.372 -0.3885  1.6543  1.3798
18478SOL     OW57155   7.130   9.685   0.195  0.0841 -0.2407  0.1087
18478SOL    HW157156   7.116   9.590   0.196  0.4785 -0.3108  1.3895
18478SOL    HW257157   7.190   9.701   0.268  0.2497  0.9657 -0.2685
18479SOL     OW57158   0.916   3.772   8.210  0.1762 -0.0533 -0.3735
18479SOL    HW157159   0.955   3.690   8.178 -1.6703 -1.8530  1.6942
18479SOL    HW257160   0.913   3.762   8.305 -1.4035  1.8148 -0.1628
18480SOL     OW57161   2.413   3.084   6.332  0.2763  1.1949 -0.4920
18480SOL    HW157162   2.412   3.168   6.377  0.5617  0.8501  0.1911
18480SOL    HW257163   2.413   3.019   6.403  0.8391  0.6314 -0.9833
18481SOL     OW57164   4.748   5.959   5.297 -0.0534  0.2488 -0.7822
18481SOL    HW157165   4.842   5.949   5.312 -0.4693 -2.2297  0.7766
18481SOL    HW257166   4.737   5.949   5.203  1.2975  1.3676 -1.0841
18482SOL     OW57167   2.291   4.402   5.520  0.0845  0.1142  0.0529
18482SOL    HW157168   2.306   4.309   5.538 -0.7352 -0.4779 -1.9846
18482SOL    HW257169   2.363   4.447   5.563  1.6566 -1.6488 -0.5738
18483SOL     OW57170   7.629   3.743   0.460 -0.1600 -0.6040  0.3795
18483SOL    HW157171   7.618   3.754   0.366 -2.4099  1.4354  0.7773
18483SOL    HW257172   7.705   3.797   0.482  0.7642 -1.5859 -0.3029
18484SOL     OW57173   9.691   3.195   5.835  0.4042  0.0641 -0.0126
18484SOL    HW157174   9.699   3.270   5.894 -0.9441 -1.5336  2.3869
18484SOL    HW257175   9.635   3.227   5.764  0.5530  1.5658  0.5099
18485SOL     OW57176   1.580   8.277   4.649  0.6082  0.3571  0.7665
18485SOL    HW157177   1.580   8.323   4.733 -2.9079 -0.6616  1.4875
18485SOL    HW257178   1.499   8.226   4.649  0.7170 -0.1425 -3.0528
18486SOL     OW57179   1.293   2.862   2.565 -0.0405 -0.3135  0.1395
18486SOL    HW157180   1.263   2.924   2.632 -0.5726 -0.6605  0.2307
18486SOL    HW257181   1.213   2.820   2.534  0.4160 -2.0615  1.1667
18487SOL     OW57182   1.248   1.839   6.277 -0.0851  0.4096  0.0458
18487SOL    HW157183   1.216   1.844   6.187 -1.9614 -0.3073  0.6228
18487SOL    HW257184   1.261   1.746   6.293  2.6269  0.6533 -0.1944
18488SOL     OW57185   2.226   8.724   0.126 -0.7371  0.5945 -0.0953
18488SOL    HW157186   2.256   8.807   0.162  1.8441  1.4145 -3.5324
18488SOL    HW257187   2.203   8.744   0.035 -0.4165 -2.3352 -0.9409
18489SOL     OW57188   8.269   5.022   1.687 -0.4878 -0.3959  0.2523
18489SOL    HW157189   8.268   5.106   1.734 -0.3564 -0.7758  0.9502
18489SOL    HW257190   8.344   5.029   1.628  0.0529 -0.3523  0.9331
18490SOL     OW57191   0.635   5.344   6.150  0.0609  0.5522 -0.1845
18490SOL    HW157192   0.629   5.284   6.075 -0.7996 -2.0306  1.7895
18490SOL    HW257193   0.728   5.352   6.167  0.1989 -0.3331 -0.4621
18491SOL     OW57194   3.172   4.172   2.975  0.3209  0.5173  0.4127
18491SOL    HW157195   3.180   4.220   3.058 -1.9782 -0.2008  1.1322
18491SOL    HW257196   3.254   4.123   2.968  1.2354  1.8139  1.4255
18492SOL     OW57197   0.316   1.155   4.229 -0.4092 -0.0627 -0.0843
18492SOL    HW157198   0.360   1.197   4.303  0.4611 -1.1606  0.0464
18492SOL    HW257199   0.254   1.221   4.198  0.1580  0.9118  0.7730
18493SOL     OW57200   6.453   9.366   0.523  0.4716  0.2535  0.1473
18493SOL    HW157201   6.412   9.365   0.437  1.6910  1.6361 -0.4922
18493SOL    HW257202   6.447   9.275   0.554 -0.6675 -0.0966 -1.0442
18494SOL     OW57203   6.362   4.077   4.251  0.5534 -0.2546 -0.7201
18494SOL    HW157204   6.354   4.164   4.213  1.5124  0.6291  0.9943
18494SOL    HW257205   6.451   4.073   4.285  0.1175 -1.4017  0.3954
18495SOL     OW57206   6.865   8.657   8.003 -0.5634  0.0221 -0.1274
18495SOL    HW157207   6.799   8.720   8.033  0.7821  1.3437  0.1712
18495SOL    HW257208   6.906   8.624   8.083 -0.1720 -0.0198 -0.3383
18496SOL     OW57209   2.686   0.320   9.314  0.3852  0.7321 -0.2908
18496SOL    HW157210   2.689   0.225   9.320 -1.0276  0.4671 -2.5512
18496SOL    HW257211   2.768   0.349   9.353  0.5440 -1.3433  1.0915
18497SOL     OW57212   8.268   2.618   8.330  0.1163  0.3078 -0.6073
18497SOL    HW157213   8.309   2.557   8.268 -2.6558 -1.3683 -1.0114
18497SOL    HW257214   8.199   2.660   8.279 -0.5590  0.8443  0.6989
18498SOL     OW57215   6.031   2.372   6.768  0.0064 -0.1221 -0.1818
18498SOL    HW157216   6.120   2.346   6.745  0.9213  1.4993  1.2205
18498SOL    HW257217   5.994   2.296   6.811  0.5773 -0.9426 -1.0998
18499SOL     OW57218   9.153   0.598   6.202 -0.8738  0.6363  0.2532
18499SOL    HW157219   9.134   0.607   6.109  1.4343 -0.7265 -0.4433
18499SOL    HW257220   9.242   0.562   6.205 -1.2653 -0.3776  2.9544
18500SOL     OW57221   0.469   9.237   8.865  0.5117  0.1134  0.3092
18500SOL    HW157222   0.376   9.231   8.845  0.3455  0.0435  1.0842
18500SOL    HW257223   0.494   9.325   8.837 -0.1670  0.7467  1.6230
18501SOL     OW57224   5.311   6.522   0.653  0.2300  0.0500 -0.8227
18501SOL    HW157225   5.378   6.583   0.624  0.1260  0.7767  0.3819
18501SOL    HW257226   5.357   6.438   0.660  0.6236  0.2021 -1.4951
18502SOL     OW57227   0.079   3.046   4.107 -0.0800  0.1579  0.3851
18502SOL    HW157228   0.027   3.110   4.058  0.3280 -0.9440 -1.5992
18502SOL    HW257229   0.165   3.048   4.064 -0.1340 -1.8703  0.1144
18503SOL     OW57230   2.905   3.688   9.062  0.9155 -0.1497 -0.1844
18503SOL    HW157231   2.889   3.594   9.062  1.4609 -0.2456 -0.1965
18503SOL    HW257232   2.999   3.697   9.078  0.6781  0.4290  1.0399
18504SOL     OW57233   0.938   4.564   8.882  0.0735 -0.3465 -0.6358
18504SOL    HW157234   0.859   4.558   8.936  0.3061 -0.0475 -0.2569
18504SOL    HW257235   0.923   4.640   8.826  0.1926 -0.1443 -0.3952
18505SOL     OW57236   4.177   6.604   9.218  0.3570 -0.3803  0.4185
18505SOL    HW157237   4.172   6.660   9.296  0.2139 -0.2097  0.2888
18505SOL    HW257238   4.192   6.665   9.146 -0.7067 -0.4094  0.1548
18506SOL     OW57239   5.523   3.193   4.690 -0.4656 -0.0762  0.1052
18506SOL    HW157240   5.507   3.101   4.711 -0.3317 -0.4163 -1.1894
18506SOL    HW257241   5.512   3.239   4.773  1.7125 -1.5269  1.2720
18507SOL     OW57242   8.011   3.041   1.981 -0.0706 -0.1051 -0.5723
18507SOL    HW157243   8.075   3.072   2.045  0.0639 -0.5035 -0.5107
18507SOL    HW257244   7.937   3.102   1.989 -0.7336 -1.0542  1.1036
18508SOL     OW57245   2.922   7.132   3.595  0.0267 -0.2951 -0.0177
18508SOL    HW157246   2.988   7.198   3.572  0.9191 -1.0307  0.3571
18508SOL    HW257247   2.951   7.098   3.680  0.4894 -2.2667 -0.8975
18509SOL     OW57248   6.701   3.392   8.369  0.3403 -0.0690  0.0117
18509SOL    HW157249   6.753   3.348   8.302  0.2781 -2.7297  1.5743
18509SOL    HW257250   6.610   3.383   8.340  0.3310 -1.0048  0.3138
18510SOL     OW57251   3.095   6.041   5.173 -0.4727  0.3759  0.0041
18510SOL    HW157252   3.097   5.962   5.119  3.5014  0.1007  0.2528
18510SOL    HW257253   3.092   6.008   5.263  0.5749  0.4646  0.0877
18511SOL     OW57254   6.527   9.287   3.065 -0.0347 -0.2752  0.2671
18511SOL    HW157255   6.478   9.335   3.132 -0.9206  1.3981 -1.5045
18511SOL    HW257256   6.602   9.250   3.113 -1.5944 -0.7531  2.5323
18512SOL     OW57257   4.345   1.923   7.639 -0.3324 -0.5675  0.1827
18512SOL    HW157258   4.390   1.887   7.715 -0.5262  0.2429  0.6893
18512SOL    HW257259   4.325   2.013   7.663  0.6942  0.0910 -1.2842
18513SOL     OW57260   2.842   4.615   2.231 -0.3294 -0.3313 -0.0353
18513SOL    HW157261   2.853   4.559   2.154  0.9679  0.8086 -0.7232
18513SOL    HW257262   2.884   4.697   2.207 -1.4684  0.6668  1.2546
18514SOL     OW57263   5.331   8.357   0.185  0.1181  0.0779  0.7386
18514SOL    HW157264   5.342   8.268   0.152  1.4160  0.5220 -0.1201
18514SOL    HW257265   5.243   8.358   0.224 -0.5368 -1.1280 -0.6256
18515SOL     OW57266   0.235   0.241   5.431 -0.0786  0.2835  0.4003
18515SOL    HW157267   0.143   0.222   5.447  0.0937 -1.1533 -0.2006
18515SOL    HW257268   0.238   0.337   5.424 -1.4688  0.3757  0.6999
18516SOL     OW57269   7.558   3.968   4.147  0.8882 -0.4273 -0.0107
18516SOL    HW157270   7.592   3.963   4.057  0.4243  0.9657 -0.2901
18516SOL    HW257271   7.608   3.903   4.195  2.3793 -0.0016 -0.9083
18517SOL     OW57272   8.460   5.962   6.124 -0.6529 -0.2195 -0.5074
18517SOL    HW157273   8.527   6.021   6.090  0.5818 -0.1792  1.7758
18517SOL    HW257274   8.390   6.019   6.155 -0.2555 -0.0571  0.0924
18518SOL     OW57275   1.447   2.074   3.778  0.4046  0.4050 -0.1548
18518SOL    HW157276   1.535   2.036   3.786  1.0516  1.2975 -2.3684
18518SOL    HW257277   1.455   2.140   3.710 -1.7644  1.2948  0.3613
18519SOL     OW57278   4.115   1.725   8.678  0.1725  0.6176  0.0444
18519SOL    HW157279   4.114   1.644   8.729 -1.2421  0.5977  0.0082
18519SOL    HW257280   4.136   1.793   8.742  1.5920  0.2264  0.0349
18520SOL     OW57281   2.936   4.524   1.588  0.9387  0.1434 -0.9651
18520SOL    HW157282   2.902   4.435   1.593  2.1285 -0.3121 -0.3615
18520SOL    HW257283   2.859   4.580   1.587 -0.0846 -0.5631  4.7043
18521SOL     OW57284   3.259   6.781   3.955 -0.3780 -0.2016 -0.2445
18521SOL    HW157285   3.219   6.868   3.947  0.9037  0.3995 -0.3551
18521SOL    HW257286   3.353   6.798   3.958 -0.1491 -1.4042  1.9123
18522SOL     OW57287   2.775   8.154   2.986  0.1694  0.5614 -0.4878
18522SOL    HW157288   2.758   8.069   3.026  1.2192  1.0653  1.1677
18522SOL    HW257289   2.717   8.215   3.031  0.8970  1.0406 -0.1677
18523SOL     OW57290   4.945   8.005   2.868  0.0629  0.4797  0.4263
18523SOL    HW157291   4.878   8.020   2.935  0.2033 -0.4561  0.7918
18523SOL    HW257292   5.025   7.990   2.918 -0.1576 -2.0384  0.1921
18524SOL     OW57293   6.861   0.838   7.856 -0.2177  0.1263  0.6024
18524SOL    HW157294   6.800   0.777   7.899 -1.2373  0.4387 -0.3283
18524SOL    HW257295   6.865   0.913   7.915 -0.5796  0.0119  0.7800
18525SOL     OW57296   7.152   0.956   1.200  0.3693 -0.0179  0.3019
18525SOL    HW157297   7.109   0.959   1.285  0.3138  1.8546  0.2413
18525SOL    HW257298   7.246   0.960   1.221  0.3220  2.0729  0.2626
18526SOL     OW57299   9.378   2.856   6.264 -0.1011 -0.3440  0.1962
18526SOL    HW157300   9.336   2.773   6.286 -1.2868  0.8587  2.9444
18526SOL    HW257301   9.470   2.843   6.289 -0.4346 -0.6330  1.3522
18527SOL     OW57302   7.462   2.289   8.366 -0.3427  0.0622  0.1376
18527SOL    HW157303   7.467   2.253   8.454  1.0210  0.4394  0.2255
18527SOL    HW257304   7.383   2.249   8.329 -0.7796 -0.3099  1.4188
18528SOL     OW57305   7.084   5.896   8.978 -0.0735  0.8663  0.5186
18528SOL    HW157306   7.050   5.893   9.067  0.1097  0.2551  0.5763
18528SOL    HW257307   7.136   5.815   8.970 -0.2153  0.8399 -0.1842
18529SOL     OW57308   2.221   8.092   5.438  0.0607  0.1530 -0.3997
18529SOL    HW157309   2.264   8.042   5.508 -0.4214 -0.5605 -0.6005
18529SOL    HW257310   2.293   8.132   5.389  0.4150  0.3838  0.3011
18530SOL     OW57311   4.668   8.745   1.387  0.3467  0.1306 -0.4251
18530SOL    HW157312   4.734   8.704   1.443 -1.3660  1.0631  2.5533
18530SOL    HW257313   4.598   8.680   1.382  0.4865  0.0558 -1.5620
18531SOL     OW57314   0.125   7.626   2.868 -0.3624  0.3115 -0.1878
18531SOL    HW157315   0.173   7.559   2.819  2.2360  0.0340  2.4864
18531SOL    HW257316   0.081   7.578   2.938 -0.0676  1.1573  0.6017
18532SOL     OW57317   3.021   0.829   4.864 -0.1941  0.0511 -0.0199
18532SOL    HW157318   3.064   0.800   4.784  1.9162 -1.1804  1.4249
18532SOL    HW257319   2.934   0.857   4.837 -0.0704 -1.6599 -2.5141
18533SOL     OW57320   4.848   1.615   5.779 -0.2740 -0.0995 -0.1031
18533SOL    HW157321   4.841   1.526   5.745  0.8578 -0.9600  1.7648
18533SOL    HW257322   4.881   1.666   5.705  1.7192 -1.8069 -0.4876
18534SOL     OW57323   1.357   6.141   7.735 -0.3970  0.4059  0.0970
18534SOL    HW157324   1.366   6.150   7.641  1.3524 -1.5586 -0.0083
18534SOL    HW257325   1.274   6.095   7.747 -1.0388  1.3935 -0.3826
18535SOL     OW57326   4.783   3.864   7.170  0.0510 -0.5929  0.0985
18535SOL    HW157327   4.852   3.884   7.107 -0.4268  1.1027  0.0467
18535SOL    HW257328   4.711   3.830   7.117 -0.2643  0.6069 -0.2837
18536SOL     OW57329   2.484   7.520   0.523  0.2152  0.5826 -0.3102
18536SOL    HW157330   2.443   7.475   0.449  1.6990  0.0313 -0.8454
18536SOL    HW257331   2.497   7.451   0.588 -0.0962  0.8396  0.0225
18537SOL     OW57332   8.199   9.286   7.984 -0.5901  0.3951 -0.2672
18537SOL    HW157333   8.136   9.324   8.046  0.5914  0.6594  0.8339
18537SOL    HW257334   8.213   9.354   7.919 -0.0456  1.0851  0.5447
18538SOL     OW57335   1.741   5.403   8.609  0.3453 -0.1413  0.2930
18538SOL    HW157336   1.812   5.434   8.666 -0.7308  1.2655  0.9356
18538SOL    HW257337   1.785   5.378   8.528  1.5146  1.3697  0.4033
18539SOL     OW57338   6.141   7.328   9.523 -0.2806 -0.7576  0.0047
18539SOL    HW157339   6.227   7.363   9.498 -0.2544 -0.2738  0.7404
18539SOL    HW257340   6.148   7.309   9.616 -1.5139  1.0233  0.5219
18540SOL     OW57341   0.424   4.779   4.581  0.2299  0.0856 -0.4934
18540SOL    HW157342   0.376   4.721   4.640  0.8611 -1.8660 -1.7996
18540SOL    HW257343   0.440   4.726   4.503  1.4605  1.8158 -1.4874
18541SOL     OW57344   7.284   0.725   5.429 -0.4518 -0.6020  1.2391
18541SOL    HW157345   7.213   0.662   5.428  0.2200 -1.3680  0.1713
18541SOL    HW257346   7.363   0.673   5.416  0.4398  0.1063  3.3896
18542SOL     OW57347   0.356   3.295   3.051  0.3392 -0.0375 -0.1964
18542SOL    HW157348   0.419   3.334   3.111  0.4723 -1.3607  0.5493
18542SOL    HW257349   0.275   3.344   3.067  0.8057  0.7397 -0.1631
18543SOL     OW57350   4.444   7.360   8.312  0.5290  0.3095  0.2717
18543SOL    HW157351   4.360   7.336   8.273  0.7502 -1.1544  0.6328
18543SOL    HW257352   4.504   7.291   8.282  1.3942  0.8440  0.7516
18544SOL     OW57353   7.504   7.258   7.838 -0.8664 -0.1785  0.4231
18544SOL    HW157354   7.518   7.256   7.933  1.2163  1.7541  0.2435
18544SOL    HW257355   7.413   7.232   7.827 -1.7622  1.3645  3.1254
18545SOL     OW57356   4.737   2.200   3.772  0.1382  0.3594  0.0565
18545SOL    HW157357   4.663   2.203   3.711  0.1543  2.6735  0.0758
18545SOL    HW257358   4.728   2.115   3.815 -2.3070  0.4039 -0.1963
18546SOL     OW57359   1.562   8.720   9.029  0.1761  0.2599  0.1915
18546SOL    HW157360   1.538   8.670   9.107  0.9858 -0.2726  0.1191
18546SOL    HW257361   1.640   8.675   8.996 -0.4949  0.1105 -1.2609
18547SOL     OW57362   7.420   2.790   2.846  0.7427  0.1072  0.9086
18547SOL    HW157363   7.498   2.769   2.795  0.3863 -0.4520  0.5862
18547SOL    HW257364   7.407   2.884   2.833  0.2017 -0.1682 -0.6753
18548SOL     OW57365   9.615   1.504   9.494 -0.2735 -0.2450 -0.3342
18548SOL    HW157366   9.538   1.469   9.538  0.6246 -0.2670  1.2758
18548SOL    HW257367   9.650   1.570   9.554  1.8483 -1.3169 -0.3032
18549SOL     OW57368   4.392   5.684   0.453  0.2323  0.1047 -0.0344
18549SOL    HW157369   4.297   5.674   0.457  0.1935  0.5621  0.2828
18549SOL    HW257370   4.425   5.627   0.522  0.1082  0.9427  0.7257
18550SOL     OW57371   3.117   0.040   7.897 -0.1679 -0.5164 -0.0976
18550SOL    HW157372   3.095   0.131   7.915 -1.3568 -0.8330  0.1561
18550SOL    HW257373   3.209   0.032   7.920  0.3998  1.0061 -1.6648
18551SOL     OW57374   7.270   2.679   2.564  0.5805 -0.2613  0.4148
18551SOL    HW157375   7.228   2.759   2.532 -0.6804 -1.2296 -0.5022
18551SOL    HW257376   7.205   2.639   2.621  0.7663 -1.1413  0.0311
18552SOL     OW57377   8.897   2.759   6.115  0.2899  0.3176  0.3902
18552SOL    HW157378   8.974   2.814   6.102  1.0959 -0.6239  1.0447
18552SOL    HW257379   8.830   2.820   6.147  0.1001  1.5285 -2.0782
18553SOL     OW57380   7.304   1.008   2.254 -0.5047  0.0642 -0.2995
18553SOL    HW157381   7.352   1.030   2.174 -0.0319  1.0622  0.2377
18553SOL    HW257382   7.212   1.003   2.226 -0.3396  0.3596 -0.9128
18554SOL     OW57383   7.011   0.482   5.732 -0.0907  0.0464  0.0505
18554SOL    HW157384   6.945   0.412   5.732  1.0381 -1.0570 -0.5362
18554SOL    HW257385   7.022   0.504   5.824  0.0976 -1.1238  0.3253
18555SOL     OW57386   8.572   4.950   9.106  0.4633 -0.0331 -0.3233
18555SOL    HW157387   8.497   4.895   9.085 -0.9480  2.1674 -1.5152
18555SOL    HW257388   8.634   4.934   9.035  0.6313 -1.0059  0.0338
18556SOL     OW57389   3.820   1.654   0.518  0.4612  0.5051 -0.1274
18556SOL    HW157390   3.802   1.695   0.603  0.5598 -0.1746  0.2262
18556SOL    HW257391   3.822   1.560   0.537  0.0755  0.3225 -0.9580
18557SOL     OW57392   6.728   5.102   9.169 -0.3568  0.0702  0.2256
18557SOL    HW157393   6.650   5.126   9.120 -0.5134 -0.2744  0.3071
18557SOL    HW257394   6.734   5.167   9.239 -0.8258 -0.1712  0.4947
18558SOL     OW57395   4.332   5.072   2.794 -0.0706 -0.3888 -0.1473
18558SOL    HW157396   4.263   5.102   2.853 -1.3462 -0.9132 -1.3322
18558SOL    HW257397   4.396   5.143   2.795  0.1567 -0.5503  2.1581
18559SOL     OW57398   3.577   2.987   8.641  0.2220  0.3472  0.0180
18559SOL    HW157399   3.661   3.011   8.681 -0.1481 -0.1507  1.1161
18559SOL    HW257400   3.575   3.038   8.559  2.1678 -0.5887 -0.6798
18560SOL     OW57401   8.836   3.804   8.355 -0.6759 -0.7920  0.0836
18560SOL    HW157402   8.752   3.850   8.349 -0.0028  0.5007  0.0763
18560SOL    HW257403   8.884   3.834   8.277  0.5119  0.0285  1.1052
18561SOL     OW57404   1.989   4.338   0.884  0.6040  0.2626  0.3324
18561SOL    HW157405   1.975   4.394   0.807  1.3400  1.0415  0.7497
18561SOL    HW257406   2.023   4.398   0.951 -1.1310 -0.1486  1.6674
18562SOL     OW57407   6.618   1.483   0.511  0.1371 -0.1340  0.0861
18562SOL    HW157408   6.535   1.479   0.462  0.4261 -1.9935 -0.2862
18562SOL    HW257409   6.615   1.408   0.569  1.5025 -0.1075  0.2032
18563SOL     OW57410   5.056   8.381   6.365 -0.2806 -0.3806  0.3837
18563SOL    HW157411   4.964   8.398   6.347 -0.2741 -0.3408  0.3877
18563SOL    HW257412   5.060   8.366   6.459 -0.3010 -0.4968  0.3673
18564SOL     OW57413   0.555   1.720   1.364  0.2012 -0.2057  0.1244
18564SOL    HW157414   0.535   1.813   1.349  0.5495  0.1100  1.4646
18564SOL    HW257415   0.629   1.702   1.306  0.3059  0.4257  0.0546
18565SOL     OW57416   2.489   5.055   4.611  0.1951  0.3958  0.3152
18565SOL    HW157417   2.543   5.046   4.532 -1.0211 -2.6355 -0.3119
18565SOL    HW257418   2.507   4.975   4.661 -2.7407 -0.1583  0.6367
18566SOL     OW57419   8.443   6.770   7.148 -0.1978  0.0768 -0.2769
18566SOL    HW157420   8.364   6.810   7.111 -0.5254  1.0754  1.4024
18566SOL    HW257421   8.411   6.719   7.223  0.3766 -2.3695 -1.6000
18567SOL     OW57422   8.384   7.844   0.591  0.2385 -0.0102 -0.0801
18567SOL    HW157423   8.413   7.899   0.664  2.3090  2.0646 -2.3139
18567SOL    HW257424   8.456   7.782   0.578 -0.0752 -0.2959 -0.4643
18568SOL     OW57425   5.703   4.718   5.402 -0.4904  0.1988  0.5899
18568SOL    HW157426   5.751   4.799   5.380  1.1511 -0.9689 -0.3539
18568SOL    HW257427   5.630   4.716   5.341 -0.5133  0.9457  0.5835
18569SOL     OW57428   7.044   5.049   7.176  0.6528  0.2741 -0.2263
18569SOL    HW157429   7.139   5.061   7.185  0.6838  0.9785 -1.3006
18569SOL    HW257430   7.006   5.126   7.219  0.5729  0.1828 -0.1320
18570SOL     OW57431   0.102   5.858   6.602  0.3815 -0.6697 -0.4838
18570SOL    HW157432   0.081   5.916   6.675  0.5502 -0.0121 -0.9440
18570SOL    HW257433   0.163   5.794   6.639 -1.6647 -2.0682  0.6485
18571SOL     OW57434   2.139   2.949   9.501  0.4600  0.0423  0.0819
18571SOL    HW157435   2.156   2.855   9.508  2.4468  0.3239 -0.2766
18571SOL    HW257436   2.146   2.982   9.591 -1.8101 -0.3260  0.4568
18572SOL     OW57437   7.530   2.395   3.710  0.2256 -0.2934  0.1645
18572SOL    HW157438   7.511   2.377   3.618  0.5864  0.1709 -0.0113
18572SOL    HW257439   7.602   2.336   3.731  1.3462  0.8212 -0.3830
18573SOL     OW57440   5.644   5.714   0.780 -0.1836 -0.0237 -0.1596
18573SOL    HW157441   5.706   5.757   0.720 -0.0787  1.5998  1.0352
18573SOL    HW257442   5.563   5.706   0.729  0.1121  0.6834 -0.7647
18574SOL     OW57443   2.289   8.360   2.002  0.8612  0.0348  0.0283
18574SOL    HW157444   2.360   8.372   2.064 -0.1023  0.5701  1.0838
18574SOL    HW257445   2.321   8.297   1.939  1.5336 -1.2830  1.6358
18575SOL     OW57446   0.873   5.913   1.840 -0.1427 -0.3483  0.4673
18575SOL    HW157447   0.894   5.929   1.932  0.3801 -0.0892  0.3069
18575SOL    HW257448   0.859   6.000   1.803 -1.6948 -0.5144  0.6012
18576SOL     OW57449   3.974   6.039   8.862 -0.2550 -0.1679 -0.3991
18576SOL    HW157450   3.984   6.096   8.785  0.0231  1.3365  0.6943
18576SOL    HW257451   3.942   6.098   8.930 -0.6024 -1.4945  0.6134
18577SOL     OW57452   2.592   1.253   6.982  0.1548  0.2190 -0.1361
18577SOL    HW157453   2.670   1.218   6.938  1.2610  1.5328  0.6617
18577SOL    HW257454   2.527   1.264   6.913  0.8989 -0.3466 -0.9362
18578SOL     OW57455   6.968   4.958   2.786 -0.4860 -0.2573 -0.4483
18578SOL    HW157456   6.991   4.976   2.694  0.4361 -0.0992 -0.1990
18578SOL    HW257457   6.879   4.991   2.796 -0.7666 -0.6777 -1.4043
18579SOL     OW57458   7.910   7.866   8.907 -0.2177 -0.1892  0.4057
18579SOL    HW157459   7.822   7.831   8.922  0.1278 -1.3124 -0.0859
18579SOL    HW257460   7.964   7.826   8.975 -0.3501  1.7546  1.7488
18580SOL     OW57461   8.077   0.584   4.160  0.1024 -0.0310 -0.2635
18580SOL    HW157462   8.034   0.669   4.149 -1.0753 -0.5396  0.2795
18580SOL    HW257463   8.113   0.587   4.249  0.5099  0.0881 -0.4295
18581SOL     OW57464   4.687   9.333   1.456  0.4081 -0.0316  0.0621
18581SOL    HW157465   4.623   9.276   1.500 -0.1670 -0.2523 -1.0369
18581SOL    HW257466   4.742   9.365   1.527  1.0259 -2.2972  0.6866
18582SOL     OW57467   6.812   8.175   4.016 -0.1639  0.3512 -0.0843
18582SOL    HW157468   6.774   8.246   3.964 -0.1714  0.2634 -0.2011
18582SOL    HW257469   6.776   8.187   4.103 -1.7698 -0.7177 -0.5768
18583SOL     OW57470   3.295   3.590   8.226 -0.0144 -0.0466  0.7570
18583SOL    HW157471   3.283   3.569   8.133  1.1970  1.7538  0.1286
18583SOL    HW257472   3.255   3.676   8.236 -0.3161 -0.3081  1.9885
18584SOL     OW57473   7.970   9.123   1.739 -0.1847 -0.2928 -0.3410
18584SOL    HW157474   8.045   9.068   1.718 -1.4440 -2.0864 -0.3025
18584SOL    HW257475   7.958   9.114   1.833 -1.4469 -1.4124 -0.5729
18585SOL     OW57476   5.825   7.206   5.043  0.1037 -0.5206  0.2583
18585SOL    HW157477   5.833   7.298   5.072  0.7455 -0.5678  0.2290
18585SOL    HW257478   5.895   7.160   5.089 -0.1998 -1.0003  0.2511
18586SOL     OW57479   6.423   2.858   7.791  0.2218  0.2911  0.3674
18586SOL    HW157480   6.447   2.901   7.873  0.3661  2.2406 -0.6325
18586SOL    HW257481   6.356   2.916   7.753 -0.0255 -0.7162 -0.7731
18587SOL     OW57482   3.543   6.135   5.532  0.6273  0.2607  0.0536
18587SOL    HW157483   3.624   6.107   5.574  0.1457 -1.1673  0.0929
18587SOL    HW257484   3.568   6.154   5.441  1.1945  0.8592  0.3361
18588SOL     OW57485   6.930   1.764   1.523 -0.5061 -0.6049  0.0477
18588SOL    HW157486   6.835   1.771   1.527 -0.6604  0.6452 -3.0607
18588SOL    HW257487   6.961   1.853   1.539  0.0469 -0.7282 -0.3150
18589SOL     OW57488   5.852   1.555   7.179 -0.6909 -0.0283  0.0614
18589SOL    HW157489   5.868   1.465   7.149  1.4017 -0.3480  1.8902
18589SOL    HW257490   5.757   1.566   7.173 -0.8818 -1.9301 -1.3156
18590SOL     OW57491   8.960   0.958   4.291 -0.4960  0.1708  0.0874
18590SOL    HW157492   8.958   0.871   4.332 -0.2094  0.9236  1.7952
18590SOL    HW257493   8.878   0.999   4.319  0.8860  1.6679  2.2734
18591SOL     OW57494   5.375   0.400   7.716 -0.0426  0.6023 -0.4639
18591SOL    HW157495   5.360   0.337   7.646 -1.6777  1.2978 -0.7832
18591SOL    HW257496   5.336   0.482   7.683  0.2280  1.2436  0.7608
18592SOL     OW57497   4.177   6.402   0.380 -0.3233  0.5913 -0.3545
18592SOL    HW157498   4.097   6.452   0.365 -1.0518  0.2784  2.0228
18592SOL    HW257499   4.219   6.446   0.454  1.4928  0.4719 -1.2648
18593SOL     OW57500   2.690   3.526   7.461  0.4598 -0.2582 -0.1094
18593SOL    HW157501   2.644   3.588   7.403  2.7698  1.9203  0.1955
18593SOL    HW257502   2.669   3.556   7.549  1.6433  0.2090  0.0386
18594SOL     OW57503   0.055   4.173   4.142  0.0205  0.2441  0.6147
18594SOL    HW157504  -0.014   4.225   4.100  0.3540 -1.1184 -1.7751
18594SOL    HW257505   0.009   4.099   4.182 -0.0662  0.3911  0.7952
18595SOL     OW57506   4.366   0.829   9.044 -0.2794 -0.0733  0.3171
18595SOL    HW157507   4.303   0.877   8.992  0.0344 -1.3652 -1.3631
18595SOL    HW257508   4.320   0.749   9.069 -0.2278  0.2684  1.5628
18596SOL     OW57509   1.946   0.443   9.561  0.2123 -0.8556  0.7524
18596SOL    HW157510   1.905   0.387   9.496  0.6665 -0.9114  0.5062
18596SOL    HW257511   1.918   0.532   9.538  1.8435 -0.6535 -0.6811
18597SOL     OW57512   3.852   1.720   6.036  0.3212  0.2891 -0.2788
18597SOL    HW157513   3.938   1.683   6.014 -0.1372  0.2828 -2.1960
18597SOL    HW257514   3.854   1.809   6.003 -0.3083  0.3912 -0.0625
18598SOL     OW57515   9.093   0.259   6.859  0.3413  0.3033 -0.2634
18598SOL    HW157516   9.103   0.351   6.833  0.5357  0.3038 -0.1863
18598SOL    HW257517   9.011   0.258   6.910  0.2861  0.4142 -0.3479
18599SOL     OW57518   1.220   1.461   6.798 -0.1488  0.5455  0.3437
18599SOL    HW157519   1.312   1.452   6.822 -0.0798  0.0805 -0.0736
18599SOL    HW257520   1.219   1.535   6.737 -0.3118  1.6632  1.6520
18600SOL     OW57521   8.740   1.163   7.524 -0.2702 -0.2315  0.2527
18600SOL    HW157522   8.753   1.083   7.575  1.8820 -1.2443 -1.6540
18600SOL    HW257523   8.805   1.224   7.558  0.2810 -0.4607 -0.3521
18601SOL     OW57524   8.630   6.055   3.464  0.3811 -0.4970  0.4271
18601SOL    HW157525   8.539   6.081   3.449  0.9056  0.1283 -2.3139
18601SOL    HW257526   8.632   5.962   3.440  0.7742 -0.0544 -1.4105
18602SOL     OW57527   0.568   0.844   6.800 -0.0856 -0.2769  0.1556
18602SOL    HW157528   0.580   0.814   6.891 -0.6581  1.3960  0.8061
18602SOL    HW257529   0.657   0.857   6.768  0.1403 -1.3596  0.2774
18603SOL     OW57530   5.664   8.895   5.929 -0.0109 -0.3593  0.1412
18603SOL    HW157531   5.642   8.811   5.967 -0.9143 -1.3100 -2.2907
18603SOL    HW257532   5.750   8.917   5.966  0.0752 -2.1549  1.0889
18604SOL     OW57533   8.682   6.717   2.420  0.1517 -0.5189  0.3454
18604SOL    HW157534   8.761   6.699   2.471  0.1158  0.3939  0.7542
18604SOL    HW257535   8.614   6.731   2.486 -0.5991 -2.2627 -0.0124
18605SOL     OW57536   6.078   5.052   3.618  0.0978  0.4281  0.1388
18605SOL    HW157537   6.027   4.976   3.589 -1.8574  1.1009  1.5899
18605SOL    HW257538   6.097   5.100   3.537 -0.8228 -0.3173 -0.5471
18606SOL     OW57539   5.965   1.347   0.950 -0.1631  0.1405 -0.2152
18606SOL    HW157540   5.981   1.255   0.929  2.0258  0.8910 -2.3546
18606SOL    HW257541   5.914   1.380   0.877  0.2786  0.9446 -0.1693
18607SOL     OW57542   5.672   8.202   8.490  0.1045  0.1410 -0.3649
18607SOL    HW157543   5.666   8.132   8.425  2.1157  0.0843 -0.5518
18607SOL    HW257544   5.738   8.172   8.552 -1.0507  0.6566  1.1652
18608SOL     OW57545   2.931   3.398   3.013  0.1529 -0.2448  0.2288
18608SOL    HW157546   2.844   3.418   2.979  0.5203  1.5128  0.1927
18608SOL    HW257547   2.919   3.394   3.108  0.0208 -0.0125  0.2241
18609SOL     OW57548   3.721   6.430   0.799  0.4719  0.6403  0.0646
18609SOL    HW157549   3.746   6.501   0.859 -1.3428 -0.4863  2.2914
18609SOL    HW257550   3.692   6.359   0.856  0.4453 -1.2511 -2.1451
18610SOL     OW57551   0.580   8.007   1.368  0.0350 -0.6060  0.1779
18610SOL    HW157552   0.489   8.018   1.397  0.3698  1.0596  0.7070
18610SOL    HW257553   0.583   8.052   1.284  0.7680  0.9375  0.9968
18611SOL     OW57554   3.891   7.398   7.355  0.5682  0.2149 -0.1042
18611SOL    HW157555   3.955   7.386   7.284  0.6587  0.6461 -0.0958
18611SOL    HW257556   3.824   7.455   7.318 -0.0471 -0.5787 -0.2545
18612SOL     OW57557   2.631   4.664   9.390 -0.2670  0.4485 -0.0826
18612SOL    HW157558   2.573   4.657   9.465  0.2299  0.4468  0.3046
18612SOL    HW257559   2.709   4.614   9.414 -0.5083 -0.3916 -0.9957
18613SOL     OW57560   3.827   7.551   2.749 -0.2037 -0.3303  0.0057
18613SOL    HW157561   3.757   7.522   2.806  0.2702  0.3392  0.9504
18613SOL    HW257562   3.895   7.484   2.756  0.5500  0.5479  1.5540
18614SOL     OW57563   5.981   7.023   1.333  0.3033  0.6201 -0.1302
18614SOL    HW157564   6.047   6.955   1.320 -0.2231 -0.2292  1.3890
18614SOL    HW257565   6.024   7.104   1.305  1.4607 -0.1146 -0.5729
18615SOL     OW57566   0.861   3.787   3.810  0.4590 -0.2104  0.3363
18615SOL    HW157567   0.872   3.724   3.738  1.0134 -0.1106  0.3326
18615SOL    HW257568   0.811   3.858   3.771 -1.1485 -1.1334  0.6274
18616SOL     OW57569   7.000   7.245   2.743  0.1627  0.1189 -0.0468
18616SOL    HW157570   7.080   7.249   2.690  0.5566 -0.7003  0.4704
18616SOL    HW257571   7.025   7.286   2.826 -0.1548  0.4651 -0.1200
18617SOL     OW57572   5.463   8.887   4.545  0.0258 -0.7124  0.4793
18617SOL    HW157573   5.518   8.816   4.578  1.0856  0.3321  1.0796
18617SOL    HW257574   5.380   8.877   4.591 -0.1370 -2.0444 -0.0813
18618SOL     OW57575   5.093   7.456   7.999  0.1201  0.7585 -0.2130
18618SOL    HW157576   5.175   7.503   7.978  0.7322 -0.4871 -0.7036
18618SOL    HW257577   5.120   7.387   8.059 -0.8130  1.1396  0.6795
18619SOL     OW57578   2.656   3.023   7.587 -0.2462 -0.3820 -0.3407
18619SOL    HW157579   2.736   3.061   7.550 -0.8178  0.2756 -0.9177
18619SOL    HW257580   2.647   2.938   7.542  0.8296 -1.0720  0.6860
18620SOL     OW57581   4.969   6.210   7.571 -0.3077 -0.2425 -0.2068
18620SOL    HW157582   4.993   6.243   7.657  1.0059  0.4636 -0.8159
18620SOL    HW257583   4.955   6.116   7.584  1.9049 -0.5245  0.3871
18621SOL     OW57584   5.956   9.028   3.841  0.4877  0.0942 -0.1299
18621SOL    HW157585   6.034   8.973   3.850  0.6296  0.1260 -1.0809
18621SOL    HW257586   5.984   9.100   3.784  0.7309  1.9861  2.2209
18622SOL     OW57587   0.953   5.797   0.347 -0.0963 -0.1185 -0.0468
18622SOL    HW157588   0.943   5.724   0.408 -0.3450 -0.1515 -0.1282
18622SOL    HW257589   1.046   5.795   0.321  0.2504  0.4932  1.0812
18623SOL     OW57590   4.683   8.107   9.104 -0.0542  0.3366 -0.3588
18623SOL    HW157591   4.663   8.147   9.019  2.3945  0.0899 -1.1236
18623SOL    HW257592   4.665   8.014   9.091 -1.2834  0.4992 -0.0264
18624SOL     OW57593   7.793   3.661   7.268  0.3053  0.2573  0.3551
18624SOL    HW157594   7.801   3.748   7.305  0.5828  0.2394  0.3377
18624SOL    HW257595   7.699   3.645   7.264  0.1828  1.1479 -1.0093
18625SOL     OW57596   2.461   9.301   7.887  0.0042 -0.2285  0.0316
18625SOL    HW157597   2.422   9.303   7.974 -1.7428  0.6643 -0.7103
18625SOL    HW257598   2.387   9.283   7.828  0.7594  1.1310 -1.4136
18626SOL     OW57599   9.332   1.494   9.561  0.7297  0.0531  0.6391
18626SOL    HW157600   9.353   1.403   9.579 -2.0492 -0.3420  2.4445
18626SOL    HW257601   9.305   1.495   9.469  1.4560 -0.7849  0.4061
18627SOL     OW57602   8.736   7.249   1.527  0.1495 -0.1954 -0.3277
18627SOL    HW157603   8.726   7.249   1.623  0.5264  0.1372 -0.2859
18627SOL    HW257604   8.725   7.341   1.502 -1.2449 -0.4458 -0.7517
18628SOL     OW57605   6.383   9.577   2.667  0.4719 -0.5627  0.4185
18628SOL    HW157606   6.352   9.511   2.729 -0.5901  0.4660  1.0163
18628SOL    HW257607   6.436   9.637   2.720 -1.8737  1.3218  0.7852
18629SOL     OW57608   3.537   3.498   8.908  0.0165 -0.0873 -0.2434
18629SOL    HW157609   3.569   3.411   8.928  0.1188 -0.9704 -3.6594
18629SOL    HW257610   3.615   3.551   8.895  0.0224 -0.3251 -1.2457
18630SOL     OW57611   3.036   7.913   1.361 -0.1687 -0.2890  0.3514
18630SOL    HW157612   3.105   7.851   1.384 -0.5696 -1.2139 -0.7727
18630SOL    HW257613   2.955   7.871   1.390 -0.5193 -0.7019 -1.1193
18631SOL     OW57614   9.697   2.952   6.827 -0.7297 -0.4931 -0.6909
18631SOL    HW157615   9.741   3.028   6.787 -1.7718  0.7449  0.4415
18631SOL    HW257616   9.628   2.929   6.765  0.0855 -1.0641 -1.4224
18632SOL     OW57617   6.938   1.863   0.109 -0.2707 -0.3143  0.2384
18632SOL    HW157618   6.875   1.926   0.074 -0.9404 -0.5850  0.9246
18632SOL    HW257619   6.923   1.783   0.059  0.5814  0.0540 -0.6347
18633SOL     OW57620   8.808   5.949   5.649 -0.8112  0.1663  0.3553
18633SOL    HW157621   8.819   6.016   5.582 -1.9977 -0.5306 -0.5987
18633SOL    HW257622   8.737   5.894   5.615 -0.9915 -0.5932  1.8883
18634SOL     OW57623   5.975   2.260   8.178 -0.4868 -0.3575  0.5642
18634SOL    HW157624   5.928   2.344   8.179 -0.1002 -0.1222 -0.3098
18634SOL    HW257625   6.022   2.260   8.095  1.6389 -0.2687  1.7172
18635SOL     OW57626   3.061   5.562   5.946  0.2780  0.0969  0.1995
18635SOL    HW157627   3.019   5.636   5.902 -0.3095 -0.8934 -0.9778
18635SOL    HW257628   3.052   5.489   5.884  0.9512 -0.9330  1.2659
18636SOL     OW57629   1.278   9.241   2.348 -0.0302  0.2810 -0.2235
18636SOL    HW157630   1.319   9.323   2.319  1.8003 -0.7754 -0.8410
18636SOL    HW257631   1.325   9.218   2.428 -1.3817  0.4305  0.6443
18637SOL     OW57632   8.273   0.856   4.191  0.1839 -0.4339  0.0536
18637SOL    HW157633   8.286   0.912   4.114  1.2172 -1.7820 -0.8002
18637SOL    HW257634   8.214   0.906   4.247  0.7832  1.3519 -0.8249
18638SOL     OW57635   0.979   0.488   7.814 -0.3936 -0.0115 -0.1777
18638SOL    HW157636   0.944   0.556   7.871 -0.8705  0.3758 -0.9118
18638SOL    HW257637   0.917   0.484   7.741  0.7146  0.1834 -1.1507
18639SOL     OW57638   1.225   5.412   4.356  0.0299  0.2868 -0.3242
18639SOL    HW157639   1.293   5.358   4.316  0.5841 -0.6448  1.7314
18639SOL    HW257640   1.272   5.469   4.417 -0.8508  1.1303 -0.3932
18640SOL     OW57641   5.001   1.215   2.334 -0.3578 -0.0978 -0.1129
18640SOL    HW157642   5.051   1.133   2.335  1.1418  0.7853  1.2585
18640SOL    HW257643   4.940   1.205   2.261  1.7551 -1.2642 -1.8260
18641SOL     OW57644   6.861   8.484   5.515 -0.1247 -0.4181 -0.1956
18641SOL    HW157645   6.901   8.571   5.521 -0.1043 -0.4486  0.1271
18641SOL    HW257646   6.858   8.452   5.605 -1.6525 -0.0641 -0.0834
18642SOL     OW57647   5.367   2.142   2.879  0.2652 -0.1599 -0.2669
18642SOL    HW157648   5.460   2.156   2.896  0.4128  0.8566 -1.7169
18642SOL    HW257649   5.356   2.163   2.786 -1.3031 -0.8722 -0.2811
18643SOL     OW57650   0.674   6.948   7.961  0.2168  0.0828 -0.5912
18643SOL    HW157651   0.591   6.964   8.007  0.9266 -0.7547  1.1094
18643SOL    HW257652   0.678   7.015   7.894 -1.2696  0.9137  0.0912
18644SOL     OW57653   0.139   6.604   1.816 -0.0900  0.3043  0.0238
18644SOL    HW157654   0.217   6.581   1.767 -0.6918  0.4439 -1.0211
18644SOL    HW257655   0.082   6.528   1.809 -1.4610  1.4338 -2.1709
18645SOL     OW57656   9.259   3.611   4.161 -0.3153  0.0754 -0.9689
18645SOL    HW157657   9.352   3.586   4.160 -0.5988 -1.1038  0.0462
18645SOL    HW257658   9.221   3.564   4.087  0.0773  1.4165 -2.0610
18646SOL     OW57659   2.041   1.484   4.926 -0.2717  0.6475  0.2190
18646SOL    HW157660   2.106   1.419   4.953 -0.2384  0.6377  0.1186
18646SOL    HW257661   2.078   1.568   4.951  0.2257  0.7191 -0.6962
18647SOL     OW57662   1.996   5.483   4.139  0.5519 -0.0499 -0.4078
18647SOL    HW157663   2.045   5.541   4.197  0.8197 -0.4975 -0.1766
18647SOL    HW257664   1.915   5.530   4.120  0.2570 -0.0758  0.6945
18648SOL     OW57665   5.177   5.849   0.661  0.4313  0.8844 -0.5586
18648SOL    HW157666   5.105   5.885   0.714  0.4813  0.5580 -0.2610
18648SOL    HW257667   5.212   5.925   0.615  1.5298  1.5360  1.2252
18649SOL     OW57668   5.142   7.122   2.166 -0.2735 -0.2348  0.6546
18649SOL    HW157669   5.103   7.206   2.191  0.2899 -0.4606  2.3805
18649SOL    HW257670   5.234   7.130   2.190 -0.3382 -1.5635  1.4153
18650SOL     OW57671   5.710   8.999   5.356  0.2681 -0.3530  0.7011
18650SOL    HW157672   5.691   8.946   5.433 -0.6032 -0.0283  0.7202
18650SOL    HW257673   5.792   9.042   5.376  0.2667 -0.6061  1.2700
18651SOL     OW57674   7.625   6.379   1.148  0.1860  0.5613  0.2271
18651SOL    HW157675   7.659   6.341   1.067  0.7258  0.6698  0.3975
18651SOL    HW257676   7.606   6.470   1.127  2.5563  1.2488  0.8160
18652SOL     OW57677   2.644   9.252   6.212 -0.4041 -0.3045  0.2721
18652SOL    HW157678   2.641   9.277   6.304  1.1098  0.5960  0.1100
18652SOL    HW257679   2.636   9.335   6.165  0.5662 -0.5560 -0.3614
18653SOL     OW57680   1.311   2.077   0.311 -0.3362 -0.3652 -0.4847
18653SOL    HW157681   1.401   2.044   0.316  0.1999  1.0219 -0.6374
18653SOL    HW257682   1.304   2.139   0.382 -1.1109 -0.2805 -0.6240
18654SOL     OW57683   9.375   1.233   9.586 -0.4783 -0.0009 -0.0226
18654SOL    HW157684   9.373   1.165   9.519  1.5213 -0.2343  0.0905
18654SOL    HW257685   9.391   1.185   9.668  0.2889  0.5365  0.1509
18655SOL     OW57686   7.722   1.399   9.106  0.3129  0.2160 -0.1933
18655SOL    HW157687   7.653   1.464   9.118 -1.7304 -2.1608  2.6030
18655SOL    HW257688   7.794   1.430   9.160  0.7574  1.7237 -1.5592
18656SOL     OW57689   3.128   1.735   0.991 -0.0419  0.3507  0.2302
18656SOL    HW157690   3.033   1.740   0.979  0.0570 -0.1211 -0.9118
18656SOL    HW257691   3.144   1.646   1.022 -0.0483  0.7139  1.2869
18657SOL     OW57692   3.665   7.208   8.546  0.2881  0.2690 -0.5630
18657SOL    HW157693   3.649   7.183   8.637  2.5845 -0.1334 -0.2240
18657SOL    HW257694   3.579   7.233   8.513 -0.5439  0.7654  1.8093
18658SOL     OW57695   7.440   0.046   7.982 -0.2511 -0.2467  0.3169
18658SOL    HW157696   7.397   0.129   7.959  0.4643 -0.0889 -0.5348
18658SOL    HW257697   7.496   0.027   7.906 -0.5859 -1.6410  0.3979
18659SOL     OW57698   2.995   0.094   8.235  0.1676  0.4542 -0.0289
18659SOL    HW157699   3.033   0.174   8.199  1.7949 -0.4412 -0.4030
18659SOL    HW257700   2.937   0.062   8.165  2.0328 -0.3952 -1.2669
18660SOL     OW57701   1.096   2.274   2.933 -0.0320  0.0061  0.3930
18660SOL    HW157702   1.065   2.365   2.926 -0.2559 -0.0889  0.1558
18660SOL    HW257703   1.021   2.221   2.908 -0.3355 -0.2923  1.8722
18661SOL     OW57704   3.008   6.703   4.148  0.0230 -0.1182  0.6601
18661SOL    HW157705   3.030   6.617   4.185  0.6075 -0.7782 -1.0959
18661SOL    HW257706   3.093   6.739   4.121 -0.0935  1.4875  2.2557
18662SOL     OW57707   4.054   4.217   8.623  0.1160 -0.7773 -0.1953
18662SOL    HW157708   3.989   4.150   8.603  1.2449 -2.1941  0.6767
18662SOL    HW257709   4.006   4.300   8.618 -2.0548 -1.8174  1.6092
18663SOL     OW57710   7.379   8.723   4.547 -0.7887  0.0969 -0.2280
18663SOL    HW157711   7.301   8.674   4.574 -1.6898  1.4258 -0.3046
18663SOL    HW257712   7.352   8.769   4.468  0.3358 -0.0343 -0.6994
18664SOL     OW57713   8.212   5.565   2.289  0.3450 -0.5252 -0.2232
18664SOL    HW157714   8.287   5.571   2.348  0.5850  0.8799 -0.6269
18664SOL    HW257715   8.140   5.534   2.344  0.5632  0.7513  0.8339
18665SOL     OW57716   6.644   1.919   3.520 -0.4455  0.1011 -0.1275
18665SOL    HW157717   6.581   1.955   3.582 -1.8247 -0.3291 -1.2299
18665SOL    HW257718   6.596   1.914   3.438  1.6477  1.6412 -1.5323
18666SOL     OW57719   6.343   8.985   2.390  0.6439  0.3195  0.0582
18666SOL    HW157720   6.314   9.071   2.421  1.1334  0.3393  0.4700
18666SOL    HW257721   6.366   8.999   2.298  0.1729  0.4961 -0.0350
18667SOL     OW57722   4.721   1.413   7.112 -0.8844  0.3903  0.2963
18667SOL    HW157723   4.644   1.359   7.095 -1.1828  0.4332  1.4015
18667SOL    HW257724   4.795   1.358   7.088 -1.2400  0.1921 -0.3711
18668SOL     OW57725   4.797   1.161   5.940 -0.5354 -0.0410 -0.0541
18668SOL    HW157726   4.773   1.087   5.885  0.1862 -0.7606  0.5641
18668SOL    HW257727   4.881   1.191   5.906 -1.3067  1.1989 -0.9672
18669SOL     OW57728   5.288   7.424   0.157  0.0381  0.4278  0.2701
18669SOL    HW157729   5.382   7.417   0.141  0.5186  0.9477  2.5135
18669SOL    HW257730   5.274   7.516   0.178 -0.9919  0.3694 -0.1219
18670SOL     OW57731   5.086   6.473   4.723 -0.0389  0.1098 -0.1104
18670SOL    HW157732   5.019   6.539   4.705 -0.4856  0.3450  2.0807
18670SOL    HW257733   5.159   6.522   4.760  0.0452 -0.4834  0.5321
18671SOL     OW57734   6.903   6.714   5.039 -0.1842 -0.0711  0.3306
18671SOL    HW157735   6.895   6.808   5.021  0.3403 -0.3226 -1.4217
18671SOL    HW257736   6.958   6.681   4.967  1.4627 -1.3530  2.0724
18672SOL     OW57737   4.227   7.688   0.132 -0.0842  0.2090 -0.7234
18672SOL    HW157738   4.183   7.665   0.214 -0.9699 -0.6053 -1.4264
18672SOL    HW257739   4.213   7.782   0.123 -1.8820 -0.0648 -1.0418
18673SOL     OW57740   4.297   0.430   6.743  0.1295  0.1749 -0.0510
18673SOL    HW157741   4.342   0.437   6.659 -1.3248 -1.6002 -1.0500
18673SOL    HW257742   4.256   0.343   6.741 -1.0210  0.6092  1.9529
18674SOL     OW57743   4.783   8.827   3.590 -0.0082 -0.0580 -0.1978
18674SOL    HW157744   4.862   8.827   3.645  1.4296  1.1155 -2.1004
18674SOL    HW257745   4.804   8.765   3.519 -0.1724  1.2908 -1.4742
18675SOL     OW57746   5.527   0.786   7.379 -0.0211 -0.2311 -0.2616
18675SOL    HW157747   5.513   0.840   7.457 -0.5564 -1.2054  0.3341
18675SOL    HW257748   5.460   0.718   7.385  1.2175 -1.5112 -0.5193
18676SOL     OW57749   9.057   4.810   9.365 -0.3652 -0.0204  0.2598
18676SOL    HW157750   9.000   4.866   9.313 -3.0679 -1.7802  1.0989
18676SOL    HW257751   9.061   4.852   9.451  0.2839  0.4943 -0.0118
18677SOL     OW57752   8.356   5.489   0.038  0.4948  0.4390 -0.1633
18677SOL    HW157753   8.284   5.453   0.090  1.1043 -0.0850  0.3217
18677SOL    HW257754   8.340   5.456  -0.051  0.8945 -0.8151  0.2169
18678SOL     OW57755   5.398   2.031   0.909 -0.0917  0.4825  0.0150
18678SOL    HW157756   5.309   1.997   0.896  0.1909 -0.2056 -0.1614
18678SOL    HW257757   5.437   2.030   0.821  1.2418 -2.5086  0.5349
18679SOL     OW57758   1.197   0.479   9.580 -0.2766 -0.4279  0.4968
18679SOL    HW157759   1.273   0.498   9.635 -0.0414  0.8247 -0.2227
18679SOL    HW257760   1.232   0.476   9.491 -0.8335 -1.3782  0.2921
18680SOL     OW57761   0.015   2.150   5.605  0.0570 -0.3443 -0.0160
18680SOL    HW157762   0.008   2.231   5.656 -1.6199 -0.4603  0.0022
18680SOL    HW257763   0.089   2.104   5.643  0.6689  0.9055  0.3680
18681SOL     OW57764   3.765   1.709   6.945  0.0117 -0.3091  0.1785
18681SOL    HW157765   3.844   1.665   6.975  0.7175  0.6820 -0.1855
18681SOL    HW257766   3.744   1.667   6.862 -0.0566 -0.8151  0.4464
18682SOL     OW57767   0.482   5.818   7.447  0.2750  0.7332 -0.6677
18682SOL    HW157768   0.575   5.842   7.443  0.8507 -1.3513 -1.3860
18682SOL    HW257769   0.469   5.764   7.369 -0.7564 -1.5187  0.9610
18683SOL     OW57770   4.727   0.234   2.495 -0.2930  0.1255  0.3040
18683SOL    HW157771   4.804   0.181   2.518 -0.1147  0.5979  0.8236
18683SOL    HW257772   4.760   0.324   2.489 -0.5663  0.1706 -0.7115
18684SOL     OW57773   7.218   7.214   4.018  0.0547  0.0632 -0.4070
18684SOL    HW157774   7.297   7.266   4.010 -0.7672  1.5087  0.4240
18684SOL    HW257775   7.248   7.129   4.050  1.5171 -0.3461 -2.6715
18685SOL     OW57776   1.266   6.268   0.311  0.5389  0.5442 -0.3282
18685SOL    HW157777   1.360   6.285   0.305  0.7090 -0.1028  0.3992
18685SOL    HW257778   1.253   6.183   0.268  0.5763 -0.2428  1.1549
18686SOL     OW57779   1.250   0.634   8.478 -0.6561  0.4556  0.6397
18686SOL    HW157780   1.179   0.570   8.472 -0.2113  0.0909 -2.6619
18686SOL    HW257781   1.209   0.717   8.454 -0.3207  0.5564  0.4076
18687SOL     OW57782   7.007   0.824   7.465 -0.0907  0.2195  0.2293
18687SOL    HW157783   6.929   0.840   7.411  0.2939  0.4073 -0.2746
18687SOL    HW257784   7.077   0.873   7.422  0.3300 -0.0195  0.6318
18688SOL     OW57785   9.643   7.288   0.761 -0.0818  0.2356 -0.8254
18688SOL    HW157786   9.678   7.206   0.796  0.0510  0.3575 -0.6738
18688SOL    HW257787   9.583   7.319   0.829  0.9112  0.9754 -0.2550
18689SOL     OW57788   0.964   1.953   3.912 -0.2494 -0.2017 -0.0671
18689SOL    HW157789   1.047   1.947   3.864 -0.4952 -0.2127 -0.4989
18689SOL    HW257790   0.897   1.963   3.843 -0.7717 -1.6951  0.1828
18690SOL     OW57791   6.286   4.382   8.758 -0.4092  0.4347  0.1186
18690SOL    HW157792   6.278   4.444   8.685  0.6053  1.4887  0.8645
18690SOL    HW257793   6.330   4.305   8.719 -1.6278  0.1779 -0.8022
18691SOL     OW57794   3.305   1.315   5.219  0.1250  0.0658 -0.2738
18691SOL    HW157795   3.253   1.361   5.154  0.6846  0.0587 -0.7305
18691SOL    HW257796   3.255   1.235   5.238 -0.6601  0.6666  0.2477
18692SOL     OW57797   9.225   5.313   8.417 -0.0982 -0.0476  0.4334
18692SOL    HW157798   9.175   5.309   8.335 -1.8468  0.0759  1.4515
18692SOL    HW257799   9.179   5.253   8.476  1.4179 -0.5125  1.2039
18693SOL     OW57800   4.100   4.348   8.276  0.4682 -0.9110 -0.0508
18693SOL    HW157801   4.155   4.292   8.331  0.5897  0.3058  1.0983
18693SOL    HW257802   4.115   4.436   8.308 -1.7444 -0.4794 -0.0397
18694SOL     OW57803   7.082   2.434   7.629 -0.3987  0.1004  0.3825
18694SOL    HW157804   7.071   2.342   7.653  0.8725 -0.3638 -0.7145
18694SOL    HW257805   6.994   2.471   7.635 -1.2127 -1.5501 -0.6566
18695SOL     OW57806   0.421   3.848   0.697 -0.0352  0.3978 -0.4255
18695SOL    HW157807   0.455   3.922   0.748 -1.1242  0.7524 -0.1731
18695SOL    HW257808   0.336   3.829   0.737 -0.9036  0.6538 -2.0697
18696SOL     OW57809   3.598   2.066   5.946  0.0812  0.5789  0.2551
18696SOL    HW157810   3.575   2.041   6.036  0.2746  0.5835  0.3075
18696SOL    HW257811   3.669   2.006   5.923  0.1738  0.7181  0.1810
18697SOL     OW57812   1.603   8.239   1.216 -0.0289 -0.4763 -0.6400
18697SOL    HW157813   1.548   8.202   1.285  0.8685 -0.8063 -0.0844
18697SOL    HW257814   1.566   8.326   1.200 -0.3144 -0.4396  0.1729
18698SOL     OW57815   7.849   1.363   5.611  0.2756  0.0204  0.4475
18698SOL    HW157816   7.822   1.376   5.702  2.1049 -1.2274  1.2337
18698SOL    HW257817   7.819   1.441   5.565 -3.0657 -0.5146  1.5011
18699SOL     OW57818   1.398   1.675   7.158  0.4248  0.2448  0.0471
18699SOL    HW157819   1.427   1.754   7.112  1.8626 -1.3191 -1.8934
18699SOL    HW257820   1.479   1.627   7.176 -0.5600 -2.0068 -1.1658
18700SOL     OW57821   2.027   4.021   7.876 -0.0064 -0.5102  0.1981
18700SOL    HW157822   2.102   4.070   7.844  0.2403 -0.0116  1.4731
18700SOL    HW257823   2.029   3.938   7.827  1.1207 -0.3307 -0.0802
18701SOL     OW57824   1.934   0.364   2.736  0.5006 -0.5890  0.1546
18701SOL    HW157825   1.946   0.333   2.825 -0.0253  2.0482  1.2274
18701SOL    HW257826   1.855   0.419   2.740  0.1252 -0.8772 -2.0727
18702SOL     OW57827   4.542   2.766   4.222 -0.5076  0.1680 -0.1275
18702SOL    HW157828   4.476   2.759   4.290 -1.0498 -0.4553 -0.7057
18702SOL    HW257829   4.500   2.817   4.153 -1.3968 -2.4246 -1.6348
18703SOL     OW57830   3.058   2.391   0.100 -0.0985  0.1320  0.2009
18703SOL    HW157831   2.990   2.451   0.071  1.6669  1.5834 -1.1431
18703SOL    HW257832   3.011   2.325   0.152 -2.3692  1.5302  0.0522
18704SOL     OW57833   9.402   7.262   9.317  0.0161 -0.4919 -0.3571
18704SOL    HW157834   9.492   7.258   9.284  0.0637  0.8373 -0.4317
18704SOL    HW257835   9.412   7.270   9.412  0.0010  0.2634 -0.4145
18705SOL     OW57836   3.489   1.364   0.841  0.1714 -0.4727 -1.1550
18705SOL    HW157837   3.524   1.275   0.847 -0.0885 -0.5417 -0.5730
18705SOL    HW257838   3.394   1.354   0.854  0.2644 -0.0037  0.1167
18706SOL     OW57839   3.586   9.673   0.629 -0.1821 -0.5225  0.6818
18706SOL    HW157840   3.495   9.663   0.601 -0.0754 -1.6197  0.7157
18706SOL    HW257841   3.591   9.633   0.715  0.9344 -3.1601 -0.4853
18707SOL     OW57842   0.141   2.882   2.808 -0.4466 -0.6260 -0.0641
18707SOL    HW157843   0.229   2.922   2.806 -0.0510 -1.4544  0.2589
18707SOL    HW257844   0.131   2.854   2.899 -1.8912  1.2648  0.4257
18708SOL     OW57845   0.846   2.361   5.845 -0.5070  0.2478 -0.3645
18708SOL    HW157846   0.789   2.328   5.914 -0.5757  0.1983 -0.4437
18708SOL    HW257847   0.866   2.451   5.871 -2.2022  0.9528 -1.2874
18709SOL     OW57848   0.643   1.099   0.152 -0.1765  0.0054  0.2615
18709SOL    HW157849   0.549   1.112   0.161  0.0721  1.1580  1.5444
18709SOL    HW257850   0.665   1.146   0.071 -0.6109  0.2705  0.2912
18710SOL     OW57851   6.313   5.719   4.036 -0.0550  0.1104  0.1159
18710SOL    HW157852   6.234   5.773   4.031 -0.5536 -0.6567 -0.9127
18710SOL    HW257853   6.374   5.759   3.975 -0.1128  0.0083 -0.0110
18711SOL     OW57854   1.680   3.083   5.476 -0.3852 -0.0458  0.1725
18711SOL    HW157855   1.727   3.097   5.558  0.1792  2.1070 -0.4416
18711SOL    HW257856   1.749   3.067   5.411 -0.6548  0.5158 -0.2654
18712SOL     OW57857   2.645   6.552   9.086  0.5602 -0.3143 -0.2937
18712SOL    HW157858   2.721   6.514   9.042  1.4668  0.6199  0.4157
18712SOL    HW257859   2.586   6.576   9.015  1.9546  1.0861 -1.0620
18713SOL     OW57860   3.004   6.090   7.897 -0.2511  0.8664 -0.1499
18713SOL    HW157861   3.073   6.124   7.953 -0.5471  2.3280 -0.6341
18713SOL    HW257862   3.023   5.996   7.891  1.3023  1.1169  0.2589
18714SOL     OW57863   0.708   0.077   9.641  0.0369 -0.4346  0.8641
18714SOL    HW157864   0.624   0.045   9.608 -0.0147 -1.8410  2.2489
18714SOL    HW257865   0.772   0.015   9.607  0.5899  0.7176 -0.3082
18715SOL     OW57866   2.188   5.143   7.147 -0.7213 -0.1832  0.0109
18715SOL    HW157867   2.265   5.114   7.194  0.3509  0.4177 -1.3094
18715SOL    HW257868   2.156   5.218   7.198  0.0264  0.0505  0.1494
18716SOL     OW57869   8.319   0.058   7.101  0.3215 -0.1778  0.4171
18716SOL    HW157870   8.291   0.012   7.021 -0.0172  0.8204 -0.0498
18716SOL    HW257871   8.410   0.084   7.082 -0.0199  0.7557  0.0324
18717SOL     OW57872   6.930   0.215   5.759  0.3747  0.1751 -0.1438
18717SOL    HW157873   7.025   0.223   5.761  0.4648 -0.5512 -0.9178
18717SOL    HW257874   6.910   0.149   5.825  0.4614 -0.1213 -0.4141
18718SOL     OW57875   1.372   2.839   2.196 -0.0007 -0.5206  0.4028
18718SOL    HW157876   1.434   2.788   2.249  0.6272  0.2282  0.4083
18718SOL    HW257877   1.361   2.921   2.244 -0.1225 -0.2005 -0.1626
18719SOL     OW57878   5.518   6.977   9.046 -0.1704  0.2273 -0.3366
18719SOL    HW157879   5.506   7.067   9.015  0.0896  0.5141  0.3643
18719SOL    HW257880   5.609   6.956   9.022 -1.2857 -1.2178 -3.8362
18720SOL     OW57881   3.501   6.482   7.366 -1.1731  0.0806  0.1627
18720SOL    HW157882   3.555   6.555   7.395 -1.4149  0.3446 -0.0428
18720SOL    HW257883   3.504   6.486   7.270 -0.4373 -0.7414  0.1356
18721SOL     OW57884   4.810   5.124   5.383 -0.3756  0.3494 -0.3895
18721SOL    HW157885   4.870   5.183   5.430  0.0240  0.4454 -1.0112
18721SOL    HW257886   4.733   5.178   5.364 -0.6290  0.2503  0.3378
18722SOL     OW57887   4.218   9.119   2.333 -0.3862  0.7067  0.3539
18722SOL    HW157888   4.142   9.170   2.307  0.4176  0.7731 -2.1563
18722SOL    HW257889   4.286   9.142   2.270  0.7602 -1.6259  0.6006
18723SOL     OW57890   8.508   8.081   9.289 -0.0585  0.2243 -0.4540
18723SOL    HW157891   8.433   8.023   9.298 -0.7927  1.0821 -0.9359
18723SOL    HW257892   8.472   8.169   9.296  0.7520  0.6808 -1.7341
18724SOL     OW57893   5.130   0.822   6.509  0.0834  0.3032  0.3498
18724SOL    HW157894   5.098   0.825   6.599 -0.4846  0.8758  0.1403
18724SOL    HW257895   5.061   0.865   6.458 -0.2085 -1.1291 -0.5443
18725SOL     OW57896   7.961   7.586   4.526 -0.3272 -0.0238 -0.0971
18725SOL    HW157897   7.954   7.534   4.606  0.5192 -1.0445 -0.6459
18725SOL    HW257898   7.992   7.523   4.460 -0.0272  1.0183 -0.9787
18726SOL     OW57899   6.703   9.567   3.440  0.5646  0.2022 -0.1990
18726SOL    HW157900   6.646   9.585   3.516  0.1130 -1.5938 -0.0587
18726SOL    HW257901   6.787   9.544   3.478  1.0744  1.7018 -0.3654
18727SOL     OW57902   6.067   1.512   0.360  0.1726 -0.1259 -0.0577
18727SOL    HW157903   6.087   1.457   0.436 -0.4973  0.3010  0.4407
18727SOL    HW257904   5.979   1.546   0.377  1.0044  2.0621  0.2663
18728SOL     OW57905   9.014   1.657   8.300  0.4785  0.2853 -0.0387
18728SOL    HW157906   8.960   1.639   8.223  0.2836 -1.7935  0.5322
18728SOL    HW257907   8.956   1.704   8.359 -0.3199 -0.7069  0.0032
18729SOL     OW57908   3.959   9.059   6.607  0.0122 -0.3664 -0.3777
18729SOL    HW157909   3.956   8.964   6.614  3.7325 -0.5206  1.3359
18729SOL    HW257910   3.935   9.091   6.694  0.5023  0.1860 -0.4413
18730SOL     OW57911   6.286   6.376   4.769  0.1889  0.0446 -0.2711
18730SOL    HW157912   6.342   6.451   4.791 -0.4260  0.8818 -1.4712
18730SOL    HW257913   6.209   6.415   4.727 -0.8082 -1.1615  0.3676
18731SOL     OW57914   8.453   7.345   8.646 -0.3534 -0.8953 -0.3060
18731SOL    HW157915   8.516   7.279   8.616  0.1946 -1.2955  1.5533
18731SOL    HW257916   8.507   7.420   8.670 -0.9256  0.0316 -1.8380
18732SOL     OW57917   1.041   2.821   6.082 -0.2287  0.3489 -0.4680
18732SOL    HW157918   1.127   2.805   6.120 -0.8771  0.0560  0.9218
18732SOL    HW257919   1.034   2.916   6.076 -0.6278  0.4672  1.4273
18733SOL     OW57920   1.075   0.866   8.343  0.2055 -0.3123 -0.6190
18733SOL    HW157921   1.110   0.880   8.255  2.0543  0.4118  0.1923
18733SOL    HW257922   1.000   0.925   8.348  3.1900  3.8828  0.0038
18734SOL     OW57923   6.732   5.752   3.572 -0.0427 -0.0441  0.0405
18734SOL    HW157924   6.707   5.725   3.661  0.2890 -1.8657 -0.3670
18734SOL    HW257925   6.824   5.779   3.580 -0.1445  0.2185  0.3324
18735SOL     OW57926   4.374   0.221   5.982 -0.3371  0.5760  0.2668
18735SOL    HW157927   4.291   0.268   5.975 -0.2824  0.4310 -1.8776
18735SOL    HW257928   4.430   0.278   6.035 -1.4154  1.2287  0.7272
18736SOL     OW57929   7.379   1.067   2.015 -0.5968 -0.5059 -0.1422
18736SOL    HW157930   7.427   1.124   1.955 -0.1723 -1.2268 -0.5116
18736SOL    HW257931   7.406   0.978   1.990  0.9824 -0.7954  2.2257
18737SOL     OW57932   0.380   5.384   4.760  0.5162  0.2007 -0.3817
18737SOL    HW157933   0.318   5.451   4.732  0.8348  1.1599  1.1032
18737SOL    HW257934   0.363   5.310   4.702 -3.2791 -0.2592  1.0590
18738SOL     OW57935   8.524   5.407   0.292  0.0981  0.2666  0.5141
18738SOL    HW157936   8.503   5.367   0.207 -0.9008  0.0345  0.8525
18738SOL    HW257937   8.502   5.339   0.356  0.0528  0.7367  1.0022
18739SOL     OW57938   2.092   5.756   9.007  0.0999 -0.9724 -0.3851
18739SOL    HW157939   2.064   5.811   8.933 -0.6911 -0.8940 -0.0377
18739SOL    HW257940   2.069   5.667   8.981 -0.9455 -0.8557  0.1035
18740SOL     OW57941   7.720   1.844   8.287  0.0482  0.3564  0.2180
18740SOL    HW157942   7.673   1.879   8.363  0.3623 -0.3288  0.7325
18740SOL    HW257943   7.698   1.751   8.286 -0.8659  0.5507 -1.2058
18741SOL     OW57944   0.354   6.557   7.568  0.0053  0.0635  0.0027
18741SOL    HW157945   0.358   6.650   7.590  0.6483 -0.0065  0.2080
18741SOL    HW257946   0.274   6.548   7.517  0.4310  0.9067 -0.8619
18742SOL     OW57947   7.787   6.987   7.156 -0.7647 -0.0057 -0.2772
18742SOL    HW157948   7.714   7.041   7.188 -1.1624 -0.9585  0.4483
18742SOL    HW257949   7.747   6.928   7.093 -0.4822 -0.0166 -0.4443
18743SOL     OW57950   4.144   5.343   6.692 -0.5746 -0.1569  0.0498
18743SOL    HW157951   4.207   5.412   6.712 -1.5029  1.4932 -2.1506
18743SOL    HW257952   4.068   5.363   6.747 -1.2994  1.4190 -1.4218
18744SOL     OW57953   1.616   2.634   7.983 -0.3764 -0.4518  0.5101
18744SOL    HW157954   1.660   2.551   7.966  0.0687 -0.5877  2.1675
18744SOL    HW257955   1.620   2.681   7.899 -0.9527 -2.2145 -0.5669
18745SOL     OW57956   9.419   4.795   6.779  0.0868  0.0971 -0.0411
18745SOL    HW157957   9.324   4.804   6.774  0.2492  2.0333 -0.0757
18745SOL    HW257958   9.445   4.773   6.690 -0.2132  0.9122 -0.3411
18746SOL     OW57959   9.178   0.577   0.069 -0.2779 -0.1087  0.4299
18746SOL    HW157960   9.137   0.646   0.121 -0.9915 -1.2782  1.4524
18746SOL    HW257961   9.171   0.608  -0.021  1.5053  2.2301  0.9954
18747SOL     OW57962   8.415   5.339   2.595 -0.2647 -0.0644  0.2274
18747SOL    HW157963   8.391   5.275   2.528  0.8271  0.5622 -0.7866
18747SOL    HW257964   8.429   5.420   2.547  2.1550  0.0253  0.9570
18748SOL     OW57965   7.163   4.467   1.076  0.3877  0.2744 -0.3058
18748SOL    HW157966   7.118   4.383   1.084 -0.3904  0.7959  1.1730
18748SOL    HW257967   7.126   4.507   0.997  0.1086 -0.3952 -0.5160
18749SOL     OW57968   5.602   2.660   1.677 -0.0442  0.0257  0.3412
18749SOL    HW157969   5.656   2.704   1.610  0.7018 -2.7818 -1.0494
18749SOL    HW257970   5.512   2.672   1.646 -0.1073  2.3815  1.2079
18750SOL     OW57971   6.536   4.679   7.752 -0.2002  0.3411  0.5513
18750SOL    HW157972   6.530   4.739   7.677 -0.4561 -0.8669 -0.4219
18750SOL    HW257973   6.566   4.734   7.824 -0.2603  1.6038 -0.3573
18751SOL     OW57974   7.550   3.134   8.124 -0.2218 -0.1184 -0.1104
18751SOL    HW157975   7.636   3.114   8.088 -0.4667 -0.1488 -0.7005
18751SOL    HW257976   7.564   3.142   8.218  0.6553  1.0732 -0.3186
18752SOL     OW57977   1.791   5.890   9.329 -0.5272 -0.4273 -0.1829
18752SOL    HW157978   1.804   5.945   9.252 -0.6369 -0.1749 -0.0251
18752SOL    HW257979   1.871   5.900   9.380 -0.3574 -0.7819 -0.3780
18753SOL     OW57980   7.396   8.356   6.708 -0.1859 -0.0895 -0.7460
18753SOL    HW157981   7.459   8.353   6.780  0.3666 -0.4020 -1.2339
18753SOL    HW257982   7.311   8.358   6.752  0.1507  0.1912 -0.0785
18754SOL     OW57983   8.794   7.288   8.794  0.2016 -0.6611 -0.0992
18754SOL    HW157984   8.738   7.213   8.776  0.5954 -0.8062 -0.7441
18754SOL    HW257985   8.876   7.250   8.824  0.0242 -0.4530  0.6757
18755SOL     OW57986   3.468   4.164   4.507  0.7017 -0.3348 -0.4497
18755SOL    HW157987   3.391   4.188   4.559  1.4084 -3.0503  2.0910
18755SOL    HW257988   3.432   4.131   4.425 -0.7099  0.0453 -0.0140
18756SOL     OW57989   1.488   8.233   9.657 -0.1283  0.2224 -0.2962
18756SOL    HW157990   1.490   8.150   9.705  1.8199 -0.4548 -1.4618
18756SOL    HW257991   1.417   8.223   9.593  1.7971 -1.6956 -2.2723
18757SOL     OW57992   0.891   6.212   4.799 -0.2708  0.1201  0.1336
18757SOL    HW157993   0.851   6.274   4.860  0.0249 -1.1554  1.7165
18757SOL    HW257994   0.853   6.127   4.824  1.3739 -0.7263 -0.1151
18758SOL     OW57995   8.454   1.797   7.211 -0.3921  0.0963 -0.0525
18758SOL    HW157996   8.465   1.861   7.141 -1.2695 -0.4984 -0.7550
18758SOL    HW257997   8.544   1.771   7.234  0.0191  2.0526  0.7468
18759SOL     OW57998   7.472   3.352   4.543 -0.5124  0.4889  0.4045
18759SOL    HW157999   7.386   3.309   4.550 -0.8333  1.0021 -0.2557
18759SOL    HW258000   7.533   3.280   4.527 -1.0015  0.2377 -0.3824
18760SOL     OW58001   2.288   1.092   7.448  0.2109  0.6011 -0.1155
18760SOL    HW158002   2.325   1.086   7.360  3.2128  0.1997  1.0501
18760SOL    HW258003   2.297   1.185   7.471 -1.9544  1.0008 -0.7156
18761SOL     OW58004   7.848   3.697   8.907 -0.3572  0.1091 -1.0546
18761SOL    HW158005   7.778   3.631   8.902 -0.8043  0.6280 -1.7360
18761SOL    HW258006   7.820   3.766   8.848  1.6560 -0.5271 -2.8904
18762SOL     OW58007   5.222   5.127   3.557 -0.2201 -0.1372  0.2798
18762SOL    HW158008   5.160   5.118   3.485  1.4941  1.6942 -1.5674
18762SOL    HW258009   5.184   5.196   3.612 -0.6046 -0.1781  0.0724
18763SOL     OW58010   4.819   0.273   1.356 -0.0275 -0.0183 -0.1756
18763SOL    HW158011   4.850   0.214   1.287  0.5721 -0.2667  0.2968
18763SOL    HW258012   4.895   0.286   1.412  0.4158  2.6341 -1.2042
18764SOL     OW58013   7.946   0.464   9.641  0.8572  0.0666 -0.0264
18764SOL    HW158014   7.921   0.378   9.607 -1.1177  0.3228  0.6512
18764SOL    HW258015   8.036   0.476   9.612  1.8566 -3.0179  1.3756
18765SOL     OW58016   4.976   0.784   5.675  0.7118 -0.6055  0.2497
18765SOL    HW158017   5.009   0.694   5.681 -0.0364 -1.1117 -2.1295
18765SOL    HW258018   5.054   0.838   5.662  1.0534 -1.1310  0.0762
18766SOL     OW58019   3.764   0.644   4.091 -0.4790 -0.8226  0.5289
18766SOL    HW158020   3.856   0.625   4.075  0.2971  0.3145  3.1285
18766SOL    HW258021   3.744   0.599   4.173 -1.7327  0.2948  0.8750
18767SOL     OW58022   7.373   8.309   8.990  0.3275 -0.1426 -0.0433
18767SOL    HW158023   7.354   8.255   9.066  1.4608 -1.9548 -0.9632
18767SOL    HW258024   7.410   8.390   9.026 -0.1964 -0.4926  1.3379
18768SOL     OW58025   6.298   3.305   6.954  0.0323  0.1047  0.0248
18768SOL    HW158026   6.392   3.301   6.970  0.0239 -0.0767  0.0305
18768SOL    HW258027   6.277   3.221   6.912  0.6988  1.8686 -4.4529
18769SOL     OW58028   3.770   8.192   2.652  0.3473  0.5591  0.0993
18769SOL    HW158029   3.689   8.143   2.667  0.8375  0.0589  1.1846
18769SOL    HW258030   3.822   8.137   2.594 -0.5216  1.3805 -1.5292
18770SOL     OW58031   2.086   3.690   2.009 -0.6125 -0.2900 -0.1291
18770SOL    HW158032   2.123   3.771   1.975 -1.7560  0.2169 -0.2417
18770SOL    HW258033   2.049   3.715   2.094  0.5994 -1.1206  0.6652
18771SOL     OW58034   6.658   0.915   5.348  0.2231  0.4031  0.5505
18771SOL    HW158035   6.575   0.897   5.303  0.1045  1.7699  0.1728
18771SOL    HW258036   6.723   0.919   5.279  0.5775 -0.4020  0.8224
18772SOL     OW58037   5.805   1.514   0.289  0.2106 -0.5695 -0.0925
18772SOL    HW158038   5.802   1.604   0.255  3.4567 -0.1504  0.4738
18772SOL    HW258039   5.838   1.462   0.216 -0.0480 -1.0294  0.1124
18773SOL     OW58040   6.330   2.860   6.069 -0.1437  0.6508 -0.0902
18773SOL    HW158041   6.365   2.938   6.025  0.8049 -0.5237 -1.4798
18773SOL    HW258042   6.403   2.798   6.070 -0.7656 -0.1182  1.3495
18774SOL     OW58043   3.640   5.570   5.010 -0.0942 -0.2432 -0.3414
18774SOL    HW158044   3.685   5.597   5.090 -0.4953  2.0390 -0.8037
18774SOL    HW258045   3.663   5.478   4.998  1.1331 -0.2254  1.6010
18775SOL     OW58046   3.761   7.444   0.380  0.1959 -0.1546  0.0207
18775SOL    HW158047   3.847   7.426   0.416 -0.3142  0.7663  1.8722
18775SOL    HW258048   3.700   7.422   0.451 -0.9813  0.4784 -0.7484
18776SOL     OW58049   3.498   9.589   2.217  0.0731  0.4635  0.3322
18776SOL    HW158050   3.563   9.655   2.242 -0.0642  1.0110 -0.7328
18776SOL    HW258051   3.464   9.557   2.301  0.4565  1.4230  0.8749
18777SOL     OW58052   0.915   1.119   8.008  0.4240 -0.9999 -0.1506
18777SOL    HW158053   0.996   1.119   8.060  1.2615 -3.0905 -1.3283
18777SOL    HW258054   0.942   1.089   7.921 -1.3193  0.1919 -1.1596
18778SOL     OW58055   5.602   8.260   5.451  0.0812  0.1315  0.6271
18778SOL    HW158056   5.558   8.310   5.381  0.1329 -0.3124  0.2761
18778SOL    HW258057   5.673   8.317   5.479 -0.7960  0.9298  1.3034
18779SOL     OW58058   2.286   2.926   1.510 -0.3449 -0.2609 -0.2241
18779SOL    HW158059   2.290   2.966   1.596  1.1214 -0.7418 -0.0388
18779SOL    HW258060   2.375   2.932   1.476 -1.1636  1.3453 -2.3871
18780SOL     OW58061   2.136   4.327   2.338  0.3944  0.4707 -0.0555
18780SOL    HW158062   2.191   4.333   2.260  0.5325  0.0331  0.0022
18780SOL    HW258063   2.183   4.379   2.404  0.4662  0.5405 -0.1619
18781SOL     OW58064   1.480   0.365   2.218  0.0045  0.3185  0.2961
18781SOL    HW158065   1.474   0.448   2.266  0.8644 -0.6627  2.2296
18781SOL    HW258066   1.561   0.373   2.168  0.2790  0.5115  0.7616
18782SOL     OW58067   3.894   8.814   3.563 -0.1265  0.2099  0.6034
18782SOL    HW158068   3.860   8.769   3.485 -1.4392 -1.4879  2.0745
18782SOL    HW258069   3.981   8.775   3.577  0.7054  1.5031 -0.7447
18783SOL     OW58070   1.683   0.484   2.857  0.1808 -0.0753 -0.2961
18783SOL    HW158071   1.640   0.569   2.859 -1.1261 -0.5349 -3.2779
18783SOL    HW258072   1.632   0.429   2.916 -0.2721  0.6765  0.0107
18784SOL     OW58073   5.674   4.572   6.545  0.6273 -0.0125 -0.1644
18784SOL    HW158074   5.748   4.568   6.484 -0.0766  3.0350 -1.4015
18784SOL    HW258075   5.597   4.584   6.489 -0.4870 -0.5908  1.1913
18785SOL     OW58076   3.833   2.837   5.639 -0.3140 -0.7043 -0.0627
18785SOL    HW158077   3.741   2.845   5.665 -0.1180 -1.3448  0.9152
18785SOL    HW258078   3.834   2.862   5.547 -0.7804  3.5793  0.8821
18786SOL     OW58079   6.906   2.830   9.597 -1.1337 -0.1259 -0.1392
18786SOL    HW158080   6.874   2.914   9.632 -1.7956 -0.2112 -0.5292
18786SOL    HW258081   6.989   2.816   9.643 -0.7121  1.0361 -0.5103
18787SOL     OW58082   6.180   4.489   1.002  0.7205  0.3609  0.4517
18787SOL    HW158083   6.128   4.459   0.928 -0.9419  0.9865  1.3054
18787SOL    HW258084   6.116   4.503   1.072  2.0930  0.8638  1.6575
18788SOL     OW58085   2.626   3.223   1.809  0.4060  0.2095  0.1915
18788SOL    HW158086   2.683   3.274   1.868 -0.9550  0.8731  0.9759
18788SOL    HW258087   2.573   3.289   1.764 -0.5766 -0.4444  0.3649
18789SOL     OW58088   1.234   3.264   7.268  0.1811 -0.0990  0.1525
18789SOL    HW158089   1.322   3.230   7.280  0.1679 -0.4813 -0.7421
18789SOL    HW258090   1.211   3.303   7.352  0.6270 -1.3111  0.8620
18790SOL     OW58091   0.901   3.456   6.028 -0.6354  0.1795  0.5417
18790SOL    HW158092   0.869   3.381   6.077  0.1609 -0.4372  0.1441
18790SOL    HW258093   0.896   3.529   6.089 -0.1708 -0.4605  1.3635
18791SOL     OW58094   9.293   4.034   0.750  0.3578  0.6372  0.4078
18791SOL    HW158095   9.254   4.121   0.760 -1.7316 -0.1190 -0.4735
18791SOL    HW258096   9.301   4.022   0.655  1.2272  0.1009  0.5345
18792SOL     OW58097   8.047   5.639   2.559  0.1141 -0.3768  0.6975
18792SOL    HW158098   8.078   5.581   2.629 -0.1291 -0.6567  0.5739
18792SOL    HW258099   7.977   5.590   2.517  0.5311 -0.3747 -0.0086
18793SOL     OW58100   3.165   3.514   7.961  0.1385 -0.3082  0.1350
18793SOL    HW158101   3.112   3.540   7.886 -1.2842  0.7842  1.4372
18793SOL    HW258102   3.112   3.446   8.004 -0.3262  0.8709  1.5112
18794SOL     OW58103   0.861   7.409   2.397  0.4509 -0.9411  0.0106
18794SOL    HW158104   0.878   7.356   2.319  0.0160 -0.5302 -0.3662
18794SOL    HW258105   0.913   7.488   2.385 -1.1653  0.0471 -0.8566
18795SOL     OW58106   4.658   2.838   6.788  0.6279 -0.1110 -0.1269
18795SOL    HW158107   4.708   2.850   6.869 -0.7486  1.4378  0.5436
18795SOL    HW258108   4.699   2.899   6.727  1.0640 -0.5982 -0.3329
18796SOL     OW58109   3.363   7.990   2.802  0.4738 -0.0289  0.3232
18796SOL    HW158110   3.374   7.902   2.838 -0.2064  0.3688  1.5465
18796SOL    HW258111   3.295   7.980   2.735  0.7664 -0.5172  0.0923
18797SOL     OW58112   7.062   8.191   3.924  0.2501 -0.2462 -0.0181
18797SOL    HW158113   7.077   8.096   3.923 -0.3528 -0.3477 -0.1297
18797SOL    HW258114   6.973   8.201   3.960 -1.0060  0.0438 -2.9024
18798SOL     OW58115   6.071   8.335   6.286  0.2690  0.2981 -0.4903
18798SOL    HW158116   6.002   8.330   6.352 -1.5014  0.5955 -2.2181
18798SOL    HW258117   6.101   8.245   6.275 -0.1525  0.1002 -0.0398
18799SOL     OW58118   7.503   2.962   0.329  0.0528  0.7277  0.2927
18799SOL    HW158119   7.541   2.886   0.375  0.8574  0.4088 -0.8372
18799SOL    HW258120   7.576   2.995   0.276 -0.5280  1.8023  0.1553
18800SOL     OW58121   2.890   1.606   0.139  0.3974 -0.0483  0.7424
18800SOL    HW158122   2.966   1.551   0.117  0.7787  1.1590 -1.2662
18800SOL    HW258123   2.892   1.676   0.073 -1.5370  0.9295  1.6495
18801SOL     OW58124   8.240   7.663   9.410 -0.0675  0.1812 -0.3708
18801SOL    HW158125   8.170   7.665   9.475 -0.9716  1.0188 -1.3271
18801SOL    HW258126   8.239   7.574   9.375 -0.0630 -0.0612  0.2446
18802SOL     OW58127   2.155   1.703   3.764  0.1990 -0.0191  0.1903
18802SOL    HW158128   2.227   1.690   3.703 -0.1698  1.1883 -0.5323
18802SOL    HW258129   2.197   1.717   3.848  0.7025 -2.4615  0.4250
18803SOL     OW58130   6.426   2.320   8.889 -0.7490  0.4951  0.0703
18803SOL    HW158131   6.343   2.363   8.866 -0.0311  1.5988 -0.6089
18803SOL    HW258132   6.450   2.271   8.810 -0.9205 -0.0830  0.3803
18804SOL     OW58133   2.068   6.658   7.732  0.0684 -0.4701  0.2910
18804SOL    HW158134   2.075   6.571   7.771  0.1860 -1.3733 -1.5979
18804SOL    HW258135   1.990   6.653   7.677 -0.6618  1.0592  1.1234
18805SOL     OW58136   2.998   2.638   9.103  0.3033  0.7197 -0.3722
18805SOL    HW158137   2.985   2.685   9.021  0.0753  1.2155 -0.0635
18805SOL    HW258138   3.057   2.567   9.082 -0.9013 -0.0421 -1.2857
18806SOL     OW58139   5.443   3.929   0.942 -0.1952  0.1830  0.0781
18806SOL    HW158140   5.483   4.005   0.898 -0.2515  1.2285  1.7295
18806SOL    HW258141   5.388   3.968   1.010 -0.0786 -1.3542  1.0832
18807SOL     OW58142   2.474   3.663   7.017 -0.1087 -0.6533  0.0162
18807SOL    HW158143   2.392   3.621   6.991 -0.3088  0.0945 -0.5633
18807SOL    HW258144   2.518   3.685   6.935  1.3438 -2.2666  0.2719
18808SOL     OW58145   5.938   6.028   5.126 -0.2002 -0.1808  0.0973
18808SOL    HW158146   5.871   6.011   5.192  0.6441 -0.8135  0.8264
18808SOL    HW258147   5.970   6.116   5.146 -0.5843 -0.0136 -0.0367
18809SOL     OW58148   2.734   1.650   3.611 -0.5298 -0.2208  0.0384
18809SOL    HW158149   2.811   1.662   3.666 -0.3996 -1.3067  0.1181
18809SOL    HW258150   2.766   1.662   3.522  0.2009 -2.5306 -0.0855
18810SOL     OW58151   9.528   1.091   0.332 -0.0830  0.0734  0.3357
18810SOL    HW158152   9.597   1.060   0.389  0.3876 -1.0908 -0.8142
18810SOL    HW258153   9.448   1.053   0.367  0.1292 -0.1960  0.5265
18811SOL     OW58154   9.632   0.191   5.715 -0.3695  0.1194 -0.1827
18811SOL    HW158155   9.639   0.285   5.731  3.4066  0.0484 -0.3313
18811SOL    HW258156   9.664   0.150   5.795 -0.4766 -0.9696 -0.6776
18812SOL     OW58157   1.255   7.302   2.279 -0.1256 -0.5304  0.0047
18812SOL    HW158158   1.246   7.273   2.370 -0.9333 -1.1125 -0.2490
18812SOL    HW258159   1.167   7.292   2.242 -0.2431  1.3779 -0.3655
18813SOL     OW58160   1.335   9.156   4.226 -0.1050  0.6303  0.3225
18813SOL    HW158161   1.404   9.092   4.241  2.0440  2.5780 -0.5211
18813SOL    HW258162   1.267   9.135   4.290  0.3846 -2.5080 -0.0350
18814SOL     OW58163   4.727   7.557   7.305 -0.0168  0.6547  0.2145
18814SOL    HW158164   4.820   7.546   7.283 -0.1055 -0.2222  0.2304
18814SOL    HW258165   4.684   7.483   7.261 -0.8096  1.4551 -0.3913
18815SOL     OW58166   4.378   5.540   0.781  0.2625 -0.3148  0.2468
18815SOL    HW158167   4.451   5.562   0.723 -0.2866  1.4349  0.1490
18815SOL    HW258168   4.369   5.446   0.773  1.1160 -0.2977 -1.4188
18816SOL     OW58169   7.106   7.005   7.432 -0.2207 -0.1315 -0.0431
18816SOL    HW158170   7.148   7.077   7.479 -1.2486  0.1554  0.4536
18816SOL    HW258171   7.167   6.984   7.361  0.2910  0.9353  0.0713
18817SOL     OW58172   8.449   7.160   1.495 -0.0213  0.0120 -1.2960
18817SOL    HW158173   8.456   7.111   1.577  0.0008  0.2604 -1.1486
18817SOL    HW258174   8.539   7.189   1.478  0.3487 -1.6697 -2.4245
18818SOL     OW58175   2.035   8.151   8.603 -0.0292  0.9890  0.4065
18818SOL    HW158176   2.078   8.092   8.665 -0.9835  1.0837  1.1802
18818SOL    HW258177   1.999   8.221   8.658 -1.4182  0.7635 -0.1651
18819SOL     OW58178   7.402   3.437   1.991  0.1789  0.3815  0.5144
18819SOL    HW158179   7.322   3.403   1.952  0.5967  0.2353 -0.2376
18819SOL    HW258180   7.389   3.428   2.086 -0.6751  0.3412  0.3948
18820SOL     OW58181   3.067   1.141   9.685 -0.1895  0.0732 -0.2135
18820SOL    HW158182   3.096   1.196   9.612  0.2155  0.9194  0.5763
18820SOL    HW258183   3.074   1.052   9.651 -1.1599  0.4952 -1.6216
18821SOL     OW58184   6.244   2.206   8.557  0.1311  0.2891 -0.0908
18821SOL    HW158185   6.326   2.233   8.597  0.2009 -0.5917  0.3945
18821SOL    HW258186   6.180   2.271   8.585  0.0805 -0.5266  1.8571
18822SOL     OW58187   4.011   4.488   2.925  0.2221  0.2052 -0.1875
18822SOL    HW158188   3.978   4.576   2.945  0.0125  0.1445 -0.2731
18822SOL    HW258189   3.939   4.444   2.881  0.4075  0.0674 -0.3573
18823SOL     OW58190   4.552   6.263   4.961 -0.5072 -0.5545  0.0633
18823SOL    HW158191   4.475   6.274   4.905 -1.9012  0.1589  2.0208
18823SOL    HW258192   4.594   6.349   4.960 -1.2741 -0.1507  1.1105
18824SOL     OW58193   3.303   8.712   2.460 -0.4269 -0.2500 -0.6481
18824SOL    HW158194   3.309   8.643   2.526 -0.5949 -0.9996 -1.3881
18824SOL    HW258195   3.350   8.786   2.498  1.2533 -1.3235 -0.5141
18825SOL     OW58196   7.279   9.569   1.533  0.1946 -0.2215 -0.1604
18825SOL    HW158197   7.341   9.609   1.472  1.5792 -0.9087  0.7298
18825SOL    HW258198   7.335   9.520   1.595 -1.1895 -0.1621  1.1988
18826SOL     OW58199   7.626   1.012   9.377 -0.4997 -0.4392 -1.2024
18826SOL    HW158200   7.587   1.093   9.409  0.2098 -0.6316  0.1959
18826SOL    HW258201   7.592   0.944   9.436  1.2208 -0.7326 -0.5040
18827SOL     OW58202   4.996   4.273   7.284 -0.1347 -0.3345  0.5549
18827SOL    HW158203   4.960   4.349   7.329  1.0978 -0.6642  2.2084
18827SOL    HW258204   5.053   4.311   7.216  1.1505  0.2872  1.9189
18828SOL     OW58205   3.379   4.620   0.297  0.1065 -0.1044 -0.8554
18828SOL    HW158206   3.292   4.642   0.332  0.3282 -0.6411  0.0581
18828SOL    HW258207   3.412   4.702   0.261  1.1129  1.3440  2.8572
18829SOL     OW58208   6.640   1.599   7.177  0.3382 -0.3034 -0.3124
18829SOL    HW158209   6.636   1.617   7.271  0.9439 -1.4905 -0.0386
18829SOL    HW258210   6.656   1.684   7.137  0.7675  0.1172  0.7203
18830SOL     OW58211   6.993   4.750   9.385  0.3975  0.1756  0.6118
18830SOL    HW158212   7.030   4.690   9.449 -1.4615 -2.1196 -0.3101
18830SOL    HW258213   7.068   4.780   9.333  1.2611 -2.9187 -0.0987
18831SOL     OW58214   1.182   5.327   0.588 -0.6458  0.0241  0.3133
18831SOL    HW158215   1.270   5.329   0.625 -0.1358  0.6988 -0.8506
18831SOL    HW258216   1.159   5.235   0.585 -0.4353 -0.0839  1.6501
18832SOL     OW58217   9.484   3.477   1.899 -0.0485 -0.0708 -0.4183
18832SOL    HW158218   9.530   3.486   1.982 -0.3033  0.9014 -0.3740
18832SOL    HW258219   9.393   3.461   1.923  0.2137 -1.9685 -0.5058
18833SOL     OW58220   5.425   5.236   2.021  0.0257 -0.2875 -0.0486
18833SOL    HW158221   5.414   5.164   1.959  0.1632 -0.2338 -0.1353
18833SOL    HW258222   5.441   5.193   2.105 -1.9811 -0.4080  0.3308
18834SOL     OW58223   0.577   2.904   2.568 -0.3452  0.0901 -0.0544
18834SOL    HW158224   0.587   2.982   2.512  0.2125  1.0123  1.2709
18834SOL    HW258225   0.628   2.836   2.524  2.0416  1.4243  0.4193
18835SOL     OW58226   9.135   0.905   0.498 -0.7491 -0.2172  0.0821
18835SOL    HW158227   9.161   0.833   0.439 -0.0445  0.9076 -1.0228
18835SOL    HW258228   9.169   0.984   0.456 -1.7870  0.8156  1.1114
18836SOL     OW58229   1.701   0.510   1.558 -0.2781 -0.0720  0.1443
18836SOL    HW158230   1.615   0.468   1.563  0.1692 -0.9216  0.9957
18836SOL    HW258231   1.707   0.543   1.468 -0.9830 -1.1183 -0.2941
18837SOL     OW58232   9.088   7.211   1.016 -0.0286  0.3113  0.7193
18837SOL    HW158233   9.113   7.122   1.040  0.2869  0.6449  1.6668
18837SOL    HW258234   9.037   7.243   1.091  1.3048  1.5195  1.1558
18838SOL     OW58235   9.259   1.333   8.805 -0.0778 -0.2442 -0.3743
18838SOL    HW158236   9.340   1.377   8.780 -0.9906  0.5668 -2.0787
18838SOL    HW258237   9.237   1.278   8.730 -0.2245 -1.8336  0.7724
18839SOL     OW58238   6.856   4.880   4.895  0.0412  0.0192 -0.2340
18839SOL    HW158239   6.877   4.965   4.857 -0.1430  1.5597  2.8044
18839SOL    HW258240   6.768   4.891   4.932 -0.5025 -1.9035 -0.8321
18840SOL     OW58241   6.000   4.470   5.675  0.2409 -0.0518 -0.2709
18840SOL    HW158242   6.048   4.398   5.714  0.2828 -0.0531 -0.3238
18840SOL    HW258243   5.909   4.441   5.674  0.2450 -0.0660 -0.2070
18841SOL     OW58244   8.346   0.062   5.258 -0.8388  0.2070  0.5654
18841SOL    HW158245   8.406   0.081   5.186 -0.9722  1.2673  0.7093
18841SOL    HW258246   8.349   0.141   5.313 -1.1839 -0.3438  1.4053
18842SOL     OW58247   4.593   5.923   8.592 -0.1085  0.1740 -0.2148
18842SOL    HW158248   4.498   5.915   8.601 -0.4350  1.9402 -1.6973
18842SOL    HW258249   4.622   5.833   8.575 -1.3642 -0.5511  1.1719
18843SOL     OW58250   2.208   0.825   5.292  0.6681  0.3088 -0.0051
18843SOL    HW158251   2.262   0.794   5.365 -0.2537 -0.1413  0.4989
18843SOL    HW258252   2.147   0.754   5.275 -1.2219  1.6294  0.9074
18844SOL     OW58253   1.975   4.225   8.238  0.0794 -0.2280 -0.0133
18844SOL    HW158254   1.952   4.300   8.293 -1.1217 -0.1096 -0.6413
18844SOL    HW258255   1.967   4.150   8.297  3.5216  0.2158  1.2819
18845SOL     OW58256   0.578   4.190   4.384 -0.2366  0.2665  0.7077
18845SOL    HW158257   0.588   4.148   4.298  0.1503 -0.4197  1.0747
18845SOL    HW258258   0.483   4.193   4.398 -0.2729 -0.5336  0.6853
18846SOL     OW58259   0.780   5.147   9.074 -0.1931  0.5497 -0.2809
18846SOL    HW158260   0.775   5.064   9.028  0.0511  0.3619  0.0275
18846SOL    HW258261   0.786   5.123   9.166  1.1789  0.8589 -0.2653
18847SOL     OW58262   7.577   6.617   1.042 -0.1065 -0.2168 -0.5320
18847SOL    HW158263   7.670   6.633   1.060 -0.2261 -1.8736  2.0741
18847SOL    HW258264   7.551   6.688   0.984  1.9341  2.3375  1.4631
18848SOL     OW58265   8.242   9.241   2.951 -0.0360 -0.1428 -0.1803
18848SOL    HW158266   8.287   9.157   2.953  1.0599  0.4320 -0.0652
18848SOL    HW258267   8.219   9.254   2.858  0.1609 -0.3654 -0.2600
18849SOL     OW58268   6.081   8.059   0.662 -0.5810 -0.5972 -0.2863
18849SOL    HW158269   6.001   8.008   0.649 -2.1223  1.6284 -0.0071
18849SOL    HW258270   6.140   7.999   0.709 -2.2117 -2.1573 -0.1162
18850SOL     OW58271   1.151   8.123   5.899  0.0627  0.0381 -0.1096
18850SOL    HW158272   1.238   8.158   5.881 -0.3505  0.5523 -1.1840
18850SOL    HW258273   1.093   8.199   5.898 -0.2919 -0.1699  1.4963
18851SOL     OW58274   0.352   4.056   7.187 -0.2816 -0.1695 -0.2497
18851SOL    HW158275   0.446   4.040   7.180 -0.4992 -2.0141  0.4995
18851SOL    HW258276   0.317   4.028   7.102 -0.0153  2.3151 -1.2856
18852SOL     OW58277   5.712   7.486   0.544 -0.5145 -0.0416  0.0443
18852SOL    HW158278   5.664   7.566   0.520 -0.6894  0.2163  1.2224
18852SOL    HW258279   5.696   7.427   0.470  0.7291  1.4517 -1.5000
18853SOL     OW58280   1.439   9.624   4.493 -0.4861  0.0310  0.3381
18853SOL    HW158281   1.346   9.626   4.517 -0.5149  1.1476  0.1839
18853SOL    HW258282   1.465   9.716   4.487  0.3653 -0.2431 -0.6556
18854SOL     OW58283   1.066   7.536   6.443  0.2905  0.4231 -0.4296
18854SOL    HW158284   0.985   7.520   6.394  0.8245  0.1274 -1.2548
18854SOL    HW258285   1.128   7.471   6.408  0.0001 -1.6559  2.5229
18855SOL     OW58286   4.548   7.241   0.449  0.1763  0.2216 -0.2914
18855SOL    HW158287   4.512   7.184   0.517  1.6426 -0.9498 -0.4321
18855SOL    HW258288   4.597   7.307   0.498 -1.8764  1.7137 -0.1082
18856SOL     OW58289   0.308   8.936   3.491 -0.1091  0.6017 -0.1820
18856SOL    HW158290   0.375   8.933   3.423 -0.9723 -0.6029 -1.0307
18856SOL    HW258291   0.235   8.982   3.450 -0.3530  0.5647  0.2071
18857SOL     OW58292   4.771   8.493   7.330  0.4605  0.2890 -0.1339
18857SOL    HW158293   4.697   8.549   7.352 -0.7561 -0.9427 -0.9559
18857SOL    HW258294   4.843   8.555   7.312 -0.4352  1.5154  0.3581
18858SOL     OW58295   1.087   1.767   3.357 -0.4738 -0.1366  0.3318
18858SOL    HW158296   1.129   1.681   3.356  0.5013  0.2359  2.7685
18858SOL    HW258297   0.998   1.750   3.388 -0.7736 -0.4114 -0.6407
18859SOL     OW58298   1.203   1.103   3.871  0.6023 -0.1799 -0.5641
18859SOL    HW158299   1.144   1.174   3.846  1.6932  0.2799 -1.9527
18859SOL    HW258300   1.288   1.129   3.838  1.4766 -1.1555  0.7961
18860SOL     OW58301   4.738   4.006   2.860 -0.3000  0.0447  0.2564
18860SOL    HW158302   4.660   3.987   2.807  0.2976 -1.4288 -0.1299
18860SOL    HW258303   4.726   4.097   2.887 -0.8639  0.7161 -2.0319
18861SOL     OW58304   0.676   6.973   2.169  0.5350  0.2058 -0.4677
18861SOL    HW158305   0.739   7.010   2.107  1.7271 -0.0118  0.5546
18861SOL    HW258306   0.644   7.048   2.219  0.1746  0.2826 -0.8076
18862SOL     OW58307   6.116   4.870   2.020  0.3282 -0.4026  0.4407
18862SOL    HW158308   6.054   4.816   2.069 -1.1928 -0.7978 -1.7889
18862SOL    HW258309   6.167   4.808   1.968  1.7529  0.0218  1.2763
18863SOL     OW58310   1.615   7.362   0.952  0.2021 -0.2321 -0.0398
18863SOL    HW158311   1.682   7.352   1.020  0.4177 -2.3539 -0.5098
18863SOL    HW258312   1.594   7.273   0.925  0.6463  0.5064 -3.2834
18864SOL     OW58313   2.266   8.909   8.979  0.6945  0.4496  0.7095
18864SOL    HW158314   2.257   9.005   8.987  0.5804  0.5763 -0.7023
18864SOL    HW258315   2.183   8.881   8.941  0.4216 -0.3256  1.8493
18865SOL     OW58316   1.753   7.290   2.266 -0.0101 -0.3663  0.3443
18865SOL    HW158317   1.815   7.291   2.338  0.3929  0.4644 -0.0060
18865SOL    HW258318   1.805   7.311   2.188 -0.5985 -0.3654 -0.0617
18866SOL     OW58319   6.208   1.880   6.534  0.5655 -0.3562  0.2136
18866SOL    HW158320   6.140   1.855   6.597  1.7331 -0.9684  1.2724
18866SOL    HW258321   6.191   1.824   6.458 -0.2136 -0.3895  0.4060
18867SOL     OW58322   4.667   2.046   5.460 -0.3544  0.1770 -0.5688
18867SOL    HW158323   4.754   2.056   5.421 -0.3042  2.9372  0.0528
18867SOL    HW258324   4.619   2.123   5.430 -3.2904 -2.1631 -2.4038
18868SOL     OW58325   5.389   8.250   1.777 -0.2824 -0.2613  0.1343
18868SOL    HW158326   5.477   8.243   1.740 -0.5969 -3.2277 -0.3719
18868SOL    HW258327   5.333   8.276   1.704 -0.2918 -2.0291 -0.5446
18869SOL     OW58328   4.993   3.676   6.116  0.5229  0.0009 -0.0944
18869SOL    HW158329   4.937   3.711   6.186  0.5870  2.1160 -1.0206
18869SOL    HW258330   5.078   3.718   6.129  0.2997  1.1447 -1.8747
18870SOL     OW58331   8.898   9.595   4.957 -0.1816  0.1923 -0.1888
18870SOL    HW158332   8.949   9.573   4.879 -0.3424 -1.6434  0.1829
18870SOL    HW258333   8.831   9.528   4.962 -1.9896  1.9207 -0.0366
18871SOL     OW58334   8.964   9.166   9.655  0.3341  0.3771 -0.4728
18871SOL    HW158335   8.977   9.132   9.567 -0.9584  0.0083 -0.5354
18871SOL    HW258336   8.928   9.254   9.642 -1.0625 -0.1621 -0.3248
18872SOL     OW58337   5.782   2.505   7.331 -0.3582 -0.4914  0.2594
18872SOL    HW158338   5.817   2.586   7.366  0.6985 -0.7412 -0.1790
18872SOL    HW258339   5.825   2.436   7.381  1.4339 -0.8627 -1.6657
18873SOL     OW58340   2.805   6.161   3.731  0.0091 -0.0228  0.0583
18873SOL    HW158341   2.838   6.098   3.667  3.0441  0.2578  1.1932
18873SOL    HW258342   2.821   6.247   3.691  0.6134  0.1228  0.6004
18874SOL     OW58343   0.715   4.335   3.987 -0.0062  0.5858 -0.1384
18874SOL    HW158344   0.781   4.266   3.996  0.7908  1.2558 -0.7331
18874SOL    HW258345   0.646   4.310   4.048  1.8221  1.0507  2.2755
18875SOL     OW58346   8.964   7.991   9.556 -0.2736  0.8236  0.0365
18875SOL    HW158347   9.023   8.012   9.484  0.5276 -0.0989  0.4130
18875SOL    HW258348   8.880   7.971   9.513  0.4709 -0.7659 -0.7446
18876SOL     OW58349   6.716   5.624   3.819  0.6540 -0.0082 -0.5577
18876SOL    HW158350   6.637   5.571   3.824  1.6034 -1.4119  0.2854
18876SOL    HW258351   6.751   5.623   3.908  1.3420  1.0567 -0.7918
18877SOL     OW58352   6.381   3.444   2.720 -0.3701  0.3426  0.2694
18877SOL    HW158353   6.390   3.432   2.814 -0.9084 -0.0676  0.2755
18877SOL    HW258354   6.345   3.532   2.710 -2.3884 -0.3870  0.5842
18878SOL     OW58355   8.495   4.053   2.686 -0.0137 -0.0197  0.0509
18878SOL    HW158356   8.485   4.112   2.611  0.3831 -0.8703 -0.7019
18878SOL    HW258357   8.413   4.062   2.734 -0.8237 -0.3927 -1.1969
18879SOL     OW58358   2.134   8.245   5.839 -0.0137  0.0529  0.4165
18879SOL    HW158359   2.048   8.280   5.816 -0.3262 -2.1336 -2.2289
18879SOL    HW258360   2.195   8.293   5.784  0.5049  1.3497  2.0344
18880SOL     OW58361   6.706   4.079   0.846  0.5526  0.1233 -0.4140
18880SOL    HW158362   6.777   4.015   0.857  1.3830  0.7928 -1.5687
18880SOL    HW258363   6.664   4.055   0.763 -0.0669  0.1999 -0.1265
18881SOL     OW58364   0.429   6.214   6.906 -0.0457 -0.2688  0.5536
18881SOL    HW158365   0.360   6.163   6.950 -2.4739  1.6492 -0.7691
18881SOL    HW258366   0.400   6.219   6.815  1.6565  0.9580  0.0379
18882SOL     OW58367   6.606   6.981   5.747 -0.5060 -0.2545 -0.2917
18882SOL    HW158368   6.619   7.072   5.774 -2.0775 -0.1555  0.2693
18882SOL    HW258369   6.539   6.948   5.807  0.3079 -1.9119 -0.2434
18883SOL     OW58370   7.994   4.408   8.334 -0.2570 -0.1736 -0.1728
18883SOL    HW158371   7.904   4.438   8.350  0.1079  0.9884 -0.1873
18883SOL    HW258372   8.042   4.438   8.411  0.2489 -0.2213 -0.4717
18884SOL     OW58373   7.958   4.331   5.161  0.3217 -0.2721  0.3016
18884SOL    HW158374   7.964   4.418   5.121 -1.8937 -0.4700 -0.5830
18884SOL    HW258375   8.032   4.283   5.124  1.0485  0.9541  0.1061
18885SOL     OW58376   6.729   4.905   0.792  0.9418 -0.4837  0.0620
18885SOL    HW158377   6.771   4.833   0.745  0.1914 -0.9784  0.1354
18885SOL    HW258378   6.658   4.864   0.841  0.1766  0.3680 -0.3015
18886SOL     OW58379   6.622   1.125   9.557  0.1537 -0.3464 -0.5174
18886SOL    HW158380   6.534   1.090   9.540 -0.2787 -1.0468  2.5384
18886SOL    HW258381   6.681   1.058   9.525 -0.4678 -0.7200 -0.9094
18887SOL     OW58382   2.936   5.344   6.595  0.5216  0.5512  0.3828
18887SOL    HW158383   2.929   5.254   6.561  2.3194 -0.4629  2.4296
18887SOL    HW258384   2.931   5.399   6.518 -1.6282 -1.2238 -0.8696
18888SOL     OW58385   2.896   5.027   5.926 -0.6821  0.3268  0.2182
18888SOL    HW158386   2.845   5.105   5.949 -0.2520  0.8635 -0.5744
18888SOL    HW258387   2.868   5.006   5.837 -0.5220 -0.2018  0.2919
18889SOL     OW58388   6.342   4.563   5.087  0.2309 -0.4979 -0.3281
18889SOL    HW158389   6.266   4.541   5.034 -1.1594 -1.6325  1.9886
18889SOL    HW258390   6.306   4.585   5.173  2.4957 -0.7203  0.7541
18890SOL     OW58391   8.669   4.553   5.788  0.8112  0.6742 -0.1945
18890SOL    HW158392   8.735   4.543   5.719  0.6381  0.5882 -0.3480
18890SOL    HW258393   8.603   4.611   5.751 -0.0301 -0.5296 -0.6567
18891SOL     OW58394   3.075   3.370   6.797 -0.4436  0.0575 -0.2464
18891SOL    HW158395   3.091   3.299   6.734  1.6305 -0.7204  1.0447
18891SOL    HW258396   3.012   3.333   6.858  1.4683 -1.2327  1.0839
18892SOL     OW58397   9.695   3.611   0.172  0.3427  0.1953  0.0491
18892SOL    HW158398   9.751   3.683   0.142 -0.2759  1.1115  1.0203
18892SOL    HW258399   9.616   3.654   0.203  0.0712 -0.8921  0.9105
18893SOL     OW58400   1.448   6.199   2.291  0.1443 -0.0486  0.0366
18893SOL    HW158401   1.427   6.112   2.259 -0.0917  0.2863 -0.7506
18893SOL    HW258402   1.488   6.244   2.216  1.7267  0.0234  0.8811
18894SOL     OW58403   1.830   2.443   7.222 -0.1922 -0.3198  0.0297
18894SOL    HW158404   1.877   2.417   7.301 -0.4908  0.0890  0.3476
18894SOL    HW258405   1.898   2.471   7.161  0.0193 -0.3394  0.2576
18895SOL     OW58406   3.804   2.662   4.370 -0.2949 -0.3718  0.4293
18895SOL    HW158407   3.774   2.581   4.411 -0.5296  1.6029  4.8033
18895SOL    HW258408   3.733   2.725   4.387  1.2645  1.5373  0.2284
18896SOL     OW58409   0.764   2.430   1.690 -0.1328 -0.2606 -0.0397
18896SOL    HW158410   0.828   2.370   1.653  0.5903  0.3924  0.1157
18896SOL    HW258411   0.783   2.431   1.784 -0.6266 -0.3602  0.0627
18897SOL     OW58412   3.852   4.420   8.645 -0.1795 -0.1876  0.6345
18897SOL    HW158413   3.845   4.481   8.718  0.1149  0.0506  0.4649
18897SOL    HW258414   3.762   4.406   8.617 -0.1533  1.6031 -0.4999
18898SOL     OW58415   3.387   6.922   5.440  0.2639 -0.3209 -0.4015
18898SOL    HW158416   3.450   6.878   5.383  0.8355  0.9636 -0.8120
18898SOL    HW258417   3.302   6.901   5.403  0.5674 -0.4991 -1.0099
18899SOL     OW58418   6.973   6.400   1.956  0.6965  0.7497  0.5761
18899SOL    HW158419   7.068   6.409   1.949  0.4988  1.9669 -1.4132
18899SOL    HW258420   6.949   6.350   1.878 -0.4465  1.9334  0.1452
18900SOL     OW58421   7.716   4.510   3.099 -0.1176  0.0824  0.0005
18900SOL    HW158422   7.761   4.546   3.176 -0.6624 -3.3186  2.1476
18900SOL    HW258423   7.630   4.553   3.100  0.0325  0.4149  1.0571
18901SOL     OW58424   9.437   5.755   2.075 -0.3921 -0.0141 -0.0317
18901SOL    HW158425   9.494   5.684   2.047 -2.2353 -1.5095 -0.1935
18901SOL    HW258426   9.364   5.754   2.012 -0.7399  1.6445  0.3047
18902SOL     OW58427   3.500   5.923   3.308 -0.3575  0.0374 -0.1864
18902SOL    HW158428   3.490   5.873   3.389 -2.0330 -0.8272 -0.8905
18902SOL    HW258429   3.532   5.859   3.244 -2.1047 -0.0902 -0.9866
18903SOL     OW58430   4.194   8.640   1.509 -0.3077 -1.0456  0.4514
18903SOL    HW158431   4.142   8.572   1.467 -2.6087  0.0794  1.3125
18903SOL    HW258432   4.267   8.593   1.550  0.1774 -2.5269 -1.8740
18904SOL     OW58433   3.485   6.051   3.979 -0.1865  0.1217 -0.8096
18904SOL    HW158434   3.444   5.996   3.912 -2.5063 -0.5963  1.0352
18904SOL    HW258435   3.438   6.134   3.974  0.3437  0.4252 -0.7697
18905SOL     OW58436   8.424   4.548   3.051  0.3135 -0.2551 -0.0911
18905SOL    HW158437   8.466   4.466   3.078  1.5375 -0.1159 -1.4382
18905SOL    HW258438   8.497   4.608   3.037 -0.5718  1.1472  1.0466
18906SOL     OW58439   5.176   3.375   2.895 -0.5488 -0.2168 -0.2816
18906SOL    HW158440   5.126   3.449   2.860 -0.7327 -0.4310 -0.4720
18906SOL    HW258441   5.120   3.337   2.962 -0.5872 -0.3785 -0.4052
18907SOL     OW58442   3.977   5.490   2.416  0.0521 -0.1431 -0.2557
18907SOL    HW158443   4.043   5.549   2.452 -0.0768  1.6218 -2.7001
18907SOL    HW258444   3.895   5.518   2.458  0.2204  0.4951 -0.3438
18908SOL     OW58445   8.024   1.698   6.381  0.2974  0.0401 -0.0362
18908SOL    HW158446   7.989   1.759   6.446  0.1646 -0.7398  0.6260
18908SOL    HW258447   8.082   1.752   6.327 -0.9967  1.1059 -0.4282
18909SOL     OW58448   2.386   4.897   0.637  0.5582 -0.6769  0.2009
18909SOL    HW158449   2.404   4.978   0.591 -0.3597 -0.5746  0.0116
18909SOL    HW258450   2.472   4.857   0.650  0.8005 -1.5396 -3.0822
18910SOL     OW58451   1.986   3.653   7.769 -0.1536 -0.0987  0.3504
18910SOL    HW158452   1.965   3.615   7.854  0.4290  0.0196  0.5496
18910SOL    HW258453   1.919   3.720   7.755  0.4614  0.7293  1.2744
18911SOL     OW58454   2.172   6.567   5.398  0.6387  0.1048  0.0427
18911SOL    HW158455   2.177   6.526   5.311  0.2949  0.3830 -0.1098
18911SOL    HW258456   2.140   6.655   5.381  0.5585  0.1559  0.4572
18912SOL     OW58457   4.039   8.016   1.020  0.4121 -0.2005 -0.2096
18912SOL    HW158458   3.988   8.046   0.945 -0.0339 -0.7740 -0.1439
18912SOL    HW258459   4.092   8.091   1.046 -3.1039  1.7463  2.0964
18913SOL     OW58460   6.623   6.983   8.945 -0.1626  0.3186  0.7316
18913SOL    HW158461   6.699   6.984   8.887 -0.6894 -0.2823 -0.0050
18913SOL    HW258462   6.622   7.069   8.987  2.0755 -0.3521  2.3186
18914SOL     OW58463   5.587   3.539   8.040 -0.3401 -0.4135 -0.0032
18914SOL    HW158464   5.559   3.620   8.084  0.9995  0.2703 -0.3773
18914SOL    HW258465   5.547   3.544   7.953 -0.4947 -0.3021  0.0734
18915SOL     OW58466   0.648   4.036   7.163 -0.7673 -0.1302 -0.3972
18915SOL    HW158467   0.719   3.972   7.165  1.4606  1.9816 -3.0347
18915SOL    HW258468   0.666   4.094   7.237  0.3259  0.3464 -1.0003
18916SOL     OW58469   0.080   4.934   4.738 -0.3920 -0.2239  0.0456
18916SOL    HW158470   0.127   4.962   4.816 -3.4548 -0.8848  2.3092
18916SOL    HW258471   0.114   4.847   4.719  1.8428  0.7447 -0.7460
18917SOL     OW58472   8.707   1.917   6.461 -0.1748  0.3496  0.3420
18917SOL    HW158473   8.659   1.910   6.378  0.1933  1.6289  0.0040
18917SOL    HW258474   8.799   1.910   6.436 -0.0869 -2.6082  1.0431
18918SOL     OW58475   6.188   1.465   4.375 -0.4885 -0.1050  0.3754
18918SOL    HW158476   6.182   1.549   4.328 -0.4926  0.4636  1.3756
18918SOL    HW258477   6.141   1.479   4.457  0.2744 -0.7972  0.9524
18919SOL     OW58478   7.401   5.548   0.093  0.3344  0.5151  0.7316
18919SOL    HW158479   7.380   5.484   0.161  1.7014  0.8199  1.4870
18919SOL    HW258480   7.426   5.496   0.017  0.8421  0.1417  1.1485
18920SOL     OW58481   6.678   7.793   1.029  0.2142  0.4371  0.5202
18920SOL    HW158482   6.715   7.722   1.081  1.7728  0.1739 -0.8855
18920SOL    HW258483   6.750   7.854   1.016 -0.4522  1.0670 -0.3726
18921SOL     OW58484   9.303   3.156   6.853  0.0290 -0.2086  0.1947
18921SOL    HW158485   9.286   3.248   6.874 -0.9426 -0.2425 -0.3642
18921SOL    HW258486   9.328   3.116   6.936  1.0366  0.6751  0.3385
18922SOL     OW58487   6.552   0.445   1.592 -0.6557  0.0417  0.2512
18922SOL    HW158488   6.577   0.353   1.580 -1.0763  0.1740 -2.4242
18922SOL    HW258489   6.499   0.445   1.671 -4.7948 -3.0643 -2.0845
18923SOL     OW58490   5.716   3.861   0.706 -0.2354 -0.5542 -0.1694
18923SOL    HW158491   5.678   3.869   0.619  0.0927 -0.8997 -0.3471
18923SOL    HW258492   5.708   3.949   0.744 -1.0484 -0.5823 -0.2657
18924SOL     OW58493   6.798   5.578   9.308 -0.1087 -0.6185 -0.0418
18924SOL    HW158494   6.881   5.578   9.356 -0.1575 -2.5460  0.0974
18924SOL    HW258495   6.823   5.575   9.216 -0.0379  1.8540 -0.1845
18925SOL     OW58496   2.002   7.159   2.663 -0.0562  0.3461 -0.6091
18925SOL    HW158497   1.965   7.091   2.719  0.3893  1.7474  1.4720
18925SOL    HW258498   2.078   7.117   2.622  0.6568 -0.2375  1.1998
18926SOL     OW58499   7.499   8.442   4.169 -0.2249 -0.0457 -0.1748
18926SOL    HW158500   7.571   8.410   4.115 -1.4454 -1.2344 -1.1860
18926SOL    HW258501   7.422   8.437   4.112 -1.2281  0.5673  1.0656
18927SOL     OW58502   7.066   4.319   6.726 -0.0977  0.0662 -0.1232
18927SOL    HW158503   7.047   4.232   6.762 -0.8389 -0.1215 -0.9460
18927SOL    HW258504   7.009   4.378   6.776  0.0253  0.0130  0.0816
18928SOL     OW58505   7.342   3.546   7.589 -0.4707 -0.2891  0.6785
18928SOL    HW158506   7.339   3.463   7.541 -2.8658 -0.5015  1.0422
18928SOL    HW258507   7.253   3.581   7.580  0.7695  2.9255 -0.5552
18929SOL     OW58508   3.427   0.601   3.650  0.0398  0.2723  0.2194
18929SOL    HW158509   3.383   0.522   3.681  1.8395 -0.0921  2.0120
18929SOL    HW258510   3.505   0.569   3.604  1.4693  0.9732  2.0583
18930SOL     OW58511   9.374   6.357   7.284 -0.3589 -0.2695 -0.2007
18930SOL    HW158512   9.306   6.294   7.307  0.4742 -0.9948  0.3538
18930SOL    HW258513   9.444   6.341   7.347  0.1181  0.8138 -0.4306
18931SOL     OW58514   1.457   1.625   9.229  0.2016  0.1260  0.1725
18931SOL    HW158515   1.537   1.676   9.220  1.1460 -0.8635  2.2701
18931SOL    HW258516   1.387   1.689   9.216  1.3271  1.3955  0.0790
18932SOL     OW58517   3.553   6.792   6.100  0.1455 -0.2629  0.5281
18932SOL    HW158518   3.498   6.840   6.163  1.8182  2.9322 -0.2082
18932SOL    HW258519   3.511   6.807   6.015  0.8502  0.2456  0.2547
18933SOL     OW58520   1.087   6.585   1.560  0.5083 -0.0849  0.2062
18933SOL    HW158521   1.035   6.524   1.507  0.4392 -2.2860  2.5888
18933SOL    HW258522   1.064   6.671   1.526 -2.4049 -1.1282 -0.8219
18934SOL     OW58523   8.172   1.894   6.216  0.5278 -0.4738 -0.5240
18934SOL    HW158524   8.213   1.943   6.288 -2.2474  0.8960  0.2706
18934SOL    HW258525   8.215   1.927   6.138  2.5059 -0.8167  0.3586
18935SOL     OW58526   1.855   3.207   3.738 -0.4341  0.2623  0.0312
18935SOL    HW158527   1.814   3.257   3.668  0.4415  0.4438 -0.3650
18935SOL    HW258528   1.832   3.255   3.818 -0.3649  0.7780 -0.2555
18936SOL     OW58529   1.250   7.608   3.870 -0.7853 -0.2855 -0.7429
18936SOL    HW158530   1.183   7.675   3.882  0.7364  1.1382  0.1861
18936SOL    HW258531   1.304   7.614   3.948  0.3128 -1.5505 -1.3671
18937SOL     OW58532   6.965   8.992   5.394  0.2303 -0.0091 -0.0881
18937SOL    HW158533   7.057   9.007   5.412  0.2080  1.1018 -0.8143
18937SOL    HW258534   6.958   8.994   5.298 -0.8439  1.9802 -0.0232
18938SOL     OW58535   7.599   3.977   6.883  0.1063  0.1410 -0.3016
18938SOL    HW158536   7.564   3.998   6.970 -2.0261  1.6121 -1.4323
18938SOL    HW258537   7.624   3.885   6.889  0.8755  0.4148  2.0959
18939SOL     OW58538   1.443   0.485   7.478 -0.2536 -0.3960  0.1788
18939SOL    HW158539   1.398   0.565   7.450  2.8962  1.2768 -0.5935
18939SOL    HW258540   1.481   0.450   7.398 -0.0667 -1.6620  0.8003
18940SOL     OW58541   2.420   5.158   5.288  0.1018 -0.1266 -0.1346
18940SOL    HW158542   2.514   5.177   5.284  0.2875 -1.1350 -1.7471
18940SOL    HW258543   2.394   5.145   5.196 -1.6306  0.1859  0.2767
18941SOL     OW58544   6.887   2.615   9.187  0.0654  0.2430 -0.7984
18941SOL    HW158545   6.916   2.584   9.272  0.4409  0.4952 -0.8279
18941SOL    HW258546   6.792   2.616   9.192  0.1046  1.8265  0.2044
18942SOL     OW58547   5.164   0.498   3.891 -0.2626 -0.0410  0.0163
18942SOL    HW158548   5.177   0.579   3.841  0.3603  0.5519  1.0899
18942SOL    HW258549   5.247   0.485   3.938  0.7091 -2.8420 -2.2264
18943SOL     OW58550   5.035   1.192   3.413  0.1108 -0.2144  0.4921
18943SOL    HW158551   5.108   1.207   3.472 -0.6849  0.3809  1.3608
18943SOL    HW258552   4.994   1.111   3.444 -1.3112  0.9564  1.8924
18944SOL     OW58553   0.155   6.882   8.691  0.2797 -0.3969  0.1980
18944SOL    HW158554   0.174   6.966   8.733  1.8120 -1.2112  1.2311
18944SOL    HW258555   0.240   6.842   8.675 -0.2903 -0.6829 -2.6976
18945SOL     OW58556   2.750   8.442   9.398 -0.8012 -0.6799 -0.1899
18945SOL    HW158557   2.784   8.367   9.446 -0.8734  0.8512  2.4086
18945SOL    HW258558   2.815   8.457   9.328  0.0255 -2.1732  0.2249
18946SOL     OW58559   9.061   5.568   5.009  0.3607 -0.2558 -0.0946
18946SOL    HW158560   9.085   5.489   5.058  2.2025  0.0112 -0.4811
18946SOL    HW258561   8.998   5.538   4.944  1.8679 -1.6886 -0.9727
18947SOL     OW58562   1.428   5.325   9.244  0.0647 -0.3809  0.1873
18947SOL    HW158563   1.341   5.347   9.277  0.9770  0.8011  1.9806
18947SOL    HW258564   1.457   5.403   9.197  1.1949  0.3162  1.9490
18948SOL     OW58565   5.507   1.778   2.514  0.2166 -0.0428  0.5973
18948SOL    HW158566   5.563   1.729   2.454 -0.6402 -0.9225  0.4978
18948SOL    HW258567   5.517   1.733   2.598 -1.6055 -1.2745  0.2080
18949SOL     OW58568   8.344   4.581   8.327  0.4279  0.1448 -0.2169
18949SOL    HW158569   8.336   4.487   8.311  1.5581  0.0916 -0.5099
18949SOL    HW258570   8.418   4.590   8.386 -0.4565  0.7730  0.8468
18950SOL     OW58571   3.015   4.121   6.377 -0.1317  0.5335 -0.2572
18950SOL    HW158572   3.075   4.165   6.316 -0.4971  1.4122  0.0087
18950SOL    HW258573   2.930   4.124   6.333 -0.0790 -0.3413 -0.4441
18951SOL     OW58574   2.632   6.310   6.904 -0.8486 -0.2254  0.5521
18951SOL    HW158575   2.586   6.318   6.820 -0.5399  2.4606  0.5353
18951SOL    HW258576   2.697   6.241   6.890 -1.2952 -0.3384 -1.1769
18952SOL     OW58577   2.029   4.022   7.287  0.5763  0.0176  0.9026
18952SOL    HW158578   2.027   3.929   7.310 -0.0440  0.3601  2.3668
18952SOL    HW258579   1.952   4.036   7.232  1.0154 -0.4508  0.1623
18953SOL     OW58580   4.482   5.502   4.217  0.1564 -0.5121 -0.1444
18953SOL    HW158581   4.511   5.421   4.258 -2.4875 -0.5399  1.9143
18953SOL    HW258582   4.387   5.496   4.215 -0.0767  2.0753 -0.9580
18954SOL     OW58583   6.789   2.757   4.702  1.3618  0.3405 -0.0200
18954SOL    HW158584   6.696   2.768   4.720  1.5561  1.3098  0.4341
18954SOL    HW258585   6.796   2.668   4.666  0.3178  0.1264  0.2742
18955SOL     OW58586   5.683   5.453   8.154 -0.1358 -0.1778  0.0810
18955SOL    HW158587   5.683   5.546   8.132 -0.3080 -0.3471 -0.6670
18955SOL    HW258588   5.667   5.450   8.248  2.2500  0.6443  0.5862
18956SOL     OW58589   8.036   9.598   4.699 -0.5472 -0.2747 -0.3665
18956SOL    HW158590   8.111   9.538   4.697 -0.1450  0.2363 -1.5037
18956SOL    HW258591   7.994   9.581   4.784  0.6817 -0.7808  0.1725
18957SOL     OW58592   6.704   6.885   9.217 -0.0180  0.3210 -0.7651
18957SOL    HW158593   6.733   6.968   9.257 -0.0867 -0.1100  0.2012
18957SOL    HW258594   6.764   6.872   9.144  2.3224 -0.5419  1.1820
18958SOL     OW58595   8.565   7.238   4.893  0.4060  0.0381 -0.5298
18958SOL    HW158596   8.600   7.325   4.911 -1.0522  0.3095  1.2551
18958SOL    HW258597   8.632   7.178   4.927 -0.4511  0.5382  2.2917
18959SOL     OW58598   7.054   0.801   7.064 -0.3978  0.0763 -0.3846
18959SOL    HW158599   7.125   0.758   7.112 -0.9473  0.3224  0.6914
18959SOL    HW258600   7.089   0.887   7.042 -0.0479 -0.1321 -0.6490
18960SOL     OW58601   3.732   7.243   4.794 -0.0543 -0.3200  0.0764
18960SOL    HW158602   3.713   7.332   4.762  0.7719 -1.0117 -2.6117
18960SOL    HW258603   3.646   7.207   4.816 -0.4479  0.9652  0.8005
18961SOL     OW58604   7.605   4.932   0.202  0.2476 -0.0556 -0.3753
18961SOL    HW158605   7.569   5.021   0.209  1.5994  0.3838  1.9161
18961SOL    HW258606   7.589   4.907   0.111 -2.4262  1.5291 -0.4532
18962SOL     OW58607   5.588   3.081   4.365  0.0884 -0.7441 -0.1569
18962SOL    HW158608   5.574   3.162   4.415 -3.0672 -0.9879 -0.4199
18962SOL    HW258609   5.658   3.103   4.303  0.5419  1.1906  0.9601
18963SOL     OW58610   5.300   0.253   0.543 -0.4756 -0.3616 -0.6487
18963SOL    HW158611   5.227   0.212   0.589 -1.7502  0.0698 -2.1967
18963SOL    HW258612   5.318   0.195   0.469 -1.3090  1.0305 -2.0040
18964SOL     OW58613   4.356   2.739   0.272 -0.8484  0.6048  0.1770
18964SOL    HW158614   4.434   2.684   0.277 -1.3965 -0.1636  0.6154
18964SOL    HW258615   4.306   2.716   0.350 -0.8702  2.1020  0.6295
18965SOL     OW58616   9.408   1.224   5.413  0.0962  0.2517  0.4683
18965SOL    HW158617   9.334   1.278   5.386  1.2729  1.7282  0.0421
18965SOL    HW258618   9.426   1.250   5.503 -0.7308 -1.1184  1.0702
18966SOL     OW58619   9.408   5.341   4.840 -0.0831 -0.1333 -0.2265
18966SOL    HW158620   9.344   5.351   4.769 -1.3550  0.5562  0.9634
18966SOL    HW258621   9.363   5.288   4.905  0.2627  0.9576  0.9438
18967SOL     OW58622   4.354   4.353   0.552  0.3678  0.1053 -0.8762
18967SOL    HW158623   4.307   4.305   0.620  1.8089 -2.6715 -1.7051
18967SOL    HW258624   4.403   4.420   0.599 -1.5678  0.7606  0.3431
18968SOL     OW58625   4.771   0.890   7.557  0.1815 -0.0654  0.0330
18968SOL    HW158626   4.683   0.914   7.529 -0.6100  0.1466  2.4142
18968SOL    HW258627   4.824   0.968   7.541 -0.5835  0.5750  0.5370
18969SOL     OW58628   1.269   4.484   1.443  0.0754  0.2357  0.7208
18969SOL    HW158629   1.184   4.527   1.443  0.2910  0.6725  1.0158
18969SOL    HW258630   1.313   4.519   1.366  0.7412  1.5695  1.6503
18970SOL     OW58631   5.773   3.299   4.943 -0.0829  0.0814 -0.4558
18970SOL    HW158632   5.830   3.327   5.014  0.7940 -0.3736 -0.9556
18970SOL    HW258633   5.686   3.329   4.968  0.5009  1.5314 -0.0554
18971SOL     OW58634   3.719   0.540   4.717  0.3776  0.1310 -0.3607
18971SOL    HW158635   3.739   0.542   4.623 -0.6402  2.8521 -0.5957
18971SOL    HW258636   3.630   0.575   4.723  0.0385 -0.9549  1.5655
18972SOL     OW58637   0.214   1.112   7.769  0.0815 -0.4738 -0.0237
18972SOL    HW158638   0.297   1.153   7.743 -0.3186 -1.3218 -2.9706
18972SOL    HW258639   0.215   1.115   7.865  2.5283  1.4381 -0.0095
18973SOL     OW58640   4.930   5.998   6.067  0.1608  0.1288 -0.0777
18973SOL    HW158641   5.021   5.970   6.063  0.1818  0.1956 -0.0732
18973SOL    HW258642   4.894   5.950   6.142  0.6208  1.3250  0.9394
18974SOL     OW58643   6.908   6.114   5.047  0.0581  0.1660 -0.6073
18974SOL    HW158644   6.984   6.128   4.991  0.1249  1.7868 -0.1661
18974SOL    HW258645   6.894   6.019   5.046  2.8380 -0.3458  0.2578
18975SOL     OW58646   5.630   1.318   8.059 -0.0381 -0.1907 -0.2774
18975SOL    HW158647   5.600   1.371   7.985 -1.9948 -1.0926 -0.1999
18975SOL    HW258648   5.722   1.300   8.040 -0.0736  0.9185 -1.6817
18976SOL     OW58649   6.648   3.477   2.067  0.1704 -0.0271 -0.4795
18976SOL    HW158650   6.675   3.441   1.982  0.0308 -0.3328 -0.3949
18976SOL    HW258651   6.690   3.421   2.131 -0.7291 -0.5625 -0.3444
18977SOL     OW58652   3.346   2.951   9.187  0.1786 -0.0454  0.1110
18977SOL    HW158653   3.381   3.024   9.239  0.7404 -0.6966  0.6771
18977SOL    HW258654   3.251   2.962   9.192  0.2661  1.0607 -0.4273
18978SOL     OW58655   1.902   9.655   3.048  0.0158 -0.5501 -0.1929
18978SOL    HW158656   1.994   9.668   3.024 -0.1467 -1.6196 -1.4944
18978SOL    HW258657   1.900   9.569   3.090 -0.3192 -0.3430  0.2183
18979SOL     OW58658   7.587   6.803   9.259 -0.1940  0.5750  0.6934
18979SOL    HW158659   7.592   6.785   9.353 -0.3349  1.0513  0.7937
18979SOL    HW258660   7.679   6.801   9.230 -0.1337  0.6460  0.8804
18980SOL     OW58661   3.728   4.719   0.358  0.0092 -0.3178 -0.3056
18980SOL    HW158662   3.675   4.647   0.325  0.9150 -0.5361 -1.3603
18980SOL    HW258663   3.754   4.767   0.279  1.5739 -0.3865  0.1348
18981SOL     OW58664   2.545   1.966   5.670 -0.1294  0.2392  0.1332
18981SOL    HW158665   2.566   1.897   5.733  2.0797 -0.3657 -1.1271
18981SOL    HW258666   2.579   2.046   5.708  1.7876 -0.2256 -0.4691
18982SOL     OW58667   3.607   5.454   3.223  0.0159  0.3416 -0.2232
18982SOL    HW158668   3.673   5.466   3.155  0.7388 -1.0714  0.1814
18982SOL    HW258669   3.657   5.451   3.305 -0.4684 -1.1156  0.0580
18983SOL     OW58670   6.699   0.662   3.544  0.0464  0.4303 -0.5728
18983SOL    HW158671   6.639   0.589   3.528  1.7252 -1.0814 -0.2359
18983SOL    HW258672   6.746   0.638   3.624 -0.5081  2.6906  0.5166
18984SOL     OW58673   3.183   2.632   1.150  0.2331 -0.2998  0.5412
18984SOL    HW158674   3.173   2.668   1.238 -0.4073 -1.5922  1.0264
18984SOL    HW258675   3.118   2.679   1.097  0.6497  0.5109  0.7375
18985SOL     OW58676   8.074   2.992   8.506  0.5937 -0.0114  0.3750
18985SOL    HW158677   8.040   2.951   8.426 -0.9084 -0.7109  1.3256
18985SOL    HW258678   8.122   3.068   8.474  0.0408 -0.2699 -1.2074
18986SOL     OW58679   6.964   1.288   5.015  1.0427  0.1672 -0.2207
18986SOL    HW158680   6.957   1.264   4.922  3.0575 -0.3628 -0.2921
18986SOL    HW258681   6.926   1.213   5.062 -0.7256  0.7864 -0.5915
18987SOL     OW58682   1.853   8.422   4.333 -0.0972  0.6556 -0.0257
18987SOL    HW158683   1.924   8.368   4.298 -0.8129 -0.4504  0.1738
18987SOL    HW258684   1.796   8.438   4.257  0.0288  1.0089 -0.0485
18988SOL     OW58685   3.908   9.684   1.305  0.0816  0.4136 -0.4750
18988SOL    HW158686   3.842   9.752   1.319 -0.1402 -0.1935  1.8216
18988SOL    HW258687   3.989   9.733   1.287 -0.2162  1.2796  0.4541
18989SOL     OW58688   6.703   2.616   6.168  0.1083 -0.3572  0.0264
18989SOL    HW158689   6.787   2.613   6.121 -0.0761  1.3160 -0.4889
18989SOL    HW258690   6.722   2.666   6.247 -0.3782 -0.0482 -0.0525
18990SOL     OW58691   4.260   1.763   2.539 -0.0172  0.3225 -0.0681
18990SOL    HW158692   4.291   1.705   2.469  1.0923  0.3747  0.3584
18990SOL    HW258693   4.307   1.734   2.617 -4.9581 -3.3119  2.1239
18991SOL     OW58694   6.748   6.144   5.718 -0.8739  0.4244 -0.4962
18991SOL    HW158695   6.687   6.076   5.747 -1.0352  0.5409 -0.5622
18991SOL    HW258696   6.804   6.160   5.793 -4.0521  3.9498  1.4512
18992SOL     OW58697   5.077   9.534   5.562  0.3422 -0.5879  0.7310
18992SOL    HW158698   5.171   9.546   5.575  0.1050  0.5635  1.6064
18992SOL    HW258699   5.037   9.580   5.636 -0.8922 -1.9371  0.9525
18993SOL     OW58700   1.668   9.505   2.106  0.2778 -0.2101  0.4475
18993SOL    HW158701   1.699   9.416   2.091  0.9411 -0.1696  1.4966
18993SOL    HW258702   1.578   9.494   2.138  0.4454 -0.5107  0.8129
18994SOL     OW58703   0.397   8.017   2.406 -0.2556 -0.2337  0.0898
18994SOL    HW158704   0.455   8.014   2.329  2.4016 -0.3612  1.9633
18994SOL    HW258705   0.375   7.925   2.423 -0.0216 -0.2956  0.0636
18995SOL     OW58706   3.175   8.730   8.079 -0.0768  0.1185  0.2296
18995SOL    HW158707   3.214   8.642   8.083  0.2668  0.2435 -0.2590
18995SOL    HW258708   3.209   8.767   7.998 -0.7708  0.4501  0.0850
18996SOL     OW58709   3.810   6.640   9.259 -0.0296  0.2483 -0.2233
18996SOL    HW158710   3.760   6.714   9.226 -0.6128  0.0922  0.3031
18996SOL    HW258711   3.811   6.576   9.187  0.8417  0.9258 -0.8378
18997SOL     OW58712   5.345   1.872   4.436  0.1683 -0.0079 -0.1672
18997SOL    HW158713   5.323   1.958   4.400  2.7998  1.2524  1.0268
18997SOL    HW258714   5.374   1.821   4.360  2.0708  1.4059 -0.4632
18998SOL     OW58715   6.017   7.964   6.541 -0.1765 -0.2617 -0.3377
18998SOL    HW158716   6.064   7.881   6.552 -0.1417 -0.1783  0.1336
18998SOL    HW258717   5.927   7.943   6.564 -0.0206  0.0159  0.5277
18999SOL     OW58718   3.254   3.486   0.618 -0.2404 -0.2224  0.0609
18999SOL    HW158719   3.164   3.452   0.618 -0.9143  1.4727 -0.3325
18999SOL    HW258720   3.290   3.461   0.703 -0.8814 -1.3926  0.0071
19000SOL     OW58721   4.495   3.940   9.541  0.4728 -0.1326  0.5939
19000SOL    HW158722   4.472   3.997   9.615  3.9022  0.1047  1.6620
19000SOL    HW258723   4.578   3.899   9.567 -0.1513 -3.1019 -1.5506
19001SOL     OW58724   6.125   8.396   6.610 -0.6448 -0.4387 -0.2218
19001SOL    HW158725   6.200   8.429   6.561 -1.1725  2.8829  0.9500
19001SOL    HW258726   6.160   8.375   6.696 -0.7832 -0.4448 -0.1665
19002SOL     OW58727   0.083   5.107   8.108 -0.0136  0.4980  0.0472
19002SOL    HW158728   0.169   5.147   8.099 -0.6343  1.8318 -0.3181
19002SOL    HW258729   0.029   5.175   8.150 -1.3395  0.3993 -1.3969
19003SOL     OW58730   4.982   7.036   1.231 -0.4072 -0.4227  0.0042
19003SOL    HW158731   4.991   7.131   1.232  0.1695 -0.4392 -1.6262
19003SOL    HW258732   5.061   7.004   1.274  1.0421 -0.2072 -2.3430
19004SOL     OW58733   4.465   2.514   6.087  0.0634  0.2077  0.1093
19004SOL    HW158734   4.534   2.575   6.114 -1.6778  1.3238  2.4817
19004SOL    HW258735   4.463   2.520   5.992  4.5553 -1.5140 -0.3391
19005SOL     OW58736   8.470   3.703   2.673  0.4211  0.7640  0.2205
19005SOL    HW158737   8.425   3.632   2.627 -0.9090 -0.1057  2.6560
19005SOL    HW258738   8.399   3.751   2.716  1.6287  0.3900  2.7999
19006SOL     OW58739   1.100   5.771   9.005 -0.0232  0.2331 -0.2319
19006SOL    HW158740   1.130   5.839   8.944 -0.4748 -0.9637 -1.8751
19006SOL    HW258741   1.056   5.819   9.074 -1.0584  1.6309 -1.7700
19007SOL     OW58742   4.379   0.569   7.052 -0.2033  0.7830  0.1835
19007SOL    HW158743   4.301   0.599   7.004 -1.0202 -1.9934 -0.3751
19007SOL    HW258744   4.346   0.539   7.136 -0.0410 -1.6761 -0.5525
19008SOL     OW58745   5.440   0.539   3.942 -0.0530  0.0770  0.0238
19008SOL    HW158746   5.435   0.606   4.010  0.8604  0.1464  0.0359
19008SOL    HW258747   5.446   0.589   3.860 -0.3543 -0.0005 -0.0466
19009SOL     OW58748   1.348   6.992   2.446  0.9857 -0.0464 -0.0006
19009SOL    HW158749   1.422   7.049   2.424  0.0787  0.5371 -1.7779
19009SOL    HW258750   1.349   6.924   2.379 -0.2524  0.1665 -0.2696
19010SOL     OW58751   0.095   3.393   4.617 -0.1164  0.4275 -0.0059
19010SOL    HW158752   0.176   3.345   4.604 -0.2414 -1.2061  3.9198
19010SOL    HW258753   0.118   3.484   4.599  1.7757 -0.3009 -1.6407
19011SOL     OW58754   5.852   9.159   0.824  0.2304 -0.2492  0.1781
19011SOL    HW158755   5.861   9.068   0.854  2.8944 -1.0165 -2.4801
19011SOL    HW258756   5.830   9.152   0.732  0.9308  1.7960 -0.1965
19012SOL     OW58757   4.663   5.833   1.297 -0.1488  0.6448 -0.2402
19012SOL    HW158758   4.616   5.777   1.360  0.6880  2.2930  1.9619
19012SOL    HW258759   4.713   5.771   1.244  1.4307 -0.7728  2.6603
19013SOL     OW58760   4.114   1.895   3.338  0.5530  0.5574  0.5698
19013SOL    HW158761   4.176   1.821   3.342  0.6803  0.7048  1.6187
19013SOL    HW258762   4.060   1.877   3.260  0.0152 -1.0928  1.2803
19014SOL     OW58763   1.454   3.535   1.030  0.1741 -0.8602 -0.0190
19014SOL    HW158764   1.386   3.576   1.083  1.4205  0.0255  0.9633
19014SOL    HW258765   1.489   3.465   1.085 -0.8534 -2.2912 -1.0756
19015SOL     OW58766   1.988   5.365   2.181 -0.1229 -0.7800  0.4246
19015SOL    HW158767   2.074   5.324   2.187  0.6830  0.7531 -0.0160
19015SOL    HW258768   1.929   5.303   2.222  1.6590 -0.5028  3.7167
19016SOL     OW58769   2.666   3.276   8.669  1.0060  0.1855 -0.2899
19016SOL    HW158770   2.620   3.343   8.719  2.3338  1.3773 -0.6058
19016SOL    HW258771   2.755   3.311   8.657  2.3481 -2.4016  1.1302
19017SOL     OW58772   4.792   5.663   5.885 -0.5703 -0.1744 -0.0044
19017SOL    HW158773   4.887   5.674   5.895 -0.6232  0.9896 -0.5200
19017SOL    HW258774   4.762   5.749   5.855 -1.8389 -0.4345  0.4765
19018SOL     OW58775   1.145   3.710   9.630 -0.3083 -0.2986  0.0334
19018SOL    HW158776   1.059   3.738   9.600 -0.2898 -0.4279 -0.1469
19018SOL    HW258777   1.162   3.762   9.708 -0.3233  0.1076 -0.2295
19019SOL     OW58778   6.552   4.040   8.101 -0.0023  0.2650 -0.2387
19019SOL    HW158779   6.527   3.973   8.164  1.6734  0.2000  0.3871
19019SOL    HW258780   6.568   4.118   8.153 -1.5133  1.0710 -0.9191
19020SOL     OW58781   3.593   8.157   7.877 -0.5057 -0.3503  0.1836
19020SOL    HW158782   3.669   8.107   7.906 -0.7633 -0.4702  0.6776
19020SOL    HW258783   3.627   8.217   7.811  0.2534  0.4113  1.2264
19021SOL     OW58784   5.658   3.830   8.392  0.6307 -0.3241 -0.9474
19021SOL    HW158785   5.633   3.767   8.324 -0.1432 -1.1624  0.0675
19021SOL    HW258786   5.677   3.911   8.345 -1.4187 -0.4195 -2.0274
19022SOL     OW58787   5.517   7.236   2.900 -0.2159  0.0334  0.1783
19022SOL    HW158788   5.547   7.327   2.898  0.9955 -0.1896  3.0425
19022SOL    HW258789   5.422   7.243   2.913 -0.0223  0.9153  1.2434
19023SOL     OW58790   2.840   1.437   9.183 -0.1815 -0.1746  0.4062
19023SOL    HW158791   2.749   1.464   9.192 -0.3146 -0.0881 -0.9913
19023SOL    HW258792   2.847   1.406   9.093  1.2365  0.0582  0.4202
19024SOL     OW58793   8.650   3.170   8.013 -0.3750 -0.0864 -0.0871
19024SOL    HW158794   8.684   3.093   8.059 -0.5837  0.1508  0.4734
19024SOL    HW258795   8.617   3.226   8.083 -2.5587 -0.6011 -0.6558
19025SOL     OW58796   7.011   2.932   6.114 -0.4338 -0.3018 -0.1248
19025SOL    HW158797   7.054   2.849   6.091 -2.7444 -0.8845 -2.9537
19025SOL    HW258798   7.054   2.997   6.058 -1.7350 -0.5040 -1.3982
19026SOL     OW58799   8.855   7.747   1.884 -0.0341 -0.1965 -1.1858
19026SOL    HW158800   8.932   7.802   1.899  0.2193 -0.9066  0.2868
19026SOL    HW258801   8.882   7.686   1.815  0.1317  0.6318 -1.8721
19027SOL     OW58802   2.600   8.556   6.265 -0.0962  0.0481 -0.1208
19027SOL    HW158803   2.521   8.531   6.217 -0.6489 -0.7636  1.1354
19027SOL    HW258804   2.589   8.649   6.283  0.2427  0.4295 -1.7346
19028SOL     OW58805   2.560   4.928   2.085  0.0272 -0.3259  0.1339
19028SOL    HW158806   2.533   4.848   2.040  0.0667 -0.5136  0.4371
19028SOL    HW258807   2.556   4.905   2.178 -3.0210  0.9265  0.4363
19029SOL     OW58808   3.457   5.013   4.172 -0.4676 -0.0794 -0.0054
19029SOL    HW158809   3.447   4.974   4.260 -1.0113  1.2288  0.5430
19029SOL    HW258810   3.432   4.943   4.112 -1.3094 -0.6317  0.9486
19030SOL     OW58811   3.952   9.642   8.391 -0.2942 -0.5490  0.4839
19030SOL    HW158812   3.906   9.663   8.310  0.8176  0.1394  0.0046
19030SOL    HW258813   4.045   9.650   8.369  0.0341 -0.1315  1.8816
19031SOL     OW58814   8.998   8.327   8.196  0.2149 -0.1474  0.9699
19031SOL    HW158815   8.952   8.257   8.150  2.0374  0.6512 -2.3647
19031SOL    HW258816   8.956   8.407   8.166  0.4552  0.3754  1.9805
19032SOL     OW58817   4.563   6.129   0.332  0.5435 -0.3779 -0.1721
19032SOL    HW158818   4.548   6.055   0.392 -0.9101 -0.3991 -0.5127
19032SOL    HW258819   4.541   6.207   0.384  2.4908 -0.1170  0.3211
19033SOL     OW58820   8.705   3.028   2.792  0.2523 -0.3257 -0.1730
19033SOL    HW158821   8.634   3.006   2.853  0.3661 -1.6172 -0.4688
19033SOL    HW258822   8.731   3.117   2.817 -0.2299 -0.5217  1.1455
19034SOL     OW58823   4.918   7.471   4.660 -0.0373 -0.9107 -0.0093
19034SOL    HW158824   4.966   7.397   4.622 -1.5802 -0.4994 -3.1141
19034SOL    HW258825   4.833   7.469   4.616 -0.5406  2.0006  0.6616
19035SOL     OW58826   3.203   5.155   0.856 -0.2573 -0.0168 -0.5170
19035SOL    HW158827   3.288   5.167   0.814 -0.1611  0.2146 -0.2575
19035SOL    HW258828   3.208   5.208   0.936 -0.5859 -0.1307 -0.4203
19036SOL     OW58829   3.087   1.309   0.586  0.2345 -0.4219  0.0887
19036SOL    HW158830   3.003   1.278   0.552  0.9733 -0.4791 -1.8454
19036SOL    HW258831   3.140   1.322   0.508  2.6740 -2.2016  1.2974
19037SOL     OW58832   5.398   3.795   9.614  0.3296  0.1021  0.0499
19037SOL    HW158833   5.427   3.742   9.539  0.3430 -0.0771  0.1817
19037SOL    HW258834   5.356   3.732   9.673 -0.6227  0.4086 -0.2827
19038SOL     OW58835   9.161   6.261   8.053  0.0131  0.7215 -0.9496
19038SOL    HW158836   9.173   6.208   7.974  1.6623  1.9743 -1.5863
19038SOL    HW258837   9.244   6.307   8.064  1.0938 -1.6983  3.3255
19039SOL     OW58838   4.013   5.577   7.531 -0.9480  0.1773  0.3383
19039SOL    HW158839   4.001   5.584   7.436  0.4945  0.2366  0.1412
19039SOL    HW258840   3.954   5.506   7.557 -0.2964 -0.8581 -0.8543
19040SOL     OW58841   4.690   7.397   6.131  0.3500  0.5854  0.0332
19040SOL    HW158842   4.767   7.345   6.151  0.2107 -0.4272 -1.8561
19040SOL    HW258843   4.688   7.402   6.036 -1.8888  0.6166  0.0269
19041SOL     OW58844   7.603   4.400   0.448  0.3328  0.4645 -0.7446
19041SOL    HW158845   7.539   4.425   0.381 -0.0319  1.5445 -0.0190
19041SOL    HW258846   7.581   4.454   0.524  1.3794  0.0063 -0.0886
19042SOL     OW58847   6.224   2.710   7.622  0.2464  0.1171  0.0362
19042SOL    HW158848   6.223   2.801   7.591 -0.6389  0.8972  2.2057
19042SOL    HW258849   6.272   2.713   7.704  0.1874 -1.3891  0.1466
19043SOL     OW58850   6.143   3.768   7.489 -0.4748  0.3755  0.6709
19043SOL    HW158851   6.095   3.830   7.544  2.4059  1.0892  2.6063
19043SOL    HW258852   6.197   3.824   7.433  0.5380 -0.3574  0.8886
19044SOL     OW58853   2.919   7.942   5.350  0.4461  0.5013 -0.3751
19044SOL    HW158854   3.004   7.945   5.306  0.5964 -1.0638 -0.2475
19044SOL    HW258855   2.919   7.859   5.397 -1.8404 -0.3615 -1.7347
19045SOL     OW58856   7.629   9.695   7.785 -0.0418 -0.0716  0.2375
19045SOL    HW158857   7.639   9.783   7.747 -0.0249  0.4221  1.3420
19045SOL    HW258858   7.704   9.646   7.752 -0.1577  0.2708 -0.5512
19046SOL     OW58859   6.316   3.713   9.016  0.2865  0.4739 -0.0102
19046SOL    HW158860   6.237   3.747   8.974 -2.0064 -0.5111  3.1906
19046SOL    HW258861   6.290   3.630   9.055  3.0560 -0.1435  0.8024
19047SOL     OW58862   3.937   8.394   3.430  0.5758  0.1798 -0.2142
19047SOL    HW158863   3.851   8.390   3.388  0.5975  0.8139 -0.3301
19047SOL    HW258864   3.972   8.306   3.420 -0.7974 -0.6020  1.4317
19048SOL     OW58865   5.882   7.300   0.688 -0.1160  0.4795 -0.1884
19048SOL    HW158866   5.797   7.337   0.666 -0.7194 -0.3106  0.7539
19048SOL    HW258867   5.942   7.340   0.625 -1.0199  1.7270 -0.2893
19049SOL     OW58868   5.006   4.979   8.672  0.3357 -0.1043 -0.2099
19049SOL    HW158869   5.010   4.887   8.696  1.1291  0.2047  0.8927
19049SOL    HW258870   5.058   5.024   8.739 -0.4719  1.2039 -0.4351
19050SOL     OW58871   5.538   9.149   3.034  0.1113  0.2905  0.2409
19050SOL    HW158872   5.485   9.214   2.987 -0.9212 -1.3283 -0.9466
19050SOL    HW258873   5.553   9.080   2.970  1.1370 -0.6815  1.4751
19051SOL     OW58874   4.164   0.851   7.116 -0.7506  0.0338  0.3846
19051SOL    HW158875   4.190   0.784   7.053 -1.1299  1.3662 -1.2696
19051SOL    HW258876   4.082   0.820   7.152 -0.0115 -1.2432  1.0261
19052SOL     OW58877   4.266   7.230   7.867 -0.1710 -0.2161  0.3679
19052SOL    HW158878   4.217   7.148   7.875  0.6813 -0.7380  0.4521
19052SOL    HW258879   4.206   7.298   7.897 -0.6048 -0.9079  1.0995
19053SOL     OW58880   2.658   9.194   6.758  0.3057 -0.1912 -0.0403
19053SOL    HW158881   2.657   9.289   6.764  0.8286 -0.2610  2.2738
19053SOL    HW258882   2.567   9.170   6.743  0.1263  0.6663 -0.3897
19054SOL     OW58883   2.331   5.639   1.735  0.2802  0.1678 -0.1827
19054SOL    HW158884   2.273   5.603   1.668  1.2221 -1.0486 -0.3778
19054SOL    HW258885   2.291   5.613   1.818 -0.4318  0.9479 -0.2648
19055SOL     OW58886   5.343   8.201   1.318 -0.0029 -0.1426 -0.0226
19055SOL    HW158887   5.337   8.252   1.237 -1.9795 -0.2878 -0.0184
19055SOL    HW258888   5.406   8.131   1.299 -0.6472 -0.3318 -1.5266
19056SOL     OW58889   4.264   9.144   7.294  0.6841  0.0596  0.2118
19056SOL    HW158890   4.338   9.137   7.354 -0.2414 -0.3073  1.3465
19056SOL    HW258891   4.294   9.102   7.214  1.5290 -0.5315  0.8264
19057SOL     OW58892   3.886   6.685   5.314  0.0224  0.0118 -0.0192
19057SOL    HW158893   3.981   6.676   5.312  0.0870  0.5976  0.2232
19057SOL    HW258894   3.853   6.606   5.272  0.5890 -0.6656  0.7797
19058SOL     OW58895   6.280   3.028   8.528  0.3189  0.9852 -0.0206
19058SOL    HW158896   6.229   3.022   8.608  0.9546  2.3408  0.5155
19058SOL    HW258897   6.218   3.005   8.458 -0.2349 -0.2117  0.8340
19059SOL     OW58898   1.215   6.876   5.890 -0.6284  0.2590  0.3245
19059SOL    HW158899   1.213   6.838   5.802  1.6624  0.2811  0.2041
19059SOL    HW258900   1.170   6.812   5.945  1.1815 -1.6273 -0.2622
19060SOL     OW58901   0.486   6.938   8.984 -0.7765 -0.1328 -0.3677
19060SOL    HW158902   0.454   6.959   8.896 -1.7241 -2.2861 -0.6034
19060SOL    HW258903   0.481   6.842   8.989  1.5027 -0.2448  1.2197
19061SOL     OW58904   1.474   6.724   0.380 -0.4812  0.0983  0.5225
19061SOL    HW158905   1.561   6.688   0.360  0.1020  1.1653  1.0503
19061SOL    HW258906   1.414   6.653   0.358  0.4531 -0.3767 -0.6519
19062SOL     OW58907   1.929   9.238   1.033 -0.1565 -0.4983 -0.6511
19062SOL    HW158908   1.996   9.306   1.032 -0.9691  0.3359  0.1583
19062SOL    HW258909   1.859   9.272   0.978 -0.9761 -0.2271  0.5280
19063SOL     OW58910   1.935   8.951   9.508  0.3322  0.2231 -0.1941
19063SOL    HW158911   1.872   9.017   9.538  0.4698 -0.5571  1.9452
19063SOL    HW258912   1.940   8.964   9.413 -3.0738  0.2755 -0.4650
19064SOL     OW58913   4.616   8.631   9.457  0.1798  0.3578 -0.0664
19064SOL    HW158914   4.594   8.721   9.433  0.3508  0.1933 -0.8392
19064SOL    HW258915   4.558   8.612   9.531  0.3242  1.1859  0.2769
19065SOL     OW58916   2.785   0.650   7.003  0.2447 -0.1735  0.0128
19065SOL    HW158917   2.815   0.683   6.918  1.6217 -2.5164 -0.5163
19065SOL    HW258918   2.831   0.704   7.067  0.7648  0.3303 -0.7678
19066SOL     OW58919   3.402   5.512   7.543  0.4013  0.1120  0.0645
19066SOL    HW158920   3.320   5.546   7.507  0.9207  0.6995 -0.5969
19066SOL    HW258921   3.468   5.576   7.517  1.3794 -1.2521 -1.0045
19067SOL     OW58922   0.757   0.523   6.916  0.5521  0.0946 -0.0060
19067SOL    HW158923   0.792   0.535   6.827  0.1238 -0.1574 -0.2129
19067SOL    HW258924   0.796   0.440   6.945 -0.7673 -0.8010 -0.6913
19068SOL     OW58925   9.685   1.538   0.177  0.6000  0.8962  0.7189
19068SOL    HW158926   9.692   1.590   0.097 -3.3649  1.5845  0.6453
19068SOL    HW258927   9.702   1.448   0.148  0.1524  1.2412 -0.7012
19069SOL     OW58928   4.042   5.520   3.720 -0.5014  0.0280 -0.8163
19069SOL    HW158929   4.096   5.506   3.798 -1.4721 -1.0688 -0.3119
19069SOL    HW258930   4.042   5.615   3.707  0.4363  0.1458 -0.0410
19070SOL     OW58931   4.388   6.353   9.233  0.7281 -0.2826  0.0536
19070SOL    HW158932   4.300   6.391   9.236 -0.0009 -1.6064 -2.1556
19070SOL    HW258933   4.388   6.286   9.301  0.1502 -0.0758  0.2666
19071SOL     OW58934   8.167   7.924   8.696 -0.1871  0.0833  0.0769
19071SOL    HW158935   8.224   7.951   8.768 -1.8569  1.1420  1.0827
19071SOL    HW258936   8.115   7.852   8.732 -0.8634  0.4561 -0.1279
19072SOL     OW58937   9.447   1.540   9.092 -0.6142  0.0587  0.3284
19072SOL    HW158938   9.463   1.491   9.012 -0.2725 -0.8416  0.9437
19072SOL    HW258939   9.438   1.474   9.161 -0.2883  0.8351  1.1507
19073SOL     OW58940   6.971   8.289   6.553  0.0538 -0.3658  0.1551
19073SOL    HW158941   6.903   8.222   6.546  0.5517 -0.9299  0.6697
19073SOL    HW258942   6.929   8.368   6.520 -0.5368 -0.9287 -0.4739
19074SOL     OW58943   2.375   2.588   0.500  0.3848 -0.4139  0.4372
19074SOL    HW158944   2.378   2.493   0.488 -0.3138 -0.5933  1.5092
19074SOL    HW258945   2.294   2.615   0.455  1.5828 -0.0105 -1.6001
19075SOL     OW58946   7.563   2.293   8.622  0.0619 -0.0275 -1.0162
19075SOL    HW158947   7.544   2.383   8.650  0.4564 -0.6487  1.5299
19075SOL    HW258948   7.519   2.239   8.688  2.6700 -1.6230 -0.4766
19076SOL     OW58949   9.202   7.862   1.967 -0.2522 -0.1618 -0.3074
19076SOL    HW158950   9.197   7.946   1.923 -1.4603 -0.2698 -0.4032
19076SOL    HW258951   9.296   7.845   1.977  0.0203  0.4640 -1.6589
19077SOL     OW58952   2.866   1.047   7.759  0.1646 -0.6419 -0.2022
19077SOL    HW158953   2.918   1.094   7.694  0.6658 -0.8185  0.0666
19077SOL    HW258954   2.930   1.007   7.818 -0.1686 -2.9676 -1.2939
19078SOL     OW58955   3.357   7.536   6.596  0.3768  0.2582 -0.0439
19078SOL    HW158956   3.406   7.470   6.546  1.0491 -0.4896  1.5330
19078SOL    HW258957   3.424   7.587   6.641 -0.2162 -0.2454  1.4983
19079SOL     OW58958   4.846   5.119   9.193 -0.5550 -0.7901 -0.5943
19079SOL    HW158959   4.942   5.114   9.199 -0.4525  1.3020  0.8351
19079SOL    HW258960   4.829   5.146   9.103  0.5338  2.3287 -0.0094
19080SOL     OW58961   3.114   3.440   4.637 -0.3122 -0.1188 -0.3292
19080SOL    HW158962   3.130   3.532   4.616 -0.0286 -0.3642 -1.2423
19080SOL    HW258963   3.043   3.414   4.579  0.6575 -0.8823 -1.2130
19081SOL     OW58964   3.377   2.476   6.428  0.2844 -0.0827  0.6724
19081SOL    HW158965   3.388   2.400   6.484 -0.5563 -0.7616 -0.0418
19081SOL    HW258966   3.408   2.447   6.342 -0.4099  0.2523  0.3011
19082SOL     OW58967   5.471   9.671   2.811  0.2712  0.0021 -0.1612
19082SOL    HW158968   5.550   9.618   2.798 -0.3459 -0.6216 -1.7289
19082SOL    HW258969   5.503   9.753   2.847  1.4227 -0.8778  0.9436
19083SOL     OW58970   6.015   3.734   3.878  0.1684  0.0575  0.2470
19083SOL    HW158971   5.926   3.707   3.902  0.3367 -1.3921 -0.5939
19083SOL    HW258972   6.052   3.656   3.835  2.4025  0.0612  2.0131
19084SOL     OW58973   4.090   1.436   1.965  0.4067 -0.6601 -0.0815
19084SOL    HW158974   4.081   1.341   1.969  0.2070 -0.7553 -1.9078
19084SOL    HW258975   4.015   1.465   1.912 -1.5591  0.9157  3.2487
19085SOL     OW58976   0.078   8.767   0.909 -0.1970 -0.1289  0.0727
19085SOL    HW158977   0.025   8.765   0.830 -1.3544 -0.0168  0.8176
19085SOL    HW258978   0.021   8.732   0.977 -0.4056  2.6512  1.4933
19086SOL     OW58979   9.600   2.548   9.533 -0.1604 -0.4720 -0.9792
19086SOL    HW158980   9.610   2.467   9.482  0.5672  0.0911 -1.7541
19086SOL    HW258981   9.661   2.609   9.493  0.0561  0.1525  0.2641
19087SOL     OW58982   4.538   1.275   7.300 -0.2366 -0.1065  1.0875
19087SOL    HW158983   4.610   1.316   7.349  0.7783 -0.5755  0.0491
19087SOL    HW258984   4.578   1.197   7.262 -0.6501  0.8223 -1.4076
19088SOL     OW58985   6.464   6.347   2.385 -0.3123 -0.2068  0.4190
19088SOL    HW158986   6.382   6.303   2.403 -1.3707  0.5152 -2.1991
19088SOL    HW258987   6.519   6.329   2.462 -1.9004 -3.0384  0.9998
19089SOL     OW58988   8.650   7.944   7.802  0.4890 -0.0607  0.0411
19089SOL    HW158989   8.712   8.011   7.773  0.7165 -0.0284  0.5966
19089SOL    HW258990   8.704   7.867   7.821  0.0973 -0.8914 -1.9512
19090SOL     OW58991   9.366   1.865   9.601  1.4164 -0.0539  0.2166
19090SOL    HW158992   9.377   1.792   9.662  2.9784 -0.2461 -0.2520
19090SOL    HW258993   9.342   1.824   9.518 -1.5644  0.2573  0.8080
19091SOL     OW58994   2.010   8.979   2.641 -0.2904 -0.0892  0.2755
19091SOL    HW158995   2.103   8.973   2.664 -0.3176  0.0222  0.4128
19091SOL    HW258996   2.006   9.052   2.579 -0.4612  0.6796  1.1722
19092SOL     OW58997   3.494   2.424   3.481  0.2215  0.7678 -0.0944
19092SOL    HW158998   3.400   2.416   3.461 -0.0834  1.4179  0.9900
19092SOL    HW258999   3.527   2.334   3.480 -0.3061  0.5756 -0.9698
19093SOL     OW59000   6.028   0.507   1.218  0.3049 -0.3914 -0.3655
19093SOL    HW159001   5.936   0.510   1.190  0.5682 -0.5331 -1.2971
19093SOL    HW259002   6.036   0.578   1.282 -0.4185 -0.2741 -0.4007
19094SOL     OW59003   4.901   2.971   8.179 -0.1725  0.0737 -0.3817
19094SOL    HW159004   4.874   3.034   8.246  0.7177  2.3986 -2.0716
19094SOL    HW259005   4.955   2.907   8.225 -1.5141  0.2089  1.4876
19095SOL     OW59006   1.712   2.760   7.464 -0.8522  0.2405  0.1342
19095SOL    HW159007   1.763   2.839   7.451 -1.7163  0.9746  1.0533
19095SOL    HW259008   1.703   2.753   7.559 -0.6726 -1.0460  0.0735
19096SOL     OW59009   2.107   2.994   6.617  0.1380  0.1565 -0.1775
19096SOL    HW159010   2.030   3.051   6.622 -0.2576 -0.0410 -2.6510
19096SOL    HW259011   2.166   3.028   6.684 -1.4065  1.3773  0.6534
19097SOL     OW59012   8.498   4.045   9.371  0.1997 -0.5914  0.8002
19097SOL    HW159013   8.463   4.079   9.288  2.2131  0.7862  0.4394
19097SOL    HW259014   8.521   3.954   9.353 -0.3892 -0.6188  0.1745
19098SOL     OW59015   3.933   0.979   4.105 -1.1374 -0.3633  0.0880
19098SOL    HW159016   3.848   0.946   4.135 -0.9576  0.1954  1.2661
19098SOL    HW259017   3.965   1.032   4.178  0.1790 -0.4794 -0.3849
19099SOL     OW59018   0.201   6.312   1.404  0.1439 -0.2183  0.1538
19099SOL    HW159019   0.112   6.311   1.369 -0.3655 -0.3611  1.3782
19099SOL    HW259020   0.239   6.394   1.373  0.2428 -0.9962 -1.8984
19100SOL     OW59021   0.559   4.662   5.781  0.6205  0.3053  0.4312
19100SOL    HW159022   0.625   4.652   5.851 -1.2925  0.5440  2.3731
19100SOL    HW259023   0.536   4.573   5.757  1.2469  0.2222  0.1002
19101SOL     OW59024   2.960   0.946   8.371 -0.6054 -0.0631 -0.2936
19101SOL    HW159025   2.880   0.998   8.382 -0.8005 -0.3501 -0.3229
19101SOL    HW259026   3.008   0.959   8.453 -1.0866 -0.5583  0.0815
19102SOL     OW59027   2.425   2.553   2.182  0.2905 -0.0692 -0.4454
19102SOL    HW159028   2.405   2.460   2.170  3.7175 -0.9700 -0.0379
19102SOL    HW259029   2.413   2.591   2.095 -0.5208 -0.9908 -0.7634
19103SOL     OW59030   7.478   1.903   1.050  0.4227 -0.6290  0.1446
19103SOL    HW159031   7.537   1.857   1.110  1.3174  1.1637  0.7196
19103SOL    HW259032   7.516   1.991   1.043 -1.7097  0.3083 -0.1674
19104SOL     OW59033   8.501   7.866   4.933  0.5298  0.0482 -0.3900
19104SOL    HW159034   8.573   7.912   4.975  0.2088 -1.2077  1.7011
19104SOL    HW259035   8.425   7.922   4.949  0.4516 -0.3068  0.5901
19105SOL     OW59036   8.255   8.549   7.798  0.6484 -0.2679 -0.7500
19105SOL    HW159037   8.321   8.617   7.814 -0.0068  0.2983 -0.3754
19105SOL    HW259038   8.234   8.516   7.885  0.0314 -0.0457 -0.8130
19106SOL     OW59039   5.492   5.224   3.554 -0.0217 -0.4607 -0.7527
19106SOL    HW159040   5.401   5.209   3.579  0.1392  0.9678  0.8669
19106SOL    HW259041   5.536   5.142   3.574 -0.3462 -0.1009  1.6883
19107SOL     OW59042   3.992   5.327   2.166  0.2879  0.2172 -0.6793
19107SOL    HW159043   4.014   5.367   2.250 -0.1923 -0.0122 -0.4404
19107SOL    HW259044   3.898   5.339   2.157  0.1117 -0.9182 -0.5628
19108SOL     OW59045   0.349   8.996   0.562 -0.4455  0.1163 -0.2067
19108SOL    HW159046   0.378   9.087   0.575  1.4438 -0.4797  0.0057
19108SOL    HW259047   0.386   8.971   0.478 -1.1329 -0.4228 -0.3612
19109SOL     OW59048   1.377   4.246   2.616  0.2115 -0.3238  0.3391
19109SOL    HW159049   1.298   4.201   2.588  0.8434 -1.1025 -0.2326
19109SOL    HW259050   1.397   4.307   2.545  0.0308 -0.0043  0.5614
19110SOL     OW59051   1.388   5.162   1.533 -0.3776  0.0393 -0.1687
19110SOL    HW159052   1.301   5.174   1.571 -0.2176  2.1174 -0.3562
19110SOL    HW259053   1.386   5.209   1.450  0.7780 -0.2699 -0.4001
19111SOL     OW59054   7.033   8.440   5.921 -0.2610  0.0851 -0.5326
19111SOL    HW159055   6.964   8.422   5.858 -2.0404  0.9217  1.0755
19111SOL    HW259056   7.006   8.522   5.963  1.3797  0.0837  0.6005
19112SOL     OW59057   8.441   4.866   4.642  0.4893 -0.2322 -0.2861
19112SOL    HW159058   8.441   4.837   4.734  0.7432 -0.2664 -0.2941
19112SOL    HW259059   8.525   4.834   4.608  1.0077  0.9403 -0.1628
19113SOL     OW59060   3.123   2.905   8.047  0.5526  0.0084 -0.7715
19113SOL    HW159061   3.076   2.860   8.118  0.0256  2.0385  0.2561
19113SOL    HW259062   3.214   2.908   8.076  0.3898  0.5649 -0.2858
19114SOL     OW59063   6.482   5.346   0.890 -0.6288 -0.5302 -0.1950
19114SOL    HW159064   6.453   5.374   0.977  1.0332  2.2449 -0.4479
19114SOL    HW259065   6.401   5.338   0.840 -1.4272  0.5992  0.8528
19115SOL     OW59066   2.026   7.162   4.310 -0.2624 -0.1757  0.0670
19115SOL    HW159067   2.079   7.231   4.350  1.9007 -2.3430  1.1988
19115SOL    HW259068   1.969   7.132   4.380 -1.5885  0.7569 -0.5743
19116SOL     OW59069   3.416   8.276   3.649  0.0110 -0.2939  0.4677
19116SOL    HW159070   3.326   8.309   3.646  0.2435  0.3817  0.8243
19116SOL    HW259071   3.433   8.248   3.559  0.0600  1.2742 -0.0525
19117SOL     OW59072   5.278   4.819   7.161 -0.1123 -0.0401 -0.3277
19117SOL    HW159073   5.362   4.854   7.132  0.4444 -1.0013  0.0681
19117SOL    HW259074   5.300   4.755   7.229 -1.3051  1.4560  1.6072
19118SOL     OW59075   7.008   5.521   6.052  0.0303 -0.1131  0.3279
19118SOL    HW159076   6.943   5.585   6.080 -0.5448 -0.0739 -1.0270
19118SOL    HW259077   7.085   5.573   6.027  0.2290 -0.0898  0.9781
19119SOL     OW59078   7.485   7.309   2.111 -0.0604  0.3591 -0.9036
19119SOL    HW159079   7.516   7.399   2.098  0.9787  0.2227  0.4351
19119SOL    HW259080   7.550   7.255   2.065  0.9814  0.1583  0.7115
19120SOL     OW59081   2.574   1.778   5.852  0.4649  0.4247 -0.5371
19120SOL    HW159082   2.613   1.809   5.934  0.7920 -1.4165  0.0524
19120SOL    HW259083   2.502   1.721   5.879  0.7682 -0.4601 -1.5137
19121SOL     OW59084   2.041   0.148   0.272 -0.6173 -0.4358  0.1887
19121SOL    HW159085   2.000   0.234   0.274 -1.9425 -0.9786 -0.9309
19121SOL    HW259086   2.076   0.140   0.183 -0.9094 -1.2059  0.1328
19122SOL     OW59087   0.483   0.892   4.692  0.3769 -0.3461  0.7972
19122SOL    HW159088   0.482   0.882   4.787  0.6142  0.5588  0.9121
19122SOL    HW259089   0.421   0.827   4.659 -0.9663  0.4465  1.6901
19123SOL     OW59090   9.559   5.869   0.984  0.4096 -0.0673 -0.4325
19123SOL    HW159091   9.640   5.821   1.000 -0.7886 -1.6157  1.5684
19123SOL    HW259092   9.582   5.961   0.999  1.6675 -0.5449  0.7948
19124SOL     OW59093   3.055   1.622   2.395  0.5303  0.1746 -0.5149
19124SOL    HW159094   2.977   1.641   2.447 -0.6820 -1.2389 -1.7521
19124SOL    HW259095   3.127   1.623   2.459 -0.3677  2.0450  0.5557
19125SOL     OW59096   0.486   0.471   8.217  0.7658 -0.7372  0.0258
19125SOL    HW159097   0.413   0.496   8.160  0.4218 -0.8456  0.4156
19125SOL    HW259098   0.455   0.488   8.306  1.9026  1.0499  0.1429
19126SOL     OW59099   8.689   6.555   1.427 -0.1600  0.5383  0.1572
19126SOL    HW159100   8.680   6.460   1.423 -1.0492  0.6309 -0.3037
19126SOL    HW259101   8.682   6.584   1.336  2.0240  0.9091  0.0581
19127SOL     OW59102   5.165   2.941   6.420 -0.5475 -0.0653  0.1776
19127SOL    HW159103   5.191   2.984   6.502  0.3447  0.1428 -0.2019
19127SOL    HW259104   5.080   2.979   6.398  0.2077  1.5049 -0.1348
19128SOL     OW59105   2.869   2.920   5.981  0.5658  0.0545  0.0887
19128SOL    HW159106   2.783   2.937   6.019  0.4202  0.6363 -0.4994
19128SOL    HW259107   2.928   2.918   6.057  0.3024  1.3844  0.3558
19129SOL     OW59108   2.084   0.532   0.349  0.4542 -0.8536 -0.3083
19129SOL    HW159109   2.154   0.544   0.285 -0.3357  0.8641 -0.9334
19129SOL    HW259110   2.123   0.555   0.433  0.5165  0.7867 -0.7461
19130SOL     OW59111   9.340   8.093   1.332 -0.0001  0.4267  0.0748
19130SOL    HW159112   9.294   8.026   1.283  0.0594  0.4106  0.0409
19130SOL    HW259113   9.273   8.159   1.352  0.1969  0.9423 -0.9267
19131SOL     OW59114   0.198   7.722   7.041  0.3411 -0.2035 -0.2189
19131SOL    HW159115   0.123   7.666   7.021  1.1217 -1.7312  0.9024
19131SOL    HW259116   0.274   7.664   7.031  1.1469  0.5128  1.4277
19132SOL     OW59117   6.175   6.389   0.049  0.4188 -0.5859 -0.3153
19132SOL    HW159118   6.132   6.377  -0.036  0.0125  3.7081 -0.9172
19132SOL    HW259119   6.229   6.467   0.038  0.6011 -0.0436  3.3234
19133SOL     OW59120   1.499   9.012   6.641  0.0891 -0.0190 -0.1453
19133SOL    HW159121   1.483   8.975   6.727  0.5797  1.9235  0.8446
19133SOL    HW259122   1.418   9.057   6.618  0.5159  0.9268  0.1212
19134SOL     OW59123   1.619   5.128   3.945 -0.0540 -0.5759 -0.2745
19134SOL    HW159124   1.628   5.171   3.860  1.5110 -0.0693  0.1074
19134SOL    HW259125   1.697   5.155   3.994 -1.0741 -0.5784  1.4539
19135SOL     OW59126   4.064   3.978   6.104  0.2280  0.0870  0.0322
19135SOL    HW159127   4.087   3.888   6.126 -0.5804  0.0259  0.6534
19135SOL    HW259128   4.057   4.022   6.188 -0.2356  0.5199 -0.2318
19136SOL     OW59129   2.612   7.592   1.522  0.0152 -0.2683 -0.1329
19136SOL    HW159130   2.669   7.531   1.474  0.1474  0.1388 -0.5048
19136SOL    HW259131   2.570   7.645   1.453  0.6291  0.6998  0.2125
19137SOL     OW59132   0.228   7.685   3.497 -0.2627 -0.2165  0.1679
19137SOL    HW159133   0.314   7.725   3.506  0.1487 -0.9733 -0.3662
19137SOL    HW259134   0.195   7.678   3.587  0.1439  0.2572  0.3566
19138SOL     OW59135   4.293   9.518   2.951  0.1463 -0.3057  0.2548
19138SOL    HW159136   4.330   9.430   2.959  1.7430  0.1342 -1.4986
19138SOL    HW259137   4.352   9.573   3.003 -0.4288 -0.1384  0.7491
19139SOL     OW59138   8.483   4.248   3.047  0.1875  0.0489  0.7633
19139SOL    HW159139   8.477   4.169   2.993  0.2358 -0.3539  1.3359
19139SOL    HW259140   8.567   4.287   3.025 -0.2047  0.4082 -0.1447
19140SOL     OW59141   7.091   1.850   6.053  0.1301 -0.9157 -0.2834
19140SOL    HW159142   6.998   1.872   6.043  0.8959  2.7098 -0.5949
19140SOL    HW259143   7.102   1.833   6.146 -0.6537 -0.3462 -0.0773
19141SOL     OW59144   8.846   7.867   4.588 -0.8533  0.2097  0.0632
19141SOL    HW159145   8.784   7.849   4.518 -1.4650  1.5259  0.2249
19141SOL    HW259146   8.930   7.880   4.544 -0.5605 -1.9756 -0.1257
19142SOL     OW59147   7.480   1.333   7.340  0.2622 -0.2357 -0.2484
19142SOL    HW159148   7.491   1.380   7.423  2.7890  0.8515 -1.0972
19142SOL    HW259149   7.540   1.376   7.280 -1.8580 -0.6549 -2.8529
19143SOL     OW59150   4.375   3.274   7.968 -0.1956 -0.6266 -0.2842
19143SOL    HW159151   4.357   3.366   7.985  0.7667 -0.2602 -1.1903
19143SOL    HW259152   4.310   3.227   8.021 -1.0995  0.5649 -0.2944
19144SOL     OW59153   4.306   2.244   7.320  0.1485 -0.8435 -0.0485
19144SOL    HW159154   4.211   2.246   7.319  0.1453  1.0606 -0.9906
19144SOL    HW259155   4.331   2.187   7.247 -0.2473 -1.6125  0.4067
19145SOL     OW59156   2.423   2.054   3.645  0.3103 -0.0774 -0.2143
19145SOL    HW159157   2.403   2.129   3.590 -0.0942  0.9652  1.2747
19145SOL    HW259158   2.337   2.017   3.666  0.2445  0.9675  1.5770
19146SOL     OW59159   1.318   1.258   4.636  0.2441 -0.1231 -0.0461
19146SOL    HW159160   1.303   1.307   4.716  0.2918  1.0477 -0.7254
19146SOL    HW259161   1.276   1.311   4.568 -1.5068 -2.0678 -0.5535
19147SOL     OW59162   9.319   3.907   8.323 -0.0192  0.0849  0.7276
19147SOL    HW159163   9.358   3.968   8.261 -1.0497  0.4407  0.4144
19147SOL    HW259164   9.252   3.860   8.272  1.0983 -1.6991  0.8082
19148SOL     OW59165   5.272   8.872   0.620 -0.1458 -0.1698 -0.0285
19148SOL    HW159166   5.279   8.779   0.598  2.1816  0.1385 -0.8367
19148SOL    HW259167   5.283   8.917   0.536 -2.2424  0.8751  0.1847
19149SOL     OW59168   6.820   2.158   5.383 -0.0772 -0.2925  0.0048
19149SOL    HW159169   6.730   2.165   5.350 -0.7393  1.0107  1.9111
19149SOL    HW259170   6.849   2.249   5.390  1.2782 -0.6894 -0.2393
19150SOL     OW59171   8.192   7.612   6.155 -0.0807 -0.2905 -0.4456
19150SOL    HW159172   8.125   7.557   6.114 -0.0434 -0.5671 -0.1418
19150SOL    HW259173   8.146   7.694   6.174 -0.4361 -0.6014  0.0778
19151SOL     OW59174   2.615   3.748   4.768  0.1711  0.3005 -0.8458
19151SOL    HW159175   2.593   3.710   4.853  3.9773 -2.1786 -0.7547
19151SOL    HW259176   2.553   3.709   4.707 -0.2626 -0.8288  0.2805
19152SOL     OW59177   7.480   7.359   7.439 -0.4801 -0.5981 -0.2661
19152SOL    HW159178   7.506   7.357   7.531 -0.6015  1.3877 -0.1521
19152SOL    HW259179   7.521   7.437   7.404 -0.2320 -1.4583 -1.9979
19153SOL     OW59180   4.097   6.336   2.740 -0.2175 -0.4770  0.0157
19153SOL    HW159181   4.067   6.269   2.802  0.5138 -1.6927 -0.8747
19153SOL    HW259182   4.181   6.365   2.775 -0.2744 -0.4342  0.1163
19154SOL     OW59183   0.399   6.814   8.645  0.1936  0.0877  0.0223
19154SOL    HW159184   0.405   6.826   8.550 -0.2663 -1.7817 -0.2653
19154SOL    HW259185   0.475   6.761   8.667  0.2640  0.4636  0.7019
19155SOL     OW59186   3.366   0.980   9.705  0.0401  0.0112 -0.4419
19155SOL    HW159187   3.275   1.010   9.713  0.3133  0.9162 -0.6761
19155SOL    HW259188   3.358   0.889   9.677 -0.8159  0.8115 -3.1023
19156SOL     OW59189   8.182   3.122   6.269  0.3893  0.0936  0.3490
19156SOL    HW159190   8.143   3.191   6.216  0.8052  0.9662  1.1506
19156SOL    HW259191   8.113   3.055   6.274 -1.1950  1.7115  1.9591
19157SOL     OW59192   2.537   0.762   9.219 -0.3034  0.4147  0.1112
19157SOL    HW159193   2.574   0.850   9.217 -0.4779  0.5650  1.9897
19157SOL    HW259194   2.499   0.750   9.132  0.8982  1.6567 -0.6273
19158SOL     OW59195   1.963   5.551   5.226  0.3241 -0.4326  0.3104
19158SOL    HW159196   1.886   5.500   5.252 -0.0868  1.0026  2.0615
19158SOL    HW259197   1.935   5.597   5.147  0.4869 -2.3069 -0.9205
19159SOL     OW59198   6.298   6.513   2.056  0.4618 -0.0147  0.0380
19159SOL    HW159199   6.230   6.447   2.066 -0.1584  0.0951 -2.5668
19159SOL    HW259200   6.348   6.484   1.980  2.0032  1.0247  0.6117
19160SOL     OW59201   0.717   0.351   1.029 -0.1992  0.6585 -0.1803
19160SOL    HW159202   0.781   0.366   1.098  0.9237 -0.8178 -0.8521
19160SOL    HW259203   0.682   0.438   1.009  0.7904  1.3447  0.9486
19161SOL     OW59204   6.829   8.286   1.189 -0.1897  0.0103  0.1949
19161SOL    HW159205   6.832   8.290   1.285 -1.9638 -0.2080  0.2913
19161SOL    HW259206   6.773   8.210   1.170  0.2196 -0.0055 -1.0158
19162SOL     OW59207   3.599   7.296   5.982 -0.0754 -0.4200 -0.0761
19162SOL    HW159208   3.535   7.323   6.048  0.4583  1.8467 -0.4068
19162SOL    HW259209   3.549   7.292   5.901 -0.1494 -0.3191 -0.0369
19163SOL     OW59210   6.736   7.021   4.132 -0.0115  0.3746 -0.4508
19163SOL    HW159211   6.781   7.053   4.054 -1.2649 -1.5224 -2.0411
19163SOL    HW259212   6.798   6.962   4.174  0.9828  2.0427  0.5271
19164SOL     OW59213   6.536   5.997   5.822 -0.6045 -0.7026  0.2303
19164SOL    HW159214   6.487   5.978   5.903 -1.4979 -1.2904 -0.4296
19164SOL    HW259215   6.470   5.999   5.754 -0.0833  1.4778 -0.2824
19165SOL     OW59216   4.593   4.944   0.272 -0.3937 -0.4202  0.3100
19165SOL    HW159217   4.685   4.920   0.265 -0.0569  0.8831 -0.1090
19165SOL    HW259218   4.573   4.986   0.188 -1.4545 -0.9522  0.2832
19166SOL     OW59219   4.601   6.142   2.823  0.0455 -0.3155  0.8868
19166SOL    HW159220   4.577   6.083   2.752  2.4990  0.5042 -0.7438
19166SOL    HW259221   4.546   6.114   2.897 -2.1176 -1.6280 -1.0892
19167SOL     OW59222   7.241   0.775   3.711  0.0082  0.0448  0.7538
19167SOL    HW159223   7.146   0.768   3.697 -0.0618 -0.1543  1.2958
19167SOL    HW259224   7.256   0.868   3.729  0.2864  0.5949 -1.8267
19168SOL     OW59225   7.687   0.826   4.126  0.3162  0.2934  0.7203
19168SOL    HW159226   7.651   0.903   4.171  0.5287  0.4029  0.7053
19168SOL    HW259227   7.756   0.861   4.070 -0.0995  0.1881  0.1266
19169SOL     OW59228   5.082   8.290   8.607 -0.5717  0.5013 -0.0862
19169SOL    HW159229   5.065   8.317   8.697 -3.1886 -1.4737  0.1507
19169SOL    HW259230   5.176   8.279   8.602 -0.4093 -0.0373  2.6419
19170SOL     OW59231   1.706   5.338   8.272 -0.0238 -0.2575  0.6777
19170SOL    HW159232   1.622   5.307   8.305 -1.0736  1.6157 -0.0675
19170SOL    HW259233   1.732   5.273   8.206 -1.0443 -0.6929  0.6940
19171SOL     OW59234   6.262   4.723   1.822  0.5154  0.0245 -0.4907
19171SOL    HW159235   6.223   4.734   1.735  0.6271  0.5200 -0.4773
19171SOL    HW259236   6.258   4.628   1.838 -0.2259  0.0116 -0.7012
19172SOL     OW59237   5.397   8.642   6.215 -0.3069  0.5566 -0.1657
19172SOL    HW159238   5.478   8.597   6.190  0.7666  2.3193 -0.0022
19172SOL    HW259239   5.349   8.651   6.133  0.3496  0.8185 -0.5303
19173SOL     OW59240   3.021   8.055   5.668 -0.0523  0.4280 -0.3901
19173SOL    HW159241   3.102   8.005   5.680 -0.7400 -0.5851  0.1576
19173SOL    HW259242   2.965   7.996   5.617 -0.3054  1.2837 -1.1174
19174SOL     OW59243   3.514   8.315   4.631  0.0341 -0.2205  0.2179
19174SOL    HW159244   3.436   8.302   4.578 -0.2574 -0.1833  0.6348
19174SOL    HW259245   3.481   8.334   4.719  0.4570  1.3674  0.0684
19175SOL     OW59246   7.158   0.410   5.338 -0.4978  0.1704  0.1974
19175SOL    HW159247   7.241   0.401   5.384 -1.7729 -3.4831  2.2940
19175SOL    HW259248   7.102   0.343   5.378 -4.3153  2.0759 -1.4266
19176SOL     OW59249   3.763   8.882   1.365  0.6039  0.6469 -0.0504
19176SOL    HW159250   3.727   8.968   1.342 -3.0415 -0.9214 -0.9340
19176SOL    HW259251   3.768   8.883   1.460 -1.6658  1.1395  0.1202
19177SOL     OW59252   9.561   5.900   7.910 -0.5791 -0.4075 -0.0901
19177SOL    HW159253   9.570   5.815   7.867  0.7300 -0.0963 -0.5049
19177SOL    HW259254   9.633   5.903   7.973  0.7272  1.1831 -1.5430
19178SOL     OW59255   0.683   7.001   3.323 -0.3184  0.1186 -0.1046
19178SOL    HW159256   0.614   7.061   3.293 -1.9547 -1.2551  0.6858
19178SOL    HW259257   0.710   7.036   3.408  0.2686  0.9141 -0.6230
19179SOL     OW59258   8.869   0.134   9.623 -0.2588 -0.9778 -0.1297
19179SOL    HW159259   8.907   0.082   9.552 -0.9689 -2.9559  0.8782
19179SOL    HW259260   8.777   0.109   9.624 -0.3227 -0.7124  1.2618
19180SOL     OW59261   5.088   6.340   8.081 -0.2077 -0.2844 -0.3549
19180SOL    HW159262   5.048   6.312   8.163 -0.6719 -0.2727 -0.5721
19180SOL    HW259263   5.181   6.347   8.100 -0.5803  2.3965  0.9454
19181SOL     OW59264   0.400   9.078   3.763 -0.2250  0.4063  0.1412
19181SOL    HW159265   0.403   9.063   3.669 -1.7187  0.0965  0.1320
19181SOL    HW259266   0.354   9.162   3.773  0.5776  0.8137  0.5773
19182SOL     OW59267   4.737   9.433   1.213  0.9960 -0.5095 -0.6688
19182SOL    HW159268   4.713   9.414   1.304 -0.0774 -2.3810 -1.2899
19182SOL    HW259269   4.687   9.511   1.190  1.1264 -0.1404  0.2783
19183SOL     OW59270   4.640   2.650   5.592  0.0057  0.4622 -0.5332
19183SOL    HW159271   4.718   2.696   5.623 -0.7287 -0.4378  3.0416
19183SOL    HW259272   4.643   2.565   5.636 -2.8077  0.2768 -0.5383
19184SOL     OW59273   8.498   7.076   1.834 -0.4602  0.2882 -0.2050
19184SOL    HW159274   8.585   7.112   1.818 -0.3089 -0.2866 -0.7483
19184SOL    HW259275   8.514   6.998   1.887 -0.7443  0.7629  0.5992
19185SOL     OW59276   9.337   3.119   9.277 -0.4145 -0.4837  0.5992
19185SOL    HW159277   9.317   3.109   9.370 -2.7993 -1.1856  0.0773
19185SOL    HW259278   9.400   3.050   9.258 -0.1583 -0.5432  1.6175
19186SOL     OW59279   9.384   5.948   3.827 -0.1408 -0.7700  0.4750
19186SOL    HW159280   9.379   5.877   3.891 -1.3145 -0.0881  1.1628
19186SOL    HW259281   9.475   5.978   3.832  0.4539 -2.4046 -0.0455
19187SOL     OW59282   4.938   4.087   4.325 -0.6010 -0.4962  0.1392
19187SOL    HW159283   4.868   4.143   4.359 -0.4852  0.4089 -1.0623
19187SOL    HW259284   4.905   4.055   4.241 -0.4057 -1.7477  0.5176
19188SOL     OW59285   8.247   5.724   2.958 -0.7745 -0.4560  0.3874
19188SOL    HW159286   8.156   5.717   2.986 -0.3380 -0.8486  1.8312
19188SOL    HW259287   8.284   5.637   2.976 -0.5684 -0.9312 -2.0076
19189SOL     OW59288   9.259   7.938   8.850 -0.9171 -0.2703 -0.1687
19189SOL    HW159289   9.187   7.989   8.813  0.3535  2.0614  0.4045
19189SOL    HW259290   9.334   7.996   8.846  0.5455 -1.9983  0.8882
19190SOL     OW59291   0.313   3.223   9.660  0.1183  0.3512 -0.1128
19190SOL    HW159292   0.228   3.267   9.660 -0.0921 -0.0319 -1.1427
19190SOL    HW259293   0.344   3.231   9.750 -0.3470  1.7624 -0.0548
19191SOL     OW59294   0.520   5.062   2.580 -0.3112  0.3312  0.8286
19191SOL    HW159295   0.478   5.080   2.664  1.9901  1.3938  1.8530
19191SOL    HW259296   0.554   5.147   2.551 -1.7815  0.1830 -1.6845
19192SOL     OW59297   1.812   1.967   6.355  0.1605 -0.1327  0.4049
19192SOL    HW159298   1.765   2.050   6.344  0.8700  0.2567  0.2442
19192SOL    HW259299   1.799   1.921   6.272 -0.7555 -0.4727  0.7135
19193SOL     OW59300   7.737   0.726   4.579  0.6122  0.0763  0.0649
19193SOL    HW159301   7.817   0.763   4.617  0.7978 -0.8116  0.5508
19193SOL    HW259302   7.672   0.796   4.586  0.8284  0.1671  1.3973
19194SOL     OW59303   2.394   7.632   0.224  0.2056 -0.1896  0.0956
19194SOL    HW159304   2.466   7.657   0.166 -1.1205  1.1456 -1.0612
19194SOL    HW259305   2.401   7.692   0.298 -0.3605  0.7149 -0.5641
19195SOL     OW59306   5.634   1.981   4.076 -0.2030 -0.3682 -0.0147
19195SOL    HW159307   5.619   1.967   4.169  0.6543 -1.6118 -0.0321
19195SOL    HW259308   5.574   1.921   4.032  0.3002 -0.7284 -0.2218
19196SOL     OW59309   2.555   0.326   5.147  0.3844  0.0789 -0.6495
19196SOL    HW159310   2.573   0.237   5.117  0.7361 -0.4216  0.9474
19196SOL    HW259311   2.464   0.342   5.122 -0.0708 -1.1954  0.1263
19197SOL     OW59312   1.183   2.683   6.372  0.2624 -0.0133 -0.0156
19197SOL    HW159313   1.217   2.741   6.303 -0.4824 -2.1419 -2.3206
19197SOL    HW259314   1.261   2.642   6.409  0.6586  0.9229  0.2096
19198SOL     OW59315   0.104   0.893   8.689 -0.0487 -0.4099  0.6720
19198SOL    HW159316   0.012   0.870   8.704  0.0477  0.2586  2.5101
19198SOL    HW259317   0.104   0.988   8.681  0.7929 -0.0114  3.9581
19199SOL     OW59318   8.481   3.622   8.492  0.0774  0.1961 -0.2412
19199SOL    HW159319   8.471   3.679   8.416 -0.7012  0.4725  0.0672
19199SOL    HW259320   8.466   3.678   8.568  1.9924  0.1903  0.1940
19200SOL     OW59321   3.301   8.062   0.530 -0.5734 -0.1125  0.2442
19200SOL    HW159322   3.289   8.156   0.529  0.2117 -0.0017  0.4279
19200SOL    HW259323   3.396   8.050   0.540 -0.4765 -0.9054 -1.3444
19201SOL     OW59324   8.631   4.666   2.655  0.1629 -0.3855  0.2034
19201SOL    HW159325   8.684   4.745   2.651 -0.0399 -0.2812 -0.5749
19201SOL    HW259326   8.545   4.695   2.686  0.4227 -0.4908  1.0542
19202SOL     OW59327   4.926   8.984   5.363 -0.1992 -0.3481  0.6306
19202SOL    HW159328   4.853   9.041   5.385 -1.0069 -0.8487 -0.6619
19202SOL    HW259329   4.986   9.040   5.313 -0.2150 -0.2201  0.7547
19203SOL     OW59330   4.412   7.359   1.566 -0.0820 -0.3146 -0.0820
19203SOL    HW159331   4.459   7.277   1.583  0.3142 -0.4188 -1.5683
19203SOL    HW259332   4.341   7.359   1.631 -0.1609 -1.8980 -0.1187
19204SOL     OW59333   8.130   7.051   2.895 -0.2689 -0.0575 -0.2578
19204SOL    HW159334   8.118   7.144   2.879  1.0558  0.8216  2.9525
19204SOL    HW259335   8.045   7.021   2.927 -0.4374  0.3255 -0.3392
19205SOL     OW59336   3.674   8.996   9.352  0.1607 -0.3306 -0.2845
19205SOL    HW159337   3.598   8.976   9.407  0.9916  0.3455  1.1300
19205SOL    HW259338   3.638   9.049   9.281 -0.9212 -1.2240 -0.4456
19206SOL     OW59339   1.599   0.621   4.225  0.2246  0.3562 -0.6355
19206SOL    HW159340   1.647   0.584   4.298 -1.5746 -0.6710  0.1046
19206SOL    HW259341   1.627   0.712   4.221 -0.1172  0.6265  1.7840
19207SOL     OW59342   5.592   1.601   0.633  0.2345 -0.1346 -0.0244
19207SOL    HW159343   5.567   1.573   0.545  0.1777 -0.8978  0.2305
19207SOL    HW259344   5.511   1.598   0.684  0.1622  0.8085 -0.0632
19208SOL     OW59345   7.546   3.745   9.376  0.3880  0.7075  0.1101
19208SOL    HW159346   7.560   3.760   9.282  0.9018  1.6644  0.3284
19208SOL    HW259347   7.459   3.706   9.381  0.0477  1.3247 -0.7216
19209SOL     OW59348   4.312   1.860   3.685  0.5094 -0.0716  0.3420
19209SOL    HW159349   4.271   1.775   3.668 -1.5782  0.8783  0.2837
19209SOL    HW259350   4.406   1.845   3.675  0.1079 -2.1263 -0.6638
19210SOL     OW59351   2.973   0.148   0.816  0.1484 -0.1058 -0.1747
19210SOL    HW159352   3.066   0.166   0.823 -0.1323  1.3620  0.2021
19210SOL    HW259353   2.937   0.225   0.771 -0.9669 -0.3515  0.2508
19211SOL     OW59354   4.316   9.234   1.832  0.0807 -0.5557  0.2673
19211SOL    HW159355   4.337   9.327   1.839  1.3125 -0.8986  1.4887
19211SOL    HW259356   4.274   9.225   1.746 -0.8608  1.2527  0.4970
19212SOL     OW59357   1.854   7.131   5.756  0.1270 -0.1477 -0.0877
19212SOL    HW159358   1.770   7.116   5.799  0.3856  2.2780  1.5120
19212SOL    HW259359   1.873   7.224   5.773  2.4105 -0.2289 -1.7112
19213SOL     OW59360   4.112   5.854   5.837  0.0719 -0.0261  0.2610
19213SOL    HW159361   4.197   5.879   5.873  0.6913 -0.0020 -1.1445
19213SOL    HW259362   4.068   5.810   5.909  1.6715 -0.9224  0.7480
19214SOL     OW59363   3.424   0.312   7.286 -0.3143 -0.4274  0.4469
19214SOL    HW159364   3.454   0.240   7.342  1.5773  0.1553  0.2832
19214SOL    HW259365   3.495   0.322   7.222 -0.1766  2.0489  0.9186
19215SOL     OW59366   0.492   2.499   1.632 -0.7280 -0.5874  0.3724
19215SOL    HW159367   0.556   2.432   1.658 -0.1522 -0.5163 -0.8239
19215SOL    HW259368   0.493   2.562   1.704  1.8497  0.3264 -0.3336
19216SOL     OW59369   8.358   0.526   6.398  0.3979 -0.8261  0.5404
19216SOL    HW159370   8.295   0.454   6.404 -1.8993  0.4585 -3.6414
19216SOL    HW259371   8.414   0.503   6.325  1.1185  0.5874  0.6176
19217SOL     OW59372   8.479   2.146   3.431  0.2300 -0.1567  0.4564
19217SOL    HW159373   8.430   2.065   3.414 -3.7163  1.5142  2.4260
19217SOL    HW259374   8.496   2.144   3.525  0.5043  1.0978  0.4458
19218SOL     OW59375   1.879   7.443   1.237  0.2095  0.6918 -0.1939
19218SOL    HW159376   1.800   7.473   1.282  0.5532  0.4323  0.5981
19218SOL    HW259377   1.877   7.348   1.246  0.7675  0.7049  0.1034
19219SOL     OW59378   5.180   8.809   8.079  0.0298 -0.6858  0.3535
19219SOL    HW159379   5.197   8.811   8.173 -0.3973 -0.3313  0.4274
19219SOL    HW259380   5.267   8.811   8.039  0.1979  0.4523  0.7318
19220SOL     OW59381   7.375   2.393   9.335  0.3986 -0.3517  0.0801
19220SOL    HW159382   7.462   2.391   9.294  0.5823  0.2991  0.4241
19220SOL    HW259383   7.393   2.410   9.428 -0.1067  0.0634  0.1063
19221SOL     OW59384   1.189   1.890   4.909 -0.1145 -0.3610  0.7631
19221SOL    HW159385   1.245   1.812   4.909 -0.1889 -0.5512 -2.4550
19221SOL    HW259386   1.250   1.963   4.898 -0.2032 -0.1147  1.7868
19222SOL     OW59387   5.377   2.707   4.238 -0.1030 -0.1214  0.1716
19222SOL    HW159388   5.364   2.724   4.144 -0.5391 -0.3316  0.1929
19222SOL    HW259389   5.346   2.786   4.281  0.0156 -0.0596  0.1454
19223SOL     OW59390   5.423   6.100   9.675  0.5026 -0.5274 -0.0353
19223SOL    HW159391   5.353   6.068   9.617  0.1089 -0.9613  0.6693
19223SOL    HW259392   5.496   6.118   9.616  0.0076 -0.6753 -0.7084
19224SOL     OW59393   7.391   6.721   8.571 -0.7624  0.4720  1.1029
19224SOL    HW159394   7.414   6.774   8.494 -0.2641 -0.9283  0.2592
19224SOL    HW259395   7.346   6.783   8.630 -2.4953  1.2522 -0.9124
19225SOL     OW59396   3.631   3.574   6.734 -0.2162 -0.5599  0.0955
19225SOL    HW159397   3.683   3.609   6.662 -0.1961  2.1418  1.2952
19225SOL    HW259398   3.542   3.607   6.717 -0.0976  0.6075  1.5270
19226SOL     OW59399   1.219   9.430   7.120 -0.3133  0.3370 -0.1916
19226SOL    HW159400   1.135   9.426   7.075 -0.1664 -2.1669 -0.3781
19226SOL    HW259401   1.236   9.340   7.149  2.5745  0.6096 -0.6764
19227SOL     OW59402   4.236   2.816   2.953 -0.7348  0.0187  0.1569
19227SOL    HW159403   4.259   2.893   2.902 -0.5069 -0.3574 -0.3138
19227SOL    HW259404   4.202   2.754   2.889 -2.5090  0.3190  0.7313
19228SOL     OW59405   1.887   0.220   2.977  0.2919 -0.7295 -0.5976
19228SOL    HW159406   1.894   0.139   3.028  1.1116 -0.0855  0.3397
19228SOL    HW259407   1.894   0.290   3.041  0.8151  0.1039 -1.5383
19229SOL     OW59408   0.175   4.610   2.546 -0.4120 -0.7200 -0.0553
19229SOL    HW159409   0.202   4.547   2.613  1.4868 -0.9922 -1.0210
19229SOL    HW259410   0.120   4.559   2.486  0.3743 -1.2459 -0.3398
19230SOL     OW59411   8.516   6.238   3.111 -0.1704  0.3048  0.1473
19230SOL    HW159412   8.461   6.163   3.088 -0.6787  0.1839  1.6319
19230SOL    HW259413   8.456   6.312   3.115  0.2380  0.7096 -0.7555
19231SOL     OW59414   4.057   1.539   8.097  0.4763  0.5976 -0.2124
19231SOL    HW159415   4.020   1.495   8.020 -0.8931 -0.9206  1.2488
19231SOL    HW259416   3.998   1.612   8.113  0.2452  0.3808 -0.0734
19232SOL     OW59417   7.303   4.240   2.490  0.1835 -1.1185 -0.0281
19232SOL    HW159418   7.262   4.163   2.451 -0.4263 -1.0159  0.3917
19232SOL    HW259419   7.385   4.251   2.442  0.0864 -1.7932 -0.3564
19233SOL     OW59420   0.994   6.532   1.826  0.0446  0.1733  0.6645
19233SOL    HW159421   1.021   6.557   1.737  1.1218 -3.6538 -0.2724
19233SOL    HW259422   0.904   6.502   1.816  0.8756 -2.4208  0.2493
19234SOL     OW59423   1.828   8.781   8.335 -0.0486  0.3657  0.2915
19234SOL    HW159424   1.805   8.713   8.399 -1.6821  0.2947 -0.3190
19234SOL    HW259425   1.910   8.818   8.368  0.6037 -1.5159  0.9300
19235SOL     OW59426   1.494   1.244   2.833 -0.4099 -0.1803  0.6427
19235SOL    HW159427   1.546   1.186   2.889 -1.0672 -1.1774  0.2626
19235SOL    HW259428   1.501   1.330   2.874 -0.5939 -0.8131  2.0527
19236SOL     OW59429   8.352   2.040   8.119  0.2536 -0.1574  0.0043
19236SOL    HW159430   8.296   1.979   8.167  0.2512 -0.1455  0.0160
19236SOL    HW259431   8.419   1.984   8.079  1.3731  0.0254  1.5645
19237SOL     OW59432   3.001   5.430   4.243  0.7527  0.1057 -0.4818
19237SOL    HW159433   2.907   5.439   4.224  0.0743  0.6722  2.5800
19237SOL    HW259434   3.020   5.338   4.228 -0.4320 -0.1232 -0.6657
19238SOL     OW59435   3.658   4.823   6.013 -0.4110 -0.0693 -0.4519
19238SOL    HW159436   3.688   4.740   6.051 -0.4034  0.0358 -0.2250
19238SOL    HW259437   3.592   4.797   5.949 -0.5408 -0.2430 -0.2515
19239SOL     OW59438   7.191   6.934   7.789 -0.4851 -0.3634 -0.2978
19239SOL    HW159439   7.202   6.938   7.694 -0.6562 -0.5079 -0.3240
19239SOL    HW259440   7.265   6.880   7.819  0.0959  0.4428 -0.2514
19240SOL     OW59441   5.223   1.745   1.624 -0.4958 -0.6728 -0.0612
19240SOL    HW159442   5.296   1.757   1.563 -1.1464  0.7832 -0.5973
19240SOL    HW259443   5.173   1.826   1.618 -1.2461 -0.9778  1.5418
19241SOL     OW59444   7.536   7.503   6.315  0.1088 -0.3649  0.0304
19241SOL    HW159445   7.521   7.515   6.409 -1.2010 -0.9531 -0.0724
19241SOL    HW259446   7.618   7.549   6.297 -0.1543  0.6540  1.2713
19242SOL     OW59447   0.215   4.918   0.767 -0.4952  0.3816  0.0302
19242SOL    HW159448   0.132   4.934   0.721 -0.5651  1.6558  0.5614
19242SOL    HW259449   0.196   4.843   0.825 -1.9206  1.8758  1.6208
19243SOL     OW59450   1.210   2.556   5.933  0.1763  0.1531 -0.4624
19243SOL    HW159451   1.248   2.589   6.015 -0.1857  0.4094 -0.3956
19243SOL    HW259452   1.284   2.545   5.874  0.4008  0.2720 -0.2014
19244SOL     OW59453   9.147   8.176   4.953 -0.2307 -0.0743  0.2321
19244SOL    HW159454   9.204   8.233   4.902 -1.4008  1.4449  0.5303
19244SOL    HW259455   9.168   8.088   4.923  0.8171  0.5898 -1.1097
19245SOL     OW59456   4.746   5.344   3.909  0.1225 -0.0101 -0.2432
19245SOL    HW159457   4.691   5.405   3.860 -3.0762 -1.7044  0.9163
19245SOL    HW259458   4.796   5.297   3.843 -0.6390  0.8820 -1.4839
19246SOL     OW59459   9.323   9.154   2.475  0.1429 -0.2428 -0.1027
19246SOL    HW159460   9.262   9.092   2.514  1.3564 -1.0636  0.5737
19246SOL    HW259461   9.304   9.152   2.381 -0.8852 -0.4387  0.1047
19247SOL     OW59462   7.002   5.853   0.038 -0.5523 -0.4147  0.5926
19247SOL    HW159463   6.958   5.888  -0.040 -0.9599 -0.0381  0.9800
19247SOL    HW259464   7.033   5.766   0.011 -2.4193 -1.1314  0.5818
19248SOL     OW59465   6.387   7.341   3.906  0.4856  0.3028  0.0327
19248SOL    HW159466   6.383   7.376   3.995 -1.2686  2.3913 -0.7678
19248SOL    HW259467   6.295   7.337   3.878  0.9960 -0.3463 -1.6607
19249SOL     OW59468   5.985   1.234   4.603  0.5574  0.2652  0.1219
19249SOL    HW159469   5.969   1.326   4.627  0.4083  0.2128  0.2279
19249SOL    HW259470   6.076   1.232   4.576  1.2473  0.0119  2.2942
19250SOL     OW59471   7.904   3.154   5.334 -0.0270  0.0970  0.2884
19250SOL    HW159472   7.870   3.229   5.286 -0.9350  0.1930  1.0624
19250SOL    HW259473   7.997   3.174   5.347  0.1186  0.3047 -0.9468
19251SOL     OW59474   4.366   6.482   7.689  0.0706 -0.5789  0.2627
19251SOL    HW159475   4.280   6.445   7.711 -1.3731  2.8816  1.1871
19251SOL    HW259476   4.350   6.534   7.610  0.9088  1.2556  1.2466
19252SOL     OW59477   6.703   3.029   1.301  0.1374  0.7052 -0.6010
19252SOL    HW159478   6.675   3.072   1.382 -0.8680 -1.8710  0.5106
19252SOL    HW259479   6.626   3.032   1.245 -0.2955 -0.5516 -0.0974
19253SOL     OW59480   8.550   8.466   2.045 -0.6701 -0.2013  0.0740
19253SOL    HW159481   8.543   8.451   1.950  0.9331  3.5037 -0.8096
19253SOL    HW259482   8.462   8.494   2.071 -0.3710  2.2116 -1.1933
19254SOL     OW59483   5.523   0.003   5.848 -0.7508 -0.3405 -0.4698
19254SOL    HW159484   5.484  -0.079   5.817 -2.6879  0.0222  0.8228
19254SOL    HW259485   5.466   0.031   5.920  0.5265  1.5557 -0.1189
19255SOL     OW59486   2.001   3.156   1.947  0.2474 -0.6620 -0.2151
19255SOL    HW159487   2.040   3.243   1.954 -0.0309 -0.6381  1.3457
19255SOL    HW259488   2.034   3.108   2.023 -0.0149 -1.7603 -0.7662
19256SOL     OW59489   6.750   1.685   2.030  0.3270 -0.2813 -0.4624
19256SOL    HW159490   6.766   1.652   1.942 -0.3066 -0.7794 -0.4035
19256SOL    HW259491   6.725   1.776   2.018  1.0672 -0.1068 -0.7210
19257SOL     OW59492   1.877   7.934   8.066 -0.3266  0.2278  0.1359
19257SOL    HW159493   1.896   7.853   8.113 -2.7054 -0.5922 -0.1551
19257SOL    HW259494   1.888   8.003   8.132 -1.7621 -0.7147  1.4358
19258SOL     OW59495   1.561   2.940   3.749 -0.3668  0.5496 -0.3318
19258SOL    HW159496   1.610   2.859   3.741 -0.7284  0.1281  1.3267
19258SOL    HW259497   1.606   2.989   3.819 -2.2575  0.1222  1.2871
19259SOL     OW59498   8.091   6.968   5.137  0.1446  0.0540 -0.3794
19259SOL    HW159499   8.166   6.931   5.183  0.2168  0.3136 -0.2913
19259SOL    HW259500   8.116   6.967   5.044 -0.1520 -0.8344 -0.4715
19260SOL     OW59501   6.419   3.860   5.614 -0.1479  0.4390  0.2247
19260SOL    HW159502   6.476   3.785   5.633 -1.0633 -0.3978 -0.2190
19260SOL    HW259503   6.406   3.903   5.698  0.2129 -0.0349  0.5250
19261SOL     OW59504   3.714   6.117   8.542 -0.1639  0.4723 -0.0715
19261SOL    HW159505   3.668   6.119   8.458 -0.7507  1.7550  0.2600
19261SOL    HW259506   3.686   6.035   8.583  0.2170 -0.2219 -1.1519
19262SOL     OW59507   7.900   0.454   1.952  0.1085  0.5835 -0.1402
19262SOL    HW159508   7.843   0.460   2.029 -0.6519  1.5333 -0.7549
19262SOL    HW259509   7.980   0.413   1.984 -0.4507  0.3725  1.0147
19263SOL     OW59510   5.630   5.157   4.735  0.0934  0.2179  0.2644
19263SOL    HW159511   5.695   5.177   4.803  0.5304  1.2725 -0.4425
19263SOL    HW259512   5.547   5.185   4.773  0.4866  1.9675 -0.0692
19264SOL     OW59513   2.337   8.461   4.624 -0.2538 -0.3754  0.1589
19264SOL    HW159514   2.409   8.503   4.577 -1.0523 -1.2153 -1.9600
19264SOL    HW259515   2.329   8.375   4.583 -0.6894 -1.3788  2.2369
19265SOL     OW59516   4.406   2.773   0.654  0.5848  0.4751 -0.8671
19265SOL    HW159517   4.354   2.851   0.637 -0.3133  0.1118  0.0852
19265SOL    HW259518   4.493   2.793   0.619  0.4934  2.0594 -0.2577
19266SOL     OW59519   2.560   5.298   7.880  0.3486  0.7030 -0.3424
19266SOL    HW159520   2.602   5.265   7.960 -0.2349  0.2138 -0.2238
19266SOL    HW259521   2.604   5.251   7.809  1.6845  2.0086 -0.4122
19267SOL     OW59522   2.038   8.655   1.205  0.2387  1.1201  0.0703
19267SOL    HW159523   2.061   8.706   1.283  0.2069  1.1103  0.0855
19267SOL    HW259524   1.953   8.690   1.178 -0.5069  0.0640  0.9502
19268SOL     OW59525   7.220   1.025   7.019 -0.5925 -0.2436  0.6393
19268SOL    HW159526   7.300   1.070   7.046 -0.0942  0.2261 -1.4212
19268SOL    HW259527   7.149   1.084   7.042 -0.2160  0.0528  1.0420
19269SOL     OW59528   8.081   4.389   2.566  0.0670  0.3068  0.2371
19269SOL    HW159529   8.048   4.373   2.654  0.2141 -0.1124  0.2148
19269SOL    HW259530   8.045   4.318   2.513  0.4908  0.2025  0.0857
19270SOL     OW59531   0.292   7.118   2.330  0.0225 -0.2861 -0.0814
19270SOL    HW159532   0.361   7.064   2.369  0.7581  0.8695  0.2455
19270SOL    HW259533   0.302   7.105   2.236  1.3536  0.6461 -0.0888
19271SOL     OW59534   4.240   0.677   3.742 -0.0304 -0.1163 -0.7170
19271SOL    HW159535   4.201   0.757   3.707 -0.7574 -0.1580 -0.0496
19271SOL    HW259536   4.165   0.618   3.753  0.0676  0.0960  1.4200
19272SOL     OW59537   6.507   1.151   7.118  0.4691  0.6169  0.4159
19272SOL    HW159538   6.514   1.231   7.170  0.2314 -1.3979  3.8745
19272SOL    HW259539   6.598   1.122   7.106  0.6509  1.9536 -1.9805
19273SOL     OW59540   0.494   2.869   0.863  0.0175 -0.1821  0.0341
19273SOL    HW159541   0.460   2.880   0.774 -1.1445 -2.4488  0.1228
19273SOL    HW259542   0.576   2.918   0.864 -1.2006  2.0568 -1.4695
19274SOL     OW59543   4.279   6.107   4.387 -0.3783  0.0879 -0.0346
19274SOL    HW159544   4.358   6.117   4.441  0.4065 -0.6827 -0.9829
19274SOL    HW259545   4.260   6.013   4.391 -1.9167  0.4111  1.0569
19275SOL     OW59546   9.519   5.161   5.391  0.3446 -0.0998  0.1314
19275SOL    HW159547   9.591   5.098   5.401  0.9574  0.4705 -0.6076
19275SOL    HW259548   9.522   5.187   5.299  0.2069  1.1450  0.4636
19276SOL     OW59549   1.485   1.955   6.012 -0.0907  0.3489 -0.1426
19276SOL    HW159550   1.437   1.872   6.005  0.3619  0.0776 -0.0618
19276SOL    HW259551   1.467   1.986   6.100 -0.0943  0.2314 -0.1012
19277SOL     OW59552   1.338   0.635   4.333  0.3799  0.3341 -0.0039
19277SOL    HW159553   1.311   0.726   4.319  0.0578  0.1322 -0.7754
19277SOL    HW259554   1.410   0.622   4.271  0.5798  0.1255  0.2674
19278SOL     OW59555   6.321   8.903   2.758  0.2210 -0.0968  0.0675
19278SOL    HW159556   6.289   8.852   2.684  0.5704 -1.4837  0.8509
19278SOL    HW259557   6.268   8.874   2.832  1.4324 -0.4076  0.8213
19279SOL     OW59558   9.135   5.426   5.944  0.1007  0.2046 -0.1121
19279SOL    HW159559   9.196   5.382   6.003  0.0424 -0.3234 -0.4440
19279SOL    HW259560   9.060   5.448   5.999 -0.8234 -2.0239 -0.3558
19280SOL     OW59561   0.907   7.149   3.941  0.0645  0.2030  0.2329
19280SOL    HW159562   0.839   7.179   3.881 -1.2356 -1.1330  0.9721
19280SOL    HW259563   0.955   7.082   3.893 -1.0854 -0.9895  0.7049
19281SOL     OW59564   6.183   7.080   2.736 -0.6132 -0.2252  0.2421
19281SOL    HW159565   6.218   6.995   2.761  0.3812 -0.2659 -1.1513
19281SOL    HW259566   6.113   7.060   2.674 -0.6519 -0.0479  0.2285
19282SOL     OW59567   5.771   4.678   5.008  0.2775  0.8293 -0.2791
19282SOL    HW159568   5.679   4.687   5.034  0.6295  0.3408  1.2095
19282SOL    HW259569   5.767   4.643   4.919 -1.0194 -1.4379  0.5724
19283SOL     OW59570   2.824   6.686   2.720  0.1574 -0.1753  0.3835
19283SOL    HW159571   2.836   6.609   2.664  0.8299 -0.3715  0.7802
19283SOL    HW259572   2.859   6.759   2.669  2.5463 -0.6383  1.2556
19284SOL     OW59573   3.280   5.052   3.768 -0.0379 -0.5359  0.4077
19284SOL    HW159574   3.295   5.130   3.714 -1.0010 -0.1014  0.7532
19284SOL    HW259575   3.359   5.046   3.823 -0.3377  0.7210  1.0083
19285SOL     OW59576   5.417   9.400   6.719  0.2755  0.8843 -0.0703
19285SOL    HW159577   5.377   9.434   6.799 -1.6963 -0.4683 -0.4289
19285SOL    HW259578   5.393   9.308   6.716 -0.2183  1.0144 -2.4925
19286SOL     OW59579   8.580   7.139   7.856  0.6616  0.0734 -0.3003
19286SOL    HW159580   8.570   7.148   7.951  0.5060 -1.3791 -0.1663
19286SOL    HW259581   8.520   7.204   7.819  0.4572  0.3983  0.5811
19287SOL     OW59582   2.528   2.190   7.239 -0.2140 -0.4614  0.7521
19287SOL    HW159583   2.452   2.244   7.215 -0.5400 -0.5252  1.6040
19287SOL    HW259584   2.603   2.249   7.229 -0.5169  0.0062  1.1864
19288SOL     OW59585   0.685   7.277   4.862  0.4582  0.4153 -0.3135
19288SOL    HW159586   0.698   7.264   4.956  1.2777  1.5297 -0.2569
19288SOL    HW259587   0.736   7.207   4.821  1.8108  1.1428  0.0506
19289SOL     OW59588   8.075   6.767   3.588 -0.0699  0.2965 -0.2616
19289SOL    HW159589   8.082   6.823   3.666  0.1312 -1.4054  0.9898
19289SOL    HW259590   8.062   6.829   3.516 -0.2364  1.9318  1.1002
19290SOL     OW59591   6.606   2.528   2.754  0.4459 -0.4238 -0.7236
19290SOL    HW159592   6.513   2.543   2.772  0.3372 -0.9089 -0.8813
19290SOL    HW259593   6.640   2.490   2.836  0.8796  1.2672 -0.0580
19291SOL     OW59594   7.425   3.124   1.713 -0.5976 -0.5832  0.2873
19291SOL    HW159595   7.474   3.206   1.705  1.1851 -1.4843  1.3859
19291SOL    HW259596   7.365   3.125   1.639 -0.2394  1.4524 -0.0404
19292SOL     OW59597   3.619   1.575   4.466 -0.3206 -0.6027 -0.2465
19292SOL    HW159598   3.536   1.553   4.507  0.4869  1.5936  2.9511
19292SOL    HW259599   3.595   1.628   4.390 -1.8792  0.2515  0.7839
19293SOL     OW59600   9.303   2.099   4.825  0.4518  0.1129 -0.3152
19293SOL    HW159601   9.384   2.137   4.859  0.3483  0.9742 -0.9792
19293SOL    HW259602   9.234   2.144   4.873  0.3574 -0.9161  0.5443
19294SOL     OW59603   1.807   7.908   0.834  0.1933 -0.6798  0.3314
19294SOL    HW159604   1.814   7.912   0.930  0.1650  0.2363  0.3070
19294SOL    HW259605   1.712   7.902   0.818  0.0916  0.5807  0.3423
19295SOL     OW59606   1.464   8.288   7.782 -0.0109 -0.4582 -0.0392
19295SOL    HW159607   1.508   8.283   7.697 -0.2417  2.7593 -0.4675
19295SOL    HW259608   1.497   8.369   7.821 -2.3061 -0.1748  1.5114
19296SOL     OW59609   8.500   3.446   3.680  0.3433 -0.2267  0.7272
19296SOL    HW159610   8.492   3.352   3.696  1.8969 -0.5055  0.0359
19296SOL    HW259611   8.507   3.485   3.767 -1.0036 -0.6515  1.0486
19297SOL     OW59612   3.119   6.588   7.712  0.3738 -0.8328  0.8369
19297SOL    HW159613   3.178   6.570   7.638 -1.0191 -0.1042 -0.5040
19297SOL    HW259614   3.033   6.560   7.681 -0.7799  2.1383  1.0425
19298SOL     OW59615   0.885   9.592   5.572 -0.1889 -0.0447  0.0528
19298SOL    HW159616   0.953   9.525   5.564  1.5174  1.7352 -1.0999
19298SOL    HW259617   0.927   9.673   5.543 -2.2400  1.5211  1.2077
19299SOL     OW59618   1.942   4.445   8.400  0.0627  0.3246 -0.0763
19299SOL    HW159619   1.907   4.526   8.363  1.2574  0.6474 -0.5451
19299SOL    HW259620   2.026   4.470   8.439  0.7651 -0.8003 -0.7990
19300SOL     OW59621   6.643   3.884   6.550 -0.2165  0.0112 -0.4669
19300SOL    HW159622   6.683   3.865   6.636  2.0933 -0.2806 -1.5270
19300SOL    HW259623   6.557   3.842   6.554 -0.2016  0.0476  1.7135
19301SOL     OW59624   5.962   7.916   5.653  0.1052 -0.0639 -0.4989
19301SOL    HW159625   5.916   7.907   5.737  0.6993  1.2472 -0.0045
19301SOL    HW259626   5.973   7.827   5.621 -0.4178 -0.5549  0.6610
19302SOL     OW59627   7.647   2.642   3.476 -0.0692  0.4289 -0.0260
19302SOL    HW159628   7.591   2.569   3.449 -0.6528  1.1803 -0.9414
19302SOL    HW259629   7.702   2.658   3.399  0.6764  0.3811  0.4927
19303SOL     OW59630   6.696   4.453   4.513  0.0532 -0.3956  0.7089
19303SOL    HW159631   6.679   4.463   4.607 -0.9132 -0.4162  0.5445
19303SOL    HW259632   6.664   4.535   4.475 -1.0411 -1.0315  0.2183
19304SOL     OW59633   5.262   1.799   5.589  0.1226 -0.1036  0.7129
19304SOL    HW159634   5.185   1.784   5.534 -0.3081  0.4336  1.1678
19304SOL    HW259635   5.310   1.717   5.586 -0.2884 -0.3266  0.1434
19305SOL     OW59636   0.126   1.267   0.453  0.0640  0.0326  0.5447
19305SOL    HW159637   0.163   1.352   0.477  0.4088 -0.2781  1.1347
19305SOL    HW259638   0.179   1.238   0.379  0.4317  0.0000  0.8151
19306SOL     OW59639   2.139   8.721   5.482 -0.1778  0.4483 -0.2884
19306SOL    HW159640   2.092   8.719   5.566 -1.5100 -0.0796 -1.0165
19306SOL    HW259641   2.226   8.688   5.503 -0.2330  1.0498  1.0246
19307SOL     OW59642   0.711   1.958   6.087  0.2330 -0.9226  0.3559
19307SOL    HW159643   0.780   1.950   6.020 -0.3617 -2.0331 -0.1428
19307SOL    HW259644   0.739   1.898   6.157 -0.3614 -1.5945  0.0251
19308SOL     OW59645   4.885   9.494   0.187 -0.0045 -0.0955  0.2609
19308SOL    HW159646   4.829   9.434   0.137  0.5582 -0.6783  0.3070
19308SOL    HW259647   4.869   9.471   0.279  1.7379 -1.6370  0.2319
19309SOL     OW59648   8.400   3.551   9.317 -0.3874 -0.2035  0.2941
19309SOL    HW159649   8.343   3.628   9.309 -1.2628 -0.8998 -0.4469
19309SOL    HW259650   8.339   3.477   9.322  0.4188 -0.8151  1.6355
19310SOL     OW59651   0.401   7.755   2.118  0.0708  0.8042 -0.1096
19310SOL    HW159652   0.382   7.842   2.081 -1.7297 -0.2827 -1.9350
19310SOL    HW259653   0.334   7.741   2.184 -0.1531  0.4977 -0.3953
19311SOL     OW59654   4.761   4.515   7.941  0.1423  0.4585 -0.4696
19311SOL    HW159655   4.812   4.486   8.016 -1.1195  1.0999  0.6928
19311SOL    HW259656   4.681   4.461   7.944 -1.3879  2.6392  0.6221
19312SOL     OW59657   1.376   3.329   8.438 -0.4922  0.5019  0.2830
19312SOL    HW159658   1.454   3.384   8.450 -1.2371  1.8240 -0.6649
19312SOL    HW259659   1.305   3.382   8.474 -0.9627 -0.7681  1.2938
19313SOL     OW59660   0.956   1.510   1.536  0.1881  0.2197 -0.2473
19313SOL    HW159661   0.969   1.586   1.592  0.2420  0.8611 -1.0963
19313SOL    HW259662   1.044   1.479   1.516  0.3282  1.5793 -2.0362
19314SOL     OW59663   8.653   6.232   8.819 -0.2345 -0.2727  0.3553
19314SOL    HW159664   8.703   6.152   8.833  0.2637 -0.1503 -0.5983
19314SOL    HW259665   8.640   6.236   8.724 -1.8961 -0.1933  0.5652
19315SOL     OW59666   3.876   1.767   7.839 -0.3093 -0.1595 -0.5110
19315SOL    HW159667   3.815   1.840   7.834 -1.4280 -1.0723 -0.8060
19315SOL    HW259668   3.835   1.698   7.786  0.2446 -1.3185  0.5053
19316SOL     OW59669   2.392   6.629   5.563 -0.5100 -0.3517  0.2154
19316SOL    HW159670   2.480   6.596   5.545  0.5039  2.0422  0.4347
19316SOL    HW259671   2.342   6.607   5.484  1.1306  0.8796 -1.2535
19317SOL     OW59672   2.581   4.784   1.079 -0.4450  0.3022  0.1048
19317SOL    HW159673   2.605   4.743   1.163  1.1447 -0.3937 -0.6483
19317SOL    HW259674   2.663   4.791   1.032 -1.2361  1.2409 -1.1752
19318SOL     OW59675   3.933   9.270   3.465  0.2559 -0.2426  0.0292
19318SOL    HW159676   3.861   9.318   3.506  0.7103  1.2724 -0.8767
19318SOL    HW259677   3.891   9.218   3.396  0.1056  1.7323 -1.4756
19319SOL     OW59678   5.484   2.661   1.235  0.0635 -0.0821 -0.2872
19319SOL    HW159679   5.518   2.572   1.245  1.5746  0.5962  1.0197
19319SOL    HW259680   5.431   2.676   1.313  1.1312  0.6949  0.3121
19320SOL     OW59681   8.470   4.741   0.248  0.3638  0.0040  0.3754
19320SOL    HW159682   8.561   4.711   0.254  0.5353  0.5445  0.5462
19320SOL    HW259683   8.476   4.836   0.252 -0.0001  0.2085 -2.0389
19321SOL     OW59684   3.178   1.071   9.436  0.2894 -1.0125 -0.3162
19321SOL    HW159685   3.265   1.110   9.437 -0.1195  0.0241 -1.7715
19321SOL    HW259686   3.123   1.134   9.391 -0.7670 -2.5697 -1.3330
19322SOL     OW59687   9.485   5.205   7.289 -0.8073  0.1465 -0.5937
19322SOL    HW159688   9.480   5.273   7.221 -2.1842  0.2619 -0.4087
19322SOL    HW259689   9.501   5.124   7.240 -0.9376  0.3471 -0.9777
19323SOL     OW59690   9.134   7.799   1.522  0.0175 -0.1174 -0.0526
19323SOL    HW159691   9.168   7.711   1.536 -0.8826 -0.5189 -0.3284
19323SOL    HW259692   9.042   7.794   1.545  0.0082  0.8260  0.1794
19324SOL     OW59693   2.262   6.324   2.587  0.2476  0.5283 -0.0036
19324SOL    HW159694   2.309   6.327   2.504  0.2062  2.0201  0.0010
19324SOL    HW259695   2.310   6.383   2.644 -0.5620  0.6366  0.5822
19325SOL     OW59696   6.402   7.722   8.489 -0.5221  0.4839 -0.2605
19325SOL    HW159697   6.375   7.784   8.421 -3.6445 -1.6694 -1.1969
19325SOL    HW259698   6.320   7.691   8.528  0.9958 -1.3619  1.7254
19326SOL     OW59699   1.208   5.470   2.541  0.0076 -0.3485  1.1398
19326SOL    HW159700   1.171   5.429   2.462  0.9502  0.8161  0.0516
19326SOL    HW259701   1.163   5.426   2.614 -1.3209 -1.0523 -0.0452
19327SOL     OW59702   8.425   7.771   3.136 -0.3666  0.4305 -0.3144
19327SOL    HW159703   8.454   7.842   3.079 -0.2366  3.1853  2.8737
19327SOL    HW259704   8.395   7.815   3.216 -0.2122 -3.1228  1.9196
19328SOL     OW59705   7.805   8.102   3.811  0.0494 -0.8025  0.2351
19328SOL    HW159706   7.887   8.079   3.768 -0.4256 -0.5727 -0.8375
19328SOL    HW259707   7.737   8.078   3.747 -0.6784 -0.3252  0.8092
19329SOL     OW59708   6.202   5.392   3.083 -0.4369 -0.5064  0.3907
19329SOL    HW159709   6.178   5.362   2.995 -0.9420  0.8654  0.0376
19329SOL    HW259710   6.118   5.409   3.127 -0.1907  0.9944  0.3397
19330SOL     OW59711   3.611   3.506   5.290  0.0542 -0.1831 -0.7525
19330SOL    HW159712   3.642   3.550   5.369  0.9225 -1.3823 -0.3840
19330SOL    HW259713   3.625   3.568   5.219 -0.9393  0.9967  0.0575
19331SOL     OW59714   3.186   6.731   3.455  0.1063 -0.6188 -0.8065
19331SOL    HW159715   3.098   6.768   3.454 -0.3341 -1.6277 -0.5594
19331SOL    HW259716   3.196   6.694   3.543 -0.0061 -2.3145 -1.4833
19332SOL     OW59717   1.270   1.899   9.381 -0.6996  0.5765  0.1391
19332SOL    HW159718   1.190   1.876   9.427 -1.0951 -0.5220 -1.0276
19332SOL    HW259719   1.275   1.837   9.308  1.2975  0.5076  0.2664
19333SOL     OW59720   2.554   1.043   9.113 -0.4834 -0.2080  0.4488
19333SOL    HW159721   2.547   1.080   9.201  1.3794  0.2345  0.4640
19333SOL    HW259722   2.620   1.097   9.070 -2.1429  0.2812 -1.6221
19334SOL     OW59723   0.689   0.152   3.955  0.3486 -0.2868 -0.0989
19334SOL    HW159724   0.639   0.129   4.033  1.4457  0.8332  0.9899
19334SOL    HW259725   0.726   0.069   3.925 -0.3025 -0.7716  0.4156
19335SOL     OW59726   7.845   0.767   6.708  0.2863  0.2826  0.0391
19335SOL    HW159727   7.848   0.833   6.639  1.5666  1.6395  1.3351
19335SOL    HW259728   7.840   0.817   6.789 -0.0958 -1.2551  1.0121
19336SOL     OW59729   3.761   2.539   8.604  0.4412  0.2286 -0.2524
19336SOL    HW159730   3.750   2.463   8.546 -0.0693 -0.8432  1.1802
19336SOL    HW259731   3.673   2.570   8.620  0.5579  0.3899  0.0949
19337SOL     OW59732   1.062   2.834   4.247 -0.1224 -0.4208  0.4374
19337SOL    HW159733   1.043   2.820   4.340 -2.4575 -0.1917  0.0671
19337SOL    HW259734   0.990   2.790   4.201  0.5654  0.1164 -1.2465
19338SOL     OW59735   4.142   7.227   5.473 -0.1226  0.3090  0.3749
19338SOL    HW159736   4.154   7.308   5.522  1.3859  0.1798  0.2710
19338SOL    HW259737   4.164   7.249   5.383  0.2732 -0.2092  0.3394
19339SOL     OW59738   6.204   3.284   3.984  0.3375  0.3277  0.4165
19339SOL    HW159739   6.226   3.290   4.077 -0.6012  0.0491  0.6641
19339SOL    HW259740   6.163   3.198   3.975  0.5986  0.2755 -0.2958
19340SOL     OW59741   3.686   7.770   7.722 -0.3583  0.4107 -0.2217
19340SOL    HW159742   3.624   7.818   7.777 -0.4330  0.5992 -0.4685
19340SOL    HW259743   3.698   7.825   7.645 -0.1582  0.2065 -0.3386
19341SOL     OW59744   6.037   1.792   7.354  0.0129  0.3431  0.7440
19341SOL    HW159745   5.973   1.794   7.283 -0.4231 -0.6485  1.0836
19341SOL    HW259746   6.119   1.816   7.313  0.0140 -1.4070 -0.4033
19342SOL     OW59747   6.562   5.481   7.156 -0.1420 -0.6254 -0.1724
19342SOL    HW159748   6.516   5.555   7.197 -0.0018 -1.1057  0.8779
19342SOL    HW259749   6.614   5.522   7.086 -2.9022 -0.1750 -2.1217
19343SOL     OW59750   7.654   0.878   3.711 -0.0896  0.2102  0.3110
19343SOL    HW159751   7.748   0.862   3.721 -0.0475 -0.6086 -1.1834
19343SOL    HW259752   7.648   0.945   3.643 -0.6003  0.1311  0.2758
19344SOL     OW59753   1.079   9.473   3.656  0.0582 -0.3461 -0.0701
19344SOL    HW159754   1.107   9.542   3.715 -3.0408  0.6612  0.4060
19344SOL    HW259755   1.012   9.425   3.705 -1.3485 -0.5750 -2.0967
19345SOL     OW59756   3.418   6.876   5.878  0.3816 -0.1366 -0.0879
19345SOL    HW159757   3.416   6.949   5.816 -1.1578  0.1298  0.2334
19345SOL    HW259758   3.334   6.831   5.864  0.1332 -0.2377  1.5786
19346SOL     OW59759   2.424   0.719   8.877 -0.5482  0.0637 -0.2269
19346SOL    HW159760   2.379   0.716   8.792  0.3296  0.6985 -0.7322
19346SOL    HW259761   2.354   0.726   8.941 -1.1995  0.2912 -0.9518
19347SOL     OW59762   6.751   5.351   1.525  0.1984  0.3029 -0.6658
19347SOL    HW159763   6.737   5.257   1.525 -0.5399  0.4090 -0.2569
19347SOL    HW259764   6.663   5.389   1.523  0.3956  0.9918  1.5574
19348SOL     OW59765   2.245   0.370   7.106 -0.3075  0.0802 -0.0019
19348SOL    HW159766   2.316   0.388   7.168 -0.0382 -0.2796 -0.1938
19348SOL    HW259767   2.282   0.391   7.020 -0.3973 -0.1987 -0.1120
19349SOL     OW59768   1.710   4.191   1.346  0.4567 -0.2891 -0.0972
19349SOL    HW159769   1.776   4.174   1.278  0.2528  0.3184 -0.4631
19349SOL    HW259770   1.628   4.163   1.306  0.2098  0.8908 -0.4616
19350SOL     OW59771   3.835   9.127   2.844  0.3458 -0.2911  0.2138
19350SOL    HW159772   3.886   9.139   2.924  0.9989 -2.0307  0.0982
19350SOL    HW259773   3.819   9.033   2.839 -2.9642  0.1476  0.2605
19351SOL     OW59774   6.775   2.556   1.148 -0.4310  0.5341  0.2088
19351SOL    HW159775   6.786   2.462   1.165 -1.0038  0.4686  0.2381
19351SOL    HW259776   6.863   2.587   1.126 -0.2898 -0.0668 -0.0926
19352SOL     OW59777   9.559   6.724   8.835 -0.1511 -0.5417 -0.0379
19352SOL    HW159778   9.550   6.701   8.927 -1.6669 -0.9442 -0.2560
19352SOL    HW259779   9.639   6.680   8.807 -1.2546 -2.9807  0.3489
19353SOL     OW59780   1.941   2.514   7.683  0.7435  0.2240 -0.4460
19353SOL    HW159781   1.978   2.596   7.714  0.0063  1.2146 -2.0303
19353SOL    HW259782   1.988   2.495   7.602 -0.5455  0.2547 -1.2405
19354SOL     OW59783   5.989   6.627   0.165  0.3308  0.0306  0.9572
19354SOL    HW159784   5.997   6.597   0.256  0.3938  3.0081  2.0624
19354SOL    HW259785   6.054   6.697   0.158 -0.5471  0.7054 -1.0021
19355SOL     OW59786   9.541   9.619   9.619 -0.3180  0.4394 -0.1406
19355SOL    HW159787   9.455   9.578   9.620 -0.1957 -0.1099 -3.3513
19355SOL    HW259788   9.600   9.550   9.587  1.1828  1.1056  1.0465
19356SOL     OW59789   5.413   5.078   7.627  0.0443 -0.8573  0.5570
19356SOL    HW159790   5.384   5.165   7.653  0.7057 -0.3681 -0.2882
19356SOL    HW259791   5.404   5.077   7.532  0.5801 -1.5073  0.5029
19357SOL     OW59792   3.595   4.359   1.019 -0.4408 -0.1765 -0.1773
19357SOL    HW159793   3.676   4.314   1.046 -0.5135 -0.1958  0.0071
19357SOL    HW259794   3.582   4.331   0.928 -0.5168 -0.5751 -0.0452
19358SOL     OW59795   0.139   2.965   8.802 -0.2471  0.1553  0.2436
19358SOL    HW159796   0.201   2.968   8.729  1.6102 -0.0603  1.7521
19358SOL    HW259797   0.103   3.054   8.805  0.9475  0.6630  0.1231
19359SOL     OW59798   7.918   4.927   8.605 -0.0438 -0.1079  0.4412
19359SOL    HW159799   7.996   4.872   8.601  0.4896  0.5140  1.8022
19359SOL    HW259800   7.948   5.010   8.640 -1.2310  0.3340  0.4711
19360SOL     OW59801   5.211   0.706   8.844  0.2034 -0.4722  0.3468
19360SOL    HW159802   5.200   0.730   8.752 -0.0665 -0.8946  0.2674
19360SOL    HW259803   5.137   0.747   8.889  0.1330 -0.5706  0.3205
19361SOL     OW59804   8.657   2.147   4.520 -0.1089  0.0606 -0.5376
19361SOL    HW159805   8.701   2.114   4.441  2.3082  0.4494  0.5562
19361SOL    HW259806   8.631   2.068   4.568  2.4728 -0.3306  0.3662
19362SOL     OW59807   7.042   3.880   9.537  0.5952 -0.0308  0.3941
19362SOL    HW159808   6.995   3.874   9.620  0.2349 -0.1843  0.1793
19362SOL    HW259809   6.994   3.945   9.486 -0.1635 -1.1074 -0.3190
19363SOL     OW59810   7.502   2.902   1.441 -0.5705 -0.1236  0.5604
19363SOL    HW159811   7.422   2.942   1.406 -0.2703 -0.3600 -0.4249
19363SOL    HW259812   7.573   2.950   1.399 -0.2044 -0.7194  0.4911
19364SOL     OW59813   4.971   5.735   2.232 -0.9227  0.2088 -0.4404
19364SOL    HW159814   4.929   5.668   2.179  0.5499  0.6514 -2.2711
19364SOL    HW259815   5.053   5.695   2.260 -0.6159  0.8031 -0.4833
19365SOL     OW59816   6.780   0.266   5.325  0.1090  0.2259 -0.1950
19365SOL    HW159817   6.854   0.240   5.380 -0.1317  1.1229  0.5859
19365SOL    HW259818   6.704   0.225   5.366 -0.0955  1.0439  0.2576
19366SOL     OW59819   6.391   7.727   5.894  0.0638 -0.0263  0.2892
19366SOL    HW159820   6.375   7.792   5.963 -2.1481  0.2144 -0.3762
19366SOL    HW259821   6.345   7.761   5.818  0.5414 -1.4210 -0.6631
19367SOL     OW59822   4.651   4.517   0.266  0.2721 -0.2733  0.1345
19367SOL    HW159823   4.576   4.564   0.301 -0.5741 -0.4176 -1.4080
19367SOL    HW259824   4.718   4.584   0.254 -1.0963  0.7332 -2.5464
19368SOL     OW59825   3.100   8.187   3.416 -0.1568 -0.2382  0.0316
19368SOL    HW159826   3.078   8.099   3.386  0.5127 -1.6999  3.3615
19368SOL    HW259827   3.195   8.185   3.429  0.0287  1.3795 -0.8698
19369SOL     OW59828   3.132   5.787   1.652 -0.4150 -0.5773 -0.2169
19369SOL    HW159829   3.169   5.868   1.685  0.0164 -0.5136 -0.8361
19369SOL    HW259830   3.159   5.784   1.560 -2.8323  0.0012 -1.0217
19370SOL     OW59831   0.134   3.038   1.879  0.1064 -0.2531  0.0472
19370SOL    HW159832   0.229   3.027   1.880  0.0599 -0.7320 -0.2646
19370SOL    HW259833   0.119   3.124   1.917  0.8795  1.2683 -2.7599
19371SOL     OW59834   5.372   4.156   0.155 -0.5899  0.1512  0.4095
19371SOL    HW159835   5.302   4.091   0.145 -0.5764  0.4327 -1.9960
19371SOL    HW259836   5.446   4.119   0.108  0.0913  0.9916  0.8033
19372SOL     OW59837   3.853   0.322   0.180 -0.1950 -0.3934  0.3145
19372SOL    HW159838   3.776   0.356   0.134  0.1957 -0.3305 -0.3054
19372SOL    HW259839   3.852   0.228   0.164  0.7229 -0.1923 -1.0408
19373SOL     OW59840   0.751   7.801   5.325  0.1615 -0.0989  0.4712
19373SOL    HW159841   0.679   7.751   5.364  0.4175  0.5939  1.9222
19373SOL    HW259842   0.826   7.780   5.380  0.8564 -0.0767 -0.4566
19374SOL     OW59843   4.400   9.168   5.257 -0.0339  0.3156  0.5066
19374SOL    HW159844   4.402   9.255   5.298  0.0116  0.6224 -0.1362
19374SOL    HW259845   4.326   9.173   5.196  0.3555  0.1116  0.0163
19375SOL     OW59846   2.102   3.065   2.185  0.1628 -0.2287  0.4448
19375SOL    HW159847   2.173   3.104   2.235 -0.4430  0.9255  0.4236
19375SOL    HW259848   2.124   2.971   2.182  0.7889 -0.1597  1.8897
19376SOL     OW59849   1.650   9.638   1.852  0.0899  0.1859 -0.1263
19376SOL    HW159850   1.643   9.621   1.946  0.5853  0.7131  0.0145
19376SOL    HW259851   1.587   9.709   1.836 -1.0655 -0.8707 -0.4803
19377SOL     OW59852   9.665   7.003   1.297  0.1237 -0.1128 -1.1741
19377SOL    HW159853   9.611   7.024   1.221  0.7614  0.5212 -1.4603
19377SOL    HW259854   9.706   6.919   1.275 -0.1107 -0.1980 -1.2952
19378SOL     OW59855   5.220   6.417   8.708 -0.1484  0.0991  0.0334
19378SOL    HW159856   5.186   6.503   8.685  1.7572  0.5749 -1.3395
19378SOL    HW259857   5.243   6.424   8.800  1.6323  1.7344 -0.4560
19379SOL     OW59858   2.244   7.326   9.696  0.3944  0.5337 -0.1085
19379SOL    HW159859   2.330   7.311   9.734  0.1092 -0.0017  0.3468
19379SOL    HW259860   2.256   7.401   9.638  0.6622  1.9388  1.6675
19380SOL     OW59861   6.169   3.700   9.602 -0.1788  0.3626  0.1105
19380SOL    HW159862   6.074   3.694   9.587 -0.5355 -0.5519  2.2846
19380SOL    HW259863   6.177   3.716   9.696  1.8381  0.2207  0.0001
19381SOL     OW59864   7.431   0.808   1.026  0.1645 -0.7150 -0.4131
19381SOL    HW159865   7.419   0.713   1.017 -0.9688 -0.5414 -0.8893
19381SOL    HW259866   7.483   0.833   0.950  0.5283 -0.9661 -0.2471
19382SOL     OW59867   9.470   9.005   8.971  0.3235 -0.0761 -0.4550
19382SOL    HW159868   9.459   9.093   9.008 -1.5798 -0.0101 -1.0540
19382SOL    HW259869   9.529   9.018   8.897 -1.1837  1.0386 -1.5233
19383SOL     OW59870   4.626   1.494   0.599  0.1074  0.2879 -0.0417
19383SOL    HW159871   4.601   1.554   0.670 -3.9837 -0.0073 -0.9745
19383SOL    HW259872   4.613   1.407   0.636 -0.6885  0.1244 -0.6621
19384SOL     OW59873   0.671   2.581   5.276 -0.0580 -0.6093  0.2245
19384SOL    HW159874   0.751   2.611   5.319  0.4141 -0.5418 -0.6753
19384SOL    HW259875   0.677   2.485   5.279  0.1752 -0.6043 -0.0508
19385SOL     OW59876   3.101   2.215   2.079 -0.0820 -0.0286 -0.1689
19385SOL    HW159877   3.082   2.121   2.075  0.9251 -0.3899  2.0508
19385SOL    HW259878   3.015   2.257   2.077 -0.5408 -0.9555 -1.3030
19386SOL     OW59879   5.713   7.533   9.373  0.0752  0.1712  0.0697
19386SOL    HW159880   5.665   7.577   9.443 -0.2390  1.9347 -1.1751
19386SOL    HW259881   5.784   7.488   9.417 -1.4967 -0.8076  1.7543
19387SOL     OW59882   6.428   8.649   5.310 -0.4876 -0.4904  0.3626
19387SOL    HW159883   6.424   8.684   5.399 -0.1405 -1.6485  0.8472
19387SOL    HW259884   6.516   8.669   5.280 -0.3387 -0.8128  0.5837
19388SOL     OW59885   7.852   4.861   8.911 -0.4743 -0.5184  0.3422
19388SOL    HW159886   7.936   4.906   8.897  0.2332 -1.6804  0.7177
19388SOL    HW259887   7.826   4.830   8.825 -1.1487  0.8774  0.0164
19389SOL     OW59888   9.256   4.444   3.899  0.8327  0.2934 -0.2135
19389SOL    HW159889   9.276   4.523   3.850  0.3840  0.4022 -0.2293
19389SOL    HW259890   9.276   4.465   3.990 -1.0348  1.0743  0.0660
19390SOL     OW59891   9.459   8.959   2.825 -0.2933  0.3344  0.1071
19390SOL    HW159892   9.437   8.956   2.732 -1.9877 -0.0280  0.4823
19390SOL    HW259893   9.377   8.937   2.870  0.0943  1.9625  1.7298
19391SOL     OW59894   3.886   9.532   2.422 -0.0664 -0.5549  0.1933
19391SOL    HW159895   3.806   9.480   2.431  0.0687 -1.2098 -1.9436
19391SOL    HW259896   3.910   9.523   2.330  1.4720  1.1253  0.3895
19392SOL     OW59897   8.876   6.725   8.108 -0.4173  0.6440  0.3467
19392SOL    HW159898   8.950   6.664   8.114 -0.2133  0.9588  1.1848
19392SOL    HW259899   8.799   6.669   8.101 -0.2763  0.2662  1.5839
19393SOL     OW59900   8.875   5.126   2.978  0.2916 -0.0773 -0.2522
19393SOL    HW159901   8.837   5.068   2.912  0.4719 -1.3080  0.6965
19393SOL    HW259902   8.969   5.129   2.956  0.5556 -1.4314  0.6163
19394SOL     OW59903   3.732   0.797   1.765  1.0148  0.0351 -0.1093
19394SOL    HW159904   3.772   0.743   1.698  0.6635 -1.0459  0.5286
19394SOL    HW259905   3.641   0.807   1.737  0.7347 -0.8533  0.4538
19395SOL     OW59906   5.106   2.018   2.926  0.2631 -0.6844 -0.4603
19395SOL    HW159907   5.149   2.088   2.976 -0.6733 -1.0797  0.9670
19395SOL    HW259908   5.171   1.948   2.923 -0.8310 -2.1703  3.6334
19396SOL     OW59909   9.546   2.186   4.948  0.0183 -0.0366 -0.1238
19396SOL    HW159910   9.611   2.241   4.903 -0.3199 -0.0013 -0.5765
19396SOL    HW259911   9.519   2.238   5.023  0.7636 -0.1912  0.2585
19397SOL     OW59912   5.608   1.259   8.670  0.9745 -0.5583 -0.5223
19397SOL    HW159913   5.581   1.198   8.739  0.4940 -0.3228 -0.4935
19397SOL    HW259914   5.561   1.229   8.593  0.8492 -0.3137 -0.5428
19398SOL     OW59915   9.327   0.554   4.214  0.0953 -0.2168 -0.0821
19398SOL    HW159916   9.407   0.502   4.215 -0.2842 -0.8452  2.1639
19398SOL    HW259917   9.307   0.570   4.306 -0.8771  2.2754 -0.6299
19399SOL     OW59918   3.397   1.315   4.184 -0.0986 -0.2488 -0.4258
19399SOL    HW159919   3.474   1.332   4.130 -0.8290 -0.3645 -1.5472
19399SOL    HW259920   3.323   1.325   4.124 -1.0566  1.0626  0.8970
19400SOL     OW59921   0.725   6.875   3.763  0.8796  0.4148  0.0631
19400SOL    HW159922   0.724   6.780   3.773  0.8907  0.5746  1.7574
19400SOL    HW259923   0.807   6.893   3.717  2.0219 -0.2512  1.7238
19401SOL     OW59924   3.566   1.347   8.206  0.0146  0.0047  0.3425
19401SOL    HW159925   3.605   1.302   8.281 -0.1270 -0.7516 -0.0293
19401SOL    HW259926   3.554   1.278   8.141 -1.9240  0.2080  0.4278
19402SOL     OW59927   6.658   6.954   5.468 -0.0361  0.1168 -0.2088
19402SOL    HW159928   6.740   6.998   5.443 -0.7898  0.3332 -2.5352
19402SOL    HW259929   6.653   6.967   5.562  2.1296  0.9343 -0.1238
19403SOL     OW59930   9.231   5.865   5.471  0.0616 -0.1075 -0.0995
19403SOL    HW159931   9.229   5.770   5.462  0.4446  0.0977 -4.1190
19403SOL    HW259932   9.290   5.895   5.401 -1.9054  3.1697 -0.5955
19404SOL     OW59933   0.078   2.532   0.187 -0.2996 -0.2076  0.2251
19404SOL    HW159934   0.130   2.513   0.110 -1.8088 -0.9113 -0.6513
19404SOL    HW259935   0.057   2.447   0.225  0.8296  0.1280  1.7483
19405SOL     OW59936   7.934   7.229   3.437  0.0792  0.0587  0.1983
19405SOL    HW159937   7.997   7.273   3.381  1.0335 -0.7742  0.5886
19405SOL    HW259938   7.869   7.194   3.377  0.8097 -0.3748 -0.3518
19406SOL     OW59939   7.804   3.592   7.923 -0.3445 -0.1408  0.0528
19406SOL    HW159940   7.822   3.685   7.933 -0.1654 -0.1961  0.2651
19406SOL    HW259941   7.720   3.579   7.968 -1.5626  0.3370 -1.9696
19407SOL     OW59942   7.966   1.458   1.960  0.2318 -0.2898  0.2892
19407SOL    HW159943   8.024   1.390   1.925  0.2595 -0.5055  0.7394
19407SOL    HW259944   7.966   1.442   2.055  1.9754  1.6768  0.7147
19408SOL     OW59945   8.387   8.799   3.760  0.0417 -0.1394 -0.7747
19408SOL    HW159946   8.371   8.768   3.671  0.1786 -1.1220 -0.4614
19408SOL    HW259947   8.428   8.885   3.748 -1.9375  0.7495 -1.6256
19409SOL     OW59948   7.932   7.595   5.810 -0.0389  0.3630  0.3585
19409SOL    HW159949   7.950   7.540   5.734 -0.6240  1.0736 -0.3053
19409SOL    HW259950   7.949   7.538   5.885 -2.3519 -1.3346 -0.2984
19410SOL     OW59951   7.120   6.567   8.818 -0.2072  0.2260  0.4100
19410SOL    HW159952   7.141   6.645   8.869 -1.5079  1.5646 -1.0465
19410SOL    HW259953   7.028   6.577   8.794  0.0611 -0.9339 -1.2527
19411SOL     OW59954   9.046   5.066   8.267 -0.6914 -0.0381 -0.1988
19411SOL    HW159955   8.954   5.075   8.294 -0.5597  0.2397  0.1617
19411SOL    HW259956   9.065   5.149   8.222 -0.6937 -0.2057 -0.5143
19412SOL     OW59957   1.681   6.036   9.082  0.0731 -0.5813 -0.0614
19412SOL    HW159958   1.621   6.056   9.009 -0.6607  0.6525  0.8398
19412SOL    HW259959   1.768   6.058   9.048 -0.2802  0.1368 -0.5285
19413SOL     OW59960   6.826   5.891   7.374 -0.8925  0.1842 -0.2066
19413SOL    HW159961   6.731   5.898   7.386 -1.0558  0.3669 -1.4399
19413SOL    HW259962   6.839   5.910   7.281  0.4824  1.3065  0.1891
19414SOL     OW59963   9.587   2.192   3.256  0.8379  0.3013 -0.0550
19414SOL    HW159964   9.658   2.222   3.312  0.5045  1.7894 -0.3873
19414SOL    HW259965   9.507   2.212   3.305  0.6076 -2.4621  0.8526
19415SOL     OW59966   6.206   8.289   4.936  0.3520 -0.2632 -0.3157
19415SOL    HW159967   6.163   8.237   5.004  0.7791 -0.0865  0.0921
19415SOL    HW259968   6.280   8.235   4.908  0.3996 -0.1681 -0.3720
19416SOL     OW59969   3.196   4.564   2.353  0.0136 -0.0427 -0.1148
19416SOL    HW159970   3.229   4.615   2.279  2.8559 -1.3795  0.0931
19416SOL    HW259971   3.255   4.489   2.359 -2.4939 -2.0888  1.1131
19417SOL     OW59972   6.837   1.438   2.563  0.1297  0.2717  0.2849
19417SOL    HW159973   6.880   1.354   2.547 -0.0385  0.4364 -1.2207
19417SOL    HW259974   6.765   1.440   2.500  1.0545  2.1772 -0.7841
19418SOL     OW59975   3.240   2.413   4.403 -0.3167 -0.0191 -0.0589
19418SOL    HW159976   3.235   2.487   4.342  0.3770 -0.5500 -0.7792
19418SOL    HW259977   3.236   2.454   4.490  0.3584  0.9011 -0.4401
19419SOL     OW59978   5.606   3.451   2.698  0.4533 -0.2757 -0.2280
19419SOL    HW159979   5.636   3.506   2.626  0.8701  1.0311  0.8843
19419SOL    HW259980   5.521   3.488   2.722  0.9364  0.2308  0.8193
19420SOL     OW59981   2.732   0.009   9.367 -0.5102  0.2997 -0.0823
19420SOL    HW159982   2.730  -0.017   9.275  0.1481 -2.5225  0.5983
19420SOL    HW259983   2.672  -0.051   9.411  0.2875  0.6186  1.5398
19421SOL     OW59984   1.180   7.893   1.377 -0.2663  0.0476  0.5498
19421SOL    HW159985   1.180   7.885   1.282  1.7266  0.9469  0.4125
19421SOL    HW259986   1.171   7.803   1.409  1.6288 -0.5862 -0.5432
19422SOL     OW59987   8.273   3.760   2.282  0.1973  0.1520  0.4302
19422SOL    HW159988   8.241   3.850   2.292  0.4902  0.3860 -0.5793
19422SOL    HW259989   8.270   3.745   2.187 -0.8768 -1.2821  0.6578
19423SOL     OW59990   5.887   1.120   7.623  0.1569 -0.6378 -0.2892
19423SOL    HW159991   5.972   1.076   7.620  0.1630 -0.6845  0.4144
19423SOL    HW259992   5.901   1.195   7.681 -0.3231 -0.7261 -0.0565
19424SOL     OW59993   3.837   4.195   8.260  0.3280  0.1051  0.5113
19424SOL    HW159994   3.918   4.244   8.275  0.1505  1.1670 -1.6083
19424SOL    HW259995   3.857   4.139   8.184 -0.2992 -1.1823  1.2683
19425SOL     OW59996   7.323   6.064   1.049 -0.2774 -0.2552  0.5746
19425SOL    HW159997   7.356   6.125   0.984  0.9849 -1.4855 -0.0014
19425SOL    HW259998   7.364   6.091   1.131  1.8221 -1.3828 -0.0171
19426SOL     OW59999   9.562   5.325   1.889  0.6555  0.6048  0.5787
19426SOL    HW160000   9.633   5.319   1.825  1.8965  0.1247  1.9491
19426SOL    HW260001   9.562   5.240   1.933 -2.5688 -0.4697 -1.1385
19427SOL     OW60002   9.012   8.512   4.710 -0.5422  0.2824 -0.5244
19427SOL    HW160003   9.015   8.576   4.639 -0.3421 -0.2513 -1.0141
19427SOL    HW260004   9.098   8.470   4.707 -1.1099 -0.9126 -1.0913
19428SOL     OW60005   1.911   0.391   6.161 -0.6496 -0.1030 -0.1372
19428SOL    HW160006   1.823   0.359   6.142 -1.0236  0.6068  0.4039
19428SOL    HW260007   1.906   0.428   6.249  0.3810 -0.7554  0.2217
19429SOL     OW60008   3.858   8.770   8.483 -0.4283  0.3253  0.1955
19429SOL    HW160009   3.824   8.857   8.462 -1.0996  0.0914  0.2870
19429SOL    HW260010   3.944   8.768   8.443 -1.2595  0.2531 -1.6891
19430SOL     OW60011   7.921   3.947   2.562  0.1262  0.0692  0.2664
19430SOL    HW160012   7.893   4.039   2.570  2.5030  0.7160  3.1280
19430SOL    HW260013   7.939   3.935   2.469  1.6600  3.2019  0.0212
19431SOL     OW60014   9.403   4.970   2.227  0.1615  0.0036 -0.2834
19431SOL    HW160015   9.327   4.921   2.196  0.1186 -0.4915  0.5802
19431SOL    HW260016   9.379   4.999   2.315  1.5039 -1.4062  0.5974
19432SOL     OW60017   9.237   3.980   1.483 -0.2917  0.0797  0.1529
19432SOL    HW160018   9.230   3.901   1.536 -1.5853 -0.9031 -1.4006
19432SOL    HW260019   9.330   3.987   1.462 -0.4513 -2.5067 -1.7674
19433SOL     OW60020   9.221   1.180   4.653  0.3084 -0.1505  0.4829
19433SOL    HW160021   9.237   1.267   4.690  1.3003 -0.4271  0.7365
19433SOL    HW260022   9.136   1.154   4.689 -0.2319  0.9183  0.0011
19434SOL     OW60023   3.877   4.155   7.263  0.8299  0.7689 -0.1312
19434SOL    HW160024   3.806   4.184   7.320  1.9813  1.2735  1.1178
19434SOL    HW260025   3.881   4.060   7.276  1.9195  1.0124  1.7296
19435SOL     OW60026   6.940   7.703   0.571 -0.5136  0.1256  0.3510
19435SOL    HW160027   6.992   7.781   0.588 -0.4338 -0.1258  1.3340
19435SOL    HW260028   6.850   7.731   0.585 -0.7578  0.7058 -1.8850
19436SOL     OW60029   4.835   7.783   7.002 -0.0601  0.0900  0.5972
19436SOL    HW160030   4.901   7.835   7.048 -0.0079  1.1318 -0.6013
19436SOL    HW260031   4.752   7.815   7.035 -0.0508  1.4627 -0.6108
19437SOL     OW60032   4.392   7.066   0.590 -0.1335  0.1417  0.1899
19437SOL    HW160033   4.414   7.031   0.676  1.4698  0.6045 -0.0029
19437SOL    HW260034   4.312   7.117   0.605 -1.6695 -2.3033  0.7480
19438SOL     OW60035   3.781   8.402   0.863  0.3589  0.3315 -0.1620
19438SOL    HW160036   3.771   8.457   0.786 -2.2887 -3.7062 -3.1622
19438SOL    HW260037   3.707   8.425   0.919  1.3201  2.1111  0.4478
19439SOL     OW60038   9.697   3.109   4.453  0.1574 -0.4127 -0.1476
19439SOL    HW160039   9.665   3.163   4.526 -0.2709  0.5665 -1.0435
19439SOL    HW260040   9.619   3.063   4.421  0.4143 -1.1417  0.2305
19440SOL     OW60041   7.301   6.297   8.824 -0.0641 -0.6436  0.4313
19440SOL    HW160042   7.214   6.257   8.822  0.6570 -2.3638 -2.3503
19440SOL    HW260043   7.296   6.369   8.762  0.0368  0.4386  1.6448
19441SOL     OW60044   7.731   3.278   6.850 -0.3215 -0.2020  0.0870
19441SOL    HW160045   7.806   3.324   6.813 -0.9753  2.0390  1.3516
19441SOL    HW260046   7.656   3.335   6.831 -1.1140 -0.4699  2.1269
19442SOL     OW60047   5.890   8.828   4.279 -0.1911  0.7939  0.2717
19442SOL    HW160048   5.813   8.867   4.321 -0.6959 -0.1364  0.2188
19442SOL    HW260049   5.943   8.796   4.352  0.7889  2.5294  0.3943
19443SOL     OW60050   1.528   1.879   2.698 -0.1535  0.5512 -0.7546
19443SOL    HW160051   1.608   1.880   2.646  0.1009  0.5483 -0.3627
19443SOL    HW260052   1.519   1.788   2.727  1.1595  1.0307  1.4256
19444SOL     OW60053   9.674   5.126   7.838  0.1742 -0.1871 -0.0811
19444SOL    HW160054   9.714   5.107   7.923  0.4789  1.3096  0.1317
19444SOL    HW260055   9.623   5.047   7.817 -0.9250 -0.1264  2.0707
19445SOL     OW60056   5.959   5.040   9.042  0.9932 -0.0972  0.1970
19445SOL    HW160057   5.991   5.093   9.115  1.0236  0.4857 -0.2347
19445SOL    HW260058   5.868   5.068   9.031  0.9057 -0.3831  0.1919
19446SOL     OW60059   5.080   8.221   0.567  0.7867  0.1224  0.6315
19446SOL    HW160060   5.017   8.208   0.637  0.1798 -0.4046  0.0028
19446SOL    HW260061   5.144   8.150   0.577  0.3946 -0.2795  0.3348
19447SOL     OW60062   3.689   3.272   0.066 -0.2302 -0.0599  0.2891
19447SOL    HW160063   3.656   3.230  -0.014 -0.6975 -2.9683  1.8875
19447SOL    HW260064   3.780   3.243   0.072 -0.8830 -1.9198  2.0125
19448SOL     OW60065   6.512   9.343   8.133 -0.4221 -0.1282  0.1275
19448SOL    HW160066   6.593   9.390   8.112  0.5115 -2.1728 -1.1204
19448SOL    HW260067   6.474   9.322   8.047 -0.5177 -2.0752  0.6108
19449SOL     OW60068   4.589   1.722   8.431 -0.0826  0.0319  0.2099
19449SOL    HW160069   4.500   1.724   8.465 -0.3000  2.5258 -0.3089
19449SOL    HW260070   4.580   1.745   8.338  1.1649  1.3100  0.3723
19450SOL     OW60071   6.693   3.307   5.551 -0.2008 -0.2190  0.4062
19450SOL    HW160072   6.684   3.240   5.618 -2.5704 -1.6110 -1.1717
19450SOL    HW260073   6.739   3.264   5.479 -1.5905 -0.1908 -0.5517
19451SOL     OW60074   8.950   1.170   3.357  0.4443  0.1399  0.8072
19451SOL    HW160075   8.922   1.164   3.266  0.6512  3.6497  0.3754
19451SOL    HW260076   9.044   1.155   3.354  0.3495 -0.4263  0.5630
19452SOL     OW60077   5.294   5.029   7.865 -0.0998 -0.0374  0.1551
19452SOL    HW160078   5.359   5.072   7.808 -2.0700  0.5048 -1.8496
19452SOL    HW260079   5.283   5.089   7.939  0.8964  0.3786 -0.0214
19453SOL     OW60080   1.371   0.364   0.612  0.1229  0.1030  0.4689
19453SOL    HW160081   1.406   0.317   0.536 -1.1278  1.0065 -0.7187
19453SOL    HW260082   1.389   0.306   0.687  0.9189 -1.0516 -0.5821
19454SOL     OW60083   4.318   2.763   4.375 -0.0028 -0.1991 -0.1963
19454SOL    HW160084   4.327   2.745   4.468 -1.0968  0.3741  0.0443
19454SOL    HW260085   4.224   2.758   4.358  0.1123  0.3931 -1.1165
19455SOL     OW60086   5.854   5.102   3.888 -0.2622 -0.2899 -0.1208
19455SOL    HW160087   5.911   5.026   3.880 -0.4823 -0.4507 -0.1711
19455SOL    HW260088   5.826   5.102   3.979 -0.8456 -0.6926 -0.2963
19456SOL     OW60089   0.697   2.465   8.747 -0.2093  0.1122  0.1154
19456SOL    HW160090   0.764   2.528   8.774 -0.4586  1.1376 -1.5258
19456SOL    HW260091   0.708   2.456   8.652 -2.0931 -0.0312 -0.1389
19457SOL     OW60092   6.295   7.680   4.888  0.1394 -0.5217  0.3683
19457SOL    HW160093   6.352   7.745   4.929 -0.8369  2.1038 -2.1009
19457SOL    HW260094   6.354   7.625   4.837  0.7167  0.9091 -0.5819
19458SOL     OW60095   2.203   2.691   0.332 -0.1482 -0.0613 -0.0980
19458SOL    HW160096   2.143   2.750   0.379 -0.6039  0.2221 -1.0177
19458SOL    HW260097   2.206   2.726   0.243 -0.0088 -1.1155 -0.5209
19459SOL     OW60098   0.100   5.874   0.479 -0.0150  0.8581 -0.8490
19459SOL    HW160099   0.054   5.953   0.505  0.2816  0.7135  0.1489
19459SOL    HW260100   0.111   5.824   0.560  1.2838  0.5663 -1.1821
19460SOL     OW60101   8.396   4.941   8.511 -0.0912  0.3917 -0.2648
19460SOL    HW160102   8.394   5.025   8.466 -0.2670  0.2251 -0.5677
19460SOL    HW260103   8.304   4.917   8.520 -0.0128 -0.1838 -0.9578
19461SOL     OW60104   4.561   8.142   0.423 -0.2854  0.0821 -0.0352
19461SOL    HW160105   4.554   8.095   0.506  1.1241  1.1328  0.7384
19461SOL    HW260106   4.654   8.135   0.399 -0.2087  1.6731 -0.3419
19462SOL     OW60107   1.305   5.986   5.494 -0.3710  0.3018 -0.6064
19462SOL    HW160108   1.268   6.004   5.581  1.5892 -0.0119  0.3408
19462SOL    HW260109   1.270   6.056   5.439 -2.1589  0.1443  0.2643
19463SOL     OW60110   3.019   7.597   8.336 -0.5315  0.3277 -0.2173
19463SOL    HW160111   3.012   7.560   8.248  0.8806 -1.5228  0.3875
19463SOL    HW260112   3.107   7.634   8.340 -0.2702 -0.3445  0.6507
19464SOL     OW60113   4.598   0.603   1.231 -0.5838  0.1185  0.3580
19464SOL    HW160114   4.692   0.593   1.242 -0.4327  1.2796  0.2429
19464SOL    HW260115   4.580   0.576   1.142 -0.5579 -1.3072  0.7682
19465SOL     OW60116   6.031   0.628   7.877 -0.0451 -0.1225  0.4361
19465SOL    HW160117   6.015   0.546   7.832 -1.0157 -0.1696  0.8520
19465SOL    HW260118   5.963   0.633   7.944  1.4903 -0.1670  2.0763
19466SOL     OW60119   5.979   8.244   0.181 -0.4328 -0.2655  0.2983
19466SOL    HW160120   5.895   8.265   0.221 -0.0599  0.1557  0.8756
19466SOL    HW260121   6.025   8.191   0.247  0.2518  0.5738  0.5141
19467SOL     OW60122   5.242   0.953   7.952 -0.3619 -0.2918 -0.1850
19467SOL    HW160123   5.293   0.893   7.898  0.3311 -0.8953  1.1037
19467SOL    HW260124   5.258   1.039   7.914  0.4705 -0.6524 -0.6750
19468SOL     OW60125   8.531   7.082   2.651 -0.1306 -0.1305  0.5242
19468SOL    HW160126   8.478   7.052   2.577 -0.5193 -0.4648  0.9320
19468SOL    HW260127   8.588   7.149   2.614  0.2562 -0.8626 -0.2632
19469SOL     OW60128   7.809   1.834   6.935 -0.1305  0.0795 -0.5579
19469SOL    HW160129   7.741   1.862   6.998  1.0580  1.9492 -0.0265
19469SOL    HW260130   7.891   1.862   6.975  0.9434 -1.5784 -1.4985
19470SOL     OW60131   6.225   8.108   4.119 -0.0240 -0.1394  0.3017
19470SOL    HW160132   6.134   8.090   4.097 -0.1725  0.6097  0.2805
19470SOL    HW260133   6.268   8.121   4.034  0.0389 -0.2065  0.3231
19471SOL     OW60134   5.138   2.606   5.656  0.2156 -0.1722  0.1387
19471SOL    HW160135   5.176   2.693   5.641  1.5278 -0.6619  0.4735
19471SOL    HW260136   5.174   2.578   5.741 -0.9069 -0.6758  0.4723
19472SOL     OW60137   0.801   7.243   2.606 -0.1353 -0.3234 -0.0225
19472SOL    HW160138   0.884   7.265   2.649  0.5711 -1.2147 -0.8549
19472SOL    HW260139   0.806   7.286   2.521 -0.8554  0.1984  0.1885
19473SOL     OW60140   0.394   5.597   5.524  0.0933  0.0089 -0.1004
19473SOL    HW160141   0.361   5.685   5.544 -3.3919 -0.7132 -1.9426
19473SOL    HW260142   0.413   5.600   5.430 -1.6434 -1.5540 -0.5530
19474SOL     OW60143   6.903   4.271   1.769  0.7542  0.3889  0.1495
19474SOL    HW160144   6.960   4.335   1.726  0.8498 -0.2353 -0.6959
19474SOL    HW260145   6.869   4.316   1.846  1.6768  1.0769  0.1674
19475SOL     OW60146   5.288   2.585   5.869  0.9237  0.2005 -0.7951
19475SOL    HW160147   5.285   2.551   5.958 -1.6586  0.6434 -0.6198
19475SOL    HW260148   5.359   2.538   5.826  0.5341 -1.9109  0.7731
19476SOL     OW60149   2.017   4.048   4.264 -0.2732  0.1451  0.0545
19476SOL    HW160150   2.026   4.118   4.200 -1.8822 -1.0902 -1.6460
19476SOL    HW260151   2.087   3.987   4.242  0.2580  0.5384  0.6287
19477SOL     OW60152   4.528   2.064   2.279 -0.4094 -0.0666  0.2089
19477SOL    HW160153   4.536   2.143   2.333 -0.5974 -0.4577  0.8130
19477SOL    HW260154   4.472   2.005   2.330 -0.2796 -0.5875 -0.2429
19478SOL     OW60155   2.653   7.779   7.298 -0.3887  1.2877  0.3398
19478SOL    HW160156   2.679   7.785   7.207 -0.1534 -1.1909  0.1578
19478SOL    HW260157   2.558   7.781   7.297 -0.4935 -1.0874 -0.2929
19479SOL     OW60158   4.762   1.342   2.467  0.1557 -0.1716 -0.4814
19479SOL    HW160159   4.760   1.415   2.405  4.5110 -0.2456 -1.0127
19479SOL    HW260160   4.850   1.306   2.459 -0.8637 -3.7051  1.8776
19480SOL     OW60161   9.058   0.099   8.874 -0.3094 -0.1942 -0.2346
19480SOL    HW160162   8.964   0.112   8.864 -0.3031  1.2823  1.1158
19480SOL    HW260163   9.072   0.105   8.969  1.2797  0.8878 -0.4952
19481SOL     OW60164   2.579   0.187   7.511 -0.3122  0.0746  0.3867
19481SOL    HW160165   2.664   0.150   7.489 -0.3365  0.2087  0.0584
19481SOL    HW260166   2.583   0.277   7.479 -1.0102 -0.2695 -0.7459
19482SOL     OW60167   2.829   7.460   1.403  0.4384 -0.7088  0.1596
19482SOL    HW160168   2.913   7.472   1.447 -0.8477 -1.7071  3.1302
19482SOL    HW260169   2.852   7.428   1.315  3.1323  0.7131  0.2292
19483SOL     OW60170   6.138   8.352   8.061 -0.6800  0.9593  0.8929
19483SOL    HW160171   6.151   8.290   7.990  0.0763  0.7495  1.2097
19483SOL    HW260172   6.043   8.365   8.064 -0.7311  0.9109 -0.0967
19484SOL     OW60173   0.483   1.406   3.895 -0.2065  0.3310  0.2091
19484SOL    HW160174   0.474   1.432   3.987  0.7323 -1.2178  0.7815
19484SOL    HW260175   0.530   1.479   3.854  1.0354  0.2360  1.4001
19485SOL     OW60176   2.503   9.218   5.674 -0.7813  0.7211 -0.2871
19485SOL    HW160177   2.559   9.254   5.743 -1.7738 -0.4058  1.1554
19485SOL    HW260178   2.422   9.193   5.719 -0.6139 -2.1819 -1.3915
19486SOL     OW60179   4.614   5.291   4.331  0.0148  0.4757  0.1961
19486SOL    HW160180   4.580   5.214   4.285  0.6683  0.0420  0.4240
19486SOL    HW260181   4.702   5.303   4.296  0.0794  0.8547  0.4848
19487SOL     OW60182   0.515   0.493   6.707 -0.2268 -0.5714 -0.2866
19487SOL    HW160183   0.577   0.480   6.779  0.4705 -0.8480 -0.9196
19487SOL    HW260184   0.468   0.410   6.700  0.8270 -1.1106 -1.1778
19488SOL     OW60185   7.057   8.260   8.761  0.1119 -0.0476  0.2969
19488SOL    HW160186   7.111   8.294   8.832 -1.8287 -0.0158  1.8349
19488SOL    HW260187   7.104   8.284   8.681  2.0936  0.3705  1.5359
19489SOL     OW60188   4.489   1.165   6.617 -0.1426  0.2410  0.1720
19489SOL    HW160189   4.448   1.080   6.635 -0.0291  0.3057  0.7568
19489SOL    HW260190   4.578   1.144   6.591 -0.5966  0.0832 -1.3452
19490SOL     OW60191   6.971   7.997   1.409 -0.4407 -0.2967  0.0146
19490SOL    HW160192   6.966   8.021   1.502 -0.4694 -2.2229  0.5546
19490SOL    HW260193   6.902   8.049   1.367 -0.4771  0.5519  1.0654
19491SOL     OW60194   3.808   7.024   5.015 -0.0870  0.2175  0.3125
19491SOL    HW160195   3.875   7.053   4.952  0.8383 -0.9544  0.7075
19491SOL    HW260196   3.732   7.080   4.997  0.8612  1.3279 -0.4185
19492SOL     OW60197   2.087   3.345   8.968 -0.2509 -0.2964 -0.0404
19492SOL    HW160198   2.113   3.411   9.033 -0.3968 -0.9595  0.6969
19492SOL    HW260199   2.089   3.393   8.885  0.6892  0.3671  0.3411
19493SOL     OW60200   0.236   7.872   0.545  0.5347 -0.1557 -0.1579
19493SOL    HW160201   0.238   7.881   0.450  2.6679 -0.5764 -0.2003
19493SOL    HW260202   0.215   7.960   0.577 -0.4026 -0.0596 -1.0058
19494SOL     OW60203   4.137   0.020   8.846 -0.2720 -0.1825  0.0472
19494SOL    HW160204   4.151   0.022   8.751 -0.2693 -1.9178 -0.0206
19494SOL    HW260205   4.224   0.037   8.883 -0.3463  0.9052 -0.2216
19495SOL     OW60206   7.146   4.614   2.354 -0.6504 -0.3190 -0.6456
19495SOL    HW160207   7.241   4.629   2.349 -0.8722  0.8918 -1.4417
19495SOL    HW260208   7.121   4.586   2.266 -1.1051 -0.1718 -0.5668
19496SOL     OW60209   8.191   3.246   4.104 -0.0554 -0.2253 -0.4132
19496SOL    HW160210   8.119   3.183   4.110  0.5279 -0.9261 -0.5653
19496SOL    HW260211   8.152   3.330   4.128 -0.8492 -0.6460 -0.1928
19497SOL     OW60212   7.274   7.185   8.499 -0.6020 -0.0615 -0.0029
19497SOL    HW160213   7.186   7.218   8.480 -1.2158 -1.2575  0.6354
19497SOL    HW260214   7.261   7.120   8.568  0.9862  0.7920  1.1441
19498SOL     OW60215   2.597   8.308   4.815  0.1461  0.2377  0.2890
19498SOL    HW160216   2.520   8.333   4.865 -1.0806 -0.4646 -1.1787
19498SOL    HW260217   2.570   8.230   4.766  1.1221  1.1148 -1.7866
19499SOL     OW60218   6.147   3.833   1.142 -0.3514  0.6282  0.1295
19499SOL    HW160219   6.110   3.920   1.128  2.2469  1.5012 -2.0583
19499SOL    HW260220   6.174   3.833   1.233  0.7285  2.6507 -0.1228
19500SOL     OW60221   2.217   0.428   2.195  0.2052 -0.5139 -0.0708
19500SOL    HW160222   2.220   0.338   2.227  1.4438 -0.0004  1.3206
19500SOL    HW260223   2.306   0.461   2.204 -0.2989  0.9828 -0.2148
19501SOL     OW60224   5.876   6.959   8.533 -0.2127 -0.4512 -0.2676
19501SOL    HW160225   5.819   6.985   8.605 -1.5739  1.2734 -1.8916
19501SOL    HW260226   5.831   6.886   8.491 -0.4249 -0.1487 -0.5698
19502SOL     OW60227   5.628   0.523   6.437  0.0510  0.1045 -0.2650
19502SOL    HW160228   5.721   0.540   6.425  0.6773 -1.7272  1.4888
19502SOL    HW260229   5.594   0.512   6.348  1.2195  2.0285 -0.9922
19503SOL     OW60230   3.789   8.407   5.081 -0.0267 -0.8204  0.6259
19503SOL    HW160231   3.804   8.316   5.108  1.6763 -0.3266  1.5265
19503SOL    HW260232   3.702   8.428   5.114 -1.5544 -2.8460 -1.7704
19504SOL     OW60233   3.302   6.630   6.924 -0.0691  0.4759  0.1517
19504SOL    HW160234   3.238   6.567   6.889  0.3523 -1.0765  1.9764
19504SOL    HW260235   3.338   6.674   6.847 -1.7965 -0.1174 -1.0588
19505SOL     OW60236   8.620   3.946   2.418  0.4333 -0.1611  0.3709
19505SOL    HW160237   8.551   3.980   2.362  0.5201  0.2150  0.4892
19505SOL    HW260238   8.601   3.982   2.505  0.5468 -0.3859  0.4907
19506SOL     OW60239   4.074   5.276   7.197  0.0322 -0.2350  0.4563
19506SOL    HW160240   4.109   5.226   7.271 -0.3241 -1.8198 -0.3998
19506SOL    HW260241   4.138   5.264   7.127 -0.7245 -0.6483 -0.1852
19507SOL     OW60242   8.981   8.203   7.488  0.0998  0.2278  0.1423
19507SOL    HW160243   9.000   8.237   7.576  0.0782  0.3338  0.1061
19507SOL    HW260244   8.911   8.259   7.455  1.3113  1.3243 -0.6340
19508SOL     OW60245   0.940   4.068   0.631 -0.0430 -0.5378  0.4133
19508SOL    HW160246   1.016   4.019   0.599 -0.9997 -0.7448 -1.7331
19508SOL    HW260247   0.921   4.029   0.716  0.8007 -2.1451 -0.0837
19509SOL     OW60248   8.578   0.033   8.735 -0.1188 -0.6550 -0.1914
19509SOL    HW160249   8.549   0.124   8.741  1.6330  0.0013 -1.1087
19509SOL    HW260250   8.548   0.003   8.649 -0.3360 -0.8263 -0.0591
19510SOL     OW60251   9.286   3.223   8.211 -0.4152  0.0521 -0.8710
19510SOL    HW160252   9.233   3.175   8.147 -0.0197  0.3254 -1.4137
19510SOL    HW260253   9.316   3.301   8.163 -0.6166  0.5698 -0.1630
19511SOL     OW60254   8.218   3.754   9.283  0.2010 -0.0216 -1.1498
19511SOL    HW160255   8.212   3.823   9.348  1.4505 -0.3348 -0.6774
19511SOL    HW260256   8.230   3.800   9.200  1.1197  0.3391 -0.8270
19512SOL     OW60257   5.851   4.266   5.334  0.0440 -0.2390  0.0925
19512SOL    HW160258   5.916   4.238   5.270 -1.5858 -1.4220 -1.1628
19512SOL    HW260259   5.845   4.361   5.321  0.2259 -0.3657 -1.0763
19513SOL     OW60260   4.211   5.895   9.619 -0.0557  0.6522 -0.1589
19513SOL    HW160261   4.251   5.863   9.700 -0.3890  0.4027 -0.0869
19513SOL    HW260262   4.221   5.990   9.622  1.1762  0.5402 -0.4931
19514SOL     OW60263   1.075   0.899   3.018  0.0589 -0.1585  0.6045
19514SOL    HW160264   1.057   0.839   2.945 -1.8417 -1.7660  2.2381
19514SOL    HW260265   1.157   0.942   2.995  0.2013 -1.5577 -1.8435
19515SOL     OW60266   6.602   3.739   5.390 -0.1296  0.3273  0.2596
19515SOL    HW160267   6.550   3.818   5.407 -0.1624  0.0994  1.2722
19515SOL    HW260268   6.538   3.669   5.384 -0.0664  0.3058 -0.2333
19516SOL     OW60269   4.495   2.043   7.967 -0.1232 -0.3002 -0.4359
19516SOL    HW160270   4.509   2.138   7.967  0.1422 -0.2591  2.1862
19516SOL    HW260271   4.556   2.010   8.034  0.0414 -2.3830 -1.5439
19517SOL     OW60272   6.370   4.863   0.422  0.4736  0.7413 -0.3526
19517SOL    HW160273   6.453   4.909   0.430  0.0287  1.4271  0.5605
19517SOL    HW260274   6.342   4.880   0.332  0.2911  2.3912 -0.0282
19518SOL     OW60275   7.676   8.170   3.212 -0.5369 -0.1317  0.0485
19518SOL    HW160276   7.691   8.203   3.300 -0.7755  0.8767 -0.2821
19518SOL    HW260277   7.713   8.081   3.213  0.8206  0.4208  0.7149
19519SOL     OW60278   0.481   0.812   0.669  0.0581 -0.1384  0.1088
19519SOL    HW160279   0.506   0.845   0.755  2.0100 -1.2858  0.0474
19519SOL    HW260280   0.562   0.814   0.618 -0.3148 -2.4460 -0.6917
19520SOL     OW60281   3.382   1.830   2.936  0.5905  0.0709  0.0044
19520SOL    HW160282   3.297   1.789   2.953  0.0367  0.7953 -0.9210
19520SOL    HW260283   3.440   1.757   2.913  0.4710 -0.5300  1.4952
19521SOL     OW60284   6.908   0.118   1.600  0.3693  0.0969 -0.0951
19521SOL    HW160285   6.998   0.087   1.596  0.5350  0.6049 -0.5915
19521SOL    HW260286   6.889   0.129   1.693  1.4297  1.6802 -0.0315
19522SOL     OW60287   6.839   8.893   0.150  0.0894  0.1712  0.2622
19522SOL    HW160288   6.890   8.812   0.152  1.2355  0.8880  0.9269
19522SOL    HW260289   6.751   8.865   0.124  0.3163 -1.3741  1.0467
19523SOL     OW60290   3.396   6.354   8.532  0.3607 -0.0659  0.5279
19523SOL    HW160291   3.308   6.339   8.568  0.8051 -2.9446  0.6317
19523SOL    HW260292   3.447   6.279   8.562  3.0370  1.7730  0.8608
19524SOL     OW60293   7.523   8.186   1.701  0.5580 -0.2549 -0.5294
19524SOL    HW160294   7.530   8.191   1.606  1.4573 -2.2849 -0.6068
19524SOL    HW260295   7.492   8.273   1.727  0.2010  0.3105 -2.6671
19525SOL     OW60296   4.401   2.248   4.132  0.3251 -0.2639 -0.3402
19525SOL    HW160297   4.429   2.315   4.194 -1.8277  1.9314 -1.5793
19525SOL    HW260298   4.384   2.171   4.186 -0.7075  1.3075  1.7393
19526SOL     OW60299   6.961   6.750   7.421  0.2533  0.0256  0.4845
19526SOL    HW160300   7.039   6.696   7.439  0.4351 -1.2401 -3.3016
19526SOL    HW260301   6.894   6.687   7.394 -1.1699  1.3449  0.7799
19527SOL     OW60302   5.253   1.260   9.441 -0.5296 -0.2037  0.1328
19527SOL    HW160303   5.334   1.293   9.479 -0.7450  0.4570  0.0458
19527SOL    HW260304   5.276   1.175   9.404  0.6880  0.8751 -1.8259
19528SOL     OW60305   7.937   6.033   3.281 -0.4292  0.0100 -0.2149
19528SOL    HW160306   7.904   5.960   3.332 -0.1457  0.3555  0.4763
19528SOL    HW260307   7.863   6.059   3.226 -0.5178 -0.8109 -0.4983
19529SOL     OW60308   4.772   1.503   2.235  0.0021  0.9450 -0.0445
19529SOL    HW160309   4.724   1.539   2.161  0.4807  1.1036 -0.2829
19529SOL    HW260310   4.853   1.554   2.238 -0.6971  2.0624  1.5891
19530SOL     OW60311   0.553   3.068   2.322 -0.3967 -0.1770  0.2300
19530SOL    HW160312   0.573   3.160   2.342  0.3436 -0.5144  1.0984
19530SOL    HW260313   0.463   3.070   2.291 -0.5593  0.7859  0.7048
19531SOL     OW60314   1.021   2.421   9.466  0.3242 -0.0760  0.0807
19531SOL    HW160315   1.023   2.326   9.455  0.3869 -0.0408 -0.2014
19531SOL    HW260316   1.049   2.456   9.382 -0.8598  0.2183 -0.2097
19532SOL     OW60317   5.058   6.616   8.644 -0.5368 -0.1754 -0.3725
19532SOL    HW160318   5.006   6.570   8.710  0.4980 -0.0601  0.5613
19532SOL    HW260319   5.045   6.708   8.664  1.0432 -0.1542  0.7379
19533SOL     OW60320   1.079   1.319   7.685 -0.0037  0.9544  0.2277
19533SOL    HW160321   1.094   1.328   7.779 -0.6568 -0.9114  0.5428
19533SOL    HW260322   1.140   1.381   7.646  1.6540  0.4351  1.8248
19534SOL     OW60323   2.940   4.363   7.763  0.2774 -0.3846 -0.1044
19534SOL    HW160324   2.986   4.434   7.719 -0.1551  0.9953  1.5728
19534SOL    HW260325   2.959   4.375   7.856  0.4772 -2.6985  0.2279
19535SOL     OW60326   0.842   8.376   3.372 -0.1493  0.1886 -0.3321
19535SOL    HW160327   0.935   8.360   3.388 -0.0922  0.6213 -0.2247
19535SOL    HW260328   0.832   8.360   3.278 -0.2250 -1.0710 -0.1196
19536SOL     OW60329   5.706   5.912   4.561  0.5619 -0.2328  0.0644
19536SOL    HW160330   5.778   5.973   4.575 -0.0174  0.7359 -1.0092
19536SOL    HW260331   5.746   5.839   4.513  1.1053 -0.3650  0.7069
19537SOL     OW60332   8.377   0.009   0.795  0.1653  0.2326 -0.1704
19537SOL    HW160333   8.391  -0.004   0.701 -0.6837  0.8601 -0.3876
19537SOL    HW260334   8.302  -0.047   0.816  0.5117 -0.1007  0.1921
19538SOL     OW60335   0.619   9.378   4.553 -0.1806 -0.7029 -0.2761
19538SOL    HW160336   0.618   9.312   4.622  1.0449 -0.3331  0.1348
19538SOL    HW260337   0.539   9.363   4.503 -1.5697 -0.4204  1.7516
19539SOL     OW60338   3.508   3.919   8.278  0.1840  0.3483 -0.1047
19539SOL    HW160339   3.414   3.897   8.278  0.7180 -2.2875 -0.5396
19539SOL    HW260340   3.552   3.835   8.265  2.6744  1.3634  1.1158
19540SOL     OW60341   8.230   9.274   2.459  0.6501  0.3713  0.2362
19540SOL    HW160342   8.155   9.220   2.486  1.4818  0.1000  2.2253
19540SOL    HW260343   8.292   9.211   2.422  0.6827  0.2947  0.4176
19541SOL     OW60344   1.522   8.975   4.246 -0.0346 -0.4964  0.2491
19541SOL    HW160345   1.587   8.998   4.179 -0.1835 -2.2713 -0.5749
19541SOL    HW260346   1.572   8.933   4.315 -0.1759 -0.9652  0.0708
19542SOL     OW60347   5.917   1.924   9.562  0.0742  0.3666 -0.3105
19542SOL    HW160348   5.823   1.912   9.575  0.0738 -1.3346 -1.4750
19542SOL    HW260349   5.924   2.007   9.515 -0.8212  0.6672  0.0638
19543SOL     OW60350   8.740   3.284   8.418 -0.8619  0.2129  0.2590
19543SOL    HW160351   8.778   3.301   8.504 -1.1427 -0.3162  0.4891
19543SOL    HW260352   8.813   3.298   8.357 -0.5073  0.0281  0.6321
19544SOL     OW60353   2.799   2.534   8.850  0.1580  0.2562  0.2205
19544SOL    HW160354   2.889   2.515   8.826  0.1177  0.1421  0.1587
19544SOL    HW260355   2.783   2.622   8.816 -0.3516 -0.4422 -1.4663
19545SOL     OW60356   2.157   8.702   6.140 -0.1481 -0.1171  0.2622
19545SOL    HW160357   2.093   8.669   6.077  1.4997 -2.0138 -0.5402
19545SOL    HW260358   2.107   8.760   6.197 -2.2134 -0.2463 -1.2969
19546SOL     OW60359   1.550   3.459   2.692 -0.1546  0.0635  0.4562
19546SOL    HW160360   1.502   3.521   2.748 -1.3337 -1.3212  1.0373
19546SOL    HW260361   1.583   3.393   2.752  0.9933  0.0451 -0.1758
19547SOL     OW60362   3.860   1.646   4.985 -0.2433  0.6730 -0.5349
19547SOL    HW160363   3.829   1.720   5.038 -0.1163  0.4031 -0.0832
19547SOL    HW260364   3.785   1.588   4.977  0.3943 -0.5199  1.4812
19548SOL     OW60365   7.503   3.504   4.795 -0.0087  0.4088  0.2797
19548SOL    HW160366   7.523   3.470   4.709  1.5399 -0.1758  0.8360
19548SOL    HW260367   7.427   3.561   4.782 -0.6570 -0.7512 -1.2018
19549SOL     OW60368   1.962   3.673   5.122 -0.1017  0.6927  0.2701
19549SOL    HW160369   1.964   3.688   5.216  0.7737  1.7333  0.1021
19549SOL    HW260370   2.050   3.645   5.100 -1.1152 -3.0265  0.2346
19550SOL     OW60371   3.908   7.577   3.593 -0.2981  0.2854 -0.4603
19550SOL    HW160372   3.898   7.612   3.505 -1.6724 -2.0658 -1.2965
19550SOL    HW260373   3.825   7.596   3.636 -0.6181 -0.8951 -0.5456
19551SOL     OW60374   1.149   3.785   6.601 -0.2769  0.4886  0.0889
19551SOL    HW160375   1.067   3.761   6.644 -0.8381  0.3103 -1.0433
19551SOL    HW260376   1.199   3.704   6.599  0.5894  0.9026  2.0952
19552SOL     OW60377   5.628   3.105   2.685 -0.5534 -0.1701  0.1768
19552SOL    HW160378   5.561   3.150   2.632 -1.4785  0.6140  1.9143
19552SOL    HW260379   5.592   3.018   2.700 -1.3004  0.2931  1.2175
19553SOL     OW60380   5.307   9.003   2.323  0.2553 -0.0215 -0.4273
19553SOL    HW160381   5.274   9.055   2.397  2.0783 -0.5621  0.8341
19553SOL    HW260382   5.238   9.008   2.258 -0.3546  2.6056  0.2992
19554SOL     OW60383   2.071   5.670   0.340 -0.6566 -0.0038 -0.4346
19554SOL    HW160384   2.107   5.675   0.428 -1.0101  0.5758 -0.3262
19554SOL    HW260385   2.101   5.584   0.307  1.0545  0.5612 -0.4440
19555SOL     OW60386   3.129   9.223   0.907  0.2195 -0.8896 -0.1061
19555SOL    HW160387   3.196   9.200   0.842 -0.4727 -0.2689 -1.0639
19555SOL    HW260388   3.085   9.300   0.870  0.9481  0.6105  1.9024
19556SOL     OW60389   1.583   8.146   7.241  0.2368 -0.0265  0.1995
19556SOL    HW160390   1.639   8.077   7.206 -1.0671 -1.6105  1.0776
19556SOL    HW260391   1.537   8.181   7.165  1.6254  0.6045 -0.3880
19557SOL     OW60392   2.553   7.763   5.803 -0.5194  0.0512 -0.0252
19557SOL    HW160393   2.634   7.806   5.777 -1.0204 -0.0587 -1.8662
19557SOL    HW260394   2.494   7.834   5.827 -0.5797  0.2600 -0.7848
19558SOL     OW60395   2.624   0.341   1.299 -0.0410  0.1644  0.5608
19558SOL    HW160396   2.640   0.284   1.224 -0.0881  2.0315 -0.9549
19558SOL    HW260397   2.533   0.324   1.323  0.1624 -0.8996  0.5999
19559SOL     OW60398   1.137   4.857   8.679  0.2407  0.0570 -0.2985
19559SOL    HW160399   1.213   4.865   8.621  0.2785 -0.5504 -0.3320
19559SOL    HW260400   1.133   4.942   8.724 -0.3439  0.9032 -1.8507
19560SOL     OW60401   4.171   9.276   3.575 -0.2973  0.2837  0.0586
19560SOL    HW160402   4.082   9.278   3.538 -1.3008  2.6509  2.2670
19560SOL    HW260403   4.180   9.186   3.609 -1.3952 -0.3265 -1.1483
19561SOL     OW60404   1.627   1.729   4.633  0.4749 -0.3449 -0.0216
19561SOL    HW160405   1.659   1.803   4.582 -0.4265  1.1573  1.4782
19561SOL    HW260406   1.672   1.737   4.717 -2.2656  0.7218  1.4730
19562SOL     OW60407   3.868   3.340   2.047 -0.2224  0.1098  0.4255
19562SOL    HW160408   3.818   3.263   2.020 -1.8596  0.5507  2.0210
19562SOL    HW260409   3.959   3.312   2.045 -0.7852 -1.8699  0.9256
19563SOL     OW60410   7.631   9.381   3.082  0.1217  0.3205  0.0483
19563SOL    HW160411   7.604   9.417   3.167 -1.4228  0.0008 -0.2809
19563SOL    HW260412   7.705   9.324   3.103  1.2519  2.0090  0.8527
19564SOL     OW60413   9.427   8.332   3.519  0.4983 -0.0601 -0.0175
19564SOL    HW160414   9.511   8.289   3.501 -0.0992 -1.4206  0.3009
19564SOL    HW260415   9.375   8.265   3.562 -0.8859  0.6458 -0.5381
19565SOL     OW60416   3.411   4.046   6.757 -0.4919 -0.1995 -0.2167
19565SOL    HW160417   3.407   4.105   6.833 -1.7929 -0.8079  0.2225
19565SOL    HW260418   3.400   3.959   6.794 -0.3152 -0.5812 -1.0394
19566SOL     OW60419   0.412   9.456   0.290 -0.0934  0.1541 -0.2969
19566SOL    HW160420   0.488   9.482   0.343 -0.0256 -0.2229 -0.2075
19566SOL    HW260421   0.420   9.509   0.211  1.3077 -1.1964 -1.1269
19567SOL     OW60422   5.101   3.552   0.702  0.0899 -0.0842  0.2546
19567SOL    HW160423   5.019   3.504   0.714  0.2076  0.0166  1.5706
19567SOL    HW260424   5.091   3.631   0.755  0.7896  0.2595 -0.1092
19568SOL     OW60425   5.514   0.971   6.397  0.0352 -0.5784  0.2202
19568SOL    HW160426   5.500   1.051   6.347  0.6944  0.1112  1.1143
19568SOL    HW260427   5.537   0.905   6.331 -1.9493 -0.4274 -0.6844
19569SOL     OW60428   3.068   6.581   1.181  0.1429 -0.0676  0.0258
19569SOL    HW160429   3.161   6.587   1.156  0.0468  2.1967 -0.0333
19569SOL    HW260430   3.025   6.649   1.128 -1.3505 -0.2912  0.9115
19570SOL     OW60431   1.735   4.727   3.640 -0.1157  0.4320  0.4428
19570SOL    HW160432   1.640   4.724   3.651 -0.1164 -0.2299  0.3253
19570SOL    HW260433   1.748   4.784   3.565 -0.6504 -1.9789 -1.6419
19571SOL     OW60434   9.646   8.488   5.855  0.6232  0.1257  0.3213
19571SOL    HW160435   9.569   8.527   5.814  1.3934 -0.5983 -1.9279
19571SOL    HW260436   9.661   8.407   5.806  1.5023 -0.9152  2.1943
19572SOL     OW60437   4.835   4.411   4.625  0.3352  0.4332 -0.3009
19572SOL    HW160438   4.817   4.496   4.666 -0.3199 -0.4288  1.2747
19572SOL    HW260439   4.929   4.399   4.634  0.0919 -0.1491  1.8708
19573SOL     OW60440   4.305   1.124   0.850 -0.3645 -0.1062 -0.4923
19573SOL    HW160441   4.210   1.108   0.848 -0.3737 -1.1764  2.9929
19573SOL    HW260442   4.344   1.039   0.867  1.2501  0.3912 -1.4418
19574SOL     OW60443   3.658   6.659   6.306  0.6687 -0.4854 -0.1610
19574SOL    HW160444   3.652   6.718   6.231 -1.4245 -0.4049 -0.0101
19574SOL    HW260445   3.704   6.710   6.373  1.6673 -0.1961 -1.0379
19575SOL     OW60446   0.680   2.255   0.084  0.3106  0.3089 -0.0471
19575SOL    HW160447   0.685   2.349   0.100  1.1030 -0.0644  2.2490
19575SOL    HW260448   0.757   2.235   0.032  0.6769  0.7823  0.3074
19576SOL     OW60449   0.353   4.593   5.091  0.0669 -0.3286  0.2379
19576SOL    HW160450   0.261   4.567   5.096  0.2475 -0.8152  1.2205
19576SOL    HW260451   0.377   4.579   4.999 -1.1147  0.8298 -0.2854
19577SOL     OW60452   7.310   7.476   6.150  0.1299  0.2112 -0.5456
19577SOL    HW160453   7.388   7.468   6.206  0.0212 -2.0373 -0.6209
19577SOL    HW260454   7.344   7.507   6.066  0.8500 -0.1084 -0.3818
19578SOL     OW60455   2.976   9.046   3.656  0.0446  0.0975 -0.1452
19578SOL    HW160456   2.976   9.036   3.561  0.3936 -1.0844 -0.0462
19578SOL    HW260457   2.883   9.046   3.680 -0.0752  1.2385 -0.5390
19579SOL     OW60458   0.040   5.038   6.666  0.4047 -0.3213 -0.0990
19579SOL    HW160459   0.049   5.057   6.760  0.5792  1.9702 -0.5151
19579SOL    HW260460   0.044   5.124   6.624  2.6857 -1.4345 -2.4099
19580SOL     OW60461   6.189   1.942   2.311  0.2107  0.2410 -0.4011
19580SOL    HW160462   6.139   1.891   2.247 -0.0881 -0.1592  0.1523
19580SOL    HW260463   6.225   1.877   2.371  0.3455  0.6334 -0.0530
19581SOL     OW60464   1.252   1.392   4.303  0.6571  0.5700  0.9684
19581SOL    HW160465   1.307   1.317   4.324 -0.0666  0.2879  1.8920
19581SOL    HW260466   1.306   1.468   4.324  2.1157  0.4019 -1.7353
19582SOL     OW60467   5.658   2.951   0.131 -0.0454 -0.1741 -0.2194
19582SOL    HW160468   5.575   2.907   0.111 -0.5389  0.4972  0.3215
19582SOL    HW260469   5.668   2.941   0.226  0.5709 -0.3700 -0.2979
19583SOL     OW60470   9.674   4.747   1.347 -0.0042 -0.2213  0.3781
19583SOL    HW160471   9.581   4.763   1.331 -0.4190 -2.7577 -0.1401
19583SOL    HW260472   9.680   4.735   1.441  0.2584  2.1951  0.7351
19584SOL     OW60473   0.949   8.994   3.379  0.1656 -0.0699 -0.3647
19584SOL    HW160474   0.897   9.071   3.400  1.2957  0.6475 -0.0823
19584SOL    HW260475   0.904   8.922   3.421 -1.1894  0.3513 -1.0554
19585SOL     OW60476   3.864   0.839   7.223 -0.7835  0.2111 -0.4744
19585SOL    HW160477   3.814   0.761   7.200 -0.5600 -0.2852  0.6599
19585SOL    HW260478   3.843   0.902   7.154 -1.0686 -0.8011 -1.3313
19586SOL     OW60479   1.011   5.313   8.635  0.1660  0.2384  0.7255
19586SOL    HW160480   0.983   5.274   8.552 -2.0958  1.4506  0.8172
19586SOL    HW260481   1.016   5.407   8.617  2.6767  0.2550  1.2298
19587SOL     OW60482   5.166   9.262   3.346 -0.0997  0.0037 -0.2167
19587SOL    HW160483   5.083   9.228   3.313  1.0923 -1.2288 -2.1163
19587SOL    HW260484   5.231   9.195   3.323  1.4093  0.8049  1.4375
19588SOL     OW60485   3.241   2.731   5.516  0.1079 -0.0144  0.1683
19588SOL    HW160486   3.243   2.741   5.611 -0.6615 -0.0686  0.2025
19588SOL    HW260487   3.333   2.732   5.489  0.3119  0.5084  0.8589
19589SOL     OW60488   5.683   3.350   0.698 -0.0835  0.0831  0.4503
19589SOL    HW160489   5.672   3.420   0.634 -0.3291  0.2880  0.7092
19589SOL    HW260490   5.663   3.392   0.782  0.5551 -0.0977  0.6979
19590SOL     OW60491   0.502   2.311   5.582  0.6521 -0.6613  0.4441
19590SOL    HW160492   0.462   2.351   5.659  2.0684 -0.6620  1.1930
19590SOL    HW260493   0.450   2.344   5.508 -1.4424 -1.5467  1.4387
19591SOL     OW60494   4.925   8.012   1.598 -0.1521  0.1513  0.4268
19591SOL    HW160495   4.888   7.943   1.543 -0.8651  1.4463 -0.7790
19591SOL    HW260496   4.959   8.077   1.536 -0.7798  1.5623  1.5054
19592SOL     OW60497   5.973   7.645   5.898  0.0777  0.0508  0.5346
19592SOL    HW160498   6.040   7.639   5.967  0.8556 -0.5408 -0.2471
19592SOL    HW260499   5.948   7.738   5.898  2.7492  0.8742 -0.8237
19593SOL     OW60500   2.069   3.740   0.539  0.5978 -0.1778 -0.2355
19593SOL    HW160501   1.980   3.707   0.527 -0.4929  2.2426  0.6186
19593SOL    HW260502   2.099   3.760   0.450  0.0661 -0.4569 -0.4829
19594SOL     OW60503   6.529   6.640   8.308 -0.4335  0.0621 -0.0771
19594SOL    HW160504   6.566   6.614   8.393  1.0398 -0.0899 -0.7313
19594SOL    HW260505   6.434   6.633   8.320 -0.3817  1.7381  2.1213
19595SOL     OW60506   7.742   6.931   0.678  0.0035  0.7853 -0.1264
19595SOL    HW160507   7.776   6.980   0.603 -0.0584  2.6396  1.0089
19595SOL    HW260508   7.818   6.919   0.735  0.1193 -0.8948 -0.5789
19596SOL     OW60509   8.032   2.092   9.575  0.0015 -0.1898 -0.1792
19596SOL    HW160510   7.991   2.126   9.496  1.8474  0.9137 -0.7426
19596SOL    HW260511   8.061   2.170   9.622 -1.4367 -0.7975  1.8585
19597SOL     OW60512   6.324   0.934   4.804 -0.7862  0.0478 -0.4842
19597SOL    HW160513   6.289   1.019   4.776 -0.1340 -0.3337 -2.6657
19597SOL    HW260514   6.272   0.870   4.756 -0.6176 -0.7594  0.3855
19598SOL     OW60515   5.699   6.784   8.406  0.1123 -0.7791  0.0855
19598SOL    HW160516   5.754   6.705   8.407 -1.3379 -1.8357 -0.1615
19598SOL    HW260517   5.609   6.750   8.408 -0.7623  0.6039 -4.2628
19599SOL     OW60518   9.593   2.720   6.705 -0.0810 -0.1545  0.1135
19599SOL    HW160519   9.586   2.641   6.760  0.5533 -1.7279 -1.9291
19599SOL    HW260520   9.672   2.764   6.737 -0.4776 -0.2628  1.3250
19600SOL     OW60521   1.371   7.103   7.784  0.2672 -0.0082 -0.3893
19600SOL    HW160522   1.400   7.192   7.763  1.0981  0.1488  1.2673
19600SOL    HW260523   1.370   7.100   7.880 -1.1718 -1.3378 -0.4057
19601SOL     OW60524   0.077   3.729   2.640  0.2079 -0.2662  0.0648
19601SOL    HW160525   0.005   3.705   2.581 -0.0918 -0.2183  0.4039
19601SOL    HW260526   0.086   3.654   2.698  1.5554 -0.9829 -1.0207
19602SOL     OW60527   3.552   3.806   8.939 -0.2892 -0.3736 -0.0343
19602SOL    HW160528   3.550   3.844   8.852 -0.0389 -0.0308  0.1068
19602SOL    HW260529   3.489   3.734   8.936 -0.2897 -0.3544 -0.4914
19603SOL     OW60530   5.470   3.010   7.890  0.2144  0.3170 -0.2626
19603SOL    HW160531   5.512   3.042   7.810  0.0928  0.2756 -0.3427
19603SOL    HW260532   5.387   2.974   7.861  0.1786  0.2837 -0.1195
19604SOL     OW60533   1.188   0.683   7.523 -0.0370 -0.0961  0.4083
19604SOL    HW160534   1.142   0.737   7.458  0.1427 -1.5437 -0.9799
19604SOL    HW260535   1.228   0.746   7.583 -0.7911  1.2707 -0.4749
19605SOL     OW60536   1.375   4.534   7.709  0.0720 -0.1342 -0.3219
19605SOL    HW160537   1.463   4.523   7.672  0.9243  2.0458  0.8899
19605SOL    HW260538   1.389   4.531   7.804 -1.1459  0.3872 -0.1140
19606SOL     OW60539   7.199   2.604   7.448  0.2684  0.6665  0.6605
19606SOL    HW160540   7.287   2.626   7.480  0.8155 -0.3986 -0.0738
19606SOL    HW260541   7.158   2.556   7.520  0.4773  0.7243  0.8169
19607SOL     OW60542   2.479   8.790   4.522  0.1398 -0.2333  0.2555
19607SOL    HW160543   2.403   8.840   4.553  0.3367  0.3891 -0.2575
19607SOL    HW260544   2.508   8.837   4.444  2.0519  0.4680  1.3416
19608SOL     OW60545   1.914   8.758   0.371 -0.4211 -0.4732  0.1135
19608SOL    HW160546   1.860   8.837   0.364 -2.8431 -2.1440 -1.5976
19608SOL    HW260547   1.949   8.761   0.460 -2.8497  1.0419  1.1213
19609SOL     OW60548   5.761   5.158   6.465  1.0505  0.2959 -0.2489
19609SOL    HW160549   5.820   5.174   6.392  2.9941 -0.9915  0.9269
19609SOL    HW260550   5.786   5.071   6.498  0.2600  0.8026  1.9071
19610SOL     OW60551   4.303   8.373   6.293  0.9298  0.8689 -0.0046
19610SOL    HW160552   4.270   8.290   6.259 -0.6531  1.1988  0.6319
19610SOL    HW260553   4.258   8.440   6.242  0.8982  1.3363  0.6197
19611SOL     OW60554   2.362   7.153   1.915  0.4129  0.2801  0.5915
19611SOL    HW160555   2.436   7.213   1.922 -0.1871  0.9546  1.4556
19611SOL    HW260556   2.400   7.066   1.927  1.0859  0.6071  0.8518
19612SOL     OW60557   1.568   4.674   0.178  0.5254  0.0349 -0.6686
19612SOL    HW160558   1.533   4.760   0.156 -3.6025 -1.1592  0.3789
19612SOL    HW260559   1.549   4.620   0.101 -1.9608 -1.0760  0.5978
19613SOL     OW60560   2.486   8.712   4.027 -0.3741 -0.1918  0.1642
19613SOL    HW160561   2.396   8.704   3.994  0.5571  0.6831 -2.9491
19613SOL    HW260562   2.530   8.768   3.963  2.4853 -0.7935  1.4398
19614SOL     OW60563   0.383   6.138   2.461 -0.2737  0.0270 -0.0617
19614SOL    HW160564   0.356   6.216   2.413 -0.1319  0.7953  1.0828
19614SOL    HW260565   0.478   6.135   2.451 -0.2529  0.1417  0.0994
19615SOL     OW60566   3.646   2.464   7.658  0.4549 -0.5612 -0.5315
19615SOL    HW160567   3.608   2.542   7.618  3.0016  0.7777 -0.5765
19615SOL    HW260568   3.584   2.439   7.727 -1.8452 -0.3042 -2.3625
19616SOL     OW60569   0.422   0.905   6.578  0.1451  0.3011  0.4960
19616SOL    HW160570   0.477   0.908   6.657  0.0082 -0.6525  0.6445
19616SOL    HW260571   0.356   0.838   6.598  2.4333 -2.9806 -1.8483
19617SOL     OW60572   2.564   5.198   1.590  0.1661 -0.0387  0.1716
19617SOL    HW160573   2.544   5.147   1.511 -1.3000  3.7841 -2.2002
19617SOL    HW260574   2.659   5.203   1.592  0.2233  0.5480 -1.9538
19618SOL     OW60575   4.633   5.037   4.588 -0.8262  0.5023 -0.0631
19618SOL    HW160576   4.612   5.082   4.670 -2.6673 -0.9523  0.3352
19618SOL    HW260577   4.729   5.028   4.590 -0.8260  0.4368  1.9723
19619SOL     OW60578   8.594   8.529   5.812  0.1431 -0.4308 -0.5326
19619SOL    HW160579   8.585   8.598   5.745 -0.6470  0.3742  0.3646
19619SOL    HW260580   8.582   8.448   5.764  1.1919  0.0399 -1.6413
19620SOL     OW60581   5.689   2.646   2.776  0.1477  0.2550 -0.0768
19620SOL    HW160582   5.614   2.668   2.722 -0.5086  0.2463  0.8094
19620SOL    HW260583   5.744   2.725   2.774 -0.9048  1.0458  0.9447
19621SOL     OW60584   6.574   7.486   1.480 -0.3217 -0.2755  0.6520
19621SOL    HW160585   6.562   7.501   1.573 -0.0102 -0.1949  0.6803
19621SOL    HW260586   6.653   7.432   1.474 -0.0290  0.1794  0.4012
19622SOL     OW60587   4.607   4.591   2.983 -0.1927  0.4869  0.1922
19622SOL    HW160588   4.536   4.555   3.037 -0.9411 -0.4583 -1.3451
19622SOL    HW260589   4.563   4.646   2.919  0.5706  0.7252 -0.1418
19623SOL     OW60590   5.341   5.670   8.781  0.6242  0.4920 -0.1618
19623SOL    HW160591   5.248   5.667   8.761  0.5962  0.0908  0.0244
19623SOL    HW260592   5.373   5.747   8.733  0.2658  0.4366 -0.4974
19624SOL     OW60593   2.260   8.456   5.681 -0.5082 -0.0394  0.4531
19624SOL    HW160594   2.308   8.503   5.613  1.8246 -0.8027  1.4648
19624SOL    HW260595   2.178   8.505   5.691  0.1590  1.5121 -1.1801
19625SOL     OW60596   2.917   7.064   3.855  0.0614  0.0541  0.0816
19625SOL    HW160597   2.980   7.100   3.918  1.7092 -2.5950  0.0871
19625SOL    HW260598   2.884   6.985   3.897 -0.9231 -0.2654 -1.2382
19626SOL     OW60599   7.011   7.745   3.503 -0.2428 -0.1649  0.4566
19626SOL    HW160600   6.964   7.666   3.476 -0.1241  0.9175 -3.6419
19626SOL    HW260601   6.942   7.808   3.524 -0.3411 -1.0563  3.1381
19627SOL     OW60602   7.232   8.021   7.283 -0.1797 -0.3256 -0.5516
19627SOL    HW160603   7.204   8.063   7.202  0.3184  1.4646  0.1566
19627SOL    HW260604   7.312   8.067   7.308 -0.8311 -0.1788  1.4454
19628SOL     OW60605   7.698   7.533   4.934 -0.1038  0.4198  0.1412
19628SOL    HW160606   7.750   7.606   4.901  0.2177  1.0011  1.8504
19628SOL    HW260607   7.752   7.494   5.003 -0.0247 -1.8083 -1.0558
19629SOL     OW60608   3.375   8.057   3.401  0.6897  0.1744  0.0507
19629SOL    HW160609   3.316   7.998   3.355  1.0087 -1.3527  1.5336
19629SOL    HW260610   3.442   8.079   3.336  0.9693 -1.7000 -0.3503
19630SOL     OW60611   7.345   7.965   5.019  0.0332 -0.0641 -0.0653
19630SOL    HW160612   7.303   7.881   5.000 -0.1089 -0.2553  1.0185
19630SOL    HW260613   7.434   7.942   5.043  0.3466  0.2128 -0.9453
19631SOL     OW60614   3.985   7.017   3.803  0.2027  0.4258  0.1497
19631SOL    HW160615   4.028   7.095   3.837 -2.1565  1.3980  1.0277
19631SOL    HW260616   3.947   7.044   3.720 -0.2776  0.0918  0.2566
19632SOL     OW60617   6.707   0.402   1.132  0.0487  0.0753  0.4929
19632SOL    HW160618   6.628   0.456   1.124 -1.9024 -2.2890  2.1356
19632SOL    HW260619   6.674   0.313   1.146  3.0530 -1.6269 -1.8191
19633SOL     OW60620   7.932   6.369   4.445 -0.2233  0.1740 -0.4586
19633SOL    HW160621   7.934   6.465   4.450 -0.4513  0.1422  0.2780
19633SOL    HW260622   7.966   6.340   4.529 -1.8103 -0.3904  0.0124
19634SOL     OW60623   1.902   3.972   0.546 -0.4759 -0.5604  0.8417
19634SOL    HW160624   1.859   3.951   0.463  0.9735 -1.4907  0.2787
19634SOL    HW260625   1.987   3.930   0.539  0.4517  1.0353  1.9967
19635SOL     OW60626   3.633   8.257   9.142 -0.1420  0.0402  0.0483
19635SOL    HW160627   3.686   8.185   9.111 -1.1572 -0.9936  0.6402
19635SOL    HW260628   3.604   8.230   9.230  0.8325  1.8876  1.0064
19636SOL     OW60629   2.435   4.457   0.583  0.3254  0.4372 -0.3365
19636SOL    HW160630   2.442   4.489   0.673  2.1995  0.6343 -0.5230
19636SOL    HW260631   2.365   4.510   0.544  1.0861  1.9981  0.3418
19637SOL     OW60632   2.288   5.678   5.559 -0.2751 -0.0399 -0.4202
19637SOL    HW160633   2.230   5.685   5.483 -1.6916  1.2654  0.7108
19637SOL    HW260634   2.244   5.617   5.618 -0.0297  0.2223  0.0423
19638SOL     OW60635   8.853   4.459   5.971  0.0371  0.1190 -0.6038
19638SOL    HW160636   8.822   4.369   5.972 -0.8564  0.4261 -0.3726
19638SOL    HW260637   8.791   4.506   5.916 -0.5224  0.9383  0.6720
19639SOL     OW60638   7.480   8.652   3.325 -0.1842  0.5842 -0.9246
19639SOL    HW160639   7.471   8.625   3.234  0.8089  0.3333 -0.9565
19639SOL    HW260640   7.526   8.579   3.367  1.6134  1.7428 -0.7869
19640SOL     OW60641   0.376   8.525   0.921  0.2960 -0.2214 -0.2215
19640SOL    HW160642   0.373   8.600   0.861  2.2155  0.4834  0.4558
19640SOL    HW260643   0.451   8.474   0.891 -0.5167 -1.4475 -0.1906
19641SOL     OW60644   7.964   2.663   4.982 -0.1750  0.1439  1.0655
19641SOL    HW160645   7.989   2.731   4.921 -1.4430  0.8805  1.3304
19641SOL    HW260646   7.957   2.584   4.929 -3.5790  1.2037 -0.3410
19642SOL     OW60647   5.623   1.532   8.687  0.1186  0.0893  0.6053
19642SOL    HW160648   5.614   1.445   8.648  0.0633  0.3223  0.0928
19642SOL    HW260649   5.654   1.587   8.616  0.3016  0.4589  0.9689
19643SOL     OW60650   4.029   3.962   3.574  0.1496  0.0540 -0.2470
19643SOL    HW160651   4.105   3.927   3.527  1.2437  1.9301  0.0038
19643SOL    HW260652   3.998   4.034   3.520 -1.2866 -0.4937 -0.1805
19644SOL     OW60653   4.276   7.743   2.457 -0.0909 -0.5437  0.1280
19644SOL    HW160654   4.227   7.687   2.517  0.6835  1.2471  2.5903
19644SOL    HW260655   4.365   7.745   2.493  0.3505  0.7777 -0.9384
19645SOL     OW60656   3.973   3.846   4.450 -0.1468 -0.0479  0.0587
19645SOL    HW160657   3.973   3.756   4.417 -1.1177  0.4555 -1.3988
19645SOL    HW260658   4.025   3.895   4.386  0.5699  0.4069  0.9580
19646SOL     OW60659   1.049   0.177   4.530 -0.1216 -0.4021 -0.2050
19646SOL    HW160660   0.969   0.171   4.477  0.1813 -0.1547 -0.6916
19646SOL    HW260661   1.019   0.159   4.619 -0.6705 -0.6218 -0.4272
19647SOL     OW60662   0.486   2.983   4.739  0.3189  0.2098 -0.1000
19647SOL    HW160663   0.578   2.980   4.766  0.1387 -0.1632  0.4880
19647SOL    HW260664   0.442   2.918   4.794 -0.4286  0.8897  0.1235
19648SOL     OW60665   2.148   1.371   1.470  0.0109  0.2676 -0.4028
19648SOL    HW160666   2.095   1.299   1.503 -0.9778  0.2115 -1.9951
19648SOL    HW260667   2.206   1.331   1.406 -0.8342  0.8954 -1.6084
19649SOL     OW60668   4.173   0.754   6.567  0.2626 -0.4258  0.4856
19649SOL    HW160669   4.151   0.834   6.615  1.4097  0.4279 -0.3253
19649SOL    HW260670   4.098   0.740   6.509  0.1579  0.2357  0.4460
19650SOL     OW60671   9.483   5.256   8.455  0.4922 -0.2292 -0.3425
19650SOL    HW160672   9.532   5.268   8.374 -0.3743  0.0377 -0.8350
19650SOL    HW260673   9.391   5.261   8.429  0.1971  0.8692  0.8095
19651SOL     OW60674   6.166   9.187   2.461  0.1117  0.0021  0.0874
19651SOL    HW160675   6.188   9.276   2.432  0.5721 -0.2629 -0.3956
19651SOL    HW260676   6.071   9.182   2.452  0.0531  0.5313  0.3714
19652SOL     OW60677   7.365   2.362   5.192 -0.0838  0.2700  0.3189
19652SOL    HW160678   7.288   2.418   5.204  0.4281  1.0009  0.2705
19652SOL    HW260679   7.361   2.300   5.264 -0.1613  0.9669  0.9301
19653SOL     OW60680   1.148   2.508   1.933  0.2381 -0.4762 -0.4008
19653SOL    HW160681   1.113   2.561   1.861 -1.3627 -0.9613 -0.0258
19653SOL    HW260682   1.192   2.571   1.990 -0.3691  0.2456 -0.7061
19654SOL     OW60683   9.265   8.680   9.481  0.1512  0.4775 -0.4832
19654SOL    HW160684   9.335   8.640   9.533 -1.5972 -1.3713  0.5950
19654SOL    HW260685   9.253   8.766   9.520 -0.2958 -0.4055  1.4488
19655SOL     OW60686   3.942   4.599   1.874 -0.1812  0.0697 -0.1756
19655SOL    HW160687   4.026   4.617   1.832  1.4150 -2.2982  1.7035
19655SOL    HW260688   3.878   4.610   1.804  1.8340  0.4949 -2.0892
19656SOL     OW60689   7.921   7.428   4.748  0.0837 -0.0747 -0.0972
19656SOL    HW160690   7.959   7.398   4.830 -1.5900  0.5802  0.9664
19656SOL    HW260691   7.848   7.367   4.732  0.2673 -0.0764 -1.0016
19657SOL     OW60692   5.562   5.191   8.687  0.4786  0.1011  0.0639
19657SOL    HW160693   5.602   5.258   8.631  1.1024 -0.0397  0.3286
19657SOL    HW260694   5.489   5.236   8.729 -0.6672 -0.0728 -1.6291
19658SOL     OW60695   8.207   9.539   9.128 -0.5670 -0.3825 -0.0263
19658SOL    HW160696   8.273   9.580   9.072 -0.2777 -0.4652  0.2591
19658SOL    HW260697   8.247   9.457   9.157 -1.4185 -1.2469 -1.1930
19659SOL     OW60698   2.480   4.865   6.534 -0.6307  0.1667 -0.7756
19659SOL    HW160699   2.493   4.943   6.590 -0.4742 -0.0105 -0.5620
19659SOL    HW260700   2.413   4.814   6.579  0.5421 -0.7041  0.0502
19660SOL     OW60701   2.351   6.753   0.535  0.6577  0.0717  0.7986
19660SOL    HW160702   2.344   6.847   0.549  1.2492  0.2318  0.0846
19660SOL    HW260703   2.413   6.724   0.603  1.2301  0.3631  0.4121
19661SOL     OW60704   4.666   4.420   4.071  0.3889 -0.0005 -0.0771
19661SOL    HW160705   4.693   4.365   3.997 -0.7682 -0.7472  0.0364
19661SOL    HW260706   4.616   4.491   4.031  1.4311  0.7006 -0.1734
19662SOL     OW60707   6.378   0.196   8.420 -0.2839  0.3085 -0.3128
19662SOL    HW160708   6.464   0.153   8.428 -0.4398  0.1458  0.5841
19662SOL    HW260709   6.366   0.207   8.325 -0.7274 -2.6248 -0.6908
19663SOL     OW60710   8.291   8.576   0.226  0.1535 -0.1109  0.0606
19663SOL    HW160711   8.319   8.588   0.135  1.8602 -1.2779  0.3737
19663SOL    HW260712   8.196   8.565   0.221  0.1678  0.2715 -1.5275
19664SOL     OW60713   7.585   6.430   6.102 -0.3985  0.2425  0.3001
19664SOL    HW160714   7.627   6.349   6.131 -0.2794  0.5026  0.8718
19664SOL    HW260715   7.494   6.405   6.084  0.0413 -0.3703 -1.1762
19665SOL     OW60716   0.328   9.182   4.013  0.0901  0.1077 -0.2752
19665SOL    HW160717   0.374   9.128   3.949  2.8987 -0.7636  2.2111
19665SOL    HW260718   0.329   9.129   4.093 -0.2011  2.4347  1.3608
19666SOL     OW60719   9.538   8.169   4.855 -0.4959  0.1874  0.2114
19666SOL    HW160720   9.480   8.238   4.824  0.0094  0.6714  0.3249
19666SOL    HW260721   9.553   8.190   4.948  0.3298  0.4130  0.0362
19667SOL     OW60722   1.027   2.629   1.733 -0.3329  0.7893 -0.3270
19667SOL    HW160723   1.012   2.612   1.640 -1.8499  0.2052 -0.0029
19667SOL    HW260724   0.942   2.615   1.774  0.4974  0.2083  1.2762
19668SOL     OW60725   6.952   7.653   1.476 -0.0802 -1.2104 -0.6133
19668SOL    HW160726   6.980   7.570   1.514  1.0272 -0.7895 -0.4842
19668SOL    HW260727   7.011   7.718   1.514 -1.1902 -0.2949 -0.3915
19669SOL     OW60728   4.329   0.975   7.319 -0.2858 -0.3372 -0.3617
19669SOL    HW160729   4.278   0.921   7.259 -1.7105  0.8536 -0.2935
19669SOL    HW260730   4.358   1.049   7.266 -1.5755  0.7351  0.3782
19670SOL     OW60731   6.627   1.687   7.429  0.0841  0.4146 -0.0981
19670SOL    HW160732   6.550   1.738   7.453  1.1547  1.2301  1.7977
19670SOL    HW260733   6.664   1.658   7.512  0.8433 -1.4922 -1.0381
19671SOL     OW60734   1.885   3.998   0.242  0.0803  0.9203  0.3813
19671SOL    HW160735   1.966   3.965   0.205 -0.1119 -0.3580  1.0300
19671SOL    HW260736   1.818   3.937   0.212 -0.5143  1.4937  0.5124
19672SOL     OW60737   8.020   5.387   9.237 -0.1309 -0.6842  0.0956
19672SOL    HW160738   8.071   5.306   9.231 -0.3971 -0.8024 -0.6966
19672SOL    HW260739   8.085   5.457   9.228  0.1123 -0.7977  0.8785
19673SOL     OW60740   1.969   1.799   4.273 -0.3508 -0.1691  0.0299
19673SOL    HW160741   1.946   1.880   4.318  0.7233  0.0207  0.2662
19673SOL    HW260742   1.990   1.827   4.184 -1.3724 -0.3935 -0.2959
19674SOL     OW60743   9.341   2.771   8.164  0.3157 -0.2721 -0.0311
19674SOL    HW160744   9.281   2.788   8.092  1.0486  0.5446 -0.4676
19674SOL    HW260745   9.375   2.858   8.188  1.4025 -0.7268  0.1253
19675SOL     OW60746   1.626   8.470   7.314  0.0438 -0.1808  0.8966
19675SOL    HW160747   1.595   8.379   7.315  0.7299 -0.6181 -3.1930
19675SOL    HW260748   1.721   8.463   7.324  0.2707 -0.1271 -0.8899
19676SOL     OW60749   7.011   9.134   1.847 -0.1602 -0.5106 -0.1328
19676SOL    HW160750   7.105   9.117   1.856 -0.5733 -2.3804  1.0659
19676SOL    HW260751   6.982   9.158   1.935 -1.1783 -2.1257  0.0096
19677SOL     OW60752   6.777   2.585   4.315 -0.9139 -0.2186 -0.0082
19677SOL    HW160753   6.694   2.544   4.340 -0.8791 -0.3897 -0.1633
19677SOL    HW260754   6.752   2.657   4.257 -1.0287  0.5267  0.9368
19678SOL     OW60755   2.781   4.771   8.015  0.1275 -0.5131  0.1573
19678SOL    HW160756   2.782   4.844   7.953  1.9362 -1.4664 -1.0175
19678SOL    HW260757   2.775   4.813   8.101  1.5166  1.0646 -0.4618
19679SOL     OW60758   9.587   2.570   3.107  0.7116 -0.2493 -0.0099
19679SOL    HW160759   9.626   2.564   3.194  0.2701  1.1293  0.3101
19679SOL    HW260760   9.633   2.642   3.064 -1.1258  1.1693  0.2462
19680SOL     OW60761   7.344   9.284   4.310 -0.9371 -0.3607 -0.6171
19680SOL    HW160762   7.391   9.326   4.382 -1.7887 -0.3346 -0.0655
19680SOL    HW260763   7.411   9.267   4.244 -0.5255  1.6913 -0.7751
19681SOL     OW60764   3.766   7.166   5.525 -0.3241  0.2285  0.0496
19681SOL    HW160765   3.818   7.245   5.510 -0.0997 -0.0252 -0.5541
19681SOL    HW260766   3.806   7.100   5.468 -0.9407 -0.1315  0.0244
19682SOL     OW60767   7.352   4.667   3.311  0.0544  0.0288  0.2583
19682SOL    HW160768   7.296   4.620   3.373  1.0143  1.4731  2.3150
19682SOL    HW260769   7.302   4.745   3.288 -0.0810 -0.2490 -0.4154
19683SOL     OW60770   2.252   1.775   0.798  0.0822  0.0713 -0.0576
19683SOL    HW160771   2.189   1.847   0.793  0.5091  0.5792  1.3640
19683SOL    HW260772   2.334   1.814   0.769 -0.2686 -0.6696 -2.2020
19684SOL     OW60773   7.413   8.547   2.778 -0.4527  0.6454 -0.0706
19684SOL    HW160774   7.373   8.615   2.724 -0.6362 -0.4818 -1.3901
19684SOL    HW260775   7.358   8.470   2.765 -0.5235  0.3268  1.7593
19685SOL     OW60776   8.673   4.543   4.332 -0.1335  0.0848 -0.7510
19685SOL    HW160777   8.747   4.504   4.378 -0.4548 -1.1908 -1.2790
19685SOL    HW260778   8.610   4.472   4.322  0.1685  0.0949 -3.6725
19686SOL     OW60779   6.150   9.689   2.954  0.1257 -0.3763 -0.0161
19686SOL    HW160780   6.177   9.628   2.886 -0.0408 -2.5091  1.6979
19686SOL    HW260781   6.207   9.668   3.029 -1.7388 -0.3235  1.4991
19687SOL     OW60782   8.237   1.771   1.874 -0.2185 -0.1997  0.2828
19687SOL    HW160783   8.251   1.691   1.824 -1.2813  0.4144 -1.0405
19687SOL    HW260784   8.217   1.740   1.963 -1.4121 -1.4577 -0.3797
19688SOL     OW60785   8.736   4.679   0.289  0.0983  0.1318 -0.5889
19688SOL    HW160786   8.823   4.710   0.264 -0.0807 -0.3362 -1.8462
19688SOL    HW260787   8.753   4.616   0.360  0.7394  0.4186 -0.4825
19689SOL     OW60788   0.799   2.081   8.320 -0.3965 -0.3268  0.1654
19689SOL    HW160789   0.756   2.037   8.394  0.4299 -0.0572  0.8195
19689SOL    HW260790   0.867   2.135   8.361 -0.7774  0.8331 -0.7063
19690SOL     OW60791   1.071   4.186   0.373  0.2035 -0.2318 -0.2868
19690SOL    HW160792   1.159   4.183   0.409  0.5453  2.3629 -0.6744
19690SOL    HW260793   1.014   4.158   0.444  1.2365 -0.5158  0.4401
19691SOL     OW60794   2.378   1.566   0.062 -0.1849 -0.1000 -0.2697
19691SOL    HW160795   2.324   1.600  -0.010 -1.5513 -1.1252  0.2166
19691SOL    HW260796   2.364   1.627   0.134 -1.3186 -0.7351  0.0797
19692SOL     OW60797   9.461   8.681   5.799 -0.0742  0.1603 -0.1340
19692SOL    HW160798   9.508   8.743   5.743 -0.3032  1.2661  0.8615
19692SOL    HW260799   9.373   8.676   5.760 -0.1962  0.8285  0.0348
19693SOL     OW60800   8.004   2.765   2.104  0.1109  0.3745 -0.2238
19693SOL    HW160801   7.982   2.760   2.196  1.9317 -0.3982  0.2144
19693SOL    HW260802   8.011   2.859   2.086  0.6218  0.5097  0.6584
19694SOL     OW60803   0.994   4.553   1.475 -0.1578 -0.2051  0.3637
19694SOL    HW160804   0.907   4.576   1.444 -0.0887 -0.8023 -0.2937
19694SOL    HW260805   0.980   4.477   1.532 -0.0931 -0.1593  0.4410
19695SOL     OW60806   3.709   8.428   2.252  0.0256  0.4746 -0.4445
19695SOL    HW160807   3.658   8.503   2.220 -0.6183 -0.4966 -1.8193
19695SOL    HW260808   3.665   8.402   2.333 -0.1282  1.1700 -0.2944
19696SOL     OW60809   7.186   0.069   6.159  0.5402  0.2453  0.4940
19696SOL    HW160810   7.119   0.063   6.227  1.0819  0.1736  1.0283
19696SOL    HW260811   7.259   0.114   6.200  1.0487 -0.1939  0.1026
19697SOL     OW60812   3.535   6.259   7.852  0.2756  0.2744 -0.0007
19697SOL    HW160813   3.515   6.182   7.905  0.2528  0.5524  0.4037
19697SOL    HW260814   3.450   6.304   7.843  0.3956  0.5585  0.2663
19698SOL     OW60815   6.095   9.070   8.431 -0.0462 -0.1639  0.2010
19698SOL    HW160816   6.125   9.144   8.379 -4.3797  1.3965 -0.4881
19698SOL    HW260817   6.096   9.102   8.522  0.7114 -0.3031  0.2474
19699SOL     OW60818   4.011   3.679   7.429  0.3173  0.4111 -0.0369
19699SOL    HW160819   4.081   3.662   7.492 -0.3712  0.5676  0.7896
19699SOL    HW260820   3.937   3.630   7.461 -0.8339  2.5457  0.7702
19700SOL     OW60821   5.441   0.980   7.576 -0.2114 -0.5988 -0.1277
19700SOL    HW160822   5.531   0.965   7.604 -0.2966 -1.1599 -0.1364
19700SOL    HW260823   5.447   1.047   7.507  0.5302 -2.6704 -2.2130
19701SOL     OW60824   9.315   4.512   7.175 -0.1334 -0.2820 -0.4083
19701SOL    HW160825   9.371   4.588   7.156 -0.2342 -0.6964 -2.6342
19701SOL    HW260826   9.377   4.440   7.185 -0.0948 -0.1018  0.7244
19702SOL     OW60827   8.640   1.113   5.708  0.4802 -0.0565 -0.2064
19702SOL    HW160828   8.633   1.049   5.637 -0.1004  0.0182 -0.2295
19702SOL    HW260829   8.623   1.063   5.788 -2.8453  0.4874 -0.4130
19703SOL     OW60830   6.466   8.207   5.279 -0.0759 -0.0043  0.0604
19703SOL    HW160831   6.473   8.273   5.210  2.0722 -0.7644 -0.5170
19703SOL    HW260832   6.546   8.218   5.331  1.2081 -3.1477 -1.0185
19704SOL     OW60833   7.986   3.318   4.544 -0.0898 -0.3013  0.0816
19704SOL    HW160834   7.905   3.357   4.510  0.7517  0.0750 -1.5701
19704SOL    HW260835   7.998   3.239   4.492  1.3773  0.4294 -0.7288
19705SOL     OW60836   2.785   8.134   4.921  0.2805 -0.9587  0.2823
19705SOL    HW160837   2.756   8.132   5.012  0.3976  1.8286  0.4840
19705SOL    HW260838   2.714   8.179   4.875  0.5801 -1.6395 -0.8661
19706SOL     OW60839   5.891   4.969   7.641 -0.2990  0.0663 -0.0021
19706SOL    HW160840   5.931   4.926   7.717  1.5839  0.2277 -0.8541
19706SOL    HW260841   5.805   4.927   7.633 -0.8746  0.5208  2.5943
19707SOL     OW60842   8.455   5.639   7.593  0.7160 -0.0801  0.4462
19707SOL    HW160843   8.473   5.551   7.629  0.6290 -0.4988 -0.5068
19707SOL    HW260844   8.450   5.625   7.499 -2.2064  0.4377  0.4481
19708SOL     OW60845   1.433   1.779   5.337 -0.4252 -0.1720 -0.0072
19708SOL    HW160846   1.504   1.842   5.323 -0.7208  0.0029 -0.7622
19708SOL    HW260847   1.477   1.701   5.371 -0.0010  0.2891  0.5387
19709SOL     OW60848   3.838   3.781   3.643  0.1533 -0.5185  0.1734
19709SOL    HW160849   3.890   3.844   3.592 -0.0921 -0.8857 -0.5403
19709SOL    HW260850   3.847   3.810   3.733  1.5859 -0.5496  0.0627
19710SOL     OW60851   2.205   0.777   1.472  0.2111  0.1752  0.9386
19710SOL    HW160852   2.174   0.847   1.529  0.9904  2.5461 -1.3443
19710SOL    HW260853   2.144   0.779   1.397  1.4484 -0.1487 -0.1177
19711SOL     OW60854   4.194   4.928   4.200  0.2670 -0.1682  0.0210
19711SOL    HW160855   4.118   4.937   4.142  0.7380 -1.6484 -0.8724
19711SOL    HW260856   4.215   5.018   4.226 -0.0263  0.5546 -2.0393
19712SOL     OW60857   1.401   3.258   8.930  0.2894 -0.0535  0.6807
19712SOL    HW160858   1.382   3.191   8.864 -1.8933 -0.0299  1.1893
19712SOL    HW260859   1.405   3.210   9.012 -0.0884  0.2773  0.8960
19713SOL     OW60860   4.095   5.188   3.951 -0.0818  0.4721  0.5134
19713SOL    HW160861   4.027   5.254   3.966 -1.9394 -0.9201 -1.2211
19713SOL    HW260862   4.054   5.106   3.979  0.8119 -0.4359 -0.7687
19714SOL     OW60863   6.792   6.768   0.392 -0.2121  0.6352  0.0364
19714SOL    HW160864   6.726   6.709   0.428 -1.1784 -0.2627 -2.8884
19714SOL    HW260865   6.750   6.853   0.390 -0.5054  0.4915  0.0911
19715SOL     OW60866   4.523   3.471   7.164 -0.2017 -0.0744  0.6162
19715SOL    HW160867   4.595   3.513   7.117 -0.4835  0.0305  0.2742
19715SOL    HW260868   4.566   3.426   7.237  0.2490 -0.2806  0.2332
19716SOL     OW60869   0.895   4.815   3.603  0.1693 -0.0775 -0.1739
19716SOL    HW160870   0.861   4.876   3.668  0.4298 -1.1813  1.0300
19716SOL    HW260871   0.941   4.748   3.654  0.5852 -0.8438 -1.5068
19717SOL     OW60872   6.268   0.554   8.295 -0.1800 -0.0330 -0.7758
19717SOL    HW160873   6.329   0.615   8.337 -0.1408 -0.5660 -0.0260
19717SOL    HW260874   6.318   0.516   8.223  0.1373  0.0721 -0.6161
19718SOL     OW60875   1.262   9.345   1.744  0.3300 -0.1264  0.2271
19718SOL    HW160876   1.317   9.282   1.791  1.5592 -0.3277 -1.3742
19718SOL    HW260877   1.194   9.292   1.703  0.6294 -0.2626 -0.0995
19719SOL     OW60878   2.683   7.853   8.996  0.0899 -0.2404  0.0908
19719SOL    HW160879   2.762   7.876   8.947 -0.5984  0.4407 -0.7509
19719SOL    HW260880   2.614   7.847   8.929 -0.7895  0.2655  0.9205
19720SOL     OW60881   8.584   9.487   6.831  0.0206  0.2396 -0.3937
19720SOL    HW160882   8.592   9.411   6.773 -0.9055  0.9041 -1.4380
19720SOL    HW260883   8.665   9.536   6.817 -0.5556  0.8384 -1.8336
19721SOL     OW60884   1.677   8.987   5.864  0.0199  0.1884 -0.2691
19721SOL    HW160885   1.627   8.961   5.942  0.0796 -0.2956 -0.3907
19721SOL    HW260886   1.648   8.927   5.796 -0.0647  0.6374 -0.6393
19722SOL     OW60887   1.791   7.738   2.865 -0.2244 -0.3303 -0.0408
19722SOL    HW160888   1.822   7.824   2.893  0.3939 -0.8689  1.0147
19722SOL    HW260889   1.744   7.704   2.941 -0.7178 -0.8131 -0.5520
19723SOL     OW60890   6.599   8.026   5.110 -0.5733 -0.3411  0.1736
19723SOL    HW160891   6.529   7.971   5.074  0.1014 -0.7598 -0.5365
19723SOL    HW260892   6.558   8.073   5.182 -1.7807 -0.0400 -0.6777
19724SOL     OW60893   6.824   5.279   8.717  0.1263 -0.2414  0.1683
19724SOL    HW160894   6.787   5.366   8.704  3.3023  0.9798 -2.0101
19724SOL    HW260895   6.871   5.284   8.800  0.6046  0.3004 -0.1256
19725SOL     OW60896   6.077   6.285   6.424  0.1800  0.1727  0.4768
19725SOL    HW160897   6.100   6.212   6.480  0.9774  0.0147 -0.0380
19725SOL    HW260898   6.038   6.244   6.346  1.9190  0.1785 -0.4384
19726SOL     OW60899   9.131   7.661   2.547 -0.1468  0.2081  0.3465
19726SOL    HW160900   9.184   7.604   2.603  0.7815 -0.0842 -0.7909
19726SOL    HW260901   9.093   7.602   2.482  3.3784  1.0744 -2.8771
19727SOL     OW60902   3.005   6.406   8.516  0.5610 -0.2606 -0.0355
19727SOL    HW160903   2.939   6.475   8.528  1.3111  0.3033  1.0660
19727SOL    HW260904   2.990   6.374   8.427 -0.6475  0.4278 -0.1114
19728SOL     OW60905   5.508   6.611   9.330  0.3857  0.1298  0.3416
19728SOL    HW160906   5.481   6.637   9.241  1.8211  1.1956  0.1750
19728SOL    HW260907   5.434   6.636   9.385  0.0977  0.9162 -0.3680
19729SOL     OW60908   1.827   5.943   6.110  0.3105  0.1824 -0.0031
19729SOL    HW160909   1.761   6.006   6.139 -1.8341 -1.7229 -0.4041
19729SOL    HW260910   1.906   5.995   6.097 -1.2005  2.6859  0.1106
19730SOL     OW60911   7.837   3.325   7.963  0.0380 -0.4015 -0.3584
19730SOL    HW160912   7.761   3.272   7.940  0.6098 -0.2125 -3.1004
19730SOL    HW260913   7.807   3.415   7.953  0.3591 -0.3091 -0.5131
19731SOL     OW60914   4.754   2.849   4.407 -0.2864  0.2761 -0.4600
19731SOL    HW160915   4.837   2.825   4.364  0.2249  2.5849 -0.9062
19731SOL    HW260916   4.690   2.789   4.369  1.2350 -2.0262  0.3800
19732SOL     OW60917   7.676   8.231   8.558  0.3086  0.0684 -0.4074
19732SOL    HW160918   7.607   8.295   8.576  0.2820 -0.0762  0.0166
19732SOL    HW260919   7.758   8.281   8.568  0.3346 -0.2360  1.1395
19733SOL     OW60920   2.160   2.783   3.561  0.1144  0.2919 -0.3099
19733SOL    HW160921   2.249   2.788   3.596  0.4646  2.2603 -1.3199
19733SOL    HW260922   2.116   2.859   3.598 -0.8431 -0.0937 -0.6337
19734SOL     OW60923   7.209   5.139   4.065 -0.5955  0.3963 -0.1999
19734SOL    HW160924   7.280   5.118   4.125  0.1448  0.6201 -0.9720
19734SOL    HW260925   7.131   5.105   4.108 -0.2437  1.4387  1.3438
19735SOL     OW60926   7.674   3.516   4.054 -0.5988 -0.1572 -0.2480
19735SOL    HW160927   7.688   3.438   4.109 -1.2811 -0.1459 -0.0531
19735SOL    HW260928   7.606   3.490   3.993 -0.9585  0.3480 -0.0669
19736SOL     OW60929   7.234   1.464   4.455 -0.4017  0.0019 -0.7009
19736SOL    HW160930   7.139   1.450   4.453 -0.3550 -0.3023 -0.8239
19736SOL    HW260931   7.246   1.541   4.511 -0.6148 -1.0081  0.7860
19737SOL     OW60932   2.772   4.873   3.219 -0.0515  0.1644 -0.5921
19737SOL    HW160933   2.782   4.892   3.125  2.2155  1.9009 -0.0972
19737SOL    HW260934   2.681   4.895   3.238 -0.6683 -0.5707 -2.4362
19738SOL     OW60935   6.878   5.844   8.343  0.1249 -0.1357 -0.2094
19738SOL    HW160936   6.938   5.912   8.373  0.1484 -0.6150  0.8663
19738SOL    HW260937   6.817   5.832   8.416 -1.0018  0.0026 -1.0891
19739SOL     OW60938   9.540   8.411   8.361  0.1824  0.2677  0.2849
19739SOL    HW160939   9.587   8.363   8.292 -1.4509 -2.9082  1.1607
19739SOL    HW260940   9.449   8.412   8.330  0.0892  2.6165  0.5015
19740SOL     OW60941   6.862   6.078   3.757 -0.0038  0.1411  0.4569
19740SOL    HW160942   6.771   6.105   3.773 -0.2322  0.2282 -0.9135
19740SOL    HW260943   6.874   6.001   3.813 -0.6560  0.5991  1.2562
19741SOL     OW60944   3.616   3.899   7.520  0.4733  0.1892  0.3887
19741SOL    HW160945   3.618   3.885   7.426 -0.0699 -0.1168  0.4135
19741SOL    HW260946   3.707   3.917   7.544  1.1076 -2.3253  0.1859
19742SOL     OW60947   9.557   7.906   3.112 -0.5588  0.2879 -0.4323
19742SOL    HW160948   9.639   7.935   3.150 -1.2919  2.0704 -0.1036
19742SOL    HW260949   9.579   7.882   3.022  0.2892  0.8977 -0.3972
19743SOL     OW60950   8.364   8.775   5.792 -0.1434  0.5136 -0.2126
19743SOL    HW160951   8.439   8.757   5.735 -1.2924  0.3099 -1.7249
19743SOL    HW260952   8.381   8.863   5.826  1.7465 -0.2949  1.1274
19744SOL     OW60953   7.260   4.344   8.693  0.0323  0.0461 -0.0104
19744SOL    HW160954   7.204   4.268   8.686 -0.2743  0.3955 -2.3713
19744SOL    HW260955   7.242   4.381   8.780 -1.1414 -1.5170  0.4403
19745SOL     OW60956   7.952   6.299   7.657  0.3980 -0.0300  0.0736
19745SOL    HW160957   7.931   6.225   7.600  0.5083  1.2127 -1.6637
19745SOL    HW260958   8.043   6.321   7.635  1.0146 -0.5271  1.9497
19746SOL     OW60959   2.660   9.043   3.342 -0.1460 -0.1354  0.1715
19746SOL    HW160960   2.685   9.028   3.433  2.0175 -0.3934 -0.3997
19746SOL    HW260961   2.710   9.120   3.316  3.6088 -3.0194 -2.2287
19747SOL     OW60962   9.308   7.274   5.657  0.2458  0.1578  0.6240
19747SOL    HW160963   9.228   7.221   5.649  0.1063 -0.2658  3.6471
19747SOL    HW260964   9.371   7.230   5.599 -0.8953 -1.2341  0.3701
19748SOL     OW60965   3.949   9.018   5.619 -0.2051  0.1889 -0.0497
19748SOL    HW160966   4.014   9.081   5.589  0.3326  0.4037  1.4497
19748SOL    HW260967   4.001   8.944   5.652 -0.8188 -1.2317 -2.0625
19749SOL     OW60968   3.311   0.297   1.972  0.1393 -0.2325  0.0487
19749SOL    HW160969   3.336   0.389   1.983 -1.9258  0.3311  0.5019
19749SOL    HW260970   3.382   0.248   2.013  1.8765  1.0666 -1.2540
19750SOL     OW60971   5.051   3.927   2.379 -0.0357  0.1232 -0.2470
19750SOL    HW160972   5.060   3.832   2.391 -0.6651  0.1919  0.8740
19750SOL    HW260973   4.962   3.947   2.409 -0.2185  0.9608 -1.2734
19751SOL     OW60974   5.045   2.634   6.332  0.1163  0.5060 -0.5007
19751SOL    HW160975   4.977   2.668   6.391 -0.5797  0.5436 -1.3128
19751SOL    HW260976   5.068   2.709   6.277  1.3271  0.6865  0.2138
19752SOL     OW60977   5.594   7.781   8.370  0.4910  0.1632  0.3065
19752SOL    HW160978   5.676   7.733   8.378  0.0089 -0.7110  0.2297
19752SOL    HW260979   5.541   7.750   8.443 -0.7566 -1.3647 -1.1576
19753SOL     OW60980   3.079   3.961   9.152  0.1987 -0.5779  0.5218
19753SOL    HW160981   3.020   3.949   9.227  0.6810 -2.5037  0.6725
19753SOL    HW260982   3.098   3.871   9.123  0.1444  0.1146 -1.8447
19754SOL     OW60983   3.323   6.656   1.056 -0.2271 -0.0076  1.3634
19754SOL    HW160984   3.345   6.676   1.147  0.8181  0.6509  0.9760
19754SOL    HW260985   3.364   6.726   1.005  0.6659 -1.3119  0.2349
19755SOL     OW60986   3.003   3.304   5.978 -0.3035 -0.3881 -0.3379
19755SOL    HW160987   2.909   3.285   5.970 -0.2708 -0.1966 -1.4310
19755SOL    HW260988   3.040   3.273   5.895  0.5585 -0.2413 -0.0137
19756SOL     OW60989   8.477   2.351   4.486  0.2095 -0.1111 -0.6858
19756SOL    HW160990   8.463   2.388   4.573 -0.4969 -0.9635 -0.4205
19756SOL    HW260991   8.554   2.295   4.496 -0.1170 -0.5312 -0.4998
19757SOL     OW60992   0.964   8.825   3.828 -0.1223  0.0885 -0.2433
19757SOL    HW160993   0.908   8.848   3.902  0.2325  1.7893 -0.4720
19757SOL    HW260994   1.036   8.775   3.867 -0.9629 -0.7777  0.2540
19758SOL     OW60995   1.053   4.990   3.455 -0.6871 -0.6087  0.1248
19758SOL    HW160996   1.009   4.920   3.503 -0.0061 -0.9173  0.3039
19758SOL    HW260997   0.981   5.044   3.421 -1.2035 -1.0987  0.4186
19759SOL     OW60998   5.539   7.930   2.482  0.3725 -0.0740 -0.3303
19759SOL    HW160999   5.467   7.953   2.542 -0.4216  0.8911 -1.6027
19759SOL    HW261000   5.495   7.897   2.404  1.3765 -0.7525 -0.6150
19760SOL     OW61001   2.535   7.218   6.861  0.7360  0.2698 -0.2779
19760SOL    HW161002   2.507   7.228   6.770 -0.6630 -1.7500 -0.1340
19760SOL    HW261003   2.629   7.237   6.859  0.3025  2.7680 -1.6246
19761SOL     OW61004   0.604   7.261   9.057 -0.4432 -0.2610 -0.4477
19761SOL    HW161005   0.652   7.177   9.052 -0.2921 -0.1326 -1.5085
19761SOL    HW261006   0.641   7.305   9.133  2.9021  0.8368 -2.4787
19762SOL     OW61007   2.636   9.435   0.404  0.6599 -0.4896  0.1591
19762SOL    HW161008   2.698   9.480   0.347  0.6803  0.1777  0.6994
19762SOL    HW261009   2.684   9.359   0.437  0.9970 -0.2937  0.1246
19763SOL     OW61010   8.680   7.381   6.488  0.0142 -0.3111 -0.0590
19763SOL    HW161011   8.725   7.425   6.416  0.4114 -0.8121 -0.1216
19763SOL    HW261012   8.747   7.324   6.527 -0.6034 -1.1715 -0.2291
19764SOL     OW61013   8.686   9.674   1.209 -0.7300 -0.2755 -0.5308
19764SOL    HW161014   8.698   9.767   1.229  0.5269 -0.9565  2.5042
19764SOL    HW261015   8.596   9.668   1.177 -0.2926  2.1629 -2.5179
19765SOL     OW61016   8.822   4.148   6.464  0.0871 -0.1816 -0.5038
19765SOL    HW161017   8.796   4.186   6.380 -0.9870 -1.2645 -0.6768
19765SOL    HW261018   8.874   4.071   6.440 -0.8424 -0.9166 -0.1966
19766SOL     OW61019   7.659   8.159   7.867 -0.0071 -0.3427  1.0603
19766SOL    HW161020   7.579   8.108   7.855  0.2897 -0.5506 -0.1693
19766SOL    HW261021   7.725   8.095   7.894  0.1643 -0.4664  0.3461
19767SOL     OW61022   6.725   3.515   9.541 -0.5236  0.1936 -0.1430
19767SOL    HW161023   6.728   3.455   9.616 -1.5178  0.7404  0.3394
19767SOL    HW261024   6.642   3.495   9.498  0.0385 -0.1141 -1.1174
19768SOL     OW61025   8.745   7.980   7.222  0.3804  0.2816 -0.6466
19768SOL    HW161026   8.709   7.986   7.310  1.8548 -0.9165  0.0875
19768SOL    HW261027   8.838   7.963   7.235  0.9392  1.6159 -2.4448
19769SOL     OW61028   0.962   6.116   3.746 -0.0347  0.0565  0.4792
19769SOL    HW161029   0.968   6.068   3.829  1.4201 -1.6968 -0.5698
19769SOL    HW261030   0.994   6.054   3.680  2.7662  2.7423 -0.8965
19770SOL     OW61031   1.856   0.257   9.367 -0.4632  0.4141  0.2331
19770SOL    HW161032   1.762   0.243   9.372 -0.4179 -0.1478 -0.2695
19770SOL    HW261033   1.881   0.220   9.282  0.3604 -0.3707  0.7916
19771SOL     OW61034   6.395   1.402   4.610 -0.4390 -0.0633  0.1041
19771SOL    HW161035   6.302   1.424   4.599 -0.8294 -0.6210  1.8926
19771SOL    HW261036   6.397   1.306   4.607  0.0831 -0.0482 -0.0297
19772SOL     OW61037   5.542   1.207   0.805  0.3174 -0.2230 -0.0705
19772SOL    HW161038   5.553   1.203   0.710  0.2973 -1.7125 -0.0281
19772SOL    HW261039   5.545   1.116   0.834  0.9522  0.2408  1.4413
19773SOL     OW61040   8.720   7.982   8.273  0.1984 -0.4399 -0.3527
19773SOL    HW161041   8.745   7.928   8.348  0.2518  0.2928  0.1732
19773SOL    HW261042   8.649   7.934   8.231 -0.7441 -0.2357  0.9461
19774SOL     OW61043   6.265   1.192   6.805 -0.0847 -0.3214  0.3164
19774SOL    HW161044   6.357   1.198   6.777 -0.3745  1.6156 -0.3566
19774SOL    HW261045   6.263   1.116   6.863  1.1068 -2.9236 -2.7690
19775SOL     OW61046   2.087   7.979   8.384 -0.9387  0.4264 -0.0632
19775SOL    HW161047   2.087   8.005   8.476 -2.7851 -0.0662  0.1191
19775SOL    HW261048   2.008   8.019   8.348 -0.7871 -0.2318 -1.1741
19776SOL     OW61049   2.015   9.241   3.524 -0.7252 -0.0582 -0.7609
19776SOL    HW161050   1.924   9.260   3.545 -0.9051 -1.2555 -0.3901
19776SOL    HW261051   2.058   9.231   3.608 -0.0010  1.4879 -0.9108
19777SOL     OW61052   2.222   2.921   6.157  0.0646 -0.4357 -0.0063
19777SOL    HW161053   2.245   2.849   6.099 -0.1071  1.1929 -2.2162
19777SOL    HW261054   2.306   2.959   6.182  0.0935  0.4198 -1.3207
19778SOL     OW61055   1.487   1.732   4.075  0.0278  0.8036  0.3033
19778SOL    HW161056   1.464   1.648   4.115 -0.8637  0.9450  0.1217
19778SOL    HW261057   1.430   1.738   3.998 -0.4929  1.9144  0.7521
19779SOL     OW61058   3.672   8.428   4.031  0.5613 -0.4495  0.5227
19779SOL    HW161059   3.612   8.368   3.986 -0.5883  0.5497  0.6704
19779SOL    HW261060   3.631   8.514   4.022  1.1839  0.0293  1.9845
19780SOL     OW61061   4.479   0.098   0.028  0.2726 -0.9965 -0.0974
19780SOL    HW161062   4.551   0.046   0.064 -0.9363 -1.4084  1.9173
19780SOL    HW261063   4.404   0.077   0.084 -1.4512 -0.6126 -2.1164
19781SOL     OW61064   7.393   9.221   3.390 -0.0283  0.7588 -0.4876
19781SOL    HW161065   7.314   9.216   3.336 -0.4005  1.9420 -0.0850
19781SOL    HW261066   7.443   9.143   3.366 -0.7992  0.5635 -1.5583
19782SOL     OW61067   4.252   9.575   4.377 -0.4161  0.1583  0.2798
19782SOL    HW161068   4.327   9.604   4.429 -0.2686 -0.1153  0.2194
19782SOL    HW261069   4.244   9.641   4.308 -0.3241  0.2700  0.3747
19783SOL     OW61070   4.083   2.001   5.310  0.7898 -0.3189 -0.3109
19783SOL    HW161071   4.174   2.028   5.324  0.3411  0.1371  2.1561
19783SOL    HW261072   4.034   2.048   5.377 -1.1272 -1.3801 -0.9081
19784SOL     OW61073   3.984   9.277   1.360 -0.3567  0.0938  0.5515
19784SOL    HW161074   3.892   9.254   1.368 -0.6832  1.1338  0.0379
19784SOL    HW261075   4.002   9.271   1.266 -0.3984  1.6131  0.4252
19785SOL     OW61076   5.364   5.961   8.030 -0.6431  0.3398  0.0801
19785SOL    HW161077   5.374   5.868   8.053  0.2783  0.9040  2.2232
19785SOL    HW261078   5.302   5.995   8.094  1.0593  1.7404  1.0894
19786SOL     OW61079   1.493   7.385   5.690  0.2654 -0.0042 -0.8104
19786SOL    HW161080   1.564   7.323   5.675 -0.6672 -1.1574 -0.6757
19786SOL    HW261081   1.529   7.449   5.751  0.5446 -1.8565  1.0829
19787SOL     OW61082   4.418   5.439   8.079 -0.1706  0.3644  0.5930
19787SOL    HW161083   4.349   5.437   8.013  0.4623  0.4334 -0.0741
19787SOL    HW261084   4.464   5.356   8.069  0.6375  0.8454  0.1706
19788SOL     OW61085   8.021   6.621   0.536 -0.2443 -0.2129 -0.2460
19788SOL    HW161086   7.960   6.557   0.500 -0.9616  0.7399 -0.7792
19788SOL    HW261087   8.013   6.696   0.477  2.6101 -0.6197 -1.3029
19789SOL     OW61088   8.412   5.460   1.380 -1.0252  0.4364 -0.0022
19789SOL    HW161089   8.455   5.412   1.450  0.2090 -1.9102 -2.2006
19789SOL    HW261090   8.333   5.409   1.360 -1.3755  1.0837 -0.3167
19790SOL     OW61091   4.556   4.790   6.659 -0.3594 -0.1088  0.0027
19790SOL    HW161092   4.585   4.832   6.578  1.1929 -0.0321  0.5573
19790SOL    HW261093   4.478   4.740   6.633  0.1882 -0.2230 -1.5837
19791SOL     OW61094   5.240   3.859   1.508  0.9434 -0.1458  0.5478
19791SOL    HW161095   5.218   3.917   1.582 -2.3478 -0.4358 -0.0281
19791SOL    HW261096   5.225   3.771   1.543  2.4350 -0.4863  0.3806
19792SOL     OW61097   8.093   4.644   7.495  0.0902 -0.2637  0.1439
19792SOL    HW161098   8.011   4.692   7.488  0.5462  0.6151  0.6402
19792SOL    HW261099   8.074   4.571   7.555 -0.4053 -0.2639 -0.0136
19793SOL     OW61100   2.437   5.048   4.105  0.2106  0.1460 -0.5903
19793SOL    HW161101   2.440   5.004   4.020 -0.2789  1.0725 -1.1020
19793SOL    HW261102   2.398   4.983   4.165  1.9335 -1.0444 -0.7114
19794SOL     OW61103   3.919   4.485   5.589 -0.5388  0.1601  0.2979
19794SOL    HW161104   4.011   4.504   5.573 -0.3899 -1.2172 -0.6880
19794SOL    HW261105   3.891   4.550   5.654  0.7626  1.4335 -0.3761
19795SOL     OW61106   5.420   7.430   9.564 -0.0537  0.3166  0.1362
19795SOL    HW161107   5.438   7.417   9.657 -2.1941  1.1599  0.7314
19795SOL    HW261108   5.357   7.361   9.541  3.1807 -2.3064 -1.7514
19796SOL     OW61109   1.760   2.973   1.832 -0.4001  0.0632  0.0879
19796SOL    HW161110   1.822   3.007   1.896 -0.2240 -1.4018  0.7326
19796SOL    HW261111   1.675   2.978   1.876 -0.5991  1.0262 -0.3778
19797SOL     OW61112   4.872   5.861   0.411  0.1486  0.2456  0.3514
19797SOL    HW161113   4.884   5.923   0.339 -0.3809  1.3081  1.1345
19797SOL    HW261114   4.960   5.825   0.427  0.2182 -0.2138 -0.9786
19798SOL     OW61115   8.743   5.848   4.584 -0.1602 -0.3375  0.6201
19798SOL    HW161116   8.770   5.775   4.528  0.9592 -0.9591  1.9029
19798SOL    HW261117   8.647   5.841   4.588 -0.1918 -0.7177 -0.6037
19799SOL     OW61118   6.220   1.508   2.352  0.1759 -0.2294  0.3963
19799SOL    HW161119   6.242   1.449   2.280  2.2097 -0.3137  1.0261
19799SOL    HW261120   6.208   1.451   2.428 -1.0957 -0.0676  0.3384
19800SOL     OW61121   0.620   2.012   5.730  0.2619 -0.0854 -0.2568
19800SOL    HW161122   0.694   2.069   5.750  0.3872  0.1202 -1.2795
19800SOL    HW261123   0.549   2.043   5.786 -0.6813  3.1807 -2.9583
19801SOL     OW61124   5.059   2.487   6.794  0.2503  0.0198 -0.0023
19801SOL    HW161125   5.153   2.477   6.782  0.2169  1.4636 -1.8583
19801SOL    HW261126   5.048   2.580   6.816 -0.8008  0.0632 -0.6641
19802SOL     OW61127   8.242   9.227   1.460  0.1689  0.0868 -0.0234
19802SOL    HW161128   8.292   9.148   1.478 -1.1507 -0.6388  0.5887
19802SOL    HW261129   8.238   9.273   1.544 -0.4234 -0.0027 -0.0001
19803SOL     OW61130   2.238   7.194   3.801 -0.3591  0.5798  0.3434
19803SOL    HW161131   2.250   7.267   3.862  0.1884 -1.0444  2.2793
19803SOL    HW261132   2.313   7.137   3.817 -2.6799 -2.3463  1.7614
19804SOL     OW61133   2.123   5.253   1.186 -0.1975 -0.5182  0.8825
19804SOL    HW161134   2.077   5.176   1.153 -1.2224  0.6428 -0.5438
19804SOL    HW261135   2.192   5.270   1.121  1.2805 -1.3029  2.1801
19805SOL     OW61136   9.136   8.231   4.389  0.0258 -0.6036 -0.4619
19805SOL    HW161137   9.077   8.236   4.464  1.5773 -1.0813  0.8345
19805SOL    HW261138   9.206   8.293   4.410  0.7407 -1.1202 -1.2665
19806SOL     OW61139   5.011   8.024   7.081  0.0258  0.2324  0.0562
19806SOL    HW161140   5.035   8.013   6.989  0.8948  2.3353 -0.0304
19806SOL    HW261141   5.069   7.964   7.128  0.5547  0.1530 -0.6756
19807SOL     OW61142   1.517   9.157   3.627 -0.1786  0.3057  0.3553
19807SOL    HW161143   1.595   9.212   3.630 -0.1140  0.1993  2.3017
19807SOL    HW261144   1.548   9.073   3.594  0.2597  0.6535 -0.1214
19808SOL     OW61145   5.800   1.248   9.685 -0.4083  0.2468 -0.4661
19808SOL    HW161146   5.808   1.182   9.616 -0.1906  0.4208 -0.6099
19808SOL    HW261147   5.888   1.252   9.724 -0.4187  0.4592 -0.4644
19809SOL     OW61148   6.813   0.249   6.459 -0.5111 -0.3117 -0.8536
19809SOL    HW161149   6.867   0.240   6.538  1.1524 -0.5151 -1.9649
19809SOL    HW261150   6.739   0.304   6.486 -1.3268 -2.3743  1.4815
19810SOL     OW61151   2.984   6.813   1.012  0.1019  0.4188 -0.1238
19810SOL    HW161152   2.966   6.856   1.095 -2.5762  0.0613 -0.4333
19810SOL    HW261153   3.048   6.870   0.969 -0.5480  2.1029  1.0333
19811SOL     OW61154   5.110   5.269   3.099  0.4519  0.2137 -0.1141
19811SOL    HW161155   5.025   5.261   3.055  0.7553 -3.2348 -0.3998
19811SOL    HW261156   5.129   5.363   3.099 -2.7333  0.9756 -1.1900
19812SOL     OW61157   2.152   6.852   7.561 -0.1508  0.1604  0.4508
19812SOL    HW161158   2.104   6.798   7.624 -1.9337 -0.0277 -0.9966
19812SOL    HW261159   2.183   6.926   7.613 -1.5595  0.0177  1.5738
19813SOL     OW61160   2.326   9.140   6.703 -0.2397 -0.0338 -0.5137
19813SOL    HW161161   2.289   9.122   6.617 -2.3278 -0.3727  0.4126
19813SOL    HW261162   2.260   9.192   6.748  0.2735 -0.8634  1.3148
19814SOL     OW61163   4.370   3.363   5.445 -1.1023  0.0488 -0.5902
19814SOL    HW161164   4.370   3.456   5.423 -0.4842 -0.1190 -1.3469
19814SOL    HW261165   4.333   3.320   5.368 -2.7422 -0.2405  0.3050
19815SOL     OW61166   1.200   6.171   5.343  0.0703  0.2440 -0.6571
19815SOL    HW161167   1.152   6.184   5.261 -1.5030 -0.0678  0.1715
19815SOL    HW261168   1.210   6.260   5.379  1.6729  0.5053 -1.6219
19816SOL     OW61169   7.666   8.857   3.048  0.3731  0.1382  0.0277
19816SOL    HW161170   7.727   8.859   3.121 -0.1858 -0.2388  0.5165
19816SOL    HW261171   7.717   8.821   2.975  1.3851  1.9817 -0.2209
19817SOL     OW61172   9.576   7.629   0.337  0.4356  0.0253  0.6263
19817SOL    HW161173   9.531   7.660   0.258  0.6541 -1.1132  0.0414
19817SOL    HW261174   9.641   7.566   0.305 -0.5648 -1.7043  1.8272
19818SOL     OW61175   3.708   4.277   5.979 -0.1662 -0.3977 -0.7141
19818SOL    HW161176   3.753   4.225   5.913 -0.5310 -0.7465 -0.6937
19818SOL    HW261177   3.749   4.251   6.062  0.0086 -0.2663 -0.7589
19819SOL     OW61178   2.173   1.987   6.228 -0.1246 -0.2814 -0.0237
19819SOL    HW161179   2.252   2.010   6.277 -0.5972  1.4837 -0.0232
19819SOL    HW261180   2.201   1.919   6.167  1.4339  0.4089 -0.1287
19820SOL     OW61181   0.563   0.571   1.045 -0.5721  0.0946  0.6746
19820SOL    HW161182   0.625   0.644   1.051 -1.3391  0.7974  0.2206
19820SOL    HW261183   0.507   0.593   0.970 -1.7016 -0.2706  1.3884
19821SOL     OW61184   5.956   2.565   7.945 -0.0709 -0.0790  0.1219
19821SOL    HW161185   5.986   2.575   8.035 -0.9856 -2.0102  0.6943
19821SOL    HW261186   5.925   2.652   7.920 -0.2045  0.3995  1.8200
19822SOL     OW61187   7.091   8.151   0.878 -0.0891  0.2574  0.2182
19822SOL    HW161188   7.122   8.185   0.794  0.4934  1.4699  0.9108
19822SOL    HW261189   7.169   8.110   0.917 -0.5895 -1.2265 -0.2447
19823SOL     OW61190   6.376   1.402   1.195 -0.4535 -0.0557 -0.1895
19823SOL    HW161191   6.432   1.470   1.158  0.5571 -0.8044 -0.0819
19823SOL    HW261192   6.377   1.331   1.131 -0.8590 -0.2945  0.0581
19824SOL     OW61193   3.720   0.543   5.119 -0.1826 -0.3754 -0.1016
19824SOL    HW161194   3.701   0.475   5.054 -2.0009  0.5926 -0.6660
19824SOL    HW261195   3.799   0.586   5.087  0.6089 -1.7690 -0.0908
19825SOL     OW61196   7.204   4.554   7.456  0.0737  0.2688 -0.4626
19825SOL    HW161197   7.266   4.494   7.413 -0.6002 -0.6629 -0.1782
19825SOL    HW261198   7.184   4.620   7.390 -0.0712 -0.4987 -1.2020
19826SOL     OW61199   5.995   3.486   4.140  0.6914 -0.0253  0.5207
19826SOL    HW161200   5.993   3.509   4.047 -0.5492  0.5339  0.6720
19826SOL    HW261201   5.928   3.417   4.149  2.9295 -2.3553  0.4560
19827SOL     OW61202   7.418   1.821   1.612  0.3804 -0.4203 -0.2091
19827SOL    HW161203   7.393   1.738   1.573  2.2190 -1.0403 -0.1662
19827SOL    HW261204   7.485   1.799   1.676 -0.3401  0.9230  1.0838
19828SOL     OW61205   2.436   2.267   0.586 -0.4428 -0.4257 -0.1112
19828SOL    HW161206   2.341   2.256   0.581 -0.2435 -2.3476 -0.3370
19828SOL    HW261207   2.472   2.181   0.566  1.3415  0.0618  0.7300
19829SOL     OW61208   2.310   0.954   6.647 -0.2234 -0.2982 -0.1093
19829SOL    HW161209   2.220   0.933   6.671 -0.0492 -0.7719  0.1668
19829SOL    HW261210   2.334   0.887   6.582  0.3321 -0.9788  0.7624
19830SOL     OW61211   3.497   3.645   0.529 -0.0844 -0.5492  0.2919
19830SOL    HW161212   3.445   3.615   0.603 -1.7331 -0.9374 -0.9557
19830SOL    HW261213   3.588   3.631   0.555 -0.6832 -2.6431  1.4285
19831SOL     OW61214   3.470   8.740   0.359  0.0373 -0.6635 -0.1074
19831SOL    HW161215   3.511   8.821   0.387  0.7702 -1.0969  0.1058
19831SOL    HW261216   3.377   8.761   0.351  0.0244 -0.1300  1.2131
19832SOL     OW61217   5.895   8.316   1.234 -0.0604 -0.2841  0.2190
19832SOL    HW161218   5.870   8.260   1.307  0.7515 -0.2202  0.5508
19832SOL    HW261219   5.990   8.325   1.241  0.1571 -0.9739 -1.3301
19833SOL     OW61220   6.236   6.870   8.806 -0.3599 -0.0087  0.3280
19833SOL    HW161221   6.154   6.821   8.807  0.6593 -1.8347 -0.5006
19833SOL    HW261222   6.219   6.945   8.748 -1.6986  0.1807  0.9414
19834SOL     OW61223   1.533   3.531   6.607  0.0571  0.0039  0.1605
19834SOL    HW161224   1.439   3.531   6.586 -0.5057 -1.9345  2.2986
19834SOL    HW261225   1.537   3.570   6.694  1.2104 -0.1397  0.1756
19835SOL     OW61226   7.123   6.843   8.901 -0.2369  0.0724  0.1939
19835SOL    HW161227   7.047   6.898   8.882  0.0290 -0.3501 -2.3771
19835SOL    HW261228   7.112   6.819   8.993 -1.3579  2.8209  0.8893
19836SOL     OW61229   7.725   9.641   0.222 -0.2588  0.3851  0.4405
19836SOL    HW161230   7.678   9.689   0.290 -0.0177  1.3609 -0.0646
19836SOL    HW261231   7.783   9.706   0.182 -0.2717 -0.2060 -0.5857
19837SOL     OW61232   8.528   0.009   3.743  0.2443 -0.2056 -0.0578
19837SOL    HW161233   8.539  -0.029   3.830  1.8329 -1.1332 -0.6329
19837SOL    HW261234   8.613  -0.003   3.700 -0.3321  0.7430 -1.5418
19838SOL     OW61235   3.890   3.930   8.749  0.6867  0.1460  0.7529
19838SOL    HW161236   3.795   3.923   8.745  0.7972 -1.0042 -1.3024
19838SOL    HW261237   3.906   4.009   8.801 -1.3419 -0.1516  1.9347
19839SOL     OW61238   5.078   3.223   6.111 -0.0679 -0.0405  0.5600
19839SOL    HW161239   5.154   3.202   6.056 -1.0414 -1.2453 -0.3886
19839SOL    HW261240   5.049   3.309   6.081  0.2252 -0.0895  0.1348
19840SOL     OW61241   4.117   6.835   0.317  0.9362 -0.2341 -0.4020
19840SOL    HW161242   4.064   6.755   0.314  2.2659 -1.1659 -0.0691
19840SOL    HW261243   4.064   6.897   0.367  0.1421 -1.1186 -0.1190
19841SOL     OW61244   8.821   0.630   5.747  0.0497 -0.0995  0.2708
19841SOL    HW161245   8.897   0.601   5.797  0.8847  1.3447 -0.1239
19841SOL    HW261246   8.825   0.580   5.666  0.0393 -0.7046  0.6340
19842SOL     OW61247   4.751   8.072   9.635  0.7345  0.3661  0.1392
19842SOL    HW161248   4.676   8.013   9.647  0.5800  0.2315 -1.3372
19842SOL    HW261249   4.714   8.160   9.640  1.3120  0.6274  5.0187
19843SOL     OW61250   7.620   1.032   8.103  0.0824 -1.0777 -0.1494
19843SOL    HW161251   7.625   1.127   8.101 -3.3097 -0.7617 -1.0480
19843SOL    HW261252   7.575   1.009   8.022  0.4424 -3.4120  0.2518
19844SOL     OW61253   1.743   1.805   9.446 -0.6202 -0.1291 -0.2797
19844SOL    HW161254   1.722   1.811   9.353 -1.1712  3.0290 -0.0447
19844SOL    HW261255   1.664   1.837   9.490 -0.3734 -1.5707  1.3217
19845SOL     OW61256   4.231   5.735   3.074 -0.2488 -0.2687 -0.4929
19845SOL    HW161257   4.257   5.700   2.989 -0.6836 -1.8257 -0.0122
19845SOL    HW261258   4.311   5.776   3.108  0.1174 -0.2663 -1.3287
19846SOL     OW61259   3.563   7.339   9.164 -0.3596  0.3176 -0.1840
19846SOL    HW161260   3.525   7.352   9.077  0.1336  2.2191 -0.1575
19846SOL    HW261261   3.650   7.378   9.159 -0.3656  0.5544  1.1881
19847SOL     OW61262   2.905   0.440   7.232  0.5409 -0.5477 -0.3558
19847SOL    HW161263   2.878   0.348   7.235 -1.4197 -0.0554 -1.1077
19847SOL    HW261264   2.894   0.464   7.140  0.7650  0.5150 -0.1080
19848SOL     OW61265   7.704   4.135   3.006 -0.0124 -0.0120  0.6238
19848SOL    HW161266   7.742   4.153   2.920 -0.1842 -0.6596  0.4037
19848SOL    HW261267   7.647   4.059   2.992  1.8443 -1.7444  1.7666
19849SOL     OW61268   2.604   4.150   4.942 -0.8518 -0.8484  0.2159
19849SOL    HW161269   2.521   4.158   4.988 -1.6854 -0.2593 -1.3200
19849SOL    HW261270   2.586   4.090   4.869  0.1641 -0.9770  0.0462
19850SOL     OW61271   2.983   7.230   4.684 -0.2431 -0.3348  0.2958
19850SOL    HW161272   2.964   7.158   4.743  0.8331 -0.8578  0.0366
19850SOL    HW261273   3.051   7.196   4.626 -0.2895  0.6261 -0.3478
19851SOL     OW61274   3.778   8.254   0.409 -0.4493  0.3580 -0.7376
19851SOL    HW161275   3.766   8.159   0.402 -1.4428  0.4532 -0.4268
19851SOL    HW261276   3.690   8.290   0.403 -0.3415  1.1261  1.3071
19852SOL     OW61277   6.278   6.027   6.438 -0.1420  0.0766  0.2894
19852SOL    HW161278   6.221   6.035   6.515  0.0856 -0.7272  0.5489
19852SOL    HW261279   6.220   5.993   6.369  0.5466 -3.5161  1.2926
19853SOL     OW61280   3.732   7.563   6.383 -0.3718  0.0911 -0.5438
19853SOL    HW161281   3.783   7.482   6.376 -0.7922 -0.1003 -1.5168
19853SOL    HW261282   3.729   7.581   6.477 -0.5853 -1.2175 -0.2828
19854SOL     OW61283   0.475   7.170   0.957 -0.0932  0.2404 -0.0456
19854SOL    HW161284   0.386   7.203   0.974  0.4375  2.3126 -0.9763
19854SOL    HW261285   0.531   7.221   1.015  0.5576 -0.6723  0.1411
19855SOL     OW61286   2.943   5.143   4.280 -0.7116 -0.3364  0.2703
19855SOL    HW161287   2.924   5.080   4.210  0.7093  0.5737 -0.9856
19855SOL    HW261288   3.023   5.110   4.321 -1.6844 -1.0295  1.7475
19856SOL     OW61289   3.805   9.047   6.077 -0.4939  0.5980  0.1547
19856SOL    HW161290   3.734   9.110   6.092 -1.1176 -0.5309  2.2232
19856SOL    HW261291   3.761   8.962   6.076  0.8647 -0.1903  2.1841
19857SOL     OW61292   4.273   2.298   8.639 -0.0288  0.5047 -0.3902
19857SOL    HW161293   4.195   2.332   8.681 -1.8500 -2.4922 -1.0311
19857SOL    HW261294   4.336   2.288   8.710 -1.0130  0.8497  0.5621
19858SOL     OW61295   0.870   0.068   0.901  0.3670  0.2278 -0.0168
19858SOL    HW161296   0.781   0.034   0.892  0.1092  0.0982  2.3201
19858SOL    HW261297   0.869   0.115   0.984  2.1994  1.2437 -0.5093
19859SOL     OW61298   8.851   9.329   0.546  0.1774 -0.3355  0.1867
19859SOL    HW161299   8.934   9.336   0.592  0.1424  1.2004  0.0742
19859SOL    HW261300   8.804   9.410   0.568 -1.1580 -1.0151 -0.0089
19860SOL     OW61301   0.390   9.620   6.090 -0.1870 -0.3364  0.6548
19860SOL    HW161302   0.318   9.557   6.091 -0.5366  0.0137 -0.4615
19860SOL    HW261303   0.433   9.607   6.005 -0.5482  1.1934  0.1910
19861SOL     OW61304   5.267   8.562   1.250  0.2568  0.1614 -0.6667
19861SOL    HW161305   5.221   8.504   1.190  0.7883  1.6367 -2.5736
19861SOL    HW261306   5.354   8.572   1.213  0.5439  1.2766  0.2361
19862SOL     OW61307   7.555   3.450   0.248  0.7944  0.3482  0.7788
19862SOL    HW161308   7.610   3.527   0.234  0.8385  0.3501  0.9530
19862SOL    HW261309   7.530   3.421   0.160  0.5966  0.6913  0.7205
19863SOL     OW61310   2.104   6.365   7.724 -0.0122  0.2192  0.1335
19863SOL    HW161311   2.151   6.337   7.645  0.4413 -1.0193  0.8208
19863SOL    HW261312   2.148   6.320   7.796 -0.7833  0.8829  1.0451
19864SOL     OW61313   5.097   5.304   8.529  0.3225 -0.0851 -0.8357
19864SOL    HW161314   5.122   5.270   8.615 -0.8118 -1.0567 -0.8631
19864SOL    HW261315   5.156   5.377   8.514  3.1229 -2.2068 -0.9255
19865SOL     OW61316   4.359   2.413   5.298 -0.3981  0.2933  0.1218
19865SOL    HW161317   4.369   2.507   5.284 -0.8704  0.5258  1.2649
19865SOL    HW261318   4.297   2.386   5.230 -0.5934  0.8915  0.0536
19866SOL     OW61319   3.877   4.447   0.666 -0.1308  0.1732  0.1208
19866SOL    HW161320   3.915   4.534   0.673 -0.6874  0.3974  0.3705
19866SOL    HW261321   3.903   4.403   0.747 -0.5085  0.3731  0.3547
19867SOL     OW61322   0.345   5.531   9.676  0.5139 -0.4330  0.5967
19867SOL    HW161323   0.435   5.520   9.644  0.7081  0.5974  0.7641
19867SOL    HW261324   0.342   5.479   9.756  1.2766  0.3562  1.1511
19868SOL     OW61325   8.050   1.453   6.262 -0.0322  0.6267 -0.1139
19868SOL    HW161326   8.058   1.538   6.305 -1.2233  0.4591  0.4926
19868SOL    HW261327   8.054   1.473   6.168  0.0931  1.2984  0.0297
19869SOL     OW61328   2.155   2.245   0.524  0.3741 -0.1295 -0.0752
19869SOL    HW161329   2.071   2.268   0.485 -0.3403 -1.8461  0.3443
19869SOL    HW261330   2.135   2.227   0.616  1.0600 -1.1987 -0.1119
19870SOL     OW61331   3.560   8.415   7.978 -0.0637 -0.2248  0.1612
19870SOL    HW161332   3.584   8.327   7.950  2.2702  0.4255 -0.0834
19870SOL    HW261333   3.636   8.447   8.026 -0.8498  1.6697  0.2495
19871SOL     OW61334   2.757   8.454   3.569  0.0731 -0.6347  0.1437
19871SOL    HW161335   2.701   8.442   3.492 -0.5694 -2.7340  0.8480
19871SOL    HW261336   2.810   8.531   3.549 -2.4834  0.9642 -0.9027
19872SOL     OW61337   5.337   3.976   4.154  0.2222 -0.5068  0.1703
19872SOL    HW161338   5.304   3.992   4.065 -0.5689 -1.2415  0.3136
19872SOL    HW261339   5.346   3.881   4.158 -0.7436 -0.5703  1.2105
19873SOL     OW61340   6.111   4.704   2.683 -0.4252 -0.2120 -0.5286
19873SOL    HW161341   6.047   4.714   2.753 -0.2030 -0.3089 -0.3085
19873SOL    HW261342   6.177   4.771   2.701  0.7878 -1.6407  0.6446
19874SOL     OW61343   6.680   6.968   1.479  0.1803 -0.0126 -0.6290
19874SOL    HW161344   6.608   6.966   1.416  0.1025 -3.4278 -0.6067
19874SOL    HW261345   6.675   7.055   1.519 -3.0473  0.3545 -1.5930
19875SOL     OW61346   6.329   6.043   2.234  0.0614 -0.0328 -0.2095
19875SOL    HW161347   6.417   6.035   2.271 -0.0891  0.7671  0.3530
19875SOL    HW261348   6.342   6.071   2.144  0.3813  0.1268 -0.1126
19876SOL     OW61349   3.742   8.468   8.151  0.5841 -0.1145 -0.3130
19876SOL    HW161350   3.726   8.560   8.173  0.8089 -0.0500 -0.4186
19876SOL    HW261351   3.713   8.420   8.229  1.3456  0.1082  0.1165
19877SOL     OW61352   6.094   6.049   6.625 -0.0274 -0.2103 -0.6324
19877SOL    HW161353   6.000   6.034   6.617 -0.0160 -0.6669  0.0221
19877SOL    HW261354   6.119   6.003   6.706  0.4636  1.2856  0.0912
19878SOL     OW61355   5.229   0.433   0.233 -0.4046 -0.1178 -0.0427
19878SOL    HW161356   5.318   0.453   0.203 -0.4455  1.8236  0.9830
19878SOL    HW261357   5.235   0.344   0.269  1.8406  0.9565  2.5723
19879SOL     OW61358   6.272   6.976   0.760 -0.3641 -0.0729 -0.3340
19879SOL    HW161359   6.306   6.886   0.762 -0.4043 -0.1111 -1.1906
19879SOL    HW261360   6.344   7.028   0.726  0.1195  0.4538  1.3656
19880SOL     OW61361   9.252   4.333   8.410 -0.1343 -0.1755 -0.4565
19880SOL    HW161362   9.244   4.314   8.317 -0.0194 -0.9625 -0.3119
19880SOL    HW261363   9.323   4.397   8.415  0.5395 -0.8718 -0.8278
19881SOL     OW61364   0.277   1.399   8.458  0.2103  0.0485 -0.3844
19881SOL    HW161365   0.246   1.434   8.375 -0.8996  0.1713  0.0744
19881SOL    HW261366   0.277   1.474   8.518  1.5646  0.0935 -0.4057
19882SOL     OW61367   5.433   1.845   4.973 -0.1987  0.1279 -0.0155
19882SOL    HW161368   5.403   1.936   4.980  1.1696  0.6846 -0.9149
19882SOL    HW261369   5.433   1.827   4.879  1.6545 -0.0224 -0.0194
19883SOL     OW61370   3.869   1.934   5.877 -0.2796  0.3591 -0.6361
19883SOL    HW161371   3.899   1.887   5.799  1.9710 -0.3756  0.5858
19883SOL    HW261372   3.923   2.013   5.879  0.0158  0.1343  0.4279
19884SOL     OW61373   3.854   3.153   8.128 -0.3731 -0.0070  0.2261
19884SOL    HW161374   3.871   3.152   8.222 -2.1035 -0.0102  0.5735
19884SOL    HW261375   3.776   3.098   8.117  0.1096 -0.4332 -1.2764
19885SOL     OW61376   1.736   9.489   3.406  0.1181  0.1358 -0.5532
19885SOL    HW161377   1.745   9.434   3.328  1.4613  1.9926 -1.8138
19885SOL    HW261378   1.825   9.520   3.424 -0.5888  2.0198 -0.0498
19886SOL     OW61379   1.524   5.366   3.151 -0.0231 -0.3530  0.4269
19886SOL    HW161380   1.487   5.454   3.165 -0.2125 -0.5661  1.3418
19886SOL    HW261381   1.524   5.355   3.056 -1.6054 -0.0284  0.3521
19887SOL     OW61382   7.661   7.414   7.668 -0.3504 -0.1633 -0.6769
19887SOL    HW161383   7.624   7.344   7.722  2.3498  0.0648  1.7287
19887SOL    HW261384   7.747   7.430   7.706 -0.5628  4.0770 -1.5105
19888SOL     OW61385   8.978   4.471   0.845 -0.2357  0.1232 -0.3120
19888SOL    HW161386   8.906   4.425   0.888 -0.2196 -0.6581 -1.1050
19888SOL    HW261387   9.022   4.518   0.916 -0.5160 -0.7328  0.4410
19889SOL     OW61388   6.023   7.933   3.077  0.0062 -0.5929  0.1938
19889SOL    HW161389   5.979   7.848   3.082 -0.2969 -0.5213 -0.8297
19889SOL    HW261390   6.056   7.949   3.165 -1.4935 -0.9367  0.8528
19890SOL     OW61391   0.053   5.982   8.108  0.7712  0.6180  0.1863
19890SOL    HW161392   0.000   6.058   8.133  1.9246  1.0118  1.5300
19890SOL    HW261393   0.143   6.014   8.106  1.2968 -0.7304  0.9218
19891SOL     OW61394   0.438   7.810   5.663 -0.3143  0.0408 -0.1323
19891SOL    HW161395   0.379   7.741   5.692 -0.8011 -0.3059 -1.8272
19891SOL    HW261396   0.386   7.890   5.669 -0.1308  0.0983  0.7330
19892SOL     OW61397   0.669   8.246   5.300 -0.1356 -0.1946 -0.2815
19892SOL    HW161398   0.727   8.211   5.368 -1.8268 -2.5638  0.0652
19892SOL    HW261399   0.617   8.313   5.345  1.1678  0.8141 -0.2066
19893SOL     OW61400   2.040   8.253   4.230 -0.1223 -0.6723  0.4773
19893SOL    HW161401   2.054   8.179   4.290 -0.8082 -1.6429 -0.5292
19893SOL    HW261402   2.010   8.213   4.149 -2.6794  0.8280  0.5861
19894SOL     OW61403   6.017   0.798   9.134  0.3604  0.1578  0.1184
19894SOL    HW161404   5.968   0.825   9.057  1.6342  1.0021 -0.4324
19894SOL    HW261405   5.960   0.821   9.208  0.1775  1.7043 -0.4739
19895SOL     OW61406   1.799   8.331   8.931  0.2992 -0.2341  0.3829
19895SOL    HW161407   1.807   8.296   9.019 -0.3540 -1.5079 -0.0313
19895SOL    HW261408   1.823   8.423   8.939  2.0592 -0.7381  1.5341
19896SOL     OW61409   7.852   5.987   3.685  0.6795  0.3105  0.4286
19896SOL    HW161410   7.869   5.897   3.657 -2.0352 -0.1205 -0.1241
19896SOL    HW261411   7.773   5.980   3.740  1.2539  2.1925  1.5873
19897SOL     OW61412   5.719   4.811   8.611 -0.4975  0.3692 -0.0719
19897SOL    HW161413   5.782   4.881   8.632  1.7158 -0.3567 -3.3789
19897SOL    HW261414   5.655   4.854   8.554 -0.7310  0.2648  0.1119
19898SOL     OW61415   3.324   4.977   1.746  0.1306 -0.3777 -0.0387
19898SOL    HW161416   3.232   4.999   1.741  0.1833 -0.2151 -0.2869
19898SOL    HW261417   3.325   4.883   1.766 -0.0999 -0.8224 -1.9088
19899SOL     OW61418   8.842   2.813   2.619  0.6913 -0.1436 -0.1986
19899SOL    HW161419   8.921   2.829   2.671 -0.4532  0.0102  1.6093
19899SOL    HW261420   8.791   2.894   2.626 -0.8118 -1.1138  0.9757
19900SOL     OW61421   0.828   6.480   1.161  0.2876  0.0113  0.3008
19900SOL    HW161422   0.829   6.510   1.070 -0.6107  0.8435  0.5365
19900SOL    HW261423   0.791   6.554   1.210  0.3896 -0.5658  1.2855
19901SOL     OW61424   7.107   0.054   8.590 -0.3769  0.2632 -0.5824
19901SOL    HW161425   7.109  -0.000   8.511  0.9025 -1.2754  0.4514
19901SOL    HW261426   7.197   0.088   8.598 -1.0620  2.3303 -1.0184
19902SOL     OW61427   0.956   4.586   4.327 -0.2409  0.2618  0.6763
19902SOL    HW161428   0.965   4.523   4.398 -0.4610  0.1174  0.5798
19902SOL    HW261429   1.038   4.635   4.327 -0.5580  0.7983  1.5359
19903SOL     OW61430   0.566   2.708   8.027 -0.4319 -0.3294 -0.0117
19903SOL    HW161431   0.618   2.773   7.981 -0.2289 -0.3034  0.2507
19903SOL    HW261432   0.513   2.666   7.959  0.5496 -0.9444 -0.4205
19904SOL     OW61433   6.520   6.478   9.310 -0.1801 -0.2718  0.1387
19904SOL    HW161434   6.428   6.473   9.334 -0.1735 -0.0275  0.2181
19904SOL    HW261435   6.560   6.531   9.380 -0.4144  1.6771 -1.1250
19905SOL     OW61436   7.069   8.265   3.670 -0.2342 -0.1160 -0.3134
19905SOL    HW161437   7.062   8.355   3.639  1.3826 -0.7207 -2.6542
19905SOL    HW261438   7.077   8.273   3.765 -0.1946  2.1788 -0.4589
19906SOL     OW61439   6.065   6.763   3.605 -0.0997 -0.7311  0.1229
19906SOL    HW161440   5.997   6.704   3.573  1.6497 -1.9017 -1.6159
19906SOL    HW261441   6.126   6.707   3.652  0.8235 -0.0803 -0.2758
19907SOL     OW61442   6.392   9.671   3.133  0.1277  0.0442 -0.0919
19907SOL    HW161443   6.403   9.585   3.173  0.3714 -0.9014 -2.0523
19907SOL    HW261444   6.481   9.707   3.127  0.1290  0.0450 -0.0657
19908SOL     OW61445   7.652   7.762   6.858  0.2511 -0.0165  0.2648
19908SOL    HW161446   7.706   7.839   6.841 -0.1598  0.0701 -0.6707
19908SOL    HW261447   7.712   7.700   6.901  0.3444  1.1687  1.9238
19909SOL     OW61448   4.555   5.878   5.739 -0.1984 -0.0314 -0.5377
19909SOL    HW161449   4.533   5.881   5.647  1.0555 -1.7656 -0.9562
19909SOL    HW261450   4.650   5.890   5.741  0.1817 -2.5286  0.2289
19910SOL     OW61451   4.150   1.132   3.293 -0.2035 -0.0630 -0.4440
19910SOL    HW161452   4.148   1.166   3.204  1.4975  1.7241  0.1299
19910SOL    HW261453   4.126   1.039   3.284  0.9317 -0.2030 -2.8716
19911SOL     OW61454   8.134   6.560   5.220  0.2835 -0.1470 -0.0127
19911SOL    HW161455   8.167   6.517   5.299 -0.5679 -0.6753  0.0727
19911SOL    HW261456   8.046   6.589   5.245 -0.3761 -1.1735 -1.0484
19912SOL     OW61457   7.579   1.230   3.982  0.0237  0.1253 -0.5736
19912SOL    HW161458   7.660   1.270   3.951 -0.2469  0.2872 -1.0712
19912SOL    HW261459   7.532   1.301   4.025  0.0138  0.0994 -0.5416
19913SOL     OW61460   0.602   1.697   8.050 -0.6630 -0.3960 -0.5209
19913SOL    HW161461   0.647   1.648   7.982  0.1611  0.4408 -0.6014
19913SOL    HW261462   0.667   1.759   8.083 -1.6723  0.6828 -0.4580
19914SOL     OW61463   7.506   3.231   5.143  0.2103 -0.8259  0.0470
19914SOL    HW161464   7.568   3.225   5.070 -0.8420 -1.2049 -0.8479
19914SOL    HW261465   7.449   3.304   5.121 -0.1099 -0.9316  0.4948
19915SOL     OW61466   9.186   2.595   7.481 -0.2022 -0.1834  0.0934
19915SOL    HW161467   9.219   2.573   7.394  0.8566 -1.7303  0.8522
19915SOL    HW261468   9.131   2.521   7.506 -0.1042  0.0188  0.9406
19916SOL     OW61469   0.766   2.632   4.520 -0.4837 -0.4531  0.0279
19916SOL    HW161470   0.837   2.640   4.584  0.8271  1.0484 -1.5272
19916SOL    HW261471   0.803   2.581   4.448 -2.0804 -2.4877  0.5610
19917SOL     OW61472   7.662   0.405   4.897  0.0464 -0.0898 -0.2687
19917SOL    HW161473   7.740   0.366   4.936 -0.6282 -0.8700  0.3357
19917SOL    HW261474   7.605   0.427   4.971 -0.8599 -0.7495 -0.7397
19918SOL     OW61475   5.780   8.571   2.883  0.8283  0.1731  0.6494
19918SOL    HW161476   5.875   8.578   2.894  0.6936 -0.1728  2.4681
19918SOL    HW261477   5.758   8.486   2.920 -0.2948  0.7084  1.2834
19919SOL     OW61478   1.488   7.756   2.577  0.0775 -0.3207 -0.3164
19919SOL    HW161479   1.541   7.727   2.503  0.5071 -1.1437  0.2998
19919SOL    HW261480   1.550   7.795   2.638 -0.5004  2.2736 -1.2254
19920SOL     OW61481   0.842   2.763   5.032  0.1787  0.1578 -0.3495
19920SOL    HW161482   0.919   2.708   5.017  0.2387 -0.3616  1.5026
19920SOL    HW261483   0.858   2.843   4.982  3.1097  1.0870  1.7721
19921SOL     OW61484   3.685   0.609   0.819 -0.7375 -0.2285  0.0566
19921SOL    HW161485   3.751   0.602   0.751 -0.7548 -0.4721  0.0658
19921SOL    HW261486   3.718   0.556   0.892  0.1566  1.4546  0.9441
19922SOL     OW61487   0.733   3.244   0.646 -0.0487 -0.0037 -0.2291
19922SOL    HW161488   0.743   3.335   0.673 -1.6161 -0.1437  0.9087
19922SOL    HW261489   0.720   3.248   0.551 -0.7575  1.0170 -0.1016
19923SOL     OW61490   3.441   2.767   2.618 -0.2966  0.2157  0.0498
19923SOL    HW161491   3.393   2.705   2.564 -0.7538 -0.1414  0.8481
19923SOL    HW261492   3.373   2.816   2.665  0.0906  0.5249  0.2961
19924SOL     OW61493   1.962   7.996   9.315 -0.5548  0.0244  0.4044
19924SOL    HW161494   1.961   7.953   9.401 -1.1296  0.8104  0.8035
19924SOL    HW261495   2.032   7.952   9.268 -0.6686 -0.8846  1.0355
19925SOL     OW61496   4.799   2.730   6.484  0.1058 -0.2470  0.3981
19925SOL    HW161497   4.779   2.759   6.573 -1.4695  1.6291 -0.4854
19925SOL    HW261498   4.730   2.668   6.463 -0.4642  0.5047 -0.0205
19926SOL     OW61499   7.250   7.753   7.227  0.1962 -1.4933  0.2569
19926SOL    HW161500   7.234   7.844   7.255  4.7656 -0.5435  0.5730
19926SOL    HW261501   7.236   7.701   7.306 -1.1098 -0.9062  0.4377
19927SOL     OW61502   6.628   6.118   6.873 -0.2408 -0.3813  0.0566
19927SOL    HW161503   6.648   6.114   6.966  2.3132  0.9950 -0.3499
19927SOL    HW261504   6.677   6.193   6.841 -1.1272 -0.7572 -2.4048
19928SOL     OW61505   7.277   9.704   2.817 -0.2934  0.1333  0.2651
19928SOL    HW161506   7.343   9.706   2.886  0.0696  0.8970 -0.0967
19928SOL    HW261507   7.326   9.721   2.736 -0.6067 -1.4293 -0.2769
19929SOL     OW61508   3.328   0.512   6.116 -0.2003 -0.1993  0.3036
19929SOL    HW161509   3.280   0.557   6.046 -0.6302 -1.3832 -0.1818
19929SOL    HW261510   3.321   0.572   6.191  0.4056  1.1644 -0.6776
19930SOL     OW61511   5.360   1.580   9.461  0.5256  0.0584 -0.0833
19930SOL    HW161512   5.387   1.515   9.397 -0.2762  0.7648 -1.1674
19930SOL    HW261513   5.265   1.570   9.468  0.3856  1.0941 -0.2785
19931SOL     OW61514   3.336   5.456   3.452  0.3128 -0.2679 -0.0111
19931SOL    HW161515   3.287   5.375   3.464  0.3930 -0.7842 -2.6853
19931SOL    HW261516   3.312   5.486   3.365  0.7891  2.2735  0.6556
19932SOL     OW61517   2.106   0.393   9.213  0.2071 -0.3906 -0.4013
19932SOL    HW161518   2.199   0.414   9.215  0.3198 -0.6595  2.9715
19932SOL    HW261519   2.076   0.408   9.303 -3.2921  0.7949 -1.5902
19933SOL     OW61520   1.141   6.706   5.421 -0.8028 -0.0068 -0.4651
19933SOL    HW161521   1.153   6.702   5.516 -0.3126  0.0314 -0.5221
19933SOL    HW261522   1.132   6.799   5.402  0.4608  0.1123 -0.6039
19934SOL     OW61523   6.186   4.419   6.695 -0.0275  0.2717  0.0149
19934SOL    HW161524   6.134   4.485   6.739  1.6406  0.9753  0.9987
19934SOL    HW261525   6.213   4.460   6.613  0.5281  0.6166  0.3643
19935SOL     OW61526   2.218   4.779   6.302 -0.5084  0.1725 -0.0723
19935SOL    HW161527   2.167   4.858   6.316  0.6558  0.6506  1.7696
19935SOL    HW261528   2.309   4.810   6.301 -0.1103 -0.9766 -0.6981
19936SOL     OW61529   1.044   7.859   8.652 -0.3315 -0.2000 -0.0991
19936SOL    HW161530   1.098   7.939   8.651  0.4258 -0.6733 -1.9770
19936SOL    HW261531   1.094   7.798   8.707  1.0599 -0.5799 -1.6874
19937SOL     OW61532   6.231   5.762   0.381 -0.0958 -0.2469 -0.2344
19937SOL    HW161533   6.181   5.799   0.308 -3.3259 -0.6149  1.5752
19937SOL    HW261534   6.269   5.681   0.345  0.9860  1.0632 -2.2454
19938SOL     OW61535   3.623   7.524   7.400 -0.6741 -0.0763 -0.3122
19938SOL    HW161536   3.671   7.595   7.355  0.6470 -1.4142 -1.1200
19938SOL    HW261537   3.661   7.522   7.488 -0.6280  0.1497 -0.3262
19939SOL     OW61538   8.940   5.835   2.870  0.7068  0.0268  0.2376
19939SOL    HW161539   8.913   5.926   2.878 -1.0357 -0.4322 -0.0890
19939SOL    HW261540   8.940   5.802   2.960  0.9108  0.2292  0.3126
19940SOL     OW61541   8.730   6.336   0.777 -0.4284 -0.0280 -0.1829
19940SOL    HW161542   8.744   6.369   0.688  1.7084 -0.1470  0.0509
19940SOL    HW261543   8.800   6.273   0.790  0.0785  0.8951  2.0024
19941SOL     OW61544   1.998   2.377   8.584  0.0955  0.3420  0.1343
19941SOL    HW161545   1.964   2.338   8.664  0.1841 -1.5154 -0.6763
19941SOL    HW261546   1.922   2.419   8.543 -0.8825 -2.1122 -0.7186
19942SOL     OW61547   3.715   7.933   1.457  0.6820 -0.4904  0.0736
19942SOL    HW161548   3.642   7.982   1.419 -0.1473 -0.8354  1.1718
19942SOL    HW261549   3.700   7.937   1.551  0.4721 -2.9558  0.2130
19943SOL     OW61550   9.589   6.127   7.758  0.3384  0.5274 -0.3716
19943SOL    HW161551   9.610   6.064   7.826  0.1745  0.4108 -0.4275
19943SOL    HW261552   9.573   6.074   7.680  1.5697  0.7254 -0.7709
19944SOL     OW61553   7.089   4.501   0.158 -0.0642 -0.1748  0.1672
19944SOL    HW161554   7.088   4.471   0.067  0.7060  0.4224 -0.0507
19944SOL    HW261555   7.015   4.456   0.199  0.3602 -1.4736 -0.4195
19945SOL     OW61556   9.098   7.096   9.363  0.0094 -0.0911  0.4028
19945SOL    HW161557   9.032   7.083   9.295 -2.0151  0.7158  2.0843
19945SOL    HW261558   9.091   7.188   9.386  0.3748 -0.4038  1.9186
19946SOL     OW61559   2.004   7.879   5.671  0.3098 -0.4595  0.3038
19946SOL    HW161560   2.066   7.945   5.698 -0.1900 -0.1364  0.6866
19946SOL    HW261561   2.058   7.804   5.643  0.8605 -0.0639  0.3042
19947SOL     OW61562   1.876   5.977   5.809 -0.4230  0.0555  0.3234
19947SOL    HW161563   1.858   6.059   5.762 -0.1986 -1.1566 -2.0239
19947SOL    HW261564   1.958   5.994   5.855 -0.1877  1.0515 -0.4172
19948SOL     OW61565   0.941   4.506   5.668 -0.4020 -0.6948 -0.3114
19948SOL    HW161566   0.851   4.500   5.637 -1.0802  0.3601  1.2897
19948SOL    HW261567   0.932   4.518   5.763  1.4242 -0.3963 -0.1477
19949SOL     OW61568   9.145   4.344   8.661  0.6295  0.3499 -0.3476
19949SOL    HW161569   9.176   4.334   8.571  1.1968 -0.0786 -0.1098
19949SOL    HW261570   9.133   4.254   8.692 -2.6605  0.4262 -1.0114
19950SOL     OW61571   5.307   8.425   3.291 -0.0087 -0.1635  0.7226
19950SOL    HW161572   5.354   8.370   3.353 -1.6529 -0.1776  2.0256
19950SOL    HW261573   5.230   8.373   3.266 -0.0237  0.3534 -0.3721
19951SOL     OW61574   8.640   6.814   2.947  0.3977 -0.0139  0.3888
19951SOL    HW161575   8.694   6.868   3.005 -0.2646  0.7767  0.2880
19951SOL    HW261576   8.550   6.828   2.978  0.1876 -0.9034  0.2257
19952SOL     OW61577   7.538   5.930   7.026  0.2172  0.2903  0.3096
19952SOL    HW161578   7.549   5.999   6.961 -0.7313  0.9253  0.8043
19952SOL    HW261579   7.593   5.957   7.099 -0.9816  1.1015  0.9380
19953SOL     OW61580   3.438   4.367   2.047 -0.7737 -0.5578  0.0703
19953SOL    HW161581   3.508   4.430   2.033 -0.1035 -0.9543  1.5363
19953SOL    HW261582   3.376   4.385   1.976  0.9371 -0.4254 -1.4849
19954SOL     OW61583   2.609   8.033   2.290 -1.1607  0.1513  0.3320
19954SOL    HW161584   2.618   8.122   2.323 -1.4655  0.6434 -0.8384
19954SOL    HW261585   2.679   7.984   2.332  0.7501  1.5777 -1.0107
19955SOL     OW61586   0.137   0.644   6.002 -0.2312  0.3076  0.1355
19955SOL    HW161587   0.180   0.726   6.027 -1.4131  0.9754  0.0846
19955SOL    HW261588   0.204   0.577   6.013  1.0249  1.3907 -0.6462
19956SOL     OW61589   2.308   4.105   3.304  0.1329  0.0757  0.1630
19956SOL    HW161590   2.245   4.063   3.245 -1.2583  2.7202 -0.3736
19956SOL    HW261591   2.369   4.151   3.246  0.5069  0.3350  0.7472
19957SOL     OW61592   4.978   9.550   2.294  0.3585 -0.1330 -0.1742
19957SOL    HW161593   4.948   9.461   2.278 -2.1800  0.5395  0.3997
19957SOL    HW261594   4.916   9.585   2.358  1.1332  2.1285 -0.5739
19958SOL     OW61595   1.615   8.345   5.590 -0.6252  0.2988 -0.4270
19958SOL    HW161596   1.622   8.307   5.678  0.1206  0.5395 -0.3787
19958SOL    HW261597   1.694   8.397   5.580 -1.3689  1.4147 -0.7044
19959SOL     OW61598   5.300   3.621   0.122  0.2675 -0.1749 -0.0005
19959SOL    HW161599   5.238   3.688   0.149  0.9519  0.7842 -0.7306
19959SOL    HW261600   5.249   3.560   0.069 -0.5244 -0.6705  1.3055
19960SOL     OW61601   4.352   1.567   9.118 -0.0427 -0.4646  0.4419
19960SOL    HW161602   4.286   1.533   9.178 -0.2308  1.4165  1.3961
19960SOL    HW261603   4.423   1.598   9.175  0.3978  0.0858 -0.3855
19961SOL     OW61604   8.236   0.880   7.856 -0.3767 -0.0226  0.3462
19961SOL    HW161605   8.197   0.809   7.804 -0.6020 -1.3166  2.1579
19961SOL    HW261606   8.326   0.885   7.826 -1.3163  1.7183 -2.5857
19962SOL     OW61607   7.018   0.036   4.652 -0.2658 -0.3628 -0.8355
19962SOL    HW161608   6.980   0.109   4.605  0.5400  0.2112 -0.6113
19962SOL    HW261609   7.067   0.076   4.724 -1.5402 -1.2101  0.5762
19963SOL     OW61610   2.577   5.493   6.946  0.5815 -0.5811  0.0395
19963SOL    HW161611   2.623   5.417   6.913 -0.5229 -1.7190  1.0059
19963SOL    HW261612   2.519   5.459   7.014  1.1634  1.3418  1.5901
19964SOL     OW61613   0.136   5.741   1.288 -0.2446  0.4079  0.1691
19964SOL    HW161614   0.189   5.789   1.353  0.7773 -0.6036  0.1069
19964SOL    HW261615   0.068   5.699   1.340  0.9806 -0.9756  0.7400
19965SOL     OW61616   2.690   9.537   6.291  0.2740 -0.1361  0.2722
19965SOL    HW161617   2.762   9.552   6.230  0.6516 -0.9187  0.5146
19965SOL    HW261618   2.668   9.624   6.325  1.5867  0.0327  0.7413
19966SOL     OW61619   6.647   8.171   0.591  0.1736  0.4799  0.4277
19966SOL    HW161620   6.677   8.209   0.673 -1.5532  0.8452  0.9340
19966SOL    HW261621   6.660   8.240   0.526  2.3849 -0.1165  0.1610
19967SOL     OW61622   3.752   8.995   7.137  0.3819 -0.2270  0.2096
19967SOL    HW161623   3.774   8.903   7.155 -0.2460 -0.4572 -0.1523
19967SOL    HW261624   3.771   9.041   7.219 -4.5098 -1.5921  2.4753
19968SOL     OW61625   2.774   5.277   5.087 -0.4548 -0.5388  0.1000
19968SOL    HW161626   2.837   5.207   5.103  0.6262  0.3412 -0.2190
19968SOL    HW261627   2.731   5.291   5.171  0.0218 -0.9040  0.4057
19969SOL     OW61628   7.808   8.384   5.777 -0.0621 -0.0360  0.2750
19969SOL    HW161629   7.852   8.424   5.702 -1.0307  1.3606  0.4231
19969SOL    HW261630   7.782   8.297   5.746  1.4188 -0.3012 -0.2982
19970SOL     OW61631   3.400   2.068   7.555  0.3905 -0.2685 -0.2571
19970SOL    HW161632   3.434   1.979   7.568  1.2175  0.0566 -0.0831
19970SOL    HW261633   3.478   2.124   7.556 -0.1131  0.4595 -0.3904
19971SOL     OW61634   7.839   8.185   5.433 -0.0111  0.7281 -0.0295
19971SOL    HW161635   7.874   8.272   5.449 -0.6057  1.1228 -0.7986
19971SOL    HW261636   7.748   8.190   5.460  0.1007  0.1548  0.5015
19972SOL     OW61637   5.823   3.389   5.955 -0.4413 -0.1564  0.5878
19972SOL    HW161638   5.783   3.307   5.928 -4.6102  1.0388  2.3545
19972SOL    HW261639   5.826   3.385   6.051 -1.6739  2.0528  0.7888
19973SOL     OW61640   1.636   7.486   6.884 -0.1267  0.4671 -0.1047
19973SOL    HW161641   1.589   7.534   6.952  0.1083 -2.1140  2.0535
19973SOL    HW261642   1.630   7.542   6.807 -0.9080  3.3012  1.8492
19974SOL     OW61643   8.189   3.637   0.353 -0.3602 -0.1444 -0.0821
19974SOL    HW161644   8.198   3.673   0.441 -0.6151  2.2803 -0.9688
19974SOL    HW261645   8.270   3.588   0.338 -1.1357 -2.2844  2.1503
19975SOL     OW61646   1.353   6.796   9.657  0.0244  0.1657  0.1801
19975SOL    HW161647   1.329   6.868   9.599 -0.0164  1.0018  1.2106
19975SOL    HW261648   1.363   6.836   9.743 -1.6705 -1.3165  1.1392
19976SOL     OW61649   4.639   8.240   8.893 -0.9709 -0.1046  0.2493
19976SOL    HW161650   4.662   8.180   8.822  1.2462 -1.4053  1.9542
19976SOL    HW261651   4.668   8.326   8.862 -2.6269 -0.0983 -1.5088
19977SOL     OW61652   9.604   5.445   5.727 -0.8790 -0.0155 -0.2583
19977SOL    HW161653   9.620   5.401   5.810 -0.3388  0.1751 -0.2556
19977SOL    HW261654   9.689   5.480   5.701 -0.8208 -0.9215 -1.3916
19978SOL     OW61655   3.089   5.473   2.207  0.3123 -0.5928 -0.0281
19978SOL    HW161656   3.053   5.386   2.190 -1.1223  0.0403 -0.4212
19978SOL    HW261657   3.141   5.494   2.129 -0.3579 -0.6131 -0.4916
19979SOL     OW61658   3.987   2.902   8.423 -0.0995 -0.4759 -0.3128
19979SOL    HW161659   3.929   2.884   8.349  1.9848 -1.6603 -1.7465
19979SOL    HW261660   4.002   2.816   8.463 -0.2236 -0.0145  0.7499
19980SOL     OW61661   5.134   3.689   3.715  1.1244 -0.0343  0.3518
19980SOL    HW161662   5.055   3.637   3.725  0.9328  0.1667 -0.1045
19980SOL    HW261663   5.205   3.625   3.703  0.8149 -0.1834 -0.7630
19981SOL     OW61664   2.440   4.692   5.536 -0.5334  0.1997 -0.0931
19981SOL    HW161665   2.367   4.753   5.545 -0.7175  0.1773 -1.3582
19981SOL    HW261666   2.464   4.695   5.444  0.6831 -0.2470  0.1837
19982SOL     OW61667   5.532   5.796   6.505 -0.4168  0.6287  0.3176
19982SOL    HW161668   5.607   5.742   6.478  0.0068  1.0419  0.6534
19982SOL    HW261669   5.500   5.755   6.585 -0.9472  0.0810 -0.1712
19983SOL     OW61670   9.654   5.711   4.554  0.4491 -0.8438  0.3236
19983SOL    HW161671   9.661   5.748   4.642 -0.2359  2.6077 -0.8775
19983SOL    HW261672   9.583   5.648   4.560  0.8231 -1.1401  2.3541
19984SOL     OW61673   1.758   1.721   2.082  0.2261  0.2659 -0.4034
19984SOL    HW161674   1.806   1.795   2.043  1.4918 -0.4882 -0.3385
19984SOL    HW261675   1.695   1.696   2.015  0.5201  0.7244 -0.8679
19985SOL     OW61676   5.874   5.149   8.680  0.4955 -0.2137  0.5435
19985SOL    HW161677   5.781   5.171   8.688  0.4775  0.0020 -0.1933
19985SOL    HW261678   5.920   5.233   8.690  0.5034 -0.0250 -0.8733
19986SOL     OW61679   7.299   8.924   3.610 -0.3005  0.1793 -0.1551
19986SOL    HW161680   7.249   8.893   3.535 -0.5776  0.5254 -0.1136
19986SOL    HW261681   7.384   8.948   3.573 -0.9266  1.7826 -0.6323
19987SOL     OW61682   7.114   7.875   5.195  0.5920 -0.3108 -0.0329
19987SOL    HW161683   7.170   7.953   5.201  0.8616 -0.5339  0.3974
19987SOL    HW261684   7.094   7.867   5.102  0.2268  0.5114 -0.0342
19988SOL     OW61685   8.798   0.689   2.416  0.2837 -0.0430  0.4502
19988SOL    HW161686   8.745   0.614   2.444  1.6028 -1.3332 -0.3917
19988SOL    HW261687   8.749   0.727   2.344  0.0043 -0.6225  0.3222
19989SOL     OW61688   7.765   0.748   1.271 -0.6145  0.8059  0.0462
19989SOL    HW161689   7.720   0.672   1.234  1.2146  0.0350 -0.7126
19989SOL    HW261690   7.710   0.823   1.247 -0.8949  0.0310 -1.8589
19990SOL     OW61691   1.497   9.092   1.699 -0.1429  0.2336 -0.3512
19990SOL    HW161692   1.564   9.024   1.689  0.1813  0.3190  1.0115
19990SOL    HW261693   1.538   9.158   1.754 -0.9814  0.8043 -0.3949
19991SOL     OW61694   7.847   6.001   0.084 -0.5239  0.1196 -0.1295
19991SOL    HW161695   7.899   5.997   0.165 -0.4261  2.4369  0.0129
19991SOL    HW261696   7.911   5.991   0.014 -0.5528 -1.5047  0.0544
19992SOL     OW61697   0.718   4.541   6.463 -0.3975 -0.0579  0.2515
19992SOL    HW161698   0.763   4.598   6.401  0.5768 -1.8360 -0.7243
19992SOL    HW261699   0.781   4.528   6.534 -0.9520  0.7446  0.9207
19993SOL     OW61700   1.763   6.949   1.339  0.0659 -0.3635 -0.1715
19993SOL    HW161701   1.722   6.963   1.425 -0.3427 -0.8580 -0.2845
19993SOL    HW261702   1.697   6.902   1.288  0.2190  0.1117 -0.8334
19994SOL     OW61703   3.509   7.157   0.294  0.0803  0.7383 -0.1078
19994SOL    HW161704   3.529   7.128   0.205 -0.0387 -0.6117  0.2873
19994SOL    HW261705   3.461   7.239   0.283 -1.6479 -0.3729 -1.3938
19995SOL     OW61706   5.064   1.459   4.266  0.5298  0.0381 -0.4156
19995SOL    HW161707   5.008   1.480   4.192 -1.9182 -2.2152  0.6337
19995SOL    HW261708   5.051   1.365   4.281  3.2109 -0.2148  1.0797
19996SOL     OW61709   6.041   2.119   6.489 -0.3180 -0.0706  0.1709
19996SOL    HW161710   6.025   2.118   6.394  2.6244  2.3432 -0.4745
19996SOL    HW261711   6.114   2.059   6.501 -0.2886  0.1014  0.8515
19997SOL     OW61712   5.434   2.147   7.303 -0.4152 -0.0266  0.4623
19997SOL    HW161713   5.461   2.223   7.355 -0.3333  0.6663 -0.5651
19997SOL    HW261714   5.353   2.116   7.344 -0.9074  1.1376  0.3827
19998SOL     OW61715   5.899   5.677   8.711 -0.2478  0.2447 -0.4026
19998SOL    HW161716   5.842   5.705   8.639  0.1358 -0.7641 -1.1365
19998SOL    HW261717   5.908   5.754   8.766  1.3231  1.8061 -2.6596
19999SOL     OW61718   7.682   7.907   0.717 -0.2286 -0.1155 -0.6104
19999SOL    HW161719   7.613   7.922   0.781  0.7025 -2.1494  1.0007
19999SOL    HW261720   7.639   7.860   0.646 -0.5805 -1.3464  0.3675
20000SOL     OW61721   2.561   2.051   6.942  0.2951 -0.0758  0.5691
20000SOL    HW161722   2.627   1.986   6.965  0.4586  0.1241  0.6689
20000SOL    HW261723   2.529   2.082   7.026  2.3990  2.2116  0.6382
20001SOL     OW61724   1.259   9.691   8.813 -0.3664  0.1002 -0.1441
20001SOL    HW161725   1.219   9.612   8.849 -3.0233  0.0483 -2.7422
20001SOL    HW261726   1.184   9.746   8.788  1.3640  2.3943 -0.5915
20002SOL     OW61727   2.178   8.727   5.221  0.2315  0.1558  0.1110
20002SOL    HW161728   2.161   8.721   5.315 -1.5607 -1.7204 -0.2696
20002SOL    HW261729   2.273   8.733   5.214  0.3529  1.2340  2.0498
20003SOL     OW61730   7.532   5.359   7.086  0.0500 -1.3220 -0.0468
20003SOL    HW161731   7.508   5.385   6.997  1.6377 -1.7152 -0.6232
20003SOL    HW261732   7.494   5.427   7.142 -3.2722 -2.4507 -0.7239
20004SOL     OW61733   8.485   1.907   6.622  0.2543  0.0268  0.0889
20004SOL    HW161734   8.512   1.862   6.702  1.4818  0.2265 -0.1890
20004SOL    HW261735   8.567   1.936   6.582 -0.1339 -1.9233 -2.3794
20005SOL     OW61736   4.946   4.705   2.020 -0.2150 -0.0102  0.1967
20005SOL    HW161737   4.887   4.668   1.954 -1.8205 -1.9127  2.5244
20005SOL    HW261738   5.031   4.664   2.003 -1.2947 -2.8564  0.9750
20006SOL     OW61739   4.287   0.674   0.610  0.8387 -0.2618  0.7492
20006SOL    HW161740   4.286   0.667   0.706  0.4046 -0.0489  0.7618
20006SOL    HW261741   4.369   0.718   0.590 -0.5331  2.8083  1.2583
20007SOL     OW61742   5.751   5.044   9.562  0.2136 -0.5968  0.2550
20007SOL    HW161743   5.739   5.005   9.649 -0.2156 -2.2346 -0.4928
20007SOL    HW261744   5.821   4.992   9.522  1.6241  1.2556  0.2195
20008SOL     OW61745   9.063   7.327   2.869  0.1832  0.3692 -0.0160
20008SOL    HW161746   9.137   7.271   2.844  0.0138  0.1364  0.0009
20008SOL    HW261747   9.028   7.357   2.785 -1.4818 -1.8293 -0.1971
20009SOL     OW61748   4.352   7.468   0.448  0.2704  0.0958 -0.2559
20009SOL    HW161749   4.335   7.516   0.529  0.7135  0.2231 -0.2384
20009SOL    HW261750   4.378   7.380   0.477 -0.7322 -0.2267 -0.2919
20010SOL     OW61751   0.370   5.399   6.507  0.5869  0.1193  0.1267
20010SOL    HW161752   0.290   5.445   6.482 -0.4681 -1.2660  0.8030
20010SOL    HW261753   0.389   5.342   6.433  1.0689  0.5635 -0.1019
20011SOL     OW61754   3.090   4.583   0.359 -0.1778 -0.1329 -0.4135
20011SOL    HW161755   3.077   4.508   0.301 -0.1064  0.7076 -1.5536
20011SOL    HW261756   3.004   4.625   0.362  0.2046  0.7640 -1.2831
20012SOL     OW61757   5.143   2.074   3.234  0.0071  0.8161  0.3012
20012SOL    HW161758   5.163   1.981   3.219  0.8557  1.3280 -2.2701
20012SOL    HW261759   5.084   2.074   3.309 -0.1226 -1.8161  0.2983
20013SOL     OW61760   8.831   8.116   0.039  0.7127  0.0632 -0.1922
20013SOL    HW161761   8.751   8.133  -0.011  1.0613  0.1112 -0.7440
20013SOL    HW261762   8.896   8.095  -0.027  0.9685 -0.7439  0.3029
20014SOL     OW61763   2.812   3.444   2.287 -0.7764  0.6413 -0.6590
20014SOL    HW161764   2.779   3.372   2.232 -2.9745  1.5642 -0.6560
20014SOL    HW261765   2.757   3.442   2.365 -0.3126  1.8100 -0.2750
20015SOL     OW61766   6.249   9.524   3.449  0.4839  0.3721  0.3420
20015SOL    HW161767   6.181   9.483   3.395  0.5835 -0.1053  0.5707
20015SOL    HW261768   6.202   9.560   3.524  0.1788  2.1051 -0.6279
20016SOL     OW61769   6.269   1.147   4.591 -0.2858  0.0442 -0.1022
20016SOL    HW161770   6.352   1.101   4.577 -0.5197 -0.0840 -1.1710
20016SOL    HW261771   6.202   1.079   4.585 -0.6430  0.4944 -1.7992
20017SOL     OW61772   6.536   0.944   5.845 -0.1585 -0.1406  0.3981
20017SOL    HW161773   6.538   0.851   5.869 -0.7692 -0.2486  0.0415
20017SOL    HW261774   6.456   0.954   5.794  0.7228  0.2351 -0.9739
20018SOL     OW61775   0.287   2.459   6.014 -0.3841 -0.3163 -0.1611
20018SOL    HW161776   0.202   2.504   6.013  0.1408  0.7248 -1.6604
20018SOL    HW261777   0.318   2.469   6.104 -1.2532  0.4855  0.0732
20019SOL     OW61778   7.467   6.698   7.114 -0.1179 -0.3864  0.3842
20019SOL    HW161779   7.418   6.624   7.151 -0.0977 -0.5518  0.0850
20019SOL    HW261780   7.437   6.774   7.164 -2.9828  0.0518 -1.7545
20020SOL     OW61781   9.368   2.587   7.723  0.7973 -0.0289 -0.0098
20020SOL    HW161782   9.313   2.622   7.653  1.0405 -1.8598 -1.1908
20020SOL    HW261783   9.435   2.536   7.678  1.6637 -0.3011  1.5218
20021SOL     OW61784   7.811   8.468   9.135 -0.4039  0.0357 -0.5242
20021SOL    HW161785   7.886   8.524   9.118  0.3180 -0.7665 -0.0916
20021SOL    HW261786   7.848   8.393   9.182 -1.7593  0.5529  1.5085
20022SOL     OW61787   6.401   1.445   3.056  0.2154  0.2085  0.2221
20022SOL    HW161788   6.420   1.354   3.031 -3.7249 -0.5663 -0.6663
20022SOL    HW261789   6.395   1.442   3.151 -0.0046 -0.5019  0.1967
20023SOL     OW61790   2.384   5.270   5.770  0.3298 -0.1234  0.1849
20023SOL    HW161791   2.344   5.326   5.704 -1.8939 -1.3829  0.3651
20023SOL    HW261792   2.477   5.268   5.747  0.1617  2.0675 -0.9127
20024SOL     OW61793   0.619   7.396   3.207  0.0673  0.0394  0.0482
20024SOL    HW161794   0.567   7.410   3.128  0.4630 -0.4697 -0.3110
20024SOL    HW261795   0.708   7.418   3.181  0.2598 -0.5102  0.2394
20025SOL     OW61796   8.438   1.934   2.880  0.2936  0.8254  0.1200
20025SOL    HW161797   8.457   1.913   2.971  0.4173  2.9545  0.6425
20025SOL    HW261798   8.463   2.026   2.871  1.4973  0.3276 -2.4291
20026SOL     OW61799   0.500   8.095   2.822 -0.1013 -0.1158 -0.0350
20026SOL    HW161800   0.418   8.073   2.867 -0.3985  0.5005 -0.2656
20026SOL    HW261801   0.567   8.045   2.869 -0.5034 -0.0175  0.6632
20027SOL     OW61802   5.433   7.305   2.070  0.0672  0.4279  0.0953
20027SOL    HW161803   5.519   7.317   2.111  0.0281 -0.5934  0.5005
20027SOL    HW261804   5.386   7.386   2.092  1.3907  1.6629 -1.3967
20028SOL     OW61805   1.343   1.527   9.449 -0.2139  0.4046  0.2676
20028SOL    HW161806   1.254   1.555   9.425  0.0970  0.7974 -0.4693
20028SOL    HW261807   1.397   1.555   9.375  0.6374  0.8215  1.0324
20029SOL     OW61808   0.244   8.422   5.804  0.3016 -0.1329 -0.0990
20029SOL    HW161809   0.183   8.411   5.877  0.1337  1.6497  0.0663
20029SOL    HW261810   0.197   8.475   5.740  1.2790  0.3056 -0.4729
20030SOL     OW61811   6.914   5.646   8.597  0.1431  0.0959  0.8778
20030SOL    HW161812   7.000   5.687   8.612  0.5426  0.1252 -1.1092
20030SOL    HW261813   6.851   5.712   8.623  0.7187  0.2889  1.8390
20031SOL     OW61814   3.779   3.296   5.320 -0.1604  0.2093  0.1396
20031SOL    HW161815   3.702   3.343   5.288  0.2164  1.3694  0.8897
20031SOL    HW261816   3.823   3.266   5.241 -0.4516  1.0710 -0.3631
20032SOL     OW61817   8.851   2.907   7.722  0.1469  0.7623 -0.0295
20032SOL    HW161818   8.904   2.859   7.659 -2.1426 -0.7398 -0.9330
20032SOL    HW261819   8.784   2.950   7.669 -0.9876  0.6163  1.2301
20033SOL     OW61820   0.520   0.208   7.000 -0.2820  0.2205  0.4219
20033SOL    HW161821   0.488   0.297   7.018 -0.8238  0.1379 -0.0992
20033SOL    HW261822   0.441   0.156   6.988  0.0414 -0.2441  0.2807
20034SOL     OW61823   2.903   3.367   7.995 -0.2945 -0.1166 -0.3664
20034SOL    HW161824   2.858   3.327   7.921  0.6210 -1.4314 -0.2439
20034SOL    HW261825   2.849   3.345   8.071  0.1054 -1.0004 -0.3247
20035SOL     OW61826   0.683   4.241   0.757  0.2505 -0.3658  0.3034
20035SOL    HW161827   0.640   4.326   0.755 -0.9844 -0.9827 -0.5900
20035SOL    HW261828   0.773   4.261   0.781 -0.7149  0.8701  3.4501
20036SOL     OW61829   8.241   0.862   3.320 -0.2240  0.0775 -0.5254
20036SOL    HW161830   8.173   0.863   3.252 -0.4217  0.8375 -0.3342
20036SOL    HW261831   8.207   0.922   3.387  0.0516 -0.5250  0.1610
20037SOL     OW61832   9.527   9.091   3.858  0.4061  0.5359 -0.0902
20037SOL    HW161833   9.463   9.020   3.853 -0.4570  1.0125  2.5548
20037SOL    HW261834   9.481   9.167   3.822  0.1777  0.4438  0.0032
20038SOL     OW61835   3.606   9.422   6.377 -0.7974  0.3641  0.1379
20038SOL    HW161836   3.560   9.386   6.453  0.9200 -0.9351  0.6036
20038SOL    HW261837   3.662   9.351   6.346 -0.1783  1.4247 -1.3071
20039SOL     OW61838   6.906   1.769   0.376 -0.1575 -0.1400  0.0534
20039SOL    HW161839   6.918   1.809   0.290 -1.6889  0.6172  0.1601
20039SOL    HW261840   6.922   1.840   0.438 -1.2410 -0.0864  0.2980
20040SOL     OW61841   3.000   2.625   5.975 -0.2769  0.3474  0.0280
20040SOL    HW161842   2.935   2.556   5.961 -0.7025  0.6726  0.3960
20040SOL    HW261843   3.006   2.633   6.070 -0.5188  1.0921 -0.0142
20041SOL     OW61844   8.341   2.150   0.359 -0.6173 -0.1579  0.3526
20041SOL    HW161845   8.344   2.243   0.382  1.6766 -0.4685  1.5781
20041SOL    HW261846   8.265   2.117   0.407 -1.7886  1.1487 -0.5213
20042SOL     OW61847   6.174   0.651   2.889  0.3520 -0.5091 -0.1117
20042SOL    HW161848   6.120   0.729   2.904  1.5818  0.3876 -0.2176
20042SOL    HW261849   6.170   0.602   2.971  0.6347  0.3454  0.4246
20043SOL     OW61850   3.977   9.698   9.150 -0.2078 -0.8277  0.4278
20043SOL    HW161851   4.041   9.737   9.209  1.3628 -1.2573 -0.9218
20043SOL    HW261852   3.953   9.769   9.090  1.2813 -1.3757 -0.8938
20044SOL     OW61853   3.369   5.237   5.149  0.2976 -0.1241  0.0143
20044SOL    HW161854   3.333   5.243   5.238  2.3561  1.6409  0.8296
20044SOL    HW261855   3.459   5.209   5.162  0.9982  1.3511 -1.4080
20045SOL     OW61856   0.137   3.878   9.473  0.3481 -0.4727 -0.7800
20045SOL    HW161857   0.115   3.869   9.380  3.2998  1.1532 -1.7928
20045SOL    HW261858   0.167   3.969   9.481 -0.8945 -0.2299  2.0711
20046SOL     OW61859   4.529   5.503   2.577  0.0190  0.1240 -0.6388
20046SOL    HW161860   4.484   5.446   2.515 -0.0158  1.7085 -2.1314
20046SOL    HW261861   4.601   5.450   2.611 -1.3858 -1.5668 -0.1808
20047SOL     OW61862   0.077   2.707   5.761 -0.2625 -0.2381  0.0441
20047SOL    HW161863   0.042   2.647   5.828  0.4255 -0.0635  0.5768
20047SOL    HW261864   0.168   2.680   5.750  0.2310  1.0624  0.7176
20048SOL     OW61865   6.965   5.657   7.811 -0.8271  0.4049 -0.0731
20048SOL    HW161866   6.985   5.696   7.726 -0.4560  1.1186  0.3312
20048SOL    HW261867   6.947   5.733   7.868  2.4603  0.2164  1.4181
20049SOL     OW61868   3.734   0.389   3.857  0.1957 -0.0481  0.5230
20049SOL    HW161869   3.779   0.348   3.931  0.1352  0.0302  0.6051
20049SOL    HW261870   3.642   0.367   3.870 -0.1445  1.8054  1.7327
20050SOL     OW61871   6.858   2.793   7.291  0.3893  0.3683  0.0383
20050SOL    HW161872   6.869   2.861   7.225 -0.8240  0.7277  0.1767
20050SOL    HW261873   6.927   2.729   7.273  1.4510  1.5454 -0.1959
20051SOL     OW61874   1.288   1.392   5.863 -0.8832  0.1142 -0.0482
20051SOL    HW161875   1.351   1.375   5.793 -1.5693 -0.8096 -0.4601
20051SOL    HW261876   1.343   1.416   5.938 -0.1395  1.1880 -0.8970
20052SOL     OW61877   3.360   9.301   1.424 -0.1331  0.0217  0.0406
20052SOL    HW161878   3.407   9.254   1.493 -0.8094 -1.1763 -0.2795
20052SOL    HW261879   3.331   9.232   1.364 -1.9960  0.7333  0.0483
20053SOL     OW61880   1.151   2.848   5.766  0.2379  0.1694  0.9887
20053SOL    HW161881   1.121   2.846   5.856 -0.2585  0.4422  0.8315
20053SOL    HW261882   1.125   2.934   5.733  0.3330  0.0378  0.5593
20054SOL     OW61883   3.799   0.116   3.650  0.0398 -0.3207  0.1567
20054SOL    HW161884   3.888   0.117   3.685  1.0392 -0.5119 -2.2048
20054SOL    HW261885   3.787   0.203   3.611 -0.0680 -0.8968 -1.1598
20055SOL     OW61886   6.035   3.996   6.395 -0.2753  0.7613 -0.4883
20055SOL    HW161887   6.115   4.042   6.421  0.5360 -0.1385 -1.2861
20055SOL    HW261888   6.034   3.917   6.449 -0.7279  0.8653 -0.3445
20056SOL     OW61889   8.681   5.703   4.970  0.2656  0.3590 -0.1727
20056SOL    HW161890   8.620   5.638   5.003  0.0808 -0.1514 -1.4397
20056SOL    HW261891   8.629   5.782   4.958  0.4466  0.6985  1.1883
20057SOL     OW61892   4.467   9.123   4.238 -0.0199 -0.1552  0.2346
20057SOL    HW161893   4.549   9.133   4.285  0.2726  0.1026 -0.3228
20057SOL    HW261894   4.483   9.162   4.152 -0.4885 -0.7833 -0.1463
20058SOL     OW61895   3.354   9.599   8.193 -0.4274  0.7051 -0.4192
20058SOL    HW161896   3.291   9.527   8.201 -1.9589  1.6751 -2.5077
20058SOL    HW261897   3.440   9.557   8.198 -1.2619 -1.1662 -0.8573
20059SOL     OW61898   5.665   1.166   6.500 -0.0035 -0.9521 -0.0007
20059SOL    HW161899   5.637   1.076   6.484 -1.2801 -0.8357  1.3698
20059SOL    HW261900   5.759   1.166   6.480 -0.7715 -1.3976 -4.5902
20060SOL     OW61901   1.909   0.789   5.865 -0.4614 -0.0707 -0.2412
20060SOL    HW161902   1.830   0.804   5.813  0.2756 -2.9126 -2.4443
20060SOL    HW261903   1.947   0.876   5.877 -2.6085  1.0920 -1.2858
20061SOL     OW61904   0.520   6.730   2.809  0.4989 -0.0948 -0.1962
20061SOL    HW161905   0.457   6.671   2.850  1.9383  0.0422  2.3952
20061SOL    HW261906   0.548   6.684   2.729 -2.2584 -0.4659 -1.0412
20062SOL     OW61907   8.386   4.523   0.672 -0.3883  0.0718  0.1318
20062SOL    HW161908   8.312   4.482   0.716 -1.9641  2.4789 -0.0527
20062SOL    HW261909   8.356   4.538   0.582  0.4587  0.6883 -0.0649
20063SOL     OW61910   4.479   1.007   3.734  0.2439  0.3322 -0.3290
20063SOL    HW161911   4.463   1.099   3.755  1.5700  0.5993 -0.3687
20063SOL    HW261912   4.462   0.960   3.815  0.1756  0.6906 -0.1343
20064SOL     OW61913   4.006   6.758   3.936  0.2567 -0.1271  0.1680
20064SOL    HW161914   4.000   6.798   4.022  0.6639 -1.2337  0.7302
20064SOL    HW261915   3.985   6.829   3.875 -0.3796  0.5863  1.1810
20065SOL     OW61916   2.384   5.078   2.980  0.3355  0.0634 -0.1312
20065SOL    HW161917   2.310   5.140   2.975  3.0329  3.8177  1.6700
20065SOL    HW261918   2.429   5.087   2.896  0.7845  0.6661  0.1689
20066SOL     OW61919   4.078   6.616   9.681  0.5884  0.3515 -0.3169
20066SOL    HW161920   4.018   6.690   9.670 -0.6720 -0.0893  2.5502
20066SOL    HW261921   4.035   6.544   9.635 -0.8797  0.1934  1.1990
20067SOL     OW61922   8.344   7.899   1.452  0.3614  0.2500  0.2313
20067SOL    HW161923   8.419   7.937   1.498  1.0541  0.5554 -1.0915
20067SOL    HW261924   8.382   7.859   1.374 -0.7864 -0.1911 -0.1179
20068SOL     OW61925   5.878   4.268   8.254  0.1054 -0.2327  0.0785
20068SOL    HW161926   5.812   4.326   8.291 -0.1714 -1.2399  1.2122
20068SOL    HW261927   5.837   4.181   8.254  0.0620 -0.3081 -2.6745
20069SOL     OW61928   3.915   7.668   7.978  0.2776 -0.0682 -0.4994
20069SOL    HW161929   3.889   7.600   8.040  0.5626  0.6778  0.4593
20069SOL    HW261930   3.842   7.674   7.917 -0.9937  0.6684  1.0161
20070SOL     OW61931   6.062   3.467   5.839 -0.0146  0.1586  0.0917
20070SOL    HW161932   5.985   3.457   5.894 -0.9473  0.2545 -1.1515
20070SOL    HW261933   6.061   3.559   5.811 -0.8158 -0.3863 -1.8217
20071SOL     OW61934   3.110   4.736   6.353 -0.8727 -0.0779  0.1422
20071SOL    HW161935   3.194   4.692   6.338 -1.6169 -1.3362 -0.4584
20071SOL    HW261936   3.070   4.687   6.425 -0.6904  1.1518  1.1316
20072SOL     OW61937   0.835   5.908   6.045  0.0403 -0.2484 -0.5078
20072SOL    HW161938   0.834   5.982   6.106 -1.1810 -0.4980 -0.1959
20072SOL    HW261939   0.801   5.834   6.096  0.2458 -0.7716 -1.1209
20073SOL     OW61940   3.442   8.947   7.921  0.4618 -0.2739 -0.3690
20073SOL    HW161941   3.451   8.963   7.827  1.8658  1.8047  0.0382
20073SOL    HW261942   3.492   8.867   7.936 -0.3576 -1.0329 -1.4467
20074SOL     OW61943   7.537   8.894   3.412  0.7322  0.9123  0.7043
20074SOL    HW161944   7.516   8.813   3.364  4.5611  0.7306 -1.0350
20074SOL    HW261945   7.569   8.864   3.497 -0.0959  0.7893  0.9790
20075SOL     OW61946   8.747   1.607   3.680 -0.5393 -0.0127 -0.1990
20075SOL    HW161947   8.816   1.545   3.704 -0.6825 -0.6606 -1.4016
20075SOL    HW261948   8.740   1.600   3.585  0.5492  3.0473 -0.6071
20076SOL     OW61949   1.230   7.852   1.095  0.3492  0.0631 -0.7920
20076SOL    HW161950   1.152   7.813   1.056  0.3113 -0.5807 -0.0887
20076SOL    HW261951   1.280   7.777   1.128 -0.4505  0.6541  1.9511
20077SOL     OW61952   1.738   7.703   9.214  0.5752 -0.2597 -0.5500
20077SOL    HW161953   1.797   7.778   9.206 -1.0397  1.0938 -0.5170
20077SOL    HW261954   1.729   7.689   9.308  2.0738 -1.5398 -0.5655
20078SOL     OW61955   0.114   7.546   0.137  0.0593 -0.3251  0.0839
20078SOL    HW161956   0.208   7.533   0.135  0.0059 -0.8667  0.7419
20078SOL    HW261957   0.077   7.461   0.114 -0.2691 -0.2770  0.4087
20079SOL     OW61958   3.726   6.792   4.299 -0.3666 -0.0198 -0.1036
20079SOL    HW161959   3.776   6.874   4.294 -0.0226 -0.1513  0.9324
20079SOL    HW261960   3.673   6.791   4.219  0.7173  0.4957 -0.8528
20080SOL     OW61961   4.416   6.351   6.043 -0.3290  0.5192 -0.3406
20080SOL    HW161962   4.353   6.416   6.011  1.2539  1.6186 -1.3376
20080SOL    HW261963   4.422   6.287   5.972  0.9413  1.3588 -1.0301
20081SOL     OW61964   8.585   4.790   9.350  0.2341  0.6443  0.0357
20081SOL    HW161965   8.530   4.736   9.293  1.2375 -0.8372  0.4009
20081SOL    HW261966   8.626   4.854   9.291 -1.6532  1.6290 -0.2714
20082SOL     OW61967   8.900   9.465   9.612  0.1819 -0.1760  0.0458
20082SOL    HW161968   8.824   9.523   9.609 -0.4692 -0.7893  2.2689
20082SOL    HW261969   8.964   9.506   9.554 -0.9044  1.7637  0.1161
20083SOL     OW61970   5.201   2.260   5.565 -0.3220  0.0134 -0.0111
20083SOL    HW161971   5.204   2.236   5.657 -2.3172  1.2029  0.4243
20083SOL    HW261972   5.183   2.177   5.520  0.1254 -0.4827  0.6984
20084SOL     OW61973   3.919   4.965   1.370  0.8164 -0.0325 -0.3179
20084SOL    HW161974   4.006   4.982   1.404  0.8789  2.4365 -1.4772
20084SOL    HW261975   3.934   4.931   1.281  0.5851 -2.7902  0.6064
20085SOL     OW61976   3.703   9.438   1.974  0.4420  0.2121  0.2430
20085SOL    HW161977   3.725   9.365   2.032 -1.5490 -1.7874 -1.3438
20085SOL    HW261978   3.741   9.413   1.889  0.1113  1.2572 -0.2292
20086SOL     OW61979   0.075   7.207   7.574  0.1645 -0.4849  0.3753
20086SOL    HW161980   0.147   7.179   7.518  0.6389 -0.3394  0.9049
20086SOL    HW261981   0.092   7.165   7.658 -0.5431 -0.7042  0.4174
20087SOL     OW61982   7.999   5.104   1.992 -0.2193  0.2769 -0.2305
20087SOL    HW161983   7.919   5.099   2.044  0.6355 -0.5145  1.0749
20087SOL    HW261984   8.062   5.149   2.049  0.4444  0.3234 -0.9822
20088SOL     OW61985   5.859   4.483   7.832 -0.6564 -0.4089  0.2393
20088SOL    HW161986   5.819   4.396   7.822  0.0700 -0.5978 -1.1730
20088SOL    HW261987   5.930   4.484   7.769 -1.0558  1.4557 -0.2320
20089SOL     OW61988   8.152   7.813   5.880  0.1248  0.0700  0.3981
20089SOL    HW161989   8.089   7.740   5.879 -1.2296  1.1859 -0.9345
20089SOL    HW261990   8.097   7.891   5.889  1.5535  0.9645  1.9554
20090SOL     OW61991   7.439   4.407   7.280 -0.2897 -0.1923  0.0012
20090SOL    HW161992   7.426   4.487   7.230  0.7204  0.4659  0.7407
20090SOL    HW261993   7.515   4.365   7.239 -0.6963 -0.6870 -0.2622
20091SOL     OW61994   4.643   5.214   6.315 -0.5366  0.1593 -0.3667
20091SOL    HW161995   4.648   5.305   6.289 -1.8458  0.6431  0.9535
20091SOL    HW261996   4.730   5.194   6.350 -0.8752  1.5915  1.4149
20092SOL     OW61997   6.830   2.313   6.425 -0.0301  0.1920 -0.0764
20092SOL    HW161998   6.822   2.282   6.335  1.1745 -0.7311  0.1061
20092SOL    HW261999   6.769   2.386   6.431 -0.3068  0.1108 -1.5698
20093SOL     OW62000   4.726   2.470   3.834  0.4154  0.8222  0.0518
20093SOL    HW162001   4.635   2.474   3.804 -0.3753  1.1023  2.3279
20093SOL    HW262002   4.751   2.379   3.820 -0.7555  0.3554  0.8116
20094SOL     OW62003   4.147   5.073   3.699 -0.4413 -0.4365  0.2500
20094SOL    HW162004   4.145   5.136   3.771 -1.8530  0.9834 -0.9709
20094SOL    HW262005   4.190   5.119   3.628 -0.1284 -1.4007 -0.1984
20095SOL     OW62006   1.719   6.188   5.657  0.0143  0.3792  0.3223
20095SOL    HW162007   1.642   6.216   5.707 -0.5929  0.5546 -0.6894
20095SOL    HW262008   1.683   6.138   5.583  0.7874  1.3875 -0.7734
20096SOL     OW62009   5.288   8.189   7.257 -0.9601 -0.1886 -0.5244
20096SOL    HW162010   5.198   8.221   7.250 -0.8427  0.3910  0.4357
20096SOL    HW262011   5.300   8.170   7.350  0.1518  0.5116 -0.4925
20097SOL     OW62012   8.473   8.007   5.813 -0.2694 -0.6391 -0.1127
20097SOL    HW162013   8.553   7.968   5.779  1.3562  1.8341  0.6124
20097SOL    HW262014   8.461   7.966   5.899 -0.1893 -1.4869 -0.4909
20098SOL     OW62015   3.662   8.910   9.055  0.1227  0.4165  0.3497
20098SOL    HW162016   3.648   8.857   8.976  1.0995  0.7680 -0.0679
20098SOL    HW262017   3.583   8.965   9.061 -1.4078 -1.7386  1.3710
20099SOL     OW62018   0.132   5.576   5.728 -0.4758 -0.2040  0.4163
20099SOL    HW162019   0.149   5.662   5.766 -1.3176 -0.6272  1.8017
20099SOL    HW262020   0.219   5.541   5.709 -0.1352  1.2139 -0.8537
20100SOL     OW62021   6.078   8.528   3.883  0.1407 -0.3417 -0.2939
20100SOL    HW162022   6.050   8.522   3.974  0.7496 -2.5735 -0.1904
20100SOL    HW262023   6.173   8.517   3.885  0.1578 -0.4922 -1.1991
20101SOL     OW62024   6.879   6.430   5.246  0.2787 -0.1286 -0.1122
20101SOL    HW162025   6.797   6.391   5.275 -0.8982  2.5858  0.6090
20101SOL    HW262026   6.947   6.368   5.271 -1.3745 -1.4210  1.3655
20102SOL     OW62027   1.940   1.133   2.205  0.1969  0.2515  0.0482
20102SOL    HW162028   2.011   1.197   2.210  0.2388  0.6085 -3.2302
20102SOL    HW262029   1.861   1.185   2.222  0.5433 -0.1719  3.8469
20103SOL     OW62030   3.465   9.469   9.144 -0.0024 -0.7588 -0.7625
20103SOL    HW162031   3.412   9.445   9.067 -0.8490  0.9713 -0.7617
20103SOL    HW262032   3.498   9.557   9.124  0.6343 -0.7082  0.4202
20104SOL     OW62033   1.330   5.045   5.849 -0.5412 -0.1641 -0.0005
20104SOL    HW162034   1.281   5.098   5.913  0.1709 -1.6293  1.8300
20104SOL    HW262035   1.263   4.994   5.805 -0.9676  0.2249  0.1796
20105SOL     OW62036   8.649   6.542   8.867 -0.4357  0.4842 -0.5763
20105SOL    HW162037   8.613   6.466   8.823 -2.7051  0.7595  0.6384
20105SOL    HW262038   8.738   6.550   8.833 -0.3376 -2.2995 -1.1973
20106SOL     OW62039   4.352   5.416   3.692 -0.1192 -0.5656 -0.4092
20106SOL    HW162040   4.431   5.465   3.716  0.3541 -1.1329 -0.7623
20106SOL    HW262041   4.293   5.427   3.767  0.1816  0.1000 -0.2608
20107SOL     OW62042   9.426   5.541   4.586  0.4271  0.3602 -0.2066
20107SOL    HW162043   9.390   5.565   4.671 -0.2235  0.9064 -0.6311
20107SOL    HW262044   9.360   5.570   4.523 -0.3624 -2.4155 -0.7733
20108SOL     OW62045   2.133   1.950   1.128  0.1688  0.0136  0.6369
20108SOL    HW162046   2.060   1.948   1.190 -0.8728 -2.9479 -0.5209
20108SOL    HW262047   2.108   2.018   1.065 -0.7284  0.2443  1.2141
20109SOL     OW62048   0.182   9.268   6.486  0.0225 -0.2305 -0.1593
20109SOL    HW162049   0.100   9.247   6.532  0.2067 -1.8858 -0.5224
20109SOL    HW262050   0.167   9.355   6.448 -1.7605 -0.7050 -0.6280
20110SOL     OW62051   6.961   1.896   8.085  0.8556  0.3301 -0.1496
20110SOL    HW162052   7.016   1.883   8.008  0.4337  0.1039 -0.4166
20110SOL    HW262053   7.023   1.903   8.158  1.3259  1.6422 -0.6399
20111SOL     OW62054   3.433   3.570   9.531  0.2777 -0.4821  0.0545
20111SOL    HW162055   3.358   3.513   9.543  2.3712 -3.2992  0.7187
20111SOL    HW262056   3.441   3.618   9.613 -1.0413  0.2707 -0.2228
20112SOL     OW62057   8.223   8.785   7.532  0.0044  0.1011 -0.3042
20112SOL    HW162058   8.181   8.851   7.477  0.3694  0.0042 -0.7066
20112SOL    HW262059   8.183   8.702   7.505 -0.0518  0.0929 -0.1951
20113SOL     OW62060   0.260   5.516   9.263 -0.1051  0.2533 -0.0794
20113SOL    HW162061   0.238   5.432   9.222  0.4103 -0.4051  0.9304
20113SOL    HW262062   0.276   5.575   9.190 -0.7356 -0.4598 -0.8175
20114SOL     OW62063   1.752   7.212   2.826 -0.4020 -0.6879  0.1750
20114SOL    HW162064   1.704   7.164   2.893 -0.2903 -1.0437  0.0000
20114SOL    HW262065   1.728   7.170   2.744 -1.5727  0.5759 -0.1727
20115SOL     OW62066   2.620   7.732   0.061  0.0057  0.2291  0.6613
20115SOL    HW162067   2.695   7.751   0.005 -0.7385  1.5114  0.0559
20115SOL    HW262068   2.590   7.818   0.091 -0.6949 -0.3212  1.5984
20116SOL     OW62069   1.946   6.449   5.600  0.4352  0.4772  0.6198
20116SOL    HW162070   1.952   6.363   5.559  1.0944  0.8034 -0.0006
20116SOL    HW262071   2.023   6.496   5.568 -0.9833  1.9986 -0.7342
20117SOL     OW62072   9.057   8.798   0.448  0.2657  0.2813 -0.1684
20117SOL    HW162073   9.074   8.804   0.354  0.1739  0.1888 -0.1910
20117SOL    HW262074   9.076   8.707   0.469 -1.2596 -0.1124 -0.4014
20118SOL     OW62075   9.291   9.490   5.800 -0.1018 -0.0632  0.6734
20118SOL    HW162076   9.210   9.541   5.794 -0.4619 -0.1165  3.5829
20118SOL    HW262077   9.355   9.550   5.838  1.1937 -0.1465 -1.2205
20119SOL     OW62078   8.447   6.989   4.836  0.0106  0.5335  0.3427
20119SOL    HW162079   8.425   6.964   4.926 -0.8971  0.6323  0.1564
20119SOL    HW262080   8.465   7.083   4.842  1.4064  0.2602  0.6762
20120SOL     OW62081   7.776   7.151   0.017 -0.2314 -0.1604 -0.1305
20120SOL    HW162082   7.701   7.195  -0.024 -0.4571 -0.2549  0.1700
20120SOL    HW262083   7.853   7.194  -0.019 -0.4541  0.8214  0.5329
20121SOL     OW62084   3.937   2.876   2.575 -0.2342 -0.7996 -0.0956
20121SOL    HW162085   3.941   2.971   2.575 -2.1260 -0.6880  0.4450
20121SOL    HW262086   3.934   2.851   2.667 -0.4535 -1.3389 -0.2406
20122SOL     OW62087   6.781   7.541   2.513 -0.1958  0.0741  0.3948
20122SOL    HW162088   6.867   7.537   2.554  0.3159 -2.2136 -0.7761
20122SOL    HW262089   6.721   7.561   2.585  1.1857  0.9535  1.3524
20123SOL     OW62090   5.907   5.022   2.667 -0.6883 -0.3657  0.5715
20123SOL    HW162091   5.844   5.083   2.705 -1.2904  0.2551 -1.3428
20123SOL    HW262092   5.990   5.071   2.668 -0.5675 -0.5597  1.5280
20124SOL     OW62093   0.454   6.496   3.969 -0.6639 -0.1448  0.0951
20124SOL    HW162094   0.372   6.498   4.020 -1.2425 -0.1619 -0.8176
20124SOL    HW262095   0.426   6.508   3.878  0.1493 -2.3059 -0.4985
20125SOL     OW62096   1.758   5.101   4.806 -0.2535 -0.3612  0.4464
20125SOL    HW162097   1.762   5.006   4.804 -0.5315 -0.3867 -1.7402
20125SOL    HW262098   1.671   5.121   4.841  0.4745 -0.8113  2.6888
20126SOL     OW62099   1.250   2.364   2.350  0.6201  0.4737 -0.1439
20126SOL    HW162100   1.159   2.393   2.353  0.9152  1.7489 -1.9752
20126SOL    HW262101   1.246   2.271   2.372 -1.0087  0.7023  0.6505
20127SOL     OW62102   5.478   0.727   5.517  0.0878  0.0350 -0.2590
20127SOL    HW162103   5.396   0.703   5.474 -0.6909  0.8942  0.7043
20127SOL    HW262104   5.506   0.807   5.473 -0.6008  0.7980  0.6451
20128SOL     OW62105   6.937   7.289   8.405  0.1377 -0.2862 -0.0989
20128SOL    HW162106   6.963   7.300   8.314 -0.4672 -1.5609 -0.4464
20128SOL    HW262107   6.856   7.238   8.401  0.5192 -1.0371  1.1723
20129SOL     OW62108   1.829   1.762   5.529  0.4301  0.3049 -0.4450
20129SOL    HW162109   1.853   1.851   5.554  0.1323  0.4015 -0.4936
20129SOL    HW262110   1.902   1.708   5.559  0.8785  0.6337 -0.9313
20130SOL     OW62111   2.335   6.497   8.881  0.6142  0.2518  0.6633
20130SOL    HW162112   2.378   6.583   8.879  0.7670  0.1677  0.2377
20130SOL    HW262113   2.342   6.465   8.791  1.1419 -0.4982  0.9635
20131SOL     OW62114   9.217   6.649   7.830  0.1906 -0.1650 -0.3799
20131SOL    HW162115   9.125   6.643   7.856  0.2217 -0.2462 -0.2878
20131SOL    HW262116   9.264   6.594   7.893  0.0788 -1.7919 -1.6551
20132SOL     OW62117   2.396   9.569   3.477  0.0417  0.3329 -0.0667
20132SOL    HW162118   2.422   9.486   3.519 -2.1377 -0.5696 -0.3959
20132SOL    HW262119   2.388   9.631   3.550 -1.5732 -0.6506  0.6477
20133SOL     OW62120   9.426   6.454   2.778 -0.0616 -0.2820  0.1510
20133SOL    HW162121   9.383   6.485   2.699 -0.8851 -0.4461  0.5226
20133SOL    HW262122   9.403   6.519   2.845 -1.5727 -1.4941  0.8706
20134SOL     OW62123   1.520   8.679   7.429  0.7617 -0.3279  0.1366
20134SOL    HW162124   1.438   8.675   7.379  0.9799 -1.8195 -0.1546
20134SOL    HW262125   1.555   8.590   7.423  2.3594  0.2656  0.3457
20135SOL     OW62126   0.301   1.480   5.112  0.0888  0.3345 -0.3078
20135SOL    HW162127   0.246   1.551   5.081 -0.1797  0.1480 -0.2631
20135SOL    HW262128   0.388   1.500   5.078 -0.4425 -0.5517 -2.3041
20136SOL     OW62129   0.303   0.655   6.658 -0.8325 -0.2774  0.8762
20136SOL    HW162130   0.377   0.595   6.672 -0.7430  0.0919  2.1132
20136SOL    HW262131   0.302   0.671   6.564  1.7381  1.0607  1.0112
20137SOL     OW62132   1.188   4.691   9.168 -0.3798 -0.0890 -0.0713
20137SOL    HW162133   1.214   4.746   9.242 -0.9233 -0.1135  0.1476
20137SOL    HW262134   1.140   4.751   9.110 -1.4059 -0.4272  0.4056
20138SOL     OW62135   7.795   4.329   3.954  0.3533  0.6539  0.2618
20138SOL    HW162136   7.843   4.247   3.960 -1.0642 -0.1657  0.9257
20138SOL    HW262137   7.840   4.378   3.885  1.6863 -0.3418  0.3745
20139SOL     OW62138   9.366   4.580   4.830 -0.8096 -0.5453 -0.3926
20139SOL    HW162139   9.327   4.507   4.782 -3.6065 -0.0248  0.8815
20139SOL    HW262140   9.356   4.655   4.771  2.0131 -1.0228 -1.6784
20140SOL     OW62141   8.582   4.745   6.035 -0.3938  0.1393 -0.7083
20140SOL    HW162142   8.509   4.807   6.039 -0.4793 -0.0448  1.8062
20140SOL    HW262143   8.649   4.784   6.091  0.5181 -0.8624 -1.0797
20141SOL     OW62144   2.763   3.274   7.138 -0.4054  0.0952 -0.4075
20141SOL    HW162145   2.700   3.215   7.180 -2.1759  1.7418 -0.6171
20141SOL    HW262146   2.834   3.282   7.202 -0.9282 -0.9321  0.3373
20142SOL     OW62147   9.676   0.140   4.595 -0.3114 -0.1407  0.1713
20142SOL    HW162148   9.747   0.140   4.530 -1.4010 -1.5367 -1.1097
20142SOL    HW262149   9.626   0.219   4.575  0.7298  0.7401  0.9461
20143SOL     OW62150   3.380   6.604   4.406  0.0592 -0.5590 -0.0913
20143SOL    HW162151   3.377   6.527   4.349  0.0318 -0.0007 -0.8638
20143SOL    HW262152   3.325   6.668   4.362 -1.1210 -0.5723  1.2897
20144SOL     OW62153   7.919   4.926   6.146 -0.6274 -0.1224  0.8703
20144SOL    HW162154   7.930   5.020   6.159 -2.5650  0.4384 -0.9196
20144SOL    HW262155   7.828   4.908   6.170 -1.6145 -0.6436 -2.6310
20145SOL     OW62156   2.451   4.983   5.014  0.0461 -0.3871  0.1158
20145SOL    HW162157   2.449   5.076   4.994 -2.6510 -0.2573  0.5153
20145SOL    HW262158   2.541   4.956   4.999  0.6244  2.0178 -1.1844
20146SOL     OW62159   0.003   7.044   7.203 -0.7440  0.0156 -0.5630
20146SOL    HW162160  -0.044   7.075   7.125  0.3770  2.0761 -0.4696
20146SOL    HW262161   0.085   7.007   7.168 -0.5558  0.2890 -0.4074
20147SOL     OW62162   3.041   0.103   4.010  0.0739 -0.1042 -0.0639
20147SOL    HW162163   3.038   0.147   3.925  1.5274 -1.1374 -0.6878
20147SOL    HW262164   3.134   0.098   4.031 -0.1842 -1.0849  0.9399
20148SOL     OW62165   7.040   9.431   0.195 -0.5408  0.3287 -0.1840
20148SOL    HW162166   6.963   9.440   0.251 -0.9821  0.1972 -0.7608
20148SOL    HW262167   7.078   9.347   0.220 -1.3392 -0.2301 -0.8045
20149SOL     OW62168   6.633   2.266   2.584  0.3504  0.3281  0.6595
20149SOL    HW162169   6.657   2.338   2.525  2.0771 -0.8109 -0.1407
20149SOL    HW262170   6.636   2.305   2.672  0.0457  1.5022  0.1752
20150SOL     OW62171   3.169   3.246   8.076  0.3616  0.4216 -0.2676
20150SOL    HW162172   3.128   3.218   8.158  0.4438  0.9516 -0.0355
20150SOL    HW262173   3.157   3.173   8.016  0.5389 -0.0817  0.2992
20151SOL     OW62174   0.418   2.982   1.911  0.0057  0.5151  0.2600
20151SOL    HW162175   0.505   3.015   1.888 -0.5829  1.3706 -0.8077
20151SOL    HW262176   0.425   2.963   2.005  0.9970  1.7475  0.4786
20152SOL     OW62177   3.775   3.688   0.621 -0.4400  0.9936  0.1936
20152SOL    HW162178   3.780   3.597   0.591  0.5281  1.4764 -1.2293
20152SOL    HW262179   3.822   3.688   0.704  0.7436  0.4210 -0.4372
20153SOL     OW62180   4.149   6.912   1.617  0.5307  0.1198  0.3554
20153SOL    HW162181   4.225   6.968   1.598  1.6379 -1.5117 -0.2774
20153SOL    HW262182   4.176   6.859   1.692 -0.4087  0.2818  0.8190
20154SOL     OW62183   3.806   1.026   6.294  0.0965  0.0249 -0.2075
20154SOL    HW162184   3.893   1.036   6.332 -0.2641  0.8878  0.4376
20154SOL    HW262185   3.811   0.946   6.243  1.1569 -0.1421  0.1305
20155SOL     OW62186   6.135   7.601   9.688 -0.3539  0.0944  0.2520
20155SOL    HW162187   6.178   7.666   9.632  2.3168 -0.7910  1.1407
20155SOL    HW262188   6.203   7.573   9.749 -2.3348 -1.1906  2.0049
20156SOL     OW62189   2.779   5.698   3.386  0.0829  0.0736 -0.4079
20156SOL    HW162190   2.866   5.738   3.388 -0.6127  1.7102  1.8436
20156SOL    HW262191   2.756   5.694   3.293  2.8181 -1.1293 -1.1317
20157SOL     OW62192   0.218   8.287   6.846 -0.0447  0.0490 -0.3101
20157SOL    HW162193   0.173   8.368   6.870 -0.6850 -0.8170  1.6591
20157SOL    HW262194   0.154   8.238   6.794 -0.6605 -0.2941  0.7415
20158SOL     OW62195   6.046   8.043   9.387 -0.1630 -0.3394  0.3622
20158SOL    HW162196   6.037   8.131   9.426  1.2582  0.0574 -0.1639
20158SOL    HW262197   6.098   7.994   9.451  0.0696 -0.4282  0.1074
20159SOL     OW62198   6.142   5.632   3.487 -0.3385 -0.3350 -0.7353
20159SOL    HW162199   6.075   5.565   3.498 -1.5411  0.7411 -1.2314
20159SOL    HW262200   6.166   5.658   3.576  1.2682 -2.4488 -0.4875
20160SOL     OW62201   1.976   6.461   2.609  0.3838  0.4871 -0.0711
20160SOL    HW162202   2.012   6.548   2.625  0.3474  1.0539 -2.6722
20160SOL    HW262203   2.053   6.405   2.595  0.3661  0.6256 -0.7390
20161SOL     OW62204   0.129   6.859   6.178  0.1923  0.2444  0.0144
20161SOL    HW162205   0.043   6.831   6.208  1.1655 -1.0463  1.7254
20161SOL    HW262206   0.165   6.909   6.251  1.3417 -0.2017 -0.2245
20162SOL     OW62207   8.731   2.089   6.879  0.0297 -0.2849 -0.1776
20162SOL    HW162208   8.740   2.138   6.798  1.1965  1.9010  1.1666
20162SOL    HW262209   8.816   2.045   6.890 -0.5862 -1.6957 -0.7502
20163SOL     OW62210   9.560   6.139   5.039 -0.0588  0.0106 -0.9652
20163SOL    HW162211   9.643   6.119   4.995 -0.7552 -0.9754 -1.9111
20163SOL    HW262212   9.578   6.128   5.132  0.7828 -0.5622 -1.1854
20164SOL     OW62213   6.866   4.721   9.020 -0.1436  0.2310  0.0310
20164SOL    HW162214   6.802   4.749   8.954 -0.4548 -0.6987 -0.0712
20164SOL    HW262215   6.833   4.757   9.102 -1.5643 -1.3489  0.2134
20165SOL     OW62216   6.234   8.151   4.574  0.1615  0.0163 -0.2059
20165SOL    HW162217   6.300   8.164   4.642  1.1619  0.4277 -1.2228
20165SOL    HW262218   6.151   8.151   4.622  0.8851 -0.6648  1.1240
20166SOL     OW62219   8.194   2.494   5.143 -0.1627  0.0674 -0.2850
20166SOL    HW162220   8.119   2.468   5.090 -0.6841 -0.0933  0.5023
20166SOL    HW262221   8.255   2.421   5.135  0.1689  0.4485 -1.3869
20167SOL     OW62222   2.620   9.216   0.664 -0.3214  0.0037 -0.1239
20167SOL    HW162223   2.672   9.140   0.636  0.2289  0.4356 -0.2993
20167SOL    HW262224   2.604   9.202   0.757 -1.3191 -0.9579 -0.4106
20168SOL     OW62225   2.130   3.371   0.571  0.4186 -0.6942 -0.5071
20168SOL    HW162226   2.225   3.377   0.558  0.7156  1.2272  1.8270
20168SOL    HW262227   2.093   3.406   0.490  1.8066  0.8626 -0.5220
20169SOL     OW62228   3.136   6.081   4.094 -0.1447  0.2767 -0.1971
20169SOL    HW162229   3.053   6.116   4.060 -0.0834 -0.1025 -0.7526
20169SOL    HW262230   3.178   6.042   4.018 -1.1646 -2.9617  0.7353
20170SOL     OW62231   8.241   3.289   2.973  0.1933  0.1705  0.2259
20170SOL    HW162232   8.261   3.379   2.950 -2.6956  0.1710 -2.9495
20170SOL    HW262233   8.323   3.255   3.011  2.2440  3.2628 -1.0787
20171SOL     OW62234   1.018   5.787   6.588 -0.1323  0.5434  0.4698
20171SOL    HW162235   1.108   5.805   6.559 -0.6096  0.5517 -1.1061
20171SOL    HW262236   0.972   5.870   6.573 -0.0096  1.2010  3.1656
20172SOL     OW62237   2.989   7.164   5.967  0.4457 -0.2505 -0.5442
20172SOL    HW162238   3.017   7.246   6.011  0.0147 -0.2523 -0.2636
20172SOL    HW262239   2.963   7.192   5.880  3.1251 -0.5003 -1.5168
20173SOL     OW62240   5.879   7.433   9.594  0.0531 -0.6075  0.4287
20173SOL    HW162241   5.914   7.468   9.676 -0.2113  0.4918  0.0910
20173SOL    HW262242   5.952   7.385   9.555  0.6772  0.2014  0.5621
20174SOL     OW62243   7.516   8.730   9.352 -0.2171 -0.8613 -0.0998
20174SOL    HW162244   7.529   8.824   9.339 -0.3461 -1.0416 -1.8822
20174SOL    HW262245   7.433   8.723   9.399  0.0064 -0.0816  0.4243
20175SOL     OW62246   6.329   7.134   3.457 -0.2565  0.0733 -0.2702
20175SOL    HW162247   6.272   7.210   3.440  0.3291  0.1020 -2.3394
20175SOL    HW262248   6.269   7.059   3.457 -0.5900  0.3324 -0.0440
20176SOL     OW62249   4.268   2.874   1.000 -0.2070 -0.8697 -0.3086
20176SOL    HW162250   4.230   2.825   1.073 -0.3297 -1.5958 -0.8454
20176SOL    HW262251   4.206   2.946   0.985  0.6047  0.2297  1.2922
20177SOL     OW62252   1.727   1.396   5.317  0.1367 -0.0546 -0.3277
20177SOL    HW162253   1.759   1.482   5.290 -0.4681  0.6188  0.9851
20177SOL    HW262254   1.802   1.355   5.360 -0.1807  0.7723  1.0921
20178SOL     OW62255   3.089   3.891   7.184  0.3107 -0.1050 -0.2335
20178SOL    HW162256   3.023   3.823   7.198  2.4739 -2.0373  1.3778
20178SOL    HW262257   3.058   3.966   7.234 -1.2345 -0.5435 -0.5023
20179SOL     OW62258   9.472   0.855   4.229  0.6682  0.2549 -0.2328
20179SOL    HW162259   9.386   0.897   4.221  0.0926 -0.5099  1.4307
20179SOL    HW262260   9.494   0.828   4.140 -0.1222  1.7660 -0.9137
20180SOL     OW62261   9.173   0.096   8.607 -0.4356  0.4705  0.4182
20180SOL    HW162262   9.117   0.088   8.685 -0.3620  1.1313  0.5423
20180SOL    HW262263   9.261   0.110   8.641 -0.1737 -0.5780  0.2202
20181SOL     OW62264   7.579   9.218   6.171 -0.6598  0.7230 -0.5096
20181SOL    HW162265   7.597   9.309   6.146 -2.9390  1.4685  0.2898
20181SOL    HW262266   7.626   9.206   6.254 -0.3836  1.1789 -0.5982
20182SOL     OW62267   7.730   8.405   3.066 -0.0547 -0.0547 -0.1741
20182SOL    HW162268   7.716   8.322   3.112  0.6326 -0.8427 -1.3181
20182SOL    HW262269   7.658   8.461   3.094 -0.0692 -0.7534  1.2488
20183SOL     OW62270   9.439   9.282   3.707 -0.1335 -0.0276  0.1321
20183SOL    HW162271   9.507   9.349   3.710  1.5471 -1.5573 -1.1853
20183SOL    HW262272   9.379   9.311   3.638  0.0836  0.5285  0.1744
20184SOL     OW62273   2.438   6.251   8.041 -0.1329  0.1511 -0.2494
20184SOL    HW162274   2.486   6.320   7.996  1.4215  0.6858  2.0593
20184SOL    HW262275   2.499   6.177   8.043 -0.8557 -0.4727 -0.5194
20185SOL     OW62276   1.379   3.538   7.821 -0.7026  0.0754 -0.1812
20185SOL    HW162277   1.348   3.620   7.858  1.1909 -0.2365  2.3720
20185SOL    HW262278   1.470   3.555   7.796 -0.4154 -1.1139 -0.0309
20186SOL     OW62279   5.321   3.286   5.962 -0.2324  0.7328  0.3665
20186SOL    HW162280   5.363   3.342   6.028 -0.0437 -0.5259  1.3478
20186SOL    HW262281   5.392   3.233   5.927 -0.3766  1.2162 -0.7120
20187SOL     OW62282   0.790   7.498   5.471 -0.0210 -0.1686  0.1514
20187SOL    HW162283   0.726   7.512   5.401  1.0627  1.5129 -0.5746
20187SOL    HW262284   0.830   7.584   5.484  2.6923 -1.3058 -0.0129
20188SOL     OW62285   1.786   0.657   6.626 -0.3071  0.0371 -0.0099
20188SOL    HW162286   1.836   0.644   6.706 -1.8184 -0.9302  0.8397
20188SOL    HW262287   1.712   0.712   6.652 -1.2565 -0.9504 -0.5113
20189SOL     OW62288   5.858   6.940   8.052 -0.3538  0.4932 -0.6285
20189SOL    HW162289   5.898   6.854   8.041 -0.2379  0.4483  0.0754
20189SOL    HW262290   5.803   6.951   7.975  1.5215  0.8566 -1.9923
20190SOL     OW62291   3.521   8.617   7.432  0.1070  0.1806 -0.0839
20190SOL    HW162292   3.507   8.628   7.526  1.5833 -0.5581  0.2443
20190SOL    HW262293   3.616   8.611   7.422 -0.0676 -0.7620 -1.5066
20191SOL     OW62294   5.720   6.250   2.612 -0.7580  0.2083 -0.0853
20191SOL    HW162295   5.716   6.244   2.707 -1.0020  0.9915 -0.0355
20191SOL    HW262296   5.751   6.164   2.583 -1.3577 -0.2699  0.6569
20192SOL     OW62297   3.349   2.769   4.993  0.3695  0.4638  0.1625
20192SOL    HW162298   3.269   2.759   4.942  1.4776  1.2822 -1.8868
20192SOL    HW262299   3.337   2.850   5.041 -0.4122  0.0641  0.6546
20193SOL     OW62300   4.725   1.141   8.405  0.4237  0.1522 -0.1061
20193SOL    HW162301   4.816   1.139   8.375  0.3819  2.1939 -0.4649
20193SOL    HW262302   4.675   1.164   8.327 -0.0440  2.1597  0.7304
20194SOL     OW62303   4.672   7.238   9.162  0.3239  0.0523 -0.5498
20194SOL    HW162304   4.623   7.211   9.084 -0.1307  0.9243 -0.5707
20194SOL    HW262305   4.630   7.192   9.234  1.5425 -1.7765 -0.9369
20195SOL     OW62306   8.202   4.289   6.008 -1.1121 -0.2987  0.2687
20195SOL    HW162307   8.242   4.220   5.955 -0.9470 -0.0472  0.0624
20195SOL    HW262308   8.229   4.370   5.966 -1.4632 -0.1130  0.3991
20196SOL     OW62309   5.166   5.401   6.745  0.0672 -0.2720  0.2255
20196SOL    HW162310   5.103   5.332   6.725  0.4709 -0.4078 -0.6101
20196SOL    HW262311   5.116   5.464   6.797 -0.7147 -0.4598 -0.2827
20197SOL     OW62312   3.123   2.536   1.707 -0.1399  0.0116  0.8001
20197SOL    HW162313   3.195   2.496   1.755  0.1476 -0.1464  0.2451
20197SOL    HW262314   3.147   2.628   1.700  1.0297 -0.3695 -1.1270
20198SOL     OW62315   6.841   3.829   7.354 -0.5880 -0.6256  0.6919
20198SOL    HW162316   6.815   3.764   7.289  0.8182 -0.9816  0.4503
20198SOL    HW262317   6.804   3.911   7.323 -0.5731 -0.9299 -0.1532
20199SOL     OW62318   2.095   5.445   7.967  0.0154 -0.2733 -0.0145
20199SOL    HW162319   2.005   5.471   7.947 -0.9617 -2.9644  0.4914
20199SOL    HW262320   2.110   5.477   8.056 -0.5986 -0.2417  0.0807
20200SOL     OW62321   9.103   3.187   4.407  0.2452  0.5397  0.0504
20200SOL    HW162322   9.136   3.106   4.446  1.9153  1.5942  0.9513
20200SOL    HW262323   9.019   3.163   4.368  1.1470 -1.8269 -0.5609
20201SOL     OW62324   6.957   9.303   6.430  0.0007  0.4307 -0.1730
20201SOL    HW162325   6.974   9.321   6.338 -0.5405 -3.4000 -1.1455
20201SOL    HW262326   6.879   9.355   6.450 -0.1119  1.0281 -1.9493
20202SOL     OW62327   0.884   2.185   2.260  0.1703 -0.0953 -1.2432
20202SOL    HW162328   0.850   2.264   2.218  0.3555  0.1253 -0.9829
20202SOL    HW262329   0.917   2.215   2.344 -0.2015 -0.5358 -0.9346
20203SOL     OW62330   7.553   9.076   8.245 -0.2636 -0.2947  0.4077
20203SOL    HW162331   7.520   9.053   8.158  1.1523 -1.0486  0.0482
20203SOL    HW262332   7.623   9.140   8.227  0.7074 -1.1987  0.9084
20204SOL     OW62333   6.511   3.890   4.824 -0.0069  0.0072  0.0421
20204SOL    HW162334   6.471   3.953   4.764 -1.1587  0.1835  0.9652
20204SOL    HW262335   6.556   3.944   4.889  0.4214 -0.1599 -0.1162
20205SOL     OW62336   9.159   6.971   1.132 -0.3556  0.2373 -0.3878
20205SOL    HW162337   9.199   6.910   1.194 -0.4394  0.5601 -0.0088
20205SOL    HW262338   9.098   6.918   1.081  0.6322 -0.2832 -1.0540
20206SOL     OW62339   5.256   1.920   2.500 -0.0524  0.4964 -0.1228
20206SOL    HW162340   5.196   1.848   2.522 -0.9089  1.2864  0.2284
20206SOL    HW262341   5.343   1.881   2.502 -0.4421 -0.3646  0.7916
20207SOL     OW62342   7.749   1.866   2.966 -0.2855 -0.1068 -0.0866
20207SOL    HW162343   7.693   1.788   2.971 -0.5980  0.0682 -0.7741
20207SOL    HW262344   7.805   1.851   2.891 -1.7720  1.2294 -1.5457
20208SOL     OW62345   8.589   7.845   6.257  0.2840  0.0932  0.6082
20208SOL    HW162346   8.595   7.805   6.171  2.6072 -0.2676  0.8783
20208SOL    HW262347   8.572   7.772   6.317  2.1345 -0.2164  0.8164
20209SOL     OW62348   4.112   0.954   9.001 -0.3794  0.2271 -0.4124
20209SOL    HW162349   4.091   0.911   9.084 -0.6735  1.2738  0.0684
20209SOL    HW262350   4.125   1.046   9.024  1.2543  0.2431 -1.2653
20210SOL     OW62351   0.206   5.630   2.865 -0.1320  0.6598 -0.2111
20210SOL    HW162352   0.242   5.572   2.932  0.2842 -1.3013 -2.0476
20210SOL    HW262353   0.276   5.640   2.801 -0.9723  1.3705 -1.0502
20211SOL     OW62354   6.128   4.763   2.407 -0.6333  0.2787  0.1592
20211SOL    HW162355   6.111   4.733   2.496 -0.5368 -0.1529  0.0360
20211SOL    HW262356   6.104   4.856   2.407  0.5268  0.5914  0.9557
20212SOL     OW62357   9.494   2.182   6.345 -0.7579 -0.2480 -0.6417
20212SOL    HW162358   9.412   2.228   6.366  0.5114  1.3002  1.2980
20212SOL    HW262359   9.466   2.095   6.317 -3.1145  0.5787 -1.1118
20213SOL     OW62360   2.365   4.434   5.244 -0.3654  0.2107 -0.4484
20213SOL    HW162361   2.284   4.384   5.257 -1.3303  1.7407 -0.4164
20213SOL    HW262362   2.430   4.389   5.299 -1.3268 -0.7048 -0.0317
20214SOL     OW62363   0.926   1.530   9.521 -0.1634  0.1096 -0.5362
20214SOL    HW162364   0.915   1.567   9.609  0.9313 -1.1008  0.1409
20214SOL    HW262365   0.911   1.436   9.533  0.4502 -0.1332 -1.5569
20215SOL     OW62366   8.272   5.798   9.561  0.2734 -0.3173  0.3928
20215SOL    HW162367   8.325   5.724   9.591  0.0890 -0.3410  0.6648
20215SOL    HW262368   8.315   5.829   9.481  0.5800 -0.4621  0.5055
20216SOL     OW62369   2.043   2.790   5.087 -0.0153 -0.0989 -0.0816
20216SOL    HW162370   2.106   2.856   5.115 -1.6819  2.0187 -1.0580
20216SOL    HW262371   2.041   2.727   5.159  1.1001  1.3183  1.2502
20217SOL     OW62372   7.361   0.562   0.174 -0.1374  0.0462  0.4841
20217SOL    HW162373   7.332   0.494   0.114  1.0559  0.6293 -0.8041
20217SOL    HW262374   7.417   0.515   0.237 -0.9769 -0.4783  0.8615
20218SOL     OW62375   4.808   4.449   3.782  0.1723 -0.5152 -0.6519
20218SOL    HW162376   4.848   4.502   3.713 -0.2956 -1.4146 -1.6487
20218SOL    HW262377   4.722   4.488   3.796  1.0468  0.9563  0.9562
20219SOL     OW62378   5.401   5.326   7.162  0.0549 -0.0702  0.1963
20219SOL    HW162379   5.389   5.254   7.100 -1.9889  0.8270 -0.5241
20219SOL    HW262380   5.482   5.305   7.208  0.1338 -2.2025 -0.8259
20220SOL     OW62381   2.953   4.976   5.047  0.2578  0.5966  0.4351
20220SOL    HW162382   3.016   5.048   5.048  1.1915 -0.1870 -0.3178
20220SOL    HW262383   2.972   4.929   4.966  0.0865 -0.8651  1.2189
20221SOL     OW62384   8.890   6.474   6.282  0.5930 -0.1278  0.0973
20221SOL    HW162385   8.963   6.521   6.243  0.7310 -0.8776 -0.5765
20221SOL    HW262386   8.827   6.542   6.306  2.4224  0.8032  2.8039
20222SOL     OW62387   5.218   2.872   3.732  0.0239 -0.8053 -0.2701
20222SOL    HW162388   5.179   2.950   3.771 -1.4810 -1.2180 -0.9012
20222SOL    HW262389   5.263   2.829   3.805  1.3995  0.9389 -0.0418
20223SOL     OW62390   0.127   3.058   3.390 -0.5221  0.2827 -0.2456
20223SOL    HW162391   0.135   3.055   3.295 -4.7086  0.8142 -0.8205
20223SOL    HW262392   0.118   2.966   3.416  6.4616 -0.6517  0.7475
20224SOL     OW62393   3.501   8.892   1.152  0.2186 -0.4881 -0.0168
20224SOL    HW162394   3.440   8.934   1.213  0.3091  1.5407 -1.2195
20224SOL    HW262395   3.550   8.965   1.115  2.4987 -1.9672 -0.0588
20225SOL     OW62396   6.624   6.922   0.741 -0.1903  0.1790 -0.1764
20225SOL    HW162397   6.637   6.837   0.785 -2.9323 -0.4841 -0.4464
20225SOL    HW262398   6.600   6.981   0.812  1.0288  0.5939 -0.0861
20226SOL     OW62399   5.140   5.042   1.737 -0.6474 -0.0381 -0.0370
20226SOL    HW162400   5.173   5.101   1.669 -0.2020  0.5064  0.6350
20226SOL    HW262401   5.098   5.100   1.801 -1.9029 -0.6259 -0.2968
20227SOL     OW62402   9.197   3.126   2.539 -0.0657  0.1874  0.0424
20227SOL    HW162403   9.165   3.070   2.609 -0.0926  0.3828  0.1838
20227SOL    HW262404   9.289   3.141   2.561  0.1327 -0.3722 -0.3622
20228SOL     OW62405   6.729   9.270   8.676 -0.0292 -0.0969 -0.3596
20228SOL    HW162406   6.636   9.262   8.698 -0.1251  1.6408  0.0287
20228SOL    HW262407   6.762   9.337   8.736  1.4326 -0.5240 -0.6475
20229SOL     OW62408   2.939   1.442   5.135  0.4403 -0.8003 -0.1071
20229SOL    HW162409   3.025   1.476   5.110 -0.2186 -0.3706 -1.8756
20229SOL    HW262410   2.929   1.362   5.083  1.0492 -2.6955  2.4161
20230SOL     OW62411   5.260   9.536   3.406 -0.4125 -0.2249  0.1345
20230SOL    HW162412   5.189   9.589   3.370 -1.8816 -1.3427  1.3042
20230SOL    HW262413   5.235   9.446   3.388  0.9805 -0.6317  0.1251
20231SOL     OW62414   9.571   1.412   3.659 -0.1188  0.4225  0.2799
20231SOL    HW162415   9.662   1.438   3.646  0.1686 -0.9585 -0.8652
20231SOL    HW262416   9.534   1.412   3.570 -1.4026  1.4687  0.7868
20232SOL     OW62417   8.240   6.359   8.280 -0.3034  0.5533  0.7607
20232SOL    HW162418   8.179   6.408   8.225 -0.7158  1.6187  2.1027
20232SOL    HW262419   8.189   6.284   8.310 -0.2040  0.1889  0.0528
20233SOL     OW62420   5.166   7.893   0.076  0.0185  0.2103 -0.0853
20233SOL    HW162421   5.093   7.846   0.035 -0.4506  1.1397 -0.3284
20233SOL    HW262422   5.137   7.984   0.080  0.8041  0.4389  0.6473
20234SOL     OW62423   1.195   1.927   5.485 -0.6693 -0.4009 -0.2828
20234SOL    HW162424   1.236   1.891   5.407 -0.1934  1.2085 -0.8106
20234SOL    HW262425   1.267   1.941   5.547 -0.6720  0.5505 -0.4687
20235SOL     OW62426   7.857   2.636   1.641  0.4299  0.0467 -0.6158
20235SOL    HW162427   7.874   2.724   1.609 -0.2694 -0.0170 -1.1846
20235SOL    HW262428   7.766   2.618   1.617 -0.4032  0.2661  1.9910
20236SOL     OW62429   5.214   8.872   4.606  0.3864  0.2621  0.7654
20236SOL    HW162430   5.144   8.933   4.586  1.7603  1.5356 -0.4090
20236SOL    HW262431   5.184   8.825   4.684 -2.3199 -0.1914 -0.4364
20237SOL     OW62432   1.888   3.991   6.584 -0.0849 -0.5897  0.1210
20237SOL    HW162433   1.910   4.064   6.641 -1.6735  0.2169 -0.2241
20237SOL    HW262434   1.822   3.942   6.633  0.6313 -1.5497  0.1531
20238SOL     OW62435   7.149   1.596   1.924 -0.2457 -0.0423 -0.3739
20238SOL    HW162436   7.184   1.627   2.007 -0.3735  0.6230 -0.5574
20238SOL    HW262437   7.165   1.669   1.863 -1.1901 -0.0654 -0.6547
20239SOL     OW62438   2.118   3.773   0.275  0.0842  0.0436  0.1678
20239SOL    HW162439   2.202   3.727   0.278 -0.2738 -0.6283  0.0466
20239SOL    HW262440   2.141   3.863   0.252  0.8064 -0.0310  0.5634
20240SOL     OW62441   6.248   3.016   7.145 -0.1412  0.5446 -0.2401
20240SOL    HW162442   6.205   3.027   7.060 -1.5023  0.0638  0.3529
20240SOL    HW262443   6.300   2.936   7.135 -1.1023 -0.0903 -0.3330
20241SOL     OW62444   5.545   9.221   2.282  0.1048  0.0830 -0.2223
20241SOL    HW162445   5.466   9.257   2.243  0.1796  0.1445 -0.3176
20241SOL    HW262446   5.617   9.267   2.238  0.1776  1.7306  1.4808
20242SOL     OW62447   2.467   4.907   5.860  0.2638 -0.3082 -0.3555
20242SOL    HW162448   2.490   4.879   5.771  2.6168  1.1394 -0.3053
20242SOL    HW262449   2.501   4.837   5.916  0.7999 -0.1895 -0.5178
20243SOL     OW62450   8.742   1.456   6.774  0.5789 -0.0908  0.0083
20243SOL    HW162451   8.759   1.528   6.712  1.0255  0.1199  0.3649
20243SOL    HW262452   8.722   1.500   6.857 -1.0543 -0.3495 -0.2139
20244SOL     OW62453   4.470   9.172   8.728  0.7523 -0.1748  0.2885
20244SOL    HW162454   4.427   9.203   8.648 -2.3759 -1.8677  1.1820
20244SOL    HW262455   4.559   9.207   8.721 -0.4874  3.1033 -1.9791
20245SOL     OW62456   9.230   8.429   8.302  0.1148  0.1887  0.1442
20245SOL    HW162457   9.264   8.459   8.218  0.1688 -1.5806 -0.5133
20245SOL    HW262458   9.146   8.390   8.281 -0.3207  0.5927  1.0850
20246SOL     OW62459   9.531   5.207   0.815 -0.4497 -0.1120 -0.0813
20246SOL    HW162460   9.495   5.201   0.903  0.6323  0.3936  0.4207
20246SOL    HW262461   9.463   5.249   0.763 -0.7993  0.3073  0.7062
20247SOL     OW62462   3.846   8.166   2.020 -0.8568  0.8172  0.2634
20247SOL    HW162463   3.866   8.073   2.026 -1.8905  0.4550 -1.3079
20247SOL    HW262464   3.764   8.176   2.069  0.0029  1.2083  1.6831
20248SOL     OW62465   5.033   2.540   2.811  0.0812  0.1699  0.2321
20248SOL    HW162466   5.012   2.495   2.893  0.6559 -0.1965  0.1903
20248SOL    HW262467   4.972   2.613   2.807 -0.5250 -0.3065  0.5657
20249SOL     OW62468   3.818   7.884   8.208  0.5965  0.5993 -0.0694
20249SOL    HW162469   3.874   7.946   8.160  1.5540 -0.4653 -0.3592
20249SOL    HW262470   3.841   7.798   8.173 -2.6150  0.2111 -1.6439
20250SOL     OW62471   9.496   0.354   7.892 -0.2914 -0.0554 -0.2748
20250SOL    HW162472   9.446   0.431   7.916 -0.5847  0.1290 -1.4488
20250SOL    HW262473   9.586   0.375   7.917 -0.5642  0.1406  0.5912
20251SOL     OW62474   1.359   1.632   2.549 -0.2241 -0.6344 -0.1116
20251SOL    HW162475   1.378   1.548   2.507 -2.5642 -1.6611  0.7649
20251SOL    HW262476   1.421   1.636   2.622  0.6735 -1.0351 -0.8266
20252SOL     OW62477   2.869   1.046   3.284  0.2358  0.1356  0.2499
20252SOL    HW162478   2.814   0.980   3.327  1.3208  0.4329  2.2273
20252SOL    HW262479   2.807   1.102   3.237 -0.7949 -1.6335 -0.5574
20253SOL     OW62480   9.473   8.363   6.864  0.0737  0.2674  0.7498
20253SOL    HW162481   9.436   8.388   6.948 -1.4025  0.2549  0.1435
20253SOL    HW262482   9.414   8.402   6.799 -0.1561 -1.6100 -0.2446
20254SOL     OW62483   4.907   7.595   1.720 -0.7688  0.4160 -0.4704
20254SOL    HW162484   4.876   7.649   1.793 -0.4332  1.2736 -0.9399
20254SOL    HW262485   4.984   7.551   1.754 -1.8362 -0.8785  0.3584
20255SOL     OW62486   7.017   1.479   2.967  0.1035 -0.0747 -0.0544
20255SOL    HW162487   6.940   1.507   2.918  0.0906 -0.4924 -0.2799
20255SOL    HW262488   7.089   1.486   2.904  0.2339  0.2188  0.1258
20256SOL     OW62489   2.381   4.168   5.108 -0.1114 -0.0060  0.1688
20256SOL    HW162490   2.434   4.184   5.186 -2.1111 -2.2054  2.1249
20256SOL    HW262491   2.318   4.239   5.106  0.7259  0.7514 -0.2292
20257SOL     OW62492   2.748   0.977   4.269  0.0466 -0.4399 -0.4690
20257SOL    HW162493   2.829   0.978   4.321 -0.0863 -0.8948 -0.2525
20257SOL    HW262494   2.777   0.994   4.180  0.4722 -1.2914 -0.5072
20258SOL     OW62495   8.007   2.407   4.867  0.7326  0.4991 -0.0202
20258SOL    HW162496   8.076   2.463   4.832  1.3328  0.8917  1.7249
20258SOL    HW262497   8.025   2.321   4.829  1.2095  0.9461 -0.8478
20259SOL     OW62498   7.554   8.071   2.388 -0.1358  0.3901  0.3525
20259SOL    HW162499   7.579   7.999   2.330 -0.1596  1.3312 -0.8632
20259SOL    HW262500   7.503   8.029   2.457 -0.6991 -0.6920 -0.6858
20260SOL     OW62501   5.300   5.785   4.705  0.4054 -0.0231  0.2076
20260SOL    HW162502   5.233   5.724   4.673  0.5603 -0.3611  0.5253
20260SOL    HW262503   5.282   5.866   4.658  0.0917 -0.2621 -0.0951
20261SOL     OW62504   0.493   9.582   7.972 -0.4582  0.4697 -0.0906
20261SOL    HW162505   0.564   9.647   7.969 -0.8965  1.0171  0.8152
20261SOL    HW262506   0.420   9.629   8.011 -0.6376 -0.7163  1.0643
20262SOL     OW62507   5.627   9.058   4.679  0.4065 -0.0640 -0.0463
20262SOL    HW162508   5.691   9.059   4.607  2.6736 -1.5856  1.8011
20262SOL    HW262509   5.559   8.999   4.649  1.7146 -1.3119 -0.6912
20263SOL     OW62510   8.622   3.271   7.767  0.5698  0.1892 -0.2601
20263SOL    HW162511   8.576   3.350   7.797  1.7002  0.4532  0.8553
20263SOL    HW262512   8.631   3.217   7.845  1.5175 -0.1649 -0.5979
20264SOL     OW62513   0.617   5.988   1.417 -0.4732 -0.2757 -0.1830
20264SOL    HW162514   0.555   5.919   1.392 -2.0899  0.2303  2.0553
20264SOL    HW262515   0.670   5.949   1.486  0.2518 -0.0193 -0.5879
20265SOL     OW62516   1.902   5.250   8.079 -0.1563 -0.4802  0.0251
20265SOL    HW162517   1.861   5.314   8.021 -0.5347 -1.1813 -0.5004
20265SOL    HW262518   1.986   5.289   8.103 -1.8097  1.8643  2.6175
20266SOL     OW62519   3.149   5.722   3.146 -0.2606  0.6314 -0.1521
20266SOL    HW162520   3.121   5.632   3.159 -0.1251  0.5697 -0.2866
20266SOL    HW262521   3.237   5.715   3.110 -0.1161  0.8237  0.1586
20267SOL     OW62522   7.334   6.574   3.980 -0.2562 -0.0402  0.1323
20267SOL    HW162523   7.294   6.609   3.900 -0.2593  0.3072  0.2805
20267SOL    HW262524   7.367   6.652   4.025  0.2410 -0.2855  0.1997
20268SOL     OW62525   8.228   6.506   1.967 -0.0199  0.3916  1.2093
20268SOL    HW162526   8.175   6.454   2.027 -1.4882 -0.4286 -0.6667
20268SOL    HW262527   8.267   6.441   1.908 -1.1242  1.2787 -0.5880
20269SOL     OW62528   4.234   0.060   2.199  0.4211 -0.0643 -0.0761
20269SOL    HW162529   4.259   0.101   2.281  2.0677 -2.3906  0.6798
20269SOL    HW262530   4.316   0.048   2.151 -0.3871  0.2823 -1.6138
20270SOL     OW62531   4.275   3.727   4.316  0.0723 -0.0389 -0.0195
20270SOL    HW162532   4.294   3.710   4.409 -1.5694 -2.0729 -0.0033
20270SOL    HW262533   4.350   3.690   4.269  0.3851  0.0146  0.4274
20271SOL     OW62534   1.670   6.526   8.507  0.0266  0.1571 -0.2701
20271SOL    HW162535   1.725   6.572   8.571 -0.7504  0.0680  0.4853
20271SOL    HW262536   1.721   6.527   8.426  1.0714  0.2059  0.3707
20272SOL     OW62537   7.553   3.893   3.067 -0.8122  0.2668 -0.1544
20272SOL    HW162538   7.639   3.858   3.088 -0.6007  0.8622 -0.0197
20272SOL    HW262539   7.531   3.950   3.140 -2.2285 -1.4332  0.8210
20273SOL     OW62540   8.085   5.826   8.194  0.2112 -0.6368  0.3119
20273SOL    HW162541   8.045   5.783   8.270 -1.2284  0.4790  0.2312
20273SOL    HW262542   8.129   5.903   8.230 -0.5630 -0.0463  0.0420
20274SOL     OW62543   0.829   3.132   3.158  0.6330  0.9653 -0.4263
20274SOL    HW162544   0.907   3.081   3.139  0.5982  0.3803  0.9301
20274SOL    HW262545   0.782   3.081   3.224  0.2512  2.4097  0.4628
20275SOL     OW62546   9.619   6.495   1.617  0.2858 -0.1590 -0.3191
20275SOL    HW162547   9.668   6.452   1.547 -0.3672  0.5268 -1.2107
20275SOL    HW262548   9.581   6.573   1.577  0.3906  0.5837  0.9535
20276SOL     OW62549   3.321   7.794   4.694  0.2027 -0.1205  0.1071
20276SOL    HW162550   3.333   7.889   4.689  2.7206 -0.4023 -0.6378
20276SOL    HW262551   3.232   7.782   4.729 -1.0572  2.4919 -1.8447
20277SOL     OW62552   1.897   3.393   4.455  0.0599 -0.7875  0.0372
20277SOL    HW162553   1.823   3.442   4.418  0.2284 -0.3218  0.3093
20277SOL    HW262554   1.856   3.314   4.492  0.1154 -2.3574 -2.9343
20278SOL     OW62555   8.722   8.428   4.967  0.3948  0.3157  0.0938
20278SOL    HW162556   8.801   8.387   5.001  1.3969  1.4052 -0.8527
20278SOL    HW262557   8.664   8.354   4.947  0.9617 -0.4759  1.2322
20279SOL     OW62558   6.776   8.651   8.367  0.4436  0.1227  0.4012
20279SOL    HW162559   6.843   8.683   8.306  0.3409 -1.9600 -0.9039
20279SOL    HW262560   6.714   8.723   8.374  2.6708  2.0706  1.5384
20280SOL     OW62561   7.789   3.092   8.565 -0.0188  0.2868 -0.1176
20280SOL    HW162562   7.849   3.062   8.498 -0.2278  1.3692 -0.8177
20280SOL    HW262563   7.832   3.070   8.648  0.4246 -0.6952 -0.5955
20281SOL     OW62564   1.052   5.323   7.743  0.1573 -0.0603 -0.4696
20281SOL    HW162565   1.056   5.254   7.676  0.6383  0.4889 -1.0177
20281SOL    HW262566   0.961   5.322   7.773 -0.1098 -0.2055 -1.2603
20282SOL     OW62567   7.155   8.920   0.842  0.6827 -0.1562  0.1115
20282SOL    HW162568   7.132   8.945   0.932  1.5789  1.1681  0.0025
20282SOL    HW262569   7.192   9.000   0.804 -0.1344 -0.5597 -1.6023
20283SOL     OW62570   4.069   5.075   7.833  0.1267 -0.6470 -0.1501
20283SOL    HW162571   4.029   5.108   7.914  0.0958 -0.5845 -0.1908
20283SOL    HW262572   4.155   5.043   7.860  1.4187  2.1733 -0.5868
20284SOL     OW62573   3.585   8.229   4.235  0.6199  0.0769 -0.4717
20284SOL    HW162574   3.540   8.302   4.278 -0.6090 -0.3160 -1.0562
20284SOL    HW262575   3.570   8.243   4.142  0.4987 -0.8448 -0.5976
20285SOL     OW62576   0.171   3.077   3.138  0.0701 -0.1814 -0.0683
20285SOL    HW162577   0.246   3.123   3.100 -0.5518 -0.0342 -1.1630
20285SOL    HW262578   0.097   3.134   3.120 -0.7118 -1.5337 -1.4057
20286SOL     OW62579   0.032   9.473   4.651 -0.0980 -0.7668  0.0886
20286SOL    HW162580  -0.037   9.431   4.600 -0.8962  0.4303  0.1493
20286SOL    HW262581  -0.014   9.520   4.721  0.7620  0.0740  0.1145
20287SOL     OW62582   0.374   6.632   7.199 -0.2247  0.6980  0.2560
20287SOL    HW162583   0.458   6.598   7.232 -0.1020 -0.0950 -0.8264
20287SOL    HW262584   0.374   6.610   7.106 -0.3811  3.2109 -0.4128
20288SOL     OW62585   5.626   4.441   3.039  0.0734 -0.0038 -0.0595
20288SOL    HW162586   5.542   4.484   3.054 -0.2779 -0.2118 -1.3839
20288SOL    HW262587   5.690   4.500   3.080 -0.4360  1.5797 -1.4372
20289SOL     OW62588   1.551   1.570   6.305  0.0340 -0.0252 -0.2156
20289SOL    HW162589   1.475   1.526   6.344 -0.8121 -0.6305 -2.3966
20289SOL    HW262590   1.535   1.567   6.210  2.0897  1.1390 -0.6698
20290SOL     OW62591   8.404   1.295   7.614 -0.1149 -0.3912 -0.0387
20290SOL    HW162592   8.484   1.248   7.594  0.2086  0.0976  0.0984
20290SOL    HW262593   8.334   1.233   7.593  0.2736 -0.5800 -0.8172
20291SOL     OW62594   4.684   3.507   4.023  0.4032 -0.1627 -0.1684
20291SOL    HW162595   4.725   3.432   4.066  1.4687  0.1489 -0.6174
20291SOL    HW262596   4.617   3.536   4.085  2.3710  0.7388  1.7069
20292SOL     OW62597   4.789   2.085   6.959  0.0550  0.2801  0.4526
20292SOL    HW162598   4.840   2.161   6.930  0.9646 -0.4867  0.0106
20292SOL    HW262599   4.807   2.079   7.053  0.4438  0.2620  0.3774
20293SOL     OW62600   2.123   4.524   1.048 -0.6406  0.2148 -0.0294
20293SOL    HW162601   2.115   4.450   1.109  0.8083 -1.6345 -1.9261
20293SOL    HW262602   2.212   4.516   1.013 -0.4486  2.8953 -0.3424
20294SOL     OW62603   5.247   2.550   3.196  0.1127 -0.1840  0.4701
20294SOL    HW162604   5.252   2.461   3.163 -1.2436 -0.2827  0.4840
20294SOL    HW262605   5.293   2.603   3.131  0.3963 -0.7976  0.1636
20295SOL     OW62606   6.206   4.324   5.807  0.4182  0.0323 -0.5652
20295SOL    HW162607   6.239   4.236   5.791 -0.8368 -0.6496  0.4237
20295SOL    HW262608   6.180   4.324   5.899 -0.5833  1.0941 -0.8241
20296SOL     OW62609   8.861   7.313   4.111 -0.5922  0.3718 -0.4291
20296SOL    HW162610   8.798   7.241   4.107 -0.9676  0.7535 -1.5292
20296SOL    HW262611   8.835   7.363   4.189  0.0509 -1.0027  0.7174
20297SOL     OW62612   6.985   5.813   3.633 -0.3518  0.2575 -0.3536
20297SOL    HW162613   6.987   5.865   3.713 -0.7782 -0.8993  0.4235
20297SOL    HW262614   6.991   5.878   3.562 -0.7398  1.3475  0.5860
20298SOL     OW62615   7.147   8.223   6.036  0.0947  0.0808  0.2863
20298SOL    HW162616   7.089   8.284   5.989 -0.4436 -1.0500 -0.5687
20298SOL    HW262617   7.215   8.279   6.074  0.5684  1.0690 -1.8648
20299SOL     OW62618   4.574   4.011   5.329 -0.4084 -0.3160 -0.7576
20299SOL    HW162619   4.653   3.959   5.341  0.1207  0.9135  1.6440
20299SOL    HW262620   4.504   3.947   5.317  0.4176 -1.5561  0.7357
20300SOL     OW62621   9.258   0.754   8.504 -0.6891  0.6743 -0.0070
20300SOL    HW162622   9.250   0.676   8.450  1.4587  1.2154 -1.2172
20300SOL    HW262623   9.315   0.728   8.576 -2.1093  0.4523  1.0840
20301SOL     OW62624   5.689   4.246   3.635 -0.0581  0.0505  1.0554
20301SOL    HW162625   5.748   4.217   3.704  2.5733 -0.8677 -1.3748
20301SOL    HW262626   5.721   4.334   3.611  0.7752 -0.6618 -0.6304
20302SOL     OW62627   3.525   2.008   3.109  0.3824  0.0555 -0.2797
20302SOL    HW162628   3.470   1.940   3.072 -0.1413  0.5016 -0.3328
20302SOL    HW262629   3.476   2.041   3.184  0.6621  0.3234 -0.2097
20303SOL     OW62630   0.235   6.884   5.931 -0.0154 -0.3720 -0.5991
20303SOL    HW162631   0.160   6.865   5.876 -0.4568 -1.1255  0.2305
20303SOL    HW262632   0.205   6.865   6.020  0.5496  1.1701 -0.0308
20304SOL     OW62633   1.325   7.516   4.341  0.4577  0.0853 -0.1514
20304SOL    HW162634   1.323   7.456   4.415  1.8083  0.8182  0.5126
20304SOL    HW262635   1.235   7.548   4.333  0.1323 -0.5828  0.6757
20305SOL     OW62636   8.297   5.159   0.994 -0.0015  0.0550  0.2191
20305SOL    HW162637   8.263   5.159   0.904  2.1110 -0.1096 -0.6556
20305SOL    HW262638   8.261   5.080   1.033 -0.5628 -0.1436 -0.6574
20306SOL     OW62639   2.820   2.475   2.529 -0.2039 -0.2365 -0.8320
20306SOL    HW162640   2.865   2.449   2.610 -0.1999 -0.4644 -0.9068
20306SOL    HW262641   2.739   2.424   2.530 -1.6598  1.9214  0.5204
20307SOL     OW62642   2.527   8.580   8.696  1.0179  0.7231  0.3183
20307SOL    HW162643   2.552   8.551   8.608  0.7956 -1.4670  0.9160
20307SOL    HW262644   2.583   8.528   8.754  0.2865  1.2398  1.4984
20308SOL     OW62645   5.479   6.280   3.699 -0.1127  0.0268  0.0128
20308SOL    HW162646   5.542   6.224   3.745 -0.4272 -0.0003  0.4232
20308SOL    HW262647   5.396   6.232   3.704 -0.4316  0.6143  0.5509
20309SOL     OW62648   0.613   8.397   2.793  0.5871  0.4543  0.0799
20309SOL    HW162649   0.604   8.305   2.816  0.6437  0.0226 -1.4838
20309SOL    HW262650   0.627   8.396   2.698  1.8542  1.9986  0.2100
20310SOL     OW62651   3.817   4.919   0.626 -0.0616 -1.2253 -0.0725
20310SOL    HW162652   3.821   4.969   0.545 -0.1290 -2.2548 -0.7299
20310SOL    HW262653   3.728   4.885   0.629  0.1502 -1.7841  0.0642
20311SOL     OW62654   1.761   2.041   3.543  0.5618  0.9004 -1.0860
20311SOL    HW162655   1.679   2.073   3.504  0.9168  0.8016 -1.9427
20311SOL    HW262656   1.827   2.104   3.514  0.5490  1.8929  0.9269
20312SOL     OW62657   4.557   2.972   6.530 -0.0202  0.1203 -0.3653
20312SOL    HW162658   4.473   2.991   6.574  0.5145 -0.2494  0.8787
20312SOL    HW262659   4.544   2.886   6.491 -0.3158  0.1947 -0.4378
20313SOL     OW62660   6.469   6.048   4.440  0.9730 -0.2067 -0.7565
20313SOL    HW162661   6.425   6.034   4.356 -1.1363  2.3884 -0.2072
20313SOL    HW262662   6.474   5.961   4.479  0.1335 -1.1760 -2.6675
20314SOL     OW62663   2.169   7.076   5.201 -0.1361  0.0421 -0.2704
20314SOL    HW162664   2.121   7.013   5.146  2.8566 -1.2514 -1.6614
20314SOL    HW262665   2.239   7.023   5.242 -0.4451  1.5868  2.4769
20315SOL     OW62666   7.137   1.455   6.078 -0.1928 -0.3405  0.2251
20315SOL    HW162667   7.192   1.519   6.033  0.8512 -0.4694  1.2835
20315SOL    HW262668   7.104   1.399   6.008 -0.9548  1.2009 -0.7001
20316SOL     OW62669   5.744   4.537   6.155  0.2329 -0.5718 -0.4358
20316SOL    HW162670   5.668   4.595   6.157 -0.3387 -1.2739 -1.1304
20316SOL    HW262671   5.747   4.504   6.065  0.2811 -1.9558  0.0475
20317SOL     OW62672   1.064   4.630   1.066 -0.3266 -0.1338 -0.2269
20317SOL    HW162673   1.008   4.693   1.112  1.0513 -0.6158  2.2822
20317SOL    HW262674   1.036   4.544   1.098  1.1422 -0.4459  0.2988
20318SOL     OW62675   8.757   8.121   1.760 -0.0552  0.1438  0.0898
20318SOL    HW162676   8.700   8.188   1.797 -1.8743 -0.7920 -0.8432
20318SOL    HW262677   8.729   8.040   1.803 -0.2596 -0.5118 -1.2081
20319SOL     OW62678   3.604   0.561   1.959 -0.1169  0.0627  0.2678
20319SOL    HW162679   3.647   0.639   1.924 -2.0849  2.1346  2.1214
20319SOL    HW262680   3.658   0.534   2.033  0.6091 -0.4291 -0.4239
20320SOL     OW62681   8.832   5.822   6.459  0.4284  0.1217  0.4677
20320SOL    HW162682   8.818   5.908   6.498 -0.1518  0.8765 -1.3051
20320SOL    HW262683   8.915   5.829   6.413  0.7817 -0.5498  0.9773
20321SOL     OW62684   1.326   0.977   1.841 -0.4391 -0.2336  0.6734
20321SOL    HW162685   1.417   0.999   1.858 -0.5049 -1.1943  2.5854
20321SOL    HW262686   1.277   1.053   1.873 -0.3263  0.9304 -1.6827
20322SOL     OW62687   0.735   7.393   2.879  0.2842 -0.3118  0.0924
20322SOL    HW162688   0.754   7.300   2.887  0.4324 -0.2124  0.9316
20322SOL    HW262689   0.642   7.401   2.900  0.5985 -0.0956  1.5046
20323SOL     OW62690   6.848   7.455   4.858  0.1106  0.2292 -1.0585
20323SOL    HW162691   6.865   7.437   4.950 -0.4488 -0.9051 -1.1630
20323SOL    HW262692   6.781   7.524   4.859  0.6240  0.7360 -0.6375
20324SOL     OW62693   8.954   7.557   4.443  0.1847 -0.6687 -0.8500
20324SOL    HW162694   9.005   7.602   4.511 -1.5259  0.9748 -0.5566
20324SOL    HW262695   9.018   7.506   4.394  1.6425 -1.0561  1.3219
20325SOL     OW62696   6.236   6.151   1.485 -0.2116  0.0827 -0.4346
20325SOL    HW162697   6.159   6.202   1.461 -1.6388 -0.3529  2.7263
20325SOL    HW262698   6.310   6.206   1.459 -1.6144  1.7241 -1.1484
20326SOL     OW62699   4.080   7.421   0.811 -0.5473 -0.3277  0.3933
20326SOL    HW162700   4.072   7.389   0.901 -4.1150  1.1487  0.7849
20326SOL    HW262701   4.147   7.488   0.815 -0.9000 -0.0319  2.0690
20327SOL     OW62702   7.708   4.987   7.778  0.4641 -0.6148  0.5677
20327SOL    HW162703   7.637   4.973   7.714 -0.3558  2.2636  0.7144
20327SOL    HW262704   7.787   4.996   7.724  0.3311 -1.3686  0.2244
20328SOL     OW62705   2.694   6.434   2.465 -0.6543  0.6495 -0.0043
20328SOL    HW162706   2.713   6.345   2.495 -0.2333  1.5029  2.5287
20328SOL    HW262707   2.761   6.451   2.399 -0.7710 -0.8913 -0.5764
20329SOL     OW62708   8.604   7.514   8.255  0.1658  0.2757 -0.3149
20329SOL    HW162709   8.693   7.519   8.289  0.0021  0.6127  0.0875
20329SOL    HW262710   8.549   7.536   8.331 -0.2499  0.1891 -0.5887
20330SOL     OW62711   5.880   8.899   0.885 -0.5116 -0.0889 -0.0228
20330SOL    HW162712   5.908   8.838   0.817  2.8177 -0.9108  1.8726
20330SOL    HW262713   5.908   8.859   0.967 -0.1141  2.9625  1.4815
20331SOL     OW62714   6.759   4.745   4.697 -0.8701  0.1386 -0.2655
20331SOL    HW162715   6.799   4.795   4.768  0.3896 -0.2407 -0.6650
20331SOL    HW262716   6.733   4.662   4.737 -1.8082  0.6134  0.1255
20332SOL     OW62717   0.301   5.486   1.820 -0.6696 -0.1517  0.3940
20332SOL    HW162718   0.249   5.455   1.747  1.0134 -0.8059 -0.5914
20332SOL    HW262719   0.320   5.578   1.798  2.5035 -1.1478 -1.7715
20333SOL     OW62720   2.207   4.910   6.994  0.3699 -0.2547  1.0965
20333SOL    HW162721   2.192   4.903   6.899  0.7955  0.8690  0.9378
20333SOL    HW262722   2.168   4.994   7.018 -1.2039 -1.2581  2.2369
20334SOL     OW62723   6.056   7.437   1.723  0.0594  0.2911  0.0484
20334SOL    HW162724   6.116   7.431   1.648  0.0549 -0.3844  0.0920
20334SOL    HW262725   5.976   7.394   1.693  0.2813 -0.5662  0.6473
20335SOL     OW62726   2.258   9.379   6.250  1.2278 -0.3811  0.3724
20335SOL    HW162727   2.303   9.464   6.250 -0.8463  0.8085  0.1687
20335SOL    HW262728   2.310   9.324   6.307  2.5040  1.1271  0.7395
20336SOL     OW62729   9.455   2.549   8.091  0.2738  0.2339  0.9441
20336SOL    HW162730   9.443   2.533   7.997 -0.4996  0.2063  1.0417
20336SOL    HW262731   9.401   2.626   8.109  1.5632  1.1472  1.0877
20337SOL     OW62732   7.589   8.516   6.097 -0.2271  0.4528  0.6714
20337SOL    HW162733   7.630   8.533   6.012  2.1673  2.5487  2.1034
20337SOL    HW262734   7.659   8.478   6.150 -0.5159  2.5372  2.7190
20338SOL     OW62735   5.672   5.182   0.959 -0.1497  0.3085  0.0601
20338SOL    HW162736   5.615   5.138   0.895 -1.6671  0.4600  1.2370
20338SOL    HW262737   5.724   5.243   0.907  0.2104 -1.0606 -1.2893
20339SOL     OW62738   8.474   0.354   6.711  0.0750  0.7833 -0.9321
20339SOL    HW162739   8.486   0.426   6.649  0.4539  0.4363 -1.2648
20339SOL    HW262740   8.391   0.374   6.754  0.5328  1.8260 -0.4778
20340SOL     OW62741   5.459   2.666   7.113 -0.3134 -0.0160  0.0390
20340SOL    HW162742   5.552   2.678   7.093 -0.3896 -0.5068 -0.6650
20340SOL    HW262743   5.439   2.734   7.176 -0.3470  2.5223 -2.5044
20341SOL     OW62744   1.353   9.672   7.862 -0.0958 -0.2110 -0.6086
20341SOL    HW162745   1.308   9.731   7.923  0.6693  1.2792 -1.4332
20341SOL    HW262746   1.384   9.730   7.792  2.2723 -1.3268 -0.5493
20342SOL     OW62747   6.158   8.896   6.654 -0.3169 -0.4430 -0.8506
20342SOL    HW162748   6.128   8.818   6.700 -0.2136  0.8882  1.6506
20342SOL    HW262749   6.224   8.863   6.592  0.6036 -2.2376  0.9593
20343SOL     OW62750   9.644   0.606   5.129 -0.0836 -0.0516  0.2111
20343SOL    HW162751   9.611   0.695   5.141 -0.5788 -0.3854  1.4388
20343SOL    HW262752   9.566   0.552   5.123  0.2114 -0.5796  0.9480
20344SOL     OW62753   4.775   8.091   4.000  0.2876  0.5021  0.1165
20344SOL    HW162754   4.868   8.070   3.987  0.2877  1.4332 -1.8150
20344SOL    HW262755   4.732   8.058   3.921 -0.8331  1.1102  0.4608
20345SOL     OW62756   2.448   9.236   4.996  0.2929 -0.0096  0.0913
20345SOL    HW162757   2.498   9.301   5.046  1.9847 -1.4789  0.4037
20345SOL    HW262758   2.380   9.207   5.057  1.0323 -0.2681  0.8050
20346SOL     OW62759   1.588   1.119   7.101 -0.6679  0.0545  0.0675
20346SOL    HW162760   1.651   1.188   7.123 -0.0243 -0.4724 -0.0653
20346SOL    HW262761   1.625   1.041   7.142 -0.7360 -0.4509 -0.8123
20347SOL     OW62762   1.838   6.130   3.351  0.3739 -0.2793  0.4603
20347SOL    HW162763   1.838   6.182   3.431  0.8329 -0.0843  0.3375
20347SOL    HW262764   1.750   6.093   3.346  0.6817 -1.2700  1.6833
20348SOL     OW62765   0.078   0.202   9.007 -0.2052  0.1604  0.1989
20348SOL    HW162766   0.112   0.187   9.095  0.5122 -0.4840 -0.1815
20348SOL    HW262767   0.136   0.269   8.970  0.7297 -0.9823 -0.4712
20349SOL     OW62768   0.320   8.762   9.512  1.1624 -0.4128 -0.1842
20349SOL    HW162769   0.306   8.711   9.592 -0.4344 -1.2156 -0.9347
20349SOL    HW262770   0.322   8.853   9.542 -0.8326 -0.5905  0.6374
20350SOL     OW62771   1.986   3.371   1.097 -0.4136 -0.0111 -0.7863
20350SOL    HW162772   2.030   3.428   1.161  0.8419 -1.0907 -0.6392
20350SOL    HW262773   1.963   3.429   1.025 -2.6604  1.4308  0.9742
20351SOL     OW62774   5.353   8.826   6.744  0.9262  0.5196  0.2600
20351SOL    HW162775   5.367   8.790   6.656  2.9876  1.3571  0.1717
20351SOL    HW262776   5.386   8.916   6.738 -0.0122  0.9875  1.6008
20352SOL     OW62777   7.805   8.911   8.326 -0.3003 -0.1272  0.0873
20352SOL    HW162778   7.837   8.960   8.402 -0.6040 -1.0806  0.8503
20352SOL    HW262779   7.727   8.959   8.298 -0.4095  0.0119  0.6176
20353SOL     OW62780   5.915   7.822   8.092  0.2705  0.0471  0.0502
20353SOL    HW162781   5.907   7.866   8.007  3.5926 -1.4295 -1.1817
20353SOL    HW262782   5.931   7.893   8.154  0.4893  0.9618 -1.0201
20354SOL     OW62783   8.026   6.356   0.876  0.2861 -0.5787 -0.1365
20354SOL    HW162784   7.935   6.377   0.856  0.0534 -2.2286 -0.9716
20354SOL    HW262785   8.023   6.317   0.963  0.1556 -0.8465 -0.2600
20355SOL     OW62786   6.849   1.749   5.426 -0.2273  0.1070  0.8149
20355SOL    HW162787   6.891   1.817   5.479 -1.1388  1.3591 -0.0096
20355SOL    HW262788   6.759   1.745   5.457 -0.3716 -0.2136  0.3733
20356SOL     OW62789   3.117   7.608   8.770  1.0099  0.2511 -0.3834
20356SOL    HW162790   3.193   7.659   8.741  1.0426 -0.1321 -0.9995
20356SOL    HW262791   3.047   7.672   8.777  1.5735  0.7482  0.9701
20357SOL     OW62792   7.776   4.490   6.800  0.4193  0.3152 -0.0983
20357SOL    HW162793   7.694   4.443   6.818 -0.3520  1.2974 -0.8814
20357SOL    HW262794   7.826   4.483   6.881 -0.9488  0.6711  0.8259
20358SOL     OW62795   3.667   1.308   2.198  0.5219  0.1866  0.0844
20358SOL    HW162796   3.758   1.278   2.199  0.0591 -1.3545 -0.4158
20358SOL    HW262797   3.648   1.323   2.106 -0.3849 -1.7909 -0.1035
20359SOL     OW62798   5.723   3.830   7.530  0.3734 -0.0548  0.0716
20359SOL    HW162799   5.684   3.746   7.555  1.2818 -0.4568  0.1732
20359SOL    HW262800   5.788   3.847   7.598  0.4955  0.5264 -0.1869
20360SOL     OW62801   1.019   0.138   5.540 -0.3850 -0.6829 -0.3842
20360SOL    HW162802   0.952   0.177   5.597  0.6599  2.9518 -1.3816
20360SOL    HW262803   1.102   0.161   5.581  0.4056  1.9940 -3.0809
20361SOL     OW62804   8.927   2.980   3.214 -0.1448 -1.0329  0.1679
20361SOL    HW162805   9.003   2.958   3.160 -1.0357 -1.1336 -1.1039
20361SOL    HW262806   8.964   3.005   3.299  1.4675  0.7942 -0.9717
20362SOL     OW62807   6.603   7.026   6.843 -0.2573  0.1530 -0.1446
20362SOL    HW162808   6.597   7.043   6.749 -2.4741 -0.3603 -0.1448
20362SOL    HW262809   6.512   7.024   6.873  0.3855 -0.1116  1.9494
20363SOL     OW62810   7.243   6.356   0.643 -0.1351 -0.3609 -0.1716
20363SOL    HW162811   7.167   6.301   0.623  0.4147 -0.3213 -2.6516
20363SOL    HW262812   7.307   6.335   0.575  0.4770  2.6389 -0.6507
20364SOL     OW62813   9.109   7.418   8.709  0.9338  0.0421  0.2659
20364SOL    HW162814   9.157   7.365   8.772 -1.0002 -0.2747  1.5565
20364SOL    HW262815   9.126   7.508   8.736 -0.9249 -0.0983  2.1722
20365SOL     OW62816   7.094   2.754   2.226  0.2286 -0.0357 -0.4182
20365SOL    HW162817   7.122   2.666   2.199  0.3455  0.3155 -1.4898
20365SOL    HW262818   7.175   2.805   2.229  0.0298  0.3185 -0.9312
20366SOL     OW62819   8.349   2.204   6.919  0.1777 -0.5247  0.0901
20366SOL    HW162820   8.332   2.276   6.979  0.4806  0.1043 -0.5613
20366SOL    HW262821   8.403   2.242   6.850 -1.2841 -0.8612 -1.3195
20367SOL     OW62822   1.894   0.072   7.767 -0.4358 -0.4617  0.4043
20367SOL    HW162823   1.875  -0.021   7.774  0.7445 -0.6836  0.8194
20367SOL    HW262824   1.879   0.107   7.855 -4.2391  0.4608 -0.4394
20368SOL     OW62825   4.489   6.137   9.424  0.2692  0.2796 -0.2204
20368SOL    HW162826   4.507   6.074   9.494 -0.6573 -0.9565 -1.0508
20368SOL    HW262827   4.416   6.098   9.375  0.0595  1.7311 -1.1144
20369SOL     OW62828   9.342   7.661   0.521  0.5418  0.8501  0.2637
20369SOL    HW162829   9.429   7.642   0.487  1.3590  1.0333  2.0970
20369SOL    HW262830   9.327   7.753   0.499 -0.4328  0.1370 -2.4637
20370SOL     OW62831   2.109   4.213   8.913 -0.3737 -1.0486  0.2178
20370SOL    HW162832   2.200   4.240   8.899  0.2120 -1.7059  2.3052
20370SOL    HW262833   2.057   4.281   8.871  1.0703 -0.1778 -0.2502
20371SOL     OW62834   8.619   4.830   8.398 -0.4706 -0.3462 -0.1803
20371SOL    HW162835   8.598   4.849   8.307 -0.9124  0.8753  0.1606
20371SOL    HW262836   8.543   4.859   8.448 -0.7798 -2.1469  0.5048
20372SOL     OW62837   3.758   6.184   4.229  0.3257  0.3065 -0.2418
20372SOL    HW162838   3.845   6.201   4.193 -0.8159 -0.0848 -3.4964
20372SOL    HW262839   3.752   6.088   4.231 -0.1037  0.3350 -0.1695
20373SOL     OW62840   9.267   7.836   5.436 -0.8634  0.2342 -0.5201
20373SOL    HW162841   9.268   7.885   5.354  0.6320  1.2300  0.0372
20373SOL    HW262842   9.214   7.889   5.496 -2.3202 -0.7071 -0.9236
20374SOL     OW62843   0.899   3.830   7.842  0.0164 -0.2917 -0.2953
20374SOL    HW162844   0.896   3.918   7.804  1.7494 -0.0465  0.0279
20374SOL    HW262845   0.837   3.833   7.915  0.3184  0.7936 -0.0671
20375SOL     OW62846   4.436   2.258   5.867  0.6345  0.5629 -0.0820
20375SOL    HW162847   4.461   2.227   5.954  1.7778  1.3624 -0.1066
20375SOL    HW262848   4.343   2.279   5.875  0.1619 -1.4573  0.3227
20376SOL     OW62849   3.712   4.621   1.293  0.4521 -0.0955  0.2061
20376SOL    HW162850   3.684   4.698   1.343  0.1418 -0.4768  0.6314
20376SOL    HW262851   3.652   4.552   1.320  1.7756 -0.9311  1.1220
20377SOL     OW62852   2.294   7.470   6.547 -0.6429  0.1782  0.0520
20377SOL    HW162853   2.289   7.412   6.471 -0.3140  0.2083  0.0058
20377SOL    HW262854   2.336   7.417   6.615 -1.0526  0.1097  0.2557
20378SOL     OW62855   2.781   7.532   5.487 -0.5125 -0.0979  0.4264
20378SOL    HW162856   2.867   7.565   5.514 -1.2103  0.5933  1.9548
20378SOL    HW262857   2.768   7.569   5.400  0.9252 -0.6031 -0.0370
20379SOL     OW62858   6.400   8.062   1.732 -0.1180  0.3504 -0.3142
20379SOL    HW162859   6.450   8.042   1.811  0.1287 -1.1031 -0.7954
20379SOL    HW262860   6.318   8.098   1.764  0.6772  1.4782  0.5370
20380SOL     OW62861   1.497   4.523   2.207 -0.5178 -0.4235  0.1857
20380SOL    HW162862   1.428   4.538   2.143 -0.3175  1.0422  0.2862
20380SOL    HW262863   1.562   4.469   2.161 -0.3570  0.6317 -0.8694
20381SOL     OW62864   2.453   6.012   4.116  0.1758  0.3274 -0.8135
20381SOL    HW162865   2.393   6.080   4.146 -0.6296 -1.1497  1.1357
20381SOL    HW262866   2.538   6.039   4.151  0.0573  0.8181 -0.8892
20382SOL     OW62867   3.615   8.139   8.745 -0.6894  0.2027 -0.0272
20382SOL    HW162868   3.609   8.055   8.701 -1.4396  0.1500  0.1707
20382SOL    HW262869   3.690   8.129   8.804  0.4282  0.3332 -1.3780
20383SOL     OW62870   1.082   0.453   7.374 -0.3163  0.1984  0.5241
20383SOL    HW162871   1.116   0.499   7.451  0.2428 -0.0187  0.4127
20383SOL    HW262872   1.157   0.448   7.314 -0.2831 -1.0913  0.6449
20384SOL     OW62873   2.007   3.385   7.596 -0.1096  0.3878 -0.0271
20384SOL    HW162874   1.931   3.420   7.550 -1.5372 -0.0485  1.8612
20384SOL    HW262875   2.071   3.456   7.595 -0.9934  1.2023 -0.6229
20385SOL     OW62876   5.983   6.797   5.159  0.6020  0.3830  0.2620
20385SOL    HW162877   5.977   6.719   5.105  1.8615  1.4047 -1.4591
20385SOL    HW262878   6.007   6.765   5.246 -1.4791 -1.3044  0.3135
20386SOL     OW62879   3.390   1.497   7.484  0.1505  0.3047 -0.3743
20386SOL    HW162880   3.355   1.441   7.415  0.3747  0.3954 -0.5633
20386SOL    HW262881   3.370   1.451   7.565  3.3790 -1.8234 -0.6216
20387SOL     OW62882   1.448   4.900   6.923 -0.1451 -0.4764  0.2354
20387SOL    HW162883   1.411   4.981   6.958  0.3593 -0.4713  0.7710
20387SOL    HW262884   1.384   4.832   6.946 -1.4492 -0.0150 -1.7321
20388SOL     OW62885   2.945   8.997   1.635 -0.3113 -0.2116  0.2043
20388SOL    HW162886   2.916   9.084   1.607  0.4670 -0.1515 -0.4376
20388SOL    HW262887   3.010   9.013   1.702  1.0462 -0.2240 -1.0525
20389SOL     OW62888   3.021   4.891   2.188 -0.3183  0.4893  0.9942
20389SOL    HW162889   3.094   4.836   2.160 -0.1904  0.8393  0.6237
20389SOL    HW262890   3.021   4.885   2.283  1.2756  1.8476  1.1226
20390SOL     OW62891   0.225   5.740   9.071  0.1243  0.0419 -0.8012
20390SOL    HW162892   0.139   5.746   9.030  0.6124 -0.7047 -1.9866
20390SOL    HW262893   0.283   5.789   9.013 -0.0069  3.4978  1.7065
20391SOL     OW62894   2.395   2.270   1.459  0.3932 -0.0652 -0.4361
20391SOL    HW162895   2.313   2.319   1.466  0.2815 -0.4041  0.6918
20391SOL    HW262896   2.450   2.304   1.529  0.6092 -1.0000 -0.1401
20392SOL     OW62897   0.596   7.649   1.220 -0.1271 -0.0761  0.1391
20392SOL    HW162898   0.501   7.660   1.216 -0.0544  0.4341 -0.2724
20392SOL    HW262899   0.625   7.659   1.130  0.2044 -1.4197  0.0694
20393SOL     OW62900   4.304   5.478   3.429 -0.4156 -0.4804  0.2726
20393SOL    HW162901   4.213   5.448   3.428  0.2005 -2.7698 -2.7159
20393SOL    HW262902   4.335   5.457   3.518 -2.5740 -0.2246  1.1460
20394SOL     OW62903   2.038   1.642   3.291  0.1653 -0.2052 -0.1002
20394SOL    HW162904   1.947   1.646   3.262 -0.7328  0.7797  2.6038
20394SOL    HW262905   2.070   1.557   3.258 -2.0508 -1.0369 -0.2512
20395SOL     OW62906   2.348   8.252   4.390 -0.0425 -0.4473 -0.0309
20395SOL    HW162907   2.307   8.309   4.326 -0.2069  0.6793  1.0437
20395SOL    HW262908   2.441   8.255   4.369 -0.0321  0.3528  0.1003
20396SOL     OW62909   5.456   3.308   7.079  0.5606 -0.1931 -0.1823
20396SOL    HW162910   5.520   3.319   7.009  0.4518 -1.0012 -0.4250
20396SOL    HW262911   5.398   3.384   7.071  2.5499  1.5909  1.2267
20397SOL     OW62912   4.828   8.144   0.305 -0.2256 -0.3189  0.2332
20397SOL    HW162913   4.896   8.113   0.365 -2.0681 -3.1216  1.0874
20397SOL    HW262914   4.837   8.089   0.227  0.6859  1.7423 -1.2024
20398SOL     OW62915   5.854   0.758   9.426 -0.1033  0.3984 -0.2957
20398SOL    HW162916   5.896   0.701   9.490 -0.3715  1.4261  0.8355
20398SOL    HW262917   5.764   0.727   9.422 -0.7649  1.8427  1.7431
20399SOL     OW62918   8.977   1.628   5.628  0.1414  0.1834  0.2467
20399SOL    HW162919   8.983   1.534   5.616 -1.6906  0.0342  0.1741
20399SOL    HW262920   8.910   1.640   5.695  1.1403  1.4074  1.0681
20400SOL     OW62921   1.336   3.393   9.239  0.3632  0.1081  0.1002
20400SOL    HW162922   1.394   3.394   9.314 -1.0197  1.2040  1.2210
20400SOL    HW262923   1.337   3.483   9.206 -0.8351  0.2188  0.3008
20401SOL     OW62924   7.149   0.217   2.475  0.2749  0.3459 -0.4462
20401SOL    HW162925   7.122   0.302   2.439 -0.6127  1.4443  2.4467
20401SOL    HW262926   7.081   0.197   2.540  2.8126 -0.2572  2.2119
20402SOL     OW62927   1.950   8.680   6.905 -0.1340  0.4320  0.1768
20402SOL    HW162928   1.956   8.619   6.831  1.9840  0.4767  0.2371
20402SOL    HW262929   1.993   8.634   6.977 -1.6762  0.6135  1.2601
20403SOL     OW62930   2.717   5.716   2.670 -0.4601 -0.0850 -0.6924
20403SOL    HW162931   2.806   5.681   2.672 -0.1385  0.6895  1.7564
20403SOL    HW262932   2.666   5.649   2.625  1.4972 -0.0543 -3.1753
20404SOL     OW62933   2.451   0.647   8.037 -0.7694  0.0794  0.4992
20404SOL    HW162934   2.397   0.691   8.102  1.0732 -0.5224  2.5502
20404SOL    HW262935   2.514   0.714   8.008 -0.7148 -0.0283  0.3649
20405SOL     OW62936   3.108   4.157   2.681  0.0313  0.2405  0.2005
20405SOL    HW162937   3.195   4.192   2.662 -0.0675  0.5827  0.3691
20405SOL    HW262938   3.100   4.164   2.776 -0.2377  0.3448  0.1703
20406SOL     OW62939   6.769   4.278   5.998 -0.5015 -0.0323 -0.4254
20406SOL    HW162940   6.741   4.276   5.907  0.4927  0.6906 -0.7620
20406SOL    HW262941   6.851   4.326   5.997 -2.2124  3.2160  1.3193
20407SOL     OW62942   5.138   5.386   6.284  0.1731 -0.0685 -0.2639
20407SOL    HW162943   5.189   5.404   6.205  1.7098  0.9198  0.9016
20407SOL    HW262944   5.184   5.433   6.353 -0.9728 -1.1376  1.2771
20408SOL     OW62945   2.031   3.027   5.984  0.2241 -0.3990  0.4536
20408SOL    HW162946   2.095   2.974   6.032  0.0365 -0.4368  0.6672
20408SOL    HW262947   1.957   2.968   5.970  0.6473 -0.6739 -0.7161
20409SOL     OW62948   5.956   2.131   9.393 -0.1761  0.0382 -0.6462
20409SOL    HW162949   6.023   2.108   9.329  1.5978  0.2609  1.0411
20409SOL    HW262950   5.903   2.198   9.350 -0.5255 -1.4907 -2.7072
20410SOL     OW62951   2.283   3.060   1.736  0.4205 -0.3606 -0.1890
20410SOL    HW162952   2.319   3.058   1.824  1.2433 -0.3349 -0.5145
20410SOL    HW262953   2.267   3.152   1.719 -0.1447 -0.4050  0.0907
20411SOL     OW62954   4.093   1.526   4.875  0.3399 -0.1487 -0.1658
20411SOL    HW162955   4.042   1.573   4.941 -1.1942 -1.0023 -0.6892
20411SOL    HW262956   4.117   1.593   4.812 -1.3530  0.0893 -0.6253
20412SOL     OW62957   8.825   8.828   7.122  0.1039 -0.1217  0.2849
20412SOL    HW162958   8.917   8.847   7.102  0.4426 -2.3411 -0.4443
20412SOL    HW262959   8.795   8.906   7.170  2.0072  1.1602 -0.4780
20413SOL     OW62960   6.660   7.592   7.051  0.3319  0.3739  0.3495
20413SOL    HW162961   6.651   7.508   7.007  1.5828 -1.2131  2.9354
20413SOL    HW262962   6.755   7.601   7.065  0.1511  1.8987  0.7488
20414SOL     OW62963   4.002   9.487   5.290  0.1335  0.3861 -0.0035
20414SOL    HW162964   3.968   9.558   5.344  0.3702  0.9467 -0.5839
20414SOL    HW262965   3.930   9.424   5.286  0.9081 -0.8255  2.9375
20415SOL     OW62966   2.248   0.818   5.883 -0.3239  0.1644  0.5359
20415SOL    HW162967   2.206   0.741   5.923  0.5258 -0.5241  0.1345
20415SOL    HW262968   2.182   0.887   5.888 -1.2948 -0.7354  0.4277
20416SOL     OW62969   4.800   6.899   4.985  0.0165 -0.3216  0.1246
20416SOL    HW162970   4.884   6.853   4.976 -1.1466 -2.5483 -0.1060
20416SOL    HW262971   4.734   6.833   4.963 -1.7970  1.5284 -0.2767
20417SOL     OW62972   9.221   0.935   4.151  0.3904 -0.3396 -0.0434
20417SOL    HW162973   9.168   1.014   4.136  1.5793  0.7401  1.1032
20417SOL    HW262974   9.158   0.863   4.151 -0.6623  0.5187 -1.7072
20418SOL     OW62975   0.148   3.684   8.986 -0.3664  0.3361  0.4474
20418SOL    HW162976   0.113   3.647   9.067  0.1448 -0.5750  0.2711
20418SOL    HW262977   0.182   3.770   9.011 -0.4877  0.1878  1.1279
20419SOL     OW62978   9.641   0.275   5.024  0.4816  0.6070 -0.3233
20419SOL    HW162979   9.736   0.280   5.034  0.5378  2.4696 -1.4918
20419SOL    HW262980   9.610   0.244   5.110  2.1916 -1.3243 -0.3265
20420SOL     OW62981   2.666   3.385   6.780  0.1225  0.1004 -0.4826
20420SOL    HW162982   2.722   3.325   6.830  0.5802 -0.6712 -1.8642
20420SOL    HW262983   2.698   3.378   6.690 -1.1945  0.8418 -1.0389
20421SOL     OW62984   7.929   3.585   9.173  0.4331  0.5363 -0.0652
20421SOL    HW162985   7.877   3.610   9.250 -0.3015  1.1096 -0.7353
20421SOL    HW262986   7.892   3.501   9.145  0.7266  0.3082  0.2279
20422SOL     OW62987   6.283   4.545   4.460  0.6056 -1.1698 -0.2328
20422SOL    HW162988   6.255   4.464   4.417  2.2271 -1.6245 -0.4683
20422SOL    HW262989   6.322   4.516   4.542 -2.6934 -0.3069  1.8659
20423SOL     OW62990   0.029   2.020   7.902 -0.0866 -0.5125 -0.0615
20423SOL    HW162991   0.043   1.961   7.827 -0.8099  0.5915 -1.1137
20423SOL    HW262992  -0.048   2.072   7.877  1.8430  2.4766 -0.2593
20424SOL     OW62993   5.197   1.901   6.645 -0.4126  0.4719  0.4825
20424SOL    HW162994   5.215   1.957   6.720 -1.6787 -0.0592  1.2022
20424SOL    HW262995   5.259   1.930   6.578 -0.7250  2.4350  0.9830
20425SOL     OW62996   3.476   5.677   3.880  0.0291  0.3304 -0.4750
20425SOL    HW162997   3.414   5.650   3.813 -0.2228  0.8019 -0.4387
20425SOL    HW262998   3.421   5.694   3.957  0.1150  1.4026 -0.6364
20426SOL     OW62999   3.914   8.117   3.382  0.0876 -0.0838 -0.1539
20426SOL    HW163000   3.994   8.094   3.430 -0.0686 -2.6708 -1.0107
20426SOL    HW263001   3.864   8.036   3.379 -1.3150  0.7924 -2.0416
20427SOL     OW63002   6.061   3.819   7.127 -0.7395 -0.2019 -0.1587
20427SOL    HW163003   6.148   3.801   7.090 -0.8033 -0.1732 -0.3250
20427SOL    HW263004   6.002   3.759   7.081 -0.8609  0.0193 -0.2935
20428SOL     OW63005   4.810   0.622   0.363 -0.0554  0.2851  0.4172
20428SOL    HW163006   4.865   0.614   0.441  1.3850 -1.3963 -0.6913
20428SOL    HW263007   4.762   0.540   0.359  1.3184 -0.5155 -1.4163
20429SOL     OW63008   6.375   7.821   7.328  0.2335 -0.0006 -0.0360
20429SOL    HW163009   6.435   7.747   7.335 -1.7151 -1.5311  1.8079
20429SOL    HW263010   6.313   7.795   7.259  1.2252  1.2677 -1.4577
20430SOL     OW63011   8.815   8.083   4.768  0.1028  0.2794 -0.1831
20430SOL    HW163012   8.801   8.007   4.712  0.7300  0.7763 -1.0424
20430SOL    HW263013   8.890   8.059   4.822 -1.3760 -0.7638  1.5073
20431SOL     OW63014   5.396   2.213   0.198  0.1471  0.1119  0.3053
20431SOL    HW163015   5.454   2.243   0.128 -0.7107  0.7935 -0.1195
20431SOL    HW263016   5.309   2.210   0.159 -0.1479 -0.7868  0.9717
20432SOL     OW63017   0.479   3.648   4.803  0.0768  0.5571  0.3019
20432SOL    HW163018   0.496   3.679   4.714  2.7167  2.4452  1.3549
20432SOL    HW263019   0.384   3.638   4.806  0.0209 -2.5185 -3.5562
20433SOL     OW63020   5.459   4.076   0.603 -0.0462  0.2284  0.2571
20433SOL    HW163021   5.427   4.143   0.542  0.5125  0.0431 -0.2503
20433SOL    HW263022   5.478   4.000   0.548  0.2317 -0.0289  0.6979
20434SOL     OW63023   1.957   5.477   6.916 -0.0816 -0.0457  0.3257
20434SOL    HW163024   2.010   5.557   6.914  0.2495 -0.2555 -1.9710
20434SOL    HW263025   2.018   5.408   6.889 -1.2152 -0.4829 -1.2171
20435SOL     OW63026   1.606   8.685   3.669 -0.2387  0.1790 -0.3796
20435SOL    HW163027   1.529   8.740   3.657 -0.0789  0.1104 -1.9979
20435SOL    HW263028   1.626   8.691   3.762 -1.7801  0.7488 -0.0568
20436SOL     OW63029   5.256   1.717   1.275  0.5700 -0.3881 -0.1751
20436SOL    HW163030   5.174   1.763   1.292  0.6842 -0.4327  0.5316
20436SOL    HW263031   5.231   1.624   1.277  0.3874 -0.3795 -1.3449
20437SOL     OW63032   3.106   7.765   2.935 -0.4774  0.0892  0.4171
20437SOL    HW163033   3.199   7.767   2.911 -0.4909  1.6125  0.3945
20437SOL    HW263034   3.104   7.718   3.018  0.1999 -0.7429 -0.0192
20438SOL     OW63035   1.928   0.191   9.118 -0.1448  0.2132 -0.1335
20438SOL    HW163036   1.967   0.122   9.064  1.0474 -0.5032  1.5533
20438SOL    HW263037   1.998   0.255   9.130 -0.0587 -0.1025  1.2920
20439SOL     OW63038   6.530   5.595   6.027 -0.4747 -0.9360 -0.2652
20439SOL    HW163039   6.563   5.551   6.105  0.6248  0.6276  0.2085
20439SOL    HW263040   6.608   5.637   5.989 -1.3129 -0.1592 -1.1683
20440SOL     OW63041   1.802   8.554   6.293 -0.0509 -0.5582 -0.2241
20440SOL    HW163042   1.844   8.558   6.207  0.7960  0.8065  0.2177
20440SOL    HW263043   1.738   8.625   6.292  0.4388 -0.0936  0.4987
20441SOL     OW63044   3.057   1.350   4.146 -0.3753  0.4241 -0.1336
20441SOL    HW163045   3.062   1.399   4.063  1.3582  1.4882  0.5492
20441SOL    HW263046   3.071   1.259   4.121 -1.1319  0.5646 -1.1430
20442SOL     OW63047   3.922   4.056   2.313  0.6172 -0.6934  0.3724
20442SOL    HW163048   3.964   4.140   2.294 -0.0170 -0.5218 -0.3434
20442SOL    HW263049   3.829   4.077   2.320  0.4147 -1.3891 -0.1506
20443SOL     OW63050   8.278   2.063   5.694  0.5972  0.1924 -0.3124
20443SOL    HW163051   8.301   2.153   5.668 -1.5952  0.6188 -1.0444
20443SOL    HW263052   8.353   2.010   5.668  1.6874  1.7310 -0.4252
20444SOL     OW63053   2.324   5.869   8.649 -0.2497  0.1233  0.4773
20444SOL    HW163054   2.376   5.875   8.568  0.2051 -0.1195  0.7460
20444SOL    HW263055   2.384   5.830   8.713  0.0568  2.1547  1.4980
20445SOL     OW63056   1.966   1.617   2.283  0.8202 -0.6510 -0.6308
20445SOL    HW163057   1.889   1.639   2.231  0.1633  0.7546  0.8720
20445SOL    HW263058   2.039   1.622   2.221  0.0521  0.8344 -1.4680
20446SOL     OW63059   1.999   5.292   7.322  0.3801 -0.3973 -0.4393
20446SOL    HW163060   2.033   5.356   7.259  0.6391 -1.4490 -1.4070
20446SOL    HW263061   1.973   5.344   7.397 -1.7367  1.1700 -2.1198
20447SOL     OW63062   2.249   3.655   3.449 -0.0999 -0.1007  0.5297
20447SOL    HW163063   2.329   3.692   3.487  0.1903 -0.6357  0.4532
20447SOL    HW263064   2.251   3.562   3.474 -0.7381 -0.1069  0.5893
20448SOL     OW63065   0.905   4.500   9.529 -0.1798 -0.1827 -0.1728
20448SOL    HW163066   0.877   4.492   9.438  0.6717 -1.5395 -0.3492
20448SOL    HW263067   0.858   4.431   9.576  0.9577 -0.8887 -0.0183
20449SOL     OW63068   1.833   6.330   0.627  0.1375  0.2201 -0.2088
20449SOL    HW163069   1.860   6.371   0.545  1.3299 -1.6192 -0.8007
20449SOL    HW263070   1.744   6.300   0.611 -0.2267  1.2741 -0.2470
20450SOL     OW63071   6.262   7.869   4.370  0.2970 -0.3126 -0.2284
20450SOL    HW163072   6.240   7.876   4.277  0.8144 -0.7172 -0.3886
20450SOL    HW263073   6.321   7.943   4.387  0.1170 -0.1770 -0.1978
20451SOL     OW63074   8.122   7.201   6.029  0.3768  0.3015 -0.1654
20451SOL    HW163075   8.053   7.137   6.013 -0.4226  1.2887 -0.8309
20451SOL    HW263076   8.131   7.204   6.125  0.3200 -0.6774 -0.1254
20452SOL     OW63077   5.778   5.654   6.448  0.1455 -0.3457 -0.4012
20452SOL    HW163078   5.776   5.558   6.453 -0.5835 -0.3569 -0.6812
20452SOL    HW263079   5.869   5.677   6.466  0.5479 -1.1507 -1.2946
20453SOL     OW63080   0.092   2.298   3.386  0.0840 -0.5114  0.7245
20453SOL    HW163081   0.157   2.258   3.328 -0.4960 -0.3542 -0.0410
20453SOL    HW263082   0.122   2.275   3.474  0.5837 -1.3590  0.3456
20454SOL     OW63083   1.230   3.800   2.184 -0.5261 -0.6838  0.0485
20454SOL    HW163084   1.301   3.789   2.246 -0.9151  1.3052  0.9256
20454SOL    HW263085   1.151   3.808   2.239 -1.0192  0.0413 -0.7330
20455SOL     OW63086   4.550   8.495   0.654 -0.1455  0.0940 -0.3458
20455SOL    HW163087   4.477   8.478   0.714 -0.8777  2.1343 -0.5852
20455SOL    HW263088   4.620   8.436   0.684 -0.9041  0.1725  1.7528
20456SOL     OW63089   3.625   1.426   5.664  0.3987 -0.3820  1.1663
20456SOL    HW163090   3.699   1.417   5.603  0.3067 -0.1396  1.0144
20456SOL    HW263091   3.646   1.368   5.736 -0.2581 -1.9258  0.1679
20457SOL     OW63092   0.309   7.821   5.277 -0.4058 -0.7760  0.5766
20457SOL    HW163093   0.378   7.756   5.291  1.3437  0.8938  0.1863
20457SOL    HW263094   0.244   7.802   5.344  1.8865 -0.5746  3.0480
20458SOL     OW63095   4.076   3.779   3.276  0.6392 -0.0225  0.2505
20458SOL    HW163096   4.138   3.798   3.347  0.7855 -0.7434  0.3216
20458SOL    HW263097   4.132   3.757   3.201  0.4683 -0.6959  0.3203
20459SOL     OW63098   6.368   2.760   1.612 -0.0183 -0.5515  0.4288
20459SOL    HW163099   6.294   2.700   1.625 -0.5790 -0.2035 -0.9701
20459SOL    HW263100   6.364   2.784   1.519  2.2178 -0.9851  0.1531
20460SOL     OW63101   6.979   2.807   4.142  0.7903  0.2330 -0.5221
20460SOL    HW163102   6.974   2.900   4.122 -0.5659  0.1309 -0.7439
20460SOL    HW263103   7.021   2.803   4.228  0.1297  1.0960 -0.1442
20461SOL     OW63104   2.725   0.337   5.365 -0.4243 -0.7332 -0.4979
20461SOL    HW163105   2.686   0.353   5.279  0.7923 -1.2904 -1.1724
20461SOL    HW263106   2.775   0.256   5.354  0.0013 -0.6379  0.6490
20462SOL     OW63107   2.251   0.174   4.807  0.2002  0.5716 -0.5899
20462SOL    HW163108   2.245   0.093   4.757  2.0575 -0.3914  0.6061
20462SOL    HW263109   2.306   0.232   4.754 -0.2101  0.6389 -0.9429
20463SOL     OW63110   1.816   0.572   4.717  0.2726 -0.1308 -0.3731
20463SOL    HW163111   1.851   0.511   4.782 -0.7486 -0.7624 -0.3879
20463SOL    HW263112   1.878   0.644   4.716  0.6835 -0.4418  0.7960
20464SOL     OW63113   5.039   1.169   0.208 -0.4668  0.3041 -0.6952
20464SOL    HW163114   5.021   1.263   0.208 -1.1910  0.1900 -1.9011
20464SOL    HW263115   5.020   1.141   0.118 -0.2281 -0.9885 -0.3651
20465SOL     OW63116   8.534   4.832   1.025 -0.7767  0.0002 -0.4510
20465SOL    HW163117   8.541   4.837   0.930 -3.4086  2.9161 -0.6589
20465SOL    HW263118   8.451   4.786   1.041  0.4106 -1.9376  0.5736
20466SOL     OW63119   6.251   4.652   7.695 -0.2049  0.3794  0.5664
20466SOL    HW163120   6.208   4.701   7.765  0.4056  0.3571  0.9671
20466SOL    HW263121   6.336   4.695   7.686  0.7553 -1.1946  1.6031
20467SOL     OW63122   0.779   2.032   4.923 -0.1815 -0.5176 -0.6668
20467SOL    HW163123   0.807   1.941   4.909  0.5946 -0.3527 -0.2377
20467SOL    HW263124   0.772   2.068   4.835  2.1629 -0.2301 -0.7869
20468SOL     OW63125   5.678   4.803   3.303 -0.3869  0.2713 -0.3246
20468SOL    HW163126   5.620   4.876   3.280 -0.4461  0.7753  1.2922
20468SOL    HW263127   5.619   4.736   3.336 -0.1173  0.6374  0.9571
20469SOL     OW63128   9.354   5.970   0.130  0.3368 -0.3395 -0.8759
20469SOL    HW163129   9.446   5.978   0.155  0.1432  0.7961 -0.4513
20469SOL    HW263130   9.328   5.883   0.161  1.0236 -0.3124 -0.2055
20470SOL     OW63131   2.284   1.675   5.188 -0.1720 -0.4797  0.1712
20470SOL    HW163132   2.246   1.669   5.101  0.6724 -1.7736 -0.1341
20470SOL    HW263133   2.344   1.750   5.184  0.6867 -1.1994 -0.7043
20471SOL     OW63134   1.593   6.908   1.633  0.0868 -0.0785 -0.0918
20471SOL    HW163135   1.512   6.865   1.662 -0.4068  0.1810 -1.0388
20471SOL    HW263136   1.648   6.836   1.602  0.3605 -0.2894  0.8463
20472SOL     OW63137   1.468   7.334   3.050 -0.6631  0.4673 -0.0475
20472SOL    HW163138   1.485   7.240   3.059 -1.2987  0.1792 -1.4989
20472SOL    HW263139   1.453   7.364   3.139 -3.5806 -1.4734  0.2490
20473SOL     OW63140   1.392   1.410   2.350  0.2505  0.5417 -0.1967
20473SOL    HW163141   1.319   1.350   2.336 -1.3482  2.0170  1.2543
20473SOL    HW263142   1.420   1.435   2.262  0.1973 -1.3958 -0.7988
20474SOL     OW63143   5.309   7.156   5.596  0.3883  0.2555  0.0977
20474SOL    HW163144   5.282   7.193   5.680  0.4507 -1.2167  0.7905
20474SOL    HW263145   5.332   7.065   5.616  2.0515  0.3415 -1.1929
20475SOL     OW63146   0.632   6.072   9.031  0.4753 -0.1611  0.0445
20475SOL    HW163147   0.675   6.156   9.048  0.8768 -0.3627  0.0356
20475SOL    HW263148   0.680   6.009   9.085  0.5409 -0.4776 -0.3730
20476SOL     OW63149   7.489   6.386   5.334 -0.2282 -0.5215 -0.1981
20476SOL    HW163150   7.462   6.375   5.426 -1.7029  0.2266 -0.5089
20476SOL    HW263151   7.411   6.419   5.290  0.3714 -1.1397 -1.8014
20477SOL     OW63152   8.277   5.562   3.759 -0.0928 -0.0115 -0.2793
20477SOL    HW163153   8.238   5.475   3.752 -1.2396  0.5716 -1.8301
20477SOL    HW263154   8.286   5.592   3.668 -0.8430  1.9367  0.2163
20478SOL     OW63155   0.482   0.381   8.564 -0.3743  0.0539  0.0394
20478SOL    HW163156   0.565   0.336   8.582 -0.0788  0.3246 -0.6031
20478SOL    HW263157   0.503   0.474   8.571  0.3249  0.3497 -3.5726
20479SOL     OW63158   9.174   5.617   1.365 -0.1383  0.1520 -0.2583
20479SOL    HW163159   9.218   5.652   1.442  0.4117 -1.1448  0.0477
20479SOL    HW263160   9.166   5.691   1.305  2.9618  0.3929 -0.5544
20480SOL     OW63161   0.184   3.882   4.506  0.3362 -0.8206 -0.4824
20480SOL    HW163162   0.200   3.955   4.566  0.3177 -0.1338 -1.2974
20480SOL    HW263163   0.255   3.887   4.442 -1.1425  0.1671 -2.1342
20481SOL     OW63164   0.862   2.727   4.090 -0.0013  0.5382  0.4420
20481SOL    HW163165   0.877   2.635   4.067 -0.6654  0.3865  0.5998
20481SOL    HW263166   0.903   2.776   4.019 -0.7318  0.0966 -0.3055
20482SOL     OW63167   2.652   0.792   3.092  0.1481  0.1306 -0.0806
20482SOL    HW163168   2.610   0.707   3.107  1.9326 -1.1338 -1.7426
20482SOL    HW263169   2.734   0.787   3.141 -0.2323  1.3766  0.7223
20483SOL     OW63170   9.498   5.707   5.957  0.7164 -0.3730  0.0183
20483SOL    HW163171   9.569   5.656   5.994  1.4305  0.7294  0.2051
20483SOL    HW263172   9.541   5.782   5.916 -0.4014  1.0191  1.2840
20484SOL     OW63173   0.594   7.818   7.091  0.0846 -0.2420  0.4516
20484SOL    HW163174   0.621   7.731   7.122 -0.8629 -0.1720  1.5282
20484SOL    HW263175   0.514   7.837   7.140  1.2067  2.0002  1.5694
20485SOL     OW63176   4.574   2.560   6.442  0.4590  0.9304 -0.0092
20485SOL    HW163177   4.509   2.515   6.497  0.2685  1.0773 -0.1110
20485SOL    HW263178   4.611   2.491   6.387  0.8402  0.7348  0.4851
20486SOL     OW63179   3.605   4.484   3.103 -0.0944  0.1312  0.3261
20486SOL    HW163180   3.544   4.525   3.164  0.1961  1.3135 -0.1546
20486SOL    HW263181   3.635   4.405   3.149  1.0566  1.6052  2.2832
20487SOL     OW63182   1.174   2.020   4.638  0.1356 -0.2640 -0.1239
20487SOL    HW163183   1.239   1.951   4.650  0.1767 -0.6545 -2.1888
20487SOL    HW263184   1.091   1.973   4.629  0.0838 -0.0261 -0.9796
20488SOL     OW63185   7.804   5.781   1.326 -0.2001 -0.0385 -0.0049
20488SOL    HW163186   7.754   5.783   1.407  0.6728  0.9701  0.5319
20488SOL    HW263187   7.869   5.851   1.335 -2.0903  2.3409 -2.9026
20489SOL     OW63188   7.977   5.410   2.333 -0.4506 -0.2319  0.4951
20489SOL    HW163189   8.003   5.318   2.326  1.4853  0.2203  0.9398
20489SOL    HW263190   7.914   5.423   2.262 -0.4314 -1.7821  0.1542
20490SOL     OW63191   3.875   0.573   1.234  0.0035 -0.3546 -0.1486
20490SOL    HW163192   3.935   0.533   1.297 -2.3003  0.2796  2.7152
20490SOL    HW263193   3.836   0.499   1.187  0.4591 -1.0104  0.4887
20491SOL     OW63194   2.754   2.260   7.594 -0.7023  0.2870  0.1195
20491SOL    HW163195   2.847   2.265   7.614  0.1710 -1.3453 -2.8672
20491SOL    HW263196   2.720   2.194   7.654 -0.1516  1.4605  1.7749
20492SOL     OW63197   0.017   6.476   8.291  0.0119  0.3512 -0.7486
20492SOL    HW163198  -0.053   6.481   8.356 -0.1089 -0.6245 -0.7943
20492SOL    HW263199   0.097   6.465   8.341  0.0488  0.7031 -0.7277
20493SOL     OW63200   5.931   6.078   4.529  0.4221 -0.5068 -0.1214
20493SOL    HW163201   5.942   6.173   4.537 -0.6761 -0.3886  0.2186
20493SOL    HW263202   6.005   6.050   4.477  1.1287  0.4487  0.3352
20494SOL     OW63203   1.495   9.652   0.652  0.4923  0.1784 -0.2438
20494SOL    HW163204   1.564   9.618   0.709  0.3731 -0.0697 -0.2492
20494SOL    HW263205   1.414   9.615   0.687  0.3915  0.2328 -0.4191
20495SOL     OW63206   1.319   1.311   5.447 -0.6821  0.7274 -0.1236
20495SOL    HW163207   1.299   1.401   5.474 -1.9919  1.0216 -1.8369
20495SOL    HW263208   1.237   1.263   5.462  0.2802 -0.4734  1.6763
20496SOL     OW63209   9.321   7.722   9.298 -0.4541  0.4501  0.1827
20496SOL    HW163210   9.390   7.770   9.345 -2.3339  1.4310  2.1114
20496SOL    HW263211   9.305   7.773   9.219  1.1408  0.0690 -0.4366
20497SOL     OW63212   5.772   1.686   7.444 -0.3940  0.1093  0.0177
20497SOL    HW163213   5.836   1.713   7.510  0.4522 -2.7051  0.5052
20497SOL    HW263214   5.825   1.642   7.376 -1.7100 -2.5561  0.5739
20498SOL     OW63215   1.034   0.163   5.870  0.3392  0.2775  0.4439
20498SOL    HW163216   1.056   0.235   5.929  0.3416 -0.8079  1.8204
20498SOL    HW263217   0.940   0.150   5.882  0.4797 -0.4452  0.7891
20499SOL     OW63218   5.072   3.240   0.783  0.2600 -0.5562 -0.2497
20499SOL    HW163219   5.136   3.227   0.854 -0.7919 -1.7269  0.5223
20499SOL    HW263220   5.000   3.288   0.825 -0.3672 -1.2531 -0.5153
20500SOL     OW63221   4.550   0.028   6.966  0.1696  0.9470 -0.2854
20500SOL    HW163222   4.542   0.099   6.903 -0.0137  0.6438 -0.6087
20500SOL    HW263223   4.581  -0.046   6.914  0.3680  0.7930  0.0503
20501SOL     OW63224   3.905   0.570   8.856  0.3135 -0.4521  0.0851
20501SOL    HW163225   3.978   0.551   8.797 -0.6568 -0.5030 -1.1368
20501SOL    HW263226   3.857   0.487   8.860  0.6152 -0.5783  1.3253
20502SOL     OW63227   8.534   0.454   5.213 -0.2208 -0.3320 -0.2005
20502SOL    HW163228   8.477   0.444   5.290  0.5959  1.6036  0.7352
20502SOL    HW263229   8.606   0.393   5.228 -0.2203 -0.1833  0.4350
20503SOL     OW63230   5.437   4.186   2.326 -0.0525  0.4188  0.0590
20503SOL    HW163231   5.497   4.257   2.302 -0.6825  1.0743  0.3884
20503SOL    HW263232   5.363   4.195   2.267  0.4651 -0.8210 -0.8140
20504SOL     OW63233   9.596   4.488   1.659 -0.3589 -0.5126 -0.2815
20504SOL    HW163234   9.538   4.451   1.725 -0.5806 -1.5527 -1.0264
20504SOL    HW263235   9.683   4.485   1.699  0.1407 -4.5709 -1.2541
20505SOL     OW63236   8.846   6.147   4.663  0.3852  0.1439 -0.0955
20505SOL    HW163237   8.807   6.059   4.663 -0.7343  0.6245 -0.2594
20505SOL    HW263238   8.920   6.140   4.603  0.2785 -0.6750 -0.1479
20506SOL     OW63239   3.741   9.273   8.687 -0.1818 -0.2334 -0.0802
20506SOL    HW163240   3.776   9.262   8.776 -0.1805  0.0868 -0.0384
20506SOL    HW263241   3.786   9.350   8.653 -1.6474  0.8741  0.3817
20507SOL     OW63242   5.218   5.569   4.092 -0.4731  0.1596  0.0681
20507SOL    HW163243   5.143   5.571   4.152  0.5245 -1.3961  1.4841
20507SOL    HW263244   5.261   5.485   4.111  0.0295 -0.3139 -2.7206
20508SOL     OW63245   2.034   0.221   1.521 -0.2115 -0.2433 -0.2990
20508SOL    HW163246   1.948   0.181   1.539 -0.2793 -0.9275 -1.9696
20508SOL    HW263247   2.085   0.203   1.600 -1.1834 -1.0145  0.1874
20509SOL     OW63248   9.366   4.841   7.395  0.0110 -0.2006  0.1608
20509SOL    HW163249   9.457   4.834   7.367 -0.4391  0.8237 -1.7304
20509SOL    HW263250   9.341   4.931   7.375 -1.0605 -0.0956  1.8292
20510SOL     OW63251   7.503   5.835   7.801  0.3466 -0.3362 -0.0246
20510SOL    HW163252   7.543   5.906   7.751 -0.5670  0.8937  0.9308
20510SOL    HW263253   7.568   5.765   7.799  1.8609  1.0197  0.1418
20511SOL     OW63254   6.225   5.010   7.987  0.2907 -0.8311  0.5117
20511SOL    HW163255   6.241   4.966   8.070  0.1258 -1.6190  0.1327
20511SOL    HW263256   6.144   5.059   8.002  0.4235 -0.7208  0.9033
20512SOL     OW63257   2.506   1.063   8.268 -0.2854  0.1875  0.3731
20512SOL    HW163258   2.566   0.996   8.299 -0.3123 -0.4050 -0.8158
20512SOL    HW263259   2.426   1.016   8.244  0.5061  0.2128 -2.7717
20513SOL     OW63260   2.906   1.038   7.215  0.0941 -0.1356  0.4783
20513SOL    HW163261   2.960   1.005   7.144 -1.1777 -1.7128  0.1891
20513SOL    HW263262   2.961   1.029   7.293  1.7085  2.1205 -0.2766
20514SOL     OW63263   2.836   7.154   0.595 -0.4927 -0.3260 -0.2886
20514SOL    HW163264   2.833   7.223   0.661 -2.7140 -0.0896 -0.5510
20514SOL    HW263265   2.901   7.184   0.532 -2.4173  2.3302 -1.1726
20515SOL     OW63266   6.253   0.676   6.966  0.0424  0.2715 -0.0011
20515SOL    HW163267   6.305   0.736   7.019  0.0499  0.8754 -0.6842
20515SOL    HW263268   6.317   0.622   6.921  0.0357 -0.2772  0.6148
20516SOL     OW63269   3.967   5.063   2.443 -0.1836  0.6572  0.0676
20516SOL    HW163270   4.043   5.109   2.480 -0.1111  1.0737 -0.5914
20516SOL    HW263271   3.900   5.070   2.511  0.4535  0.0241  0.7837
20517SOL     OW63272   9.255   2.935   7.101  0.0443  0.2755  0.2995
20517SOL    HW163273   9.236   3.028   7.111  0.4255  0.2988  0.8056
20517SOL    HW263274   9.346   2.926   7.126  0.0015 -0.2403  0.2777
20518SOL     OW63275   4.398   5.534   4.594 -0.4247 -0.1845 -0.2490
20518SOL    HW163276   4.355   5.464   4.644  1.3560  1.1982  3.6783
20518SOL    HW263277   4.488   5.505   4.585  0.2794  1.3583  1.2105
20519SOL     OW63278   7.203   3.244   8.881  0.1028 -0.3647  0.1120
20519SOL    HW163279   7.180   3.156   8.910 -2.5855  0.2726  0.1140
20519SOL    HW263280   7.132   3.270   8.822  0.5706  1.9764  0.4876
20520SOL     OW63281   4.586   5.264   1.158 -0.0255 -0.4974  0.2731
20520SOL    HW163282   4.626   5.178   1.170  0.0298 -0.4408  0.4999
20520SOL    HW263283   4.535   5.256   1.077 -2.3695 -1.6566  1.7463
20521SOL     OW63284   4.422   7.852   6.657 -0.2978  0.2353  0.4342
20521SOL    HW163285   4.471   7.835   6.577 -2.0190  1.3083 -0.9259
20521SOL    HW263286   4.485   7.892   6.716  0.9536 -0.3579 -0.4694
20522SOL     OW63287   7.283   3.106   1.469  0.0414 -0.5372 -0.2430
20522SOL    HW163288   7.294   3.198   1.443  0.2507 -0.2680  0.7455
20522SOL    HW263289   7.195   3.083   1.438  0.4284 -0.3658 -1.5139
20523SOL     OW63290   6.180   5.645   0.087  0.6892  0.0966 -0.5413
20523SOL    HW163291   6.237   5.629   0.012  0.3021  0.7885 -0.9893
20523SOL    HW263292   6.102   5.592   0.070  1.1784 -0.8499  0.0714
20524SOL     OW63293   2.774   5.183   0.905 -0.2931  0.0878 -0.3588
20524SOL    HW163294   2.740   5.251   0.847 -2.2863 -0.7469 -0.2251
20524SOL    HW263295   2.814   5.119   0.845 -0.2905  0.3376 -0.6271
20525SOL     OW63296   2.545   7.763   4.708  0.2745  0.7984 -0.1845
20525SOL    HW163297   2.465   7.738   4.662 -0.2886 -1.6326  1.8835
20525SOL    HW263298   2.610   7.772   4.639 -1.0452 -0.3988 -1.6643
20526SOL     OW63299   7.514   2.501   0.354  0.0190  0.6787 -0.1520
20526SOL    HW163300   7.568   2.469   0.282 -1.0457 -0.8442 -0.3134
20526SOL    HW263301   7.426   2.507   0.317 -0.5553 -0.1744  1.0132
20527SOL     OW63302   5.857   6.929   5.754 -0.8853  0.3678 -0.1178
20527SOL    HW163303   5.767   6.901   5.738 -0.6828 -0.2444 -0.1996
20527SOL    HW263304   5.907   6.848   5.755 -0.3417  0.7049 -0.0178
20528SOL     OW63305   5.258   3.703   6.091 -0.4226  0.1424 -0.0340
20528SOL    HW163306   5.281   3.748   6.009 -1.1457  0.4500 -0.0743
20528SOL    HW263307   5.296   3.616   6.082  0.5368  0.5578 -0.1894
20529SOL     OW63308   7.744   1.048   7.625 -0.2862  0.2115  0.4691
20529SOL    HW163309   7.796   0.972   7.597  0.7581  0.6845  1.0418
20529SOL    HW263310   7.662   1.040   7.577  0.6513 -0.0970 -1.1840
20530SOL     OW63311   7.550   5.047   0.535 -0.0483 -0.2107 -0.5376
20530SOL    HW163312   7.486   5.111   0.566 -1.4413 -1.0414 -1.5674
20530SOL    HW263313   7.612   5.098   0.484 -1.2466  0.3549 -1.4984
20531SOL     OW63314   6.561   4.431   7.273  0.4388  0.2773 -0.2299
20531SOL    HW163315   6.617   4.493   7.225  0.1285  0.5366 -0.2637
20531SOL    HW263316   6.529   4.371   7.206 -0.0145  0.6548 -0.3620
20532SOL     OW63317   0.283   3.234   6.752 -0.2168  0.3353 -0.1658
20532SOL    HW163318   0.224   3.243   6.827 -0.6625  0.8409 -0.5671
20532SOL    HW263319   0.369   3.259   6.787 -0.3730  0.3167  0.2430
20533SOL     OW63320   0.949   2.708   7.151 -0.4939  0.1129 -0.4500
20533SOL    HW163321   0.875   2.733   7.096 -1.4636 -1.0143  0.3072
20533SOL    HW263322   0.927   2.741   7.238  1.4513  2.6995 -0.8261
20534SOL     OW63323   1.657   9.465   7.702  0.0684  0.1784 -0.4750
20534SOL    HW163324   1.566   9.495   7.711  0.1505  0.3544 -0.2447
20534SOL    HW263325   1.671   9.462   7.607 -0.4167 -0.5678 -0.5290
20535SOL     OW63326   3.379   8.565   0.846 -0.5062 -0.0060  0.5101
20535SOL    HW163327   3.338   8.618   0.778  0.1568  1.3257  1.1298
20535SOL    HW263328   3.450   8.619   0.880  0.5113 -1.4912  0.8248
20536SOL     OW63329   7.944   7.359   9.574  0.1014 -0.1963 -0.3019
20536SOL    HW163330   7.948   7.454   9.566 -0.5916 -0.1467 -0.1563
20536SOL    HW263331   8.020   7.335   9.627 -0.6313  0.4545  1.1053
20537SOL     OW63332   4.940   9.606   6.936 -0.5683  0.3327  0.3372
20537SOL    HW163333   4.857   9.581   6.895 -0.1297  0.5714 -0.7289
20537SOL    HW263334   4.931   9.700   6.952 -0.9759  0.1293  1.3834
20538SOL     OW63335   8.935   8.309   5.058 -0.0787  0.2628 -0.2851
20538SOL    HW163336   8.933   8.268   5.144 -2.5839  0.9560  0.0507
20538SOL    HW263337   9.009   8.267   5.013  1.1372 -0.2798  2.0816
20539SOL     OW63338   2.397   4.620   0.942 -0.2076 -0.1539  0.4908
20539SOL    HW163339   2.412   4.672   1.021  0.6698  0.7534 -0.2375
20539SOL    HW263340   2.441   4.669   0.873 -1.7875 -0.4093 -0.7567
20540SOL     OW63341   0.209   4.453   9.533 -0.1323 -0.5324  0.1451
20540SOL    HW163342   0.270   4.443   9.606 -1.7310 -1.7458  1.4155
20540SOL    HW263343   0.198   4.547   9.523 -0.2207 -0.3454  1.8038
20541SOL     OW63344   8.321   0.355   3.320  0.6411 -0.0493  0.2170
20541SOL    HW163345   8.325   0.431   3.377  0.5698  0.1099  0.0137
20541SOL    HW263346   8.308   0.281   3.379  0.9455  0.0666  0.4347
20542SOL     OW63347   4.318   1.307   2.299 -0.1815  0.2895  0.0066
20542SOL    HW163348   4.240   1.291   2.352 -0.4627  1.1755 -0.1253
20542SOL    HW263349   4.388   1.262   2.346 -1.2905 -3.4712 -1.6108
20543SOL     OW63350   0.988   4.237   9.149  0.3426 -0.2559  0.1637
20543SOL    HW163351   0.926   4.192   9.206  1.8610  1.0925  3.0709
20543SOL    HW263352   1.069   4.186   9.157  0.6467  0.0813 -0.6738
20544SOL     OW63353   0.762   8.361   4.537  0.1060  0.0280 -0.8881
20544SOL    HW163354   0.813   8.440   4.519  0.7332 -0.0527  0.4029
20544SOL    HW263355   0.813   8.314   4.603 -1.3899 -0.2969  0.0927
20545SOL     OW63356   4.852   7.009   7.025  0.4244 -0.4403  0.5752
20545SOL    HW163357   4.765   7.019   7.062 -0.5828 -1.4013 -1.3594
20545SOL    HW263358   4.903   6.966   7.094 -0.6657  0.0117  1.6854
20546SOL     OW63359   2.739   0.701   5.951  0.0933 -0.0909  0.1562
20546SOL    HW163360   2.645   0.696   5.936  0.0830  0.7174 -0.0986
20546SOL    HW263361   2.749   0.762   6.023  0.4188 -0.2041  0.2090
20547SOL     OW63362   9.052   1.415   8.484 -0.3543  0.4269 -0.1832
20547SOL    HW163363   8.973   1.407   8.431 -0.5940  0.4698  0.1638
20547SOL    HW263364   9.101   1.487   8.444  0.9379 -1.4565 -2.2012
20548SOL     OW63365   8.346   6.213   3.499 -0.3722 -0.4132 -0.1724
20548SOL    HW163366   8.376   6.228   3.588  0.0723  0.7367 -0.5026
20548SOL    HW263367   8.251   6.201   3.507 -0.4183  0.3115  0.3799
20549SOL     OW63368   3.471   1.735   7.369 -0.5612  0.4400  0.6012
20549SOL    HW163369   3.513   1.778   7.443 -0.3242 -0.4587  1.0138
20549SOL    HW263370   3.427   1.659   7.409 -2.5385  1.2946  0.1927
20550SOL     OW63371   4.362   2.819   8.623 -0.3469 -0.0105  0.4571
20550SOL    HW163372   4.362   2.756   8.696 -4.0301  2.3733  2.8448
20550SOL    HW263373   4.405   2.897   8.658 -0.1870  0.4616 -0.7401
20551SOL     OW63374   1.791   7.337   8.102 -0.2263 -0.4491  0.4376
20551SOL    HW163375   1.807   7.323   8.195  1.0291 -0.6025  0.2244
20551SOL    HW263376   1.866   7.389   8.073 -0.8541  0.0119 -0.3878
20552SOL     OW63377   0.529   7.681   5.419  0.2298 -0.3673 -0.2714
20552SOL    HW163378   0.497   7.592   5.435  1.9736 -0.7241  1.5585
20552SOL    HW263379   0.504   7.730   5.497 -1.2176  0.9725 -1.4936
20553SOL     OW63380   5.094   5.708   7.126 -0.4702  0.5651 -0.4538
20553SOL    HW163381   5.148   5.670   7.195 -0.2197  0.4543 -0.7111
20553SOL    HW263382   5.004   5.701   7.159 -0.5328 -1.1647 -0.9283
20554SOL     OW63383   6.906   1.997   3.378 -0.5284 -0.0884  0.3899
20554SOL    HW163384   6.837   1.932   3.367 -1.3660  1.1426 -2.6437
20554SOL    HW263385   6.973   1.972   3.315  1.3382 -0.5298  2.4054
20555SOL     OW63386   3.602   6.987   6.502  0.0337 -0.3443 -0.0744
20555SOL    HW163387   3.506   6.992   6.506  0.1173  0.7970  1.6716
20555SOL    HW263388   3.621   6.893   6.509 -0.9400 -0.4847  0.9927
20556SOL     OW63389   1.936   4.301   6.405 -0.3000 -0.4899  0.1121
20556SOL    HW163390   1.946   4.396   6.416  1.9737 -0.6739  0.0372
20556SOL    HW263391   1.942   4.266   6.493 -0.7680 -0.6181  0.0990
20557SOL     OW63392   8.880   2.765   0.551  0.3940  0.4662  0.3048
20557SOL    HW163393   8.786   2.781   0.551  0.5021  1.0904 -0.0805
20557SOL    HW263394   8.919   2.845   0.516  1.0057 -0.1652 -0.5065
20558SOL     OW63395   3.891   6.950   5.649  0.5086 -0.5247 -0.0145
20558SOL    HW163396   3.802   6.982   5.632  0.6768 -0.3391 -0.5523
20558SOL    HW263397   3.941   7.028   5.670  0.6517 -0.5721 -0.1789
20559SOL     OW63398   8.455   7.812   2.075  0.6890 -0.1113  0.7492
20559SOL    HW163399   8.410   7.835   2.156 -1.0991  2.0465 -0.7247
20559SOL    HW263400   8.390   7.829   2.006  2.2210 -1.5786 -1.1927
20560SOL     OW63401   4.828   7.971   8.809  0.2399 -0.0676 -0.5414
20560SOL    HW163402   4.832   7.877   8.792 -0.7072 -0.1576 -0.3139
20560SOL    HW263403   4.874   7.983   8.892 -0.7321 -0.5151  0.0800
20561SOL     OW63404   1.491   4.265   6.459  0.3999 -0.2784  0.6823
20561SOL    HW163405   1.569   4.299   6.415  0.4143 -0.1200  0.8308
20561SOL    HW263406   1.523   4.228   6.541  0.1354  1.1860  1.4846
20562SOL     OW63407   3.791   0.685   5.417  0.1495  0.0792  0.8904
20562SOL    HW163408   3.841   0.604   5.428 -1.0755 -0.6581  1.3418
20562SOL    HW263409   3.709   0.656   5.376  0.2029  1.2882 -0.1201
20563SOL     OW63410   1.690   7.385   3.849  0.4375  0.4652 -0.7717
20563SOL    HW163411   1.601   7.367   3.817 -0.8176  1.9499  1.6279
20563SOL    HW263412   1.730   7.298   3.856 -1.3203 -0.3939 -0.5951
20564SOL     OW63413   1.612   4.011   1.941 -0.2863 -0.0312 -0.0402
20564SOL    HW163414   1.566   4.043   1.863  0.8224 -1.8004 -1.4886
20564SOL    HW263415   1.596   3.917   1.942  0.4906 -0.1767  1.3684
20565SOL     OW63416   0.174   2.257   7.932  0.3454 -0.6513  0.6930
20565SOL    HW163417   0.266   2.238   7.913  0.2125 -1.0016  0.3809
20565SOL    HW263418   0.130   2.172   7.923  0.1631 -0.7036  1.9136
20566SOL     OW63419   4.290   7.365   8.901 -0.4359  1.1244 -0.0379
20566SOL    HW163420   4.200   7.393   8.918 -1.0921 -0.4172 -0.7182
20566SOL    HW263421   4.303   7.381   8.807 -1.1608 -1.4492 -0.6810
20567SOL     OW63422   2.365   4.579   4.977 -0.1394 -0.2210 -0.5719
20567SOL    HW163423   2.417   4.529   4.914  0.2506  1.3945 -1.6073
20567SOL    HW263424   2.380   4.535   5.061  0.8364 -1.3228 -1.2915
20568SOL     OW63425   4.717   9.088   2.504  0.3945  0.2303 -0.1159
20568SOL    HW163426   4.663   9.010   2.492  1.3561 -0.3254 -1.0301
20568SOL    HW263427   4.655   9.156   2.529 -0.6405 -0.5439 -0.4828
20569SOL     OW63428   4.306   7.264   6.048  0.8151 -0.3977  0.3627
20569SOL    HW163429   4.366   7.283   5.976  0.7049 -1.3965 -0.0027
20569SOL    HW263430   4.234   7.326   6.036 -0.4968 -2.2213 -1.9514
20570SOL     OW63431   2.314   1.329   1.228  0.2371 -0.1693  0.3612
20570SOL    HW163432   2.408   1.325   1.217  0.1936 -1.6835  0.4206
20570SOL    HW263433   2.289   1.414   1.191  1.5650  0.1098  0.0655
20571SOL     OW63434   6.564   1.839   9.692 -0.6866 -0.7957 -0.0565
20571SOL    HW163435   6.582   1.791   9.773 -0.0185 -0.2887  0.1137
20571SOL    HW263436   6.471   1.858   9.694 -0.5577 -0.2172  0.9288
20572SOL     OW63437   4.062   5.289   0.681  0.2439  0.0982  0.1055
20572SOL    HW163438   3.977   5.277   0.723  0.6422  0.9094  1.1953
20572SOL    HW263439   4.071   5.384   0.670  0.3857 -0.0643 -1.3545
20573SOL     OW63440   9.580   6.967   7.447 -0.2117  0.0770  0.2885
20573SOL    HW163441   9.545   6.881   7.425  3.3171 -1.5273  0.2842
20573SOL    HW263442   9.617   7.000   7.366  3.0213 -0.8773  1.2141
20574SOL     OW63443   4.341   6.022   1.977  0.6750  0.0044  0.2563
20574SOL    HW163444   4.394   6.047   2.053  1.0694 -0.0225 -0.0027
20574SOL    HW263445   4.372   5.935   1.954  0.5374 -0.0000  0.0841
20575SOL     OW63446   0.267   5.664   4.084 -0.1393 -0.1523 -0.1323
20575SOL    HW163447   0.174   5.682   4.077 -0.0644  0.3766  0.1980
20575SOL    HW263448   0.277   5.576   4.049 -0.5769  0.2754 -1.4014
20576SOL     OW63449   5.944   4.784   2.901 -0.1336  0.0247  0.5617
20576SOL    HW163450   6.007   4.800   2.971  1.5996 -0.7791 -0.7254
20576SOL    HW263451   5.942   4.865   2.851 -0.5346  0.2243  0.8941
20577SOL     OW63452   6.540   8.511   3.546 -0.4348  0.3678  0.2571
20577SOL    HW163453   6.580   8.561   3.475  1.3994  0.2517  1.1450
20577SOL    HW263454   6.605   8.514   3.616 -2.3141  0.7668  2.0729
20578SOL     OW63455   3.301   9.394   7.074 -0.0096  0.6606 -0.5691
20578SOL    HW163456   3.373   9.331   7.081 -3.2684 -3.3746  0.3051
20578SOL    HW263457   3.286   9.423   7.164 -0.8389 -0.2840 -0.3885
20579SOL     OW63458   6.716   6.255   4.780  0.1460  0.1722 -0.0256
20579SOL    HW163459   6.720   6.295   4.867  2.0217 -0.8095  0.3811
20579SOL    HW263460   6.730   6.329   4.720 -0.2128  0.7047  0.5250
20580SOL     OW63461   4.270   0.615   7.782  0.3222  0.5291 -0.4679
20580SOL    HW163462   4.339   0.655   7.730  0.6654 -0.6586 -0.9771
20580SOL    HW263463   4.265   0.525   7.750 -2.3706  0.8910 -1.3878
20581SOL     OW63464   4.963   2.300   6.943 -0.2450  0.7072 -0.3032
20581SOL    HW163465   4.949   2.341   7.028  3.1577  1.9390 -0.1924
20581SOL    HW263466   4.987   2.372   6.885 -2.3694 -0.1108 -2.3878
20582SOL     OW63467   5.406   4.194   1.607 -0.1942  0.0018 -0.2365
20582SOL    HW163468   5.311   4.195   1.600 -0.3271 -3.1293 -0.2247
20582SOL    HW263469   5.426   4.256   1.678 -2.1551  0.9642 -0.4663
20583SOL     OW63470   3.217   8.842   0.047 -0.1949  0.1654 -0.3760
20583SOL    HW163471   3.218   8.857  -0.047  1.9717 -0.8565 -0.5746
20583SOL    HW263472   3.180   8.755   0.057  2.7479 -1.2344 -0.6552
20584SOL     OW63473   2.751   9.512   7.629 -0.8839  0.2579  0.1970
20584SOL    HW163474   2.799   9.592   7.647 -0.2245 -0.3248  1.1507
20584SOL    HW263475   2.748   9.466   7.714 -0.2118 -1.2682 -0.5663
20585SOL     OW63476   8.315   4.835   1.902  0.2722  0.2035 -0.0559
20585SOL    HW163477   8.381   4.806   1.840 -0.4299  0.8450 -1.1371
20585SOL    HW263478   8.307   4.929   1.886  0.1507  0.4053  1.0859
20586SOL     OW63479   4.454   2.914   1.776  0.1172 -0.6402  0.5331
20586SOL    HW163480   4.545   2.885   1.778  0.3719 -0.3333 -2.2479
20586SOL    HW263481   4.417   2.870   1.699 -1.6563  0.4036  0.7391
20587SOL     OW63482   7.613   8.418   8.876  0.7650 -0.1650 -0.0797
20587SOL    HW163483   7.571   8.503   8.862  1.8881  0.2891 -0.8100
20587SOL    HW263484   7.541   8.359   8.897  0.0928  1.2167  1.6970
20588SOL     OW63485   6.168   0.550   5.130  0.0696 -0.3413  0.0851
20588SOL    HW163486   6.187   0.640   5.104 -2.3021 -0.0271 -0.8499
20588SOL    HW263487   6.202   0.497   5.057  2.0186 -0.3167  0.9163
20589SOL     OW63488   0.388   3.977   6.673 -0.3828  0.2632  0.2347
20589SOL    HW163489   0.342   4.000   6.592 -0.9066 -0.5867  0.2834
20589SOL    HW263490   0.408   3.884   6.663 -0.6316  0.1034  1.1720
20590SOL     OW63491   0.198   3.265   4.367  0.3175 -0.2912 -0.1734
20590SOL    HW163492   0.129   3.199   4.369 -0.4193  0.4774  0.8208
20590SOL    HW263493   0.160   3.338   4.318 -0.2157  0.7552  1.6752
20591SOL     OW63494   9.667   4.379   4.756 -0.3053  0.6770 -0.3524
20591SOL    HW163495   9.695   4.470   4.766 -0.1467  0.6629 -0.6626
20591SOL    HW263496   9.594   4.382   4.695 -0.1518  0.5715 -0.5421
20592SOL     OW63497   2.883   3.054   0.217 -0.0860 -0.0969  0.3538
20592SOL    HW163498   2.898   3.144   0.189 -2.4530  0.9639  2.1623
20592SOL    HW263499   2.837   3.014   0.143 -1.2950  0.9707  0.4968
20593SOL     OW63500   6.801   7.080   7.357 -0.0746 -0.2763 -0.1606
20593SOL    HW163501   6.722   7.133   7.347  0.5346  0.4624 -1.2422
20593SOL    HW263502   6.825   7.056   7.267  1.0297 -0.3468  0.1417
20594SOL     OW63503   8.925   0.288   3.662  0.1082  0.4248 -0.2895
20594SOL    HW163504   8.957   0.202   3.633 -3.3331 -1.4644  0.9008
20594SOL    HW263505   8.947   0.347   3.590  1.1436 -1.7850 -1.9197
20595SOL     OW63506   4.294   3.433   6.144 -0.0904  0.1945  0.0587
20595SOL    HW163507   4.236   3.396   6.078 -0.7597  1.2491  0.0293
20595SOL    HW263508   4.345   3.498   6.097 -0.2983  0.6797  0.4889
20596SOL     OW63509   6.182   2.124   4.824 -0.0327  0.5095 -0.6849
20596SOL    HW163510   6.217   2.193   4.880 -0.2427  0.9952 -1.1510
20596SOL    HW263511   6.100   2.098   4.865  1.0043 -0.9011  0.6322
20597SOL     OW63512   8.229   2.602   3.050  0.3428 -0.3588 -0.1147
20597SOL    HW163513   8.177   2.666   3.098 -0.3773 -1.4306  0.5962
20597SOL    HW263514   8.181   2.589   2.968  1.2437  1.0167 -0.8972
20598SOL     OW63515   3.298   6.427   7.936 -0.7895  0.1978  0.4360
20598SOL    HW163516   3.357   6.481   7.884 -0.7274 -0.8972 -0.6687
20598SOL    HW263517   3.246   6.490   7.986 -0.9682  1.2930 -1.0717
20599SOL     OW63518   6.465   2.407   6.229 -0.5151  0.0712  0.1836
20599SOL    HW163519   6.484   2.331   6.174 -1.6153 -0.2250  0.2037
20599SOL    HW263520   6.517   2.477   6.190 -0.3856 -0.4079 -0.5362
20600SOL     OW63521   4.412   1.372   0.888 -0.1232 -1.1544 -0.2819
20600SOL    HW163522   4.466   1.331   0.821 -1.0958 -1.1551 -1.0839
20600SOL    HW263523   4.338   1.312   0.900 -0.0955 -1.0224  0.5992
20601SOL     OW63524   9.276   7.541   3.262 -1.0552  0.2614 -0.0071
20601SOL    HW163525   9.239   7.598   3.329 -0.5886 -1.8764  2.2163
20601SOL    HW263526   9.201   7.514   3.210 -1.7449  0.5551  0.8106
20602SOL     OW63527   5.765   2.086   4.777 -0.1600 -1.0148 -0.0006
20602SOL    HW163528   5.792   2.136   4.700 -1.3247  0.8791  0.7439
20602SOL    HW263529   5.747   1.998   4.744 -0.6974 -0.2385 -1.8887
20603SOL     OW63530   6.295   1.146   0.534 -0.1180  0.1093 -0.6296
20603SOL    HW163531   6.390   1.154   0.533  0.1518 -2.3541 -1.1593
20603SOL    HW263532   6.276   1.074   0.474 -2.1630 -0.6773  0.8301
20604SOL     OW63533   4.022   5.779   5.098 -0.3163  0.0129  0.3017
20604SOL    HW163534   3.996   5.776   5.006 -0.9687 -1.2746  0.5074
20604SOL    HW263535   3.992   5.865   5.128 -1.9030 -0.3236 -0.2035
20605SOL     OW63536   2.097   5.761   7.971 -0.3394 -0.3745  0.0793
20605SOL    HW163537   2.100   5.677   8.016 -1.2423  0.0448  0.9634
20605SOL    HW263538   2.044   5.817   8.028  1.8106  1.3908  0.5047
20606SOL     OW63539   5.472   2.872   8.823 -0.3790 -0.1470 -0.1697
20606SOL    HW163540   5.388   2.918   8.820 -0.1505  0.2272 -1.7902
20606SOL    HW263541   5.526   2.917   8.758  1.7034  0.7675  2.0547
20607SOL     OW63542   6.970   8.262   2.212  0.8727  0.5259  0.4680
20607SOL    HW163543   6.893   8.239   2.161  0.0722 -0.3670  1.9987
20607SOL    HW263544   7.031   8.190   2.197 -0.2014 -0.8761  2.3669
20608SOL     OW63545   5.083   5.669   8.716 -0.7790  0.0115  0.0142
20608SOL    HW163546   5.042   5.753   8.697 -0.5767  0.3561  1.0579
20608SOL    HW263547   5.024   5.627   8.778  0.1722  0.3014  1.1470
20609SOL     OW63548   2.834   4.339   0.294  0.0541 -0.3170  0.0286
20609SOL    HW163549   2.745   4.316   0.269  0.3230  0.1195 -1.4015
20609SOL    HW263550   2.823   4.383   0.379 -1.6284  3.2359 -1.7966
20610SOL     OW63551   2.368   2.840   7.490  0.3118  0.2435  0.0002
20610SOL    HW163552   2.321   2.801   7.564 -1.0689 -0.0794 -1.0005
20610SOL    HW263553   2.380   2.767   7.428  0.9280  0.6300 -0.3461
20611SOL     OW63554   4.427   4.194   6.030  0.0898 -0.2549  0.0127
20611SOL    HW163555   4.409   4.175   5.938 -0.3021 -1.3207  0.2928
20611SOL    HW263556   4.350   4.241   6.060 -1.3356 -2.8024  0.6159
20612SOL     OW63557   3.164   2.572   7.487  0.4994 -0.1015  0.5787
20612SOL    HW163558   3.223   2.647   7.483  1.4867 -0.9060 -0.8041
20612SOL    HW263559   3.094   2.600   7.547  1.1247  1.6962  0.5411
20613SOL     OW63560   8.020   0.717   5.477  0.1947 -0.0326  0.4831
20613SOL    HW163561   8.074   0.790   5.509 -0.9621  0.7978  0.5895
20613SOL    HW263562   7.939   0.723   5.528  0.0546 -1.3715  0.4526
20614SOL     OW63563   3.295   0.078   8.392 -0.5298 -0.1221 -0.0285
20614SOL    HW163564   3.200   0.072   8.380 -0.4618 -0.9036 -0.2348
20614SOL    HW263565   3.330   0.007   8.339  0.1486 -0.1193  0.4041
20615SOL     OW63566   7.547   3.726   9.076  0.3626 -0.7636  0.2179
20615SOL    HW163567   7.601   3.649   9.057 -0.3997 -1.0573 -0.8541
20615SOL    HW263568   7.473   3.719   9.016  0.3174  0.8597  0.0257
20616SOL     OW63569   2.201   4.187   7.749  0.6974  0.4187  0.0599
20616SOL    HW163570   2.166   4.218   7.665 -0.8455 -2.1485 -0.3648
20616SOL    HW263571   2.285   4.147   7.726  0.6880  0.5020 -0.1265
20617SOL     OW63572   1.700   2.697   3.776 -0.1495 -0.2937  0.0317
20617SOL    HW163573   1.790   2.675   3.750  0.3960  0.3503  1.2835
20617SOL    HW263574   1.677   2.632   3.842 -0.5567 -0.3715 -0.1852
20618SOL     OW63575   6.011   7.599   3.595 -0.4326 -0.2631 -0.6254
20618SOL    HW163576   6.091   7.608   3.544  0.2674 -2.4082 -0.0180
20618SOL    HW263577   5.951   7.551   3.537 -1.4355  1.5857 -1.1878
20619SOL     OW63578   9.319   1.730   0.582 -0.1545 -0.2045 -0.9939
20619SOL    HW163579   9.277   1.644   0.583  1.8973 -1.3232 -2.6786
20619SOL    HW263580   9.278   1.776   0.508 -1.0696  0.2296 -0.2486
20620SOL     OW63581   2.742   9.164   2.461 -0.6961 -0.0503  0.7520
20620SOL    HW163582   2.743   9.069   2.448 -0.7733  0.2617 -2.2810
20620SOL    HW263583   2.673   9.179   2.525 -1.9012 -1.9467 -0.0014
20621SOL     OW63584   7.333   6.984   6.884 -0.0295  0.6582 -0.5975
20621SOL    HW163585   7.377   6.932   6.817 -0.8605 -1.4776  0.4172
20621SOL    HW263586   7.281   7.048   6.836  2.7867  2.2085 -1.8715
20622SOL     OW63587   6.519   5.855   6.803  0.2168 -0.5515  0.1267
20622SOL    HW163588   6.499   5.815   6.888 -1.3743 -0.7388 -0.3082
20622SOL    HW263589   6.546   5.944   6.825  0.4188 -0.7868  0.8733
20623SOL     OW63590   9.400   8.871   7.103 -0.3776 -0.4513  0.6018
20623SOL    HW163591   9.374   8.962   7.089 -1.4418 -1.1072 -2.3099
20623SOL    HW263592   9.399   8.861   7.199  1.4505  2.9807  1.1497
20624SOL     OW63593   5.929   4.448   2.255  0.2134  0.0966  0.1297
20624SOL    HW163594   5.977   4.369   2.281  0.2520  0.3716  0.9090
20624SOL    HW263595   5.898   4.486   2.337  0.0387  0.7991 -0.2501
20625SOL     OW63596   5.708   6.774   0.077  0.0288 -0.1326  0.7355
20625SOL    HW163597   5.799   6.744   0.075  0.6417  1.4931 -3.1411
20625SOL    HW263598   5.657   6.698   0.049  0.4889 -0.2497  0.2092
20626SOL     OW63599   6.042   3.582   1.146 -0.5296  0.2724  0.0992
20626SOL    HW163600   6.106   3.544   1.205 -0.6207  0.8628  0.5811
20626SOL    HW263601   6.080   3.666   1.120 -0.6507  0.1743 -0.4045
20627SOL     OW63602   2.507   7.848   3.294 -0.1052  0.0986  0.3947
20627SOL    HW163603   2.433   7.901   3.325 -1.8910 -0.5505 -2.3515
20627SOL    HW263604   2.495   7.763   3.336  0.3145  0.5966  1.5550
20628SOL     OW63605   3.553   2.829   9.613  0.2899 -0.0071  0.3707
20628SOL    HW163606   3.505   2.852   9.692  1.9649 -2.4806  2.2709
20628SOL    HW263607   3.643   2.856   9.631  0.8011 -1.0965 -0.4308
20629SOL     OW63608   4.053   5.373   3.380  0.2786 -0.2322 -0.0567
20629SOL    HW163609   3.994   5.440   3.414 -1.2727 -0.2947 -2.3832
20629SOL    HW263610   4.017   5.290   3.413  0.2338 -0.1407  0.1262
20630SOL     OW63611   2.338   6.633   1.289  0.4648 -0.3017  0.1054
20630SOL    HW163612   2.348   6.680   1.372 -1.3614  0.7794 -0.2210
20630SOL    HW263613   2.399   6.676   1.229  1.3742 -0.7132  0.7154
20631SOL     OW63614   3.392   2.289   5.511  0.1056 -0.8346  0.1276
20631SOL    HW163615   3.320   2.330   5.559  0.1255  0.0103 -0.5187
20631SOL    HW263616   3.349   2.236   5.444  0.0624 -0.4485 -0.1616
20632SOL     OW63617   3.358   1.203   9.215  0.2238 -0.1814 -0.1945
20632SOL    HW163618   3.384   1.215   9.306  0.7529 -2.4234  0.0014
20632SOL    HW263619   3.426   1.248   9.165  0.6988 -0.1285  0.4777
20633SOL     OW63620   7.026   4.937   3.925 -0.3180  0.6233 -0.6894
20633SOL    HW163621   7.114   4.972   3.916  0.4356 -1.1202 -0.5698
20633SOL    HW263622   7.026   4.859   3.870 -1.0016 -0.7355  1.1377
20634SOL     OW63623   0.620   0.719   7.044  0.1111  0.2239  0.6438
20634SOL    HW163624   0.570   0.700   7.124 -1.0606 -0.5228 -0.2151
20634SOL    HW263625   0.667   0.637   7.025 -1.1961 -0.3192 -0.4793
20635SOL     OW63626   6.900   5.782   1.625  0.6114  0.0310  0.1990
20635SOL    HW163627   6.816   5.752   1.590  1.1860  0.4849 -1.6555
20635SOL    HW263628   6.954   5.703   1.629  0.0576 -0.3084  1.6327
20636SOL     OW63629   5.027   8.277   7.269 -0.5645  0.3743  0.3529
20636SOL    HW163630   4.948   8.264   7.217 -0.4750 -0.5680  0.4363
20636SOL    HW263631   5.009   8.355   7.322 -1.6834 -0.1994  0.8409
20637SOL     OW63632   3.549   3.387   3.982  0.1725 -0.0976 -0.4025
20637SOL    HW163633   3.525   3.439   3.905  0.0039  0.0020 -0.2855
20637SOL    HW263634   3.465   3.360   4.019  0.2605 -0.5152 -0.5009
20638SOL     OW63635   1.108   8.396   5.759  0.3766 -0.3957  0.1884
20638SOL    HW163636   1.168   8.468   5.777 -0.9860  1.3945 -1.9060
20638SOL    HW263637   1.145   8.352   5.682  1.1748 -1.9801  1.4243
20639SOL     OW63638   4.325   8.679   3.402  0.5555 -0.4472  0.2169
20639SOL    HW163639   4.235   8.670   3.433  0.6595 -0.0200  0.6466
20639SOL    HW263640   4.357   8.759   3.443  0.7061  0.1180 -0.9687
20640SOL     OW63641   2.047   1.449   4.314  0.4136 -0.2983  0.1666
20640SOL    HW163642   1.965   1.483   4.349  1.0353  2.0527 -0.4781
20640SOL    HW263643   2.107   1.447   4.389 -0.1416 -1.8767  0.6055
20641SOL     OW63644   2.356   2.106   6.409 -0.0686 -0.0652 -0.4930
20641SOL    HW163645   2.295   2.177   6.428 -0.8468 -1.2796  2.0017
20641SOL    HW263646   2.440   2.135   6.445 -0.1146  0.0561 -0.4832
20642SOL     OW63647   1.770   2.879   1.091  0.2462 -0.1034  0.1652
20642SOL    HW163648   1.820   2.955   1.120  1.8090 -1.6327  1.6961
20642SOL    HW263649   1.702   2.868   1.158  0.3458 -0.3584  0.2253
20643SOL     OW63650   3.322   6.983   6.527  0.1759  0.1283  0.0782
20643SOL    HW163651   3.279   6.902   6.501  0.6877 -0.1079 -0.0436
20643SOL    HW263652   3.261   7.024   6.588  0.0229 -0.4700  0.3314
20644SOL     OW63653   3.407   4.575   1.587 -0.0071 -0.7279 -0.0551
20644SOL    HW163654   3.320   4.615   1.582  0.2607 -0.1966 -0.6258
20644SOL    HW263655   3.424   4.543   1.499  0.7566  0.0298 -0.2011
20645SOL     OW63656   7.273   5.686   6.013  0.1796  0.5990  0.7449
20645SOL    HW163657   7.302   5.603   6.051 -0.1746  0.7914  1.4492
20645SOL    HW263658   7.301   5.681   5.922 -0.9028 -0.8245  0.4481
20646SOL     OW63659   1.724   9.482   7.446  0.2105  0.6332  0.3440
20646SOL    HW163660   1.679   9.564   7.428  1.2888  0.8091 -2.0151
20646SOL    HW263661   1.817   9.502   7.431  0.7103 -0.5346  1.6954
20647SOL     OW63662   7.146   2.130   7.387  0.3903 -0.0951  0.4203
20647SOL    HW163663   7.057   2.166   7.387 -1.4452 -3.8101 -2.6865
20647SOL    HW263664   7.148   2.071   7.462  0.3571  0.1706  0.6328
20648SOL     OW63665   9.323   7.156   3.339 -0.3059 -0.0583 -1.0496
20648SOL    HW163666   9.387   7.103   3.290  0.5336 -0.7297  0.7063
20648SOL    HW263667   9.248   7.163   3.279  0.2178 -1.8115 -1.9923
20649SOL     OW63668   2.060   8.764   7.503  0.2018 -0.2174 -0.2511
20649SOL    HW163669   2.045   8.844   7.452  1.4715 -0.6981 -1.4357
20649SOL    HW263670   2.020   8.782   7.588  2.7475  2.8164  0.5110
20650SOL     OW63671   5.302   8.273   9.427 -0.0154 -0.2399  0.2903
20650SOL    HW163672   5.391   8.247   9.451 -0.3423 -1.8675 -0.1993
20650SOL    HW263673   5.313   8.361   9.390  1.5056 -0.7320 -0.5089
20651SOL     OW63674   9.158   0.513   8.780 -0.6546 -0.0687 -0.8395
20651SOL    HW163675   9.128   0.485   8.693  0.5241 -0.4270 -1.1456
20651SOL    HW263676   9.240   0.558   8.763 -0.9214  0.7429  0.0045
20652SOL     OW63677   6.635   1.291   7.690  0.0521 -0.6713 -0.1662
20652SOL    HW163678   6.681   1.221   7.645  0.1825  0.2148 -1.4684
20652SOL    HW263679   6.701   1.360   7.701 -0.2459 -0.4772  0.5018
20653SOL     OW63680   1.648   8.602   6.615 -0.0533  0.3408  0.2411
20653SOL    HW163681   1.569   8.635   6.658  0.5543  0.3707  1.3830
20653SOL    HW263682   1.620   8.520   6.572 -0.0931 -1.3803  3.2542
20654SOL     OW63683   9.625   7.228   6.225 -0.3882 -0.0123 -0.1161
20654SOL    HW163684   9.653   7.309   6.267 -1.0499  0.9211 -1.4080
20654SOL    HW263685   9.703   7.194   6.182 -0.0313 -0.2547  0.7009
20655SOL     OW63686   2.278   0.378   8.694  0.9010  0.0592  0.2737
20655SOL    HW163687   2.356   0.362   8.639  1.7806 -0.8435  1.7105
20655SOL    HW263688   2.264   0.472   8.689  0.8769  0.0013 -1.5674
20656SOL     OW63689   8.325   0.810   7.084  0.4093  0.2442 -0.1520
20656SOL    HW163690   8.391   0.847   7.026  1.9816  1.5454  2.2856
20656SOL    HW263691   8.325   0.716   7.063  2.7292  0.2740 -0.5594
20657SOL     OW63692   1.912   0.806   9.003  0.4794 -0.2697  0.0763
20657SOL    HW163693   1.821   0.836   8.996  1.0150  1.8884  1.4238
20657SOL    HW263694   1.905   0.711   9.016 -1.3955 -0.6401 -2.7088
20658SOL     OW63695   3.883   1.089   1.419  0.0096  0.5261  0.6359
20658SOL    HW163696   3.924   1.064   1.502 -0.6579  2.1169  1.4995
20658SOL    HW263697   3.799   1.043   1.418  0.5001 -0.3721  0.2994
20659SOL     OW63698   4.638   3.729   1.619 -0.0203  0.4573  0.4273
20659SOL    HW163699   4.610   3.640   1.642  0.0505  0.3807  0.2183
20659SOL    HW263700   4.595   3.746   1.535 -0.6483  0.9063  0.8300
20660SOL     OW63701   2.945   7.787   7.353 -0.6410 -0.7291  0.1755
20660SOL    HW163702   2.871   7.727   7.357 -0.5059 -0.9120 -0.0193
20660SOL    HW263703   2.928   7.843   7.277 -0.4431 -0.9585 -0.0412
20661SOL     OW63704   6.365   4.145   5.561 -0.0080  0.2043 -0.4005
20661SOL    HW163705   6.274   4.160   5.535  0.3994  1.1243 -1.3411
20661SOL    HW263706   6.358   4.101   5.646 -1.3262  0.4156 -0.3751
20662SOL     OW63707   1.484   3.974   7.318 -0.3361  0.1669 -0.3570
20662SOL    HW163708   1.396   3.991   7.283 -0.5619 -0.6137 -0.2029
20662SOL    HW263709   1.539   4.042   7.281 -1.3459  1.7518  0.9240
20663SOL     OW63710   1.448   8.707   1.228  0.0000 -0.5937 -0.0922
20663SOL    HW163711   1.514   8.709   1.297  0.4986 -0.0602 -0.5796
20663SOL    HW263712   1.449   8.795   1.191 -1.0780 -0.5443 -0.0243
20664SOL     OW63713   9.122   4.564   6.845  0.4854 -0.2943 -0.3804
20664SOL    HW163714   9.116   4.502   6.918  1.0866 -2.7629 -2.3065
20664SOL    HW263715   9.032   4.575   6.815  0.4212 -0.5831 -0.2946
20665SOL     OW63716   1.428   4.692   0.788 -0.1812 -0.6498  0.5805
20665SOL    HW163717   1.432   4.785   0.808  0.8507 -0.1785 -1.5579
20665SOL    HW263718   1.519   4.662   0.794  0.4760 -0.2363 -3.8263
20666SOL     OW63719   5.369   8.081   0.148 -0.2708 -0.1744 -0.2733
20666SOL    HW163720   5.444   8.036   0.109  0.6197 -0.8437  2.0795
20666SOL    HW263721   5.296   8.020   0.136 -0.1282 -0.1709 -1.2400
20667SOL     OW63722   3.926   5.632   4.136  0.1791  0.0353  0.5041
20667SOL    HW163723   3.958   5.702   4.080  0.4032 -0.1659  0.3806
20667SOL    HW263724   3.903   5.561   4.076 -1.1552  0.4278  0.5305
20668SOL     OW63725   6.688   7.742   8.988 -0.4818  0.0823  0.3109
20668SOL    HW163726   6.672   7.688   9.065 -3.6064 -0.8022 -0.8031
20668SOL    HW263727   6.709   7.680   8.918  0.2364  0.6967 -0.0395
20669SOL     OW63728   2.826   5.201   4.631 -0.4093 -0.5838  0.6529
20669SOL    HW163729   2.749   5.224   4.580  1.2597 -1.4842 -2.5482
20669SOL    HW263730   2.855   5.117   4.595  0.7415 -1.4937  3.4220
20670SOL     OW63731   5.147   7.964   8.300 -0.5338 -0.3299  0.0610
20670SOL    HW163732   5.238   7.992   8.312 -0.7861  0.5398  0.0281
20670SOL    HW263733   5.146   7.919   8.216  0.0191 -1.0237  0.4195
20671SOL     OW63734   5.930   3.505   3.506  0.8762 -0.3847  0.4548
20671SOL    HW163735   5.837   3.515   3.526  0.7594 -0.9495  0.2377
20671SOL    HW263736   5.965   3.593   3.509  0.2902 -0.1411  0.3348
20672SOL     OW63737   1.705   4.698   8.804 -0.0756 -0.2222  0.3944
20672SOL    HW163738   1.773   4.736   8.748  0.2027  1.4763  1.8207
20672SOL    HW263739   1.623   4.725   8.763  0.1210  1.5440  1.0846
20673SOL     OW63740   6.190   5.595   5.277 -0.1000  0.4325 -0.2151
20673SOL    HW163741   6.173   5.656   5.349 -1.0572  0.9185 -0.8261
20673SOL    HW263742   6.136   5.628   5.205  3.1006  1.8354 -2.1970
20674SOL     OW63743   4.978   3.621   8.974 -0.2900 -0.5652  0.7271
20674SOL    HW163744   4.911   3.684   9.003 -1.0636 -1.1150  0.1669
20674SOL    HW263745   5.061   3.666   8.990 -0.8175  0.5017  0.5701
20675SOL     OW63746   4.856   6.154   8.920 -0.1475 -0.3004  0.1658
20675SOL    HW163747   4.800   6.231   8.921  0.2892  0.0179  1.2910
20675SOL    HW263748   4.869   6.135   8.827  0.2684  1.3584 -0.1333
20676SOL     OW63749   2.692   6.908   8.972  0.0473  0.0728 -0.0842
20676SOL    HW163750   2.628   6.891   9.042 -0.7392  0.1367 -0.7670
20676SOL    HW263751   2.733   6.991   8.997  0.5703 -0.4643  0.8694
20677SOL     OW63752   0.491   4.011   0.250 -0.2397 -0.5892  0.3820
20677SOL    HW163753   0.483   3.961   0.168  0.7687 -1.1606  0.6174
20677SOL    HW263754   0.410   3.993   0.297 -0.5399 -0.7956 -0.2036
20678SOL     OW63755   6.676   0.491   6.540  0.2788  0.6818 -0.2639
20678SOL    HW163756   6.656   0.438   6.617  2.1154  0.1162 -0.1368
20678SOL    HW263757   6.699   0.577   6.576  1.2111  0.3962 -0.1537
20679SOL     OW63758   5.483   5.458   5.802  0.3200  0.4234  0.0221
20679SOL    HW163759   5.572   5.426   5.791  0.3971  0.5496  0.2717
20679SOL    HW263760   5.464   5.505   5.721  1.3631  2.4924  0.9160
20680SOL     OW63761   5.977   3.091   0.973  0.2953 -0.3248 -0.2381
20680SOL    HW163762   5.886   3.079   1.000  0.3802 -0.2837  0.0680
20680SOL    HW263763   5.974   3.161   0.908  0.0551 -0.6111 -0.5422
20681SOL     OW63764   6.751   8.027   8.705  0.8244  0.3342  0.0369
20681SOL    HW163765   6.740   8.121   8.721  1.2673  0.3658  0.1461
20681SOL    HW263766   6.663   7.991   8.717  0.8065  0.6135  0.8098
20682SOL     OW63767   2.185   6.030   0.587 -1.2182  0.3931 -0.5389
20682SOL    HW163768   2.161   5.985   0.667  0.2622 -0.9145 -0.7595
20682SOL    HW263769   2.118   6.005   0.523 -0.6576 -1.2443 -0.5400
20683SOL     OW63770   7.917   3.064   9.080 -0.6132  0.2111 -0.1465
20683SOL    HW163771   8.008   3.092   9.093 -1.3284  2.6436  0.1428
20683SOL    HW263772   7.904   2.996   9.146  1.2613 -0.9349 -0.8736
20684SOL     OW63773   5.480   1.667   8.904  0.0069  0.3845 -0.2215
20684SOL    HW163774   5.534   1.646   8.980  0.5618 -0.2932 -0.7896
20684SOL    HW263775   5.535   1.646   8.829 -0.2385  1.7811 -0.8300
20685SOL     OW63776   7.595   2.283   4.397 -0.3297 -0.1516  0.6334
20685SOL    HW163777   7.502   2.280   4.375 -0.1846  2.0431 -0.5899
20685SOL    HW263778   7.640   2.256   4.317  0.1082 -0.0297  0.8362
20686SOL     OW63779   7.850   3.879   7.410  0.1640  0.0504 -0.8236
20686SOL    HW163780   7.923   3.878   7.472 -1.4133 -0.0627  1.1477
20686SOL    HW263781   7.860   3.961   7.362  0.7264  0.8087  0.5168
20687SOL     OW63782   1.056   0.689   1.142 -0.1796  0.2833 -0.1218
20687SOL    HW163783   0.986   0.754   1.128 -0.1665  0.0444 -1.3659
20687SOL    HW263784   1.137   0.738   1.132 -0.1540 -0.1123 -2.2379
20688SOL     OW63785   5.712   9.509   2.825  0.8373 -0.2691  0.6036
20688SOL    HW163786   5.707   9.496   2.920  0.2417 -0.1458  0.5943
20688SOL    HW263787   5.739   9.600   2.814  0.8915 -0.2787  0.6574
20689SOL     OW63788   7.339   6.430   3.702  0.0721  0.0814 -0.2501
20689SOL    HW163789   7.298   6.360   3.652  2.6887  0.0425 -2.5749
20689SOL    HW263790   7.403   6.386   3.757 -0.7237  0.3984  0.9726
20690SOL     OW63791   4.611   5.090   4.151 -0.1327  0.2544 -0.2439
20690SOL    HW163792   4.691   5.040   4.135  0.7613  0.9408  1.6827
20690SOL    HW263793   4.560   5.082   4.071  0.1512 -3.3065 -0.1892
20691SOL     OW63794   1.374   2.231   7.011  0.4062 -0.6212 -0.2219
20691SOL    HW163795   1.409   2.319   7.028  0.7041 -0.9849  1.2374
20691SOL    HW263796   1.450   2.173   7.018 -0.1818 -1.2493  1.4229
20692SOL     OW63797   5.746   0.567   3.678 -0.3922  0.0553 -0.5982
20692SOL    HW163798   5.710   0.638   3.625  2.8643  0.8810 -1.9121
20692SOL    HW263799   5.692   0.490   3.654 -2.7575  1.5936 -0.5662
20693SOL     OW63800   7.971   3.127   0.839 -0.2440  0.2196  0.0684
20693SOL    HW163801   8.064   3.122   0.819  0.3277  0.4066  2.4267
20693SOL    HW263802   7.967   3.143   0.933 -2.6680  0.3410  0.0138
20694SOL     OW63803   6.016   1.492   0.689 -0.0327 -0.1217  0.5799
20694SOL    HW163804   6.009   1.579   0.728  1.5037 -0.4825  1.7347
20694SOL    HW263805   5.935   1.447   0.714  0.0626  0.3159  1.6956
20695SOL     OW63806   7.550   3.285   0.440 -0.4363  0.2300 -0.1538
20695SOL    HW163807   7.584   3.331   0.363  0.3734  1.3578  0.8209
20695SOL    HW263808   7.561   3.349   0.511 -1.6647 -0.5824  0.7883
20696SOL     OW63809   0.332   4.668   0.952  0.2274  0.0318 -0.5656
20696SOL    HW163810   0.428   4.660   0.956  0.1874 -0.7822 -1.0454
20696SOL    HW263811   0.310   4.722   1.028  0.8573 -1.8282  1.0308
20697SOL     OW63812   2.084   5.715   5.402  0.7227  0.4195  0.8690
20697SOL    HW163813   2.033   5.722   5.483  0.1959  1.7059  0.4351
20697SOL    HW263814   2.043   5.643   5.354  1.7650 -1.1634  2.2277
20698SOL     OW63815   3.484   7.908   9.237  0.0789  0.5983  0.0981
20698SOL    HW163816   3.491   8.001   9.256 -1.0649  0.3861  1.7245
20698SOL    HW263817   3.442   7.905   9.151  2.6677  1.5551 -1.3132
20699SOL     OW63818   8.569   6.016   6.428 -0.2286 -0.7855  0.3186
20699SOL    HW163819   8.619   5.972   6.359 -1.4010  0.4186 -1.4003
20699SOL    HW263820   8.632   6.030   6.499  0.6245 -3.5196  0.2081
20700SOL     OW63821   3.758   3.092   5.764 -0.4242  0.1732 -0.1554
20700SOL    HW163822   3.806   3.067   5.842 -0.2044  0.0258 -0.3364
20700SOL    HW263823   3.811   3.058   5.691 -0.9827 -0.3085 -0.3435
20701SOL     OW63824   4.970   8.845   3.845 -0.2193  0.2855 -0.3504
20701SOL    HW163825   4.967   8.861   3.939 -2.3110 -0.8833 -0.1552
20701SOL    HW263826   5.024   8.766   3.837  0.7078  0.8900 -0.2516
20702SOL     OW63827   5.872   7.898   5.909 -0.0697  0.3214 -0.3388
20702SOL    HW163828   5.797   7.949   5.877 -0.4363  0.0485  0.0806
20702SOL    HW263829   5.913   7.955   5.974  0.1402  0.5072 -0.6326
20703SOL     OW63830   0.921   2.286   6.677 -0.0611  0.2924  0.6429
20703SOL    HW163831   0.977   2.354   6.639  0.0834  0.2784  0.8289
20703SOL    HW263832   0.982   2.214   6.697  0.1671  0.9774  2.5436
20704SOL     OW63833   7.038   0.177   5.427 -0.4100  0.0138  0.5946
20704SOL    HW163834   6.962   0.143   5.474  0.3508 -0.8308  1.2565
20704SOL    HW263835   7.110   0.169   5.489  0.3802  0.0240 -0.2932
20705SOL     OW63836   7.819   0.463   5.502  0.3846  0.0058  0.7370
20705SOL    HW163837   7.776   0.422   5.577  0.5939  0.8411  1.3380
20705SOL    HW263838   7.804   0.557   5.515 -0.7466  0.1134 -1.0012
20706SOL     OW63839   1.857   5.591   8.313  0.1250  0.2657 -0.2030
20706SOL    HW163840   1.792   5.642   8.265 -2.2030 -0.7022  1.6874
20706SOL    HW263841   1.835   5.500   8.293  0.9378 -0.0836  0.4552
20707SOL     OW63842   6.228   9.426   8.877  0.0505  0.0929 -0.1462
20707SOL    HW163843   6.253   9.451   8.789  0.2203 -0.6963 -0.3296
20707SOL    HW263844   6.162   9.358   8.865 -2.2164  2.0480  0.3109
20708SOL     OW63845   9.534   4.118   2.064 -0.5708  0.2793  0.4685
20708SOL    HW163846   9.485   4.043   2.030  0.4068 -0.5171  0.7837
20708SOL    HW263847   9.619   4.082   2.089  0.8991  1.9445 -1.7460
20709SOL     OW63848   5.463   5.687   7.484  0.0988  0.3790 -0.3783
20709SOL    HW163849   5.547   5.694   7.438  0.4441 -1.5949 -0.1437
20709SOL    HW263850   5.425   5.605   7.452 -0.9013  0.3338  0.8448
20710SOL     OW63851   5.489   0.615   1.420 -0.0292  0.2622  0.1098
20710SOL    HW163852   5.442   0.640   1.499 -0.1703 -1.1077  0.4783
20710SOL    HW263853   5.581   0.630   1.440  0.0204 -0.9891  0.9059
20711SOL     OW63854   7.478   9.005   7.967  0.1902 -0.6614 -0.1563
20711SOL    HW163855   7.488   9.001   7.872  0.6790 -0.7076 -0.1047
20711SOL    HW263856   7.422   8.931   7.989 -2.0782  0.7929 -0.6821
20712SOL     OW63857   9.516   4.981   8.204 -0.0018 -0.1424  0.4536
20712SOL    HW163858   9.585   5.002   8.267  1.7494 -0.1822 -1.3557
20712SOL    HW263859   9.488   5.066   8.169 -0.2254 -0.1959  0.4952
20713SOL     OW63860   6.622   4.134   0.578  0.3478  0.1650 -0.3811
20713SOL    HW163861   6.531   4.133   0.608  0.4780 -0.6064  0.0200
20713SOL    HW263862   6.615   4.153   0.484 -0.3199 -0.9698 -0.5858
20714SOL     OW63863   1.739   2.835   4.241  0.4259  0.0046 -0.0775
20714SOL    HW163864   1.738   2.894   4.166  1.1260  1.0247  0.6838
20714SOL    HW263865   1.774   2.888   4.313 -1.7952 -0.4221  1.4126
20715SOL     OW63866   7.940   5.509   2.941  0.2177  0.0466  0.2271
20715SOL    HW163867   7.950   5.441   3.008  0.9419  0.6320  0.7310
20715SOL    HW263868   7.948   5.591   2.989  2.8519  0.4933 -0.8306
20716SOL     OW63869   9.372   1.092   6.279  0.4268  0.7731  0.4105
20716SOL    HW163870   9.393   1.021   6.217  0.8121 -0.3960  1.8262
20716SOL    HW263871   9.412   1.170   6.240 -0.0298  0.2515 -1.2072
20717SOL     OW63872   4.289   3.558   9.434  0.2004  0.1996  0.3227
20717SOL    HW163873   4.304   3.472   9.395 -2.0390 -0.2154  0.2429
20717SOL    HW263874   4.307   3.620   9.364  0.2278 -0.3062 -0.1201
20718SOL     OW63875   2.206   4.285   7.142  0.0517 -0.5284  0.6653
20718SOL    HW163876   2.271   4.320   7.081  1.3739 -0.5694  1.9873
20718SOL    HW263877   2.244   4.203   7.173 -0.1569 -0.0713  2.2028
20719SOL     OW63878   8.116   6.551   5.993 -0.0531  0.1970 -0.5754
20719SOL    HW163879   8.023   6.528   5.988  0.1033 -0.6893  0.2463
20719SOL    HW263880   8.124   6.597   6.077  0.4820 -0.9466  0.0206
20720SOL     OW63881   4.661   7.972   5.050  0.3017 -0.2412 -0.0887
20720SOL    HW163882   4.566   7.956   5.053  0.1526  0.5904 -0.1031
20720SOL    HW263883   4.669   8.065   5.033  1.1298 -0.2569  0.1606
20721SOL     OW63884   5.408   7.791   6.341  0.3384 -0.0801 -0.4306
20721SOL    HW163885   5.428   7.883   6.322 -2.0806  0.6377  0.2043
20721SOL    HW263886   5.417   7.784   6.436 -0.4031 -0.2481 -0.3704
20722SOL     OW63887   4.289   8.634   9.525 -0.0146  0.0435 -0.3780
20722SOL    HW163888   4.296   8.542   9.498  0.9733 -0.2021  0.6475
20722SOL    HW263889   4.246   8.677   9.451  1.2658 -0.8828 -1.7216
20723SOL     OW63890   8.712   1.046   4.288  0.5902  0.2624  0.3829
20723SOL    HW163891   8.717   1.073   4.196  0.4250 -0.4216  0.1649
20723SOL    HW263892   8.618   1.040   4.306  0.6246 -0.6774  0.2681
20724SOL     OW63893   7.323   2.864   3.937  0.5475  0.3041 -0.2819
20724SOL    HW163894   7.304   2.850   4.030  0.2597 -1.5127 -0.5734
20724SOL    HW263895   7.293   2.953   3.919  0.4880  0.6313  1.3273
20725SOL     OW63896   1.693   7.123   1.778 -0.2497  0.0307  0.0806
20725SOL    HW163897   1.652   7.044   1.743 -0.5368  0.6735 -1.0865
20725SOL    HW263898   1.627   7.160   1.837 -0.5171 -0.0552 -0.1635
20726SOL     OW63899   7.118   6.074   2.013  0.1975 -0.3920 -0.5469
20726SOL    HW163900   7.059   6.017   1.963 -1.3051  0.6121 -0.0040
20726SOL    HW263901   7.153   6.018   2.082 -0.3552 -0.9499 -0.7064
20727SOL     OW63902   7.349   2.266   6.433  0.2791 -0.0724 -0.2309
20727SOL    HW163903   7.299   2.270   6.514  0.7866 -0.5732  0.1138
20727SOL    HW263904   7.293   2.216   6.373  0.3316 -0.5727  0.1307
20728SOL     OW63905   7.201   5.498   0.563  0.0463 -0.0393  0.1072
20728SOL    HW163906   7.239   5.568   0.617 -0.4725  1.6290 -1.5656
20728SOL    HW263907   7.126   5.467   0.613  0.3071  0.5751  0.9092
20729SOL     OW63908   6.764   9.531   2.638  0.2085 -0.2034  0.3801
20729SOL    HW163909   6.740   9.493   2.723 -0.7254 -0.8929 -0.1637
20729SOL    HW263910   6.857   9.511   2.628 -0.1618 -2.1269  0.2642
20730SOL     OW63911   8.988   6.719   9.286 -0.1583 -0.1345 -0.2684
20730SOL    HW163912   8.972   6.669   9.366 -1.7571 -0.5683 -0.8231
20730SOL    HW263913   8.927   6.792   9.291  1.2741  1.0963 -0.0803
20731SOL     OW63914   3.249   3.120   3.782 -0.3760 -0.0606  0.2896
20731SOL    HW163915   3.262   3.052   3.716 -0.9605  0.9272 -0.8835
20731SOL    HW263916   3.332   3.122   3.831 -0.2129 -1.3309  0.1059
20732SOL     OW63917   7.356   2.773   0.147  0.2374  0.1414 -0.7266
20732SOL    HW163918   7.374   2.834   0.219 -2.4307  1.4948 -1.0810
20732SOL    HW263919   7.321   2.695   0.191  0.7481  0.0703 -0.4386
20733SOL     OW63920   1.954   7.261   7.221 -0.3265  0.2839  0.4031
20733SOL    HW163921   1.895   7.283   7.293 -1.4256 -0.6150 -0.2013
20733SOL    HW263922   2.011   7.193   7.257 -1.3300 -0.6732  0.2446
20734SOL     OW63923   1.837   0.667   9.380  0.5639 -0.6450  0.6907
20734SOL    HW163924   1.867   0.750   9.415 -0.5517  0.6425 -1.1873
20734SOL    HW263925   1.891   0.653   9.302  0.1863 -1.2380  0.5305
20735SOL     OW63926   7.757   3.167   7.634  0.5455 -0.9461  0.4039
20735SOL    HW163927   7.852   3.173   7.626  0.3741  0.0504 -1.2303
20735SOL    HW263928   7.729   3.256   7.657 -0.0817 -0.9847 -0.1946
20736SOL     OW63929   9.634   1.650   0.838 -0.5564  0.3359 -0.5932
20736SOL    HW163930   9.609   1.596   0.764  0.2497  0.3600 -0.8881
20736SOL    HW263931   9.677   1.726   0.799  1.0915 -0.2803 -0.0787
20737SOL     OW63932   4.566   3.659   7.785 -0.6155  0.2749  0.1438
20737SOL    HW163933   4.613   3.694   7.709 -1.3507 -0.4509 -0.6633
20737SOL    HW263934   4.566   3.564   7.772 -0.2268  0.0780  1.3762
20738SOL     OW63935   2.884   8.756   9.392 -0.1676  0.2222  0.2456
20738SOL    HW163936   2.959   8.785   9.340  0.2759 -0.7398  0.3312
20738SOL    HW263937   2.826   8.714   9.329  1.3350 -2.8812  0.7296
20739SOL     OW63938   2.346   0.610   9.615 -0.3465 -0.4381  0.1700
20739SOL    HW163939   2.416   0.651   9.666 -1.3205  1.1401  0.2901
20739SOL    HW263940   2.391   0.572   9.540  0.6518  0.6548  0.1841
20740SOL     OW63941   2.098   3.695   1.444 -0.2665  0.4069 -0.3978
20740SOL    HW163942   2.166   3.751   1.406 -0.9976  1.9716  0.5026
20740SOL    HW263943   2.017   3.746   1.435 -1.1776 -0.9962 -0.5701
20741SOL     OW63944   5.638   4.818   1.409 -0.4793  0.3890  0.0758
20741SOL    HW163945   5.655   4.879   1.337  0.5602 -0.3988 -0.3772
20741SOL    HW263946   5.567   4.762   1.376 -1.7896  1.6166  0.6860
20742SOL     OW63947   3.539   9.557   5.232 -0.2244  0.1386 -0.0173
20742SOL    HW163948   3.542   9.536   5.139 -1.4786 -1.3782  0.2359
20742SOL    HW263949   3.617   9.516   5.268 -0.4989 -0.5543 -0.1924
20743SOL     OW63950   1.530   3.858   6.461 -0.2216  0.3027 -0.4257
20743SOL    HW163951   1.576   3.825   6.539  0.2916  0.0452 -0.8319
20743SOL    HW263952   1.592   3.919   6.421  0.5245 -1.3413 -1.9360
20744SOL     OW63953   7.425   8.584   6.463 -0.4616 -0.1723 -0.1713
20744SOL    HW163954   7.365   8.595   6.389 -0.8663 -2.8276 -0.3302
20744SOL    HW263955   7.422   8.490   6.482  1.1326  0.1486  1.9728
20745SOL     OW63956   4.782   9.076   5.092  0.1841  0.0918  0.5928
20745SOL    HW163957   4.837   9.152   5.070  0.3341 -0.5255 -1.2871
20745SOL    HW263958   4.804   9.010   5.027 -3.4733  0.1358 -0.9033
20746SOL     OW63959   8.467   0.597   8.820 -0.2577 -0.2351  0.1874
20746SOL    HW163960   8.378   0.578   8.789 -0.7276 -0.7217  1.7396
20746SOL    HW263961   8.456   0.623   8.911  1.2495 -1.1305  0.6719
20747SOL     OW63962   5.541   4.691   9.287  0.7295  0.7762 -0.4701
20747SOL    HW163963   5.516   4.781   9.308 -1.9269  0.4743 -1.9812
20747SOL    HW263964   5.472   4.637   9.324  1.1196 -0.4640 -1.4614
20748SOL     OW63965   8.240   6.104   5.939  0.5734  0.0374 -0.3331
20748SOL    HW163966   8.287   6.138   6.014 -1.3233  0.3486  0.7841
20748SOL    HW263967   8.231   6.179   5.880 -0.1061  0.4612  0.2958
20749SOL     OW63968   4.801   7.417   3.951  0.8799  0.1943 -0.2629
20749SOL    HW163969   4.877   7.472   3.969  0.7552  0.5108 -0.6646
20749SOL    HW263970   4.756   7.463   3.880  0.3165  0.0090 -0.0286
20750SOL     OW63971   1.521   1.624   0.510  0.0586  0.8393  0.1500
20750SOL    HW163972   1.511   1.659   0.599  1.6661 -0.4986  0.9066
20750SOL    HW263973   1.614   1.600   0.504 -0.3787 -0.6424 -1.3124
20751SOL     OW63974   4.347   3.813   1.028  0.5486  0.3187  0.0074
20751SOL    HW163975   4.441   3.826   1.042  0.2592 -0.0722  2.9725
20751SOL    HW263976   4.305   3.858   1.101 -1.7012  1.3308 -1.7651
20752SOL     OW63977   4.800   5.600   1.175 -0.0965 -0.5796 -0.0425
20752SOL    HW163978   4.764   5.519   1.140 -0.0465  0.3068 -2.3747
20752SOL    HW263979   4.865   5.627   1.109  0.3403  1.0121  0.9938
20753SOL     OW63980   0.362   2.509   7.164 -0.4161  0.0572 -0.2093
20753SOL    HW163981   0.399   2.429   7.126 -0.7787  0.7261 -2.0828
20753SOL    HW263982   0.355   2.490   7.257 -0.3764 -2.0403 -0.5815
20754SOL     OW63983   2.558   9.642   7.292  0.0206 -0.4417 -0.5101
20754SOL    HW163984   2.476   9.611   7.255 -0.2788 -0.3256  0.0537
20754SOL    HW263985   2.537   9.668   7.381  0.4808  0.4099 -0.6325
20755SOL     OW63986   8.986   1.696   6.979 -0.3707  0.0504 -0.9584
20755SOL    HW163987   9.051   1.657   6.921 -0.7499 -0.5943 -0.9509
20755SOL    HW263988   9.038   1.739   7.047  0.0410 -1.1187 -0.5165
20756SOL     OW63989   6.360   6.931   5.328 -0.1866 -0.1880 -0.5403
20756SOL    HW163990   6.427   6.964   5.269 -0.0283  0.0283 -0.2408
20756SOL    HW263991   6.320   6.858   5.281  0.3146 -0.3704 -0.6850
20757SOL     OW63992   2.679   1.236   8.980  0.6694 -0.7427 -0.1966
20757SOL    HW163993   2.627   1.249   8.901 -0.3985 -0.0503  0.5948
20757SOL    HW263994   2.658   1.311   9.035  0.5037 -1.7974  1.2331
20758SOL     OW63995   3.484   0.816   6.876 -0.1056  0.4056 -0.2947
20758SOL    HW163996   3.579   0.823   6.878 -0.1035  0.2042  0.6593
20758SOL    HW263997   3.466   0.723   6.889 -0.4575  0.6364  0.9790
20759SOL     OW63998   8.324   6.687   8.784  0.8107  0.3277 -0.0983
20759SOL    HW163999   8.319   6.618   8.850 -0.4587 -1.3090 -1.8047
20759SOL    HW264000   8.273   6.759   8.820 -1.6673 -1.3171 -0.0927
20760SOL     OW64001   3.813   9.642   7.026 -0.4547  0.6057 -0.1613
20760SOL    HW164002   3.859   9.650   7.109 -1.6549  0.6834  0.5189
20760SOL    HW264003   3.722   9.625   7.050 -0.6553 -0.3758 -1.4667
20761SOL     OW64004   3.144   3.607   0.045 -0.6063  0.6909 -0.5466
20761SOL    HW164005   3.210   3.676   0.044 -0.0381  0.1522 -0.5364
20761SOL    HW264006   3.193   3.525   0.037 -1.1700  0.2137  0.5477
20762SOL     OW64007   1.359   3.210   4.177 -0.1968  0.2367 -0.5773
20762SOL    HW164008   1.325   3.215   4.088 -1.7827 -2.7048 -0.2369
20762SOL    HW264009   1.294   3.159   4.225  1.6982 -0.1769  1.7310
20763SOL     OW64010   8.048   4.495   4.265  0.1334  0.4631 -0.0677
20763SOL    HW164011   8.080   4.507   4.175  0.6863  0.1976  0.0931
20763SOL    HW264012   8.078   4.408   4.290  1.1046  1.0524  0.8413
20764SOL     OW64013   8.610   0.205   2.065  0.2539 -0.3186  0.0203
20764SOL    HW164014   8.652   0.119   2.066  1.3016  0.1525  2.0707
20764SOL    HW264015   8.517   0.186   2.072  0.5777 -1.3177  2.5735
20765SOL     OW64016   7.214   9.168   4.900 -0.2830 -0.0916 -0.2199
20765SOL    HW164017   7.188   9.180   4.808  1.6604  0.0113 -0.7914
20765SOL    HW264018   7.205   9.255   4.939 -0.3283  0.0395 -0.5169
20766SOL     OW64019   8.293   5.465   5.228  0.4807 -0.4726  0.3505
20766SOL    HW164020   8.224   5.428   5.283  1.4644  0.0445  2.0360
20766SOL    HW264021   8.298   5.557   5.256  0.9621 -0.1741 -0.6830
20767SOL     OW64022   8.312   5.421   6.196  1.0339  0.0371 -0.0862
20767SOL    HW164023   8.395   5.446   6.235  0.4920  1.0143  0.4935
20767SOL    HW264024   8.330   5.413   6.103  1.9938 -0.7776  0.1541
20768SOL     OW64025   1.303   2.418   0.215 -0.2241 -0.3044 -0.1965
20768SOL    HW164026   1.228   2.380   0.170  0.4630 -0.8109 -0.9483
20768SOL    HW264027   1.340   2.480   0.152 -0.4177  0.4616  0.4343
20769SOL     OW64028   2.601   2.253   1.201 -0.2414 -0.3222  0.5343
20769SOL    HW164029   2.550   2.299   1.267 -1.8058 -0.4515 -0.5320
20769SOL    HW264030   2.536   2.203   1.151  1.1791 -2.1644  0.4256
20770SOL     OW64031   5.845   9.054   9.203  0.2358  0.1591 -0.2069
20770SOL    HW164032   5.758   9.014   9.196 -0.6502  1.9201  0.0686
20770SOL    HW264033   5.874   9.061   9.112 -0.2372  0.2260 -0.3586
20771SOL     OW64034   7.808   5.714   4.613 -0.1242 -0.6773  0.7447
20771SOL    HW164035   7.786   5.785   4.673  1.4495 -0.1287  0.6986
20771SOL    HW264036   7.903   5.720   4.602 -0.4323 -0.1250 -2.5484
20772SOL     OW64037   8.317   7.874   1.845  0.3670 -0.5376 -0.3997
20772SOL    HW164038   8.244   7.813   1.845  0.4885 -0.6902  0.1120
20772SOL    HW264039   8.334   7.892   1.753 -0.7698  0.0448 -0.5122
20773SOL     OW64040   8.525   8.888   4.543 -1.1221 -0.4561  0.1974
20773SOL    HW164041   8.598   8.943   4.515 -0.4884 -1.4891 -0.2403
20773SOL    HW264042   8.475   8.943   4.603 -1.2341  1.0444 -1.1945
20774SOL     OW64043   5.821   5.214   2.414  0.1034  0.6398 -0.0788
20774SOL    HW164044   5.845   5.220   2.507  1.5249  4.1409 -0.5406
20774SOL    HW264045   5.736   5.257   2.408 -0.2655 -0.1122 -0.3409
20775SOL     OW64046   1.170   3.822   7.830 -0.3296  0.0236  0.1929
20775SOL    HW164047   1.204   3.797   7.916  1.4725 -2.6555 -1.1431
20775SOL    HW264048   1.074   3.817   7.840 -0.1634  0.0674  2.0974
20776SOL     OW64049   7.982   1.139   3.985  0.4156 -0.0239  0.8593
20776SOL    HW164050   7.982   1.225   4.027  2.4504  0.0728  0.7307
20776SOL    HW264051   8.067   1.101   4.006  0.1327 -1.4083 -0.3178
20777SOL     OW64052   6.729   8.014   2.935  0.2058  0.0554  0.6293
20777SOL    HW164053   6.738   8.013   3.031 -2.4435  1.8917  0.9928
20777SOL    HW264054   6.654   7.957   2.918 -0.4038  1.0695 -0.1623
20778SOL     OW64055   1.531   5.588   8.680 -0.3415 -0.0774  0.1162
20778SOL    HW164056   1.526   5.550   8.767 -0.3860  0.3553  0.3050
20778SOL    HW264057   1.591   5.531   8.632 -0.8203 -0.6815  0.2353
20779SOL     OW64058   0.829   0.271   0.524  0.1385 -0.0815 -0.0499
20779SOL    HW164059   0.805   0.321   0.446 -1.5346  0.5337  0.8162
20779SOL    HW264060   0.908   0.315   0.556  0.4112  0.1248 -0.9622
20780SOL     OW64061   0.828   2.718   0.733  0.5121 -0.2504  1.2296
20780SOL    HW164062   0.843   2.676   0.648  0.2416  1.1455  0.4608
20780SOL    HW264063   0.734   2.708   0.748  0.2806  0.7937  0.6155
20781SOL     OW64064   1.296   4.224   7.527  0.1310 -0.2961  0.5720
20781SOL    HW164065   1.294   4.163   7.453  0.6038  1.8502 -1.3307
20781SOL    HW264066   1.248   4.179   7.596  0.0345 -2.5981 -0.8686
20782SOL     OW64067   8.709   7.837   5.536 -0.1296  0.1257 -0.0457
20782SOL    HW164068   8.682   7.832   5.445  0.3736  0.7634 -0.2413
20782SOL    HW264069   8.764   7.915   5.540  0.1870 -0.1268  0.7174
20783SOL     OW64070   0.893   7.074   1.992  0.2173 -0.4539 -0.3609
20783SOL    HW164071   0.905   6.988   1.951 -0.3284 -0.8449  0.2782
20783SOL    HW264072   0.887   7.135   1.919 -0.4695 -1.1069 -0.8693
20784SOL     OW64073   0.142   5.539   3.323 -0.4454 -0.6429 -0.4723
20784SOL    HW164074   0.200   5.465   3.341  1.0573  0.8064  1.0923
20784SOL    HW264075   0.079   5.539   3.394 -0.9737 -0.9054 -0.9365
20785SOL     OW64076   3.080   4.425   5.205 -0.5237  0.0345 -0.1595
20785SOL    HW164077   3.109   4.412   5.295  0.5582  1.6148 -0.2353
20785SOL    HW264078   3.072   4.520   5.197 -1.9392 -0.1563 -1.3433
20786SOL     OW64079   2.885   2.248   7.993  0.0047 -0.0354 -0.0486
20786SOL    HW164080   2.790   2.255   7.981  0.1822 -0.8000 -2.3384
20786SOL    HW264081   2.911   2.178   7.934  2.2293  1.2616 -0.6817
20787SOL     OW64082   8.335   9.091   4.656  0.2437  0.0258 -0.3136
20787SOL    HW164083   8.367   9.167   4.607  0.1461  1.2408  1.4083
20787SOL    HW264084   8.249   9.072   4.618  0.9746 -0.3124 -1.8672
20788SOL     OW64085   2.866   8.557   5.609  0.4863 -0.3015  0.5107
20788SOL    HW164086   2.851   8.534   5.701  1.6954  1.1627  1.1093
20788SOL    HW264087   2.945   8.611   5.610 -0.6105  1.4640 -1.1212
20789SOL     OW64088   4.339   7.882   0.405  0.0459 -0.3388 -0.4135
20789SOL    HW164089   4.412   7.889   0.467 -0.2709  3.1208 -0.2335
20789SOL    HW264090   4.381   7.870   0.320  1.0014  2.5338 -0.4341
20790SOL     OW64091   3.626   6.165   3.624 -0.4128 -0.6641 -0.1419
20790SOL    HW164092   3.639   6.126   3.537  3.2278 -0.9368  0.3908
20790SOL    HW264093   3.593   6.253   3.606  0.3954 -0.6658 -1.8266
20791SOL     OW64094   0.179   4.349   9.261  0.0066 -0.2824  0.3041
20791SOL    HW164095   0.116   4.315   9.324  0.1539 -1.4783 -0.1797
20791SOL    HW264096   0.212   4.430   9.301 -2.2961  0.7436  0.2833
20792SOL     OW64097   1.261   3.868   8.314  0.5208  0.0821  0.0097
20792SOL    HW164098   1.236   3.816   8.390 -0.0375  1.1898  0.6131
20792SOL    HW264099   1.328   3.928   8.347 -0.0778  0.9055 -0.2418
20793SOL     OW64100   8.953   3.074   9.095 -0.0370 -0.2340 -0.1409
20793SOL    HW164101   8.991   3.118   9.171 -0.9250  0.4307 -0.0650
20793SOL    HW264102   8.882   3.021   9.131  0.4322 -1.0036 -0.3447
20794SOL     OW64103   7.771   9.223   8.188 -0.1020 -0.0060  0.0661
20794SOL    HW164104   7.847   9.224   8.247 -0.4908 -0.4298  0.5873
20794SOL    HW264105   7.799   9.169   8.114 -0.2689 -1.1154  0.7854
20795SOL     OW64106   2.309   8.581   1.210  0.4093 -0.7401  0.2400
20795SOL    HW164107   2.352   8.650   1.160 -0.4595 -0.5958 -0.3312
20795SOL    HW264108   2.216   8.595   1.195  0.1277 -0.7444  1.8507
20796SOL     OW64109   7.851   5.702   3.641 -0.0861  0.4677  0.5213
20796SOL    HW164110   7.906   5.710   3.719 -1.2523  1.3953  1.2977
20796SOL    HW264111   7.767   5.671   3.675 -0.9105  1.7894 -0.2227
20797SOL     OW64112   2.681   2.151   5.389 -0.0562  0.3372 -0.1128
20797SOL    HW164113   2.740   2.212   5.345 -0.2047  2.0324  1.8871
20797SOL    HW264114   2.738   2.098   5.444 -0.1865  0.5821  0.2623
20798SOL     OW64115   5.856   9.274   8.097 -0.7031 -0.1228 -0.0849
20798SOL    HW164116   5.845   9.208   8.029 -1.6096 -1.9512  1.7165
20798SOL    HW264117   5.947   9.266   8.125 -0.8312 -0.7054  0.1810
20799SOL     OW64118   4.573   2.359   6.804  0.2996  0.1619  0.3236
20799SOL    HW164119   4.646   2.419   6.791  0.9576 -0.7126 -0.1701
20799SOL    HW264120   4.495   2.413   6.794  0.8453  0.6807 -1.5675
20800SOL     OW64121   0.833   0.445   4.423 -0.3905  0.1251 -0.1411
20800SOL    HW164122   0.847   0.520   4.479  0.4122  0.1510 -0.3616
20800SOL    HW264123   0.908   0.444   4.364 -0.9588 -0.1930 -0.8830
20801SOL     OW64124   6.021   5.036   4.688 -0.4537 -0.3470  0.0350
20801SOL    HW164125   6.061   4.961   4.644 -0.4045  0.1104 -0.7207
20801SOL    HW264126   6.032   5.018   4.781  4.4754  1.2395  0.0383
20802SOL     OW64127   6.709   2.228   8.924 -0.1914 -0.0321  0.6378
20802SOL    HW164128   6.636   2.286   8.945 -0.1866 -0.5749  2.2892
20802SOL    HW264129   6.667   2.144   8.902 -0.1265  0.1269 -0.1144
20803SOL     OW64130   4.661   1.909   0.472  0.5170 -0.6303 -0.0663
20803SOL    HW164131   4.647   1.899   0.566  0.8817 -1.6312 -0.1009
20803SOL    HW264132   4.678   2.002   0.460 -0.5981 -0.3092  0.7041
20804SOL     OW64133   9.200   4.997   7.026 -0.2029  0.3697  0.5117
20804SOL    HW164134   9.127   5.049   7.058 -0.0800  0.5492  0.4995
20804SOL    HW264135   9.167   4.957   6.945 -0.1970  0.6671  0.3608
20805SOL     OW64136   1.217   5.635   9.628  0.3854 -0.5489  0.4218
20805SOL    HW164137   1.267   5.645   9.709 -0.1368 -0.4630  0.7385
20805SOL    HW264138   1.272   5.675   9.561  0.9998 -0.9647  0.6651
20806SOL     OW64139   6.262   5.002   1.528  0.6161 -0.3773  0.0573
20806SOL    HW164140   6.235   4.935   1.465  1.4172 -0.6388 -0.0194
20806SOL    HW264141   6.236   4.967   1.613  1.0231 -0.7880  0.0164
20807SOL     OW64142   7.188   8.623   0.164 -0.2950  0.0783 -0.6177
20807SOL    HW164143   7.276   8.658   0.173 -0.0285 -0.3316 -1.4662
20807SOL    HW264144   7.201   8.533   0.135 -0.9909 -0.0578 -0.5249
20808SOL     OW64145   7.072   6.939   5.300 -0.1605  0.5609 -0.0640
20808SOL    HW164146   7.012   6.864   5.302  0.1864  0.2363 -1.1324
20808SOL    HW264147   7.021   7.010   5.261  0.2155  0.2089 -1.2220
20809SOL     OW64148   0.786   0.910   4.639  0.4930  0.4817  0.0305
20809SOL    HW164149   0.810   0.997   4.671 -1.0250  0.3302  1.7041
20809SOL    HW264150   0.692   0.904   4.653  0.7925 -2.0269  1.5097
20810SOL     OW64151   6.630   5.214   7.221  0.1623 -0.9919 -0.1905
20810SOL    HW164152   6.574   5.175   7.153 -1.7658  0.2660  0.5868
20810SOL    HW264153   6.618   5.308   7.210  1.7353 -0.6849  0.3957
20811SOL     OW64154   8.626   7.932   9.102 -0.3254  0.4782  0.4797
20811SOL    HW164155   8.685   7.865   9.136  0.8355  0.9349 -0.5754
20811SOL    HW264156   8.601   7.983   9.179  0.3534  0.0402  1.0022
20812SOL     OW64157   5.863   5.225   5.466 -0.0280  0.1728 -0.6761
20812SOL    HW164158   5.889   5.205   5.555 -0.3141  0.0923 -0.6081
20812SOL    HW264159   5.913   5.303   5.442 -2.4971  2.3676  0.8072
20813SOL     OW64160   8.850   2.723   7.081  0.4583  0.1143  0.3454
20813SOL    HW164161   8.919   2.658   7.067 -1.3836 -1.8850  0.0682
20813SOL    HW264162   8.834   2.723   7.175  0.3516  0.0767  0.3269
20814SOL     OW64163   3.560   4.853   0.659  0.7304  0.5038  0.2383
20814SOL    HW164164   3.486   4.800   0.689  1.3942  0.2237  1.4626
20814SOL    HW264165   3.523   4.911   0.593 -0.0292 -1.4348 -1.1256
20815SOL     OW64166   3.889   2.900   4.139  0.0521 -0.8529  0.1395
20815SOL    HW164167   3.953   2.892   4.209 -1.8078 -0.3927  2.0101
20815SOL    HW264168   3.906   2.826   4.082  2.8399 -0.1933 -0.0369
20816SOL     OW64169   9.121   0.758   0.976 -0.1512  0.0415  0.5301
20816SOL    HW164170   9.100   0.803   0.895 -1.9253 -2.0155 -0.2735
20816SOL    HW264171   9.036   0.745   1.019  0.5162 -0.7486  1.6808
20817SOL     OW64172   2.434   8.334   1.061  0.4572 -0.3817 -0.5767
20817SOL    HW164173   2.392   8.393   1.124  1.5796  1.3909 -1.4070
20817SOL    HW264174   2.374   8.332   0.987 -1.7060 -3.7968  1.0236
20818SOL     OW64175   2.746   1.850   0.486 -0.0446  0.0456  0.3016
20818SOL    HW164176   2.737   1.804   0.403 -0.1058 -0.7867  0.7544
20818SOL    HW264177   2.805   1.794   0.538 -1.4662 -0.4339  1.4741
20819SOL     OW64178   6.039   9.517   3.888 -0.3751 -0.0564  0.1529
20819SOL    HW164179   6.072   9.588   3.943  0.7847  0.3636 -1.0488
20819SOL    HW264180   6.033   9.442   3.947  0.5748  0.4518  0.9180
20820SOL     OW64181   8.764   4.350   1.476  0.2043  0.1995 -0.4411
20820SOL    HW164182   8.690   4.304   1.435  0.4679 -1.5744  0.9348
20820SOL    HW264183   8.736   4.365   1.566  2.0303 -2.0060  0.6091
20821SOL     OW64184   3.089   3.117   6.668  0.2507 -0.1985 -0.0785
20821SOL    HW164185   3.034   3.064   6.726  0.1127 -1.6779 -1.4872
20821SOL    HW264186   3.159   3.058   6.641 -0.2771  0.0495 -2.2414
20822SOL     OW64187   6.638   2.950   3.239 -0.1204  0.0673 -0.6983
20822SOL    HW164188   6.672   2.890   3.306 -1.0413 -0.5947 -0.8008
20822SOL    HW264189   6.667   3.037   3.267  1.5844 -0.4421 -0.7536
20823SOL     OW64190   3.423   3.061   2.996 -0.1885  0.0694  0.0764
20823SOL    HW164191   3.347   3.026   3.044 -1.2415  0.5321 -1.1969
20823SOL    HW264192   3.465   3.121   3.058 -0.9465 -0.0917  0.7631
20824SOL     OW64193   3.515   3.141   3.890 -0.1246  0.6557  0.4632
20824SOL    HW164194   3.558   3.226   3.899  0.3561  0.4955 -0.2027
20824SOL    HW264195   3.561   3.083   3.951 -1.4128  1.1999  2.0222
20825SOL     OW64196   9.345   2.852   5.630  0.0517  0.3619 -0.5443
20825SOL    HW164197   9.295   2.771   5.624 -0.3247  0.6031 -0.7099
20825SOL    HW264198   9.420   2.830   5.685  0.0269 -0.1338 -0.7029
20826SOL     OW64199   2.991   3.313   1.850 -0.3758  0.1365  0.0633
20826SOL    HW164200   3.069   3.363   1.826 -0.1315 -0.1896  0.1553
20826SOL    HW264201   2.948   3.293   1.767 -0.2882  0.2015  0.0026
20827SOL     OW64202   9.421   8.185   2.082  0.5355  0.1168  0.2017
20827SOL    HW164203   9.405   8.133   2.161 -0.6927  0.6096  0.3059
20827SOL    HW264204   9.344   8.241   2.075  1.3305  1.1553 -0.5080
20828SOL     OW64205   4.415   8.271   1.309  0.2728  0.1612  0.8149
20828SOL    HW164206   4.494   8.218   1.302  0.0905 -0.1604  1.1973
20828SOL    HW264207   4.409   8.295   1.401 -0.8940 -1.0890  1.0834
20829SOL     OW64208   7.803   8.178   1.268  0.3890  0.5599  0.7178
20829SOL    HW164209   7.766   8.266   1.272 -2.1035 -0.2774 -1.1303
20829SOL    HW264210   7.812   8.151   1.359 -0.7188  1.9930  1.2884
20830SOL     OW64211   1.033   4.182   8.610  0.5010  0.1555  0.0987
20830SOL    HW164212   0.941   4.156   8.601  0.4316  0.3635  0.2081
20830SOL    HW264213   1.042   4.208   8.702  1.0674 -1.4012  0.5306
20831SOL     OW64214   2.076   8.286   3.785  0.2258  0.1384  0.1206
20831SOL    HW164215   2.024   8.263   3.708  0.5915  0.1045 -0.1189
20831SOL    HW264216   2.036   8.238   3.857  0.2994 -0.3727 -0.1739
20832SOL     OW64217   0.543   7.673   6.367 -0.7394  0.2349 -1.0719
20832SOL    HW164218   0.448   7.663   6.359 -0.7112 -0.3019 -0.7573
20832SOL    HW264219   0.556   7.767   6.379 -1.3808  0.1092  0.8552
20833SOL     OW64220   2.659   8.107   0.461 -0.0544 -0.4656 -0.2038
20833SOL    HW164221   2.575   8.151   0.475  0.1608 -0.2362  0.4125
20833SOL    HW264222   2.665   8.096   0.367 -1.2692 -1.4635 -0.1874
20834SOL     OW64223   2.122   7.137   7.944  0.0386  0.0273  0.6596
20834SOL    HW164224   2.058   7.147   7.873  1.7845  2.5966 -0.7277
20834SOL    HW264225   2.159   7.050   7.930 -1.2517 -0.4351 -0.1327
20835SOL     OW64226   6.392   5.070   7.784  0.1041  0.2802 -0.4092
20835SOL    HW164227   6.336   5.034   7.853 -1.4216  1.9750 -0.6821
20835SOL    HW264228   6.481   5.048   7.811 -0.6292 -2.7704 -0.1025
20836SOL     OW64229   1.615   0.042   7.430 -0.1689 -0.3609  0.2860
20836SOL    HW164230   1.662   0.093   7.496 -0.1093  1.5504 -1.1562
20836SOL    HW264231   1.530   0.023   7.471  0.6342 -1.0501  1.6823
20837SOL     OW64232   5.196   8.583   2.310 -0.6891  0.2081  0.2741
20837SOL    HW164233   5.254   8.528   2.364 -0.2704 -1.8077 -2.0749
20837SOL    HW264234   5.256   8.638   2.260 -0.9649  0.3732  0.1278
20838SOL     OW64235   5.822   2.125   2.095  0.0760  0.0064 -0.6609
20838SOL    HW164236   5.751   2.176   2.134 -0.0720 -0.1146 -0.7710
20838SOL    HW264237   5.790   2.102   2.008 -0.1591 -0.8859 -0.3488
20839SOL     OW64238   5.772   1.610   1.064  0.1122  0.1489  0.4886
20839SOL    HW164239   5.759   1.519   1.089 -1.4750 -0.3386 -1.7405
20839SOL    HW264240   5.706   1.659   1.113 -0.5762 -0.2583 -0.0184
20840SOL     OW64241   7.512   8.666   7.853 -0.1727  0.1194  0.1780
20840SOL    HW164242   7.435   8.655   7.909  1.3428 -0.9691  2.2103
20840SOL    HW264243   7.554   8.580   7.853  1.0188  0.6698 -0.9145
20841SOL     OW64244   5.972   4.927   1.423 -0.5523  0.0713 -0.5587
20841SOL    HW164245   5.943   4.842   1.458  0.8462 -0.7009 -1.1845
20841SOL    HW264246   6.060   4.910   1.389 -0.0211  1.9110 -0.2117
20842SOL     OW64247   8.942   1.270   0.439  0.2799  0.0435  0.1430
20842SOL    HW164248   8.858   1.293   0.399  1.3585  2.2800 -1.0276
20842SOL    HW264249   9.006   1.287   0.371  1.6853 -2.1075  0.8475
20843SOL     OW64250   5.643   5.958   4.162  0.2581 -0.2737 -0.7910
20843SOL    HW164251   5.615   5.947   4.070 -0.9608 -0.6827 -0.3960
20843SOL    HW264252   5.564   5.990   4.206  1.0869  0.7895 -0.0440
20844SOL     OW64253   2.865   1.831   6.812  0.5123 -0.0852 -0.5487
20844SOL    HW164254   2.949   1.797   6.780  2.3818  1.4692  2.2210
20844SOL    HW264255   2.832   1.762   6.870  0.1585 -0.4444 -1.1669
20845SOL     OW64256   9.472   5.055   6.838 -0.2174  0.1736 -0.3645
20845SOL    HW164257   9.457   4.968   6.800 -2.5053  0.2609  0.1743
20845SOL    HW264258   9.478   5.039   6.932  4.0937  0.1181 -0.4774
20846SOL     OW64259   8.083   8.515   1.210  0.9322  0.1120 -0.1882
20846SOL    HW164260   8.078   8.419   1.209  0.1463  0.1520 -1.4522
20846SOL    HW264261   7.995   8.544   1.189  0.5456  1.1911  2.4889
20847SOL     OW64262   4.108   3.299   2.743 -0.4185  0.3417 -0.2067
20847SOL    HW164263   4.059   3.365   2.793 -3.5215 -0.5731 -1.7906
20847SOL    HW264264   4.133   3.234   2.809 -0.7633  1.1681  0.7782
20848SOL     OW64265   4.435   8.831   1.531 -0.5929 -0.7560  0.2674
20848SOL    HW164266   4.501   8.853   1.466  0.2810  3.1820  2.1404
20848SOL    HW264267   4.484   8.806   1.609 -1.0846  2.1545  1.6656
20849SOL     OW64268   3.480   0.312   3.891  0.0501  0.3910  0.3526
20849SOL    HW164269   3.403   0.326   3.836  1.2865 -0.4061 -1.7148
20849SOL    HW264270   3.468   0.223   3.926  0.5230 -0.1877 -0.8921
20850SOL     OW64271   6.080   2.443   4.908 -0.3061  0.3792  0.3733
20850SOL    HW164272   6.094   2.497   4.830  0.4297  0.2569  0.4181
20850SOL    HW264273   6.158   2.389   4.914 -0.5033  0.1602  1.0189
20851SOL     OW64274   2.567   1.850   8.531  0.2733  0.0898 -0.3947
20851SOL    HW164275   2.594   1.886   8.615  0.3510 -0.4720 -0.1741
20851SOL    HW264276   2.473   1.868   8.527  0.4205  0.8468 -0.5610
20852SOL     OW64277   3.529   7.951   3.584  0.4779  0.4500 -0.4419
20852SOL    HW164278   3.521   7.856   3.575  0.6005  0.3306  0.5645
20852SOL    HW264279   3.458   7.986   3.531  0.4220 -0.2012 -0.8126
20853SOL     OW64280   4.874   2.520   0.659  0.2415  0.1635  0.3554
20853SOL    HW164281   4.925   2.484   0.731 -0.0240  0.3307  0.6336
20853SOL    HW264282   4.892   2.463   0.585 -1.0094 -1.1915  1.0541
20854SOL     OW64283   4.426   2.260   1.770  0.4035  0.2131 -0.1988
20854SOL    HW164284   4.472   2.176   1.772  1.7560  0.9151 -0.5797
20854SOL    HW264285   4.402   2.276   1.861 -0.2368 -0.7668 -0.1782
20855SOL     OW64286   4.331   6.203   1.487  0.3399  0.1692 -0.7092
20855SOL    HW164287   4.383   6.180   1.564 -0.0111 -0.6812 -0.7164
20855SOL    HW264288   4.335   6.299   1.483  1.1664  0.1617 -0.2035
20856SOL     OW64289   7.245   1.626   0.961 -0.2290  0.4238  0.1335
20856SOL    HW164290   7.168   1.626   0.903 -1.8652  1.1690  2.1527
20856SOL    HW264291   7.215   1.671   1.040  2.0739 -0.0029  1.3403
20857SOL     OW64292   5.358   8.570   6.600 -0.1622 -0.8842 -0.1427
20857SOL    HW164293   5.320   8.482   6.600 -2.1637 -0.1154  1.3965
20857SOL    HW264294   5.318   8.614   6.526  1.4586 -1.4551 -1.4081
20858SOL     OW64295   5.198   4.060   8.812  1.1998 -0.2701  0.2665
20858SOL    HW164296   5.132   4.040   8.880  2.0804  0.0606  1.2469
20858SOL    HW264297   5.248   3.979   8.803  0.4725 -0.6211 -0.7089
20859SOL     OW64298   4.875   4.453   1.858 -0.0728 -0.3322 -0.0187
20859SOL    HW164299   4.865   4.411   1.944  0.1360 -0.0330  0.1562
20859SOL    HW264300   4.793   4.434   1.812  0.6178 -2.2792 -0.5505
20860SOL     OW64301   5.934   4.682   7.452 -0.1765  0.2360 -0.5485
20860SOL    HW164302   6.000   4.663   7.385  0.5762  0.2583  0.1675
20860SOL    HW264303   5.859   4.716   7.403  0.9631  1.8896 -1.2553
20861SOL     OW64304   4.436   9.467   8.528 -0.0745  0.6159  0.3483
20861SOL    HW164305   4.379   9.535   8.491  0.1643  0.9673  0.6268
20861SOL    HW264306   4.402   9.385   8.491 -1.5456  0.6884  1.4748
20862SOL     OW64307   5.403   1.233   7.160  0.3563  0.0520 -0.1589
20862SOL    HW164308   5.474   1.184   7.117 -0.5828 -0.8553 -0.7063
20862SOL    HW264309   5.349   1.166   7.201 -0.8556  0.6329 -0.7565
20863SOL     OW64310   2.349   2.028   8.923 -0.0922 -0.1857  0.4287
20863SOL    HW164311   2.309   2.113   8.904  1.3765  0.5051  0.3076
20863SOL    HW264312   2.427   2.026   8.868  0.0141 -1.5281  0.6042
20864SOL     OW64313   5.189   9.048   4.952  0.0484  0.7331  0.2914
20864SOL    HW164314   5.264   9.074   4.899 -1.9011  1.9464 -2.0691
20864SOL    HW264315   5.157   8.967   4.911 -0.1104  0.3790  1.0956
20865SOL     OW64316   0.970   7.920   8.252  0.1949  0.3280  0.0797
20865SOL    HW164317   1.009   7.838   8.283 -2.9912 -2.1116 -1.7622
20865SOL    HW264318   0.951   7.904   8.160 -1.7952  2.6479 -0.0123
20866SOL     OW64319   4.430   2.420   9.043  0.2892 -0.4204 -0.8382
20866SOL    HW164320   4.386   2.351   9.092  2.2083 -2.1276 -1.3834
20866SOL    HW264321   4.487   2.463   9.107  0.9611 -1.0310 -1.0104
20867SOL     OW64322   6.913   4.722   0.659 -0.4500  0.1044  0.3400
20867SOL    HW164323   6.981   4.705   0.723 -0.8244  1.6986  1.2078
20867SOL    HW264324   6.953   4.699   0.575  0.8485  0.1528  0.9199
20868SOL     OW64325   6.871   4.018   3.200 -0.0790 -0.5197  0.5025
20868SOL    HW164326   6.882   4.102   3.156 -0.3117  0.1219  1.6439
20868SOL    HW264327   6.959   3.980   3.202  0.3497  0.4921  1.5293
20869SOL     OW64328   7.496   1.447   3.053  0.4730 -0.0523 -0.1642
20869SOL    HW164329   7.500   1.542   3.064  0.8751 -0.1712  0.7753
20869SOL    HW264330   7.544   1.430   2.971 -0.4958  0.6304 -0.9009
20870SOL     OW64331   9.386   1.145   7.963  0.0719 -0.1828 -0.4443
20870SOL    HW164332   9.403   1.216   7.901  0.5346 -1.1768 -1.4986
20870SOL    HW264333   9.434   1.070   7.927 -0.0125 -0.9040  0.8985
20871SOL     OW64334   9.527   4.569   0.462  0.1210 -0.6663  0.4661
20871SOL    HW164335   9.485   4.486   0.483  0.5023 -0.8087  0.6740
20871SOL    HW264336   9.455   4.632   0.455 -0.0516 -0.6781  1.8960
20872SOL     OW64337   6.323   1.209   5.970  0.1294 -0.2842 -0.3042
20872SOL    HW164338   6.298   1.283   6.026  1.2627 -0.2137  0.1357
20872SOL    HW264339   6.246   1.151   5.971 -0.7694  0.8523 -0.6282
20873SOL     OW64340   2.252   7.933   5.873 -0.7418 -0.4416 -0.4277
20873SOL    HW164341   2.228   7.897   5.958 -2.2401 -0.3392 -0.7858
20873SOL    HW264342   2.208   8.018   5.870 -0.6100 -0.3968 -1.2633
20874SOL     OW64343   1.832   3.445   3.136  0.4495  0.0884  0.2273
20874SOL    HW164344   1.750   3.402   3.111  0.5289 -1.3295  2.1201
20874SOL    HW264345   1.901   3.388   3.102  0.5750 -0.6206  1.6120
20875SOL     OW64346   8.998   2.012   6.924 -0.1081  0.5659 -0.4844
20875SOL    HW164347   8.985   1.951   6.851 -0.2019  0.6267 -0.5193
20875SOL    HW264348   9.082   2.053   6.905  0.6058 -0.5232  0.2469
20876SOL     OW64349   8.687   6.508   3.805  0.2464  0.3758 -0.2026
20876SOL    HW164350   8.660   6.438   3.746  1.6407  0.5870 -1.1272
20876SOL    HW264351   8.736   6.465   3.875  0.4056  0.3435 -0.3350
20877SOL     OW64352   0.520   4.721   6.202 -0.0019  0.4505 -0.5129
20877SOL    HW164353   0.457   4.665   6.248 -0.1468  1.7933  1.0076
20877SOL    HW264354   0.467   4.768   6.137 -0.3888  0.8023  0.0503
20878SOL     OW64355   7.003   8.753   5.555 -0.0306 -0.0173 -0.0629
20878SOL    HW164356   6.962   8.823   5.503  0.1705  0.0483 -0.1322
20878SOL    HW264357   7.096   8.774   5.555  0.1998 -0.9097 -1.0776
20879SOL     OW64358   1.859   4.010   5.372 -0.5312  0.4292 -0.9498
20879SOL    HW164359   1.794   3.974   5.432 -0.8576  0.8955 -1.0097
20879SOL    HW264360   1.820   3.998   5.285  0.0145 -0.3998 -1.0897
20880SOL     OW64361   0.869   0.869   7.193 -0.2342  0.1986 -0.1072
20880SOL    HW164362   0.871   0.962   7.216  3.4363  0.3146 -0.3555
20880SOL    HW264363   0.810   0.865   7.118 -0.6791  2.2521  0.0502
20881SOL     OW64364   6.142   0.248   0.145 -0.3471  0.2524  0.0770
20881SOL    HW164365   6.121   0.341   0.154 -0.3195  0.3542 -0.8193
20881SOL    HW264366   6.238   0.244   0.148 -0.3312  0.3072 -0.3495
20882SOL     OW64367   6.653   9.318   9.192 -0.4108 -0.0298  0.4240
20882SOL    HW164368   6.714   9.354   9.256 -0.1058  0.2725 -0.0299
20882SOL    HW264369   6.686   9.349   9.107 -1.6258  0.8166  0.2260
20883SOL     OW64370   7.741   7.235   1.034 -0.3076 -0.4753  0.5181
20883SOL    HW164371   7.834   7.223   1.053 -0.0769 -0.2315 -0.4375
20883SOL    HW264372   7.726   7.329   1.044 -0.1960 -0.3513 -0.4112
20884SOL     OW64373   4.602   6.646   2.756 -0.0076  0.5353  1.2434
20884SOL    HW164374   4.507   6.636   2.757 -0.0248  0.5521  0.5334
20884SOL    HW264375   4.635   6.558   2.743  0.0066  0.7136 -0.1192
20885SOL     OW64376   7.991   6.120   2.240 -0.3128 -0.0913  0.0449
20885SOL    HW164377   7.936   6.077   2.175 -0.1157 -0.0700 -0.1377
20885SOL    HW264378   7.938   6.122   2.320 -0.4978 -0.2520 -0.0744
20886SOL     OW64379   7.777   2.587   2.567  0.0630 -0.3015 -0.3211
20886SOL    HW164380   7.781   2.572   2.662  1.7840 -1.4720 -0.5239
20886SOL    HW264381   7.694   2.632   2.553 -0.1013  0.1493  1.7746
20887SOL     OW64382   1.603   5.451   5.627 -0.1174 -0.0928  0.4971
20887SOL    HW164383   1.563   5.453   5.540 -0.4830 -1.0075  0.6322
20887SOL    HW264384   1.544   5.397   5.680  0.1008  0.4472  1.3192
20888SOL     OW64385   1.661   7.212   3.256 -0.2351 -0.3765 -0.5075
20888SOL    HW164386   1.726   7.181   3.193  1.3819 -0.2984  1.0369
20888SOL    HW264387   1.588   7.150   3.248  1.5822 -2.7518  0.2822
20889SOL     OW64388   9.124   7.987   5.610 -0.3728 -0.0250  0.0325
20889SOL    HW164389   9.142   8.001   5.703  1.8485  0.7169 -0.4520
20889SOL    HW264390   9.095   8.073   5.578  1.8362  0.5730 -0.5307
20890SOL     OW64391   2.098   6.704   2.637 -0.1114 -0.4575 -0.3937
20890SOL    HW164392   2.164   6.673   2.698 -0.4179 -0.8205 -0.2477
20890SOL    HW264393   2.149   6.738   2.563  0.2591 -0.0024  0.0586
20891SOL     OW64394   4.022   5.707   7.860  0.1297 -0.2578 -0.6631
20891SOL    HW164395   3.975   5.624   7.863 -1.1101  0.4097 -0.7350
20891SOL    HW264396   3.972   5.760   7.798  1.3986  0.2571 -1.2808
20892SOL     OW64397   2.723   3.897   0.626  0.1960 -0.7752  0.5010
20892SOL    HW164398   2.782   3.827   0.655  1.4979 -0.0566 -0.3287
20892SOL    HW264399   2.759   3.976   0.665  1.2277  0.0256 -1.8989
20893SOL     OW64400   4.440   9.222   5.553  0.4716 -0.2498 -0.1546
20893SOL    HW164401   4.415   9.314   5.559  1.0096 -0.0524 -0.8050
20893SOL    HW264402   4.364   9.179   5.513  0.5419  0.0609 -0.6282
20894SOL     OW64403   7.764   5.612   0.316  0.9005 -0.2625 -0.1013
20894SOL    HW164404   7.852   5.629   0.283  0.9005  1.6342  0.7766
20894SOL    HW264405   7.767   5.634   0.409 -0.7934  1.0892 -0.3124
20895SOL     OW64406   7.805   3.808   6.668  0.3365  0.2884  0.0370
20895SOL    HW164407   7.840   3.776   6.751  0.4207  0.6308  0.1329
20895SOL    HW264408   7.773   3.729   6.624  0.4284  0.0868  0.3279
20896SOL     OW64409   6.778   7.836   7.515  0.4139  0.6674  0.4589
20896SOL    HW164410   6.743   7.898   7.451 -0.7351 -2.4857 -2.2869
20896SOL    HW264411   6.864   7.812   7.480 -0.4308 -1.4625 -0.3089
20897SOL     OW64412   2.653   5.548   6.537  0.4812  0.2000 -0.0904
20897SOL    HW164413   2.653   5.462   6.579  0.2997  0.5986  0.7518
20897SOL    HW264414   2.561   5.564   6.515  0.7377 -0.5721 -1.8679
20898SOL     OW64415   6.050   1.745   5.685  0.2425 -0.9743 -0.5831
20898SOL    HW164416   6.116   1.697   5.734  1.4423  2.4326  1.4470
20898SOL    HW264417   5.966   1.714   5.719  1.0201  0.0981  2.6192
20899SOL     OW64418   6.362   2.860   4.551  0.1364 -0.2074 -0.2084
20899SOL    HW164419   6.290   2.797   4.556 -1.4179  1.5261  0.7007
20899SOL    HW264420   6.380   2.869   4.458 -2.0597  0.5430 -0.6244
20900SOL     OW64421   8.401   9.701   6.772 -0.5559  0.1531  0.0583
20900SOL    HW164422   8.475   9.752   6.742  0.3311 -1.1260 -0.0010
20900SOL    HW264423   8.439   9.620   6.805 -1.9569 -0.7120 -0.3655
20901SOL     OW64424   2.298   7.158   3.225  0.2696 -0.5352 -0.6098
20901SOL    HW164425   2.207   7.171   3.251  0.5354 -1.5883  0.9711
20901SOL    HW264426   2.294   7.135   3.132 -0.9858  0.3344 -0.7837
20902SOL     OW64427   5.016   5.583   4.305 -0.1655 -0.2758 -0.0452
20902SOL    HW164428   4.929   5.615   4.328 -0.8980 -1.9364 -0.3178
20902SOL    HW264429   5.065   5.582   4.387 -1.8791 -3.5696  1.1043
20903SOL     OW64430   7.006   4.476   9.600 -0.3382 -0.2887  0.0343
20903SOL    HW164431   6.921   4.432   9.602 -0.6714  0.3453 -0.0214
20903SOL    HW264432   7.035   4.468   9.509 -0.0480 -1.0301  0.1796
20904SOL     OW64433   2.797   7.075   4.819  0.5392  0.2318 -0.1130
20904SOL    HW164434   2.719   7.096   4.768 -0.6177 -0.4316  1.2928
20904SOL    HW264435   2.778   7.108   4.907  0.8954 -1.8296  0.7987
20905SOL     OW64436   3.114   2.744   1.421  0.4349  0.4964 -0.1431
20905SOL    HW164437   3.147   2.774   1.505 -0.1982  0.1729  0.2256
20905SOL    HW264438   3.121   2.648   1.425 -0.3312  0.4361 -0.1450
20906SOL     OW64439   2.630   5.530   0.984  0.0557 -0.4074  0.1043
20906SOL    HW164440   2.602   5.584   0.910  0.1320  1.5263  1.4088
20906SOL    HW264441   2.711   5.488   0.954  0.2582  0.5906 -0.8217
20907SOL     OW64442   6.123   4.284   8.976  0.2628 -0.3991 -0.1556
20907SOL    HW164443   6.071   4.345   9.029  0.1793 -1.9982  1.7204
20907SOL    HW264444   6.146   4.334   8.898 -1.5487  1.3415  0.3326
20908SOL     OW64445   7.903   4.874   9.625 -0.2346  0.0947 -0.1262
20908SOL    HW164446   7.934   4.785   9.607  0.3964  0.4654 -0.9713
20908SOL    HW264447   7.957   4.930   9.568  0.3632  1.1555  1.4203
20909SOL     OW64448   9.475   3.881   1.913  0.0081 -0.4301 -0.3795
20909SOL    HW164449   9.381   3.870   1.929  0.2147 -1.2972  0.3713
20909SOL    HW264450   9.489   3.841   1.827 -0.3931  0.1804 -0.7334
20910SOL     OW64451   1.282   5.427   3.730 -0.0834  0.1059  0.0294
20910SOL    HW164452   1.284   5.332   3.718  0.6442  0.2475 -1.1727
20910SOL    HW264453   1.291   5.463   3.641 -0.7793  1.3060  0.4095
20911SOL     OW64454   9.245   6.004   5.687 -0.0737 -0.3098 -0.3429
20911SOL    HW164455   9.325   6.045   5.656  0.5624 -0.6680  0.7460
20911SOL    HW264456   9.219   5.944   5.617  1.6545 -1.5571  0.0114
20912SOL     OW64457   0.851   4.542   8.543  0.2391  0.2769 -0.0093
20912SOL    HW164458   0.884   4.576   8.626  0.9870 -0.5402  0.0378
20912SOL    HW264459   0.869   4.448   8.545 -1.5357 -0.1117 -0.2689
20913SOL     OW64460   5.614   3.533   4.718  0.2317 -0.1659 -0.4136
20913SOL    HW164461   5.684   3.470   4.703  1.2390  1.0374 -1.0403
20913SOL    HW264462   5.650   3.616   4.686 -1.0288  0.7316  0.3969
20914SOL     OW64463   1.465   9.686   9.030  0.2501  0.2669 -0.2350
20914SOL    HW164464   1.548   9.726   9.003  0.4335  0.2432  0.2752
20914SOL    HW264465   1.409   9.692   8.953  0.6904  0.3835 -0.5507
20915SOL     OW64466   6.204   7.107   8.626  0.2293  0.3668 -0.5996
20915SOL    HW164467   6.126   7.100   8.571 -0.6950  1.3116  0.5258
20915SOL    HW264468   6.195   7.192   8.669  2.0400  0.6219 -0.6435
20916SOL     OW64469   9.093   9.446   6.111  0.1375 -0.0320 -0.1467
20916SOL    HW164470   9.079   9.415   6.201 -0.4019 -0.5461 -0.4004
20916SOL    HW264471   9.135   9.372   6.066  1.6843  0.7136  0.0281
20917SOL     OW64472   1.490   5.229   5.732  0.2465 -0.0016  0.0143
20917SOL    HW164473   1.565   5.172   5.720 -0.4747 -0.6380 -1.8935
20917SOL    HW264474   1.433   5.181   5.792  0.3557 -0.5690 -0.3281
20918SOL     OW64475   2.108   5.559   8.734 -0.0728  0.0704  0.1532
20918SOL    HW164476   2.101   5.467   8.761  0.2594 -0.1663 -0.5384
20918SOL    HW264477   2.020   5.594   8.744 -0.2681 -0.4071  0.1301
20919SOL     OW64478   7.136   7.057   6.172  0.2787  0.0293  0.9777
20919SOL    HW164479   7.042   7.050   6.155  0.0780  0.7477  1.7570
20919SOL    HW264480   7.157   6.979   6.224  0.0636 -0.0025  1.0176
20920SOL     OW64481   3.446   8.612   8.977  0.2180 -0.7506 -0.4263
20920SOL    HW164482   3.429   8.665   9.055 -0.4760 -1.7565  0.1296
20920SOL    HW264483   3.529   8.570   8.995  1.6850  1.4212 -1.6193
20921SOL     OW64484   6.346   8.132   7.002 -0.2217 -0.0187 -0.2398
20921SOL    HW164485   6.391   8.109   7.084  1.2922  1.1302 -0.7043
20921SOL    HW264486   6.317   8.049   6.966  0.1311 -0.6476  0.8871
20922SOL     OW64487   8.439   7.663   5.129  0.1477 -0.2278  0.4219
20922SOL    HW164488   8.454   7.712   5.048 -0.8245 -3.1367 -1.7081
20922SOL    HW264489   8.343   7.661   5.138  0.2176 -0.6623  1.1645
20923SOL     OW64490   1.244   7.751   6.920 -0.4461  0.4472  0.0553
20923SOL    HW164491   1.156   7.716   6.902 -0.4958  0.5369  0.1257
20923SOL    HW264492   1.229   7.842   6.946 -0.3670  0.3421  0.4790
20924SOL     OW64493   5.286   6.944   3.991 -0.0528 -0.0859 -0.0318
20924SOL    HW164494   5.325   6.952   4.078 -0.6165 -1.0640  0.3304
20924SOL    HW264495   5.335   6.873   3.949  0.3775  0.5421 -0.6148
20925SOL     OW64496   2.852   5.461   0.116 -0.4706  0.0017 -0.2320
20925SOL    HW164497   2.815   5.399   0.178 -2.4450  1.7589  0.4775
20925SOL    HW264498   2.810   5.441   0.032  0.1601 -0.6368 -0.4100
20926SOL     OW64499   9.037   4.277   1.250  0.1555  0.2685 -0.0365
20926SOL    HW164500   8.962   4.308   1.199 -0.4247 -2.4246 -0.9359
20926SOL    HW264501   9.001   4.212   1.310  1.2736  1.4632  2.0847
20927SOL     OW64502   6.820   2.284   3.478 -0.4410 -0.3040 -0.3368
20927SOL    HW164503   6.885   2.352   3.463  0.5307 -0.4103  2.7025
20927SOL    HW264504   6.866   2.202   3.460  0.4027 -0.3880  1.9820
20928SOL     OW64505   4.750   8.294   6.204 -0.3886 -0.1463  0.0638
20928SOL    HW164506   4.755   8.212   6.252 -0.9477  0.4925  1.2465
20928SOL    HW264507   4.675   8.341   6.242  1.2832  1.9034  1.0551
20929SOL     OW64508   0.862   5.012   9.288 -0.2799 -0.5759  0.2861
20929SOL    HW164509   0.832   4.981   9.373  1.5099 -2.4741  0.3059
20929SOL    HW264510   0.884   4.933   9.239 -0.2434  0.5087 -1.5788
20930SOL     OW64511   8.547   2.420   7.132  0.1795 -0.4404 -0.0846
20930SOL    HW164512   8.510   2.458   7.052  0.9642 -0.6432 -0.5472
20930SOL    HW264513   8.637   2.398   7.109  1.1155  1.4969  1.4859
20931SOL     OW64514   9.417   5.350   0.475  0.4826 -0.3199 -0.5635
20931SOL    HW164515   9.389   5.292   0.404 -0.9977  0.0996 -0.3504
20931SOL    HW264516   9.381   5.310   0.554  2.1907 -0.8319 -0.0023
20932SOL     OW64517   1.716   5.711   6.869 -0.4421 -0.1505  0.1734
20932SOL    HW164518   1.653   5.645   6.839  0.2853 -0.6902 -0.1937
20932SOL    HW264519   1.670   5.757   6.939 -1.4774 -0.1165 -0.4992
20933SOL     OW64520   5.726   3.126   1.077  0.0194  0.3388  0.3435
20933SOL    HW164521   5.681   3.044   1.102  0.1462 -0.1401 -0.9419
20933SOL    HW264522   5.658   3.193   1.082  0.2245  0.4768  2.8204
20934SOL     OW64523   2.707   7.698   7.013 -0.3949 -0.2027  0.1351
20934SOL    HW164524   2.663   7.614   7.022  0.1866 -0.2984  2.7197
20934SOL    HW264525   2.794   7.676   6.981 -0.8222 -0.3888 -0.9401
20935SOL     OW64526   7.580   4.842   9.323  0.1203  0.0091 -0.0012
20935SOL    HW164527   7.608   4.754   9.347 -0.9794 -0.5667 -0.7371
20935SOL    HW264528   7.485   4.841   9.337  0.1879  1.3118  0.6604
20936SOL     OW64529   9.485   8.943   4.962 -0.0406 -0.3168 -0.2132
20936SOL    HW164530   9.396   8.920   4.987 -0.0461  0.8598  0.9710
20936SOL    HW264531   9.529   8.859   4.950 -0.4318 -1.0234  2.4836
20937SOL     OW64532   5.491   3.178   5.478 -0.5026 -0.3993 -0.1633
20937SOL    HW164533   5.445   3.169   5.562 -0.5070  0.3838 -0.0703
20937SOL    HW264534   5.580   3.203   5.503 -0.9241  1.4888 -0.4047
20938SOL     OW64535   4.743   0.965   8.999  0.2949  0.7339  0.2141
20938SOL    HW164536   4.774   1.056   8.999  0.9697  0.5158  0.6217
20938SOL    HW264537   4.667   0.965   9.057 -0.7717  1.3671 -1.1354
20939SOL     OW64538   3.735   0.714   0.046 -0.3569  0.6049 -0.4472
20939SOL    HW164539   3.706   0.733  -0.044 -1.6322  1.3405  0.0992
20939SOL    HW264540   3.717   0.621   0.057 -2.2662  0.9413 -0.2654
20940SOL     OW64541   4.358   9.010   4.905 -0.0771 -0.6940  0.2122
20940SOL    HW164542   4.384   8.921   4.931  2.3969  0.5061  2.4734
20940SOL    HW264543   4.411   9.029   4.828 -1.9432 -1.7070 -1.4047
20941SOL     OW64544   3.885   8.521   4.465  0.3714 -0.6219  0.1486
20941SOL    HW164545   3.966   8.571   4.451 -1.1201  2.3745  1.3063
20941SOL    HW264546   3.893   8.487   4.554 -0.2849  1.2094  0.9657
20942SOL     OW64547   7.971   2.421   8.411  0.4949 -0.4080 -0.4006
20942SOL    HW164548   7.912   2.473   8.355  1.2979 -0.5447 -1.4083
20942SOL    HW264549   8.029   2.485   8.451  1.2173 -0.4567 -1.3213
20943SOL     OW64550   0.161   5.302   2.481  0.0098  0.3684 -0.4726
20943SOL    HW164551   0.089   5.269   2.534  1.0038 -0.7947  0.1987
20943SOL    HW264552   0.158   5.250   2.400 -0.7640  1.3168 -1.0829
20944SOL     OW64553   3.150   0.667   9.067  0.4030  0.0815  0.1780
20944SOL    HW164554   3.160   0.752   9.109  0.6806 -0.1622  0.6128
20944SOL    HW264555   3.062   0.638   9.090  0.0277  0.5826 -0.5935
20945SOL     OW64556   0.714   6.252   9.432 -0.0746  0.0921 -0.0393
20945SOL    HW164557   0.785   6.238   9.495 -0.0399 -1.7969 -0.4169
20945SOL    HW264558   0.635   6.259   9.485  0.1394 -0.0105  0.2940
20946SOL     OW64559   5.409   1.582   6.698 -0.1709  0.2565  0.2506
20946SOL    HW164560   5.451   1.538   6.624 -0.7703  0.6999 -0.3644
20946SOL    HW264561   5.449   1.543   6.775  0.2125 -0.4647 -0.3040
20947SOL     OW64562   0.445   1.154   5.533 -0.0791 -0.0966  0.4737
20947SOL    HW164563   0.415   1.203   5.610  0.5182  0.8962  0.0915
20947SOL    HW264564   0.366   1.142   5.480 -0.1953  0.7104  0.4429
20948SOL     OW64565   4.691   4.386   6.422 -0.1745 -0.1210  0.2421
20948SOL    HW164566   4.744   4.440   6.363  1.8647 -1.5261  0.6883
20948SOL    HW264567   4.611   4.369   6.373 -0.7975  3.0321 -0.0177
20949SOL     OW64568   5.442   1.791   3.762 -0.1879  0.0864  0.5171
20949SOL    HW164569   5.470   1.804   3.672 -0.0115  0.1159  0.5760
20949SOL    HW264570   5.421   1.879   3.794  0.3489  0.1507  0.7001
20950SOL     OW64571   2.394   0.396   0.847 -0.0413 -0.0529 -0.5903
20950SOL    HW164572   2.434   0.471   0.802  0.1819  0.0383 -0.2419
20950SOL    HW264573   2.407   0.414   0.940  0.8077 -0.9463 -0.5206
20951SOL     OW64574   5.994   8.942   3.512  0.1431 -0.1751  0.5780
20951SOL    HW164575   6.030   8.866   3.557  2.1953  1.1761  1.4072
20951SOL    HW264576   6.055   9.013   3.534 -0.6483  1.2948 -1.6453
20952SOL     OW64577   1.738   1.747   0.296 -0.2617 -0.0512  0.1775
20952SOL    HW164578   1.785   1.774   0.375 -1.2975  3.1976 -0.1814
20952SOL    HW264579   1.779   1.798   0.226  0.6731 -2.9132 -1.4961
20953SOL     OW64580   2.908   6.860   7.167  0.4048 -0.0392  0.1473
20953SOL    HW164581   2.849   6.930   7.198 -0.5579 -1.1612  0.9553
20953SOL    HW264582   2.920   6.805   7.244  1.9857 -0.2218 -0.2071
20954SOL     OW64583   1.073   1.141   6.101 -0.0792 -0.6527  0.0005
20954SOL    HW164584   1.013   1.206   6.139 -1.2792 -1.7694  0.1020
20954SOL    HW264585   1.015   1.074   6.064  1.1096 -1.0724 -1.1747
20955SOL     OW64586   8.099   9.614   0.710  0.1149 -0.2573 -0.1419
20955SOL    HW164587   8.049   9.537   0.735 -0.7669  0.8760  1.8355
20955SOL    HW264588   8.045   9.659   0.644 -0.3099 -0.2985  0.1807
20956SOL     OW64589   9.610   7.190   2.493  0.4779  0.0153 -0.1317
20956SOL    HW164590   9.526   7.149   2.511  1.8015 -1.9423  2.3245
20956SOL    HW264591   9.611   7.268   2.549 -0.5108  1.3334 -1.8664
20957SOL     OW64592   9.525   7.808   3.410  0.4714  0.0440 -0.2711
20957SOL    HW164593   9.462   7.862   3.363 -0.8539 -0.5359  0.7842
20957SOL    HW264594   9.545   7.736   3.350  1.3296  1.0259 -1.2071
20958SOL     OW64595   5.141   8.570   3.910 -0.3059 -0.4367 -0.0899
20958SOL    HW164596   5.100   8.546   3.827  0.3927  0.7007 -0.7851
20958SOL    HW264597   5.226   8.525   3.909  1.0054  1.8532 -1.3942
20959SOL     OW64598   5.533   9.393   3.751 -0.5481  0.3334 -0.0818
20959SOL    HW164599   5.518   9.309   3.795 -3.8489  0.5059 -0.6343
20959SOL    HW264600   5.609   9.430   3.796 -0.8902 -1.5857  2.2837
20960SOL     OW64601   7.737   5.147   1.572 -0.9689 -0.0271 -0.3016
20960SOL    HW164602   7.775   5.103   1.496 -3.3189  0.2774 -1.7394
20960SOL    HW264603   7.799   5.129   1.643 -1.1242 -4.7249 -1.0254
20961SOL     OW64604   7.079   7.492   0.965  0.1194  0.7854 -0.0104
20961SOL    HW164605   7.090   7.470   1.057 -0.9300 -2.0546 -0.4649
20961SOL    HW264606   7.159   7.459   0.922  0.4732  1.8299 -0.1873
20962SOL     OW64607   0.730   0.314   9.450 -0.1771 -0.3040 -0.4782
20962SOL    HW164608   0.749   0.229   9.489  0.4375 -0.3985 -0.9734
20962SOL    HW264609   0.727   0.297   9.356  0.3584  0.2987 -0.6100
20963SOL     OW64610   0.749   4.296   2.954 -0.4321 -0.0690 -0.1234
20963SOL    HW164611   0.842   4.273   2.960 -0.4508 -0.2088 -0.3383
20963SOL    HW264612   0.749   4.377   2.902 -0.3832  0.2926  0.4349
20964SOL     OW64613   1.843   7.057   3.100  0.0235  0.5917 -0.5964
20964SOL    HW164614   1.900   7.035   3.027  1.0768 -0.5784  0.5282
20964SOL    HW264615   1.901   7.095   3.166 -0.0689 -2.1486  1.2457
20965SOL     OW64616   1.331   2.596   0.431  0.0314  0.1565  0.6865
20965SOL    HW164617   1.289   2.510   0.432  3.6045 -1.8680 -1.8683
20965SOL    HW264618   1.293   2.641   0.356  0.7089 -0.7548 -0.2333
20966SOL     OW64619   0.619   4.974   1.702 -0.1897 -0.1300  0.3182
20966SOL    HW164620   0.607   4.961   1.608  0.8727 -1.0817  0.2945
20966SOL    HW264621   0.656   5.062   1.709  0.3665 -0.3128 -0.2164
20967SOL     OW64622   4.414   1.811   4.232 -0.4599  0.3968  0.0572
20967SOL    HW164623   4.391   1.904   4.237 -0.1118  0.4045  3.0599
20967SOL    HW264624   4.334   1.769   4.201 -0.8956  1.5919 -0.5280
20968SOL     OW64625   4.806   3.216   2.264  0.3843  0.0064 -0.1672
20968SOL    HW164626   4.881   3.205   2.323 -0.5015 -0.2038  0.9545
20968SOL    HW264627   4.777   3.306   2.279 -0.6776 -0.4601  0.7791
20969SOL     OW64628   3.544   4.511   8.333  0.4562 -0.4344  0.2393
20969SOL    HW164629   3.559   4.441   8.396 -0.5152 -1.0235 -0.1595
20969SOL    HW264630   3.472   4.479   8.279 -0.0923  0.9314  0.1289
20970SOL     OW64631   4.107   4.913   6.541  0.0467 -0.4203 -1.0858
20970SOL    HW164632   4.162   4.932   6.465  0.6076  0.8672 -0.3808
20970SOL    HW264633   4.071   4.997   6.568  2.1636 -0.2722  1.7959
20971SOL     OW64634   6.648   4.870   3.638  0.4800  0.1184 -0.0925
20971SOL    HW164635   6.737   4.849   3.612 -0.3486 -2.6426 -1.1147
20971SOL    HW264636   6.593   4.827   3.572 -1.6344 -1.9641  2.7226
20972SOL     OW64637   6.203   9.663   5.805  0.2041 -0.3390  0.5907
20972SOL    HW164638   6.162   9.600   5.864 -2.2026  2.2889  1.9819
20972SOL    HW264639   6.166   9.644   5.719  0.6073 -1.6453  0.6876
20973SOL     OW64640   4.107   8.683   0.687  0.4854  0.1445 -0.5436
20973SOL    HW164641   4.138   8.738   0.759 -2.0034 -0.0969  0.8349
20973SOL    HW264642   4.187   8.655   0.642  2.2145 -0.0324  2.3731
20974SOL     OW64643   8.913   5.940   7.620 -0.0157  0.5379 -0.4598
20974SOL    HW164644   8.961   5.859   7.640  0.5168  0.5717 -1.5290
20974SOL    HW264645   8.821   5.913   7.620 -0.0982  0.5873  2.1675
20975SOL     OW64646   6.092   4.824   3.148  0.3288  0.2468 -0.1638
20975SOL    HW164647   6.090   4.752   3.211 -1.0554  0.4765  0.0999
20975SOL    HW264648   6.045   4.895   3.192 -0.6772  0.4074 -1.4340
20976SOL     OW64649   1.304   4.656   4.775  0.1361 -0.0560  0.4362
20976SOL    HW164650   1.284   4.745   4.803 -2.4517  0.3852 -2.2358
20976SOL    HW264651   1.265   4.600   4.842 -0.3663  0.8580  0.9297
20977SOL     OW64652   7.310   4.000   2.377 -0.2051 -0.1410 -0.4573
20977SOL    HW164653   7.374   3.929   2.371 -1.3929 -1.2098 -1.1145
20977SOL    HW264654   7.233   3.966   2.332 -1.3273  1.0053  0.5136
20978SOL     OW64655   4.245   1.363   9.274 -0.4189 -0.1316  0.2726
20978SOL    HW164656   4.309   1.314   9.326  0.8855 -0.3816 -1.5072
20978SOL    HW264657   4.233   1.311   9.195 -1.6191  0.7383 -0.1439
20979SOL     OW64658   0.825   0.666   8.965  0.6521 -0.2208  0.5908
20979SOL    HW164659   0.880   0.681   9.041  2.3146  3.8458 -1.1100
20979SOL    HW264660   0.735   0.679   8.997  1.0848 -1.1962  2.2866
20980SOL     OW64661   3.326   0.629   2.230  0.1228  0.0417 -0.2777
20980SOL    HW164662   3.322   0.540   2.267  0.1105 -0.6321 -1.8477
20980SOL    HW264663   3.319   0.616   2.136  2.0019  1.5854 -0.6765
20981SOL     OW64664   3.389   6.046   4.943  0.5850  0.4054 -0.1755
20981SOL    HW164665   3.481   6.026   4.961  0.5344 -0.9428 -1.1991
20981SOL    HW264666   3.375   6.133   4.980  2.3380  0.7449 -0.2404
20982SOL     OW64667   8.731   7.655   0.051  0.0396 -0.0876 -0.1969
20982SOL    HW164668   8.675   7.665   0.128  0.2808 -0.5860  0.0477
20982SOL    HW264669   8.813   7.619   0.086  1.5042  2.9789 -0.1437
20983SOL     OW64670   4.559   2.677   2.164 -0.1932 -0.0236 -0.1037
20983SOL    HW164671   4.475   2.651   2.125 -0.1127 -1.0512  0.3971
20983SOL    HW264672   4.535   2.733   2.237 -0.5597 -1.9107  1.2819
20984SOL     OW64673   4.591   1.245   0.703  0.0283  0.0969  0.0327
20984SOL    HW164674   4.651   1.186   0.748 -1.0810 -0.1743  1.2254
20984SOL    HW264675   4.553   1.192   0.633 -0.6076 -0.5003  0.8010
20985SOL     OW64676   7.129   2.301   6.700 -0.4448  0.7093  0.1477
20985SOL    HW164677   7.143   2.248   6.778 -0.0370 -1.6503 -1.4262
20985SOL    HW264678   7.081   2.244   6.640 -0.0213  2.1335 -1.6476
20986SOL     OW64679   5.690   3.015   9.327 -0.3111  0.0675  0.1586
20986SOL    HW164680   5.751   2.943   9.344  0.1844  0.1805 -1.0468
20986SOL    HW264681   5.655   3.037   9.413 -1.3844 -2.3800  0.4376
20987SOL     OW64682   9.637   2.550   3.907  0.4419  0.5929 -0.6166
20987SOL    HW164683   9.710   2.611   3.911  1.3301 -0.4763  0.4803
20987SOL    HW264684   9.625   2.521   3.998  1.2946 -2.2124 -1.2847
20988SOL     OW64685   0.051   5.662   3.892  0.7344 -0.4004 -0.0081
20988SOL    HW164686   0.002   5.622   3.963  0.3843 -1.5233 -0.8622
20988SOL    HW264687   0.034   5.756   3.902 -1.0132 -0.6909  0.1578
20989SOL     OW64688   3.084   3.386   7.129  0.3649  0.2664 -0.4318
20989SOL    HW164689   3.083   3.293   7.152  1.4352  0.3348 -0.0980
20989SOL    HW264690   3.093   3.387   7.033 -1.3323  0.0251 -0.6330
20990SOL     OW64691   1.721   6.617   1.531  0.9059 -0.1894  0.2371
20990SOL    HW164692   1.634   6.580   1.545  0.5977  1.1622  2.3900
20990SOL    HW264693   1.777   6.572   1.594  1.6837 -0.6216 -0.7195
20991SOL     OW64694   7.009   6.360   7.420 -0.5070  0.2965  0.0244
20991SOL    HW164695   6.918   6.330   7.424 -0.9291  1.1522 -1.7867
20991SOL    HW264696   7.010   6.424   7.349  1.6626 -0.2060 -0.4913
20992SOL     OW64697   7.609   3.797   9.674 -0.0410 -0.1227 -0.5297
20992SOL    HW164698   7.601   3.868   9.610 -0.1422  0.0309 -0.3462
20992SOL    HW264699   7.703   3.778   9.676  0.4623  2.1413  1.7126
20993SOL     OW64700   1.747   4.785   4.756  0.4274  0.4723  0.5586
20993SOL    HW164701   1.738   4.727   4.831  0.9603 -0.7607 -0.3123
20993SOL    HW264702   1.779   4.730   4.686 -0.2689  1.5576 -0.6606
20994SOL     OW64703   5.659   1.376   5.960 -0.3295  0.0925 -0.1650
20994SOL    HW164704   5.615   1.460   5.944 -3.2983 -1.3866 -0.3958
20994SOL    HW264705   5.588   1.313   5.967  1.5161 -1.8993  3.7276
20995SOL     OW64706   2.291   1.168   6.904 -0.0192 -0.6139  0.1362
20995SOL    HW164707   2.313   1.103   6.837 -2.4220 -2.2375  0.8058
20995SOL    HW264708   2.200   1.149   6.927 -0.2532  1.9052  1.6392
20996SOL     OW64709   1.525   1.468   8.163 -1.1560  0.1567 -0.4875
20996SOL    HW164710   1.564   1.381   8.153 -0.4350  0.5533 -1.2506
20996SOL    HW264711   1.518   1.502   8.074 -3.9668 -0.1648 -0.4902
20997SOL     OW64712   1.029   0.217   5.277 -0.6557  0.1815  0.3496
20997SOL    HW164713   1.013   0.188   5.367 -0.0007  1.6408  0.9636
20997SOL    HW264714   1.089   0.291   5.286 -0.4874  0.2773 -1.3062
20998SOL     OW64715   3.159   7.301   3.228  0.5594 -0.4026 -0.0191
20998SOL    HW164716   3.149   7.270   3.318 -0.4841 -0.9568 -0.3061
20998SOL    HW264717   3.072   7.335   3.205  1.0539  0.5410 -0.5280
20999SOL     OW64718   7.614   6.574   2.292  0.0572  0.2917 -0.3437
20999SOL    HW164719   7.660   6.512   2.235  0.1600  0.5245 -0.5155
20999SOL    HW264720   7.680   6.601   2.356 -0.0528  0.0462 -0.1240
21000SOL     OW64721   6.937   8.621   3.147 -0.2639 -0.4169  0.3874
21000SOL    HW164722   6.932   8.559   3.220  0.3875 -0.3043  0.5336
21000SOL    HW264723   6.906   8.704   3.184 -1.1876 -0.6629  0.1767
21001SOL     OW64724   1.684   5.815   5.601 -0.2975  0.0065 -0.5779
21001SOL    HW164725   1.702   5.742   5.542  0.2141 -0.0076 -0.4052
21001SOL    HW264726   1.688   5.893   5.545 -1.7554 -0.1577 -0.9503
21002SOL     OW64727   8.264   2.860   7.206  0.2267  0.5849  0.1148
21002SOL    HW164728   8.178   2.879   7.242 -1.2721 -0.3046 -2.6361
21002SOL    HW264729   8.298   2.945   7.179 -0.1785  0.8569  0.4505
21003SOL     OW64730   4.114   6.070   0.367  1.2733 -0.4507 -0.1053
21003SOL    HW164731   4.114   5.976   0.385  0.5869 -0.5569 -0.6119
21003SOL    HW264732   4.088   6.111   0.449  3.4969 -0.5540  0.7104
21004SOL     OW64733   2.615   6.882   6.645  0.0164  0.1080  0.0624
21004SOL    HW164734   2.590   6.936   6.570  0.2484  0.3421  0.1506
21004SOL    HW264735   2.533   6.847   6.678 -0.0542 -0.2909 -0.5247
21005SOL     OW64736   9.247   6.376   6.938 -0.0471  0.0506  0.1797
21005SOL    HW164737   9.247   6.449   7.000  0.8312  0.5119 -0.3404
21005SOL    HW264738   9.155   6.364   6.915 -0.1558  1.3762 -0.1674
21006SOL     OW64739   5.273   3.438   2.030 -0.3916  0.1303 -0.5040
21006SOL    HW164740   5.313   3.515   1.990  0.0150 -0.1657 -0.6715
21006SOL    HW264741   5.221   3.399   1.959 -0.8878  0.4487 -0.3194
21007SOL     OW64742   4.861   2.394   0.416 -0.2895  0.0907  0.2286
21007SOL    HW164743   4.956   2.394   0.425 -0.1661  3.6441  0.2562
21007SOL    HW264744   4.846   2.391   0.321 -0.0298  1.5507  0.1252
21008SOL     OW64745   3.475   8.772   0.033  0.4023 -0.3490  0.6128
21008SOL    HW164746   3.478   8.709  -0.039 -0.4957  2.6407 -2.2739
21008SOL    HW264747   3.382   8.779   0.055  0.0140  2.0704 -1.3182
21009SOL     OW64748   6.940   9.148   0.090 -0.1751 -0.1541  0.0742
21009SOL    HW164749   6.977   9.138   0.003 -0.6359 -0.8066 -0.0533
21009SOL    HW264750   6.912   9.060   0.115 -0.3812  0.0897  0.7284
21010SOL     OW64751   1.267   9.172   0.888 -0.4349 -0.1415 -0.8630
21010SOL    HW164752   1.187   9.120   0.889 -0.8927  0.5407  0.1052
21010SOL    HW264753   1.239   9.258   0.855 -0.1330  0.1319 -0.4202
21011SOL     OW64754   9.399   7.010   4.274  0.1001 -0.0269 -0.6201
21011SOL    HW164755   9.402   7.020   4.369  0.3924 -1.5128 -0.4594
21011SOL    HW264756   9.406   6.916   4.259 -0.6037  0.1240 -2.0914
21012SOL     OW64757   4.051   0.498   3.837 -0.6561  0.5887 -0.2051
21012SOL    HW164758   4.095   0.532   3.915  2.0084  0.7296 -1.6770
21012SOL    HW264759   4.015   0.414   3.865  0.8780  0.2894  1.0267
21013SOL     OW64760   5.295   2.078   5.063 -0.9384 -0.0900 -0.2347
21013SOL    HW164761   5.246   2.127   5.130  1.8919  1.1115  1.1396
21013SOL    HW264762   5.328   2.146   5.004 -0.3356 -0.7652 -0.6814
21014SOL     OW64763   8.291   3.563   6.378  0.0903  0.6184  0.2971
21014SOL    HW164764   8.240   3.638   6.408 -0.1488  0.6429 -0.1616
21014SOL    HW264765   8.338   3.596   6.301  1.1654  0.7332  0.9673
21015SOL     OW64766   2.898   1.163   0.219  0.4617  0.1817  0.2066
21015SOL    HW164767   2.834   1.091   0.215  1.1286 -0.4427  0.4552
21015SOL    HW264768   2.917   1.183   0.127 -1.4996  1.6997  0.0546
21016SOL     OW64769   2.877   3.703   3.586 -0.1028 -0.1860 -0.1288
21016SOL    HW164770   2.800   3.646   3.583  0.2814 -0.8313  1.3581
21016SOL    HW264771   2.848   3.785   3.547 -1.5681 -0.3958  0.4828
21017SOL     OW64772   0.159   9.452   0.430  0.6609  0.2712  0.1457
21017SOL    HW164773   0.146   9.505   0.509 -0.8792  1.6400 -0.9619
21017SOL    HW264774   0.252   9.464   0.409  1.1915 -0.4266  1.9252
21018SOL     OW64775   6.342   0.865   8.118  0.2866 -0.5641  0.0931
21018SOL    HW164776   6.318   0.957   8.105  0.9215 -0.3140  0.6586
21018SOL    HW264777   6.348   0.855   8.213  0.9750 -0.9963  0.0071
21019SOL     OW64778   7.496   8.198   4.346  0.6945 -0.2300 -0.0867
21019SOL    HW164779   7.528   8.271   4.293 -1.3657  1.4321  0.7983
21019SOL    HW264780   7.445   8.145   4.285 -0.5118  0.9088 -0.1030
21020SOL     OW64781   4.404   0.413   6.435  0.4866  0.1130 -0.6591
21020SOL    HW164782   4.496   0.388   6.424  0.6232  1.0898 -1.9919
21020SOL    HW264783   4.404   0.508   6.432 -0.7298  0.1211 -2.5968
21021SOL     OW64784   1.681   4.381   2.055 -0.0801 -0.3266  0.1918
21021SOL    HW164785   1.762   4.424   2.082 -0.8103  1.3369 -0.1327
21021SOL    HW264786   1.709   4.300   2.013  1.4068  0.1645  0.1922
21022SOL     OW64787   7.806   0.555   0.774  0.0488 -0.6212 -0.1880
21022SOL    HW164788   7.865   0.483   0.752 -1.2566 -1.7487 -0.1639
21022SOL    HW264789   7.815   0.566   0.868 -0.9705 -1.9200  0.0845
21023SOL     OW64790   6.592   8.852   6.078 -0.5398  0.2460  0.1266
21023SOL    HW164791   6.662   8.888   6.133 -0.2712  0.5348 -0.4028
21023SOL    HW264792   6.589   8.910   6.002  1.1518 -1.8840 -1.6735
21024SOL     OW64793   3.225   7.436   4.902  0.3865 -0.2688 -0.7263
21024SOL    HW164794   3.229   7.480   4.987  0.7695 -0.1103 -0.8200
21024SOL    HW264795   3.134   7.409   4.893  0.3665 -0.3827 -0.2181
21025SOL     OW64796   9.168   9.600   5.354  0.5064 -0.5444 -1.0541
21025SOL    HW164797   9.156   9.528   5.416  3.5867  1.1384  1.8426
21025SOL    HW264798   9.091   9.596   5.297 -1.3134 -3.7682  1.2934
21026SOL     OW64799   1.775   4.124   3.496  0.5662  0.2467 -0.0203
21026SOL    HW164800   1.795   4.055   3.433 -0.3726  0.9868 -1.1781
21026SOL    HW264801   1.839   4.193   3.478  0.3672  0.4140 -0.0904
21027SOL     OW64802   5.629   8.758   8.494  0.0176  0.0849 -0.2604
21027SOL    HW164803   5.596   8.676   8.458 -1.1867  0.9673 -1.2801
21027SOL    HW264804   5.723   8.745   8.504 -0.3997 -2.1570  1.6754
21028SOL     OW64805   5.981   3.601   8.176 -0.0381  0.1510 -0.4965
21028SOL    HW164806   5.933   3.658   8.116  1.3909 -0.3709 -2.1961
21028SOL    HW264807   5.964   3.513   8.145  0.0003 -0.2007  0.4373
21029SOL     OW64808   9.351   7.712   5.083  0.0223 -0.0455 -0.2360
21029SOL    HW164809   9.427   7.753   5.124 -1.6277  1.2825  1.6809
21029SOL    HW264810   9.315   7.779   5.026 -0.5463 -0.1513 -0.0054
21030SOL     OW64811   3.216   4.336   3.243  0.0807  0.2174  0.3918
21030SOL    HW164812   3.240   4.429   3.247 -2.0147  0.7851  0.6766
21030SOL    HW264813   3.250   4.299   3.324  1.7098  0.5016 -0.1191
21031SOL     OW64814   6.008   2.984   9.279  0.5728 -0.2767  0.2332
21031SOL    HW164815   6.041   3.059   9.328 -0.1604  1.0772 -1.2412
21031SOL    HW264816   5.967   2.928   9.345 -1.0479  1.8238  1.1357
21032SOL     OW64817   0.502   3.516   5.038 -0.6759 -0.3819  0.0394
21032SOL    HW164818   0.528   3.432   5.001 -0.3152 -0.0308 -0.5221
21032SOL    HW264819   0.482   3.571   4.962  1.5040  0.8143  0.2439
21033SOL     OW64820   4.415   8.001   8.755  0.4054 -0.8269  0.0780
21033SOL    HW164821   4.478   8.037   8.693 -0.2289 -0.2674 -0.2620
21033SOL    HW264822   4.356   8.074   8.774 -0.6663 -1.5637 -0.3088
21034SOL     OW64823   5.344   8.320   9.037 -0.0157 -0.1293  0.1580
21034SOL    HW164824   5.404   8.290   9.106 -1.0528 -2.4452  0.1159
21034SOL    HW264825   5.259   8.329   9.082  0.0276  1.9206 -0.0611
21035SOL     OW64826   4.829   8.350   2.612  0.0898 -0.5291  0.2206
21035SOL    HW164827   4.764   8.371   2.546  2.4794  0.5699 -1.9466
21035SOL    HW264828   4.857   8.261   2.590  1.9307  0.3592 -1.2971
21036SOL     OW64829   8.897   3.702   5.397 -0.3499  0.1674  0.3986
21036SOL    HW164830   8.882   3.608   5.409 -0.2462 -0.0021 -0.7486
21036SOL    HW264831   8.945   3.729   5.475  0.5307 -0.9399  0.2503
21037SOL     OW64832   4.944   8.247   4.773  0.1513 -0.2757  0.2440
21037SOL    HW164833   4.917   8.219   4.685  0.5190 -1.3608  0.4516
21037SOL    HW264834   4.928   8.341   4.775  0.8203 -0.1079 -1.2458
21038SOL     OW64835   3.045   3.566   8.576  0.1509  0.0044 -0.2250
21038SOL    HW164836   3.118   3.509   8.552  1.0481  1.1579 -0.3249
21038SOL    HW264837   2.997   3.580   8.494  0.5477  0.2540 -0.4139
21039SOL     OW64838   6.864   2.572   7.740  0.8258 -0.0307 -0.3035
21039SOL    HW164839   6.892   2.638   7.804  1.5191  0.0501 -0.6804
21039SOL    HW264840   6.769   2.584   7.733  0.2533 -1.7543  2.6558
21040SOL     OW64841   5.479   2.939   5.274 -0.3626  0.3158  0.2880
21040SOL    HW164842   5.519   2.853   5.267 -0.7828  0.0406  1.1692
21040SOL    HW264843   5.489   2.963   5.366 -3.6978 -0.5040  0.9733
21041SOL     OW64844   3.469   9.653   5.678 -0.1426 -0.4910 -0.4962
21041SOL    HW164845   3.431   9.603   5.606  0.5352 -0.3572 -0.9479
21041SOL    HW264846   3.514   9.726   5.636 -1.6926  0.9392  0.1640
21042SOL     OW64847   3.163   6.744   0.552 -0.5020  0.2508 -0.4506
21042SOL    HW164848   3.186   6.705   0.467 -0.5541  0.2516 -0.4654
21042SOL    HW264849   3.096   6.685   0.587 -0.6200  0.3566 -0.4975
21043SOL     OW64850   6.975   3.421   3.143 -0.5717  0.2837  0.2792
21043SOL    HW164851   7.063   3.391   3.120 -1.5634 -0.9529 -2.5297
21043SOL    HW264852   6.936   3.347   3.189  0.2896  1.4520  3.0648
21044SOL     OW64853   0.524   5.710   0.821  0.7162 -0.3244 -0.0156
21044SOL    HW164854   0.560   5.753   0.743 -1.4229  1.0086 -0.3638
21044SOL    HW264855   0.596   5.711   0.884  1.2100  2.7672 -0.4474
21045SOL     OW64856   3.018   8.085   7.457  0.8308  0.1297  0.3125
21045SOL    HW164857   3.087   8.031   7.418  0.9354  0.8695 -0.5699
21045SOL    HW264858   3.029   8.171   7.416 -2.1806 -0.3430 -1.9008
21046SOL     OW64859   8.514   5.020   5.905 -0.1831 -0.3567 -0.1116
21046SOL    HW164860   8.496   5.027   5.999  0.3642 -3.3669  0.3245
21046SOL    HW264861   8.602   5.056   5.895 -0.7965  1.3116  0.2314
21047SOL     OW64862   2.015   1.074   7.475 -0.2703  0.0784 -0.5127
21047SOL    HW164863   2.103   1.105   7.496  0.1032  0.0539 -1.9549
21047SOL    HW264864   1.957   1.126   7.531  0.5560  1.1761 -0.6519
21048SOL     OW64865   1.609   4.925   2.714 -0.1138  0.4434  0.6327
21048SOL    HW164866   1.687   4.875   2.688 -1.7868 -1.8594 -0.2887
21048SOL    HW264867   1.571   4.873   2.785 -1.8186  0.4843 -0.2258
21049SOL     OW64868   6.777   6.358   6.820 -0.3795  0.5115  0.3524
21049SOL    HW164869   6.783   6.430   6.757 -1.4182  0.7290  0.4683
21049SOL    HW264870   6.789   6.400   6.905  1.3639  0.1671  0.3069
21050SOL     OW64871   1.339   2.009   7.241 -0.2095  0.3069  0.2282
21050SOL    HW164872   1.371   1.960   7.165  2.2507  0.3065  1.1839
21050SOL    HW264873   1.320   2.096   7.206 -0.8708 -0.1976 -0.7216
21051SOL     OW64874   5.046   8.692   9.170  0.1221  0.0613  0.1805
21051SOL    HW164875   4.981   8.691   9.241 -0.6125  2.0001 -0.3978
21051SOL    HW264876   5.018   8.765   9.113  2.2746  0.3252 -0.6115
21052SOL     OW64877   8.036   0.698   0.925  0.1086 -0.5373 -0.2221
21052SOL    HW164878   8.025   0.688   1.020  0.2508 -0.6776 -0.2205
21052SOL    HW264879   8.076   0.616   0.896  1.4446  0.0680 -0.1785
21053SOL     OW64880   5.802   6.044   8.464 -0.0892  0.1038  0.1765
21053SOL    HW164881   5.789   6.023   8.556  1.0797 -2.0387 -0.0865
21053SOL    HW264882   5.767   6.133   8.454 -2.0638 -0.3688  2.2212
21054SOL     OW64883   0.346   9.510   4.161  0.3608 -0.7839 -0.3610
21054SOL    HW164884   0.427   9.463   4.143  1.5497  1.0568 -0.1495
21054SOL    HW264885   0.342   9.577   4.092 -0.6201 -0.4223  0.0323
21055SOL     OW64886   5.248   6.876   0.067  0.2470 -0.5782  0.6000
21055SOL    HW164887   5.305   6.920   0.005 -1.0908  0.2997 -0.0624
21055SOL    HW264888   5.234   6.940   0.137 -0.3525 -0.5793  0.4854
21056SOL     OW64889   4.441   6.369   6.314 -0.4283 -0.4791 -0.1769
21056SOL    HW164890   4.367   6.310   6.331 -0.2359 -1.0404 -1.2176
21056SOL    HW264891   4.455   6.364   6.219 -0.4272  1.2882 -0.2980
21057SOL     OW64892   7.230   7.042   3.687 -0.6046  0.0107 -0.5699
21057SOL    HW164893   7.175   6.996   3.751 -1.6658  0.7193 -0.9355
21057SOL    HW264894   7.172   7.109   3.650  0.4929  0.7273 -1.0447
21058SOL     OW64895   9.096   3.637   1.339 -0.2777 -0.5450 -0.2487
21058SOL    HW164896   9.119   3.645   1.431  0.9661  0.5346 -0.6274
21058SOL    HW264897   9.002   3.652   1.336 -0.3352 -0.6358  0.8491
21059SOL     OW64898   5.092   1.454   0.908 -0.2288  0.3156 -0.3475
21059SOL    HW164899   5.134   1.538   0.928 -0.8904  0.3945  0.8022
21059SOL    HW264900   5.104   1.443   0.814  0.0980  1.5794 -0.4700
21060SOL     OW64901   1.025   2.423   2.512  0.2408  0.2685  0.2834
21060SOL    HW164902   0.951   2.399   2.567 -0.3052  2.4692  0.5804
21060SOL    HW264903   0.988   2.479   2.443  1.5120  0.8983  0.0675
21061SOL     OW64904   5.364   2.132   7.892 -0.8454 -0.0517  0.2166
21061SOL    HW164905   5.435   2.195   7.880 -2.0692  1.0743 -1.5237
21061SOL    HW264906   5.312   2.169   7.964 -1.8209  1.2889 -1.0933
21062SOL     OW64907   1.631   4.507   7.603 -0.0154  0.6366  0.2713
21062SOL    HW164908   1.632   4.438   7.538 -2.7963 -0.9466  1.7077
21062SOL    HW264909   1.659   4.464   7.684  0.1110  1.6939  0.8055
21063SOL     OW64910   9.374   9.062   6.814  0.6251  0.4960 -0.4569
21063SOL    HW164911   9.336   9.084   6.899 -0.1804  0.3119 -0.7634
21063SOL    HW264912   9.444   9.000   6.834  0.8735  0.9623  0.1317
21064SOL     OW64913   2.759   6.800   0.816 -0.2039  0.0314 -0.4938
21064SOL    HW164914   2.811   6.840   0.886 -0.5773  1.8199 -1.1862
21064SOL    HW264915   2.813   6.810   0.738  0.2404 -2.0098 -0.5114
21065SOL     OW64916   5.710   2.669   0.464  0.7504 -0.0167  0.1951
21065SOL    HW164917   5.638   2.691   0.405  0.2416 -1.7992  0.0826
21065SOL    HW264918   5.730   2.751   0.510 -0.4993  0.8105 -0.6736
21066SOL     OW64919   4.847   2.637   6.016 -0.3734 -0.2156 -0.1115
21066SOL    HW164920   4.940   2.658   6.013 -0.0938 -1.4145 -0.2930
21066SOL    HW264921   4.835   2.568   5.950 -1.6646  0.9031 -1.0964
21067SOL     OW64922   1.168   1.274   3.345  0.7908 -0.3228  0.6837
21067SOL    HW164923   1.085   1.313   3.315  1.0077 -0.6984 -0.4478
21067SOL    HW264924   1.144   1.224   3.423 -0.2447 -1.2062 -0.1714
21068SOL     OW64925   1.440   5.330   6.038  0.1649 -0.0952 -0.0218
21068SOL    HW164926   1.473   5.410   5.998 -1.3051 -0.2225 -1.5962
21068SOL    HW264927   1.344   5.341   6.038 -0.0667 -1.8514 -0.3111
21069SOL     OW64928   8.291   7.131   9.027  0.4170  0.1728  0.2096
21069SOL    HW164929   8.217   7.178   9.066  0.9533  0.9741  0.2983
21069SOL    HW264930   8.296   7.050   9.077  0.6617  0.8779  1.3888
21070SOL     OW64931   8.084   6.423   8.052  0.1962  0.2347 -0.1914
21070SOL    HW164932   8.012   6.404   7.992  0.6391 -0.3582 -0.5546
21070SOL    HW264933   8.134   6.341   8.055  0.9445  0.6884 -0.0853
21071SOL     OW64934   5.477   0.395   5.720  0.1786  0.4997  0.3241
21071SOL    HW164935   5.506   0.394   5.629 -0.1620  0.0355  0.2156
21071SOL    HW264936   5.545   0.347   5.767 -0.5517 -0.8904  0.0166
21072SOL     OW64937   6.167   7.657   8.666 -0.0294  0.4095 -0.0415
21072SOL    HW164938   6.171   7.752   8.680 -2.9590  0.3411  2.2052
21072SOL    HW264939   6.109   7.646   8.590 -1.8985  0.4385  1.3310
21073SOL     OW64940   1.170   1.530   4.090 -0.7908  0.3687 -0.2031
21073SOL    HW164941   1.208   1.478   4.161 -2.7814  2.3603  2.5033
21073SOL    HW264942   1.120   1.466   4.038 -1.2946 -0.8229  1.6565
21074SOL     OW64943   0.529   5.441   2.283 -0.2203  0.4271  0.6262
21074SOL    HW164944   0.480   5.502   2.229  0.1954 -0.6395 -1.0318
21074SOL    HW264945   0.522   5.357   2.238  0.8144 -0.3490  1.8162
21075SOL     OW64946   8.450   4.093   2.242 -0.0597  0.6056  0.3614
21075SOL    HW164947   8.466   4.044   2.161  0.7333  0.2525  0.7234
21075SOL    HW264948   8.498   4.175   2.230  0.8074  0.1821  0.8239
21076SOL     OW64949   7.379   3.049   3.543  0.0089 -0.0510  0.0475
21076SOL    HW164950   7.351   3.038   3.452 -0.6905 -3.1586  0.5422
21076SOL    HW264951   7.443   2.979   3.557  2.3143  2.1258  1.2051
21077SOL     OW64952   5.215   4.566   8.560 -0.4648  0.2595 -0.6611
21077SOL    HW164953   5.214   4.554   8.465  1.3629  0.1218 -0.6967
21077SOL    HW264954   5.235   4.479   8.595  1.0560  0.7292 -0.2944
21078SOL     OW64955   2.741   4.985   6.342 -0.2331  0.1609 -0.1271
21078SOL    HW164956   2.718   5.071   6.308 -0.1867  0.7546  1.2816
21078SOL    HW264957   2.699   4.923   6.282 -3.2337  1.1634  0.7606
21079SOL     OW64958   3.692   7.676   4.887  0.8526  0.4704 -0.1522
21079SOL    HW164959   3.746   7.735   4.940  1.1802 -1.2413  1.5211
21079SOL    HW264960   3.635   7.633   4.951 -0.0736 -0.3082 -1.4595
21080SOL     OW64961   7.743   3.460   9.594 -0.3482 -0.8819  0.3458
21080SOL    HW164962   7.810   3.436   9.658  0.7957 -3.8424 -1.7579
21080SOL    HW264963   7.789   3.516   9.532 -0.2620 -1.5141 -0.1690
21081SOL     OW64964   0.906   0.690   8.088 -0.6001  0.0760  0.1478
21081SOL    HW164965   0.969   0.761   8.083  0.3085 -0.7569 -0.7116
21081SOL    HW264966   0.856   0.695   8.006  0.5724 -1.2278 -0.6961
21082SOL     OW64967   5.405   6.478   4.057 -0.1921  0.1901  0.3605
21082SOL    HW164968   5.379   6.567   4.032  0.2506  0.8204  1.9804
21082SOL    HW264969   5.452   6.445   3.981 -0.4299  1.3193 -0.3069
21083SOL     OW64970   2.149   7.023   1.549 -0.4923  0.7666  0.2702
21083SOL    HW164971   2.080   7.080   1.584  1.4047  1.8705  2.6009
21083SOL    HW264972   2.143   6.943   1.601  0.9807  1.5564  1.7572
21084SOL     OW64973   3.368   3.013   2.051 -0.0422 -0.1083 -0.5101
21084SOL    HW164974   3.296   2.954   2.074  0.0290 -0.8149 -1.9868
21084SOL    HW264975   3.371   3.076   2.123  0.3453 -2.3019  1.5536
21085SOL     OW64976   3.494   2.752   0.894 -0.4927 -0.4832  1.0406
21085SOL    HW164977   3.460   2.750   0.805  0.1216 -3.2347  0.7807
21085SOL    HW264978   3.429   2.802   0.944 -1.0000  0.8402 -0.8303
21086SOL     OW64979   3.617   0.070   8.691 -0.4981  0.6560  0.1099
21086SOL    HW164980   3.691   0.067   8.752 -0.4478  0.8968  0.0620
21086SOL    HW264981   3.646   0.018   8.616 -0.2708  0.9739 -0.0242
21087SOL     OW64982   9.278   3.610   6.634  0.2301 -0.3487  0.0279
21087SOL    HW164983   9.194   3.642   6.664 -0.6791 -2.9456  0.4918
21087SOL    HW264984   9.266   3.597   6.540  0.8310  1.2148 -0.2960
21088SOL     OW64985   7.220   4.509   1.833 -0.2593  0.1437  0.4355
21088SOL    HW164986   7.185   4.596   1.814 -0.8988 -0.2946 -0.4394
21088SOL    HW264987   7.260   4.481   1.751  2.6446  0.8053  1.4969
21089SOL     OW64988   5.968   3.391   1.920 -0.5749  0.4775  0.0443
21089SOL    HW164989   6.003   3.316   1.871  0.8728  2.5655 -2.3467
21089SOL    HW264990   5.925   3.351   1.996  2.2038 -2.6429  0.2382
21090SOL     OW64991   7.604   0.247   5.553 -0.2204  0.0492  0.2108
21090SOL    HW164992   7.646   0.162   5.560 -1.1532 -0.3558  1.0173
21090SOL    HW264993   7.578   0.269   5.642 -0.9358  0.6908 -0.1421
21091SOL     OW64994   9.672   5.400   1.438  0.1959  0.0542 -0.4823
21091SOL    HW164995   9.682   5.481   1.488 -3.0593  0.4341 -0.2488
21091SOL    HW264996   9.578   5.390   1.427  0.5550 -2.9943 -1.7446
21092SOL     OW64997   5.140   8.212   3.253 -0.1163 -0.1402  0.4133
21092SOL    HW164998   5.197   8.165   3.314 -0.2798 -0.1977  0.5220
21092SOL    HW264999   5.051   8.192   3.284 -0.2511 -1.1754 -0.5730
21093SOL     OW65000   9.034   6.214   5.764 -0.4823  0.0323 -0.2751
21093SOL    HW165001   9.009   6.190   5.853 -0.3232  0.4844 -0.1067
21093SOL    HW265002   9.098   6.147   5.738  0.0735  0.3595  0.2442
21094SOL     OW65003   7.996   7.414   7.058 -0.0547  0.0883 -0.6886
21094SOL    HW165004   7.933   7.343   7.043  1.8884 -1.3373 -2.6288
21094SOL    HW265005   8.031   7.396   7.146 -1.1443 -0.0509 -0.2648
21095SOL     OW65006   8.918   8.188   9.192 -0.0639  0.1919  0.5569
21095SOL    HW165007   8.931   8.218   9.102 -0.8355 -0.1603  0.3168
21095SOL    HW265008   8.855   8.250   9.229 -3.2785 -2.1445 -0.5746
21096SOL     OW65009   2.846   8.004   1.688  0.7561  0.0027  0.2396
21096SOL    HW165010   2.883   7.918   1.709 -1.1202 -1.0555 -0.5621
21096SOL    HW265011   2.921   8.064   1.692  1.9116 -1.4444  1.9680
21097SOL     OW65012   3.924   8.268   6.555  0.0880 -0.1607  0.2629
21097SOL    HW165013   3.891   8.207   6.489 -1.0065 -0.9389  1.4853
21097SOL    HW265014   3.846   8.318   6.581  0.7619  1.0398  0.0533
21098SOL     OW65015   2.835   7.158   9.037  0.4114  0.8040  0.4281
21098SOL    HW165016   2.885   7.106   9.099  1.4278 -0.2822 -1.2322
21098SOL    HW265017   2.900   7.199   8.981 -0.4200 -0.7653 -1.8878
21099SOL     OW65018   3.578   9.227   7.966 -0.0252  0.3954  0.2645
21099SOL    HW165019   3.576   9.141   7.924  3.7781  1.6120 -2.9410
21099SOL    HW265020   3.615   9.210   8.053 -1.0542 -1.3444  0.4050
21100SOL     OW65021   8.185   4.918   5.543  0.7803  0.8557 -0.2346
21100SOL    HW165022   8.209   4.884   5.629  0.1383  0.1993 -0.3031
21100SOL    HW265023   8.103   4.872   5.521  0.5855  1.5031 -0.9003
21101SOL     OW65024   0.053   6.862   2.953 -0.3909  0.2054 -0.7120
21101SOL    HW165025   0.025   6.773   2.976  1.1728 -0.0569  0.2721
21101SOL    HW265026   0.099   6.852   2.869 -1.4739  0.3364 -1.3394
21102SOL     OW65027   0.347   4.361   8.755  0.4357 -0.8935 -0.2062
21102SOL    HW165028   0.383   4.411   8.681  0.2155  0.5170  0.6075
21102SOL    HW265029   0.415   4.365   8.822 -0.3708  0.0587  0.5930
21103SOL     OW65030   7.666   7.700   6.556 -0.5079 -0.2039 -0.0145
21103SOL    HW165031   7.650   7.752   6.635 -1.5905  2.3648 -1.7887
21103SOL    HW265032   7.602   7.629   6.562 -1.8019  0.9512  0.6149
21104SOL     OW65033   0.212   6.450   6.642  0.9271 -0.2931 -0.0143
21104SOL    HW165034   0.157   6.527   6.626  2.1812  0.4357 -1.0569
21104SOL    HW265035   0.189   6.421   6.730 -0.3346  0.6345 -0.0240
21105SOL     OW65036   4.593   8.521   1.690  0.2377  0.3497 -0.3138
21105SOL    HW165037   4.551   8.599   1.725 -0.3867  0.2045 -0.7103
21105SOL    HW265038   4.682   8.550   1.667  0.3589  0.6646  0.5282
21106SOL     OW65039   7.447   5.106   6.706 -0.5969  0.0977 -0.1353
21106SOL    HW165040   7.521   5.104   6.767 -0.9863  0.2198  0.3465
21106SOL    HW265041   7.482   5.148   6.628  0.2381 -1.0897 -0.4406
21107SOL     OW65042   8.229   1.637   0.067  0.0690  0.0587  0.0343
21107SOL    HW165043   8.295   1.700   0.037 -0.3223  0.9006  0.9074
21107SOL    HW265044   8.150   1.659   0.018  0.3971 -0.9307 -0.9890
21108SOL     OW65045   2.031   7.906   7.833 -0.3911  0.0384 -0.5084
21108SOL    HW165046   1.980   7.942   7.760  0.8820  4.3881  0.4483
21108SOL    HW265047   1.966   7.889   7.901 -1.1321  0.2086 -1.1515
21109SOL     OW65048   8.647   0.587   3.478 -0.0555 -0.3638  0.9015
21109SOL    HW165049   8.653   0.501   3.435  1.9987  1.0047 -1.9164
21109SOL    HW265050   8.567   0.626   3.443  0.5896 -0.0183 -0.2390
21110SOL     OW65051   2.159   7.866   8.680  0.3766  0.0331 -0.9766
21110SOL    HW165052   2.204   7.808   8.618 -1.1392 -1.6520 -0.5844
21110SOL    HW265053   2.181   7.830   8.766  1.0718  1.3197 -0.5907
21111SOL     OW65054   5.420   0.244   6.046 -0.2959  0.2583 -0.3955
21111SOL    HW165055   5.362   0.251   6.121  1.3467  0.3832  0.9016
21111SOL    HW265056   5.489   0.308   6.062  1.9576 -2.0370 -0.2277
21112SOL     OW65057   1.898   7.005   4.522 -0.1853  0.0453 -0.1729
21112SOL    HW165058   1.864   6.929   4.570 -0.2469  0.7277  0.8759
21112SOL    HW265059   1.860   7.081   4.565  0.0690  0.6986 -1.0639
21113SOL     OW65060   0.171   4.776   7.204 -0.0142 -0.4816 -0.2586
21113SOL    HW165061   0.217   4.720   7.266 -1.3008 -0.5025  0.7048
21113SOL    HW265062   0.233   4.847   7.186  0.9799 -1.2973 -0.2086
21114SOL     OW65063   7.467   3.544   5.487 -0.3069 -0.1046 -0.1037
21114SOL    HW165064   7.527   3.541   5.413  1.4400 -1.2405  1.2703
21114SOL    HW265065   7.425   3.458   5.488 -0.2542 -0.1295  0.2749
21115SOL     OW65066   7.490   2.078   6.896  0.4439  0.4453  0.3459
21115SOL    HW165067   7.438   1.997   6.904  1.2040 -0.1638 -0.6001
21115SOL    HW265068   7.554   2.058   6.828 -0.9954  2.6975 -1.8746
21116SOL     OW65069   6.537   6.443   8.114  0.2929  0.2775 -0.1516
21116SOL    HW165070   6.627   6.419   8.092  0.4880  1.9912 -1.5245
21116SOL    HW265071   6.546   6.515   8.177 -0.0035  1.5557 -1.4988
21117SOL     OW65072   3.967   0.720   6.396 -0.4560 -0.5664  0.2566
21117SOL    HW165073   3.972   0.757   6.308  1.0429 -3.5706 -1.0509
21117SOL    HW265074   3.875   0.730   6.420 -0.4773  2.3796 -0.5852
21118SOL     OW65075   3.230   1.589   9.150 -0.3268  0.3592  0.0081
21118SOL    HW165076   3.192   1.591   9.063 -1.8771 -0.0317  0.6368
21118SOL    HW265077   3.154   1.591   9.209  0.4451 -3.1272  1.3495
21119SOL     OW65078   2.522   2.311   3.911  0.0843  0.0870 -0.2930
21119SOL    HW165079   2.545   2.359   3.832  1.6665 -0.7518 -0.3838
21119SOL    HW265080   2.431   2.285   3.899  0.1899  0.3089 -1.6425
21120SOL     OW65081   6.814   6.423   6.152  0.3170 -0.3143 -0.1414
21120SOL    HW165082   6.908   6.434   6.164  0.1843  0.6679  0.0653
21120SOL    HW265083   6.775   6.495   6.201 -0.5222 -0.2657 -0.8625
21121SOL     OW65084   2.927   0.516   5.884  0.5872 -0.6928  0.1023
21121SOL    HW165085   2.862   0.583   5.906  0.7578 -0.7298  0.7354
21121SOL    HW265086   2.928   0.457   5.960  1.3113 -0.7252  0.0746
21122SOL     OW65087   3.116   6.314   1.588 -0.1152  0.5754  0.2545
21122SOL    HW165088   3.036   6.321   1.535 -0.1094 -0.7793  0.0545
21122SOL    HW265089   3.086   6.275   1.671  0.6985 -2.6226 -0.8201
21123SOL     OW65090   5.482   2.266   2.411 -0.1165 -0.0976  0.1784
21123SOL    HW165091   5.538   2.211   2.466 -1.6527  0.3645  2.3413
21123SOL    HW265092   5.537   2.343   2.392  0.1528  0.2468  2.0616
21124SOL     OW65093   5.939   8.468   7.465  0.1510 -0.5975 -0.5289
21124SOL    HW165094   5.972   8.436   7.549  0.9733  0.7820 -0.2981
21124SOL    HW265095   6.017   8.500   7.419 -0.4542 -0.1998 -1.3009
21125SOL     OW65096   3.451   4.038   1.847 -0.0200 -0.3825  0.5182
21125SOL    HW165097   3.498   4.101   1.793 -0.6659 -1.2394 -1.1046
21125SOL    HW265098   3.452   3.957   1.796  0.5112 -1.6284  2.4061
21126SOL     OW65099   8.640   0.252   2.825 -0.0732 -0.6919 -0.1680
21126SOL    HW165100   8.649   0.160   2.847  1.8101 -0.1085  1.7965
21126SOL    HW265101   8.576   0.286   2.888 -0.1470 -0.4854 -0.3518
21127SOL     OW65102   4.859   3.725   2.123 -0.1165 -0.3968  0.7580
21127SOL    HW165103   4.820   3.704   2.038 -0.0517  0.5417  0.4810
21127SOL    HW265104   4.788   3.763   2.174 -0.0896 -0.7136  1.0392
21128SOL     OW65105   8.793   2.661   3.183 -0.2834  0.5323  0.3831
21128SOL    HW165106   8.708   2.688   3.217 -0.6158 -1.0156  0.8951
21128SOL    HW265107   8.808   2.716   3.106 -2.8495 -0.6740 -1.1287
21129SOL     OW65108   7.754   7.220   2.534  0.5555  0.7104  0.0927
21129SOL    HW165109   7.743   7.262   2.619 -0.1753 -0.0077  0.3540
21129SOL    HW265110   7.795   7.136   2.553 -0.6783  0.0390 -0.1415
21130SOL     OW65111   7.801   7.685   7.625 -0.8421 -0.7712 -0.1811
21130SOL    HW165112   7.882   7.669   7.673  0.1742  1.7841 -0.9155
21130SOL    HW265113   7.822   7.754   7.563 -3.8727  0.9280  0.4739
21131SOL     OW65114   3.480   8.093   4.870  0.1812  0.2792 -0.1762
21131SOL    HW165115   3.473   8.050   4.955  0.7179  1.6824  0.6025
21131SOL    HW265116   3.392   8.091   4.834 -0.0696 -0.2419  0.4484
21132SOL     OW65117   5.201   6.193   1.347  0.2050  0.1975 -0.4217
21132SOL    HW165118   5.191   6.120   1.408 -2.3720  0.0494 -0.9145
21132SOL    HW265119   5.140   6.259   1.379 -2.1808 -0.3445 -3.3772
21133SOL     OW65120   7.099   6.936   9.472 -0.0608  0.9178  0.3295
21133SOL    HW165121   7.041   7.005   9.438  0.1738  0.5432 -0.8943
21133SOL    HW265122   7.174   6.938   9.414  0.0584 -0.2180  0.4215
21134SOL     OW65123   3.869   2.647   7.573 -0.0266 -0.6492 -0.2834
21134SOL    HW165124   3.891   2.567   7.525 -2.3815 -0.4450 -1.8911
21134SOL    HW265125   3.794   2.622   7.628 -0.4725  0.3347 -0.4319
21135SOL     OW65126   7.898   5.395   8.525  0.0129  0.7020 -0.0557
21135SOL    HW165127   7.831   5.426   8.585 -1.0345 -0.8783 -0.3660
21135SOL    HW265128   7.850   5.358   8.451  1.2223 -0.1005 -0.4801
21136SOL     OW65129   0.598   4.158   5.327 -0.6643 -0.0641 -0.2197
21136SOL    HW165130   0.563   4.235   5.284 -0.2803  0.3794  0.2518
21136SOL    HW265131   0.542   4.144   5.402 -1.0402 -0.5512 -0.5834
21137SOL     OW65132   3.629   3.207   5.014 -0.0087  0.2264  0.7323
21137SOL    HW165133   3.573   3.244   5.082 -0.4662  1.5865 -0.3493
21137SOL    HW265134   3.616   3.112   5.021 -2.1700  0.4734  0.7520
21138SOL     OW65135   1.552   8.057   3.558  0.3656 -0.0896  0.4841
21138SOL    HW165136   1.571   8.057   3.464  1.4614  2.1020  0.6580
21138SOL    HW265137   1.614   7.994   3.595  1.1207  0.3363 -0.0467
21139SOL     OW65138   7.947   1.181   0.335  0.5353  0.2374 -0.5148
21139SOL    HW165139   7.978   1.213   0.420 -2.2623 -0.3534  0.8315
21139SOL    HW265140   7.919   1.260   0.288  0.0161  0.3847  0.0309
21140SOL     OW65141   3.351   4.805   7.489  0.2899  0.3602  0.3221
21140SOL    HW165142   3.426   4.771   7.439  0.1000  1.0811 -0.4702
21140SOL    HW265143   3.390   4.854   7.561  0.6125  1.2983 -0.4654
21141SOL     OW65144   0.348   1.957   3.223 -0.0523  0.2489  0.4054
21141SOL    HW165145   0.285   2.017   3.185  0.8397  2.2555  1.8942
21141SOL    HW265146   0.295   1.890   3.266 -1.1106  0.7022 -0.1780
21142SOL     OW65147   7.323   5.814   4.524  0.1347  0.2967 -0.0594
21142SOL    HW165148   7.320   5.740   4.464  0.9348  1.2491 -1.3160
21142SOL    HW265149   7.231   5.832   4.543 -0.0989 -0.4826 -0.3965
21143SOL     OW65150   4.111   0.300   7.273  0.3075 -0.1555 -0.2199
21143SOL    HW165151   4.114   0.258   7.187  0.2295  1.2928 -0.9591
21143SOL    HW265152   4.061   0.381   7.258 -0.1412 -0.1314  1.3008
21144SOL     OW65153   2.400   2.290   8.338  0.1366 -0.7875 -0.7716
21144SOL    HW165154   2.454   2.247   8.405  0.7904  0.4821 -0.4559
21144SOL    HW265155   2.405   2.383   8.359 -2.4652 -0.6258 -0.5276
21145SOL     OW65156   0.103   1.061   2.902  0.1415 -0.4486 -0.2179
21145SOL    HW165157   0.008   1.056   2.899  0.1360 -0.7796  0.2755
21145SOL    HW265158   0.132   0.970   2.904  0.3479 -0.3942  2.0197
21146SOL     OW65159   0.647   6.676   1.278 -0.1473 -0.0881  0.1299
21146SOL    HW165160   0.665   6.770   1.276 -1.3097  0.1739  1.0566
21146SOL    HW265161   0.602   6.658   1.195 -0.1328  0.2216  0.0539
21147SOL     OW65162   0.315   8.346   2.960 -0.2219  0.0466 -0.2575
21147SOL    HW165163   0.265   8.339   3.042  0.4162  0.5031  0.1839
21147SOL    HW265164   0.309   8.258   2.922 -2.2534  0.3672 -0.7815
21148SOL     OW65165   4.743   6.826   1.946 -0.2671  0.2939  0.3321
21148SOL    HW165166   4.825   6.866   1.977  0.2169 -0.1221 -0.3719
21148SOL    HW265167   4.702   6.791   2.025  0.3585  0.2865  0.6631
21149SOL     OW65168   2.795   0.859   5.443 -0.0884 -0.1145  0.1721
21149SOL    HW165169   2.843   0.938   5.418 -2.5651  1.6152  0.4616
21149SOL    HW265170   2.857   0.808   5.494  1.3559  2.0822  0.7468
21150SOL     OW65171   3.687   0.998   7.073  0.1273 -0.1014  0.1663
21150SOL    HW165172   3.666   1.090   7.087  2.8801  0.4452  1.2738
21150SOL    HW265173   3.650   0.953   7.149  0.4144  0.3700  0.5881
21151SOL     OW65174   8.861   0.659   4.168 -0.6618 -0.6219 -0.1360
21151SOL    HW165175   8.842   0.566   4.170  0.2551 -0.8351  2.7551
21151SOL    HW265176   8.956   0.664   4.157 -0.4013 -0.1706  1.9035
21152SOL     OW65177   4.158   4.764   7.722  0.2194 -0.3859  0.2068
21152SOL    HW165178   4.093   4.753   7.653  0.0665 -1.7210  0.5505
21152SOL    HW265179   4.120   4.829   7.781 -0.5767 -0.7862  0.1423
21153SOL     OW65180   9.657   8.818   2.940  0.0399  0.0623 -0.4677
21153SOL    HW165181   9.606   8.882   2.892  0.9494  1.6958  0.6555
21153SOL    HW265182   9.633   8.832   3.032  0.0226 -1.4403 -0.2205
21154SOL     OW65183   8.514   8.014   1.643  0.1024 -0.6246  0.3948
21154SOL    HW165184   8.565   7.988   1.720  1.4482 -0.6631 -0.4714
21154SOL    HW265185   8.577   8.061   1.588 -1.1205  0.3997 -0.1763
21155SOL     OW65186   3.102   4.006   2.288  0.5463 -0.2431  0.0943
21155SOL    HW165187   3.159   3.941   2.248 -0.6690 -0.8362 -0.7109
21155SOL    HW265188   3.160   4.056   2.346  1.7680 -1.1476 -0.3129
21156SOL     OW65189   6.589   1.376   2.702 -0.0651 -0.3060  0.1589
21156SOL    HW165190   6.665   1.354   2.757 -0.3118  0.0187  0.6394
21156SOL    HW265191   6.625   1.384   2.614  0.0082 -2.8893 -0.1262
21157SOL     OW65192   8.915   0.996   8.949  0.0569  0.0146  0.1107
21157SOL    HW165193   8.979   0.936   8.911 -1.1318 -0.3076 -1.5424
21157SOL    HW265194   8.957   1.082   8.946  1.2093 -0.4831  1.1137
21158SOL     OW65195   5.035   5.070   3.964  0.1853 -0.1359  0.1811
21158SOL    HW165196   4.969   5.080   4.033  0.5556  1.5126  0.3284
21158SOL    HW265197   5.067   4.980   3.975  0.4014  0.1535  2.3009
21159SOL     OW65198   4.071   3.048   6.186  0.0604  0.6334 -0.4650
21159SOL    HW165199   4.123   2.981   6.231 -1.3572 -0.8291 -0.9401
21159SOL    HW265200   4.014   3.084   6.254 -1.2078 -0.7085 -0.7769
21160SOL     OW65201   9.524   1.369   4.540 -0.0402 -0.3455  0.0619
21160SOL    HW165202   9.524   1.429   4.615 -0.0322  0.2838 -0.4313
21160SOL    HW265203   9.555   1.286   4.576 -0.4285 -0.1625  0.8420
21161SOL     OW65204   1.890   5.645   0.906  0.4402 -0.7496 -0.0450
21161SOL    HW165205   1.953   5.716   0.892  0.1349 -0.4753 -0.0301
21161SOL    HW265206   1.833   5.649   0.828  0.3042 -0.8518  0.0498
21162SOL     OW65207   6.477   1.050   5.515 -0.3394  0.0218 -0.0815
21162SOL    HW165208   6.551   1.012   5.467 -1.3886  0.1499 -1.8822
21162SOL    HW265209   6.443   0.978   5.567  1.3215  0.0842  1.1572
21163SOL     OW65210   5.992   7.876   8.910  0.2062  0.3833 -0.3153
21163SOL    HW165211   5.937   7.862   8.833 -0.9754  1.3642  0.3035
21163SOL    HW265212   5.930   7.876   8.983  1.2812 -0.3520  0.6216
21164SOL     OW65213   8.173   1.252   2.213 -0.2829 -0.0835  0.6550
21164SOL    HW165214   8.226   1.291   2.281 -0.7940  2.0843 -0.1011
21164SOL    HW265215   8.086   1.291   2.224 -0.4054  0.2537 -1.1346
21165SOL     OW65216   5.493   4.439   4.957  0.0023  0.1011 -0.7074
21165SOL    HW165217   5.536   4.377   4.897  0.8033 -1.0504  0.9598
21165SOL    HW265218   5.411   4.462   4.914 -0.1416 -1.8433 -1.5749
21166SOL     OW65219   8.998   5.037   0.077 -0.2899 -0.3366 -0.2453
21166SOL    HW165220   9.091   5.051   0.091  0.3117 -1.7949 -2.2633
21166SOL    HW265221   8.989   4.942   0.070 -1.9255 -0.2177 -0.2233
21167SOL     OW65222   5.861   2.969   7.001  0.2841  0.6448 -0.0924
21167SOL    HW165223   5.937   2.934   7.047  1.8384  1.8814 -1.5685
21167SOL    HW265224   5.861   3.063   7.023 -3.0992  0.1698  2.8815
21168SOL     OW65225   1.371   6.201   8.506  0.6905 -0.1160  0.7603
21168SOL    HW165226   1.332   6.121   8.542  0.1103  0.1405  0.7076
21168SOL    HW265227   1.453   6.171   8.466 -0.4430 -1.0100 -1.0057
21169SOL     OW65228   6.185   3.857   3.341  0.1763  0.3212 -0.4675
21169SOL    HW165229   6.131   3.794   3.292  0.0325 -0.2570  0.4098
21169SOL    HW265230   6.142   3.941   3.327 -1.1135 -0.1628  0.4056
21170SOL     OW65231   5.400   6.695   3.889  0.2095  0.4969  0.2787
21170SOL    HW165232   5.431   6.637   3.819 -2.8037  0.3034 -1.0409
21170SOL    HW265233   5.476   6.749   3.910  1.8268 -0.8518 -1.6808
21171SOL     OW65234   0.714   4.478   9.060 -0.0160 -0.0884  0.0913
21171SOL    HW165235   0.685   4.435   8.980 -0.1587  2.2372 -1.1625
21171SOL    HW265236   0.691   4.415   9.130 -1.4928 -1.4133 -1.4879
21172SOL     OW65237   3.932   3.190   5.118  0.5182  0.0598  0.2521
21172SOL    HW165238   3.860   3.128   5.104  0.8737 -0.4441  0.6156
21172SOL    HW265239   4.010   3.142   5.090  0.9859 -0.1969  1.8766
21173SOL     OW65240   4.922   8.965   1.178 -0.3304  0.3154  0.2555
21173SOL    HW165241   4.926   8.869   1.175 -2.0446  0.2356 -1.8764
21173SOL    HW265242   4.878   8.984   1.261 -0.3644 -0.7801  0.5056
21174SOL     OW65243   0.537   3.070   7.423  0.0867  0.5926 -0.1761
21174SOL    HW165244   0.535   2.975   7.434  1.9067  0.4094 -1.0869
21174SOL    HW265245   0.607   3.100   7.481  0.4904  1.1834 -0.9347
21175SOL     OW65246   4.163   7.148   2.945 -0.1911 -0.0914 -0.1675
21175SOL    HW165247   4.173   7.159   3.039 -0.0563  0.3404 -0.2330
21175SOL    HW265248   4.175   7.054   2.931  2.1544  0.1262 -0.0344
21176SOL     OW65249   4.524   2.865   7.783  0.0166 -0.4337 -0.1558
21176SOL    HW165250   4.528   2.805   7.708 -0.7227 -0.1517 -0.4238
21176SOL    HW265251   4.479   2.942   7.749 -0.3435 -0.3167  0.5860
21177SOL     OW65252   2.891   7.378   0.764 -0.5537 -0.0639 -0.4395
21177SOL    HW165253   2.836   7.412   0.694 -1.1923 -0.0508  0.0652
21177SOL    HW265254   2.911   7.455   0.818  0.2126 -0.0112 -0.7798
21178SOL     OW65255   3.333   3.722   5.859  0.0577  0.0951 -0.2636
21178SOL    HW165256   3.374   3.808   5.873  0.2824 -0.1010  0.3096
21178SOL    HW265257   3.247   3.743   5.821 -0.6665  0.6834  1.5917
21179SOL     OW65258   4.963   6.709   4.798  0.1116  0.3322 -0.6245
21179SOL    HW165259   4.937   6.795   4.766 -0.6263  0.5537  0.5197
21179SOL    HW265260   5.010   6.726   4.879 -0.6436 -0.3704 -0.0205
21180SOL     OW65261   8.041   7.411   3.963  0.2318 -0.1242  0.1516
21180SOL    HW165262   8.014   7.321   3.945 -0.5746 -0.2880  1.9715
21180SOL    HW265263   7.971   7.447   4.017  1.2588  1.1089  0.7172
21181SOL     OW65264   5.681   7.743   2.676  0.5586  0.3944 -0.0134
21181SOL    HW165265   5.650   7.753   2.586 -0.6436  1.2487  0.4576
21181SOL    HW265266   5.605   7.768   2.730  0.4598 -2.2927  1.2752
21182SOL     OW65267   5.986   5.930   2.068 -0.1708 -0.1224  0.4955
21182SOL    HW165268   5.913   5.935   2.130  0.6570  1.3262  1.3885
21182SOL    HW265269   6.059   5.897   2.119 -0.0795 -1.2885 -0.3324
21183SOL     OW65270   7.169   7.954   0.021  0.0221 -0.0790 -0.0686
21183SOL    HW165271   7.166   7.878   0.080  0.9236 -0.1508 -0.0971
21183SOL    HW265272   7.180   8.029   0.080 -0.8380  0.0307 -0.0425
21184SOL     OW65273   4.230   9.097   5.829 -0.6017 -0.0975  0.5720
21184SOL    HW165274   4.176   9.044   5.888  0.6747  0.4532  2.3262
21184SOL    HW265275   4.250   9.039   5.756  0.6143 -2.0786  2.3391
21185SOL     OW65276   1.335   7.955   1.599 -0.3319 -0.3658 -0.5193
21185SOL    HW165277   1.282   7.918   1.528 -0.8562 -0.0419 -0.3066
21185SOL    HW265278   1.296   7.919   1.679  0.6528 -1.2285 -0.4175
21186SOL     OW65279   5.075   8.813   4.845 -0.1027  0.2243  0.0595
21186SOL    HW165280   4.982   8.819   4.864  0.0355 -0.8737  1.2187
21186SOL    HW265281   5.097   8.721   4.859  0.7824  0.0540 -2.0959
21187SOL     OW65282   9.482   6.957   5.834  0.1896  0.5768 -0.2975
21187SOL    HW165283   9.455   7.047   5.855  0.9005  0.7506 -0.1184
21187SOL    HW265284   9.399   6.909   5.826 -0.1838  1.1491  0.0349
21188SOL     OW65285   2.172   1.012   2.429 -0.6018  0.4233 -0.2302
21188SOL    HW165286   2.177   1.102   2.396  0.0850  0.7134  0.6450
21188SOL    HW265287   2.255   0.972   2.402 -0.8016  0.1118 -0.4020
21189SOL     OW65288   2.055   1.476   6.277 -0.4059 -0.9466  0.5223
21189SOL    HW165289   2.004   1.511   6.350  0.2915  0.9013  0.1645
21189SOL    HW265290   2.039   1.537   6.205  1.5140 -0.8654  0.1154
21190SOL     OW65291   3.320   2.239   5.232  0.7040  0.4317 -0.0706
21190SOL    HW165292   3.333   2.333   5.231 -2.0381  0.8937  0.1000
21190SOL    HW265293   3.307   2.215   5.140  0.2928  0.4262 -0.0143
21191SOL     OW65294   6.154   8.433   2.877 -0.4403 -0.9083  0.1287
21191SOL    HW165295   6.180   8.344   2.854  0.6613 -0.4697 -0.4049
21191SOL    HW265296   6.132   8.474   2.793 -0.2247 -0.4607  0.2880
21192SOL     OW65297   8.300   3.274   2.612  0.0113  0.1701  0.0248
21192SOL    HW165298   8.256   3.355   2.636  1.0540  0.7385  0.0714
21192SOL    HW265299   8.242   3.204   2.643  0.4735  0.8658  2.6528
21193SOL     OW65300   4.348   4.134   4.688  0.5312  0.5234  0.0771
21193SOL    HW165301   4.304   4.169   4.611 -0.7486  1.2008  1.0646
21193SOL    HW265302   4.408   4.203   4.715  0.3204  0.6625  0.1959
21194SOL     OW65303   5.061   7.568   4.248  0.0267 -0.5492  0.5535
21194SOL    HW165304   5.119   7.493   4.241 -0.7954 -1.1470  0.0325
21194SOL    HW265305   5.064   7.593   4.341  0.1780 -1.3275  0.7632
21195SOL     OW65306   4.226   8.593   3.159 -0.1875 -0.0361  0.1893
21195SOL    HW165307   4.196   8.675   3.120  0.6634  0.0751 -0.2395
21195SOL    HW265308   4.292   8.620   3.223  0.3733 -0.4097 -0.2261
21196SOL     OW65309   2.658   5.972   6.615  0.2619  0.2631 -0.3844
21196SOL    HW165310   2.704   5.889   6.629  0.6068  0.1520 -2.0008
21196SOL    HW265311   2.713   6.038   6.657  1.3984  0.0010 -1.4253
21197SOL     OW65312   5.609   1.475   7.513 -0.2807 -0.4039 -0.4772
21197SOL    HW165313   5.543   1.476   7.444  1.6230 -1.4056 -2.4395
21197SOL    HW265314   5.661   1.554   7.499  0.3076 -0.7653 -0.3918
21198SOL     OW65315   5.076   7.883   3.336 -0.4219  0.1860 -0.3227
21198SOL    HW165316   5.059   7.800   3.381  0.4783 -0.4376 -1.0994
21198SOL    HW265317   5.148   7.923   3.384 -1.7833  1.2379  0.9315
21199SOL     OW65318   1.415   8.773   8.580  0.3941 -0.0103  0.0823
21199SOL    HW165319   1.329   8.775   8.539  1.0234 -0.2342 -1.3090
21199SOL    HW265320   1.402   8.724   8.661 -1.1901  1.6928  0.9288
21200SOL     OW65321   4.717   2.026   5.873 -0.5396  0.7370  0.5274
21200SOL    HW165322   4.779   1.970   5.826  0.2929  0.1911  2.1831
21200SOL    HW265323   4.652   2.050   5.808  1.2121  1.0275 -1.2051
21201SOL     OW65324   6.145   1.217   4.238 -0.2248  0.2320  0.6183
21201SOL    HW165325   6.104   1.143   4.283  1.2409 -0.8423  0.2436
21201SOL    HW265326   6.152   1.285   4.306  1.6143 -1.2191  1.9846
21202SOL     OW65327   5.622   6.382   5.986 -0.1471  0.2670 -0.6017
21202SOL    HW165328   5.680   6.458   5.978  1.5837 -0.7335  1.4227
21202SOL    HW265329   5.534   6.417   5.970  0.7862  2.2759 -1.6529
21203SOL     OW65330   7.527   0.380   5.789 -0.5389 -0.6221  0.0889
21203SOL    HW165331   7.436   0.409   5.796 -0.4003 -0.3999  1.2411
21203SOL    HW265332   7.577   0.448   5.834  0.4488  0.2918 -2.2196
21204SOL     OW65333   6.615   7.761   0.545 -0.3508  0.1106 -0.1393
21204SOL    HW165334   6.617   7.666   0.532 -1.7375  0.1205 -0.5666
21204SOL    HW265335   6.593   7.796   0.459  1.7327  0.9582 -0.3857
21205SOL     OW65336   2.828   0.190   7.134 -0.0076 -0.3950 -0.2007
21205SOL    HW165337   2.741   0.210   7.168 -0.4102 -1.1380 -0.7820
21205SOL    HW265338   2.837   0.244   7.056  1.2890  2.0495  1.4635
21206SOL     OW65339   4.043   9.110   8.742  0.1329  0.7270 -0.1871
21206SOL    HW165340   4.112   9.108   8.807 -0.9088 -1.3398  0.9481
21206SOL    HW265341   3.994   9.190   8.761 -0.4847 -0.0960  1.9985
21207SOL     OW65342   1.528   5.550   9.157  0.4162  0.0986 -0.0222
21207SOL    HW165343   1.591   5.597   9.212  1.6739 -0.4968 -0.8834
21207SOL    HW265344   1.463   5.616   9.134 -1.1910 -0.0260  3.5276
21208SOL     OW65345   7.365   2.908   4.896  0.0946 -0.2421 -0.5205
21208SOL    HW165346   7.440   2.885   4.952  0.6694  0.5524 -0.9447
21208SOL    HW265347   7.386   2.871   4.811  0.7012  1.1913 -1.0243
21209SOL     OW65348   0.945   3.606   6.964  0.3364 -0.1702 -0.1963
21209SOL    HW165349   0.959   3.571   6.876  1.1530  1.5914 -0.8137
21209SOL    HW265350   0.938   3.528   7.020 -1.6139 -1.3624 -1.9762
21210SOL     OW65351   1.591   1.174   8.609 -0.2192  0.0429 -0.1087
21210SOL    HW165352   1.589   1.251   8.552  0.2279  0.9583  1.0497
21210SOL    HW265353   1.513   1.124   8.585 -0.8362  1.1538 -0.5005
21211SOL     OW65354   7.527   3.375   6.295 -0.2460  0.3160  0.1463
21211SOL    HW165355   7.582   3.348   6.369 -1.5797 -0.9035  0.7616
21211SOL    HW265356   7.498   3.292   6.256  1.5164  0.8965 -2.6697
21212SOL     OW65357   2.223   7.760   8.421  0.5906  0.0266  0.3504
21212SOL    HW165358   2.165   7.821   8.375 -0.1713 -0.5112  0.5696
21212SOL    HW265359   2.311   7.795   8.407  0.0405  4.2782  4.7180
21213SOL     OW65360   8.752   6.364   1.809  0.1529 -0.1964  0.1053
21213SOL    HW165361   8.740   6.458   1.798  1.6073 -0.1502 -1.5957
21213SOL    HW265362   8.713   6.344   1.894  0.0492  1.9815  0.6143
21214SOL     OW65363   0.134   5.964   4.203 -0.8985 -0.4284  0.0808
21214SOL    HW165364   0.228   5.953   4.191 -1.1663 -0.7829 -2.3656
21214SOL    HW265365   0.118   5.941   4.294  1.4053 -0.1095  0.6210
21215SOL     OW65366   5.321   4.296   6.182 -0.4022 -0.5548 -0.2822
21215SOL    HW165367   5.401   4.276   6.231 -1.0555 -0.0230  1.0654
21215SOL    HW265368   5.317   4.230   6.113  0.5685 -1.3322  0.3894
21216SOL     OW65369   1.649   4.073   8.547  0.2418 -0.1164  0.2445
21216SOL    HW165370   1.700   4.008   8.498 -0.0383  0.7837 -1.3182
21216SOL    HW265371   1.716   4.130   8.585  0.4589  0.5650 -1.0977
21217SOL     OW65372   0.148   5.204   5.494  0.5742 -0.2699 -0.2367
21217SOL    HW165373   0.077   5.140   5.485  0.9004 -0.8661  1.1268
21217SOL    HW265374   0.132   5.268   5.425 -1.1761 -0.5075 -0.0908
21218SOL     OW65375   7.295   6.358   4.733  0.4111 -0.4543  0.2150
21218SOL    HW165376   7.329   6.442   4.702  1.0244 -0.8658 -0.2596
21218SOL    HW265377   7.369   6.298   4.724 -0.7215 -1.6678 -1.9866
21219SOL     OW65378   7.595   7.131   4.691  0.7953 -0.0511  0.2331
21219SOL    HW165379   7.628   7.105   4.777  0.4909  0.1076  0.3963
21219SOL    HW265380   7.674   7.153   4.641  0.9580  0.0593  0.5377
21220SOL     OW65381   4.990   6.316   1.455  0.0048  0.0585 -0.3848
21220SOL    HW165382   5.018   6.405   1.434  0.8241  0.1354  0.8704
21220SOL    HW265383   4.962   6.321   1.547 -1.6180 -0.6169 -0.8132
21221SOL     OW65384   3.855   3.171   8.396  0.4022  0.3349  0.0206
21221SOL    HW165385   3.889   3.229   8.464  0.0393 -0.4884  0.9221
21221SOL    HW265386   3.920   3.101   8.388 -0.3135 -0.4239  0.6662
21222SOL     OW65387   9.461   0.853   4.909 -0.1849  0.1722  0.5831
21222SOL    HW165388   9.461   0.916   4.836 -0.7213 -0.0347  0.4018
21222SOL    HW265389   9.439   0.905   4.986 -3.0038 -0.1507  0.0955
21223SOL     OW65390   3.952   7.822   0.185 -0.0352  0.8661  0.4152
21223SOL    HW165391   3.891   7.755   0.153 -0.0294  1.5719 -1.1840
21223SOL    HW265392   3.985   7.788   0.268 -1.4065 -0.2622  0.5289
21224SOL     OW65393   6.377   1.725   6.301 -0.2524 -0.2847  0.4094
21224SOL    HW165394   6.282   1.718   6.309 -0.5362  0.4294 -1.6804
21224SOL    HW265395   6.408   1.635   6.309 -1.4792 -1.0342 -2.1001
21225SOL     OW65396   3.956   4.936   9.356  0.5843  0.4127  0.1920
21225SOL    HW165397   3.972   4.923   9.262 -0.4026 -1.4726  0.2306
21225SOL    HW265398   3.866   4.969   9.360  0.4503  0.0098  0.5019
21226SOL     OW65399   8.921   4.085   1.035 -0.5204  0.0731 -0.1155
21226SOL    HW165400   8.873   4.168   1.036  1.7773  1.5345  2.1823
21226SOL    HW265401   9.007   4.108   1.001  0.2984 -1.2825  0.9445
21227SOL     OW65402   8.192   2.650   3.338  0.0450  0.2177  0.1224
21227SOL    HW165403   8.224   2.731   3.378 -1.8014  0.8486  0.4385
21227SOL    HW265404   8.270   2.597   3.323  0.9936  0.6193  3.0810
21228SOL     OW65405   6.081   5.349   8.275  0.1289  0.0689 -0.0690
21228SOL    HW165406   6.160   5.332   8.326 -0.0861  0.2450  0.3290
21228SOL    HW265407   6.067   5.269   8.224 -0.0442 -0.3758  0.6696
21229SOL     OW65408   0.584   6.416   5.690  0.3912  0.2601 -0.2037
21229SOL    HW165409   0.604   6.476   5.618  1.5981  1.5378  1.1479
21229SOL    HW265410   0.489   6.401   5.682  0.5231  0.1672 -2.1711
21230SOL     OW65411   7.623   9.685   6.693 -0.4167  0.3076 -0.7118
21230SOL    HW165412   7.687   9.672   6.624 -1.0165 -0.9685 -1.0625
21230SOL    HW265413   7.662   9.644   6.770 -1.2697 -1.5764 -1.2193
21231SOL     OW65414   8.366   6.344   6.869  0.4081  0.0837  0.0356
21231SOL    HW165415   8.450   6.388   6.876  0.4857 -0.0170 -0.2562
21231SOL    HW265416   8.385   6.252   6.890  0.4751 -0.0453 -0.5798
21232SOL     OW65417   0.583   1.554   7.540 -0.4295 -0.5246  0.1175
21232SOL    HW165418   0.585   1.649   7.534 -0.7748 -0.5731 -1.0348
21232SOL    HW265419   0.675   1.528   7.540 -0.3229 -0.2874 -1.9208
21233SOL     OW65420   4.415   4.038   7.322  0.4750 -0.3180  0.1247
21233SOL    HW165421   4.391   3.945   7.313  0.1823 -0.2172 -0.1500
21233SOL    HW265422   4.426   4.069   7.233  0.5297 -0.0752  0.2161
21234SOL     OW65423   7.493   7.367   5.702 -0.0369  0.1455 -0.1727
21234SOL    HW165424   7.422   7.384   5.640 -0.5300 -0.6103  0.1754
21234SOL    HW265425   7.449   7.345   5.784  0.5642 -1.0333 -0.1348
21235SOL     OW65426   1.398   2.982   5.480 -0.4409  0.0679  0.8365
21235SOL    HW165427   1.362   3.037   5.549 -1.5463  1.0516 -0.4792
21235SOL    HW265428   1.484   3.020   5.462 -0.9615  1.0361  0.3325
21236SOL     OW65429   7.272   7.587   6.410 -0.2453  0.2728 -0.1118
21236SOL    HW165430   7.195   7.614   6.360 -0.2961  0.3873  0.0295
21236SOL    HW265431   7.344   7.635   6.369 -0.3715  0.8204  0.2973
21237SOL     OW65432   7.895   4.535   4.971 -0.4150 -0.0062  0.1352
21237SOL    HW165433   7.856   4.556   4.887 -1.2685  0.0997  0.5493
21237SOL    HW265434   7.861   4.601   5.031  0.7490  0.3589  0.4319
21238SOL     OW65435   8.262   2.877   1.851 -0.0506  0.0640 -0.0555
21238SOL    HW165436   8.292   2.860   1.940 -1.9151  0.8631  0.7739
21238SOL    HW265437   8.174   2.840   1.848  0.5234 -1.2823 -2.0602
21239SOL     OW65438   6.772   0.390   3.147  0.1200  0.1865 -0.1217
21239SOL    HW165439   6.807   0.439   3.221  0.0717  0.3415 -0.2008
21239SOL    HW265440   6.848   0.345   3.110  0.2245  0.4624 -0.2474
21240SOL     OW65441   2.845   5.432   3.443 -0.0580 -0.0888  0.2312
21240SOL    HW165442   2.823   5.341   3.466 -0.1684  0.0321  0.6113
21240SOL    HW265443   2.779   5.484   3.489 -0.7668  0.1205 -1.0012
21241SOL     OW65444   4.727   7.087   1.912  0.0068  0.0678  0.3115
21241SOL    HW165445   4.723   6.992   1.922  1.9289  0.0345  1.3154
21241SOL    HW265446   4.716   7.121   2.001  1.2716  0.6642  0.2609
21242SOL     OW65447   5.274   4.762   4.642  0.2879 -0.1414 -0.2236
21242SOL    HW165448   5.359   4.789   4.677 -0.6124  2.7671 -0.0238
21242SOL    HW265449   5.292   4.680   4.596  3.0064 -0.0718  0.5455
21243SOL     OW65450   2.004   2.290   5.450 -0.0354  0.3470 -0.6068
21243SOL    HW165451   2.010   2.221   5.385 -0.6252 -0.0343 -0.2684
21243SOL    HW265452   2.079   2.276   5.508 -0.3945 -0.2879 -0.2822
21244SOL     OW65453   8.949   2.895   7.269  0.2159  0.2505  0.2218
21244SOL    HW165454   9.034   2.870   7.232  0.0576  0.1639 -0.0923
21244SOL    HW265455   8.944   2.989   7.257  0.3753  0.2900  0.4684
21245SOL     OW65456   3.864   0.249   8.579  0.5495 -0.2199 -0.1390
21245SOL    HW165457   3.894   0.201   8.656 -1.3343  0.7384  1.2672
21245SOL    HW265458   3.818   0.324   8.614  0.0021  0.4891 -2.2374
21246SOL     OW65459   5.858   5.597   1.230  0.4999  0.7271 -0.0546
21246SOL    HW165460   5.794   5.632   1.169  0.1522 -1.1396 -0.8310
21246SOL    HW265461   5.939   5.588   1.179  0.8965  1.3987  0.4343
21247SOL     OW65462   7.902   8.832   9.182 -0.0166 -0.4767 -0.0481
21247SOL    HW165463   7.839   8.813   9.112  0.4138 -0.0696 -0.5540
21247SOL    HW265464   7.925   8.747   9.218  0.3250 -0.7478 -0.8989
21248SOL     OW65465   6.796   9.581   5.749  0.2751 -0.5962  0.6250
21248SOL    HW165466   6.778   9.504   5.696  1.1126 -0.5143  0.2098
21248SOL    HW265467   6.890   9.578   5.766  0.7163  1.3160 -1.0229
21249SOL     OW65468   1.012   2.541   5.262 -0.4075 -0.4331 -0.5491
21249SOL    HW165469   0.952   2.473   5.293 -1.9129  0.3478 -1.6254
21249SOL    HW265470   1.006   2.537   5.167  0.6194  0.2275 -0.6527
21250SOL     OW65471   4.067   4.782   3.231 -0.2025 -0.3098 -0.4555
21250SOL    HW165472   4.017   4.811   3.155  1.8774  0.9865 -1.4049
21250SOL    HW265473   4.106   4.861   3.266 -0.4466 -1.0075  1.5051
21251SOL     OW65474   2.049   2.833   8.283  0.0849 -0.3042  0.2241
21251SOL    HW165475   1.997   2.857   8.206  0.4441  0.6135  0.2472
21251SOL    HW265476   2.137   2.863   8.262  0.4618 -1.2203  0.4722
21252SOL     OW65477   4.594   4.512   8.422  0.2457 -0.1638 -0.0229
21252SOL    HW165478   4.626   4.568   8.493 -0.2492  0.1696 -0.0623
21252SOL    HW265479   4.552   4.572   8.361  2.0257 -0.2254 -1.3981
21253SOL     OW65480   0.685   5.958   0.783  0.0686 -0.1420 -0.2998
21253SOL    HW165481   0.698   6.015   0.708  1.3078  0.9048  0.6602
21253SOL    HW265482   0.671   6.018   0.857  2.8514 -0.9504  1.0145
21254SOL     OW65483   8.369   9.164   8.346  0.2651  0.4569  0.4295
21254SOL    HW165484   8.412   9.081   8.367  0.5889  0.6461  0.5366
21254SOL    HW265485   8.402   9.225   8.413  1.7702  1.2239 -0.9280
21255SOL     OW65486   5.589   3.004   8.312 -0.3011 -0.1088  0.6719
21255SOL    HW165487   5.545   3.085   8.287 -0.3545 -0.2254  0.3802
21255SOL    HW265488   5.671   3.032   8.351  0.6886  0.0470 -1.3930
21256SOL     OW65489   2.209   1.036   2.727  0.0536  0.2944 -0.3622
21256SOL    HW165490   2.222   1.093   2.803  0.2052  0.3473 -0.4258
21256SOL    HW265491   2.158   1.088   2.666 -1.5676 -0.3496  0.3884
21257SOL     OW65492   6.492   1.980   9.167 -0.2954  0.4937  0.1417
21257SOL    HW165493   6.555   1.954   9.234  0.5157 -0.4904 -0.9432
21257SOL    HW265494   6.439   2.047   9.208  2.1409  2.1584  0.7857
21258SOL     OW65495   2.474   3.171   7.457 -0.6172  0.2511  0.0379
21258SOL    HW165496   2.454   3.248   7.510  3.0374  1.8948 -0.6680
21258SOL    HW265497   2.531   3.118   7.513 -1.8026 -1.2013 -0.0788
21259SOL     OW65498   5.218   2.362   3.916 -0.0745  0.3429  0.0356
21259SOL    HW165499   5.294   2.328   3.868  1.5078  2.1162  1.1550
21259SOL    HW265500   5.194   2.442   3.869 -1.3192 -0.2232 -0.3279
21260SOL     OW65501   0.788   7.953   8.744 -0.0224  0.1602 -0.0409
21260SOL    HW165502   0.864   7.916   8.699 -0.6332 -0.9941 -0.1479
21260SOL    HW265503   0.726   7.975   8.674 -0.1754  0.2102  0.1094
21261SOL     OW65504   5.062   1.011   0.412 -0.4245  0.3386  0.3697
21261SOL    HW165505   5.102   0.937   0.366  1.4040  1.2656  0.4048
21261SOL    HW265506   5.070   1.084   0.351  0.0020  1.0585  1.2724
21262SOL     OW65507   3.837   3.505   4.035 -0.2419  0.4375 -0.3772
21262SOL    HW165508   3.858   3.596   4.016  0.8688  0.2592 -0.0670
21262SOL    HW265509   3.743   3.505   4.053  0.2363  2.1423  2.9117
21263SOL     OW65510   6.274   6.835   2.795  0.3649  0.3614 -0.1108
21263SOL    HW165511   6.220   6.761   2.822  0.2973  0.5005  0.1442
21263SOL    HW265512   6.330   6.800   2.725 -1.1558  0.6273 -1.5174
21264SOL     OW65513   0.405   1.772   4.371  0.1101 -0.4336  0.4750
21264SOL    HW165514   0.418   1.860   4.408  0.5304 -0.5125  0.5204
21264SOL    HW265515   0.405   1.714   4.446  0.0148 -0.4905  0.4302
21265SOL     OW65516   0.962   7.464   1.045  0.0603  0.0739 -0.2143
21265SOL    HW165517   0.992   7.519   0.973 -0.4783  1.6144  0.7008
21265SOL    HW265518   0.872   7.442   1.021 -0.0218  0.3401 -0.1509
21266SOL     OW65519   8.477   7.715   6.480  0.0133  0.6446  0.0643
21266SOL    HW165520   8.525   7.678   6.554  1.8550 -0.3990 -1.5403
21266SOL    HW265521   8.409   7.651   6.461 -0.9064  1.2352  1.1962
21267SOL     OW65522   8.230   9.050   6.949  0.2967  0.3713  0.0745
21267SOL    HW165523   8.142   9.018   6.931 -0.3391  1.2718  1.4029
21267SOL    HW265524   8.256   9.005   7.030  2.0850 -1.7532 -1.5737
21268SOL     OW65525   1.380   9.702   4.098 -0.4690 -0.1586  0.4528
21268SOL    HW165526   1.325   9.687   4.174 -0.8880  0.8824  0.3767
21268SOL    HW265527   1.445   9.631   4.100 -1.3232 -0.9429  0.9795
21269SOL     OW65528   1.130   2.604   8.264 -0.1370  0.0634 -0.9362
21269SOL    HW165529   1.171   2.676   8.217  0.4816  0.4002  0.0803
21269SOL    HW265530   1.180   2.596   8.345 -0.6998 -0.9853 -0.6629
21270SOL     OW65531   5.091   6.205   0.808  0.8238  0.1864  0.2973
21270SOL    HW165532   5.126   6.289   0.840  1.1003 -0.3000  1.3313
21270SOL    HW265533   5.062   6.223   0.719 -0.5631  1.8077  1.0174
21271SOL     OW65534   8.791   7.039   7.060 -0.2040  0.5915 -0.2368
21271SOL    HW165535   8.768   7.018   6.969  1.9440  0.0533 -0.7099
21271SOL    HW265536   8.734   6.984   7.113 -1.6572  1.0784 -1.2116
21272SOL     OW65537   4.877   5.480   6.204  0.2974  0.1026 -0.1054
21272SOL    HW165538   4.892   5.411   6.269  0.4156 -1.1276 -1.3987
21272SOL    HW265539   4.823   5.439   6.138 -2.8744  2.3315  0.8623
21273SOL     OW65540   1.982   9.595   3.411 -0.0891 -0.6151 -0.5691
21273SOL    HW165541   2.032   9.606   3.331 -1.7320  1.8883 -1.3817
21273SOL    HW265542   2.045   9.610   3.482  1.0075 -1.0635 -1.4291
21274SOL     OW65543   1.824   4.990   8.020  0.2572  0.1983 -0.2029
21274SOL    HW165544   1.878   5.064   8.049 -0.4383  0.8740 -0.5961
21274SOL    HW265545   1.739   5.005   8.062  0.0430 -0.2638 -0.4685
21275SOL     OW65546   6.059   2.978   8.331 -0.2230  0.4148  0.1897
21275SOL    HW165547   5.982   2.980   8.388  0.8685 -2.7579  2.0732
21275SOL    HW265548   6.027   2.947   8.247 -1.1784  0.4408  0.5410
21276SOL     OW65549   5.679   5.417   9.691  0.3572  0.3752  0.1456
21276SOL    HW165550   5.602   5.465   9.723 -1.2388 -1.9996  0.0953
21276SOL    HW265551   5.676   5.429   9.596  0.5305  0.9720  0.2135
21277SOL     OW65552   3.733   5.071   3.253 -0.2477 -0.1600 -0.0852
21277SOL    HW165553   3.797   5.098   3.318  1.1877  2.6523 -2.4349
21277SOL    HW265554   3.759   4.982   3.228  0.9589 -0.1427  1.0372
21278SOL     OW65555   1.489   9.542   8.056 -0.0379 -0.3394  0.2019
21278SOL    HW165556   1.427   9.557   7.985  0.7632 -2.2686 -1.0150
21278SOL    HW265557   1.534   9.626   8.068 -0.2964  0.0746 -1.4928
21279SOL     OW65558   6.459   0.992   4.536 -0.0980  0.1242 -0.2414
21279SOL    HW165559   6.460   0.959   4.446  1.4368 -1.1693  0.1885
21279SOL    HW265560   6.534   0.948   4.578 -0.4081  1.1646  1.4966
21280SOL     OW65561   5.021   1.442   0.104  0.5426  0.3347 -0.0853
21280SOL    HW165562   5.069   1.524   0.105  0.6621  0.2704 -0.6216
21280SOL    HW265563   4.946   1.458   0.048 -0.0962  0.4463  0.7733
21281SOL     OW65564   6.806   0.202   1.840 -0.5775  0.2484  0.6589
21281SOL    HW165565   6.842   0.161   1.919 -0.7875 -0.6258  0.3099
21281SOL    HW265566   6.712   0.188   1.848 -0.5957  0.1408  0.2428
21282SOL     OW65567   7.895   9.604   5.087 -0.0991  0.1643  0.3431
21282SOL    HW165568   7.842   9.661   5.141 -1.4155 -0.5919 -0.0943
21282SOL    HW265569   7.971   9.584   5.140  0.1453  1.8891  0.6948
21283SOL     OW65570   9.200   3.921   4.686 -0.2232  0.4317 -0.6757
21283SOL    HW165571   9.265   3.875   4.740  1.1424  0.6448 -2.0640
21283SOL    HW265572   9.178   3.858   4.617  1.6444  1.7473 -2.5845
21284SOL     OW65573   5.533   4.281   8.741  0.2869  0.1089 -0.1840
21284SOL    HW165574   5.582   4.206   8.775 -1.8867 -1.0442  0.5451
21284SOL    HW265575   5.569   4.356   8.788  1.4685 -0.6610  0.1941
21285SOL     OW65576   1.764   2.401   8.244  0.1043  0.2586  0.5320
21285SOL    HW165577   1.763   2.347   8.323  2.0959 -0.7990 -0.1155
21285SOL    HW265578   1.835   2.464   8.258  2.1208 -1.4452 -1.2787
21286SOL     OW65579   5.013   7.838   6.604 -0.3062 -0.1693 -0.3262
21286SOL    HW165580   5.071   7.846   6.529  1.2406  1.4262  0.9376
21286SOL    HW265581   4.980   7.927   6.618 -2.9448 -0.9725 -0.8457
21287SOL     OW65582   4.216   7.416   5.660 -0.1984 -0.0338 -0.1170
21287SOL    HW165583   4.260   7.481   5.605  0.8832 -2.0008 -1.7296
21287SOL    HW265584   4.288   7.375   5.709 -0.7732 -0.4984  0.3463
21288SOL     OW65585   6.236   1.584   8.311 -0.9172  0.6842  0.3612
21288SOL    HW165586   6.169   1.627   8.257 -0.4320 -1.7070 -2.4260
21288SOL    HW265587   6.288   1.534   8.248  2.5481  1.1546  2.5960
21289SOL     OW65588   9.106   0.589   9.183  0.3073  0.3184  0.0587
21289SOL    HW165589   9.192   0.548   9.178  0.1957 -0.0113  0.7443
21289SOL    HW265590   9.121   0.681   9.161  1.1289  0.6453  1.8679
21290SOL     OW65591   8.384   4.578   1.106  0.3960  0.1173  0.4802
21290SOL    HW165592   8.344   4.545   1.187  0.6473  0.5323  0.7796
21290SOL    HW265593   8.478   4.569   1.120  0.4443  0.3062  0.2838
21291SOL     OW65594   2.540   2.110   0.963 -0.6611 -0.1370 -0.0222
21291SOL    HW165595   2.511   2.040   1.022 -0.0337  0.6087  1.2080
21291SOL    HW265596   2.459   2.156   0.939 -1.1087 -1.3747 -1.0210
21292SOL     OW65597   3.856   0.938   3.335  0.1446  0.1045 -0.2077
21292SOL    HW165598   3.917   0.939   3.409 -0.7338 -1.2388  0.5715
21292SOL    HW265599   3.786   0.998   3.360  0.6902  0.9880 -0.7337
21293SOL     OW65600   2.640   2.925   6.863 -0.0222 -0.8109  0.6235
21293SOL    HW165601   2.576   2.945   6.932  0.1562 -1.3858  0.9577
21293SOL    HW265602   2.608   2.974   6.787  0.2422  0.5193  1.3298
21294SOL     OW65603   8.259   3.855   6.085 -0.5733 -0.1066 -0.5463
21294SOL    HW165604   8.179   3.887   6.126 -0.9289 -0.8813 -0.6314
21294SOL    HW265605   8.305   3.935   6.058 -0.0492  0.4767  1.8216
21295SOL     OW65606   6.718   6.493   5.877  0.5661 -0.0936 -0.4687
21295SOL    HW165607   6.771   6.452   5.946  1.0179  0.6640 -0.3484
21295SOL    HW265608   6.639   6.523   5.922  0.9537  0.5893 -0.2156
21296SOL     OW65609   7.012   1.176   1.610 -0.7751 -0.2421 -0.1132
21296SOL    HW165610   7.098   1.205   1.641  0.0877 -1.7420 -0.9933
21296SOL    HW265611   6.996   1.229   1.531 -1.1869  0.7913  0.6315
21297SOL     OW65612   9.394   8.057   8.246  0.3090  0.0458 -0.1284
21297SOL    HW165613   9.320   8.093   8.198  1.1932  0.2742 -1.3827
21297SOL    HW265614   9.374   7.964   8.255 -0.5780  0.2815  0.4344
21298SOL     OW65615   2.223   8.647   2.867 -0.4494 -0.0530  0.0893
21298SOL    HW165616   2.164   8.572   2.856 -1.4078  0.3552  2.0781
21298SOL    HW265617   2.303   8.609   2.902  0.4452 -0.5721 -2.3470
21299SOL     OW65618   9.215   6.288   4.689 -0.3535  0.1633 -0.7925
21299SOL    HW165619   9.287   6.270   4.749 -0.1598 -1.3926 -1.4550
21299SOL    HW265620   9.153   6.339   4.740 -0.3754 -1.4414  0.8580
21300SOL     OW65621   4.237   2.040   2.845 -0.0505  0.4972 -0.1836
21300SOL    HW165622   4.151   2.074   2.819  0.4509  0.2065 -2.4248
21300SOL    HW265623   4.259   2.089   2.924 -1.4576  1.8960 -0.5957
21301SOL     OW65624   9.647   2.999   2.657 -0.2489  0.4375  0.4983
21301SOL    HW165625   9.716   2.958   2.710  1.4553  1.0272 -1.1498
21301SOL    HW265626   9.661   2.965   2.569 -1.7739  0.9766  0.0288
21302SOL     OW65627   0.717   2.344   6.507 -0.6124 -0.0737 -0.0862
21302SOL    HW165628   0.762   2.324   6.425 -1.3724  0.4731 -0.6453
21302SOL    HW265629   0.785   2.335   6.574  0.5352  1.3943 -0.9780
21303SOL     OW65630   0.038   6.729   1.215  0.0559  0.0568 -0.1602
21303SOL    HW165631  -0.004   6.705   1.133 -0.6145  1.4011 -0.2453
21303SOL    HW265632  -0.014   6.685   1.283  0.6985 -1.1703 -0.4393
21304SOL     OW65633   1.684   8.446   9.330 -0.1173  0.0412  0.2212
21304SOL    HW165634   1.752   8.399   9.281 -0.2106  1.0886 -0.9814
21304SOL    HW265635   1.725   8.529   9.354 -1.0580  0.8362 -0.8339
21305SOL     OW65636   5.189   3.267   0.523  0.2346 -0.2232 -0.0652
21305SOL    HW165637   5.284   3.251   0.517  0.0730 -0.6570 -2.2084
21305SOL    HW265638   5.170   3.259   0.616  2.5393  1.2582  0.6245
21306SOL     OW65639   3.075   1.154   6.324  0.1809 -0.4595 -0.2171
21306SOL    HW165640   3.163   1.118   6.336 -0.3388 -2.0001 -0.6638
21306SOL    HW265641   3.067   1.224   6.388  2.1365  0.4873 -0.9547
21307SOL     OW65642   1.130   0.182   6.962  0.4889  0.0977  0.1054
21307SOL    HW165643   1.199   0.249   6.954  0.1700  0.5443  0.9121
21307SOL    HW265644   1.072   0.217   7.030 -0.6969 -0.1303 -0.7652
21308SOL     OW65645   1.231   7.258   4.015 -0.1224 -0.0659 -0.1194
21308SOL    HW165646   1.168   7.223   4.078  0.2517 -3.0285 -1.2122
21308SOL    HW265647   1.316   7.243   4.056 -0.0003  1.1047  0.0704
21309SOL     OW65648   5.350   2.942   2.737  0.3318 -0.7201 -0.6425
21309SOL    HW165649   5.292   3.017   2.752 -0.6316 -1.5268 -0.2338
21309SOL    HW265650   5.399   2.934   2.819 -0.3829 -1.2147 -0.2455
21310SOL     OW65651   5.807   8.444   6.751  0.4546  0.0006  0.0771
21310SOL    HW165652   5.870   8.516   6.749 -1.5118  1.8450 -1.4819
21310SOL    HW265653   5.732   8.477   6.702 -1.2277 -2.5440  0.7219
21311SOL     OW65654   4.923   6.259   1.179  0.2659 -0.0153  0.2252
21311SOL    HW165655   4.962   6.291   1.260 -1.8123  0.7276  1.0005
21311SOL    HW265656   4.852   6.201   1.207  0.1387 -0.5458 -1.0959
21312SOL     OW65657   9.519   0.189   6.965  0.0184  0.1141 -0.2347
21312SOL    HW165658   9.472   0.233   6.894 -0.0738  1.2018  0.4756
21312SOL    HW265659   9.466   0.111   6.983 -0.3266  0.1841 -0.9025
21313SOL     OW65660   1.043   5.100   8.819 -0.0997  0.2060 -0.0620
21313SOL    HW165661   1.087   5.110   8.903 -0.0590  0.0133 -0.0599
21313SOL    HW265662   1.052   5.186   8.777 -3.3622  1.5798  1.6680
21314SOL     OW65663   6.646   5.701   2.462  0.2251  0.1851 -0.0909
21314SOL    HW165664   6.683   5.621   2.500 -0.9210 -0.9142 -1.2135
21314SOL    HW265665   6.722   5.757   2.445  1.4393 -1.9215 -2.1603
21315SOL     OW65666   2.538   4.870   2.352  0.2796 -0.2733  0.2514
21315SOL    HW165667   2.475   4.802   2.330 -0.1820  0.9133 -2.4897
21315SOL    HW265668   2.617   4.822   2.378 -0.6165 -1.8057  0.2769
21316SOL     OW65669   3.736   3.788   1.756  0.2616 -0.0418 -0.0470
21316SOL    HW165670   3.762   3.707   1.801 -0.5491 -0.3614 -0.1499
21316SOL    HW265671   3.642   3.780   1.743  0.2902  0.5945 -0.7285
21317SOL     OW65672   1.185   1.322   2.157 -0.4781 -0.5288  0.3331
21317SOL    HW165673   1.190   1.266   2.080  1.8703 -1.9166  1.3877
21317SOL    HW265674   1.176   1.411   2.122 -0.2128 -1.1900 -1.4931
21318SOL     OW65675   5.920   0.900   0.062  0.2342  0.4651  0.6975
21318SOL    HW165676   5.876   0.839   0.003  2.6369 -1.0619  0.3418
21318SOL    HW265677   5.886   0.877   0.149 -0.2361 -0.1423  0.3669
21319SOL     OW65678   7.951   0.054   2.120  0.2915 -0.3173 -0.0896
21319SOL    HW165679   8.001   0.014   2.192  0.6298  0.8554  0.3381
21319SOL    HW265680   7.880   0.100   2.164 -2.3751 -3.4387 -0.7550
21320SOL     OW65681   8.270   7.529   7.736  0.0232 -0.1436  0.0434
21320SOL    HW165682   8.305   7.616   7.717  0.0145 -0.0591  0.4037
21320SOL    HW265683   8.346   7.471   7.731  0.4163  0.1668  1.6986
21321SOL     OW65684   1.574   1.213   4.683 -0.4300  0.1275  0.5013
21321SOL    HW165685   1.603   1.304   4.687 -1.1667  0.5205 -1.8337
21321SOL    HW265686   1.481   1.218   4.665 -0.5769 -1.1036  0.8351
21322SOL     OW65687   2.286   2.016   1.413  0.8654 -0.1337 -0.2444
21322SOL    HW165688   2.202   2.057   1.390  1.0184  0.3180 -0.0078
21322SOL    HW265689   2.343   2.089   1.434  1.4091 -0.4258 -0.6879
21323SOL     OW65690   3.526   3.288   1.011 -0.6588  0.5320 -0.4787
21323SOL    HW165691   3.585   3.331   1.072  0.7677 -1.2811 -0.5177
21323SOL    HW265692   3.469   3.235   1.066 -0.8189  0.5828 -0.5939
21324SOL     OW65693   3.282   1.001   4.919 -0.4527  0.2143  0.3190
21324SOL    HW165694   3.213   0.935   4.906 -0.8515  1.0899 -2.7175
21324SOL    HW265695   3.235   1.079   4.947 -0.2961  0.0320  1.1339
21325SOL     OW65696   9.253   3.814   5.176  0.0666 -0.5856 -0.2703
21325SOL    HW165697   9.303   3.759   5.236  1.0722  1.8912  1.3194
21325SOL    HW265698   9.288   3.794   5.089  1.7936 -0.9742  0.4871
21326SOL     OW65699   2.787   1.346   4.127  0.2038 -0.4947 -0.7486
21326SOL    HW165700   2.879   1.364   4.144 -0.4258  2.7653 -0.1676
21326SOL    HW265701   2.767   1.398   4.049 -1.1347 -1.2172 -0.9142
21327SOL     OW65702   5.878   7.979   1.318 -0.0569 -0.8958  0.1229
21327SOL    HW165703   5.968   7.974   1.350 -0.9111 -2.4741  2.6074
21327SOL    HW265704   5.885   7.966   1.224  2.3445 -0.3643  0.1658
21328SOL     OW65705   4.546   3.177   1.569 -0.0720 -0.1848  0.7701
21328SOL    HW165706   4.551   3.082   1.562  1.0009 -0.2511  2.0356
21328SOL    HW265707   4.477   3.192   1.634  0.8968 -0.1880  1.8326
21329SOL     OW65708   1.208   5.208   3.541 -0.7896  0.1230 -0.3866
21329SOL    HW165709   1.289   5.212   3.489 -0.4428 -0.9768  0.0423
21329SOL    HW265710   1.152   5.148   3.492 -0.7954 -0.2301  0.0512
21330SOL     OW65711   6.450   1.778   8.277 -0.5986  0.6665 -0.3205
21330SOL    HW165712   6.495   1.863   8.279  1.7567 -0.3439 -2.8030
21330SOL    HW265713   6.439   1.760   8.184 -0.4778 -1.9966  0.1130
21331SOL     OW65714   6.986   6.364   1.499  0.4276  0.5759 -0.3835
21331SOL    HW165715   6.947   6.418   1.431  2.8670  2.3434 -0.5181
21331SOL    HW265716   7.078   6.358   1.475  0.8868 -0.8271  1.4920
21332SOL     OW65717   0.946   4.252   0.841  0.1647 -0.2773  0.6383
21332SOL    HW165718   0.957   4.216   0.753 -2.2061 -0.2993  0.3004
21332SOL    HW265719   1.021   4.311   0.852  0.5830 -0.3736 -1.3318
21333SOL     OW65720   4.873   4.762   0.446  0.1155  0.1699 -0.0797
21333SOL    HW165721   4.825   4.829   0.494  1.5065  2.0343 -1.1320
21333SOL    HW265722   4.964   4.773   0.473  0.7100  0.3016 -1.9865
21334SOL     OW65723   8.706   4.505   7.832  1.1543  0.0895  0.5764
21334SOL    HW165724   8.715   4.578   7.770  2.4642  0.2990  0.9687
21334SOL    HW265725   8.717   4.427   7.778 -1.1790  0.0894 -0.0075
21335SOL     OW65726   4.841   8.463   5.800  0.2932 -0.5237 -0.2183
21335SOL    HW165727   4.883   8.522   5.738 -1.9201  0.3576 -0.9625
21335SOL    HW265728   4.840   8.378   5.756  0.6798 -0.4113 -0.4537
21336SOL     OW65729   2.885   6.319   4.829 -0.2495  0.2633 -0.0201
21336SOL    HW165730   2.819   6.328   4.898 -0.9472  0.9302 -0.7491
21336SOL    HW265731   2.966   6.348   4.870 -0.5043 -0.0833  0.7413
21337SOL     OW65732   2.376   9.557   1.214  0.5767 -0.1144 -0.3965
21337SOL    HW165733   2.336   9.494   1.275 -1.1887  0.3825 -0.9699
21337SOL    HW265734   2.363   9.642   1.256 -0.1621  0.1774 -1.1913
21338SOL     OW65735   4.806   9.643   9.244 -0.1066 -0.1315  0.1635
21338SOL    HW165736   4.737   9.616   9.182  0.2345 -0.4947 -0.0637
21338SOL    HW265737   4.824   9.734   9.221 -0.0542 -0.2342 -0.2078
21339SOL     OW65738   1.086   1.022   4.107  0.3096  0.4094  0.3575
21339SOL    HW165739   1.130   1.056   4.029 -0.7987 -1.0963 -0.9971
21339SOL    HW265740   1.157   0.988   4.162  0.9910 -1.4020 -1.4860
21340SOL     OW65741   4.570   1.382   6.372 -0.1528 -0.4153  0.3185
21340SOL    HW165742   4.495   1.437   6.396  1.0693  0.3547  2.7432
21340SOL    HW265743   4.556   1.301   6.422  0.0610 -0.7418 -0.1425
21341SOL     OW65744   1.022   3.779   6.337  0.3217 -0.0506 -0.0563
21341SOL    HW165745   1.061   3.770   6.424  1.9899 -1.5596 -0.8906
21341SOL    HW265746   1.084   3.833   6.288  0.0599 -0.3063 -0.6869
21342SOL     OW65747   1.974   1.015   3.656 -0.0170  0.6482 -0.7230
21342SOL    HW165748   2.051   1.022   3.600 -0.1063  4.0665 -0.6366
21342SOL    HW265749   1.905   1.059   3.606 -1.5551 -1.0718 -0.1878
21343SOL     OW65750   8.572   7.357   8.052 -0.1075 -0.1996 -0.2257
21343SOL    HW165751   8.599   7.410   7.977 -0.1446 -0.8248 -0.6908
21343SOL    HW265752   8.588   7.413   8.128  3.5765 -0.9043 -0.3225
21344SOL     OW65753   5.340   6.702   9.551  0.2032 -0.1919 -0.6315
21344SOL    HW165754   5.270   6.735   9.608  0.1024  0.2212 -0.9869
21344SOL    HW265755   5.380   6.631   9.601  1.1144  1.1204  0.6076
21345SOL     OW65756   6.827   7.365   7.792  0.1440 -0.0430  0.1087
21345SOL    HW165757   6.740   7.327   7.809 -0.2419  0.9732  0.4853
21345SOL    HW265758   6.812   7.459   7.794  1.4416  0.1674  1.2014
21346SOL     OW65759   3.515   7.579   1.196 -0.0758  0.1012 -0.3061
21346SOL    HW165760   3.582   7.554   1.259  0.3996  1.6165 -0.1738
21346SOL    HW265761   3.444   7.615   1.249 -0.5581 -0.5041 -0.5205
21347SOL     OW65762   0.293   9.279   7.902 -0.0793 -0.0147 -0.3090
21347SOL    HW165763   0.200   9.260   7.888 -0.6258  1.2235  1.3528
21347SOL    HW265764   0.326   9.305   7.816 -0.8813 -1.8428 -1.2339
21348SOL     OW65765   9.480   1.446   8.343 -0.2681 -0.0726  0.4632
21348SOL    HW165766   9.411   1.498   8.300  0.6156  0.3299 -0.5136
21348SOL    HW265767   9.454   1.355   8.328  0.2947  0.0468 -1.4417
21349SOL     OW65768   8.639   2.071   5.878 -0.1212 -0.2623 -0.2882
21349SOL    HW165769   8.729   2.046   5.898 -0.4169 -0.1106  1.4130
21349SOL    HW265770   8.601   1.993   5.837  0.1100 -1.2289  1.2504
21350SOL     OW65771   6.311   1.074   1.968  0.4939 -0.2923 -0.2871
21350SOL    HW165772   6.375   1.065   2.038  1.3531 -0.2342 -1.0491
21350SOL    HW265773   6.355   1.040   1.890 -1.0199 -1.8883 -0.5094
21351SOL     OW65774   5.392   6.103   8.379  0.3096 -0.2243 -0.3555
21351SOL    HW165775   5.455   6.116   8.308  0.8165  0.8565  0.2722
21351SOL    HW265776   5.401   6.181   8.434  0.0881 -1.1261  1.0139
21352SOL     OW65777   7.869   1.994   0.878  0.2479  0.4908  0.6387
21352SOL    HW165778   7.817   2.061   0.922 -0.3269 -0.9581  2.2637
21352SOL    HW265779   7.806   1.944   0.826  0.4858  0.5126  0.3244
21353SOL     OW65780   7.781   7.116   0.429 -0.1212  0.0470 -0.4197
21353SOL    HW165781   7.757   7.164   0.350 -1.6338 -1.3085 -0.8366
21353SOL    HW265782   7.778   7.181   0.499 -2.6792  0.5416 -0.8766
21354SOL     OW65783   6.859   6.772   1.938 -0.2747  0.1836 -0.0896
21354SOL    HW165784   6.928   6.707   1.952  0.9050  1.1820 -1.0564
21354SOL    HW265785   6.777   6.723   1.948  0.5809 -1.5734 -1.3098
21355SOL     OW65786   8.155   4.982   3.594  0.5551  0.1507 -0.6511
21355SOL    HW165787   8.173   5.020   3.680  1.0622  0.2256 -0.7837
21355SOL    HW265788   8.241   4.953   3.563  0.2956 -0.3559 -0.9057
21356SOL     OW65789   4.459   8.116   0.157 -0.5586  0.2922  0.5935
21356SOL    HW165790   4.459   8.124   0.253 -0.0463  0.0299  0.6152
21356SOL    HW265791   4.510   8.037   0.139 -2.2857 -0.7723  0.1801
21357SOL     OW65792   3.829   1.408   4.233  0.1543 -0.3025  0.0023
21357SOL    HW165793   3.847   1.491   4.278  2.1635 -0.6517 -0.0707
21357SOL    HW265794   3.822   1.344   4.304 -1.1799 -0.1387  0.0445
21358SOL     OW65795   9.541   2.270   8.402  0.1608  0.1315  0.1454
21358SOL    HW165796   9.503   2.237   8.320 -0.2496 -0.2402  0.4770
21358SOL    HW265797   9.592   2.196   8.436  1.5039  0.7505 -0.4818
21359SOL     OW65798   8.664   4.390   4.033 -0.4628  0.1133  0.1254
21359SOL    HW165799   8.618   4.372   3.951  0.7205 -0.2888 -0.4835
21359SOL    HW265800   8.668   4.306   4.077  1.4599 -0.3477 -0.8047
21360SOL     OW65801   3.897   2.433   2.595  0.2873  0.1456  0.1410
21360SOL    HW165802   3.901   2.338   2.607 -1.1887 -0.0652 -0.7365
21360SOL    HW265803   3.941   2.448   2.512 -0.7242  0.0217 -0.4423
21361SOL     OW65804   4.182   3.579   3.631 -0.5390  0.2016 -0.7191
21361SOL    HW165805   4.185   3.611   3.721 -0.4147 -0.3771 -0.5135
21361SOL    HW265806   4.094   3.541   3.623 -0.5242  0.1895 -0.8200
21362SOL     OW65807   5.879   7.747   9.521 -0.0780  0.7649  0.1117
21362SOL    HW165808   5.808   7.705   9.569 -0.4421  0.6447 -0.5096
21362SOL    HW265809   5.899   7.827   9.571 -1.2000  1.2166 -0.1296
21363SOL     OW65810   4.966   4.393   9.271 -0.2044 -0.2219  0.0721
21363SOL    HW165811   4.938   4.436   9.190 -0.2545 -0.0501  0.1783
21363SOL    HW265812   5.057   4.420   9.283 -0.4956  0.5720  0.5957
21364SOL     OW65813   3.615   0.021   3.820 -0.4048  0.1118 -0.5437
21364SOL    HW165814   3.685   0.048   3.762  0.9567 -0.1394  0.9176
21364SOL    HW265815   3.540   0.076   3.795  1.5395  3.6239  0.6971
21365SOL     OW65816   4.761   2.300   0.863 -0.1851 -0.8720 -0.5862
21365SOL    HW165817   4.788   2.231   0.803 -0.9687 -0.0878 -1.9107
21365SOL    HW265818   4.668   2.314   0.843  0.1473  1.1101 -0.9551
21366SOL     OW65819   2.191   4.551   8.542 -0.6390  0.5515 -0.1529
21366SOL    HW165820   2.186   4.636   8.585  1.4642  0.2237  0.8657
21366SOL    HW265821   2.222   4.491   8.611  0.3017 -0.5275 -1.4688
21367SOL     OW65822   4.622   8.622   7.549  0.4259 -0.0794  0.2952
21367SOL    HW165823   4.570   8.700   7.568 -0.0522 -0.4613  0.5908
21367SOL    HW265824   4.557   8.552   7.542  0.9048 -0.5698  0.6958
21368SOL     OW65825   6.088   6.197   0.598  0.3216 -0.2403 -0.0389
21368SOL    HW165826   6.077   6.121   0.655 -1.0211  1.5949  2.3650
21368SOL    HW265827   6.181   6.198   0.576  0.4156 -2.3915  0.0564
21369SOL     OW65828   9.573   4.135   4.430  0.0303  0.0849 -0.1584
21369SOL    HW165829   9.482   4.132   4.403  0.2786  0.5018 -1.0730
21369SOL    HW265830   9.614   4.060   4.386  0.4102  0.6995 -0.8822
21370SOL     OW65831   6.290   1.424   0.738  0.2864 -0.0539 -0.1439
21370SOL    HW165832   6.206   1.419   0.694  1.0508  1.1215 -1.8146
21370SOL    HW265833   6.301   1.517   0.760  0.1958 -0.4968  2.0856
21371SOL     OW65834   8.352   9.211   0.766  0.7359 -0.4488 -0.2904
21371SOL    HW165835   8.262   9.242   0.776  0.1784 -2.0144 -0.1725
21371SOL    HW265836   8.379   9.185   0.855  1.5504  0.5678 -0.2099
21372SOL     OW65837   4.452   5.904   8.064 -0.1129  0.5825 -0.4256
21372SOL    HW165838   4.498   5.820   8.061  0.0008  0.6017  0.6098
21372SOL    HW265839   4.438   5.926   7.972  0.6035 -0.1571 -0.7287
21373SOL     OW65840   0.337   4.072   2.158  0.1597 -0.1397 -0.0927
21373SOL    HW165841   0.308   4.070   2.250 -0.7587 -0.0378 -0.3744
21373SOL    HW265842   0.410   4.134   2.158 -0.1353  0.2245  0.4942
21374SOL     OW65843   4.448   0.905   2.192 -0.2094  0.1473 -0.2388
21374SOL    HW165844   4.377   0.965   2.217 -0.5515 -0.4753  0.3287
21374SOL    HW265845   4.469   0.858   2.273 -1.5704 -2.1634 -1.1215
21375SOL     OW65846   1.707   1.503   6.517  0.1941 -0.1198  0.1728
21375SOL    HW165847   1.655   1.494   6.437  0.6785 -0.0275 -0.1563
21375SOL    HW265848   1.644   1.494   6.588 -0.2166 -0.3650 -0.2197
21376SOL     OW65849   5.687   1.878   4.576  0.6898  0.0897  0.4523
21376SOL    HW165850   5.634   1.800   4.593 -1.5686  1.7428  1.6002
21376SOL    HW265851   5.641   1.923   4.506  2.0286  0.3921 -0.2671
21377SOL     OW65852   2.047   6.349   5.140  0.3647  0.3003  0.3719
21377SOL    HW165853   2.041   6.312   5.052  1.4124  1.2482 -0.1098
21377SOL    HW265854   2.125   6.403   5.139 -0.4653  1.5953  1.4083
21378SOL     OW65855   1.167   5.520   8.905 -0.0665  0.1682 -0.2409
21378SOL    HW165856   1.151   5.613   8.926  0.9666  0.5234 -0.9654
21378SOL    HW265857   1.093   5.474   8.945  0.0362  1.1703  1.1909
21379SOL     OW65858   2.988   3.960   8.434 -0.5298  0.5573 -0.0820
21379SOL    HW165859   3.009   3.964   8.527  0.9763  1.6103 -0.4183
21379SOL    HW265860   3.065   3.919   8.394 -1.4391 -0.4914 -0.8005
21380SOL     OW65861   7.361   7.258   5.947 -1.0694  0.4895  0.3978
21380SOL    HW165862   7.295   7.219   5.890  0.5960  0.0742 -1.3699
21380SOL    HW265863   7.312   7.293   6.021 -2.8324 -3.7775  1.5124
21381SOL     OW65864   1.375   1.637   3.578 -0.7177 -0.0601  0.0756
21381SOL    HW165865   1.425   1.712   3.547  1.2574 -1.1305  0.5274
21381SOL    HW265866   1.388   1.636   3.673  0.3950 -1.6913 -0.0519
21382SOL     OW65867   7.512   2.646   5.588  0.1167 -0.0441 -0.4587
21382SOL    HW165868   7.578   2.709   5.618 -0.0142  0.3071 -0.8913
21382SOL    HW265869   7.431   2.674   5.632  0.6918 -1.8868  1.9605
21383SOL     OW65870   5.759   0.043   6.059 -0.2161  0.1217 -0.2563
21383SOL    HW165871   5.801  -0.034   6.098  2.0088  1.7018  0.6911
21383SOL    HW265872   5.720   0.011   5.978 -0.9401 -2.3363  0.9826
21384SOL     OW65873   5.605   9.266   4.363  0.4752  0.4939  0.5439
21384SOL    HW165874   5.599   9.355   4.397  0.2457  0.5574  0.3489
21384SOL    HW265875   5.616   9.278   4.268  3.1480  0.3787  0.7528
21385SOL     OW65876   0.738   3.049   1.354  0.9234  0.9937 -0.0272
21385SOL    HW165877   0.753   3.128   1.405  1.0065 -0.8247  3.0133
21385SOL    HW265878   0.817   2.996   1.367 -0.0021 -0.4879 -0.1429
21386SOL     OW65879   0.705   7.472   5.960 -0.2266 -0.0916 -0.4350
21386SOL    HW165880   0.681   7.561   5.936 -0.6479 -0.4731 -1.5377
21386SOL    HW265881   0.681   7.420   5.883  2.2544 -0.8133 -0.7917
21387SOL     OW65882   2.758   4.002   7.495 -0.2756 -0.3347 -0.0524
21387SOL    HW165883   2.757   4.086   7.540 -0.9540  0.2286 -1.0681
21387SOL    HW265884   2.670   3.993   7.458  0.1160 -0.9678 -0.8816
21388SOL     OW65885   1.420   8.160   2.539  0.1415 -0.9501  0.3765
21388SOL    HW165886   1.369   8.222   2.487 -0.2243 -2.1031 -0.6643
21388SOL    HW265887   1.432   8.204   2.623 -1.0502  0.0739  0.0370
21389SOL     OW65888   1.991   2.677   9.029 -0.0695 -0.0398 -0.3565
21389SOL    HW165889   1.990   2.679   9.124  0.5345 -4.1731 -0.0726
21389SOL    HW265890   1.910   2.721   9.002 -0.3221  1.0746  2.0129
21390SOL     OW65891   2.798   5.913   7.244  0.4293  0.2226 -0.5226
21390SOL    HW165892   2.829   5.871   7.324  0.3822 -0.7975 -1.0230
21390SOL    HW265893   2.864   5.978   7.223  1.1834 -0.4988 -0.4376
21391SOL     OW65894   7.105   9.249   0.956  0.1081 -0.2681 -0.4952
21391SOL    HW165895   7.118   9.262   1.050 -0.5320  2.3010 -0.6899
21391SOL    HW265896   7.031   9.189   0.951 -0.0259 -0.2284  0.6423
21392SOL     OW65897   8.463   4.790   6.448  0.0820 -0.2960 -0.3708
21392SOL    HW165898   8.387   4.767   6.503 -1.0814  0.9658 -1.3673
21392SOL    HW265899   8.516   4.711   6.447 -1.7871 -1.6359 -0.5287
21393SOL     OW65900   1.502   0.784   9.586  0.1936 -0.1350 -0.4018
21393SOL    HW165901   1.414   0.814   9.564  0.9074  1.9206 -0.6016
21393SOL    HW265902   1.516   0.708   9.530 -1.1504 -0.0276 -0.9268
21394SOL     OW65903   6.989   7.353   6.928 -0.1740  0.1254 -0.5185
21394SOL    HW165904   7.053   7.394   6.986 -1.7264  0.2140  1.2458
21394SOL    HW265905   6.980   7.413   6.855  1.5269  0.2382 -0.6668
21395SOL     OW65906   8.362   3.413   5.025  0.0005  0.1519  0.0567
21395SOL    HW165907   8.273   3.393   5.051 -1.0057  2.5841 -1.2554
21395SOL    HW265908   8.407   3.328   5.026 -2.5244 -1.2610 -0.0462
21396SOL     OW65909   2.245   2.345   2.486 -0.1046 -0.5157  0.4143
21396SOL    HW165910   2.313   2.411   2.469 -0.9848  0.1795 -0.4862
21396SOL    HW265911   2.166   2.396   2.504 -1.1668 -1.2824 -1.7457
21397SOL     OW65912   5.281   3.185   4.483  0.4427  0.3003 -0.4640
21397SOL    HW165913   5.352   3.220   4.537 -0.1297  0.5129  0.1695
21397SOL    HW265914   5.227   3.136   4.545 -0.2569  0.5888 -0.8388
21398SOL     OW65915   9.594   7.652   1.545  0.7454  0.1190  0.1254
21398SOL    HW165916   9.535   7.666   1.619  0.2923 -0.6473 -0.0753
21398SOL    HW265917   9.593   7.735   1.497 -0.2457  0.0988  0.0796
21399SOL     OW65918   6.222   2.144   1.752 -0.2210  0.4441  0.4740
21399SOL    HW165919   6.176   2.062   1.771  0.9743 -0.4847 -0.5332
21399SOL    HW265920   6.214   2.194   1.833  0.1925 -1.2209  1.5987
21400SOL     OW65921   6.005   7.818   4.481 -0.3276  0.3483 -0.3588
21400SOL    HW165922   6.093   7.840   4.451  0.3490  2.1806  2.6494
21400SOL    HW265923   5.950   7.829   4.402  1.8764  0.5714 -1.9589
21401SOL     OW65924   7.044   2.290   5.264  0.7439 -0.3301  0.3085
21401SOL    HW165925   7.014   2.275   5.174  1.0253 -1.1458  0.3499
21401SOL    HW265926   7.070   2.383   5.265  2.1646 -0.6774 -0.8741
21402SOL     OW65927   5.706   8.438   5.821 -0.6610 -0.0831  0.2170
21402SOL    HW165928   5.795   8.417   5.792 -1.4404 -1.3025 -1.3958
21402SOL    HW265929   5.686   8.521   5.778 -0.7577 -0.4502 -0.4579
21403SOL     OW65930   7.581   7.841   7.670  0.5574  0.0956 -0.3498
21403SOL    HW165931   7.513   7.908   7.661 -0.5608 -0.9193  0.2514
21403SOL    HW265932   7.663   7.889   7.657 -0.2517  1.3685 -1.0279
21404SOL     OW65933   5.902   9.131   5.890  0.1113  0.0288 -0.0200
21404SOL    HW165934   5.931   9.045   5.919  0.6864 -0.7570 -2.6416
21404SOL    HW265935   5.980   9.186   5.897  0.0863  0.0159  0.4140
21405SOL     OW65936   6.977   3.587   3.965 -0.0572  0.0143 -0.2163
21405SOL    HW165937   7.029   3.509   3.946  0.0417 -0.3215  1.3431
21405SOL    HW265938   7.027   3.635   4.030  0.5233  2.0942 -2.0483
21406SOL     OW65939   5.583   1.630   6.008  0.7666  0.1727  0.4661
21406SOL    HW165940   5.620   1.699   6.062 -0.7193  0.3924  1.2544
21406SOL    HW265941   5.518   1.674   5.953 -1.3839 -0.7513  2.1227
21407SOL     OW65942   0.069   0.810   8.993 -0.0903  0.4238 -0.6713
21407SOL    HW165943   0.087   0.717   9.006  0.4915  0.5108 -0.8217
21407SOL    HW265944   0.074   0.822   8.898 -0.5851  0.5260 -0.6847
21408SOL     OW65945   0.701   5.670   4.912 -0.1825 -0.2641  0.3257
21408SOL    HW165946   0.650   5.591   4.895  1.2385 -1.1799  0.1177
21408SOL    HW265947   0.721   5.705   4.826 -1.5900  0.8788  0.4332
21409SOL     OW65948   9.230   5.964   9.177 -0.3675 -0.2303  0.0292
21409SOL    HW165949   9.231   6.060   9.180 -1.5555 -0.2118  0.7999
21409SOL    HW265950   9.192   5.944   9.091  1.6025 -0.0726 -0.9284
21410SOL     OW65951   4.481   6.636   5.428  0.3208  0.4361  0.3071
21410SOL    HW165952   4.525   6.653   5.345  0.2711 -1.7772 -0.2384
21410SOL    HW265953   4.552   6.630   5.492  0.7537 -1.5940 -0.2969
21411SOL     OW65954   0.316   4.615   7.379  0.0277 -0.3849 -0.0149
21411SOL    HW165955   0.324   4.557   7.455 -0.4658 -1.3847 -0.7094
21411SOL    HW265956   0.397   4.602   7.330 -0.2051 -0.7040 -0.3179
21412SOL     OW65957   5.840   1.834   6.395 -0.0229 -0.0563 -0.1151
21412SOL    HW165958   5.856   1.781   6.473 -1.3851  1.0089  0.9416
21412SOL    HW265959   5.814   1.919   6.428  1.9262  1.2847 -1.7845
21413SOL     OW65960   0.131   7.033   4.456 -0.0840  0.0365 -0.1191
21413SOL    HW165961   0.161   6.997   4.372 -0.4776  0.7004 -0.5595
21413SOL    HW265962   0.203   7.016   4.516 -0.3261 -1.6011 -0.2625
21414SOL     OW65963   6.035   1.600   5.987  0.6677  0.1329  0.4638
21414SOL    HW165964   6.005   1.688   6.009  0.3016 -0.0649  0.7646
21414SOL    HW265965   6.115   1.614   5.935 -0.0055  0.6667 -0.4561
21415SOL     OW65966   2.864   6.128   1.631  0.4018 -0.2022 -0.1830
21415SOL    HW165967   2.790   6.177   1.595 -0.0789  1.0258  2.2625
21415SOL    HW265968   2.823   6.058   1.683  1.0344 -1.1622 -0.9540
21416SOL     OW65969   3.384   6.308   6.312  0.0168 -0.3599  0.1753
21416SOL    HW165970   3.403   6.217   6.289  1.1615  0.4398 -2.3623
21416SOL    HW265971   3.299   6.304   6.356  0.3489 -2.7003  0.7685
21417SOL     OW65972   3.008   2.239   2.985  0.1168 -0.2409 -0.7290
21417SOL    HW165973   2.914   2.220   2.983  0.3864 -1.6267 -2.0960
21417SOL    HW265974   3.018   2.319   2.933 -0.2809 -0.1843 -0.7162
21418SOL     OW65975   9.679   5.003   9.316  0.8173  0.0797 -0.1595
21418SOL    HW165976   9.691   4.953   9.397  0.9917  0.6155  0.1521
21418SOL    HW265977   9.762   4.992   9.269  0.1262 -1.6155 -1.0648
21419SOL     OW65978   8.329   3.736   8.707  0.0674  0.3753  0.0638
21419SOL    HW165979   8.345   3.746   8.801  1.1863 -0.7440  0.0141
21419SOL    HW265980   8.235   3.750   8.697  0.1756  2.2304  1.0958
21420SOL     OW65981   6.906   4.792   5.499 -0.2295 -0.5369  0.0564
21420SOL    HW165982   6.916   4.743   5.418  2.9485 -1.6937  1.0000
21420SOL    HW265983   6.906   4.884   5.471 -1.8194 -0.9362 -1.3945
21421SOL     OW65984   8.442   0.304   1.470  0.1894 -0.1561  0.4954
21421SOL    HW165985   8.430   0.210   1.455  1.1693 -0.2954  0.5641
21421SOL    HW265986   8.475   0.337   1.386  0.5222  0.0029  0.6878
21422SOL     OW65987   6.881   1.300   0.912 -0.0081 -0.0189 -0.0718
21422SOL    HW165988   6.806   1.248   0.884  0.7776 -0.8321 -0.6656
21422SOL    HW265989   6.865   1.387   0.874 -0.0482 -0.5147 -1.2154
21423SOL     OW65990   7.300   6.102   2.431  0.1786 -0.1638 -0.0072
21423SOL    HW165991   7.365   6.171   2.433  0.5912 -0.5184 -1.0277
21423SOL    HW265992   7.272   6.093   2.523  1.6923 -0.1383  0.4824
21424SOL     OW65993   2.021   4.945   4.958  0.2494 -0.0598  0.2404
21424SOL    HW165994   2.093   4.927   5.018  0.1748 -0.6351  0.1699
21424SOL    HW265995   1.991   4.858   4.931  0.3438  0.1991 -0.7098
21425SOL     OW65996   4.864   5.194   8.930  0.3347 -0.2558 -0.1342
21425SOL    HW165997   4.949   5.152   8.920 -0.4913 -1.8122 -1.0545
21425SOL    HW265998   4.869   5.273   8.875  0.4690 -1.5068 -1.9844
21426SOL     OW65999   0.652   4.401   0.432  0.2967 -0.3406 -0.2546
21426SOL    HW166000   0.697   4.433   0.511  1.3107 -2.3102  0.0521
21426SOL    HW266001   0.723   4.371   0.376 -0.5380 -1.7895 -0.5838
21427SOL     OW66002   7.103   0.319   0.578  0.3964  0.1872 -0.5313
21427SOL    HW166003   7.131   0.408   0.602 -0.8942  0.6013 -0.4732
21427SOL    HW266004   7.168   0.289   0.514  0.6920  1.2772 -0.7590
21428SOL     OW66005   6.955   8.736   9.206  0.1042  0.1006 -0.2999
21428SOL    HW166006   6.987   8.783   9.284  2.3100 -0.4450 -0.8198
21428SOL    HW266007   6.912   8.804   9.154 -2.5654  0.2790  1.8632
21429SOL     OW66008   8.860   6.897   5.652  0.3494  0.0834  0.1711
21429SOL    HW166009   8.849   6.806   5.623  1.1574 -0.5698  1.7661
21429SOL    HW266010   8.867   6.947   5.571 -0.9856 -1.1358 -0.7717
21430SOL     OW66011   2.162   7.671   0.856  1.1301 -0.2132  0.0484
21430SOL    HW166012   2.182   7.705   0.769 -0.2995 -1.1400 -0.6840
21430SOL    HW266013   2.194   7.581   0.855  0.6555 -0.3904  0.2902
21431SOL     OW66014   6.315   3.206   2.040  0.3728  0.0047 -0.6287
21431SOL    HW166015   6.283   3.248   2.120 -1.2686 -0.0671 -1.1990
21431SOL    HW266016   6.365   3.130   2.070 -2.2897 -1.4886  0.3527
21432SOL     OW66017   5.082   6.160   6.689 -0.3722 -0.4005 -0.1090
21432SOL    HW166018   5.005   6.174   6.744 -1.2960  2.0424 -1.8694
21432SOL    HW266019   5.115   6.248   6.670  1.6051 -1.2983 -1.1416
21433SOL     OW66020   0.141   6.762   8.266 -0.4365  0.4978 -0.1312
21433SOL    HW166021   0.079   6.719   8.207 -0.6644  0.7522 -0.0761
21433SOL    HW266022   0.097   6.763   8.351 -0.0170 -0.0733  0.1032
21434SOL     OW66023   3.853   2.395   6.490  0.1241  0.0457  0.6548
21434SOL    HW166024   3.928   2.353   6.448  0.2826  0.5023  0.4817
21434SOL    HW266025   3.885   2.481   6.517 -0.5552  0.5590 -0.1373
21435SOL     OW66026   7.892   0.824   7.630  0.2351 -0.3594 -0.0755
21435SOL    HW166027   7.987   0.832   7.627  0.2470 -0.4027  0.1961
21435SOL    HW266028   7.870   0.830   7.723 -0.2830  2.7836 -0.2768
21436SOL     OW66029   7.167   5.931   1.612  0.0595 -0.0468 -0.1089
21436SOL    HW166030   7.073   5.928   1.594  0.1807  0.3586 -0.8525
21436SOL    HW266031   7.208   5.919   1.526  0.6831  0.0558  0.1680
21437SOL     OW66032   1.943   5.763   5.636 -0.0588  0.0049 -0.4099
21437SOL    HW166033   1.850   5.787   5.631 -0.3059 -1.1387 -1.9161
21437SOL    HW266034   1.978   5.821   5.704 -1.8227  0.5897  0.0809
21438SOL     OW66035   5.093   0.919   1.607 -0.3168 -0.1405 -0.1425
21438SOL    HW166036   5.040   0.839   1.607  0.9522 -1.0440 -1.6563
21438SOL    HW266037   5.094   0.947   1.698  0.7215 -2.9144  0.8130
21439SOL     OW66038   6.455   0.035   2.440  0.4084 -0.4725  0.2850
21439SOL    HW166039   6.435  -0.019   2.517  0.5248  1.5455  1.8051
21439SOL    HW266040   6.546   0.062   2.453  0.4809 -0.2366 -0.6516
21440SOL     OW66041   5.425   8.880   3.400 -0.2973  0.3393 -0.0657
21440SOL    HW166042   5.376   8.825   3.461  0.2698  1.3637  1.3885
21440SOL    HW266043   5.517   8.862   3.421 -0.0852  0.5608 -0.7740
21441SOL     OW66044   9.150   5.209   2.169  0.6111  0.0008  0.2956
21441SOL    HW166045   9.089   5.282   2.155  0.6401 -0.1226 -0.4815
21441SOL    HW266046   9.130   5.147   2.100 -0.2134 -1.2885  1.6500
21442SOL     OW66047   6.584   8.949   0.434  0.4276 -0.4801 -0.6569
21442SOL    HW166048   6.491   8.971   0.433  0.7281  0.8799 -0.4178
21442SOL    HW266049   6.586   8.854   0.446 -0.8972 -0.3075  1.2980
21443SOL     OW66050   2.973   4.237   1.840  0.2834  0.6683 -0.1206
21443SOL    HW166051   2.980   4.225   1.934 -1.4452  0.3039 -0.0170
21443SOL    HW266052   3.062   4.262   1.813  1.4211 -1.5178  1.2482
21444SOL     OW66053   8.391   6.991   3.458  0.5686 -0.1874 -0.2888
21444SOL    HW166054   8.395   7.020   3.549  2.6273  1.6902 -0.8947
21444SOL    HW266055   8.331   7.053   3.416 -0.1298 -0.8583 -0.3018
21445SOL     OW66056   7.453   0.872   8.627  0.0820 -0.0269  0.4653
21445SOL    HW166057   7.436   0.867   8.721  2.3814 -0.5422  0.9243
21445SOL    HW266058   7.469   0.965   8.611 -2.0549  0.3360  0.1833
21446SOL     OW66059   8.970   4.069   8.480 -0.3023  0.5073 -0.4341
21446SOL    HW166060   8.914   4.122   8.536  1.6984  0.3324  1.8672
21446SOL    HW266061   9.059   4.093   8.505  0.6951 -2.9272 -0.2521
21447SOL     OW66062   2.690   3.359   4.963 -0.0299 -0.2442  0.1311
21447SOL    HW166063   2.738   3.335   5.043  2.0291  1.6781 -0.4309
21447SOL    HW266064   2.653   3.445   4.982 -0.7824 -0.4207 -0.4969
21448SOL     OW66065   0.772   1.842   8.220  0.8167  0.3528 -0.4796
21448SOL    HW166066   0.854   1.796   8.235  1.9610  2.8569  1.6656
21448SOL    HW266067   0.793   1.934   8.234 -1.9593  1.3078 -1.8072
21449SOL     OW66068   3.619   5.673   4.204  0.8597  0.0694 -0.1611
21449SOL    HW166069   3.648   5.643   4.118  1.8734  1.6544 -0.4192
21449SOL    HW266070   3.699   5.684   4.255  0.2478 -1.1149  1.1048
21450SOL     OW66071   6.419   4.442   4.662 -0.1208  0.2136  0.1676
21450SOL    HW166072   6.456   4.433   4.749 -2.2656 -1.0882  1.0209
21450SOL    HW266073   6.425   4.355   4.623 -1.3697  0.1840 -0.0097
21451SOL     OW66074   6.950   1.291   7.637 -0.0500 -0.0594 -0.2181
21451SOL    HW166075   6.994   1.239   7.704  0.4449  0.5641 -0.0467
21451SOL    HW266076   6.908   1.226   7.580 -1.1833 -0.5515  1.1533
21452SOL     OW66077   1.400   5.815   6.698  0.1851  0.3003  0.0576
21452SOL    HW166078   1.482   5.791   6.654  0.0973 -0.1326  0.1242
21452SOL    HW266079   1.426   5.881   6.763  0.6955 -0.7590  0.9637
21453SOL     OW66080   5.674   2.229   7.916 -0.1855  0.2690  0.1114
21453SOL    HW166081   5.615   2.301   7.892 -0.2621 -0.2826 -1.4836
21453SOL    HW266082   5.759   2.255   7.881  0.1067  0.1955  0.7465
21454SOL     OW66083   8.768   8.168   1.219 -0.4679 -0.0227 -0.1078
21454SOL    HW166084   8.697   8.221   1.183  1.0137  2.6207  0.5949
21454SOL    HW266085   8.837   8.172   1.152  0.0692 -0.1513  0.4320
21455SOL     OW66086   7.222   1.979   6.582 -0.5462 -0.0742 -0.3264
21455SOL    HW166087   7.292   2.021   6.531 -0.0927  0.9899  1.1032
21455SOL    HW266088   7.143   1.993   6.531 -0.1758  1.3524 -0.5357
21456SOL     OW66089   7.949   5.222   7.937  0.2743  0.0072  0.1485
21456SOL    HW166090   7.949   5.302   7.990 -0.4419 -0.9109  1.6133
21456SOL    HW266091   7.861   5.219   7.900 -0.0824 -0.6675  1.0258
21457SOL     OW66092   8.700   5.385   5.135 -0.1611  0.0490 -0.6411
21457SOL    HW166093   8.668   5.364   5.222  0.5549  0.1159 -0.3506
21457SOL    HW266094   8.648   5.460   5.107 -0.4919 -0.0642 -0.3339
21458SOL     OW66095   8.821   8.628   3.184  1.2160  0.1417  0.2968
21458SOL    HW166096   8.917   8.623   3.181  1.1731 -1.5255  0.4524
21458SOL    HW266097   8.802   8.712   3.225  2.6429 -0.0920  1.5075
21459SOL     OW66098   1.598   5.982   4.024  0.7028  0.2550 -0.2654
21459SOL    HW166099   1.511   5.946   4.009  1.4608 -1.3385 -0.9859
21459SOL    HW266100   1.617   5.961   4.116  0.5059  0.2402 -0.2277
21460SOL     OW66101   5.872   7.700   5.180  0.2150 -0.3742  0.4061
21460SOL    HW166102   5.857   7.606   5.172 -2.6265  0.0548 -0.5984
21460SOL    HW266103   5.927   7.722   5.104 -0.3459 -1.0270 -0.2041
21461SOL     OW66104   5.085   7.233   5.035 -0.2446 -0.5377 -0.1577
21461SOL    HW166105   5.024   7.273   5.097 -0.0868 -1.1373  0.3994
21461SOL    HW266106   5.169   7.233   5.080 -0.3528 -2.0194  0.1208
21462SOL     OW66107   2.178   3.852   2.436  0.7596  0.0194  0.4894
21462SOL    HW166108   2.249   3.868   2.374  0.8386 -0.6620  0.3979
21462SOL    HW266109   2.101   3.834   2.381  0.5108  0.7568  0.5874
21463SOL     OW66110   9.702   3.849   6.809 -0.0591 -0.9355 -0.2657
21463SOL    HW166111   9.658   3.917   6.860  0.7924 -1.5693  1.3856
21463SOL    HW266112   9.671   3.767   6.847  1.0845 -1.4162 -0.3595
21464SOL     OW66113   3.723   7.775   2.997  0.2421  0.1409  0.5926
21464SOL    HW166114   3.813   7.745   3.008  1.8584  3.3081 -2.0355
21464SOL    HW266115   3.729   7.871   3.004 -2.9494  0.4642  0.3674
21465SOL     OW66116   4.460   9.169   9.231  0.2990 -0.1277  0.2764
21465SOL    HW166117   4.447   9.260   9.206  1.6489  0.3316  1.1873
21465SOL    HW266118   4.544   9.145   9.193 -0.7155 -1.4797 -1.2268
21466SOL     OW66119   9.088   8.135   1.839  0.3349  0.2003  0.6577
21466SOL    HW166120   9.107   8.218   1.796 -0.4727  0.4731  0.8080
21466SOL    HW266121   9.001   8.147   1.877 -0.7037 -1.3668 -1.0100
21467SOL     OW66122   5.855   2.879   9.650  0.6224 -0.2106 -0.8460
21467SOL    HW166123   5.792   2.925   9.704 -0.4191 -1.0943 -1.2632
21467SOL    HW266124   5.937   2.929   9.659 -0.5047  1.8647 -1.5129
21468SOL     OW66125   5.444   5.575   3.697  0.6006  0.4341  0.4580
21468SOL    HW166126   5.462   5.654   3.748  1.1844 -0.3077  1.4223
21468SOL    HW266127   5.531   5.539   3.677  0.3404  0.0509 -0.0073
21469SOL     OW66128   2.353   9.430   2.860 -0.5225  0.5590  0.4117
21469SOL    HW166129   2.438   9.402   2.895 -1.5005 -0.3714  2.2117
21469SOL    HW266130   2.372   9.458   2.771  1.5401 -0.4137  0.4736
21470SOL     OW66131   8.760   3.437   8.860  0.2949 -0.5481 -0.1142
21470SOL    HW166132   8.761   3.524   8.820 -0.4976 -0.6930 -0.4641
21470SOL    HW266133   8.776   3.378   8.786 -2.9624 -0.9505 -0.6321
21471SOL     OW66134   6.750   4.463   8.562  0.6629 -0.8961 -0.3967
21471SOL    HW166135   6.755   4.368   8.550 -0.4209 -0.7413 -2.6374
21471SOL    HW266136   6.702   4.494   8.485 -0.6868  1.2887  1.2212
21472SOL     OW66137   5.952   8.511   7.013 -0.7915 -0.3837 -0.2305
21472SOL    HW166138   5.999   8.580   7.059 -1.5103 -0.2108  0.2559
21472SOL    HW266139   5.934   8.548   6.927 -0.3166 -0.3407 -0.3175
21473SOL     OW66140   0.433   7.585   6.982 -0.1629 -0.2182  0.9290
21473SOL    HW166141   0.462   7.499   6.950 -2.2686 -0.8587  0.5684
21473SOL    HW266142   0.514   7.634   6.996  1.0182 -1.5035 -0.9691
21474SOL     OW66143   0.704   2.861   6.489 -0.8957 -0.1179  0.4572
21474SOL    HW166144   0.762   2.815   6.428 -0.5217  0.2800  0.5083
21474SOL    HW266145   0.636   2.899   6.433 -0.4392  0.4180  0.2611
21475SOL     OW66146   0.100   8.319   9.163 -0.3394  0.1778  0.0316
21475SOL    HW166147   0.010   8.285   9.158  0.3492 -1.7982  0.1369
21475SOL    HW266148   0.092   8.400   9.214 -1.7753 -1.2751  2.3087
21476SOL     OW66149   5.550   0.120   7.519 -0.4343  0.3711 -0.2444
21476SOL    HW166150   5.584   0.084   7.437 -0.4374 -1.1780  0.3971
21476SOL    HW266151   5.603   0.078   7.587 -0.0085  2.1044  0.5353
21477SOL     OW66152   8.529   4.741   1.760  0.1729 -0.6084  0.0080
21477SOL    HW166153   8.597   4.751   1.827  0.1063 -0.4486  0.0518
21477SOL    HW266154   8.576   4.717   1.680  0.3518  0.2796 -0.1550
21478SOL     OW66155   8.768   5.271   4.751 -0.5982 -0.7350 -0.3517
21478SOL    HW166156   8.819   5.317   4.817  1.5405 -2.4989 -0.6756
21478SOL    HW266157   8.696   5.231   4.800 -0.1191 -0.4574  0.5948
21479SOL     OW66158   6.836   7.031   3.538  0.0791  0.4035  0.4205
21479SOL    HW166159   6.871   7.101   3.592  0.2106 -1.6063  3.1236
21479SOL    HW266160   6.906   7.011   3.476  1.2806  0.5554  1.6977
21480SOL     OW66161   8.234   3.886   1.720 -0.0446  0.4791 -0.0098
21480SOL    HW166162   8.212   3.941   1.645  0.5628  1.0097  0.1923
21480SOL    HW266163   8.279   3.944   1.780  0.8954 -0.3116  0.0729
21481SOL     OW66164   0.783   0.587   4.834 -0.2821 -0.9794 -0.2846
21481SOL    HW166165   0.794   0.571   4.928  0.1727  0.6767 -0.0290
21481SOL    HW266166   0.713   0.527   4.807 -0.0356 -1.8681  0.9823
21482SOL     OW66167   8.448   3.747   5.879 -0.0183  0.5486 -0.0148
21482SOL    HW166168   8.453   3.790   5.794  1.5024  2.3373  0.8997
21482SOL    HW266169   8.359   3.764   5.910 -0.5017  0.0950 -1.1190
21483SOL     OW66170   4.807   8.732   1.831 -0.1914  0.2537  0.0433
21483SOL    HW166171   4.898   8.755   1.813 -0.2262 -1.2413 -2.4313
21483SOL    HW266172   4.811   8.657   1.890  0.0873  0.9612  0.9636
21484SOL     OW66173   5.182   2.425   2.409 -0.0136  0.5573  0.4627
21484SOL    HW166174   5.186   2.486   2.483  1.6979 -0.0096  0.8891
21484SOL    HW266175   5.152   2.343   2.447  1.2547  0.1571  0.6282
21485SOL     OW66176   4.540   2.757   8.058  0.3862 -0.3109 -0.2442
21485SOL    HW166177   4.633   2.760   8.038  0.2030 -0.0891 -1.0963
21485SOL    HW266178   4.500   2.819   7.997 -0.2394  0.1484  0.6046
21486SOL     OW66179   2.484   3.363   7.748 -0.0613 -0.1887 -0.2843
21486SOL    HW166180   2.392   3.386   7.762 -0.1727 -0.5848 -0.3635
21486SOL    HW266181   2.527   3.448   7.735 -0.1545  0.1215  1.1841
21487SOL     OW66182   1.812   0.774   7.763 -0.6280  0.0233  0.3813
21487SOL    HW166183   1.726   0.766   7.804 -0.9418  1.1591 -0.0064
21487SOL    HW266184   1.808   0.857   7.715  0.6984  0.1206  0.3930
21488SOL     OW66185   1.779   0.804   1.919 -0.2310  0.0598 -0.2331
21488SOL    HW166186   1.765   0.776   1.828 -0.0445  0.1694 -0.2942
21488SOL    HW266187   1.808   0.895   1.913 -0.5651  0.1822 -0.0444
21489SOL     OW66188   1.392   0.990   8.574  0.0741  0.7093 -0.6347
21489SOL    HW166189   1.373   0.921   8.637  1.4260  0.6156 -0.2946
21489SOL    HW266190   1.400   0.945   8.490  3.3730 -0.0195 -0.0681
21490SOL     OW66191   4.211   9.181   6.814  0.0257 -0.4295  0.2004
21490SOL    HW166192   4.273   9.190   6.887 -1.1689 -1.4271  1.3640
21490SOL    HW266193   4.225   9.261   6.762  0.2587  0.7741  2.0129
21491SOL     OW66194   1.250   7.386   6.931 -0.2821 -0.1459  0.0914
21491SOL    HW166195   1.298   7.431   7.000 -1.0035  1.4183 -0.3843
21491SOL    HW266196   1.253   7.446   6.857 -1.4464 -0.7969 -0.5101
21492SOL     OW66197   3.072   2.891   0.076 -0.3305 -0.3876 -0.4423
21492SOL    HW166198   3.045   2.872   0.166  0.3316 -1.3752 -0.4343
21492SOL    HW266199   3.037   2.978   0.058 -0.8895 -0.3824  0.6015
21493SOL     OW66200   0.150   7.345   8.487 -0.7558  0.1581 -0.2250
21493SOL    HW166201   0.231   7.357   8.537 -1.0188 -0.2392  0.3135
21493SOL    HW266202   0.177   7.345   8.396  0.3275 -3.0438 -0.0304
21494SOL     OW66203   8.712   1.723   6.116  0.2885 -0.0812 -0.0184
21494SOL    HW166204   8.628   1.767   6.128  0.9969  1.4918 -0.5348
21494SOL    HW266205   8.773   1.793   6.091  1.3925 -1.4068 -1.2859
21495SOL     OW66206   2.574   0.423   7.781 -0.0172 -0.2317  0.5899
21495SOL    HW166207   2.564   0.518   7.766  0.0871 -0.5187 -1.7614
21495SOL    HW266208   2.497   0.385   7.739  1.1909 -1.3074 -0.7557
21496SOL     OW66209   3.694   8.552   6.287 -0.1378 -0.2929  0.1392
21496SOL    HW166210   3.629   8.539   6.218  0.8032 -1.7506 -0.5082
21496SOL    HW266211   3.643   8.562   6.367 -1.2453  1.3460 -0.7109
21497SOL     OW66212   8.153   0.876   8.162 -0.2129  0.4234  0.2871
21497SOL    HW166213   8.165   0.870   8.067  2.0635  0.2123  0.5345
21497SOL    HW266214   8.152   0.785   8.192 -2.1073  0.4315  0.4087
21498SOL     OW66215   5.757   6.930   6.526 -0.1924 -0.0890 -0.0605
21498SOL    HW166216   5.823   6.980   6.477 -0.9549  0.9707 -0.0479
21498SOL    HW266217   5.721   6.869   6.461  0.5486 -0.4509 -0.1506
21499SOL     OW66218   5.681   3.795   6.764 -0.3775  0.5411 -0.1733
21499SOL    HW166219   5.686   3.862   6.832 -2.6020  1.7841 -1.1369
21499SOL    HW266220   5.606   3.741   6.789  0.7985 -1.0446  0.0656
21500SOL     OW66221   8.082   5.414   1.818 -0.3537  0.0108  0.3721
21500SOL    HW166222   8.064   5.363   1.897 -0.3475 -0.0477  0.3360
21500SOL    HW266223   8.056   5.504   1.841  2.1503  0.5704  1.3952
21501SOL     OW66224   6.023   5.356   4.141 -0.0468 -0.0889  0.4125
21501SOL    HW166225   6.047   5.415   4.213  1.2786  0.4189 -0.4007
21501SOL    HW266226   5.935   5.383   4.116  0.1640  0.9173  0.6999
21502SOL     OW66227   3.749   5.072   3.842  0.8006 -0.0922 -0.2069
21502SOL    HW166228   3.677   5.010   3.834  0.5506  0.1459  0.1515
21502SOL    HW266229   3.769   5.074   3.935  2.2476 -1.2337 -0.4520
21503SOL     OW66230   7.077   2.951   0.079 -0.1976 -0.3434 -0.4481
21503SOL    HW166231   7.097   2.865   0.117  1.0577  0.2930  0.4044
21503SOL    HW266232   7.146   3.009   0.112 -1.0502  1.0191 -0.9519
21504SOL     OW66233   3.876   3.138   7.235 -0.5747  0.1176 -0.1181
21504SOL    HW166234   3.879   3.161   7.328 -0.0451 -0.8001  0.0991
21504SOL    HW266235   3.926   3.207   7.191  0.1082 -0.0403  0.4050
21505SOL     OW66236   4.930   2.367   7.896  0.3914  0.3649  0.4650
21505SOL    HW166237   4.849   2.388   7.943  0.1313  1.5861 -0.4677
21505SOL    HW266238   4.926   2.421   7.816  2.0263  0.2946  0.2998
21506SOL     OW66239   1.996   2.789   5.729 -0.8889  0.2285  0.2231
21506SOL    HW166240   1.941   2.740   5.668  0.2028 -0.6880 -0.0381
21506SOL    HW266241   1.939   2.860   5.760 -2.4855 -1.1543  0.5746
21507SOL     OW66242   7.113   5.335   1.960 -0.5927  0.4359  0.1666
21507SOL    HW166243   7.194   5.292   1.932 -1.1698 -0.9260  0.5282
21507SOL    HW266244   7.123   5.344   2.055  0.0807  2.3397 -0.0409
21508SOL     OW66245   7.943   2.909   2.650 -0.2059  0.1625 -0.2474
21508SOL    HW166246   7.982   2.927   2.565 -2.0929  2.0167 -0.8123
21508SOL    HW266247   7.880   2.839   2.633 -2.0771  1.9221 -0.9104
21509SOL     OW66248   4.580   8.485   5.016  0.2577 -0.2763 -0.0751
21509SOL    HW166249   4.519   8.559   5.022 -0.9795 -1.3407  0.9475
21509SOL    HW266250   4.637   8.495   5.092 -0.4088 -0.7661  0.5097
21510SOL     OW66251   4.982   0.621   6.188  0.7810 -0.1030  0.2451
21510SOL    HW166252   5.013   0.565   6.117 -1.0652 -1.2224  0.2462
21510SOL    HW266253   4.943   0.697   6.145  2.6243  0.8799  0.2195
21511SOL     OW66254   0.776   4.330   3.704 -0.1255 -0.6799  0.6245
21511SOL    HW166255   0.869   4.335   3.724 -0.1605 -3.2870  1.8332
21511SOL    HW266256   0.733   4.344   3.788 -0.9027  0.9332  0.0056
21512SOL     OW66257   5.869   6.295   7.258 -0.2339 -0.0646 -0.2652
21512SOL    HW166258   5.774   6.307   7.257 -0.4682 -1.6276  0.5705
21512SOL    HW266259   5.898   6.325   7.172 -1.5555 -0.0795 -0.7329
21513SOL     OW66260   2.469   9.040   5.449 -0.0372  0.3489  0.3264
21513SOL    HW166261   2.515   9.087   5.380  0.1885 -0.0818  0.1773
21513SOL    HW266262   2.493   9.086   5.529  1.1008 -0.1783  0.3157
21514SOL     OW66263   5.316   8.051   7.897 -0.6376  0.0092  0.4338
21514SOL    HW166264   5.397   8.010   7.928  1.0431  1.4305 -1.7852
21514SOL    HW266265   5.343   8.139   7.870 -2.4096 -0.2614 -2.5735
21515SOL     OW66266   1.223   1.770   2.284  0.0689 -0.0810 -0.5051
21515SOL    HW166267   1.282   1.843   2.264 -0.5580  0.4449 -0.4660
21515SOL    HW266268   1.281   1.702   2.318  0.5639  0.7255  0.3206
21516SOL     OW66269   4.823   7.237   1.678 -0.1184  0.3113  0.0634
21516SOL    HW166270   4.907   7.225   1.724 -0.0008 -0.5500 -0.3605
21516SOL    HW266271   4.758   7.196   1.735  0.0732 -1.0549 -0.6701
21517SOL     OW66272   0.633   2.731   5.603 -0.1694 -0.5547  0.0118
21517SOL    HW166273   0.628   2.784   5.523 -0.6683 -0.1515  0.3069
21517SOL    HW266274   0.691   2.658   5.579 -0.1565 -0.3357 -0.6588
21518SOL     OW66275   8.249   2.275   8.421 -0.1034 -0.5457  0.3345
21518SOL    HW166276   8.187   2.328   8.471  0.6776 -0.4943  1.2598
21518SOL    HW266277   8.321   2.258   8.481  0.3863 -1.3415 -0.4531
21519SOL     OW66278   7.802   2.437   7.859  0.0046  0.2986 -0.2749
21519SOL    HW166279   7.872   2.502   7.864  0.1391  0.2833 -1.5643
21519SOL    HW266280   7.738   2.466   7.924  0.6052  1.0473 -0.0008
21520SOL     OW66281   0.918   5.345   6.209 -0.1205 -0.4893 -0.0137
21520SOL    HW166282   0.947   5.421   6.259 -1.9448 -0.9825  1.9737
21520SOL    HW266283   0.983   5.278   6.227 -0.5129 -0.5192  1.4290
21521SOL     OW66284   1.963   5.059   7.004 -0.0953 -0.1638  0.3427
21521SOL    HW166285   2.019   5.131   7.034 -0.1527 -0.8056  2.0450
21521SOL    HW266286   1.878   5.076   7.043 -0.4276 -0.5505 -0.1924
21522SOL     OW66287   2.846   4.706   6.940  0.6867 -0.3381  0.3116
21522SOL    HW166288   2.918   4.743   6.890 -0.0969 -0.8063 -1.2090
21522SOL    HW266289   2.770   4.760   6.918 -0.4002 -2.4723 -1.6727
21523SOL     OW66290   8.558   8.340   1.768 -0.4641 -0.5060 -0.0389
21523SOL    HW166291   8.563   8.306   1.678  1.5359 -0.4460  0.0100
21523SOL    HW266292   8.497   8.281   1.812 -2.6706  0.3506 -1.7698
21524SOL     OW66293   0.451   0.146   0.267  0.7890 -0.1270 -0.3880
21524SOL    HW166294   0.382   0.171   0.328  0.8706  0.1782 -0.4203
21524SOL    HW266295   0.430   0.192   0.186  1.2439  0.2809 -0.2792
21525SOL     OW66296   1.987   1.701   0.026  0.2754  0.9233  0.9529
21525SOL    HW166297   1.935   1.776  -0.000  0.7114  0.7834 -0.3766
21525SOL    HW266298   2.039   1.732   0.100  0.2653  1.8531  0.5770
21526SOL     OW66299   0.719   9.522   6.081 -0.5380 -0.5098 -0.4487
21526SOL    HW166300   0.743   9.509   5.989  2.2531  1.8997 -0.2003
21526SOL    HW266301   0.801   9.514   6.128 -1.5929  0.2345  1.6219
21527SOL     OW66302   5.394   0.984   4.277 -0.0834  0.1776  0.9042
21527SOL    HW166303   5.337   1.054   4.246 -2.0260 -0.9851  1.6482
21527SOL    HW266304   5.479   1.025   4.287 -1.1613  2.4753  1.4288
21528SOL     OW66305   8.949   0.926   5.792  0.2893 -0.3079  0.0193
21528SOL    HW166306   9.001   0.846   5.789  0.5492 -0.0993 -2.6761
21528SOL    HW266307   8.859   0.895   5.798  0.4685 -0.7434  0.6409
21529SOL     OW66308   1.832   9.688   8.208 -0.1909 -0.5138  0.1344
21529SOL    HW166309   1.746   9.720   8.178  1.2988  2.4864 -1.4230
21529SOL    HW266310   1.846   9.607   8.160 -1.0407  0.3918 -1.7554
21530SOL     OW66311   2.657   5.287   5.676  0.4143 -0.5243 -0.2039
21530SOL    HW166312   2.644   5.196   5.649 -0.7528  0.0322 -1.6794
21530SOL    HW266313   2.659   5.335   5.593 -0.8809  1.0088  0.6118
21531SOL     OW66314   4.906   4.422   9.013 -0.1216 -1.3481 -0.4818
21531SOL    HW166315   4.986   4.455   8.972 -0.7696  1.0195  0.0124
21531SOL    HW266316   4.853   4.388   8.941 -0.0786  0.2001 -1.2764
21532SOL     OW66317   7.979   8.790   8.132 -0.3325  0.0857  0.3575
21532SOL    HW166318   7.900   8.792   8.078  0.2066  0.7002 -0.4387
21532SOL    HW266319   7.956   8.838   8.211 -1.5314 -1.8729  1.2914
21533SOL     OW66320   5.468   5.733   1.502 -0.1594 -0.2194  0.3131
21533SOL    HW166321   5.411   5.802   1.537  0.0109  0.4766 -0.7290
21533SOL    HW266322   5.497   5.684   1.580  1.6107  2.3285  1.4192
21534SOL     OW66323   3.197   1.644   8.352 -0.1992 -0.2864 -0.6856
21534SOL    HW166324   3.195   1.730   8.393 -1.2977 -1.1331  1.1812
21534SOL    HW266325   3.245   1.657   8.271  0.3861  1.8975 -0.0512
21535SOL     OW66326   6.663   8.565   5.950  0.1127 -0.0311 -0.0273
21535SOL    HW166327   6.725   8.626   5.912  0.0379  0.1786  0.1800
21535SOL    HW266328   6.596   8.621   5.990  0.7542 -0.2014  1.3601
21536SOL     OW66329   3.672   0.601   6.514 -0.1533 -0.2884  0.3133
21536SOL    HW166330   3.706   0.513   6.528  0.3425 -0.2271 -0.4423
21536SOL    HW266331   3.636   0.627   6.599  0.2108 -0.9905  0.6899
21537SOL     OW66332   2.415   6.955   2.217 -0.1221 -0.0977  0.4222
21537SOL    HW166333   2.328   6.995   2.225 -0.0807 -0.1046  1.0102
21537SOL    HW266334   2.433   6.955   2.124  0.1244  1.8265  0.4198
21538SOL     OW66335   7.025   1.617   6.809 -0.4554 -0.0465 -0.4784
21538SOL    HW166336   6.986   1.544   6.856  1.3855 -0.6169  0.2607
21538SOL    HW266337   7.062   1.577   6.730  1.3302 -0.1138  0.3554
21539SOL     OW66338   2.129   8.709   2.435  0.0898 -0.4067  0.0741
21539SOL    HW166339   2.131   8.743   2.524 -1.9854 -0.4541  0.1912
21539SOL    HW266340   2.070   8.767   2.388  0.2497 -1.0576 -0.9702
21540SOL     OW66341   2.464   4.345   6.161  0.3794 -0.6703  0.0113
21540SOL    HW166342   2.481   4.439   6.169 -1.4510 -0.3885  1.2734
21540SOL    HW266343   2.464   4.328   6.067  1.5202  0.4262 -0.2005
21541SOL     OW66344   3.769   2.680   5.120  0.1529  0.4189 -0.0768
21541SOL    HW166345   3.815   2.662   5.202  0.1314 -0.1333 -0.1801
21541SOL    HW266346   3.778   2.599   5.070 -0.7110  0.3915 -0.2050
21542SOL     OW66347   0.748   4.479   3.475  0.2319 -0.4571 -0.1230
21542SOL    HW166348   0.760   4.423   3.551  0.2773 -1.7851 -1.0721
21542SOL    HW266349   0.828   4.466   3.423  0.7488  1.3575  0.1487
21543SOL     OW66350   6.982   0.731   0.541  0.0656  0.6693  0.1593
21543SOL    HW166351   6.906   0.679   0.513 -0.1912  1.1790 -0.1045
21543SOL    HW266352   7.020   0.764   0.460 -0.0221  1.2371  0.3404
21544SOL     OW66353   7.079   3.393   1.908 -0.4855  0.6839  0.5308
21544SOL    HW166354   7.050   3.333   1.839 -1.9637  1.5064  0.3810
21544SOL    HW266355   7.067   3.344   1.989 -0.9352  0.4970  0.3554
21545SOL     OW66356   1.196   8.147   1.133 -0.2116 -0.1362 -0.1233
21545SOL    HW166357   1.100   8.143   1.138 -0.1647  0.1395  1.9188
21545SOL    HW266358   1.224   8.056   1.139 -0.3222 -0.1918 -0.4150
21546SOL     OW66359   6.558   3.234   7.513  0.4184 -0.6090 -0.1321
21546SOL    HW166360   6.638   3.287   7.503  0.5489 -0.8751 -0.5125
21546SOL    HW266361   6.523   3.228   7.424 -1.9572  2.4687  0.4064
21547SOL     OW66362   8.570   6.581   6.921  0.2380 -0.4091  0.2218
21547SOL    HW166363   8.601   6.622   6.840 -2.5331  0.4341 -0.5015
21547SOL    HW266364   8.522   6.650   6.966 -1.3116 -1.8282  0.8471
21548SOL     OW66365   3.434   7.355   7.419 -0.5716 -0.6657  0.2460
21548SOL    HW166366   3.390   7.364   7.335  0.1994 -1.5250 -0.2548
21548SOL    HW266367   3.510   7.413   7.413  0.2740 -1.7938 -0.1993
21549SOL     OW66368   3.602   6.703   5.758  0.4266 -0.0478  0.2787
21549SOL    HW166369   3.539   6.752   5.810  0.0042  0.8234 -0.9978
21549SOL    HW266370   3.617   6.623   5.808 -0.9125  0.1871  1.1185
21550SOL     OW66371   8.652   7.615   7.907  0.3755  0.0678  0.2480
21550SOL    HW166372   8.651   7.640   7.814 -0.0490 -0.4875  0.0955
21550SOL    HW266373   8.745   7.606   7.929  0.4659 -0.9185 -0.4422
21551SOL     OW66374   0.294   5.271   7.005  0.0847 -0.2083  0.0135
21551SOL    HW166375   0.353   5.343   7.027 -0.3844  0.0596  0.4056
21551SOL    HW266376   0.207   5.304   7.028 -0.2194 -0.5901 -0.5844
21552SOL     OW66377   6.127   3.297   1.566 -0.3118  0.5835 -0.8016
21552SOL    HW166378   6.038   3.278   1.595 -0.2753  0.4166 -0.7989
21552SOL    HW266379   6.166   3.212   1.551  0.3358  0.5793  0.6875
21553SOL     OW66380   8.974   4.567   7.907 -0.2169  0.0183  0.1365
21553SOL    HW166381   8.997   4.593   7.818  0.7509 -1.8444 -0.2116
21553SOL    HW266382   8.879   4.551   7.904 -0.1040 -0.5512 -0.7124
21554SOL     OW66383   4.891   6.406   1.687 -0.9041  0.3439 -0.4824
21554SOL    HW166384   4.840   6.338   1.731  0.6781  0.9244  2.4380
21554SOL    HW266385   4.829   6.479   1.677 -1.4520 -0.0020  0.2850
21555SOL     OW66386   7.505   7.237   9.618 -0.1208 -0.6977 -0.1328
21555SOL    HW166387   7.485   7.148   9.591 -1.0758  0.0012 -1.9144
21555SOL    HW266388   7.424   7.286   9.601  0.9271  0.8579 -0.9140
21556SOL     OW66389   4.297   3.698   3.126 -0.4672  0.1980 -0.4070
21556SOL    HW166390   4.285   3.665   3.037 -0.4997 -0.8878 -0.0205
21556SOL    HW266391   4.358   3.771   3.116  0.9815 -1.0351 -1.1396
21557SOL     OW66392   1.235   8.380   4.629 -0.3337 -0.5746 -0.3317
21557SOL    HW166393   1.176   8.304   4.630  0.9621 -1.6032  0.8117
21557SOL    HW266394   1.252   8.399   4.721  0.4127  0.2704 -0.6312
21558SOL     OW66395   0.524   5.171   2.860  0.4641 -0.1268 -0.7297
21558SOL    HW166396   0.461   5.099   2.863  0.0408  0.1403 -2.3649
21558SOL    HW266397   0.471   5.249   2.841  0.8790  0.6998  1.2344
21559SOL     OW66398   1.029   7.587   6.110 -0.1036 -0.0109 -0.3291
21559SOL    HW166399   1.078   7.622   6.036 -1.2279  0.3145 -0.9543
21559SOL    HW266400   0.987   7.508   6.075 -1.4827  0.7120 -0.3754
21560SOL     OW66401   7.548   2.143   0.699 -0.1363 -0.2604 -0.4577
21560SOL    HW166402   7.502   2.059   0.687 -1.6201  0.1285  1.9310
21560SOL    HW266403   7.580   2.140   0.789 -0.7574  1.9652 -0.1082
21561SOL     OW66404   0.404   1.218   6.795  0.3935  0.4228  0.4958
21561SOL    HW166405   0.466   1.246   6.863 -0.1084  0.1650  1.0744
21561SOL    HW266406   0.372   1.133   6.825  1.2019 -0.3505 -0.7796
21562SOL     OW66407   1.773   1.003   7.339 -0.1025  0.0501  0.0388
21562SOL    HW166408   1.865   1.003   7.364 -0.0215  0.0657 -0.2628
21562SOL    HW266409   1.726   0.987   7.421  0.0741  1.9689  0.5619
21563SOL     OW66410   3.946   8.276   3.694 -0.9472  0.1252  0.4522
21563SOL    HW166411   3.910   8.243   3.612 -1.8373  0.8383  0.5331
21563SOL    HW266412   3.887   8.348   3.719  1.5800  2.7123 -0.3987
21564SOL     OW66413   0.283   6.473   4.176  0.1115 -0.4405  0.8366
21564SOL    HW166414   0.206   6.423   4.150  0.0917  0.3421 -0.7887
21564SOL    HW266415   0.248   6.551   4.219 -0.2235  0.9923 -1.7808
21565SOL     OW66416   2.511   4.871   7.204 -0.5490 -0.2671 -0.0530
21565SOL    HW166417   2.577   4.834   7.263 -0.9612 -2.2942 -0.7801
21565SOL    HW266418   2.525   4.825   7.121 -3.5440 -1.6217  0.0621
21566SOL     OW66419   4.009   5.548   7.264 -0.0304 -0.5259 -0.5961
21566SOL    HW166420   3.991   5.455   7.253  0.5901 -0.7942  0.4806
21566SOL    HW266421   4.092   5.563   7.219  0.0812 -0.5868 -0.4114
21567SOL     OW66422   2.278   6.501   1.835  0.6103  0.4834  0.7062
21567SOL    HW166423   2.260   6.475   1.744  1.7961 -0.6326  0.7624
21567SOL    HW266424   2.305   6.420   1.878  1.8183  1.3274  1.6008
21568SOL     OW66425   6.880   7.017   6.865  0.0090 -0.0041 -0.5947
21568SOL    HW166426   6.789   7.046   6.869 -0.1654 -0.5270 -0.6819
21568SOL    HW266427   6.906   7.031   6.774  0.2850  0.9387 -0.3752
21569SOL     OW66428   8.298   2.540   9.285  0.0644  0.1632 -0.3751
21569SOL    HW166429   8.289   2.509   9.195  1.4517 -0.5048 -0.3027
21569SOL    HW266430   8.210   2.569   9.309 -0.1263  1.3691 -2.2969
21570SOL     OW66431   6.909   8.148   8.457 -0.2033  1.1127 -0.0401
21570SOL    HW166432   6.854   8.092   8.403 -1.6287  2.5257 -0.1222
21570SOL    HW266433   6.909   8.107   8.543 -0.0033  0.2172 -0.4536
21571SOL     OW66434   8.161   5.807   6.420 -0.4349  0.1636  0.2656
21571SOL    HW166435   8.224   5.769   6.359  0.5369  0.3793  1.0932
21571SOL    HW266436   8.091   5.840   6.365 -0.5488 -1.4151 -0.5802
21572SOL     OW66437   1.941   7.125   7.757  0.1812 -0.3889  0.0165
21572SOL    HW166438   1.923   7.034   7.735 -1.2818 -0.4420  1.2361
21572SOL    HW266439   1.860   7.156   7.798  0.5721  1.5320 -0.5775
21573SOL     OW66440   9.114   4.192   2.321 -0.1446  0.5925  0.4674
21573SOL    HW166441   9.054   4.254   2.362 -0.0009  0.4583  0.8847
21573SOL    HW266442   9.191   4.244   2.298 -0.2144  0.6618  0.3892
21574SOL     OW66443   5.889   0.089   3.045  0.4198 -0.0799  0.2716
21574SOL    HW166444   5.851   0.060   2.963  1.7180  0.0108 -0.3865
21574SOL    HW266445   5.983   0.074   3.035  0.7192  0.9226  1.3236
21575SOL     OW66446   1.949   4.511   0.677 -0.1783  0.1845  0.2736
21575SOL    HW166447   1.951   4.604   0.698 -0.9247  0.1694  0.4197
21575SOL    HW266448   1.940   4.508   0.581  1.8588  0.2486  0.0239
21576SOL     OW66449   6.124   0.825   6.167  0.4315  0.9159  0.7621
21576SOL    HW166450   6.180   0.757   6.129  1.8816  1.0136  2.6188
21576SOL    HW266451   6.072   0.779   6.234  0.5444  1.4128  1.1916
21577SOL     OW66452   4.373   6.034   0.146 -0.7795  0.2144 -0.4840
21577SOL    HW166453   4.435   6.081   0.203 -0.7908 -0.7838  0.3827
21577SOL    HW266454   4.334   6.103   0.092  0.0220  1.0545 -0.0308
21578SOL     OW66455   8.037   8.459   8.259 -0.4304 -0.0953  0.1434
21578SOL    HW166456   7.961   8.414   8.295 -0.5649 -0.3069 -0.3891
21578SOL    HW266457   8.001   8.538   8.218 -0.2754  0.1624  0.4989
21579SOL     OW66458   0.008   7.956   5.278 -0.3129 -0.5815  0.2263
21579SOL    HW166459  -0.002   7.906   5.359 -0.7105 -0.0082  0.5416
21579SOL    HW266460   0.089   8.005   5.290  0.6457 -1.9146 -0.5165
21580SOL     OW66461   3.131   3.066   0.346  0.6070 -0.2769  0.0061
21580SOL    HW166462   3.168   3.153   0.330  0.0087  0.0476  0.2967
21580SOL    HW266463   3.048   3.066   0.297  0.0381 -0.2364  0.9320
21581SOL     OW66464   8.418   6.923   4.134 -0.0514 -0.5531 -0.3300
21581SOL    HW166465   8.445   6.831   4.140 -0.6816 -0.7015  0.4778
21581SOL    HW266466   8.442   6.950   4.045  2.4200 -0.7576  0.1887
21582SOL     OW66467   3.721   7.733   9.013  0.3046  0.4913 -0.0376
21582SOL    HW166468   3.748   7.746   8.922 -1.2657  0.9112 -0.4728
21582SOL    HW266469   3.655   7.664   9.009  1.5446 -0.8035  1.0400
21583SOL     OW66470   2.965   9.323   6.908 -0.3469 -0.0887 -0.1993
21583SOL    HW166471   2.945   9.249   6.964  0.0782 -0.6718 -0.8063
21583SOL    HW266472   2.944   9.400   6.961 -1.1387 -0.6397  0.3070
21584SOL     OW66473   5.118   3.923   6.434  0.1339  0.5079  0.1154
21584SOL    HW166474   5.102   3.939   6.527 -1.0406 -0.2826  0.0697
21584SOL    HW266475   5.045   3.966   6.390 -0.5514 -1.0068 -0.2834
21585SOL     OW66476   3.913   2.452   3.657 -0.3064 -0.3975  0.4236
21585SOL    HW166477   3.830   2.448   3.609 -0.6351  2.3150  0.6143
21585SOL    HW266478   3.900   2.394   3.732 -1.6602 -0.7802 -0.0756
21586SOL     OW66479   6.187   4.583   8.271 -0.0917  0.4160 -0.5199
21586SOL    HW166480   6.158   4.556   8.184  0.6558 -0.1176 -0.6091
21586SOL    HW266481   6.210   4.676   8.261 -0.0070  0.3543 -0.8902
21587SOL     OW66482   7.472   9.404   8.242 -0.4323 -0.0934 -0.0031
21587SOL    HW166483   7.448   9.353   8.165  1.8704  2.1714 -2.4361
21587SOL    HW266484   7.550   9.360   8.277  0.5047  0.6593 -1.0526
21588SOL     OW66485   7.338   9.587   3.840  0.2987 -0.6406  0.2457
21588SOL    HW166486   7.280   9.540   3.900 -1.1522  1.8870  0.9762
21588SOL    HW266487   7.407   9.622   3.895  0.5387 -0.6709 -0.0318
21589SOL     OW66488   5.606   5.744   5.992 -0.4645 -0.5533  0.4676
21589SOL    HW166489   5.671   5.785   6.048  1.5264 -1.0783 -1.3438
21589SOL    HW266490   5.606   5.652   6.016 -1.8101 -0.2888  1.5985
21590SOL     OW66491   2.700   5.466   7.294  0.2777  0.1545 -1.0185
21590SOL    HW166492   2.613   5.471   7.254  0.6598  0.8064 -1.8007
21590SOL    HW266493   2.755   5.524   7.241  1.6062 -1.5427 -1.6082
21591SOL     OW66494   6.569   4.716   3.427 -0.4461  0.0447 -0.9387
21591SOL    HW166495   6.519   4.636   3.445  0.3403 -0.6759 -1.8499
21591SOL    HW266496   6.526   4.756   3.352 -0.1069 -0.1872 -1.2616
21592SOL     OW66497   3.736   1.520   5.336 -0.8857 -0.3662 -0.2979
21592SOL    HW166498   3.774   1.437   5.308 -0.6513  0.3638 -2.2596
21592SOL    HW266499   3.674   1.543   5.267 -0.9442  1.0910  0.1954
21593SOL     OW66500   9.638   7.727   5.150  0.2241  0.1091 -0.0836
21593SOL    HW166501   9.661   7.815   5.179 -0.1237  0.4718 -0.8838
21593SOL    HW266502   9.721   7.679   5.153  0.3715  0.3818  0.5924
21594SOL     OW66503   2.307   9.071   1.500 -0.2624  0.4956  1.1833
21594SOL    HW166504   2.221   9.072   1.544 -0.0719 -1.3079  1.6705
21594SOL    HW266505   2.345   8.987   1.525  1.5119  1.1152  0.6684
21595SOL     OW66506   5.085   3.121   9.003 -0.5688 -0.3780 -0.1377
21595SOL    HW166507   4.995   3.108   8.973 -0.6971  0.9660 -0.4116
21595SOL    HW266508   5.081   3.103   9.097 -1.1667 -0.1803 -0.1177
21596SOL     OW66509   2.584   0.505   3.443  0.4399  0.1357 -0.4735
21596SOL    HW166510   2.620   0.549   3.366  0.1216 -2.2885 -2.1299
21596SOL    HW266511   2.594   0.412   3.423 -0.1888 -0.5696  2.2008
21597SOL     OW66512   3.213   8.961   3.767  0.2734  0.0841  0.1244
21597SOL    HW166513   3.224   9.015   3.845  0.5019 -1.2642  1.0612
21597SOL    HW266514   3.120   8.970   3.744  0.2486  0.6360  0.4235
21598SOL     OW66515   0.905   7.874   6.797 -0.4629  0.0163  0.2575
21598SOL    HW166516   0.885   7.784   6.825 -0.3876 -0.1357 -0.1725
21598SOL    HW266517   0.937   7.865   6.708  0.5840  0.3642  0.5860
21599SOL     OW66518   2.010   8.903   7.790  0.1778 -0.4512  0.0162
21599SOL    HW166519   1.926   8.946   7.772 -0.6892 -1.6530  0.9730
21599SOL    HW266520   2.050   8.956   7.859 -1.2391 -1.5055  1.7429
21600SOL     OW66521   7.403   1.652   3.366  0.1647  0.1302 -0.1473
21600SOL    HW166522   7.319   1.623   3.330  1.8046 -1.8383 -2.8159
21600SOL    HW266523   7.429   1.581   3.425 -0.4135  1.2123  1.4877
21601SOL     OW66524   1.079   6.286   0.499 -0.0707 -0.0135 -0.6423
21601SOL    HW166525   1.030   6.354   0.452 -0.5487 -0.7211 -1.1737
21601SOL    HW266526   1.151   6.264   0.440  0.7999  0.8882  0.0556
21602SOL     OW66527   4.011   7.971   7.707 -0.7953  0.0019 -0.0164
21602SOL    HW166528   4.039   7.962   7.798 -0.6503 -0.9042 -0.1487
21602SOL    HW266529   3.927   8.018   7.712 -0.1132  1.2258  0.4822
21603SOL     OW66530   7.020   6.052   8.754 -0.2376 -0.3132 -0.4378
21603SOL    HW166531   7.043   6.004   8.834  2.4631  2.4854  0.6496
21603SOL    HW266532   6.938   6.097   8.776  1.2742  1.7016  1.4935
21604SOL     OW66533   7.739   1.086   0.834 -0.2962  0.4729  0.0279
21604SOL    HW166534   7.766   1.105   0.744 -1.7969  0.7907 -0.3801
21604SOL    HW266535   7.736   1.171   0.877  1.0645  0.2572  0.5936
21605SOL     OW66536   6.441   6.193   1.725 -0.5471 -0.0138 -0.0749
21605SOL    HW166537   6.532   6.173   1.749 -0.4045  0.4685 -0.2152
21605SOL    HW266538   6.441   6.192   1.629 -1.7495 -5.0033 -0.3038
21606SOL     OW66539   4.406   8.139   4.006 -0.0425  0.0460  0.0253
21606SOL    HW166540   4.446   8.163   3.922 -1.3960 -0.5716 -0.8287
21606SOL    HW266541   4.323   8.185   4.007 -0.9052 -1.4656  0.1379
21607SOL     OW66542   9.369   9.476   7.408 -0.5556  0.1010 -0.1758
21607SOL    HW166543   9.275   9.458   7.404 -0.8927  1.8639 -1.4144
21607SOL    HW266544   9.376   9.547   7.471 -0.0874  0.2014 -0.3411
21608SOL     OW66545   3.944   8.391   2.096 -0.0296 -1.0113 -0.1078
21608SOL    HW166546   3.943   8.297   2.077 -0.3813 -1.3078  1.2817
21608SOL    HW266547   3.866   8.405   2.149  0.2923 -0.0275  0.1199
21609SOL     OW66548   9.381   7.763   1.138  0.5944 -0.2308  0.6046
21609SOL    HW166549   9.291   7.785   1.160  0.3629  0.5775 -1.0117
21609SOL    HW266550   9.423   7.747   1.223 -0.4632  1.7228  1.5719
21610SOL     OW66551   6.887   0.766   1.018  0.8937 -0.1909  0.1247
21610SOL    HW166552   6.823   0.706   0.980  2.5441 -3.1915  1.6396
21610SOL    HW266553   6.842   0.805   1.093  0.2698 -0.8481  0.1052
21611SOL     OW66554   5.779   9.458   3.871  0.0204  0.0058 -0.0040
21611SOL    HW166555   5.874   9.459   3.885 -0.1219 -0.5933  1.0808
21611SOL    HW266556   5.754   9.550   3.875  0.7485  0.3372 -1.8818
21612SOL     OW66557   1.472   2.597   3.574 -0.4897  0.1246 -0.1113
21612SOL    HW166558   1.469   2.627   3.665 -0.7694  0.7095 -0.3115
21612SOL    HW266559   1.556   2.552   3.566 -0.3675  0.2668  0.3765
21613SOL     OW66560   4.132   4.367   0.363 -0.0650 -0.0540 -0.3130
21613SOL    HW166561   4.210   4.343   0.414 -0.6441 -0.7136  0.2959
21613SOL    HW266562   4.059   4.355   0.424 -0.5867  1.3424 -0.6251
21614SOL     OW66563   6.341   1.141   8.101  0.0791 -0.2457 -0.1938
21614SOL    HW166564   6.368   1.218   8.150  1.2317  0.6595 -2.1743
21614SOL    HW266565   6.279   1.174   8.036 -0.6090 -1.2558 -0.0752
21615SOL     OW66566   0.611   0.687   0.302  0.3667 -0.1150 -0.1425
21615SOL    HW166567   0.543   0.711   0.239 -0.9032 -0.7420  0.9626
21615SOL    HW266568   0.667   0.765   0.308 -1.4420  1.1963  0.4956
21616SOL     OW66569   5.038   9.037   4.513  0.2878  0.3150 -0.1426
21616SOL    HW166570   5.023   9.123   4.472 -2.8515 -0.2362 -0.3827
21616SOL    HW266571   5.045   8.977   4.439 -0.2256  0.0180  0.0446
21617SOL     OW66572   2.703   3.168   9.132  0.0765  0.6074 -0.7939
21617SOL    HW166573   2.674   3.169   9.223  0.8495 -0.8741 -0.5153
21617SOL    HW266574   2.631   3.125   9.085  0.6176 -0.6379 -0.5183
21618SOL     OW66575   3.937   5.103   1.893  0.4192  0.0305  0.5381
21618SOL    HW166576   3.957   5.031   1.833 -2.2527 -0.6891  0.3908
21618SOL    HW266577   3.905   5.060   1.973 -0.3321  1.0265  0.7946
21619SOL     OW66578   4.758   5.378   6.585  0.8369  0.2080 -0.4266
21619SOL    HW166579   4.829   5.324   6.621  0.1552  0.5042  1.4917
21619SOL    HW266580   4.678   5.328   6.604  0.2899  1.3331  0.3646
21620SOL     OW66581   6.534   8.614   7.077 -0.5285  0.0121 -0.3574
21620SOL    HW166582   6.590   8.677   7.122 -0.9480  0.0356  0.1414
21620SOL    HW266583   6.589   8.536   7.069 -0.6690 -0.2247  0.8181
21621SOL     OW66584   6.646   7.609   4.753 -0.6365 -0.2014 -0.0625
21621SOL    HW166585   6.570   7.560   4.785 -1.9149 -0.0121 -2.5467
21621SOL    HW266586   6.610   7.691   4.721  0.7322  0.2200 -0.5969
21622SOL     OW66587   6.530   0.246   3.001  0.1117 -0.1355  0.0064
21622SOL    HW166588   6.495   0.334   2.984  1.2833  0.1506 -1.0492
21622SOL    HW266589   6.604   0.260   3.059 -0.1373 -0.5164  0.4245
21623SOL     OW66590   0.262   7.678   2.345  0.2917  0.6427  0.4444
21623SOL    HW166591   0.170   7.700   2.334 -0.1597 -1.5073 -0.5314
21623SOL    HW266592   0.270   7.651   2.437 -0.0782  0.7389  0.5037
21624SOL     OW66593   4.406   4.785   4.059 -0.1998 -0.2054  0.1128
21624SOL    HW166594   4.346   4.854   4.087  0.2805  0.2955 -0.0714
21624SOL    HW266595   4.363   4.704   4.085 -1.4633  0.0851 -1.0011
21625SOL     OW66596   3.790   7.381   8.781 -0.3101  0.0189 -0.0841
21625SOL    HW166597   3.781   7.292   8.816  1.1484 -0.3587 -0.6093
21625SOL    HW266598   3.705   7.399   8.741 -0.0036 -1.9742 -1.7847
21626SOL     OW66599   8.509   6.094   1.661 -0.0547  0.1160  0.0946
21626SOL    HW166600   8.521   6.079   1.568  0.1925  0.7505  0.0214
21626SOL    HW266601   8.462   6.017   1.692 -0.7627  0.2177 -0.6921
21627SOL     OW66602   8.824   5.312   4.313 -0.3517  0.2885 -0.1077
21627SOL    HW166603   8.913   5.323   4.279  0.0317  2.6846  1.3896
21627SOL    HW266604   8.833   5.251   4.386 -0.1505 -0.3848 -0.6924
21628SOL     OW66605   0.977   5.709   3.366 -1.1367  1.2364  0.1470
21628SOL    HW166606   1.070   5.732   3.371 -1.2979  2.2462 -0.9688
21628SOL    HW266607   0.977   5.617   3.340 -0.4806  0.5616  2.3219
21629SOL     OW66608   8.603   2.254   9.069 -0.4423 -0.1795 -0.2952
21629SOL    HW166609   8.585   2.344   9.095 -0.6352 -0.5006  0.7350
21629SOL    HW266610   8.562   2.201   9.137  1.2561 -1.0137  0.1255
21630SOL     OW66611   8.615   0.201   0.296 -0.3122  0.5520  0.3784
21630SOL    HW166612   8.705   0.193   0.330 -0.1410  0.7503 -0.0200
21630SOL    HW266613   8.581   0.280   0.337  0.0533  1.0456 -0.2593
21631SOL     OW66614   8.664   9.654   1.994 -0.3320 -0.1142 -0.0876
21631SOL    HW166615   8.693   9.640   1.904 -1.3378 -0.3351 -0.3907
21631SOL    HW266616   8.718   9.595   2.047  0.7056  0.4750 -0.4497
21632SOL     OW66617   7.234   3.171   0.310  0.0453  0.1479 -0.5916
21632SOL    HW166618   7.177   3.103   0.346 -0.0055  0.8595  0.7455
21632SOL    HW266619   7.323   3.139   0.326  0.0208  0.2616 -0.2182
21633SOL     OW66620   6.357   7.810   1.708  0.7688 -0.4618  0.0649
21633SOL    HW166621   6.297   7.777   1.641 -2.0330 -0.8112  2.5132
21633SOL    HW266622   6.383   7.896   1.678 -0.2489 -0.6809 -1.5539
21634SOL     OW66623   1.944   5.702   5.001  0.1937 -0.3013  0.7969
21634SOL    HW166624   1.900   5.631   4.954 -1.6795  0.7437  0.9064
21634SOL    HW266625   2.032   5.668   5.018 -0.1892 -2.0222 -0.4320
21635SOL     OW66626   7.836   9.240   1.104  0.3810  0.5394 -0.4852
21635SOL    HW166627   7.931   9.244   1.088  0.2372 -0.0345 -1.5949
21635SOL    HW266628   7.805   9.171   1.045 -0.6423  0.2877  0.3252
21636SOL     OW66629   7.072   5.536   1.758  0.2221  0.3789  0.0393
21636SOL    HW166630   7.002   5.496   1.810 -1.2881  1.9735 -0.6714
21636SOL    HW266631   7.045   5.525   1.667  1.1998  0.5124 -0.2896
21637SOL     OW66632   1.334   4.234   4.159 -0.2648  0.5902 -0.3674
21637SOL    HW166633   1.259   4.182   4.188 -0.9895  3.0127  2.7753
21637SOL    HW266634   1.298   4.323   4.149  1.4405  1.0913 -2.7640
21638SOL     OW66635   7.383   8.406   3.659 -0.4993 -0.1228  0.5767
21638SOL    HW166636   7.450   8.455   3.706  2.1196 -0.9752 -1.9806
21638SOL    HW266637   7.300   8.444   3.688  1.0906  1.7867  3.0172
21639SOL     OW66638   3.452   6.667   2.569  0.1739  0.1060  0.6919
21639SOL    HW166639   3.484   6.590   2.617 -0.4974 -0.4252  0.3154
21639SOL    HW266640   3.357   6.666   2.585 -0.0608 -0.0846 -0.6453
21640SOL     OW66641   0.647   5.426   4.735 -0.1009  0.3599 -0.2920
21640SOL    HW166642   0.655   5.396   4.644  1.9338 -3.6871  0.9498
21640SOL    HW266643   0.558   5.403   4.760 -0.2199  0.1862 -0.8612
21641SOL     OW66644   7.386   5.918   9.579 -0.8763 -0.0025 -0.1026
21641SOL    HW166645   7.446   5.974   9.628 -0.4443 -0.5204 -0.0407
21641SOL    HW266646   7.441   5.848   9.544 -1.2778  0.0353 -0.8316
21642SOL     OW66647   9.462   2.746   5.195 -0.0946 -0.1163  0.1449
21642SOL    HW166648   9.544   2.793   5.212 -0.1023  1.0512 -2.5136
21642SOL    HW266649   9.394   2.808   5.221 -0.0930  0.3438 -0.8799
21643SOL     OW66650   9.532   2.554   2.358 -0.1168  0.6143  0.2045
21643SOL    HW166651   9.625   2.563   2.334 -0.2348  2.0593  0.1829
21643SOL    HW266652   9.522   2.607   2.436 -0.9222  0.4308  0.2348
21644SOL     OW66653   0.954   5.749   6.912  0.0590 -0.2752 -0.0177
21644SOL    HW166654   0.991   5.821   6.862  1.0155 -0.4008  0.4725
21644SOL    HW266655   0.955   5.780   7.003  0.5388 -0.9049  0.2054
21645SOL     OW66656   8.816   8.519   3.456  0.0939  0.6109  0.0499
21645SOL    HW166657   8.892   8.469   3.424  0.3130  0.8795  0.1471
21645SOL    HW266658   8.806   8.590   3.393  0.4053  1.0270  0.4608
21646SOL     OW66659   4.440   0.027   4.792  0.2474  0.1558  0.1208
21646SOL    HW166660   4.427   0.081   4.715 -3.0812  0.0977  0.4853
21646SOL    HW266661   4.437   0.088   4.866  1.0463 -0.0430  0.3252
21647SOL     OW66662   2.179   7.635   5.635  0.5016  0.1790  0.4409
21647SOL    HW166663   2.269   7.604   5.642  0.2643 -0.4068  0.9193
21647SOL    HW266664   2.134   7.569   5.582  0.1114 -0.0697  1.0677
21648SOL     OW66665   9.462   6.247   6.537 -0.0616 -0.3547 -0.2720
21648SOL    HW166666   9.418   6.165   6.514  0.1759 -0.8017  0.7952
21648SOL    HW266667   9.527   6.259   6.469 -0.9400 -0.3783 -1.1437
21649SOL     OW66668   8.057   1.077   2.037 -0.6254  0.3171  0.6925
21649SOL    HW166669   7.985   1.024   2.071 -0.7290  1.1624  1.8446
21649SOL    HW266670   8.102   1.109   2.116 -0.4863  1.8182  0.0195
21650SOL     OW66671   2.411   8.098   5.081  0.0866 -0.2902 -0.2064
21650SOL    HW166672   2.361   8.093   5.163  0.1095 -0.1341 -0.1821
21650SOL    HW266673   2.483   8.159   5.100 -0.8362  1.0556 -0.8160
21651SOL     OW66674   0.653   9.412   8.442 -0.4859  0.1500 -0.0232
21651SOL    HW166675   0.674   9.428   8.350  0.8947 -0.9822  0.0541
21651SOL    HW266676   0.582   9.347   8.441  0.0194 -0.4094 -0.3086
21652SOL     OW66677   5.865   5.627   7.048  0.2683  0.5459  0.5564
21652SOL    HW166678   5.929   5.605   6.980 -0.5158  1.5082 -0.5346
21652SOL    HW266679   5.850   5.721   7.038 -1.4817  0.3186  0.6215
21653SOL     OW66680   6.527   2.800   4.759  0.1928  0.2071  0.1836
21653SOL    HW166681   6.517   2.706   4.775  1.8738 -0.3155 -1.5108
21653SOL    HW266682   6.451   2.822   4.704 -1.0830  0.2482  1.8686
21654SOL     OW66683   8.172   4.493   2.126  0.4974  0.2035 -0.4602
21654SOL    HW166684   8.221   4.576   2.124  0.7778  0.0627  0.3340
21654SOL    HW266685   8.235   4.429   2.160  0.8354 -0.7229 -2.6655
21655SOL     OW66686   5.542   9.023   7.000 -0.5112  0.4001  0.7013
21655SOL    HW166687   5.544   9.038   7.094 -0.9664 -1.7495  1.1209
21655SOL    HW266688   5.453   9.049   6.974 -1.0209 -0.6908  1.2492
21656SOL     OW66689   1.091   1.091   6.725  0.0517  0.4985 -0.1538
21656SOL    HW166690   1.117   1.109   6.815  0.7105 -0.8350 -0.0440
21656SOL    HW266691   1.125   1.003   6.708  0.7827  1.0823 -2.0184
21657SOL     OW66692   3.903   4.445   4.645  0.4556 -0.1498 -0.0912
21657SOL    HW166693   3.874   4.480   4.560 -0.3198  0.8144  0.5508
21657SOL    HW266694   3.930   4.522   4.695 -3.9268  0.1281  2.3947
21658SOL     OW66695   9.497   5.699   6.285  1.3742 -0.0555  0.1224
21658SOL    HW166696   9.566   5.643   6.250  0.1140 -2.4699  1.2206
21658SOL    HW266697   9.416   5.655   6.261  0.2837  1.5056  0.7768
21659SOL     OW66698   8.652   0.465   3.052  0.0968  0.5697 -0.3428
21659SOL    HW166699   8.586   0.476   2.983 -1.0003  1.5656  0.8032
21659SOL    HW266700   8.704   0.545   3.048 -0.2426  0.8283  0.2329
21660SOL     OW66701   0.747   4.255   2.325  0.4120  0.2402 -0.7580
21660SOL    HW166702   0.787   4.175   2.291  0.2782 -1.0124  1.7845
21660SOL    HW266703   0.818   4.301   2.369 -0.1236 -0.1294  0.5504
21661SOL     OW66704   1.731   4.199   8.921 -0.4510  0.1936  0.6905
21661SOL    HW166705   1.803   4.214   8.983 -1.3722  0.2510  1.7834
21661SOL    HW266706   1.701   4.287   8.898 -1.7066  0.2018  2.1355
21662SOL     OW66707   0.377   8.553   2.494 -0.4071 -0.1003 -0.5144
21662SOL    HW166708   0.419   8.548   2.580  1.3024  0.4823 -1.2621
21662SOL    HW266709   0.380   8.463   2.461 -2.6103 -0.6713  0.6712
21663SOL     OW66710   2.998   7.323   8.864 -0.2242 -0.4837 -0.7385
21663SOL    HW166711   2.984   7.414   8.891 -1.7010 -1.3225  1.6568
21663SOL    HW266712   3.093   7.316   8.853 -0.1674  1.5908 -2.1332
21664SOL     OW66713   6.259   5.000   9.048  0.6168  0.1734  0.4091
21664SOL    HW166714   6.189   4.937   9.067  0.8916 -0.0765  0.6094
21664SOL    HW266715   6.226   5.051   8.974 -0.7621  1.6104  1.9309
21665SOL     OW66716   1.031   1.448   2.377 -0.6141  0.1595 -0.2487
21665SOL    HW166717   0.963   1.382   2.393  0.3092 -0.3927  1.5966
21665SOL    HW266718   1.081   1.413   2.303 -2.6360  0.8845 -2.0888
21666SOL     OW66719   5.086   0.920   6.790 -0.0515 -0.3835  0.2516
21666SOL    HW166720   5.178   0.916   6.818  0.5261 -0.4730 -1.5120
21666SOL    HW266721   5.072   1.011   6.764 -0.0971 -0.6091 -0.5519
21667SOL     OW66722   2.469   6.813   7.339 -0.1134 -0.3465  0.2125
21667SOL    HW166723   2.500   6.901   7.362  2.0723 -0.2879 -2.4284
21667SOL    HW266724   2.493   6.759   7.414  2.2612  0.6275  0.2452
21668SOL     OW66725   0.239   2.711   4.216  0.2658  0.4297 -0.3354
21668SOL    HW166726   0.168   2.774   4.228  0.9657  1.9585 -3.2063
21668SOL    HW266727   0.209   2.632   4.260 -3.2947  0.9708 -1.4385
21669SOL     OW66728   8.460   5.267   9.017  0.4340 -0.1139  0.1281
21669SOL    HW166729   8.474   5.297   8.927  0.4442 -0.7514 -0.0879
21669SOL    HW266730   8.546   5.277   9.059  0.3319  0.5597  0.1831
21670SOL     OW66731   0.505   5.262   3.999 -0.0730 -0.6083 -0.2073
21670SOL    HW166732   0.488   5.174   4.036 -0.0321 -1.9047 -3.0384
21670SOL    HW266733   0.593   5.284   4.030 -0.6075 -0.9278  1.6542
21671SOL     OW66734   5.420   0.302   1.376  0.1375  0.8164 -0.1880
21671SOL    HW166735   5.514   0.282   1.372  0.3933  2.0075 -0.6551
21671SOL    HW266736   5.413   0.373   1.440 -0.6234 -0.1063  0.7858
21672SOL     OW66737   0.419   5.612   5.247  0.0296 -0.2697  0.1255
21672SOL    HW166738   0.341   5.638   5.197  0.8180 -0.0806 -1.0391
21672SOL    HW266739   0.489   5.665   5.210  0.8217 -0.8321  0.7992
21673SOL     OW66740   1.192   1.293   2.950  0.1076  0.0878 -0.3743
21673SOL    HW166741   1.238   1.234   2.890 -0.1158  0.5441 -1.0101
21673SOL    HW266742   1.243   1.291   3.030 -0.5573 -1.9122  0.0604
21674SOL     OW66743   4.012   6.369   4.603  0.5248  0.3402 -0.0784
21674SOL    HW166744   3.966   6.444   4.641  0.3677  1.3152 -2.0797
21674SOL    HW266745   4.004   6.381   4.509  1.2276 -1.7760 -0.4539
21675SOL     OW66746   1.118   2.811   5.252  0.1572 -0.2533 -0.5895
21675SOL    HW166747   1.083   2.722   5.241 -0.3664 -0.2206  0.7078
21675SOL    HW266748   1.204   2.797   5.293  0.2542 -0.1792 -0.7681
21676SOL     OW66749   1.586   0.005   3.548 -0.0512  0.0443 -0.1313
21676SOL    HW166750   1.629  -0.070   3.507  0.6317  0.2999  0.1022
21676SOL    HW266751   1.554  -0.029   3.632  0.6599  0.1187  0.1789
21677SOL     OW66752   3.043   5.602   4.447 -0.2095  0.2353  0.1354
21677SOL    HW166753   2.957   5.638   4.425  0.1894  1.0739 -0.0834
21677SOL    HW266754   3.047   5.520   4.399 -0.1514  1.0893 -1.3766
21678SOL     OW66755   2.914   2.288   5.263 -0.0010 -0.7160  0.9653
21678SOL    HW166756   2.994   2.320   5.304  0.7772 -0.7017 -0.4886
21678SOL    HW266757   2.932   2.196   5.243 -0.1954 -0.6182  0.3011
21679SOL     OW66758   1.066   7.117   4.957 -0.4120 -0.1133 -0.4152
21679SOL    HW166759   0.978   7.148   4.934 -0.6615 -0.6585 -0.2066
21679SOL    HW266760   1.125   7.173   4.906 -0.8331  0.9224  0.1965
21680SOL     OW66761   0.976   0.865   7.495 -0.1092  0.3614  0.5464
21680SOL    HW166762   1.020   0.937   7.450 -0.7213 -0.6394 -1.8230
21680SOL    HW266763   0.884   0.874   7.470 -0.0701 -1.7089 -0.6238
21681SOL     OW66764   4.675   7.014   5.763 -0.7333 -0.6877  0.0006
21681SOL    HW166765   4.717   6.986   5.682 -1.2547 -1.6308  0.0405
21681SOL    HW266766   4.731   7.083   5.798  0.4292 -1.4783 -0.2697
21682SOL     OW66767   4.725   9.128   9.192  0.0163  0.2832  0.3212
21682SOL    HW166768   4.695   9.092   9.109  1.8079  0.7572 -0.5651
21682SOL    HW266769   4.767   9.054   9.236 -1.4244 -0.1133  1.1007
21683SOL     OW66770   5.793   0.857   5.273  0.1777 -0.2339 -0.2048
21683SOL    HW166771   5.833   0.911   5.205  0.0270  0.2512  0.0844
21683SOL    HW266772   5.702   0.886   5.276  0.0829 -0.5386 -0.0796
21684SOL     OW66773   3.709   2.913   1.398 -0.5144  0.1165  0.0480
21684SOL    HW166774   3.714   2.818   1.387 -0.4625  0.0992  0.2280
21684SOL    HW266775   3.659   2.926   1.478  0.1309  0.2272  0.4401
21685SOL     OW66776   8.051   1.466   7.059  0.2388 -0.9145  0.1203
21685SOL    HW166777   8.028   1.447   7.150 -1.7865  3.3034  0.7070
21685SOL    HW266778   8.118   1.534   7.063 -0.5901  0.0778 -1.4632
21686SOL     OW66779   9.103   9.429   9.393  0.3822 -0.4184 -0.4582
21686SOL    HW166780   9.093   9.334   9.402  2.2669 -0.6304 -0.3086
21686SOL    HW266781   9.134   9.441   9.304  1.3091 -0.0524 -0.0933
21687SOL     OW66782   2.560   1.565   2.053  0.3817 -0.1891  0.3464
21687SOL    HW166783   2.638   1.549   2.000  0.4577 -2.0857  0.9428
21687SOL    HW266784   2.488   1.568   1.991  0.6652 -0.7098 -0.0102
21688SOL     OW66785   5.466   4.730   2.376  0.3528  0.5312  0.4956
21688SOL    HW166786   5.541   4.726   2.317  0.4757  0.2168  0.6684
21688SOL    HW266787   5.402   4.670   2.339 -0.5098  2.0566 -0.5858
21689SOL     OW66788   7.979   7.974   5.581  0.3013 -0.3142 -0.0882
21689SOL    HW166789   8.068   7.963   5.615  0.1526  0.3534  0.5354
21689SOL    HW266790   7.981   8.059   5.536 -0.0777 -0.1849  0.1340
21690SOL     OW66791   3.254   2.559   6.146 -0.0320 -0.1820  0.0880
21690SOL    HW166792   3.258   2.646   6.184  1.0903  0.0220 -0.4468
21690SOL    HW266793   3.168   2.526   6.170  0.6633 -0.1488  2.9968
21691SOL     OW66794   0.083   7.366   4.888 -0.1614  0.2201  0.0539
21691SOL    HW166795   0.135   7.436   4.850  0.3997 -1.1881 -1.9095
21691SOL    HW266796   0.133   7.337   4.964  0.5752  0.6383 -0.2683
21692SOL     OW66797   1.356   7.477   0.984  0.9094  0.0963  0.5274
21692SOL    HW166798   1.372   7.541   1.054 -0.6517  0.4630  0.5706
21692SOL    HW266799   1.442   7.465   0.943  1.1136  2.7265  0.0665
21693SOL     OW66800   4.313   6.252   6.784  0.4949 -0.2203  0.3993
21693SOL    HW166801   4.351   6.205   6.859  0.0670 -3.5478 -1.2727
21693SOL    HW266802   4.255   6.317   6.823  1.9178 -0.3553  2.9449
21694SOL     OW66803   9.531   9.271   7.619 -0.3116 -0.5463 -0.0083
21694SOL    HW166804   9.488   9.205   7.564  0.7283 -0.7351 -0.6122
21694SOL    HW266805   9.459   9.327   7.650 -1.1009 -1.4310 -0.2025
21695SOL     OW66806   7.873   2.730   2.367 -0.1126  0.1250 -0.2792
21695SOL    HW166807   7.795   2.775   2.400 -1.8850 -1.3059 -2.2208
21695SOL    HW266808   7.880   2.651   2.420 -0.2310  0.0498 -0.3761
21696SOL     OW66809   8.407   4.526   1.870  0.2172 -0.1797 -0.3157
21696SOL    HW166810   8.324   4.495   1.833  0.2908 -0.1887 -0.4740
21696SOL    HW266811   8.412   4.618   1.843 -0.2175  0.1037  0.5326
21697SOL     OW66812   0.535   8.790   6.114  0.4488 -0.3183 -0.3905
21697SOL    HW166813   0.565   8.736   6.187 -0.9052  0.4342  0.7635
21697SOL    HW266814   0.440   8.789   6.120  0.3635  1.5859 -0.7692
21698SOL     OW66815   0.511   6.244   4.778  0.4760 -0.0315  0.4672
21698SOL    HW166816   0.531   6.306   4.708  1.7126  0.3250  1.1002
21698SOL    HW266817   0.479   6.166   4.733  1.3529  0.1586 -0.5150
21699SOL     OW66818   7.813   5.094   4.476  0.0361  0.2296 -0.3130
21699SOL    HW166819   7.884   5.120   4.417  0.4291  0.8060  0.4072
21699SOL    HW266820   7.746   5.161   4.464 -0.9618 -0.9622 -1.9153
21700SOL     OW66821   4.669   3.963   6.748  0.4139  0.2869  0.3402
21700SOL    HW166822   4.580   3.931   6.760  0.3252  0.7011  0.8384
21700SOL    HW266823   4.686   3.952   6.655 -0.1016  0.0602  0.2683
21701SOL     OW66824   7.356   1.350   4.943 -0.0430 -0.8550  0.2210
21701SOL    HW166825   7.435   1.298   4.952 -0.1697 -1.3016 -1.0223
21701SOL    HW266826   7.321   1.326   4.857 -1.1699 -0.1785  0.4637
21702SOL     OW66827   8.804   9.544   6.266 -0.0228  0.2958  0.0962
21702SOL    HW166828   8.860   9.476   6.302 -0.0107 -0.3060 -1.0399
21702SOL    HW266829   8.759   9.581   6.343 -0.3145 -1.2392  0.6914
21703SOL     OW66830   4.788   5.731   1.616 -0.4373 -0.3957 -0.1750
21703SOL    HW166831   4.780   5.682   1.534  2.4340 -1.1307 -0.1232
21703SOL    HW266832   4.811   5.665   1.682  0.5814  0.5905  0.5084
21704SOL     OW66833   8.119   3.402   5.589  0.7480  0.4040 -0.0899
21704SOL    HW166834   8.030   3.425   5.616  1.0577  2.0713 -0.3557
21704SOL    HW266835   8.133   3.451   5.508  1.3583 -1.1052 -0.9274
21705SOL     OW66836   1.375   8.017   0.927 -0.0143 -0.5158 -0.2857
21705SOL    HW166837   1.332   7.965   0.995 -0.4945  0.5956  0.2851
21705SOL    HW266838   1.431   7.954   0.881 -0.2560 -1.4489  0.6458
21706SOL     OW66839   6.399   8.363   0.361 -0.0206  0.3414  0.8289
21706SOL    HW166840   6.398   8.267   0.365  0.7299  0.3460  1.2151
21706SOL    HW266841   6.358   8.389   0.444  2.3149  0.3521  2.0460
21707SOL     OW66842   2.665   3.819   2.908  0.2627 -0.3226 -0.0201
21707SOL    HW166843   2.642   3.799   2.817 -0.1168 -0.0356  0.0081
21707SOL    HW266844   2.736   3.883   2.901 -0.9400  1.0356 -0.1332
21708SOL     OW66845   3.924   6.959   8.929  0.0266 -0.5437 -0.4158
21708SOL    HW166846   3.930   7.018   8.854  0.1815  0.9517  0.7254
21708SOL    HW266847   4.000   6.979   8.983 -0.5059 -1.0005  0.5499
21709SOL     OW66848   5.557   2.929   2.950 -0.3274  0.2659 -0.6130
21709SOL    HW166849   5.503   2.989   3.001 -0.1110  0.1520 -0.2483
21709SOL    HW266850   5.646   2.960   2.961 -0.0245 -1.0153  0.8560
21710SOL     OW66851   2.573   2.552   7.911 -0.0894  0.3894 -0.1828
21710SOL    HW166852   2.616   2.466   7.903 -0.9337  0.1127 -2.3086
21710SOL    HW266853   2.618   2.607   7.847 -0.8374  0.9828 -0.2095
21711SOL     OW66854   1.180   7.972   2.487  0.5293  0.0937  0.2716
21711SOL    HW166855   1.192   7.922   2.568  2.9162 -2.2804 -1.3863
21711SOL    HW266856   1.262   8.020   2.477  0.6590 -0.4042 -1.1929
21712SOL     OW66857   5.033   1.193   0.954 -0.1011 -0.3838  0.2146
21712SOL    HW166858   5.076   1.167   0.873 -2.4034  0.4570 -1.3841
21712SOL    HW266859   5.047   1.288   0.959  1.9206 -0.7047  2.0650
21713SOL     OW66860   2.409   3.778   1.241  0.4034  0.8606 -0.2434
21713SOL    HW166861   2.369   3.843   1.298  0.0952  1.8223 -1.5039
21713SOL    HW266862   2.502   3.801   1.240  0.1279  2.0917 -1.6263
21714SOL     OW66863   5.687   5.731   8.099  0.3407 -0.4587 -0.3867
21714SOL    HW166864   5.775   5.766   8.113  0.0006  1.2334 -2.0927
21714SOL    HW266865   5.632   5.779   8.161  0.2532  0.2814 -1.0297
21715SOL     OW66866   0.964   6.991   4.406  0.2014 -0.7817  0.0290
21715SOL    HW166867   1.033   7.020   4.465 -2.0608  2.4901  1.3429
21715SOL    HW266868   0.917   7.071   4.383 -2.3395 -2.6754 -1.8859
21716SOL     OW66869   1.486   1.252   4.309  0.6643  0.6051 -0.6076
21716SOL    HW166870   1.560   1.223   4.364  0.1831 -0.2423 -0.3868
21716SOL    HW266871   1.482   1.187   4.239 -2.2719 -1.7154  1.4912
21717SOL     OW66872   3.374   3.207   1.256 -0.6021  0.0908  0.2778
21717SOL    HW166873   3.291   3.253   1.243 -1.1674 -0.7697  0.7637
21717SOL    HW266874   3.354   3.116   1.234  0.5206  0.0733 -0.7394
21718SOL     OW66875   7.965   2.869   1.776 -0.4395 -0.5437 -0.4848
21718SOL    HW166876   7.898   2.807   1.803 -0.9147 -0.2481 -0.9866
21718SOL    HW266877   7.973   2.930   1.850 -0.7049 -0.5872 -0.4211
21719SOL     OW66878   3.032   2.483   2.241  0.2367 -0.1923 -0.7368
21719SOL    HW166879   2.982   2.451   2.166  0.1106 -0.0710 -0.7047
21719SOL    HW266880   3.104   2.420   2.250  0.0073 -0.4480 -0.6911
21720SOL     OW66881   5.811   7.926   4.674 -0.2981 -0.1614  0.1421
21720SOL    HW166882   5.727   7.911   4.630 -0.1590 -0.2156 -0.1068
21720SOL    HW266883   5.876   7.895   4.612 -0.0948 -0.1500  0.3504
21721SOL     OW66884   3.966   8.663   2.043  0.8032  0.2162 -0.4639
21721SOL    HW166885   3.963   8.571   2.019  0.2548  0.5628 -1.8581
21721SOL    HW266886   3.875   8.686   2.060  1.1408  0.0772  1.7244
21722SOL     OW66887   9.074   0.571   0.707  0.3534 -0.3877  0.4285
21722SOL    HW166888   8.998   0.595   0.760  0.8115  0.7791  0.5732
21722SOL    HW266889   9.080   0.638   0.640  1.6184 -0.0926  0.7991
21723SOL     OW66890   3.303   4.286   3.493 -0.0231 -0.1999 -0.0363
21723SOL    HW166891   3.251   4.360   3.524  1.1492  2.0477 -2.9493
21723SOL    HW266892   3.271   4.212   3.544 -3.8313  1.5813  0.5408
21724SOL     OW66893   3.832   4.793   5.006 -0.5095 -0.0372 -0.0255
21724SOL    HW166894   3.850   4.839   5.088  0.5884 -0.1961 -0.1602
21724SOL    HW266895   3.893   4.831   4.944  0.1449 -1.3821 -0.2397
21725SOL     OW66896   5.815   3.108   5.770  0.2689 -0.5910 -1.1136
21725SOL    HW166897   5.904   3.126   5.799 -0.2144  0.5373 -0.2539
21725SOL    HW266898   5.818   3.017   5.739  2.3977  0.3433 -4.0162
21726SOL     OW66899   7.476   9.308   9.164  0.0126 -0.0633 -0.5610
21726SOL    HW166900   7.452   9.266   9.246  0.4741 -2.3993 -1.5240
21726SOL    HW266901   7.556   9.358   9.185 -1.5583  1.9541  1.0303
21727SOL     OW66902   9.408   3.263   5.457 -0.6694  0.1523 -0.3506
21727SOL    HW166903   9.447   3.336   5.506 -0.0290 -0.1839 -0.3443
21727SOL    HW266904   9.322   3.250   5.498  0.2330 -0.7604  1.3767
21728SOL     OW66905   1.891   8.959   4.140 -0.0211 -0.1605  0.4939
21728SOL    HW166906   1.916   8.867   4.149 -0.9879 -0.3433  1.5924
21728SOL    HW266907   1.833   8.961   4.064  0.5363 -0.3387  0.0642
21729SOL     OW66908   8.026   2.874   0.483 -0.0571 -0.0441  0.3305
21729SOL    HW166909   8.050   2.954   0.530  1.6453 -0.8044  0.8266
21729SOL    HW266910   8.057   2.889   0.394 -0.7547  0.2824  0.1372
21730SOL     OW66911   3.161   3.678   9.159  0.1674 -0.1465 -0.9054
21730SOL    HW166912   3.231   3.645   9.103  0.5044  1.9871 -1.8385
21730SOL    HW266913   3.204   3.703   9.240  0.1454 -0.7037 -0.7225
21731SOL     OW66914   7.151   4.299   0.404 -0.4817 -0.0349  0.2890
21731SOL    HW166915   7.215   4.355   0.447 -1.8788  2.4684 -0.6717
21731SOL    HW266916   7.202   4.225   0.371  1.3516  0.3062  2.1522
21732SOL     OW66917   0.640   3.514   2.108 -0.1404  0.1147 -0.4951
21732SOL    HW166918   0.568   3.540   2.165 -0.9253 -2.7490 -0.0247
21732SOL    HW266919   0.719   3.550   2.150 -0.9020 -0.1685  1.2635
21733SOL     OW66920   0.032   7.332   6.967  0.3722 -0.0756  0.2178
21733SOL    HW166921   0.014   7.402   6.903 -0.9285  0.0192  0.6606
21733SOL    HW266922  -0.020   7.258   6.936 -0.1275 -0.0834  1.0557
21734SOL     OW66923   8.980   7.436   2.401 -0.1517  0.1014 -0.0132
21734SOL    HW166924   8.955   7.429   2.493 -2.0937  0.8368 -0.4226
21734SOL    HW266925   8.919   7.377   2.356  1.0141 -0.5281 -0.8080
21735SOL     OW66926   4.670   6.248   6.066 -0.2676  0.0021  0.8466
21735SOL    HW166927   4.597   6.309   6.069 -0.2472  0.0190  1.0627
21735SOL    HW266928   4.629   6.162   6.057 -0.2746  0.0929 -0.0914
21736SOL     OW66929   8.569   6.365   4.939 -0.1407 -0.3505 -0.6418
21736SOL    HW166930   8.615   6.392   4.859 -0.1974 -2.2504 -1.3847
21736SOL    HW266931   8.488   6.325   4.907 -0.0638 -1.3443  0.3380
21737SOL     OW66932   2.430   2.346   6.125  0.2444  0.0479 -0.1273
21737SOL    HW166933   2.432   2.440   6.142 -0.0910  0.0903 -0.3093
21737SOL    HW266934   2.379   2.310   6.198 -0.2754  0.1014 -0.4576
21738SOL     OW66935   6.997   5.063   0.307 -0.7282  0.4327 -0.1449
21738SOL    HW166936   6.991   5.087   0.400 -0.2980 -0.7444  0.2168
21738SOL    HW266937   7.085   5.025   0.298  0.7598  3.8521 -1.9103
21739SOL     OW66938   5.437   9.442   4.915  0.0524 -0.5748  0.4808
21739SOL    HW166939   5.396   9.528   4.925  0.4502 -0.5062  1.8531
21739SOL    HW266940   5.438   9.406   5.004 -1.7634 -2.8098 -0.3230
21740SOL     OW66941   5.350   3.805   4.818 -0.3350  0.3441  0.0359
21740SOL    HW166942   5.382   3.729   4.866 -1.2709  0.6635  1.2156
21740SOL    HW266943   5.359   3.782   4.726 -2.5380 -2.0771  0.3169
21741SOL     OW66944   5.641   5.573   1.654  0.3210 -0.0386  0.2215
21741SOL    HW166945   5.622   5.490   1.698  1.0183 -1.1037 -1.4017
21741SOL    HW266946   5.700   5.550   1.583 -1.2337  1.4826 -1.6936
21742SOL     OW66947   8.655   5.170   8.371  0.5223 -0.2825 -0.2113
21742SOL    HW166948   8.646   5.264   8.386  1.1954 -0.3659  0.7960
21742SOL    HW266949   8.568   5.142   8.343  0.3925  0.6843 -0.8203
21743SOL     OW66950   1.657   9.315   8.092  0.1151 -0.0168  0.0215
21743SOL    HW166951   1.632   9.285   8.004 -0.6307  0.9637 -0.1068
21743SOL    HW266952   1.602   9.391   8.109 -0.6469 -0.9158  1.8517
21744SOL     OW66953   1.447   2.167   8.458  0.1693 -0.5633  0.0104
21744SOL    HW166954   1.430   2.160   8.364 -0.5575  0.6610  0.0334
21744SOL    HW266955   1.381   2.112   8.499  0.6648 -1.3255 -0.1952
21745SOL     OW66956   5.593   1.674   2.270 -0.1733 -0.6784 -0.2594
21745SOL    HW166957   5.521   1.737   2.261 -0.2014 -1.0159 -3.3327
21745SOL    HW266958   5.672   1.728   2.272 -0.3713 -0.4095  0.9644
21746SOL     OW66959   4.189   7.694   0.971 -0.2544  0.0944  0.8560
21746SOL    HW166960   4.122   7.711   1.038 -1.6557 -4.2472  0.8543
21746SOL    HW266961   4.266   7.669   1.021  0.0974  1.0360  0.8097
21747SOL     OW66962   5.455   6.696   6.554  0.3458  0.1213  0.1526
21747SOL    HW166963   5.484   6.673   6.465  0.4746  0.5034  0.0917
21747SOL    HW266964   5.427   6.613   6.593  1.9376 -0.3371  0.3742
21748SOL     OW66965   9.119   7.616   1.869  0.0121  0.4513  0.2679
21748SOL    HW166966   9.088   7.556   1.937  0.9703  1.2002  1.3929
21748SOL    HW266967   9.146   7.695   1.916  1.7513  0.5733 -0.8404
21749SOL     OW66968   7.489   1.837   5.629 -0.2252  0.5656 -0.8500
21749SOL    HW166969   7.558   1.802   5.684  1.4367 -0.5808 -3.4685
21749SOL    HW266970   7.508   1.931   5.623 -0.6676  0.7902  0.7299
21750SOL     OW66971   7.894   4.419   0.849 -0.2783  0.4044 -0.5637
21750SOL    HW166972   7.807   4.403   0.813 -0.4728  0.7062 -0.2373
21750SOL    HW266973   7.882   4.415   0.944  0.3640 -1.0634 -0.5243
21751SOL     OW66974   0.199   7.343   2.832  0.2966 -0.1226  0.3761
21751SOL    HW166975   0.229   7.303   2.750 -0.9031  1.8563 -1.1355
21751SOL    HW266976   0.169   7.269   2.885  0.7172 -1.4369 -1.1298
21752SOL     OW66977   1.092   9.686   3.881  0.6370 -0.2086  0.1458
21752SOL    HW166978   1.134   9.614   3.927 -1.1294 -0.7034  1.0693
21752SOL    HW266979   0.998   9.676   3.899  0.1963  1.4929 -0.8766
21753SOL     OW66980   5.049   4.035   3.550 -0.0333  0.3370  0.0580
21753SOL    HW166981   5.022   3.985   3.473  0.6410  0.7160 -0.4335
21753SOL    HW266982   5.001   4.118   3.542 -1.8527 -0.5068  1.3409
21754SOL     OW66983   4.441   2.556   2.817  0.2944 -0.2191 -0.5229
21754SOL    HW166984   4.424   2.494   2.746 -0.7041  1.9257 -2.3038
21754SOL    HW266985   4.354   2.574   2.854  0.4782  0.5680 -0.4554
21755SOL     OW66986   0.942   2.388   0.313  0.2996 -0.1386  0.7674
21755SOL    HW166987   0.974   2.320   0.253  0.4314  0.0587  0.6113
21755SOL    HW266988   0.935   2.466   0.258 -0.5144 -0.1913  0.7848
21756SOL     OW66989   3.143   5.575   9.356 -0.1560  0.0888 -0.2787
21756SOL    HW166990   3.124   5.655   9.308 -1.3235  0.3521  0.5699
21756SOL    HW266991   3.234   5.585   9.385  0.3601  0.1935 -1.8745
21757SOL     OW66992   9.400   7.079   2.039  0.2094  0.5271  0.9226
21757SOL    HW166993   9.333   7.078   1.971  1.7450  1.5349 -0.6933
21757SOL    HW266994   9.354   7.104   2.119 -1.7446 -1.2307  0.4371
21758SOL     OW66995   3.087   5.975   3.072 -0.1373 -0.2905 -0.6529
21758SOL    HW166996   3.118   5.886   3.091 -0.5045 -0.5197 -1.1155
21758SOL    HW266997   2.994   5.973   3.093  0.0496  0.2622  0.2686
21759SOL     OW66998   2.970   9.680   0.577  0.1190  0.0018  0.4520
21759SOL    HW166999   3.056   9.657   0.543  0.4617  1.7083  0.1061
21759SOL    HW267000   2.986   9.712   0.666  0.1645  2.2711 -0.3084
21760SOL     OW67001   8.915   6.594   3.107 -0.1326  0.1356 -0.4038
21760SOL    HW167002   8.899   6.508   3.069  0.6136 -0.2344  0.1097
21760SOL    HW267003   8.853   6.600   3.180 -1.8518  1.0064 -1.8530
21761SOL     OW67004   1.749   5.728   1.545  0.0254  0.0119 -0.1713
21761SOL    HW167005   1.728   5.651   1.492  0.5604  0.0102 -0.3967
21761SOL    HW267006   1.842   5.743   1.527 -0.0574  0.6571 -0.0617
21762SOL     OW67007   0.367   0.159   8.426 -0.0459 -0.2463  0.3515
21762SOL    HW167008   0.438   0.097   8.438 -0.8370 -0.8817  1.9930
21762SOL    HW267009   0.388   0.231   8.485 -0.8901 -0.5707  1.0676
21763SOL     OW67010   0.416   4.559   4.817 -0.9777  0.2836  0.0019
21763SOL    HW167011   0.343   4.500   4.799 -0.6862 -0.4858  1.2433
21763SOL    HW267012   0.490   4.500   4.836 -0.4740  1.0437  0.4377
21764SOL     OW67013   4.823   3.494   7.661 -0.9736 -0.2704  0.0237
21764SOL    HW167014   4.791   3.566   7.607  0.3097  0.8268  0.6530
21764SOL    HW267015   4.838   3.422   7.599  0.1119  0.8363 -1.0575
21765SOL     OW67016   1.284   1.595   5.506  0.1429  0.8460 -0.3222
21765SOL    HW167017   1.317   1.630   5.589  1.8503  0.8072 -0.9453
21765SOL    HW267018   1.291   1.667   5.444  0.6650  0.3470 -0.8635
21766SOL     OW67019   3.547   5.107   2.081  0.1560  0.6923  0.2816
21766SOL    HW167020   3.637   5.138   2.091  0.4354 -0.3245  1.0434
21766SOL    HW267021   3.552   5.013   2.096 -0.6092  0.1374 -2.3094
21767SOL     OW67022   5.675   7.882   4.337  0.6175 -0.2569  0.7149
21767SOL    HW167023   5.649   7.803   4.384  3.2376 -0.9377  1.1981
21767SOL    HW267024   5.749   7.855   4.283 -0.0624  1.3260 -1.1297
21768SOL     OW67025   3.436   1.469   9.045  0.2055  0.0150  0.3387
21768SOL    HW167026   3.360   1.510   9.085 -0.6961 -1.6102  0.3700
21768SOL    HW267027   3.511   1.504   9.095 -0.3701  2.3743 -0.3129
21769SOL     OW67028   4.459   4.201   6.814  0.3973 -0.9364  0.4434
21769SOL    HW167029   4.412   4.222   6.895  1.0435 -2.0088  1.1226
21769SOL    HW267030   4.549   4.187   6.842  0.5691 -1.6303 -0.4296
21770SOL     OW67031   4.775   0.897   2.853  0.5065 -0.0665 -0.9012
21770SOL    HW167032   4.745   0.984   2.829  0.3589 -0.0607 -0.6955
21770SOL    HW267033   4.734   0.879   2.938  2.1802  0.4900  0.0606
21771SOL     OW67034   2.816   5.948   0.272 -0.5508 -0.4480  0.4002
21771SOL    HW167035   2.868   5.868   0.262 -0.0222  0.0862 -1.5956
21771SOL    HW267036   2.737   5.932   0.222 -0.0042  0.5953 -0.8758
21772SOL     OW67037   7.918   6.838   7.994 -0.1755  0.0586 -0.3680
21772SOL    HW167038   7.989   6.793   8.040 -0.9025 -0.6398  0.0849
21772SOL    HW267039   7.900   6.915   8.048  0.7106  0.6326 -0.8656
21773SOL     OW67040   1.065   3.460   5.326 -0.3588 -0.3773 -0.2371
21773SOL    HW167041   1.030   3.506   5.402 -1.2395  0.8786 -1.3481
21773SOL    HW267042   1.094   3.375   5.360 -1.1854 -0.0434  1.3924
21774SOL     OW67043   3.179   9.528   2.862 -0.5645 -0.3279  0.3500
21774SOL    HW167044   3.147   9.526   2.772 -1.4511 -0.2877  0.6531
21774SOL    HW267045   3.272   9.508   2.855 -0.4122  0.6673 -0.6715
21775SOL     OW67046   3.228   7.711   7.401 -0.2986 -0.0297 -0.2968
21775SOL    HW167047   3.137   7.708   7.371  0.1186  0.3862 -1.6666
21775SOL    HW267048   3.221   7.720   7.496 -1.7225  1.9914 -0.5317
21776SOL     OW67049   2.068   4.341   9.531 -0.5841 -0.1231 -0.1523
21776SOL    HW167050   2.110   4.388   9.459 -0.7809  0.6472  0.2279
21776SOL    HW267051   2.009   4.279   9.488  0.1176 -0.4504 -0.6657
21777SOL     OW67052   1.500   1.235   5.235  0.1825  0.2324 -0.6248
21777SOL    HW167053   1.583   1.274   5.263  0.1558  1.1517 -1.7331
21777SOL    HW267054   1.440   1.253   5.307  1.1102 -1.1341  0.5382
21778SOL     OW67055   5.830   2.972   8.482  0.2870 -0.5398  0.5506
21778SOL    HW167056   5.876   2.973   8.566 -0.3532 -0.6573  0.9154
21778SOL    HW267057   5.787   2.886   8.479  1.5905 -1.1857 -0.6329
21779SOL     OW67058   1.172   4.459   4.110 -0.1958  0.0337 -0.0341
21779SOL    HW167059   1.077   4.468   4.104 -0.4414 -0.8879  1.6805
21779SOL    HW267060   1.198   4.521   4.179  0.3131 -0.4094  0.1811
21780SOL     OW67061   7.783   1.643   7.560 -0.5096 -0.5988  0.0033
21780SOL    HW167062   7.871   1.618   7.588  0.1056  2.1675  0.8495
21780SOL    HW267063   7.775   1.735   7.585 -1.8647  0.7033 -4.2984
21781SOL     OW67064   9.306   8.103   3.656  0.0535  0.5099  0.0683
21781SOL    HW167065   9.371   8.034   3.645 -3.1319 -2.8121  0.1081
21781SOL    HW267066   9.325   8.141   3.742  2.0580 -0.0596 -0.0727
21782SOL     OW67067   2.043   3.924   3.990 -0.1419 -0.6700  0.1819
21782SOL    HW167068   1.957   3.889   3.972 -0.2630  0.4266 -1.5787
21782SOL    HW267069   2.036   4.017   3.969  1.0274 -0.2055  1.6259
21783SOL     OW67070   4.812   7.454   5.224  0.6857  0.2533 -0.3043
21783SOL    HW167071   4.772   7.492   5.145  0.2318  0.3192 -0.0464
21783SOL    HW267072   4.905   7.447   5.203  0.7319  1.2221 -0.4684
21784SOL     OW67073   7.937   7.146   3.896  0.0111  0.6069  0.0760
21784SOL    HW167074   7.977   7.158   3.810 -2.0046  0.7475 -0.8879
21784SOL    HW267075   7.921   7.052   3.903  0.0144  0.6159  0.2243
21785SOL     OW67076   4.705   1.792   2.959 -0.3385  0.3143 -0.1383
21785SOL    HW167077   4.675   1.795   3.050  0.9238 -0.3823  0.3166
21785SOL    HW267078   4.667   1.871   2.919 -0.0688  1.1908  1.2593
21786SOL     OW67079   4.821   3.611   0.543 -0.0124 -0.0939  0.0777
21786SOL    HW167080   4.813   3.665   0.622  1.3457  0.5557 -0.1955
21786SOL    HW267081   4.819   3.674   0.471 -2.8935 -0.7999 -0.5717
21787SOL     OW67082   1.003   6.182   8.150  0.3617  0.4622 -0.0361
21787SOL    HW167083   1.091   6.218   8.162  1.6603 -2.1317 -0.9837
21787SOL    HW267084   0.958   6.200   8.232  2.9584 -1.1136  1.8720
21788SOL     OW67085   5.552   4.913   8.427  0.3494  0.1802 -0.1695
21788SOL    HW167086   5.508   4.992   8.396 -0.4873  0.4645  1.5831
21788SOL    HW267087   5.501   4.841   8.390 -0.6883  0.5007  0.5793
21789SOL     OW67088   0.253   1.804   0.704 -0.1795 -0.1577 -0.6331
21789SOL    HW167089   0.181   1.851   0.747  0.3913 -0.9665  1.3135
21789SOL    HW267090   0.213   1.767   0.625 -1.6907  0.1098 -0.0340
21790SOL     OW67091   7.239   9.164   0.154  0.8044 -0.5537 -0.5868
21790SOL    HW167092   7.180   9.142   0.226  0.7876  0.8090 -0.1452
21790SOL    HW267093   7.310   9.213   0.195  0.3655  0.9999 -1.5640
21791SOL     OW67094   8.220   9.692   4.188 -0.2024  0.0444 -0.8264
21791SOL    HW167095   8.164   9.724   4.258  0.8857 -1.0067  0.6017
21791SOL    HW267096   8.264   9.770   4.155  0.6064  0.3928  0.9329
21792SOL     OW67097   2.943   0.974   8.996  0.3853 -0.5141  0.4322
21792SOL    HW167098   3.023   1.015   9.030  1.5061 -2.5732  0.3838
21792SOL    HW267099   2.942   0.998   8.903  0.3077  0.4899  0.6814
21793SOL     OW67100   1.799   9.497   5.235 -0.5266 -0.3448  0.6472
21793SOL    HW167101   1.772   9.541   5.155  0.7610  1.6082  1.1937
21793SOL    HW267102   1.878   9.544   5.262 -1.1583 -0.6364  3.2935
21794SOL     OW67103   6.927   2.094   1.232 -0.5479 -0.2643 -0.3642
21794SOL    HW167104   6.852   2.067   1.179 -0.3133 -1.5648 -0.0681
21794SOL    HW267105   7.000   2.040   1.199 -0.1466 -0.2714  0.5100
21795SOL     OW67106   5.641   7.390   6.925 -0.1311  0.0411  0.1408
21795SOL    HW167107   5.561   7.354   6.887 -1.2901  0.7202  1.8392
21795SOL    HW267108   5.688   7.428   6.850 -0.3835 -2.0936 -1.1889
21796SOL     OW67109   2.516   4.840   0.275 -0.7400 -0.1417  0.6373
21796SOL    HW167110   2.562   4.890   0.343 -1.2297  0.2394  0.6930
21796SOL    HW267111   2.549   4.750   0.285  0.7933  0.3175 -0.0254
21797SOL     OW67112   7.849   7.020   8.174 -0.5226 -0.1087 -0.4190
21797SOL    HW167113   7.912   7.091   8.159 -0.5309 -0.5177 -2.7327
21797SOL    HW267114   7.872   6.985   8.260  1.6612  0.5083 -0.6946
21798SOL     OW67115   7.033   3.316   3.537  0.2072 -0.6012 -0.2235
21798SOL    HW167116   7.092   3.314   3.613  0.7690 -0.6749 -0.6540
21798SOL    HW267117   6.963   3.375   3.563 -0.0224 -1.2373  0.6568
21799SOL     OW67118   8.605   1.007   5.450 -0.5629  0.6304  0.3339
21799SOL    HW167119   8.530   1.021   5.391  0.6612  2.6923 -0.8772
21799SOL    HW267120   8.625   0.914   5.443 -1.3393  0.5660 -1.4601
21800SOL     OW67121   7.928   6.443   5.682  0.0248 -0.2627  0.1724
21800SOL    HW167122   8.005   6.499   5.681 -0.0963 -0.0860 -0.6126
21800SOL    HW267123   7.886   6.460   5.766 -0.1136  0.9793 -0.1225
21801SOL     OW67124   2.345   0.293   7.702  0.0594 -0.1813 -0.0920
21801SOL    HW167125   2.272   0.320   7.758  1.7193  1.2494  1.5099
21801SOL    HW267126   2.325   0.331   7.616 -1.1909 -0.0464  0.2425
21802SOL     OW67127   3.289   1.740   4.773 -0.1947  0.2434 -0.6988
21802SOL    HW167128   3.269   1.682   4.847 -2.1144  1.2824 -0.3532
21802SOL    HW267129   3.211   1.795   4.763  0.3279  0.6727 -3.0128
21803SOL     OW67130   8.396   5.785   8.122  0.3989  0.2677  0.6798
21803SOL    HW167131   8.357   5.863   8.160  1.4497  1.0193  0.2666
21803SOL    HW267132   8.479   5.775   8.169 -1.3586 -2.8778  3.5247
21804SOL     OW67133   9.512   6.843   3.760 -0.1481  0.2826 -1.3601
21804SOL    HW167134   9.438   6.823   3.818 -0.8581 -0.3192 -2.4340
21804SOL    HW267135   9.471   6.888   3.685  0.6554  0.4237 -1.7203
21805SOL     OW67136   5.826   9.667   1.388  0.0421 -0.0581 -0.7552
21805SOL    HW167137   5.861   9.585   1.422 -2.1752 -0.3497  1.0418
21805SOL    HW267138   5.763   9.640   1.321 -0.0323  0.2297 -0.8017
21806SOL     OW67139   4.304   9.147   8.946  0.1152 -0.5221 -0.2877
21806SOL    HW167140   4.376   9.156   8.883  0.0943  1.1531 -0.1301
21806SOL    HW267141   4.347   9.141   9.031  0.0925 -0.4555 -0.2711
21807SOL     OW67142   0.303   2.168   9.544  0.8131 -0.4455  0.4368
21807SOL    HW167143   0.362   2.228   9.590 -0.7865  0.5396  1.2704
21807SOL    HW267144   0.226   2.221   9.524 -0.0696 -1.8789 -0.0578
21808SOL     OW67145   6.838   7.127   7.984  0.1471 -0.4100  0.2277
21808SOL    HW167146   6.828   7.215   7.948  1.2897 -0.2071  0.3705
21808SOL    HW267147   6.753   7.086   7.971 -0.3781  0.6914  0.1035
21809SOL     OW67148   1.831   1.415   5.679  0.5534 -0.7767 -0.0299
21809SOL    HW167149   1.880   1.360   5.741  1.7344  1.5386  1.2207
21809SOL    HW267150   1.881   1.409   5.597 -0.3667 -2.9215 -0.5274
21810SOL     OW67151   6.896   7.085   9.022  0.2198 -0.0639  0.2287
21810SOL    HW167152   6.866   7.152   9.083 -0.1447 -1.1342  1.2735
21810SOL    HW267153   6.951   7.132   8.959  0.2344  1.1504  1.1180
21811SOL     OW67154   7.567   3.106   8.752 -0.1440 -0.9281  0.2032
21811SOL    HW167155   7.634   3.115   8.685 -1.6766 -1.9460 -1.5441
21811SOL    HW267156   7.606   3.046   8.816  1.3016 -0.0274  0.2154
21812SOL     OW67157   8.105   6.286   4.204  0.8012  0.1134 -0.9106
21812SOL    HW167158   8.171   6.354   4.190  3.1628 -0.1074  5.8265
21812SOL    HW267159   8.041   6.326   4.263 -0.6699 -2.0967 -0.8833
21813SOL     OW67160   1.463   0.658   0.328  0.7841 -0.0790  0.5699
21813SOL    HW167161   1.520   0.603   0.383  2.5807 -0.6543 -1.7057
21813SOL    HW267162   1.503   0.745   0.331 -0.3530  0.4353  1.8011
21814SOL     OW67163   8.825   0.835   8.609  0.1018  0.3054  0.4718
21814SOL    HW167164   8.782   0.771   8.665 -0.0512 -0.5347 -0.5683
21814SOL    HW267165   8.827   0.794   8.523  0.4994  1.4815 -0.1047
21815SOL     OW67166   6.163   8.978   1.830 -0.1856 -0.7933 -0.0191
21815SOL    HW167167   6.095   9.026   1.782 -0.8673  1.2953  2.7075
21815SOL    HW267168   6.244   9.026   1.812 -0.5429  0.3653  1.2145
21816SOL     OW67169   6.996   4.260   1.072 -0.4447  0.2504 -0.0583
21816SOL    HW167170   6.941   4.251   1.150 -0.9552  0.1763 -0.4235
21816SOL    HW267171   7.015   4.169   1.046 -2.0800  0.2191 -1.2760
21817SOL     OW67172   5.850   0.920   1.147 -0.7318 -0.6780  1.0505
21817SOL    HW167173   5.810   1.002   1.118  1.0900  0.2342  0.9345
21817SOL    HW267174   5.940   0.945   1.171  0.4955 -2.9606 -0.7873
21818SOL     OW67175   8.735   4.385   3.519  0.0322  0.1350 -0.2691
21818SOL    HW167176   8.642   4.367   3.507  0.0758  0.2805 -0.8467
21818SOL    HW267177   8.779   4.303   3.496 -0.0069 -0.2520  0.9815
21819SOL     OW67178   0.384   0.551   9.325  0.3061 -0.6962  0.4956
21819SOL    HW167179   0.367   0.502   9.245  0.8469  0.1128 -0.1394
21819SOL    HW267180   0.442   0.622   9.297 -1.2380  0.9063  1.1705
21820SOL     OW67181   6.986   6.435   0.801  0.5735 -0.2686  0.5042
21820SOL    HW167182   7.072   6.449   0.842  0.4539  0.6841  0.4574
21820SOL    HW267183   6.970   6.516   0.752 -0.6785 -0.1364  1.1105
21821SOL     OW67184   1.384   2.100   1.619 -0.0788  0.2155  0.1448
21821SOL    HW167185   1.321   2.171   1.610  0.1209  0.1846 -2.0170
21821SOL    HW267186   1.400   2.093   1.713  0.0745  3.1828  0.4253
21822SOL     OW67187   0.847   0.937   6.890 -0.4541  0.0032 -0.0916
21822SOL    HW167188   0.865   1.017   6.939 -0.2230  0.0313 -0.2186
21822SOL    HW267189   0.861   0.962   6.798 -1.0213 -0.0100 -0.1852
21823SOL     OW67190   2.604   6.695   6.391 -0.4472  0.0201 -0.1728
21823SOL    HW167191   2.677   6.649   6.349 -0.8952 -0.7389 -0.1397
21823SOL    HW267192   2.613   6.786   6.362  0.7540  0.0268  0.1741
21824SOL     OW67193   6.487   0.111   9.491 -0.0312 -0.1482  0.0530
21824SOL    HW167194   6.442   0.177   9.544  0.7571 -0.6628  1.4157
21824SOL    HW267195   6.471   0.029   9.536 -0.7744 -0.8957 -1.4805
21825SOL     OW67196   6.304   6.413   7.683  0.2083 -0.2501  0.2714
21825SOL    HW167197   6.256   6.390   7.762  1.8284 -0.2999  1.2815
21825SOL    HW267198   6.369   6.342   7.672 -1.7043 -1.7798 -2.6930
21826SOL     OW67199   8.523   8.416   6.812  0.3934 -0.4831 -0.8508
21826SOL    HW167200   8.525   8.481   6.883 -0.4846 -1.2698 -0.0701
21826SOL    HW267201   8.432   8.415   6.782  0.5119 -0.9703 -1.2129
21827SOL     OW67202   0.054   4.631   3.199 -0.4445 -0.7230  0.4686
21827SOL    HW167203  -0.023   4.595   3.243 -0.0688 -1.0551  0.8784
21827SOL    HW267204   0.021   4.671   3.119 -1.6606  2.8714  2.5543
21828SOL     OW67205   7.714   0.302   2.718 -0.8349 -0.0997  0.2905
21828SOL    HW167206   7.671   0.300   2.632 -0.8381 -1.6830  0.2906
21828SOL    HW267207   7.797   0.346   2.702 -1.0403  0.0555 -0.4198
21829SOL     OW67208   8.230   0.395   7.679  0.1841  0.2489  0.1163
21829SOL    HW167209   8.167   0.338   7.635  0.4298 -0.0017  0.0918
21829SOL    HW267210   8.308   0.342   7.689 -0.4505 -0.3441  2.5256
21830SOL     OW67211   4.924   4.147   7.688 -0.1221 -0.9708 -0.0653
21830SOL    HW167212   4.922   4.056   7.720  1.0656 -0.2793  2.2042
21830SOL    HW267213   4.832   4.170   7.676 -0.6603 -1.5144  2.4344
21831SOL     OW67214   7.211   0.648   4.821  0.3689 -0.2659 -1.2805
21831SOL    HW167215   7.143   0.593   4.784 -1.0047  1.2299 -1.0617
21831SOL    HW267216   7.284   0.641   4.758 -0.5558 -0.6356 -2.3443
21832SOL     OW67217   2.416   8.087   0.148  0.0044 -0.3102 -0.2132
21832SOL    HW167218   2.441   8.007   0.195  0.7141  0.5713  0.9822
21832SOL    HW267219   2.421   8.156   0.214  0.0330  0.8275 -1.3624
21833SOL     OW67220   8.069   6.301   2.503  0.1565  0.2512 -0.3108
21833SOL    HW167221   7.981   6.263   2.491  0.3651  0.0166 -1.1491
21833SOL    HW267222   8.065   6.385   2.458  0.7313 -0.3091 -1.4370
21834SOL     OW67223   5.056   2.358   6.271 -0.0767  0.3404  0.0608
21834SOL    HW167224   5.042   2.444   6.311 -1.7663 -0.6998  1.8540
21834SOL    HW267225   5.134   2.323   6.315  0.1120  0.6011 -0.0647
21835SOL     OW67226   7.915   4.483   7.049 -0.4854  0.0901  0.1292
21835SOL    HW167227   8.002   4.444   7.047 -0.5873 -0.1712  0.6481
21835SOL    HW267228   7.874   4.446   7.127 -1.4090 -0.5401 -0.6307
21836SOL     OW67229   0.081   3.130   4.809 -0.0384  0.3306  0.0092
21836SOL    HW167230   0.038   3.164   4.887 -0.3882  0.7979 -0.3857
21836SOL    HW267231   0.010   3.105   4.751  0.2231  0.0232 -0.1828
21837SOL     OW67232   7.529   9.080   6.859  0.1222  0.0059  0.1313
21837SOL    HW167233   7.436   9.104   6.862  0.0325 -0.2796 -0.3101
21837SOL    HW267234   7.546   9.038   6.943 -0.0580  0.3827  0.3585
21838SOL     OW67235   0.768   6.449   4.904  0.2193  0.6379  0.0006
21838SOL    HW167236   0.676   6.477   4.911  0.3584  1.4898 -1.1439
21838SOL    HW267237   0.815   6.508   4.963  0.0632  0.3553  0.4117
21839SOL     OW67238   7.568   1.202   0.036 -0.2355  0.2995  0.8975
21839SOL    HW167239   7.554   1.290   0.072  1.0765  1.0437 -0.3322
21839SOL    HW267240   7.504   1.195  -0.035 -0.2154  0.3434  0.8747
21840SOL     OW67241   3.977   9.169   7.617  0.1277 -1.0426  1.2265
21840SOL    HW167242   4.023   9.237   7.567 -0.4123 -0.1853  1.8797
21840SOL    HW267243   3.972   9.095   7.556 -0.1051 -0.1790  0.1635
21841SOL     OW67244   9.643   3.907   3.804 -0.8154 -0.3585 -0.0789
21841SOL    HW167245   9.606   3.864   3.880 -0.6353 -0.9999 -0.3467
21841SOL    HW267246   9.609   3.997   3.807 -1.5414 -0.6451  0.2389
21842SOL     OW67247   9.637   6.902   4.593  0.1372 -0.0008 -0.0015
21842SOL    HW167248   9.666   6.811   4.583 -0.5187 -0.2781  0.5447
21842SOL    HW267249   9.704   6.953   4.548 -1.3132 -0.9618 -3.5630
21843SOL     OW67250   6.582   9.256   8.930 -0.0655  0.2524  0.0664
21843SOL    HW167251   6.532   9.226   8.854  2.9030 -2.8462 -0.8824
21843SOL    HW267252   6.566   9.189   8.996 -1.7311  2.3534  1.9746
21844SOL     OW67253   1.305   4.463   9.045  0.4008  0.1278 -0.1177
21844SOL    HW167254   1.264   4.470   8.959 -0.3489 -0.3666  0.1876
21844SOL    HW267255   1.270   4.537   9.095  0.7444  0.3468 -0.1997
21845SOL     OW67256   4.217   9.579   8.322 -0.7472 -0.1449  0.0158
21845SOL    HW167257   4.187   9.516   8.256  0.9476 -0.4119 -0.5404
21845SOL    HW267258   4.299   9.613   8.287  0.0922 -0.1318  1.8831
21846SOL     OW67259   5.157   9.454   9.547  0.5061 -0.1244 -0.0536
21846SOL    HW167260   5.066   9.469   9.523  0.7769  0.1821 -0.9166
21846SOL    HW267261   5.159   9.465   9.642 -0.3235  0.0193 -0.0498
21847SOL     OW67262   3.636   9.286   2.772 -0.0054 -0.1446  0.4346
21847SOL    HW167263   3.712   9.338   2.745 -0.2105 -0.7203 -1.3789
21847SOL    HW267264   3.671   9.198   2.785  0.0254  0.0537  1.8104
21848SOL     OW67265   1.627   4.351   4.256  0.7172 -0.3200 -0.6004
21848SOL    HW167266   1.578   4.269   4.250 -0.6152  0.4611 -0.7874
21848SOL    HW267267   1.677   4.355   4.175  2.5948 -1.9998  0.3682
21849SOL     OW67268   7.025   9.163   0.361 -0.9926  0.2009  0.3305
21849SOL    HW167269   7.065   9.076   0.368 -1.0138  0.2410  1.0160
21849SOL    HW267270   6.983   9.163   0.276  2.0804  0.8370 -1.3498
21850SOL     OW67271   8.428   7.074   2.389 -0.0882 -0.1973  0.6938
21850SOL    HW167272   8.374   7.018   2.333  0.4789  0.4956 -0.6041
21850SOL    HW267273   8.376   7.154   2.399  0.1298 -0.0382  0.5492
21851SOL     OW67274   4.402   0.327   1.827  0.4933 -0.3497 -0.2886
21851SOL    HW167275   4.472   0.323   1.762  1.3395  1.6409  0.4196
21851SOL    HW267276   4.340   0.392   1.793 -0.4445 -1.2613 -0.3655
21852SOL     OW67277   7.243   5.965   0.101 -0.2639  0.6793  0.1781
21852SOL    HW167278   7.156   5.927   0.097 -0.0767  0.3464 -1.4689
21852SOL    HW267279   7.282   5.947   0.015  0.2347  3.6438 -0.3567
21853SOL     OW67280   0.098   6.583   8.931 -0.1239  0.1083 -0.3211
21853SOL    HW167281   0.125   6.626   8.851  1.1788  2.4429  1.2592
21853SOL    HW267282   0.169   6.601   8.993 -1.9721  0.1244  1.9130
21854SOL     OW67283   3.431   5.563   8.319  0.2212  0.0323  0.5829
21854SOL    HW167284   3.336   5.554   8.319  0.0052  1.8970  1.1407
21854SOL    HW267285   3.463   5.478   8.289 -1.5822 -0.9118  1.1768
21855SOL     OW67286   9.295   2.478   0.233 -0.0184 -0.2875 -0.1403
21855SOL    HW167287   9.273   2.397   0.187  2.4547 -1.2674  0.2402
21855SOL    HW267288   9.322   2.449   0.320  0.6811  0.9637  0.0803
21856SOL     OW67289   7.621   7.215   3.632 -0.5202 -0.3018 -0.3187
21856SOL    HW167290   7.695   7.276   3.637  0.4286 -1.4930  1.0731
21856SOL    HW267291   7.556   7.261   3.580  0.8200  1.1955 -0.7564
21857SOL     OW67292   1.662   8.488   3.926  0.5030 -0.0069  0.0890
21857SOL    HW167293   1.679   8.421   3.992 -1.0131  0.9077  1.5025
21857SOL    HW267294   1.567   8.484   3.912  0.5780  0.9449 -0.7689
21858SOL     OW67295   4.062   8.895   0.947 -0.0954 -0.2264 -0.2680
21858SOL    HW167296   4.036   8.925   1.034 -0.0998 -1.0625  0.0281
21858SOL    HW267297   4.130   8.957   0.920 -1.0869  0.8928 -0.2902
21859SOL     OW67298   3.541   2.215   5.016 -0.4311  0.3490 -0.6360
21859SOL    HW167299   3.604   2.180   4.954 -0.5466 -1.4352  0.1691
21859SOL    HW267300   3.567   2.178   5.101 -0.9366  1.7967  0.1999
21860SOL     OW67301   5.543   7.778   7.549  0.8139 -0.2660 -0.1218
21860SOL    HW167302   5.575   7.755   7.636  0.3196  1.0218  0.4225
21860SOL    HW267303   5.603   7.847   7.519 -0.3972  0.9676  0.2018
21861SOL     OW67304   3.587   1.966   0.620  0.8622  0.0403  0.0270
21861SOL    HW167305   3.663   1.947   0.674  0.9687  0.5783  0.0702
21861SOL    HW267306   3.623   2.000   0.538  0.6645  0.9381  0.2960
21862SOL     OW67307   8.197   7.697   2.464  0.5769 -0.1247 -0.3280
21862SOL    HW167308   8.113   7.673   2.424  1.5658 -0.8860 -2.0369
21862SOL    HW267309   8.178   7.700   2.558 -1.4974  0.3330 -0.7138
21863SOL     OW67310   7.013   8.004   8.680  0.7494  0.3940  0.6947
21863SOL    HW167311   7.029   8.091   8.716  0.0990  1.5979 -1.6597
21863SOL    HW267312   6.921   7.987   8.697  0.1444  1.4524 -1.1355
21864SOL     OW67313   3.611   6.757   1.744  0.7370 -0.2859 -0.2300
21864SOL    HW167314   3.631   6.829   1.684 -1.2440  1.3156  0.9262
21864SOL    HW267315   3.559   6.696   1.692 -2.8560  2.1216  0.2049
21865SOL     OW67316   3.187   5.837   7.078 -0.5365  0.1151 -0.2276
21865SOL    HW167317   3.173   5.899   7.149  1.3056 -0.0275  0.3073
21865SOL    HW267318   3.233   5.887   7.011  2.9386 -1.0562  1.0746
21866SOL     OW67319   4.772   3.385   7.317  0.2571  0.1215  0.1917
21866SOL    HW167320   4.807   3.473   7.304 -0.8620  0.7134  1.0084
21866SOL    HW267321   4.818   3.353   7.394  1.9122 -0.7109 -1.0903
21867SOL     OW67322   7.707   9.324   1.862  0.1733 -0.4246  0.1833
21867SOL    HW167323   7.717   9.377   1.783  0.4329 -2.1100 -0.9480
21867SOL    HW267324   7.782   9.350   1.917  0.7155 -0.1551 -0.6581
21868SOL     OW67325   0.567   2.446   4.412 -0.0167  0.3301  0.4159
21868SOL    HW167326   0.608   2.513   4.358 -0.5430 -0.0669 -0.5100
21868SOL    HW267327   0.563   2.484   4.500  2.8830  0.1415  0.7222
21869SOL     OW67328   8.521   6.576   5.176  0.9294 -0.1896 -0.2342
21869SOL    HW167329   8.437   6.540   5.205  0.5968  1.6188  1.2751
21869SOL    HW267330   8.523   6.560   5.082 -0.4070 -1.6176 -0.0603
21870SOL     OW67331   1.042   5.123   6.511  0.2679 -1.1252 -0.3961
21870SOL    HW167332   1.003   5.047   6.555  1.6197 -1.7129 -0.1553
21870SOL    HW267333   1.097   5.163   6.577  0.7925 -0.8529 -0.9898
21871SOL     OW67334   5.056   7.141   7.377 -0.0013  0.0684 -0.1785
21871SOL    HW167335   5.122   7.188   7.326  0.0970 -0.0508 -0.1605
21871SOL    HW267336   5.073   7.048   7.360 -1.0846  0.0507 -1.3605
21872SOL     OW67337   9.180   4.416   9.287  0.7291 -0.2750 -0.1997
21872SOL    HW167338   9.254   4.360   9.312  0.3797  0.1650  2.0387
21872SOL    HW267339   9.219   4.483   9.230  1.3649 -2.0338 -1.9440
21873SOL     OW67340   3.181   2.279   9.564 -0.5380 -0.2060 -0.0429
21873SOL    HW167341   3.131   2.258   9.643  0.7714 -1.8638  0.3875
21873SOL    HW267342   3.214   2.368   9.579 -2.4307  0.5153  0.1057
21874SOL     OW67343   8.401   7.890   0.248  0.1328 -0.0255 -0.3123
21874SOL    HW167344   8.352   7.900   0.329 -0.2614 -0.3820 -0.4997
21874SOL    HW267345   8.462   7.818   0.266  0.1381 -0.0152 -0.2904
21875SOL     OW67346   4.066   6.320   3.387  0.4047  0.6316  0.3898
21875SOL    HW167347   4.030   6.366   3.462 -2.4650 -1.7157  0.6174
21875SOL    HW267348   4.050   6.379   3.313  1.0967  1.9224  1.2231
21876SOL     OW67349   4.131   7.209   7.376  0.3684 -0.4424  0.2544
21876SOL    HW167350   4.161   7.279   7.318 -1.0386  0.5150  0.6165
21876SOL    HW267351   4.189   7.215   7.452 -0.0127  0.6743  0.4886
21877SOL     OW67352   7.427   4.640   2.432  0.2204 -0.0817  0.5387
21877SOL    HW167353   7.468   4.721   2.461  1.8372 -0.7979  0.3209
21877SOL    HW267354   7.437   4.580   2.507  2.7745 -1.3610 -0.7205
21878SOL     OW67355   4.409   9.058   2.769 -0.4508 -0.1738  0.2732
21878SOL    HW167356   4.499   9.033   2.750 -0.4512  1.3806 -2.2165
21878SOL    HW267357   4.356   8.988   2.732 -0.2926  0.0637 -0.4201
21879SOL     OW67358   1.786   2.437   4.566 -0.4581  0.3440  0.0909
21879SOL    HW167359   1.696   2.420   4.540 -0.4201 -1.6173  1.0833
21879SOL    HW267360   1.836   2.431   4.485 -0.9951 -0.4113 -0.1941
21880SOL     OW67361   5.160   4.895   1.179 -0.4700  0.0730  0.1366
21880SOL    HW167362   5.254   4.905   1.162 -0.2935 -0.3886  0.7926
21880SOL    HW267363   5.156   4.847   1.261 -1.2761 -1.2984 -0.6615
21881SOL     OW67364   6.938   0.022   7.270 -0.4740  0.5352  0.2912
21881SOL    HW167365   6.966   0.097   7.321  0.5297  0.6680 -0.4300
21881SOL    HW267366   6.990  -0.051   7.304  0.1467  0.6106 -0.4761
21882SOL     OW67367   5.273   8.132   2.299 -0.0577 -0.3039 -0.1827
21882SOL    HW167368   5.292   8.090   2.383  1.6087  0.4506 -0.1319
21882SOL    HW267369   5.320   8.216   2.304 -2.3945  1.1031 -0.6976
21883SOL     OW67370   3.018   9.506   8.702  0.0586  0.2212 -0.1891
21883SOL    HW167371   3.069   9.459   8.636  1.3202 -0.0058  0.8990
21883SOL    HW267372   2.941   9.450   8.718  0.3193 -0.2720 -0.6494
21884SOL     OW67373   8.185   7.636   8.113  0.2633 -0.1714 -0.7926
21884SOL    HW167374   8.268   7.594   8.132 -0.4520 -0.8939  0.9252
21884SOL    HW267375   8.209   7.723   8.081  1.6739 -0.1310  0.2821
21885SOL     OW67376   1.802   3.757   0.779  0.2248  0.1896  0.4898
21885SOL    HW167377   1.747   3.807   0.719 -0.0734 -0.3757  0.2812
21885SOL    HW267378   1.863   3.710   0.722  0.5052  0.3199  0.6827
21886SOL     OW67379   7.714   6.893   2.359  0.2737 -0.0533 -0.0448
21886SOL    HW167380   7.747   6.890   2.269 -0.3518 -0.7725 -0.2561
21886SOL    HW267381   7.619   6.901   2.351  0.1635 -0.6655  0.5474
21887SOL     OW67382   0.511   2.016   6.281 -0.2780 -0.1704 -0.3271
21887SOL    HW167383   0.492   1.974   6.198  1.2300 -0.3971 -0.5856
21887SOL    HW267384   0.530   2.107   6.258  0.2954 -0.2690 -0.2671
21888SOL     OW67385   4.723   4.877   8.677  0.1483 -0.3160  0.4525
21888SOL    HW167386   4.773   4.918   8.748  1.8095 -1.6793  0.1309
21888SOL    HW267387   4.632   4.896   8.698  0.5928 -0.6735  2.9687
21889SOL     OW67388   7.494   2.370   7.217  0.1906  0.5357  0.1270
21889SOL    HW167389   7.543   2.407   7.291 -0.8519  1.1253  0.5323
21889SOL    HW267390   7.498   2.439   7.150  2.1586 -0.4533 -0.8728
21890SOL     OW67391   9.277   2.154   0.242  0.2289  0.1259  0.3454
21890SOL    HW167392   9.223   2.188   0.170 -0.0938 -2.5820 -0.8324
21890SOL    HW267393   9.215   2.139   0.313 -0.0379 -0.0964  0.0708
21891SOL     OW67394   7.473   3.859   6.631 -0.2120  0.1196 -0.3341
21891SOL    HW167395   7.503   3.919   6.563  0.0281  0.8421  0.3954
21891SOL    HW267396   7.507   3.896   6.713  0.2522 -1.2030  0.0978
21892SOL     OW67397   8.638   3.173   4.958 -0.0207 -0.4352 -0.1514
21892SOL    HW167398   8.604   3.092   4.920  1.2327 -0.0340 -2.3101
21892SOL    HW267399   8.730   3.154   4.978  0.2828  0.4243 -0.6750
21893SOL     OW67400   5.027   8.167   6.153  0.2193 -0.7534 -0.0309
21893SOL    HW167401   4.939   8.135   6.135 -0.0609  0.6336 -1.3647
21893SOL    HW267402   5.020   8.212   6.237 -0.6012  0.1618 -0.5698
21894SOL     OW67403   4.101   1.144   2.785  0.0261  0.0932  0.3257
21894SOL    HW167404   4.095   1.049   2.788 -1.1849  0.1008 -0.9312
21894SOL    HW267405   4.186   1.161   2.744  0.5179 -0.4255  1.1108
21895SOL     OW67406   5.432   3.436   6.149  0.4757 -0.2532 -0.4079
21895SOL    HW167407   5.387   3.393   6.221  0.2788 -1.1830 -1.0600
21895SOL    HW267408   5.498   3.492   6.190  0.7889 -1.2422  0.4781
21896SOL     OW67409   1.136   5.887   4.145 -0.1815  0.6539  0.6602
21896SOL    HW167410   1.046   5.854   4.143  0.3629 -0.9184 -1.8469
21896SOL    HW267411   1.190   5.809   4.144  1.1730  1.5423 -1.1260
21897SOL     OW67412   6.550   8.541   8.974  0.3225 -0.5419 -0.1964
21897SOL    HW167413   6.473   8.595   8.952  1.1271  0.3539 -0.8866
21897SOL    HW267414   6.527   8.499   9.057 -1.8241 -2.0637 -1.4398
21898SOL     OW67415   7.802   6.464   0.398  0.2809 -0.4057 -0.2661
21898SOL    HW167416   7.711   6.493   0.404  1.0200  1.8468  1.8358
21898SOL    HW267417   7.829   6.486   0.308 -0.9915 -0.3549 -0.6475
21899SOL     OW67418   1.379   3.074   8.291 -0.1448  0.4287 -0.2204
21899SOL    HW167419   1.412   3.089   8.203  1.6924  2.1386  0.6914
21899SOL    HW267420   1.369   3.161   8.329  3.2884 -0.2150  2.6626
21900SOL     OW67421   0.100   4.062   5.454  0.0058 -0.5778  0.1442
21900SOL    HW167422   0.172   4.002   5.474  0.8315  0.8714  1.8037
21900SOL    HW267423   0.028   4.033   5.509  0.0105 -0.7564  0.0571
21901SOL     OW67424   9.483   4.391   2.939  0.3630  0.1946 -0.0996
21901SOL    HW167425   9.515   4.366   2.853  2.1521  0.0127  0.5698
21901SOL    HW267426   9.524   4.476   2.957 -1.2304  0.9928 -0.0463
21902SOL     OW67427   0.504   3.576   2.964 -0.1227  0.5397  0.4252
21902SOL    HW167428   0.571   3.565   3.032 -0.3705  1.0961  0.7647
21902SOL    HW267429   0.433   3.622   3.008  0.2018  1.9993 -0.5294
21903SOL     OW67430   1.709   0.224   7.594 -0.0621 -0.5014 -0.1250
21903SOL    HW167431   1.626   0.264   7.620  0.3073  1.8856 -2.2441
21903SOL    HW267432   1.741   0.180   7.673 -2.5857 -0.2012  1.1496
21904SOL     OW67433   5.826   6.225   3.621  0.0141 -0.2656 -0.1852
21904SOL    HW167434   5.787   6.210   3.707  0.9874 -2.5312 -0.0772
21904SOL    HW267435   5.752   6.229   3.561 -0.7510  2.2172  0.7910
21905SOL     OW67436   3.197   8.590   5.815  0.2112 -0.0408  0.4449
21905SOL    HW167437   3.250   8.595   5.736  0.8580 -0.4254  0.8401
21905SOL    HW267438   3.243   8.646   5.878 -0.9246  1.1861  0.2074
21906SOL     OW67439   4.138   4.277   2.762 -0.0262  0.1325  0.2533
21906SOL    HW167440   4.132   4.348   2.825  2.8585 -0.6036  1.4780
21906SOL    HW267441   4.059   4.225   2.777 -0.6922  1.4169  1.3833
21907SOL     OW67442   1.293   3.266   7.801  0.2603  0.2014  0.2249
21907SOL    HW167443   1.341   3.348   7.808 -1.0033  0.8761  1.3591
21907SOL    HW267444   1.201   3.291   7.808 -0.2686 -1.1058 -1.4384
21908SOL     OW67445   0.994   9.403   6.519  0.1060  0.3367  0.0912
21908SOL    HW167446   1.088   9.408   6.498  0.2798  0.3418  0.8207
21908SOL    HW267447   0.992   9.400   6.615 -0.6090 -0.2872  0.0627
21909SOL     OW67448   3.663   7.036   4.551 -0.3143  0.4233 -0.0612
21909SOL    HW167449   3.622   6.950   4.549 -0.7548  0.4219  3.3301
21909SOL    HW267450   3.628   7.077   4.630  2.2820  2.4764  0.1373
21910SOL     OW67451   4.076   3.182   2.999 -0.2925 -0.1446  0.1456
21910SOL    HW167452   4.035   3.242   3.061  1.2170 -0.7573  1.8219
21910SOL    HW267453   4.122   3.119   3.054  0.8478 -0.9151 -1.6121
21911SOL     OW67454   8.342   6.390   9.521 -0.0906 -0.0081 -0.0757
21911SOL    HW167455   8.294   6.307   9.519  1.6739 -1.0590 -0.8691
21911SOL    HW267456   8.417   6.376   9.464  0.8453  1.7893  0.6331
21912SOL     OW67457   8.591   9.328   7.433 -0.2239 -0.7705  0.1705
21912SOL    HW167458   8.561   9.390   7.367 -1.9558 -1.7142  0.0204
21912SOL    HW267459   8.637   9.382   7.498  1.4007  0.1853 -1.6814
21913SOL     OW67460   3.697   2.577   0.922  0.4791  0.2748  0.0469
21913SOL    HW167461   3.669   2.504   0.867 -1.3715  2.1716 -1.7551
21913SOL    HW267462   3.628   2.643   0.910  1.2950  1.7519  2.7543
21914SOL     OW67463   4.868   8.844   6.718  0.5114 -1.0451  0.4366
21914SOL    HW167464   4.897   8.757   6.693  0.8157 -0.7534 -0.2624
21914SOL    HW267465   4.934   8.903   6.682 -1.4585 -0.2700 -2.2155
21915SOL     OW67466   4.595   0.502   7.397  0.3380 -0.3956 -0.2711
21915SOL    HW167467   4.604   0.446   7.319  0.7398 -1.2315  0.3553
21915SOL    HW267468   4.666   0.474   7.454 -0.9370 -0.9587  1.1002
21916SOL     OW67469   6.419   8.216   4.755  0.6393  0.1470  0.0094
21916SOL    HW167470   6.460   8.301   4.738  1.1784 -0.4862 -2.1707
21916SOL    HW267471   6.483   8.168   4.808 -0.7671  1.9204  3.6612
21917SOL     OW67472   9.252   9.326   4.857  0.1112  0.0177 -0.3361
21917SOL    HW167473   9.348   9.330   4.855  0.1221  0.4276 -3.0817
21917SOL    HW267474   9.224   9.408   4.815 -1.4781 -0.0532  0.4988
21918SOL     OW67475   3.905   2.926   3.495 -0.0975 -0.2501 -0.2215
21918SOL    HW167476   3.921   2.840   3.534 -0.2176 -0.1845 -0.0248
21918SOL    HW267477   3.827   2.958   3.541  1.3618  1.0356  1.4791
21919SOL     OW67478   8.740   2.929   9.175  0.2754 -0.2164 -0.3340
21919SOL    HW167479   8.701   2.987   9.110  1.7621 -1.7525 -2.7912
21919SOL    HW267480   8.666   2.892   9.223 -0.8848  1.0460 -1.0997
21920SOL     OW67481   7.949   7.362   8.390  0.0367  0.2595  0.1633
21920SOL    HW167482   7.944   7.454   8.366 -2.0292 -0.1887 -1.3488
21920SOL    HW267483   8.039   7.351   8.421  0.4711  2.6602 -0.0262
21921SOL     OW67484   3.863   0.126   3.181  0.4107 -0.0685 -0.5334
21921SOL    HW167485   3.928   0.062   3.153  1.2090  0.3289  0.3476
21921SOL    HW267486   3.858   0.188   3.108  1.5590  0.2880 -0.3376
21922SOL     OW67487   5.343   9.382   8.205 -0.0816  0.1404  0.3207
21922SOL    HW167488   5.429   9.380   8.245  0.6271  0.9575 -1.0855
21922SOL    HW267489   5.282   9.361   8.277  1.4195 -3.8632  0.7036
21923SOL     OW67490   8.923   4.167   6.195 -0.1705  0.5801 -0.5763
21923SOL    HW167491   8.967   4.243   6.232  0.5046  0.3314 -0.8545
21923SOL    HW267492   8.897   4.193   6.107 -0.1528  0.5672 -0.5853
21924SOL     OW67493   4.205   4.513   5.533  0.4247  0.4673  0.3210
21924SOL    HW167494   4.238   4.602   5.522  0.1329  0.4857 -0.5255
21924SOL    HW267495   4.263   4.473   5.598  1.2833  0.9101 -0.1578
21925SOL     OW67496   4.611   9.012   1.271 -0.3881  0.2919  0.7804
21925SOL    HW167497   4.634   8.983   1.183 -1.4839  0.6525  0.3691
21925SOL    HW267498   4.673   8.966   1.328 -0.5940 -1.0455 -0.0525
21926SOL     OW67499   9.181   8.875   2.126  0.1648 -0.2041 -0.0547
21926SOL    HW167500   9.098   8.902   2.087 -0.2896 -0.9256  0.3915
21926SOL    HW267501   9.203   8.946   2.187 -1.0343 -0.8170  1.1437
21927SOL     OW67502   8.144   9.197   3.929  0.0753 -0.3215 -0.4990
21927SOL    HW167503   8.093   9.184   4.009  0.3522 -1.3859 -0.4899
21927SOL    HW267504   8.121   9.286   3.901 -1.4139 -0.5888 -0.2243
21928SOL     OW67505   7.743   6.163   3.986 -0.0705 -0.1569  0.1913
21928SOL    HW167506   7.766   6.179   4.077  1.1626  1.2274 -0.3363
21928SOL    HW267507   7.793   6.086   3.961  0.5289  0.1775  0.3504
21929SOL     OW67508   5.822   6.364   9.533  0.5676 -0.7648 -0.2292
21929SOL    HW167509   5.803   6.419   9.608  0.9253 -2.4153  1.1449
21929SOL    HW267510   5.820   6.423   9.458  0.3319  0.9624  1.0825
21930SOL     OW67511   6.059   4.438   9.208 -0.1741  0.7360 -0.3990
21930SOL    HW167512   5.990   4.449   9.272 -0.0309  1.7080 -0.4054
21930SOL    HW267513   6.140   4.438   9.260 -0.1012  0.8417 -0.5125
21931SOL     OW67514   4.065   6.359   9.227 -0.2787 -0.1736  0.4503
21931SOL    HW167515   3.975   6.361   9.194  0.1981 -1.4325 -1.0694
21931SOL    HW267516   4.098   6.447   9.211 -1.8568  1.0235  3.0969
21932SOL     OW67517   7.329   3.912   4.914  0.6725  0.2418  0.5638
21932SOL    HW167518   7.296   3.906   5.004  0.9367  0.0682  0.6494
21932SOL    HW267519   7.400   3.976   4.918 -0.8191  2.0209  0.0313
21933SOL     OW67520   5.506   4.532   1.495  1.0920  0.0380 -0.7331
21933SOL    HW167521   5.507   4.588   1.417  1.3566  1.4051  0.2198
21933SOL    HW267522   5.416   4.498   1.499  1.5871 -1.7128 -2.7337
21934SOL     OW67523   5.005   8.159   2.170 -0.4154  0.3182 -0.4542
21934SOL    HW167524   4.958   8.189   2.092 -0.3748 -0.0465 -0.6234
21934SOL    HW267525   4.967   8.209   2.242  1.2560  2.5275 -0.9874
21935SOL     OW67526   3.674   6.107   3.224  0.1282  0.0002  0.0384
21935SOL    HW167527   3.613   6.176   3.198 -0.5502 -0.7762 -0.4968
21935SOL    HW267528   3.620   6.046   3.275  0.0457 -1.5095 -1.7646
21936SOL     OW67529   4.565   2.607   7.079 -0.3152 -0.2924  0.3660
21936SOL    HW167530   4.532   2.642   7.161 -1.8224 -0.5628 -0.0888
21936SOL    HW267531   4.486   2.589   7.027  0.4864 -2.1169 -0.3180
21937SOL     OW67532   8.355   4.731   2.486  0.5586 -0.3817 -0.1508
21937SOL    HW167533   8.351   4.752   2.579 -1.4119  0.7708 -0.4412
21937SOL    HW267534   8.371   4.637   2.482  1.1867 -0.3540  1.3174
21938SOL     OW67535   2.188   4.899   0.830 -0.1550  0.4541  0.4262
21938SOL    HW167536   2.267   4.879   0.781 -0.0361  0.0504  0.7871
21938SOL    HW267537   2.217   4.910   0.921 -0.6362 -0.5637  0.7118
21939SOL     OW67538   0.894   4.236   1.398  0.3855  0.3218 -0.8651
21939SOL    HW167539   0.889   4.247   1.493  3.3333 -2.3316 -0.2444
21939SOL    HW267540   0.823   4.176   1.377  0.5797 -0.2033 -0.0786
21940SOL     OW67541   6.210   2.958   4.806 -0.1797  0.8647  0.0273
21940SOL    HW167542   6.244   3.029   4.751  1.5188  0.5055  0.5597
21940SOL    HW267543   6.206   2.882   4.748  0.1468  0.8587  0.0100
21941SOL     OW67544   2.589   3.727   7.253 -0.4082  0.3823  0.2261
21941SOL    HW167545   2.609   3.821   7.257 -1.9113  0.7132  0.9495
21941SOL    HW267546   2.548   3.715   7.167  0.8631  0.1321 -0.3619
21942SOL     OW67547   2.784   1.927   1.015  0.3346  0.3727 -0.0026
21942SOL    HW167548   2.759   2.016   1.040 -1.5516 -0.6994  2.3976
21942SOL    HW267549   2.840   1.897   1.087 -0.2721 -0.8377 -0.0141
21943SOL     OW67550   5.919   7.775   7.390 -0.5454  0.3529  0.1418
21943SOL    HW167551   5.877   7.790   7.305  1.3819 -0.7457 -1.0652
21943SOL    HW267552   5.926   7.680   7.397  1.1049  0.4816  0.5946
21944SOL     OW67553   2.044   7.667   2.678  0.3762  0.0174 -0.0187
21944SOL    HW167554   2.033   7.640   2.587 -0.1566 -0.6155  0.2294
21944SOL    HW267555   2.089   7.751   2.673 -0.7066  0.5653 -0.9119
21945SOL     OW67556   8.380   1.372   9.556 -0.2436 -0.7147 -0.9063
21945SOL    HW167557   8.468   1.411   9.553 -1.0027  1.0846 -0.8753
21945SOL    HW267558   8.359   1.353   9.465 -0.2561 -0.1453 -1.0201
21946SOL     OW67559   0.333   5.306   5.012 -0.4725 -0.1308 -0.2010
21946SOL    HW167560   0.412   5.252   5.013 -0.3840  0.0012  1.4137
21946SOL    HW267561   0.335   5.348   4.926  0.7920 -0.7373 -0.4927
21947SOL     OW67562   0.029   3.224   2.785  0.0097 -0.7441 -0.3790
21947SOL    HW167563   0.027   3.246   2.878 -0.1845 -0.7284 -0.3859
21947SOL    HW267564   0.018   3.129   2.783 -0.6491 -0.6770 -0.4099
21948SOL     OW67565   8.419   6.802   0.349 -0.0953 -0.0264 -0.2705
21948SOL    HW167566   8.483   6.751   0.398  0.8986  0.3169 -1.1808
21948SOL    HW267567   8.406   6.753   0.268 -1.0088 -0.1009 -0.0879
21949SOL     OW67568   5.789   0.297   2.392  0.1547  0.2980  0.0775
21949SOL    HW167569   5.761   0.205   2.398 -0.3682  0.0940 -3.5783
21949SOL    HW267570   5.828   0.315   2.478 -0.3122 -3.1073  1.1689
21950SOL     OW67571   8.928   4.167   7.826 -0.1201  0.1911  0.3109
21950SOL    HW167572   8.848   4.170   7.878 -1.6654 -1.8818 -1.7228
21950SOL    HW267573   8.932   4.253   7.782 -1.5991  0.1278 -0.0073
21951SOL     OW67574   0.341   5.312   4.263 -0.0429 -0.3096 -0.3890
21951SOL    HW167575   0.387   5.228   4.272  0.3335 -0.0032  0.7723
21951SOL    HW267576   0.400   5.366   4.210 -0.2805 -0.7575 -1.1294
21952SOL     OW67577   5.589   7.388   5.970  0.2266 -0.0833 -0.2263
21952SOL    HW167578   5.560   7.475   5.999  0.1351 -0.4576  0.8434
21952SOL    HW267579   5.635   7.404   5.888  2.7224  1.3762  1.3321
21953SOL     OW67580   2.112   5.483   7.675  0.1649 -0.6197 -0.8244
21953SOL    HW167581   2.111   5.498   7.770  0.9781 -0.0739 -0.8865
21953SOL    HW267582   2.172   5.550   7.642 -0.2269 -0.7188 -1.7412
21954SOL     OW67583   3.708   1.497   2.387  0.1322 -0.0818  0.2540
21954SOL    HW167584   3.653   1.575   2.386 -1.7978 -1.3821 -0.1392
21954SOL    HW267585   3.670   1.440   2.320  1.9593 -1.0686  0.0013
21955SOL     OW67586   5.103   6.429   6.722 -0.4698  0.5376 -0.3627
21955SOL    HW167587   5.075   6.423   6.814  1.8538 -1.6380  0.3052
21955SOL    HW267588   5.173   6.494   6.723  0.0773 -0.0474 -0.4336
21956SOL     OW67589   0.107   7.013   6.775  0.2464 -0.0359  0.7401
21956SOL    HW167590   0.043   7.055   6.717 -0.6902  0.3301  2.0121
21956SOL    HW267591   0.104   6.920   6.751 -1.6355 -0.2272  1.5410
21957SOL     OW67592   1.077   4.516   2.216 -0.2548  0.5345 -0.1703
21957SOL    HW167593   1.111   4.558   2.295 -0.6318 -0.1707  0.3793
21957SOL    HW267594   1.124   4.432   2.212 -0.7655  0.2499 -0.2847
21958SOL     OW67595   7.896   5.062   5.257 -0.1543  0.1340  0.0733
21958SOL    HW167596   7.836   5.086   5.327  0.8774  0.6521  0.8076
21958SOL    HW267597   7.861   5.106   5.179 -0.6276  0.5813  0.5288
21959SOL     OW67598   0.684   4.381   9.650  0.2914 -0.1823  0.3700
21959SOL    HW167599   0.645   4.459   9.689  1.1500  1.2571 -1.4683
21959SOL    HW267600   0.739   4.344   9.719 -0.6547  0.4507  1.4855
21960SOL     OW67601   2.212   5.265   2.892  0.4100  0.1735 -0.0369
21960SOL    HW167602   2.254   5.254   2.807  0.5764 -0.2542  0.0985
21960SOL    HW267603   2.119   5.247   2.875  0.1693  1.6962 -0.4543
21961SOL     OW67604   7.996   7.980   2.192  0.5082  0.2403 -0.1693
21961SOL    HW167605   8.041   7.987   2.108 -0.0678 -1.9172 -0.7183
21961SOL    HW267606   7.997   8.069   2.227  3.4396  0.6500 -1.0382
21962SOL     OW67607   4.791   2.496   8.163  0.3812 -0.0923 -0.3068
21962SOL    HW167608   4.762   2.581   8.129  0.0489  0.0395  0.2939
21962SOL    HW267609   4.714   2.461   8.208  1.2584  0.4870  1.7612
21963SOL     OW67610   8.703   6.987   6.816 -1.0958 -0.4845  0.2930
21963SOL    HW167611   8.649   7.058   6.783 -0.9688 -0.8430 -0.7140
21963SOL    HW267612   8.671   6.909   6.772  0.9125 -0.5587 -1.1951
21964SOL     OW67613   9.513   8.841   8.697  0.2017 -0.0920 -0.1233
21964SOL    HW167614   9.442   8.861   8.758 -0.4664  0.8523 -1.1807
21964SOL    HW267615   9.512   8.913   8.635  0.5185 -1.2883 -1.5612
21965SOL     OW67616   8.340   5.129   0.150 -0.3763  0.5049 -0.3850
21965SOL    HW167617   8.280   5.195   0.115  0.6464  0.1077 -3.0673
21965SOL    HW267618   8.297   5.045   0.135 -0.2404  0.3519  0.0395
21966SOL     OW67619   6.960   1.444   4.513  0.1457 -0.3725  0.1016
21966SOL    HW167620   6.954   1.476   4.603 -0.1603  0.3899 -0.1785
21966SOL    HW267621   6.919   1.358   4.516  0.0630 -0.3208  0.6736
21967SOL     OW67622   6.362   1.930   3.770  0.3353  0.0962 -0.4991
21967SOL    HW167623   6.309   1.858   3.803  0.8070  0.1098  0.3026
21967SOL    HW267624   6.452   1.905   3.789  0.7235 -0.3455 -2.6322
21968SOL     OW67625   2.078   1.372   9.536 -0.1887 -0.1173  0.2312
21968SOL    HW167626   2.131   1.451   9.541 -1.2478  0.7119 -1.0484
21968SOL    HW267627   2.047   1.368   9.446  0.7141 -2.6039 -0.0548
21969SOL     OW67628   7.573   3.245   7.852 -0.0797 -0.3981 -0.1620
21969SOL    HW167629   7.529   3.290   7.924  1.9960 -1.2187  1.7597
21969SOL    HW267630   7.515   3.172   7.830 -1.7481  1.0701 -0.8569
21970SOL     OW67631   0.874   6.128   6.215  0.0137  0.2895 -0.4329
21970SOL    HW167632   0.958   6.152   6.255 -0.8157  1.8312  0.4549
21970SOL    HW267633   0.816   6.202   6.233 -1.8521 -1.1674 -0.1232
21971SOL     OW67634   8.461   4.817   2.237  0.5777  0.3055  0.1148
21971SOL    HW167635   8.412   4.799   2.317 -1.3141  1.8508 -0.6279
21971SOL    HW267636   8.531   4.876   2.266  1.8662 -1.5922  1.1067
21972SOL     OW67637   5.052   7.926   2.625  0.4001 -0.3095  0.4489
21972SOL    HW167638   4.998   7.992   2.580  0.9175  0.2145  0.5775
21972SOL    HW267639   5.031   7.938   2.717  0.7178 -0.1074  0.4995
21973SOL     OW67640   4.979   1.457   0.415  0.4408 -0.0544  0.1575
21973SOL    HW167641   4.886   1.478   0.404 -0.0459 -1.9035  0.4011
21973SOL    HW267642   5.018   1.471   0.329 -0.8858 -2.8819 -1.0468
21974SOL     OW67643   5.607   7.000   2.760 -0.0938  0.2085 -0.0206
21974SOL    HW167644   5.582   7.086   2.792 -0.1550  0.5197 -0.8933
21974SOL    HW267645   5.527   6.947   2.766 -0.4653  0.6511 -0.9540
21975SOL     OW67646   4.334   5.281   5.186 -0.0639  0.4673 -0.3996
21975SOL    HW167647   4.302   5.364   5.222  0.6314  0.7648 -0.4628
21975SOL    HW267648   4.341   5.297   5.092 -0.4838  0.1506 -0.4874
21976SOL     OW67649   6.636   9.084   5.188  0.2998  0.0179  0.6157
21976SOL    HW167650   6.710   9.127   5.144  1.1011 -0.3742  1.5624
21976SOL    HW267651   6.654   9.094   5.281 -1.4508  0.9603  0.9097
21977SOL     OW67652   9.074   4.957   5.549 -0.0673  0.4827 -0.0249
21977SOL    HW167653   9.079   4.952   5.644 -0.6307  0.5116  0.0088
21977SOL    HW267654   9.009   4.892   5.524 -1.8934  2.2472 -0.1628
21978SOL     OW67655   0.237   9.647   4.560  0.1580 -0.1239  0.0581
21978SOL    HW167656   0.289   9.591   4.503  0.0312  0.6715 -0.8520
21978SOL    HW267657   0.163   9.593   4.585  0.4653 -0.6412 -0.1306
21979SOL     OW67658   9.008   7.194   7.370 -0.3265  0.2222  0.5568
21979SOL    HW167659   9.017   7.178   7.276 -0.9002  0.0855  0.5189
21979SOL    HW267660   9.076   7.258   7.390 -1.9727  2.4995 -0.5589
21980SOL     OW67661   2.834   6.673   0.353  0.1068  0.6263  0.4288
21980SOL    HW167662   2.875   6.723   0.424 -1.6687  1.5405  0.8670
21980SOL    HW267663   2.814   6.588   0.392  1.4947  0.1856  0.2208
21981SOL     OW67664   2.341   1.749   1.393  0.7307  0.0300  0.2489
21981SOL    HW167665   2.294   1.729   1.312  2.2966  0.0625 -0.7082
21981SOL    HW267666   2.327   1.842   1.408  1.5595  0.3326 -0.7692
21982SOL     OW67667   5.712   5.048   1.544 -0.2624  0.2822  0.1865
21982SOL    HW167668   5.782   5.012   1.598 -2.0690 -2.7498  0.8133
21982SOL    HW267669   5.673   4.971   1.503 -2.5963  1.9200 -0.8796
21983SOL     OW67670   6.830   5.623   4.552  0.1175  0.1902  0.6544
21983SOL    HW167671   6.821   5.676   4.631  0.6462 -0.3488  1.0846
21983SOL    HW267672   6.740   5.609   4.523 -0.0465  0.9530  0.7782
21984SOL     OW67673   0.452   9.163   4.720  0.0117 -0.3131 -0.0427
21984SOL    HW167674   0.361   9.194   4.725 -0.7739 -2.2835 -0.7786
21984SOL    HW267675   0.481   9.158   4.811 -1.2656 -1.2782  0.3604
21985SOL     OW67676   1.885   3.125   4.957  0.5052  0.5129  0.0947
21985SOL    HW167677   1.963   3.179   4.966  0.3681  0.6565  0.4323
21985SOL    HW267678   1.833   3.168   4.889  0.4817  0.6963  0.2322
21986SOL     OW67679   8.734   0.671   8.777  0.1238  0.0003 -0.0367
21986SOL    HW167680   8.644   0.643   8.793  0.4850 -1.5070 -0.4639
21986SOL    HW267681   8.788   0.600   8.814  1.0795 -0.4667 -2.1924
21987SOL     OW67682   9.161   0.833   9.106  0.1812  0.0412  0.5110
21987SOL    HW167683   9.163   0.919   9.149 -0.2512  0.1878  0.2368
21987SOL    HW267684   9.167   0.853   9.013 -0.3913 -0.2045  0.4205
21988SOL     OW67685   9.271   6.979   7.975 -0.3568  0.0704 -0.3470
21988SOL    HW167686   9.253   7.026   8.057 -0.7916 -1.1760  0.3077
21988SOL    HW267687   9.184   6.954   7.943 -0.3304  2.1640 -2.2219
21989SOL     OW67688   6.965   7.397   8.166  0.5422  0.3911  0.2382
21989SOL    HW167689   7.007   7.360   8.088 -1.6531 -1.1297 -0.2882
21989SOL    HW267690   6.944   7.487   8.141 -1.0537 -0.3757 -1.3492
21990SOL     OW67691   9.503   8.510   0.420 -0.3728  0.3759  0.0218
21990SOL    HW167692   9.535   8.441   0.478 -1.4331 -1.2802 -1.2427
21990SOL    HW267693   9.568   8.580   0.426  0.8171 -0.7848  1.2482
21991SOL     OW67694   6.467   7.183   6.316 -0.3691 -0.3679  0.0849
21991SOL    HW167695   6.509   7.253   6.366  0.3608 -1.2696  0.7773
21991SOL    HW267696   6.434   7.226   6.237  2.1532  0.3634 -0.6698
21992SOL     OW67697   1.771   7.587   5.862 -0.3235 -0.7437 -0.2356
21992SOL    HW167698   1.856   7.581   5.818  0.5370 -0.7662  1.3747
21992SOL    HW267699   1.767   7.509   5.917 -0.1930  0.5253  1.6695
21993SOL     OW67700   3.611   8.862   5.779  0.0628  0.5368  0.4027
21993SOL    HW167701   3.567   8.944   5.756  0.4433  0.6479  0.0678
21993SOL    HW267702   3.681   8.853   5.714  1.0522  0.7733  1.4077
21994SOL     OW67703   1.844   2.681   3.263  0.0991 -0.0130  0.6207
21994SOL    HW167704   1.799   2.598   3.278  1.2127 -0.5916  0.9211
21994SOL    HW267705   1.803   2.717   3.185 -0.2478 -0.9657  0.3454
21995SOL     OW67706   0.801   5.268   2.085 -0.2277  0.3844  0.1703
21995SOL    HW167707   0.710   5.239   2.097  0.8680 -2.4432  3.2203
21995SOL    HW267708   0.842   5.199   2.034  0.2309  1.8208 -1.5025
21996SOL     OW67709   3.044   6.901   2.737 -0.3817 -0.1370 -0.1462
21996SOL    HW167710   3.115   6.961   2.716 -0.3216 -0.1994 -0.1203
21996SOL    HW267711   2.965   6.948   2.709 -0.3588  0.0737  0.1341
21997SOL     OW67712   0.302   6.068   7.830  1.2445  0.4946 -0.1138
21997SOL    HW167713   0.260   5.984   7.811  1.9504  0.1585 -0.2261
21997SOL    HW267714   0.380   6.044   7.880  1.3978  1.0976 -0.0634
21998SOL     OW67715   8.356   6.871   5.079  0.1315  0.2876 -0.8312
21998SOL    HW167716   8.322   6.787   5.048 -0.8567  0.7190 -0.9587
21998SOL    HW267717   8.387   6.853   5.167  0.1845 -0.2760 -0.9574
21999SOL     OW67718   1.662   1.842   7.977 -0.3243 -0.2230  0.4189
21999SOL    HW167719   1.748   1.848   8.018 -0.6142  0.9790  0.8785
21999SOL    HW267720   1.675   1.879   7.889 -0.0750 -1.3189 -0.0276
22000SOL     OW67721   7.703   2.011   6.704 -0.0105 -0.5132  0.3880
22000SOL    HW167722   7.765   1.946   6.670  0.7119  0.1642  0.3929
22000SOL    HW267723   7.756   2.068   6.759 -0.5719  0.3169  0.0749
22001SOL     OW67724   9.120   5.267   8.853  0.4969 -0.1335 -0.0756
22001SOL    HW167725   9.144   5.241   8.942 -1.4758  0.5917  0.7278
22001SOL    HW267726   9.047   5.327   8.865  0.1780 -0.0294 -2.2062
22002SOL     OW67727   4.635   1.517   6.137 -0.3584  0.1174  0.0560
22002SOL    HW167728   4.718   1.563   6.127 -1.0653  1.1868 -1.3972
22002SOL    HW267729   4.644   1.465   6.217  2.2869 -1.0720 -0.9087
22003SOL     OW67730   1.703   7.862   7.148  0.3363  0.1567  0.2027
22003SOL    HW167731   1.772   7.856   7.082  0.4783  0.7226  0.2879
22003SOL    HW267732   1.646   7.788   7.131  0.9057 -0.2501  0.0585
22004SOL     OW67733   8.661   8.559   0.750  0.7294  0.3363  0.0315
22004SOL    HW167734   8.622   8.553   0.838 -1.8999 -0.2160 -1.0804
22004SOL    HW267735   8.748   8.520   0.761  0.2041 -0.4285  2.2503
22005SOL     OW67736   0.242   2.455   6.919 -0.0621  0.5318 -0.5223
22005SOL    HW167737   0.148   2.471   6.912 -0.5283 -1.4909  0.1863
22005SOL    HW267738   0.270   2.508   6.992 -1.4351 -1.4082  1.5631
22006SOL     OW67739   2.772   1.674   8.976 -0.2053  0.7052 -0.3097
22006SOL    HW167740   2.761   1.594   9.028  1.3214  0.8012  0.1876
22006SOL    HW267741   2.765   1.643   8.885  3.3556 -0.6201 -0.2923
22007SOL     OW67742   3.563   7.556   5.111 -0.1845  0.5389  0.0494
22007SOL    HW167743   3.499   7.595   5.170 -0.9720 -1.6474  0.7504
22007SOL    HW267744   3.540   7.463   5.109  0.2518  0.3758 -3.1618
22008SOL     OW67745   5.560   3.999   9.672 -0.2354 -0.2476  0.5008
22008SOL    HW167746   5.483   3.946   9.651 -0.9136  0.4135  1.2481
22008SOL    HW267747   5.575   4.052   9.594 -0.2189 -0.7541  0.1569
22009SOL     OW67748   5.861   7.646   4.714  0.2267  0.3861 -0.2962
22009SOL    HW167749   5.931   7.589   4.683  0.2594  0.7515 -0.9001
22009SOL    HW267750   5.903   7.731   4.727 -0.4166  1.0550 -2.2560
22010SOL     OW67751   1.566   4.905   1.910  0.2964 -0.4379  0.0823
22010SOL    HW167752   1.538   4.987   1.871 -0.3859 -0.8608 -0.3429
22010SOL    HW267753   1.493   4.878   1.965  1.0031 -0.1656  1.1744
22011SOL     OW67754   4.777   7.015   4.034 -0.7414 -0.3122  0.5396
22011SOL    HW167755   4.857   7.055   4.069  0.4914 -0.8934 -1.4923
22011SOL    HW267756   4.800   6.923   4.022 -1.2114 -0.2005 -1.4316
22012SOL     OW67757   8.366   0.154   9.274  0.7400  0.1345  0.2044
22012SOL    HW167758   8.315   0.187   9.201 -0.1144  0.1702  0.8090
22012SOL    HW267759   8.306   0.156   9.349  1.7145  0.4895  1.0026
22013SOL     OW67760   2.175   8.173   1.709  1.0600  0.5345  0.5590
22013SOL    HW167761   2.252   8.185   1.765  1.7985  1.7267 -0.6747
22013SOL    HW267762   2.205   8.114   1.640 -0.1726 -1.8888  1.9314
22014SOL     OW67763   4.649   1.695   9.208  0.0994 -0.2221 -0.2478
22014SOL    HW167764   4.677   1.766   9.150 -1.9675 -1.3066 -2.8037
22014SOL    HW267765   4.562   1.720   9.237  0.0682 -0.9125  0.2880
22015SOL     OW67766   0.651   1.298   3.254 -0.1024 -0.9413  0.0412
22015SOL    HW167767   0.589   1.370   3.260 -0.6495 -1.3500 -0.4460
22015SOL    HW267768   0.737   1.337   3.271 -0.1215  0.2488 -2.2403
22016SOL     OW67769   3.531   2.495   9.005  0.0883 -0.1693 -0.1688
22016SOL    HW167770   3.611   2.525   8.961 -0.2717 -1.0304 -1.4811
22016SOL    HW267771   3.550   2.504   9.098  1.6076 -0.0877 -0.4596
22017SOL     OW67772   2.548   8.880   7.653  0.0789  0.6898  0.5530
22017SOL    HW167773   2.461   8.873   7.692 -0.9914 -0.0093 -1.8259
22017SOL    HW267774   2.579   8.967   7.680 -1.5506  1.1562  1.0275
22018SOL     OW67775   8.371   5.440   5.918 -0.0017  0.0320  0.4888
22018SOL    HW167776   8.434   5.374   5.889 -0.4048 -0.2729  0.3080
22018SOL    HW267777   8.414   5.523   5.899  0.0987 -0.1715 -0.2006
22019SOL     OW67778   1.901   5.445   7.511  0.3189 -0.2463 -0.1329
22019SOL    HW167779   1.832   5.504   7.539  0.5589  0.7967 -1.6304
22019SOL    HW267780   1.982   5.482   7.546  0.4087  0.0410 -0.6302
22020SOL     OW67781   2.071   0.910   0.843  0.4323  0.2158 -0.4898
22020SOL    HW167782   2.103   0.821   0.824  1.6059  0.6883 -0.8552
22020SOL    HW267783   2.097   0.961   0.766 -1.9555  0.5127 -1.1867
22021SOL     OW67784   7.885   5.116   7.593  0.4204  0.2582  0.2808
22021SOL    HW167785   7.853   5.077   7.512  0.5832 -1.4855  1.0118
22021SOL    HW267786   7.838   5.200   7.599  0.1077  0.2459 -1.3839
22022SOL     OW67787   6.705   3.752   9.679  0.6346  0.5559 -0.2896
22022SOL    HW167788   6.690   3.830   9.625  0.0821  1.7068  1.4363
22022SOL    HW267789   6.704   3.679   9.617 -0.6218  1.7386 -1.7508
22023SOL     OW67790   1.306   2.234   4.903 -0.5501  0.2825 -0.2010
22023SOL    HW167791   1.230   2.238   4.845 -0.0094  2.0033 -0.8729
22023SOL    HW267792   1.277   2.280   4.982 -0.0293  1.5812 -0.7345
22024SOL     OW67793   7.097   1.773   7.014  0.0680 -0.4117  0.2859
22024SOL    HW167794   7.045   1.717   6.956  0.0387  0.1352 -0.2297
22024SOL    HW267795   7.186   1.766   6.981 -0.1835  1.0699 -0.7897
22025SOL     OW67796   3.453   0.029   5.010 -0.3057  0.4005  0.1969
22025SOL    HW167797   3.464  -0.004   4.920 -1.4931 -1.2997  0.6198
22025SOL    HW267798   3.535   0.005   5.054 -0.9252 -1.6619  0.3445
22026SOL     OW67799   2.036   2.003   6.516 -0.1570  0.1149  0.6615
22026SOL    HW167800   1.956   2.000   6.463 -0.3857  0.3983  0.9843
22026SOL    HW267801   2.098   1.947   6.469 -0.3456  0.3865  0.0820
22027SOL     OW67802   2.119   3.942   6.883  0.7465 -0.3430  0.6560
22027SOL    HW167803   2.204   3.941   6.838  0.4784  0.8219  0.0862
22027SOL    HW267804   2.086   3.852   6.874  0.6536 -0.1371 -1.5929
22028SOL     OW67805   0.911   8.274   6.430 -0.4052 -0.5670 -0.5220
22028SOL    HW167806   0.993   8.251   6.386 -0.1576  0.0076 -0.3595
22028SOL    HW267807   0.902   8.368   6.418  0.1415 -0.2188  1.4285
22029SOL     OW67808   1.927   4.409   8.828 -0.6171  0.9327  0.2774
22029SOL    HW167809   1.983   4.477   8.867  0.2082 -0.0184  0.7901
22029SOL    HW267810   1.838   4.442   8.840 -0.2701  1.5670  1.2412
22030SOL     OW67811   3.714   5.867   5.907  0.4405 -0.0123  0.1388
22030SOL    HW167812   3.790   5.829   5.952  1.4286  2.3233  0.5853
22030SOL    HW267813   3.751   5.937   5.853 -1.4481  1.7488  1.0127
22031SOL     OW67814   6.348   0.664   7.913 -0.3660 -0.9858 -0.3067
22031SOL    HW167815   6.254   0.647   7.918 -0.8814  0.8011 -2.4513
22031SOL    HW267816   6.362   0.738   7.972 -0.3732 -1.0399 -0.2371
22032SOL     OW67817   2.492   6.063   9.039  0.4304  0.3490  0.1661
22032SOL    HW167818   2.554   6.129   9.071 -0.6055  0.0516  3.1992
22032SOL    HW267819   2.544   5.983   9.032  0.5702  0.1851  2.3207
22033SOL     OW67820   4.580   4.102   2.207 -0.0504  0.7406 -0.5147
22033SOL    HW167821   4.544   4.172   2.261 -1.2758  1.9478 -2.7213
22033SOL    HW267822   4.515   4.031   2.213  0.4674  0.3339  0.5636
22034SOL     OW67823   0.018   0.597   3.743  0.1044 -0.7813 -0.3028
22034SOL    HW167824  -0.035   0.519   3.761  1.7119 -1.7524  0.3670
22034SOL    HW267825   0.105   0.564   3.722  1.1986  0.8357  1.2871
22035SOL     OW67826   1.470   5.416   5.103  0.5187  0.0257 -0.1528
22035SOL    HW167827   1.525   5.472   5.047 -0.2778  1.3582  0.3518
22035SOL    HW267828   1.414   5.369   5.041  0.7773  0.2408 -0.5569
22036SOL     OW67829   7.272   5.361   7.385  0.0701  0.0953 -0.2668
22036SOL    HW167830   7.186   5.401   7.379  0.5725  1.5413  1.2484
22036SOL    HW267831   7.256   5.269   7.403 -1.1499  0.2484 -0.5398
22037SOL     OW67832   2.339   3.633   6.720  0.0362  0.1363 -0.3663
22037SOL    HW167833   2.365   3.640   6.628 -0.5881 -1.1718 -0.6710
22037SOL    HW267834   2.243   3.624   6.717  0.1602 -1.8040  0.2568
22038SOL     OW67835   2.837   4.174   3.799  0.0546  0.5362  0.3976
22038SOL    HW167836   2.907   4.122   3.760 -1.3264 -0.8093 -0.3846
22038SOL    HW267837   2.773   4.110   3.829 -1.0949  1.7389  0.6064
22039SOL     OW67838   1.864   0.866   0.252  0.3730  0.1878  0.8432
22039SOL    HW167839   1.776   0.835   0.230  0.5519 -0.1658  0.6074
22039SOL    HW267840   1.857   0.961   0.251  0.2409  0.1846 -0.2574
22040SOL     OW67841   0.569   5.312   9.032 -0.1869 -0.1826  0.1853
22040SOL    HW167842   0.614   5.259   9.097 -2.6607 -1.4820  0.9539
22040SOL    HW267843   0.632   5.321   8.960  1.9076 -0.3260  1.9176
22041SOL     OW67844   5.030   9.125   7.938 -0.1626 -0.2461 -0.3124
22041SOL    HW167845   5.061   9.065   8.006  1.3751 -1.8360 -2.3019
22041SOL    HW267846   5.104   9.185   7.924 -1.2782  1.5037  0.8726
22042SOL     OW67847   9.658   8.432   4.579 -0.4614 -0.6554  0.0337
22042SOL    HW167848   9.728   8.492   4.554 -0.0600 -0.8807  0.5859
22042SOL    HW267849   9.663   8.428   4.675 -0.8573 -1.1189  0.0406
22043SOL     OW67850   5.903   1.351   3.769  0.2731 -0.0791 -0.1570
22043SOL    HW167851   5.830   1.358   3.707  0.1499  0.9749  0.0838
22043SOL    HW267852   5.875   1.283   3.830 -0.8512  0.7830  0.3372
22044SOL     OW67853   0.293   0.702   6.365 -0.1444  0.4404  0.0422
22044SOL    HW167854   0.282   0.715   6.271  0.7868 -0.0509 -0.1515
22044SOL    HW267855   0.385   0.678   6.374 -0.9532 -2.9016  0.7052
22045SOL     OW67856   2.955   7.926   7.092 -0.5159  0.1128 -0.0366
22045SOL    HW167857   3.033   7.969   7.059 -0.7168 -0.1433 -0.8681
22045SOL    HW267858   2.971   7.832   7.080 -1.1287  0.0760 -0.6508
22046SOL     OW67859   5.044   7.642   3.692 -0.5001 -0.4419 -0.2325
22046SOL    HW167860   5.104   7.714   3.676  0.8967 -0.8664  2.4529
22046SOL    HW267861   4.998   7.667   3.773 -0.0790 -2.4064  0.6781
22047SOL     OW67862   2.210   3.537   7.121 -0.0102 -0.0092  0.3745
22047SOL    HW167863   2.168   3.607   7.170  0.3698  1.0836 -0.7933
22047SOL    HW267864   2.139   3.493   7.076 -0.2495 -0.3892  1.1072
22048SOL     OW67865   0.594   9.523   5.575  0.1315  0.6437  0.1363
22048SOL    HW167866   0.670   9.576   5.552  1.5056 -1.1635  0.2974
22048SOL    HW267867   0.573   9.475   5.494 -0.1904  0.3900  0.3675
22049SOL     OW67868   1.582   6.175   9.608  0.4344 -0.1446 -0.0767
22049SOL    HW167869   1.592   6.217   9.522  1.1505  0.0286  0.0933
22049SOL    HW267870   1.573   6.081   9.588  1.8863 -0.2609 -0.2753
22050SOL     OW67871   9.352   3.922   5.999 -0.1410  0.0042  0.2077
22050SOL    HW167872   9.291   3.889   6.065 -0.4850  1.1603  0.4843
22050SOL    HW267873   9.389   4.002   6.037  0.1590  0.3260 -0.7177
22051SOL     OW67874   9.088   7.888   4.459  0.6263 -0.4748 -0.2617
22051SOL    HW167875   9.065   7.891   4.366  0.7875 -2.7326 -0.4180
22051SOL    HW267876   9.177   7.924   4.463  0.3025  0.4248 -0.8352
22052SOL     OW67877   2.922   8.934   3.935 -0.0098  0.7827  0.2713
22052SOL    HW167878   2.940   8.841   3.930  1.0719  0.9852  0.1865
22052SOL    HW267879   2.826   8.940   3.934 -0.0936 -0.2658 -0.8705
22053SOL     OW67880   9.057   6.911   2.141 -0.2154 -0.4585 -0.1540
22053SOL    HW167881   8.983   6.852   2.146  1.0495 -2.1166 -0.0109
22053SOL    HW267882   9.129   6.858   2.106  1.2742  0.6700  0.9972
22054SOL     OW67883   9.590   0.175   2.505 -0.0273  0.4095 -0.3959
22054SOL    HW167884   9.648   0.144   2.436 -0.8631 -0.0020 -0.9336
22054SOL    HW267885   9.527   0.104   2.517 -0.1068  0.6317  0.5375
22055SOL     OW67886   0.882   1.620   7.933  0.0129 -0.0727  0.0297
22055SOL    HW167887   0.959   1.656   7.978  0.4011  0.6232 -1.1303
22055SOL    HW267888   0.887   1.657   7.845 -1.2170 -0.6718 -0.3128
22056SOL     OW67889   2.352   9.369   5.449  0.1658 -0.4144  0.3366
22056SOL    HW167890   2.334   9.301   5.384 -2.6997 -0.1230  0.7073
22056SOL    HW267891   2.365   9.321   5.531 -0.7126 -0.5886  0.3813
22057SOL     OW67892   2.544   4.134   6.327 -0.0485  0.2589 -0.3544
22057SOL    HW167893   2.639   4.124   6.319  0.0878 -0.4403  1.4585
22057SOL    HW267894   2.522   4.205   6.267  1.1906 -1.3038 -2.8373
22058SOL     OW67895   7.958   0.932   0.258  0.2968 -0.1178 -0.0096
22058SOL    HW167896   7.952   1.025   0.282 -0.1725  0.0637 -0.8256
22058SOL    HW267897   7.976   0.932   0.164 -0.8115 -0.8691 -0.2378
22059SOL     OW67898   7.533   8.566   5.138  0.6957  0.9164  0.2782
22059SOL    HW167899   7.600   8.622   5.099  1.5568 -0.1539  0.1688
22059SOL    HW267900   7.454   8.584   5.086  1.4506  0.5885 -1.0381
22060SOL     OW67901   9.253   3.421   7.330  0.4604 -0.1260  0.5421
22060SOL    HW167902   9.331   3.449   7.282  1.0603 -0.7568  1.1264
22060SOL    HW267903   9.201   3.500   7.339  0.4842  0.0721 -0.8649
22061SOL     OW67904   9.568   4.862   7.836  0.5107 -0.1938  0.3167
22061SOL    HW167905   9.644   4.819   7.874  1.2646  1.7790  1.2316
22061SOL    HW267906   9.499   4.851   7.902  0.5719 -0.3840  0.3483
22062SOL     OW67907   0.231   3.514   6.218 -0.3213 -0.3756  0.0671
22062SOL    HW167908   0.268   3.476   6.298  0.3576  0.2561  0.0607
22062SOL    HW267909   0.201   3.601   6.245 -0.4081 -0.2945 -0.2855
22063SOL     OW67910   1.544   6.763   1.320  0.1833 -0.4649 -0.0395
22063SOL    HW167911   1.491   6.697   1.275 -0.3324 -0.2019  0.1690
22063SOL    HW267912   1.523   6.751   1.413  0.8147 -0.6383  0.0830
22064SOL     OW67913   2.297   8.204   7.990 -0.3051 -0.0450  0.0481
22064SOL    HW167914   2.236   8.219   7.917  1.5081  0.1645 -1.5090
22064SOL    HW267915   2.345   8.286   7.998  0.0546 -0.3355  0.9780
22065SOL     OW67916   0.285   2.556   6.297  0.4833  0.1748  0.6232
22065SOL    HW167917   0.343   2.532   6.369  0.9652  1.2642  0.6261
22065SOL    HW267918   0.223   2.618   6.336  1.2677  1.4388 -0.0471
22066SOL     OW67919   5.681   5.566   4.223  0.5851 -0.0578  0.1179
22066SOL    HW167920   5.666   5.548   4.316  1.0428 -1.9918 -0.1331
22066SOL    HW267921   5.596   5.549   4.182  0.8575 -1.1322 -0.0362
22067SOL     OW67922   7.862   8.546   4.626  0.1349  0.5892 -0.2513
22067SOL    HW167923   7.849   8.457   4.594 -0.1782  0.6333 -0.2531
22067SOL    HW267924   7.840   8.541   4.719  0.3780  0.6090 -0.1920
22068SOL     OW67925   6.638   1.981   2.220  0.0306 -0.0882 -0.5374
22068SOL    HW167926   6.696   2.047   2.259  1.5205 -1.4504 -0.3870
22068SOL    HW267927   6.669   1.972   2.130 -1.2087  0.5376 -1.0627
22069SOL     OW67928   2.483   2.431   5.165  0.3599  0.5292  0.6759
22069SOL    HW167929   2.458   2.509   5.115 -0.8815 -0.2521  0.0342
22069SOL    HW267930   2.561   2.458   5.213 -0.3588  2.3503  0.9136
22070SOL     OW67931   7.726   5.395   5.636 -0.0691  0.8060 -0.0982
22070SOL    HW167932   7.664   5.325   5.622  1.4783 -0.7885  0.6058
22070SOL    HW267933   7.684   5.452   5.701 -0.6663 -0.4120  0.6150
22071SOL     OW67934   8.306   4.009   2.865  0.5167 -0.6714 -0.1643
22071SOL    HW167935   8.262   3.925   2.851  1.4305 -1.1328 -0.3213
22071SOL    HW267936   8.276   4.036   2.952 -1.9905  0.2435 -1.2296
22072SOL     OW67937   5.997   7.373   4.159 -0.1353 -0.1136  0.3529
22072SOL    HW167938   5.918   7.319   4.162 -0.8278  0.9149  1.8406
22072SOL    HW267939   6.061   7.319   4.114 -1.5706 -1.1154 -0.5826
22073SOL     OW67940   0.691   7.330   1.037  0.0287  0.0286 -0.1344
22073SOL    HW167941   0.674   7.414   0.994  2.3636  0.6265 -0.0146
22073SOL    HW267942   0.731   7.276   0.969  0.6355 -0.1759  0.3719
22074SOL     OW67943   3.450   1.512   0.344 -0.2170  0.3814 -0.0984
22074SOL    HW167944   3.533   1.552   0.320  0.0437  0.4465  0.8906
22074SOL    HW267945   3.432   1.450   0.273  0.4601  0.6684 -0.5264
22075SOL     OW67946   6.039   7.051   5.093  0.2159  0.6693 -0.1190
22075SOL    HW167947   6.016   6.958   5.094 -1.7296  1.0919  1.2922
22075SOL    HW267948   6.097   7.062   5.168  0.2912  0.6230 -0.1707
22076SOL     OW67949   2.238   7.858   4.268  0.3931  0.3437 -0.5691
22076SOL    HW167950   2.228   7.925   4.336 -1.3455  1.5338 -1.9001
22076SOL    HW267951   2.192   7.894   4.192  1.2985 -1.4304 -2.0414
22077SOL     OW67952   4.965   8.102   1.171  0.2807 -0.2853  0.0001
22077SOL    HW167953   4.914   8.180   1.149  0.1724 -0.4215 -0.2343
22077SOL    HW267954   4.987   8.063   1.087  0.0681 -0.6804  0.1276
22078SOL     OW67955   6.350   9.608   1.169  0.2509  0.1493  0.3884
22078SOL    HW167956   6.418   9.675   1.174  0.2783  0.0302  3.2578
22078SOL    HW267957   6.309   9.609   1.255 -2.4123 -0.8382 -0.7566
22079SOL     OW67958   6.145   5.937   9.075 -0.0982  0.3313 -0.1106
22079SOL    HW167959   6.134   5.847   9.047 -0.2966 -0.0545  1.1659
22079SOL    HW267960   6.073   5.985   9.033  0.7108  0.1461 -1.7643
22080SOL     OW67961   0.413   1.140   3.967 -0.2524 -0.0756 -0.0218
22080SOL    HW167962   0.485   1.173   4.022  0.1046 -1.4261  0.3625
22080SOL    HW267963   0.336   1.145   4.024 -0.6954  2.2174 -0.7226
22081SOL     OW67964   4.184   2.892   9.689 -0.3458 -0.0598 -0.6152
22081SOL    HW167965   4.216   2.971   9.733 -1.5666 -1.4851  3.1983
22081SOL    HW267966   4.263   2.841   9.672  0.1149  0.1266  0.8598
22082SOL     OW67967   5.554   6.206   8.948  0.5150  0.1919  0.2324
22082SOL    HW167968   5.560   6.279   9.009  2.9025  1.5964 -1.4998
22082SOL    HW267969   5.600   6.134   8.991  0.1061  0.4039  1.0378
22083SOL     OW67970   7.199   5.429   8.197 -0.4683  0.3150 -0.6569
22083SOL    HW167971   7.224   5.445   8.106  0.3564  1.0863 -0.3121
22083SOL    HW267972   7.170   5.514   8.230 -0.3532  0.1406 -0.0822
22084SOL     OW67973   5.380   0.975   4.941 -0.4208 -0.0452 -0.9934
22084SOL    HW167974   5.410   1.015   5.023  2.4682 -1.8511 -1.0701
22084SOL    HW267975   5.284   0.971   4.951 -0.2762  0.9538  1.7147
22085SOL     OW67976   6.850   9.210   2.059 -0.2943  0.0444  0.1881
22085SOL    HW167977   6.781   9.276   2.046 -0.2038 -0.2831 -2.4953
22085SOL    HW267978   6.809   9.143   2.114 -1.0633  1.3013  1.2187
22086SOL     OW67979   9.020   8.242   0.463  0.4848  0.4380 -0.4088
22086SOL    HW167980   8.948   8.271   0.407  0.5559 -1.0380 -1.3371
22086SOL    HW267981   9.002   8.149   0.478  3.1025 -0.5034 -2.2421
22087SOL     OW67982   8.845   4.412   0.203  0.7515 -0.4738  0.8673
22087SOL    HW167983   8.909   4.481   0.183 -2.1917  2.0662 -0.5594
22087SOL    HW267984   8.813   4.434   0.291  0.1322 -0.2585  0.5943
22088SOL     OW67985   7.440   2.332   4.786 -0.5514 -0.4663  0.1368
22088SOL    HW167986   7.482   2.407   4.745 -0.4789 -1.1127 -1.0149
22088SOL    HW267987   7.405   2.366   4.868  1.3358  0.3352  0.6703
22089SOL     OW67988   5.470   6.983   5.410 -0.0721 -0.2485  0.1419
22089SOL    HW167989   5.482   6.889   5.428  1.4785 -0.1706 -0.3122
22089SOL    HW267990   5.559   7.019   5.415 -0.5523  1.0528 -0.4776
22090SOL     OW67991   2.247   6.642   7.085  1.1749 -0.3070  0.2972
22090SOL    HW167992   2.255   6.730   7.048 -1.6433 -0.1904 -0.2618
22090SOL    HW267993   2.303   6.587   7.031  2.0660  0.9328 -0.0735
22091SOL     OW67994   7.560   9.596   8.437 -0.2902  0.0855  0.0432
22091SOL    HW167995   7.501   9.536   8.392  2.4656 -1.1928 -2.1763
22091SOL    HW267996   7.598   9.650   8.368  0.2256  1.7517  1.5292
22092SOL     OW67997   4.876   5.896   3.906 -0.1489 -0.3550  0.0078
22092SOL    HW167998   4.965   5.931   3.909 -0.0708 -0.5997  0.6543
22092SOL    HW267999   4.860   5.880   3.813 -0.4452  2.0339 -0.4142
22093SOL     OW68000   3.595   4.967   1.727 -0.0131  0.4661  0.6295
22093SOL    HW168001   3.620   4.889   1.777  0.6761 -2.8297 -4.1427
22093SOL    HW268002   3.499   4.966   1.730 -0.0514 -1.1125  0.0689
22094SOL     OW68003   5.090   1.956   8.237  0.7860  0.0970 -0.1726
22094SOL    HW168004   5.111   1.890   8.171 -1.4818 -1.0096  0.0811
22094SOL    HW268005   5.040   2.023   8.188  0.2087 -0.0822  0.1619
22095SOL     OW68006   5.252   4.774   1.709 -0.7910  0.3590 -0.0598
22095SOL    HW168007   5.176   4.717   1.715 -0.5877  0.2276  2.0621
22095SOL    HW268008   5.216   4.863   1.715 -0.8956  0.3843 -0.8788
22096SOL     OW68009   8.943   7.270   6.246  0.1768 -0.0265  0.2160
22096SOL    HW168010   8.869   7.218   6.216  1.0302 -1.4400  0.4591
22096SOL    HW268011   8.957   7.334   6.176 -1.9783  1.0710  0.7002
22097SOL     OW68012   8.539   6.591   1.654 -0.4263  0.3608 -0.7989
22097SOL    HW168013   8.572   6.668   1.701 -0.5632  1.0118 -1.7159
22097SOL    HW268014   8.598   6.582   1.579 -0.9964  0.1763 -1.2340
22098SOL     OW68015   1.771   6.944   8.150  0.0288  0.1197  0.0862
22098SOL    HW168016   1.838   6.899   8.202 -0.0206  0.4130  0.4126
22098SOL    HW268017   1.702   6.965   8.214 -0.4642 -0.3555 -0.2836
22099SOL     OW68018   2.609   9.613   9.105 -0.0053 -0.3437 -0.3473
22099SOL    HW168019   2.654   9.624   9.021 -1.8999 -0.0408 -1.3712
22099SOL    HW268020   2.591   9.519   9.110  0.6310 -0.4561  0.0345
22100SOL     OW68021   5.344   7.535   7.959 -0.3841 -0.2609  0.1593
22100SOL    HW168022   5.376   7.549   8.048 -1.6096 -1.1462  0.7611
22100SOL    HW268023   5.350   7.622   7.918 -0.7976  0.4029  1.4433
22101SOL     OW68024   0.377   1.514   3.051  0.2763 -0.4049  0.6410
22101SOL    HW168025   0.294   1.560   3.042  1.6415  1.9676 -1.0440
22101SOL    HW268026   0.368   1.438   2.993 -0.2372  0.6217 -0.6757
22102SOL     OW68027   8.039   6.874   0.356 -0.0643  0.6531  0.0851
22102SOL    HW168028   8.116   6.905   0.404 -1.0505  1.7557  1.0435
22102SOL    HW268029   8.047   6.914   0.269  0.5837  0.5123  0.0740
22103SOL     OW68030   8.726   4.972   7.219 -0.2681  0.6741 -0.3111
22103SOL    HW168031   8.791   5.037   7.246  0.6650 -0.2612 -0.2197
22103SOL    HW268032   8.657   4.978   7.284  1.1125 -0.3264  1.3349
22104SOL     OW68033   0.411   9.342   7.363  0.5116 -0.2140 -0.3255
22104SOL    HW168034   0.398   9.381   7.449 -0.5068 -0.3084 -0.4221
22104SOL    HW268035   0.427   9.249   7.380  0.3124 -0.2316 -0.2360
22105SOL     OW68036   4.175   9.341   1.085 -0.4889 -0.3484  0.4098
22105SOL    HW168037   4.250   9.288   1.113  0.2911 -0.5213 -1.8359
22105SOL    HW268038   4.196   9.430   1.114  0.8188 -0.3139 -0.5770
22106SOL     OW68039   2.308   5.262   6.453 -0.0363  0.4372 -0.7927
22106SOL    HW168040   2.252   5.196   6.494  0.6490  1.0517  1.2805
22106SOL    HW268041   2.250   5.308   6.392 -1.0900 -0.6381 -0.6420
22107SOL     OW68042   2.143   5.132   5.572 -0.5308  0.0721 -0.4687
22107SOL    HW168043   2.150   5.213   5.522  0.0268  1.3017  1.4849
22107SOL    HW268044   2.104   5.159   5.656 -1.5242 -1.8986 -0.2346
22108SOL     OW68045   8.982   5.171   7.018  0.3847 -0.1935  0.1278
22108SOL    HW168046   8.922   5.098   7.001 -0.8584  0.9931 -0.8294
22108SOL    HW268047   8.970   5.229   6.943  2.5674  0.2311  0.0475
22109SOL     OW68048   6.858   2.978   2.754 -0.1402  0.4642 -0.2551
22109SOL    HW168049   6.846   3.073   2.758 -0.0000  0.4588  2.2451
22109SOL    HW268050   6.912   2.958   2.831 -0.5054 -1.6924 -0.4984
22110SOL     OW68051   0.016   9.171   3.595  0.1204 -0.3711 -0.4237
22110SOL    HW168052   0.028   9.220   3.513  0.8955  0.2461  0.0349
22110SOL    HW268053  -0.032   9.231   3.652  0.1205 -0.5559 -0.2280
22111SOL     OW68054   8.948   1.706   9.412  0.2385 -0.3306 -0.3914
22111SOL    HW168055   9.013   1.659   9.360  0.3899 -1.0463  0.4202
22111SOL    HW268056   8.913   1.772   9.352  2.3779  0.7087 -0.6077
22112SOL     OW68057   0.763   0.775   9.608  0.0950 -0.3874 -0.1437
22112SOL    HW168058   0.829   0.822   9.557 -0.1344 -0.7016 -0.7415
22112SOL    HW268059   0.785   0.683   9.597 -0.7930 -0.5357 -0.8740
22113SOL     OW68060   4.437   2.130   7.098  0.0139  0.5339  0.1466
22113SOL    HW168061   4.503   2.071   7.134 -1.1495 -0.6759  0.3663
22113SOL    HW268062   4.478   2.216   7.100  1.3824 -0.1086  0.7708
22114SOL     OW68063   3.558   7.627   8.475  0.1199  0.9145  0.0889
22114SOL    HW168064   3.517   7.586   8.551  1.1503  2.0849  1.3214
22114SOL    HW268065   3.503   7.703   8.456 -0.1517  0.6086 -0.3615
22115SOL     OW68066   7.392   3.396   7.139 -0.1425 -0.1514 -0.0417
22115SOL    HW168067   7.419   3.330   7.203  0.1406  1.5024  1.6360
22115SOL    HW268068   7.367   3.346   7.062  1.5516 -2.1134  0.6013
22116SOL     OW68069   0.254   5.321   3.527  0.3607  0.2999 -0.5920
22116SOL    HW168070   0.228   5.383   3.595 -1.1847 -1.3128  0.3612
22116SOL    HW268071   0.304   5.254   3.573  0.9236  0.1564 -1.3830
22117SOL     OW68072   9.677   8.205   7.059  0.3365 -0.1639 -0.4558
22117SOL    HW168073   9.657   8.162   6.976 -1.7811  1.2065 -0.7375
22117SOL    HW268074   9.603   8.182   7.116 -0.3697  2.2191 -0.3158
22118SOL     OW68075   2.559   0.339   1.663 -0.2601  0.0215  0.0751
22118SOL    HW168076   2.539   0.409   1.726  0.6073 -0.5281  0.9892
22118SOL    HW268077   2.519   0.261   1.702 -0.0909 -0.2442 -0.2851
22119SOL     OW68078   1.718   6.540   8.220  0.2241  0.4063 -0.1802
22119SOL    HW168079   1.714   6.532   8.125  0.7810  1.9825 -0.3576
22119SOL    HW268080   1.669   6.619   8.240  0.5488  0.3707  0.8077
22120SOL     OW68081   3.721   3.923   9.097 -0.3844  0.3183  0.5786
22120SOL    HW168082   3.659   3.866   9.052  1.0874 -0.1654 -0.9608
22120SOL    HW268083   3.807   3.898   9.061  0.6883  1.0799  2.4777
22121SOL     OW68084   1.041   6.271   0.133  0.0472 -0.0759  0.0019
22121SOL    HW168085   1.075   6.319   0.208  0.9485 -0.1448 -0.3588
22121SOL    HW268086   1.094   6.192   0.129  1.0717  0.6430 -1.6356
22122SOL     OW68087   7.769   4.908   2.478  0.6296  0.1129 -0.1388
22122SOL    HW168088   7.680   4.942   2.484  0.4698 -0.2420 -0.5214
22122SOL    HW268089   7.764   4.820   2.515  0.7690 -0.0005 -0.3866
22123SOL     OW68090   6.828   1.091   7.991  0.1736 -0.1822 -0.0308
22123SOL    HW168091   6.850   1.177   7.955  1.0222 -0.3461  0.0707
22123SOL    HW268092   6.736   1.079   7.969  0.7100 -0.4015 -2.4430
22124SOL     OW68093   2.634   3.535   5.946 -0.0172 -0.2528  0.1902
22124SOL    HW168094   2.638   3.613   5.889  0.2436  0.8282  1.6282
22124SOL    HW268095   2.671   3.465   5.893  0.6607  0.8205 -0.8054
22125SOL     OW68096   1.857   7.193   5.288 -0.8420 -0.4204  0.3841
22125SOL    HW168097   1.932   7.235   5.246 -1.0417  0.9919  1.3860
22125SOL    HW268098   1.795   7.177   5.216  0.0236 -0.7537 -0.2974
22126SOL     OW68099   4.154   0.642   6.880 -0.2301  0.2126  0.5549
22126SOL    HW168100   4.065   0.659   6.850 -0.7250 -2.5538  0.1698
22126SOL    HW268101   4.200   0.611   6.802  0.6096  0.0333  1.1076
22127SOL     OW68102   6.332   2.797   5.684  0.6479 -0.1176 -0.0745
22127SOL    HW168103   6.308   2.882   5.645 -0.2173 -0.7717 -1.0376
22127SOL    HW268104   6.341   2.738   5.609 -0.1346 -1.1975  0.6453
22128SOL     OW68105   5.116   4.754   3.680 -0.0379  0.3501  0.3217
22128SOL    HW168106   5.139   4.761   3.587 -0.1570 -0.1582  0.2521
22128SOL    HW268107   5.036   4.806   3.688  0.2084  0.7447  0.2276
22129SOL     OW68108   4.123   6.935   5.248 -0.4421  0.7335  0.1215
22129SOL    HW168109   4.146   6.850   5.286 -1.9085  0.3619  0.2456
22129SOL    HW268110   4.187   6.996   5.286  1.6255 -0.5176 -1.1442
22130SOL     OW68111   1.889   4.205   8.595 -0.2051  0.0231  0.3892
22130SOL    HW168112   1.936   4.234   8.673 -1.1626  2.8298  0.0495
22130SOL    HW268113   1.928   4.255   8.523 -0.1044 -1.6545 -0.7588
22131SOL     OW68114   6.661   4.429   6.398  0.7309 -0.5881  0.2070
22131SOL    HW168115   6.654   4.446   6.304 -1.4770 -1.6723  0.1261
22131SOL    HW268116   6.631   4.339   6.409 -0.9644  0.1331  2.1455
22132SOL     OW68117   7.995   9.063   9.352 -0.6469 -0.8474  0.4607
22132SOL    HW168118   7.958   9.023   9.273  0.3293 -0.7768 -0.0401
22132SOL    HW268119   7.939   9.032   9.423  0.6267 -3.9391  0.2534
22133SOL     OW68120   3.488   7.293   6.900 -0.1825  0.1468  0.3363
22133SOL    HW168121   3.527   7.229   6.841 -1.3575  0.3767 -0.7422
22133SOL    HW268122   3.400   7.259   6.917 -0.6353  1.1990  0.1634
22134SOL     OW68123   6.381   2.242   3.813  0.4253  0.4082 -0.5869
22134SOL    HW168124   6.342   2.155   3.817  0.1443  0.5486  0.0073
22134SOL    HW268125   6.434   2.242   3.734 -1.0249  0.3024 -1.6144
22135SOL     OW68126   9.121   8.835   6.320  0.0270 -0.2094 -0.2837
22135SOL    HW168127   9.150   8.747   6.297 -1.5649 -1.3397  1.7043
22135SOL    HW268128   9.088   8.827   6.410 -1.3776  2.1111 -0.5059
22136SOL     OW68129   5.292   6.689   5.521 -0.0861  0.1294 -0.2388
22136SOL    HW168130   5.259   6.729   5.441 -0.2381  1.4129  0.4408
22136SOL    HW268131   5.219   6.693   5.583  0.1551 -0.4713  0.0986
22137SOL     OW68132   3.058   2.055   0.512 -0.4866 -0.3568  0.0893
22137SOL    HW168133   3.081   1.977   0.563 -0.3031 -0.0925  0.4122
22137SOL    HW268134   3.081   2.032   0.422 -0.0639 -0.5324  0.2387
22138SOL     OW68135   7.769   1.706   0.087 -0.1702  0.0465 -0.2440
22138SOL    HW168136   7.745   1.764   0.160  0.4988  1.3970 -1.0594
22138SOL    HW268137   7.770   1.763   0.010  0.6451 -1.0322 -1.0596
22139SOL     OW68138   5.778   1.450   4.694  0.4013 -0.3320 -0.4736
22139SOL    HW168139   5.842   1.506   4.738  0.3222 -0.4346 -0.2277
22139SOL    HW268140   5.767   1.375   4.753 -0.4281 -0.0027 -0.1910
22140SOL     OW68141   3.428   6.884   8.921  0.0911 -0.5658  0.2769
22140SOL    HW168142   3.383   6.801   8.936  1.1424 -0.6916  3.5147
22140SOL    HW268143   3.518   6.859   8.898  0.2971 -0.3277  0.8157
22141SOL     OW68144   3.036   7.497   9.178  0.1137  0.0991 -0.7705
22141SOL    HW168145   2.966   7.506   9.114 -0.1593  0.5197 -0.4172
22141SOL    HW268146   3.117   7.505   9.127 -0.0802 -0.9397 -1.2578
22142SOL     OW68147   9.309   5.575   0.660  0.1758  0.1060  0.5389
22142SOL    HW168148   9.288   5.483   0.673 -3.0882  0.9360  2.4894
22142SOL    HW268149   9.249   5.604   0.592 -0.0963  1.1169  1.1830
22143SOL     OW68150   8.697   2.426   8.471 -0.0607 -0.3158  0.3032
22143SOL    HW168151   8.739   2.507   8.442  0.1999  0.3073  2.2106
22143SOL    HW268152   8.746   2.356   8.429  1.1241  0.4793  0.3145
22144SOL     OW68153   9.334   7.141   1.289  0.8007 -0.8352 -0.2856
22144SOL    HW168154   9.381   7.198   1.229 -0.1237 -0.7431 -0.9357
22144SOL    HW268155   9.261   7.106   1.238 -0.6936  0.1517  1.0708
22145SOL     OW68156   6.345   6.555   7.171 -0.1968 -0.1841  0.2685
22145SOL    HW168157   6.346   6.635   7.119 -2.1222 -0.6027 -0.4756
22145SOL    HW268158   6.360   6.585   7.261  0.2715  0.8599 -0.1434
22146SOL     OW68159   0.358   5.374   0.188  0.2379  0.0984 -0.2316
22146SOL    HW168160   0.416   5.333   0.253 -0.1285 -1.7779 -1.0295
22146SOL    HW268161   0.309   5.301   0.151 -0.0843  1.2185 -2.1006
22147SOL     OW68162   3.710   8.720   8.241 -0.1920 -0.3400  0.6156
22147SOL    HW168163   3.789   8.735   8.294  0.3124  0.0997 -0.2424
22147SOL    HW268164   3.638   8.752   8.295  0.5453  2.6183  0.0146
22148SOL     OW68165   9.219   2.717   0.160  0.2812 -0.0811 -0.1882
22148SOL    HW168166   9.239   2.631   0.198 -2.1470 -0.9034 -0.5776
22148SOL    HW268167   9.250   2.711   0.070  0.2900 -0.4805 -0.1620
22149SOL     OW68168   0.893   8.354   8.173 -0.1743  0.8390  0.5900
22149SOL    HW168169   0.842   8.312   8.104 -1.9873  2.4095  0.8834
22149SOL    HW268170   0.945   8.420   8.129  0.1659  0.5341  0.5245
22150SOL     OW68171   4.744   9.474   7.524 -0.5401  0.0115 -0.6843
22150SOL    HW168172   4.834   9.487   7.551 -0.0877 -0.3232 -1.9610
22150SOL    HW268173   4.750   9.443   7.434 -1.7928 -2.7132  0.0436
22151SOL     OW68174   8.449   6.821   5.298  0.0137 -0.3529  0.0014
22151SOL    HW168175   8.428   6.747   5.355  0.3955 -0.6488 -0.2440
22151SOL    HW268176   8.535   6.801   5.262  0.9537  1.0281  1.3110
22152SOL     OW68177   3.611   6.141   0.663  0.4130  0.2408  0.3776
22152SOL    HW168178   3.568   6.096   0.736 -0.6958 -0.2087 -0.5254
22152SOL    HW268179   3.564   6.223   0.654 -0.1181 -0.1417 -0.4548
22153SOL     OW68180   3.879   2.135   2.574  0.0398 -0.3688  0.1852
22153SOL    HW168181   3.822   2.138   2.497  1.7984  0.1058 -1.1625
22153SOL    HW268182   3.926   2.052   2.565  0.2938 -0.2850  0.7255
22154SOL     OW68183   6.166   4.986   0.803 -0.1978  0.5356  0.9360
22154SOL    HW168184   6.260   5.005   0.804 -0.5085  2.3558  0.0805
22154SOL    HW268185   6.157   4.908   0.748  0.7558  0.7125  0.5214
22155SOL     OW68186   7.477   1.375   0.679  0.4554 -0.2250 -0.1728
22155SOL    HW168187   7.471   1.349   0.771  0.2199 -0.7339 -0.3235
22155SOL    HW268188   7.394   1.420   0.661  0.2101 -0.7096 -0.3008
22156SOL     OW68189   9.047   6.412   0.665 -0.0153 -0.4615  0.4109
22156SOL    HW168190   9.014   6.333   0.707 -1.3238 -0.2470 -0.1578
22156SOL    HW268191   8.985   6.428   0.593 -0.1120  1.3770  0.8488
22157SOL     OW68192   7.862   5.146   4.930 -0.5080  0.2815 -0.2163
22157SOL    HW168193   7.927   5.174   4.993 -0.5626  0.6719 -0.3317
22157SOL    HW268194   7.848   5.222   4.874 -2.0062  0.6415  0.5897
22158SOL     OW68195   2.588   4.994   9.064 -0.1943 -0.5969  0.8231
22158SOL    HW168196   2.557   4.973   9.153 -2.7419 -0.4790  0.0554
22158SOL    HW268197   2.680   4.968   9.064 -0.2034 -0.9280  3.3827
22159SOL     OW68198   8.400   5.965   3.021 -0.1447 -0.7568  0.1569
22159SOL    HW168199   8.370   5.882   2.984 -0.3206 -0.6344  0.0285
22159SOL    HW268200   8.373   5.961   3.113  1.2535 -1.5376  0.5675
22160SOL     OW68201   0.623   8.768   8.116  0.1872  0.3196 -0.3232
22160SOL    HW168202   0.644   8.714   8.192  0.9405  0.9926 -0.0492
22160SOL    HW268203   0.537   8.805   8.136 -1.2471 -2.2252 -1.3339
22161SOL     OW68204   4.255   8.298   3.467 -0.8816 -0.1278  0.0395
22161SOL    HW168205   4.264   8.203   3.473  0.9248  0.0375  0.4058
22161SOL    HW268206   4.262   8.328   3.558 -0.1064  0.4377 -0.1974
22162SOL     OW68207   0.607   9.033   8.367 -0.2309  0.2744  0.4626
22162SOL    HW168208   0.526   9.015   8.415  0.6426 -0.4377  1.7294
22162SOL    HW268209   0.664   8.959   8.388  0.2463 -0.0299 -1.6187
22163SOL     OW68210   8.461   5.852   4.635  0.2187  0.1112 -0.4628
22163SOL    HW168211   8.461   5.941   4.599  1.1760  0.4496  0.3364
22163SOL    HW268212   8.400   5.804   4.579 -0.1334  1.2072 -1.0566
22164SOL     OW68213   7.073   9.381   4.313 -0.3840  0.2308  0.5885
22164SOL    HW168214   7.071   9.455   4.375  0.2293  0.5534  0.2386
22164SOL    HW268215   7.159   9.341   4.327 -0.6429 -0.3164  0.6452
22165SOL     OW68216   9.218   3.032   3.341 -0.0754  0.1048 -0.0288
22165SOL    HW168217   9.302   2.987   3.338  0.2078  0.4146  1.8564
22165SOL    HW268218   9.236   3.119   3.305  0.8823  0.7657  1.8876
22166SOL     OW68219   2.607   2.045   9.129  0.1274 -0.1411  0.0264
22166SOL    HW168220   2.561   2.099   9.193 -0.7604 -1.1025  0.2211
22166SOL    HW268221   2.540   1.988   9.093  1.0600 -1.1749 -0.1168
22167SOL     OW68222   2.823   4.584   3.902  0.5434  0.9237  0.2589
22167SOL    HW168223   2.810   4.670   3.860  1.0728  0.7959 -0.1832
22167SOL    HW268224   2.866   4.604   3.985 -2.0288  1.3255  1.5922
22168SOL     OW68225   5.368   5.863   2.036  0.1061  0.4523 -0.3042
22168SOL    HW168226   5.330   5.788   1.990  1.4289  0.5820 -1.7099
22168SOL    HW268227   5.358   5.842   2.129 -1.7472 -0.3037 -0.6406
22169SOL     OW68228   6.345   2.646   5.464 -0.0711  1.0475 -0.7352
22169SOL    HW168229   6.380   2.695   5.390 -1.4140  0.3485 -1.8681
22169SOL    HW268230   6.329   2.558   5.430  1.4606  0.0315  1.0247
22170SOL     OW68231   8.296   3.103   3.640 -0.1645  0.3068  0.0846
22170SOL    HW168232   8.273   3.185   3.684  0.2910  0.6846 -0.3706
22170SOL    HW268233   8.219   3.083   3.587 -1.0667 -0.5996  1.6484
22171SOL     OW68234   5.484   2.577   6.227  0.7406  0.1631  0.6526
22171SOL    HW168235   5.413   2.587   6.290 -0.4041  1.1324 -0.7110
22171SOL    HW268236   5.496   2.665   6.190 -0.6762 -0.8218 -2.5240
22172SOL     OW68237   7.078   7.344   7.670 -0.5047 -0.2580  0.2002
22172SOL    HW168238   7.004   7.378   7.720 -1.4052 -1.0635 -0.5460
22172SOL    HW268239   7.142   7.317   7.736 -1.9573 -1.9911  0.9802
22173SOL     OW68240   5.626   3.351   6.859 -0.3455 -0.2889 -0.5929
22173SOL    HW168241   5.684   3.309   6.923 -1.0825 -1.9410 -0.9615
22173SOL    HW268242   5.637   3.300   6.779  1.1159  2.1817 -2.0886
22174SOL     OW68243   2.659   3.269   3.455  0.1098  0.2132  0.1966
22174SOL    HW168244   2.633   3.234   3.540  1.1117  1.7318  1.1857
22174SOL    HW268245   2.579   3.308   3.420 -0.6880 -1.7684 -0.3198
22175SOL     OW68246   3.522   4.253   3.943  0.3462 -0.1758 -0.0815
22175SOL    HW168247   3.515   4.167   3.902 -1.6287  1.6866 -4.3234
22175SOL    HW268248   3.444   4.260   3.998  0.5413 -1.0796  0.3218
22176SOL     OW68249   0.019   5.031   1.383 -0.3409 -0.5069  0.1892
22176SOL    HW168250  -0.073   5.057   1.379 -0.5920 -0.9462  2.0507
22176SOL    HW268251   0.020   4.942   1.346 -0.4388 -0.0520 -0.9419
22177SOL     OW68252   8.357   7.416   5.579  0.6498 -1.0887  0.3128
22177SOL    HW168253   8.365   7.486   5.643 -0.5041  1.1335 -1.7644
22177SOL    HW268254   8.410   7.445   5.505 -1.7681 -1.0794 -1.5617
22178SOL     OW68255   0.928   1.191   1.081 -0.2218 -0.2226  0.5039
22178SOL    HW168256   0.952   1.099   1.070  0.5510 -0.2316  2.0076
22178SOL    HW268257   0.982   1.237   1.017 -0.8504 -0.8238 -0.4902
22179SOL     OW68258   7.813   4.607   4.720 -0.1049 -0.2243 -0.2991
22179SOL    HW168259   7.757   4.650   4.657 -0.2716 -0.3980 -0.2695
22179SOL    HW268260   7.898   4.600   4.676 -0.5633 -1.5715 -1.0405
22180SOL     OW68261   6.718   5.527   0.631  0.0990  0.4152  0.2340
22180SOL    HW168262   6.656   5.466   0.592  1.9956 -1.6379  0.2118
22180SOL    HW268263   6.680   5.613   0.616 -1.7936 -0.6267 -1.4277
22181SOL     OW68264   3.248   5.040   7.348 -1.1875  1.0147 -0.3909
22181SOL    HW168265   3.278   4.975   7.413  0.6842  2.1744 -0.0020
22181SOL    HW268266   3.300   5.020   7.270  1.1442  3.3411  0.4262
22182SOL     OW68267   6.867   6.998   6.097  0.8769 -0.0775 -0.1085
22182SOL    HW168268   6.809   7.007   6.173  1.1629 -1.0397  0.2401
22182SOL    HW268269   6.816   6.945   6.034  1.5539 -1.4036  0.4212
22183SOL     OW68270   3.147   7.415   8.573  0.4187  0.1261  0.2036
22183SOL    HW168271   3.126   7.474   8.646 -0.6096 -1.0990  0.9592
22183SOL    HW268272   3.115   7.460   8.495 -1.9620 -0.1176  0.9470
22184SOL     OW68273   1.664   6.256   4.009  0.0777 -0.4088  0.6937
22184SOL    HW168274   1.628   6.168   4.009 -0.2929 -0.2692 -0.1990
22184SOL    HW268275   1.698   6.268   4.098  0.3453 -1.5299  0.7586
22185SOL     OW68276   3.391   9.509   5.456 -0.0734  0.0780  0.2584
22185SOL    HW168277   3.320   9.566   5.424 -0.5133 -0.6004  0.0018
22185SOL    HW268278   3.443   9.492   5.378 -1.0660 -1.4640 -0.1059
22186SOL     OW68279   8.254   4.128   7.249  0.1756 -0.2404 -0.1462
22186SOL    HW168280   8.225   4.178   7.325 -0.9218  0.3678 -0.9473
22186SOL    HW268281   8.349   4.143   7.245  0.3154 -0.5899  1.3008
22187SOL     OW68282   1.957   4.554   3.206  0.2618 -0.6635 -0.2939
22187SOL    HW168283   1.981   4.645   3.227  0.8906 -1.2586  1.9376
22187SOL    HW268284   2.041   4.511   3.189  0.2137 -1.2911  0.9263
22188SOL     OW68285   8.279   4.435   2.400 -0.2314  0.0093  0.3126
22188SOL    HW168286   8.202   4.411   2.452 -1.2031 -0.2917 -1.1952
22188SOL    HW268287   8.347   4.376   2.430 -0.4558  0.4928  1.9088
22189SOL     OW68288   8.945   6.378   5.255  0.6239  0.2858 -0.5128
22189SOL    HW168289   8.968   6.372   5.348 -0.0382 -0.2977 -0.3792
22189SOL    HW268290   8.997   6.309   5.214 -0.9709 -1.1623 -0.1822
22190SOL     OW68291   5.140   5.562   1.627  0.2549 -0.0826  0.9848
22190SOL    HW168292   5.072   5.596   1.569  0.5119  0.8688  1.2316
22190SOL    HW268293   5.161   5.475   1.591  0.4156  0.4901 -0.3510
22191SOL     OW68294   2.633   5.160   8.526  0.4323 -0.0119  0.1596
22191SOL    HW168295   2.548   5.156   8.482  0.2423  0.2863  0.4991
22191SOL    HW268296   2.613   5.181   8.617  0.9290  0.9978  0.0488
22192SOL     OW68297   8.867   8.350   2.934  0.2343  0.1190  0.2882
22192SOL    HW168298   8.875   8.407   2.857 -0.9864 -2.0360 -1.5415
22192SOL    HW268299   8.787   8.380   2.977 -0.2839 -0.0439 -0.5381
22193SOL     OW68300   6.647   6.992   6.287  0.3480 -0.6499  0.4314
22193SOL    HW168301   6.593   6.919   6.256  0.8035  0.0225 -2.2129
22193SOL    HW268302   6.586   7.066   6.293 -0.1015 -1.1268  3.0531
22194SOL     OW68303   3.532   0.645   3.067  0.7750  0.1824 -0.3335
22194SOL    HW168304   3.511   0.644   2.973 -0.8523  2.0263 -0.0463
22194SOL    HW268305   3.457   0.687   3.108  1.5616 -0.3751  1.8001
22195SOL     OW68306   7.156   0.441   3.820 -0.2305  0.8114  0.0251
22195SOL    HW168307   7.210   0.458   3.897  0.0130  1.2470 -0.2405
22195SOL    HW268308   7.169   0.348   3.801 -1.0774  0.4591  1.1092
22196SOL     OW68309   6.762   9.135   0.697 -0.5242  0.2825  0.4368
22196SOL    HW168310   6.680   9.100   0.731  0.1874 -1.8194  0.1411
22196SOL    HW268311   6.738   9.180   0.617 -1.6031  1.2399  1.2776
22197SOL     OW68312   6.476   2.936   1.874 -0.3411  0.4034  0.1668
22197SOL    HW168313   6.446   2.898   1.956  1.2952  0.5152  0.8727
22197SOL    HW268314   6.458   2.869   1.808  1.6963 -1.3268  1.2425
22198SOL     OW68315   2.108   0.121   0.008 -0.1678  0.0006 -0.0959
22198SOL    HW168316   2.056   0.082  -0.062 -0.9795 -0.2953  0.6502
22198SOL    HW268317   2.157   0.191  -0.034 -1.9402  0.9644 -0.6490
22199SOL     OW68318   1.981   1.953   3.718  0.6793  0.4299 -0.5315
22199SOL    HW168319   1.902   1.974   3.667 -1.3868 -2.5665  1.1688
22199SOL    HW268320   2.033   1.898   3.659 -0.4952 -0.9414 -0.3355
22200SOL     OW68321   8.185   3.224   5.177 -0.0030 -0.3483  0.0678
22200SOL    HW168322   8.265   3.215   5.228  1.0891 -0.5897 -1.5938
22200SOL    HW268323   8.174   3.138   5.135 -1.9076 -0.7664  1.2785
22201SOL     OW68324   0.759   3.125   6.608  0.6100  0.6151  0.1648
22201SOL    HW168325   0.727   3.054   6.663  0.1343  1.3992  0.9239
22201SOL    HW268326   0.682   3.178   6.588  1.0373  1.2241  0.0772
22202SOL     OW68327   9.129   2.066   3.277 -0.5775 -0.1082 -0.4717
22202SOL    HW168328   9.063   2.132   3.255 -0.3407  0.2045 -0.2590
22202SOL    HW268329   9.080   1.984   3.285 -0.7702 -0.1144 -1.5367
22203SOL     OW68330   5.352   6.777   8.599 -0.3096  0.1351 -0.7278
22203SOL    HW168331   5.300   6.748   8.673  0.9774 -0.4376 -0.0269
22203SOL    HW268332   5.336   6.872   8.594 -0.4992  0.1551  0.1969
22204SOL     OW68333   1.001   7.229   2.175  0.3981 -0.1955 -0.8187
22204SOL    HW168334   0.957   7.171   2.113  0.0189 -0.4017 -0.3596
22204SOL    HW268335   1.030   7.172   2.246 -0.3588  0.2352 -0.1533
22205SOL     OW68336   9.520   0.141   9.357  0.3104 -0.2663  0.3275
22205SOL    HW168337   9.610   0.108   9.354  0.1018 -0.8269  0.0133
22205SOL    HW268338   9.498   0.141   9.450  0.2183 -1.3059  0.3166
22206SOL     OW68339   6.154   7.537   6.116  0.0724 -0.5750  0.1043
22206SOL    HW168340   6.236   7.508   6.157  2.8439  2.2110 -2.8969
22206SOL    HW268341   6.111   7.456   6.090  1.6890 -2.1719  2.0523
22207SOL     OW68342   8.622   2.815   0.464 -0.4146 -0.4269 -0.0573
22207SOL    HW168343   8.649   2.777   0.381 -1.8551 -0.2406 -0.6375
22207SOL    HW268344   8.526   2.814   0.461 -0.5425  2.4672  0.2225
22208SOL     OW68345   7.856   1.904   0.549  0.8637  0.3658  0.0286
22208SOL    HW168346   7.774   1.874   0.511 -0.3431  1.1241  1.8755
22208SOL    HW268347   7.874   1.842   0.620  1.1535  0.9694  0.4960
22209SOL     OW68348   3.507   4.720   6.776 -0.3013  0.2198 -0.3230
22209SOL    HW168349   3.421   4.701   6.814 -0.4716  0.7618 -0.4249
22209SOL    HW268350   3.524   4.811   6.801  0.6428 -0.1548  0.4606
22210SOL     OW68351   2.030   3.389   5.972  0.0613  0.1034 -0.4792
22210SOL    HW168352   2.120   3.380   6.004 -0.4242 -1.2694  0.6218
22210SOL    HW268353   1.975   3.363   6.047 -1.1755 -1.6891 -1.8999
22211SOL     OW68354   3.016   7.661   5.831  0.0876 -0.2462  0.5878
22211SOL    HW168355   3.031   7.687   5.922 -0.3934 -0.0573  0.6148
22211SOL    HW268356   2.947   7.595   5.836 -2.9911  2.6625  0.0731
22212SOL     OW68357   8.416   9.139   9.053 -0.0096 -0.0944 -0.5181
22212SOL    HW168358   8.365   9.196   9.110 -2.1493 -1.5743 -0.8362
22212SOL    HW268359   8.507   9.149   9.083 -0.4110  2.6794  0.0439
22213SOL     OW68360   7.283   0.140   0.967 -0.2078 -0.2645  0.0151
22213SOL    HW168361   7.271   0.064   0.910 -1.7849  0.0535 -0.1306
22213SOL    HW268362   7.209   0.136   1.027 -0.2408  1.0896  0.0860
22214SOL     OW68363   3.937   2.140   4.173  0.5664 -0.2864  0.1221
22214SOL    HW168364   3.996   2.077   4.213  2.9637  0.5161 -1.8847
22214SOL    HW268365   3.991   2.187   4.109 -2.1903  0.7393 -1.6582
22215SOL     OW68366   4.235   4.041   2.557  0.2763  0.0083  0.7535
22215SOL    HW168367   4.205   4.007   2.641 -2.0804  0.4805  0.1713
22215SOL    HW268368   4.241   4.135   2.570  0.5795  0.0144  0.5773
22216SOL     OW68369   7.128   9.287   5.985 -0.5648  0.1993 -0.2282
22216SOL    HW168370   7.206   9.338   6.008 -0.4753  0.8089 -1.7748
22216SOL    HW268371   7.161   9.215   5.931 -1.1159  0.9614 -1.6521
22217SOL     OW68372   9.212   2.663   3.462  0.1157 -0.0514 -0.4611
22217SOL    HW168373   9.123   2.645   3.432  0.1833 -0.2855 -0.5223
22217SOL    HW268374   9.210   2.641   3.555  0.0127  0.2945 -0.3810
22218SOL     OW68375   3.789   2.751   8.902 -0.1042  0.4599  0.3255
22218SOL    HW168376   3.706   2.778   8.940 -0.1860  0.2829  0.2742
22218SOL    HW268377   3.781   2.656   8.892 -0.2861  0.5695 -0.6364
22219SOL     OW68378   7.099   0.925   0.217  0.3107 -0.5757 -0.3968
22219SOL    HW168379   7.128   0.836   0.237 -0.4685 -0.9540 -0.8908
22219SOL    HW268380   7.175   0.967   0.177  0.9036 -0.7865  0.4882
22220SOL     OW68381   2.245   0.337   0.583  0.6799 -0.3725  0.0196
22220SOL    HW168382   2.287   0.308   0.502  0.1800 -2.4079  0.4313
22220SOL    HW268383   2.317   0.354   0.643  1.0174 -1.0432 -0.1794
22221SOL     OW68384   5.256   3.989   5.771 -0.5615  0.1502  0.3095
22221SOL    HW168385   5.284   4.027   5.688 -0.1112  0.6721  0.6999
22221SOL    HW268386   5.333   3.942   5.803 -1.0640 -0.9904 -0.0982
22222SOL     OW68387   2.705   2.483   2.248  0.1034 -0.0610 -0.3517
22222SOL    HW168388   2.624   2.522   2.282 -0.8472 -3.2641  1.5331
22222SOL    HW268389   2.690   2.473   2.154 -0.1042  2.7231 -0.6707
22223SOL     OW68390   9.579   6.738   5.564 -0.2345  0.1496 -0.0269
22223SOL    HW168391   9.612   6.648   5.559 -0.8314 -0.1637  1.2606
22223SOL    HW268392   9.523   6.747   5.487  0.4153 -0.3219 -0.5702
22224SOL     OW68393   6.065   4.828   7.890 -0.8431 -0.0289  0.1835
22224SOL    HW168394   6.013   4.810   7.968 -1.6962  0.9561 -0.1234
22224SOL    HW268395   6.146   4.867   7.923 -0.4669 -1.1682  0.6474
22225SOL     OW68396   5.133   0.112   9.104 -0.0735  0.1315  0.4502
22225SOL    HW168397   5.041   0.135   9.118  0.0206 -0.0154  1.3608
22225SOL    HW268398   5.153   0.049   9.173 -0.3764 -2.9730 -2.1007
22226SOL     OW68399   8.663   5.279   2.660  0.2350  0.5442  0.1874
22226SOL    HW168400   8.696   5.366   2.683 -0.1212  0.6972  0.1277
22226SOL    HW268401   8.569   5.291   2.650  0.2853  0.3135 -0.5888
22227SOL     OW68402   6.515   4.390   7.874  0.3170  0.2177 -0.7007
22227SOL    HW168403   6.506   4.429   7.787  1.8955  0.5906 -0.7177
22227SOL    HW268404   6.542   4.300   7.858  0.8881  0.3685 -0.5966
22228SOL     OW68405   5.559   3.437   6.426 -0.3557  0.0316 -0.5612
22228SOL    HW168406   5.562   3.357   6.477  0.2457 -0.3158 -1.1289
22228SOL    HW268407   5.486   3.487   6.464 -0.3883 -0.5375  0.1438
22229SOL     OW68408   3.303   9.550   1.629  0.2935 -0.8793  0.2330
22229SOL    HW168409   3.368   9.580   1.566 -0.1088  1.9347  1.0081
22229SOL    HW268410   3.227   9.525   1.576  1.2441 -2.1997 -0.5533
22230SOL     OW68411   5.765   1.423   0.777  0.3614 -0.1342 -0.1735
22230SOL    HW168412   5.697   1.356   0.789  0.6938 -0.2775  1.1111
22230SOL    HW268413   5.717   1.505   0.766 -0.0624 -0.6038 -2.2096
22231SOL     OW68414   0.295   2.959   9.077 -0.0811  0.3378 -0.0859
22231SOL    HW168415   0.255   2.879   9.041 -0.6867  0.4817  0.2640
22231SOL    HW268416   0.283   3.024   9.008  0.7226  0.0499 -0.5159
22232SOL     OW68417   3.873   0.968   5.079 -0.5542  0.2392 -0.5570
22232SOL    HW168418   3.849   0.970   4.986  1.5209  1.7612 -1.1396
22232SOL    HW268419   3.953   1.021   5.084 -0.2385 -0.3610  2.0084
22233SOL     OW68420   3.319   2.550   2.484  0.3847  0.3450 -0.1657
22233SOL    HW168421   3.352   2.537   2.395  1.3450  0.5325  0.1505
22233SOL    HW268422   3.227   2.572   2.472  0.3293 -0.3219 -1.0726
22234SOL     OW68423   6.808   2.521   9.666  0.2248  0.3476  0.1453
22234SOL    HW168424   6.867   2.595   9.654 -0.7903  1.2064  0.3287
22234SOL    HW268425   6.733   2.540   9.611  0.5667 -1.2845 -0.9704
22235SOL     OW68426   1.865   4.162   1.106 -0.2919  0.2751 -0.0498
22235SOL    HW168427   1.781   4.179   1.063  0.1836  0.3952 -0.9513
22235SOL    HW268428   1.929   4.213   1.056  0.4889 -0.6667 -0.0479
22236SOL     OW68429   3.445   4.545   5.538  0.4031 -0.1735  0.6945
22236SOL    HW168430   3.463   4.458   5.573 -1.8217 -0.8555  0.3234
22236SOL    HW268431   3.353   4.561   5.560  0.8308  2.2394  1.0300
22237SOL     OW68432   9.432   5.103   8.666 -0.1160 -0.3596  0.7297
22237SOL    HW168433   9.356   5.058   8.628 -0.9855  0.9170  0.8919
22237SOL    HW268434   9.472   5.148   8.593 -1.0601  1.0793  1.0589
22238SOL     OW68435   4.099   4.623   8.713 -0.2429  0.3585  0.0964
22238SOL    HW168436   4.083   4.540   8.759 -0.2414 -0.2590 -0.9778
22238SOL    HW268437   4.164   4.668   8.767  1.2782 -1.2224 -0.2894
22239SOL     OW68438   7.916   0.916   6.495 -0.2327 -0.1904  0.2767
22239SOL    HW168439   7.918   1.011   6.491  0.8433 -0.1953  0.3378
22239SOL    HW268440   8.008   0.890   6.492 -0.5500 -1.2772 -0.9668
22240SOL     OW68441   8.161   6.851   5.873 -0.3406  0.0803  0.0877
22240SOL    HW168442   8.094   6.904   5.916  1.7883  1.0551  2.4365
22240SOL    HW268443   8.171   6.775   5.930  0.1867 -0.3061 -0.5177
22241SOL     OW68444   3.057   7.719   9.661  0.3518  0.0922  0.3386
22241SOL    HW168445   3.010   7.644   9.627 -0.8043  0.6511  0.6563
22241SOL    HW268446   3.091   7.690   9.746  0.4214 -0.2587  0.1893
22242SOL     OW68447   3.374   9.223   5.512  0.0589 -0.0714  0.1226
22242SOL    HW168448   3.382   9.207   5.418 -2.6480 -0.3352 -0.1331
22242SOL    HW268449   3.401   9.314   5.523  2.7053 -0.6794 -0.4556
22243SOL     OW68450   6.034   3.552   2.708  0.6425 -0.2408  0.5117
22243SOL    HW168451   6.059   3.604   2.631 -2.7271  1.8041  0.5575
22243SOL    HW268452   5.950   3.591   2.736  0.4215 -2.6117  3.6472
22244SOL     OW68453   1.743   9.694   8.526  0.2459  0.1425  0.1324
22244SOL    HW168454   1.773   9.698   8.435  0.6998  0.6734  0.2947
22244SOL    HW268455   1.815   9.653   8.574  0.3237  0.5504  0.3720
22245SOL     OW68456   8.322   8.405   1.367  0.0879 -0.0204 -1.0801
22245SOL    HW168457   8.274   8.480   1.331  0.0643  0.6594  0.2971
22245SOL    HW268458   8.393   8.390   1.306  0.9837  2.1004 -0.6426
22246SOL     OW68459   9.328   1.211   8.229 -0.2176  0.0821  0.1793
22246SOL    HW168460   9.256   1.164   8.271 -1.0413  0.8071 -0.3838
22246SOL    HW268461   9.339   1.168   8.144  1.7888 -1.7200  1.2532
22247SOL     OW68462   3.367   5.005   9.236  0.0052 -0.4042 -0.1771
22247SOL    HW168463   3.372   5.099   9.248 -0.9554 -0.4866  1.0348
22247SOL    HW268464   3.408   4.968   9.314 -2.0754 -0.9610  0.7108
22248SOL     OW68465   3.103   1.718   5.714  0.2975  0.1618  0.4676
22248SOL    HW168466   3.143   1.657   5.652  0.8345  1.8181 -0.8706
22248SOL    HW268467   3.009   1.696   5.713  0.6077 -1.3142  0.8445
22249SOL     OW68468   1.490   4.172   5.816 -0.2939 -0.4618 -0.1036
22249SOL    HW168469   1.398   4.160   5.791 -0.0478 -1.2759 -0.6850
22249SOL    HW268470   1.506   4.106   5.883 -0.4032  0.3759  0.7599
22250SOL     OW68471   8.822   1.585   5.124  0.1928  0.5594 -0.6054
22250SOL    HW168472   8.890   1.547   5.179 -0.5226 -2.0367 -1.3856
22250SOL    HW268473   8.771   1.641   5.183  1.4630  0.5500  0.5432
22251SOL     OW68474   2.995   7.969   3.658 -0.3411 -0.3978 -0.2481
22251SOL    HW168475   3.066   8.012   3.609 -0.9430  0.5800 -0.2935
22251SOL    HW268476   2.932   8.039   3.674 -1.0853 -1.1587  0.1982
22252SOL     OW68477   0.060   4.683   6.921  0.1043 -0.4005 -0.0188
22252SOL    HW168478   0.109   4.708   7.000  0.0146 -0.0920 -0.0614
22252SOL    HW268479   0.113   4.717   6.849 -1.1722  1.7481 -0.0178
22253SOL     OW68480   1.089   5.944   4.682  0.0715 -0.1887 -0.1774
22253SOL    HW168481   1.100   5.950   4.587 -1.7340  1.0033 -0.3714
22253SOL    HW268482   1.023   5.875   4.694 -0.6222  0.5096  0.1088
22254SOL     OW68483   9.337   3.833   2.492  0.3996  0.4445 -0.1831
22254SOL    HW168484   9.351   3.778   2.569 -0.0447  0.5418 -0.0283
22254SOL    HW268485   9.244   3.854   2.494  0.6561  1.6910  0.1051
22255SOL     OW68486   5.512   0.797   5.769  0.4406 -0.7353 -0.4499
22255SOL    HW168487   5.476   0.778   5.682 -0.8014  2.3151 -0.7097
22255SOL    HW268488   5.460   0.741   5.828  0.1095 -1.5552 -1.4743
22256SOL     OW68489   4.066   4.372   9.177 -0.6881 -0.2905 -0.7260
22256SOL    HW168490   3.997   4.328   9.226 -1.5056 -0.6722 -2.1384
22256SOL    HW268491   4.147   4.329   9.205 -0.9518  0.3777  1.1912
22257SOL     OW68492   2.073   0.244   5.953  0.5026 -0.3194  0.0155
22257SOL    HW168493   2.021   0.297   6.015  1.3566 -0.1317  0.5931
22257SOL    HW268494   2.117   0.309   5.898  1.0897 -0.4317  0.3407
22258SOL     OW68495   0.107   3.592   1.181  0.5891  0.2515 -0.1685
22258SOL    HW168496   0.129   3.603   1.273  0.2214  0.3633 -0.0908
22258SOL    HW268497   0.165   3.653   1.135  0.4719  0.5155  0.0271
22259SOL     OW68498   2.636   5.793   4.753 -0.3613 -0.1679 -0.1721
22259SOL    HW168499   2.718   5.813   4.797 -0.1651  0.7214 -0.9157
22259SOL    HW268500   2.655   5.714   4.702 -0.2236 -0.4506  0.3065
22260SOL     OW68501   7.947   1.938   0.104 -0.2006 -0.0617 -0.7736
22260SOL    HW168502   7.998   1.877   0.158  1.0533  1.1804 -0.5061
22260SOL    HW268503   7.991   2.023   0.115 -0.2710  0.3771 -3.2271
22261SOL     OW68504   2.646   4.861   1.742 -0.2626  0.1772  0.0478
22261SOL    HW168505   2.558   4.871   1.707 -0.7171  0.9366  1.3122
22261SOL    HW268506   2.658   4.938   1.799  0.5780 -0.7354  1.1670
22262SOL     OW68507   8.632   7.914   1.895 -0.1935 -0.0281  0.3317
22262SOL    HW168508   8.576   7.887   1.968 -1.9080 -0.0197 -0.9309
22262SOL    HW268509   8.700   7.848   1.891 -1.0705 -0.9877  0.8605
22263SOL     OW68510   0.958   7.239   6.537 -0.3465  0.3763  0.7095
22263SOL    HW168511   0.898   7.294   6.485 -0.9623 -1.2652 -0.3779
22263SOL    HW268512   1.033   7.224   6.479 -1.5044 -2.3505 -0.2527
22264SOL     OW68513   3.267   5.279   5.394  0.0940  0.0212 -0.0122
22264SOL    HW168514   3.189   5.227   5.415  0.5446 -0.6760 -0.0366
22264SOL    HW268515   3.235   5.369   5.388 -1.0100 -0.4267 -1.5151
22265SOL     OW68516   4.356   1.542   6.383 -0.0983  0.4559  0.1844
22265SOL    HW168517   4.373   1.604   6.312  0.1419  0.6224  0.3838
22265SOL    HW268518   4.294   1.480   6.347 -0.5973  1.0035  0.0745
22266SOL     OW68519   8.344   4.810   3.459  0.1296 -0.1960  0.1968
22266SOL    HW168520   8.273   4.797   3.396 -1.1852  0.6630  1.4312
22266SOL    HW268521   8.377   4.721   3.476 -1.1493 -0.7072  0.1374
22267SOL     OW68522   5.168   5.551   3.029 -0.0559  0.4340 -0.2650
22267SOL    HW168523   5.256   5.547   2.992  0.3560  1.1128  0.6398
22267SOL    HW268524   5.112   5.577   2.955  0.6707  1.1821 -0.5607
22268SOL     OW68525   0.206   2.352   2.410  0.0076  0.0255 -0.1199
22268SOL    HW168526   0.146   2.425   2.393 -1.7654 -1.1348  0.8681
22268SOL    HW268527   0.156   2.274   2.388  2.1021 -0.9377 -1.8242
22269SOL     OW68528   8.676   0.152   2.525 -0.4677 -0.5811  0.4891
22269SOL    HW168529   8.673   0.159   2.621 -2.5589 -0.2976  0.4426
22269SOL    HW268530   8.619   0.222   2.494  1.5754  0.4920 -1.0765
22270SOL     OW68531   6.324   6.207   7.384 -0.1343 -0.2014 -0.7994
22270SOL    HW168532   6.388   6.193   7.454  0.2292 -2.1338 -1.4621
22270SOL    HW268533   6.242   6.226   7.430  0.3449 -0.2890  0.1197
22271SOL     OW68534   4.885   9.180   0.257 -0.0505 -0.5751 -0.4412
22271SOL    HW168535   4.828   9.195   0.181 -0.3305 -0.6777 -0.2555
22271SOL    HW268536   4.878   9.261   0.308 -0.3615 -0.7443 -0.2085
22272SOL     OW68537   1.572   0.575   8.271 -0.3885  0.7402  0.4643
22272SOL    HW168538   1.522   0.516   8.328 -0.2267  0.8153  0.6866
22272SOL    HW268539   1.661   0.538   8.271 -0.4486  0.5934  0.0522
22273SOL     OW68540   4.964   1.492   1.876  0.6125  0.0451  0.3588
22273SOL    HW168541   5.011   1.526   1.952 -1.1033  0.9719  1.0484
22273SOL    HW268542   5.021   1.511   1.802  1.6657  0.4317  1.2469
22274SOL     OW68543   7.551   6.689   9.499  0.1090 -0.1461 -0.4935
22274SOL    HW168544   7.489   6.617   9.510 -0.6180  0.8242  2.8047
22274SOL    HW268545   7.617   6.674   9.566  0.0140  2.1441  0.1928
22275SOL     OW68546   6.129   2.335   9.105  0.0004  0.1437  0.3262
22275SOL    HW168547   6.181   2.258   9.126  0.2172 -0.8811 -3.3055
22275SOL    HW268548   6.188   2.409   9.120  1.3146 -0.7463 -0.2553
22276SOL     OW68549   4.437   1.974   0.288  0.5680  0.4690 -0.2743
22276SOL    HW168550   4.507   1.956   0.350  0.6566 -0.7075 -0.7010
22276SOL    HW268551   4.360   1.932   0.327  0.4339  0.4715 -0.5406
22277SOL     OW68552   7.448   2.051   9.317 -0.1325 -0.4753  0.3644
22277SOL    HW168553   7.531   2.097   9.302 -0.6900  0.1877 -0.7374
22277SOL    HW268554   7.398   2.109   9.374 -0.6370  0.0853 -0.6243
22278SOL     OW68555   5.023   1.039   3.015 -0.2969 -0.2635 -0.1181
22278SOL    HW168556   4.969   0.960   3.014 -2.9339  1.4047  1.0002
22278SOL    HW268557   5.012   1.076   2.928  0.8166 -0.9854 -0.5909
22279SOL     OW68558   1.468   2.388   1.079  0.1421  0.2521 -0.3316
22279SOL    HW168559   1.461   2.476   1.041 -0.5486  0.2563 -0.2166
22279SOL    HW268560   1.554   2.386   1.119  1.1835  0.0361 -2.4442
22280SOL     OW68561   7.615   0.614   3.624 -0.2218  0.6161 -0.0018
22280SOL    HW168562   7.531   0.575   3.599 -0.4340  0.2025  1.3002
22280SOL    HW268563   7.597   0.708   3.629 -0.0749  0.7756 -1.6931
22281SOL     OW68564   2.352   8.962   3.505  0.2574  0.0876  0.1419
22281SOL    HW168565   2.265   8.971   3.544 -0.1552  2.9435 -1.0975
22281SOL    HW268566   2.349   9.020   3.428  2.9900 -0.4124 -0.4489
22282SOL     OW68567   4.737   1.356   4.328 -0.3391  0.0440  0.2813
22282SOL    HW168568   4.758   1.309   4.246 -1.8342 -0.7791  0.3418
22282SOL    HW268569   4.762   1.294   4.397 -0.0092  0.3438  0.4332
22283SOL     OW68570   4.164   1.309   3.494 -0.1669 -0.1363 -0.2809
22283SOL    HW168571   4.258   1.328   3.489 -0.1850 -0.2368 -1.2247
22283SOL    HW268572   4.149   1.245   3.424 -0.8100 -0.6724  0.3327
22284SOL     OW68573   7.368   4.954   8.304 -0.3811  0.2588 -0.1058
22284SOL    HW168574   7.341   5.042   8.330 -1.0183  0.1326 -0.3182
22284SOL    HW268575   7.458   4.946   8.336 -0.6238  0.6605  0.7069
22285SOL     OW68576   5.540   5.429   3.083  0.0866  0.6560  0.5597
22285SOL    HW168577   5.487   5.363   3.037 -1.5709  3.0047 -1.1119
22285SOL    HW268578   5.486   5.458   3.156 -1.6002  3.7660 -1.7146
22286SOL     OW68579   6.546   7.123   4.626 -0.2557 -0.2265 -0.8682
22286SOL    HW168580   6.452   7.135   4.641 -0.2423  0.3456 -1.2252
22286SOL    HW268581   6.555   7.110   4.532  0.1578  1.1259 -1.0339
22287SOL     OW68582   4.859   3.858   0.357  0.0334 -0.2345  0.2658
22287SOL    HW168583   4.881   3.862   0.450  1.1605  1.3034 -0.0321
22287SOL    HW268584   4.943   3.857   0.312 -0.5024 -0.2603 -0.7685
22288SOL     OW68585   5.874   0.361   0.341 -0.0933 -0.2265  0.5139
22288SOL    HW168586   5.839   0.291   0.285  2.8130 -1.5854  0.1818
22288SOL    HW268587   5.846   0.337   0.429  0.5949 -1.7042  0.3663
22289SOL     OW68588   8.995   5.683   8.796 -0.8029  0.2367 -0.5822
22289SOL    HW168589   9.085   5.659   8.773 -0.6552 -1.3489  1.3548
22289SOL    HW268590   8.942   5.612   8.760 -1.1280  0.3950 -0.4176
22290SOL     OW68591   4.658   4.223   3.008  0.2549  0.2186 -0.2341
22290SOL    HW168592   4.585   4.255   2.955  0.4413  1.6839  0.3642
22290SOL    HW268593   4.649   4.269   3.091  1.2379 -0.4110  0.2287
22291SOL     OW68594   3.635   6.505   8.937  0.2284 -0.6038  0.8534
22291SOL    HW168595   3.682   6.587   8.951 -1.3276  0.3154  0.8287
22291SOL    HW268596   3.640   6.490   8.843 -0.0239 -0.2007  0.7743
22292SOL     OW68597   8.820   8.475   2.704 -0.2173  0.4855  0.4134
22292SOL    HW168598   8.843   8.395   2.656  0.7319 -0.6076  2.5391
22292SOL    HW268599   8.728   8.490   2.681 -0.0273 -0.4027 -1.1029
22293SOL     OW68600   7.526   6.425   0.192  0.4820  0.2216  0.8749
22293SOL    HW168601   7.597   6.431   0.127  0.4290  0.7339  0.8621
22293SOL    HW268602   7.449   6.457   0.146  0.5835  1.2435  1.3929
22294SOL     OW68603   5.630   3.700   4.039 -0.0814 -0.3072  0.9971
22294SOL    HW168604   5.541   3.725   4.063 -0.1441 -0.2232  0.6749
22294SOL    HW268605   5.671   3.781   4.009 -1.3741 -1.0872 -3.4984
22295SOL     OW68606   7.624   4.180   0.603  0.3789 -0.2427  0.9853
22295SOL    HW168607   7.616   4.251   0.539 -0.5825 -1.1254  0.0781
22295SOL    HW268608   7.610   4.221   0.688  2.9683  1.2075  0.7956
22296SOL     OW68609   8.513   3.676   4.414  0.1535 -0.4753 -0.0025
22296SOL    HW168610   8.462   3.698   4.492 -0.6846 -2.9632  0.2709
22296SOL    HW268611   8.536   3.760   4.375 -1.6938  0.7961  1.4638
22297SOL     OW68612   2.983   7.922   4.916 -0.2542 -0.0938 -0.0279
22297SOL    HW168613   2.995   7.903   4.822 -2.6040 -1.5784 -0.1206
22297SOL    HW268614   2.928   8.000   4.917  1.4677  1.1830  0.2219
22298SOL     OW68615   1.174   8.918   6.320 -0.2311 -0.5870 -0.2696
22298SOL    HW168616   1.177   8.825   6.342 -0.7094 -0.4876  0.2335
22298SOL    HW268617   1.144   8.961   6.400  2.4200  0.3019  0.3587
22299SOL     OW68618   1.019   7.900   4.253  0.1557  0.1790  0.4358
22299SOL    HW168619   0.927   7.916   4.274 -0.0371  0.8878 -0.8432
22299SOL    HW268620   1.068   7.955   4.314 -0.3347  1.1171  0.0082
22300SOL     OW68621   4.779   5.287   3.245  0.0433 -0.0064  0.2662
22300SOL    HW168622   4.819   5.348   3.184 -0.1025  0.9574  1.1058
22300SOL    HW268623   4.687   5.282   3.218 -0.6000  2.2871  1.8031
22301SOL     OW68624   0.724   2.652   2.029 -0.1514 -0.2089  0.0806
22301SOL    HW168625   0.746   2.709   2.102 -1.1150 -0.3412  0.4846
22301SOL    HW268626   0.658   2.701   1.979  0.6377 -0.0389 -0.8122
22302SOL     OW68627   9.117   9.604   7.817  0.3476  0.2570  0.2920
22302SOL    HW168628   9.055   9.674   7.834  1.4077  0.8156  2.0893
22302SOL    HW268629   9.192   9.625   7.871  2.1818 -0.3577 -1.8769
22303SOL     OW68630   2.276   9.176   5.241  0.1277 -0.3057  0.5415
22303SOL    HW168631   2.322   9.118   5.302 -0.7603 -0.2329  1.3014
22303SOL    HW268632   2.190   9.189   5.281 -0.5478 -0.3953 -0.8197
22304SOL     OW68633   8.236   9.383   5.427 -0.3437 -0.1463  0.4392
22304SOL    HW168634   8.210   9.342   5.509 -2.6865 -0.6554 -0.4852
22304SOL    HW268635   8.245   9.476   5.448  0.2504 -0.4212  1.4892
22305SOL     OW68636   9.401   3.423   8.076  0.1632 -0.5563  0.0263
22305SOL    HW168637   9.472   3.420   8.140 -1.4958 -0.2125  1.9809
22305SOL    HW268638   9.385   3.516   8.062  0.1484 -0.6297 -0.4569
22306SOL     OW68639   2.860   4.957   9.143 -0.2213  0.3979  0.3519
22306SOL    HW168640   2.952   4.976   9.125 -0.6444  2.0996 -0.2637
22306SOL    HW268641   2.848   4.980   9.235  0.1382 -0.6116  0.6613
22307SOL     OW68642   8.030   3.961   6.173 -0.2037 -0.5159 -0.1505
22307SOL    HW168643   7.963   4.004   6.119 -0.6339  0.3348  1.0267
22307SOL    HW268644   7.982   3.931   6.251  1.0787  1.8108  1.6420
22308SOL     OW68645   9.567   1.938   1.051  0.3085 -0.3943 -0.3861
22308SOL    HW168646   9.627   1.921   0.979  1.4219  2.1152 -0.1712
22308SOL    HW268647   9.487   1.970   1.009  0.1043 -1.1264 -0.5671
22309SOL     OW68648   1.847   8.996   8.773  0.1174  0.0903  0.0233
22309SOL    HW168649   1.782   8.947   8.721 -0.1600  0.1735  0.2877
22309SOL    HW268650   1.923   8.938   8.777 -0.1660 -0.2720  0.2309
22310SOL     OW68651   8.263   5.421   1.040  0.7286  0.1164 -0.5485
22310SOL    HW168652   8.276   5.330   1.013 -2.0324 -0.5336  0.0416
22310SOL    HW268653   8.238   5.416   1.132  1.9423  1.6303 -0.0943
22311SOL     OW68654   0.735   0.526   7.695  0.1312 -0.0658  0.2023
22311SOL    HW168655   0.671   0.488   7.756  0.8706 -2.7405 -0.5326
22311SOL    HW268656   0.694   0.519   7.609  0.7321 -0.2833 -0.0781
22312SOL     OW68657   8.508   3.318   8.518  0.2319 -0.3345 -0.0824
22312SOL    HW168658   8.502   3.407   8.485 -0.4242 -0.1269  0.5661
22312SOL    HW268659   8.592   3.285   8.485  1.0668  0.9363  0.6998
22313SOL     OW68660   3.904   6.039   2.648  0.0019 -0.4513  0.7718
22313SOL    HW168661   3.970   5.991   2.699  0.7711 -2.1011 -1.5929
22313SOL    HW268662   3.898   6.124   2.691  3.2667 -0.4310  1.4644
22314SOL     OW68663   0.656   6.313   0.978  0.1421 -0.1077  0.4573
22314SOL    HW168664   0.646   6.294   1.072  0.4167 -2.6654  0.0576
22314SOL    HW268665   0.751   6.315   0.964  0.1065 -0.5583  0.1157
22315SOL     OW68666   8.211   8.280   3.806  0.1823  0.2771  0.4063
22315SOL    HW168667   8.168   8.196   3.790  0.5356 -0.2137  1.8835
22315SOL    HW268668   8.301   8.268   3.775  1.0610 -0.8931  3.0978
22316SOL     OW68669   8.001   3.761   4.823  0.3224 -0.1540 -0.5752
22316SOL    HW168670   7.919   3.711   4.825  0.4320 -0.3030  0.6026
22316SOL    HW268671   8.063   3.702   4.781  0.4101 -0.9916  0.6640
22317SOL     OW68672   5.541   2.501   2.201 -0.3262 -0.4170  0.3013
22317SOL    HW168673   5.571   2.585   2.167  0.3913 -0.5135  0.6926
22317SOL    HW268674   5.445   2.505   2.193 -0.2068 -0.2560 -1.2891
22318SOL     OW68675   1.694   3.727   9.191  0.7111 -0.3541  0.0896
22318SOL    HW168676   1.687   3.821   9.177 -1.8015 -0.5151 -0.1684
22318SOL    HW268677   1.702   3.717   9.286 -0.9267  0.0788  0.2918
22319SOL     OW68678   3.362   0.106   8.009 -0.1396 -0.2221 -0.1883
22319SOL    HW168679   3.355   0.036   8.074 -1.0697  0.5640  0.5879
22319SOL    HW268680   3.439   0.156   8.036  0.0261 -0.4466 -0.2429
22320SOL     OW68681   6.212   5.765   3.254  0.0917 -0.1272  0.6846
22320SOL    HW168682   6.194   5.857   3.274 -1.8717 -0.7134  1.8642
22320SOL    HW268683   6.185   5.718   3.333  0.3591 -1.8043 -0.1848
22321SOL     OW68684   8.344   5.731   6.229  0.0179  0.2068  0.2569
22321SOL    HW168685   8.391   5.805   6.189  0.9906 -0.4532  0.1594
22321SOL    HW268686   8.413   5.670   6.255 -0.4639  0.8781  3.6063
22322SOL     OW68687   3.754   8.851   5.529  0.4437 -0.1763  0.3599
22322SOL    HW168688   3.814   8.781   5.506  1.2931 -0.5509  3.3930
22322SOL    HW268689   3.810   8.927   5.545  0.6249 -1.0295  5.2601
22323SOL     OW68690   1.249   8.931   6.063  0.4412 -0.3669  0.2295
22323SOL    HW168691   1.341   8.911   6.049  0.8927  1.1839  0.7621
22323SOL    HW268692   1.237   8.926   6.158  0.4239  1.1234  0.3267
22324SOL     OW68693   6.273   7.829   3.536  0.0121 -0.5183 -0.3456
22324SOL    HW168694   6.276   7.742   3.497  1.5997 -0.2821 -0.8305
22324SOL    HW268695   6.181   7.854   3.532 -0.2044 -1.4400 -1.8306
22325SOL     OW68696   0.242   7.098   9.515  0.6678  0.3376  0.2828
22325SOL    HW168697   0.231   7.192   9.503 -2.5070 -0.0513 -0.8400
22325SOL    HW268698   0.192   7.078   9.594  0.8032 -0.4959  0.1660
22326SOL     OW68699   2.324   2.518   3.483  0.5680  0.0728 -0.7969
22326SOL    HW168700   2.259   2.562   3.427  1.8037 -0.3162 -2.6464
22326SOL    HW268701   2.307   2.425   3.470  0.8054 -0.0198 -0.4265
22327SOL     OW68702   9.363   2.303   7.839 -0.0592 -0.4942 -0.4600
22327SOL    HW168703   9.424   2.298   7.912 -1.8863 -3.7589  1.0410
22327SOL    HW268704   9.419   2.307   7.761  1.9612  0.7652  0.9753
22328SOL     OW68705   2.572   1.052   7.479 -0.0049  0.1475 -0.1453
22328SOL    HW168706   2.572   0.956   7.485  0.5613  0.2120  1.3338
22328SOL    HW268707   2.593   1.071   7.388 -2.0767 -1.1443 -0.9616
22329SOL     OW68708   4.977   7.315   1.264  0.3570 -0.1397 -0.6142
22329SOL    HW168709   4.885   7.330   1.287  0.8571  0.7375  0.9365
22329SOL    HW268710   5.026   7.343   1.341  1.8965 -1.4053 -1.0898
22330SOL     OW68711   6.435   0.724   2.918  0.2625  0.4552 -0.4544
22330SOL    HW168712   6.352   0.685   2.892  0.5889 -0.4033 -0.2539
22330SOL    HW268713   6.501   0.661   2.890  0.7819  0.6564  0.2688
22331SOL     OW68714   2.168   1.840   5.394  0.6593 -0.3913 -0.2585
22331SOL    HW168715   2.141   1.791   5.472 -2.9400  0.0104 -1.0624
22331SOL    HW268716   2.262   1.823   5.386  0.8182 -1.8863  3.1009
22332SOL     OW68717   2.288   8.941   3.007 -0.0437  0.4946  0.5931
22332SOL    HW168718   2.381   8.922   3.016  0.1914 -0.0900 -2.2032
22332SOL    HW268719   2.262   8.899   2.924 -2.1735  2.7887 -0.0373
22333SOL     OW68720   1.450   8.569   5.067 -0.2704  0.6307  0.5226
22333SOL    HW168721   1.387   8.630   5.029 -0.4338 -0.4466 -1.0092
22333SOL    HW268722   1.413   8.483   5.051  0.2814  0.0691  2.0544
22334SOL     OW68723   5.954   0.371   3.237 -0.2943  0.4512  0.2824
22334SOL    HW168724   6.013   0.297   3.250 -1.2574 -0.0860  2.0434
22334SOL    HW268725   5.867   0.331   3.228 -0.8343  1.3367  1.3146
22335SOL     OW68726   2.514   1.219   2.474  0.0087  0.1337 -0.3557
22335SOL    HW168727   2.529   1.125   2.459 -3.0580 -1.0160  2.5522
22335SOL    HW268728   2.444   1.241   2.412  0.0830  0.2760 -0.3886
22336SOL     OW68729   1.491   3.621   3.876 -0.5842 -0.1248 -0.3672
22336SOL    HW168730   1.531   3.705   3.898  0.3657 -0.4718 -0.7103
22336SOL    HW268731   1.490   3.572   3.958  1.1339 -0.6819 -0.6396
22337SOL     OW68732   4.675   9.002   2.795 -0.4284 -0.0727  0.1273
22337SOL    HW168733   4.690   8.968   2.707  1.2715 -1.3917  0.8419
22337SOL    HW268734   4.763   9.006   2.834 -1.2293 -0.8783  2.1950
22338SOL     OW68735   8.328   7.081   0.515  0.1333  0.0770  0.9995
22338SOL    HW168736   8.236   7.084   0.487  0.7933  0.0538 -1.3960
22338SOL    HW268737   8.358   6.994   0.489  1.6648  1.2099 -1.3813
22339SOL     OW68738   1.532   2.324   0.327  1.0551  0.0022 -0.1719
22339SOL    HW168739   1.583   2.339   0.247 -0.6792 -3.2680 -2.1440
22339SOL    HW268740   1.441   2.326   0.297  0.3219 -0.6352  1.8849
22340SOL     OW68741   3.123   3.844   3.003 -0.2517  0.0793  0.0174
22340SOL    HW168742   3.194   3.898   3.038  0.1937 -0.2181 -0.4136
22340SOL    HW268743   3.167   3.763   2.974 -0.7410 -0.0338 -0.4098
22341SOL     OW68744   6.999   5.250   8.477  0.1744 -0.5476 -0.2979
22341SOL    HW168745   6.974   5.342   8.472  2.6855  0.1852 -1.2865
22341SOL    HW268746   6.982   5.226   8.568  1.7966  1.7041  0.7057
22342SOL     OW68747   4.198   0.371   5.246  0.1014 -0.7002 -0.4582
22342SOL    HW168748   4.179   0.425   5.169 -1.7357 -0.8470 -0.1556
22342SOL    HW268749   4.150   0.290   5.231  2.2490 -2.0173 -0.5686
22343SOL     OW68750   4.670   0.722   6.275 -0.0849  0.4478 -0.1068
22343SOL    HW168751   4.654   0.783   6.203  0.5950 -0.0602 -0.7065
22343SOL    HW268752   4.592   0.729   6.330 -0.8659  0.4374 -1.1768
22344SOL     OW68753   2.474   9.432   0.834  0.4181 -0.2260 -0.1254
22344SOL    HW168754   2.455   9.517   0.873 -2.7415 -0.2363 -1.3553
22344SOL    HW268755   2.550   9.447   0.779  1.1214  1.2735  1.1796
22345SOL     OW68756   0.904   9.535   0.570  0.4752  0.0360 -0.2196
22345SOL    HW168757   0.993   9.567   0.554  0.8204 -1.2722 -1.0910
22345SOL    HW268758   0.856   9.613   0.598  1.6487  0.9828 -0.6998
22346SOL     OW68759   4.486   2.076   6.661 -0.5776  0.2520  0.1267
22346SOL    HW168760   4.512   2.148   6.719 -1.3506  0.2982  0.4305
22346SOL    HW268761   4.559   2.014   6.665 -0.8890 -0.0597  1.6767
22347SOL     OW68762   9.329   5.813   4.041 -0.4173  0.0371 -0.1682
22347SOL    HW168763   9.393   5.812   4.113 -0.6551 -0.4495  0.0434
22347SOL    HW268764   9.246   5.836   4.084 -0.9729 -2.1980  0.0898
22348SOL     OW68765   1.390   6.440   3.154 -0.0765 -0.0136  0.8088
22348SOL    HW168766   1.356   6.352   3.137  1.3881 -0.1022 -2.5986
22348SOL    HW268767   1.327   6.498   3.110  1.0843  0.2434 -0.5864
22349SOL     OW68768   3.382   7.477   2.823  0.3324  0.1828 -0.0321
22349SOL    HW168769   3.341   7.408   2.874  0.3749 -0.3203 -0.6579
22349SOL    HW268770   3.447   7.516   2.881 -0.6481  0.6405  0.7951
22350SOL     OW68771   8.472   0.674   4.243 -0.0506 -0.2288 -0.1377
22350SOL    HW168772   8.408   0.740   4.216  1.3788  1.4738  0.4153
22350SOL    HW268773   8.438   0.640   4.326 -0.5138  0.2825 -0.1129
22351SOL     OW68774   1.268   2.852   8.204 -0.1433  0.5603 -0.2729
22351SOL    HW168775   1.355   2.838   8.166 -0.2756  0.2883 -0.4760
22351SOL    HW268776   1.285   2.871   8.296 -0.0195 -2.1439  0.3332
22352SOL     OW68777   4.152   9.051   3.283  0.2934  0.3972  0.2487
22352SOL    HW168778   4.216   9.122   3.283 -0.2194  0.9632  2.5934
22352SOL    HW268779   4.160   9.011   3.370 -0.6014 -1.3395 -0.4133
22353SOL     OW68780   8.102   9.077   5.622 -0.1690 -0.1682 -0.2531
22353SOL    HW168781   8.096   9.168   5.649  0.5931 -0.9568  2.9616
22353SOL    HW268782   8.015   9.041   5.637 -0.5677  0.0235 -1.8477
22354SOL     OW68783   2.151   7.948   2.764  0.8810  0.3563  0.1631
22354SOL    HW168784   2.136   7.987   2.851  0.9410 -1.7519  1.1898
22354SOL    HW268785   2.077   7.978   2.712 -1.8184 -1.8955  2.3090
22355SOL     OW68786   6.707   0.098   1.332  0.6955 -0.3115  0.1183
22355SOL    HW168787   6.740   0.116   1.420 -0.3763 -0.4131  0.5541
22355SOL    HW268788   6.694   0.003   1.331 -0.4117 -0.1715  0.2642
22356SOL     OW68789   0.111   7.169   3.062  0.0267  0.4859 -0.1679
22356SOL    HW168790   0.194   7.142   3.101  0.1663  1.3693  0.1644
22356SOL    HW268791   0.065   7.087   3.046 -0.1846  0.0803  2.1760
22357SOL     OW68792   4.724   6.464   5.139  0.0377  0.1040 -0.5564
22357SOL    HW168793   4.735   6.538   5.199  0.2270 -0.0620 -0.3859
22357SOL    HW268794   4.771   6.392   5.181 -0.2491 -0.1470 -0.6625
22358SOL     OW68795   5.039   3.059   2.151  0.1619  0.6707 -0.2798
22358SOL    HW168796   4.969   2.994   2.162 -0.5998  1.4967 -0.1591
22358SOL    HW268797   5.053   3.094   2.239  1.5062 -0.2437 -0.0893
22359SOL     OW68798   0.218   4.044   4.911 -0.2036 -0.2077  0.1393
22359SOL    HW168799   0.275   4.040   4.835  0.3121 -0.1366  0.5131
22359SOL    HW268800   0.151   3.978   4.896  1.1452 -1.7292  0.6141
22360SOL     OW68801   3.554   6.828   9.234  0.6924 -0.1150 -0.7279
22360SOL    HW168802   3.518   6.814   9.321  2.1943 -1.5891 -0.2925
22360SOL    HW268803   3.576   6.921   9.232 -0.6574  0.2467 -0.0834
22361SOL     OW68804   1.193   0.438   5.412 -0.0489 -0.3519  0.4429
22361SOL    HW168805   1.122   0.490   5.448 -0.8035 -0.8824 -0.2583
22361SOL    HW268806   1.247   0.501   5.364  0.0197  0.0673  1.0599
22362SOL     OW68807   0.680   4.716   0.337  0.0775  0.2054  0.3218
22362SOL    HW168808   0.760   4.766   0.356  0.1720 -0.3185  1.4007
22362SOL    HW268809   0.694   4.631   0.379 -0.6425 -0.2485 -0.3289
22363SOL     OW68810   2.367   8.244   3.743 -0.0479 -0.4095  0.0001
22363SOL    HW168811   2.388   8.247   3.836 -1.0840 -0.0943  0.2349
22363SOL    HW268812   2.274   8.267   3.738 -0.1360 -0.9342 -1.0698
22364SOL     OW68813   4.046   8.989   2.624 -0.2285 -0.2185 -0.4463
22364SOL    HW168814   4.023   8.997   2.717 -0.2872 -0.0510 -0.4741
22364SOL    HW268815   4.017   9.072   2.586 -1.6981 -0.9354 -0.9346
22365SOL     OW68816   9.111   5.927   4.207 -0.5358 -0.1237 -0.2934
22365SOL    HW168817   9.081   5.885   4.287  0.8931 -0.4311  0.1246
22365SOL    HW268818   9.174   5.993   4.237 -0.3516  0.0980 -1.1375
22366SOL     OW68819   4.238   5.377   0.135  0.6874 -0.2548  0.0757
22366SOL    HW168820   4.197   5.445   0.081  0.0453 -0.9062 -0.2744
22366SOL    HW268821   4.309   5.422   0.180 -0.0664  0.7883  0.2732
22367SOL     OW68822   6.152   6.877   9.603  0.0807  0.0135 -0.0795
22367SOL    HW168823   6.226   6.923   9.563  0.2343  1.2909  1.5656
22367SOL    HW268824   6.079   6.937   9.594 -0.0261  0.0520  0.9784
22368SOL     OW68825   9.155   6.760   5.117  0.2160 -0.0693 -0.0655
22368SOL    HW168826   9.100   6.686   5.092  1.5182 -1.9476  2.2231
22368SOL    HW268827   9.103   6.807   5.183  0.9543 -1.3609  1.4822
22369SOL     OW68828   7.524   0.058   3.526  0.9927 -0.3546  0.1648
22369SOL    HW168829   7.503   0.133   3.471 -1.6708 -1.0447  0.1354
22369SOL    HW268830   7.534   0.095   3.614  1.3231  0.2304 -0.1135
22370SOL     OW68831   4.431   8.973   0.130 -0.8327 -0.1057 -0.2169
22370SOL    HW168832   4.373   8.950   0.058 -0.0378 -0.1365 -0.8646
22370SOL    HW268833   4.516   8.989   0.088 -0.8150  1.8329  0.4570
22371SOL     OW68834   6.333   1.209   5.362 -0.1539 -0.6185 -0.7814
22371SOL    HW168835   6.255   1.156   5.376 -0.3853 -0.1128 -0.1076
22371SOL    HW268836   6.400   1.168   5.417  0.1402 -1.2025 -1.5497
22372SOL     OW68837   7.536   7.576   7.281 -0.3280  0.3471 -0.1243
22372SOL    HW168838   7.565   7.510   7.218 -0.3587  1.1280 -0.9712
22372SOL    HW268839   7.542   7.659   7.234  0.1562  1.0184  1.0703
22373SOL     OW68840   0.895   9.612   7.328 -0.2950 -0.8253 -0.5181
22373SOL    HW168841   0.841   9.566   7.392 -0.1256  0.0537  0.2918
22373SOL    HW268842   0.837   9.675   7.287  0.1211  0.2797  0.5169
22374SOL     OW68843   5.081   5.012   5.082  0.5887 -0.2166  0.2603
22374SOL    HW168844   4.986   5.023   5.080  0.4952 -0.9191  0.6456
22374SOL    HW268845   5.115   5.099   5.062 -0.1202 -0.3454 -1.6630
22375SOL     OW68846   3.674   3.392   3.360 -0.4046 -0.1518  0.1412
22375SOL    HW168847   3.742   3.431   3.415 -0.7349  0.1199  0.3565
22375SOL    HW268848   3.615   3.349   3.421 -0.3437 -0.5242 -0.0585
22376SOL     OW68849   7.610   7.959   4.128  0.1691 -0.1909  0.1183
22376SOL    HW168850   7.638   7.896   4.062  1.0755 -0.9060  1.1601
22376SOL    HW268851   7.530   7.997   4.092  0.3306 -0.9751 -1.1241
22377SOL     OW68852   5.040   1.620   3.646 -0.5950 -0.5892  0.0551
22377SOL    HW168853   5.121   1.604   3.598 -0.7081  0.1702 -0.4198
22377SOL    HW268854   4.995   1.535   3.647 -0.1059 -0.8566 -0.2724
22378SOL     OW68855   6.439   9.180   8.666 -0.3522  0.0140  0.4345
22378SOL    HW168856   6.344   9.192   8.676 -0.5417 -0.8690 -0.1887
22378SOL    HW268857   6.454   9.186   8.572  0.6546  3.0705  0.6843
22379SOL     OW68858   7.692   0.899   2.276 -0.3204 -0.2260  0.4478
22379SOL    HW168859   7.740   0.828   2.318 -1.5719 -0.7832  0.9736
22379SOL    HW268860   7.675   0.867   2.187  2.1800  0.8857 -0.5344
22380SOL     OW68861   8.025   1.907   8.619 -0.3704 -0.2377  0.0524
22380SOL    HW168862   8.019   1.903   8.524  1.0892 -2.3434 -0.0023
22380SOL    HW268863   8.110   1.947   8.636 -1.3643  1.8249  0.5599
22381SOL     OW68864   1.017   3.721   1.532  0.1583  0.8018 -0.3511
22381SOL    HW168865   1.018   3.655   1.601  1.2692  0.5177 -0.6159
22381SOL    HW268866   0.983   3.675   1.455  2.1377  0.1382 -0.8798
22382SOL     OW68867   2.995   6.758   2.072  0.0753 -0.0234  0.1314
22382SOL    HW168868   2.989   6.697   2.145 -1.3225  1.2910  1.1779
22382SOL    HW268869   3.043   6.710   2.004 -1.0524 -2.3113  0.8599
22383SOL     OW68870   4.205   8.722   2.128  0.1165 -0.2774  0.9719
22383SOL    HW168871   4.117   8.716   2.090  0.4125 -0.8611  0.3617
22383SOL    HW268872   4.253   8.778   2.067  0.6002 -1.2334  0.4526
22384SOL     OW68873   8.970   0.749   4.468  0.4883  0.1137  0.2110
22384SOL    HW168874   8.962   0.710   4.555 -1.0891 -1.7408 -0.6792
22384SOL    HW268875   9.056   0.790   4.468  0.7871 -0.3683  2.4260
22385SOL     OW68876   7.654   8.445   2.765  0.1624 -0.0039 -0.0598
22385SOL    HW168877   7.564   8.476   2.777  0.7208  1.6196  0.2742
22385SOL    HW268878   7.650   8.351   2.784 -1.5421 -0.0593 -0.5342
22386SOL     OW68879   3.499   3.019   4.278 -0.2464 -0.4698  0.1038
22386SOL    HW168880   3.427   3.072   4.245  0.6430  0.7830  0.1023
22386SOL    HW268881   3.457   2.942   4.317 -1.4311 -0.8911 -1.9176
22387SOL     OW68882   5.237   7.015   8.433 -0.5806 -0.6849  0.2045
22387SOL    HW168883   5.185   7.076   8.485  1.0840  1.0439 -0.0560
22387SOL    HW268884   5.174   6.948   8.405 -1.9260 -0.5942  2.7335
22388SOL     OW68885   8.834   9.378   3.759  0.0873  0.0732 -0.0405
22388SOL    HW168886   8.798   9.466   3.748  1.3302  0.6201  0.0715
22388SOL    HW268887   8.913   9.391   3.812  0.8293 -0.9811 -0.8383
22389SOL     OW68888   4.490   2.640   3.485 -0.0632  0.6592  0.4031
22389SOL    HW168889   4.444   2.619   3.567 -0.3835  1.1193  0.3417
22389SOL    HW268890   4.430   2.697   3.437  1.2543  2.7493  1.1007
22390SOL     OW68891   0.287   3.254   5.296 -0.6116  0.0460 -0.0158
22390SOL    HW168892   0.349   3.206   5.239 -0.3791  0.1499  0.1477
22390SOL    HW268893   0.343   3.303   5.356 -0.8524  0.3059  0.0002
22391SOL     OW68894   8.473   1.857   9.173 -0.7726 -0.0587  0.0895
22391SOL    HW168895   8.495   1.899   9.256  1.7535 -3.0011  1.1140
22391SOL    HW268896   8.386   1.892   9.151  0.4144  4.3599  1.4257
22392SOL     OW68897   7.141   4.463   2.114  0.3167  0.2175  0.2258
22392SOL    HW168898   7.125   4.479   2.021  1.4341 -0.1694 -0.0485
22392SOL    HW268899   7.228   4.500   2.130 -0.3454  1.3563  1.4135
22393SOL     OW68900   7.321   9.357   5.678  0.5029 -0.1801 -0.5759
22393SOL    HW168901   7.298   9.265   5.694 -1.4135  0.1270 -1.3722
22393SOL    HW268902   7.401   9.370   5.730  1.0834 -2.3980 -0.7945
22394SOL     OW68903   2.216   4.588   3.113  0.1606  0.3030  0.3964
22394SOL    HW168904   2.192   4.552   3.028  0.6169 -1.0404  0.8134
22394SOL    HW268905   2.203   4.682   3.103  0.0922  0.1677 -1.1219
22395SOL     OW68906   0.857   7.274   0.238 -0.2270  0.5071  0.0997
22395SOL    HW168907   0.805   7.320   0.172 -3.6940  1.2118  2.9847
22395SOL    HW268908   0.829   7.183   0.232 -1.3084  0.7426  1.1200
22396SOL     OW68909   5.069   7.212   1.812  0.1267 -0.0601 -0.3930
22396SOL    HW168910   5.096   7.303   1.821  1.5246 -0.4496 -0.4130
22396SOL    HW268911   5.132   7.162   1.863 -0.6115 -1.0320 -0.3863
22397SOL     OW68912   0.731   1.826   0.702 -0.6111  0.6847 -0.0423
22397SOL    HW168913   0.709   1.755   0.642 -3.1079 -0.0261  1.5922
22397SOL    HW268914   0.824   1.815   0.719 -0.1540  0.0024 -2.5399
22398SOL     OW68915   8.901   7.507   6.348  0.4928 -0.0354  0.2447
22398SOL    HW168916   8.914   7.414   6.331  0.2475  0.1828 -1.2999
22398SOL    HW268917   8.946   7.523   6.431 -0.6246 -1.7980  1.2440
22399SOL     OW68918   2.328   7.623   6.220 -0.4475  0.3266  0.6398
22399SOL    HW168919   2.321   7.528   6.224 -2.4600  0.4462  1.6610
22399SOL    HW268920   2.360   7.648   6.307 -1.1504  0.6259  0.8209
22400SOL     OW68921   7.824   7.185   5.796 -0.5987 -0.1744  0.0604
22400SOL    HW168922   7.765   7.227   5.858 -0.8905  0.7239 -0.8158
22400SOL    HW268923   7.878   7.256   5.762  0.6511 -0.8947  0.4500
22401SOL     OW68924   7.864   4.707   2.090 -0.8391 -0.2780  0.0585
22401SOL    HW168925   7.801   4.759   2.139 -1.5487 -0.7562 -0.3303
22401SOL    HW268926   7.898   4.644   2.154 -0.7098  0.0168  0.2821
22402SOL     OW68927   1.471   4.867   4.602 -0.1645 -0.2802  0.1390
22402SOL    HW168928   1.563   4.853   4.626 -0.2220  1.0889  1.3242
22402SOL    HW268929   1.428   4.784   4.620  0.6025 -0.5313  0.8489
22403SOL     OW68930   2.140   7.676   4.724  0.6566 -0.4876  0.6208
22403SOL    HW168931   2.115   7.669   4.816 -0.1423 -0.2124  0.4329
22403SOL    HW268932   2.093   7.752   4.692  5.3045  3.1409  1.3559
22404SOL     OW68933   1.108   2.787   7.653  0.3397 -0.2960  0.2661
22404SOL    HW168934   1.151   2.718   7.603 -0.7230 -0.9756  0.2610
22404SOL    HW268935   1.015   2.765   7.649  0.1232  0.3090  1.5234
22405SOL     OW68936   0.714   5.554   5.935 -0.1380  0.0533  0.3313
22405SOL    HW168937   0.739   5.491   5.867 -0.1963 -0.2363  0.5767
22405SOL    HW268938   0.688   5.632   5.886  0.6568  0.1489  0.0451
22406SOL     OW68939   7.519   0.700   7.976  0.0010  0.5256  0.0368
22406SOL    HW168940   7.451   0.733   8.035 -1.4711  0.7401 -1.6653
22406SOL    HW268941   7.537   0.773   7.917  0.4976 -0.0587 -0.5494
22407SOL     OW68942   1.378   9.678   7.524 -0.4532  0.4521 -0.2087
22407SOL    HW168943   1.311   9.740   7.555 -0.8079 -0.2323  0.4406
22407SOL    HW268944   1.328   9.611   7.477  0.0861  1.5238 -2.4424
22408SOL     OW68945   1.333   6.971   7.417  0.2197  0.4364 -0.1577
22408SOL    HW168946   1.373   6.910   7.355 -2.2161 -0.6104 -0.7986
22408SOL    HW268947   1.327   7.054   7.369 -0.3672  0.0054 -0.8472
22409SOL     OW68948   4.849   1.824   1.022  0.2240 -0.0258 -0.2969
22409SOL    HW168949   4.770   1.868   0.989  0.8180  0.6810 -0.8199
22409SOL    HW268950   4.896   1.798   0.944  1.0634  0.5818 -0.0065
22410SOL     OW68951   8.598   3.367   5.385 -0.2464 -0.0949 -0.0807
22410SOL    HW168952   8.611   3.323   5.469 -1.0189  0.4983  0.3613
22410SOL    HW268953   8.600   3.461   5.406  1.2034  0.1177 -0.9770
22411SOL     OW68954   9.054   7.128   3.626  0.2520  0.0725 -0.3314
22411SOL    HW168955   9.025   7.170   3.707 -0.9030 -0.0525 -0.6610
22411SOL    HW268956   9.149   7.138   3.626  0.1281  1.5290  0.2449
22412SOL     OW68957   3.226   2.113   7.915  0.3164  0.3600 -0.2166
22412SOL    HW168958   3.151   2.088   7.969 -0.8785  0.4759 -1.7443
22412SOL    HW268959   3.284   2.037   7.917  0.4662  0.4938  1.4628
22413SOL     OW68960   1.477   8.919   6.897 -0.2368 -0.3236 -0.2700
22413SOL    HW168961   1.550   8.910   6.958  1.0214  1.5298 -1.3906
22413SOL    HW268962   1.437   9.004   6.920 -0.8420 -0.4345 -0.8898
22414SOL     OW68963   9.094   0.517   6.768  0.2286  0.2296  0.8588
22414SOL    HW168964   9.016   0.535   6.716  0.2214 -0.0614  0.7681
22414SOL    HW268965   9.157   0.584   6.740 -0.4125  1.2884  1.8638
22415SOL     OW68966   5.323   2.595   8.370 -0.2434  0.2416 -0.3582
22415SOL    HW168967   5.252   2.582   8.307  0.7502  2.7354 -2.1697
22415SOL    HW268968   5.311   2.685   8.400  1.6603  0.4362 -0.0894
22416SOL     OW68969   1.874   0.243   7.981 -0.7336  0.2146  0.6666
22416SOL    HW168970   1.891   0.201   8.066  0.6607 -0.0621  0.2733
22416SOL    HW268971   1.820   0.319   8.003 -0.6879 -0.0463  1.7594
22417SOL     OW68972   5.419   5.416   0.679  0.3455  0.7235 -0.0866
22417SOL    HW168973   5.349   5.473   0.646 -0.9605 -1.4429 -1.3075
22417SOL    HW268974   5.495   5.436   0.625 -0.9209 -0.6463 -2.5340
22418SOL     OW68975   0.599   3.254   4.935  0.0447  0.0402 -0.1056
22418SOL    HW168976   0.640   3.296   4.859  0.3386  1.6226  0.8803
22418SOL    HW268977   0.562   3.173   4.900  1.6103 -0.0942 -1.5884
22419SOL     OW68978   0.475   5.226   5.361  0.0139 -0.3840 -0.1205
22419SOL    HW168979   0.416   5.164   5.403  0.5870  0.4770  2.1097
22419SOL    HW268980   0.418   5.291   5.322 -0.5548 -0.1730  1.0218
22420SOL     OW68981   6.793   4.862   0.362 -0.2519 -0.1935 -0.2018
22420SOL    HW168982   6.785   4.772   0.395 -0.9491 -0.4156 -0.9360
22420SOL    HW268983   6.887   4.880   0.364 -0.2807  0.3095  3.1820
22421SOL     OW68984   0.713   3.696   6.730  0.9584  0.1671  0.2438
22421SOL    HW168985   0.775   3.763   6.703  1.8635 -0.7420  0.0208
22421SOL    HW268986   0.767   3.625   6.763 -0.0269  0.0357  1.6482
22422SOL     OW68987   4.030   3.684   6.075 -0.1160 -0.0192  0.1220
22422SOL    HW168988   3.949   3.714   6.034 -0.3375  0.1424  0.6739
22422SOL    HW268989   4.061   3.614   6.017 -1.2722 -0.9024  0.5073
22423SOL     OW68990   2.938   0.667   0.976  0.2309  0.4906  0.1110
22423SOL    HW168991   2.906   0.581   1.002  0.5836  0.0084 -1.0054
22423SOL    HW268992   2.970   0.656   0.887 -0.1390  1.8929 -0.2273
22424SOL     OW68993   1.663   7.551   9.009 -0.2295  0.2220 -0.4400
22424SOL    HW168994   1.690   7.616   9.074  0.2338  0.3242 -0.7311
22424SOL    HW268995   1.602   7.494   9.056  0.2077  0.2165  0.1267
22425SOL     OW68996   4.103   0.908   3.896  0.5150  0.5736 -0.6473
22425SOL    HW168997   4.052   0.948   3.967 -0.4047 -1.1455 -0.2892
22425SOL    HW268998   4.175   0.970   3.880 -0.6598  2.1837  0.0739
22426SOL     OW68999   3.635   9.635   2.650 -0.6214 -0.6219  0.0843
22426SOL    HW169000   3.630   9.695   2.724 -0.7074  0.4443 -0.7564
22426SOL    HW269001   3.692   9.564   2.679  0.8262  0.6846  0.5518
22427SOL     OW69002   8.878   8.442   1.910  0.5784 -0.4738  0.3081
22427SOL    HW169003   8.856   8.380   1.980 -0.4777  1.3666  1.7006
22427SOL    HW269004   8.945   8.499   1.948  0.1845  0.3919 -0.2685
22428SOL     OW69005   3.083   8.292   1.183 -1.0272  0.0018  0.2328
22428SOL    HW169006   3.078   8.387   1.186 -0.2201  0.1831 -2.1488
22428SOL    HW269007   3.039   8.269   1.101 -2.1689 -1.7909  1.2854
22429SOL     OW69008   5.162   3.494   5.756 -0.5355  0.5731 -0.9533
22429SOL    HW169009   5.142   3.432   5.826 -0.5504  2.6332  0.9736
22429SOL    HW269010   5.250   3.525   5.775 -1.6820  3.5309  0.1547
22430SOL     OW69011   7.911   0.267   4.471  0.3430 -0.0350 -0.3520
22430SOL    HW169012   7.858   0.339   4.503  1.4340  0.2631  0.8286
22430SOL    HW269013   7.867   0.188   4.502 -0.8467  0.0826 -1.6420
22431SOL     OW69014   4.744   2.760   0.713  0.2360 -0.0395  0.2071
22431SOL    HW169015   4.804   2.686   0.704 -0.4119 -0.4572 -0.8701
22431SOL    HW269016   4.739   2.776   0.807  0.5879 -1.1886  0.4309
22432SOL     OW69017   9.108   5.915   8.413  0.0874  0.2848  0.1804
22432SOL    HW169018   9.185   5.898   8.468 -0.2779 -1.9013  0.0997
22432SOL    HW269019   9.144   5.932   8.326  0.5233 -0.1451  0.2703
22433SOL     OW69020   6.254   9.612   6.970  0.0396  0.2308 -0.0562
22433SOL    HW169021   6.322   9.580   7.030 -1.1002 -0.9974  0.6309
22433SOL    HW269022   6.176   9.622   7.025 -1.6542 -2.9761 -1.6393
22434SOL     OW69023   5.870   6.554   8.516  0.0003  0.4361 -0.1569
22434SOL    HW169024   5.965   6.550   8.516 -0.0096 -0.2222 -1.6370
22434SOL    HW269025   5.848   6.590   8.603  1.5971  1.2060 -0.0297
22435SOL     OW69026   5.030   0.115   6.318 -0.2607  0.6964  0.0832
22435SOL    HW169027   5.028   0.116   6.413 -1.1252 -0.9410  0.1203
22435SOL    HW269028   4.938   0.102   6.292 -0.0986  1.5138 -0.9948
22436SOL     OW69029   8.296   8.849   6.235 -0.1638 -0.1116  0.2719
22436SOL    HW169030   8.278   8.769   6.284 -0.5519  0.1422  0.5520
22436SOL    HW269031   8.314   8.915   6.302 -2.5771  0.7142  0.2122
22437SOL     OW69032   1.235   4.937   2.215 -0.3738 -0.1200 -0.0582
22437SOL    HW169033   1.199   4.900   2.296  0.3319 -1.1000 -0.1769
22437SOL    HW269034   1.323   4.900   2.208  0.2531  1.3641 -0.3591
22438SOL     OW69035   8.970   3.855   8.645  0.1805  0.2722  0.1411
22438SOL    HW169036   8.980   3.933   8.590  1.7760 -1.1261 -1.6579
22438SOL    HW269037   8.912   3.798   8.594 -0.7810  0.1562  1.3332
22439SOL     OW69038   9.107   4.547   5.413  0.7909  0.2182 -0.1722
22439SOL    HW169039   9.124   4.465   5.366 -0.0011  0.8525 -1.6133
22439SOL    HW269040   9.097   4.613   5.345  0.8087  1.4247  0.9429
22440SOL     OW69041   5.711   6.215   7.667 -0.4960  0.1029 -0.0239
22440SOL    HW169042   5.672   6.253   7.588  1.7609  1.2163 -0.6847
22440SOL    HW269043   5.797   6.184   7.639 -0.6117 -1.7547  1.4714
22441SOL     OW69044   1.938   1.538   4.661 -0.7435  0.1293  0.1737
22441SOL    HW169045   1.993   1.509   4.734 -0.7319 -1.1240 -0.2901
22441SOL    HW269046   2.000   1.573   4.597 -0.0771 -3.1484 -1.2396
22442SOL     OW69047   0.406   3.889   0.034  0.2975 -0.7031 -0.3766
22442SOL    HW169048   0.396   3.796   0.012 -0.3034 -0.6288 -0.4412
22442SOL    HW269049   0.444   3.928  -0.045  3.0471 -1.3281  0.5350
22443SOL     OW69050   8.371   3.766   8.218  0.1025  0.4176 -0.5466
22443SOL    HW169051   8.298   3.819   8.185  0.6878  0.6060 -1.5953
22443SOL    HW269052   8.437   3.830   8.243 -0.0841  0.2463  0.4047
22444SOL     OW69053   1.982   4.211   0.373  0.3475  0.3290 -0.4933
22444SOL    HW169054   1.955   4.124   0.344  0.2568 -0.0143  0.5732
22444SOL    HW269055   1.941   4.271   0.311 -1.6898 -0.2658  0.1951
22445SOL     OW69056   6.293   7.915   9.112  0.0002  0.3410 -0.2967
22445SOL    HW169057   6.328   7.946   9.029 -0.1143 -0.6785 -0.7281
22445SOL    HW269058   6.215   7.968   9.126  0.6306  1.2913 -0.2716
22446SOL     OW69059   2.084   0.701   4.662  0.1448  0.2838 -0.0885
22446SOL    HW169060   2.089   0.780   4.608 -2.2034  0.7063  0.1960
22446SOL    HW269061   2.162   0.705   4.718 -0.5582  3.1757  0.8682
22447SOL     OW69062   2.186   9.424   1.024  0.4285 -0.1264 -0.0645
22447SOL    HW169063   2.260   9.455   1.076  0.6341 -1.4484  0.4608
22447SOL    HW269064   2.216   9.343   0.983 -0.0338  0.4294 -1.5710
22448SOL     OW69065   6.658   6.235   3.633  0.6698 -0.4316 -0.1658
22448SOL    HW169066   6.608   6.316   3.623  0.4137 -0.4759  0.6530
22448SOL    HW269067   6.728   6.242   3.569 -0.9227 -0.7920 -2.0489
22449SOL     OW69068   9.516   6.605   6.738  0.3179  0.1336  0.2303
22449SOL    HW169069   9.461   6.558   6.676  0.9189  1.6361 -1.5233
22449SOL    HW269070   9.491   6.696   6.729 -0.6705  0.2837  3.4046
22450SOL     OW69071   5.519   1.680   1.193  0.4437  0.4426  0.9354
22450SOL    HW169072   5.514   1.774   1.174  0.0688  0.2185 -0.1500
22450SOL    HW269073   5.434   1.659   1.233 -0.1055  0.2788 -0.2688
22451SOL     OW69074   8.049   8.245   1.185 -0.1895  0.4453 -0.0516
22451SOL    HW169075   7.972   8.224   1.237 -0.2640  1.2594  0.1763
22451SOL    HW269076   8.092   8.160   1.170 -0.4129  0.1507  0.9357
22452SOL     OW69077   7.462   2.696   9.029 -0.1896  0.4651 -0.2363
22452SOL    HW169078   7.413   2.615   9.036  0.8957 -0.1408  0.8252
22452SOL    HW269079   7.415   2.748   8.964 -0.9472 -0.9698 -0.8694
22453SOL     OW69080   0.179   3.807   5.253  0.0970 -0.1291 -0.5422
22453SOL    HW169081   0.232   3.730   5.235  1.0408  0.3648  0.0377
22453SOL    HW269082   0.090   3.773   5.266  0.9448 -1.5341  2.5793
22454SOL     OW69083   3.493   5.785   4.577 -0.1484  0.3207 -0.1750
22454SOL    HW169084   3.531   5.869   4.551 -1.0200  0.3684 -1.3752
22454SOL    HW269085   3.561   5.743   4.631  0.0723  2.0287  0.9553
22455SOL     OW69086   8.229   2.846   4.011  0.1124 -0.4100 -0.1744
22455SOL    HW169087   8.235   2.936   4.043  0.1215 -0.1434 -0.9098
22455SOL    HW269088   8.176   2.853   3.931 -0.8720 -1.2223  0.3891
22456SOL     OW69089   8.923   6.957   9.603  0.3806  0.5559 -0.1354
22456SOL    HW169090   8.985   7.013   9.557  1.7552 -1.5004 -0.9308
22456SOL    HW269091   8.862   6.928   9.536  1.1302 -0.7800 -0.2655
22457SOL     OW69092   1.932   3.993   1.726 -0.3711 -0.4070 -0.1221
22457SOL    HW169093   1.894   3.928   1.786 -0.9165 -0.2497 -0.2889
22457SOL    HW269094   1.890   4.075   1.751 -0.0647 -0.2100 -0.2545
22458SOL     OW69095   2.106   6.818   3.372 -0.3104 -0.4660 -0.4717
22458SOL    HW169096   2.123   6.820   3.278  0.3918  2.1807 -0.3709
22458SOL    HW269097   2.190   6.836   3.412 -0.7356 -0.8941  0.6494
22459SOL     OW69098   9.043   2.168   4.963 -0.1558 -0.3444 -0.0769
22459SOL    HW169099   9.016   2.149   4.873 -0.9763  0.7202 -0.0810
22459SOL    HW269100   8.961   2.187   5.009  0.3120 -0.2441  0.7472
22460SOL     OW69101   5.164   0.041   1.669  0.0963  0.3066 -0.2905
22460SOL    HW169102   5.218  -0.027   1.709  1.3704  0.4632 -1.6510
22460SOL    HW269103   5.170   0.115   1.729  0.8042  0.0760 -0.0715
22461SOL     OW69104   4.446   6.216   4.550 -0.2464 -0.1259  0.2208
22461SOL    HW169105   4.542   6.219   4.548 -0.2300 -0.2960  0.7837
22461SOL    HW269106   4.419   6.307   4.556 -0.1459 -0.0167 -0.7361
22462SOL     OW69107   0.430   7.718   8.819  0.2589  0.1442  0.0125
22462SOL    HW169108   0.447   7.770   8.740 -0.4624 -0.6211 -0.6573
22462SOL    HW269109   0.361   7.766   8.864 -1.8726 -1.2114 -1.6264
22463SOL     OW69110   1.113   3.574   3.617  0.3123  0.0783  0.9456
22463SOL    HW169111   1.030   3.621   3.620  0.2172  0.0483 -0.6476
22463SOL    HW269112   1.179   3.639   3.639  0.1284  0.8400 -0.6688
22464SOL     OW69113   4.019   5.955   1.194  0.0376  0.7821 -0.3309
22464SOL    HW169114   3.968   5.918   1.122  1.2776 -1.9893  0.0923
22464SOL    HW269115   4.106   5.970   1.157  1.3131 -2.5765  0.8665
22465SOL     OW69116   8.725   6.397   4.684  0.5364 -0.7391 -0.3536
22465SOL    HW169117   8.663   6.387   4.612 -1.0384  0.3108  0.8061
22465SOL    HW269118   8.768   6.311   4.690 -0.4662 -1.3574 -1.4647
22466SOL     OW69119   4.880   2.152   8.851 -0.1955  0.4406  0.2221
22466SOL    HW169120   4.895   2.203   8.930 -0.4219 -0.6876  1.0136
22466SOL    HW269121   4.911   2.064   8.872 -2.5216 -0.5194 -0.0607
22467SOL     OW69122   5.405   8.278   6.569 -0.8451  0.4093  0.1283
22467SOL    HW169123   5.378   8.288   6.478  0.0542  0.4492 -0.1454
22467SOL    HW269124   5.500   8.291   6.567 -0.5622 -1.3383  0.8052
22468SOL     OW69125   0.444   7.251   7.135 -0.9404 -0.3977  0.3072
22468SOL    HW169126   0.529   7.244   7.091 -0.5744 -2.2087  1.2105
22468SOL    HW269127   0.381   7.223   7.068 -0.6692 -0.4998  0.0899
22469SOL     OW69128   4.736   7.310   5.843  0.5192  0.2072 -0.1108
22469SOL    HW169129   4.814   7.254   5.846  1.4515  1.4354 -0.3061
22469SOL    HW269130   4.771   7.399   5.851 -0.8622  0.7928 -0.3517
22470SOL     OW69131   1.882   1.222   6.539  0.5031 -0.0191  0.3199
22470SOL    HW169132   1.827   1.285   6.494  1.1672  0.1274 -0.2947
22470SOL    HW269133   1.826   1.144   6.549  0.1885  0.1224 -0.3076
22471SOL     OW69134   6.061   3.189   3.226 -0.3289  0.2242  0.4747
22471SOL    HW169135   6.044   3.129   3.153  0.5415 -0.1535  0.5594
22471SOL    HW269136   6.153   3.214   3.213  0.1721 -0.6871  2.0219
22472SOL     OW69137   3.100   9.488   5.997 -0.3865  0.7186 -0.1176
22472SOL    HW169138   3.111   9.581   5.978 -1.0506  0.8472  0.0827
22472SOL    HW269139   3.163   9.470   6.067 -0.6031  1.1363  0.1871
22473SOL     OW69140   2.560   2.474   3.640  0.0462 -0.0591 -0.0142
22473SOL    HW169141   2.619   2.400   3.629  1.2123  0.7859  0.2882
22473SOL    HW269142   2.486   2.454   3.584  1.7356 -0.0322 -2.4315
22474SOL     OW69143   8.294   1.342   3.878 -0.2488 -0.5921 -0.3068
22474SOL    HW169144   8.264   1.422   3.922  0.9653 -0.1285 -0.2838
22474SOL    HW269145   8.370   1.370   3.827  0.6787 -1.8686  0.3212
22475SOL     OW69146   7.719   7.116   3.220 -0.4607 -0.3276  0.2091
22475SOL    HW169147   7.633   7.156   3.221 -0.2042  0.2406  1.6732
22475SOL    HW269148   7.709   7.035   3.269 -0.3263 -0.6687 -0.3085
22476SOL     OW69149   1.272   0.775   6.792  0.1225  0.3380 -0.4474
22476SOL    HW169150   1.183   0.748   6.814  0.2713 -0.0101 -0.2743
22476SOL    HW269151   1.288   0.739   6.705  0.3138 -0.1211 -0.2250
22477SOL     OW69152   6.428   4.980   5.985 -0.0487  0.4106 -0.0372
22477SOL    HW169153   6.503   4.987   6.044  0.4173  1.7718 -0.7415
22477SOL    HW269154   6.355   5.018   6.033 -0.0878 -0.0832  0.3046
22478SOL     OW69155   6.251   9.165   4.829 -0.0819 -0.1120  0.4044
22478SOL    HW169156   6.286   9.120   4.752 -0.2229 -1.1126  0.9144
22478SOL    HW269157   6.230   9.253   4.798 -0.0986 -0.4946 -0.6938
22479SOL     OW69158   8.945   5.378   2.746 -0.3047  0.6541  0.2816
22479SOL    HW169159   8.890   5.453   2.725 -1.0311 -0.3523 -1.6552
22479SOL    HW269160   8.897   5.331   2.814  0.0977  1.8539  1.4181
22480SOL     OW69161   2.694   9.178   3.615 -0.1507 -0.3918  0.3735
22480SOL    HW169162   2.612   9.201   3.658  1.2225  2.3980  1.7593
22480SOL    HW269163   2.718   9.256   3.565  1.5910 -1.1886 -0.1157
22481SOL     OW69164   3.096   1.731   6.696 -0.5184 -0.5220 -0.0215
22481SOL    HW169165   3.164   1.767   6.754 -0.8527 -1.3002  0.8857
22481SOL    HW269166   3.138   1.655   6.654  0.3294  1.0976 -2.2649
22482SOL     OW69167   3.479   2.561   4.054 -0.3378 -0.1256 -0.2027
22482SOL    HW169168   3.470   2.505   3.978 -0.0418 -0.7073  0.1839
22482SOL    HW269169   3.436   2.643   4.030 -1.2585 -0.7144 -0.5645
22483SOL     OW69170   1.307   3.261   4.578  0.0507  0.4103 -0.3989
22483SOL    HW169171   1.273   3.193   4.637  1.9988 -1.7377 -1.6060
22483SOL    HW269172   1.246   3.259   4.504 -0.9550  1.3420  0.3699
22484SOL     OW69173   2.918   1.659   1.701 -0.1408  0.1617  0.5853
22484SOL    HW169174   2.873   1.727   1.751 -1.2688 -1.2505  1.5640
22484SOL    HW269175   2.848   1.606   1.662  0.6370 -1.3602  1.1472
22485SOL     OW69176   4.543   5.208   6.589  0.4014  0.1650  0.3583
22485SOL    HW169177   4.549   5.245   6.501  0.0484 -2.6429 -0.9599
22485SOL    HW269178   4.453   5.228   6.617  1.3020  3.4365  1.3505
22486SOL     OW69179   1.537   2.825   8.181  0.1491 -0.0527 -0.1188
22486SOL    HW169180   1.572   2.755   8.126 -1.5691 -0.5272 -0.6629
22486SOL    HW269181   1.598   2.897   8.168  2.1425 -1.4983  0.6966
22487SOL     OW69182   4.078   5.095   5.634  0.9437  0.1089  0.0512
22487SOL    HW169183   4.065   5.189   5.640  0.7357  0.1667 -1.1698
22487SOL    HW269184   4.003   5.063   5.586 -1.0438 -1.2364  3.6479
22488SOL     OW69185   0.220   3.958   7.422  0.3893  0.2259 -0.4192
22488SOL    HW169186   0.266   3.969   7.338  0.0171 -0.0433 -0.6603
22488SOL    HW269187   0.261   4.022   7.480  1.1219 -0.0584 -0.6115
22489SOL     OW69188   2.271   5.476   8.977  0.0834  0.2929 -0.2974
22489SOL    HW169189   2.253   5.496   8.885  0.2255 -0.2528 -0.4469
22489SOL    HW269190   2.318   5.552   9.010  1.7876 -0.3199 -1.2127
22490SOL     OW69191   6.854   3.180   5.347 -0.1251  0.3926 -0.0563
22490SOL    HW169192   6.869   3.210   5.257 -0.5959 -1.5592 -0.8435
22490SOL    HW269193   6.941   3.166   5.383  0.0637  0.4358 -0.4913
22491SOL     OW69194   2.571   0.472   6.673 -0.2430 -0.0005 -0.0268
22491SOL    HW169195   2.565   0.432   6.586 -0.6137  1.4053 -0.6713
22491SOL    HW269196   2.599   0.562   6.656 -0.9041  0.4725  1.2664
22492SOL     OW69197   1.939   6.946   2.070 -0.2368 -0.7147  0.1550
22492SOL    HW169198   1.969   6.970   1.982  0.5715 -0.8981  0.3697
22492SOL    HW269199   2.006   6.982   2.128 -1.3082  0.3316  0.7746
22493SOL     OW69200   8.010   9.159   4.180 -0.0634  0.2318  0.0591
22493SOL    HW169201   8.096   9.133   4.213 -0.2696  0.9879  1.2121
22493SOL    HW269202   7.952   9.088   4.206 -0.0213  0.3039  0.3469
22494SOL     OW69203   3.272   6.083   8.304  0.0010  0.3402 -0.0673
22494SOL    HW169204   3.274   6.091   8.209  0.5945 -1.7612 -0.2747
22494SOL    HW269205   3.363   6.067   8.329 -0.5349 -2.4760  0.4310
22495SOL     OW69206   1.515   2.852   0.077 -0.1811  0.1772  0.1027
22495SOL    HW169207   1.588   2.827   0.020  0.4034  1.8829  0.0378
22495SOL    HW269208   1.557   2.880   0.159 -1.0346 -2.8256  1.7166
22496SOL     OW69209   4.754   7.058   0.876 -1.2046 -0.7898  0.3797
22496SOL    HW169210   4.761   7.141   0.923  0.2890 -0.2748 -0.6397
22496SOL    HW269211   4.795   7.076   0.791 -1.6214 -2.3420 -0.1799
22497SOL     OW69212   0.147   3.427   3.529 -0.1579  0.2203  0.1552
22497SOL    HW169213   0.183   3.368   3.595  1.2756 -1.4127 -1.9468
22497SOL    HW269214   0.058   3.395   3.515 -0.1512 -0.0089  0.6018
22498SOL     OW69215   3.444   8.226   1.584  0.0534 -0.2330 -0.4134
22498SOL    HW169216   3.521   8.281   1.568 -0.5455  0.9723  0.6212
22498SOL    HW269217   3.431   8.231   1.679 -1.3641 -0.3069 -0.5877
22499SOL     OW69218   1.712   0.904   6.062  0.2500  0.4561 -0.5043
22499SOL    HW169219   1.616   0.907   6.058  0.1714 -0.1647  0.4517
22499SOL    HW269220   1.733   0.810   6.057  0.6953  0.4624  0.8493
22500SOL     OW69221   0.464   3.389   5.438 -0.0798  0.2437 -0.2742
22500SOL    HW169222   0.545   3.344   5.413 -0.6843 -0.5956 -0.7465
22500SOL    HW269223   0.478   3.414   5.529  0.2007 -1.0899  0.0742
22501SOL     OW69224   8.101   5.530   5.591  0.9366  0.2073  0.3107
22501SOL    HW169225   8.072   5.497   5.506  1.3016  0.7084 -0.0085
22501SOL    HW269226   8.096   5.454   5.649 -0.5512  0.1544  0.1526
22502SOL     OW69227   1.137   2.424   0.531  0.0516 -0.6046  0.1526
22502SOL    HW169228   1.096   2.495   0.580  0.2573 -1.7183  2.0200
22502SOL    HW269229   1.076   2.404   0.460 -0.3925  0.8454  0.1153
22503SOL     OW69230   2.128   9.281   6.774  0.0014 -0.7816  0.2200
22503SOL    HW169231   2.142   9.354   6.714 -0.3531 -0.2554  0.7678
22503SOL    HW269232   2.035   9.287   6.799  0.5111  0.0165  2.0935
22504SOL     OW69233   5.247   3.253   4.796 -0.1840 -0.0956 -0.2102
22504SOL    HW169234   5.264   3.339   4.756 -1.9803  0.3354 -0.1454
22504SOL    HW269235   5.181   3.271   4.863 -0.2138 -1.4598  0.1464
22505SOL     OW69236   9.544   4.166   6.425  0.6374 -0.3438  0.0677
22505SOL    HW169237   9.517   4.077   6.448  2.3218 -1.2555 -1.2305
22505SOL    HW269238   9.556   4.163   6.330  1.9227  0.9285  0.1602
22506SOL     OW69239   5.769   3.329   5.245 -0.1766 -0.0583 -0.2838
22506SOL    HW169240   5.754   3.239   5.215  1.3542 -0.6559  0.6554
22506SOL    HW269241   5.713   3.338   5.322  1.9988 -1.3396  1.5500
22507SOL     OW69242   6.351   3.144   9.705  0.4848  0.3208  0.1608
22507SOL    HW169243   6.326   3.223   9.752 -1.4633 -2.0109  3.4004
22507SOL    HW269244   6.434   3.118   9.744  0.4182  0.0056  0.0964
22508SOL     OW69245   1.917   4.269   6.667 -0.2920 -0.4710 -0.0735
22508SOL    HW169246   1.858   4.344   6.658  0.4582 -0.0245 -1.6518
22508SOL    HW269247   1.943   4.270   6.759  0.9868  2.2261 -0.3713
22509SOL     OW69248   6.145   4.298   8.348 -0.4441  0.1104 -0.4952
22509SOL    HW169249   6.098   4.330   8.272 -2.8557  1.0972  1.3079
22509SOL    HW269250   6.083   4.304   8.420  1.3698 -1.8164  1.3834
22510SOL     OW69251   2.885   3.187   5.401  1.0345  0.5228 -0.4798
22510SOL    HW169252   2.885   3.193   5.306  3.3345  0.3425 -0.5460
22510SOL    HW269253   2.892   3.093   5.419  2.4488  0.6571 -0.2073
22511SOL     OW69254   5.488   2.945   6.757  0.2613 -0.5277  0.0009
22511SOL    HW169255   5.566   2.897   6.787  0.5872 -0.9883 -1.4905
22511SOL    HW269256   5.423   2.877   6.741 -0.5867 -0.1128  1.5560
22512SOL     OW69257   1.515   0.739   5.055 -0.4584 -0.4771  0.4318
22512SOL    HW169258   1.549   0.663   5.103  1.0418  0.0256  0.2215
22512SOL    HW269259   1.548   0.814   5.104 -0.8763  0.0503 -0.0801
22513SOL     OW69260   2.145   2.025   4.992 -0.3308  0.6102 -0.1774
22513SOL    HW169261   2.234   1.991   4.995 -0.1902  1.0229  0.6994
22513SOL    HW269262   2.148   2.096   4.928  0.0912  0.9534  0.2200
22514SOL     OW69263   8.095   3.895   9.478 -0.7218  0.1561 -0.2799
22514SOL    HW169264   8.139   3.904   9.562  0.2837  1.4408 -0.9124
22514SOL    HW269265   8.026   3.962   9.479 -1.4752 -0.5965 -0.0445
22515SOL     OW69266   4.159   2.116   1.980  0.1622 -0.0264  0.8023
22515SOL    HW169267   4.149   2.037   1.926 -2.2257  0.7807 -0.0827
22515SOL    HW269268   4.118   2.094   2.063  0.9979 -0.2460  1.1602
22516SOL     OW69269   5.995   2.879   1.955 -0.2602  0.2967  0.5733
22516SOL    HW169270   6.081   2.844   1.977 -1.0413 -0.2045  3.1403
22516SOL    HW269271   5.962   2.917   2.036 -1.7119  2.1902 -0.7932
22517SOL     OW69272   3.550   1.802   4.288 -0.5222 -0.5453 -0.5880
22517SOL    HW169273   3.601   1.829   4.212 -0.1147  1.8359  0.4295
22517SOL    HW269274   3.473   1.859   4.287 -1.0280 -1.1897  0.2287
22518SOL     OW69275   7.291   6.251   2.130  0.2862 -0.5511  0.5954
22518SOL    HW169276   7.352   6.246   2.055 -0.1012  0.6084  0.1829
22518SOL    HW269277   7.217   6.196   2.104  0.2695 -0.3627  0.2276
22519SOL     OW69278   6.423   9.172   2.148 -0.3103 -0.0018 -0.6914
22519SOL    HW169279   6.473   9.132   2.077  1.8056  2.3375 -0.6621
22519SOL    HW269280   6.332   9.168   2.119  0.3021 -0.8026 -2.6413
22520SOL     OW69281   8.792   8.457   8.054 -0.0552 -0.4402 -0.9044
22520SOL    HW169282   8.751   8.386   8.104 -1.4723  1.2634  0.5160
22520SOL    HW269283   8.755   8.449   7.967 -0.8474 -0.9621 -0.5345
22521SOL     OW69284   2.961   2.150   0.204 -0.3877 -0.1886 -0.3231
22521SOL    HW169285   2.886   2.120   0.255  0.3961 -0.7293  0.5585
22521SOL    HW269286   2.933   2.144   0.113 -1.4993 -0.1188  0.0058
22522SOL     OW69287   1.502   1.413   7.280 -0.4448  0.1299  0.0689
22522SOL    HW169288   1.431   1.412   7.216 -0.4716 -1.5270  0.0675
22522SOL    HW269289   1.474   1.352   7.348  1.6899 -2.0553 -0.8347
22523SOL     OW69290   6.986   6.741   6.838 -0.5421 -0.3677  0.0658
22523SOL    HW169291   7.053   6.705   6.896  1.2940 -0.1686 -1.8007
22523SOL    HW269292   6.975   6.831   6.868 -0.6569 -0.6643  0.9591
22524SOL     OW69293   8.695   8.633   2.505  0.2976 -0.2687 -0.5283
22524SOL    HW169294   8.641   8.684   2.443  1.8304  2.0813 -0.0652
22524SOL    HW269295   8.648   8.640   2.588  0.4535  0.3728 -0.4856
22525SOL     OW69296   8.385   7.260   6.504  0.2577 -0.2595 -0.2195
22525SOL    HW169297   8.437   7.289   6.429  2.1801 -1.1110  0.7274
22525SOL    HW269298   8.348   7.340   6.540  2.4430  0.6566  0.1493
22526SOL     OW69299   1.888   2.610   5.529 -0.4286  0.0195 -0.5924
22526SOL    HW169300   1.950   2.541   5.551  0.9278  1.1349 -0.7637
22526SOL    HW269301   1.896   2.621   5.435  0.1263  1.0524 -0.4477
22527SOL     OW69302   4.168   8.585   7.047  0.4958  0.2126  0.0758
22527SOL    HW169303   4.150   8.579   6.953  0.6661  2.1393 -0.1274
22527SOL    HW269304   4.123   8.510   7.085 -1.0179  0.3163 -1.3699
22528SOL     OW69305   4.485   4.976   8.750  0.1703 -0.0083 -0.7795
22528SOL    HW169306   4.447   5.015   8.829 -0.3565  0.1428 -1.1049
22528SOL    HW269307   4.483   5.046   8.685 -0.6382 -0.5147 -1.3206
22529SOL     OW69308   4.414   5.682   2.749  0.0274  0.1062  0.0330
22529SOL    HW169309   4.365   5.760   2.723 -1.0503 -0.0311  1.5206
22529SOL    HW269310   4.456   5.652   2.669 -0.8756  1.2657 -0.9075
22530SOL     OW69311   1.621   5.547   2.552 -0.3590  0.1536  0.2932
22530SOL    HW169312   1.647   5.515   2.466 -2.3264 -0.0595 -0.2630
22530SOL    HW269313   1.701   5.543   2.604  1.6165  2.8971 -2.2330
22531SOL     OW69314   8.225   0.399   3.774 -0.1030 -0.6334  0.7042
22531SOL    HW169315   8.243   0.456   3.849  1.3137  0.2072 -0.2178
22531SOL    HW269316   8.309   0.356   3.757  0.4167  1.2082 -1.9924
22532SOL     OW69317   0.159   6.768   0.089 -0.4445  0.3074 -0.5419
22532SOL    HW169318   0.160   6.693   0.030  1.5413 -1.5178  1.5796
22532SOL    HW269319   0.101   6.742   0.160  3.4497 -1.3703  2.4255
22533SOL     OW69320   9.484   9.120   2.054  0.3051 -0.0909  0.5455
22533SOL    HW169321   9.425   9.125   1.979  0.5632 -2.3198  0.1133
22533SOL    HW269322   9.491   9.026   2.073 -0.0797  0.3850  3.6396
22534SOL     OW69323   6.530   7.314   5.249 -0.2978  1.2105  0.7445
22534SOL    HW169324   6.525   7.327   5.154  0.2048  0.0247  0.5408
22534SOL    HW269325   6.541   7.402   5.285 -0.2617  1.6478 -0.3098
22535SOL     OW69326   3.144   5.519   8.285 -0.0788  0.8079  0.5127
22535SOL    HW169327   3.107   5.487   8.367 -0.4498  1.2447  0.5197
22535SOL    HW269328   3.095   5.474   8.216 -0.2455  0.9665  0.5267
22536SOL     OW69329   8.186   0.494   3.076  0.1083  0.5593  0.2545
22536SOL    HW169330   8.216   0.454   3.158  1.4073  1.9692  0.4962
22536SOL    HW269331   8.179   0.421   3.015 -1.8048 -0.6919  1.8188
22537SOL     OW69332   8.810   4.559   8.882 -0.2960  0.0839 -0.4957
22537SOL    HW169333   8.768   4.490   8.831  0.5611  0.0265 -1.1467
22537SOL    HW269334   8.901   4.530   8.891 -0.9712 -1.4609  3.7088
22538SOL     OW69335   0.022   7.987   1.590  0.1991  0.5957  0.4254
22538SOL    HW169336  -0.012   7.941   1.666  0.4428 -0.3527 -0.0287
22538SOL    HW269337  -0.053   7.992   1.530  0.8642 -1.8699 -0.7531
22539SOL     OW69338   7.767   2.451   1.017  0.6060  0.3389  0.4334
22539SOL    HW169339   7.756   2.475   0.925 -0.5266  0.4130  0.5835
22539SOL    HW269340   7.745   2.358   1.022 -1.1987  0.7620  0.9362
22540SOL     OW69341   2.220   0.634   2.002 -0.2386 -0.2438  0.9182
22540SOL    HW169342   2.207   0.557   2.057 -3.3387  0.1574  0.9058
22540SOL    HW269343   2.202   0.603   1.913 -3.8487  0.7950  1.1189
22541SOL     OW69344   5.924   7.475   7.388 -0.2440  0.1719  0.5725
22541SOL    HW169345   5.878   7.447   7.309  1.0226  0.6171 -0.3550
22541SOL    HW269346   6.008   7.429   7.384 -0.9608 -1.5129  2.8023
22542SOL     OW69347   8.939   5.694   1.953 -0.4255  0.5230  0.1731
22542SOL    HW169348   8.939   5.658   1.864 -2.7214  1.2366 -0.1900
22542SOL    HW269349   8.860   5.658   1.994  0.2720  0.6888  1.7381
22543SOL     OW69350   5.397   7.673   1.514  0.0609 -0.0338 -0.5912
22543SOL    HW169351   5.382   7.654   1.606  0.1778  0.9729 -0.3536
22543SOL    HW269352   5.325   7.730   1.488 -1.0217 -1.7658 -1.6451
22544SOL     OW69353   6.835   0.962   0.586  0.1285 -0.0334  0.0805
22544SOL    HW169354   6.854   0.869   0.595  0.8786  0.0492 -0.5332
22544SOL    HW269355   6.867   0.985   0.499  0.8922  1.0246  0.6155
22545SOL     OW69356   1.012   0.906   3.813  0.3769 -0.1531 -0.1248
22545SOL    HW169357   0.943   0.970   3.830 -0.1495 -0.1840 -1.9144
22545SOL    HW269358   1.093   0.957   3.817 -0.0279  0.6572 -1.4402
22546SOL     OW69359   3.868   4.535   7.392 -0.2824 -0.0700  0.3513
22546SOL    HW169360   3.848   4.509   7.302  0.9132  0.2968 -0.0428
22546SOL    HW269361   3.874   4.453   7.441  0.5998 -0.3768 -0.2532
22547SOL     OW69362   9.193   8.865   5.963  0.3800 -0.4273  0.0780
22547SOL    HW169363   9.268   8.919   5.937  0.5417  0.0921  1.5508
22547SOL    HW269364   9.136   8.924   6.011 -0.6924 -0.9766 -0.4749
22548SOL     OW69365   8.198   3.929   4.759 -0.6445 -0.3554  0.2974
22548SOL    HW169366   8.126   3.884   4.803  1.1161 -1.8916  1.7859
22548SOL    HW269367   8.239   3.981   4.828 -1.2952  1.9182 -0.9175
22549SOL     OW69368   8.537   5.118   1.117  0.4086  0.0669 -0.2999
22549SOL    HW169369   8.575   5.033   1.097 -0.8631 -0.2977 -1.3229
22549SOL    HW269370   8.467   5.129   1.053 -0.4151  1.2261  0.7349
22550SOL     OW69371   7.071   1.533   1.607  0.0243 -0.7003  0.3281
22550SOL    HW169372   7.028   1.479   1.540  2.2022 -0.9407 -0.9863
22550SOL    HW269373   7.048   1.623   1.583 -0.0350 -0.8343 -0.1419
22551SOL     OW69374   0.726   9.525   7.522  0.5104  0.1694 -0.1338
22551SOL    HW169375   0.647   9.570   7.550 -1.4132 -1.4874 -2.4259
22551SOL    HW269376   0.777   9.512   7.602 -1.9318  0.5791  1.5824
22552SOL     OW69377   7.252   6.061   3.239  0.2110  0.0004 -0.3169
22552SOL    HW169378   7.293   6.111   3.309 -0.8823 -0.0704  0.3950
22552SOL    HW269379   7.318   6.059   3.169  1.2761  0.1572  0.6563
22553SOL     OW69380   0.125   6.534   4.781 -0.2856 -0.2523  0.4177
22553SOL    HW169381   0.190   6.472   4.812 -0.7159 -1.3320 -0.7375
22553SOL    HW269382   0.047   6.516   4.834 -1.0955 -2.2554 -1.3091
22554SOL     OW69383   0.228   4.667   6.275 -0.3636 -0.3492 -0.0385
22554SOL    HW169384   0.160   4.631   6.332 -0.4867 -0.1703 -0.0702
22554SOL    HW269385   0.236   4.603   6.204 -2.7873  1.1148 -1.7920
22555SOL     OW69386   2.123   5.180   7.741  0.3263 -0.2295 -0.1873
22555SOL    HW169387   2.030   5.191   7.761  0.2136  1.7406 -1.5272
22555SOL    HW269388   2.158   5.269   7.741  1.9399 -0.8305 -0.9146
22556SOL     OW69389   3.564   6.894   7.016 -0.0089  0.7789  0.4693
22556SOL    HW169390   3.625   6.828   7.049 -0.4284  1.2536  2.2945
22556SOL    HW269391   3.488   6.888   7.074 -0.9724  1.4129 -0.6713
22557SOL     OW69392   4.107   6.071   2.160 -0.5314 -0.3129  0.1492
22557SOL    HW169393   4.120   6.064   2.255 -0.9744  1.0212  0.3281
22557SOL    HW269394   4.196   6.072   2.124 -0.3550 -2.8097  0.3374
22558SOL     OW69395   6.268   7.812   2.197  0.0953  0.2986  0.1251
22558SOL    HW169396   6.270   7.798   2.102 -0.5957 -0.6694  0.2338
22558SOL    HW269397   6.200   7.877   2.211 -0.4872 -0.2724  0.0155
22559SOL     OW69398   4.072   4.026   1.027  0.1500 -0.1229  0.1406
22559SOL    HW169399   4.154   4.059   1.064 -0.7661  2.3139  0.1871
22559SOL    HW269400   4.044   3.958   1.087  1.1945  0.3292  1.1874
22560SOL     OW69401   0.133   9.058   5.936  0.1873 -0.5588 -0.0024
22560SOL    HW169402   0.229   9.064   5.933  0.1016  0.7502 -1.0636
22560SOL    HW269403   0.114   9.024   6.024  1.6121 -0.6208  0.3105
22561SOL     OW69404   5.013   0.916   0.699 -0.3418  0.2295 -0.0750
22561SOL    HW169405   5.100   0.892   0.730 -0.1621 -1.3789 -1.6854
22561SOL    HW269406   5.026   0.944   0.608 -1.8246 -3.3640 -1.5831
22562SOL     OW69407   3.174   6.611   3.717 -0.5422 -0.0088 -0.3754
22562SOL    HW169408   3.210   6.679   3.773  0.6400  0.7993 -2.0296
22562SOL    HW269409   3.080   6.627   3.716 -0.3869  0.9707  0.0683
22563SOL     OW69410   5.254   1.011   7.227  0.3192 -0.1964  0.3778
22563SOL    HW169411   5.161   1.034   7.234 -0.2527 -1.0433 -2.7248
22563SOL    HW269412   5.263   0.933   7.282 -1.6581 -1.9394 -1.5360
22564SOL     OW69413   5.962   5.375   3.201 -0.1987 -0.1035  0.1131
22564SOL    HW169414   5.877   5.333   3.187 -0.5320  0.0452  1.5471
22564SOL    HW269415   5.993   5.339   3.284  0.8518  0.3233 -0.0826
22565SOL     OW69416   2.299   3.028   4.486 -0.3525  0.1231 -0.0045
22565SOL    HW169417   2.225   3.047   4.544 -0.4683 -1.0634  0.2578
22565SOL    HW269418   2.277   2.945   4.445  0.6926 -0.0867 -0.1719
22566SOL     OW69419   3.819   4.181   6.779  0.2692  0.6073 -0.0995
22566SOL    HW169420   3.913   4.193   6.790  0.1893  1.5543 -0.3143
22566SOL    HW269421   3.810   4.119   6.707  0.7256  1.4974 -0.9360
22567SOL     OW69422   6.946   3.884   0.118 -0.2637  0.0483  0.4589
22567SOL    HW169423   6.856   3.900   0.147 -0.5460 -1.0366  0.2250
22567SOL    HW269424   6.998   3.897   0.197 -0.5630  1.0461  0.5168
22568SOL     OW69425   0.851   3.673   9.501  0.0361 -0.3701  0.4181
22568SOL    HW169426   0.881   3.650   9.413  2.6523 -0.3488  1.2259
22568SOL    HW269427   0.876   3.598   9.555  0.2338  0.4281  1.4688
22569SOL     OW69428   8.765   5.974   6.198  0.1932  0.0857 -0.4356
22569SOL    HW169429   8.840   5.917   6.214 -1.1021 -1.9342 -1.1313
22569SOL    HW269430   8.773   5.998   6.106 -0.4595 -0.8835 -0.7609
22570SOL     OW69431   4.877   3.418   1.548  0.1380 -0.7830 -0.4401
22570SOL    HW169432   4.856   3.391   1.459  0.4465 -2.2433 -0.0980
22570SOL    HW269433   4.939   3.490   1.538 -1.4914  0.5525 -1.4060
22571SOL     OW69434   2.512   7.141   5.907  0.2242 -0.5597 -0.1821
22571SOL    HW169435   2.539   7.210   5.968 -0.0625 -0.8826  0.3222
22571SOL    HW269436   2.431   7.174   5.868  0.2562 -0.4721 -0.1757
22572SOL     OW69437   2.171   5.300   9.224 -0.1057 -0.0158  0.2860
22572SOL    HW169438   2.127   5.332   9.303 -0.7536  1.0376 -0.4661
22572SOL    HW269439   2.120   5.337   9.152  0.0073 -1.5944 -0.6472
22573SOL     OW69440   7.992   8.909   7.771 -0.1714  0.9593  0.2367
22573SOL    HW169441   7.966   8.894   7.680 -3.0397  1.8281  0.8050
22573SOL    HW269442   7.977   8.826   7.815 -0.1205  0.9186  0.1772
22574SOL     OW69443   8.252   0.685   6.055  0.2814 -0.3181  0.6056
22574SOL    HW169444   8.213   0.770   6.076  1.9867  1.2038 -1.8881
22574SOL    HW269445   8.335   0.684   6.104 -0.0416 -0.8871  1.1622
22575SOL     OW69446   3.643   0.290   2.751  0.4440 -0.2455 -0.0377
22575SOL    HW169447   3.579   0.299   2.822  0.8715 -1.4122  0.5198
22575SOL    HW269448   3.677   0.379   2.739 -2.1214  0.6607 -1.2072
22576SOL     OW69449   6.182   2.779   5.029  0.2555  0.2744 -0.2488
22576SOL    HW169450   6.131   2.855   5.054  0.1305  0.0770  0.0975
22576SOL    HW269451   6.165   2.768   4.935 -0.0461  0.4297 -0.2112
22577SOL     OW69452   9.403   4.317   7.428  0.6743 -0.1255  0.0151
22577SOL    HW169453   9.354   4.399   7.416  0.1981 -0.5720 -1.1546
22577SOL    HW269454   9.480   4.327   7.372 -0.7468 -1.5517 -2.3538
22578SOL     OW69455   6.889   0.319   3.534 -0.2247  0.1166  0.1148
22578SOL    HW169456   6.810   0.269   3.514  0.5688 -0.8377 -0.7855
22578SOL    HW269457   6.904   0.372   3.456  0.1866  0.0554  0.1464
22579SOL     OW69458   5.199   6.050   1.089 -0.2215  0.3398  0.1398
22579SOL    HW169459   5.209   6.089   1.176  0.5033  0.9023 -0.1921
22579SOL    HW269460   5.176   6.123   1.032 -0.7902 -0.0417 -0.1330
22580SOL     OW69461   1.838   2.211   2.001  0.2235 -0.1740  0.1331
22580SOL    HW169462   1.879   2.272   1.939 -0.9574 -0.6558 -1.1684
22580SOL    HW269463   1.856   2.124   1.965 -0.4078 -0.4710  0.5180
22581SOL     OW69464   8.552   6.445   1.007 -0.0794 -0.1054  0.3052
22581SOL    HW169465   8.613   6.381   1.045  2.5042  1.9696 -0.0588
22581SOL    HW269466   8.555   6.428   0.913  1.0073  0.8289  0.1578
22582SOL     OW69467   0.828   1.026   8.342 -0.5307  0.0832  0.4630
22582SOL    HW169468   0.787   1.057   8.422 -1.9740  0.8209 -0.5102
22582SOL    HW269469   0.790   1.081   8.273 -1.7303 -2.5243 -1.1216
22583SOL     OW69470   3.870   8.877   7.884  0.2577 -0.4725  0.0681
22583SOL    HW169471   3.886   8.867   7.790  0.8498  0.7783  0.0083
22583SOL    HW269472   3.927   8.950   7.910  2.5011 -2.7356  2.0267
22584SOL     OW69473   9.005   9.475   8.587  1.0547 -0.2703  0.2094
22584SOL    HW169474   9.075   9.537   8.607  2.6151 -1.3607 -1.4820
22584SOL    HW269475   9.000   9.475   8.491  0.3502 -1.9047  0.2211
22585SOL     OW69476   1.834   8.371   1.372  0.2276  0.0534 -0.3696
22585SOL    HW169477   1.813   8.281   1.346 -0.1923  0.0538 -0.0270
22585SOL    HW269478   1.881   8.361   1.455  0.4378  0.1321 -0.4799
22586SOL     OW69479   6.475   1.661   7.926 -0.0961  0.5149 -0.1564
22586SOL    HW169480   6.538   1.733   7.934 -0.6877  0.9113  1.1385
22586SOL    HW269481   6.519   1.585   7.964 -0.0408  0.5471 -0.1565
22587SOL     OW69482   5.206   4.947   2.663 -0.3015 -0.3518  0.1393
22587SOL    HW169483   5.110   4.948   2.652 -0.3623  0.1765  0.6483
22587SOL    HW269484   5.230   4.855   2.654 -0.6796 -0.3158 -1.4821
22588SOL     OW69485   1.945   9.443   4.846  0.3706 -0.0530  0.0914
22588SOL    HW169486   1.954   9.431   4.752 -2.7802 -1.0864 -0.1752
22588SOL    HW269487   1.933   9.354   4.881 -1.7589  0.5193  0.9709
22589SOL     OW69488   2.038   2.234   2.185  0.3298 -0.1586 -0.4408
22589SOL    HW169489   1.958   2.214   2.137  1.0958 -0.2801 -1.7187
22589SOL    HW269490   2.048   2.329   2.177  1.1637 -0.3281 -1.7344
22590SOL     OW69491   3.900   2.136   4.666 -0.0424 -0.6200  0.4412
22590SOL    HW169492   3.955   2.085   4.726 -0.7537 -0.5749  1.1479
22590SOL    HW269493   3.927   2.227   4.679 -0.4780 -0.5682  0.9985
22591SOL     OW69494   9.118   5.534   5.690 -0.0671  0.2999  0.3956
22591SOL    HW169495   9.118   5.505   5.781 -0.1972 -1.2715 -0.0720
22591SOL    HW269496   9.211   5.536   5.665 -0.1104 -1.1150  0.0387
22592SOL     OW69497   0.814   0.320   5.643 -0.3675 -0.1245 -0.0418
22592SOL    HW169498   0.843   0.396   5.593 -0.1534 -0.8021 -0.9738
22592SOL    HW269499   0.736   0.350   5.690 -0.3403  0.6377 -0.4739
22593SOL     OW69500   8.607   4.007   1.539  0.0469 -0.6667 -0.2277
22593SOL    HW169501   8.651   4.037   1.619  1.1534  1.1887 -1.4583
22593SOL    HW269502   8.638   3.917   1.527 -0.3618 -1.0859  1.5434
22594SOL     OW69503   4.562   7.754   3.267 -0.3165 -0.4742  0.1472
22594SOL    HW169504   4.573   7.662   3.242  0.0116 -0.3302 -0.2534
22594SOL    HW269505   4.506   7.790   3.198  0.7958 -0.0110 -0.5341
22595SOL     OW69506   6.059   5.559   2.211 -0.8667 -0.3823  0.6049
22595SOL    HW169507   5.965   5.575   2.218 -0.9324 -0.6677  0.4007
22595SOL    HW269508   6.100   5.643   2.234 -1.1877 -0.0968  0.1604
22596SOL     OW69509   8.027   8.415   5.172  0.1155 -0.2232  0.2199
22596SOL    HW169510   8.098   8.418   5.236 -0.8259  0.6337  1.2633
22596SOL    HW269511   8.056   8.350   5.108  1.9941  0.3788  0.4055
22597SOL     OW69512   1.096   5.608   7.798  0.3681 -1.0867  0.4273
22597SOL    HW169513   1.063   5.518   7.796 -0.1691 -0.8824 -0.5154
22597SOL    HW269514   1.191   5.598   7.806  0.3641 -1.7564 -0.2251
22598SOL     OW69515   9.456   9.537   9.321  0.1446 -0.0644 -0.4483
22598SOL    HW169516   9.551   9.534   9.317  0.2347 -0.2108  1.0698
22598SOL    HW269517   9.437   9.584   9.403 -1.1103  2.0636 -1.8552
22599SOL     OW69518   1.098   2.710   2.470  0.7631 -0.2464  0.3232
22599SOL    HW169519   1.100   2.633   2.528  1.0482 -0.3872  0.1325
22599SOL    HW269520   1.067   2.676   2.386  1.2505 -0.2311  0.1326
22600SOL     OW69521   4.352   0.070   7.876 -0.3189 -0.0560 -0.2045
22600SOL    HW169522   4.356   0.155   7.833  1.1509  0.2857  0.5215
22600SOL    HW269523   4.407   0.013   7.822  0.7954  0.1454  0.6685
22601SOL     OW69524   9.489   8.502   9.547 -0.1181  0.4992 -0.0739
22601SOL    HW169525   9.544   8.580   9.553  1.5168 -0.4349 -1.7703
22601SOL    HW269526   9.521   8.445   9.618 -1.1161  1.1968  0.9778
22602SOL     OW69527   4.256   0.099   9.152  0.5603 -0.3787  0.2000
22602SOL    HW169528   4.263   0.183   9.107 -0.7635 -0.4859 -0.2543
22602SOL    HW269529   4.303   0.037   9.096  0.3336 -0.1983 -0.1937
22603SOL     OW69530   3.761   6.210   2.910  0.1166  0.1418 -0.3882
22603SOL    HW169531   3.749   6.266   2.834 -0.3841  1.4640  0.6129
22603SOL    HW269532   3.707   6.133   2.892 -2.0137  1.5293 -0.3392
22604SOL     OW69533   8.842   6.127   5.461 -0.5146 -0.5347 -0.5026
22604SOL    HW169534   8.908   6.090   5.403  1.0565  1.3090  0.0309
22604SOL    HW269535   8.783   6.174   5.403  0.9254  1.1143 -0.7068
22605SOL     OW69536   5.430   9.032   5.306  0.1510 -0.1268 -0.0663
22605SOL    HW169537   5.401   8.943   5.286 -1.1451 -0.1379  1.6892
22605SOL    HW269538   5.526   9.026   5.308  0.0708 -1.6070  0.5499
22606SOL     OW69539   5.648   0.639   5.010  0.0261  0.4745 -0.3006
22606SOL    HW169540   5.598   0.687   4.945 -0.4933 -1.8003 -1.6978
22606SOL    HW269541   5.739   0.650   4.984 -0.0633  0.9806 -0.3996
22607SOL     OW69542   8.401   9.644   5.929  0.4294 -0.4238 -0.2283
22607SOL    HW169543   8.338   9.701   5.973  0.0282  0.0366 -1.3409
22607SOL    HW269544   8.446   9.597   5.999  0.2844  0.7660  0.6806
22608SOL     OW69545   7.640   7.576   0.321 -0.5347  0.1185  0.5681
22608SOL    HW169546   7.601   7.535   0.244 -1.2668  1.5614  0.1325
22608SOL    HW269547   7.734   7.576   0.303 -0.7100  0.5663 -0.4064
22609SOL     OW69548   5.068   0.183   2.113  0.4471 -0.0093 -0.0530
22609SOL    HW169549   5.098   0.105   2.067 -1.1142 -0.4020 -0.4673
22609SOL    HW269550   4.995   0.152   2.167 -0.3353  1.1980 -0.3826
22610SOL     OW69551   5.224   8.502   7.915 -0.0086 -0.0340  0.1832
22610SOL    HW169552   5.128   8.506   7.921 -0.0360 -1.3427  0.7692
22610SOL    HW269553   5.244   8.545   7.831 -1.2805 -1.6913 -1.0334
22611SOL     OW69554   5.663   1.559   6.853  0.4930 -0.2258  0.4557
22611SOL    HW169555   5.644   1.567   6.946  0.2896  0.9718  0.3228
22611SOL    HW269556   5.667   1.465   6.837  1.0052 -0.4347  1.7669
22612SOL     OW69557   3.313   7.108   9.638  0.3578  0.0512 -0.1121
22612SOL    HW169558   3.278   7.196   9.644 -0.2852 -0.1359 -0.9775
22612SOL    HW269559   3.244   7.057   9.595  1.3448 -0.5157 -1.0807
22613SOL     OW69560   8.464   2.205   2.842  0.2606 -0.2652 -0.2601
22613SOL    HW169561   8.423   2.237   2.922  0.4076 -0.2245 -0.1999
22613SOL    HW269562   8.509   2.281   2.805  0.0647 -0.2459 -0.4646
22614SOL     OW69563   1.645   5.597   1.925  0.1303  0.3834  0.4409
22614SOL    HW169564   1.701   5.529   1.962  0.8879  1.4617  1.3543
22614SOL    HW269565   1.700   5.676   1.923 -0.6961  0.9728 -0.6374
22615SOL     OW69566   8.596   0.029   9.634 -0.5322 -0.6514  0.3307
22615SOL    HW169567   8.545   0.091   9.685 -1.4465  0.0797 -1.3839
22615SOL    HW269568   8.581  -0.055   9.676 -3.9518 -0.6426 -0.5854
22616SOL     OW69569   9.042   1.922   4.305 -0.2708 -0.2605 -0.9247
22616SOL    HW169570   9.035   1.831   4.335 -0.2696 -0.2523 -0.8999
22616SOL    HW269571   9.129   1.950   4.333 -0.8635  0.2558  0.4446
22617SOL     OW69572   5.632   4.424   0.066  0.2764 -0.2329 -0.2649
22617SOL    HW169573   5.592   4.374  -0.005  1.7008 -0.8632 -0.6595
22617SOL    HW269574   5.645   4.512   0.029 -0.4868 -0.0841 -0.2067
22618SOL     OW69575   8.664   4.437   2.549  0.4519 -0.3396 -0.4328
22618SOL    HW169576   8.677   4.464   2.459  1.8809 -0.5679 -0.3205
22618SOL    HW269577   8.673   4.517   2.600  1.2584 -0.4601 -0.3748
22619SOL     OW69578   3.235   6.511   2.441  0.2715 -0.7548 -0.8376
22619SOL    HW169579   3.167   6.450   2.411 -0.2251  0.6115 -2.6834
22619SOL    HW269580   3.197   6.556   2.516 -1.0150  0.1683 -1.9960
22620SOL     OW69581   1.445   3.064   1.083  0.2353 -0.1475 -0.0655
22620SOL    HW169582   1.379   3.131   1.102  1.8217  1.2613  0.7216
22620SOL    HW269583   1.506   3.069   1.156 -1.0789 -4.5797  1.6586
22621SOL     OW69584   0.505   6.064   1.105  0.0949 -0.1337 -0.2562
22621SOL    HW169585   0.501   6.023   1.192  0.0837  2.3162  0.9898
22621SOL    HW269586   0.599   6.070   1.086  0.2621  1.7938  0.9174
22622SOL     OW69587   2.798   7.257   8.258  0.1563  0.6091 -0.4264
22622SOL    HW169588   2.865   7.190   8.272 -0.5512  0.0738  0.4982
22622SOL    HW269589   2.765   7.240   8.170 -0.2722 -0.5203 -0.0720
22623SOL     OW69590   3.703   6.777   8.964  0.1760 -0.0869 -0.0229
22623SOL    HW169591   3.771   6.830   8.922 -0.1515  0.6806  0.3832
22623SOL    HW269592   3.693   6.815   9.052 -2.1650  1.1526 -0.7367
22624SOL     OW69593   9.690   2.231   7.052  0.3992  0.1662 -0.7804
22624SOL    HW169594   9.701   2.308   6.996  0.3119  1.8144  1.3452
22624SOL    HW269595   9.774   2.186   7.048  0.5384  0.4995 -1.8562
22625SOL     OW69596   7.805   2.893   7.181 -0.4183 -0.1795  0.2707
22625SOL    HW169597   7.796   2.838   7.103  0.7556  0.9726 -0.7204
22625SOL    HW269598   7.785   2.982   7.150  0.1212  0.3032  1.2657
22626SOL     OW69599   7.705   8.368   0.076  0.2826 -0.1690 -1.0950
22626SOL    HW169600   7.794   8.344   0.048  1.6289  0.7229  2.0015
22626SOL    HW269601   7.669   8.414   0.001  3.0543  0.8433 -1.9481
22627SOL     OW69602   7.247   1.796   6.771 -0.6797 -0.1663 -0.1246
22627SOL    HW169603   7.258   1.872   6.713  0.7454 -1.3545 -1.4880
22627SOL    HW269604   7.165   1.756   6.742 -0.3991 -0.2765 -0.8029
22628SOL     OW69605   2.870   0.534   3.986  0.4625 -0.3264 -0.2978
22628SOL    HW169606   2.819   0.453   3.989 -0.0210  0.0000  1.4478
22628SOL    HW269607   2.960   0.505   3.972 -0.0632 -0.9451 -2.7682
22629SOL     OW69608   6.981   9.309   2.834 -0.2933  0.1533 -0.5922
22629SOL    HW169609   6.942   9.285   2.750 -1.4875 -0.6860  0.1694
22629SOL    HW269610   6.910   9.349   2.883  0.6219  1.4768 -0.2749
22630SOL     OW69611   6.814   3.793   7.877  0.1215  0.6804  0.0031
22630SOL    HW169612   6.801   3.796   7.782 -1.5230 -1.4521  0.0859
22630SOL    HW269613   6.726   3.782   7.913  0.8173  0.3691  1.7114
22631SOL     OW69614   9.070   6.125   4.527  0.0906  0.0624 -0.0342
22631SOL    HW169615   9.130   6.170   4.587 -0.2968 -1.2842  1.4248
22631SOL    HW269616   9.121   6.113   4.447  1.4747 -0.2000  0.8415
22632SOL     OW69617   3.600   9.434   4.997 -0.3487 -0.3663 -0.4482
22632SOL    HW169618   3.570   9.477   4.917 -1.7276 -0.6084 -0.0840
22632SOL    HW269619   3.594   9.341   4.978 -1.2651 -0.4359  0.1247
22633SOL     OW69620   2.902   0.205   4.565  0.0635 -0.0720  0.2855
22633SOL    HW169621   2.907   0.148   4.642 -0.5141  0.2329  0.5585
22633SOL    HW269622   2.978   0.181   4.512  0.2816 -0.5193  0.7915
22634SOL     OW69623   4.952   8.524   5.559 -0.4214 -0.0283  0.5406
22634SOL    HW169624   4.990   8.446   5.518  2.5548  1.8832 -0.7353
22634SOL    HW269625   4.936   8.584   5.486 -1.3637  1.0576  1.5986
22635SOL     OW69626   8.262   2.565   5.616  0.4884 -0.1579 -0.1369
22635SOL    HW169627   8.218   2.604   5.540  2.7972  1.1345 -0.8983
22635SOL    HW269628   8.338   2.621   5.632 -0.7110  0.5795  4.2104
22636SOL     OW69629   3.587   9.076   8.727  0.1978 -0.1227  0.6025
22636SOL    HW169630   3.656   9.011   8.736  1.0349  0.6754  0.1698
22636SOL    HW269631   3.634   9.159   8.716 -0.8176  0.3614 -0.3064
22637SOL     OW69632   1.398   5.048   9.202  0.2155  0.0947  0.3611
22637SOL    HW169633   1.371   5.041   9.111 -0.7367 -0.9471  0.7053
22637SOL    HW269634   1.422   5.140   9.213 -0.9708  0.5381 -0.5836
22638SOL     OW69635   4.256   2.270   8.233  0.4911  0.2560  0.1962
22638SOL    HW169636   4.323   2.330   8.200  0.1982  1.2609  1.3444
22638SOL    HW269637   4.201   2.251   8.158 -0.1301  2.4304  0.0227
22639SOL     OW69638   1.515   7.401   9.157 -0.5353  0.4200  0.0060
22639SOL    HW169639   1.567   7.369   9.231  0.4257  0.9600 -0.4162
22639SOL    HW269640   1.481   7.322   9.116  1.2783 -0.0637 -0.6509
22640SOL     OW69641   9.612   8.857   2.092 -0.3218  0.5113 -0.4987
22640SOL    HW169642   9.655   8.807   2.022 -0.2878 -0.8061  0.4242
22640SOL    HW269643   9.685   8.898   2.140 -0.2741  0.5087 -0.5685
22641SOL     OW69644   9.328   3.964   0.469  0.6134 -0.1462 -0.0309
22641SOL    HW169645   9.258   3.904   0.497  0.9246 -0.8020 -0.6337
22641SOL    HW269646   9.286   4.021   0.405  0.5174 -0.2388 -0.0513
22642SOL     OW69647   9.324   9.221   9.084 -0.1801  0.3369 -0.1527
22642SOL    HW169648   9.316   9.163   9.160  0.6158  0.5418  0.0942
22642SOL    HW269649   9.299   9.307   9.117 -0.0177  0.3905 -0.1665
22643SOL     OW69650   7.022   1.531   5.373  0.0723  0.4692  0.0230
22643SOL    HW169651   6.949   1.590   5.358 -0.8574 -1.2086 -2.8034
22643SOL    HW269652   6.983   1.454   5.414  0.9207  0.8617  1.6974
22644SOL     OW69653   7.257   9.541   3.106  0.4393  0.2211  0.0151
22644SOL    HW169654   7.278   9.476   3.040  0.1184 -2.7178  2.5986
22644SOL    HW269655   7.333   9.600   3.107  1.7433 -1.3697 -0.9881
22645SOL     OW69656   1.412   3.466   8.778  0.2760  0.4729  0.2679
22645SOL    HW169657   1.389   3.382   8.819 -1.1474  0.7446  0.0848
22645SOL    HW269658   1.494   3.449   8.733 -0.4062 -1.0775 -0.4544
22646SOL     OW69659   7.385   0.268   4.688  0.4519 -0.1728  0.1907
22646SOL    HW169660   7.449   0.338   4.705  0.3590  0.0679 -0.4484
22646SOL    HW269661   7.438   0.189   4.683  0.7213  0.0477 -0.4860
22647SOL     OW69662   5.491   7.235   3.408 -0.1749  0.0437  0.3015
22647SOL    HW169663   5.432   7.288   3.461 -0.4731  0.4383 -0.4209
22647SOL    HW269664   5.451   7.233   3.321  1.1866  0.8577 -0.3723
22648SOL     OW69665   8.410   8.231   7.393 -0.4634  0.0531  0.6875
22648SOL    HW169666   8.454   8.315   7.385  0.4172 -0.4433  0.1560
22648SOL    HW269667   8.318   8.250   7.374 -0.2442  0.8573  0.3947
22649SOL     OW69668   4.899   8.116   2.491  0.7172 -0.1354 -0.2635
22649SOL    HW169669   4.905   8.180   2.419  1.9109  0.4791  0.3563
22649SOL    HW269670   4.808   8.084   2.487  0.4703  0.6460 -1.3941
22650SOL     OW69671   5.938   9.380   1.081 -0.0666 -0.0003  0.1540
22650SOL    HW169672   5.969   9.387   0.991  0.5544 -0.1680  0.3461
22650SOL    HW269673   6.018   9.378   1.134 -0.3892 -1.1197  0.6247
22651SOL     OW69674   1.895   9.027   3.391  0.1710 -0.0608 -0.6423
22651SOL    HW169675   1.932   9.049   3.476 -1.0785  1.7752 -0.5073
22651SOL    HW269676   1.968   8.992   3.341  1.0563 -0.6348  0.9892
22652SOL     OW69677   7.267   8.693   8.344 -0.5783 -0.3379 -0.3759
22652SOL    HW169678   7.267   8.696   8.440  0.4591 -1.7889 -0.2939
22652SOL    HW269679   7.334   8.757   8.319 -0.7216 -0.0862 -0.1229
22653SOL     OW69680   8.039   7.928   0.079  0.4215  0.3225  0.0580
22653SOL    HW169681   8.112   7.903   0.022 -1.2701  0.1241 -2.1449
22653SOL    HW269682   8.013   7.846   0.122  0.0576 -0.0963 -0.9278
22654SOL     OW69683   1.400   7.662   7.661  0.3566  0.0419 -0.1537
22654SOL    HW169684   1.425   7.752   7.643 -0.6170  0.2304 -0.6315
22654SOL    HW269685   1.348   7.667   7.741  0.1621 -0.0677 -0.2715
22655SOL     OW69686   6.274   5.017   0.070 -0.0397 -0.1450  0.5774
22655SOL    HW169687   6.255   5.095   0.017  0.2541  0.0462  0.7560
22655SOL    HW269688   6.276   5.048   0.160  3.4575  0.3294  0.4469
22656SOL     OW69689   7.551   6.580   1.594  0.5223 -0.6982 -0.0002
22656SOL    HW169690   7.458   6.586   1.574  0.6707 -0.5318 -0.6815
22656SOL    HW269691   7.591   6.546   1.513  0.9923 -1.2041  0.4355
22657SOL     OW69692   2.324   4.986   7.533 -0.2926  0.0680 -0.2891
22657SOL    HW169693   2.405   4.954   7.572 -1.4821 -0.7720  1.6167
22657SOL    HW269694   2.315   4.936   7.451  0.6645 -0.4697 -0.0748
22658SOL     OW69695   7.695   8.834   1.314 -0.1670  0.6657 -0.0039
22658SOL    HW169696   7.623   8.897   1.318  0.7302  1.8006 -0.7810
22658SOL    HW269697   7.763   8.879   1.262  0.5950 -0.8696 -0.3906
22659SOL     OW69698   2.077   8.789   2.054  0.4211 -0.6813  0.4879
22659SOL    HW169699   2.146   8.836   2.100 -0.6779 -1.1402  2.7524
22659SOL    HW269700   2.015   8.764   2.123  0.0257 -3.8516 -0.8302
22660SOL     OW69701   0.625   5.997   6.805 -0.4975 -0.5192  0.1421
22660SOL    HW169702   0.634   5.961   6.893 -0.8323 -0.9423  0.0064
22660SOL    HW269703   0.580   6.080   6.818  0.7388  0.1236  0.5095
22661SOL     OW69704   0.026   7.136   2.116 -0.0199 -0.2214  0.4696
22661SOL    HW169705   0.091   7.141   2.046 -0.6278  0.3945 -0.0712
22661SOL    HW269706   0.032   7.221   2.160  0.4841 -0.6734  1.2884
22662SOL     OW69707   6.210   0.880   8.462  0.0322  0.3990  0.1305
22662SOL    HW169708   6.129   0.895   8.414  0.7149 -1.5961 -1.8586
22662SOL    HW269709   6.183   0.839   8.544 -1.0295  0.8884  0.0364
22663SOL     OW69710   2.069   5.130   3.682  0.0180  0.3350 -0.9415
22663SOL    HW169711   2.063   5.140   3.777  1.4690 -0.4382 -0.7317
22663SOL    HW269712   2.128   5.200   3.654 -0.5803  0.6981 -1.3168
22664SOL     OW69713   7.278   9.575   5.252 -0.0357 -0.1891  0.7108
22664SOL    HW169714   7.233   9.656   5.231 -0.9468 -0.5216  1.3290
22664SOL    HW269715   7.281   9.527   5.169 -0.2365  0.1098  0.5289
22665SOL     OW69716   6.894   3.078   2.383 -0.5418  0.5960  0.0600
22665SOL    HW169717   6.833   3.087   2.456  0.6217 -0.0822  1.1604
22665SOL    HW269718   6.871   2.994   2.342 -1.7536  1.3776 -0.9269
22666SOL     OW69719   7.834   6.235   3.591  0.1177  0.4439  0.6652
22666SOL    HW169720   7.889   6.279   3.655 -0.6302  0.5447  1.2482
22666SOL    HW269721   7.848   6.142   3.607 -1.8357  0.3985  2.6101
22667SOL     OW69722   2.673   2.283   3.304  0.3289  0.7624  0.3632
22667SOL    HW169723   2.635   2.209   3.351  1.7754 -1.1775 -1.3373
22667SOL    HW269724   2.598   2.340   3.284 -0.9679 -0.6524  0.9912
22668SOL     OW69725   6.368   9.082   9.335  0.3132  0.1492 -0.1635
22668SOL    HW169726   6.413   9.054   9.255  0.2318 -0.0704 -0.1357
22668SOL    HW269727   6.343   9.000   9.378 -1.3687  0.2179 -0.8951
22669SOL     OW69728   2.407   5.003   6.778  0.0418  0.3575  0.2717
22669SOL    HW169729   2.408   5.055   6.859  0.8819  0.8599 -0.0488
22669SOL    HW269730   2.314   4.985   6.762 -0.0677 -1.0989  2.1942
22670SOL     OW69731   8.992   0.316   1.088 -0.2512 -0.1717 -0.2941
22670SOL    HW169732   8.998   0.223   1.065 -1.6526 -0.8752  1.8663
22670SOL    HW269733   9.071   0.355   1.050 -0.1937 -1.9806 -2.2523
22671SOL     OW69734   6.352   4.118   8.435 -0.3396  0.1853  0.0834
22671SOL    HW169735   6.411   4.142   8.364 -0.8795  0.4959 -0.2741
22671SOL    HW269736   6.273   4.170   8.418 -1.4811 -1.6797 -0.5967
22672SOL     OW69737   4.375   0.967   6.327  0.7453  0.0567 -0.1465
22672SOL    HW169738   4.440   0.951   6.258  0.9344 -0.2170  0.0922
22672SOL    HW269739   4.372   0.885   6.377 -0.2729 -0.1661 -0.5551
22673SOL     OW69740   0.671   6.788   4.841  0.0021 -0.0529  0.1883
22673SOL    HW169741   0.761   6.795   4.874  0.2463  0.8968 -0.6300
22673SOL    HW269742   0.680   6.743   4.757 -0.4945 -1.4571  0.8511
22674SOL     OW69743   4.952   4.454   4.230  0.2874  0.2826 -0.0178
22674SOL    HW169744   4.859   4.432   4.227  0.2934  0.3092 -0.3979
22674SOL    HW269745   4.962   4.503   4.312 -0.3696  1.8069 -0.8182
22675SOL     OW69746   6.312   8.815   1.199 -0.2654  0.2654  0.2613
22675SOL    HW169747   6.242   8.865   1.157  0.3530 -0.2269 -1.4406
22675SOL    HW269748   6.273   8.782   1.280 -2.0335 -0.0667 -0.6761
22676SOL     OW69749   9.078   6.373   2.847 -0.4627 -0.2075  0.6652
22676SOL    HW169750   9.001   6.345   2.796  0.3918  1.6827 -1.8567
22676SOL    HW269751   9.124   6.292   2.868 -2.7755 -1.3428  1.7458
22677SOL     OW69752   1.301   4.986   0.413 -0.3123 -0.2758 -0.0813
22677SOL    HW169753   1.386   5.027   0.399 -0.7062  1.7433  2.5786
22677SOL    HW269754   1.307   4.901   0.368  2.4299  0.5111 -1.4195
22678SOL     OW69755   6.127   5.193   2.623  0.4237  0.0300  0.8631
22678SOL    HW169756   6.178   5.142   2.560 -1.2445  0.5751 -1.0311
22678SOL    HW269757   6.156   5.283   2.611  1.4153 -0.0633  2.2653
22679SOL     OW69758   1.171   0.527   3.879 -0.1025  0.5302 -0.2575
22679SOL    HW169759   1.255   0.571   3.887  0.6633 -0.9011 -0.0799
22679SOL    HW269760   1.117   0.566   3.948  1.2110 -0.2152  1.2640
22680SOL     OW69761   3.945   6.613   0.379  0.0523 -0.2449 -0.2524
22680SOL    HW169762   3.891   6.564   0.441 -0.9179  2.1907  0.9569
22680SOL    HW269763   3.917   6.583   0.293 -2.5304  0.1833  0.3783
22681SOL     OW69764   5.761   5.287   4.147  0.5169  0.1508 -0.2261
22681SOL    HW169765   5.717   5.369   4.126  0.9182  0.7900  1.3439
22681SOL    HW269766   5.755   5.279   4.242  1.1074 -1.2895 -0.2765
22682SOL     OW69767   6.499   7.631   1.248  0.4113 -0.2128  0.5389
22682SOL    HW169768   6.588   7.616   1.217  0.8123  0.9276  1.0489
22682SOL    HW269769   6.503   7.614   1.342  0.4460  1.1224  0.8074
22683SOL     OW69770   5.262   0.190   4.094 -0.1205 -0.0158 -0.2533
22683SOL    HW169771   5.265   0.246   4.171  1.5681  0.3480 -0.5470
22683SOL    HW269772   5.241   0.103   4.128  0.4211  0.1813  0.5947
22684SOL     OW69773   6.204   1.860   5.472 -0.6334 -0.2467  0.0297
22684SOL    HW169774   6.287   1.825   5.505 -0.1054 -2.9729 -3.5766
22684SOL    HW269775   6.140   1.837   5.539  0.7161 -2.9433  0.5473
22685SOL     OW69776   5.932   2.405   8.921  0.3259 -0.1183  0.6052
22685SOL    HW169777   6.001   2.373   8.980  0.7850  1.8443  1.2042
22685SOL    HW269778   5.867   2.444   8.980  0.6566  1.6193 -0.1232
22686SOL     OW69779   3.551   4.098   5.273  0.3519 -0.2430  0.4765
22686SOL    HW169780   3.579   4.090   5.182  1.2218 -0.3610  0.7371
22686SOL    HW269781   3.505   4.016   5.292 -0.8339  0.2504 -0.1712
22687SOL     OW69782   7.317   6.693   2.737  0.4189  1.1249  0.1376
22687SOL    HW169783   7.352   6.643   2.664  1.7051  0.9780  0.8271
22687SOL    HW269784   7.266   6.763   2.696 -0.2538  0.0871 -0.8552
22688SOL     OW69785   7.244   0.520   1.573 -0.6273  0.7732 -0.5506
22688SOL    HW169786   7.303   0.457   1.531  0.1983  0.8797  0.4374
22688SOL    HW269787   7.220   0.580   1.502 -0.7677 -0.1464 -1.3143
22689SOL     OW69788   7.062   8.785   6.431 -0.0348 -0.3809  0.2887
22689SOL    HW169789   7.117   8.847   6.383 -0.8400 -1.5110 -2.3018
22689SOL    HW269790   6.986   8.836   6.459  1.3469  0.7391  2.1700
22690SOL     OW69791   1.897   6.665   0.558  0.1689 -0.1205  0.2807
22690SOL    HW169792   1.932   6.752   0.575  0.3049  0.1346 -1.1531
22690SOL    HW269793   1.942   6.608   0.620  0.2940  0.7747  1.0322
22691SOL     OW69794   3.630   3.813   6.493 -0.1737 -0.4093  0.2567
22691SOL    HW169795   3.634   3.887   6.554 -0.5867  0.0285 -0.2353
22691SOL    HW269796   3.543   3.820   6.453 -0.3712 -1.3958  0.4898
22692SOL     OW69797   3.380   8.365   2.356  0.4278  0.5820 -0.1240
22692SOL    HW169798   3.393   8.428   2.285  0.9049  1.4543  0.7169
22692SOL    HW269799   3.458   8.310   2.353 -0.2035 -0.3002 -1.1569
22693SOL     OW69800   3.866   6.449   0.169 -0.2483  0.2627 -0.3379
22693SOL    HW169801   3.848   6.427   0.077  0.0051  0.0901 -0.3467
22693SOL    HW269802   3.781   6.440   0.213 -0.6090  1.4081 -0.7560
22694SOL     OW69803   6.303   4.424   9.335 -0.0188 -0.0535  0.2407
22694SOL    HW169804   6.304   4.475   9.416  0.8249  1.2364 -0.5444
22694SOL    HW269805   6.390   4.384   9.331  0.2375  0.5577 -0.4260
22695SOL     OW69806   1.788   0.609   1.323  0.7461  0.3991  0.3531
22695SOL    HW169807   1.792   0.565   1.238 -2.0596  0.9508 -0.1705
22695SOL    HW269808   1.852   0.680   1.317  1.4131 -0.2867 -0.8443
22696SOL     OW69809   1.885   6.782   4.286  0.1977  0.1155 -0.3247
22696SOL    HW169810   1.972   6.820   4.287 -0.5517  2.0250  1.6859
22696SOL    HW269811   1.891   6.706   4.344  1.0008 -1.1587 -2.0010
22697SOL     OW69812   3.290   0.318   1.294  0.6313  0.3364  0.1096
22697SOL    HW169813   3.328   0.346   1.377  1.5270 -1.6224  0.4105
22697SOL    HW269814   3.239   0.240   1.316 -0.1448  0.5098 -0.9894
22698SOL     OW69815   6.258   2.512   0.440 -0.1390 -0.0567  0.3536
22698SOL    HW169816   6.278   2.496   0.347 -1.2673 -0.5615  0.1899
22698SOL    HW269817   6.169   2.546   0.440 -0.1046  0.0475  1.2512
22699SOL     OW69818   9.408   8.306   6.264  0.1057  0.1235  0.0806
22699SOL    HW169819   9.447   8.393   6.271  0.8655 -0.2067  0.0001
22699SOL    HW269820   9.464   8.259   6.202  0.9851 -1.1152  1.7224
22700SOL     OW69821   3.528   2.273   7.289  0.6152  0.3204  0.2295
22700SOL    HW169822   3.500   2.333   7.220  0.8588 -0.5000 -0.5944
22700SOL    HW269823   3.460   2.283   7.357 -0.1459  0.4390 -0.5271
22701SOL     OW69824   7.639   8.797   7.302  0.2120 -0.6730  0.2708
22701SOL    HW169825   7.665   8.871   7.357 -0.6547  0.1982 -0.4548
22701SOL    HW269826   7.706   8.730   7.318  3.2881  1.5995 -1.8034
22702SOL     OW69827   4.694   3.206   3.024  0.0342 -0.4162 -0.4670
22702SOL    HW169828   4.622   3.269   3.015  2.6603  2.7015 -1.6560
22702SOL    HW269829   4.707   3.171   2.936  0.1650 -0.7314 -0.3255
22703SOL     OW69830   8.046   2.274   2.293 -0.2384 -0.2339 -0.1181
22703SOL    HW169831   8.092   2.331   2.356  1.4214 -2.9792  1.3717
22703SOL    HW269832   7.968   2.245   2.340  0.2504 -1.1426  0.1589
22704SOL     OW69833   4.886   8.411   6.614 -0.0936  0.1239 -0.1110
22704SOL    HW169834   4.901   8.389   6.706  0.6378  0.5496 -0.1204
22704SOL    HW269835   4.792   8.428   6.609 -0.2743 -0.6551  0.3896
22705SOL     OW69836   2.463   8.441   9.349 -0.4317 -0.1837  0.4268
22705SOL    HW169837   2.444   8.414   9.259  0.0819 -0.3267  0.3615
22705SOL    HW269838   2.557   8.430   9.359 -0.1394  1.7913  0.3305
22706SOL     OW69839   3.516   2.629   7.131 -0.1784  0.2730  0.5638
22706SOL    HW169840   3.570   2.703   7.104 -1.1881  0.3502 -1.4030
22706SOL    HW269841   3.476   2.658   7.213 -0.2579  1.7760  0.0238
22707SOL     OW69842   7.360   2.022   4.465 -0.0975 -0.5169  0.0414
22707SOL    HW169843   7.309   2.074   4.403 -1.2242 -1.2101  0.3573
22707SOL    HW269844   7.397   1.951   4.412 -1.1980 -1.2054  0.1797
22708SOL     OW69845   0.392   5.956   3.939 -0.1624  0.0895 -0.9018
22708SOL    HW169846   0.330   5.884   3.955  1.2644 -0.9178  0.4082
22708SOL    HW269847   0.337   6.035   3.939 -1.3105 -0.5671  2.0582
22709SOL     OW69848   1.540   1.375   5.005  0.3772  0.7150  0.0816
22709SOL    HW169849   1.537   1.295   5.057 -2.3201  0.0939 -0.8111
22709SOL    HW269850   1.631   1.404   5.008  0.7421 -0.4009  3.3512
22710SOL     OW69851   9.393   6.369   0.201  0.4213  0.4509 -0.3502
22710SOL    HW169852   9.323   6.328   0.252  2.3935 -1.7193  0.7867
22710SOL    HW269853   9.428   6.437   0.259  0.9399 -0.2401  0.1638
22711SOL     OW69854   2.896   2.198   2.663 -0.0247  0.2897  0.0367
22711SOL    HW169855   2.938   2.187   2.578 -0.3262 -0.0105 -0.0740
22711SOL    HW269856   2.956   2.254   2.712  0.8154 -0.6422  0.1049
22712SOL     OW69857   2.336   0.886   4.044  0.0907 -0.1675  0.4643
22712SOL    HW169858   2.250   0.859   4.077 -0.5328  0.9070 -0.2097
22712SOL    HW269859   2.317   0.925   3.958  1.1609  0.7024  0.6046
22713SOL     OW69860   5.097   0.730   2.608  0.0392  0.4363  0.3079
22713SOL    HW169861   5.034   0.696   2.672  0.5090 -2.4621 -0.6415
22713SOL    HW269862   5.182   0.718   2.650  0.2796 -0.5042 -0.4276
22714SOL     OW69863   2.661   7.740   2.634  0.5302  0.3757 -0.3866
22714SOL    HW169864   2.651   7.788   2.716  0.9757 -0.5660  0.2323
22714SOL    HW269865   2.755   7.742   2.616  0.8369 -1.8417  0.6533
22715SOL     OW69866   6.404   6.314   2.789  0.1633  0.3574  0.6325
22715SOL    HW169867   6.377   6.387   2.845 -1.4074 -0.1529  0.5889
22715SOL    HW269868   6.331   6.252   2.793  1.4030 -1.1660  0.5582
22716SOL     OW69869   2.210   7.555   2.052 -0.0143  0.4312 -0.3909
22716SOL    HW169870   2.178   7.643   2.032 -0.6396  0.5263  0.8893
22716SOL    HW269871   2.231   7.558   2.145 -1.1829 -1.0879 -0.0281
22717SOL     OW69872   7.059   9.030   3.939 -0.2054 -0.4802 -0.4082
22717SOL    HW169873   7.080   9.105   3.883  0.2167  0.2672  0.7152
22717SOL    HW269874   7.012   9.068   4.013  2.2430 -0.9000  1.4913
22718SOL     OW69875   6.403   3.974   8.860 -0.0548  0.1477  0.2985
22718SOL    HW169876   6.343   3.996   8.931  0.3658  1.8638  0.1731
22718SOL    HW269877   6.454   3.900   8.894 -1.0327 -0.1955  1.0797
22719SOL     OW69878   3.710   4.731   7.267 -0.6343  0.0479  0.2760
22719SOL    HW169879   3.803   4.723   7.286 -0.3572 -0.0916 -1.0409
22719SOL    HW269880   3.704   4.800   7.202 -1.3439 -0.5779 -0.3462
22720SOL     OW69881   8.125   3.603   5.377  0.1100  0.0426  0.4539
22720SOL    HW169882   8.102   3.662   5.305  0.4297  1.0606  1.1583
22720SOL    HW269883   8.215   3.626   5.400 -0.8624  1.7374  2.9976
22721SOL     OW69884   1.309   8.028   0.567  0.1540 -0.0621  0.4524
22721SOL    HW169885   1.401   8.049   0.556  0.1211 -0.6309 -1.0888
22721SOL    HW269886   1.301   7.937   0.538 -1.1479  0.4795 -1.0757
22722SOL     OW69887   8.499   1.972   9.432  0.1594 -0.1951 -0.8018
22722SOL    HW169888   8.408   2.000   9.415 -0.2675 -2.2548 -2.2395
22722SOL    HW269889   8.552   2.046   9.401 -0.9807  0.3560 -1.5382
22723SOL     OW69890   2.469   0.531   2.600  0.4567  0.7191  0.5820
22723SOL    HW169891   2.523   0.504   2.675  0.1981 -0.2674  0.4241
22723SOL    HW269892   2.381   0.504   2.623  0.3901  0.3149 -0.1197
22724SOL     OW69893   4.620   0.087   8.292 -0.0658 -0.3657  0.0384
22724SOL    HW169894   4.709   0.052   8.296 -0.0517 -0.3242  0.0930
22724SOL    HW269895   4.619   0.155   8.359  0.0303  0.0204 -0.3465
22725SOL     OW69896   2.402   5.773   7.188  0.6012  0.0696  0.0823
22725SOL    HW169897   2.453   5.774   7.107 -0.0693  1.6886 -0.3613
22725SOL    HW269898   2.460   5.810   7.254  1.1028 -1.1307  0.3386
22726SOL     OW69899   1.274   7.633   7.925  0.2414 -0.3388 -0.5285
22726SOL    HW169900   1.218   7.580   7.869  1.8992 -0.7263 -1.9354
22726SOL    HW269901   1.270   7.592   8.011 -0.8943 -0.8757 -0.8207
22727SOL     OW69902   9.134   8.290   6.569 -0.0480  0.3298 -0.0329
22727SOL    HW169903   9.053   8.254   6.532  0.6144  0.8445 -2.0852
22727SOL    HW269904   9.106   8.370   6.614 -0.9493 -0.5997  1.1436
22728SOL     OW69905   5.702   8.811   9.465  0.4930 -0.2266 -0.1342
22728SOL    HW169906   5.659   8.850   9.541  2.1075  1.7492 -0.1521
22728SOL    HW269907   5.641   8.824   9.393  0.3642  0.9848  0.1717
22729SOL     OW69908   5.095   8.247   5.447  0.6055 -0.6190  0.0178
22729SOL    HW169909   5.034   8.291   5.388 -1.5527 -1.1633  1.7353
22729SOL    HW269910   5.089   8.155   5.424  0.2688 -0.7521  0.6273
22730SOL     OW69911   7.856   2.627   5.648  0.8511  0.5611 -0.0248
22730SOL    HW169912   7.796   2.693   5.683 -0.9230 -1.7432  1.6190
22730SOL    HW269913   7.942   2.657   5.676  0.2061  2.5637 -0.0132
22731SOL     OW69914   7.572   6.191   9.320  0.1096 -0.1297 -0.0133
22731SOL    HW169915   7.583   6.284   9.339  0.8392 -0.1547 -0.2971
22731SOL    HW269916   7.477   6.178   9.315 -0.0277  0.4062  0.9533
22732SOL     OW69917   5.643   0.506   7.807 -0.0232 -0.7331  0.0523
22732SOL    HW169918   5.549   0.510   7.794  0.1385 -1.2206 -1.4496
22732SOL    HW269919   5.675   0.593   7.782  0.0643 -1.0317 -0.9290
22733SOL     OW69920   9.437   7.496   2.870  0.7050  0.0250 -0.1618
22733SOL    HW169921   9.348   7.521   2.894  0.8135 -1.0032  1.4563
22733SOL    HW269922   9.492   7.567   2.903  0.6243 -0.1570  0.3710
22734SOL     OW69923   3.915   2.722   3.643  0.0316 -0.5014 -0.6603
22734SOL    HW169924   3.922   2.627   3.647  1.9617 -0.4620 -1.6553
22734SOL    HW269925   3.979   2.753   3.708  0.0637  0.1114 -0.9782
22735SOL     OW69926   6.797   4.039   7.640  0.2307  0.7662 -0.2273
22735SOL    HW169927   6.838   3.954   7.620 -1.1472  0.3994 -1.6799
22735SOL    HW269928   6.764   4.028   7.730 -2.0397 -1.1895 -1.1709
22736SOL     OW69929   3.661   1.547   5.919 -0.2686 -0.5357 -0.0194
22736SOL    HW169930   3.689   1.620   5.974 -1.8213 -0.0244  0.1379
22736SOL    HW269931   3.657   1.583   5.830 -0.4034 -0.6100 -0.0444
22737SOL     OW69932   3.508   6.784   3.051 -0.0105  0.1116 -0.0745
22737SOL    HW169933   3.456   6.862   3.035 -1.9754 -1.1425 -0.1697
22737SOL    HW269934   3.449   6.711   3.029  2.2314 -1.3965 -1.5062
22738SOL     OW69935   3.603   4.025   2.091  0.4283 -0.0521 -0.4014
22738SOL    HW169936   3.539   4.023   2.020 -0.0868 -0.8830  0.0788
22738SOL    HW269937   3.687   4.036   2.046  0.0318  0.3202 -1.0794
22739SOL     OW69938   3.729   9.156   1.343  0.0950 -0.2236  0.1600
22739SOL    HW169939   3.677   9.222   1.296  0.3129 -0.3900 -0.3228
22739SOL    HW269940   3.679   9.139   1.423  0.1606  0.6950  0.3966
22740SOL     OW69941   7.405   0.933   4.916 -0.2562 -0.8504 -1.0538
22740SOL    HW169942   7.386   0.966   5.004  0.5516 -1.1001 -0.7796
22740SOL    HW269943   7.426   0.841   4.929 -0.9357 -1.0906 -1.6179
22741SOL     OW69944   5.264   4.082   1.964  0.0892 -0.4345  0.2301
22741SOL    HW169945   5.240   4.058   1.874  0.2764 -1.9638  0.5580
22741SOL    HW269946   5.220   4.017   2.019  0.1000  0.3927  1.2480
22742SOL     OW69947   9.351   4.761   4.631  0.3804 -0.0222  0.3347
22742SOL    HW169948   9.383   4.701   4.564 -2.1325 -0.4813 -0.5437
22742SOL    HW269949   9.416   4.832   4.632  2.6312 -1.9302  0.3432
22743SOL     OW69950   3.870   7.686   5.398  0.3205  0.2254  0.1574
22743SOL    HW169951   3.962   7.665   5.415  0.1396 -2.1339 -1.3413
22743SOL    HW269952   3.871   7.779   5.374  2.4488  0.0638 -0.6006
22744SOL     OW69953   0.711   4.245   1.701  0.0728 -0.6119 -0.5552
22744SOL    HW169954   0.803   4.268   1.688  0.3883 -0.6278  1.4571
22744SOL    HW269955   0.666   4.285   1.627  1.5544  0.2811 -1.0129
22745SOL     OW69956   5.863   3.815   8.059 -0.5642 -0.1497 -0.2203
22745SOL    HW169957   5.801   3.876   8.019 -0.5826 -1.0402 -1.6381
22745SOL    HW269958   5.931   3.870   8.097 -0.5838  0.7712 -1.4566
22746SOL     OW69959   7.217   1.311   1.736 -0.5955  0.3277 -0.6759
22746SOL    HW169960   7.171   1.395   1.745  0.1890  0.8515 -1.4064
22746SOL    HW269961   7.300   1.324   1.781  0.1242  0.4443 -1.9699
22747SOL     OW69962   4.000   6.520   1.571  0.2968 -0.5671  0.3606
22747SOL    HW169963   4.029   6.451   1.511  0.1650 -0.2887 -0.0283
22747SOL    HW269964   3.915   6.489   1.602 -0.1181 -0.2284 -0.4075
22748SOL     OW69965   6.634   2.219   1.094 -0.5395 -0.0307 -0.1827
22748SOL    HW169966   6.653   2.258   1.179 -0.2237 -0.3353 -0.1097
22748SOL    HW269967   6.583   2.286   1.048 -0.5187  0.2264  0.1599
22749SOL     OW69968   4.130   1.403   0.454 -0.7781 -0.3957 -0.0386
22749SOL    HW169969   4.158   1.455   0.530 -1.8246  0.4279 -0.2012
22749SOL    HW269970   4.150   1.313   0.479 -0.0942 -0.0391  0.7624
22750SOL     OW69971   5.228   8.964   7.288  0.1461 -0.0108 -0.0507
22750SOL    HW169972   5.221   9.038   7.348 -0.8365  0.0986 -0.2826
22750SOL    HW269973   5.301   8.912   7.322 -0.6793 -0.1972  1.5016
22751SOL     OW69974   5.121   0.577   1.364 -0.0758 -0.1645 -0.1020
22751SOL    HW169975   5.161   0.520   1.298  0.1274  0.2661 -0.3622
22751SOL    HW269976   5.179   0.653   1.367 -1.4543  1.0074 -1.3277
22752SOL     OW69977   3.872   5.428   8.986  0.1759 -0.3289  0.4976
22752SOL    HW169978   3.795   5.431   9.043 -0.1816  0.3704 -0.0102
22752SOL    HW269979   3.842   5.381   8.908  0.0583  0.5416  0.0090
22753SOL     OW69980   3.092   5.074   9.646  0.5242 -0.2381 -0.1118
22753SOL    HW169981   3.019   5.089   9.706 -0.2672 -0.7495 -0.9284
22753SOL    HW269982   3.119   4.984   9.663  0.1680 -0.4518 -0.6467
22754SOL     OW69983   2.429   0.585   5.042  0.2933 -0.1065 -0.0378
22754SOL    HW169984   2.338   0.556   5.038  0.5077 -0.9316  0.7600
22754SOL    HW269985   2.452   0.579   5.135  1.4129 -0.7180 -0.3425
22755SOL     OW69986   0.468   6.821   2.086  0.2357  0.5340 -0.2799
22755SOL    HW169987   0.543   6.876   2.108 -0.2932  0.8656  0.7452
22755SOL    HW269988   0.420   6.812   2.168  0.8434 -2.3269 -0.1223
22756SOL     OW69989   1.373   4.276   6.987 -0.1488  0.3272  0.2346
22756SOL    HW169990   1.315   4.351   6.997  0.7930  1.1095  0.0129
22756SOL    HW269991   1.408   4.284   6.898  0.7978  0.2433  0.5890
22757SOL     OW69992   5.903   9.313   1.900  0.0718 -0.1847  0.0716
22757SOL    HW169993   5.919   9.356   1.816 -1.0352 -2.3746 -1.3722
22757SOL    HW269994   5.976   9.253   1.911 -0.6406 -1.1370 -0.2302
22758SOL     OW69995   7.417   9.115   7.294 -0.3260  0.4466  0.0085
22758SOL    HW169996   7.337   9.139   7.247  0.0104  0.7725 -0.4094
22758SOL    HW269997   7.478   9.089   7.225 -0.0421  0.3000  0.3166
22759SOL     OW69998   7.046   7.388   8.677  0.2334 -0.3092  0.4469
22759SOL    HW169999   7.074   7.479   8.689 -1.2632  0.2907 -0.3250
22759SOL    HW270000   7.039   7.379   8.582 -1.5327 -0.6141  0.5882
22760SOL     OW70001   5.523   1.361   5.276  0.1112 -0.6111 -0.4348
22760SOL    HW170002   5.573   1.290   5.317  1.6355  0.7868  0.2499
22760SOL    HW270003   5.584   1.400   5.213  0.0626  1.3666  0.6652
22761SOL     OW70004   2.218   8.934   8.027  0.4048 -1.2032 -0.1394
22761SOL    HW170005   2.206   8.965   8.116 -1.0395  0.5551 -0.8692
22761SOL    HW270006   2.274   8.857   8.035 -0.8409 -1.9568  2.4056
22762SOL     OW70007   8.954   2.649   3.390 -0.2838 -0.9389 -0.8452
22762SOL    HW170008   8.931   2.670   3.299  0.4736  4.5468 -0.1169
22762SOL    HW270009   8.869   2.640   3.434 -0.7450 -0.2379 -1.5465
22763SOL     OW70010   4.714   1.836   8.807 -0.2786  0.4869 -0.1307
22763SOL    HW170011   4.672   1.892   8.741 -0.1572 -0.1736 -0.7796
22763SOL    HW270012   4.806   1.833   8.780  0.3404  2.3468  1.5699
22764SOL     OW70013   9.271   5.446   2.761  0.2462  0.3655 -0.3108
22764SOL    HW170014   9.305   5.359   2.781  0.1436  0.2085 -0.7996
22764SOL    HW270015   9.296   5.462   2.670 -1.9562 -0.2652 -1.1054
22765SOL     OW70016   6.120   2.888   3.623  0.3194  0.3972 -0.0549
22765SOL    HW170017   6.074   2.836   3.688 -1.2972  0.4470 -1.0940
22765SOL    HW270018   6.083   2.859   3.539  1.6834  0.9719 -0.8773
22766SOL     OW70019   7.327   8.620   4.942 -0.7433 -0.3120 -0.2816
22766SOL    HW170020   7.359   8.708   4.924 -0.8946 -0.0951  0.4631
22766SOL    HW270021   7.369   8.564   4.877 -0.6592  0.3132 -0.7631
22767SOL     OW70022   5.691   5.841   5.202 -0.3216  0.0316  0.3045
22767SOL    HW170023   5.604   5.803   5.218 -0.4278  0.2004  0.1324
22767SOL    HW270024   5.741   5.770   5.162 -0.8783  0.4037 -1.1441
22768SOL     OW70025   4.283   4.901   6.062  0.1245  0.1096  0.2730
22768SOL    HW170026   4.274   4.987   6.020  0.2088  0.3149  0.6769
22768SOL    HW270027   4.375   4.878   6.048  0.0923  0.0673  0.1298
22769SOL     OW70028   5.801   3.531   6.607  0.5953  0.2393  0.6658
22769SOL    HW170029   5.728   3.492   6.558  2.3275 -0.5435 -1.5061
22769SOL    HW270030   5.804   3.622   6.577 -0.5156  0.7979  2.1203
22770SOL     OW70031   5.222   9.629   9.338  0.6506  0.0735 -0.3395
22770SOL    HW170032   5.190   9.552   9.383  1.6086 -0.9675 -1.3604
22770SOL    HW270033   5.312   9.641   9.370 -0.4546  2.7363  2.2247
22771SOL     OW70034   8.130   7.149   3.661  0.1681 -0.6662 -0.0095
22771SOL    HW170035   8.072   7.188   3.596  0.2224 -0.2329  0.1973
22771SOL    HW270036   8.213   7.197   3.651 -0.3284  0.5844  1.5071
22772SOL     OW70037   4.259   4.552   8.440  0.0936 -0.1331  0.2274
22772SOL    HW170038   4.208   4.578   8.517 -0.3814  2.6863 -0.9188
22772SOL    HW270039   4.348   4.542   8.474 -0.2948 -0.0362  1.3466
22773SOL     OW70040   7.682   8.174   6.658 -0.3675 -0.2744 -0.1306
22773SOL    HW170041   7.622   8.129   6.599  0.0788 -2.1410  0.7367
22773SOL    HW270042   7.679   8.266   6.632 -1.2328 -0.8212 -2.1022
22774SOL     OW70043   2.557   3.344   8.424 -0.7490  0.2064 -0.0451
22774SOL    HW170044   2.542   3.264   8.373 -0.1140  0.3966 -0.5395
22774SOL    HW270045   2.602   3.314   8.503 -0.6877  0.0599 -0.1360
22775SOL     OW70046   1.625   6.394   4.980  0.7894 -0.5945 -0.1886
22775SOL    HW170047   1.645   6.481   4.943 -0.2752 -0.2651 -0.0140
22775SOL    HW270048   1.685   6.335   4.936  1.8577  0.2983  0.0186
22776SOL     OW70049   1.766   6.572   5.413  0.0343 -0.1841  0.6897
22776SOL    HW170050   1.782   6.527   5.330  1.8644 -1.1392  1.5032
22776SOL    HW270051   1.830   6.535   5.474 -0.4028  1.3935  2.2118
22777SOL     OW70052   7.654   5.312   1.904 -0.4856  0.0084 -0.6985
22777SOL    HW170053   7.619   5.367   1.833 -0.3672  1.6636  0.4474
22777SOL    HW270054   7.746   5.337   1.910  0.0300 -1.6546 -1.3056
22778SOL     OW70055   0.595   8.683   4.520 -0.0646 -0.3369  0.4567
22778SOL    HW170056   0.640   8.695   4.436 -0.1467  2.1863  0.7191
22778SOL    HW270057   0.514   8.637   4.498 -0.4496  0.9716 -0.9791
22779SOL     OW70058   1.865   4.588   5.994  0.3675  0.0895  0.3230
22779SOL    HW170059   1.922   4.661   5.969  0.9556 -0.0884  1.1188
22779SOL    HW270060   1.809   4.575   5.917  1.2076  0.4498 -0.3733
22780SOL     OW70061   5.939   5.490   0.091  0.2114  0.2331  0.8529
22780SOL    HW170062   6.011   5.433   0.118  0.1071 -0.4341 -0.2160
22780SOL    HW270063   5.891   5.438   0.027  0.9515  2.0123 -1.2705
22781SOL     OW70064   2.457   8.343   7.550  0.0436 -0.4055 -0.0019
22781SOL    HW170065   2.525   8.365   7.487 -0.6671 -0.8759 -0.9514
22781SOL    HW270066   2.491   8.374   7.634  1.0213  0.1895 -0.6052
22782SOL     OW70067   1.297   6.390   2.381 -0.1097 -0.3453  0.1536
22782SOL    HW170068   1.343   6.314   2.345  0.1460 -0.7940  1.3677
22782SOL    HW270069   1.356   6.424   2.449  0.7986  2.3203 -1.8069
22783SOL     OW70070   3.825   1.349   6.008 -0.2890  0.3296 -0.3961
22783SOL    HW170071   3.892   1.417   6.016  0.7942 -0.5779 -1.2935
22783SOL    HW270072   3.745   1.396   5.985  0.5790  1.2601 -1.6624
22784SOL     OW70073   3.277   1.924   5.723 -0.0239 -0.0940 -0.4295
22784SOL    HW170074   3.215   1.852   5.726 -0.4224  0.2366 -0.6338
22784SOL    HW270075   3.361   1.883   5.703 -0.2858 -0.4748 -0.7619
22785SOL     OW70076   5.873   5.282   1.171 -0.0726 -0.1572 -0.2009
22785SOL    HW170077   5.920   5.365   1.178 -0.4351  0.1499 -1.1771
22785SOL    HW270078   5.926   5.230   1.111 -1.1199  0.3364 -1.6303
22786SOL     OW70079   0.640   6.668   4.379  0.0894 -0.1278 -0.6257
22786SOL    HW170080   0.695   6.723   4.324 -2.1428 -0.9127 -3.9624
22786SOL    HW270081   0.660   6.578   4.353  0.8242 -0.7624  1.8551
22787SOL     OW70082   5.717   7.137   6.741 -0.7608  0.1540 -0.1149
22787SOL    HW170083   5.790   7.198   6.748 -0.7014 -0.0173  1.0267
22787SOL    HW270084   5.738   7.082   6.666  0.6282 -0.3429  0.6225
22788SOL     OW70085   9.460   4.982   7.103  0.1147 -0.3154 -0.1589
22788SOL    HW170086   9.474   4.888   7.104 -1.2444 -0.5478  1.2685
22788SOL    HW270087   9.365   4.992   7.091 -0.2759  0.6985  2.7418
22789SOL     OW70088   3.190   3.310   7.479  0.0524 -0.1314  0.5799
22789SOL    HW170089   3.234   3.350   7.403  0.6232  0.1652  1.0597
22789SOL    HW270090   3.125   3.375   7.505  1.2031  0.6699  1.5639
22790SOL     OW70091   2.721   7.756   8.077  0.5495 -1.0947 -0.1093
22790SOL    HW170092   2.722   7.670   8.035 -0.0859 -1.1750  0.0397
22790SOL    HW270093   2.661   7.808   8.023 -2.3485 -1.9251  2.1153
22791SOL     OW70094   5.192   0.497   0.669 -0.6476  0.2267  0.5957
22791SOL    HW170095   5.184   0.462   0.758  0.6479  0.8717  1.0008
22791SOL    HW270096   5.234   0.427   0.619  0.8726  0.7196  1.1192
22792SOL     OW70097   5.593   0.533   8.585  0.4053 -0.5625  0.1676
22792SOL    HW170098   5.662   0.599   8.576  0.5717 -0.7456  0.0782
22792SOL    HW270099   5.627   0.473   8.651  0.6752 -1.0830 -0.4351
22793SOL     OW70100   2.538   3.528   0.809  0.1471  0.2476 -0.2803
22793SOL    HW170101   2.534   3.580   0.889 -0.8598  2.1440 -1.5050
22793SOL    HW270102   2.581   3.585   0.746  0.0520 -0.8526 -1.3713
22794SOL     OW70103   7.196   8.400   1.783 -0.5595 -0.1953 -0.3035
22794SOL    HW170104   7.275   8.455   1.786 -0.7967  0.2570 -1.8200
22794SOL    HW270105   7.188   8.373   1.692 -2.2982 -0.0362 -0.2352
22795SOL     OW70106   8.338   7.908   8.928  0.1354 -0.0795 -0.1898
22795SOL    HW170107   8.300   7.908   9.016  5.0427 -1.0386  2.2789
22795SOL    HW270108   8.383   7.993   8.922  1.0155 -0.5959 -1.1874
22796SOL     OW70109   5.680   7.344   2.603 -0.5212 -0.0677  0.6316
22796SOL    HW170110   5.744   7.413   2.617  0.6430 -1.4037  2.3521
22796SOL    HW270111   5.614   7.358   2.672 -0.7974 -0.1043  0.3769
22797SOL     OW70112   4.515   0.638   0.428  0.1154  0.0671  0.0632
22797SOL    HW170113   4.464   0.581   0.369  1.9186 -0.7610 -0.7683
22797SOL    HW270114   4.553   0.704   0.370  0.1169  0.5851  0.6479
22798SOL     OW70115   5.311   9.109   9.209  0.1598  0.1095 -1.0506
22798SOL    HW170116   5.307   9.205   9.201 -0.1700  0.2768  0.8349
22798SOL    HW270117   5.339   9.080   9.122 -0.8607  1.8330 -2.0281
22799SOL     OW70118   4.509   8.188   9.387 -0.3481 -0.5221  0.0914
22799SOL    HW170119   4.526   8.215   9.477 -1.1668 -0.3651  0.2090
22799SOL    HW270120   4.596   8.178   9.348  0.0148 -0.7003  0.9264
22800SOL     OW70121   2.194   2.343   5.080  0.1542 -0.3817  0.6251
22800SOL    HW170122   2.247   2.421   5.064  1.1397 -1.3535 -1.1187
22800SOL    HW270123   2.257   2.272   5.090 -0.7571 -1.5437 -1.3045
22801SOL     OW70124   6.952   0.878   6.135  0.3014  0.0581 -0.4458
22801SOL    HW170125   6.922   0.958   6.179  0.8006 -0.1054  0.2089
22801SOL    HW270126   6.873   0.843   6.093 -0.1999  0.1951  0.3645
22802SOL     OW70127   7.510   4.353   7.942 -0.1748  0.5433 -0.1542
22802SOL    HW170128   7.443   4.382   8.004  0.9294  1.4066  0.6764
22802SOL    HW270129   7.462   4.339   7.860 -1.7770 -1.2149  0.9939
22803SOL     OW70130   1.316   1.590   7.879 -0.4052 -0.4269  0.2802
22803SOL    HW170131   1.250   1.599   7.810  0.4984 -1.3470 -0.7493
22803SOL    HW270132   1.398   1.614   7.837  0.0779 -0.3598  1.2294
22804SOL     OW70133   3.508   7.912   5.095  0.1757 -0.3684  0.4641
22804SOL    HW170134   3.438   7.861   5.054  0.2780 -0.8630  0.8863
22804SOL    HW270135   3.585   7.855   5.091  0.5609  0.1721  0.0014
22805SOL     OW70136   0.502   0.971   8.623  0.2138  0.4034  0.2833
22805SOL    HW170137   0.584   0.979   8.672 -1.0150  0.8128  2.3663
22805SOL    HW270138   0.434   0.967   8.690 -1.5401  0.6744 -1.3990
22806SOL     OW70139   7.795   6.367   5.455  0.0030  0.0367 -0.3661
22806SOL    HW170140   7.840   6.397   5.534  1.1588 -1.6997 -0.3008
22806SOL    HW270141   7.851   6.395   5.383  1.5168 -2.4417 -0.2664
22807SOL     OW70142   5.928   8.592   0.205  0.0971  0.3546 -0.0229
22807SOL    HW170143   5.989   8.519   0.196 -1.5607 -1.1635  0.4093
22807SOL    HW270144   5.969   8.664   0.158  0.7169 -1.5236 -2.5937
22808SOL     OW70145   6.318   5.224   4.409 -0.0681 -0.0964  0.0283
22808SOL    HW170146   6.378   5.152   4.389 -0.0276 -0.2731  0.7624
22808SOL    HW270147   6.311   5.224   4.504 -0.6992  0.3618 -0.0096
22809SOL     OW70148   8.244   4.643   7.257 -0.1944  0.5994  0.2084
22809SOL    HW170149   8.189   4.652   7.335  1.5398  1.7734  1.3693
22809SOL    HW270150   8.334   4.650   7.290  0.6339  0.0126 -1.7691
22810SOL     OW70151   0.491   2.011   9.022 -0.1277  0.6826 -0.3200
22810SOL    HW170152   0.444   2.095   9.023 -2.7103 -0.6364 -0.7833
22810SOL    HW270153   0.460   1.967   9.101 -0.7171 -0.7490 -1.3136
22811SOL     OW70154   3.059   9.354   7.695  0.6506 -0.4373 -0.3022
22811SOL    HW170155   3.091   9.444   7.693  0.8891 -0.5332 -1.2905
22811SOL    HW270156   3.135   9.302   7.719  0.3237 -0.3259  1.1182
22812SOL     OW70157   3.443   5.783   8.101  0.0227 -0.3782  0.1670
22812SOL    HW170158   3.378   5.714   8.087  2.1868 -2.7990  1.2259
22812SOL    HW270159   3.426   5.813   8.190 -1.6404  1.3757 -0.6776
22813SOL     OW70160   0.369   5.141   9.338  0.5193 -0.1233 -0.4365
22813SOL    HW170161   0.350   5.203   9.268 -0.2746 -0.7392 -0.7890
22813SOL    HW270162   0.397   5.062   9.292  0.1240 -0.4856 -0.0630
22814SOL     OW70163   2.610   0.474   8.193 -0.2566  0.3074 -0.1443
22814SOL    HW170164   2.540   0.510   8.138 -2.2755  0.0807  2.1258
22814SOL    HW270165   2.658   0.550   8.224  0.7036  0.4553 -1.8754
22815SOL     OW70166   6.248   5.885   6.805 -0.4601  0.2290  0.3063
22815SOL    HW170167   6.341   5.866   6.797 -0.0923  1.7290  0.6862
22815SOL    HW270168   6.220   5.836   6.882 -0.0932 -0.5728 -0.0625
22816SOL     OW70169   4.340   9.529   2.622  0.3048  0.0043  0.3356
22816SOL    HW170170   4.362   9.568   2.538 -2.0289  0.7874  0.0321
22816SOL    HW270171   4.247   9.547   2.634  0.3980 -0.7350  2.7523
22817SOL     OW70172   5.383   2.405   9.677 -0.3894 -0.1919  0.4791
22817SOL    HW170173   5.326   2.373   9.607 -0.2093 -1.3746  0.8429
22817SOL    HW270174   5.468   2.419   9.635 -0.0899 -1.5729  0.5661
22818SOL     OW70175   1.237   1.309   8.314 -0.0261 -0.1150 -0.8175
22818SOL    HW170176   1.240   1.253   8.237 -0.6286 -0.6717 -0.4421
22818SOL    HW270177   1.206   1.393   8.281 -0.9525 -0.5473 -1.0807
22819SOL     OW70178   4.654   1.441   2.725  0.4719  0.7122  0.2395
22819SOL    HW170179   4.665   1.410   2.635 -0.7566  0.0208  0.3121
22819SOL    HW270180   4.615   1.367   2.771  1.0684  1.0745  1.3456
22820SOL     OW70181   3.599   9.651   5.932  0.4813  0.2603 -0.0611
22820SOL    HW170182   3.554   9.620   5.853  0.4874  1.0424 -0.3811
22820SOL    HW270183   3.691   9.626   5.918  0.4388  0.1622 -0.1737
22821SOL     OW70184   2.026   0.480   1.412  0.2760 -0.5612 -0.1803
22821SOL    HW170185   2.014   0.395   1.454  0.0604 -0.4689 -0.0513
22821SOL    HW270186   1.938   0.504   1.381 -0.0190  0.3999  1.2868
22822SOL     OW70187   0.922   1.572   3.048  0.8118 -0.4311  0.1588
22822SOL    HW170188   1.010   1.607   3.058  0.4756  0.3388  0.5471
22822SOL    HW270189   0.924   1.523   2.966  1.5377 -0.2167  0.0477
22823SOL     OW70190   1.068   0.764   1.479  0.1236  0.4825 -0.3421
22823SOL    HW170191   1.102   0.778   1.567  1.0618 -0.5039 -0.5292
22823SOL    HW270192   1.142   0.727   1.430 -0.6727  0.0686 -1.2711
22824SOL     OW70193   6.515   2.280   0.243 -0.3168 -0.1169  0.1917
22824SOL    HW170194   6.493   2.307   0.154 -2.1606 -0.0795  0.6182
22824SOL    HW270195   6.611   2.274   0.244 -0.3226 -2.2132 -2.4043
22825SOL     OW70196   8.667   1.237   0.017 -0.1935  0.0816  0.4666
22825SOL    HW170197   8.717   1.177   0.072 -0.9519 -1.5928 -0.5822
22825SOL    HW270198   8.593   1.264   0.071 -0.7827 -1.3343  0.4167
22826SOL     OW70199   6.005   7.006   8.320  0.0232 -0.1322  0.2687
22826SOL    HW170200   5.973   7.009   8.410  1.0070 -0.6400  0.6436
22826SOL    HW270201   5.926   7.017   8.267 -0.6989 -0.7364  1.1773
22827SOL     OW70202   4.620   2.623   0.311 -0.4934 -0.2800  0.1514
22827SOL    HW170203   4.639   2.707   0.352 -0.4641 -0.6570  0.9225
22827SOL    HW270204   4.676   2.561   0.357  0.7916 -0.4708 -1.5532
22828SOL     OW70205   5.185   1.784   9.532 -0.7060 -0.2352 -0.1829
22828SOL    HW170206   5.260   1.774   9.473 -0.7690  1.9695 -0.6995
22828SOL    HW270207   5.112   1.743   9.485 -0.0640 -1.6203 -0.0481
22829SOL     OW70208   4.212   3.366   4.476  0.4585  0.2816  0.2807
22829SOL    HW170209   4.181   3.281   4.446  1.3214  0.3514 -0.8779
22829SOL    HW270210   4.136   3.423   4.470  0.1929 -0.1139 -0.1599
22830SOL     OW70211   6.774   0.102   9.511  0.0477  0.4410  0.4756
22830SOL    HW170212   6.788   0.065   9.598  0.0787 -0.5599  0.0493
22830SOL    HW270213   6.681   0.088   9.493  0.4767 -1.3904 -0.5529
22831SOL     OW70214   4.109   2.526   5.651  0.0798 -0.7688  0.2435
22831SOL    HW170215   4.169   2.453   5.635  1.6468  0.6642 -0.7043
22831SOL    HW270216   4.078   2.551   5.564 -1.6347 -1.2093  0.6802
22832SOL     OW70217   9.174   4.769   2.177 -0.3531 -0.3406  0.2234
22832SOL    HW170218   9.135   4.684   2.198 -0.2099 -0.3798  0.3346
22832SOL    HW270219   9.201   4.762   2.086 -2.0517  0.2309 -0.3547
22833SOL     OW70220   6.906   4.648   3.402 -0.3038  0.6527 -0.1738
22833SOL    HW170221   6.875   4.712   3.465 -1.1031  1.4592 -1.3377
22833SOL    HW270222   6.953   4.699   3.337  0.8572 -0.2090 -0.0317
22834SOL     OW70223   0.436   0.615   3.425 -0.4531  0.5209 -0.1577
22834SOL    HW170224   0.404   0.561   3.353  1.2501 -0.9851  0.1488
22834SOL    HW270225   0.402   0.572   3.504 -1.2010  1.3914  0.0051
22835SOL     OW70226   0.956   2.253   1.595  0.2464  0.3561 -0.7680
22835SOL    HW170227   0.975   2.252   1.501  1.3529 -0.4098 -0.5529
22835SOL    HW270228   1.038   2.282   1.635 -0.1939  0.5952 -0.0186
22836SOL     OW70229   0.489   0.919   7.356  0.1239 -0.1403  0.2698
22836SOL    HW170230   0.395   0.900   7.354  0.1020 -0.1254  0.9241
22836SOL    HW270231   0.510   0.945   7.266 -0.6030  0.3804  0.2375
22837SOL     OW70232   5.159   7.107   7.742 -0.1136 -0.4634  0.3208
22837SOL    HW170233   5.096   7.173   7.714  0.5974 -0.4337 -1.3068
22837SOL    HW270234   5.236   7.157   7.769  0.5811 -0.5730 -1.3052
22838SOL     OW70235   7.162   5.714   1.927  0.6803  0.2985 -0.5975
22838SOL    HW170236   7.212   5.655   1.983 -0.2445 -0.5055 -0.5923
22838SOL    HW270237   7.126   5.657   1.859 -1.5548  0.5512  0.3172
22839SOL     OW70238   9.510   4.012   2.833 -0.3856  0.2147  0.0919
22839SOL    HW170239   9.425   3.978   2.859 -0.0421 -0.4916  0.3205
22839SOL    HW270240   9.552   4.037   2.916 -1.1096  2.3894 -0.1492
22840SOL     OW70241   2.840   4.686   0.336  0.0826  0.3257  0.8857
22840SOL    HW170242   2.762   4.630   0.345  1.4729 -1.8894  0.0656
22840SOL    HW270243   2.819   4.765   0.386 -3.3165  0.5632 -0.6884
22841SOL     OW70244   9.004   7.810   0.834  0.5319  0.2208 -0.2177
22841SOL    HW170245   9.096   7.785   0.843  0.3391 -1.0631 -1.5087
22841SOL    HW270246   8.965   7.742   0.780 -1.5713 -0.1068  1.5683
22842SOL     OW70247   0.666   1.135   6.099  0.2321  0.2209  0.0440
22842SOL    HW170248   0.642   1.141   6.007  1.7265 -0.3611 -0.4105
22842SOL    HW270249   0.583   1.144   6.146 -0.6524 -0.2267 -1.3704
22843SOL     OW70250   7.924   6.144   3.017  0.6667  0.1522  0.4399
22843SOL    HW170251   7.840   6.122   3.057  0.4353 -1.4362 -0.8327
22843SOL    HW270252   7.961   6.211   3.075 -0.7211 -0.3077  1.9391
22844SOL     OW70253   8.521   7.443   9.337 -0.1504  0.0750  0.2854
22844SOL    HW170254   8.556   7.521   9.381 -1.2447  1.1814 -0.7370
22844SOL    HW270255   8.435   7.430   9.377  0.6174 -1.5862  1.5459
22845SOL     OW70256   3.998   3.413   4.269  0.1558  0.5635 -0.0027
22845SOL    HW170257   3.932   3.454   4.213 -1.0775 -0.2498  0.8040
22845SOL    HW270258   3.984   3.319   4.258  2.8110  0.2391 -1.6738
22846SOL     OW70259   7.899   3.648   2.805  0.0998  0.8840 -0.0879
22846SOL    HW170260   7.907   3.744   2.808  0.2444  0.8685  0.0409
22846SOL    HW270261   7.926   3.619   2.892 -2.1678  0.8760  0.6928
22847SOL     OW70262   8.656   1.194   6.055 -0.4064 -0.3475  0.2068
22847SOL    HW170263   8.680   1.287   6.057 -2.0332  0.2056 -1.8222
22847SOL    HW270264   8.692   1.162   5.972 -1.7225 -0.9195 -0.1752
22848SOL     OW70265   2.524   0.790   3.615  0.8214 -0.3045  0.1413
22848SOL    HW170266   2.522   0.871   3.667 -1.9610  0.1492 -0.5331
22848SOL    HW270267   2.545   0.722   3.678 -0.6841  0.4731  1.5473
22849SOL     OW70268   7.297   3.751   5.563  0.4168  0.0458 -0.2778
22849SOL    HW170269   7.343   3.804   5.629 -0.0974 -0.9875  0.9403
22849SOL    HW270270   7.363   3.689   5.532  0.4185 -0.0336 -0.1130
22850SOL     OW70271   1.650   9.510   2.451  0.0511 -0.0507  0.0332
22850SOL    HW170272   1.714   9.559   2.398 -1.6394  1.5491 -0.6475
22850SOL    HW270273   1.634   9.567   2.527  0.9114 -1.3875  1.2638
22851SOL     OW70274   4.786   4.021   6.460  0.3101 -0.1780 -0.2779
22851SOL    HW170275   4.824   4.057   6.380  1.7880 -0.5393  0.2083
22851SOL    HW270276   4.692   4.036   6.452  0.6097  1.3253 -1.2854
22852SOL     OW70277   2.341   2.115   5.565  0.2612  0.0373  1.2447
22852SOL    HW170278   2.305   2.045   5.511 -0.5581  1.4398 -0.0941
22852SOL    HW270279   2.434   2.094   5.573  0.0963 -1.0132  0.5923
22853SOL     OW70280   3.423   7.320   8.566  0.6661  0.4376  0.0066
22853SOL    HW170281   3.424   7.302   8.660 -3.5399 -0.4793  0.0574
22853SOL    HW270282   3.342   7.369   8.551  0.3434 -0.8197 -3.3225
22854SOL     OW70283   7.647   2.070   7.180  0.6874  0.1734 -0.4197
22854SOL    HW170284   7.604   1.984   7.173 -0.0245  0.5455 -0.6999
22854SOL    HW270285   7.595   2.127   7.125  0.4858  1.0522  0.6444
22855SOL     OW70286   9.475   6.167   5.563  0.2646  0.3337 -0.3179
22855SOL    HW170287   9.510   6.236   5.619  2.0773  0.8561 -1.9420
22855SOL    HW270288   9.532   6.092   5.579 -0.6067 -0.2293  0.1693
22856SOL     OW70289   2.255   1.755   4.005 -0.5563 -0.2952  0.2409
22856SOL    HW170290   2.239   1.717   4.092 -0.0593  0.1194  0.5203
22856SOL    HW270291   2.335   1.807   4.016 -1.0361  0.5557 -0.2219
22857SOL     OW70292   6.737   1.161   0.091  0.1107  0.0155  0.5687
22857SOL    HW170293   6.676   1.203   0.152  1.2135  0.6217  1.2918
22857SOL    HW270294   6.694   1.168   0.006 -0.8895  0.2923  1.0783
22858SOL     OW70295   5.419   4.500   2.573  0.0350 -0.4041  0.1477
22858SOL    HW170296   5.426   4.534   2.484 -1.1682  0.0475  0.1991
22858SOL    HW270297   5.480   4.553   2.624  1.0507 -0.9460 -0.4636
22859SOL     OW70298   6.614   6.363   5.379 -0.2560 -0.4124 -0.5998
22859SOL    HW170299   6.596   6.324   5.465  0.2829  1.1523  0.2684
22859SOL    HW270300   6.583   6.454   5.387  1.0170  0.1467 -1.6016
22860SOL     OW70301   7.252   6.866   0.020 -0.4014 -0.1864 -0.6684
22860SOL    HW170302   7.213   6.788   0.060  0.8029 -0.0966  0.7817
22860SOL    HW270303   7.188   6.895  -0.045 -3.1540  0.4616  2.1275
22861SOL     OW70304   5.789   8.141   6.845  0.9621  0.1342  0.8282
22861SOL    HW170305   5.807   8.216   6.789  0.4212 -0.1366  0.2748
22861SOL    HW270306   5.836   8.159   6.926  0.6329  1.1900  0.7981
22862SOL     OW70307   7.434   6.727   5.379 -0.2050  0.1548  0.6069
22862SOL    HW170308   7.437   6.784   5.302  2.0984 -1.8706 -0.9804
22862SOL    HW270309   7.375   6.657   5.354 -1.0943  0.5457  1.5606
22863SOL     OW70310   9.411   5.557   8.985 -0.6567  0.1674  0.1004
22863SOL    HW170311   9.406   5.585   8.893 -2.2675  1.4736  0.5353
22863SOL    HW270312   9.407   5.462   8.981 -2.5199  0.2372 -1.1287
22864SOL     OW70313   6.218   8.954   5.953  0.0314 -0.1711 -0.1250
22864SOL    HW170314   6.215   8.982   5.862  0.5988  0.7142  0.1220
22864SOL    HW270315   6.186   8.863   5.951 -2.6107  0.6827 -0.8267
22865SOL     OW70316   5.859   2.671   4.641  0.1639 -0.2948  1.2804
22865SOL    HW170317   5.862   2.767   4.634 -1.4588 -0.2436  1.0317
22865SOL    HW270318   5.846   2.654   4.734 -2.0563 -0.1535  1.0431
22866SOL     OW70319   7.780   3.838   1.986 -0.1229 -0.6336  0.2649
22866SOL    HW170320   7.821   3.910   1.938 -0.4474 -0.4186  0.3063
22866SOL    HW270321   7.689   3.866   1.999  0.0508 -0.5127  1.3530
22867SOL     OW70322   7.776   6.979   8.583  0.0153 -0.1629  0.4198
22867SOL    HW170323   7.709   7.044   8.559  0.5005 -0.1469 -1.0159
22867SOL    HW270324   7.852   7.031   8.608 -0.8444 -0.1458  3.4075
22868SOL     OW70325   3.375   8.544   8.257 -0.7485  0.0698 -0.2900
22868SOL    HW170326   3.414   8.535   8.170 -0.8975  0.6234 -0.4174
22868SOL    HW270327   3.417   8.621   8.295 -1.3660  0.3862 -0.2428
22869SOL     OW70328   9.167   6.961   4.096 -0.1523 -0.2403 -0.1859
22869SOL    HW170329   9.246   6.976   4.148  0.6008  0.9092 -1.6053
22869SOL    HW270330   9.106   6.920   4.158  1.2894 -0.5218  1.1293
22870SOL     OW70331   4.299   3.509   3.959  0.1610  0.0949  0.3819
22870SOL    HW170332   4.297   3.600   3.930  1.2618  0.3272  0.9824
22870SOL    HW270333   4.355   3.464   3.896 -0.4581 -0.1978  0.0300
22871SOL     OW70334   7.369   9.345   0.311 -0.2602  0.7503  0.7172
22871SOL    HW170335   7.303   9.363   0.379 -0.5069  2.3998  0.0946
22871SOL    HW270336   7.383   9.430   0.269  1.2558  0.1385 -0.0844
22872SOL     OW70337   8.717   3.722   1.442 -0.2943  0.0396  0.4004
22872SOL    HW170338   8.641   3.667   1.424 -1.1694  1.3066  0.1668
22872SOL    HW270339   8.778   3.702   1.370 -2.0908  2.0172 -1.8207
22873SOL     OW70340   1.480   1.209   9.225 -0.3730  0.1848 -0.4045
22873SOL    HW170341   1.519   1.285   9.269 -3.5608  1.5339  0.3789
22873SOL    HW270342   1.433   1.163   9.294  0.1130 -1.6109 -1.2148
22874SOL     OW70343   7.811   9.175   9.685 -0.3710 -0.1533  0.1604
22874SOL    HW170344   7.753   9.107   9.720  1.0261  0.9446  5.5075
22874SOL    HW270345   7.894   9.129   9.668 -0.1235 -0.2512  1.5196
22875SOL     OW70346   9.413   5.904   5.267  0.8865 -0.3235 -0.5975
22875SOL    HW170347   9.443   5.883   5.178  2.6894 -1.2493  0.1714
22875SOL    HW270348   9.464   5.980   5.292 -1.1177  1.2530 -1.0590
22876SOL     OW70349   6.209   0.744   1.647 -0.4705  0.0939  0.0300
22876SOL    HW170350   6.140   0.734   1.713 -2.9862 -2.6519 -2.6624
22876SOL    HW270351   6.236   0.654   1.627  2.2854  0.9929 -0.7283
22877SOL     OW70352   7.117   8.950   8.570 -0.1422  0.1425  0.2893
22877SOL    HW170353   7.054   8.939   8.499  0.4428 -0.3610 -0.1609
22877SOL    HW270354   7.159   9.034   8.551 -2.1420  1.5916  1.7828
22878SOL     OW70355   3.135   8.324   7.393  0.0339  0.8083  0.0266
22878SOL    HW170356   3.140   8.403   7.339 -0.0338  1.4405  0.9068
22878SOL    HW270357   3.213   8.274   7.371 -0.2927  0.7569 -1.0765
22879SOL     OW70358   8.523   9.272   0.546 -0.4239 -0.5719 -0.6063
22879SOL    HW170359   8.566   9.189   0.525 -0.8222 -0.9849  0.1648
22879SOL    HW270360   8.460   9.250   0.614  0.0270  0.5025  0.1942
22880SOL     OW70361   4.090   3.017   0.710 -0.0070  0.5255 -0.2070
22880SOL    HW170362   4.078   3.017   0.805  0.5254  1.5339 -0.1205
22880SOL    HW270363   4.152   3.088   0.694 -0.9350  1.1017 -1.4131
22881SOL     OW70364   1.029   1.416   4.846 -0.1934  0.0537  0.1945
22881SOL    HW170365   1.057   1.326   4.828 -0.7270 -0.3425  1.2311
22881SOL    HW270366   0.934   1.415   4.833 -0.1775  0.5132  0.0269
22882SOL     OW70367   4.451   9.659   8.149 -0.7058  0.0262 -0.5661
22882SOL    HW170368   4.529   9.700   8.187 -1.3877  1.9518 -1.1150
22882SOL    HW270369   4.420   9.722   8.084 -2.3578 -0.9832 -0.8169
22883SOL     OW70370   4.288   7.688   1.565 -0.4729 -0.1556 -0.4342
22883SOL    HW170371   4.278   7.768   1.615 -0.7973  0.4138 -1.3870
22883SOL    HW270372   4.375   7.655   1.589 -0.5460  0.2026  0.3386
22884SOL     OW70373   3.902   4.190   0.295 -0.6311 -0.8955 -0.0495
22884SOL    HW170374   3.973   4.132   0.268  2.1446  2.7181 -1.3037
22884SOL    HW270375   3.911   4.195   0.391 -0.6682 -2.1499  0.0375
22885SOL     OW70376   2.818   2.930   0.848 -0.4262 -0.0560  0.4360
22885SOL    HW170377   2.745   2.869   0.853 -1.4101  0.9624 -0.9826
22885SOL    HW270378   2.836   2.939   0.755 -0.3485  1.8442  0.5987
22886SOL     OW70379   1.356   6.369   3.513  0.9794 -0.7070  0.3478
22886SOL    HW170380   1.331   6.460   3.497  3.2581 -0.2756 -1.0439
22886SOL    HW270381   1.340   6.357   3.607  0.3391  1.0101  0.4974
22887SOL     OW70382   6.597   8.758   1.165 -0.2497  0.6095  1.0620
22887SOL    HW170383   6.581   8.665   1.178 -1.5397  0.6921  0.2599
22887SOL    HW270384   6.512   8.800   1.179  0.2602  1.6485  1.1974
22888SOL     OW70385   8.602   0.145   4.073  0.3903  0.1303 -0.1924
22888SOL    HW170386   8.621   0.175   4.162  0.4949 -1.0027  0.1904
22888SOL    HW270387   8.687   0.119   4.038  0.1427 -1.0461  0.0210
22889SOL     OW70388   6.295   3.771   0.596  0.6382 -0.0941 -0.0132
22889SOL    HW170389   6.342   3.780   0.513  0.2836 -2.1523 -0.4797
22889SOL    HW270390   6.341   3.702   0.642 -0.4458 -0.4252  0.5946
22890SOL     OW70391   1.459   3.905   9.484 -0.0698 -0.4356 -0.3368
22890SOL    HW170392   1.486   3.965   9.554  1.7190  2.8536 -3.5423
22890SOL    HW270393   1.541   3.866   9.454 -0.7438 -1.4178 -0.9399
22891SOL     OW70394   9.317   0.246   9.551  0.0303 -0.1792  0.0911
22891SOL    HW170395   9.331   0.338   9.527 -1.0134  0.0382  0.2462
22891SOL    HW270396   9.240   0.220   9.501 -0.9042 -0.3494  1.5543
22892SOL     OW70397   7.122   9.548   8.379 -0.3238 -0.0137  0.3733
22892SOL    HW170398   7.186   9.527   8.448  0.7568  0.1374 -0.5502
22892SOL    HW270399   7.172   9.542   8.298 -1.1691  1.3742 -0.2855
22893SOL     OW70400   3.316   2.855   6.014 -0.1243  0.4927 -0.0659
22893SOL    HW170401   3.317   2.871   5.920 -0.4603 -1.9485 -0.5442
22893SOL    HW270402   3.390   2.905   6.048  1.4923 -0.4820 -1.9877
22894SOL     OW70403   2.820   6.835   5.957 -0.2681 -0.6743  0.4736
22894SOL    HW170404   2.843   6.928   5.970 -2.1392 -0.1802  0.4680
22894SOL    HW270405   2.808   6.826   5.863  1.5525 -1.3732  0.2659
22895SOL     OW70406   9.102   1.557   7.229  0.7522  0.9134 -0.7423
22895SOL    HW170407   9.127   1.649   7.230 -0.2696  1.2300 -1.8827
22895SOL    HW270408   9.064   1.543   7.142 -0.0836 -0.3221 -0.2192
22896SOL     OW70409   2.907   4.452   2.023  0.2332 -0.0213  0.2062
22896SOL    HW170410   2.826   4.435   1.976 -0.1660 -1.0999  1.2165
22896SOL    HW270411   2.936   4.366   2.053  0.3707  0.6051  2.0358
22897SOL     OW70412   4.797   1.904   8.388  0.0978  0.0864 -0.4529
22897SOL    HW170413   4.826   1.826   8.341  0.4461 -0.9691  1.4146
22897SOL    HW270414   4.702   1.896   8.392  0.1063 -0.0649 -0.5592
22898SOL     OW70415   3.501   4.916   3.840 -0.6201 -0.3570 -0.3748
22898SOL    HW170416   3.482   4.862   3.764  0.7353 -0.3190 -0.7617
22898SOL    HW270417   3.553   4.860   3.898 -2.1187 -0.5820  0.8235
22899SOL     OW70418   3.254   4.692   8.430 -0.0611 -0.1819 -0.1618
22899SOL    HW170419   3.219   4.661   8.347  1.5580  0.6196 -1.1759
22899SOL    HW270420   3.176   4.708   8.484 -1.0630 -2.9823 -0.6310
22900SOL     OW70421   3.779   8.487   5.629  0.3905 -0.1253  0.0822
22900SOL    HW170422   3.802   8.492   5.721  1.0781  0.3363 -0.1088
22900SOL    HW270423   3.830   8.414   5.594  0.8007  0.2512 -0.1179
22901SOL     OW70424   6.977   7.184   5.212 -0.4327  0.0605  0.0275
22901SOL    HW170425   6.935   7.173   5.298 -0.8671  0.1117 -0.1754
22901SOL    HW270426   6.953   7.273   5.185  1.1909  0.7184  0.6503
22902SOL     OW70427   5.912   2.142   6.242  0.3034  0.2190  0.2776
22902SOL    HW170428   5.818   2.128   6.232 -0.0608  1.1992  1.9883
22902SOL    HW270429   5.934   2.207   6.175  0.1126 -1.1161 -1.1575
22903SOL     OW70430   4.972   1.773   7.718  0.3742 -0.1265  0.4879
22903SOL    HW170431   4.970   1.853   7.770  0.9722 -0.5051  1.1099
22903SOL    HW270432   4.880   1.754   7.700  0.2527  1.1634 -0.4161
22904SOL     OW70433   1.767   7.257   3.515 -0.4451 -0.2193  0.0255
22904SOL    HW170434   1.753   7.250   3.421 -1.3422 -1.2195  0.2161
22904SOL    HW270435   1.723   7.180   3.552 -1.6086  1.0411  1.4007
22905SOL     OW70436   2.474   2.541   4.765  0.2451  0.1519 -0.3537
22905SOL    HW170437   2.524   2.462   4.747  0.0872 -0.2410  0.8351
22905SOL    HW270438   2.400   2.538   4.704 -0.9448 -1.7528  1.0611
22906SOL     OW70439   3.440   2.185   0.116 -0.3555  0.6853 -0.7641
22906SOL    HW170440   3.427   2.138   0.034  2.0220  0.4691 -1.1117
22906SOL    HW270441   3.530   2.220   0.109 -0.0297  0.5255  1.7898
22907SOL     OW70442   0.675   4.596   4.635 -0.2870  0.2706  0.4150
22907SOL    HW170443   0.583   4.621   4.645 -0.2154  1.1748 -0.9305
22907SOL    HW270444   0.723   4.676   4.656  0.0321  0.7715 -1.9647
22908SOL     OW70445   3.107   0.055   1.150  0.3406  0.1152  0.3455
22908SOL    HW170446   3.072   0.062   1.239  0.9578 -0.8415  0.6783
22908SOL    HW270447   3.098  -0.038   1.128 -0.3021  0.4305 -0.8092
22909SOL     OW70448   8.156   3.577   6.013  0.2384  0.4400 -0.0092
22909SOL    HW170449   8.111   3.654   6.045  0.5266  0.7493 -0.3396
22909SOL    HW270450   8.229   3.564   6.074 -1.2719 -1.1013  1.5841
22910SOL     OW70451   3.969   5.160   8.094 -0.3339  0.2883 -0.0495
22910SOL    HW170452   3.926   5.237   8.133 -1.3135 -0.0473 -0.4342
22910SOL    HW270453   4.055   5.157   8.136 -0.5463  1.1922  0.4835
22911SOL     OW70454   4.089   1.092   4.721 -0.2936 -0.3581  0.5115
22911SOL    HW170455   4.013   1.100   4.779  0.4291  2.3658  1.2467
22911SOL    HW270456   4.164   1.113   4.777  0.6930 -0.0931 -0.8611
22912SOL     OW70457   4.528   5.194   8.084 -0.0967  0.0769  0.5833
22912SOL    HW170458   4.567   5.145   8.012  2.1433  1.6609  0.6099
22912SOL    HW270459   4.569   5.158   8.163 -1.1261 -0.3884  0.9163
22913SOL     OW70460   1.732   5.030   1.286 -0.1689  0.0253 -0.8836
22913SOL    HW170461   1.685   5.112   1.297  0.9110  0.5906 -0.3516
22913SOL    HW270462   1.789   5.045   1.211 -0.4325 -0.4761 -1.1950
22914SOL     OW70463   5.165   9.221   4.042 -0.3813 -0.3398  0.1002
22914SOL    HW170464   5.127   9.231   3.955 -2.0770  0.0889  0.8442
22914SOL    HW270465   5.222   9.298   4.052 -0.7792  0.0205 -0.3503
22915SOL     OW70466   1.908   2.249   5.066  0.5301  0.1746  0.4840
22915SOL    HW170467   1.872   2.279   5.149 -0.3308 -0.4511  0.3508
22915SOL    HW270468   2.001   2.271   5.071  0.1505  1.8642  0.8179
22916SOL     OW70469   0.873   8.024   5.451  0.6076 -0.0930  0.4742
22916SOL    HW170470   0.835   8.012   5.538  0.7413 -1.2371  0.3980
22916SOL    HW270471   0.797   8.031   5.393  0.5014 -0.9497  0.4965
22917SOL     OW70472   6.147   9.371   5.164  0.2866 -0.1014  0.0428
22917SOL    HW170473   6.223   9.316   5.146 -0.3130 -1.2975  1.0049
22917SOL    HW270474   6.072   9.318   5.136 -0.2402  0.7785 -0.2553
22918SOL     OW70475   8.854   4.474   6.506 -0.1546 -0.3539 -0.5027
22918SOL    HW170476   8.886   4.523   6.430  0.3174 -1.1247 -0.8177
22918SOL    HW270477   8.898   4.389   6.499 -0.7610 -0.7275  0.1701
22919SOL     OW70478   9.052   8.622   7.800 -0.4419  0.2554  0.9085
22919SOL    HW170479   9.123   8.680   7.826  0.1544 -0.0110 -0.1111
22919SOL    HW270480   8.972   8.671   7.821  0.0408  0.9128  1.2375
22920SOL     OW70481   6.036   4.762   4.105  0.3732 -0.1240 -0.0859
22920SOL    HW170482   6.058   4.820   4.032  0.9833  1.0651  1.0109
22920SOL    HW270483   6.058   4.812   4.184 -1.1592 -1.0179  0.9609
22921SOL     OW70484   1.801   8.569   7.687 -0.3793  0.8512 -0.5544
22921SOL    HW170485   1.755   8.559   7.771 -1.6613  0.7971 -1.2398
22921SOL    HW270486   1.880   8.619   7.709  0.5415 -1.1487  1.0786
22922SOL     OW70487   3.792   6.849   8.194  0.3113 -0.0954 -0.0478
22922SOL    HW170488   3.762   6.798   8.118  0.7991 -0.3808 -0.0528
22922SOL    HW270489   3.712   6.866   8.244  0.0097 -0.0514 -0.5381
22923SOL     OW70490   8.721   0.131   3.409 -0.1873 -0.0795 -0.2832
22923SOL    HW170491   8.805   0.126   3.361 -0.6077 -0.1641 -1.0326
22923SOL    HW270492   8.678   0.208   3.371 -0.2118  0.3083  0.5085
22924SOL     OW70493   6.392   1.015   9.260  0.1461  0.3839 -0.1681
22924SOL    HW170494   6.394   1.016   9.355 -1.8930 -0.9720 -0.0415
22924SOL    HW270495   6.397   0.922   9.236  1.4494  0.7359 -1.4566
22925SOL     OW70496   6.440   2.533   7.412  0.2441  0.2100 -0.3081
22925SOL    HW170497   6.437   2.438   7.426 -0.7727  0.1217 -0.9825
22925SOL    HW270498   6.496   2.566   7.482  3.3067 -1.2044 -1.9138
22926SOL     OW70499   0.891   7.374   4.689  0.3746 -0.2376 -0.2774
22926SOL    HW170500   0.816   7.380   4.748  1.8512 -1.8379  1.8924
22926SOL    HW270501   0.949   7.445   4.714 -0.3063  0.9654 -1.9175
22927SOL     OW70502   5.028   6.563   8.366 -0.1902  0.2994 -0.2552
22927SOL    HW170503   5.037   6.588   8.458 -0.3509  0.3960 -0.2659
22927SOL    HW270504   4.956   6.501   8.365 -0.9223  1.1333 -0.4688
22928SOL     OW70505   1.952   4.106   4.957  0.0410  0.1924 -0.0124
22928SOL    HW170506   1.865   4.110   4.995 -0.4790  0.3247 -1.1792
22928SOL    HW270507   1.942   4.141   4.869  1.9616  3.5870  0.9205
22929SOL     OW70508   8.983   1.030   3.999 -0.0351 -0.2430 -0.8134
22929SOL    HW170509   8.992   1.032   4.095 -0.3189  0.9437 -0.7954
22929SOL    HW270510   8.933   0.951   3.982  2.1621 -1.8766 -0.2018
22930SOL     OW70511   4.527   1.744   3.530 -0.0569  0.5196  0.2258
22930SOL    HW170512   4.577   1.664   3.542  0.7426  0.9045 -0.4689
22930SOL    HW270513   4.465   1.724   3.461  0.4752  0.6445 -0.2926
22931SOL     OW70514   9.650   9.644   5.267  0.1703 -0.4022  0.0559
22931SOL    HW170515   9.730   9.687   5.296 -0.2117 -0.1316  0.7205
22931SOL    HW270516   9.680   9.574   5.208  0.8353  0.2879 -0.4335
22932SOL     OW70517   6.836   1.875   2.599  0.7432 -0.1335  0.1306
22932SOL    HW170518   6.783   1.842   2.527  0.2741 -0.3928  0.5926
22932SOL    HW270519   6.786   1.948   2.635  0.9514 -0.0375  0.2308
22933SOL     OW70520   4.339   0.369   9.147 -0.4876 -0.5561  0.0885
22933SOL    HW170521   4.314   0.454   9.112 -0.5051 -0.3508  0.5862
22933SOL    HW270522   4.350   0.384   9.241 -0.7823 -1.1643  0.2307
22934SOL     OW70523   5.533   5.709   8.954  0.4310  0.2049  0.2627
22934SOL    HW170524   5.459   5.676   8.902  0.2072 -0.4552  0.9736
22934SOL    HW270525   5.519   5.803   8.960  1.0218  0.4582 -1.7369
22935SOL     OW70526   6.360   2.795   2.124  0.5612 -0.3084  0.1049
22935SOL    HW170527   6.359   2.724   2.188 -1.8391  0.9067  1.5353
22935SOL    HW270528   6.306   2.762   2.052  1.3055 -0.7486 -0.2722
22936SOL     OW70529   8.796   8.045   6.311  0.1610 -0.4950 -0.3768
22936SOL    HW170530   8.769   8.117   6.255  0.3720 -1.4324 -1.7486
22936SOL    HW270531   8.728   7.978   6.298 -0.7057 -0.1351  1.8211
22937SOL     OW70532   1.238   8.060   8.770  0.1307 -0.1118 -0.2107
22937SOL    HW170533   1.270   8.136   8.818 -1.3901 -0.6342  1.7556
22937SOL    HW270534   1.201   8.097   8.690 -0.2886  1.1938  0.5560
22938SOL     OW70535   4.815   9.069   1.806 -0.2297  0.2740  0.4016
22938SOL    HW170536   4.858   8.984   1.812 -1.0530 -0.0520  2.4399
22938SOL    HW270537   4.772   9.067   1.720  0.3468 -1.0685  0.1124
22939SOL     OW70538   7.080   4.020   5.072 -0.0658  0.1169  0.0326
22939SOL    HW170539   7.146   3.984   5.132 -0.3784 -2.5187 -1.0657
22939SOL    HW270540   7.097   4.114   5.071  1.5229 -0.0618  2.3178
22940SOL     OW70541   3.235   7.056   8.806  0.5550  0.3015 -0.3080
22940SOL    HW170542   3.262   7.147   8.819 -0.0065  0.2227  1.5588
22940SOL    HW270543   3.301   7.005   8.852 -0.0734 -0.1447  0.1032
22941SOL     OW70544   8.248   7.997   4.224  0.4596 -0.3851 -0.1098
22941SOL    HW170545   8.267   7.950   4.305 -0.1246 -3.1265 -1.4286
22941SOL    HW270546   8.333   8.030   4.194  0.7714  0.0936  1.2599
22942SOL     OW70547   8.477   1.039   2.372  0.2149  0.1328 -0.0473
22942SOL    HW170548   8.460   1.032   2.278 -1.5406 -2.1311  0.3438
22942SOL    HW270549   8.441   1.124   2.397 -1.8493 -0.3914 -1.0100
22943SOL     OW70550   9.131   2.122   7.333  0.2807 -0.0364  0.5960
22943SOL    HW170551   9.149   2.093   7.422  0.9845  0.2211  0.5455
22943SOL    HW270552   9.188   2.198   7.320 -1.1149  1.0488  0.5409
22944SOL     OW70553   2.717   9.086   8.287  0.5605  0.4744 -0.1102
22944SOL    HW170554   2.773   9.045   8.221  2.0146 -0.4585  1.6117
22944SOL    HW270555   2.776   9.109   8.358 -0.9853  1.1777  1.0177
22945SOL     OW70556   2.611   0.184   4.810 -0.0796 -0.6012 -0.7565
22945SOL    HW170557   2.599   0.275   4.836  2.4270  0.1361 -1.8881
22945SOL    HW270558   2.564   0.175   4.727  1.3186  0.2964 -1.6892
22946SOL     OW70559   7.953   2.469   6.982 -0.3852 -0.1244 -0.4445
22946SOL    HW170560   7.937   2.501   7.071 -0.3149 -1.1845 -0.0332
22946SOL    HW270561   8.014   2.532   6.945 -0.4819  0.3814  0.2321
22947SOL     OW70562   4.684   0.648   3.027 -0.3824 -0.5955  0.7657
22947SOL    HW170563   4.669   0.584   2.958 -1.1265  0.5171 -0.1556
22947SOL    HW270564   4.607   0.642   3.084 -0.1139 -1.0020  1.0935
22948SOL     OW70565   4.565   6.807   3.050 -0.0081 -0.3423 -0.6392
22948SOL    HW170566   4.503   6.739   3.027 -0.4236 -0.3048  0.3195
22948SOL    HW270567   4.598   6.781   3.136  0.8877 -0.0691 -0.8879
22949SOL     OW70568   1.979   3.747   6.508 -0.3880  0.0368 -0.0334
22949SOL    HW170569   1.996   3.839   6.529  2.0098 -0.2739 -0.3366
22949SOL    HW270570   1.983   3.702   6.593 -0.8316  0.0829  0.0189
22950SOL     OW70571   8.938   0.421   2.275  0.0281 -0.5468  0.0294
22950SOL    HW170572   8.845   0.411   2.256 -0.3646  0.4950  1.2026
22950SOL    HW270573   8.982   0.359   2.218 -1.5534 -2.9477  1.2885
22951SOL     OW70574   4.949   8.914   0.179  0.0865  0.0282  0.0418
22951SOL    HW170575   4.929   9.004   0.207  1.6992  0.5368 -0.3183
22951SOL    HW270576   5.001   8.879   0.251 -0.2957 -0.5387  0.0464
22952SOL     OW70577   6.075   7.675   4.071  0.0684  0.1223 -1.0085
22952SOL    HW170578   6.104   7.585   4.086 -0.0392  0.4067  1.1392
22952SOL    HW270579   6.156   7.723   4.052  0.4531  0.0267  0.3155
22953SOL     OW70580   8.985   2.117   8.116  0.1344 -0.2340  0.0539
22953SOL    HW170581   9.021   2.081   8.034 -0.6681  0.0484 -0.4271
22953SOL    HW270582   9.063   2.146   8.165  0.6199 -0.3379 -0.6371
22954SOL     OW70583   4.817   9.423   5.462 -0.0713 -0.2851 -0.1868
22954SOL    HW170584   4.740   9.471   5.493  0.1467 -1.4076  2.3645
22954SOL    HW270585   4.786   9.332   5.454 -0.0845 -0.1014 -3.4351
22955SOL     OW70586   8.480   7.538   7.415 -0.5174 -0.0972 -0.3818
22955SOL    HW170587   8.495   7.540   7.510  0.3449  0.0061 -0.5122
22955SOL    HW270588   8.501   7.627   7.386 -0.3113 -0.2593 -0.7342
22956SOL     OW70589   5.352   8.815   2.886  0.1876 -0.5020  0.1353
22956SOL    HW170590   5.445   8.810   2.864  0.3906  1.0091  0.4911
22956SOL    HW270591   5.316   8.879   2.824 -0.2429  0.1688  1.0462
22957SOL     OW70592   8.477   3.635   5.218  0.3222  0.5733  0.8360
22957SOL    HW170593   8.456   3.559   5.164  0.3639  0.9735  0.2517
22957SOL    HW270594   8.561   3.666   5.185  1.0199  0.0240  2.0194
22958SOL     OW70595   7.827   3.456   7.683  0.0900 -0.3114 -0.6370
22958SOL    HW170596   7.797   3.514   7.753 -2.0285 -1.0179 -0.8794
22958SOL    HW270597   7.922   3.463   7.685  0.0109  0.9553  1.2058
22959SOL     OW70598   6.418   3.974   2.990  0.1074  0.0049 -0.0319
22959SOL    HW170599   6.480   3.913   3.030  0.3177 -1.0801 -1.8933
22959SOL    HW270600   6.452   4.060   3.014  0.9255 -0.5800  1.0366
22960SOL     OW70601   3.081   6.846   9.613  0.0316  0.8099  0.0704
22960SOL    HW170602   3.012   6.813   9.672 -1.1879 -0.0779 -1.7690
22960SOL    HW270603   3.033   6.880   9.538  1.6043  0.7904 -0.9689
22961SOL     OW70604   8.317   3.474   6.726  0.4257  0.1119  0.0030
22961SOL    HW170605   8.316   3.570   6.716 -1.0640 -0.0899 -2.8491
22961SOL    HW270606   8.358   3.443   6.645 -0.6872 -1.6960  0.1010
22962SOL     OW70607   0.462   9.596   6.372  1.0712  0.3720 -0.4643
22962SOL    HW170608   0.462   9.592   6.276  0.0928 -0.3418 -0.4510
22962SOL    HW270609   0.414   9.676   6.392  0.3020 -0.0558 -0.5693
22963SOL     OW70610   5.722   0.226   3.219 -0.1305 -0.1800 -0.1848
22963SOL    HW170611   5.778   0.178   3.158 -0.0538 -0.3655  0.0285
22963SOL    HW270612   5.641   0.175   3.222  0.2778 -0.8109  0.7284
22964SOL     OW70613   9.184   5.291   7.160 -0.0688  0.1700  0.3847
22964SOL    HW170614   9.099   5.260   7.129  1.0381 -2.2326 -0.4741
22964SOL    HW270615   9.199   5.244   7.242  1.7864 -2.0026 -1.0981
22965SOL     OW70616   6.317   7.882   7.834 -0.3042  0.3049  0.4922
22965SOL    HW170617   6.266   7.843   7.763  0.1366 -1.7562  1.2396
22965SOL    HW270618   6.406   7.889   7.799 -0.3653  0.5686  0.3879
22966SOL     OW70619   3.498   8.154   2.993  0.1254 -0.3696  0.0612
22966SOL    HW170620   3.447   8.082   2.955 -0.7696 -0.0316  0.6023
22966SOL    HW270621   3.525   8.122   3.079 -0.2070 -0.0872  0.2708
22967SOL     OW70622   6.089   3.237   5.485 -0.2322 -0.0490  0.2556
22967SOL    HW170623   6.121   3.273   5.567  2.7095  0.9089 -1.1758
22967SOL    HW270624   6.058   3.313   5.436 -0.6989 -0.4308 -0.0574
22968SOL     OW70625   8.914   7.541   1.664  0.1339  0.2466 -0.1698
22968SOL    HW170626   8.981   7.496   1.716  0.8939  0.0830 -1.2522
22968SOL    HW270627   8.950   7.542   1.575 -1.3345  0.0897 -0.7923
22969SOL     OW70628   7.595   7.218   6.845 -0.2462  0.2504 -0.0215
22969SOL    HW170629   7.584   7.210   6.750  3.3513  1.0282 -0.6675
22969SOL    HW270630   7.539   7.291   6.870  0.1638  1.2639 -1.9239
22970SOL     OW70631   7.027   7.514   2.062  0.1741 -0.4722  0.4619
22970SOL    HW170632   7.087   7.588   2.047  1.0169 -1.4263 -1.2153
22970SOL    HW270633   6.957   7.527   1.998  0.4828 -1.2555 -0.0480
22971SOL     OW70634   3.832   0.393   3.032  0.0997 -0.0800 -0.2212
22971SOL    HW170635   3.896   0.414   3.100  0.5334 -1.4431 -0.1970
22971SOL    HW270636   3.862   0.441   2.955 -0.3907  1.4797  0.5128
22972SOL     OW70637   8.629   7.217   7.186 -0.2892  0.4337  0.4129
22972SOL    HW170638   8.687   7.154   7.142 -2.9509 -0.7966 -1.6092
22972SOL    HW270639   8.627   7.189   7.277 -1.7527 -2.8645 -0.5003
22973SOL     OW70640   0.842   0.791   5.574 -0.0832 -0.1256  0.2795
22973SOL    HW170641   0.780   0.863   5.583 -0.3268 -0.5554  2.7904
22973SOL    HW270642   0.914   0.827   5.522 -1.0903  1.2706 -0.2166
22974SOL     OW70643   8.147   0.676   8.954 -0.0365 -0.0931  0.1572
22974SOL    HW170644   8.059   0.694   8.987 -1.0169 -0.4592 -2.0693
22974SOL    HW270645   8.166   0.751   8.897  0.9712 -0.1866  0.3531
22975SOL     OW70646   7.040   3.140   3.338 -0.0142 -0.4286 -0.1572
22975SOL    HW170647   7.123   3.092   3.334  0.7508  0.8754 -0.7600
22975SOL    HW270648   7.051   3.199   3.413 -1.0553 -1.3415  0.7545
22976SOL     OW70649   3.503   7.363   6.449  0.1842  0.0488  0.3588
22976SOL    HW170650   3.483   7.364   6.355 -0.2953 -0.4612  0.4495
22976SOL    HW270651   3.593   7.332   6.455  0.6121  1.1509  0.0096
22977SOL     OW70652   0.382   3.565   6.004  0.3449  0.3589  1.0344
22977SOL    HW170653   0.313   3.554   6.069  0.9498  1.7669  1.9634
22977SOL    HW270654   0.393   3.478   5.966 -1.0966 -0.1542  1.6985
22978SOL     OW70655   4.599   7.453   0.626 -0.3422 -0.1076  0.6518
22978SOL    HW170656   4.658   7.498   0.565 -0.1175 -3.1689 -1.6424
22978SOL    HW270657   4.528   7.516   0.641  0.6814  1.5759 -1.0488
22979SOL     OW70658   6.092   8.245   5.567 -0.5567  0.9086 -0.1089
22979SOL    HW170659   6.125   8.318   5.515  0.3813  0.5221 -0.0821
22979SOL    HW270660   6.114   8.167   5.516  0.2431  0.5346  0.7781
22980SOL     OW70661   2.174   0.381   2.921 -0.3060  0.5712  0.7291
22980SOL    HW170662   2.187   0.415   3.009 -0.1079  0.9355  0.5643
22980SOL    HW270663   2.245   0.421   2.870  0.1520 -0.3734  0.6032
22981SOL     OW70664   7.554   0.357   9.207 -0.4094 -0.2814 -0.3031
22981SOL    HW170665   7.640   0.399   9.213  0.0708 -1.1238 -1.1436
22981SOL    HW270666   7.503   0.416   9.151 -0.0370 -0.3319 -0.7009
22982SOL     OW70667   4.499   4.965   4.366 -0.5015  0.0895  0.2730
22982SOL    HW170668   4.546   4.992   4.444  1.3209  1.5885 -1.2485
22982SOL    HW270669   4.548   5.004   4.293 -3.2105  0.4044 -1.5409
22983SOL     OW70670   4.106   5.866   9.305  0.5603  0.0178  0.1819
22983SOL    HW170671   4.134   5.834   9.219 -0.8520 -0.1717 -0.2389
22983SOL    HW270672   4.178   5.845   9.363  1.5530  0.1552 -0.9608
22984SOL     OW70673   8.095   2.015   2.238 -0.3072 -0.4524 -0.2566
22984SOL    HW170674   8.004   1.987   2.237 -0.0946 -1.1389 -1.6084
22984SOL    HW270675   8.091   2.110   2.252 -1.1880 -0.5694  0.3161
22985SOL     OW70676   6.201   0.326   1.117  0.4976  0.4616 -0.0293
22985SOL    HW170677   6.140   0.255   1.098  0.9724  0.1366 -0.3763
22985SOL    HW270678   6.146   0.399   1.144 -0.0531  0.2302 -0.5151
22986SOL     OW70679   4.513   8.873   7.081  0.1444 -0.2391 -0.2691
22986SOL    HW170680   4.477   8.791   7.115 -0.2602 -0.8933 -2.1408
22986SOL    HW270681   4.608   8.860   7.082  0.1236 -0.3773  0.2471
22987SOL     OW70682   8.691   4.320   7.637  0.3061 -0.1212 -0.5021
22987SOL    HW170683   8.623   4.326   7.569 -0.7755 -0.4836  0.5145
22987SOL    HW270684   8.682   4.232   7.672  2.2064 -0.6375 -1.2242
22988SOL     OW70685   3.201   5.241   2.381 -0.0220 -0.3191  0.3571
22988SOL    HW170686   3.133   5.258   2.316  1.1522 -0.1293 -0.8716
22988SOL    HW270687   3.278   5.288   2.348  0.6460 -0.3085  1.8351
22989SOL     OW70688   6.213   0.727   4.409  0.2178  0.0456  0.3656
22989SOL    HW170689   6.231   0.729   4.503  1.0676  0.1043  0.2101
22989SOL    HW270690   6.290   0.767   4.369 -0.5505  0.8728 -0.3058
22990SOL     OW70691   8.103   0.801   0.008 -0.2420 -0.2813  0.8954
22990SOL    HW170692   8.107   0.766  -0.081 -2.1079 -1.5184  1.2262
22990SOL    HW270693   8.177   0.861   0.014 -0.0965 -0.1213 -1.5025
22991SOL     OW70694   4.482   3.657   4.733 -0.7228 -0.5770 -0.0649
22991SOL    HW170695   4.453   3.741   4.697 -1.0330 -0.2539  0.8993
22991SOL    HW270696   4.414   3.633   4.795 -0.4683 -1.3857 -0.0913
22992SOL     OW70697   2.694   0.199   0.538  0.0143  0.2097 -0.2501
22992SOL    HW170698   2.655   0.146   0.608 -1.0779 -0.7427 -1.5301
22992SOL    HW270699   2.786   0.174   0.538  0.7677  2.4877  2.8205
22993SOL     OW70700   4.224   9.672   5.980  0.7334 -0.5202 -0.1869
22993SOL    HW170701   4.283   9.736   6.020  0.0137 -0.6019  1.0623
22993SOL    HW270702   4.245   9.590   6.023 -1.2941 -0.2669  1.4236
22994SOL     OW70703   2.418   8.203   1.826  0.2810  0.4847  0.0991
22994SOL    HW170704   2.482   8.254   1.777  0.3853 -0.3233 -0.6380
22994SOL    HW270705   2.467   8.128   1.859 -0.2778 -0.1794 -0.5273
22995SOL     OW70706   0.332   6.877   7.902  0.0810 -0.0411  0.3270
22995SOL    HW170707   0.328   6.849   7.810  2.2412 -0.8770  0.4279
22995SOL    HW270708   0.242   6.872   7.933 -0.8484  1.0480 -1.9539
22996SOL     OW70709   4.650   7.816   8.447  0.1542  0.1732 -0.1993
22996SOL    HW170710   4.669   7.758   8.521 -0.4816 -0.6310 -0.6425
22996SOL    HW270711   4.653   7.904   8.483  0.0664 -0.1963  0.7276
22997SOL     OW70712   8.967   3.485   5.042  0.5185  0.0926  0.3115
22997SOL    HW170713   8.961   3.566   5.092 -1.7575 -0.2289  0.6976
22997SOL    HW270714   8.876   3.456   5.033  0.8009 -0.0858 -3.6833
22998SOL     OW70715   6.040   5.976   7.596 -0.4398 -0.1711 -0.3175
22998SOL    HW170716   6.035   6.071   7.586 -0.6578  0.0476  1.4302
22998SOL    HW270717   6.129   5.959   7.626 -0.8107 -0.3339  0.7421
22999SOL     OW70718   3.920   6.002   4.382  0.6222  0.0619 -0.4734
22999SOL    HW170719   3.983   5.932   4.399  1.7296  0.7558 -1.5640
22999SOL    HW270720   3.973   6.077   4.355 -0.6802  0.5947 -1.7173
23000SOL     OW70721   4.518   0.495   4.155  0.0736  0.0716  0.2056
23000SOL    HW170722   4.506   0.483   4.061  1.8065 -0.2757 -0.0046
23000SOL    HW270723   4.613   0.498   4.167 -0.1289  0.8564  1.8606
23001SOL     OW70724   0.679   6.020   6.375  0.6220 -0.4006  0.2374
23001SOL    HW170725   0.731   6.005   6.296 -1.4202  0.6519 -1.4088
23001SOL    HW270726   0.678   6.116   6.384 -0.1290 -0.4641  0.8743
23002SOL     OW70727   4.673   5.262   9.356  0.1263  0.0140  0.0993
23002SOL    HW170728   4.597   5.206   9.370 -0.2266  0.9189  2.2558
23002SOL    HW270729   4.727   5.215   9.292 -0.1447 -2.7780  1.7581
23003SOL     OW70730   1.930   6.717   8.317  0.4855 -0.1461  1.2458
23003SOL    HW170731   1.992   6.704   8.388  0.0668 -0.9671  1.4632
23003SOL    HW270732   1.912   6.629   8.284  0.9127  0.2403 -0.0856
23004SOL     OW70733   5.681   0.769   7.753  0.2338  0.7351 -0.5145
23004SOL    HW170734   5.739   0.799   7.823 -0.0022 -0.5642  0.2765
23004SOL    HW270735   5.713   0.812   7.674  1.0535  1.5477  0.2430
23005SOL     OW70736   6.914   7.756   0.279  0.1943  0.3200  0.2580
23005SOL    HW170737   6.822   7.776   0.258 -0.0423 -1.4362 -0.4916
23005SOL    HW270738   6.922   7.780   0.372 -1.2223 -0.1072  0.5279
23006SOL     OW70739   0.314   3.995   6.394 -0.1122  0.1283 -0.0795
23006SOL    HW170740   0.305   4.087   6.370  1.8406 -0.0864 -1.9970
23006SOL    HW270741   0.282   3.948   6.317  0.9277 -0.7418  0.0046
23007SOL     OW70742   7.487   1.240   1.817 -0.0697  0.4504 -0.2330
23007SOL    HW170743   7.502   1.206   1.729  1.9057  0.7150 -0.0272
23007SOL    HW270744   7.558   1.302   1.832  0.3397 -0.4578  1.9877
23008SOL     OW70745   9.561   4.609   3.485  0.5603 -0.1156 -0.3030
23008SOL    HW170746   9.648   4.650   3.485 -0.0468  1.2304 -0.7768
23008SOL    HW270747   9.559   4.558   3.404  1.4347 -1.3790  0.4402
23009SOL     OW70748   2.771   3.093   4.676  0.1072  0.0373 -0.2584
23009SOL    HW170749   2.759   3.104   4.771  1.8603 -0.9534  0.1253
23009SOL    HW270750   2.686   3.115   4.638 -0.4024  1.2704  1.4714
23010SOL     OW70751   7.294   1.295   2.468  0.2617  0.1632  0.0153
23010SOL    HW170752   7.235   1.305   2.394 -0.8657  1.5533  1.0604
23010SOL    HW270753   7.285   1.203   2.493 -3.5044  0.8145  1.7163
23011SOL     OW70754   3.590   4.333   3.443  0.3233  0.4539 -0.1633
23011SOL    HW170755   3.496   4.317   3.435  0.1249  1.0516  0.7833
23011SOL    HW270756   3.629   4.284   3.370 -0.3981 -2.7371  1.3942
23012SOL     OW70757   6.511   5.840   4.629 -0.4024 -0.1863 -0.3797
23012SOL    HW170758   6.450   5.805   4.693  1.5822 -2.9485  0.1603
23012SOL    HW270759   6.562   5.906   4.678 -0.7311 -0.2805  0.0935
23013SOL     OW70760   2.334   3.397   8.294 -0.1684 -1.0640  0.4595
23013SOL    HW170761   2.375   3.476   8.259 -0.0910 -1.5820 -0.6845
23013SOL    HW270762   2.374   3.386   8.380  1.0417 -0.7508 -0.0305
23014SOL     OW70763   1.737   0.935   1.451 -0.0983  0.4747 -0.7874
23014SOL    HW170764   1.784   0.943   1.368  0.0466  2.0378 -0.5843
23014SOL    HW270765   1.745   1.021   1.492 -1.7865  0.3077 -0.0065
23015SOL     OW70766   6.799   0.783   3.127  0.3358  0.1115  0.1072
23015SOL    HW170767   6.743   0.734   3.187 -0.9696  0.2822 -0.9196
23015SOL    HW270768   6.742   0.850   3.090  2.0016  2.3404  1.3146
23016SOL     OW70769   5.366   8.756   2.179 -0.2997  0.4436  0.3894
23016SOL    HW170770   5.360   8.815   2.104  0.8427  0.6227  0.4255
23016SOL    HW270771   5.349   8.812   2.255 -3.2376 -0.0610  0.2207
23017SOL     OW70772   2.763   7.155   1.997 -0.2684 -0.1750  0.3874
23017SOL    HW170773   2.700   7.212   2.041 -1.4195 -1.0453 -0.0928
23017SOL    HW270774   2.841   7.209   1.989 -0.2497  0.2758  2.7813
23018SOL     OW70775   4.730   4.700   4.407 -0.1730 -0.6398 -0.2231
23018SOL    HW170776   4.685   4.777   4.372 -2.7523 -1.4468  1.1078
23018SOL    HW270777   4.683   4.625   4.370  0.4290 -1.5455  0.7836
23019SOL     OW70778   9.424   2.512   3.379 -0.1632 -0.3089 -0.4349
23019SOL    HW170779   9.340   2.550   3.404  0.4275 -0.9842  3.1207
23019SOL    HW270780   9.404   2.421   3.357 -0.3230 -0.7053  1.2286
23020SOL     OW70781   4.132   9.268   4.738 -0.2668  0.5075  0.0822
23020SOL    HW170782   4.209   9.325   4.733 -0.3319  0.5356 -0.5798
23020SOL    HW270783   4.086   9.297   4.817 -0.4946  1.6270 -0.4468
23021SOL     OW70784   1.582   6.072   5.460  0.0605  0.3500 -0.3019
23021SOL    HW170785   1.490   6.044   5.465  0.2971 -0.7728 -1.7026
23021SOL    HW270786   1.578   6.158   5.418 -0.3665  0.3318 -0.3047
23022SOL     OW70787   2.603   3.235   5.366  0.3217 -0.3639 -0.0719
23022SOL    HW170788   2.683   3.284   5.379 -0.1740  0.8322 -1.3449
23022SOL    HW270789   2.604   3.169   5.436  0.8412  1.6303  1.9105
23023SOL     OW70790   4.757   9.544   7.795  0.4704 -0.3095  0.3532
23023SOL    HW170791   4.713   9.489   7.859  0.5587 -2.1176 -1.0512
23023SOL    HW270792   4.746   9.498   7.712  1.4889  1.2748 -0.7264
23024SOL     OW70793   5.177   4.557   4.079 -0.2463 -0.2232  0.9268
23024SOL    HW170794   5.144   4.488   4.136  0.9907 -0.5361  1.2912
23024SOL    HW270795   5.242   4.513   4.023  0.1400  0.5197  0.7697
23025SOL     OW70796   8.789   2.021   5.608  0.0020 -0.5437 -0.3188
23025SOL    HW170797   8.698   2.010   5.636  0.3483  1.7333  2.1975
23025SOL    HW270798   8.789   2.106   5.563  0.6527 -1.2385 -1.6678
23026SOL     OW70799   1.904   9.207   7.672  0.1688 -0.0073  0.1847
23026SOL    HW170800   1.902   9.214   7.577 -0.2436  0.7712  0.2487
23026SOL    HW270801   1.842   9.137   7.692 -0.1323  0.1854 -0.0818
23027SOL     OW70802   1.487   7.620   5.532 -0.1787 -0.3717 -0.1439
23027SOL    HW170803   1.446   7.538   5.557  0.4818 -0.3436  1.1120
23027SOL    HW270804   1.511   7.661   5.615  1.6374 -0.0148 -0.7972
23028SOL     OW70805   7.369   6.050   7.241 -0.2315 -0.3806 -0.2969
23028SOL    HW170806   7.285   6.094   7.227  0.8521  1.5060 -1.3664
23028SOL    HW270807   7.364   5.972   7.185 -2.0626 -1.5381  1.3476
23029SOL     OW70808   5.612   0.387   7.504 -0.2398  0.4602 -0.1306
23029SOL    HW170809   5.578   0.298   7.496 -0.8052  0.7229 -0.7163
23029SOL    HW270810   5.587   0.415   7.592 -0.1463  0.0752  0.0190
23030SOL     OW70811   2.906   2.072   7.010  0.2362 -0.1798  0.2819
23030SOL    HW170812   2.927   2.095   7.101  1.0561 -0.2896  0.1257
23030SOL    HW270813   2.991   2.067   6.966 -0.1677  0.1776 -0.5710
23031SOL     OW70814   3.037   3.484   9.298  0.1278  0.5396  0.5686
23031SOL    HW170815   3.078   3.550   9.242  2.1247 -1.1818 -0.1205
23031SOL    HW270816   3.021   3.530   9.381  0.7531  2.0716 -0.1117
23032SOL     OW70817   2.911   9.365   0.698 -0.1696  0.2097  0.1323
23032SOL    HW170818   2.872   9.348   0.613  1.3477  0.4804 -0.6632
23032SOL    HW270819   2.999   9.397   0.678 -0.7511  3.1487  1.7282
23033SOL     OW70820   2.330   2.447   9.544 -0.1366  0.0954  0.4431
23033SOL    HW170821   2.362   2.495   9.620  1.3438  0.7977 -0.5694
23033SOL    HW270822   2.384   2.367   9.541  0.6528  0.6376 -0.5103
23034SOL     OW70823   3.538   1.852   7.653 -0.2908  0.3174 -0.2542
23034SOL    HW170824   3.493   1.860   7.737 -0.8884  0.2950 -0.5594
23034SOL    HW270825   3.617   1.802   7.672 -0.7331 -0.2379  0.1918
23035SOL     OW70826   1.617   3.868   4.573 -0.4062  0.3014 -0.4102
23035SOL    HW170827   1.554   3.939   4.559  0.9083  1.6981  0.4035
23035SOL    HW270828   1.588   3.826   4.654 -0.2260  1.0359  0.0445
23036SOL     OW70829   6.913   2.533   4.591 -0.2458 -0.1953  0.2561
23036SOL    HW170830   6.850   2.517   4.521 -1.3866 -0.1086  1.2439
23036SOL    HW270831   6.955   2.448   4.605  1.0386  0.0848 -1.4659
23037SOL     OW70832   9.658   9.291   5.925 -0.1741  0.0404 -0.3615
23037SOL    HW170833   9.611   9.286   5.841  0.3516 -0.0936 -0.6489
23037SOL    HW270834   9.721   9.220   5.921  0.5271  0.6485 -0.2638
23038SOL     OW70835   0.238   1.515   8.887 -0.4272  0.1766 -0.4643
23038SOL    HW170836   0.179   1.563   8.830 -0.0771 -1.1156 -1.9867
23038SOL    HW270837   0.296   1.468   8.828  2.4648  1.7095  0.9482
23039SOL     OW70838   2.203   9.158   2.862  0.8502  0.4038 -0.1164
23039SOL    HW170839   2.230   9.089   2.923 -2.6778 -1.8642 -0.7958
23039SOL    HW270840   2.196   9.236   2.916 -0.2577 -1.0718  2.0251
23040SOL     OW70841   7.014   4.578   2.704 -0.2779  0.0319 -0.1176
23040SOL    HW170842   7.019   4.499   2.651 -0.1538 -0.6698  0.8971
23040SOL    HW270843   6.999   4.649   2.642  2.0845 -0.4336 -1.3439
23041SOL     OW70844   3.125   1.558   8.895  0.4141  0.2095 -0.8353
23041SOL    HW170845   3.171   1.583   8.815  0.2994  0.4176 -0.8367
23041SOL    HW270846   3.048   1.510   8.864  1.3683 -1.4249 -0.8010
23042SOL     OW70847   1.249   6.066   1.346 -0.7959 -0.4455 -0.4070
23042SOL    HW170848   1.214   6.148   1.311 -1.4008 -0.2577  0.6162
23042SOL    HW270849   1.341   6.085   1.364 -0.9152 -0.0096 -0.2348
23043SOL     OW70850   0.406   8.542   1.254 -0.0079  0.3029 -0.0472
23043SOL    HW170851   0.366   8.629   1.257 -0.7419 -0.0198 -0.2846
23043SOL    HW270852   0.368   8.501   1.177 -1.1151 -0.9172  1.1178
23044SOL     OW70853   9.029   3.550   3.620  0.1136 -0.3427  0.2697
23044SOL    HW170854   9.026   3.644   3.641  0.2075 -0.2360 -0.1729
23044SOL    HW270855   9.030   3.506   3.705  1.9539  0.1131  0.5264
23045SOL     OW70856   1.235   6.371   7.844  0.0568  0.6751  0.2074
23045SOL    HW170857   1.289   6.295   7.820 -1.3010  0.5367 -2.8363
23045SOL    HW270858   1.274   6.402   7.926  0.8201 -3.1423  1.5193
23046SOL     OW70859   0.177   0.032   0.808  0.0685  0.1674 -0.5784
23046SOL    HW170860   0.109   0.095   0.781 -0.5219  0.0034  0.4876
23046SOL    HW270861   0.224   0.077   0.878 -0.3772 -0.5785  0.2131
23047SOL     OW70862   9.449   7.553   5.318 -0.4342 -0.2324  0.1931
23047SOL    HW170863   9.482   7.522   5.233  0.7018  1.2376  0.0466
23047SOL    HW270864   9.369   7.600   5.296 -0.2847 -0.0823 -0.0442
23048SOL     OW70865   4.787   1.121   1.185  0.2426 -0.3327 -0.1688
23048SOL    HW170866   4.693   1.139   1.180  0.5232  2.0256  1.4140
23048SOL    HW270867   4.828   1.203   1.157  1.7611 -0.4178  1.6297
23049SOL     OW70868   3.995   3.470   2.939 -0.1895  0.3966  0.0762
23049SOL    HW170869   3.999   3.483   3.034 -0.4666 -0.5320  0.2234
23049SOL    HW270870   3.910   3.506   2.913  0.1163  1.1467  0.0896
23050SOL     OW70871   4.915   0.164   6.969  0.0011  0.1577  0.8091
23050SOL    HW170872   4.962   0.204   7.042  1.1149 -2.4311  1.6302
23050SOL    HW270873   4.841   0.223   6.952  1.2708  2.2546  2.1476
23051SOL     OW70874   9.656   7.545   5.798 -0.3560 -0.2801 -0.2880
23051SOL    HW170875   9.661   7.455   5.829  1.0422  0.2269  1.1022
23051SOL    HW270876   9.651   7.538   5.703  1.1814 -1.8030 -0.2853
23052SOL     OW70877   2.228   7.422   4.704  0.1682 -0.5445  0.0340
23052SOL    HW170878   2.279   7.389   4.779 -0.8653  0.5337  1.2698
23052SOL    HW270879   2.194   7.506   4.734 -0.8089 -0.3853 -1.4449
23053SOL     OW70880   1.291   5.549   6.610 -0.3450  0.1003  0.5230
23053SOL    HW170881   1.289   5.629   6.663 -0.4433  0.3685  0.1173
23053SOL    HW270882   1.199   5.520   6.608 -0.8163  1.5601 -1.7029
23054SOL     OW70883   1.763   1.365   4.242 -0.3474  0.5092  0.6411
23054SOL    HW170884   1.782   1.446   4.291  1.7784 -0.5034  1.6444
23054SOL    HW270885   1.751   1.299   4.310 -0.4504 -0.3389 -0.1965
23055SOL     OW70886   4.843   2.865   6.987  0.0618  0.3846 -0.3324
23055SOL    HW170887   4.918   2.851   6.930 -0.3986 -0.1421 -0.8225
23055SOL    HW270888   4.842   2.789   7.045  0.9157  1.2320  0.8517
23056SOL     OW70889   3.602   7.400   9.664  0.0656 -0.4228 -0.4245
23056SOL    HW170890   3.690   7.415   9.699 -0.2116 -0.9530  0.5505
23056SOL    HW270891   3.558   7.349   9.732 -0.8210 -0.6429 -1.1460
23057SOL     OW70892   5.827   6.429   4.331  0.0049  0.2425 -0.9613
23057SOL    HW170893   5.735   6.411   4.310 -0.3736 -0.4373  1.0605
23057SOL    HW270894   5.855   6.353   4.382  1.8125  0.2881 -1.8240
23058SOL     OW70895   5.179   1.686   8.501 -0.3522 -0.2899  0.0643
23058SOL    HW170896   5.202   1.753   8.436 -1.7881  0.3122  0.1473
23058SOL    HW270897   5.091   1.710   8.530 -1.2685 -2.7128 -0.5281
23059SOL     OW70898   7.959   3.395   5.219 -0.3745 -0.1086  0.1013
23059SOL    HW170899   8.031   3.363   5.165 -1.3115  0.0644 -1.3010
23059SOL    HW270900   8.002   3.445   5.289  0.8359  1.3373 -1.5731
23060SOL     OW70901   5.730   0.640   9.114  0.5120 -0.0245 -0.2945
23060SOL    HW170902   5.760   0.550   9.126  2.3071  0.6892  1.2302
23060SOL    HW270903   5.811   0.692   9.114 -0.5024  1.6327 -0.6229
23061SOL     OW70904   7.514   9.392   5.310 -0.4296  0.3337 -0.7709
23061SOL    HW170905   7.522   9.338   5.232 -1.4345 -0.9503 -0.0257
23061SOL    HW270906   7.442   9.452   5.291 -1.7526 -1.0423 -0.2804
23062SOL     OW70907   5.874   6.068   1.861 -0.4837 -0.0955  0.0760
23062SOL    HW170908   5.922   6.018   1.927 -1.0430  0.0434  0.5960
23062SOL    HW270909   5.859   6.154   1.901  0.7244  0.6136 -0.9278
23063SOL     OW70910   6.254   7.778   7.075  0.1241 -0.2779  0.5943
23063SOL    HW170911   6.340   7.809   7.045  0.9468 -2.1979  0.8054
23063SOL    HW270912   6.259   7.683   7.066 -1.1931 -0.5962  2.6373
23064SOL     OW70913   0.744   3.227   8.757 -0.2986 -0.3941 -1.0637
23064SOL    HW170914   0.797   3.305   8.772  1.1155 -1.5879  0.4913
23064SOL    HW270915   0.791   3.179   8.689  0.7227 -1.4608  0.3273
23065SOL     OW70916   2.353   4.151   2.598 -0.2579 -0.6182 -0.5191
23065SOL    HW170917   2.308   4.228   2.561 -0.7841 -1.2403 -1.2092
23065SOL    HW270918   2.434   4.145   2.549  0.0586 -0.1758 -0.0668
23066SOL     OW70919   0.354   7.314   1.234  0.2524 -0.5067 -0.8556
23066SOL    HW170920   0.304   7.250   1.285 -0.0202 -0.2855 -0.8441
23066SOL    HW270921   0.310   7.316   1.149 -0.7344  0.8426 -0.3414
23067SOL     OW70922   7.261   9.525   2.443  0.4670  0.0574  0.1244
23067SOL    HW170923   7.289   9.438   2.473  1.1584  1.0472  2.5187
23067SOL    HW270924   7.201   9.556   2.510 -1.3655  0.6914 -1.6875
23068SOL     OW70925   4.214   6.176   5.198 -0.4389  0.3255 -0.2782
23068SOL    HW170926   4.307   6.181   5.217 -0.9237  2.0201  2.2181
23068SOL    HW270927   4.192   6.262   5.162 -1.9619  2.6109  5.1325
23069SOL     OW70928   7.176   6.335   4.070 -0.2529 -0.0217  0.2942
23069SOL    HW170929   7.102   6.350   4.011 -0.8040  0.6518  1.1212
23069SOL    HW270930   7.240   6.402   4.047  0.0499 -0.5070 -0.3179
23070SOL     OW70931   2.200   9.244   0.679  0.2394 -0.0490  0.1130
23070SOL    HW170932   2.116   9.199   0.693 -0.2249  0.7133 -0.1792
23070SOL    HW270933   2.207   9.305   0.753 -0.1513  0.8907 -0.6014
23071SOL     OW70934   3.278   6.673   9.624  0.2143 -0.2692 -0.1874
23071SOL    HW170935   3.313   6.673   9.714  0.9910  0.3854 -0.4784
23071SOL    HW270936   3.203   6.732   9.628  0.9109  0.6456 -0.1973
23072SOL     OW70937   4.357   7.588   6.727  0.3225  0.1095  0.4995
23072SOL    HW170938   4.425   7.527   6.697  1.1616  0.4700  1.5742
23072SOL    HW270939   4.369   7.665   6.671 -1.2794 -0.9485 -1.4225
23073SOL     OW70940   3.474   4.903   8.661 -0.1925 -0.0839 -0.6260
23073SOL    HW170941   3.436   4.816   8.647 -2.9607  0.7560  0.9434
23073SOL    HW270942   3.562   4.886   8.694  0.1955 -2.1988 -2.4999
23074SOL     OW70943   2.109   4.233   1.936  0.4485 -0.6584 -0.2465
23074SOL    HW170944   2.059   4.221   2.016 -0.5917 -1.4546 -1.0039
23074SOL    HW270945   2.044   4.247   1.867  1.3407  1.0021 -0.8256
23075SOL     OW70946   6.913   1.341   3.348 -0.5922 -0.2404  0.1430
23075SOL    HW170947   6.843   1.291   3.389 -2.2689  0.4920 -1.6951
23075SOL    HW270948   6.917   1.423   3.397 -0.7600 -0.4289  0.4767
23076SOL     OW70949   6.628   3.515   3.333  0.1418 -0.6687  0.0207
23076SOL    HW170950   6.591   3.590   3.380 -0.8549 -1.5391  0.6933
23076SOL    HW270951   6.592   3.522   3.244 -0.6512 -0.8085  0.3207
23077SOL     OW70952   3.696   6.004   7.664  0.2488  0.6845 -0.3835
23077SOL    HW170953   3.766   5.940   7.646  0.3323 -0.1189  2.3276
23077SOL    HW270954   3.729   6.055   7.738 -1.8223  0.5634  0.7026
23078SOL     OW70955   9.586   1.982   3.575 -0.0199  0.5358 -0.2367
23078SOL    HW170956   9.588   2.049   3.643  0.6157  0.6453 -0.3559
23078SOL    HW270957   9.613   2.027   3.495  0.7328  0.0806 -0.2557
23079SOL     OW70958   4.517   2.050   8.877  0.0135 -0.4769  0.0701
23079SOL    HW170959   4.502   1.960   8.905  0.5842 -0.7802 -0.5781
23079SOL    HW270960   4.498   2.049   8.783 -0.3580  0.1702  0.1300
23080SOL     OW70961   3.700   9.436   5.418  0.0623  0.0948  0.1852
23080SOL    HW170962   3.756   9.505   5.454 -0.3676  0.1877  0.6823
23080SOL    HW270963   3.704   9.365   5.482 -1.8785  0.8279  1.2186
23081SOL     OW70964   6.155   9.201   9.173  0.5438 -0.3693 -0.1059
23081SOL    HW170965   6.172   9.160   9.089  1.5526  0.1772 -0.1843
23081SOL    HW270966   6.222   9.164   9.232  1.1531  0.7721 -0.0618
23082SOL     OW70967   3.174   1.165   3.974  0.3406 -0.4153  0.4243
23082SOL    HW170968   3.206   1.135   3.889 -1.2215  1.0173 -0.7468
23082SOL    HW270969   3.162   1.084   4.025  0.0738 -1.4247 -1.1805
23083SOL     OW70970   9.212   9.372   4.184 -0.2680 -0.1761  0.0492
23083SOL    HW170971   9.141   9.331   4.232  0.2555 -0.2596  0.7632
23083SOL    HW270972   9.262   9.300   4.148 -0.0862 -0.1344  0.2182
23084SOL     OW70973   1.942   4.657   7.927 -0.4874 -0.2910  0.4920
23084SOL    HW170974   2.026   4.624   7.958 -0.4395 -0.1262  0.5395
23084SOL    HW270975   1.928   4.613   7.844 -0.5028 -0.5541  0.6347
23085SOL     OW70976   1.321   2.500   9.564  0.0195  0.5500 -0.1162
23085SOL    HW170977   1.235   2.535   9.538  0.2825  1.2316 -0.0789
23085SOL    HW270978   1.345   2.551   9.641  1.6430  2.2109 -1.6387
23086SOL     OW70979   3.344   6.570   2.143 -0.4137  0.2471 -0.2897
23086SOL    HW170980   3.393   6.487   2.141 -0.0249  0.4820 -2.1149
23086SOL    HW270981   3.395   6.626   2.201  0.1258 -0.3253 -0.1935
23087SOL     OW70982   4.734   7.630   5.731  0.0987  0.7019  0.3948
23087SOL    HW170983   4.814   7.578   5.719 -0.2915  0.0709  0.4643
23087SOL    HW270984   4.696   7.634   5.643  0.2521  1.0840  0.3445
23088SOL     OW70985   5.954   0.000   1.765 -0.0029 -0.3357  0.0382
23088SOL    HW170986   6.041  -0.006   1.804  0.5170 -0.9937 -1.1546
23088SOL    HW270987   5.943  -0.082   1.718 -1.2063 -0.1820  0.0297
23089SOL     OW70988   5.541   0.516   4.283 -0.4897  0.4297  0.1105
23089SOL    HW170989   5.532   0.585   4.216  0.8469  1.4954  0.9819
23089SOL    HW270990   5.467   0.458   4.267 -1.6078  2.0090 -0.7358
23090SOL     OW70991   4.872   1.346   5.638  0.1541  0.4862  0.3034
23090SOL    HW170992   4.933   1.318   5.570  0.5512 -0.2089  0.9278
23090SOL    HW270993   4.791   1.299   5.618  0.0243  0.8878 -0.1350
23091SOL     OW70994   3.530   6.077   7.320 -0.1192  0.2841 -0.0154
23091SOL    HW170995   3.617   6.089   7.282  0.8949 -1.9224  1.4172
23091SOL    HW270996   3.529   6.135   7.397  0.4222 -0.2640  0.4176
23092SOL     OW70997   6.413   9.002   5.447  0.1973 -0.2277  0.0290
23092SOL    HW170998   6.440   9.086   5.409  0.4181 -0.5810 -0.5950
23092SOL    HW270999   6.495   8.954   5.457 -0.1256 -1.1143 -1.3963
23093SOL     OW71000   5.301   3.147   5.688 -0.2062 -0.2359 -0.1679
23093SOL    HW171001   5.248   3.212   5.735  0.8402 -0.8140  1.9303
23093SOL    HW271002   5.236   3.086   5.651 -1.0712 -0.4255  1.5709
23094SOL     OW71003   9.056   7.487   2.108 -0.3303 -0.4648  0.3516
23094SOL    HW171004   9.056   7.395   2.135  0.9540 -0.4508  0.4553
23094SOL    HW271005   9.131   7.525   2.154 -0.1873  0.3698 -0.5536
23095SOL     OW71006   4.658   3.239   6.640 -0.0064 -0.0462 -0.3443
23095SOL    HW171007   4.617   3.162   6.601  1.0784 -0.9047  0.1613
23095SOL    HW271008   4.703   3.282   6.567  0.6747 -0.7573 -0.3539
23096SOL     OW71009   2.381   4.118   1.155  0.2170 -0.0856  1.4050
23096SOL    HW171010   2.314   4.103   1.222  0.9631  2.0272  2.7103
23096SOL    HW271011   2.334   4.158   1.082 -0.3178 -0.8106  1.3431
23097SOL     OW71012   4.530   7.976   7.706  0.3287  0.0814 -0.0252
23097SOL    HW171013   4.590   8.008   7.774  0.9944 -0.9525 -0.1030
23097SOL    HW271014   4.555   7.885   7.693 -0.8081 -0.1693 -0.5788
23098SOL     OW71015   0.431   2.777   4.897 -0.3887  0.4768 -0.5892
23098SOL    HW171016   0.444   2.699   4.843 -0.2608  2.1425 -3.1388
23098SOL    HW271017   0.343   2.765   4.934  0.8128 -2.2699  1.7197
23099SOL     OW71018   6.730   5.645   5.046 -0.1104 -0.5104 -0.4432
23099SOL    HW171019   6.646   5.633   5.090  0.0356  1.5828  0.5147
23099SOL    HW271020   6.786   5.577   5.083 -0.4111  0.2769  1.6061
23100SOL     OW71021   1.906   4.511   2.258 -0.3189 -0.0629 -0.0789
23100SOL    HW171022   1.937   4.601   2.249 -0.6052  0.4151  2.8419
23100SOL    HW271023   1.975   4.467   2.307 -0.7959 -1.0737 -0.2953
23101SOL     OW71024   9.419   0.035   4.956 -0.1488 -0.4139 -0.3072
23101SOL    HW171025   9.347   0.009   4.899  0.4884  0.3647 -1.5151
23101SOL    HW271026   9.378   0.055   5.039 -1.0890 -1.7339 -0.4222
23102SOL     OW71027   2.404   7.386   3.963  0.0388 -0.6576 -0.2812
23102SOL    HW171028   2.343   7.442   4.012 -1.1501 -0.5468 -1.8276
23102SOL    HW271029   2.486   7.393   4.011  0.1793  3.0299 -0.7795
23103SOL     OW71030   1.759   2.781   1.484  0.6544 -0.3012  0.7592
23103SOL    HW171031   1.765   2.712   1.550  0.5543  0.4489  1.5632
23103SOL    HW271032   1.842   2.776   1.436  0.1654 -1.7543  0.0133
23104SOL     OW71033   1.690   6.435   3.794 -0.3193 -0.0407  0.4490
23104SOL    HW171034   1.756   6.498   3.824  1.6815 -1.1468 -1.3091
23104SOL    HW271035   1.689   6.367   3.861  0.0229  0.2074  0.7123
23105SOL     OW71036   8.853   4.597   2.349  0.2443  0.5312 -0.2069
23105SOL    HW171037   8.902   4.609   2.268 -2.0617  0.8921 -1.6410
23105SOL    HW271038   8.844   4.686   2.385 -0.8408  0.7249 -0.9087
23106SOL     OW71039   1.781   1.021   6.752  0.7235  0.5358 -0.3128
23106SOL    HW171040   1.708   0.959   6.753  0.7694  0.4955  0.5120
23106SOL    HW271041   1.747   1.099   6.796  1.1405  0.5556 -0.0214
23107SOL     OW71042   4.788   6.659   5.322 -0.1166 -0.0315 -0.6179
23107SOL    HW171043   4.881   6.666   5.300 -0.5727 -0.8364 -3.0568
23107SOL    HW271044   4.786   6.663   5.418  2.4758 -0.5669 -0.4716
23108SOL     OW71045   8.532   9.404   9.524  0.4497 -0.1537 -0.0002
23108SOL    HW171046   8.492   9.481   9.484  0.3518 -0.2263 -0.0418
23108SOL    HW271047   8.475   9.331   9.499  1.9850 -0.6842 -2.2840
23109SOL     OW71048   6.129   3.636   1.917  0.1011  0.0929 -0.1425
23109SOL    HW171049   6.070   3.562   1.903  0.4364 -0.2750  0.3347
23109SOL    HW271050   6.089   3.686   1.988 -0.1267  0.3733 -0.4665
23110SOL     OW71051   4.184   2.717   1.237  0.1499 -0.1720 -0.2937
23110SOL    HW171052   4.103   2.690   1.195  0.2634 -1.5607  0.3553
23110SOL    HW271053   4.157   2.759   1.319 -0.0642  2.4269 -1.5803
23111SOL     OW71054   7.604   2.855   5.968 -0.2774 -0.4089 -0.4633
23111SOL    HW171055   7.681   2.910   5.983  1.1383 -1.9882 -1.5917
23111SOL    HW271056   7.531   2.905   6.005  1.2744  1.1295  0.6734
23112SOL     OW71057   2.283   3.142   6.804  0.3044  0.0201 -0.8085
23112SOL    HW171058   2.263   3.151   6.897 -2.4081  1.2045 -1.4208
23112SOL    HW271059   2.315   3.229   6.778 -1.5400  0.5597 -1.4661
23113SOL     OW71060   1.974   5.937   0.429  0.0451 -0.5218 -0.0315
23113SOL    HW171061   1.951   5.972   0.344 -0.7201  1.0762  0.7904
23113SOL    HW271062   1.959   5.843   0.422 -1.0605 -0.2685 -1.3266
23114SOL     OW71063   2.045   8.870   8.499  0.7205  0.8815  0.5784
23114SOL    HW171064   1.998   8.823   8.567  0.8159 -0.6448 -0.3702
23114SOL    HW271065   2.135   8.874   8.530  1.1954 -1.5340 -0.2295
23115SOL     OW71066   2.559   9.169   0.200 -0.5920  0.1553 -0.1114
23115SOL    HW171067   2.566   9.125   0.115 -1.3618 -0.3571  0.0815
23115SOL    HW271068   2.547   9.098   0.263  2.8544  0.2471  0.8735
23116SOL     OW71069   3.070   8.885   9.237  0.0550  0.3157 -0.0652
23116SOL    HW171070   3.002   8.891   9.169 -1.2325  0.3935  1.1946
23116SOL    HW271071   3.113   8.971   9.235 -0.5702  0.6301 -0.1712
23117SOL     OW71072   4.322   8.276   8.104 -0.0073 -0.4046 -0.3269
23117SOL    HW171073   4.345   8.322   8.185  2.7254  1.7816 -2.1248
23117SOL    HW271074   4.259   8.334   8.061  0.8543  0.0383 -1.0505
23118SOL     OW71075   2.375   3.749   6.455 -0.2030 -0.1980  0.3270
23118SOL    HW171076   2.372   3.682   6.387  0.3382  0.7394 -0.6352
23118SOL    HW271077   2.337   3.826   6.415  0.4619  0.4735  0.9623
23119SOL     OW71078   4.495   5.316   3.189 -0.2052  0.0463  0.2722
23119SOL    HW171079   4.472   5.354   3.104 -0.6023 -0.8662 -0.0450
23119SOL    HW271080   4.457   5.376   3.253 -0.6756  0.2808 -0.2111
23120SOL     OW71081   1.657   5.267   0.609 -0.4264 -0.6441  0.6718
23120SOL    HW171082   1.730   5.257   0.548  0.6640  0.1024  1.7956
23120SOL    HW271083   1.682   5.214   0.685 -1.2103 -0.6447  0.9339
23121SOL     OW71084   1.683   4.880   2.407  0.1873  0.4498  0.3997
23121SOL    HW171085   1.724   4.840   2.485 -0.7207  0.1600  0.7460
23121SOL    HW271086   1.750   4.876   2.340  0.9932  0.6979  1.1722
23122SOL     OW71087   6.265   9.335   1.122  0.0025 -0.3285 -0.0729
23122SOL    HW171088   6.261   9.350   1.028  0.8857 -1.6337 -0.3401
23122SOL    HW271089   6.301   9.416   1.158  0.6222 -0.1973 -0.9661
23123SOL     OW71090   4.474   2.232   5.055 -0.3314  0.4785 -0.7371
23123SOL    HW171091   4.394   2.231   5.108 -0.8549 -0.9699 -1.4993
23123SOL    HW271092   4.453   2.179   4.979  0.9579  1.1334 -1.5837
23124SOL     OW71093   1.638   8.171   5.794  0.0889 -0.1649 -0.3355
23124SOL    HW171094   1.712   8.192   5.850  0.4654 -1.2618 -0.4037
23124SOL    HW271095   1.651   8.080   5.769 -1.9131 -0.8045  0.6640
23125SOL     OW71096   2.788   4.350   5.173 -0.2071 -0.1064 -0.3011
23125SOL    HW171097   2.797   4.417   5.240 -0.5083  0.8674 -1.1953
23125SOL    HW271098   2.694   4.333   5.169 -0.1989 -0.1095 -0.5139
23126SOL     OW71099   9.173   9.071   0.803 -0.6724  0.0055 -0.1303
23126SOL    HW171100   9.228   9.000   0.771  0.4532  0.7793  0.0541
23126SOL    HW271101   9.179   9.066   0.899  0.8777  1.4306 -0.1116
23127SOL     OW71102   7.878   2.236   4.510  0.4335 -0.6069 -0.5545
23127SOL    HW171103   7.852   2.226   4.418 -0.1454  0.1195 -0.4832
23127SOL    HW271104   7.795   2.240   4.558  0.7161 -0.3037 -0.0825
23128SOL     OW71105   9.260   8.023   5.227  0.3953  0.0265  0.4180
23128SOL    HW171106   9.227   8.068   5.149  1.6915 -0.3127 -0.3479
23128SOL    HW271107   9.354   8.039   5.227  0.9867 -2.8663 -0.0561
23129SOL     OW71108   2.113   6.043   5.538 -0.5235  0.3097  0.3020
23129SOL    HW171109   2.167   5.991   5.478 -0.1025  0.4982  0.5125
23129SOL    HW271110   2.082   6.116   5.485 -0.5975  0.1877  0.1740
23130SOL     OW71111   5.168   6.653   3.425 -0.1146  0.3294  0.2394
23130SOL    HW171112   5.180   6.747   3.414 -2.5378  0.5936 -0.7562
23130SOL    HW271113   5.234   6.613   3.369 -0.2129  1.4791 -0.7427
23131SOL     OW71114   8.263   9.214   9.682  0.1012  0.5869 -0.1371
23131SOL    HW171115   8.271   9.304   9.713  2.7530  0.0496  1.0406
23131SOL    HW271116   8.292   9.217   9.590  1.2140  0.8103  0.2073
23132SOL     OW71117   7.286   0.348   7.048 -0.2413 -0.4779 -0.0390
23132SOL    HW171118   7.300   0.362   6.955  0.1059  0.5425  0.1554
23132SOL    HW271119   7.371   0.316   7.081 -0.2538 -0.4756 -0.0040
23133SOL     OW71120   9.070   0.487   6.450 -0.2404  0.2511  0.1617
23133SOL    HW171121   9.105   0.564   6.496 -0.4897  0.4523  0.0179
23133SOL    HW271122   9.090   0.503   6.358  1.0964 -0.5990  0.2881
23134SOL     OW71123   2.808   6.568   8.042 -0.4943  1.0978 -0.1960
23134SOL    HW171124   2.791   6.620   8.121 -1.1011 -0.0246  0.4407
23134SOL    HW271125   2.722   6.554   8.004 -0.5674 -0.8272  0.5726
23135SOL     OW71126   8.022   4.050   4.555  0.6015 -0.2352  0.1484
23135SOL    HW171127   8.048   4.063   4.646  1.5194  4.4280 -0.5427
23135SOL    HW271128   8.101   4.018   4.512 -0.0253 -3.1675  0.9194
23136SOL     OW71129   8.859   0.938   6.680  0.2805 -0.3853 -0.3034
23136SOL    HW171130   8.936   0.958   6.626  1.0270  1.2890  1.2663
23136SOL    HW271131   8.786   0.980   6.634  0.8288  0.6079 -0.3086
23137SOL     OW71132   1.107   7.894   3.738  0.2861 -0.0548  0.4464
23137SOL    HW171133   1.089   7.896   3.832  1.2005  2.3146  0.6361
23137SOL    HW271134   1.202   7.907   3.732  0.2041  0.0635 -0.8117
23138SOL     OW71135   9.424   5.603   5.095 -0.4550  0.2575 -0.7835
23138SOL    HW171136   9.498   5.554   5.130 -0.5660 -0.6325 -1.7231
23138SOL    HW271137   9.401   5.557   5.013 -2.4970  0.0504 -0.1698
23139SOL     OW71138   5.855   9.096   4.084  0.0145 -0.4914 -0.1834
23139SOL    HW171139   5.895   9.073   4.000 -0.8950 -0.2322 -0.7022
23139SOL    HW271140   5.922   9.073   4.149  1.4755  1.0565 -1.0700
23140SOL     OW71141   0.532   5.528   3.491 -0.5924  0.5460 -0.2848
23140SOL    HW171142   0.490   5.543   3.576 -0.8938  2.1277 -0.6731
23140SOL    HW271143   0.615   5.575   3.496 -0.2669  0.0094 -0.5977
23141SOL     OW71144   7.099   9.221   7.531 -0.3818 -1.0761  0.2146
23141SOL    HW171145   7.142   9.136   7.531  0.7112 -0.5551  1.7796
23141SOL    HW271146   7.063   9.230   7.619 -1.3194 -0.3050 -0.2288
23142SOL     OW71147   5.654   3.988   3.351 -0.0246 -0.0594 -0.9655
23142SOL    HW171148   5.722   4.047   3.318  0.2419  0.5583  0.5742
23142SOL    HW271149   5.691   3.901   3.343  1.5986  0.3450  1.0911
23143SOL     OW71150   7.196   1.908   1.110  0.8802  0.3102 -0.1618
23143SOL    HW171151   7.286   1.904   1.078 -0.1256 -1.7370 -3.3113
23143SOL    HW271152   7.194   1.847   1.183  2.0258  0.2495 -0.1667
23144SOL     OW71153   5.789   7.642   1.821  0.1789  0.2667  0.5348
23144SOL    HW171154   5.868   7.620   1.871 -0.4871  1.6028  2.2668
23144SOL    HW271155   5.817   7.711   1.762  0.6029 -0.1924  0.1901
23145SOL     OW71156   2.533   2.773   4.526  0.2466  0.3110  0.1816
23145SOL    HW171157   2.519   2.695   4.473  0.8841  0.2497  0.0926
23145SOL    HW271158   2.515   2.846   4.467 -3.2345  0.3033  1.0149
23146SOL     OW71159   5.856   1.217   0.330 -0.0549  0.3454 -0.0558
23146SOL    HW171160   5.824   1.303   0.302  0.8297  0.2896 -1.3024
23146SOL    HW271161   5.930   1.237   0.388  1.6572  0.4635 -2.1758
23147SOL     OW71162   7.907   7.610   6.864  0.0361  0.1815  0.0737
23147SOL    HW171163   7.986   7.662   6.847  0.6050 -0.1487  1.5122
23147SOL    HW271164   7.934   7.550   6.934 -0.9290 -1.3051 -0.8132
23148SOL     OW71165   3.296   7.169   7.027  0.2434  0.1876  0.5461
23148SOL    HW171166   3.303   7.255   7.067 -0.5906  0.5226 -0.0043
23148SOL    HW271167   3.244   7.118   7.090  2.2105 -0.4752  1.7199
23149SOL     OW71168   2.806   7.800   3.531  0.3954  0.2297 -0.6661
23149SOL    HW171169   2.781   7.857   3.459 -0.4179  0.5643 -0.1317
23149SOL    HW271170   2.866   7.853   3.584  1.2931 -0.1459 -1.2822
23150SOL     OW71171   8.481   0.847   3.639  0.0466  0.1969  0.3143
23150SOL    HW171172   8.454   0.774   3.584 -0.1290  0.3944  0.1328
23150SOL    HW271173   8.519   0.807   3.716  0.5537 -0.0840 -0.0781
23151SOL     OW71174   8.957   4.643   6.307 -0.2521 -0.8420  0.3094
23151SOL    HW171175   8.945   4.714   6.245 -0.9076 -0.4758  0.8362
23151SOL    HW271176   9.035   4.597   6.277  0.5512  0.4683  0.3049
23152SOL     OW71177   3.674   9.214   3.182  0.3077 -0.7200  0.0523
23152SOL    HW171178   3.740   9.157   3.221  1.8893 -0.0575 -1.5177
23152SOL    HW271179   3.724   9.285   3.143 -1.5511  1.5207  1.4819
23153SOL     OW71180   7.728   1.211   1.375  0.3836 -0.0350  0.1625
23153SOL    HW171181   7.808   1.201   1.426  0.0446  0.7582  0.8645
23153SOL    HW271182   7.737   1.295   1.330 -0.8532  0.9955  1.7453
23154SOL     OW71183   7.215   1.464   3.481  0.2765 -0.4244  0.2315
23154SOL    HW171184   7.189   1.398   3.544  1.0496 -1.3351 -0.3732
23154SOL    HW271185   7.135   1.484   3.433 -0.3443  0.3724  1.5576
23155SOL     OW71186   9.695   4.335   9.671  0.1372 -0.1929 -0.0387
23155SOL    HW171187   9.780   4.378   9.679  0.3608 -0.7915  1.0706
23155SOL    HW271188   9.664   4.328   9.762 -0.5540 -1.0405 -0.3343
23156SOL     OW71189   4.636   2.011   1.682 -0.1830  0.6613 -0.0863
23156SOL    HW171190   4.684   2.087   1.715 -0.8051  0.5634  1.1082
23156SOL    HW271191   4.673   1.995   1.595  0.7156  1.6512  0.0909
23157SOL     OW71192   8.008   8.268   6.565 -0.6838 -0.3168  0.2663
23157SOL    HW171193   8.027   8.316   6.484 -0.1404  1.1932  1.2470
23157SOL    HW271194   8.009   8.176   6.538  2.7055 -0.1100 -0.8950
23158SOL     OW71195   4.476   9.343   7.575 -0.0830 -0.0428 -0.1622
23158SOL    HW171196   4.449   9.279   7.510 -0.8824 -0.1836  0.3089
23158SOL    HW271197   4.566   9.365   7.550 -0.1238 -0.6462 -0.8716
23159SOL     OW71198   9.473   1.594   3.356  0.6950  0.3712 -0.2556
23159SOL    HW171199   9.413   1.634   3.419  1.7122  0.3513  0.7482
23159SOL    HW271200   9.439   1.506   3.343  1.4467 -0.2247  1.6095
23160SOL     OW71201   1.085   9.066   3.699  0.2023  0.1178 -0.4283
23160SOL    HW171202   1.027   9.116   3.757  0.3637  1.3776 -1.2979
23160SOL    HW271203   1.081   8.976   3.731 -1.1759  0.4390  0.3543
23161SOL     OW71204   4.292   9.456   5.531 -0.0992  0.1342  0.6313
23161SOL    HW171205   4.331   9.518   5.470  2.0965 -1.4272  0.2978
23161SOL    HW271206   4.304   9.495   5.617  0.5611  0.5315  0.3650
23162SOL     OW71207   6.881   2.950   3.477  0.4139  0.2851 -0.0402
23162SOL    HW171208   6.835   3.007   3.539 -0.9691 -0.1296 -0.6396
23162SOL    HW271209   6.935   3.009   3.425 -0.2211  0.9312  0.0213
23163SOL     OW71210   2.536   6.642   2.541 -0.0234 -0.2529  0.3458
23163SOL    HW171211   2.610   6.587   2.519  0.6445  0.2258  1.3339
23163SOL    HW271212   2.550   6.723   2.491  0.9435  0.4291  1.6784
23164SOL     OW71213   4.974   3.488   2.081  0.9656 -0.3480  0.6156
23164SOL    HW171214   5.066   3.503   2.102  0.5244  0.0589  2.4411
23164SOL    HW271215   4.934   3.575   2.086  0.7098 -0.2823 -1.6205
23165SOL     OW71216   1.892   3.765   6.945 -0.1758 -0.0278  0.2801
23165SOL    HW171217   1.896   3.841   7.003 -0.4413 -1.0412  1.6787
23165SOL    HW271218   1.822   3.710   6.982 -0.2479 -0.7847 -0.9182
23166SOL     OW71219   8.336   1.964   3.939 -0.0550 -0.6800 -0.0630
23166SOL    HW171220   8.367   1.893   3.883  0.2329 -0.1011 -0.6471
23166SOL    HW271221   8.271   2.009   3.886  0.3572 -0.0071 -0.0025
23167SOL     OW71222   9.213   8.699   5.446 -0.4319 -0.5307  0.3489
23167SOL    HW171223   9.227   8.709   5.540  0.5510 -0.1607  0.1785
23167SOL    HW271224   9.240   8.609   5.427 -1.0867 -0.7659  0.4837
23168SOL     OW71225   7.665   0.121   4.498 -0.6549 -0.3422 -0.6831
23168SOL    HW171226   7.627   0.206   4.477  1.3481  0.8116  0.0548
23168SOL    HW271227   7.612   0.088   4.571 -0.8009  0.7801 -0.2739
23169SOL     OW71228   1.956   3.745   5.840  0.4500  0.2837 -0.6147
23169SOL    HW171229   2.042   3.705   5.831 -0.0514 -0.4870 -2.5039
23169SOL    HW271230   1.904   3.708   5.768 -1.1987  1.4004 -0.0778
23170SOL     OW71231   9.200   2.748   2.498 -0.0598  0.5593 -0.3285
23170SOL    HW171232   9.183   2.819   2.436  0.7990  1.1121  0.0458
23170SOL    HW271233   9.173   2.784   2.583  0.1019  0.3262 -0.1795
23171SOL     OW71234   5.297   7.311   0.749  0.1727  0.6489  0.0766
23171SOL    HW171235   5.351   7.300   0.828  1.0026 -0.8108 -0.6417
23171SOL    HW271236   5.209   7.282   0.776  0.4545  0.1494  0.4819
23172SOL     OW71237   1.821   1.459   1.989  0.2315  0.0822 -0.2814
23172SOL    HW171238   1.892   1.398   1.969  0.0519  0.1910 -1.2711
23172SOL    HW271239   1.864   1.545   1.992 -0.0569  0.3556 -2.3646
23173SOL     OW71240   2.262   6.316   4.695 -0.1073 -0.2210  0.2796
23173SOL    HW171241   2.258   6.410   4.678 -0.3354 -0.2264  0.2951
23173SOL    HW271242   2.179   6.296   4.738 -0.6179 -0.6605 -0.8774
23174SOL     OW71243   8.157   6.839   9.626 -0.6299  0.0413 -0.1163
23174SOL    HW171244   8.168   6.762   9.571  0.5847 -0.0582  0.2312
23174SOL    HW271245   8.062   6.856   9.626 -0.7879 -0.7705 -1.0952
23175SOL     OW71246   8.869   7.711   2.649 -0.1842 -0.2047 -0.1424
23175SOL    HW171247   8.954   7.701   2.607  0.1024  0.7737  0.1765
23175SOL    HW271248   8.873   7.796   2.692 -0.4646 -1.1251  1.8512
23176SOL     OW71249   9.477   4.699   9.269  0.2756  0.3216 -0.2274
23176SOL    HW171250   9.384   4.687   9.251  0.1098  0.5966  0.4146
23176SOL    HW271251   9.513   4.736   9.189 -0.0269 -0.4487 -0.7349
23177SOL     OW71252   1.318   4.939   3.369 -0.4927  0.6883 -0.7384
23177SOL    HW171253   1.225   4.952   3.389 -0.4022  0.5967 -0.2406
23177SOL    HW271254   1.349   5.027   3.345 -0.6684  0.7504 -0.7414
23178SOL     OW71255   3.032   6.946   8.645 -0.2367 -0.3708  0.3106
23178SOL    HW171256   3.069   7.005   8.712  0.0674 -0.7415  0.4727
23178SOL    HW271257   3.051   6.989   8.562  0.9655 -0.7650  0.3621
23179SOL     OW71258   7.219   6.413   2.561  0.0900  0.9400 -0.5576
23179SOL    HW171259   7.216   6.367   2.478  2.5484 -0.1245 -0.1187
23179SOL    HW271260   7.281   6.485   2.548  1.2729  0.1738  0.5895
23180SOL     OW71261   5.409   0.417   1.758  0.1559 -0.1340 -0.5435
23180SOL    HW171262   5.345   0.418   1.688 -1.0366  1.7814  0.4996
23180SOL    HW271263   5.435   0.508   1.768  0.5304 -0.4072  1.2846
23181SOL     OW71264   2.337   3.159   9.666  0.0574  0.0331  0.1921
23181SOL    HW171265   2.294   3.244   9.655 -0.7865 -0.3246  0.6638
23181SOL    HW271266   2.277   3.108   9.720  0.2056 -1.1426 -0.7106
23182SOL     OW71267   2.992   2.764   0.330  0.3479 -0.3408 -0.3276
23182SOL    HW171268   3.071   2.733   0.375 -0.3131 -0.2557  0.9458
23182SOL    HW271269   2.967   2.692   0.273  0.7336 -0.8050  0.0763
23183SOL     OW71270   7.456   4.422   1.084 -0.0688 -0.5696 -0.0337
23183SOL    HW171271   7.361   4.427   1.088 -0.1810  0.2755 -2.2758
23183SOL    HW271272   7.483   4.504   1.043  1.5927 -0.9640  0.1877
23184SOL     OW71273   2.275   1.393   4.494  0.3027 -0.5113 -0.7959
23184SOL    HW171274   2.361   1.390   4.537  0.1019 -0.4898 -0.3825
23184SOL    HW271275   2.266   1.309   4.451 -0.1924 -1.2179  0.6076
23185SOL     OW71276   5.629   8.552   6.590 -0.7338  0.2601  0.8353
23185SOL    HW171277   5.613   8.616   6.521  0.2525  0.5711  0.8807
23185SOL    HW271278   5.542   8.531   6.623 -1.3618 -0.9259 -1.3999
23186SOL     OW71279   3.417   8.958   9.496  0.4799 -0.0446 -0.8104
23186SOL    HW171280   3.444   8.888   9.556  0.6429 -0.6819 -1.6079
23186SOL    HW271281   3.321   8.951   9.495  0.1838  1.9462  1.6883
23187SOL     OW71282   9.002   6.191   2.168  0.5024  0.3249 -0.1395
23187SOL    HW171283   9.042   6.164   2.085  1.8420 -0.8215  0.8329
23187SOL    HW271284   8.952   6.115   2.196  1.4094  0.0844  0.8871
23188SOL     OW71285   0.893   7.614   9.145 -0.4488  0.2361 -0.2177
23188SOL    HW171286   0.851   7.600   9.061  0.0750  0.6798 -0.5581
23188SOL    HW271287   0.829   7.663   9.197  0.5039  3.0769 -1.5473
23189SOL     OW71288   1.287   1.596   8.199 -0.5509  0.1765  0.0373
23189SOL    HW171289   1.277   1.631   8.287 -0.8854 -3.0627  1.4224
23189SOL    HW271290   1.381   1.578   8.190 -0.7757 -1.3425  0.5527
23190SOL     OW71291   6.195   4.227   9.620  0.3302 -0.1187  0.0039
23190SOL    HW171292   6.273   4.266   9.660  0.0589  1.0318 -0.5649
23190SOL    HW271293   6.138   4.301   9.601 -1.2236 -0.9862  1.0500
23191SOL     OW71294   0.648   8.087   9.093  0.1385  0.3688  0.0162
23191SOL    HW171295   0.601   8.123   9.018 -0.8910  0.1118  0.5209
23191SOL    HW271296   0.630   7.993   9.090 -1.0645  0.5179  1.3335
23192SOL     OW71297   1.129   3.523   5.074  0.6551 -0.1722  0.1528
23192SOL    HW171298   1.117   3.481   5.159  1.7619  0.1266  0.4768
23192SOL    HW271299   1.170   3.456   5.019 -0.5237 -0.5330 -0.3249
23193SOL     OW71300   4.679   5.731   3.986 -0.7403 -0.0284 -0.3789
23193SOL    HW171301   4.718   5.700   4.068 -0.7376 -0.2142 -0.4484
23193SOL    HW271302   4.746   5.787   3.947 -0.8306  0.2413 -0.1456
23194SOL     OW71303   7.012   8.782   7.022  0.1017 -0.6676  0.4973
23194SOL    HW171304   6.962   8.746   6.949 -2.7958  0.1722  1.9239
23194SOL    HW271305   7.038   8.706   7.074 -0.9148 -1.0656  0.4409
23195SOL     OW71306   8.130   5.313   5.773 -0.0733  0.2158 -0.3758
23195SOL    HW171307   8.209   5.315   5.827 -0.7480  1.4376  0.6183
23195SOL    HW271308   8.095   5.225   5.784  0.6019 -0.0096 -0.0200
23196SOL     OW71309   6.302   2.983   1.034 -0.3194  0.1564 -0.2299
23196SOL    HW171310   6.273   3.007   0.946  0.0817 -1.4157 -0.8275
23196SOL    HW271311   6.372   3.045   1.053  0.3914 -0.2012 -1.5233
23197SOL     OW71312   2.024   6.479   6.761 -0.4958  0.0962  0.3149
23197SOL    HW171313   2.097   6.439   6.808 -0.5246  0.0075  0.2849
23197SOL    HW271314   2.061   6.558   6.722 -0.0285 -0.7404 -0.9710
23198SOL     OW71315   4.863   8.772   2.171  0.3996 -0.3322 -0.4325
23198SOL    HW171316   4.826   8.858   2.148 -1.2989 -0.6997  0.7276
23198SOL    HW271317   4.916   8.748   2.095  2.3118  2.4556 -0.1222
23199SOL     OW71318   3.568   9.351   0.723 -0.0785  0.0254  0.1368
23199SOL    HW171319   3.628   9.380   0.791  1.1873 -1.1095 -0.4445
23199SOL    HW271320   3.604   9.386   0.642 -0.8020  0.2080 -0.1168
23200SOL     OW71321   7.598   5.838   2.215  0.1149  0.4056 -0.2369
23200SOL    HW171322   7.575   5.929   2.196  0.1803  0.5124  0.2042
23200SOL    HW271323   7.661   5.843   2.286  1.8668  0.1389 -1.7019
23201SOL     OW71324   6.449   8.431   5.128 -0.3114  0.2327 -0.0387
23201SOL    HW171325   6.432   8.506   5.186 -0.0720 -0.4292  0.9089
23201SOL    HW271326   6.433   8.465   5.040 -1.6692  0.9845  0.4702
23202SOL     OW71327   5.509   5.753   2.735  0.6358  0.1902  0.2592
23202SOL    HW171328   5.565   5.782   2.806 -0.6044  1.3221  0.8288
23202SOL    HW271329   5.476   5.834   2.696  1.5187 -0.3805 -1.8300
23203SOL     OW71330   8.742   8.388   2.358 -0.1106 -0.5838 -0.3377
23203SOL    HW171331   8.673   8.329   2.387 -1.0218  0.2916 -0.6506
23203SOL    HW271332   8.725   8.470   2.405  0.6930 -0.3464 -0.4463
23204SOL     OW71333   6.865   5.816   7.115  0.3433 -0.2444  0.9711
23204SOL    HW171334   6.841   5.788   7.027 -1.1974 -1.8936  1.8460
23204SOL    HW271335   6.960   5.803   7.120  0.5882  0.6903 -0.6718
23205SOL     OW71336   7.966   9.021   2.153 -0.2385  0.0678 -0.4691
23205SOL    HW171337   7.973   8.959   2.080  0.0114 -0.9931  0.4157
23205SOL    HW271338   7.873   9.021   2.176 -0.1072 -0.7323  0.1264
23206SOL     OW71339   7.154   5.821   7.276  0.4643 -0.3476 -0.3328
23206SOL    HW171340   7.106   5.859   7.350  0.8763  0.3723 -0.4191
23206SOL    HW271341   7.232   5.783   7.316  0.3269 -0.6115 -0.3134
23207SOL     OW71342   2.397   4.904   1.625  0.3746  0.4234  0.5105
23207SOL    HW171343   2.327   4.896   1.691 -0.7061  0.5322 -0.5874
23207SOL    HW271344   2.355   4.947   1.550  1.5475  0.2011 -0.3070
23208SOL     OW71345   3.755   8.945   4.985  0.4284  0.0955  0.2095
23208SOL    HW171346   3.773   8.892   5.063  0.2414 -0.5628 -0.1832
23208SOL    HW271347   3.841   8.959   4.945  0.6667  1.3387  1.0803
23209SOL     OW71348   7.699   6.672   0.046 -0.4360 -0.1908 -0.2479
23209SOL    HW171349   7.656   6.722   0.116 -0.8877 -0.8969 -0.0097
23209SOL    HW271350   7.747   6.603   0.093 -0.3490 -0.3730 -0.6062
23210SOL     OW71351   7.583   5.697   9.539  0.3478 -0.1950 -0.1044
23210SOL    HW171352   7.633   5.730   9.614 -1.3699  1.0439  0.5620
23210SOL    HW271353   7.548   5.613   9.569 -1.3923  0.8815  1.0185
23211SOL     OW71354   1.268   2.631   8.484 -0.1095 -0.3519 -0.3322
23211SOL    HW171355   1.312   2.569   8.542  1.6962  1.1693  0.0344
23211SOL    HW271356   1.227   2.694   8.544 -1.7336 -1.0233 -0.6986
23212SOL     OW71357   9.051   8.599   0.857 -0.0912  0.3965 -0.2856
23212SOL    HW171358   8.991   8.673   0.849 -0.5612  0.0205 -0.2711
23212SOL    HW271359   9.057   8.564   0.768 -0.3263  0.1020 -0.1885
23213SOL     OW71360   5.600   8.515   5.092 -0.8795  0.0722 -0.0947
23213SOL    HW171361   5.671   8.491   5.032 -1.2941 -0.5731 -0.3410
23213SOL    HW271362   5.592   8.610   5.083  1.3106  0.4868  1.4544
23214SOL     OW71363   7.559   9.499   9.415  0.2567  0.8524  0.3053
23214SOL    HW171364   7.560   9.571   9.478  0.5930 -0.6909  2.1165
23214SOL    HW271365   7.615   9.432   9.453  1.0464  0.1173 -1.9854
23215SOL     OW71366   0.226   5.994   0.252  0.1863  0.4314  0.1186
23215SOL    HW171367   0.208   5.929   0.320  1.0040  0.0809  0.0089
23215SOL    HW271368   0.156   6.059   0.262  0.0204  0.1337  0.9737
23216SOL     OW71369   2.780   8.787   0.449  0.4560 -0.0693  0.4888
23216SOL    HW171370   2.729   8.809   0.526  0.1870 -1.8412  0.8653
23216SOL    HW271371   2.729   8.719   0.405  0.4051  1.1635 -1.4870
23217SOL     OW71372   9.396   1.264   5.686  0.7423  0.6170 -0.3979
23217SOL    HW171373   9.346   1.333   5.729 -0.4794 -1.4537  1.7298
23217SOL    HW271374   9.330   1.199   5.660  1.9974 -0.7153 -0.4022
23218SOL     OW71375   3.992   2.672   8.556  0.0375 -0.2815  0.3414
23218SOL    HW171376   3.905   2.634   8.569 -0.7485  0.6680 -1.7377
23218SOL    HW271377   4.051   2.597   8.550 -0.6652 -0.9499  1.4153
23219SOL     OW71378   6.624   7.896   4.485 -0.1976 -0.1517  0.1728
23219SOL    HW171379   6.602   7.930   4.399  0.5536 -1.7659 -0.6913
23219SOL    HW271380   6.712   7.859   4.476  0.7814  1.4710  2.1811
23220SOL     OW71381   0.387   9.511   0.689  0.6335 -0.4508  0.0850
23220SOL    HW171382   0.390   9.583   0.751 -1.2039 -0.6011  0.4037
23220SOL    HW271383   0.299   9.474   0.699  0.5072 -0.9047 -2.1191
23221SOL     OW71384   4.835   5.918   6.362 -0.3065  0.1681  0.4785
23221SOL    HW171385   4.905   5.864   6.399  1.5365  3.3589  2.1405
23221SOL    HW271386   4.756   5.868   6.376  1.3722 -2.7011  0.4726
23222SOL     OW71387   5.798   8.637   8.793  0.4307 -0.3923 -0.3289
23222SOL    HW171388   5.860   8.677   8.854  0.4495  1.1021 -1.2688
23222SOL    HW271389   5.723   8.696   8.793 -0.1621 -1.1300 -0.6804
23223SOL     OW71390   5.247   0.220   3.378  0.7207 -0.0022 -0.4313
23223SOL    HW171391   5.170   0.170   3.407  0.9371  0.5835  1.2807
23223SOL    HW271392   5.276   0.267   3.456  2.1070  0.7423 -1.3455
23224SOL     OW71393   9.571   7.839   7.500 -0.2210 -0.3057  0.3358
23224SOL    HW171394   9.617   7.808   7.578 -0.2484 -2.0004 -0.2719
23224SOL    HW271395   9.640   7.851   7.434 -0.0732  1.9997  0.8149
23225SOL     OW71396   1.417   5.845   4.319  0.4002  0.4321 -0.3339
23225SOL    HW171397   1.512   5.835   4.322  0.2725 -0.9173  2.4578
23225SOL    HW271398   1.386   5.767   4.273  0.5560 -0.8929  1.6785
23226SOL     OW71399   9.391   7.720   0.155  0.0772  0.4116 -0.2725
23226SOL    HW171400   9.332   7.752   0.224  1.9751  0.2989  1.4766
23226SOL    HW271401   9.332   7.701   0.082 -2.0028  0.8295  1.1728
23227SOL     OW71402   1.613   0.694   5.417  0.2201 -0.5065 -0.0091
23227SOL    HW171403   1.665   0.680   5.496  0.7418  2.1255  0.2074
23227SOL    HW271404   1.590   0.787   5.420 -0.8682 -0.6407 -2.2993
23228SOL     OW71405   3.441   3.933   7.917  0.4457  0.5346  0.4382
23228SOL    HW171406   3.528   3.937   7.878  1.4143 -0.8938  2.2921
23228SOL    HW271407   3.434   3.845   7.953 -1.7259  0.6652  0.5068
23229SOL     OW71408   5.098   6.856   7.059  0.0739 -0.2358  0.0450
23229SOL    HW171409   5.186   6.894   7.051 -0.1914  0.2878 -0.5732
23229SOL    HW271410   5.092   6.827   7.150  1.4413 -1.6987 -0.2953
23230SOL     OW71411   1.009   7.745   9.430  0.0506  0.4219 -0.0859
23230SOL    HW171412   0.953   7.706   9.362  2.2254 -1.7563 -0.7656
23230SOL    HW271413   1.035   7.671   9.485 -0.2093  1.8758  2.1276
23231SOL     OW71414   0.478   4.119   5.594 -0.2302 -0.3368 -0.1375
23231SOL    HW171415   0.405   4.058   5.598 -1.8529  1.5092  0.7054
23231SOL    HW271416   0.550   4.073   5.636 -1.6564 -1.3673  1.3479
23232SOL     OW71417   5.648   3.613   5.170 -0.0214  0.4517 -0.1929
23232SOL    HW171418   5.662   3.613   5.264 -0.4082 -3.0504  0.0029
23232SOL    HW271419   5.706   3.544   5.137 -0.6449  0.8751 -2.3711
23233SOL     OW71420   8.278   2.915   3.036  0.1297 -0.0176  0.0090
23233SOL    HW171421   8.305   3.004   3.057 -0.8349  0.3665 -0.3374
23233SOL    HW271422   8.190   2.907   3.072  0.0304 -0.6763 -0.3578
23234SOL     OW71423   6.941   2.486   4.105  0.8880 -0.4571  0.0978
23234SOL    HW171424   7.004   2.557   4.111 -0.5568  0.7681  1.8134
23234SOL    HW271425   6.884   2.497   4.182 -1.2217 -1.6578 -1.1787
23235SOL     OW71426   6.136   3.128   2.339 -0.1369  0.0761  0.2510
23235SOL    HW171427   6.194   3.195   2.376  0.2987 -0.9653  1.5404
23235SOL    HW271428   6.061   3.176   2.306 -0.2862  1.1174  2.0474
23236SOL     OW71429   3.157   1.252   0.311 -0.0300 -0.6611  0.5769
23236SOL    HW171430   3.185   1.335   0.271  1.0458 -0.1382  2.3169
23236SOL    HW271431   3.103   1.211   0.244  1.1495  0.4607 -1.1711
23237SOL     OW71432   0.229   5.624   7.923 -0.1224  0.0578 -0.2272
23237SOL    HW171433   0.222   5.609   7.829 -0.1513 -0.5842 -0.1311
23237SOL    HW271434   0.255   5.716   7.931  1.2400 -0.2406 -0.9057
23238SOL     OW71435   0.156   8.839   2.766 -0.2739  0.1890 -0.2741
23238SOL    HW171436   0.198   8.753   2.764 -1.7273 -0.5528 -0.1950
23238SOL    HW271437   0.091   8.833   2.836  1.0870  2.1192  1.2842
23239SOL     OW71438   3.146   9.072   2.936 -0.5400 -0.2386  0.5283
23239SOL    HW171439   3.223   9.130   2.931 -0.5419 -0.2646  0.1697
23239SOL    HW271440   3.162   9.019   3.014 -0.5709  0.2913  0.8974
23240SOL     OW71441   3.276   8.014   7.378 -0.0336  0.2994  0.4809
23240SOL    HW171442   3.289   8.014   7.473  4.0406  1.2400  0.1281
23240SOL    HW271443   3.277   7.922   7.353  0.5145  0.0844  1.2451
23241SOL     OW71444   5.251   3.018   8.828  0.6710 -0.4838  0.5916
23241SOL    HW171445   5.190   3.033   8.755 -0.0658  2.7511  1.6772
23241SOL    HW271446   5.208   3.059   8.903  3.1860 -0.0983  1.9266
23242SOL     OW71447   8.843   8.800   7.839  0.3891  0.1871  0.4912
23242SOL    HW171448   8.816   8.890   7.853  0.1763  0.3112 -0.5982
23242SOL    HW271449   8.761   8.750   7.837  0.4937 -0.0009  0.9214
23243SOL     OW71450   5.674   8.175   2.563 -0.0931  0.1350  0.0121
23243SOL    HW171451   5.626   8.116   2.506 -0.2904  2.0386 -1.9273
23243SOL    HW271452   5.766   8.150   2.553 -0.2784 -0.6673  0.2560
23244SOL     OW71453   6.530   5.293   3.402  0.3143 -0.4773  0.6167
23244SOL    HW171454   6.509   5.381   3.434 -0.6905 -0.3154 -0.4417
23244SOL    HW271455   6.501   5.234   3.472 -0.1948 -0.0412  0.7774
23245SOL     OW71456   3.209   0.668   5.908 -0.1039  0.1297  0.3612
23245SOL    HW171457   3.178   0.722   5.981 -1.3611 -0.8458  0.5938
23245SOL    HW271458   3.133   0.615   5.884  0.7001 -0.5562 -0.7526
23246SOL     OW71459   5.414   8.021   3.949 -0.1180  0.1973  0.1076
23246SOL    HW171460   5.486   8.030   4.013  0.9281 -1.8062 -0.7101
23246SOL    HW271461   5.377   8.109   3.943  3.8662  2.0518 -1.2576
23247SOL     OW71462   7.491   1.993   7.883 -0.5540  0.1625 -0.4928
23247SOL    HW171463   7.525   2.025   7.966 -0.6034  0.7623 -0.6935
23247SOL    HW271464   7.531   1.907   7.871  2.3215  1.5058 -1.5377
23248SOL     OW71465   3.617   2.924   8.153 -0.2172  0.1840 -0.7159
23248SOL    HW171466   3.572   3.001   8.186  0.6379  0.2394  0.3911
23248SOL    HW271467   3.549   2.857   8.146 -0.7450  0.7030 -0.5607
23249SOL     OW71468   7.433   0.598   1.790 -0.4451 -0.2291  0.0999
23249SOL    HW171469   7.509   0.540   1.795  0.8060  1.3648  0.6173
23249SOL    HW271470   7.384   0.566   1.714  0.6726 -1.3945 -0.1758
23250SOL     OW71471   7.277   0.781   7.617  0.4706  0.9845  0.1604
23250SOL    HW171472   7.268   0.760   7.710  1.0756 -0.7796 -0.1299
23250SOL    HW271473   7.198   0.830   7.595  0.0667  0.9430  1.4799
23251SOL     OW71474   0.961   2.547   2.269  0.2034  0.5820  0.3830
23251SOL    HW171475   1.022   2.588   2.209 -0.2525  1.6516  0.6302
23251SOL    HW271476   0.892   2.511   2.213  0.7594 -0.1231  0.1468
23252SOL     OW71477   3.043   6.518   6.669 -0.0912 -0.2935 -0.1111
23252SOL    HW171478   2.959   6.507   6.623 -0.1350  0.8626 -0.3194
23252SOL    HW271479   3.074   6.604   6.642  1.2199 -0.7449 -0.1015
23253SOL     OW71480   5.685   0.054   6.650 -0.1064  0.0175  0.3009
23253SOL    HW171481   5.638   0.121   6.600 -0.9076  0.4179  1.5507
23253SOL    HW271482   5.622   0.024   6.716  0.7904 -0.7692  0.8335
23254SOL     OW71483   9.117   4.854   1.303 -0.0441 -0.1048  0.0836
23254SOL    HW171484   9.147   4.830   1.216  0.2334  0.6730 -0.0460
23254SOL    HW271485   9.135   4.948   1.310 -0.6639 -0.0180  0.7321
23255SOL     OW71486   0.203   8.035   1.273 -0.0943  0.5982 -0.6162
23255SOL    HW171487   0.165   8.113   1.234 -1.1328 -0.5096 -1.9208
23255SOL    HW271488   0.148   7.963   1.242  0.9970 -0.6895  0.3039
23256SOL     OW71489   6.935   7.054   7.673 -0.0686 -0.2568  0.4419
23256SOL    HW171490   6.979   7.138   7.687 -0.2073 -0.1416  0.1898
23256SOL    HW271491   6.920   7.020   7.761  0.3814 -0.2220  0.5342
23257SOL     OW71492   7.575   2.400   8.984  0.1988  0.6311 -0.1381
23257SOL    HW171493   7.624   2.371   9.061 -0.6499 -1.2367 -0.2252
23257SOL    HW271494   7.483   2.398   9.012 -0.1457 -0.3165 -1.2293
23258SOL     OW71495   6.838   8.896   4.235  0.3567 -0.5306 -0.1553
23258SOL    HW171496   6.860   8.919   4.325 -0.8290  0.7300 -0.1561
23258SOL    HW271497   6.858   8.975   4.184  0.1130 -0.9052 -0.8538
23259SOL     OW71498   2.033   3.686   9.374  0.4747  0.3540 -0.5921
23259SOL    HW171499   1.958   3.630   9.392  1.4018 -0.4875  0.8744
23259SOL    HW271500   2.054   3.725   9.459 -0.0138  2.8306 -1.5198
23260SOL     OW71501   4.251   5.070   1.918  0.1561  0.2643 -0.4217
23260SOL    HW171502   4.157   5.069   1.898  0.2263  0.0777 -0.7489
23260SOL    HW271503   4.291   5.111   1.841  0.4534 -0.6709 -0.7738
23261SOL     OW71504   0.937   6.573   2.828  0.2261 -0.4611  0.1450
23261SOL    HW171505   0.862   6.633   2.826  0.9677  0.5245  0.9898
23261SOL    HW271506   0.900   6.488   2.803 -0.7058  0.4769 -1.9206
23262SOL     OW71507   2.236   6.328   3.135  0.5278  0.0114 -0.3578
23262SOL    HW171508   2.298   6.333   3.208  1.4953  0.6831 -1.1929
23262SOL    HW271509   2.152   6.349   3.175  0.8536 -0.7420  0.7740
23263SOL     OW71510   6.144   8.518   4.183  0.0020  0.0479 -0.3424
23263SOL    HW171511   6.064   8.490   4.229  1.3189  1.0053  2.7907
23263SOL    HW271512   6.210   8.454   4.209  1.1939  1.5815  0.5439
23264SOL     OW71513   4.645   3.155   3.542 -0.4541 -0.1456 -0.3380
23264SOL    HW171514   4.600   3.108   3.472 -0.2412  0.6873 -1.0373
23264SOL    HW271515   4.658   3.243   3.508  0.2715  0.0765  0.4847
23265SOL     OW71516   7.757   3.115   2.823 -0.5553 -0.4383 -0.4682
23265SOL    HW171517   7.698   3.187   2.848 -0.7332 -1.1076  1.1675
23265SOL    HW271518   7.845   3.154   2.826 -0.7671  0.1136 -1.1826
23266SOL     OW71519   4.227   3.969   1.239 -0.2484  0.5515  0.4202
23266SOL    HW171520   4.144   3.985   1.283  0.2701  1.7998  0.9985
23266SOL    HW271521   4.282   4.044   1.263  0.4581  0.6520 -1.3770
23267SOL     OW71522   7.278   3.109   2.638  0.1804 -0.0292  0.1229
23267SOL    HW171523   7.222   3.037   2.608  1.9940 -2.0563  1.3277
23267SOL    HW271524   7.344   3.119   2.569  0.1345  0.2682  0.1180
23268SOL     OW71525   8.699   7.979   9.486  0.6618  0.8598  0.3891
23268SOL    HW171526   8.631   7.992   9.419  0.5703 -0.3437  0.2178
23268SOL    HW271527   8.653   7.994   9.569 -0.9270 -3.4468  0.5494
23269SOL     OW71528   1.206   1.664   6.609 -0.5042  0.5067 -0.1448
23269SOL    HW171529   1.190   1.632   6.520 -0.9564 -1.7922  0.6818
23269SOL    HW271530   1.298   1.688   6.610  0.2798 -2.2065 -0.5203
23270SOL     OW71531   2.293   9.004   4.536  0.6525 -0.2109  0.3951
23270SOL    HW171532   2.335   9.089   4.527  1.6698 -0.7456 -0.1223
23270SOL    HW271533   2.201   9.020   4.516  0.8755  0.7204  0.0610
23271SOL     OW71534   8.024   0.829   3.120  0.1628  0.3628  0.2337
23271SOL    HW171535   8.079   0.827   3.042  0.0139 -0.3715  0.1425
23271SOL    HW271536   7.938   0.856   3.088 -0.3705 -1.6772 -0.1748
23272SOL     OW71537   5.547   8.102   5.099  0.1886  0.3308  0.8651
23272SOL    HW171538   5.595   8.024   5.073 -1.5389 -1.0196  1.5292
23272SOL    HW271539   5.582   8.125   5.185  0.3069 -0.0860  0.9300
23273SOL     OW71540   6.607   7.397   6.437  0.5735 -0.4577 -0.1727
23273SOL    HW171541   6.702   7.384   6.435  0.7090  0.2455  0.8987
23273SOL    HW271542   6.588   7.422   6.527 -0.5318  0.1494 -0.5520
23274SOL     OW71543   6.316   4.766   0.161  0.2144 -0.0581 -0.4770
23274SOL    HW171544   6.269   4.688   0.130 -1.3172  1.2910 -1.7288
23274SOL    HW271545   6.290   4.835   0.101  0.5167  1.7407  1.3483
23275SOL     OW71546   7.902   0.750   7.265 -0.1208  0.0274 -0.3752
23275SOL    HW171547   7.921   0.657   7.254 -0.2943  0.0190 -0.6131
23275SOL    HW271548   7.970   0.781   7.324 -0.4961 -0.4156  0.3130
23276SOL     OW71549   9.018   5.183   0.491  0.2618  0.2519 -0.5004
23276SOL    HW171550   9.047   5.239   0.563  1.7678  0.3031 -1.1071
23276SOL    HW271551   9.093   5.127   0.472 -1.5293 -2.8092  0.7853
23277SOL     OW71552   8.996   4.183   5.770  0.1711  0.1379  0.0300
23277SOL    HW171553   8.946   4.199   5.851  1.1641  1.3686  0.4179
23277SOL    HW271554   9.006   4.088   5.768 -2.1426 -0.1845 -0.0519
23278SOL     OW71555   0.086   5.391   4.264  0.3896  0.0892 -0.4646
23278SOL    HW171556   0.054   5.344   4.186  0.2229 -0.5691 -0.0075
23278SOL    HW271557   0.181   5.382   4.260  0.2946 -1.9918  0.6288
23279SOL     OW71558   1.118   9.164   2.114 -0.3034 -0.3680  1.3138
23279SOL    HW171559   1.142   9.160   2.207 -0.3515  1.6269  1.4497
23279SOL    HW271560   1.199   9.189   2.070 -0.4853 -0.4934  0.9061
23280SOL     OW71561   1.429   2.372   2.147 -0.3134  0.6608  0.0612
23280SOL    HW171562   1.439   2.464   2.123  0.1605  0.9638  1.3725
23280SOL    HW271563   1.362   2.372   2.216  0.9506  0.2570  1.3461
23281SOL     OW71564   4.915   9.181   3.284 -0.4283  0.0612 -0.6721
23281SOL    HW171565   4.908   9.100   3.235 -0.3525 -0.6495  0.4484
23281SOL    HW271566   4.871   9.164   3.367  2.2147  0.0806  0.8627
23282SOL     OW71567   8.480   7.608   8.478 -0.0942  0.3178  0.3150
23282SOL    HW171568   8.396   7.653   8.473  0.1649  1.3535  3.1065
23282SOL    HW271569   8.485   7.576   8.568  0.9654 -3.0276 -0.7701
23283SOL     OW71570   8.583   6.398   2.628  0.4585 -0.5312  0.3020
23283SOL    HW171571   8.491   6.383   2.649  0.3653 -1.5845 -0.7631
23283SOL    HW271572   8.613   6.461   2.694 -0.9684 -0.3158  0.7699
23284SOL     OW71573   4.220   4.587   2.430  0.3751  0.1672  0.5651
23284SOL    HW171574   4.236   4.600   2.337  0.0882  0.2861  0.5321
23284SOL    HW271575   4.183   4.670   2.460 -1.5692 -0.5610  0.3307
23285SOL     OW71576   4.849   4.552   0.633  0.5520  0.4669 -0.4143
23285SOL    HW171577   4.928   4.501   0.615 -0.7948 -0.9575 -2.8156
23285SOL    HW271578   4.830   4.597   0.551 -1.4767  0.2381 -0.1218
23286SOL     OW71579   5.851   1.829   7.722  0.3941  0.7584  0.3311
23286SOL    HW171580   5.774   1.884   7.738 -0.1347  0.1306 -0.0176
23286SOL    HW271581   5.924   1.891   7.717 -0.1045  1.3731  0.5449
23287SOL     OW71582   6.796   2.030   9.577  0.1395 -0.0586  0.1398
23287SOL    HW171583   6.762   1.948   9.541  1.8157 -0.7577  0.0550
23287SOL    HW271584   6.819   2.082   9.499  1.6494 -0.6456  0.1811
23288SOL     OW71585   8.777   4.857   9.598  0.2369  0.4392  0.1672
23288SOL    HW171586   8.764   4.799   9.524  2.1397 -0.2973  0.3589
23288SOL    HW271587   8.794   4.943   9.559  0.9526  0.1118 -0.2523
23289SOL     OW71588   3.928   7.500   2.161 -0.2515 -0.2752  0.1411
23289SOL    HW171589   3.847   7.536   2.195 -0.6916  0.4868 -1.5940
23289SOL    HW271590   3.977   7.576   2.130  0.8268 -0.7840  0.5479
23290SOL     OW71591   1.593   5.999   3.396 -0.3756  0.3093 -0.6473
23290SOL    HW171592   1.547   5.916   3.405  0.3216 -0.0563 -0.3587
23290SOL    HW271593   1.552   6.042   3.321 -1.8949  0.4714  0.2388
23291SOL     OW71594   2.292   9.404   2.433 -0.3696 -0.0734  0.5706
23291SOL    HW171595   2.384   9.385   2.415 -0.1367  0.4531  1.1654
23291SOL    HW271596   2.251   9.318   2.441 -0.1100 -0.3131 -0.5719
23292SOL     OW71597   1.533   1.970   7.446  0.2326 -0.2329  0.0198
23292SOL    HW171598   1.451   1.973   7.397  0.5560  1.6551 -0.4843
23292SOL    HW271599   1.584   2.043   7.411  1.9746 -1.1110  0.6159
23293SOL     OW71600   6.514   5.682   5.220  0.6821 -0.0162 -0.5301
23293SOL    HW171601   6.525   5.773   5.246  0.0714 -0.2595  0.6278
23293SOL    HW271602   6.426   5.678   5.181  1.4817  0.2897 -2.5025
23294SOL     OW71603   8.455   1.300   5.610 -0.7000  0.4782 -0.3092
23294SOL    HW171604   8.496   1.218   5.641 -0.1025  1.1010  0.6051
23294SOL    HW271605   8.489   1.311   5.521 -0.0293  0.2134 -0.0974
23295SOL     OW71606   3.918   1.994   0.410 -0.3035 -0.4087 -0.0685
23295SOL    HW171607   3.898   2.087   0.420 -2.3720 -0.6564 -1.4332
23295SOL    HW271608   3.833   1.952   0.397  0.5096 -2.6127  1.1896
23296SOL     OW71609   7.463   0.361   1.599  0.5847  0.9775 -0.0312
23296SOL    HW171610   7.529   0.291   1.601  0.8292  1.2066  1.7559
23296SOL    HW271611   7.394   0.330   1.658 -0.5546  1.1127 -1.2487
23297SOL     OW71612   7.137   1.260   3.901  0.3096  0.1349 -0.1215
23297SOL    HW171613   7.056   1.272   3.851  1.3661 -0.7804 -2.1813
23297SOL    HW271614   7.144   1.165   3.912  0.7803  0.2498  0.6123
23298SOL     OW71615   8.051   9.385   0.124 -0.1372 -0.2570  0.4771
23298SOL    HW171616   8.065   9.320   0.193  0.3421  0.8127  1.4177
23298SOL    HW271617   8.064   9.337   0.043  0.2490 -1.3210  1.1475
23299SOL     OW71618   6.226   5.350   5.885  0.7465 -0.3015 -0.3118
23299SOL    HW171619   6.230   5.297   5.806 -2.1350 -1.9775  0.5150
23299SOL    HW271620   6.314   5.385   5.895  1.6256 -1.3590 -3.3202
23300SOL     OW71621   1.273   1.168   1.292  0.3624 -0.2150 -0.5478
23300SOL    HW171622   1.314   1.143   1.375  0.5753 -1.2172 -0.9416
23300SOL    HW271623   1.343   1.212   1.243  0.1849  0.5436 -0.1322
23301SOL     OW71624   4.782   7.901   7.472 -0.0126 -0.0927  0.0993
23301SOL    HW171625   4.836   7.927   7.546  0.0994  0.5556 -0.1994
23301SOL    HW271626   4.753   7.812   7.493  0.1661  0.0146  0.8274
23302SOL     OW71627   7.491   6.183   1.267 -0.1314 -0.6067 -0.6184
23302SOL    HW171628   7.534   6.264   1.240 -0.2022 -0.2163  0.3927
23302SOL    HW271629   7.545   6.114   1.229  0.0634 -0.0876 -1.2999
23303SOL     OW71630   0.948   4.396   2.448 -0.1185 -0.3693 -0.1430
23303SOL    HW171631   1.005   4.426   2.377 -0.0618 -0.1710 -0.0163
23303SOL    HW271632   1.006   4.386   2.523 -0.0813 -1.1145 -0.2622
23304SOL     OW71633   0.486   1.686   8.825  0.2792  0.0110  0.1548
23304SOL    HW171634   0.425   1.755   8.799  0.6215 -0.0341 -0.7800
23304SOL    HW271635   0.442   1.604   8.800  0.2278 -0.0854  0.5390
23305SOL     OW71636   8.954   1.927   3.756  0.0369  0.5935  0.9628
23305SOL    HW171637   9.025   1.870   3.727 -0.7635  0.2167 -0.3060
23305SOL    HW271638   8.976   1.948   3.847  0.2784 -1.8749  1.5406
23306SOL     OW71639   8.178   3.956   5.432  0.2303  0.0437 -0.4018
23306SOL    HW171640   8.138   4.038   5.403 -0.4210 -0.8582 -2.1351
23306SOL    HW271641   8.225   3.923   5.355 -0.0035 -1.5139  0.0927
23307SOL     OW71642   2.141   2.072   8.321 -0.7595  0.0881  0.0693
23307SOL    HW171643   2.194   2.134   8.371  0.3725  0.3082 -1.3365
23307SOL    HW271644   2.058   2.068   8.369 -0.5453  1.9983  0.7016
23308SOL     OW71645   8.262   4.974   2.156 -0.1933 -0.1754 -0.0514
23308SOL    HW171646   8.328   4.906   2.171  1.1064  0.4668 -2.3838
23308SOL    HW271647   8.183   4.924   2.134  0.3103 -0.9578 -0.1615
23309SOL     OW71648   0.938   1.705   9.146  0.2650 -0.6022  0.0642
23309SOL    HW171649   0.879   1.719   9.072  0.1902 -4.6494 -0.8760
23309SOL    HW271650   0.888   1.736   9.222 -0.5426  1.5942 -1.2826
23310SOL     OW71651   3.907   4.040   4.948 -0.3272 -0.8033  0.7339
23310SOL    HW171652   3.916   4.094   4.869  0.6215 -2.7218 -0.5441
23310SOL    HW271653   3.899   4.103   5.019  0.3765  1.0088 -0.7105
23311SOL     OW71654   6.095   3.183   5.831 -0.0134  0.3708  0.1003
23311SOL    HW171655   6.090   3.276   5.851  2.4291  0.1747  2.1561
23311SOL    HW271656   6.085   3.139   5.915 -0.6778 -1.2460 -0.7687
23312SOL     OW71657   1.061   5.408   9.687 -0.0088  0.0659 -0.3911
23312SOL    HW171658   1.132   5.466   9.662 -0.2558  0.2156 -0.7678
23312SOL    HW271659   1.031   5.440   9.772 -0.2745  0.6205 -0.6866
23313SOL     OW71660   9.173   8.806   4.212 -0.3454  0.2635  0.1317
23313SOL    HW171661   9.136   8.837   4.295 -0.6020 -0.0651  0.1360
23313SOL    HW271662   9.264   8.785   4.234 -0.4293  0.1209  0.3420
23314SOL     OW71663   9.693   0.410   4.071 -0.6196 -0.0696  0.0394
23314SOL    HW171664   9.654   0.394   3.985  0.9348 -1.6028 -0.4369
23314SOL    HW271665   9.648   0.349   4.130  0.6020 -1.4698 -0.4094
23315SOL     OW71666   6.502   1.494   9.648  0.1665  0.0344 -0.1209
23315SOL    HW171667   6.423   1.456   9.687  0.7136  0.6297  1.6326
23315SOL    HW271668   6.526   1.565   9.707  1.7020  0.2226 -0.9298
23316SOL     OW71669   2.650   6.768   5.255 -0.2109 -0.0528  0.2437
23316SOL    HW171670   2.631   6.856   5.224 -1.5576 -0.0618  0.9446
23316SOL    HW271671   2.692   6.781   5.340 -1.2432 -0.0662  0.7779
23317SOL     OW71672   2.855   8.732   1.848  0.4404  0.0993  0.3223
23317SOL    HW171673   2.817   8.660   1.799 -2.0353 -0.1454  2.3721
23317SOL    HW271674   2.810   8.810   1.815 -1.6692 -0.1275  2.3702
23318SOL     OW71675   4.194   5.518   3.966  0.3756 -0.6310  0.3992
23318SOL    HW171676   4.174   5.496   4.057  1.9451 -1.6215  0.5384
23318SOL    HW271677   4.254   5.592   3.972 -0.6220  0.2352  0.0900
23319SOL     OW71678   6.071   4.072   3.602 -0.4610  0.6065 -0.5012
23319SOL    HW171679   6.016   4.150   3.608 -0.1584  0.7952 -0.1469
23319SOL    HW271680   6.161   4.106   3.599 -0.2615  0.2437  0.7785
23320SOL     OW71681   5.140   4.012   6.687  0.1999 -0.4663  0.4031
23320SOL    HW171682   5.118   3.973   6.772 -1.6769 -2.4060 -0.8794
23320SOL    HW271683   5.103   4.100   6.691  1.0688 -0.1327  1.9552
23321SOL     OW71684   6.910   3.790   4.387  0.0979  0.5169  0.3194
23321SOL    HW171685   6.900   3.696   4.402  0.3219  0.5200  0.4953
23321SOL    HW271686   6.995   3.811   4.424 -0.3810  0.9740  1.1965
23322SOL     OW71687   8.562   2.936   4.821 -0.0291  0.2867 -0.2857
23322SOL    HW171688   8.597   2.957   4.735  1.7453 -3.2783 -0.6072
23322SOL    HW271689   8.620   2.868   4.855 -2.5718 -0.8146  2.3092
23323SOL     OW71690   5.823   1.746   0.689 -0.3041  0.2192  0.2130
23323SOL    HW171691   5.734   1.710   0.688  0.2555 -1.2447  1.2022
23323SOL    HW271692   5.837   1.776   0.599 -0.8489 -1.9363 -0.6436
23324SOL     OW71693   4.174   7.940   6.608  0.3570  0.3640  0.5162
23324SOL    HW171694   4.256   7.912   6.649  1.3539  1.0508 -0.8937
23324SOL    HW271695   4.192   7.938   6.514 -0.9533  1.3903  0.2010
23325SOL     OW71696   6.093   5.634   9.077 -0.2786 -0.9528 -0.2914
23325SOL    HW171697   6.094   5.630   9.173 -0.8849 -0.5922 -0.2671
23325SOL    HW271698   6.002   5.618   9.053 -0.2506 -0.4042 -0.7791
23326SOL     OW71699   8.867   2.995   0.415 -0.1699  0.4393  0.0513
23326SOL    HW171700   8.780   3.032   0.429 -0.8509 -1.1558  0.2442
23326SOL    HW271701   8.856   2.936   0.341  0.7399  0.1549  0.1352
23327SOL     OW71702   2.341   3.783   0.947 -0.3733 -0.5236  0.5963
23327SOL    HW171703   2.273   3.808   1.009 -1.1254 -1.0599 -0.0004
23327SOL    HW271704   2.421   3.781   1.000 -1.1168 -1.7489  1.7515
23328SOL     OW71705   2.565   1.233   5.223  0.3244 -0.0437 -0.2487
23328SOL    HW171706   2.607   1.242   5.137  0.1242 -0.8848 -0.4411
23328SOL    HW271707   2.492   1.294   5.220  1.0086  0.8031 -0.2298
23329SOL     OW71708   2.025   0.329   6.575  0.1048  0.1025  0.0392
23329SOL    HW171709   2.092   0.395   6.593  1.6068 -1.1404 -0.7813
23329SOL    HW271710   1.976   0.322   6.657  0.0884  1.9809  0.2406
23330SOL     OW71711   9.172   8.808   1.261  0.1030 -0.2024 -0.1722
23330SOL    HW171712   9.125   8.862   1.325  0.4136 -0.5441  0.3482
23330SOL    HW271713   9.244   8.768   1.310 -0.8183 -2.0577 -0.2556
23331SOL     OW71714   0.462   2.943   5.784 -0.3025 -0.0017  0.7058
23331SOL    HW171715   0.441   2.884   5.712 -0.2393 -0.6056  1.1641
23331SOL    HW271716   0.427   3.028   5.758  0.8993  0.1221 -0.6326
23332SOL     OW71717   9.272   4.881   8.256 -0.0981  0.4430  0.1323
23332SOL    HW171718   9.213   4.955   8.243 -0.0076  0.4690 -0.1410
23332SOL    HW271719   9.357   4.912   8.224 -0.2726 -0.1109 -0.9181
23333SOL     OW71720   8.998   9.385   6.363  0.5043 -0.1862  0.5313
23333SOL    HW171721   9.051   9.404   6.440  0.5116  0.8749  0.2716
23333SOL    HW271722   9.001   9.289   6.356 -0.5104 -0.4296  2.5584
23334SOL     OW71723   8.183   4.653   5.951  0.1113 -0.4782 -0.1282
23334SOL    HW171724   8.266   4.606   5.957 -0.1768 -1.2893 -1.7548
23334SOL    HW271725   8.174   4.698   6.035  1.2068 -2.0035  0.8572
23335SOL     OW71726   6.700   8.168   9.043 -0.3627 -0.6926 -0.3775
23335SOL    HW171727   6.726   8.221   8.968 -1.6895  1.1760  0.4058
23335SOL    HW271728   6.607   8.150   9.030 -0.8553  0.4309  1.1726
23336SOL     OW71729   7.988   1.841   1.107  0.1139  0.4126  0.0731
23336SOL    HW171730   7.995   1.766   1.048  0.4532  0.4436  0.0719
23336SOL    HW271731   7.949   1.910   1.054  0.8883  0.5989 -0.2713
23337SOL     OW71732   6.693   2.752   6.607  0.0650  0.0409 -0.4502
23337SOL    HW171733   6.709   2.658   6.609 -1.1252 -0.1648  0.5902
23337SOL    HW271734   6.705   2.776   6.515  1.5805 -0.8847 -0.5208
23338SOL     OW71735   0.176   7.569   9.077  0.7097  0.7736  0.2219
23338SOL    HW171736   0.127   7.489   9.057  2.3890 -0.1586 -0.3934
23338SOL    HW271737   0.267   7.539   9.088  0.9317  2.1793  2.9192
23339SOL     OW71738   1.648   2.403   2.383  0.1212  0.3746  0.4320
23339SOL    HW171739   1.569   2.442   2.421 -0.8873 -1.1265 -0.0458
23339SOL    HW271740   1.635   2.412   2.288  0.1254 -0.5774  0.3290
23340SOL     OW71741   9.471   1.818   0.270  0.2295 -0.3338  0.0350
23340SOL    HW171742   9.463   1.753   0.201  0.4708  0.6135 -0.9038
23340SOL    HW271743   9.508   1.895   0.227 -0.0589  0.4370  1.1158
23341SOL     OW71744   0.541   4.275   9.440 -0.3575  0.3350 -0.0843
23341SOL    HW171745   0.465   4.333   9.439 -0.1240  0.6443 -0.8347
23341SOL    HW271746   0.598   4.311   9.508 -0.6839  0.3757  0.1628
23342SOL     OW71747   5.903   4.052   4.930 -0.1986  0.3159  0.5043
23342SOL    HW171748   5.902   4.088   5.019 -2.2750  0.5863  0.4257
23342SOL    HW271749   5.848   4.112   4.880  0.6901 -0.0016 -0.9232
23343SOL     OW71750   3.184   0.949   7.318  0.0778  0.0032 -0.1139
23343SOL    HW171751   3.215   0.936   7.408  0.3905  0.6692 -0.1158
23343SOL    HW271752   3.244   1.014   7.282  0.4122 -0.8058 -1.0564
23344SOL     OW71753   7.086   6.456   8.217 -0.0345 -0.1504 -0.1024
23344SOL    HW171754   7.016   6.503   8.172  0.3181 -0.5189 -1.0512
23344SOL    HW271755   7.165   6.474   8.166  0.3236 -0.7913  0.2121
23345SOL     OW71756   7.249   3.397   3.728 -0.3475 -0.1310  0.1058
23345SOL    HW171757   7.318   3.388   3.663  0.8613 -0.8339  1.4234
23345SOL    HW271758   7.235   3.491   3.735 -0.8236 -0.0552 -1.4473
23346SOL     OW71759   8.902   0.409   8.809  0.2970 -0.2201  0.4474
23346SOL    HW171760   8.875   0.318   8.819  0.3754 -0.5189 -1.6858
23346SOL    HW271761   8.991   0.412   8.845  0.5528 -1.1526 -0.0905
23347SOL     OW71762   2.420   5.884   2.631  0.5296  0.2767 -0.1801
23347SOL    HW171763   2.426   5.944   2.706  1.0509  1.5480 -1.2111
23347SOL    HW271764   2.511   5.859   2.614  0.4158  0.0510 -0.4486
23348SOL     OW71765   6.078   1.481   4.620 -0.0153 -0.3161  0.0602
23348SOL    HW171766   6.043   1.569   4.634 -0.3165 -0.3811 -0.2765
23348SOL    HW271767   6.137   1.467   4.694 -0.3810 -0.0429  0.4112
23349SOL     OW71768   4.505   8.273   2.406 -0.6187 -0.1692  0.8662
23349SOL    HW171769   4.575   8.306   2.350 -0.4712 -0.3684  0.9340
23349SOL    HW271770   4.425   8.286   2.354 -0.2384 -3.0282 -0.6968
23350SOL     OW71771   5.577   5.081   4.384  0.2911 -0.2577 -0.4043
23350SOL    HW171772   5.486   5.060   4.401  0.4155 -1.1546 -0.8099
23350SOL    HW271773   5.622   4.996   4.381  1.5575  0.2131  2.0712
23351SOL     OW71774   7.683   1.336   5.053  0.3492  0.2582  0.2134
23351SOL    HW171775   7.665   1.421   5.092  1.5886  0.3715  0.5815
23351SOL    HW271776   7.759   1.351   4.996  0.2147 -0.4719 -0.1819
23352SOL     OW71777   0.817   9.009   7.868 -0.0947  0.4512  0.5825
23352SOL    HW171778   0.740   9.064   7.848 -0.9933 -1.7805 -3.0648
23352SOL    HW271779   0.889   9.051   7.820  0.5488  1.3713  2.2825
23353SOL     OW71780   1.973   0.647   6.838  0.6741 -0.3768  0.3276
23353SOL    HW171781   1.981   0.674   6.930  0.3418  1.0738 -0.0505
23353SOL    HW271782   2.062   0.627   6.811  1.2577  2.1485  0.1244
23354SOL     OW71783   7.567   5.461   2.417  0.2918 -0.3964  0.1746
23354SOL    HW171784   7.561   5.490   2.326  0.3417 -1.5990 -0.2239
23354SOL    HW271785   7.619   5.529   2.461  0.5903 -0.0022 -0.7715
23355SOL     OW71786   8.281   8.394   0.560 -0.0158 -0.1780  0.0564
23355SOL    HW171787   8.195   8.361   0.584  0.1916 -0.1957  0.8023
23355SOL    HW271788   8.274   8.415   0.467 -1.2318  1.0887  0.4049
23356SOL     OW71789   6.721   4.876   3.930 -0.7595 -0.0071 -0.3101
23356SOL    HW171790   6.805   4.921   3.940 -0.3850 -0.7234 -0.2001
23356SOL    HW271791   6.682   4.914   3.851  0.3622 -0.7591 -1.2555
23357SOL     OW71792   4.182   5.634   0.961  0.3849 -0.0362 -0.1808
23357SOL    HW171793   4.237   5.603   0.889  0.2823 -0.9903  0.1289
23357SOL    HW271794   4.101   5.582   0.953 -0.9391  2.0552 -1.2474
23358SOL     OW71795   3.516   1.572   2.591 -0.2775  0.6666 -0.3935
23358SOL    HW171796   3.509   1.613   2.677 -1.0246 -0.2710  0.0027
23358SOL    HW271797   3.594   1.517   2.596 -0.7862 -0.0333 -0.0294
23359SOL     OW71798   7.790   5.822   3.969 -0.1755 -0.2984  0.2513
23359SOL    HW171799   7.760   5.732   3.978 -0.8339 -0.0447  0.7362
23359SOL    HW271800   7.885   5.816   3.964 -0.1793 -0.9816  0.8579
23360SOL     OW71801   0.429   2.429   2.190  0.4418 -0.2158  0.4488
23360SOL    HW171802   0.477   2.482   2.253  2.3357 -1.0974 -0.1927
23360SOL    HW271803   0.379   2.368   2.244 -0.0192  0.7225  1.1281
23361SOL     OW71804   9.291   1.646   4.795  0.4495  0.2520 -0.3367
23361SOL    HW171805   9.260   1.637   4.885 -0.0623  0.7936 -0.4542
23361SOL    HW271806   9.229   1.596   4.742 -0.6805  1.8951 -0.6519
23362SOL     OW71807   8.896   5.172   3.987 -0.1854  0.1818  0.0773
23362SOL    HW171808   8.943   5.091   3.967  0.6107  0.9138 -1.1120
23362SOL    HW271809   8.804   5.145   3.996 -0.4625 -0.4775 -3.3493
23363SOL     OW71810   7.730   4.324   9.546 -0.2020  0.8548 -0.2168
23363SOL    HW171811   7.640   4.338   9.576 -0.0869  1.4043 -0.1280
23363SOL    HW271812   7.783   4.333   9.625 -0.1549 -0.5354 -0.0604
23364SOL     OW71813   2.838   1.706   3.300  0.4306 -1.1355 -0.5176
23364SOL    HW171814   2.853   1.771   3.232  1.6573 -0.1622  0.6480
23364SOL    HW271815   2.925   1.679   3.328  0.0452  0.1588  2.2189
23365SOL     OW71816   9.186   0.634   9.452  0.7289  0.5030 -0.4663
23365SOL    HW171817   9.273   0.601   9.477  0.9458  0.5710 -1.0979
23365SOL    HW271818   9.189   0.638   9.356 -0.3069 -0.4022 -0.5536
23366SOL     OW71819   6.368   3.821   0.983  0.2987 -0.1851 -0.4269
23366SOL    HW171820   6.418   3.881   1.039  1.9915  0.5962 -2.6163
23366SOL    HW271821   6.286   3.807   1.030  0.9012  1.8075  1.3888
23367SOL     OW71822   6.765   1.173   3.153 -0.0267  0.0691  0.1572
23367SOL    HW171823   6.858   1.196   3.152  0.5485 -2.0303 -0.5919
23367SOL    HW271824   6.751   1.132   3.238 -0.1337 -0.0554  0.0800
23368SOL     OW71825   2.207   4.428   6.762  1.0877 -0.4426 -0.3673
23368SOL    HW171826   2.260   4.381   6.827  0.0722 -0.3636  0.5463
23368SOL    HW271827   2.124   4.446   6.807 -0.0342 -1.2510 -2.0072
23369SOL     OW71828   1.803   0.188   0.428 -0.0140 -0.0278  0.1831
23369SOL    HW171829   1.860   0.137   0.370 -0.1551  0.3420 -0.2820
23369SOL    HW271830   1.859   0.207   0.504  0.6490  0.7421 -0.4814
23370SOL     OW71831   5.119   3.567   6.642  0.0632  0.6492 -0.0921
23370SOL    HW171832   5.083   3.484   6.673 -0.9364  1.5347  1.2323
23370SOL    HW271833   5.077   3.581   6.557  1.4658 -0.9434 -1.1038
23371SOL     OW71834   0.241   9.289   3.704 -0.1309  0.6359 -0.5984
23371SOL    HW171835   0.202   9.360   3.755 -0.4160  0.6520 -0.8395
23371SOL    HW271836   0.171   9.261   3.645 -0.0037  0.1849 -0.5329
23372SOL     OW71837   9.278   1.503   3.146 -0.0395  0.2274 -0.2373
23372SOL    HW171838   9.326   1.445   3.206  1.7876  2.2067  0.3594
23372SOL    HW271839   9.205   1.450   3.114  0.7482 -1.9248  1.2972
23373SOL     OW71840   7.813   0.124   8.865 -0.2149  0.0414  0.3310
23373SOL    HW171841   7.880   0.136   8.932  0.4089  0.2535 -0.3225
23373SOL    HW271842   7.732   0.154   8.907  0.3295  1.0843  0.6815
23374SOL     OW71843   4.890   0.595   3.807  0.6677 -0.3366  0.2054
23374SOL    HW171844   4.862   0.509   3.775 -0.1470  0.0228 -0.0948
23374SOL    HW271845   4.908   0.582   3.900  0.8833 -0.9050  0.0886
23375SOL     OW71846   1.877   3.721   8.421 -0.2929 -0.1945 -0.1454
23375SOL    HW171847   1.829   3.736   8.502  1.4292 -0.7939  1.0351
23375SOL    HW271848   1.901   3.809   8.391  0.9438 -0.0437  1.2088
23376SOL     OW71849   3.886   8.239   5.550 -0.1012  0.3087  0.4293
23376SOL    HW171850   3.973   8.202   5.566 -0.1761  0.1457  0.4597
23376SOL    HW271851   3.827   8.164   5.554 -0.2025  0.3658  0.0519
23377SOL     OW71852   2.061   0.341   1.131  0.1964 -0.6925 -0.0059
23377SOL    HW171853   2.112   0.267   1.162  2.1197  1.1415  1.4767
23377SOL    HW271854   2.067   0.406   1.201 -2.3545  0.4887 -0.7505
23378SOL     OW71855   2.522   4.896   8.025  0.8232 -0.2318 -0.0637
23378SOL    HW171856   2.615   4.884   8.006  0.6511 -1.3966 -0.2568
23378SOL    HW271857   2.488   4.807   8.032 -0.2411  0.1847  0.2022
23379SOL     OW71858   2.683   2.285   6.038  0.6206  0.3990 -0.5301
23379SOL    HW171859   2.612   2.348   6.054 -0.5271 -0.9858  0.0615
23379SOL    HW271860   2.650   2.202   6.073  1.2204 -1.0216 -3.0594
23380SOL     OW71861   4.730   0.836   5.535 -0.1578 -0.1517  0.3494
23380SOL    HW171862   4.812   0.824   5.583  0.0989  2.1109  0.6050
23380SOL    HW271863   4.668   0.778   5.580  0.5618  0.3947  2.1649
23381SOL     OW71864   3.989   9.378   4.458 -0.2947  0.0254 -0.3463
23381SOL    HW171865   4.061   9.315   4.451 -0.0674  0.1261  0.9014
23381SOL    HW271866   3.932   9.356   4.384  0.3231 -0.9456 -0.5647
23382SOL     OW71867   6.422   1.782   5.207  0.1204 -0.6446  0.0496
23382SOL    HW171868   6.495   1.727   5.180 -0.3757 -1.2530 -0.0805
23382SOL    HW271869   6.438   1.801   5.299  0.6261 -0.4818 -0.0733
23383SOL     OW71870   0.324   0.275   0.750 -0.0166 -1.0239 -0.0447
23383SOL    HW171871   0.353   0.366   0.745  2.0061 -1.6327 -0.4766
23383SOL    HW271872   0.402   0.227   0.780 -0.7358 -2.7343 -0.7935
23384SOL     OW71873   5.831   9.437   4.557 -0.7141 -0.0906 -0.3250
23384SOL    HW171874   5.786   9.447   4.641  0.2276 -2.5686  0.5734
23384SOL    HW271875   5.900   9.503   4.558 -0.5155 -0.2978  1.0104
23385SOL     OW71876   3.777   7.976   9.258 -0.4341 -0.6764 -0.0791
23385SOL    HW171877   3.688   7.942   9.245 -0.6121 -0.1190 -0.3530
23385SOL    HW271878   3.795   7.962   9.351 -1.0411 -0.2421  0.1069
23386SOL     OW71879   5.281   9.494   1.503  0.6912  0.1693 -0.1698
23386SOL    HW171880   5.288   9.549   1.424 -0.1039 -0.1790 -0.5012
23386SOL    HW271881   5.370   9.463   1.519  0.9649  0.7135 -0.5895
23387SOL     OW71882   1.414   6.943   0.220 -0.3330  0.3825 -0.2114
23387SOL    HW171883   1.431   6.906   0.307  1.3833  0.0970 -0.6367
23387SOL    HW271884   1.501   6.962   0.185 -1.0412  1.4228 -1.4827
23388SOL     OW71885   0.740   6.379   4.316  0.2950 -0.1481  0.8049
23388SOL    HW171886   0.797   6.352   4.387 -1.1636 -1.9660  1.3676
23388SOL    HW271887   0.720   6.298   4.269 -0.1175  0.7654 -0.6828
23389SOL     OW71888   6.145   5.836   1.833  0.4920 -0.5049 -0.2809
23389SOL    HW171889   6.108   5.882   1.909 -0.7783  1.8579 -2.1847
23389SOL    HW271890   6.073   5.781   1.802 -0.1132  0.9517 -1.5668
23390SOL     OW71891   8.412   4.363   5.001  0.4059  0.0498 -0.1061
23390SOL    HW171892   8.424   4.427   5.071  2.6685 -0.6519  0.2232
23390SOL    HW271893   8.386   4.415   4.925 -0.9289  0.9522  0.9251
23391SOL     OW71894   4.853   1.732   1.522 -0.0282 -0.2332  0.3069
23391SOL    HW171895   4.804   1.656   1.490  0.8635 -0.0338 -1.7006
23391SOL    HW271896   4.904   1.698   1.596  0.0723 -1.5287 -0.3245
23392SOL     OW71897   5.249   3.319   6.320  0.0825  0.0087  0.4025
23392SOL    HW171898   5.188   3.265   6.269  1.0316 -0.7003 -0.0101
23392SOL    HW271899   5.204   3.403   6.330 -1.6793 -1.0267  1.5573
23393SOL     OW71900   1.059   1.704   4.522  0.6601  0.2331 -0.1988
23393SOL    HW171901   1.031   1.793   4.501  0.9856 -0.0607 -2.0234
23393SOL    HW271902   0.978   1.654   4.531  0.4888  0.6117  0.4189
23394SOL     OW71903   0.642   5.435   1.797  0.1583 -0.2611 -0.2016
23394SOL    HW171904   0.569   5.492   1.773 -0.2014 -0.7766 -0.3698
23394SOL    HW271905   0.616   5.398   1.882  0.3613 -0.2180 -0.1199
23395SOL     OW71906   1.551   4.862   7.342  0.3339  0.4651 -0.0906
23395SOL    HW171907   1.617   4.840   7.408  2.5029  1.2076 -1.8666
23395SOL    HW271908   1.602   4.877   7.262 -1.7904  3.0221 -1.1216
23396SOL     OW71909   3.634   8.615   1.301 -0.1452  0.4300 -0.3608
23396SOL    HW171910   3.640   8.707   1.327  0.3894  0.5588 -0.9406
23396SOL    HW271911   3.722   8.591   1.274 -0.3710 -0.1431 -0.6054
23397SOL     OW71912   5.884   1.692   9.700 -0.2103 -0.1234  0.3031
23397SOL    HW171913   5.909   1.767   9.647 -0.0089  0.3850  1.1016
23397SOL    HW271914   5.967   1.648   9.721 -0.0729  0.7642  1.7702
23398SOL     OW71915   1.245   5.690   4.907  0.2759  0.2060 -0.4463
23398SOL    HW171916   1.214   5.600   4.900 -0.5495  0.5126 -0.9680
23398SOL    HW271917   1.180   5.741   4.858  0.4322  1.1452  0.3008
23399SOL     OW71918   9.134   8.167   8.011  0.1472  0.8966  0.0462
23399SOL    HW171919   9.156   8.211   8.094 -0.3008 -3.6189  2.9215
23399SOL    HW271920   9.054   8.119   8.031  1.4786 -2.5262 -2.0711
23400SOL     OW71921   5.161   6.115   3.071  0.0059  0.8857 -0.4424
23400SOL    HW171922   5.201   6.038   3.031 -2.7374 -0.1612 -1.4317
23400SOL    HW271923   5.166   6.183   3.004  0.7769  1.0204 -0.2578
23401SOL     OW71924   1.825   8.005   6.023 -0.1468 -0.0312 -0.3557
23401SOL    HW171925   1.862   7.924   6.057  1.7031  0.5135 -0.9748
23401SOL    HW271926   1.857   8.074   6.082  0.4880  0.5437 -1.3450
23402SOL     OW71927   0.617   1.153   2.599  0.5268  0.3498  0.4969
23402SOL    HW171928   0.632   1.198   2.682  0.2328 -0.1095  0.8037
23402SOL    HW271929   0.561   1.079   2.621 -1.6181  1.5729 -0.4639
23403SOL     OW71930   2.431   6.519   0.406  0.4959  0.4122 -0.4964
23403SOL    HW171931   2.419   6.609   0.438  1.7559  0.6341 -0.6011
23403SOL    HW271932   2.344   6.479   0.414  0.6138  0.5714  2.7942
23404SOL     OW71933   2.801   0.286   2.339 -0.2403 -0.5003 -0.5576
23404SOL    HW171934   2.850   0.226   2.283 -1.5182 -0.3192 -1.9554
23404SOL    HW271935   2.828   0.374   2.310  1.5182 -0.3367  1.3832
23405SOL     OW71936   6.611   0.128   8.745  0.4525 -0.1945  0.3258
23405SOL    HW171937   6.516   0.126   8.757  0.2902  1.3801 -0.5164
23405SOL    HW271938   6.645   0.077   8.818 -1.0245 -0.7660  0.6614
23406SOL     OW71939   9.564   6.556   7.516 -0.0119 -0.8714 -0.2259
23406SOL    HW171940   9.600   6.476   7.479 -1.1020 -2.3952  1.8205
23406SOL    HW271941   9.641   6.604   7.548  0.6002 -1.4115 -0.8688
23407SOL     OW71942   3.817   8.499   8.527 -0.1188  0.0582  0.2990
23407SOL    HW171943   3.820   8.593   8.512 -0.5124 -0.3990 -3.5092
23407SOL    HW271944   3.735   8.470   8.487  0.5007 -2.0327  0.4103
23408SOL     OW71945   4.710   6.186   0.684  0.0242  0.3716  0.0428
23408SOL    HW171946   4.672   6.270   0.656  2.2401  0.9211 -1.6395
23408SOL    HW271947   4.665   6.120   0.632 -0.8212  0.6313  0.4228
23409SOL     OW71948   3.320   6.334   3.306  0.3483 -0.2606  0.1379
23409SOL    HW171949   3.309   6.241   3.323  1.2171 -0.0579  2.0961
23409SOL    HW271950   3.382   6.338   3.233 -0.1646 -1.2020 -0.3692
23410SOL     OW71951   8.565   5.507   4.333 -0.3067  0.2294  0.3263
23410SOL    HW171952   8.567   5.432   4.393 -2.1579  0.6291  0.9493
23410SOL    HW271953   8.593   5.470   4.249 -1.7398 -1.3386  0.4741
23411SOL     OW71954   5.917   5.173   5.737 -0.7466  0.0094 -0.0515
23411SOL    HW171955   5.910   5.080   5.716  0.1456  0.5046 -3.0036
23411SOL    HW271956   5.994   5.179   5.793 -1.0226 -1.0479  0.4681
23412SOL     OW71957   0.929   3.039   7.861 -0.4224  0.2805  0.3696
23412SOL    HW171958   0.994   3.092   7.814 -0.7110 -0.1046 -0.4978
23412SOL    HW271959   0.962   3.035   7.951  0.7770  0.0605 -0.0525
23413SOL     OW71960   6.433   3.706   3.278  0.3738 -0.0857  0.2941
23413SOL    HW171961   6.499   3.755   3.230  0.2136 -1.1264 -1.0695
23413SOL    HW271962   6.366   3.771   3.302  1.4201  0.8025  0.8706
23414SOL     OW71963   7.718   2.402   3.116 -0.1430  0.4916 -0.3702
23414SOL    HW171964   7.728   2.368   3.204  0.0716 -1.2323 -1.0337
23414SOL    HW271965   7.783   2.473   3.110  1.4412 -0.8450  0.1510
23415SOL     OW71966   2.850   8.724   6.157 -0.3399  0.2885  0.4093
23415SOL    HW171967   2.837   8.722   6.063 -0.6109 -0.1590  0.4539
23415SOL    HW271968   2.768   8.757   6.193 -0.8889 -1.2002  0.5957
23416SOL     OW71969   1.627   9.575   0.894  0.3574 -0.6512  0.1251
23416SOL    HW171970   1.682   9.497   0.890  1.6324  0.2553 -0.7525
23416SOL    HW271971   1.688   9.648   0.882 -0.8927  0.4511  0.2650
23417SOL     OW71972   6.381   0.857   3.292  0.2707  0.0733 -0.1270
23417SOL    HW171973   6.314   0.855   3.224 -0.5748 -3.8165  0.5720
23417SOL    HW271974   6.332   0.869   3.373  0.9131  1.3717  0.0834
23418SOL     OW71975   2.974   5.327   2.880  0.2444 -0.1412 -0.4480
23418SOL    HW171976   2.911   5.324   2.809 -0.3135  0.5112 -0.0001
23418SOL    HW271977   3.055   5.359   2.840 -0.2588  0.8990 -0.6663
23419SOL     OW71978   5.962   4.034   0.531 -0.3871  0.6694 -0.6000
23419SOL    HW171979   6.025   4.030   0.603 -0.5016  1.4673 -0.4448
23419SOL    HW271980   6.009   3.999   0.456 -0.5063 -0.8815  0.0197
23420SOL     OW71981   2.575   6.650   7.525 -0.2502  0.2131 -0.0954
23420SOL    HW171982   2.647   6.590   7.543 -0.6769  0.1389  1.5416
23420SOL    HW271983   2.556   6.692   7.609 -0.2274  2.3815 -1.0890
23421SOL     OW71984   2.018   8.937   9.246 -0.4399  0.2503  0.5111
23421SOL    HW171985   1.996   8.995   9.172  0.0037 -0.3539 -0.1042
23421SOL    HW271986   2.000   8.849   9.213 -1.1059  0.0201  1.4399
23422SOL     OW71987   4.831   7.063   8.781 -0.1168  0.0731  0.3278
23422SOL    HW171988   4.796   7.079   8.693 -2.7014  0.5230  1.3698
23422SOL    HW271989   4.863   7.148   8.810  0.6428 -0.0545 -0.1012
23423SOL     OW71990   1.565   0.892   0.360 -0.1670 -0.1992  0.3721
23423SOL    HW171991   1.554   0.941   0.279 -3.0645  0.1034  0.8405
23423SOL    HW271992   1.574   0.959   0.428  1.6189 -0.4483  0.4320
23424SOL     OW71993   8.845   8.183   3.769 -0.0217  0.5850 -0.0283
23424SOL    HW171994   8.850   8.230   3.852 -0.3286  0.5451  0.0145
23424SOL    HW271995   8.914   8.221   3.715 -0.5403  1.3803 -0.1434
23425SOL     OW71996   4.933   1.760   0.770 -1.0075  0.3073  0.2324
23425SOL    HW171997   4.936   1.700   0.696 -0.7122 -1.4756  1.6338
23425SOL    HW271998   4.928   1.847   0.730  1.3342 -0.4245 -1.8894
23426SOL     OW71999   8.787   0.791   3.918 -0.3148 -0.2212 -0.0755
23426SOL    HW172000   8.696   0.821   3.921 -0.4739 -0.5679 -1.0275
23426SOL    HW272001   8.800   0.745   4.001 -0.6463  0.8124  0.5791
23427SOL     OW72002   6.319   3.844   9.330 -0.0928 -0.1525 -0.2305
23427SOL    HW172003   6.304   3.939   9.334 -0.7244 -0.1287 -2.1366
23427SOL    HW272004   6.232   3.805   9.343  0.3963 -0.5963  2.2260
23428SOL     OW72005   2.297   3.933   1.452  0.3119  0.5668  0.4044
23428SOL    HW172006   2.381   3.977   1.467 -0.0634  1.3981  0.1372
23428SOL    HW272007   2.240   3.967   1.520 -0.2207  1.1583 -0.3236
23429SOL     OW72008   1.069   5.770   5.230 -0.2716 -0.1517 -0.5116
23429SOL    HW172009   0.984   5.770   5.185 -0.6396 -0.0189  0.1714
23429SOL    HW272010   1.064   5.843   5.291  0.4546  0.0404 -0.6686
23430SOL     OW72011   0.612   6.176   7.601 -0.5979 -0.3262 -0.6844
23430SOL    HW172012   0.658   6.218   7.529 -0.4222 -0.6074 -0.7395
23430SOL    HW272013   0.598   6.246   7.665  0.2959 -0.3292 -0.4725
23431SOL     OW72014   6.431   0.444   3.321 -0.7048  0.1725  0.0367
23431SOL    HW172015   6.370   0.452   3.395 -1.3612 -2.8815 -0.0167
23431SOL    HW272016   6.380   0.400   3.253  0.7194  0.2537 -1.1282
23432SOL     OW72017   7.181   5.109   2.908 -0.6966  0.1047 -0.0221
23432SOL    HW172018   7.102   5.059   2.891 -0.1042 -0.2282 -2.0069
23432SOL    HW272019   7.194   5.163   2.830  1.9477 -1.1402 -0.5505
23433SOL     OW72020   4.830   1.590   5.024 -0.0791 -0.2110 -0.3071
23433SOL    HW172021   4.892   1.578   5.096  1.5825  1.4965 -1.3551
23433SOL    HW272022   4.853   1.522   4.961  0.0599 -0.2092 -0.2585
23434SOL     OW72023   5.365   3.543   2.672 -0.0260  0.2084 -0.2774
23434SOL    HW172024   5.306   3.591   2.729 -0.3134  0.6997 -0.9798
23434SOL    HW272025   5.309   3.484   2.622 -0.1528  1.7007 -1.9962
23435SOL     OW72026   0.037   3.585   1.430  0.2745  0.2383  0.1343
23435SOL    HW172027   0.100   3.620   1.493  2.4405 -1.3709 -1.0066
23435SOL    HW272028  -0.009   3.663   1.397  1.9647  1.5546  0.7281
23436SOL     OW72029   6.829   4.003   1.811  0.1587  0.4195 -0.5311
23436SOL    HW172030   6.852   4.096   1.808 -1.4976  0.8596 -0.4062
23436SOL    HW272031   6.780   3.987   1.730 -4.4540  1.1106  1.7557
23437SOL     OW72032   2.306   4.457   4.233  0.4616  0.1369 -0.5448
23437SOL    HW172033   2.371   4.415   4.289 -0.0550 -0.3994 -0.3383
23437SOL    HW272034   2.357   4.509   4.171  1.0153  1.2371  0.8018
23438SOL     OW72035   0.104   1.466   5.664 -0.4321  0.2104 -0.0178
23438SOL    HW172036   0.130   1.531   5.729 -2.9229  4.0396 -2.4690
23438SOL    HW272037   0.122   1.508   5.579 -3.2201 -1.7489 -1.7594
23439SOL     OW72038   2.742   4.759   7.339  0.0191  0.3343 -0.0517
23439SOL    HW172039   2.728   4.679   7.388  0.8305 -0.9748 -1.8400
23439SOL    HW272040   2.836   4.761   7.321 -0.1313  1.1745 -0.8701
23440SOL     OW72041   6.848   3.504   5.013 -0.7648 -0.2644  0.0550
23440SOL    HW172042   6.772   3.534   5.062 -0.6785  1.3453 -0.7045
23440SOL    HW272043   6.891   3.585   4.985 -0.1359 -1.1239 -1.6052
23441SOL     OW72044   0.608   2.573   2.382 -1.0185  0.1131  0.4470
23441SOL    HW172045   0.670   2.646   2.392 -0.0845 -0.3203 -1.6739
23441SOL    HW272046   0.525   2.608   2.415  0.3367  0.5845  3.7745
23442SOL     OW72047   3.268   4.004   9.585  0.2463 -0.0961  0.1297
23442SOL    HW172048   3.209   4.071   9.549  2.0707  1.2138 -0.5529
23442SOL    HW272049   3.235   3.922   9.551 -0.8134  0.6689 -0.7425
23443SOL     OW72050   5.981   2.696   7.459  0.5344 -0.1288  0.0634
23443SOL    HW172051   6.013   2.621   7.408  0.2079 -1.8914  2.2904
23443SOL    HW272052   6.017   2.682   7.546 -1.0978  1.3075  1.0281
23444SOL     OW72053   0.001   1.929   0.750  0.0040 -0.5302  0.3497
23444SOL    HW172054  -0.049   1.911   0.671 -0.5301 -2.2089  1.0303
23444SOL    HW272055   0.011   2.024   0.751  0.4577 -0.5111 -1.9732
23445SOL     OW72056   6.692   0.689   9.102 -0.2901  0.6104 -0.2448
23445SOL    HW172057   6.709   0.631   9.177  2.5149 -0.2389 -1.3994
23445SOL    HW272058   6.631   0.640   9.048 -3.5136  1.8301  1.9967
23446SOL     OW72059   5.668   2.137   2.937  0.1097  0.1582  0.4073
23446SOL    HW172060   5.763   2.148   2.945  0.2583  0.0035 -0.9327
23446SOL    HW272061   5.641   2.207   2.878 -0.1990 -1.3479 -1.3160
23447SOL     OW72062   6.045   3.869   2.688  0.4197  0.3866  0.4700
23447SOL    HW172063   5.996   3.839   2.765  1.6055  0.6166  1.3501
23447SOL    HW272064   5.979   3.877   2.619 -0.3857 -1.5820  0.9444
23448SOL     OW72065   4.579   0.025   5.856  0.5171  0.5771  0.2603
23448SOL    HW172066   4.524   0.095   5.890  1.0134  0.3190  1.6654
23448SOL    HW272067   4.599  -0.029   5.932 -0.5337 -1.5827 -0.9314
23449SOL     OW72068   0.124   9.204   8.958 -0.1937 -0.0977  0.5153
23449SOL    HW172069   0.165   9.289   8.946  1.5695 -0.8282  1.0481
23449SOL    HW272070   0.065   9.217   9.033 -1.0289  0.9859 -0.2979
23450SOL     OW72071   4.498   5.582   0.214 -0.3277 -0.5764 -0.2618
23450SOL    HW172072   4.427   5.629   0.257 -0.0814 -1.1096  0.7794
23450SOL    HW272073   4.571   5.644   0.212 -1.2007  0.4766 -2.6355
23451SOL     OW72074   3.270   1.651   2.569 -0.7053  0.5108  0.6495
23451SOL    HW172075   3.268   1.745   2.549  0.3216  0.3446 -0.3292
23451SOL    HW272076   3.363   1.631   2.579 -1.0258  0.0672  3.2955
23452SOL     OW72077   0.116   1.080   4.842  0.3087 -0.3326  0.2238
23452SOL    HW172078   0.116   1.126   4.926  2.3177 -0.3999  0.3135
23452SOL    HW272079   0.130   0.988   4.864  0.7103 -0.3687 -0.1567
23453SOL     OW72080   6.005   0.257   2.215  0.1029  0.2516 -0.3909
23453SOL    HW172081   5.924   0.276   2.262  0.1696  0.6190 -0.4230
23453SOL    HW272082   6.065   0.326   2.243  0.1309  0.4996 -1.0460
23454SOL     OW72083   7.550   4.789   0.428  0.0575  0.1442  0.7067
23454SOL    HW172084   7.552   4.840   0.346 -1.0662 -0.2651  0.4160
23454SOL    HW272085   7.533   4.855   0.496 -0.8010  0.2524  0.3998
23455SOL     OW72086   4.400   8.317   5.384  0.5388  0.3899  0.1641
23455SOL    HW172087   4.369   8.351   5.468  3.3322 -1.2477  2.0289
23455SOL    HW272088   4.344   8.359   5.319 -3.8195 -0.5372  2.9049
23456SOL     OW72089   3.553   1.082   6.542 -0.0780 -0.5054 -0.2959
23456SOL    HW172090   3.635   1.101   6.588 -0.2570 -1.2419  0.3430
23456SOL    HW272091   3.555   1.139   6.465  0.0550  1.0795  0.8180
23457SOL     OW72092   4.603   5.589   0.633 -0.5062 -0.0173 -0.2342
23457SOL    HW172093   4.646   5.551   0.557  0.5094 -1.0895  0.8303
23457SOL    HW272094   4.673   5.636   0.679 -0.4677 -1.4573  1.3093
23458SOL     OW72095   8.632   2.773   5.273  0.3027  0.2510  0.0836
23458SOL    HW172096   8.544   2.748   5.247  0.2283 -0.5891  1.0909
23458SOL    HW272097   8.627   2.868   5.288 -0.5424  0.1226  0.6189
23459SOL     OW72098   8.891   3.046   9.630  0.2240  0.4065 -0.5135
23459SOL    HW172099   8.975   3.025   9.590  0.7885  1.8970 -0.1931
23459SOL    HW272100   8.826   3.028   9.562  0.7044 -1.3904 -0.5457
23460SOL     OW72101   0.888   4.301   0.088 -0.0942 -0.0921  0.1100
23460SOL    HW172102   0.948   4.248   0.035 -0.1031  0.6078 -0.6168
23460SOL    HW272103   0.878   4.252   0.169  0.5302 -0.8048 -0.2340
23461SOL     OW72104   7.927   1.706   1.848  0.1872  0.2907 -0.0078
23461SOL    HW172105   7.942   1.615   1.873 -0.2688  0.3790  0.6065
23461SOL    HW272106   7.905   1.751   1.930 -0.3959  0.7847 -0.4256
23462SOL     OW72107   6.018   6.402   5.954 -0.1576  0.0445  0.1823
23462SOL    HW172108   5.941   6.448   5.922 -1.3725 -2.0025 -0.0498
23462SOL    HW272109   5.991   6.367   6.039  0.9642  0.3773  0.6893
23463SOL     OW72110   0.566   3.017   0.414 -0.1345 -0.5363 -0.0551
23463SOL    HW172111   0.649   3.003   0.460  0.6063 -3.9550 -2.0746
23463SOL    HW272112   0.591   3.038   0.324 -1.4794 -0.5746 -0.4657
23464SOL     OW72113   2.345   1.407   5.236  0.0371 -0.1215 -0.2095
23464SOL    HW172114   2.251   1.405   5.250 -0.0628 -1.0289 -0.8899
23464SOL    HW272115   2.355   1.403   5.140  0.7726 -1.3853 -0.1033
23465SOL     OW72116   2.934   1.848   2.267  0.1067  0.2248 -0.2479
23465SOL    HW172117   2.842   1.829   2.283  0.0329 -1.5558 -2.2480
23465SOL    HW272118   2.981   1.773   2.303  0.5920  0.1926 -0.9293
23466SOL     OW72119   3.691   5.236   6.758  0.3924  0.0773 -0.0911
23466SOL    HW172120   3.750   5.291   6.809  0.8106 -0.0651 -0.4164
23466SOL    HW272121   3.705   5.148   6.792  0.8144 -0.0481 -0.5751
23467SOL     OW72122   8.129   0.013   8.729 -0.6877  0.3314 -0.1206
23467SOL    HW172123   8.184  -0.036   8.790 -0.9740  1.3165  0.9641
23467SOL    HW272124   8.101   0.090   8.779  0.6083  2.1812 -2.0744
23468SOL     OW72125   9.518   0.548   6.982 -0.1404  0.0321  0.1708
23468SOL    HW172126   9.565   0.629   6.960  1.8812 -1.1019  0.0924
23468SOL    HW272127   9.531   0.491   6.906  0.1469 -1.0758  1.0309
23469SOL     OW72128   7.530   0.915   4.641 -0.1984  0.6065  0.0508
23469SOL    HW172129   7.522   0.924   4.736 -1.7657  1.6633 -0.1479
23469SOL    HW272130   7.567   0.998   4.611 -1.5508  1.0615 -0.4323
23470SOL     OW72131   8.958   2.803   0.233  1.0529 -0.2305  0.0152
23470SOL    HW172132   9.049   2.814   0.205  1.0892 -0.6110 -0.0114
23470SOL    HW272133   8.931   2.719   0.197  0.6675 -0.0887 -0.0325
23471SOL     OW72134   0.129   8.971   7.137  0.1427 -0.1099 -0.1548
23471SOL    HW172135   0.180   9.050   7.117 -2.0016  1.0512 -1.4704
23471SOL    HW272136   0.163   8.941   7.221  1.1506  2.1117  0.3054
23472SOL     OW72137   3.212   3.168   8.373 -0.2539 -0.2877 -0.3347
23472SOL    HW172138   3.179   3.125   8.452  2.4804 -1.1653  0.4516
23472SOL    HW272139   3.247   3.252   8.405 -1.8395  0.7551 -1.1862
23473SOL     OW72140   9.636   5.316   8.219 -0.7881  0.0229  0.1739
23473SOL    HW172141   9.561   5.283   8.170  0.8313 -0.2593 -2.3055
23473SOL    HW272142   9.655   5.401   8.179  1.3645 -0.7756 -0.6649
23474SOL     OW72143   4.380   5.722   4.014 -0.0090 -0.1862 -0.3234
23474SOL    HW172144   4.382   5.817   4.021 -0.5741 -0.2908  2.2018
23474SOL    HW272145   4.472   5.696   4.012  0.3601  0.2851  3.5246
23475SOL     OW72146   8.790   6.377   0.511  0.2637  0.0993  0.0848
23475SOL    HW172147   8.807   6.285   0.489 -1.2367 -0.0449 -0.5533
23475SOL    HW272148   8.846   6.427   0.450  0.3337 -0.3773 -0.2456
23476SOL     OW72149   1.624   8.926   2.037  0.1222 -0.3605  0.5061
23476SOL    HW172150   1.710   8.887   2.023 -0.4218 -1.8799  1.2375
23476SOL    HW272151   1.631   8.967   2.124 -0.4231 -2.1418  1.4485
23477SOL     OW72152   9.670   8.729   4.864 -0.0452  0.3320  0.4659
23477SOL    HW172153   9.682   8.772   4.780 -1.3256  1.2594  0.7435
23477SOL    HW272154   9.584   8.688   4.859  0.1060 -0.0964  1.1304
23478SOL     OW72155   8.361   8.588   8.209 -0.1042  0.4749  0.2417
23478SOL    HW172156   8.341   8.675   8.173 -0.1399  1.1005  1.6782
23478SOL    HW272157   8.364   8.530   8.133  0.4805  1.8368 -0.8128
23479SOL     OW72158   7.828   6.734   1.625  0.4395  0.7439 -0.2896
23479SOL    HW172159   7.824   6.733   1.530  0.3833  2.4575 -0.3366
23479SOL    HW272160   7.922   6.730   1.645  0.3892 -2.3261 -0.2918
23480SOL     OW72161   2.290   2.893   5.809 -0.5577 -0.7570 -0.4330
23480SOL    HW172162   2.316   2.814   5.857 -0.8874 -0.2873  0.5368
23480SOL    HW272163   2.211   2.867   5.762 -0.1717 -1.2528 -0.8352
23481SOL     OW72164   8.776   0.172   6.490 -0.8927  0.3860 -0.7304
23481SOL    HW172165   8.768   0.267   6.478 -0.1793  0.3292 -1.8020
23481SOL    HW272166   8.867   0.153   6.468 -1.1135 -0.5932 -0.8395
23482SOL     OW72167   2.029   9.198   5.056  0.1386 -0.5542 -0.0818
23482SOL    HW172168   2.088   9.122   5.054  0.2968 -0.4734  0.9550
23482SOL    HW272169   2.053   9.245   5.136  2.0899  2.2836 -2.1535
23483SOL     OW72170   1.749   3.814   7.747 -0.1709  0.3235 -0.0664
23483SOL    HW172171   1.747   3.849   7.836  0.8867  0.3788 -0.0511
23483SOL    HW272172   1.703   3.879   7.694 -0.4109  0.5051  0.3635
23484SOL     OW72173   5.068   2.687   9.538 -0.1035 -0.1267 -0.2054
23484SOL    HW172174   5.151   2.699   9.491 -1.1545 -0.7980 -2.3553
23484SOL    HW272175   5.086   2.720   9.627  1.8047  1.8426 -1.2201
23485SOL     OW72176   1.929   4.254   4.736  0.2663 -0.3450 -0.2279
23485SOL    HW172177   1.954   4.345   4.724 -0.2168 -0.0654  0.7511
23485SOL    HW272178   1.948   4.212   4.652  1.3657  0.4445 -0.3893
23486SOL     OW72179   6.604   9.098   4.860 -0.0181 -0.2067  0.4303
23486SOL    HW172180   6.526   9.059   4.899 -0.8099  1.5234  0.6608
23486SOL    HW272181   6.572   9.177   4.816  1.5722  0.4209  0.3267
23487SOL     OW72182   3.838   2.244   3.349  0.0352 -0.4649  0.0310
23487SOL    HW172183   3.910   2.231   3.411  0.6924 -2.3777 -1.0602
23487SOL    HW272184   3.767   2.188   3.382  0.2061 -1.0876 -0.6258
23488SOL     OW72185   6.093   0.885   1.939 -0.4673 -0.8635 -0.1100
23488SOL    HW172186   6.078   0.863   2.031  0.9315 -1.3914  0.0139
23488SOL    HW272187   6.173   0.937   1.939 -0.0223 -1.5212 -1.0975
23489SOL     OW72188   7.954   7.678   8.529 -0.2084 -0.1208 -0.4455
23489SOL    HW172189   7.944   7.698   8.436 -0.8621 -0.8080 -0.5344
23489SOL    HW272190   7.866   7.655   8.558 -0.4698  2.3242  0.9026
23490SOL     OW72191   1.012   8.034   1.540  0.0766  0.6367 -0.0150
23490SOL    HW172192   1.075   7.968   1.510 -0.3074  0.2625  0.0028
23490SOL    HW272193   0.927   7.998   1.516 -0.2539  0.3093  1.5550
23491SOL     OW72194   0.174   9.217   6.842 -0.0376 -0.8117  0.0186
23491SOL    HW172195   0.242   9.152   6.829  0.3653 -0.6885  1.3526
23491SOL    HW272196   0.219   9.292   6.882 -0.6738 -0.1222 -0.5241
23492SOL     OW72197   4.800   1.600   3.262  0.1444 -0.2365  0.1988
23492SOL    HW172198   4.838   1.685   3.286  0.9410 -0.0671 -1.5393
23492SOL    HW272199   4.876   1.543   3.247 -0.3244 -0.5175 -1.1788
23493SOL     OW72200   3.487   9.564   4.781 -1.2281 -0.1937 -0.4085
23493SOL    HW172201   3.403   9.534   4.747 -1.6051  0.3109  0.0718
23493SOL    HW272202   3.550   9.537   4.715 -1.7388 -0.7460 -0.6863
23494SOL     OW72203   3.729   3.974   0.752  0.4443 -0.0292 -0.2982
23494SOL    HW172204   3.820   4.003   0.750  0.4148  0.0468 -0.4871
23494SOL    HW272205   3.731   3.885   0.717  0.6287 -0.5047  0.8747
23495SOL     OW72206   2.571   2.542   4.374 -0.0591  0.3508  0.0142
23495SOL    HW172207   2.487   2.498   4.386  0.6397 -0.5565  2.2096
23495SOL    HW272208   2.581   2.552   4.279 -0.5150 -3.8213 -0.6425
23496SOL     OW72209   6.534   2.413   0.937 -0.5837  0.1183  0.1806
23496SOL    HW172210   6.486   2.422   0.855 -1.6459 -0.5654  0.6992
23496SOL    HW272211   6.608   2.473   0.929  0.5951 -1.4849 -2.1483
23497SOL     OW72212   6.548   3.761   7.982  0.1255  0.0776 -0.2740
23497SOL    HW172213   6.504   3.841   7.953 -1.2140 -0.5437 -0.0483
23497SOL    HW272214   6.554   3.771   8.077  0.4841  0.1623 -0.3056
23498SOL     OW72215   8.769   7.062   4.971  0.1599 -0.0842 -0.2176
23498SOL    HW172216   8.859   7.092   4.983 -0.2021  0.6195  0.8262
23498SOL    HW272217   8.767   6.977   5.016  1.3095 -2.1325 -3.5643
23499SOL     OW72218   6.900   3.801   6.196 -0.3213 -0.3328  0.0475
23499SOL    HW172219   6.884   3.892   6.170  1.0514 -0.2736 -0.7122
23499SOL    HW272220   6.824   3.777   6.250 -2.2960  0.2385 -2.2834
23500SOL     OW72221   8.643   6.044   9.395  0.2383  0.0429  0.0113
23500SOL    HW172222   8.665   5.971   9.453  0.0941 -0.2840 -0.3436
23500SOL    HW272223   8.685   6.120   9.435  0.7528 -0.3114  0.1462
23501SOL     OW72224   4.592   4.272   3.499 -0.2320 -0.0850  0.3208
23501SOL    HW172225   4.672   4.313   3.465  1.3147 -1.5586  1.9519
23501SOL    HW272226   4.569   4.206   3.434 -1.2578  1.5153 -1.0472
23502SOL     OW72227   0.993   2.990   9.298 -0.6292  0.1821 -0.1456
23502SOL    HW172228   0.939   3.067   9.315  0.2841  0.8332 -0.1331
23502SOL    HW272229   0.992   2.981   9.202 -0.9148  0.0715 -0.1342
23503SOL     OW72230   3.246   0.290   0.534  0.1153 -0.8955 -0.1418
23503SOL    HW172231   3.270   0.200   0.515 -0.1470 -0.7221 -1.3503
23503SOL    HW272232   3.310   0.343   0.486 -0.0982 -0.4368  0.0674
23504SOL     OW72233   9.607   5.280   9.307  0.6124 -0.2261 -0.8375
23504SOL    HW172234   9.637   5.201   9.261  1.0678 -0.7855  0.3669
23504SOL    HW272235   9.686   5.316   9.346  0.0432 -0.5998  0.7219
23505SOL     OW72236   1.526   3.375   2.996  0.3865  0.1348 -0.0218
23505SOL    HW172237   1.519   3.285   2.964 -0.7963  0.5213 -0.9125
23505SOL    HW272238   1.500   3.369   3.088 -2.2784 -0.0809 -0.7137
23506SOL     OW72239   8.821   6.650   4.741 -0.1141 -0.1490  0.3481
23506SOL    HW172240   8.797   6.558   4.731 -0.0168 -0.2459  0.9460
23506SOL    HW272241   8.747   6.698   4.705  0.4498 -0.4523 -1.3185
23507SOL     OW72242   2.829   5.593   8.556 -0.2197  0.4884 -0.1514
23507SOL    HW172243   2.750   5.610   8.607 -0.2632 -0.9272  0.2741
23507SOL    HW272244   2.885   5.668   8.575 -0.7355  0.6101  0.9779
23508SOL     OW72245   4.108   9.381   3.265 -0.1585  0.4955  0.9616
23508SOL    HW172246   4.067   9.333   3.337 -2.1512  1.1510  0.3042
23508SOL    HW272247   4.199   9.351   3.267 -1.0110 -2.4320  1.3351
23509SOL     OW72248   1.892   0.209   2.279  0.4478 -0.3645 -0.3185
23509SOL    HW172249   1.894   0.303   2.262 -0.7712  0.5302  3.6265
23509SOL    HW272250   1.800   0.189   2.296  1.0989 -1.4569  2.4085
23510SOL     OW72251   4.237   4.306   5.354 -0.2722  0.1419  0.3411
23510SOL    HW172252   4.330   4.281   5.360 -0.3796 -0.3052  0.1922
23510SOL    HW272253   4.232   4.390   5.398  0.3012  0.4159 -0.1045
23511SOL     OW72254   1.764   4.977   7.741  0.4069 -0.4523 -0.1071
23511SOL    HW172255   1.748   4.970   7.835 -3.1013  1.0367 -0.4642
23511SOL    HW272256   1.794   5.067   7.729 -2.3264  0.4539 -0.6680
23512SOL     OW72257   6.378   3.710   1.842  0.1878  0.8042 -0.3761
23512SOL    HW172258   6.286   3.692   1.862  0.6277 -0.9171  0.3035
23512SOL    HW272259   6.382   3.712   1.746 -0.3932 -0.1109 -0.4277
23513SOL     OW72260   0.942   1.779   4.843 -0.2538 -0.0941  0.3597
23513SOL    HW172261   0.964   1.710   4.780 -1.4610  0.8779 -1.2206
23513SOL    HW272262   1.026   1.821   4.862  0.1703 -0.4991 -0.5294
23514SOL     OW72263   4.922   5.039   4.652  0.3954  0.3067 -0.1324
23514SOL    HW172264   5.007   5.050   4.693  0.6242  2.3487 -1.0114
23514SOL    HW272265   4.927   5.092   4.572 -2.1668  1.7209  0.5471
23515SOL     OW72266   2.591   4.563   0.366  0.1198 -0.6555 -0.3844
23515SOL    HW172267   2.599   4.489   0.306 -0.1567  0.3563 -1.7234
23515SOL    HW272268   2.541   4.529   0.440  0.5172 -1.9552 -0.6790
23516SOL     OW72269   5.528   3.387   4.075 -0.5239 -0.5034  0.1371
23516SOL    HW172270   5.606   3.337   4.098 -0.7873 -0.5073  1.0536
23516SOL    HW272271   5.561   3.476   4.058 -0.3288 -0.4681  0.6643
23517SOL     OW72272   1.877   9.196   1.305 -0.1406  0.2715 -0.0946
23517SOL    HW172273   1.783   9.183   1.312 -0.2967  1.3379 -0.0186
23517SOL    HW272274   1.892   9.211   1.211 -0.0115 -0.0896 -0.1346
23518SOL     OW72275   5.088   2.283   5.227  0.0678  0.5462 -0.2797
23518SOL    HW172276   5.094   2.344   5.300  1.0730  0.1276 -0.0000
23518SOL    HW272277   5.037   2.330   5.161 -0.6013  1.0365  0.5727
23519SOL     OW72278   1.782   0.454   1.820 -0.4539  0.2148 -0.5458
23519SOL    HW172279   1.769   0.461   1.726 -1.1189  1.7384 -0.3731
23519SOL    HW272280   1.877   0.440   1.830 -0.7714 -4.1266 -1.5348
23520SOL     OW72281   5.617   6.760   5.684 -0.2104  0.6681 -0.3377
23520SOL    HW172282   5.695   6.745   5.631 -0.0645 -1.1305  0.3416
23520SOL    HW272283   5.553   6.696   5.653 -0.6195  0.5676  0.6598
23521SOL     OW72284   0.757   1.819   6.903 -0.5889  0.2126  0.6209
23521SOL    HW172285   0.728   1.788   6.989 -0.9213 -3.8360 -0.7511
23521SOL    HW272286   0.847   1.786   6.894 -0.7235  0.1362 -0.7311
23522SOL     OW72287   2.546   5.153   3.660  0.3901  0.0240 -0.3756
23522SOL    HW172288   2.530   5.075   3.713  2.6925 -1.0021 -1.0648
23522SOL    HW272289   2.534   5.226   3.720 -0.6204 -0.9092  0.6025
23523SOL     OW72290   4.435   3.313   2.744  0.6910  0.2482 -0.1965
23523SOL    HW172291   4.504   3.314   2.678  0.2825  0.7982 -0.6285
23523SOL    HW272292   4.381   3.389   2.723  0.8596  0.7626  1.1112
23524SOL     OW72293   5.376   4.442   3.888  0.0163 -0.0004 -0.2718
23524SOL    HW172294   5.390   4.349   3.869 -0.4912 -0.0666 -0.3277
23524SOL    HW272295   5.424   4.488   3.820  1.5507 -0.1960  0.6112
23525SOL     OW72296   2.564   7.356   8.523  0.4777  0.3151  0.3280
23525SOL    HW172297   2.502   7.417   8.482  0.3486 -0.9640 -1.5042
23525SOL    HW272298   2.649   7.400   8.514  0.1119  1.1869  1.0288
23526SOL     OW72299   9.142   8.838   0.204  0.2588  0.2304  0.2897
23526SOL    HW172300   9.111   8.863   0.117  0.1735 -1.5833 -0.2582
23526SOL    HW272301   9.234   8.865   0.205  0.0877  0.8522 -0.1038
23527SOL     OW72302   2.644   1.659   0.293 -0.5845  0.2196  0.0037
23527SOL    HW172303   2.595   1.577   0.291 -2.0902  1.0881 -1.6107
23527SOL    HW272304   2.702   1.653   0.217  0.6944 -0.1166  0.9801
23528SOL     OW72305   5.535   8.436   2.548  0.2708 -0.1128  0.1363
23528SOL    HW172306   5.563   8.360   2.599 -2.6420 -3.2658 -2.4568
23528SOL    HW272307   5.457   8.468   2.592  0.4774  0.2195  0.2590
23529SOL     OW72308   5.613   1.401   8.957  0.0497  0.2119  0.3581
23529SOL    HW172309   5.598   1.419   8.864 -0.5806  1.4129  0.6747
23529SOL    HW272310   5.525   1.394   8.994  0.3006 -0.4406  0.8369
23530SOL     OW72311   2.668   9.362   5.847 -0.2623  0.6698  0.1362
23530SOL    HW172312   2.669   9.457   5.836 -1.7438  0.6944  0.0008
23530SOL    HW272313   2.760   9.338   5.854  0.1520  2.0822 -0.0894
23531SOL     OW72314   8.471   8.666   6.977  0.0538  0.3897 -0.1081
23531SOL    HW172315   8.423   8.642   7.057 -1.4067  1.1913 -0.7000
23531SOL    HW272316   8.563   8.656   7.000 -0.3465  0.3380  1.5916
23532SOL     OW72317   7.876   6.584   1.045  0.6650 -0.9638  0.0479
23532SOL    HW172318   7.943   6.565   1.110  2.2728 -1.3120 -1.6025
23532SOL    HW272319   7.897   6.673   1.015 -0.0516 -0.8076 -0.0128
23533SOL     OW72320   0.114   8.537   7.962 -0.0307 -0.0037 -0.1077
23533SOL    HW172321   0.163   8.567   7.885  0.9477 -0.0263  0.4920
23533SOL    HW272322   0.024   8.564   7.945  0.3200  0.7152 -0.8934
23534SOL     OW72323   3.415   5.530   9.193  0.0119 -0.3071  0.0775
23534SOL    HW172324   3.337   5.477   9.206  0.3635 -0.7210  0.4962
23534SOL    HW272325   3.435   5.566   9.280  0.7922 -0.9048  0.1533
23535SOL     OW72326   4.597   5.203   0.631  0.3178  0.3592 -0.2041
23535SOL    HW172327   4.602   5.284   0.580 -0.6884  0.8957  0.5097
23535SOL    HW272328   4.537   5.224   0.702 -0.5914 -1.2625 -0.4516
23536SOL     OW72329   8.984   4.729   1.489  0.4521  0.0884  0.4617
23536SOL    HW172330   9.023   4.768   1.411 -0.4575 -1.3268 -0.7600
23536SOL    HW272331   9.025   4.775   1.563  2.0796  0.7697 -0.8158
23537SOL     OW72332   3.925   3.422   6.715 -0.2731 -0.5858  0.6425
23537SOL    HW172333   3.880   3.453   6.794  1.1490 -0.8752  1.6088
23537SOL    HW272334   3.930   3.499   6.659  0.0763  0.0418  1.5022
23538SOL     OW72335   0.521   2.150   8.151  0.1319  0.0814  0.6919
23538SOL    HW172336   0.433   2.186   8.138  1.0583  2.0384 -0.6400
23538SOL    HW272337   0.573   2.224   8.182  1.6144 -0.6913  0.1431
23539SOL     OW72338   4.730   6.445   8.216  0.1112  0.1840 -0.4343
23539SOL    HW172339   4.637   6.464   8.205 -0.4812 -1.4260  1.2038
23539SOL    HW272340   4.740   6.356   8.181  0.1747 -1.1230  2.5383
23540SOL     OW72341   7.504   2.629   3.173 -0.3530  0.3561 -0.3990
23540SOL    HW172342   7.497   2.546   3.220 -1.5794 -0.0075 -1.1691
23540SOL    HW272343   7.594   2.657   3.186 -0.0852 -0.8144  0.3570
23541SOL     OW72344   9.255   5.613   5.337  0.1694 -0.4409 -0.4356
23541SOL    HW172345   9.283   5.638   5.249 -0.7007  1.1049 -0.3251
23541SOL    HW272346   9.182   5.553   5.323 -0.8125  0.7856 -0.8363
23542SOL     OW72347   8.137   2.138   7.189 -0.4540  0.2538  0.3897
23542SOL    HW172348   8.185   2.217   7.163 -0.5744  0.2749  0.2343
23542SOL    HW272349   8.194   2.096   7.253 -1.6457  2.0178  2.7722
23543SOL     OW72350   1.724   6.771   4.604  0.1594 -1.2017 -0.1854
23543SOL    HW172351   1.677   6.761   4.522 -0.1366 -0.3425 -0.1399
23543SOL    HW272352   1.780   6.694   4.611 -0.9051 -2.0198 -0.4697
23544SOL     OW72353   1.603   4.402   0.776  0.0398  0.8446  0.0654
23544SOL    HW172354   1.668   4.333   0.767 -0.0764  0.6935  0.3708
23544SOL    HW272355   1.653   4.480   0.799  0.2864  1.1085 -1.2462
23545SOL     OW72356   5.791   9.517   5.397 -0.4006 -0.0193 -0.0914
23545SOL    HW172357   5.744   9.514   5.481 -2.0870  0.8441 -0.9466
23545SOL    HW272358   5.820   9.608   5.389  2.0092 -0.6422  0.6610
23546SOL     OW72359   0.337   1.928   2.669  0.0666  0.1396 -0.7045
23546SOL    HW172360   0.426   1.942   2.636 -0.2715  1.5968 -1.0963
23546SOL    HW272361   0.310   2.014   2.702 -1.3000 -0.1878 -0.8831
23547SOL     OW72362   9.628   3.817   6.218 -0.1221 -0.0636 -0.2254
23547SOL    HW172363   9.604   3.766   6.295 -0.7081  2.2570  1.2480
23547SOL    HW272364   9.568   3.788   6.150 -2.0972  0.3114  1.2509
23548SOL     OW72365   3.244   1.826   7.912 -0.3485 -0.2508 -0.0531
23548SOL    HW172366   3.165   1.784   7.946  1.1215 -1.2801  2.4042
23548SOL    HW272367   3.314   1.792   7.968  1.3348  3.3876  0.3193
23549SOL     OW72368   1.316   7.078   2.069 -0.4876 -0.0625  0.3459
23549SOL    HW172369   1.304   7.157   2.121 -3.2505 -0.5183  0.5209
23549SOL    HW272370   1.278   7.008   2.121  0.8884 -1.3581 -0.3022
23550SOL     OW72371   0.744   3.590   9.013  0.5170 -0.2570 -0.3962
23550SOL    HW172372   0.764   3.528   9.084 -0.1737 -0.1668 -0.1126
23550SOL    HW272373   0.665   3.554   8.972  1.4792 -0.8631 -1.7932
23551SOL     OW72374   3.795   1.308   5.152  0.3227 -0.2155 -1.1391
23551SOL    HW172375   3.703   1.291   5.133  0.0618 -0.3408  0.1386
23551SOL    HW272376   3.840   1.288   5.070 -0.6491 -1.3021 -1.4443
23552SOL     OW72377   3.902   3.948   2.049 -0.0043 -0.0686  0.1676
23552SOL    HW172378   3.969   3.883   2.026  0.4883  0.2897  0.5805
23552SOL    HW272379   3.931   3.984   2.133  1.2604  2.7284 -1.3397
23553SOL     OW72380   3.271   0.735   4.295  0.3811 -0.4828  0.4355
23553SOL    HW172381   3.310   0.796   4.357 -0.0807 -1.5280  1.8199
23553SOL    HW272382   3.335   0.727   4.224  0.8567  0.8502  0.6874
23554SOL     OW72383   4.792   9.245   3.965  0.0526  0.8538 -0.3616
23554SOL    HW172384   4.702   9.220   3.984  0.3078  0.5948  0.5721
23554SOL    HW272385   4.825   9.175   3.908 -0.9148  1.9609 -2.3801
23555SOL     OW72386   5.158   9.362   1.130 -0.0618 -0.1005  0.1724
23555SOL    HW172387   5.153   9.327   1.042 -1.2600 -0.3922  0.3370
23555SOL    HW272388   5.236   9.322   1.168  0.9743  0.7162 -1.0266
23556SOL     OW72389   9.040   0.309   7.874 -0.2850  0.1119  0.2097
23556SOL    HW172390   9.136   0.304   7.871 -0.2401  0.9200  0.1447
23556SOL    HW272391   9.012   0.280   7.787 -0.0361  1.1585 -0.2264
23557SOL     OW72392   8.516   6.142   4.087 -0.0960  0.0291 -0.3291
23557SOL    HW172393   8.451   6.104   4.146  1.4292 -0.4835  1.0930
23557SOL    HW272394   8.579   6.072   4.072  1.7483  1.3307  0.8109
23558SOL     OW72395   6.499   6.622   7.620  0.3578  0.0311  0.4347
23558SOL    HW172396   6.447   6.546   7.644 -0.3731  0.5581  0.5397
23558SOL    HW272397   6.470   6.692   7.679  0.7200  0.5049  0.0694
23559SOL     OW72398   2.173   3.063   8.825  0.2276 -0.2954  0.5293
23559SOL    HW172399   2.254   3.104   8.794 -1.1702  1.0665 -1.5755
23559SOL    HW272400   2.104   3.123   8.797 -1.5443 -1.4283  2.2274
23560SOL     OW72401   3.190   7.138   4.520 -0.4008 -0.4811 -0.3566
23560SOL    HW172402   3.212   7.054   4.480 -0.8142  0.3138 -2.3276
23560SOL    HW272403   3.274   7.174   4.549 -0.3530 -2.1651  1.8790
23561SOL     OW72404   9.605   3.897   5.039  0.8067  0.2166  0.6380
23561SOL    HW172405   9.619   3.974   5.093  1.0775  1.1474 -0.7028
23561SOL    HW272406   9.620   3.823   5.098  2.2487  1.1742  1.5489
23562SOL     OW72407   4.892   2.591   2.476  0.0415 -0.6052 -0.0752
23562SOL    HW172408   4.864   2.577   2.386 -0.7748  0.2615  0.0232
23562SOL    HW272409   4.949   2.668   2.472 -2.8492  1.7793  0.5517
23563SOL     OW72410   1.483   1.851   8.906  0.0376  0.2316 -0.7937
23563SOL    HW172411   1.410   1.800   8.872  1.0045 -0.7421 -1.4984
23563SOL    HW272412   1.467   1.858   9.000 -0.3523 -0.9973 -0.7523
23564SOL     OW72413   2.502   7.828   2.884  0.0839  0.6080  0.2803
23564SOL    HW172414   2.415   7.794   2.906 -0.0328  0.6970 -0.0441
23564SOL    HW272415   2.487   7.889   2.813  0.3659  0.9246  0.4909
23565SOL     OW72416   6.393   0.215   0.635  0.0237  0.0556  0.0355
23565SOL    HW172417   6.451   0.161   0.583  0.9290  1.8704 -0.9248
23565SOL    HW272418   6.368   0.288   0.578 -1.5110  0.4485  1.1114
23566SOL     OW72419   0.987   5.214   0.948  0.9721  0.0245 -0.2634
23566SOL    HW172420   0.957   5.218   0.857 -2.1634 -1.0487  0.6076
23566SOL    HW272421   0.949   5.291   0.989 -0.0348 -0.9564  0.7176
23567SOL     OW72422   6.823   1.260   0.522  0.1058  0.4985  0.1180
23567SOL    HW172423   6.828   1.336   0.464 -1.6577  0.1389 -0.5580
23567SOL    HW272424   6.861   1.188   0.470  0.8308  0.6999  0.3675
23568SOL     OW72425   0.832   6.992   8.322  0.2240  0.0006  0.1058
23568SOL    HW172426   0.838   6.913   8.375 -0.7454 -0.3039 -0.2174
23568SOL    HW272427   0.864   6.967   8.236  0.6441  0.1703  0.2101
23569SOL     OW72428   8.426   3.303   4.356  0.0148 -0.2110  0.0682
23569SOL    HW172429   8.492   3.352   4.405 -1.3503 -0.0507  1.8458
23569SOL    HW272430   8.477   3.246   4.298  1.6704  1.0585  0.1765
23570SOL     OW72431   5.509   7.471   9.210  0.2978  0.2260  0.4667
23570SOL    HW172432   5.595   7.510   9.221  1.3422 -1.4411 -1.1438
23570SOL    HW272433   5.492   7.424   9.292  1.9369 -1.2187  0.0268
23571SOL     OW72434   1.241   5.263   2.305 -0.1225 -0.8577  0.8516
23571SOL    HW172435   1.300   5.319   2.254  0.3061 -1.4753  0.6633
23571SOL    HW272436   1.238   5.181   2.257 -0.4217 -1.1450  1.3526
23572SOL     OW72437   7.263   1.605   8.506  0.1243 -0.4401 -0.3513
23572SOL    HW172438   7.356   1.584   8.520  0.3675  1.8070  2.1496
23572SOL    HW272439   7.264   1.667   8.433  0.5772 -0.4732 -0.3760
23573SOL     OW72440   8.112   2.704   6.943  0.4332 -0.0912 -0.3758
23573SOL    HW172441   8.182   2.725   6.881  1.4120 -0.0817  0.7109
23573SOL    HW272442   8.131   2.758   7.020 -0.9152  0.0936 -0.1488
23574SOL     OW72443   5.713   2.734   7.038  0.8398  0.5189  1.3137
23574SOL    HW172444   5.776   2.777   6.979 -1.1481  1.4237 -0.2570
23574SOL    HW272445   5.685   2.802   7.098  0.4419  0.4471  1.2103
23575SOL     OW72446   4.134   1.801   6.224 -0.3386  0.2019 -0.3372
23575SOL    HW172447   4.085   1.740   6.168  1.1963 -0.2184 -1.3045
23575SOL    HW272448   4.218   1.811   6.179  0.3213  1.1800  1.0587
23576SOL     OW72449   4.940   0.720   8.546  0.0781 -0.1720 -0.4840
23576SOL    HW172450   4.875   0.789   8.529  1.4484  1.9718  2.1379
23576SOL    HW272451   4.925   0.695   8.637  1.6830 -1.0194 -0.4158
23577SOL     OW72452   2.406   4.097   4.186  0.1482 -0.6091  0.2645
23577SOL    HW172453   2.343   4.036   4.224  0.0462 -0.8666 -0.3108
23577SOL    HW272454   2.412   4.168   4.250 -0.6761 -0.6143  0.3546
23578SOL     OW72455   4.991   5.272   4.949 -0.0541  0.7727 -0.4393
23578SOL    HW172456   5.053   5.325   4.898 -1.5131  2.5637 -0.4210
23578SOL    HW272457   4.984   5.317   5.033 -1.0292  0.3217 -0.2719
23579SOL     OW72458   2.375   5.887   5.721  0.4336 -0.0796  0.3249
23579SOL    HW172459   2.319   5.963   5.705 -0.7160 -0.6595  1.3573
23579SOL    HW272460   2.327   5.814   5.682  0.9409 -0.4496  0.3853
23580SOL     OW72461   5.364   3.854   8.731 -0.0425  0.4946  0.1998
23580SOL    HW172462   5.443   3.810   8.701 -0.7784 -0.4430 -0.4213
23580SOL    HW272463   5.297   3.831   8.666 -0.7285  1.6032  0.4887
23581SOL     OW72464   4.599   4.782   0.017 -0.0658 -0.7014  0.2222
23581SOL    HW172465   4.571   4.872   0.001 -0.8032 -1.3437 -2.4950
23581SOL    HW272466   4.680   4.792   0.067 -0.7373  1.4132  1.0193
23582SOL     OW72467   5.272   6.410   0.137 -0.2204 -0.3902 -0.0340
23582SOL    HW172468   5.210   6.471   0.179  0.9890  0.4996  0.5132
23582SOL    HW272469   5.267   6.331   0.190  0.7059  0.4450  1.3713
23583SOL     OW72470   9.038   6.161   1.898 -0.1353  0.5627  0.2425
23583SOL    HW172471   8.954   6.207   1.891  0.1603  0.8816 -1.3998
23583SOL    HW272472   9.024   6.079   1.851  0.7613  1.0613 -0.9334
23584SOL     OW72473   8.374   6.764   1.295  0.2697  0.0170 -0.0833
23584SOL    HW172474   8.362   6.855   1.267 -0.8667  0.0310  0.3996
23584SOL    HW272475   8.362   6.713   1.215 -1.5947  0.1490  0.0559
23585SOL     OW72476   1.274   3.225   1.175 -0.4303 -0.6709  0.4681
23585SOL    HW172477   1.184   3.252   1.157  0.5175  1.7848 -1.1518
23585SOL    HW272478   1.304   3.286   1.243 -0.2664 -2.2090  1.8532
23586SOL     OW72479   0.837   5.486   9.538 -0.2709  0.0123  0.1666
23586SOL    HW172480   0.919   5.476   9.586 -0.1430  0.0555 -0.0452
23586SOL    HW272481   0.859   5.539   9.462 -0.8637  1.6032  1.0456
23587SOL     OW72482   8.729   5.044   5.341  0.1201  0.5895  0.3034
23587SOL    HW172483   8.805   5.096   5.316  0.3176  1.5292  2.6482
23587SOL    HW272484   8.662   5.109   5.362 -0.2789 -0.1531  1.3816
23588SOL     OW72485   3.334   5.633   5.048 -0.4212  0.7667 -0.2365
23588SOL    HW172486   3.388   5.679   5.113  0.1037  0.5859 -0.5422
23588SOL    HW272487   3.359   5.672   4.965 -0.0594  0.0035 -0.4871
23589SOL     OW72488   2.823   0.006   1.285  0.3250  0.0995 -0.2018
23589SOL    HW172489   2.829   0.077   1.349  0.8756 -1.0798  1.0977
23589SOL    HW272490   2.834   0.049   1.200  0.1001  1.6259  0.5209
23590SOL     OW72491   7.195   3.831   6.019 -0.2480 -0.4182  0.0672
23590SOL    HW172492   7.119   3.832   6.078 -1.1952  0.5306 -1.1215
23590SOL    HW272493   7.162   3.793   5.938  0.2153  1.0659 -0.8588
23591SOL     OW72494   4.239   5.009   6.316 -0.5682 -0.1251  0.7929
23591SOL    HW172495   4.207   5.098   6.302  1.4111  0.5258  0.0487
23591SOL    HW272496   4.227   4.966   6.231 -0.8085 -0.3506  0.9374
23592SOL     OW72497   3.926   2.877   6.975  0.2177  0.0753  0.5824
23592SOL    HW172498   3.919   2.789   6.937 -0.4934  0.2063  0.4042
23592SOL    HW272499   3.922   2.936   6.900 -0.4284  0.3042  0.7888
23593SOL     OW72500   6.036   8.970   9.396 -0.0305  0.2171  0.1293
23593SOL    HW172501   6.008   8.879   9.379 -0.1954 -0.2025  2.3608
23593SOL    HW272502   5.974   9.023   9.345  1.2008 -0.8794 -2.7326
23594SOL     OW72503   6.828   3.816   3.853  0.4737  0.3085 -0.2047
23594SOL    HW172504   6.811   3.905   3.883 -0.1228 -0.1843  0.9531
23594SOL    HW272505   6.887   3.779   3.918 -0.8304 -0.7686  0.4180
23595SOL     OW72506   6.836   8.636   4.122  0.1606 -0.0829 -0.4766
23595SOL    HW172507   6.751   8.602   4.150 -0.1436  0.0042 -1.2481
23595SOL    HW272508   6.833   8.729   4.144 -0.2674  0.0867 -1.2117
23596SOL     OW72509   7.853   1.378   1.684 -0.2167  0.0113 -0.3373
23596SOL    HW172510   7.924   1.400   1.744 -1.4072 -1.8940  1.9646
23596SOL    HW272511   7.874   1.290   1.654 -0.2004  0.5334 -1.9564
23597SOL     OW72512   2.035   4.123   4.516  0.5557 -0.5276  0.0932
23597SOL    HW172513   2.019   4.104   4.424  0.1206  2.0410 -0.4428
23597SOL    HW272514   2.105   4.062   4.541  2.1386  0.0489 -2.5187
23598SOL     OW72515   8.754   7.480   9.006  0.2799 -0.1350  0.3310
23598SOL    HW172516   8.824   7.499   9.068 -0.5589  0.5375  1.1059
23598SOL    HW272517   8.797   7.435   8.934  1.6058  0.7402  0.5351
23599SOL     OW72518   1.434   9.101   5.479 -0.6866 -0.6305  0.0287
23599SOL    HW172519   1.488   9.064   5.548 -0.8735 -0.0821  0.4785
23599SOL    HW272520   1.346   9.107   5.518 -0.0829  3.2746  1.1867
23600SOL     OW72521   8.803   0.455   6.456  0.2953  0.1180  0.5407
23600SOL    HW172522   8.887   0.452   6.411  0.0960  0.1221  0.1650
23600SOL    HW272523   8.813   0.523   6.523 -0.1663  1.8216 -1.0403
23601SOL     OW72524   4.466   5.393   1.691  0.7070  0.0780  0.7051
23601SOL    HW172525   4.450   5.307   1.652  0.7377  0.7767 -0.9652
23601SOL    HW272526   4.378   5.429   1.706  0.6291  0.8576 -1.2930
23602SOL     OW72527   0.286   3.877   8.711 -0.2170 -0.2650 -0.0889
23602SOL    HW172528   0.329   3.889   8.796 -1.2341 -0.1338  0.4115
23602SOL    HW272529   0.318   3.950   8.658 -0.9904  0.7137  0.7659
23603SOL     OW72530   2.753   5.464   5.500 -0.3133 -0.6300  0.7860
23603SOL    HW172531   2.846   5.457   5.477 -0.2744  2.1647 -0.3516
23603SOL    HW272532   2.741   5.556   5.525 -3.0887 -0.3993 -0.8883
23604SOL     OW72533   6.674   5.678   0.319  0.3644 -0.1423 -0.7596
23604SOL    HW172534   6.614   5.675   0.244 -2.6402  3.7985  1.1251
23604SOL    HW272535   6.738   5.745   0.295  0.8169 -0.5375 -0.6696
23605SOL     OW72536   1.573   0.449   5.092 -0.0250 -0.1829  0.2180
23605SOL    HW172537   1.594   0.466   5.001 -0.8302  0.7264  0.1859
23605SOL    HW272538   1.494   0.394   5.088  0.3948 -0.8112  0.3689
23606SOL     OW72539   3.137   7.884   3.381 -0.0310 -0.2225  0.4642
23606SOL    HW172540   3.078   7.855   3.450 -1.3805 -0.0486 -0.5930
23606SOL    HW272541   3.162   7.803   3.335 -1.0026 -0.1016 -0.2943
23607SOL     OW72542   7.181   7.026   1.883  0.3450 -0.0610  0.1475
23607SOL    HW172543   7.194   6.963   1.812  0.4425  0.3209 -0.1706
23607SOL    HW272544   7.153   6.972   1.957 -2.8162 -0.1637 -0.9674
23608SOL     OW72545   0.260   6.827   1.558  0.2304 -0.8725  0.6447
23608SOL    HW172546   0.276   6.799   1.468 -2.4138 -0.4112 -0.0418
23608SOL    HW272547   0.347   6.851   1.591  1.0965  0.5393 -2.3174
23609SOL     OW72548   2.897   8.249   4.172 -0.2705  0.2709 -0.0693
23609SOL    HW172549   2.830   8.245   4.104 -0.1502  0.0934 -0.1784
23609SOL    HW272550   2.929   8.340   4.168 -2.4431  1.2020  1.8722
23610SOL     OW72551   3.981   3.295   1.017  0.5422  0.0455  0.2557
23610SOL    HW172552   4.032   3.329   0.944 -0.2484 -1.5101 -1.0759
23610SOL    HW272553   3.890   3.296   0.987  0.1760 -0.4426  1.2807
23611SOL     OW72554   0.776   8.711   1.735 -0.8393  0.7171  0.2185
23611SOL    HW172555   0.685   8.684   1.725 -0.9509  1.0767  0.2513
23611SOL    HW272556   0.800   8.748   1.649 -0.2553 -0.7524 -0.2758
23612SOL     OW72557   3.912   3.582   3.355  0.2150  0.0473 -0.1160
23612SOL    HW172558   3.938   3.581   3.447 -2.0543  0.8209  0.6072
23612SOL    HW272559   3.960   3.656   3.318 -0.1181  0.8081  0.9032
23613SOL     OW72560   7.695   6.468   8.865 -0.2604 -0.2123  0.5536
23613SOL    HW172561   7.691   6.532   8.794 -1.0230 -1.6889 -0.8004
23613SOL    HW272562   7.610   6.476   8.909 -0.1718  0.0235  0.6825
23614SOL     OW72563   5.073   1.142   1.438  0.5614 -0.7752 -0.4829
23614SOL    HW172564   5.048   1.091   1.360  0.1549 -0.9602 -0.2297
23614SOL    HW272565   5.104   1.076   1.500 -0.5851 -0.7851  0.0912
23615SOL     OW72566   1.891   0.517   7.681  0.1167 -0.1227 -0.1412
23615SOL    HW172567   1.824   0.465   7.638 -0.7707  0.2133  0.8056
23615SOL    HW272568   1.852   0.603   7.693 -1.0232 -0.9974  4.2177
23616SOL     OW72569   3.853   1.227   2.902 -0.5962 -0.0892 -0.1308
23616SOL    HW172570   3.885   1.264   2.984 -2.6372  0.9105  0.2754
23616SOL    HW272571   3.932   1.211   2.850  0.7586 -0.9476  2.0700
23617SOL     OW72572   9.252   7.234   3.917  0.1599  0.7027  0.1123
23617SOL    HW172573   9.172   7.220   3.968  1.5190  1.0914  2.4861
23617SOL    HW272574   9.258   7.328   3.905  0.4988  0.7140  0.3557
23618SOL     OW72575   5.138   8.712   3.151  0.0873 -0.4574 -0.3105
23618SOL    HW172576   5.182   8.646   3.098 -0.5751 -1.0657 -0.1289
23618SOL    HW272577   5.048   8.714   3.116 -0.5805 -1.4299  1.2500
23619SOL     OW72578   8.255   1.265   9.025 -0.2314  0.5670  0.3917
23619SOL    HW172579   8.304   1.192   9.063  2.6290  1.1640 -1.8090
23619SOL    HW272580   8.164   1.236   9.028  0.4211 -1.6677  2.5142
23620SOL     OW72581   0.539   0.194   5.876 -0.4920 -0.3343 -0.1266
23620SOL    HW172582   0.486   0.246   5.936 -0.6684 -0.6623  0.0030
23620SOL    HW272583   0.498   0.206   5.790 -2.3217 -2.5404  0.3288
23621SOL     OW72584   0.707   3.276   1.501  0.1810 -0.5121  0.5431
23621SOL    HW172585   0.636   3.233   1.549  0.6695 -1.8816  0.0848
23621SOL    HW272586   0.666   3.354   1.463 -0.7030 -0.4801  1.5095
23622SOL     OW72587   0.859   1.144   3.439  0.5638  0.0294  0.0730
23622SOL    HW172588   0.879   1.222   3.388 -0.0760 -0.5545 -1.0900
23622SOL    HW272589   0.897   1.072   3.389 -1.6875 -0.7692 -0.6181
23623SOL     OW72590   2.352   4.647   7.031 -0.4914 -0.1341  0.4777
23623SOL    HW172591   2.357   4.731   7.078 -2.0930  0.0165  0.4314
23623SOL    HW272592   2.298   4.666   6.954  0.4623 -0.8518 -0.3888
23624SOL     OW72593   3.333   6.002   2.679 -0.1621  0.5167 -0.4370
23624SOL    HW172594   3.348   6.094   2.660  1.3003  0.7080  1.4027
23624SOL    HW272595   3.246   6.000   2.721  1.2083  1.6577  2.7619
23625SOL     OW72596   5.737   5.729   8.494 -0.0100  0.2056 -0.0522
23625SOL    HW172597   5.716   5.722   8.401  2.2849  2.3617 -0.8686
23625SOL    HW272598   5.686   5.804   8.524 -0.3914 -0.2020  0.3271
23626SOL     OW72599   5.242   7.868   0.873  0.0302 -0.4723  0.2204
23626SOL    HW172600   5.326   7.828   0.852  1.0469  1.0831  1.2261
23626SOL    HW272601   5.179   7.818   0.820  1.7780 -0.4053 -2.1111
23627SOL     OW72602   4.408   0.226   7.285 -0.2640  0.0275 -0.2616
23627SOL    HW172603   4.500   0.207   7.268  0.1177  0.2054  1.3943
23627SOL    HW272604   4.364   0.209   7.202  1.0959 -1.1460 -0.7906
23628SOL     OW72605   4.148   1.388   6.261 -0.3009 -0.4326  0.1437
23628SOL    HW172606   4.149   1.440   6.181 -0.7627 -2.1962 -1.0548
23628SOL    HW272607   4.160   1.298   6.232  0.6633 -1.0215  2.1701
23629SOL     OW72608   7.307   8.820   8.030  0.0054  0.7721  0.5331
23629SOL    HW172609   7.298   8.726   8.045 -0.6658  0.4372 -1.6508
23629SOL    HW272610   7.217   8.852   8.021  0.2843  1.0975 -1.4458
23630SOL     OW72611   7.512   8.791   6.170  0.0369 -0.1605  0.7838
23630SOL    HW172612   7.552   8.705   6.155  0.0874 -0.0203  0.0843
23630SOL    HW272613   7.441   8.795   6.106  1.0804  0.9949 -0.3607
23631SOL     OW72614   8.644   3.259   5.623  0.3025 -0.9610 -0.3276
23631SOL    HW172615   8.647   3.164   5.607  0.2928 -0.7065 -2.1048
23631SOL    HW272616   8.560   3.272   5.667 -0.6549 -1.6036 -1.8300
23632SOL     OW72617   8.849   4.575   6.745  0.3147  0.3940  0.5905
23632SOL    HW172618   8.840   4.552   6.653  1.1466  1.1792  0.2861
23632SOL    HW272619   8.797   4.511   6.792 -2.7951  1.8408 -0.6109
23633SOL     OW72620   0.234   6.868   3.840 -0.5676 -0.8864  0.2400
23633SOL    HW172621   0.255   6.814   3.763  1.0415 -0.3109  0.2553
23633SOL    HW272622   0.170   6.931   3.807  0.4834 -0.3098 -0.8026
23634SOL     OW72623   7.535   9.021   9.326  0.1140  0.4866 -0.4110
23634SOL    HW172624   7.458   9.060   9.368  0.0639 -0.2925  0.2422
23634SOL    HW272625   7.561   9.085   9.260 -0.3875  1.3025  0.1578
23635SOL     OW72626   5.769   2.256   0.278  0.2532  0.4392  0.0044
23635SOL    HW172627   5.759   2.301   0.362  2.9997  0.5238  0.3688
23635SOL    HW272628   5.740   2.167   0.296  1.3421  0.3027  1.2509
23636SOL     OW72629   3.670   6.840   5.296 -0.2084  0.2999  0.0901
23636SOL    HW172630   3.741   6.778   5.284 -0.6999  0.0779 -2.1129
23636SOL    HW272631   3.713   6.922   5.319  0.5898 -0.3505  0.9664
23637SOL     OW72632   8.504   7.216   0.349 -0.1428  0.1957 -0.0041
23637SOL    HW172633   8.436   7.184   0.408 -0.9023 -0.3492 -1.1247
23637SOL    HW272634   8.476   7.186   0.262  0.9484  0.9380 -0.6399
23638SOL     OW72635   1.364   0.622   8.946  0.1898  0.2287  0.0331
23638SOL    HW172636   1.330   0.533   8.952 -0.9716  0.6807  0.4597
23638SOL    HW272637   1.459   0.612   8.949  0.0792 -1.0073 -0.1756
23639SOL     OW72638   9.453   3.330   5.785  0.3031 -0.6715  0.3367
23639SOL    HW172639   9.389   3.261   5.801  0.5602 -0.5263  2.1383
23639SOL    HW272640   9.434   3.397   5.851  1.5150 -0.0555  0.0967
23640SOL     OW72641   9.651   6.642   7.139  0.1054  0.0674 -0.4364
23640SOL    HW172642   9.607   6.561   7.113 -1.5373  1.2135 -1.3985
23640SOL    HW272643   9.583   6.694   7.182  1.1142  0.9722  0.1096
23641SOL     OW72644   4.234   7.158   6.824 -0.3220 -0.3092 -0.3835
23641SOL    HW172645   4.158   7.180   6.770 -0.8239  2.4832  1.2630
23641SOL    HW272646   4.199   7.150   6.912  1.2654  1.2432  0.4502
23642SOL     OW72647   4.940   5.112   9.672 -0.3112  0.3210 -0.0792
23642SOL    HW172648   4.995   5.045   9.714 -1.1391  0.1530  0.7754
23642SOL    HW272649   4.959   5.103   9.579 -1.4251 -2.1068 -0.1646
23643SOL     OW72650   3.614   0.119   4.263  0.0238  0.2524  0.0284
23643SOL    HW172651   3.524   0.104   4.235 -0.0427 -0.8469  0.7892
23643SOL    HW272652   3.668   0.076   4.196  0.0602  1.7363 -0.9641
23644SOL     OW72653   6.399   9.050   4.610 -0.2118 -0.1094 -0.2160
23644SOL    HW172654   6.492   9.065   4.597 -0.2104 -0.3220 -0.4741
23644SOL    HW272655   6.368   9.019   4.525 -0.5101 -0.0763 -0.1213
23645SOL     OW72656   7.864   5.314   1.125  0.4242 -0.1782 -0.1609
23645SOL    HW172657   7.917   5.249   1.170 -1.3727 -0.3523  1.8686
23645SOL    HW272658   7.927   5.379   1.095  2.0638 -1.8237 -0.5112
23646SOL     OW72659   5.308   4.670   9.495  0.8895 -0.7947  0.2167
23646SOL    HW172660   5.223   4.708   9.517 -0.5501 -3.4903 -0.2061
23646SOL    HW272661   5.369   4.744   9.496 -1.4543  1.2576  0.4592
23647SOL     OW72662   6.700   0.087   2.583  0.1872 -0.3872 -0.0790
23647SOL    HW172663   6.717  -0.006   2.600  0.5889 -0.4336 -0.6913
23647SOL    HW272664   6.787   0.127   2.578  0.0060  0.1049  0.6005
23648SOL     OW72665   5.894   0.225   4.087  0.3200  0.0391 -0.2421
23648SOL    HW172666   5.905   0.262   4.175 -1.6986 -1.4074  0.6937
23648SOL    HW272667   5.812   0.176   4.092 -0.2917  0.6106 -3.2075
23649SOL     OW72668   8.444   7.296   7.646 -0.3801  0.5291 -0.0778
23649SOL    HW172669   8.446   7.300   7.550  0.5133  1.0566 -0.0466
23649SOL    HW272670   8.402   7.212   7.665  1.3809 -0.6144 -0.9674
23650SOL     OW72671   2.933   4.652   1.245  0.8765  0.5297  0.2629
23650SOL    HW172672   2.856   4.617   1.291  0.2113 -0.8785 -1.7974
23650SOL    HW272673   2.898   4.719   1.187  1.2583  0.2325 -0.3180
23651SOL     OW72674   6.875   8.938   5.922 -0.4160 -0.2773  0.2327
23651SOL    HW172675   6.963   8.939   5.960  0.0456 -0.2945 -0.8103
23651SOL    HW272676   6.868   8.853   5.880 -0.5146  0.1583 -0.6466
23652SOL     OW72677   4.905   2.520   1.314  0.0667  0.0342 -0.0938
23652SOL    HW172678   4.837   2.505   1.248 -0.8408 -0.1064  0.8452
23652SOL    HW272679   4.943   2.605   1.291 -2.4664  1.5778  1.0383
23653SOL     OW72680   7.600   4.193   1.187 -0.3054  0.3329 -0.0074
23653SOL    HW172681   7.549   4.272   1.169 -1.2378 -0.4043 -0.7553
23653SOL    HW272682   7.567   4.129   1.124  0.4018 -0.6669  0.6077
23654SOL     OW72683   5.595   4.745   6.152 -0.3037  0.1185 -0.1004
23654SOL    HW172684   5.531   4.740   6.081 -0.8839  1.3524  0.3142
23654SOL    HW272685   5.603   4.838   6.171  1.2062 -0.0533  0.2478
23655SOL     OW72686   2.067   7.224   9.054 -0.0569  0.5187  0.5379
23655SOL    HW172687   2.001   7.292   9.063  0.7767  1.4292  0.0277
23655SOL    HW272688   2.084   7.220   8.960 -0.5257 -0.8355  0.4880
23656SOL     OW72689   3.009   1.488   0.779 -0.1431  0.1403 -0.6930
23656SOL    HW172690   3.062   1.450   0.710 -0.0869 -1.0130 -0.0316
23656SOL    HW272691   3.068   1.496   0.854 -1.0166 -1.7886  0.2692
23657SOL     OW72692   0.853   6.645   0.936 -0.2922  0.3266 -0.2548
23657SOL    HW172693   0.891   6.729   0.964 -0.5242  0.5369 -0.5644
23657SOL    HW272694   0.893   6.627   0.852  0.8781 -0.6211  0.4815
23658SOL     OW72695   7.007   9.680   7.628 -0.1091 -0.0723 -0.2181
23658SOL    HW172696   7.075   9.726   7.677 -0.0801 -0.4008  0.0536
23658SOL    HW272697   6.927   9.731   7.644 -0.4183 -1.0270  1.4292
23659SOL     OW72698   4.164   7.222   0.636  0.2876 -0.4847 -0.2207
23659SOL    HW172699   4.086   7.167   0.643 -0.8384  0.7327 -2.1135
23659SOL    HW272700   4.145   7.298   0.692  0.2998 -0.4013 -0.3294
23660SOL     OW72701   0.279   5.807   5.616 -0.7276 -0.3806  0.0740
23660SOL    HW172702   0.328   5.841   5.690  0.1013  0.0465 -0.6464
23660SOL    HW272703   0.228   5.882   5.584 -0.8281 -0.4727  0.0172
23661SOL     OW72704   4.688   7.282   3.287  0.5899  0.0977  0.1110
23661SOL    HW172705   4.662   7.342   3.357  2.9666 -1.0336  2.1480
23661SOL    HW272706   4.665   7.195   3.321  2.1488 -0.5064 -0.2786
23662SOL     OW72707   5.860   9.497   6.042 -0.1658 -0.6931 -0.3095
23662SOL    HW172708   5.952   9.471   6.044  0.1353  0.1667 -1.7015
23662SOL    HW272709   5.813   9.419   6.012  0.2089 -0.9034 -0.3457
23663SOL     OW72710   4.997   4.256   4.968 -0.1375 -0.0579 -0.3021
23663SOL    HW172711   4.949   4.299   5.039  3.9841  3.1460  0.9746
23663SOL    HW272712   4.979   4.310   4.891 -0.5908 -0.4292 -0.4581
23664SOL     OW72713   8.807   5.816   8.667 -0.0549  0.3640 -0.2298
23664SOL    HW172714   8.817   5.764   8.587  1.3148 -0.1305  0.2494
23664SOL    HW272715   8.870   5.779   8.728  0.3853  2.0840  0.3984
23665SOL     OW72716   1.490   3.661   6.848  0.7018 -0.0541  0.0060
23665SOL    HW172717   1.540   3.645   6.928  0.3047  0.7871  0.4374
23665SOL    HW272718   1.452   3.748   6.861  0.9313  0.2560 -1.2572
23666SOL     OW72719   5.770   7.899   7.844  0.1254 -0.1621  0.4593
23666SOL    HW172720   5.771   7.956   7.766 -0.4518 -0.2410  0.3871
23666SOL    HW272721   5.761   7.811   7.809  0.9060 -0.2956  0.5778
23667SOL     OW72722   6.348   9.465   8.544 -0.4505  0.1636  0.3174
23667SOL    HW172723   6.405   9.474   8.620  1.2040  0.9903 -0.9444
23667SOL    HW272724   6.320   9.555   8.524 -2.8194 -0.2859  1.3022
23668SOL     OW72725   5.581   8.589   1.243 -0.4695 -0.1849  0.8330
23668SOL    HW172726   5.559   8.502   1.211 -0.8458 -0.6122  2.1657
23668SOL    HW272727   5.585   8.643   1.165 -2.5478 -0.9045  0.1525
23669SOL     OW72728   3.749   5.515   6.018  0.1314  0.2974 -0.2535
23669SOL    HW172729   3.808   5.582   6.052 -1.1148 -0.1446  3.1354
23669SOL    HW272730   3.682   5.563   5.970  0.4652  1.2425  0.2120
23670SOL     OW72731   9.357   7.531   9.485 -0.0735 -0.2314 -0.4215
23670SOL    HW172732   9.347   7.571   9.398 -0.6136  1.2617  0.2848
23670SOL    HW272733   9.322   7.597   9.545  2.1072 -0.3412  1.1086
23671SOL     OW72734   3.451   6.260   0.399  0.0385  0.3301  0.4196
23671SOL    HW172735   3.543   6.235   0.391 -0.4999 -3.2398  2.9713
23671SOL    HW272736   3.446   6.313   0.478  0.0410  1.9908 -0.6420
23672SOL     OW72737   5.067   5.708   5.903  0.2216 -0.0404  0.2715
23672SOL    HW172738   5.103   5.690   5.989 -0.1652 -0.4908  0.3481
23672SOL    HW272739   5.143   5.729   5.848  0.7513 -1.9573  0.1723
23673SOL     OW72740   2.257   0.761   9.123  0.2091  0.0278 -0.0292
23673SOL    HW172741   2.181   0.820   9.129 -0.1202 -0.3958  0.0591
23673SOL    HW272742   2.261   0.719   9.209  0.3473 -0.1835 -0.1367
23674SOL     OW72743   3.768   4.466   8.065 -0.0697 -0.1337  0.4620
23674SOL    HW172744   3.862   4.452   8.055  0.0774  2.1277 -3.3540
23674SOL    HW272745   3.760   4.545   8.118  0.2041  0.1162  0.1267
23675SOL     OW72746   2.710   7.017   2.747  0.0345  0.4584  0.2791
23675SOL    HW172747   2.697   6.952   2.816  0.7427 -0.8052 -0.7205
23675SOL    HW272748   2.630   7.012   2.695 -0.2376  0.9648  0.6384
23676SOL     OW72749   3.918   5.417   6.883  0.2615  0.4997 -0.3290
23676SOL    HW172750   3.974   5.494   6.870  0.9752 -0.0666 -0.6579
23676SOL    HW272751   3.856   5.444   6.950  0.8789  1.1726 -0.0180
23677SOL     OW72752   5.943   5.946   3.152 -0.2146  0.7258 -0.0502
23677SOL    HW172753   5.950   5.929   3.058 -0.7830  0.9487 -0.1389
23677SOL    HW272754   6.012   6.010   3.170 -0.7036  1.3912 -0.5032
23678SOL     OW72755   8.974   8.992   6.097  0.2188  0.2418 -0.3591
23678SOL    HW172756   8.894   8.980   6.046 -0.3810  1.6533  0.2038
23678SOL    HW272757   8.972   8.921   6.162 -0.0578 -0.3235 -0.9730
23679SOL     OW72758   7.329   9.580   6.450 -0.9257 -0.1478  0.0956
23679SOL    HW172759   7.372   9.621   6.375 -0.4169 -1.4293 -0.3468
23679SOL    HW272760   7.370   9.494   6.456 -2.2699 -0.7647  0.7045
23680SOL     OW72761   8.605   8.041   6.611 -0.2635  0.4534  0.3950
23680SOL    HW172762   8.565   8.015   6.528 -3.5774 -0.6936  2.1841
23680SOL    HW272763   8.608   8.137   6.606 -1.6486  0.4839 -0.5598
23681SOL     OW72764   0.440   8.909   1.753  0.2884  0.5024 -0.6998
23681SOL    HW172765   0.459   8.829   1.704  0.4189  0.4423 -0.5541
23681SOL    HW272766   0.467   8.888   1.843  0.8491  0.8980 -0.7711
23682SOL     OW72767   4.182   8.083   3.734  0.4505  0.4536 -0.0583
23682SOL    HW172768   4.201   8.070   3.827  2.2282  1.2564 -0.2548
23682SOL    HW272769   4.106   8.140   3.732  0.5160  0.5888  0.9153
23683SOL     OW72770   8.404   5.930   9.337 -0.4175  0.3010 -0.4248
23683SOL    HW172771   8.476   5.981   9.374 -1.0084  0.0851  1.0572
23683SOL    HW272772   8.357   5.993   9.282 -0.1859  0.9303  0.0773
23684SOL     OW72773   9.555   9.367   0.416 -0.2001 -0.4508 -0.1437
23684SOL    HW172774   9.501   9.406   0.347  0.4704 -1.1070 -1.0675
23684SOL    HW272775   9.606   9.440   0.451  0.4353 -0.3230 -1.2822
23685SOL     OW72776   8.331   2.861   0.021  0.4821 -0.0194 -0.6615
23685SOL    HW172777   8.318   2.776  -0.021  1.1762 -0.1138 -0.6959
23685SOL    HW272778   8.245   2.903   0.019  0.0223 -0.9184 -0.2040
23686SOL     OW72779   6.658   6.862   3.665  0.0300  0.0092  0.1801
23686SOL    HW172780   6.716   6.923   3.619 -0.2880  0.2761  0.1367
23686SOL    HW272781   6.584   6.849   3.606  0.1237 -0.4664  0.1618
23687SOL     OW72782   0.173   4.443   0.184 -0.0609  0.1532 -0.7300
23687SOL    HW172783   0.268   4.438   0.191  0.0771  0.9993 -1.7242
23687SOL    HW272784   0.141   4.404   0.265  1.1437  0.4828 -0.0685
23688SOL     OW72785   5.471   9.205   3.933 -0.1752  0.1641  0.7126
23688SOL    HW172786   5.465   9.281   3.991 -1.3145  0.2719  0.4831
23688SOL    HW272787   5.525   9.142   3.982  1.6391  1.4639  0.4819
23689SOL     OW72788   0.578   2.138   2.177  0.4941  0.5880 -0.2614
23689SOL    HW172789   0.616   2.160   2.092  3.1465 -0.8406  0.4619
23689SOL    HW272790   0.562   2.044   2.172  1.1673  0.3941  1.0037
23690SOL     OW72791   4.367   2.348   1.375  0.3538 -0.3918  0.0561
23690SOL    HW172792   4.441   2.292   1.352  0.1048 -0.7995  0.2264
23690SOL    HW272793   4.324   2.367   1.292  1.6527  1.3092 -0.2745
23691SOL     OW72794   8.039   7.612   3.035 -0.4471  0.1621  0.1889
23691SOL    HW172795   8.023   7.699   3.070 -0.3073  1.3479 -2.4783
23691SOL    HW272796   7.954   7.569   3.035 -0.8120  0.8814  0.0762
23692SOL     OW72797   2.586   9.422   5.127  1.4270 -0.1384 -0.1758
23692SOL    HW172798   2.572   9.464   5.212  2.1982 -0.5225  0.1553
23692SOL    HW272799   2.642   9.482   5.079  0.1005  0.5983 -0.8511
23693SOL     OW72800   4.071   5.631   6.819  0.4942  0.0161  0.1851
23693SOL    HW172801   4.120   5.670   6.747 -0.1496  0.7313  0.1183
23693SOL    HW272802   4.024   5.705   6.859  0.7530 -0.3856  1.2711
23694SOL     OW72803   0.609   6.261   1.329  0.0111  0.3629 -0.4201
23694SOL    HW172804   0.704   6.253   1.339  0.1005  1.7430 -0.0598
23694SOL    HW272805   0.578   6.170   1.322  1.3741 -0.0939 -0.7837
23695SOL     OW72806   8.563   0.998   8.169  0.0736 -0.1023  0.1803
23695SOL    HW172807   8.599   0.911   8.150  0.2565 -0.2104  0.9989
23695SOL    HW272808   8.629   1.041   8.223  0.4740  0.9662 -1.0975
23696SOL     OW72809   8.313   7.469   4.748 -0.0317 -0.8003  0.1081
23696SOL    HW172810   8.268   7.491   4.830  0.3388  0.4533 -0.0049
23696SOL    HW272811   8.264   7.394   4.714 -1.1939 -0.3326  0.6715
23697SOL     OW72812   6.782   3.590   5.498  0.2494  0.4557 -0.2088
23697SOL    HW172813   6.726   3.645   5.444  0.9703  2.5388  1.0350
23697SOL    HW272814   6.860   3.577   5.445 -1.1890 -2.2749 -1.8585
23698SOL     OW72815   8.718   3.627   8.669  0.3981 -0.2760  0.1955
23698SOL    HW172816   8.654   3.589   8.609  0.6025 -1.5612  0.7643
23698SOL    HW272817   8.800   3.625   8.621 -0.0025  1.7211 -0.6792
23699SOL     OW72818   5.709   3.878   7.241 -0.3046  0.2279 -0.0521
23699SOL    HW172819   5.758   3.857   7.320  0.9719 -0.2528 -0.9442
23699SOL    HW272820   5.681   3.793   7.206 -3.1827  0.5213  1.2388
23700SOL     OW72821   0.033   8.009   4.725  0.5036  0.0681  0.4170
23700SOL    HW172822   0.103   8.058   4.680 -0.3018 -0.2339 -1.2189
23700SOL    HW272823   0.006   8.067   4.796  0.3947  1.5133 -0.7542
23701SOL     OW72824   7.201   2.520   8.357  0.4957  0.2078 -0.4788
23701SOL    HW172825   7.205   2.615   8.366  1.0088  0.0819  1.0094
23701SOL    HW272826   7.275   2.488   8.409  0.4184 -0.9980 -1.0840
23702SOL     OW72827   4.793   4.629   2.737 -0.5780  0.0950 -0.0011
23702SOL    HW172828   4.734   4.606   2.809 -0.6276  1.0456  0.2753
23702SOL    HW272829   4.813   4.545   2.695 -2.4972 -0.1999 -0.4055
23703SOL     OW72830   8.204   6.148   2.883 -0.1947 -0.1046 -0.6954
23703SOL    HW172831   8.225   6.074   2.941 -0.2638  0.1554 -0.3336
23703SOL    HW272832   8.169   6.215   2.942  1.0615  0.7052 -0.8341
23704SOL     OW72833   0.618   2.314   2.413  0.0034 -0.1768  0.3433
23704SOL    HW172834   0.631   2.408   2.405 -0.6644 -0.0575  0.5643
23704SOL    HW272835   0.618   2.281   2.323 -1.5725  0.3043  0.1329
23705SOL     OW72836   8.889   6.572   7.180  0.7034  0.1846 -0.6030
23705SOL    HW172837   8.982   6.566   7.161  0.8022 -1.7197  0.3200
23705SOL    HW272838   8.882   6.641   7.246  1.7064 -0.9095  0.6957
23706SOL     OW72839   4.740   7.123   8.507  0.6904  0.3485 -0.2088
23706SOL    HW172840   4.789   7.150   8.429 -0.9272 -0.2723 -1.5274
23706SOL    HW272841   4.682   7.197   8.526 -0.5261 -0.3348 -1.0499
23707SOL     OW72842   8.670   5.681   3.156 -0.0683  0.2574  0.4092
23707SOL    HW172843   8.672   5.644   3.244  0.6784  1.1340  0.7816
23707SOL    HW272844   8.756   5.722   3.146 -0.0043 -0.1727 -0.8846
23708SOL     OW72845   5.127   4.952   2.371  0.0467  0.0550  0.0329
23708SOL    HW172846   5.073   4.993   2.438  0.1100 -0.1004  0.1794
23708SOL    HW272847   5.120   4.858   2.388 -0.2836 -0.0108 -0.4410
23709SOL     OW72848   7.488   9.330   6.508  0.3047 -0.4555 -0.0184
23709SOL    HW172849   7.444   9.265   6.453  0.3425 -1.6689  1.3289
23709SOL    HW272850   7.580   9.322   6.484  0.3739 -1.2625  0.4742
23710SOL     OW72851   7.021   0.308   2.171 -0.3813  0.0856 -0.0409
23710SOL    HW172852   6.976   0.245   2.114 -0.6509  0.0002  0.2612
23710SOL    HW272853   6.980   0.295   2.257 -1.4078  1.6099 -0.2620
23711SOL     OW72854   4.609   0.394   9.072 -0.9158 -0.1585  0.0223
23711SOL    HW172855   4.526   0.368   9.033 -0.1113  0.7599 -2.4529
23711SOL    HW272856   4.596   0.486   9.097 -0.5046  0.1364 -0.8271
23712SOL     OW72857   5.439   5.241   4.902  0.5602  0.0666 -0.1407
23712SOL    HW172858   5.421   5.223   4.994  2.9375 -0.4046  0.2881
23712SOL    HW272859   5.358   5.280   4.869 -1.2971 -2.1791  1.4432
23713SOL     OW72860   2.600   2.624   6.887 -0.1390  0.1496 -0.1826
23713SOL    HW172861   2.513   2.649   6.858  0.1214  0.3919 -0.7689
23713SOL    HW272862   2.659   2.684   6.841  0.3616 -0.2813 -0.1176
23714SOL     OW72863   7.578   6.737   7.543  0.0330  0.1101 -0.1126
23714SOL    HW172864   7.559   6.658   7.593  2.5187  1.0060  2.5440
23714SOL    HW272865   7.619   6.706   7.463  0.4801 -1.3128  0.6353
23715SOL     OW72866   3.457   5.088   3.270 -0.1700  0.0561 -0.4691
23715SOL    HW172867   3.424   5.168   3.230 -0.4035  0.0804 -0.2313
23715SOL    HW272868   3.550   5.105   3.286  0.3279 -0.5302 -2.4697
23716SOL     OW72869   7.621   2.247   6.435 -0.3574  0.5150 -0.1492
23716SOL    HW172870   7.527   2.262   6.445 -0.2207  2.7918 -1.4770
23716SOL    HW272871   7.660   2.291   6.511 -0.3430  0.0861  0.0901
23717SOL     OW72872   6.905   7.818   4.475 -0.3736  0.0478  0.2435
23717SOL    HW172873   6.908   7.883   4.404 -0.0577 -1.2415 -0.9684
23717SOL    HW272874   6.986   7.833   4.524  1.4071 -1.4738 -1.9924
23718SOL     OW72875   2.556   6.485   5.325  0.1276  0.1276  0.2265
23718SOL    HW172876   2.478   6.491   5.270 -1.3672  2.4809  2.3635
23718SOL    HW272877   2.614   6.554   5.292 -0.7321  1.4803  1.4133
23719SOL     OW72878   8.170   4.248   4.303 -0.7553 -0.3016 -0.0189
23719SOL    HW172879   8.235   4.178   4.309 -1.0918 -0.6442 -0.3457
23719SOL    HW272880   8.133   4.254   4.392  0.3492  0.5149  0.4092
23720SOL     OW72881   7.401   9.460   4.685 -0.2942  0.6036  0.0222
23720SOL    HW172882   7.460   9.389   4.661 -1.2004 -0.2097  0.1722
23720SOL    HW272883   7.314   9.427   4.664 -0.8698  1.0203  1.6399
23721SOL     OW72884   8.303   8.053   5.021 -0.5830 -0.5514  0.0443
23721SOL    HW172885   8.243   8.116   4.982 -1.5490 -2.0043 -0.9277
23721SOL    HW272886   8.286   8.057   5.115 -1.5235 -0.2731 -0.1313
23722SOL     OW72887   0.830   7.673   2.574 -0.8104  0.0655 -0.0896
23722SOL    HW172888   0.770   7.599   2.578 -0.5631 -0.0859  1.8048
23722SOL    HW272889   0.880   7.660   2.494 -2.2502 -0.6205 -0.9109
23723SOL     OW72890   0.505   9.475   7.143  0.5549 -0.6051 -0.5658
23723SOL    HW172891   0.476   9.428   7.221 -0.0645 -0.1852 -0.5345
23723SOL    HW272892   0.571   9.418   7.103  0.7484 -0.9063  0.1626
23724SOL     OW72893   2.501   0.540   9.391  0.0480  0.3365 -0.3238
23724SOL    HW172894   2.578   0.485   9.375 -0.2403  0.0564 -0.7629
23724SOL    HW272895   2.505   0.607   9.323  0.0034  0.4364 -0.2291
23725SOL     OW72896   6.888   3.252   0.974  0.2769 -0.3674 -0.2770
23725SOL    HW172897   6.877   3.274   1.066  0.3253 -1.8622  0.1183
23725SOL    HW272898   6.820   3.302   0.929  1.6891  2.1613  0.2297
23726SOL     OW72899   0.893   4.297   5.322  0.5554 -0.5650 -0.5930
23726SOL    HW172900   0.859   4.214   5.289  0.1282 -0.2761 -0.8918
23726SOL    HW272901   0.921   4.345   5.244 -0.2611  0.0348 -0.5327
23727SOL     OW72902   5.668   6.545   3.212 -0.9041 -0.3661  0.1738
23727SOL    HW172903   5.703   6.456   3.211 -0.3008 -0.1562  1.1035
23727SOL    HW272904   5.676   6.576   3.122  0.4909 -0.6454  0.1868
23728SOL     OW72905   1.289   6.617   4.693 -0.5230 -0.3976 -0.0592
23728SOL    HW172906   1.288   6.659   4.608  0.6266  1.3997  0.7547
23728SOL    HW272907   1.201   6.580   4.703 -1.2620  0.9778 -1.2398
23729SOL     OW72908   2.683   7.134   1.621 -0.1833 -0.0721 -0.1194
23729SOL    HW172909   2.731   7.207   1.660  0.0607 -0.9103  1.2275
23729SOL    HW272910   2.653   7.083   1.697 -0.9592 -0.9754 -1.0140
23730SOL     OW72911   3.415   7.351   6.184  0.1702  0.2034  0.2028
23730SOL    HW172912   3.401   7.412   6.112 -1.0519  0.1921  0.4012
23730SOL    HW272913   3.361   7.275   6.162 -0.3313  0.2562  1.1760
23731SOL     OW72914   2.943   3.333   8.701  0.0411 -0.5171  0.2326
23731SOL    HW172915   2.954   3.404   8.638  2.3061 -1.8142 -0.9217
23731SOL    HW272916   2.981   3.367   8.782  0.1399 -0.0222 -0.0183
23732SOL     OW72917   1.995   3.794   2.255 -0.0509  0.1476 -0.0174
23732SOL    HW172918   1.982   3.849   2.178  2.2593 -0.7626 -1.1706
23732SOL    HW272919   1.916   3.742   2.262 -0.3413  0.3056 -1.7625
23733SOL     OW72920   5.881   8.470   9.538 -0.3386 -0.2212  0.2536
23733SOL    HW172921   5.958   8.524   9.556 -0.1622  0.2244 -1.5733
23733SOL    HW272922   5.903   8.383   9.573  0.2185  0.3608  1.3870
23734SOL     OW72923   1.466   0.125   5.376 -0.0588 -0.4735  0.2877
23734SOL    HW172924   1.493   0.215   5.355  0.3614 -0.7547 -0.4164
23734SOL    HW272925   1.496   0.073   5.301 -0.5136 -1.1658  0.5769
23735SOL     OW72926   7.210   8.696   3.436 -0.1493  0.4380 -0.1476
23735SOL    HW172927   7.193   8.612   3.393 -1.4891  0.2205  0.7192
23735SOL    HW272928   7.300   8.718   3.414  0.6096 -1.7996  0.5579
23736SOL     OW72929   4.035   5.503   4.593  0.2530 -0.0793  0.1113
23736SOL    HW172930   4.010   5.498   4.501 -0.2187  1.3657  0.1423
23736SOL    HW272931   4.098   5.432   4.605  2.3346  1.2959 -1.9443
23737SOL     OW72932   8.647   3.959   2.881 -0.4118 -0.3405  0.5268
23737SOL    HW172933   8.693   3.890   2.833  0.2043  0.4228 -0.0036
23737SOL    HW272934   8.583   3.993   2.819 -0.6588 -0.3692  0.7616
23738SOL     OW72935   1.908   7.691   1.044 -0.2532  0.0607 -0.1016
23738SOL    HW172936   1.883   7.603   1.073  1.5404 -0.1429  0.9198
23738SOL    HW272937   1.971   7.675   0.973 -0.2488  0.5429 -0.2069
23739SOL     OW72938   9.024   1.995   7.893  0.2810  0.6227 -0.0980
23739SOL    HW172939   8.976   1.957   7.819 -2.2545  1.5469  0.9784
23739SOL    HW272940   9.113   1.961   7.883 -0.6428 -1.5182 -1.9910
23740SOL     OW72941   1.791   0.436   8.431 -0.0473 -0.4811  0.6879
23740SOL    HW172942   1.855   0.489   8.384 -0.7170  0.8660  1.2387
23740SOL    HW272943   1.844   0.377   8.486  0.7088 -0.2020  0.2752
23741SOL     OW72944   1.513   4.104   1.680 -0.2898 -0.6391  0.3764
23741SOL    HW172945   1.491   4.023   1.633  0.6454 -0.2360 -0.7905
23741SOL    HW272946   1.484   4.174   1.622  2.7807 -0.0951 -0.6754
23742SOL     OW72947   3.599   8.097   3.249  0.1845  0.8724 -0.1795
23742SOL    HW172948   3.664   8.164   3.231  0.7703  0.1392 -0.8749
23742SOL    HW272949   3.648   8.028   3.294 -0.3978  0.8735  0.4788
23743SOL     OW72950   9.370   2.843   6.607 -0.3655  0.6005  0.7363
23743SOL    HW172951   9.449   2.802   6.642  0.1936  1.7529  0.8544
23743SOL    HW272952   9.310   2.769   6.592  0.0281 -0.1162  2.3988
23744SOL     OW72953   6.615   3.039   4.635  0.1946 -0.1033 -0.3485
23744SOL    HW172954   6.653   2.952   4.648 -0.3157 -0.4845 -1.3027
23744SOL    HW272955   6.521   3.027   4.651  0.3447  0.6813  1.3062
23745SOL     OW72956   1.324   7.240   8.857  0.0433  0.3380 -0.0229
23745SOL    HW172957   1.279   7.210   8.778 -1.4510 -1.2260  1.3280
23745SOL    HW272958   1.264   7.305   8.895 -1.6152 -2.2238  2.1284
23746SOL     OW72959   6.251   5.388   5.592  0.1317 -0.2864 -0.4064
23746SOL    HW172960   6.326   5.411   5.538  0.4652 -1.9679 -0.7105
23746SOL    HW272961   6.199   5.468   5.596  1.7167  0.7970 -0.5292
23747SOL     OW72962   8.649   9.197   4.151  0.3518  0.2421  0.2129
23747SOL    HW172963   8.658   9.108   4.117 -1.1313  0.0255  0.3240
23747SOL    HW272964   8.569   9.230   4.109  0.9505  1.5718  0.0739
23748SOL     OW72965   8.960   6.175   7.725 -0.7160  0.5769  0.2520
23748SOL    HW172966   9.051   6.148   7.724 -0.8674  0.0541  0.1948
23748SOL    HW272967   8.915   6.110   7.671 -0.8852  1.7174 -1.0339
23749SOL     OW72968   4.869   8.361   1.704  0.1674  0.2088 -0.0888
23749SOL    HW172969   4.943   8.418   1.684 -1.0634  1.3302 -1.8388
23749SOL    HW272970   4.865   8.299   1.631 -1.5571  1.2519 -0.9585
23750SOL     OW72971   8.978   6.192   3.603 -0.0809 -0.3270 -0.5724
23750SOL    HW172972   9.051   6.155   3.554 -0.3889 -0.0958 -1.2065
23750SOL    HW272973   8.957   6.125   3.669  2.1454  0.5187  1.1002
23751SOL     OW72974   2.403   4.036   8.094  0.4180  0.0186  0.1183
23751SOL    HW172975   2.391   4.069   8.183  1.0808 -0.4162  0.3782
23751SOL    HW272976   2.497   4.019   8.088  0.9400  2.9427 -1.6954
23752SOL     OW72977   0.829   6.983   2.697 -0.0002 -0.8010  0.3622
23752SOL    HW172978   0.811   6.897   2.659  0.7271 -1.0569  0.5875
23752SOL    HW272979   0.818   7.044   2.624  3.3567 -1.4700 -0.8591
23753SOL     OW72980   4.870   1.210   3.181  0.4032  0.8407 -0.3455
23753SOL    HW172981   4.913   1.153   3.117 -0.1277  0.3173 -0.2481
23753SOL    HW272982   4.922   1.202   3.260  0.3741  0.5480 -0.3559
23754SOL     OW72983   7.081   8.334   7.513  0.8517 -0.0515 -0.7719
23754SOL    HW172984   7.024   8.408   7.534  0.9686 -0.3933  0.8666
23754SOL    HW272985   7.052   8.305   7.426 -0.5429  0.6550 -0.5646
23755SOL     OW72986   0.965   2.029   6.806 -0.1462 -0.2410 -0.2304
23755SOL    HW172987   0.988   1.948   6.852  0.1349  0.3193  0.6556
23755SOL    HW272988   0.921   2.082   6.873 -1.3253 -0.0925 -1.0992
23756SOL     OW72989   9.302   6.379   5.608  0.2741  0.1748 -0.3531
23756SOL    HW172990   9.296   6.435   5.530  0.0232  0.0473 -0.4233
23756SOL    HW272991   9.350   6.302   5.579  3.0344  1.4685  0.3524
23757SOL     OW72992   8.953   2.572   2.753 -0.2367  0.2801  0.3934
23757SOL    HW172993   8.943   2.587   2.659 -0.1091  0.9549  0.4865
23757SOL    HW272994   8.915   2.485   2.767  0.9015 -0.3987 -0.4923
23758SOL     OW72995   9.554   9.242   7.230 -0.2644 -0.0829 -0.2011
23758SOL    HW172996   9.556   9.192   7.312  0.6167 -1.0942 -0.8143
23758SOL    HW272997   9.548   9.334   7.258 -2.2883 -0.5018  0.9465
23759SOL     OW72998   3.050   2.257   0.982 -0.2242 -0.5508  0.1458
23759SOL    HW172999   2.988   2.219   1.044  0.6960 -1.0335  0.8057
23759SOL    HW273000   3.013   2.343   0.960 -0.0480  0.1187  2.2418
23760SOL     OW73001   5.932   7.639   0.674  0.0281 -0.5917 -0.4667
23760SOL    HW173002   5.996   7.578   0.638  0.0579 -0.1120 -1.2656
23760SOL    HW273003   5.848   7.595   0.664  0.0325 -0.4515 -1.1815
23761SOL     OW73004   4.049   7.961   2.890  0.5807  0.2530  0.0179
23761SOL    HW173005   4.064   8.051   2.864 -1.7367  0.7309  0.1883
23761SOL    HW273006   4.011   7.919   2.813 -0.0243 -0.0961  0.4959
23762SOL     OW73007   3.197   1.222   3.050  0.1202 -0.5168 -0.6994
23762SOL    HW173008   3.254   1.235   2.975 -1.5984  1.0509 -1.8090
23762SOL    HW273009   3.135   1.155   3.021  0.0049 -0.5662 -0.3443
23763SOL     OW73010   0.097   9.518   8.511 -0.3130 -0.6281 -0.7769
23763SOL    HW173011   0.070   9.605   8.540 -0.9113 -1.5370  1.5155
23763SOL    HW273012   0.181   9.534   8.466 -0.3452  1.1078 -0.3033
23764SOL     OW73013   1.938   0.814   1.225 -0.6831 -0.1137 -0.3320
23764SOL    HW173014   1.915   0.854   1.141 -1.7650 -0.8008 -0.3825
23764SOL    HW273015   2.016   0.763   1.207 -0.5947  0.1805 -0.7960
23765SOL     OW73016   0.324   6.885   7.284 -0.3596  0.1020  0.0324
23765SOL    HW173017   0.395   6.822   7.275 -0.1965  0.0951  1.1646
23765SOL    HW273018   0.269   6.871   7.207  0.6729 -0.1329 -0.6804
23766SOL     OW73019   2.943   1.187   1.027  0.2725  0.5311  0.3709
23766SOL    HW173020   2.939   1.112   0.968 -1.3776  1.3786 -0.6674
23766SOL    HW273021   3.029   1.181   1.068  0.6564 -1.2233 -0.5994
23767SOL     OW73022   2.207   4.348   7.532  0.2839  0.1139  0.3722
23767SOL    HW173023   2.249   4.267   7.503  2.7754  1.1165  0.8571
23767SOL    HW273024   2.262   4.418   7.495 -0.4224  1.5218  1.8432
23768SOL     OW73025   0.321   8.208   2.636  0.1561 -0.3667 -0.4623
23768SOL    HW173026   0.399   8.188   2.687  0.1675 -0.1035 -0.3775
23768SOL    HW273027   0.328   8.153   2.558  0.2796 -0.5592 -0.3173
23769SOL     OW73028   8.832   1.454   0.187 -0.5079  0.3307 -0.0465
23769SOL    HW173029   8.754   1.493   0.147 -0.9931  0.2903  0.8255
23769SOL    HW273030   8.902   1.472   0.125 -0.7154  2.5913  0.2849
23770SOL     OW73031   6.545   2.162   5.233 -0.5142  0.5964  0.3888
23770SOL    HW173032   6.467   2.136   5.281 -0.4096  0.8166  0.6783
23770SOL    HW273033   6.549   2.257   5.242 -0.6994  0.6824 -0.3625
23771SOL     OW73034   6.554   7.216   0.881  0.2120  0.0555 -0.1665
23771SOL    HW173035   6.644   7.249   0.885  0.3664 -0.4459  0.9304
23771SOL    HW273036   6.530   7.220   0.788  1.6644 -0.6279 -0.5843
23772SOL     OW73037   0.898   0.342   1.227 -0.0449 -0.5936  0.1764
23772SOL    HW173038   0.992   0.341   1.246  0.2614 -2.1544 -1.1594
23772SOL    HW273039   0.874   0.249   1.220 -1.3219 -0.2067 -1.1097
23773SOL     OW73040   9.358   9.128   7.093 -0.3470 -0.0324  0.1576
23773SOL    HW173041   9.440   9.161   7.130 -1.2662  1.0258  1.2950
23773SOL    HW273042   9.290   9.183   7.131 -1.6160 -0.9851 -0.6604
23774SOL     OW73043   4.398   8.666   3.956 -0.1172  0.0322 -0.2726
23774SOL    HW173044   4.309   8.683   3.986  0.4866  2.2663  0.4576
23774SOL    HW273045   4.409   8.722   3.879  1.0219  0.7665  0.3834
23775SOL     OW73046   9.658   8.554   3.028  0.0704 -0.2745  0.6351
23775SOL    HW173047   9.676   8.625   2.966  0.6222  0.1089  1.2191
23775SOL    HW273048   9.742   8.508   3.037 -0.1837 -0.7655  0.5626
23776SOL     OW73049   7.337   8.468   1.110 -0.3410  0.4462  0.1652
23776SOL    HW173050   7.405   8.420   1.158 -0.2163  1.0504  0.6047
23776SOL    HW273051   7.255   8.427   1.138 -0.1251 -1.0218 -1.2030
23777SOL     OW73052   3.091   3.204   2.346  0.2859 -0.1303  0.5469
23777SOL    HW173053   3.166   3.259   2.369  1.2886 -1.4975  0.6848
23777SOL    HW273054   3.098   3.191   2.252 -0.2288  0.3496  0.4347
23778SOL     OW73055   2.043   1.405   0.544 -0.2299  0.7670  0.1296
23778SOL    HW173056   2.113   1.436   0.602  0.2371 -0.2921  0.1586
23778SOL    HW273057   2.085   1.337   0.491 -1.6564 -1.1615  1.3628
23779SOL     OW73058   8.697   5.542   3.385  0.6493 -0.0852 -0.7686
23779SOL    HW173059   8.655   5.460   3.409 -1.3119  0.6657 -1.3403
23779SOL    HW273060   8.751   5.565   3.460 -0.6465 -0.7232  0.4025
23780SOL     OW73061   7.064   2.024   1.492  0.4908  0.4950  0.0942
23780SOL    HW173062   6.998   2.053   1.428  0.3954 -1.9809 -1.0524
23780SOL    HW273063   7.147   2.028   1.445  0.9631  1.8901  0.9698
23781SOL     OW73064   1.561   3.301   6.015 -0.6259 -0.0144  0.3246
23781SOL    HW173065   1.648   3.265   6.035 -1.3843 -1.9368  0.3670
23781SOL    HW273066   1.579   3.382   5.967  1.1918 -0.8409 -0.4826
23782SOL     OW73067   5.675   1.742   1.989  0.3404  0.1479 -0.2300
23782SOL    HW173068   5.647   1.706   2.073  1.8572  2.3205  1.3258
23782SOL    HW273069   5.607   1.714   1.927 -1.8098 -0.0491  2.0445
23783SOL     OW73070   1.054   1.078   9.266 -0.4143  0.1413  0.0277
23783SOL    HW173071   1.054   1.173   9.257 -1.0883  0.2145  0.7100
23783SOL    HW273072   1.071   1.045   9.178 -0.9675  0.8861 -0.3621
23784SOL     OW73073   4.674   1.624   6.944  0.9631 -0.3191  0.0207
23784SOL    HW173074   4.650   1.686   7.013  2.9554  0.8916 -0.2797
23784SOL    HW273075   4.707   1.547   6.991  0.0925 -0.4700  0.3993
23785SOL     OW73076   2.967   8.296   6.190 -0.0481  0.4663 -0.2752
23785SOL    HW173077   2.886   8.294   6.140 -0.1484  1.8780 -0.2040
23785SOL    HW273078   2.970   8.384   6.228  1.9661  0.7934 -1.0380
23786SOL     OW73079   9.296   4.543   1.812  0.1841  0.5190 -0.1565
23786SOL    HW173080   9.291   4.455   1.848  1.7007  0.5605  0.2275
23786SOL    HW273081   9.326   4.530   1.722  0.9620  0.6523  0.0734
23787SOL     OW73082   1.698   4.990   6.428 -0.0229 -0.2311  0.2472
23787SOL    HW173083   1.656   4.979   6.343 -1.9240  2.1383  0.7723
23787SOL    HW273084   1.625   5.001   6.489  1.3156  0.7928  1.7298
23788SOL     OW73085   7.133   9.412   3.305 -0.1592 -0.0724  0.3431
23788SOL    HW173086   7.118   9.474   3.377 -0.4423 -1.3034  1.3869
23788SOL    HW273087   7.203   9.452   3.253 -1.0149  1.5916  0.3872
23789SOL     OW73088   3.859   7.264   5.899 -0.4314 -0.3628  0.3583
23789SOL    HW173089   3.777   7.288   5.942 -1.2757 -0.7857 -0.9860
23789SOL    HW273090   3.863   7.320   5.822  0.0749 -1.0178 -0.1021
23790SOL     OW73091   9.061   0.945   6.517  0.0928  0.4303 -0.5821
23790SOL    HW173092   9.033   0.893   6.442 -0.0187  1.9305 -1.6302
23790SOL    HW273093   9.155   0.930   6.523 -0.1267 -0.8946 -0.0239
23791SOL     OW73094   1.508   7.550   6.100  0.0126  0.3051 -0.1766
23791SOL    HW173095   1.595   7.576   6.131 -0.0760  1.6922 -1.0061
23791SOL    HW273096   1.486   7.615   6.034 -1.5764 -0.1515 -0.1339
23792SOL     OW73097   2.633   6.004   7.002 -0.6934 -0.0935 -0.4245
23792SOL    HW173098   2.687   5.972   7.075  0.1688 -0.2497 -1.1204
23792SOL    HW273099   2.696   6.040   6.940 -1.2034 -1.8597 -2.0674
23793SOL     OW73100   3.565   4.189   2.749 -0.3380  0.3900  0.1602
23793SOL    HW173101   3.488   4.132   2.736  0.7714 -1.3127  0.7597
23793SOL    HW273102   3.529   4.270   2.786 -1.9147 -0.1136 -0.1925
23794SOL     OW73103   3.515   3.408   2.516  0.5660 -0.1036 -0.5635
23794SOL    HW173104   3.574   3.332   2.513  1.3088  0.4574 -0.5272
23794SOL    HW273105   3.469   3.400   2.599  0.2848 -0.7767 -0.7819
23795SOL     OW73106   7.780   0.046   5.749  0.2577  0.0018  0.0156
23795SOL    HW173107   7.841   0.001   5.691  0.7668  0.6226  0.0557
23795SOL    HW273108   7.810   0.024   5.837 -0.8239 -1.3608  0.0772
23796SOL     OW73109   8.750   5.577   0.247 -0.0487  0.3357  0.3940
23796SOL    HW173110   8.677   5.568   0.309  0.0628 -0.7722  0.3872
23796SOL    HW273111   8.804   5.499   0.262 -0.1532 -0.0906 -1.2649
23797SOL     OW73112   3.325   6.550   5.885 -0.2588 -0.0093 -1.0695
23797SOL    HW173113   3.381   6.486   5.840  0.1820  0.0267 -0.5736
23797SOL    HW273114   3.354   6.548   5.976 -0.6690  0.4441 -0.9266
23798SOL     OW73115   5.712   0.071   7.745  0.2614 -0.5211  0.2392
23798SOL    HW173116   5.790   0.054   7.797  0.2310 -0.9613  0.1471
23798SOL    HW273117   5.657   0.125   7.801 -0.6788 -2.6588  1.5228
23799SOL     OW73118   0.964   9.257   6.018  0.4061 -0.0923 -0.3633
23799SOL    HW173119   0.919   9.261   6.102  0.6425 -0.9192 -0.1850
23799SOL    HW273120   0.909   9.309   5.959  0.6501  1.1504  0.4697
23800SOL     OW73121   4.731   0.408   8.093  0.5247 -0.3440 -0.6169
23800SOL    HW173122   4.801   0.394   8.029  0.5975  1.2581 -0.9213
23800SOL    HW273123   4.699   0.497   8.075 -0.4196 -0.4012  0.6493
23801SOL     OW73124   4.957   0.844   3.952 -0.2504  0.0784  0.1385
23801SOL    HW173125   5.032   0.843   3.892  2.3775  3.1530  2.9088
23801SOL    HW273126   4.894   0.902   3.910  0.8073  0.8639 -0.4352
23802SOL     OW73127   7.653   6.523   8.337 -0.4842 -0.1145  0.3050
23802SOL    HW173128   7.616   6.492   8.254 -1.5912  0.2614  0.6525
23802SOL    HW273129   7.708   6.597   8.312 -0.6717 -0.1149 -0.1102
23803SOL     OW73130   5.830   4.290   7.197 -0.1032 -0.4321 -0.2859
23803SOL    HW173131   5.852   4.335   7.279  1.1157 -0.2797 -0.6715
23803SOL    HW273132   5.887   4.212   7.196 -2.0359 -1.9167  0.2730
23804SOL     OW73133   6.325   8.426   2.279 -0.1127 -0.1561 -0.5978
23804SOL    HW173134   6.303   8.414   2.371 -0.4143  1.5761 -0.4273
23804SOL    HW273135   6.420   8.408   2.275 -0.1496 -0.5140 -0.0230
23805SOL     OW73136   9.179   9.430   4.606 -0.2881 -0.2915  0.4068
23805SOL    HW173137   9.110   9.420   4.541 -0.1221  1.7413 -0.1634
23805SOL    HW273138   9.239   9.358   4.589 -0.0672  0.3575 -1.9711
23806SOL     OW73139   9.186   8.670   5.733 -0.0345 -0.6128 -0.2910
23806SOL    HW173140   9.107   8.630   5.770 -0.3407  0.0509 -0.2098
23806SOL    HW273141   9.184   8.760   5.764  0.7660 -0.5924 -0.2863
23807SOL     OW73142   4.001   8.298   8.591 -0.2437 -0.0012 -0.2055
23807SOL    HW173143   3.957   8.370   8.545 -1.6170 -0.6186  0.0906
23807SOL    HW273144   3.942   8.276   8.663  0.2102 -1.3514 -0.2198
23808SOL     OW73145   3.504   3.246   6.294  0.1103 -0.6799  0.0927
23808SOL    HW173146   3.489   3.159   6.330  0.8558 -1.3915 -1.2252
23808SOL    HW273147   3.597   3.247   6.272  0.2685  0.7242  0.7444
23809SOL     OW73148   7.562   4.083   4.995  0.0396  0.2642 -0.8860
23809SOL    HW173149   7.542   4.168   4.956  1.3332  0.7005 -0.6540
23809SOL    HW273150   7.626   4.103   5.064  0.2153 -0.8755 -0.7044
23810SOL     OW73151   6.416   2.532   1.192  0.3514  0.0789  0.0155
23810SOL    HW173152   6.475   2.458   1.203  1.8730  0.9958 -1.4166
23810SOL    HW273153   6.471   2.602   1.157 -1.6432  0.8697 -1.8272
23811SOL     OW73154   1.232   7.796   2.682  0.2810 -0.4167  0.0354
23811SOL    HW173155   1.326   7.805   2.668  0.1898 -0.0852 -0.3810
23811SOL    HW273156   1.219   7.702   2.696  0.6829 -0.4523  0.1652
23812SOL     OW73157   8.191   1.666   8.064 -0.2093 -0.2200 -1.0437
23812SOL    HW173158   8.097   1.648   8.061  0.1779 -2.4111 -1.5027
23812SOL    HW273159   8.212   1.695   7.976 -0.5739  1.0615 -0.7241
23813SOL     OW73160   1.233   0.933   2.709  0.4324 -1.1970 -0.3854
23813SOL    HW173161   1.270   0.969   2.790 -1.2303 -1.4570  0.5338
23813SOL    HW273162   1.191   1.009   2.667  0.1637 -1.3124 -0.3294
23814SOL     OW73163   2.270   2.250   3.843  0.4936  0.0699 -0.0871
23814SOL    HW173164   2.203   2.259   3.775 -1.3108  0.3288  1.6453
23814SOL    HW273165   2.255   2.163   3.881  0.9159  0.2573  0.5266
23815SOL     OW73166   6.552   4.656   1.878  0.6527  0.1164  0.0655
23815SOL    HW173167   6.570   4.634   1.969 -1.8599 -1.0471  0.3852
23815SOL    HW273168   6.535   4.750   1.878 -1.2159 -0.1662  1.2291
23816SOL     OW73169   8.218   1.243   4.857 -0.3762 -0.1523 -0.0588
23816SOL    HW173170   8.198   1.284   4.941  2.5316  0.0033  0.6717
23816SOL    HW273171   8.211   1.314   4.793 -1.6120 -0.0377  0.1870
23817SOL     OW73172   0.455   2.619   6.763  0.1264 -0.2118 -0.0738
23817SOL    HW173173   0.421   2.708   6.771  0.5243 -0.0361 -0.3079
23817SOL    HW273174   0.391   2.565   6.808  0.2357  0.2776  0.6905
23818SOL     OW73175   5.412   6.966   6.472  0.3939  0.2759 -0.1055
23818SOL    HW173176   5.399   6.985   6.565 -0.6664 -0.8964  0.0084
23818SOL    HW273177   5.429   6.872   6.469 -1.0896  0.0114 -1.2278
23819SOL     OW73178   1.284   5.532   1.225  0.1292 -0.2157 -0.2507
23819SOL    HW173179   1.301   5.564   1.314  0.5252 -1.9833  0.3504
23819SOL    HW273180   1.372   5.515   1.189  0.0897  2.3023 -1.7410
23820SOL     OW73181   9.202   6.157   0.289  0.0825  0.2108  0.1151
23820SOL    HW173182   9.219   6.109   0.370  3.4941  0.7100 -0.1567
23820SOL    HW273183   9.217   6.093   0.219  0.8072  0.6702 -0.1641
23821SOL     OW73184   2.141   3.986   8.438 -0.4292  0.4247  0.1639
23821SOL    HW173185   2.154   3.891   8.442 -3.2353 -0.1085 -1.2699
23821SOL    HW273186   2.119   4.010   8.528 -1.2366 -0.5691  0.2561
23822SOL     OW73187   3.754   2.063   8.417 -0.4829  0.2392 -0.0731
23822SOL    HW173188   3.806   1.995   8.461 -0.5788  0.6315  0.6660
23822SOL    HW273189   3.731   2.025   8.333  0.8514 -0.0132 -0.3421
23823SOL     OW73190   3.927   4.850   5.528  0.5522  0.3392 -0.2163
23823SOL    HW173191   3.914   4.802   5.609 -1.3064 -0.4705 -0.9261
23823SOL    HW273192   4.020   4.843   5.509  0.6324 -1.3553  0.6978
23824SOL     OW73193   2.164   0.733   6.165 -0.2324  0.0735 -0.1037
23824SOL    HW173194   2.106   0.738   6.241  0.3416 -0.9149  0.4254
23824SOL    HW273195   2.121   0.670   6.107  0.4296 -0.8974  0.4258
23825SOL     OW73196   3.604   6.354   6.833  0.4641  0.2242 -0.3866
23825SOL    HW173197   3.523   6.303   6.828 -0.7312  2.0483 -0.2986
23825SOL    HW273198   3.670   6.296   6.795 -1.0666 -0.9233 -1.4583
23826SOL     OW73199   8.167   4.358   3.306  0.1966 -0.0287 -0.5743
23826SOL    HW173200   8.096   4.376   3.368 -0.8980 -0.7691 -1.5565
23826SOL    HW273201   8.165   4.433   3.245  1.8169  1.1227  0.7081
23827SOL     OW73202   1.734   1.931   6.081  0.2171  0.6058 -0.1576
23827SOL    HW173203   1.781   1.949   5.999 -0.0227 -1.7906 -0.9127
23827SOL    HW273204   1.642   1.938   6.057  0.1385  2.0192  0.4841
23828SOL     OW73205   3.917   1.609   1.357 -0.3289  0.1309 -0.1059
23828SOL    HW173206   3.954   1.610   1.268  0.0825 -1.3862  0.0105
23828SOL    HW273207   3.873   1.693   1.366  1.9484  1.4767 -0.7544
23829SOL     OW73208   0.088   4.297   8.744 -0.3120 -0.3059  0.1975
23829SOL    HW173209   0.178   4.328   8.756  0.0064 -0.5526 -1.3578
23829SOL    HW273210   0.085   4.213   8.791  0.1694 -0.1394  0.5291
23830SOL     OW73211   5.658   0.389   4.489 -0.0708  0.7012 -0.1968
23830SOL    HW173212   5.625   0.423   4.406 -1.1196  1.7149  0.5972
23830SOL    HW273213   5.711   0.460   4.525  0.4208  0.2472 -0.0208
23831SOL     OW73214   3.757   1.904   0.829 -0.1933 -0.5910 -0.1255
23831SOL    HW173215   3.812   1.826   0.819  0.7587  0.1048 -0.4765
23831SOL    HW273216   3.692   1.879   0.895 -0.5797 -2.0301 -1.0246
23832SOL     OW73217   4.002   3.130   2.289  0.3588  0.0125 -0.1136
23832SOL    HW173218   3.943   3.066   2.249 -2.2251  2.0622  0.1160
23832SOL    HW273219   3.972   3.137   2.380  0.4116  1.6601 -0.1877
23833SOL     OW73220   0.701   8.654   2.416 -0.1689  0.6787  0.1339
23833SOL    HW173221   0.796   8.650   2.428  0.0244  1.1004 -1.1586
23833SOL    HW273222   0.666   8.652   2.505  0.9901 -0.7379  0.5870
23834SOL     OW73223   0.471   2.390   3.629 -0.2030  0.2082  0.1286
23834SOL    HW173224   0.505   2.450   3.562  2.6363 -1.9855 -0.5840
23834SOL    HW273225   0.434   2.317   3.579 -0.4913 -0.2337  0.9735
23835SOL     OW73226   8.877   1.810   9.703 -1.0384  0.6984  0.2248
23835SOL    HW173227   8.936   1.739   9.679 -0.2986  0.8147  1.6089
23835SOL    HW273228   8.906   1.884   9.649 -0.1086  0.6726  0.6748
23836SOL     OW73229   9.257   6.217   9.683  0.1726  0.1305 -0.2209
23836SOL    HW173230   9.185   6.276   9.705 -0.2183 -0.6319  0.6188
23836SOL    HW273231   9.227   6.168   9.607 -0.4603 -0.6074  0.4863
23837SOL     OW73232   3.636   0.932   1.404 -0.0958  0.3664  0.3931
23837SOL    HW173233   3.591   0.897   1.327 -1.7016  0.9108  1.0345
23837SOL    HW273234   3.569   0.982   1.450  0.9879  0.5526  1.8417
23838SOL     OW73235   3.913   1.830   2.071 -0.0031 -0.3176 -0.6029
23838SOL    HW173236   3.986   1.768   2.084  0.8416  0.6619 -0.5487
23838SOL    HW273237   3.881   1.811   1.983  0.9886 -0.0838 -1.0318
23839SOL     OW73238   3.166   9.168   6.801  0.2922  0.2960 -0.3195
23839SOL    HW173239   3.129   9.117   6.729  2.4125  0.1040 -1.3328
23839SOL    HW273240   3.090   9.211   6.841 -0.9673  0.3760 -2.6215
23840SOL     OW73241   7.370   7.326   3.581  0.1164 -0.1423 -0.2860
23840SOL    HW173242   7.315   7.266   3.530  0.3127 -0.0017 -0.6650
23840SOL    HW273243   7.310   7.364   3.645  0.1248 -1.2280  0.3896
23841SOL     OW73244   2.001   6.340   3.276  0.2746 -0.4240 -0.9629
23841SOL    HW173245   1.962   6.260   3.311 -2.0073  0.7613 -0.5381
23841SOL    HW273246   1.926   6.392   3.247  1.7658  1.0187 -2.4563
23842SOL     OW73247   8.339   3.212   1.927  0.6363  0.6320  0.1137
23842SOL    HW173248   8.322   3.279   1.993 -0.1850  0.4904  0.0525
23842SOL    HW273249   8.294   3.134   1.960  0.0699  0.6106 -0.6942
23843SOL     OW73250   2.473   8.757   4.931  0.0697  0.0946  0.2323
23843SOL    HW173251   2.556   8.778   4.888  0.0423  0.7116  0.4630
23843SOL    HW273252   2.407   8.798   4.876 -0.4467 -3.2281 -1.8934
23844SOL     OW73253   6.461   8.670   4.945  0.1010  0.1551 -0.1365
23844SOL    HW173254   6.366   8.663   4.932  0.2001 -2.3599  0.0845
23844SOL    HW273255   6.470   8.705   5.034 -0.5497  2.3352 -0.8521
23845SOL     OW73256   1.474   7.336   2.675 -0.4805 -0.1357 -0.6729
23845SOL    HW173257   1.535   7.264   2.692 -0.5836  0.2888  1.9527
23845SOL    HW273258   1.505   7.376   2.594  0.4853 -2.1900 -1.3659
23846SOL     OW73259   0.984   6.329   0.780 -0.4270 -0.2487  0.6018
23846SOL    HW173260   1.020   6.286   0.703  1.2220  1.4311  0.3388
23846SOL    HW273261   1.060   6.344   0.836 -1.2077  0.7256  1.4347
23847SOL     OW73262   2.249   8.604   1.601 -0.0575 -0.4023  0.0503
23847SOL    HW173263   2.185   8.551   1.650  0.9459 -1.6305  0.0910
23847SOL    HW273264   2.294   8.655   1.667  1.3581 -2.1272  0.4792
23848SOL     OW73265   4.114   2.490   9.267 -0.0419 -0.3763  0.0414
23848SOL    HW173266   4.132   2.425   9.335 -0.0297  0.9980  1.4071
23848SOL    HW273267   4.120   2.574   9.312 -2.1924  0.5045 -1.1751
23849SOL     OW73268   5.594   5.959   2.998 -0.3492  0.1628  0.0866
23849SOL    HW173269   5.648   6.032   2.968  0.4855 -1.1210 -1.7063
23849SOL    HW273270   5.654   5.885   3.003 -1.1696 -0.4342  1.9034
23850SOL     OW73271   9.679   0.228   5.431 -0.6591  0.2864 -0.7086
23850SOL    HW173272   9.664   0.210   5.524  0.4331  0.4515 -0.4797
23850SOL    HW273273   9.603   0.190   5.386  0.3633 -2.8409 -0.0530
23851SOL     OW73274   3.818   0.041   4.008 -0.2570 -0.5025 -0.3351
23851SOL    HW173275   3.755   0.026   3.938  0.4169 -2.1861 -0.6292
23851SOL    HW273276   3.831  -0.046   4.047  1.5584 -0.1224 -0.0250
23852SOL     OW73277   7.991   3.415   4.253 -0.7653  0.6684  0.1356
23852SOL    HW173278   7.915   3.365   4.221  0.3457 -0.8317 -0.2834
23852SOL    HW273279   7.957   3.467   4.326 -1.8410 -1.3263  1.1400
23853SOL     OW73280   1.082   5.276   3.244 -0.3622  0.2569 -0.5467
23853SOL    HW173281   1.006   5.231   3.208 -0.1092 -1.0953  0.5138
23853SOL    HW273282   1.096   5.351   3.186 -1.5425 -0.3494 -1.6572
23854SOL     OW73283   5.456   7.469   8.744 -0.2009 -0.2088  0.2695
23854SOL    HW173284   5.491   7.466   8.655  0.7271 -0.2231  0.6237
23854SOL    HW273285   5.533   7.479   8.799 -0.6659 -1.2439  1.1472
23855SOL     OW73286   5.003   8.255   1.456  0.8752 -0.3636 -0.3452
23855SOL    HW173287   5.028   8.209   1.376  1.0524 -0.7463 -0.0725
23855SOL    HW273288   5.085   8.294   1.488  1.0150 -1.0513  0.1825
23856SOL     OW73289   9.247   7.095   8.592 -0.3722  0.0183  0.6087
23856SOL    HW173290   9.315   7.047   8.639 -0.3570 -0.6042 -0.0460
23856SOL    HW273291   9.294   7.147   8.527 -0.4424  0.4642  0.9024
23857SOL     OW73292   5.299   8.107   7.516  0.0768 -0.2828  0.1950
23857SOL    HW173293   5.286   8.013   7.509 -0.8832 -0.2284  1.0420
23857SOL    HW273294   5.211   8.143   7.527  0.4856  0.6426  0.5833
23858SOL     OW73295   5.571   1.483   6.221  0.2792 -0.3664  0.2849
23858SOL    HW173296   5.649   1.430   6.208  1.9119  1.5468  1.6686
23858SOL    HW273297   5.563   1.535   6.140  0.0941 -0.9376 -0.0724
23859SOL     OW73298   4.046   7.362   6.069  0.4877 -0.6101 -0.0240
23859SOL    HW173299   3.996   7.312   6.005  0.2828  2.0511 -2.1671
23859SOL    HW273300   3.984   7.427   6.102  1.1850 -0.5742  1.2669
23860SOL     OW73301   0.077   8.952   0.019  0.4719 -0.0197 -0.1003
23860SOL    HW173302   0.115   8.904   0.093  0.9050  0.7515  0.1813
23860SOL    HW273303   0.005   9.002   0.058  1.4967  1.3789  0.0546
23861SOL     OW73304   7.084   2.531   1.930 -0.1076  0.6368  0.1129
23861SOL    HW173305   7.148   2.514   1.860  2.5802  0.2129  2.5086
23861SOL    HW273306   7.071   2.626   1.927  0.8162  0.7654 -0.2820
23862SOL     OW73307   0.802   4.220   1.089  0.1110  0.3475 -0.7612
23862SOL    HW173308   0.756   4.137   1.098  2.1746 -0.8948 -1.1039
23862SOL    HW273309   0.844   4.216   1.003  1.4020  1.1104 -0.1990
23863SOL     OW73310   4.194   2.829   7.482 -0.2996  0.2256 -0.4419
23863SOL    HW173311   4.169   2.786   7.400  0.6973 -1.3954  0.0587
23863SOL    HW273312   4.182   2.762   7.549  1.6868  0.5829  0.3267
23864SOL     OW73313   7.562   3.503   6.846 -0.1728 -0.3890 -0.6153
23864SOL    HW173314   7.482   3.538   6.885 -0.6811 -1.2932 -0.8321
23864SOL    HW273315   7.631   3.560   6.879 -0.6695 -0.6976  1.0565
23865SOL     OW73316   0.705   1.287   9.245  0.0735 -0.0936  0.1458
23865SOL    HW173317   0.683   1.366   9.293 -2.5756  0.3804 -1.6083
23865SOL    HW273318   0.739   1.319   9.161 -0.3675 -0.7832 -0.3086
23866SOL     OW73319   0.145   4.454   0.927 -0.1623  0.1454  0.8919
23866SOL    HW173320   0.084   4.520   0.893  0.0643  0.0325  0.2432
23866SOL    HW273321   0.231   4.495   0.918  0.0641 -0.5360 -0.3006
23867SOL     OW73322   9.068   2.839   6.447 -0.0559  0.0184  0.3448
23867SOL    HW173323   9.072   2.896   6.524  3.3536  0.1371  0.2031
23867SOL    HW273324   9.060   2.899   6.373  3.2045  0.4801  0.2211
23868SOL     OW73325   6.614   7.628   4.048  0.2876 -0.3153  0.1977
23868SOL    HW173326   6.650   7.717   4.042  0.2976 -0.1029  2.6217
23868SOL    HW273327   6.683   7.577   4.090  0.0522 -1.3508 -0.6432
23869SOL     OW73328   6.285   2.272   7.055 -0.8206  0.7515 -0.0397
23869SOL    HW173329   6.301   2.188   7.013 -1.7894 -0.5617  2.0837
23869SOL    HW273330   6.191   2.286   7.047 -1.0246  0.4695  1.6392
23870SOL     OW73331   5.500   4.899   9.495 -0.3659  0.1502  0.3726
23870SOL    HW173332   5.438   4.946   9.552 -0.8511  2.2087 -1.6862
23870SOL    HW273333   5.576   4.957   9.491  0.5346 -0.9845  0.5434
23871SOL     OW73334   0.484   5.040   4.276 -0.1647 -0.4433 -0.0481
23871SOL    HW173335   0.575   5.022   4.301 -0.3119 -0.5225  0.4445
23871SOL    HW273336   0.433   5.011   4.352 -0.5150  0.7063  0.1714
23872SOL     OW73337   7.478   7.703   4.209  0.1535 -0.0074 -0.1529
23872SOL    HW173338   7.542   7.682   4.141 -0.7981  1.0481 -1.4468
23872SOL    HW273339   7.393   7.701   4.164 -0.7626 -1.3169  1.4894
23873SOL     OW73340   3.452   2.009   9.321  0.4167 -0.1528 -0.5260
23873SOL    HW173341   3.467   1.945   9.251  1.7034 -1.3646  0.7761
23873SOL    HW273342   3.461   2.094   9.278  0.1977 -0.8492 -2.0121
23874SOL     OW73343   2.984   4.229   0.972 -0.2190  0.1187 -0.2486
23874SOL    HW173344   3.068   4.275   0.971 -0.9098  1.3967 -0.6293
23874SOL    HW273345   3.006   4.141   1.003  1.5635 -0.1929 -2.1894
23875SOL     OW73346   8.644   0.741   8.092  0.0896  0.2099  0.0616
23875SOL    HW173347   8.697   0.664   8.111 -0.5662 -0.5097 -0.9270
23875SOL    HW273348   8.585   0.713   8.022  1.7712  2.4459 -2.4120
23876SOL     OW73349   7.678   8.238   5.087  0.2676 -0.7139  0.1351
23876SOL    HW173350   7.748   8.289   5.048 -0.6319  0.7733  0.3988
23876SOL    HW273351   7.723   8.170   5.137  1.4711 -1.5270 -1.9181
23877SOL     OW73352   0.686   1.548   9.391 -0.1847  0.2740  0.7640
23877SOL    HW173353   0.765   1.591   9.424  0.1432 -0.4034  0.8792
23877SOL    HW273354   0.620   1.617   9.389  1.0110  1.4932 -1.6440
23878SOL     OW73355   8.025   4.561   1.481  0.1317 -0.3082 -0.6854
23878SOL    HW173356   7.951   4.601   1.527 -0.8904 -1.9625 -0.7986
23878SOL    HW273357   8.078   4.635   1.451  1.0604  0.9036  3.3453
23879SOL     OW73358   3.112   6.210   8.663 -1.1489 -0.3617 -0.3424
23879SOL    HW173359   3.112   6.138   8.600  2.9351 -0.1859 -0.8184
23879SOL    HW273360   3.068   6.282   8.618 -1.7080 -1.3634 -1.4512
23880SOL     OW73361   3.210   8.613   8.830 -0.3720  0.3286  0.4082
23880SOL    HW173362   3.177   8.694   8.870 -0.1638  0.3169  0.6045
23880SOL    HW273363   3.301   8.606   8.860 -0.3939  0.0126  0.4084
23881SOL     OW73364   3.252   7.550   9.030 -0.0582  0.8184  0.2942
23881SOL    HW173365   3.214   7.591   8.953  2.7050  1.5002 -0.8248
23881SOL    HW273366   3.295   7.471   8.997  1.6500  1.4139  0.9687
23882SOL     OW73367   4.421   7.273   3.803  0.7348  0.5910  0.1844
23882SOL    HW173368   4.503   7.223   3.805  0.5533  0.2545 -0.5590
23882SOL    HW273369   4.448   7.365   3.809  1.0563  0.4291  1.9422
23883SOL     OW73370   4.750   5.506   3.057  0.5920 -0.7190 -0.2438
23883SOL    HW173371   4.763   5.594   3.022  1.2337 -0.6241  0.2149
23883SOL    HW273372   4.657   5.490   3.045  0.4205  0.1115 -0.1393
23884SOL     OW73373   4.564   3.641   2.027  0.0809  0.4763 -0.4681
23884SOL    HW173374   4.595   3.580   1.961  0.8908  1.4084 -0.9831
23884SOL    HW273375   4.481   3.604   2.057  0.5508 -0.8502 -0.7622
23885SOL     OW73376   9.658   8.047   8.363 -0.0115 -0.5087  0.0100
23885SOL    HW173377   9.614   8.115   8.414 -0.7593  0.2990 -1.6141
23885SOL    HW273378   9.593   8.021   8.297  1.5908  0.0703 -1.9047
23886SOL     OW73379   5.688   6.128   9.536  0.2777  0.5802  1.4694
23886SOL    HW173380   5.725   6.215   9.518  1.1191  0.3519  2.0300
23886SOL    HW273381   5.728   6.102   9.619  1.3789 -1.0554  0.4949
23887SOL     OW73382   7.246   5.918   8.388 -0.1354  0.2329  0.8404
23887SOL    HW173383   7.171   5.971   8.416  0.4029  1.2188  0.4882
23887SOL    HW273384   7.259   5.855   8.458 -2.4662 -1.2276  0.0447
23888SOL     OW73385   0.227   9.447   8.846  0.2136  0.4861 -0.2462
23888SOL    HW173386   0.177   9.519   8.807 -0.8042 -0.4786 -0.7722
23888SOL    HW273387   0.257   9.482   8.930 -1.3603  1.1229  0.0993
23889SOL     OW73388   3.611   1.227   4.588 -0.3493 -0.2317  0.0308
23889SOL    HW173389   3.568   1.223   4.674 -1.5867  0.8123 -0.5125
23889SOL    HW273390   3.540   1.225   4.525  0.5327 -0.6564 -0.9910
23890SOL     OW73391   7.247   5.036   1.352  0.5165  0.3221  0.3928
23890SOL    HW173392   7.342   5.036   1.369  0.4496  2.2927  1.0497
23890SOL    HW273393   7.239   5.057   1.259  0.7013 -0.8975  0.0725
23891SOL     OW73394   5.126   7.549   8.446  0.2283  0.7824 -0.4174
23891SOL    HW173395   5.175   7.492   8.386 -2.5294 -0.9468 -1.2263
23891SOL    HW273396   5.068   7.490   8.493 -1.3394  2.7108  0.2141
23892SOL     OW73397   1.020   9.155   7.734  0.0212  0.3594  0.3551
23892SOL    HW173398   1.083   9.200   7.790 -1.3947  1.4991  1.1198
23892SOL    HW273399   1.066   9.141   7.651  1.0534  1.7793  0.6526
23893SOL     OW73400   4.709   6.538   1.319 -0.9990  0.0856 -0.0444
23893SOL    HW173401   4.678   6.609   1.263 -1.7780 -0.1934  0.0246
23893SOL    HW273402   4.802   6.557   1.331 -0.7733  0.0610 -1.5565
23894SOL     OW73403   2.807   5.185   3.504 -0.2707  0.4433  0.2933
23894SOL    HW173404   2.732   5.174   3.563  1.0325  0.5934  2.0590
23894SOL    HW273405   2.856   5.103   3.511  1.6493  1.6464  2.0680
23895SOL     OW73406   5.574   6.395   9.140 -0.4889 -0.7279 -0.1379
23895SOL    HW173407   5.645   6.402   9.204 -2.1807 -1.2055  1.8907
23895SOL    HW273408   5.527   6.478   9.147  0.1606 -0.1699 -1.9011
23896SOL     OW73409   8.703   3.613   2.053 -0.8158 -0.4708 -0.5329
23896SOL    HW173410   8.665   3.560   1.983  1.7290 -1.5291 -1.2406
23896SOL    HW273411   8.710   3.553   2.127 -1.4102 -0.0031 -0.0912
23897SOL     OW73412   3.014   1.420   2.632 -0.1311  0.1734 -0.1297
23897SOL    HW173413   2.973   1.389   2.713 -1.1845 -0.1223 -0.7469
23897SOL    HW273414   2.940   1.433   2.572  0.5399  1.3862 -0.7182
23898SOL     OW73415   2.125   3.412   8.446  0.2902 -0.6287  0.4235
23898SOL    HW173416   2.195   3.399   8.383 -0.6537 -0.9334 -0.5892
23898SOL    HW273417   2.148   3.354   8.519  1.4295 -0.2064  0.4217
23899SOL     OW73418   1.623   6.871   8.958  0.0512  0.4541 -0.1355
23899SOL    HW173419   1.585   6.854   9.044 -1.0778 -0.4064 -0.7850
23899SOL    HW273420   1.603   6.793   8.907 -0.2823  1.4186 -1.5278
23900SOL     OW73421   2.127   5.714   3.116 -0.4346 -0.1531  0.6489
23900SOL    HW173422   2.183   5.642   3.088 -1.1318 -0.7869  0.8378
23900SOL    HW273423   2.145   5.784   3.054  0.5171 -0.3649  0.6737
23901SOL     OW73424   2.759   3.385   1.998  0.3861 -0.2715  0.1415
23901SOL    HW173425   2.849   3.378   1.967 -0.4055 -3.0789 -1.9114
23901SOL    HW273426   2.721   3.456   1.945  1.3056  0.8315  0.9203
23902SOL     OW73427   8.533   4.512   6.457  0.2139  0.5728 -0.4605
23902SOL    HW173428   8.624   4.513   6.487  0.1286  0.8177 -0.2086
23902SOL    HW273429   8.495   4.434   6.497  0.0083  1.0818  0.3437
23903SOL     OW73430   3.021   3.248   1.523  0.1565  0.0801 -0.2910
23903SOL    HW173431   3.049   3.308   1.454 -1.1396  0.0542 -0.8803
23903SOL    HW273432   3.053   3.162   1.495  1.6463  0.3949  0.3399
23904SOL     OW73433   0.297   7.091   9.259 -0.5726  0.3741 -0.3899
23904SOL    HW173434   0.383   7.048   9.247 -0.6559  0.5793 -2.0329
23904SOL    HW273435   0.281   7.086   9.353  1.4072  0.6431  0.0180
23905SOL     OW73436   6.034   8.042   6.084 -0.3273 -0.3832 -0.2455
23905SOL    HW173437   6.116   8.068   6.042 -1.6229  0.2687 -2.5414
23905SOL    HW273438   6.059   7.968   6.140  1.5601 -1.3994 -2.2484
23906SOL     OW73439   1.016   0.029   6.155 -0.1856 -0.0036 -0.6912
23906SOL    HW173440   1.092  -0.016   6.117  0.2972 -0.6790  0.9882
23906SOL    HW273441   0.953   0.035   6.083  0.3360 -2.0221 -1.3690
23907SOL     OW73442   5.513   0.730   0.338  0.2250  0.5777 -0.1326
23907SOL    HW173443   5.573   0.754   0.409  0.6271  0.5545 -0.4573
23907SOL    HW273444   5.426   0.732   0.377  0.6147 -1.7679  0.9903
23908SOL     OW73445   7.179   4.750   1.731  0.0756 -0.3966  0.4406
23908SOL    HW173446   7.173   4.843   1.750  2.6957 -0.3279  1.4171
23908SOL    HW273447   7.206   4.746   1.639 -2.9121 -0.3711 -0.5202
23909SOL     OW73448   7.735   7.681   6.170  0.1320 -0.5075 -0.0128
23909SOL    HW173449   7.803   7.724   6.118  0.9763 -0.9109  0.7204
23909SOL    HW273450   7.686   7.628   6.108  1.4767 -1.4231 -0.3309
23910SOL     OW73451   0.588   0.685   8.654 -0.2232 -0.1290 -0.1609
23910SOL    HW173452   0.680   0.696   8.681 -0.4400 -0.0268  0.5563
23910SOL    HW273453   0.559   0.772   8.630 -0.2986 -0.0600  0.1708
23911SOL     OW73454   8.583   3.997   4.989 -0.0233  0.0034  0.2265
23911SOL    HW173455   8.593   3.916   5.039 -0.7085 -0.5466 -0.5166
23911SOL    HW273456   8.663   4.003   4.936 -0.2864 -0.5398 -0.2278
23912SOL     OW73457   2.492   4.736   8.613  0.2014 -0.2618  0.3542
23912SOL    HW173458   2.476   4.826   8.641  0.4194 -0.6804  1.8854
23912SOL    HW273459   2.463   4.682   8.686  0.3502 -1.4428 -0.4191
23913SOL     OW73460   7.910   5.830   5.274  1.0859 -1.0406  0.6796
23913SOL    HW173461   7.969   5.763   5.308  1.5670  1.0225  4.5947
23913SOL    HW273462   7.881   5.877   5.352 -2.0174  1.0890 -1.5130
23914SOL     OW73463   0.143   2.300   5.809 -0.4707  0.3299  0.1298
23914SOL    HW173464   0.225   2.348   5.795 -0.3932 -0.3148 -2.1068
23914SOL    HW273465   0.172   2.215   5.843 -0.5791  1.5264  3.5978
23915SOL     OW73466   4.262   1.622   1.822 -0.3650 -0.1337 -0.3799
23915SOL    HW173467   4.323   1.572   1.876 -0.2196 -0.9410 -1.2577
23915SOL    HW273468   4.180   1.573   1.826 -0.6804  0.4244  0.0265
23916SOL     OW73469   0.162   4.797   7.609  0.3125 -0.5220  0.1136
23916SOL    HW173470   0.160   4.719   7.554  0.4739  0.9386 -2.0889
23916SOL    HW273471   0.171   4.763   7.698 -2.3180 -3.1076 -0.4511
23917SOL     OW73472   3.289   7.340   5.844 -0.4174 -0.2082 -0.0088
23917SOL    HW173473   3.303   7.404   5.775  2.0248 -0.8722 -0.2358
23917SOL    HW273474   3.223   7.280   5.809  0.3895 -0.2295 -1.5881
23918SOL     OW73475   1.131   1.320   7.003 -0.2985 -0.2626 -0.4471
23918SOL    HW173476   1.209   1.275   7.037  0.9705  1.1955 -1.2808
23918SOL    HW273477   1.164   1.370   6.929 -2.1692  0.0074 -1.1312
23919SOL     OW73478   4.690   9.490   2.440  1.1050 -0.4328 -0.3056
23919SOL    HW173479   4.705   9.417   2.500  0.1447 -1.6427 -1.4480
23919SOL    HW273480   4.650   9.449   2.363  1.4636  1.1752 -1.4022
23920SOL     OW73481   3.131   4.571   8.200 -0.2621  0.0491  0.1850
23920SOL    HW173482   3.089   4.586   8.115 -1.7114 -0.1667  0.8314
23920SOL    HW273483   3.075   4.506   8.243 -0.6104  1.4930  2.0271
23921SOL     OW73484   5.779   3.538   3.043 -0.3015 -0.3733  0.9471
23921SOL    HW173485   5.760   3.462   2.989  1.8695 -0.7776  0.6426
23921SOL    HW273486   5.802   3.502   3.128  1.1504 -0.1289  0.6858
23922SOL     OW73487   0.204   3.582   2.888  0.2752 -0.4050 -0.6621
23922SOL    HW173488   0.285   3.569   2.937  0.3389 -0.3683 -0.7568
23922SOL    HW273489   0.140   3.607   2.954  0.9621  2.2516 -0.8794
23923SOL     OW73490   7.903   1.261   6.965  0.0548  0.1005  0.4564
23923SOL    HW173491   7.962   1.197   6.924 -1.1069  0.2181 -1.5219
23923SOL    HW273492   7.959   1.337   6.982  0.8051 -0.3291 -0.0193
23924SOL     OW73493   2.430   5.758   0.452 -0.4633 -0.0218 -0.5347
23924SOL    HW173494   2.495   5.694   0.422 -0.1366  1.2391 -2.7686
23924SOL    HW273495   2.476   5.813   0.515  0.4845  0.4465 -1.6042
23925SOL     OW73496   7.707   5.994   7.646 -0.0932 -0.0186  0.4836
23925SOL    HW173497   7.640   5.984   7.578 -0.2124  0.3686  0.5415
23925SOL    HW273498   7.784   6.026   7.599 -0.0524 -0.1321  0.4718
23926SOL     OW73499   2.554   3.925   8.880  0.0753 -0.4341  0.2200
23926SOL    HW173500   2.627   3.964   8.832  0.2028 -1.6074 -0.5757
23926SOL    HW273501   2.496   3.999   8.898  0.0015  0.0765 -1.7934
23927SOL     OW73502   4.800   5.330   0.083  0.0628  0.9163  0.3264
23927SOL    HW173503   4.850   5.347   0.163  0.7850  0.4587 -0.0126
23927SOL    HW273504   4.842   5.252   0.045  0.4252  1.7403 -1.0407
23928SOL     OW73505   0.316   3.231   4.678 -0.0445  0.4038  0.1818
23928SOL    HW173506   0.246   3.201   4.736  0.0955  0.0916  0.1909
23928SOL    HW273507   0.334   3.156   4.621 -0.1744  0.7027 -0.2644
23929SOL     OW73508   0.255   2.683   8.240  0.5331 -0.7820 -0.3560
23929SOL    HW173509   0.163   2.662   8.255  0.1016  1.3098  0.1938
23929SOL    HW273510   0.280   2.738   8.314  1.6342  0.3382 -1.4984
23930SOL     OW73511   4.311   5.676   9.383 -0.1276 -0.0674  0.3255
23930SOL    HW173512   4.245   5.607   9.387 -0.1686 -0.0069  0.8070
23930SOL    HW273513   4.352   5.675   9.470 -1.6472  1.9963  1.1633
23931SOL     OW73514   1.186   1.362   0.362 -0.6568 -0.2671 -0.3265
23931SOL    HW173515   1.250   1.325   0.301 -0.1350  1.1531 -0.6820
23931SOL    HW273516   1.198   1.312   0.443  1.5759  0.5343 -0.0865
23932SOL     OW73517   7.116   4.852   2.182  0.3053  0.1459 -0.1948
23932SOL    HW173518   7.123   4.901   2.263 -0.9497 -1.3298  0.8785
23932SOL    HW273519   7.200   4.865   2.137  2.1037 -1.0954  2.5594
23933SOL     OW73520   7.624   3.664   5.980  0.2952  0.0153  0.0807
23933SOL    HW173521   7.610   3.636   5.890 -1.3344  0.1468  0.2556
23933SOL    HW273522   7.538   3.656   6.021  0.5996  1.6424  1.1447
23934SOL     OW73523   5.038   2.829   7.257 -0.1462 -0.3512 -0.5175
23934SOL    HW173524   4.978   2.761   7.227 -0.4267 -0.2186 -0.2548
23934SOL    HW273525   5.111   2.824   7.195 -0.7826  0.0264 -1.3181
23935SOL     OW73526   1.115   8.781   5.524  0.4045  0.0030  0.3457
23935SOL    HW173527   1.158   8.852   5.477  2.1424 -1.2338 -0.0349
23935SOL    HW273528   1.099   8.816   5.612  0.7806  1.0177  0.0200
23936SOL     OW73529   1.367   5.149   7.282 -0.3557 -0.0881  0.1863
23936SOL    HW173530   1.447   5.201   7.291  0.6491 -1.4247 -0.6045
23936SOL    HW273531   1.371   5.115   7.193 -1.3468 -0.9347  0.4490
23937SOL     OW73532   5.621   1.319   2.392  0.5667 -0.2148 -0.6750
23937SOL    HW173533   5.663   1.236   2.411  1.0354  0.4243  1.2838
23937SOL    HW273534   5.531   1.295   2.369  0.6915 -1.2708 -0.1488
23938SOL     OW73535   8.540   9.049   0.932 -0.5364  0.6567 -0.0727
23938SOL    HW173536   8.490   8.971   0.909 -1.2734  1.1550 -0.1888
23938SOL    HW273537   8.602   9.060   0.860 -1.1404  0.7809 -0.5765
23939SOL     OW73538   1.863   1.137   3.916 -0.2801  0.1944  0.4753
23939SOL    HW173539   1.781   1.184   3.900 -1.4652 -2.3228 -1.4796
23939SOL    HW273540   1.905   1.133   3.830  1.9818  1.4493  1.4450
23940SOL     OW73541   5.919   7.810   4.231  0.1944  0.0658  0.5768
23940SOL    HW173542   5.958   7.889   4.194 -0.9509  0.5719  0.4246
23940SOL    HW273543   5.943   7.740   4.170 -0.0242  0.5563 -0.0776
23941SOL     OW73544   2.405   6.384   5.718 -0.1639 -0.3658  0.5667
23941SOL    HW173545   2.394   6.403   5.811 -3.2694  1.0235  0.0494
23941SOL    HW273546   2.392   6.469   5.675  0.1874 -1.1535 -1.1860
23942SOL     OW73547   6.543   8.567   6.743 -0.0675 -0.0182 -0.6660
23942SOL    HW173548   6.550   8.509   6.819  0.0462  0.7011 -0.1112
23942SOL    HW273549   6.633   8.571   6.709  0.2419  0.9726  0.1860
23943SOL     OW73550   6.555   5.816   0.965  0.4700  0.0034 -0.0369
23943SOL    HW173551   6.478   5.805   1.020  0.0714  0.9499 -0.3786
23943SOL    HW273552   6.587   5.727   0.949  0.0039 -0.3311  0.8804
23944SOL     OW73553   9.181   9.331   7.667  0.0567 -0.3425  0.0561
23944SOL    HW173554   9.175   9.423   7.690  0.8701 -0.2925  0.0814
23944SOL    HW273555   9.121   9.321   7.593 -0.2730  0.1302  0.2501
23945SOL     OW73556   3.736   5.373   1.402 -0.3113 -0.1782  0.3363
23945SOL    HW173557   3.649   5.346   1.372  1.1476 -3.8626 -1.1731
23945SOL    HW273558   3.772   5.425   1.330 -0.7977  0.3978  0.4968
23946SOL     OW73559   4.310   5.127   6.676  0.5941 -0.0408 -0.0112
23946SOL    HW173560   4.292   5.069   6.751  3.0218  0.2728  0.8848
23946SOL    HW273561   4.249   5.200   6.688 -0.7409 -1.1361  0.2582
23947SOL     OW73562   4.107   6.783   7.739  0.2080  0.2451 -0.1647
23947SOL    HW173563   4.102   6.840   7.816 -0.5792 -0.1800  0.1075
23947SOL    HW273564   4.194   6.744   7.743  0.7954  1.4720 -0.3963
23948SOL     OW73565   2.112   2.063   7.170  0.1922 -0.4009  0.4882
23948SOL    HW173566   2.086   2.072   7.261 -0.3681 -0.1051  0.3040
23948SOL    HW273567   2.191   2.009   7.172  1.2810  1.1455  1.3051
23949SOL     OW73568   4.133   3.903   4.684 -0.1825 -0.5891 -0.5084
23949SOL    HW173569   4.069   3.890   4.614 -1.2621 -0.0043  0.3386
23949SOL    HW273570   4.151   3.997   4.682  0.2975 -0.6800 -0.4408
23950SOL     OW73571   6.472   9.429   6.379 -0.1180 -0.2141  0.1766
23950SOL    HW173572   6.476   9.445   6.473 -2.3511  0.0897  0.2779
23950SOL    HW273573   6.402   9.486   6.348  0.6126 -0.2759 -1.6976
23951SOL     OW73574   4.799   8.761   4.657  0.1665 -0.1365  0.2986
23951SOL    HW173575   4.725   8.783   4.714  0.4216  3.5621 -0.5028
23951SOL    HW273576   4.770   8.684   4.609 -2.4755  0.1408  1.2783
23952SOL     OW73577   9.654   9.105   8.775 -0.1969  0.0855  0.5017
23952SOL    HW173578   9.715   9.158   8.826 -0.1684 -0.3427  0.9104
23952SOL    HW273579   9.573   9.157   8.774  0.7185  1.6269 -1.7321
23953SOL     OW73580   1.415   6.362   6.803 -0.0368 -0.0208 -0.2778
23953SOL    HW173581   1.464   6.440   6.778  0.7874 -0.0180  1.2333
23953SOL    HW273582   1.459   6.330   6.882 -1.3668 -1.0667  0.0848
23954SOL     OW73583   7.365   0.405   1.987 -0.5154  0.2616 -0.1044
23954SOL    HW173584   7.417   0.470   1.941 -1.1823  2.2713  1.8527
23954SOL    HW273585   7.312   0.364   1.918  1.5188  0.1683 -1.6897
23955SOL     OW73586   2.166   5.442   0.221  0.3298 -0.2339  0.2903
23955SOL    HW173587   2.145   5.379   0.290 -0.4880 -1.3049 -0.8977
23955SOL    HW273588   2.171   5.389   0.142 -2.3109  1.4372 -1.1088
23956SOL     OW73589   2.323   8.666   6.468  0.5674 -0.2968  0.2766
23956SOL    HW173590   2.391   8.602   6.447  1.3124  0.2969  0.8409
23956SOL    HW273591   2.241   8.621   6.445  1.1448 -0.9276 -0.6490
23957SOL     OW73592   9.650   7.299   5.897 -0.1351 -0.1354 -0.4238
23957SOL    HW173593   9.714   7.245   5.943  0.4062  0.0679 -0.9319
23957SOL    HW273594   9.571   7.292   5.951  0.2830 -0.4458  0.1697
23958SOL     OW73595   5.199   6.696   6.215 -0.2058  0.4159  0.1585
23958SOL    HW173596   5.122   6.675   6.161  0.0600  0.7582 -0.3624
23958SOL    HW273597   5.175   6.666   6.303 -0.4930 -0.5263 -0.2192
23959SOL     OW73598   7.967   6.031   2.723 -0.3330 -0.6729 -0.1342
23959SOL    HW173599   7.959   6.065   2.812  0.3287 -0.4339 -0.1612
23959SOL    HW273600   8.061   6.013   2.712 -0.1845  0.5857 -1.2552
23960SOL     OW73601   8.304   3.570   2.493 -0.2866  0.1043 -0.5929
23960SOL    HW173602   8.309   3.641   2.430  1.6899  0.5804  0.0139
23960SOL    HW273603   8.211   3.561   2.513 -0.9414  0.0897 -3.3584
23961SOL     OW73604   1.229   3.854   4.778 -0.0827  0.1146  0.3823
23961SOL    HW173605   1.180   3.831   4.857 -0.9860  1.6367  0.3068
23961SOL    HW273606   1.162   3.854   4.709  0.7603 -1.5827 -0.4879
23962SOL     OW73607   5.792   4.659   1.665  0.0813  0.1609 -0.0913
23962SOL    HW173608   5.728   4.714   1.620 -0.5340 -1.2118 -0.9484
23962SOL    HW273609   5.811   4.706   1.746 -1.6093  0.8493 -0.0553
23963SOL     OW73610   5.971   3.846   0.854  0.7291 -0.1113 -0.3529
23963SOL    HW173611   6.040   3.874   0.795 -0.4655  0.7011 -1.4100
23963SOL    HW273612   5.890   3.859   0.805 -0.2747  0.0875  1.2716
23964SOL     OW73613   0.868   3.092   2.735 -0.4239  0.4040 -0.3634
23964SOL    HW173614   0.862   3.114   2.642 -1.7932  0.0331 -0.3849
23964SOL    HW273615   0.810   3.154   2.779 -0.1801  0.2513  0.1839
23965SOL     OW73616   5.412   6.844   2.569 -0.0973 -0.2983 -0.6997
23965SOL    HW173617   5.359   6.905   2.619 -1.1142 -1.4269 -0.3482
23965SOL    HW273618   5.372   6.843   2.482  0.4867  0.2238 -0.9772
23966SOL     OW73619   6.905   7.233   4.286  0.0769 -0.3209  0.1476
23966SOL    HW173620   6.944   7.238   4.199  0.3679  0.5134  0.3154
23966SOL    HW273621   6.883   7.140   4.298  0.8869 -0.5966 -0.4378
23967SOL     OW73622   4.649   0.941   4.953  0.3278 -0.2310  0.5474
23967SOL    HW173623   4.652   0.885   5.030  0.3520 -1.4971 -0.3362
23967SOL    HW273624   4.582   0.901   4.897  1.1502 -0.0465 -0.6119
23968SOL     OW73625   8.608   2.967   6.911 -0.1195  0.0882  0.1737
23968SOL    HW173626   8.618   2.875   6.889  0.6560  0.2301 -0.0755
23968SOL    HW273627   8.696   3.004   6.906 -0.5332  1.0486 -0.6762
23969SOL     OW73628   0.283   7.998   1.520  0.3839 -0.8775  0.2463
23969SOL    HW173629   0.254   8.010   1.429  0.4050  1.9379  0.5086
23969SOL    HW273630   0.203   7.979   1.569  0.5311 -3.7253 -0.4544
23970SOL     OW73631   1.755   6.470   3.105  0.1147 -0.6888 -0.0945
23970SOL    HW173632   1.821   6.538   3.095 -0.5333 -0.1002 -0.4161
23970SOL    HW273633   1.712   6.490   3.189 -1.7084  0.7643 -1.3045
23971SOL     OW73634   3.018   0.072   9.321  0.3175 -0.0238 -0.0668
23971SOL    HW173635   3.032  -0.015   9.284 -0.1642  1.1692 -3.3465
23971SOL    HW273636   2.932   0.099   9.289  0.7188  1.8904  0.3116
23972SOL     OW73637   3.622   7.831   0.258  0.6493  0.1329 -0.1590
23972SOL    HW173638   3.687   7.766   0.232 -0.0218 -0.9434  0.7536
23972SOL    HW273639   3.646   7.854   0.348 -1.1186 -1.5433  0.8324
23973SOL     OW73640   4.696   8.405   6.898 -0.0592  0.3845 -1.0300
23973SOL    HW173641   4.697   8.370   6.987  0.1812  2.0453 -0.3555
23973SOL    HW273642   4.603   8.416   6.877 -0.1034  0.5609 -0.7440
23974SOL     OW73643   2.621   2.978   6.193 -0.2365 -0.2979  0.2349
23974SOL    HW173644   2.598   2.885   6.195  1.5340 -0.7731  0.2778
23974SOL    HW273645   2.543   3.023   6.225 -2.1872 -1.5201 -2.4143
23975SOL     OW73646   6.661   8.091   3.578 -0.0119 -0.1025  0.7435
23975SOL    HW173647   6.577   8.106   3.622 -0.2560  0.2863  0.1611
23975SOL    HW273648   6.644   8.022   3.514  0.5845 -1.3743  1.9150
23976SOL     OW73649   1.704   8.729   1.393  0.4110  0.0479 -0.4584
23976SOL    HW173650   1.706   8.659   1.458  1.1228  1.7539  1.4490
23976SOL    HW273651   1.774   8.788   1.418 -1.1308  2.2725 -1.0497
23977SOL     OW73652   8.668   4.718   1.297 -0.3292 -0.3971  0.0086
23977SOL    HW173653   8.695   4.683   1.382 -1.8264 -1.6654  0.0220
23977SOL    HW273654   8.579   4.748   1.311  0.4260  2.2291 -0.3925
23978SOL     OW73655   1.275   2.622   1.248  0.0610 -0.2781  0.3629
23978SOL    HW173656   1.245   2.711   1.267 -0.9622  0.0429 -2.2273
23978SOL    HW273657   1.327   2.632   1.167  0.6892 -1.9220  0.5256
23979SOL     OW73658   0.892   8.022   1.197  0.4647 -0.5429  0.1383
23979SOL    HW173659   0.902   7.928   1.178  2.8652 -0.3045 -0.1543
23979SOL    HW273660   0.872   8.026   1.290  0.4742 -1.3536  0.1816
23980SOL     OW73661   0.115   5.802   3.259  0.0002  0.3946  0.0054
23980SOL    HW173662   0.114   5.842   3.346  0.0298 -1.7137  1.0358
23980SOL    HW273663   0.124   5.709   3.276 -2.4135 -0.3494 -2.1672
23981SOL     OW73664   3.860   2.348   4.355  0.0142  0.0731  0.9603
23981SOL    HW173665   3.884   2.275   4.297 -2.5264  0.5324 -0.8830
23981SOL    HW273666   3.938   2.365   4.407  1.8311 -1.6543 -1.0098
23982SOL     OW73667   4.109   0.207   8.444  0.6544 -0.0148  0.0808
23982SOL    HW173668   4.021   0.213   8.481  0.5860  1.6021 -0.2755
23982SOL    HW273669   4.120   0.288   8.394  1.9567 -0.6714 -0.7518
23983SOL     OW73670   5.940   2.193   5.608  0.5369  0.3412  0.3878
23983SOL    HW173671   5.990   2.136   5.667 -2.6148 -1.6792  1.4294
23983SOL    HW273672   5.942   2.148   5.524 -0.3061 -0.3160  0.7010
23984SOL     OW73673   6.712   5.322   9.660  0.0682 -0.1789  1.0056
23984SOL    HW173674   6.701   5.227   9.661 -1.9076  0.0077  0.5190
23984SOL    HW273675   6.778   5.339   9.727 -0.1510 -1.8123  1.6779
23985SOL     OW73676   7.928   0.014   3.811 -0.0187  0.3140 -0.1564
23985SOL    HW173677   7.951   0.106   3.824 -1.5099  1.0141 -2.0044
23985SOL    HW273678   7.984  -0.033   3.872  0.9216  2.4216  0.7245
23986SOL     OW73679   9.449   4.242   8.649  1.0860  0.0912 -0.2972
23986SOL    HW173680   9.466   4.249   8.743 -0.7633 -0.8467  0.1441
23986SOL    HW273681   9.424   4.331   8.623 -0.1227  0.0028  0.4913
23987SOL     OW73682   8.505   4.762   0.764  0.6614  0.3184 -0.3190
23987SOL    HW173683   8.555   4.800   0.693  0.9827  0.3412 -0.0824
23987SOL    HW273684   8.479   4.675   0.732  0.5355  0.4510 -0.5813
23988SOL     OW73685   3.933   5.455   7.898  0.5735  0.1222 -0.6048
23988SOL    HW173686   3.877   5.384   7.866  2.3135 -1.6500  0.1056
23988SOL    HW273687   3.920   5.454   7.993 -1.4017  2.5993 -0.7423
23989SOL     OW73688   7.606   8.997   7.112  0.2024 -0.1431  0.1958
23989SOL    HW173689   7.687   9.047   7.120  0.1065  0.1477 -0.5653
23989SOL    HW273690   7.620   8.920   7.167  0.7509  0.2113  0.5614
23990SOL     OW73691   7.695   2.427   7.430 -0.1278 -0.1783 -0.1590
23990SOL    HW173692   7.740   2.358   7.381  2.9438  0.3652  1.6168
23990SOL    HW273693   7.691   2.393   7.520 -0.9977  0.8838  0.2216
23991SOL     OW73694   5.411   6.537   5.839 -0.1107  0.3117 -0.2126
23991SOL    HW173695   5.387   6.627   5.818  1.4981  1.0639  0.9791
23991SOL    HW273696   5.422   6.494   5.754 -1.3825  1.0626 -0.7929
23992SOL     OW73697   6.475   1.996   5.618  0.5614  0.5992 -0.3411
23992SOL    HW173698   6.438   2.050   5.548 -0.1540 -0.4107 -0.7741
23992SOL    HW273699   6.445   2.037   5.699  0.7981  1.3748 -0.6438
23993SOL     OW73700   9.175   9.625   4.210 -0.2819 -0.2265 -0.4104
23993SOL    HW173701   9.097   9.630   4.265  0.4405 -0.6834  0.6810
23993SOL    HW273702   9.196   9.531   4.207  1.2993  0.0559  0.8609
23994SOL     OW73703   1.037   7.130   7.416  0.2355 -0.3016 -0.3116
23994SOL    HW173704   1.020   7.119   7.510  0.8866  0.2013 -0.1309
23994SOL    HW273705   1.127   7.159   7.412  0.2906 -0.5743 -1.1191
23995SOL     OW73706   3.169   7.398   7.706  0.2891  0.2617 -0.7650
23995SOL    HW173707   3.245   7.360   7.662  0.2765  0.9183 -1.3901
23995SOL    HW273708   3.117   7.436   7.634 -0.4789  0.0697 -0.3180
23996SOL     OW73709   2.507   7.538   9.023  0.0278 -0.3211 -0.4514
23996SOL    HW173710   2.531   7.448   9.048  2.0392  0.3461  0.1824
23996SOL    HW273711   2.536   7.546   8.933  1.1281  0.0896 -0.0799
23997SOL     OW73712   6.766   6.401   7.804  0.1773  0.0984 -0.0394
23997SOL    HW173713   6.794   6.348   7.729  0.7029 -1.7955  1.3947
23997SOL    HW273714   6.675   6.375   7.817  0.8645 -1.7779  1.6087
23998SOL     OW73715   3.411   4.686   4.075  0.3974  0.2789 -0.7702
23998SOL    HW173716   3.445   4.641   4.153  0.3582 -0.9260 -1.4210
23998SOL    HW273717   3.486   4.692   4.016  0.5877  1.7719 -0.4037
23999SOL     OW73718   5.278   6.114   1.959 -0.1684  0.5519  0.5598
23999SOL    HW173719   5.346   6.136   1.895 -0.2341 -1.0675 -0.1118
23999SOL    HW273720   5.292   6.022   1.978 -2.2036  0.1547  0.3618
24000SOL     OW73721   5.361   0.832   2.634 -0.0522  0.0555 -0.0252
24000SOL    HW173722   5.268   0.834   2.612  0.0330  1.3587 -0.3564
24000SOL    HW273723   5.392   0.920   2.613  1.3035 -0.4292 -0.1153
24001SOL     OW73724   1.300   5.042   8.946  0.1591  0.0011  0.5917
24001SOL    HW173725   1.367   4.988   8.905 -2.9346 -1.6212 -2.9154
24001SOL    HW273726   1.305   5.126   8.899 -1.5875 -0.9312 -1.4697
24002SOL     OW73727   1.283   8.075   1.945 -0.4321  0.1139 -0.0781
24002SOL    HW173728   1.299   8.169   1.935  0.7321 -0.2437 -2.1865
24002SOL    HW273729   1.190   8.065   1.923 -0.2257  0.6478 -1.3327
24003SOL     OW73730   8.570   6.385   9.294  0.2356 -0.5064 -0.4037
24003SOL    HW173731   8.639   6.375   9.229  1.4199  0.1546  0.6820
24003SOL    HW273732   8.594   6.465   9.342 -1.7820  0.2438 -0.5597
24004SOL     OW73733   5.185   1.334   2.146  0.6009 -0.0061  0.2668
24004SOL    HW173734   5.126   1.404   2.115  0.1337 -0.9730 -1.1504
24004SOL    HW273735   5.127   1.259   2.159  1.4466 -0.8831 -0.8470
24005SOL     OW73736   6.720   4.068   7.102  0.4688  0.1529 -0.1460
24005SOL    HW173737   6.649   4.004   7.102  0.2671  0.3683 -1.1426
24005SOL    HW273738   6.745   4.076   7.194 -0.8428  0.1292  0.2245
24006SOL     OW73739   7.181   0.591   0.676 -0.1145 -0.3801 -0.0695
24006SOL    HW173740   7.114   0.639   0.628 -0.2029  0.8741  1.2574
24006SOL    HW273741   7.143   0.577   0.763  1.6333  1.1402  1.0068
24007SOL     OW73742   0.221   4.929   3.397  0.6972 -0.4110 -0.1780
24007SOL    HW173743   0.221   4.883   3.313  0.4331 -1.6338  0.4625
24007SOL    HW273744   0.292   4.887   3.447 -1.5263 -2.3658  1.5513
24008SOL     OW73745   4.436   8.293   9.123 -0.0784  0.2194 -0.5703
24008SOL    HW173746   4.515   8.286   9.070 -0.0783  0.3419 -0.5872
24008SOL    HW273747   4.462   8.264   9.210 -0.1326 -0.1943 -0.6904
24009SOL     OW73748   7.098   4.777   8.494  0.0175  0.5478  0.3106
24009SOL    HW173749   7.054   4.754   8.412 -0.9705  0.3111  0.9020
24009SOL    HW273750   7.078   4.705   8.554  2.7588 -0.5479  0.0736
24010SOL     OW73751   8.963   5.972   3.264 -0.1304  0.3408 -0.7133
24010SOL    HW173752   8.946   5.936   3.351 -1.1104 -0.0553 -1.0558
24010SOL    HW273753   8.908   6.050   3.259  2.0929  2.0622  0.0803
24011SOL     OW73754   8.185   1.337   2.798  0.1740 -0.5712 -0.4304
24011SOL    HW173755   8.140   1.288   2.729 -0.2769 -0.5064 -0.1859
24011SOL    HW273756   8.177   1.281   2.875  0.1507 -0.3689 -0.2854
24012SOL     OW73757   0.631   8.539   3.845 -0.8649  0.6608  0.0126
24012SOL    HW173758   0.601   8.448   3.849  1.2722 -0.4576 -3.8309
24012SOL    HW273759   0.719   8.537   3.881 -0.6930  1.1304 -0.3654
24013SOL     OW73760   7.721   8.066   0.427  0.2114  0.3677  0.4693
24013SOL    HW173761   7.731   8.161   0.433  0.6704  0.2384  2.0091
24013SOL    HW273762   7.676   8.041   0.508 -1.5067 -0.5476 -0.6876
24014SOL     OW73763   1.565   9.322   4.301 -0.0834 -0.2828 -0.6645
24014SOL    HW173764   1.534   9.250   4.246  0.4444 -0.3937 -0.8202
24014SOL    HW273765   1.490   9.344   4.356 -0.0680 -1.3595 -0.1914
24015SOL     OW73766   0.290   3.892   5.576  0.5283 -0.1261 -0.9409
24015SOL    HW173767   0.278   3.850   5.661  0.1786  1.9045  0.0827
24015SOL    HW273768   0.281   3.821   5.513 -0.7250 -1.4652  0.6402
24016SOL     OW73769   5.544   9.484   1.531 -0.3980  0.0559  0.2136
24016SOL    HW173770   5.601   9.523   1.597  0.8781 -2.9299  1.0609
24016SOL    HW273771   5.585   9.506   1.448  0.2394  0.5378  0.6439
24017SOL     OW73772   1.620   5.157   7.446  0.8410  0.5024 -0.4215
24017SOL    HW173773   1.612   5.071   7.486  1.1768  0.7800  0.2578
24017SOL    HW273774   1.706   5.155   7.403  0.3721  0.1135 -1.3812
24018SOL     OW73775   2.403   5.935   9.554  0.0536 -0.8421 -0.7297
24018SOL    HW173776   2.424   6.009   9.498  2.1710 -1.0787 -0.3076
24018SOL    HW273777   2.354   5.973   9.627 -0.6826 -0.1935 -1.5438
24019SOL     OW73778   5.069   9.599   6.678 -0.4489  0.1515  0.1982
24019SOL    HW173779   5.042   9.562   6.763  2.8595 -0.2752  1.1837
24019SOL    HW273780   5.041   9.691   6.683 -0.1920  0.1721  1.8205
24020SOL     OW73781   9.297   7.270   5.030  0.4546  0.2632 -0.3494
24020SOL    HW173782   9.298   7.177   5.006 -0.2839 -0.1249  0.9950
24020SOL    HW273783   9.388   7.298   5.021  0.4843 -0.2447 -1.9629
24021SOL     OW73784   3.108   0.090   2.461 -0.1458 -0.2833 -0.1344
24021SOL    HW173785   3.098   0.001   2.495 -1.8365  0.3435  1.1501
24021SOL    HW273786   3.166   0.132   2.524  2.4825 -0.9966 -1.9128
24022SOL     OW73787   1.225   5.173   4.041  0.2508  0.2668 -0.2320
24022SOL    HW173788   1.273   5.091   4.054 -0.5026 -0.3642 -1.2763
24022SOL    HW273789   1.285   5.241   4.071  0.3154 -0.7399  2.1150
24023SOL     OW73790   3.900   1.407   1.536  0.0544 -0.3996 -0.2482
24023SOL    HW173791   3.905   1.483   1.478 -0.6749 -0.8081 -0.8619
24023SOL    HW273792   3.959   1.343   1.497 -0.6958 -0.8002 -0.7436
24024SOL     OW73793   4.842   0.502   6.746 -0.4560  0.5994 -0.3829
24024SOL    HW173794   4.934   0.515   6.723 -0.5795 -0.1239 -1.3423
24024SOL    HW273795   4.826   0.564   6.817  0.4843  1.4833 -0.9190
24025SOL     OW73796   4.557   6.553   2.485  0.4950 -0.2256 -0.2139
24025SOL    HW173797   4.515   6.603   2.414 -3.0563 -0.0918  1.7622
24025SOL    HW273798   4.512   6.469   2.485  2.7722 -1.5453 -0.1071
24026SOL     OW73799   0.337   6.480   8.126 -0.0890  0.8452 -0.2920
24026SOL    HW173800   0.279   6.520   8.061  0.0663  1.3854 -0.1009
24026SOL    HW273801   0.408   6.443   8.075  0.4104  1.9037 -0.3893
24027SOL     OW73802   3.428   9.276   2.160  0.2271 -0.4887  0.2523
24027SOL    HW173803   3.395   9.366   2.166 -1.7514 -1.1754  0.5852
24027SOL    HW273804   3.352   9.221   2.180  1.5803 -2.2408  0.8715
24028SOL     OW73805   6.129   7.798   5.288 -0.2227  0.0337 -0.5011
24028SOL    HW173806   6.042   7.764   5.269  0.0020 -0.6134 -0.4033
24028SOL    HW273807   6.179   7.722   5.316 -0.0307  0.6397  0.8951
24029SOL     OW73808   8.728   7.284   3.153 -0.0068  0.4232  0.3116
24029SOL    HW173809   8.704   7.376   3.159 -2.0364 -0.1654  2.4931
24029SOL    HW273810   8.772   7.265   3.235 -0.9629 -0.8779  0.5510
24030SOL     OW73811   8.940   5.062   9.460  0.5431  0.4566  0.5892
24030SOL    HW173812   8.986   5.146   9.468 -0.6778  1.2101  0.0852
24030SOL    HW273813   8.922   5.054   9.366  1.5789 -0.9138  0.4817
24031SOL     OW73814   1.646   1.689   2.357 -0.4938  0.1246  0.1501
24031SOL    HW173815   1.555   1.691   2.329 -0.1995  0.7447 -0.8333
24031SOL    HW273816   1.696   1.684   2.276  0.3332 -2.2515  0.7157
24032SOL     OW73817   1.663   6.664   4.165 -0.1005 -0.3129 -0.1740
24032SOL    HW173818   1.703   6.608   4.098  0.3859  0.6763 -0.7346
24032SOL    HW273819   1.733   6.724   4.190 -0.4756 -0.2593  0.7648
24033SOL     OW73820   3.210   2.709   7.838  0.3349 -0.2206  0.2661
24033SOL    HW173821   3.142   2.658   7.882  0.8745 -0.8950  0.3353
24033SOL    HW273822   3.198   2.798   7.871 -2.1822  0.2686 -1.7081
24034SOL     OW73823   7.733   8.118   8.173 -0.0740  0.2194 -0.1514
24034SOL    HW173824   7.724   8.074   8.088  0.4836 -0.0883 -0.0547
24034SOL    HW273825   7.677   8.067   8.232 -1.2304  0.9952 -0.5212
24035SOL     OW73826   6.812   4.805   9.638  0.0703 -0.7118  0.2822
24035SOL    HW173827   6.861   4.761   9.568  0.5921 -1.2712  0.9797
24035SOL    HW273828   6.872   4.804   9.713 -0.0028  0.9813  0.4000
24036SOL     OW73829   6.923   8.784   4.932  0.0899 -0.7474 -0.7301
24036SOL    HW173830   6.988   8.818   4.871  0.1064 -0.3560 -0.4952
24036SOL    HW273831   6.949   8.693   4.948  2.0466  0.0822  1.2935
24037SOL     OW73832   7.993   4.319   4.774  1.1251 -0.2327  0.5499
24037SOL    HW173833   8.042   4.296   4.853  0.4142 -0.4797  0.9303
24037SOL    HW273834   7.933   4.387   4.801 -0.8742 -2.0198  0.8736
24038SOL     OW73835   4.103   4.874   1.002 -0.1365  0.0781  0.2097
24038SOL    HW173836   4.072   4.926   0.927  0.3469  0.0273 -0.0267
24038SOL    HW273837   4.023   4.849   1.048 -0.5385 -1.0082 -1.0236
24039SOL     OW73838   7.799   3.327   9.096 -0.6176  0.4563 -0.5439
24039SOL    HW173839   7.742   3.317   9.173 -0.0093  2.2134  0.1872
24039SOL    HW273840   7.827   3.237   9.076 -1.9945 -0.2076  0.3402
24040SOL     OW73841   4.417   2.098   0.742 -0.4551  0.5896 -0.3473
24040SOL    HW173842   4.470   2.020   0.726  0.0592  0.7910  0.3759
24040SOL    HW273843   4.336   2.064   0.780 -0.6523  0.3249 -0.9949
24041SOL     OW73844   8.360   2.839   6.846 -0.2949 -0.1267 -0.5319
24041SOL    HW173845   8.379   2.901   6.916 -0.3298 -0.1259 -0.5231
24041SOL    HW273846   8.441   2.834   6.795 -0.2154 -0.2566 -0.3927
24042SOL     OW73847   9.648   1.250   6.457  0.5344 -0.0960 -0.3360
24042SOL    HW173848   9.725   1.282   6.505  0.5334  0.3426 -0.6201
24042SOL    HW273849   9.633   1.162   6.492 -0.5550  0.8412  1.7755
24043SOL     OW73850   3.122   0.921   8.612  0.3267  0.7831 -0.9968
24043SOL    HW173851   3.094   0.858   8.678  0.3812  0.7386 -1.0161
24043SOL    HW273852   3.148   0.998   8.662  1.3286  0.3922 -0.8998
24044SOL     OW73853   1.002   4.410   7.949 -0.3180 -0.0199  0.0431
24044SOL    HW173854   1.059   4.333   7.951 -0.6009 -0.2483 -0.5313
24044SOL    HW273855   0.938   4.394   8.019  0.5802  0.4534  1.0052
24045SOL     OW73856   7.079   5.496   6.826  0.1913  0.0726  0.2606
24045SOL    HW173857   7.108   5.430   6.763  1.1112  1.4343 -0.7960
24045SOL    HW273858   7.089   5.579   6.780  0.6377  1.0956  2.1282
24046SOL     OW73859   8.900   2.760   8.665  0.0364 -0.1874 -0.0175
24046SOL    HW173860   8.974   2.707   8.696  0.4348  0.0607 -0.5449
24046SOL    HW273861   8.902   2.838   8.721 -0.9498 -1.0112  1.2036
24047SOL     OW73862   6.826   9.558   0.976 -0.1780 -0.4164 -0.1577
24047SOL    HW173863   6.791   9.469   0.970 -2.6519  0.3114  1.7830
24047SOL    HW273864   6.915   9.551   0.941 -0.2889 -3.6123 -0.1116
24048SOL     OW73865   6.811   2.593   0.351 -0.3334  0.0547  0.1863
24048SOL    HW173866   6.774   2.520   0.302 -1.8864  0.5597  0.5584
24048SOL    HW273867   6.742   2.619   0.412  0.0306  2.0719 -0.1775
24049SOL     OW73868   3.865   5.335   4.037  0.6065  0.3404  0.2746
24049SOL    HW173869   3.781   5.327   3.992  0.8847 -3.6491  0.1244
24049SOL    HW273870   3.848   5.305   4.126  1.6576  0.6659  0.6075
24050SOL     OW73871   7.243   7.480   0.123  0.1154 -0.3760 -0.5530
24050SOL    HW173872   7.254   7.424   0.200  1.6856  0.4811 -0.1191
24050SOL    HW273873   7.258   7.422   0.049  0.5531 -0.7866 -0.1483
24051SOL     OW73874   1.537   5.863   8.632 -0.2257  0.0650  0.1671
24051SOL    HW173875   1.626   5.893   8.613  0.6071  0.3118  3.6527
24051SOL    HW273876   1.547   5.768   8.647 -0.5900  0.0392  0.2584
24052SOL     OW73877   4.898   6.061   7.123  0.5741  0.1912  0.3447
24052SOL    HW173878   4.841   6.137   7.111 -0.5734 -1.0006 -3.0880
24052SOL    HW273879   4.975   6.080   7.069 -0.6820 -1.7943 -2.3971
24053SOL     OW73880   2.044   5.833   4.741  0.4733 -0.0465 -0.0434
24053SOL    HW173881   1.953   5.805   4.737  0.4696  0.0551 -1.2990
24053SOL    HW273882   2.083   5.780   4.810  0.0287 -1.8440 -1.1152
24054SOL     OW73883   8.670   3.659   3.558  0.4183 -0.4724  0.1541
24054SOL    HW173884   8.643   3.568   3.565  0.5455 -0.5329 -0.1390
24054SOL    HW273885   8.590   3.709   3.575  0.3574 -0.6344  0.3510
24055SOL     OW73886   7.963   7.584   2.628  0.4509  0.2794  0.4887
24055SOL    HW173887   7.905   7.510   2.641  1.5263 -0.3723  1.7647
24055SOL    HW273888   7.928   7.629   2.551 -2.4257  0.5903  1.8644
24056SOL     OW73889   9.704   6.760   7.587  0.1130 -0.3224 -0.2761
24056SOL    HW173890   9.797   6.769   7.566 -0.0265  1.0458 -0.4018
24056SOL    HW273891   9.672   6.850   7.592 -0.6481 -0.6517  2.2693
24057SOL     OW73892   9.149   4.767   1.891  0.5099  0.4674  0.1554
24057SOL    HW173893   9.189   4.684   1.868  0.8812  0.5778  0.3966
24057SOL    HW273894   9.127   4.808   1.807 -1.0496 -0.5213  0.0418
24058SOL     OW73895   3.726   4.155   6.248  0.1676 -0.4331 -0.0789
24058SOL    HW173896   3.651   4.107   6.214 -0.0438  0.1311 -0.4204
24058SOL    HW273897   3.689   4.232   6.291  0.3813 -1.4158  1.9896
24059SOL     OW73898   6.387   7.011   1.911  0.7191  0.0638  0.1209
24059SOL    HW173899   6.402   6.982   2.001 -1.1987 -0.3135  0.3603
24059SOL    HW273900   6.293   6.998   1.897  0.6504  1.7748 -1.3525
24060SOL     OW73901   2.248   2.047   1.682  0.2337  0.1920  0.3115
24060SOL    HW173902   2.237   1.996   1.602  2.5953  0.3310 -0.1920
24060SOL    HW273903   2.184   2.011   1.743 -0.9891 -0.5445 -1.3210
24061SOL     OW73904   5.587   4.264   0.997 -0.2072  0.1867 -0.4982
24061SOL    HW173905   5.513   4.320   0.974 -0.3492  0.2347  0.0715
24061SOL    HW273906   5.556   4.210   1.070 -0.0579 -0.6040 -1.0046
24062SOL     OW73907   4.817   2.077   6.476 -0.1270 -0.5310  0.2062
24062SOL    HW173908   4.783   2.078   6.565 -0.1164 -0.7102  0.2130
24062SOL    HW273909   4.882   2.008   6.475 -1.1162 -1.4883 -0.2962
24063SOL     OW73910   2.745   4.302   6.857 -0.2524  0.6021  0.3031
24063SOL    HW173911   2.698   4.374   6.900 -0.7799  0.2501  0.3152
24063SOL    HW273912   2.705   4.295   6.770 -0.7365 -0.1961  0.5876
24064SOL     OW73913   5.211   4.355   0.019  0.0547 -0.0088  0.2166
24064SOL    HW173914   5.280   4.289   0.027 -0.8759 -1.0718 -0.1688
24064SOL    HW273915   5.132   4.312   0.052 -1.1548 -0.1031 -2.4535
24065SOL     OW73916   1.133   5.211   1.616 -0.2146  0.6580  0.4801
24065SOL    HW173917   1.079   5.287   1.595 -0.8294  0.2474  0.5388
24065SOL    HW273918   1.131   5.206   1.712 -0.4958  0.3500  0.4621
24066SOL     OW73919   7.320   2.924   5.491  0.2571  0.2387 -0.0137
24066SOL    HW173920   7.364   2.985   5.549  0.4670 -1.0977  1.2725
24066SOL    HW273921   7.240   2.970   5.465  0.5949  1.2089  0.6014
24067SOL     OW73922   2.014   9.314   5.727  0.0797  0.1431  0.2912
24067SOL    HW173923   2.069   9.347   5.798  1.0317  0.2587 -0.4733
24067SOL    HW273924   1.990   9.225   5.755  1.2307 -0.1659  0.3430
24068SOL     OW73925   1.506   7.162   7.148  0.3359  0.1244 -0.8283
24068SOL    HW173926   1.463   7.140   7.065  0.4625 -0.8742 -0.6427
24068SOL    HW273927   1.596   7.185   7.123  0.1434  0.6661 -1.0483
24069SOL     OW73928   5.587   8.063   2.836  0.3601 -0.4043  0.5526
24069SOL    HW173929   5.588   8.067   2.740 -0.9525 -0.4494  0.5317
24069SOL    HW273930   5.501   8.096   2.861  0.3736 -1.1716  1.6770
24070SOL     OW73931   4.683   9.352   9.356 -0.8394 -0.1237  0.2972
24070SOL    HW173932   4.604   9.378   9.308  0.8674  2.8447 -1.2087
24070SOL    HW273933   4.686   9.257   9.347 -2.6015 -0.0557 -2.3537
24071SOL     OW73934   1.675   4.436   6.112 -0.1009  0.2096 -0.1367
24071SOL    HW173935   1.647   4.498   6.179 -0.8433 -1.2002  0.9008
24071SOL    HW273936   1.741   4.484   6.062 -0.6239  1.8202  0.6280
24072SOL     OW73937   3.048   4.289   8.792 -0.8597  0.1212 -0.5889
24072SOL    HW173938   3.110   4.309   8.721  0.6147  0.1923  0.6629
24072SOL    HW273939   3.063   4.197   8.813  0.5817  0.7108  1.2879
24073SOL     OW73940   2.994   8.348   3.047  0.5123 -0.1782 -0.5038
24073SOL    HW173941   3.082   8.337   3.013 -0.1242  2.4957 -3.4684
24073SOL    HW273942   2.943   8.278   3.006  0.7579 -0.0705 -1.0013
24074SOL     OW73943   5.827   4.962   1.934  0.7867  0.6653 -0.0351
24074SOL    HW173944   5.881   4.976   1.856  0.7768 -0.2491 -0.2197
24074SOL    HW273945   5.815   5.049   1.971  2.1537  0.9268 -0.1442
24075SOL     OW73946   5.771   4.163   0.381 -0.8031 -0.1511  0.4514
24075SOL    HW173947   5.854   4.127   0.412 -0.4816 -0.3057 -0.5574
24075SOL    HW273948   5.711   4.089   0.383  0.0336 -1.0442 -2.3094
24076SOL     OW73949   2.116   2.575   5.291 -0.7300  0.4273 -0.3754
24076SOL    HW173950   2.142   2.492   5.250  1.4205  1.1358 -0.5487
24076SOL    HW273951   2.137   2.563   5.384 -1.8666  0.2513 -0.1285
24077SOL     OW73952   6.823   8.527   8.919 -0.1593 -0.0670 -0.3029
24077SOL    HW173953   6.852   8.586   8.850 -1.5757 -1.6046 -2.3321
24077SOL    HW273954   6.733   8.554   8.938 -0.5711 -1.0644 -0.7419
24078SOL     OW73955   5.291   3.545   7.121  0.0300 -0.0902 -0.1304
24078SOL    HW173956   5.218   3.488   7.097 -0.4247  0.3390  0.2064
24078SOL    HW273957   5.257   3.597   7.193 -0.1377  1.7594 -1.4631
24079SOL     OW73958   1.396   3.575   3.217 -0.4070 -0.0102  0.1859
24079SOL    HW173959   1.324   3.539   3.166  1.3034  0.3344 -2.6960
24079SOL    HW273960   1.449   3.499   3.242 -0.7821 -0.1038  0.7063
24080SOL     OW73961   5.186   0.113   5.913 -0.1847  0.2365  0.1993
24080SOL    HW173962   5.175   0.060   5.992  0.6418  0.6476  0.5968
24080SOL    HW273963   5.241   0.186   5.940 -2.0193  1.8164 -0.1184
24081SOL     OW73964   5.234   4.765   1.425 -0.0091 -0.3868  0.1504
24081SOL    HW173965   5.250   4.672   1.441 -0.5688 -0.5023  0.0371
24081SOL    HW273966   5.279   4.809   1.497 -2.0826 -0.8647  1.8326
24082SOL     OW73967   6.721   5.783   4.096  0.2003  0.1047  0.2290
24082SOL    HW173968   6.688   5.797   4.185 -1.2766  0.8072 -0.4094
24082SOL    HW273969   6.725   5.688   4.087  0.1061  0.0263  0.9526
24083SOL     OW73970   2.096   7.322   5.195 -0.5225 -0.5021 -0.2246
24083SOL    HW173971   2.171   7.372   5.228 -1.2757  0.4032  0.1451
24083SOL    HW273972   2.124   7.231   5.203  0.5020 -0.1915 -0.0055
24084SOL     OW73973   2.253   6.662   7.401 -1.0259 -0.2335  0.4345
24084SOL    HW173974   2.334   6.698   7.364 -1.2701 -0.6978 -0.5908
24084SOL    HW273975   2.222   6.729   7.461 -0.1273  0.1543  0.4747
24085SOL     OW73976   7.999   7.617   7.799 -0.5011 -0.2806 -0.5728
24085SOL    HW173977   7.960   7.591   7.883 -1.3388 -2.0490 -1.4725
24085SOL    HW273978   8.092   7.599   7.810 -0.6007 -0.4963 -0.0222
24086SOL     OW73979   4.841   1.356   8.664 -0.6891 -0.6949 -0.4567
24086SOL    HW173980   4.919   1.303   8.648  1.3573  1.7055  0.7942
24086SOL    HW273981   4.826   1.403   8.582 -0.2784 -0.5500 -0.4513
24087SOL     OW73982   9.023   5.923   7.093 -0.5962  0.0037  0.2194
24087SOL    HW173983   9.024   5.881   7.179 -0.6274  2.0472  1.3013
24087SOL    HW273984   9.095   5.987   7.097 -1.0371  0.6062 -1.0011
24088SOL     OW73985   7.283   3.671   4.743 -0.2630 -0.7409  0.4195
24088SOL    HW173986   7.259   3.708   4.658  1.3239  0.2272  0.3703
24088SOL    HW273987   7.320   3.744   4.792  1.5908 -1.9143  0.8551
24089SOL     OW73988   2.702   8.500   0.666 -0.5935 -0.0832  0.1892
24089SOL    HW173989   2.727   8.419   0.711  0.9040  0.0406 -0.3562
24089SOL    HW273990   2.725   8.569   0.728  2.0624  0.1270 -0.8899
24090SOL     OW73991   5.101   4.780   0.594  0.1069  0.2399 -0.7345
24090SOL    HW173992   5.151   4.734   0.662 -0.2198  0.0752 -0.6062
24090SOL    HW273993   5.102   4.872   0.621 -2.2175 -0.1404  0.9022
24091SOL     OW73994   6.996   3.220   8.684 -0.2926 -0.0054  0.1129
24091SOL    HW173995   6.945   3.151   8.642  0.3103  0.5716 -1.6763
24091SOL    HW273996   6.944   3.299   8.672  0.7312  0.4889 -1.2370
24092SOL     OW73997   1.419   0.444   1.602  0.0167  0.1876 -0.4395
24092SOL    HW173998   1.373   0.434   1.520 -0.6765 -0.2121 -0.0097
24092SOL    HW273999   1.358   0.490   1.659  1.1500  2.0734 -0.6878
24093SOL     OW74000   2.102   6.519   0.650 -0.0124 -0.7920 -0.1983
24093SOL    HW174001   2.127   6.428   0.664 -1.2696 -1.2803 -0.9873
24093SOL    HW274002   2.127   6.536   0.559 -0.7906 -0.6913 -0.3937
24094SOL     OW74003   3.705   9.439   3.473 -0.0629  0.0634 -0.0808
24094SOL    HW174004   3.753   9.515   3.440  2.6432 -2.5930 -3.0107
24094SOL    HW274005   3.621   9.441   3.428 -0.3327  1.6201  0.4408
24095SOL     OW74006   5.489   0.435   0.539  0.6033 -0.0351  0.5008
24095SOL    HW174007   5.422   0.369   0.558  0.5349  0.2977  1.4873
24095SOL    HW274008   5.484   0.448   0.444 -0.4115 -0.3555  0.4937
24096SOL     OW74009   5.507   9.703   0.858  0.1827 -0.6316 -0.1982
24096SOL    HW174010   5.461   9.668   0.934  2.4186 -0.3888  1.3654
24096SOL    HW274011   5.483   9.795   0.856 -1.5910 -1.0615 -1.1737
24097SOL     OW74012   8.587   5.984   3.793 -0.4928 -0.5399 -0.8228
24097SOL    HW174013   8.659   6.038   3.759 -0.0993 -0.3254  0.3047
24097SOL    HW274014   8.620   5.951   3.877 -1.8145 -0.2116 -0.1571
24098SOL     OW74015   1.608   3.317   1.108  0.0920 -0.1395 -0.2634
24098SOL    HW174016   1.606   3.357   1.022 -2.5768 -0.3341 -0.3588
24098SOL    HW274017   1.618   3.223   1.091  1.1354 -0.0418 -0.2588
24099SOL     OW74018   5.525   4.654   5.106  0.0850  0.1279 -0.3572
24099SOL    HW174019   5.467   4.670   5.180  0.2819 -1.5053  0.1980
24099SOL    HW274020   5.487   4.578   5.062  1.3258 -0.4661 -0.4606
24100SOL     OW74021   4.138   7.688   4.871  0.2631 -0.2061 -0.0933
24100SOL    HW174022   4.081   7.631   4.922 -1.8841 -0.3105 -2.3841
24100SOL    HW274023   4.122   7.776   4.905  0.4433 -0.4800  0.7200
24101SOL     OW74024   0.873   1.672   7.133  0.1005 -0.2845 -0.2708
24101SOL    HW174025   0.968   1.665   7.121 -0.1732 -2.8835 -1.7469
24101SOL    HW274026   0.858   1.642   7.222  0.6066 -0.9661 -0.4050
24102SOL     OW74027   4.713   8.212   4.992 -0.4906 -0.0873 -0.3627
24102SOL    HW174028   4.753   8.242   4.911  1.2938  1.3500  0.9344
24102SOL    HW274029   4.685   8.293   5.036 -2.8539 -0.9239 -0.1964
24103SOL     OW74030   9.473   3.470   9.041 -0.2802  0.1733 -0.7049
24103SOL    HW174031   9.397   3.488   8.986 -1.0103 -1.8818 -0.4422
24103SOL    HW274032   9.443   3.406   9.105  1.4580 -0.1051 -0.0948
24104SOL     OW74033   2.546   1.070   8.587 -0.6705 -0.2068  0.6663
24104SOL    HW174034   2.534   1.015   8.665 -0.3985  1.2345  1.7832
24104SOL    HW274035   2.545   1.160   8.622 -1.0553  0.4950 -1.0725
24105SOL     OW74036   7.423   0.793   2.833  0.1213  0.4153 -0.3586
24105SOL    HW174037   7.357   0.788   2.763  0.7848  0.2326 -0.9856
24105SOL    HW274038   7.448   0.702   2.849 -1.4970  0.2468  1.5795
24106SOL     OW74039   7.594   8.173   6.211  0.1514 -0.4273  0.1052
24106SOL    HW174040   7.579   8.165   6.305  0.0338 -0.4855  0.0816
24106SOL    HW274041   7.651   8.250   6.202 -1.6033  0.9266  0.0665
24107SOL     OW74042   6.146   3.193   1.224 -0.0537  0.0277 -0.0531
24107SOL    HW174043   6.053   3.202   1.241 -0.0119 -0.7200  0.5906
24107SOL    HW274044   6.151   3.146   1.140 -0.2422  1.4432 -0.8936
24108SOL     OW74045   8.543   8.035   9.694  0.2073  0.1257  0.4152
24108SOL    HW174046   8.537   8.011   9.787  0.3184  1.8157  0.8766
24108SOL    HW274047   8.485   8.110   9.684 -0.3390 -0.4554 -1.0520
24109SOL     OW74048   5.214   6.759   7.792  0.4591 -0.5099  0.1503
24109SOL    HW174049   5.140   6.805   7.830  0.2356 -0.5682 -0.2144
24109SOL    HW274050   5.198   6.667   7.812  1.7036 -0.3320  2.2835
24110SOL     OW74051   5.266   2.115   2.304  0.4378 -0.6705 -0.2426
24110SOL    HW174052   5.330   2.178   2.337 -0.6817 -0.0226  0.8055
24110SOL    HW274053   5.251   2.055   2.376  0.0855 -0.9899 -0.5738
24111SOL     OW74054   3.299   4.414   5.021 -0.3887  0.3353 -0.3449
24111SOL    HW174055   3.366   4.428   5.088 -1.6929 -0.5988  1.2173
24111SOL    HW274056   3.220   4.393   5.070 -1.1804 -1.2945 -2.1886
24112SOL     OW74057   8.699   5.182   1.353  0.2506  0.6410  0.1280
24112SOL    HW174058   8.659   5.123   1.289 -1.5448  0.7772  1.0343
24112SOL    HW274059   8.715   5.262   1.304 -0.2102  0.4323 -0.3871
24113SOL     OW74060   3.104   2.444   3.983 -0.2837 -0.3612  0.0138
24113SOL    HW174061   3.075   2.355   4.003  0.3670 -0.6239 -0.1830
24113SOL    HW274062   3.043   2.500   4.031  0.4141 -0.9456  1.6354
24114SOL     OW74063   5.298   5.325   7.681  0.7228 -0.0954  0.5097
24114SOL    HW174064   5.279   5.334   7.774 -1.7449 -1.2726  0.1979
24114SOL    HW274065   5.261   5.404   7.641 -0.1460 -0.5989  0.3078
24115SOL     OW74066   3.892   9.594   3.348  0.4385  0.1600 -0.0861
24115SOL    HW174067   3.915   9.686   3.336 -1.0057  0.6416  0.5929
24115SOL    HW274068   3.944   9.565   3.423  0.8570  0.4378 -0.2684
24116SOL     OW74069   3.643   5.090   6.008 -0.4706  0.2009 -0.3869
24116SOL    HW174070   3.597   5.087   5.924  1.6449  0.6867 -1.6597
24116SOL    HW274071   3.674   5.001   6.022  2.1494  0.7378 -2.0098
24117SOL     OW74072   4.705   9.556   8.531 -0.1550 -0.0790 -0.1128
24117SOL    HW174073   4.611   9.538   8.524 -0.1649 -0.6572  1.2464
24117SOL    HW274074   4.738   9.547   8.441 -1.4802  0.6837 -0.6954
24118SOL     OW74075   0.156   6.607   9.563  0.4560  0.3075 -0.6918
24118SOL    HW174076   0.097   6.618   9.488 -0.4873  0.4544  0.0540
24118SOL    HW274077   0.228   6.668   9.546  0.3942  0.1384 -1.6109
24119SOL     OW74078   1.195   2.070   9.109 -0.0088  0.0470  0.3739
24119SOL    HW174079   1.260   2.130   9.146 -0.2298  0.0458  0.7666
24119SOL    HW274080   1.112   2.097   9.148  0.2645 -2.2424  2.7280
24120SOL     OW74081   1.637   1.410   1.305 -0.2861 -0.0640  0.3063
24120SOL    HW174082   1.604   1.364   1.227 -0.0650 -0.1615  0.2697
24120SOL    HW274083   1.725   1.439   1.281 -0.4427  0.4272  0.3141
24121SOL     OW74084   4.830   0.390   1.757 -0.3353  0.5540 -0.3630
24121SOL    HW174085   4.735   0.389   1.770 -0.2986  0.2639 -0.0968
24121SOL    HW274086   4.851   0.300   1.733 -0.4456  1.1234 -2.8161
24122SOL     OW74087   6.298   0.933   3.945 -0.1332 -0.3351  0.3455
24122SOL    HW174088   6.264   0.844   3.943 -1.1820  0.0342  0.9584
24122SOL    HW274089   6.392   0.924   3.926 -0.5895 -1.3604 -1.6972
24123SOL     OW74090   4.817   1.398   7.926  0.4946  0.3528 -0.0606
24123SOL    HW174091   4.873   1.347   7.985  1.0146  1.1310  0.1272
24123SOL    HW274092   4.728   1.380   7.957  0.4069 -2.5500 -1.6396
24124SOL     OW74093   5.875   8.930   6.097 -0.1919 -0.1625  0.5755
24124SOL    HW174094   5.966   8.906   6.111  0.1474  1.0671  0.5065
24124SOL    HW274095   5.840   8.943   6.186 -0.5950 -1.5685  0.6643
24125SOL     OW74096   6.087   3.084   5.110  0.2506  0.3270 -0.3218
24125SOL    HW174097   6.101   3.034   5.191 -0.2455 -0.8500 -0.9468
24125SOL    HW274098   6.172   3.126   5.094  1.0346 -1.1721 -0.3394
24126SOL     OW74099   3.232   2.765   8.557  0.0597  0.1085 -0.1860
24126SOL    HW174100   3.287   2.719   8.620 -0.5003 -1.9164 -1.0876
24126SOL    HW274101   3.262   2.733   8.472 -0.7297  1.0345 -0.8343
24127SOL     OW74102   3.382   0.329   8.489 -0.4026  0.2664 -0.9847
24127SOL    HW174103   3.392   0.377   8.407  2.5768 -1.3449 -1.7294
24127SOL    HW274104   3.340   0.247   8.464  1.6427 -0.7779 -1.2625
24128SOL     OW74105   1.967   2.641   2.235  0.0263  0.1177  0.1537
24128SOL    HW174106   2.011   2.688   2.164  1.5018 -1.7030 -0.1938
24128SOL    HW274107   1.877   2.631   2.205 -0.2547  2.2771  0.0614
24129SOL     OW74108   3.464   1.677   5.131 -0.4709 -0.3623 -0.5074
24129SOL    HW174109   3.389   1.621   5.148 -0.3604 -0.2912  0.2501
24129SOL    HW274110   3.427   1.761   5.106 -0.6644 -0.0935  0.6268
24130SOL     OW74111   5.585   3.138   7.603  0.4916  0.0106 -0.3093
24130SOL    HW174112   5.644   3.139   7.528  0.0225 -1.0964 -0.7105
24130SOL    HW274113   5.536   3.220   7.595  1.2971  0.4839 -0.5057
24131SOL     OW74114   2.357   6.924   2.869 -0.0309 -0.7264  0.2169
24131SOL    HW174115   2.352   6.918   2.774  0.3730  0.1476  0.1331
24131SOL    HW274116   2.437   6.877   2.893  0.9087  0.6657 -0.0631
24132SOL     OW74117   8.484   5.084   6.452  0.7191 -0.0307 -0.5246
24132SOL    HW174118   8.404   5.127   6.481  1.6251  0.9955  0.5651
24132SOL    HW274119   8.459   4.992   6.439 -0.5547  0.2134  0.0858
24133SOL     OW74120   6.570   3.124   4.314 -0.3448  0.5718 -0.5977
24133SOL    HW174121   6.604   3.170   4.392  1.7624  0.2256 -1.2346
24133SOL    HW274122   6.477   3.112   4.332  0.3247 -0.9809  2.6430
24134SOL     OW74123   5.421   9.058   7.975 -0.5993  0.4672 -0.1538
24134SOL    HW174124   5.440   8.967   7.956 -0.5780  0.7141 -1.4020
24134SOL    HW274125   5.402   9.097   7.890  1.5503  2.1267  0.0386
24135SOL     OW74126   0.156   1.466   7.890 -0.2368  0.2773  0.7856
24135SOL    HW174127   0.212   1.515   7.829 -0.1540 -0.0951  0.5630
24135SOL    HW274128   0.193   1.487   7.977 -1.2514  1.9865  0.8567
24136SOL     OW74129   0.360   0.560   0.808  0.3226  0.8555  0.7249
24136SOL    HW174130   0.408   0.635   0.773 -0.2730 -0.3053 -3.0742
24136SOL    HW274131   0.276   0.561   0.761  0.3724 -2.2268  0.3424
24137SOL     OW74132   0.458   9.253   8.234  0.3008 -0.4764 -0.3553
24137SOL    HW174133   0.534   9.295   8.195 -0.8949  0.1226 -2.1318
24137SOL    HW274134   0.432   9.186   8.171 -1.2534  0.0308 -0.2899
24138SOL     OW74135   0.501   1.749   3.575  0.2472  0.1503  0.0157
24138SOL    HW174136   0.547   1.669   3.552  0.9917  1.0284 -1.6922
24138SOL    HW274137   0.570   1.813   3.594 -0.2857  0.8710 -0.3903
24139SOL     OW74138   1.083   4.012   8.161  0.0014  0.0286  0.8126
24139SOL    HW174139   1.003   3.961   8.175 -0.1724  0.1659  0.3339
24139SOL    HW274140   1.153   3.956   8.193 -0.0113 -1.1813 -1.1366
24140SOL     OW74141   3.021   1.442   8.376 -0.6264  0.6885  0.3928
24140SOL    HW174142   3.055   1.528   8.350  1.0490 -0.3661 -1.1355
24140SOL    HW274143   3.090   1.403   8.429 -1.3368  0.2388  1.0073
24141SOL     OW74144   6.537   5.985   8.268  0.4175  0.0696 -0.1483
24141SOL    HW174145   6.471   5.926   8.232 -0.4295  1.4908 -1.0376
24141SOL    HW274146   6.593   6.005   8.193  1.1512 -0.1864  0.3251
24142SOL     OW74147   8.189   5.069   3.885 -0.0467  0.2220 -0.2387
24142SOL    HW174148   8.155   5.158   3.892 -0.6895 -0.0045 -0.3460
24142SOL    HW274149   8.277   5.079   3.848 -0.0163  0.8248 -0.0072
24143SOL     OW74150   4.833   5.943   3.451  0.2038  0.5556  0.2884
24143SOL    HW174151   4.867   5.923   3.364  2.4164 -1.5547  1.5125
24143SOL    HW274152   4.793   5.861   3.481 -3.3311  2.0504  0.2130
24144SOL     OW74153   7.628   8.113   4.580 -0.1445 -0.0932  0.1909
24144SOL    HW174154   7.572   8.137   4.507  1.5672  0.6876 -0.9257
24144SOL    HW274155   7.583   8.039   4.622 -1.4579 -0.1735 -1.2803
24145SOL     OW74156   5.477   1.800   1.498 -0.0791  0.3198  0.1316
24145SOL    HW174157   5.571   1.806   1.515  0.2170  0.1370 -1.3458
24145SOL    HW274158   5.459   1.873   1.438 -1.0819  0.9482  1.1564
24146SOL     OW74159   8.415   5.628   9.330 -0.1417 -0.9916 -0.1125
24146SOL    HW174160   8.500   5.598   9.361  0.4363 -1.1433 -1.7125
24146SOL    HW274161   8.433   5.713   9.289 -0.6378 -1.2573 -0.9202
24147SOL     OW74162   6.774   5.998   6.288  0.5821  0.0920 -0.0976
24147SOL    HW174163   6.715   6.048   6.344  2.1961  3.1708 -0.9447
24147SOL    HW274164   6.766   6.038   6.201  2.4816 -0.6210 -0.6683
24148SOL     OW74165   0.956   2.411   3.227 -0.2590  0.2138 -0.0155
24148SOL    HW174166   0.963   2.329   3.276 -1.8227  1.0585  1.7699
24148SOL    HW274167   0.870   2.406   3.186 -0.5945  1.1469  0.5382
24149SOL     OW74168   6.227   9.643   3.717  0.3914  0.3961 -0.1188
24149SOL    HW174169   6.171   9.588   3.771 -1.3680  0.7508 -1.4791
24149SOL    HW274170   6.172   9.719   3.696  1.4635  0.8843 -1.3038
24150SOL     OW74171   3.827   6.896   6.294  0.3420  0.2962  0.2080
24150SOL    HW174172   3.759   6.954   6.327  0.2245  0.2775 -0.0007
24150SOL    HW274173   3.847   6.930   6.206 -0.7157 -0.8158 -0.4810
24151SOL     OW74174   3.179   6.651   1.926  0.4816 -0.3039 -0.2531
24151SOL    HW174175   3.228   6.642   2.008  0.2091  1.2186  0.1126
24151SOL    HW274176   3.212   6.581   1.870 -0.0838 -2.0744  1.5206
24152SOL     OW74177   7.459   2.968   4.547 -0.2633 -0.7922  0.4072
24152SOL    HW174178   7.385   3.024   4.570  0.2171  0.5630 -1.1608
24152SOL    HW274179   7.427   2.878   4.560 -1.0018 -0.2251  3.1448
24153SOL     OW74180   0.313   9.089   7.578 -0.4849 -0.0324  0.2886
24153SOL    HW174181   0.250   9.057   7.642 -0.6576  0.1837  0.2285
24153SOL    HW274182   0.343   9.173   7.614  1.4001 -1.1182  1.4173
24154SOL     OW74183   9.218   7.228   0.517 -0.0291  0.2983 -0.1180
24154SOL    HW174184   9.295   7.186   0.480 -0.0620 -0.1334  0.2930
24154SOL    HW274185   9.145   7.171   0.493  0.0988 -0.6650  1.6429
24155SOL     OW74186   0.664   5.530   7.731 -0.5453 -0.0571 -0.2150
24155SOL    HW174187   0.721   5.591   7.779 -1.1432  0.3306  0.0264
24155SOL    HW274188   0.614   5.586   7.672  0.8940 -0.6366 -2.0732
24156SOL     OW74189   4.032   2.842   3.871  0.0564  0.7894 -0.1277
24156SOL    HW174190   4.001   2.931   3.851  0.2234  0.7851 -0.4064
24156SOL    HW274191   4.120   2.854   3.904  0.1155  0.7196 -0.2588
24157SOL     OW74192   8.933   5.361   1.862  0.2125 -0.2575  0.6011
24157SOL    HW174193   8.983   5.397   1.935  0.2359  1.8297 -0.3627
24157SOL    HW274194   8.920   5.436   1.803 -1.3833 -1.4505 -0.6499
24158SOL     OW74195   8.632   4.416   0.798 -0.1767  0.5391 -0.1119
24158SOL    HW174196   8.543   4.437   0.770  0.4113  2.4723 -0.6230
24158SOL    HW274197   8.653   4.482   0.864  0.3836 -0.7852  1.0962
24159SOL     OW74198   5.519   5.957   0.489  0.6063  0.2164  0.7703
24159SOL    HW174199   5.581   5.993   0.426 -2.5635  1.1767 -2.0854
24159SOL    HW274200   5.508   5.865   0.463 -0.1370  0.4108  0.3648
24160SOL     OW74201   7.316   2.748   5.771  0.2112 -0.2331 -0.3966
24160SOL    HW174202   7.301   2.663   5.812 -1.0572  0.2880  0.2723
24160SOL    HW274203   7.370   2.795   5.835 -0.7554  0.1533  0.1505
24161SOL     OW74204   6.876   7.396   6.456  0.6317  0.2173 -0.6199
24161SOL    HW174205   6.945   7.353   6.406  1.6773  1.1056  0.0198
24161SOL    HW274206   6.900   7.488   6.458  0.4866  0.2557  1.2596
24162SOL     OW74207   0.853   9.181   8.455  0.3493  0.4436  0.0024
24162SOL    HW174208   0.786   9.141   8.399 -0.5058 -0.6690  1.7129
24162SOL    HW274209   0.882   9.258   8.407 -1.5269  0.4599 -1.2071
24163SOL     OW74210   6.856   3.849   0.887 -0.3176 -0.0911 -0.6771
24163SOL    HW174211   6.828   3.845   0.796 -1.0871  0.6494 -0.4944
24163SOL    HW274212   6.890   3.762   0.906  1.5206  0.2293 -2.1704
24164SOL     OW74213   2.064   1.324   2.853  0.4174 -0.7335 -0.6199
24164SOL    HW174214   2.144   1.371   2.877 -0.1204 -0.9803  1.9291
24164SOL    HW274215   2.076   1.302   2.761  3.5166 -1.2104 -0.2168
24165SOL     OW74216   6.364   0.947   6.292 -0.7461  0.0925  0.8642
24165SOL    HW174217   6.308   0.887   6.242 -0.0435 -0.1317  0.3375
24165SOL    HW274218   6.432   0.890   6.329  0.4758  0.6697 -0.4041
24166SOL     OW74219   5.455   8.544   9.070  1.0248  0.5247 -0.2822
24166SOL    HW174220   5.401   8.621   9.084  0.0703  0.2962 -2.2432
24166SOL    HW274221   5.392   8.476   9.045  1.8754 -0.8240  1.0745
24167SOL     OW74222   9.400   6.621   9.035 -0.7110  0.1336 -0.9779
24167SOL    HW174223   9.440   6.660   9.113 -0.7311 -0.2066 -0.8001
24167SOL    HW274224   9.311   6.656   9.033 -0.7654  0.0107 -0.7545
24168SOL     OW74225   9.379   4.590   3.692 -0.6921 -0.3282 -0.4590
24168SOL    HW174226   9.293   4.597   3.651 -0.5922  2.4557 -0.3435
24168SOL    HW274227   9.441   4.586   3.619 -0.7225  1.4583 -0.6227
24169SOL     OW74228   3.020   0.403   0.222 -0.2343 -0.1227 -0.1897
24169SOL    HW174229   2.942   0.421   0.276 -1.2222  0.8796 -1.8686
24169SOL    HW274230   3.006   0.313   0.190 -0.0561 -0.4137  0.5279
24170SOL     OW74231   4.901   3.375   9.574  0.1425 -0.2983  0.5167
24170SOL    HW174232   4.858   3.430   9.508  0.1223 -0.3676  0.4719
24170SOL    HW274233   4.840   3.376   9.648  0.3831  0.1592  0.7123
24171SOL     OW74234   9.116   4.255   3.487 -0.0786  0.1168 -0.2160
24171SOL    HW174235   9.150   4.231   3.401 -0.3856 -2.0859  0.2141
24171SOL    HW274236   9.193   4.259   3.544 -0.0868 -0.7317 -0.1291
24172SOL     OW74237   2.280   0.415   8.047  0.3428 -0.0488 -0.1392
24172SOL    HW174238   2.324   0.500   8.039 -1.3167  0.7430 -1.5848
24172SOL    HW274239   2.216   0.415   7.976  1.6166 -3.3627 -1.4433
24173SOL     OW74240   5.686   1.616   8.436 -0.3077 -0.7832 -0.3841
24173SOL    HW174241   5.703   1.694   8.383 -2.3777 -0.2177 -0.3077
24173SOL    HW274242   5.639   1.557   8.376  0.2871 -1.5348 -0.1241
24174SOL     OW74243   9.095   7.507   3.083 -0.6550 -0.3669  0.2735
24174SOL    HW174244   9.062   7.446   3.017 -1.9606 -0.9379  1.3925
24174SOL    HW274245   9.018   7.528   3.136 -0.0549  1.6494  0.4154
24175SOL     OW74246   1.972   7.198   8.376 -0.8063 -0.3063 -0.4095
24175SOL    HW174247   2.041   7.263   8.368 -1.0589  0.0817  0.3856
24175SOL    HW274248   2.014   7.115   8.357 -0.0807 -0.0943  0.2479
24176SOL     OW74249   3.342   0.642   0.102 -0.6461  0.8831  0.1960
24176SOL    HW174250   3.397   0.710   0.141  0.4999  0.4238 -0.5742
24176SOL    HW274251   3.316   0.677   0.017 -0.0722  0.3875 -0.1929
24177SOL     OW74252   4.927   9.346   9.147 -0.7632 -0.1990  0.7323
24177SOL    HW174253   4.863   9.274   9.136 -1.8777  0.8880 -0.2850
24177SOL    HW274254   4.886   9.404   9.211  0.2450 -0.5572  1.7242
24178SOL     OW74255   6.267   9.597   1.777  0.2263 -0.2120  0.0055
24178SOL    HW174256   6.251   9.521   1.720  0.8753 -0.3829  0.0482
24178SOL    HW274257   6.362   9.608   1.776  0.2209 -0.0768  0.8912
24179SOL     OW74258   3.714   0.027   0.344  0.3709 -0.1948 -0.7295
24179SOL    HW174259   3.802   0.032   0.380  0.4374  0.4723 -0.9621
24179SOL    HW274260   3.672  -0.045   0.391  0.8900 -0.2103 -0.2864
24180SOL     OW74261   9.466   3.015   8.219 -0.1426 -0.3236  0.0568
24180SOL    HW174262   9.403   3.087   8.208 -0.2119 -0.3969 -0.0342
24180SOL    HW274263   9.532   3.050   8.279  0.1742  0.0401 -0.4977
24181SOL     OW74264   0.220   3.053   2.198  0.2863 -0.4348 -0.3052
24181SOL    HW174265   0.194   2.979   2.252 -0.8944 -0.1434 -0.4319
24181SOL    HW274266   0.205   3.023   2.108 -1.2662  0.2965 -0.3263
24182SOL     OW74267   7.378   5.785   5.313  0.0844 -0.1934 -0.0005
24182SOL    HW174268   7.318   5.842   5.265 -0.5426 -1.4886 -0.8270
24182SOL    HW274269   7.450   5.842   5.339 -0.6589  1.0279 -0.5217
24183SOL     OW74270   6.079   7.577   1.944  0.1570  0.1252  0.2916
24183SOL    HW174271   6.062   7.523   1.867 -0.2762 -0.6594  0.9263
24183SOL    HW274272   6.174   7.577   1.954  0.2829  0.9899 -0.7710
24184SOL     OW74273   0.708   5.975   8.069 -0.4640 -0.1198 -0.3173
24184SOL    HW174274   0.726   5.982   8.163  0.5918 -0.4462 -0.4898
24184SOL    HW274275   0.742   6.057   8.032 -0.8538 -0.0037 -0.4294
24185SOL     OW74276   9.418   2.373   4.337 -0.6290 -0.1380  0.0024
24185SOL    HW174277   9.340   2.428   4.344 -0.5505  0.1387 -1.1193
24185SOL    HW274278   9.486   2.432   4.304 -0.3036 -0.7033 -0.3476
24186SOL     OW74279   2.597   7.471   2.701  0.4512 -0.8004  0.2686
24186SOL    HW174280   2.614   7.564   2.690  1.5083 -1.0273 -0.2081
24186SOL    HW274281   2.610   7.454   2.794  0.6690 -0.5469  0.2834
24187SOL     OW74282   3.347   0.068   3.750  0.2429 -0.0927  0.4705
24187SOL    HW174283   3.291   0.027   3.816  0.4713 -0.1849  0.6070
24187SOL    HW274284   3.285   0.112   3.691 -0.0599 -1.3243 -0.1539
24188SOL     OW74285   2.711   4.649   5.615 -0.0733 -0.2376 -0.3490
24188SOL    HW174286   2.617   4.661   5.626 -0.1503 -1.5247  0.6535
24188SOL    HW274287   2.724   4.651   5.520 -0.8476  1.5797 -0.4511
24189SOL     OW74288   7.348   3.415   2.264 -0.2214 -0.2692  0.1944
24189SOL    HW174289   7.289   3.391   2.336  1.7310  0.9649  2.3648
24189SOL    HW274290   7.413   3.345   2.263 -0.7477 -0.7697 -1.0771
24190SOL     OW74291   8.926   5.773   5.123 -0.4042  0.0365  0.8927
24190SOL    HW174292   8.979   5.702   5.086  0.3486  0.2566  1.5156
24190SOL    HW274293   8.838   5.757   5.090 -0.0433 -0.6074  0.2094
24191SOL     OW74294   4.352   3.560   8.039  0.0802 -0.0533  0.3868
24191SOL    HW174295   4.294   3.549   8.114  0.4455 -1.1804  0.5290
24191SOL    HW274296   4.438   3.573   8.077  0.5464 -2.2147  0.2166
24192SOL     OW74297   3.432   6.412   0.906 -0.0844 -0.0426  0.3504
24192SOL    HW174298   3.381   6.485   0.941  0.1069  0.6899 -0.8627
24192SOL    HW274299   3.437   6.350   0.979 -1.6218  0.4266  0.9025
24193SOL     OW74300   4.488   3.395   3.013 -0.7656 -0.0253 -0.1966
24193SOL    HW174301   4.475   3.406   2.918  1.4247  1.5084 -0.3800
24193SOL    HW274302   4.514   3.481   3.044 -2.0657 -0.3437  1.9891
24194SOL     OW74303   7.252   9.303   2.622 -0.2728  0.9073  0.3503
24194SOL    HW174304   7.269   9.306   2.717  0.2996  1.3697  0.2378
24194SOL    HW274305   7.156   9.304   2.615 -0.3169  1.9628  0.9000
24195SOL     OW74306   7.736   6.677   7.288  0.0447  0.1411  0.1699
24195SOL    HW174307   7.798   6.749   7.294 -0.7951  0.7987  1.5305
24195SOL    HW274308   7.690   6.691   7.205  0.8264  0.3711 -0.2276
24196SOL     OW74309   2.923   8.684   2.441 -0.3919 -0.0159  0.6210
24196SOL    HW174310   2.964   8.676   2.526  0.4245 -0.0004  0.2348
24196SOL    HW274311   2.982   8.739   2.390 -1.6852  1.3502  0.5441
24197SOL     OW74312   6.179   0.364   0.838  0.1954 -0.8948  0.8009
24197SOL    HW174313   6.164   0.335   0.928 -1.2735 -1.9296  0.2611
24197SOL    HW274314   6.253   0.312   0.808 -0.5786 -2.0059  0.7844
24198SOL     OW74315   0.096   2.822   5.205 -0.2695 -0.2069 -0.1834
24198SOL    HW174316   0.048   2.904   5.219  0.7504 -0.0343  3.4290
24198SOL    HW274317   0.188   2.848   5.200 -0.0565 -1.0174 -0.6487
24199SOL     OW74318   3.444   4.864   0.193 -0.4081 -0.1923  0.0397
24199SOL    HW174319   3.504   4.844   0.121  0.5561 -0.0015  0.7769
24199SOL    HW274320   3.407   4.949   0.169  0.9070  0.5095  0.3811
24200SOL     OW74321   5.774   7.225   1.881 -0.4409  0.1678 -0.0309
24200SOL    HW174322   5.789   7.270   1.964 -0.2329  0.1246 -0.0440
24200SOL    HW274323   5.812   7.138   1.894  1.8345  0.9391 -0.9876
24201SOL     OW74324   1.471   6.166   2.747  0.7394 -0.5439 -0.3889
24201SOL    HW174325   1.517   6.172   2.663 -1.1123 -0.4887 -1.4414
24201SOL    HW274326   1.494   6.247   2.793 -0.0617  0.5550 -1.8469
24202SOL     OW74327   4.457   9.454   9.695 -0.6055  0.0927 -0.2312
24202SOL    HW174328   4.424   9.506   9.768  0.4758 -1.4104  1.4286
24202SOL    HW274329   4.379   9.414   9.656 -1.2591  1.4771 -0.3791
24203SOL     OW74330   2.398   8.585   5.467  0.2548  0.5365 -0.1977
24203SOL    HW174331   2.385   8.532   5.388 -0.4509  1.8647 -1.0078
24203SOL    HW274332   2.488   8.617   5.461 -0.5395  2.6959 -1.8335
24204SOL     OW74333   5.825   7.694   1.056  0.0819 -0.6602  0.7184
24204SOL    HW174334   5.918   7.672   1.057 -0.1125 -1.7627 -1.0895
24204SOL    HW274335   5.785   7.628   0.999 -1.4193  1.1793 -0.5003
24205SOL     OW74336   1.875   9.020   6.830 -1.2309  0.1473  0.3685
24205SOL    HW174337   1.835   9.019   6.743 -0.5249  0.5352  0.0289
24205SOL    HW274338   1.870   9.111   6.858 -0.3838  0.2442  0.2230
24206SOL     OW74339   2.593   0.358   6.416  0.5270  0.1261 -0.2308
24206SOL    HW174340   2.517   0.398   6.374  0.6232  0.9816  0.3774
24206SOL    HW274341   2.646   0.325   6.343  0.2121  0.7059 -0.7351
24207SOL     OW74342   7.450   4.285   5.604  0.3377  0.3326 -0.0184
24207SOL    HW174343   7.429   4.192   5.609 -2.3947  0.8901  0.3477
24207SOL    HW274344   7.401   4.316   5.528 -0.3501  1.8026  0.9817
24208SOL     OW74345   4.833   8.131   5.699 -0.1699 -0.3992  0.2359
24208SOL    HW174346   4.811   8.144   5.791 -2.6882 -2.1337 -0.0278
24208SOL    HW274347   4.929   8.130   5.697  0.0324  2.3725  2.3567
24209SOL     OW74348   4.013   6.768   0.624  0.4855  0.7211 -0.3001
24209SOL    HW174349   3.980   6.753   0.535  1.9407 -0.0042 -0.7676
24209SOL    HW274350   3.948   6.824   0.665 -0.4648  0.6833 -1.6739
24210SOL     OW74351   7.981   5.489   8.134  0.6844  0.5688 -0.9754
24210SOL    HW174352   7.980   5.533   8.049  0.9166  1.5416 -0.4835
24210SOL    HW274353   7.991   5.559   8.198 -1.2872  0.0432 -0.0051
24211SOL     OW74354   2.071   4.891   0.434  0.2717 -0.0108 -0.1940
24211SOL    HW174355   2.000   4.917   0.375  0.4557 -1.3988 -1.0901
24211SOL    HW274356   2.150   4.897   0.379  0.6442  0.0917  0.3500
24212SOL     OW74357   1.931   6.209   0.846  0.9321  0.7523 -0.1230
24212SOL    HW174358   1.892   6.266   0.780 -0.1424 -0.7700 -0.8661
24212SOL    HW274359   1.914   6.121   0.814  0.1241 -0.0583  2.3084
24213SOL     OW74360   6.801   1.390   7.213  0.2455  0.3934  0.4148
24213SOL    HW174361   6.744   1.465   7.193  0.1569 -0.2346 -2.0222
24213SOL    HW274362   6.778   1.365   7.302 -2.6187  0.7849 -0.1192
24214SOL     OW74363   9.533   2.757   0.399 -0.2752  0.5425  0.5652
24214SOL    HW174364   9.440   2.777   0.409 -0.5444  0.4754 -1.3853
24214SOL    HW274365   9.539   2.712   0.314  1.1417 -2.0626  1.8979
24215SOL     OW74366   7.507   8.074   6.474 -0.7488  0.1799 -0.0737
24215SOL    HW174367   7.468   7.990   6.451  1.3838 -0.9474  0.1546
24215SOL    HW274368   7.436   8.123   6.515 -2.7823 -0.4242 -2.5977
24216SOL     OW74369   1.627   2.121   9.288 -0.1643 -0.3735 -0.2205
24216SOL    HW174370   1.708   2.137   9.336 -0.4802 -0.7401  0.4471
24216SOL    HW274371   1.626   2.187   9.219  0.0055  0.5548  0.6465
24217SOL     OW74372   1.607   2.386   3.909 -0.0091  0.3893 -0.2719
24217SOL    HW174373   1.683   2.353   3.862 -0.3586  0.7464 -1.1015
24217SOL    HW274374   1.575   2.310   3.958  0.3014 -0.0183 -0.6845
24218SOL     OW74375   7.188   8.059   5.800  0.2111 -0.1149 -0.0327
24218SOL    HW174376   7.149   7.972   5.788 -2.4374  1.1116 -1.1470
24218SOL    HW274377   7.180   8.076   5.893 -0.5050 -0.5265 -0.0121
24219SOL     OW74378   3.844   1.354   9.088  0.0987  0.3262  0.0604
24219SOL    HW174379   3.902   1.335   9.163 -0.0346 -0.9975 -0.1387
24219SOL    HW274380   3.806   1.439   9.108 -0.8856 -0.5156  2.1502
24220SOL     OW74381   1.497   4.904   5.068 -0.9021  0.0459  0.2813
24220SOL    HW174382   1.540   4.989   5.078  0.4213 -0.6655  0.9144
24220SOL    HW274383   1.404   4.925   5.057 -0.5589  1.5784  0.0744
24221SOL     OW74384   5.315   0.995   9.438  0.4567 -0.1391  0.0533
24221SOL    HW174385   5.313   0.969   9.530  2.4903  1.4065  0.6082
24221SOL    HW274386   5.361   0.924   9.393 -1.0852 -1.1932  0.0704
24222SOL     OW74387   0.735   3.128   9.016  0.0258  0.0889 -0.8744
24222SOL    HW174388   0.666   3.068   9.042 -0.2067  0.2508 -1.1150
24222SOL    HW274389   0.711   3.156   8.927  0.8793 -0.5813 -1.3363
24223SOL     OW74390   1.601   7.335   2.048 -0.3032  0.3654  0.2647
24223SOL    HW174391   1.591   7.427   2.024  1.3895  0.3031 -0.8573
24223SOL    HW274392   1.629   7.336   2.139 -1.7135  0.8645  0.7202
24224SOL     OW74393   1.830   5.619   8.813  0.0280  0.3805  0.1574
24224SOL    HW174394   1.804   5.692   8.870  1.0192  0.4359  0.5635
24224SOL    HW274395   1.751   5.565   8.805 -0.1613  0.4166  1.5238
24225SOL     OW74396   0.639   3.392   6.840 -0.5499 -0.5326  0.1665
24225SOL    HW174397   0.584   3.458   6.880  0.8690  0.3764  0.6938
24225SOL    HW274398   0.675   3.342   6.914  2.5330  1.5110  0.2426
24226SOL     OW74399   9.617   7.485   5.554  0.2792  0.9287  0.0565
24226SOL    HW174400   9.686   7.455   5.495 -0.0625 -0.6764  0.4344
24226SOL    HW274401   9.540   7.495   5.498 -0.0121 -0.4686  0.1782
24227SOL     OW74402   0.582   3.776   6.106 -0.4495  0.3006 -0.3563
24227SOL    HW174403   0.519   3.711   6.075 -0.6721 -0.4829  1.5909
24227SOL    HW274404   0.568   3.852   6.049 -2.9381  0.0553 -0.1895
24228SOL     OW74405   7.830   8.926   2.464 -0.0889  0.6080 -0.4448
24228SOL    HW174406   7.806   8.946   2.374  0.2048  0.4642 -0.5576
24228SOL    HW274407   7.789   8.841   2.482  0.9042  0.0166 -0.8767
24229SOL     OW74408   1.185   1.846   7.875  0.1819  0.2422 -0.3364
24229SOL    HW174409   1.179   1.940   7.886 -0.8429 -0.0124  1.6082
24229SOL    HW274410   1.224   1.835   7.788 -0.7371  2.4251 -1.1001
24230SOL     OW74411   1.793   4.763   9.550 -0.1649 -0.4377  0.0307
24230SOL    HW174412   1.804   4.836   9.489  1.8370 -0.2555  0.5259
24230SOL    HW274413   1.699   4.744   9.548 -0.3167  0.1904 -2.3401
24231SOL     OW74414   2.639   4.472   8.904 -0.3486  0.4428  0.5217
24231SOL    HW174415   2.724   4.445   8.939  0.8955  2.2167 -0.9623
24231SOL    HW274416   2.631   4.425   8.821 -0.3104  1.0916  0.1452
24232SOL     OW74417   3.391   4.584   8.878  0.0109  0.3535 -0.1879
24232SOL    HW174418   3.319   4.631   8.836  1.4649  1.0534 -2.0256
24232SOL    HW274419   3.355   4.556   8.963 -1.4594  3.3501  0.3113
24233SOL     OW74420   0.897   8.783   7.185 -0.5744  0.2474 -0.0722
24233SOL    HW174421   0.986   8.811   7.163 -0.8135  0.3794 -0.9366
24233SOL    HW274422   0.897   8.689   7.163 -0.4708  0.1044  0.5277
24234SOL     OW74423   3.563   0.227   8.141  0.8975 -0.5413 -0.2762
24234SOL    HW174424   3.521   0.299   8.188 -1.5407 -1.7622 -0.4218
24234SOL    HW274425   3.617   0.184   8.207 -0.7773 -0.9381  0.8978
24235SOL     OW74426   8.569   7.688   1.051  0.3974 -0.0907  0.3601
24235SOL    HW174427   8.585   7.777   1.021  1.0891 -0.3306 -0.0091
24235SOL    HW274428   8.572   7.635   0.972 -0.9585 -0.3372  0.4491
24236SOL     OW74429   5.575   7.286   1.464 -0.3302 -0.8096  0.0420
24236SOL    HW174430   5.496   7.239   1.492 -0.3914  0.8222  2.9913
24236SOL    HW274431   5.632   7.217   1.429 -2.0898 -2.4119  0.1573
24237SOL     OW74432   2.406   4.628   2.173  0.0077 -0.4883 -0.3982
24237SOL    HW174433   2.372   4.539   2.171 -0.5802 -0.2612 -1.1202
24237SOL    HW274434   2.459   4.635   2.093  0.3893 -0.3132 -0.1356
24238SOL     OW74435   7.412   1.944   3.164 -0.1948 -0.5133 -0.0936
24238SOL    HW174436   7.432   2.026   3.119  0.3770 -0.0910  0.8967
24238SOL    HW274437   7.445   1.956   3.253 -1.9161 -1.0576  0.6732
24239SOL     OW74438   6.432   4.201   2.590  0.5957  0.7010  0.0438
24239SOL    HW174439   6.401   4.292   2.586  1.3200  0.9635  0.2189
24239SOL    HW274440   6.356   4.152   2.621 -0.0787  1.0993 -0.9203
24240SOL     OW74441   2.096   1.299   0.958  0.4085 -0.0692  0.1331
24240SOL    HW174442   2.130   1.210   0.971 -1.1014 -0.3534  3.0037
24240SOL    HW274443   2.022   1.287   0.898  0.4985 -0.6713  0.1335
24241SOL     OW74444   2.852   2.956   2.616  0.1361  0.3537  0.7834
24241SOL    HW174445   2.906   3.028   2.649  1.7698 -0.1289 -0.7082
24241SOL    HW274446   2.787   2.999   2.560  0.8391  0.7176  0.2359
24242SOL     OW74447   1.626   3.955   2.565 -0.1268  0.1867 -0.1915
24242SOL    HW174448   1.636   3.998   2.481 -0.6842 -0.8526 -0.8205
24242SOL    HW274449   1.682   3.877   2.559  0.5349  0.5757  0.7513
24243SOL     OW74450   0.802   5.548   8.811 -0.9974  0.0432 -0.0200
24243SOL    HW174451   0.862   5.509   8.874 -0.3588 -1.3722 -1.4442
24243SOL    HW274452   0.736   5.480   8.796 -1.6118  0.6775 -0.2671
24244SOL     OW74453   5.770   8.864   7.046 -0.3921 -0.5781 -0.0256
24244SOL    HW174454   5.811   8.846   6.962  0.4354 -0.2550  0.2977
24244SOL    HW274455   5.695   8.920   7.025 -0.3974 -0.7964 -0.5789
24245SOL     OW74456   6.483   4.849   9.299  0.2007  0.0576  0.5185
24245SOL    HW174457   6.509   4.840   9.391 -0.0865 -1.4640  0.4740
24245SOL    HW274458   6.565   4.835   9.251 -0.0245 -1.2372  0.4897
24246SOL     OW74459   8.971   0.455   5.577  0.5207  0.2863 -0.7119
24246SOL    HW174460   8.990   0.386   5.641 -1.8083  1.1026  0.9893
24246SOL    HW274461   8.966   0.409   5.493 -0.1454 -1.5016  0.2597
24247SOL     OW74462   5.699   6.026   4.858 -0.3711 -0.1687 -0.6978
24247SOL    HW174463   5.670   6.000   4.771 -0.0532 -0.7044 -0.6512
24247SOL    HW274464   5.761   5.958   4.884 -1.4793 -0.7769  0.4918
24248SOL     OW74465   5.200   7.199   8.085  0.5251  0.1823  0.1924
24248SOL    HW174466   5.266   7.149   8.038  0.0127 -1.3284  1.0212
24248SOL    HW274467   5.116   7.170   8.049  0.2477  1.7629 -0.5497
24249SOL     OW74468   4.451   1.380   1.199 -0.1533  0.0594  0.0071
24249SOL    HW174469   4.445   1.349   1.289 -1.6543 -0.5573 -0.2798
24249SOL    HW274470   4.476   1.303   1.148 -1.2298 -0.0829 -0.3418
24250SOL     OW74471   0.003   5.554   3.548 -0.0082  0.0848  0.2920
24250SOL    HW174472   0.059   5.545   3.625  0.7036  1.5698 -0.0246
24250SOL    HW274473  -0.061   5.621   3.573  0.2282  0.5748 -0.3870
24251SOL     OW74474   1.048   8.312   5.068  0.8409  0.0117  0.4818
24251SOL    HW174475   1.052   8.362   5.150  0.7749  0.9481 -0.0736
24251SOL    HW274476   0.955   8.303   5.050  0.8606  0.7039 -0.0131
24252SOL     OW74477   2.789   2.189   4.577 -0.8887  0.1526 -0.2405
24252SOL    HW174478   2.870   2.220   4.616 -0.5029  1.6585 -2.0755
24252SOL    HW274479   2.720   2.239   4.622 -0.5178  1.2846 -0.8942
24253SOL     OW74480   6.448   6.891   0.173 -0.1740  0.0071  0.1180
24253SOL    HW174481   6.469   6.806   0.212 -0.1533  0.0972  0.3061
24253SOL    HW274482   6.530   6.919   0.132 -0.6638 -0.9152 -1.5755
24254SOL     OW74483   4.330   0.173   4.510 -0.0647  0.2626 -0.0130
24254SOL    HW174484   4.272   0.211   4.576  0.3826 -0.7608  0.9978
24254SOL    HW274485   4.321   0.230   4.434 -1.0093  1.1516  0.7487
24255SOL     OW74486   2.592   1.448   2.828  0.7807  0.4037  0.5393
24255SOL    HW174487   2.601   1.539   2.799  0.8682  0.2142 -0.0345
24255SOL    HW274488   2.671   1.405   2.794 -0.7967 -0.6413 -2.0708
24256SOL     OW74489   7.993   9.112   1.363  0.6915  0.0921  0.2439
24256SOL    HW174490   7.990   9.036   1.305  0.0430  0.2061  0.1227
24256SOL    HW274491   8.085   9.117   1.391  0.8615 -0.3795 -0.2126
24257SOL     OW74492   5.333   3.915   1.268  1.1838 -0.2983  0.2705
24257SOL    HW174493   5.296   3.843   1.217 -0.1181  0.0303  0.7263
24257SOL    HW274494   5.298   3.903   1.356  0.9900  0.8583  0.3681
24258SOL     OW74495   1.788   5.697   7.489  0.2944 -0.3122  0.3694
24258SOL    HW174496   1.860   5.742   7.533 -0.0319  1.8614 -1.1730
24258SOL    HW274497   1.822   5.676   7.402 -0.4496 -0.6131  0.1423
24259SOL     OW74498   5.926   1.112   2.152 -0.4352  0.2846  0.2455
24259SOL    HW174499   5.965   1.182   2.099  0.7507 -0.2936  0.3035
24259SOL    HW274500   5.961   1.126   2.240 -1.0675  0.2619  0.5049
24260SOL     OW74501   7.238   0.841   3.390  0.0273  0.3863 -0.1191
24260SOL    HW174502   7.164   0.877   3.439  0.9665  2.1664  0.0938
24260SOL    HW274503   7.315   0.860   3.445  0.6837 -1.3177 -0.3811
24261SOL     OW74504   8.875   7.957   0.273  0.2004  0.1673  0.2849
24261SOL    HW174505   8.853   8.007   0.194  2.1899 -0.6547 -0.8835
24261SOL    HW274506   8.816   7.881   0.270  0.3518  0.0725 -0.5027
24262SOL     OW74507   8.776   6.220   3.286 -0.0806 -0.3151  0.1713
24262SOL    HW174508   8.720   6.213   3.208 -0.7508  2.8649  0.1929
24262SOL    HW274509   8.728   6.174   3.355 -1.8428  0.7544 -0.2661
24263SOL     OW74510   5.904   2.935   1.603 -0.3080 -0.4880 -0.2875
24263SOL    HW174511   5.830   2.965   1.655 -0.4560 -0.4857 -0.5005
24263SOL    HW274512   5.978   2.989   1.631 -0.2928 -0.7649  0.2183
24264SOL     OW74513   6.623   8.810   5.152 -0.0746  0.2365 -0.1574
24264SOL    HW174514   6.629   8.906   5.158  1.1509  0.1658  0.0150
24264SOL    HW274515   6.712   8.780   5.168 -0.2426 -0.8962 -1.2320
24265SOL     OW74516   3.733   1.975   4.990  0.4925 -0.1866  0.0788
24265SOL    HW174517   3.781   1.923   5.054 -0.0579 -1.9818 -0.8882
24265SOL    HW274518   3.685   1.911   4.938  1.7491  1.0747 -2.8595
24266SOL     OW74519   5.574   9.113   5.598 -0.6325  0.2230  0.5780
24266SOL    HW174520   5.627   9.170   5.542 -2.2397  1.9614  0.7319
24266SOL    HW274521   5.484   9.134   5.575 -1.3243 -2.6284  0.3391
24267SOL     OW74522   7.764   0.597   7.570 -0.2974  0.0104  0.6187
24267SOL    HW174523   7.823   0.672   7.565  0.5107 -0.6770 -0.7208
24267SOL    HW274524   7.795   0.548   7.646 -1.1932  1.2865  1.8598
24268SOL     OW74525   3.234   3.838   4.217  0.3179 -0.1044  0.2420
24268SOL    HW174526   3.260   3.750   4.245  2.0826  0.4615  0.4755
24268SOL    HW274527   3.192   3.824   4.132 -0.0398 -1.2285  0.5751
24269SOL     OW74528   7.913   8.066   0.829  0.4973  0.1729 -0.2659
24269SOL    HW174529   7.850   8.021   0.772 -0.2509  1.9665 -0.9128
24269SOL    HW274530   7.862   8.090   0.906  0.2216  2.0007 -0.9724
24270SOL     OW74531   3.854   5.861   0.988 -0.0725  0.1393 -0.2337
24270SOL    HW174532   3.768   5.884   0.954  0.2351 -1.2194 -2.1470
24270SOL    HW274533   3.844   5.771   1.019  0.7746 -0.2912 -1.1335
24271SOL     OW74534   9.209   4.692   9.186  0.1655 -0.1777  0.0385
24271SOL    HW174535   9.149   4.734   9.247 -1.2695  0.4594 -1.7425
24271SOL    HW274536   9.212   4.750   9.111  1.4642 -1.2121 -0.7490
24272SOL     OW74537   6.533   2.757   0.870 -0.4392 -0.2666  0.8571
24272SOL    HW174538   6.545   2.760   0.965  1.3026  0.5798  0.6562
24272SOL    HW274539   6.604   2.702   0.839  0.2340  1.0931 -0.0975
24273SOL     OW74540   3.230   0.484   4.599 -0.2820  0.0860 -0.0448
24273SOL    HW174541   3.175   0.412   4.631 -0.0752  0.8142  2.1588
24273SOL    HW274542   3.175   0.562   4.610  0.1677  0.4885 -0.6042
24274SOL     OW74543   5.242   7.435   7.072  0.2243 -0.3210  0.6994
24274SOL    HW174544   5.289   7.497   7.129  0.0163  1.4889 -0.9865
24274SOL    HW274545   5.278   7.451   6.985 -1.0370 -1.4313 -0.0548
24275SOL     OW74546   8.698   7.812   5.216  0.6137 -0.7250  0.2004
24275SOL    HW174547   8.660   7.900   5.215  0.9308 -0.5885 -0.1756
24275SOL    HW274548   8.624   7.753   5.199  0.1848 -0.6241  1.5792
24276SOL     OW74549   3.184   5.230   3.562  1.0188  0.0562  0.0606
24276SOL    HW174550   3.098   5.245   3.599  1.6906  1.7763  1.0198
24276SOL    HW274551   3.174   5.151   3.508 -1.0297  0.0159  0.4478
24277SOL     OW74552   3.707   0.332   4.960  0.5905  0.6808  0.5357
24277SOL    HW174553   3.689   0.297   5.047  1.5901  2.0127  1.3110
24277SOL    HW274554   3.623   0.328   4.915  0.3977 -1.4686  1.0045
24278SOL     OW74555   7.358   5.961   3.570  0.3486  0.4108  0.4254
24278SOL    HW174556   7.399   5.893   3.622 -0.7593 -1.1650 -0.6760
24278SOL    HW274557   7.366   5.930   3.479 -0.6875  1.4545 -0.0545
24279SOL     OW74558   5.728   6.926   5.233 -0.4163  0.0931 -0.4287
24279SOL    HW174559   5.716   6.998   5.295 -1.8396 -2.2473  2.2950
24279SOL    HW274560   5.822   6.911   5.231 -0.3110  0.4827  0.8945
24280SOL     OW74561   9.628   5.564   7.461 -0.0138  0.4322 -0.2055
24280SOL    HW174562   9.602   5.472   7.463  0.1609  0.3758 -0.5283
24280SOL    HW274563   9.694   5.569   7.392  0.3044  0.7162  0.1170
24281SOL     OW74564   7.808   4.685   1.108 -0.3687  0.0065 -0.2546
24281SOL    HW174565   7.785   4.760   1.054 -4.2772 -0.2322  0.7173
24281SOL    HW274566   7.871   4.635   1.056 -0.3742  2.1277 -2.4507
24282SOL     OW74567   2.791   8.559   1.646  0.3237 -0.3641  0.4655
24282SOL    HW174568   2.745   8.593   1.569 -0.2079 -0.1623  0.8710
24282SOL    HW274569   2.884   8.563   1.622  0.1448 -0.6344 -0.3015
24283SOL     OW74570   4.626   2.201   8.571 -0.3162  0.6596  0.9536
24283SOL    HW174571   4.575   2.267   8.618 -2.5465 -0.4068  0.1724
24283SOL    HW274572   4.617   2.122   8.625 -0.4145  0.1808  0.2401
24284SOL     OW74573   5.710   8.892   5.666 -0.0602  0.0530 -0.3902
24284SOL    HW174574   5.655   8.965   5.636 -1.1644 -0.7841 -0.4831
24284SOL    HW274575   5.695   8.888   5.760 -0.0786 -0.1011 -0.3992
24285SOL     OW74576   5.641   2.223   9.508  0.0207  0.1455 -0.0053
24285SOL    HW174577   5.688   2.278   9.571  0.1103 -0.8677  0.8376
24285SOL    HW274578   5.645   2.135   9.545 -0.6082 -0.3408 -1.0476
24286SOL     OW74579   6.718   6.481   3.801 -0.1532 -0.0988 -0.9191
24286SOL    HW174580   6.701   6.505   3.710  0.1036 -0.9925 -1.2050
24286SOL    HW274581   6.692   6.389   3.807  3.3072 -1.2133 -1.0639
24287SOL     OW74582   6.891   0.164   9.280 -0.1249  0.2277 -0.2379
24287SOL    HW174583   6.885   0.259   9.274 -1.4057  0.1570 -0.2690
24287SOL    HW274584   6.845   0.142   9.361  1.1427 -0.2890  0.3713
24288SOL     OW74585   2.709   3.303   5.842  0.2677 -0.1457 -0.2639
24288SOL    HW174586   2.649   3.230   5.825  0.2424 -1.2962  3.8752
24288SOL    HW274587   2.776   3.295   5.773  0.0929 -3.9308 -0.2135
24289SOL     OW74588   3.247   8.323   0.530 -0.1242  0.1125  0.5405
24289SOL    HW174589   3.181   8.316   0.461 -1.5663 -1.7939  1.9858
24289SOL    HW274590   3.204   8.375   0.599 -0.5006 -1.7545  1.7948
24290SOL     OW74591   6.177   8.777   7.931  0.1341  0.1925  0.3597
24290SOL    HW174592   6.212   8.711   7.991  1.2199  0.6120  0.1983
24290SOL    HW274593   6.105   8.733   7.886  0.0819 -0.5029  1.1113
24291SOL     OW74594   5.172   1.206   4.681  0.1631 -0.3424 -0.4733
24291SOL    HW174595   5.176   1.122   4.635 -0.3625  1.3652 -3.8707
24291SOL    HW274596   5.195   1.271   4.616  0.1184  2.2753  1.9317
24292SOL     OW74597   3.253   0.693   1.729 -0.0375 -0.2167 -0.0503
24292SOL    HW174598   3.254   0.625   1.662  0.4185 -0.7194  0.4434
24292SOL    HW274599   3.173   0.742   1.713 -1.1060 -1.7247  0.3951
24293SOL     OW74600   6.016   7.561   6.487  0.5889 -0.3853  0.3105
24293SOL    HW174601   5.949   7.543   6.553  0.9421 -1.6951  0.3459
24293SOL    HW274602   6.068   7.480   6.483  0.4285 -0.4473 -1.7413
24294SOL     OW74603   3.125   7.643   1.892 -0.5277  0.2348 -0.0419
24294SOL    HW174604   3.130   7.610   1.802  1.2420  0.7244 -0.1617
24294SOL    HW274605   3.078   7.575   1.940 -0.5138 -0.5640 -1.1158
24295SOL     OW74606   9.360   2.740   4.258  0.0023  0.1243 -0.2086
24295SOL    HW174607   9.287   2.680   4.239  1.0649 -0.7203 -1.9382
24295SOL    HW274608   9.369   2.791   4.178  0.9439  0.6070  0.1925
24296SOL     OW74609   6.559   4.191   0.331 -0.2021  0.0991 -0.0008
24296SOL    HW174610   6.465   4.207   0.336 -0.0405  0.9724  0.3967
24296SOL    HW274611   6.594   4.270   0.290  0.5964  0.7112  1.7724
24297SOL     OW74612   4.763   7.760   0.733 -0.4534 -0.3998  0.0734
24297SOL    HW174613   4.711   7.739   0.811 -1.4340  1.4690 -0.0038
24297SOL    HW274614   4.835   7.814   0.766  1.1027 -2.3462  0.0724
24298SOL     OW74615   1.909   5.596   6.664 -0.5321  0.1251 -0.2630
24298SOL    HW174616   1.858   5.573   6.742  0.2603  2.4594  1.0669
24298SOL    HW274617   1.958   5.674   6.690  1.1246 -0.0357 -2.5753
24299SOL     OW74618   4.872   5.468   8.805 -0.2586 -0.6648  0.0025
24299SOL    HW174619   4.822   5.544   8.838  0.5388 -0.9578  2.0656
24299SOL    HW274620   4.837   5.452   8.718 -0.2951  2.2312 -0.6144
24300SOL     OW74621   7.547   7.528   0.054  0.1569  0.3314  0.2740
24300SOL    HW174622   7.451   7.522   0.053  0.1419 -0.7227  2.4219
24300SOL    HW274623   7.577   7.444   0.022  0.3489  0.3868  0.3069
24301SOL     OW74624   3.154   7.705   6.525 -0.2630  0.1721 -0.2401
24301SOL    HW174625   3.217   7.752   6.470 -0.1366  1.7152  1.1343
24301SOL    HW274626   3.207   7.639   6.570  0.1649  0.6650 -0.0005
24302SOL     OW74627   6.229   4.981   2.979 -0.1515  0.6196  0.3657
24302SOL    HW174628   6.180   5.063   2.978  1.0163  1.5199  3.5793
24302SOL    HW274629   6.179   4.925   3.040  1.1537  0.4668  1.3391
24303SOL     OW74630   7.510   8.833   5.673 -0.2281 -0.1542 -0.1190
24303SOL    HW174631   7.542   8.819   5.584 -0.7827 -1.7446 -0.0984
24303SOL    HW274632   7.589   8.848   5.725  0.0379  1.8621 -1.0287
24304SOL     OW74633   2.048   9.571   6.312 -0.2971  0.5674  0.1442
24304SOL    HW174634   2.104   9.493   6.312 -0.0817  0.6671  2.1250
24304SOL    HW274635   2.109   9.644   6.312 -0.4044  0.6809  1.3925
24305SOL     OW74636   1.437   7.756   6.454  0.4347 -0.0756  0.0223
24305SOL    HW174637   1.463   7.674   6.496  0.3926 -0.3605 -0.4991
24305SOL    HW274638   1.465   7.824   6.515 -0.2337 -0.5086  0.8214
24306SOL     OW74639   8.811   0.048   4.369  0.2884 -0.2870 -0.1287
24306SOL    HW174640   8.730   0.098   4.376  0.7970  0.5555 -0.0466
24306SOL    HW274641   8.823   0.036   4.275  0.7234  0.7205 -0.2160
24307SOL     OW74642   7.706   7.185   1.957 -0.7064  0.6922  0.1269
24307SOL    HW174643   7.628   7.144   1.920 -0.7822  1.9740 -1.2270
24307SOL    HW274644   7.767   7.192   1.884  1.6328 -2.2631  1.6023
24308SOL     OW74645   5.694   6.320   1.175  0.0252 -0.4972 -0.0665
24308SOL    HW174646   5.662   6.332   1.265  0.8444 -1.5276  0.3905
24308SOL    HW274647   5.631   6.366   1.121 -0.5056  0.1283  1.0407
24309SOL     OW74648   3.753   0.761   6.147 -0.4153  0.0021 -0.2519
24309SOL    HW174649   3.706   0.780   6.066  1.7306 -0.1470 -1.6115
24309SOL    HW274650   3.742   0.667   6.161 -3.1520  0.4509  1.2781
24310SOL     OW74651   9.629   6.158   0.761 -0.1614  0.1343  0.3445
24310SOL    HW174652   9.598   6.247   0.746 -0.9513 -0.1606  0.1902
24310SOL    HW274653   9.566   6.103   0.715  2.0477 -0.3845 -2.3037
24311SOL     OW74654   7.815   2.562   2.014  0.3239  0.0860 -0.0981
24311SOL    HW174655   7.886   2.605   2.061  1.1011  1.2931 -2.2484
24311SOL    HW274656   7.756   2.633   1.990 -0.9298 -0.7339  0.4840
24312SOL     OW74657   2.825   1.377   5.868 -0.4918  0.0705  0.5408
24312SOL    HW174658   2.818   1.303   5.927  0.1519 -0.8922 -0.5535
24312SOL    HW274659   2.778   1.350   5.789  0.0435  0.6795 -0.0092
24313SOL     OW74660   5.641   6.635   6.984  0.1280 -0.0993  0.5881
24313SOL    HW174661   5.715   6.695   6.990  2.2529 -2.5800  0.8656
24313SOL    HW274662   5.627   6.623   6.890  1.8871 -1.5699  0.4525
24314SOL     OW74663   9.654   5.578   1.990  0.2334  0.1755  0.2354
24314SOL    HW174664   9.622   5.492   1.962  1.5822  0.2798 -1.8346
24314SOL    HW274665   9.721   5.559   2.056 -3.1904 -0.0685  4.0557
24315SOL     OW74666   0.734   4.380   8.087 -0.4743 -0.4957  0.2217
24315SOL    HW174667   0.712   4.470   8.065  0.8659 -0.5145 -1.4139
24315SOL    HW274668   0.731   4.377   8.183 -2.5139  0.7169  0.2502
24316SOL     OW74669   3.445   0.593   4.734 -0.4167  0.0178 -0.1469
24316SOL    HW174670   3.391   0.551   4.667  2.3872 -2.3104 -1.1353
24316SOL    HW274671   3.435   0.537   4.811 -0.7442  0.5880  0.2335
24317SOL     OW74672   9.017   4.310   4.971 -0.5000  0.4157 -0.3850
24317SOL    HW174673   9.015   4.330   4.877  0.8255  1.9688 -0.1281
24317SOL    HW274674   8.997   4.217   4.976  0.5407  0.0344 -2.3280
24318SOL     OW74675   0.619   5.769   5.143 -0.4054  0.6491  0.4429
24318SOL    HW174676   0.574   5.851   5.123  1.5026  1.9024  1.0674
24318SOL    HW274677   0.654   5.740   5.059 -2.7493 -0.6589 -0.1712
24319SOL     OW74678   5.610   4.190   5.896 -0.5109 -0.1245 -0.4194
24319SOL    HW174679   5.575   4.273   5.929  0.4343  0.5894 -1.1810
24319SOL    HW274680   5.695   4.212   5.859 -0.2346 -1.4429 -0.6267
24320SOL     OW74681   5.076   4.013   4.978 -0.0565 -0.4774 -0.2666
24320SOL    HW174682   5.059   3.986   4.888 -2.6297 -1.0393  0.3025
24320SOL    HW274683   5.043   4.103   4.983  1.3368  0.0682 -0.1679
24321SOL     OW74684   5.810   7.327   7.165 -0.2627  0.1438  0.2824
24321SOL    HW174685   5.764   7.350   7.085 -0.4457 -0.8509  0.0811
24321SOL    HW274686   5.751   7.266   7.210  1.5804 -2.8483 -0.9786
24322SOL     OW74687   1.570   5.695   3.149 -0.1029 -0.3222  0.2568
24322SOL    HW174688   1.476   5.704   3.134 -0.3156  1.1510  2.0063
24322SOL    HW274689   1.610   5.751   3.083 -0.5762  0.2870  0.4676
24323SOL     OW74690   3.008   2.424   8.426  0.4145 -0.0033  0.5304
24323SOL    HW174691   3.085   2.382   8.388  0.4108 -0.6301  1.1979
24323SOL    HW274692   3.023   2.421   8.521 -0.0802  0.5470  0.6318
24324SOL     OW74693   2.798   0.277   4.012 -0.1097 -0.4725  0.1531
24324SOL    HW174694   2.879   0.226   4.020  0.2100  0.0304  0.1352
24324SOL    HW274695   2.776   0.274   3.919  0.9748  1.0368 -0.1878
24325SOL     OW74696   0.989   2.233   7.946  0.2223  0.4888 -0.5267
24325SOL    HW174697   0.965   2.309   7.894  2.4338  0.1240 -2.2284
24325SOL    HW274698   1.050   2.267   8.012  1.2002  0.2346 -1.2791
24326SOL     OW74699   1.033   6.975   8.540  0.0857 -0.2965  0.4125
24326SOL    HW174700   0.973   7.049   8.551 -0.5476 -0.8018  0.4490
24326SOL    HW274701   1.117   7.006   8.575 -0.8301 -0.4771  2.9922
24327SOL     OW74702   9.267   9.607   8.876  0.2180  0.1115  0.4531
24327SOL    HW174703   9.254   9.586   8.783 -0.9718 -1.1656  0.8709
24327SOL    HW274704   9.226   9.693   8.886  0.0209  0.0953 -0.1369
24328SOL     OW74705   2.567   8.663   5.920 -0.1303 -0.6444 -0.0996
24328SOL    HW174706   2.641   8.704   5.875  0.5914 -0.5539  1.1257
24328SOL    HW274707   2.494   8.724   5.906  0.7272  0.7199  1.0058
24329SOL     OW74708   2.313   4.472   2.498  0.4521 -0.4261  0.4684
24329SOL    HW174709   2.398   4.464   2.541  0.9418 -0.1353 -0.4072
24329SOL    HW274710   2.286   4.562   2.512  0.8248 -0.2044 -0.1958
24330SOL     OW74711   2.616   8.126   9.623 -0.2815 -0.0192  0.0792
24330SOL    HW174712   2.559   8.202   9.611 -0.1189  0.2435  0.9113
24330SOL    HW274713   2.571   8.072   9.688 -1.4124 -1.6848 -1.9542
24331SOL     OW74714   3.762   6.404   9.646  0.3618  0.0756  0.6435
24331SOL    HW174715   3.723   6.467   9.585  2.8912  1.1062 -0.0539
24331SOL    HW274716   3.690   6.345   9.669 -1.4983  1.6952 -0.6690
24332SOL     OW74717   6.417   9.278   8.387 -0.2168  0.1560 -0.5047
24332SOL    HW174718   6.419   9.334   8.310 -1.2411  0.1899 -0.5172
24332SOL    HW274719   6.397   9.337   8.460  1.0444  0.1742 -0.1568
24333SOL     OW74720   0.867   0.745   7.803  0.5316 -0.4859  0.0866
24333SOL    HW174721   0.815   0.688   7.747 -1.1027 -0.7138  1.7160
24333SOL    HW274722   0.848   0.834   7.773 -0.6856 -0.5809  0.5415
24334SOL     OW74723   3.400   0.213   4.453  0.2349  0.0002  0.3403
24334SOL    HW174724   3.458   0.161   4.397 -1.0860  0.9051 -2.0061
24334SOL    HW274725   3.428   0.303   4.439 -0.8993  0.3371  0.1839
24335SOL     OW74726   9.228   1.324   6.507 -0.1132 -0.2662  0.7919
24335SOL    HW174727   9.135   1.318   6.487  0.2806  0.6755 -1.5975
24335SOL    HW274728   9.265   1.240   6.480 -0.1996 -0.5046  1.4021
24336SOL     OW74729   4.877   6.860   8.953 -0.5395  0.2735  0.1008
24336SOL    HW174730   4.851   6.943   8.912 -1.3277 -0.5098 -1.0613
24336SOL    HW274731   4.845   6.867   9.043 -2.4032  0.4607 -0.5280
24337SOL     OW74732   0.844   1.491   7.572  0.3936  0.9243 -0.4634
24337SOL    HW174733   0.872   1.576   7.607 -1.0232  0.6401  1.4793
24337SOL    HW274734   0.914   1.431   7.597  1.3761  1.4609 -1.7937
24338SOL     OW74735   1.151   4.048   7.647 -0.7921  0.4545 -0.1144
24338SOL    HW174736   1.196   3.984   7.701  0.3202 -0.8678 -2.4314
24338SOL    HW274737   1.122   3.999   7.570  0.8692  2.8037 -2.4312
24339SOL     OW74738   7.742   4.146   4.661  0.2507  0.3194 -0.1124
24339SOL    HW174739   7.825   4.191   4.645 -0.0347  0.6952 -0.5519
24339SOL    HW274740   7.689   4.209   4.709 -0.4768  0.8239 -1.4981
24340SOL     OW74741   2.415   3.991   0.015  0.0656  0.0086 -0.4182
24340SOL    HW174742   2.449   3.958  -0.068  0.7647  1.5194 -0.7566
24340SOL    HW274743   2.435   4.085   0.014 -1.2365  0.3380  0.8068
24341SOL     OW74744   8.964   5.577   8.187 -0.6464  0.6113  0.6359
24341SOL    HW174745   8.884   5.525   8.191 -0.7293  0.7256  0.4947
24341SOL    HW274746   9.034   5.513   8.177 -0.8416  0.5705 -0.6361
24342SOL     OW74747   2.848   3.629   0.704 -0.6636 -0.1190  0.2872
24342SOL    HW174748   2.836   3.652   0.796  0.1320  0.4611  0.2651
24342SOL    HW274749   2.912   3.558   0.705 -0.0341  0.4268  0.1611
24343SOL     OW74750   3.419   6.860   9.499 -0.0956 -0.1587  0.2876
24343SOL    HW174751   3.372   6.795   9.551  2.1900 -0.2114  2.4539
24343SOL    HW274752   3.407   6.942   9.546  0.6355  0.1257 -0.0144
24344SOL     OW74753   6.671   8.400   4.503 -0.3561 -0.1968 -0.1102
24344SOL    HW174754   6.755   8.445   4.509 -0.4664  0.0502 -0.4485
24344SOL    HW274755   6.624   8.424   4.583 -0.7556  0.9707 -0.6837
24345SOL     OW74756   6.540   1.975   3.271 -0.0374  0.0770 -0.9976
24345SOL    HW174757   6.476   1.986   3.201  0.4327  0.5491 -1.3651
24345SOL    HW274758   6.567   2.064   3.293 -1.0959  0.0180  0.6600
24346SOL     OW74759   4.595   7.812   1.252  0.7588 -0.1670  0.3219
24346SOL    HW174760   4.620   7.736   1.198  0.0250  0.7878 -1.4655
24346SOL    HW274761   4.509   7.789   1.286  0.0356  0.2816 -1.1377
24347SOL     OW74762   8.151   2.636   6.314 -0.1439 -0.1575  0.0654
24347SOL    HW174763   8.242   2.663   6.323 -0.2695 -0.0760  1.1840
24347SOL    HW274764   8.155   2.540   6.314 -0.0662 -0.1546  0.1708
24348SOL     OW74765   9.147   6.895   6.322  0.2144  0.1967  0.1107
24348SOL    HW174766   9.153   6.989   6.342  0.6903  0.5334 -1.4270
24348SOL    HW274767   9.101   6.892   6.238  0.9690 -0.8910 -0.2798
24349SOL     OW74768   6.525   2.989   3.715  1.0368  0.2897  0.3254
24349SOL    HW174769   6.469   3.065   3.734  2.1060  1.2732 -0.3081
24349SOL    HW274770   6.595   3.025   3.661  0.1448 -1.6438 -2.3232
24350SOL     OW74771   1.688   4.418   8.475 -0.0197 -0.4818 -0.2848
24350SOL    HW174772   1.679   4.384   8.564  1.3295 -1.8120 -0.6154
24350SOL    HW274773   1.781   4.406   8.454  0.1044  1.6827 -1.1607
24351SOL     OW74774   7.563   9.550   2.752  0.7547  0.5700  0.0752
24351SOL    HW174775   7.656   9.528   2.749  0.5259 -0.4113 -0.0095
24351SOL    HW274776   7.524   9.499   2.682  0.5527  3.1327 -1.8291
24352SOL     OW74777   6.539   3.711   8.603 -0.1443 -0.6744 -0.1114
24352SOL    HW174778   6.507   3.711   8.693 -2.0454  0.9855 -0.7299
24352SOL    HW274779   6.462   3.729   8.550  1.1870 -0.2275 -1.9850
24353SOL     OW74780   0.402   0.479   0.174  0.1999  0.7063  0.0027
24353SOL    HW174781   0.406   0.563   0.128 -0.2612  0.1962 -1.0002
24353SOL    HW274782   0.467   0.425   0.129 -0.3664  0.1472 -0.1385
24354SOL     OW74783   3.770   1.277   1.174 -0.0537 -0.1230  0.4201
24354SOL    HW174784   3.847   1.262   1.229 -1.5415  1.1352  2.9734
24354SOL    HW274785   3.731   1.191   1.163 -0.5535 -0.2277  2.6702
24355SOL     OW74786   4.109   1.904   7.471 -0.0875  0.7068 -0.4863
24355SOL    HW174787   4.036   1.958   7.502 -1.3320 -1.6666  0.9827
24355SOL    HW274788   4.185   1.940   7.517 -0.8583  1.2935  0.3731
24356SOL     OW74789   5.088   3.187   7.048  0.3073  0.0148  0.5951
24356SOL    HW174790   5.139   3.149   6.976  1.5886  2.3623  0.1627
24356SOL    HW274791   4.998   3.186   7.016  1.0526  3.0333 -2.2019
24357SOL     OW74792   7.316   9.424   6.191 -0.1271  0.5138  0.4444
24357SOL    HW174793   7.237   9.421   6.246 -0.1007  3.0529  0.7434
24357SOL    HW274794   7.364   9.501   6.223  1.8952 -0.2806 -0.5288
24358SOL     OW74795   5.878   1.428   5.254 -0.0487  0.3776  0.0165
24358SOL    HW174796   5.818   1.474   5.313 -0.8943 -2.0497  1.1711
24358SOL    HW274797   5.963   1.436   5.296 -0.5783 -0.9948  1.4252
24359SOL     OW74798   6.381   6.902   4.739 -0.3309 -0.0386  0.1891
24359SOL    HW174799   6.327   6.962   4.688 -0.9017 -0.4093  0.3428
24359SOL    HW274800   6.384   6.822   4.687  1.2054  0.4040 -0.4647
24360SOL     OW74801   1.931   0.513   9.032  0.0477  0.2523  0.1137
24360SOL    HW174802   1.993   0.457   9.079  0.2138  1.1669  1.0326
24360SOL    HW274803   1.958   0.507   8.941  0.7049 -0.3507  0.3376
24361SOL     OW74804   5.373   9.510   7.755  0.5848 -0.2119 -0.4063
24361SOL    HW174805   5.308   9.580   7.759  0.0777 -0.7354  0.9935
24361SOL    HW274806   5.382   9.492   7.661 -0.7843  0.3268 -0.6720
24362SOL     OW74807   1.881   8.362   5.811 -0.3715 -0.4853  0.8598
24362SOL    HW174808   1.825   8.380   5.887 -0.1300 -0.5728  1.0587
24362SOL    HW274809   1.897   8.448   5.772 -0.6248 -0.4567  0.8141
24363SOL     OW74810   2.484   4.867   6.267  0.1986  0.6974  0.2376
24363SOL    HW174811   2.498   4.903   6.354  1.0103  0.5678  0.1612
24363SOL    HW274812   2.512   4.937   6.207  1.2381  0.1744  0.0896
24364SOL     OW74813   0.464   2.113   5.029  0.2227 -0.2915  0.3611
24364SOL    HW174814   0.420   2.033   4.999 -0.1901 -0.1353  0.5438
24364SOL    HW274815   0.544   2.117   4.977 -0.2388 -0.2935 -0.3606
24365SOL     OW74816   5.480   7.813   0.691  0.4669  0.1721  0.5929
24365SOL    HW174817   5.480   7.794   0.597  1.9648  0.4642  0.5095
24365SOL    HW274818   5.494   7.727   0.732  1.1437  0.2235  0.4815
24366SOL     OW74819   0.436   2.052   4.180 -0.0911  1.1225  0.2311
24366SOL    HW174820   0.475   2.025   4.097 -1.1908 -0.3032  0.1400
24366SOL    HW274821   0.510   2.079   4.233  0.9713 -0.6585 -0.2421
24367SOL     OW74822   5.626   6.330   5.230  0.3860 -0.1374 -0.2353
24367SOL    HW174823   5.654   6.288   5.312  3.8637 -1.0221 -1.7190
24367SOL    HW274824   5.614   6.257   5.169 -0.6263  0.6127 -0.9583
24368SOL     OW74825   6.034   6.940   2.229 -0.3978  0.4174  0.0342
24368SOL    HW174826   5.973   6.961   2.300 -1.8120  1.7972 -1.4886
24368SOL    HW274827   5.995   6.865   2.185 -0.4384  0.6489 -0.3235
24369SOL     OW74828   1.571   3.043   5.082  0.1777 -0.3628  0.0198
24369SOL    HW174829   1.597   3.086   5.001 -1.3708  0.8448  0.1095
24369SOL    HW274830   1.565   2.950   5.060  1.5734 -0.2979 -0.7319
24370SOL     OW74831   0.037   3.914   5.900  0.7314  0.2451 -0.0257
24370SOL    HW174832  -0.038   3.864   5.932  0.7472  0.6202  0.6219
24370SOL    HW274833   0.105   3.849   5.884  1.1158  0.1291  1.8337
24371SOL     OW74834   8.802   0.925   9.499 -0.2788 -0.3297  0.1499
24371SOL    HW174835   8.763   0.984   9.435 -0.9697 -0.8266  0.0911
24371SOL    HW274836   8.770   0.838   9.474 -0.1463 -0.5938  0.8648
24372SOL     OW74837   3.864   5.560   1.662  0.3983 -0.6623 -0.2470
24372SOL    HW174838   3.954   5.572   1.632  0.8790 -2.3203  0.4314
24372SOL    HW274839   3.860   5.607   1.745 -0.0067  1.1888 -1.2597
24373SOL     OW74840   7.034   2.367   8.213 -0.1623  0.3095 -0.1666
24373SOL    HW174841   7.072   2.281   8.226  0.7221  0.8676  1.2398
24373SOL    HW274842   7.087   2.425   8.268 -0.9854  1.6815 -0.7572
24374SOL     OW74843   6.129   5.614   8.196 -0.2925 -0.1365 -0.2931
24374SOL    HW174844   6.111   5.651   8.283 -0.1441  0.2656 -0.4340
24374SOL    HW274845   6.130   5.519   8.210  1.1369 -0.0287  0.4112
24375SOL     OW74846   4.785   5.938   1.993  0.0227  0.1130  0.6532
24375SOL    HW174847   4.803   5.847   2.017  2.1757  0.8573  2.1814
24375SOL    HW274848   4.729   5.931   1.916  1.4745 -2.5485 -0.3240
24376SOL     OW74849   9.632   8.966   5.742 -0.1382  0.5800 -0.2417
24376SOL    HW174850   9.697   8.974   5.812 -0.4954  2.4830 -0.0758
24376SOL    HW274851   9.682   8.980   5.662 -0.1638  1.0494 -0.1791
24377SOL     OW74852   3.354   6.283   7.190 -0.2082 -0.1897  0.1218
24377SOL    HW174853   3.394   6.211   7.239 -1.5222 -0.7579  0.4077
24377SOL    HW274854   3.421   6.310   7.127 -0.2147 -2.7366 -1.0969
24378SOL     OW74855   9.168   1.304   3.583 -0.2338  0.3050  0.5020
24378SOL    HW174856   9.097   1.303   3.648  1.0166  0.4283  1.9122
24378SOL    HW274857   9.216   1.223   3.598 -0.2552  0.0652 -0.6684
24379SOL     OW74858   8.277   5.180   5.411 -0.3249  0.1475 -0.3630
24379SOL    HW174859   8.256   5.106   5.468  0.2539 -0.7301 -1.2552
24379SOL    HW274860   8.210   5.246   5.430 -0.4665 -0.3458  0.9113
24380SOL     OW74861   5.956   5.041   3.254  0.4057  0.2338  0.1665
24380SOL    HW174862   5.906   5.026   3.334 -0.8761  0.3805 -0.5748
24380SOL    HW274863   5.893   5.082   3.194  0.9767 -0.9549 -1.3183
24381SOL     OW74864   7.189   9.176   1.445  0.2773 -0.4592 -0.3960
24381SOL    HW174865   7.113   9.145   1.495 -0.1178 -0.1575 -0.8079
24381SOL    HW274866   7.261   9.174   1.508  0.2178 -1.9994 -0.3529
24382SOL     OW74867   8.584   5.840   5.546 -0.1214 -0.4687 -0.8154
24382SOL    HW174868   8.569   5.746   5.538 -0.4132 -0.2798 -3.4725
24382SOL    HW274869   8.497   5.879   5.540  0.1102  0.0094 -1.1409
24383SOL     OW74870   3.165   4.479   4.493  0.0852 -0.5269  0.0006
24383SOL    HW174871   3.115   4.530   4.556 -1.2288 -0.5139 -1.0124
24383SOL    HW274872   3.144   4.388   4.513 -0.1458 -0.5334 -0.2780
24384SOL     OW74873   5.563   5.968   3.614 -0.2427  0.6435 -0.4711
24384SOL    HW174874   5.594   6.045   3.565 -1.9221  0.9472 -1.1273
24384SOL    HW274875   5.581   5.894   3.556  0.7329  0.6000 -0.1363
24385SOL     OW74876   5.340   5.147   6.937 -0.0932  0.2283  0.1388
24385SOL    HW174877   5.331   5.052   6.927 -1.4604  0.2706  0.6394
24385SOL    HW274878   5.252   5.176   6.963  0.6966  1.4103  1.6668
24386SOL     OW74879   4.530   6.309   8.501 -0.2614  0.0359  0.0887
24386SOL    HW174880   4.469   6.332   8.431  0.1366  1.0266  0.0417
24386SOL    HW274881   4.531   6.386   8.558  2.4078  0.9018 -0.9681
24387SOL     OW74882   7.306   4.324   9.202  0.1197 -0.4259 -0.0732
24387SOL    HW174883   7.366   4.333   9.128  2.1589 -0.6459  1.4830
24387SOL    HW274884   7.306   4.231   9.223 -0.0773 -0.2976  0.5101
24388SOL     OW74885   8.321   3.487   8.280 -0.0019  0.7464  0.0220
24388SOL    HW174886   8.338   3.553   8.213  1.3603  0.1747 -0.2243
24388SOL    HW274887   8.344   3.530   8.363 -0.2364  0.9531 -0.0183
24389SOL     OW74888   7.142   3.394   6.191 -0.8103 -0.2434 -0.1298
24389SOL    HW174889   7.131   3.485   6.219 -0.7809 -0.7741  1.6668
24389SOL    HW274890   7.114   3.342   6.266  2.1493 -1.7195  0.0574
24390SOL     OW74891   0.905   2.788   2.778  0.4770 -0.2989 -0.6028
24390SOL    HW174892   0.820   2.750   2.798  0.6628  0.2932  1.5686
24390SOL    HW274893   0.886   2.880   2.757  0.6212  0.0607  0.7475
24391SOL     OW74894   5.205   4.639   0.820 -0.0562 -0.0552 -0.0653
24391SOL    HW174895   5.298   4.664   0.825 -0.2148  0.3667  1.3685
24391SOL    HW274896   5.181   4.620   0.911 -1.5820  0.6464 -0.2891
24392SOL     OW74897   5.736   1.485   9.630 -0.3239 -0.2765  0.3919
24392SOL    HW174898   5.781   1.410   9.668 -2.8197 -0.5980  3.1104
24392SOL    HW274899   5.789   1.561   9.655  0.6327 -0.8815  0.2406
24393SOL     OW74900   7.085   7.270   6.337  0.2195 -0.1951  0.6210
24393SOL    HW174901   7.171   7.293   6.373 -0.5540  2.3830  1.0091
24393SOL    HW274902   7.099   7.186   6.294  3.1748  0.5313 -0.0701
24394SOL     OW74903   2.580   1.358   3.536  0.0395 -0.1717 -0.0605
24394SOL    HW174904   2.620   1.421   3.595 -0.5259  0.5772 -0.4561
24394SOL    HW274905   2.597   1.393   3.448 -2.2213  0.6986 -0.2421
24395SOL     OW74906   8.591   0.835   9.102 -0.2750 -0.0873  0.1727
24395SOL    HW174907   8.667   0.788   9.068  0.3402  1.4186 -0.6046
24395SOL    HW274908   8.534   0.766   9.137  1.2162 -1.2785  0.3369
24396SOL     OW74909   1.225   4.354   4.751  0.0598  0.3216 -0.3702
24396SOL    HW174910   1.160   4.289   4.727 -2.1358  2.5684 -1.0098
24396SOL    HW274911   1.197   4.386   4.837 -0.2485  1.9220 -1.0321
24397SOL     OW74912   3.816   1.828   5.219  0.5377 -0.2392  0.6277
24397SOL    HW174913   3.878   1.855   5.288  1.7787 -1.2584 -0.0386
24397SOL    HW274914   3.730   1.848   5.255  1.2059  0.2537  2.0375
24398SOL     OW74915   5.885   5.374   0.525 -0.2575 -0.0142 -0.4433
24398SOL    HW174916   5.936   5.298   0.555 -1.1920 -2.0377 -3.5013
24398SOL    HW274917   5.949   5.432   0.485  0.1267 -0.5539 -0.6170
24399SOL     OW74918   6.378   5.444   8.753 -0.1399 -0.2327 -0.2948
24399SOL    HW174919   6.351   5.421   8.842  1.0747  1.6417  0.6129
24399SOL    HW274920   6.341   5.531   8.738 -0.2610 -0.4846 -1.6215
24400SOL     OW74921   2.008   3.587   4.655  0.1282  0.5707  0.4994
24400SOL    HW174922   1.977   3.528   4.587 -0.3401  0.2309  0.9989
24400SOL    HW274923   1.971   3.673   4.632  0.2513  0.5280  0.1441
24401SOL     OW74924   0.607   0.824   6.329  0.4574 -0.0542  0.4476
24401SOL    HW174925   0.685   0.839   6.275  0.4951  1.0039  0.7674
24401SOL    HW274926   0.619   0.736   6.365  0.4861 -0.7369 -1.1491
24402SOL     OW74927   2.084   0.855   4.187  0.2530 -0.5169  0.3015
24402SOL    HW174928   2.002   0.856   4.139 -0.8805 -1.1360  2.1400
24402SOL    HW274929   2.107   0.948   4.197 -0.3754 -0.3280  0.0267
24403SOL     OW74930   6.912   2.229   9.412 -0.0615 -0.2405  0.3467
24403SOL    HW174931   6.826   2.266   9.429 -0.7303 -2.6177  2.9678
24403SOL    HW274932   6.909   2.201   9.320 -1.8983  0.1226  0.2721
24404SOL     OW74933   3.338   7.027   8.536 -0.1671 -0.0031 -0.3010
24404SOL    HW174934   3.307   7.050   8.624  0.2118  1.4868 -0.5428
24404SOL    HW274935   3.317   6.934   8.528 -2.4874  0.3917  0.4116
24405SOL     OW74936   8.348   9.212   6.767 -0.6396 -0.1736 -0.0698
24405SOL    HW174937   8.305   9.149   6.824  0.2103  0.3948  1.2359
24405SOL    HW274938   8.440   9.186   6.767 -0.7323 -0.6451 -1.8503
24406SOL     OW74939   3.163   8.852   8.942  0.2462 -0.0820  0.4606
24406SOL    HW174940   3.102   8.890   8.878  0.4205 -1.2736 -0.4517
24406SOL    HW274941   3.132   8.884   9.026 -1.2158 -0.0739 -0.0403
24407SOL     OW74942   4.359   7.932   0.996  0.2718  0.0152 -0.3551
24407SOL    HW174943   4.299   7.894   1.060  0.5095 -0.4386 -0.3998
24407SOL    HW274944   4.304   7.950   0.920  0.1368 -0.1368 -0.2940
24408SOL     OW74945   5.335   6.994   7.059  0.0623  0.3519 -0.0943
24408SOL    HW174946   5.313   7.058   7.127  0.9991  1.1315 -0.5066
24408SOL    HW274947   5.427   7.012   7.038  0.0077 -0.3955 -1.0165
24409SOL     OW74948   7.676   1.706   7.853 -0.5601 -0.3408  0.1616
24409SOL    HW174949   7.672   1.768   7.779  0.9591 -0.9971 -0.5158
24409SOL    HW274950   7.585   1.696   7.881 -1.1230  0.2584 -1.3435
24410SOL     OW74951   8.606   3.025   5.331  0.1039  0.3737  0.3572
24410SOL    HW174952   8.554   3.105   5.320  1.6354  1.1893 -1.4542
24410SOL    HW274953   8.692   3.056   5.359  0.5111 -0.6856  0.3112
24411SOL     OW74954   1.147   3.227   5.410  0.0643  0.1206 -0.3772
24411SOL    HW174955   1.188   3.171   5.344 -2.1790 -1.2875 -0.6716
24411SOL    HW274956   1.195   3.208   5.491  0.9541 -0.3228 -0.9928
24412SOL     OW74957   5.918   8.334   7.704  0.0430  0.7217 -0.2265
24412SOL    HW174958   5.959   8.247   7.704  0.9886  1.1687 -0.4388
24412SOL    HW274959   5.826   8.316   7.682 -0.9148 -0.7588  3.8798
24413SOL     OW74960   9.252   1.310   7.304 -0.1426  0.3222  0.3787
24413SOL    HW174961   9.213   1.397   7.309 -1.8519 -0.4632  1.3017
24413SOL    HW274962   9.218   1.272   7.223  0.4157  0.4015  0.0977
24414SOL     OW74963   5.760   3.908   3.600  0.1341  0.0138 -0.0014
24414SOL    HW174964   5.715   3.908   3.684  1.1422  1.3794  0.5827
24414SOL    HW274965   5.697   3.945   3.539 -0.4152 -0.4873  0.2487
24415SOL     OW74966   2.408   7.510   1.678  0.3038 -0.1831  0.2928
24415SOL    HW174967   2.359   7.449   1.622  1.1302  0.2343 -0.9176
24415SOL    HW274968   2.480   7.541   1.623  0.5682  1.0091  1.2708
24416SOL     OW74969   2.143   5.542   1.551 -0.1552  0.5237 -0.1957
24416SOL    HW174970   2.206   5.486   1.505  0.4886  0.6985  0.4336
24416SOL    HW274971   2.058   5.514   1.520  0.1831 -0.4587 -0.2827
24417SOL     OW74972   5.982   8.962   5.581  0.0490 -0.1532  0.1344
24417SOL    HW174973   6.004   9.016   5.505  1.4461 -1.4553 -0.4453
24417SOL    HW274974   5.916   9.012   5.628  0.1934  1.3444 -1.1785
24418SOL     OW74975   7.704   0.553   5.925 -0.4119 -0.0722  0.4425
24418SOL    HW174976   7.681   0.618   5.991 -0.1697 -0.7831  1.2556
24418SOL    HW274977   7.786   0.583   5.888 -0.6877  0.4727  0.2671
24419SOL     OW74978   6.535   6.707   1.223 -0.4177 -0.5415 -0.0920
24419SOL    HW174979   6.484   6.635   1.186 -0.0002 -0.7025 -0.3647
24419SOL    HW274980   6.625   6.673   1.226 -0.0249  0.3395 -1.2396
24420SOL     OW74981   1.783   1.914   5.134  0.1295 -0.6673  0.1382
24420SOL    HW174982   1.690   1.927   5.151 -0.2658  0.1461 -2.2904
24420SOL    HW274983   1.810   1.991   5.085  1.8277 -1.3994 -0.1510
24421SOL     OW74984   9.607   1.704   3.159  0.0885  0.3694 -0.3554
24421SOL    HW174985   9.595   1.650   3.081 -0.2751  0.7515 -0.5670
24421SOL    HW274986   9.546   1.669   3.223  0.9718 -0.4786  0.0529
24422SOL     OW74987   7.025   0.836   6.433  0.1063  0.2727 -0.2466
24422SOL    HW174988   6.994   0.891   6.361 -2.0880 -1.2946 -0.5982
24422SOL    HW274989   6.997   0.882   6.512  0.3233  0.7815 -0.4640
24423SOL     OW74990   2.395   1.175   3.661  0.0494 -0.2998 -0.1749
24423SOL    HW174991   2.469   1.139   3.709  0.6175  0.5205 -0.4142
24423SOL    HW274992   2.431   1.251   3.615 -0.6136 -0.6904 -1.3979
24424SOL     OW74993   4.554   3.291   8.848 -1.0289  0.2206  0.2485
24424SOL    HW174994   4.615   3.341   8.902 -0.5490 -1.0362  0.9135
24424SOL    HW274995   4.487   3.354   8.822 -2.4983  0.5063  4.1070
24425SOL     OW74996   6.903   4.895   3.547  0.6084 -0.4041 -0.5145
24425SOL    HW174997   6.990   4.883   3.585  0.8231 -2.0333 -1.4483
24425SOL    HW274998   6.899   4.989   3.528  1.3190  0.0816  1.4649
24426SOL     OW74999   0.877   9.454   7.739 -0.4983  0.1146  0.3584
24426SOL    HW175000   0.916   9.370   7.716 -0.1841  0.5084 -0.5817
24426SOL    HW275001   0.951   9.513   7.750 -0.7546  0.4832  0.1286
24427SOL     OW75002   1.096   2.201   4.414  0.3096 -0.2362  0.1526
24427SOL    HW175003   1.155   2.177   4.342  1.0801  1.2575  0.2515
24427SOL    HW275004   1.129   2.150   4.489  1.4036  0.4375  0.1602
24428SOL     OW75005   5.381   5.865   4.354  0.5454  0.4803  0.1374
24428SOL    HW175006   5.297   5.862   4.401  0.6219  1.8173  0.3896
24428SOL    HW275007   5.420   5.779   4.369 -0.3261  0.1985  0.8620
24429SOL     OW75008   3.128   3.730   0.466  0.5529 -0.0120  0.6460
24429SOL    HW175009   3.221   3.715   0.450  0.6692  2.0855 -0.9883
24429SOL    HW275010   3.125   3.763   0.556  1.4290  0.3845  0.5410
24430SOL     OW75011   4.032   3.742   8.907 -0.9421 -0.4556 -0.4635
24430SOL    HW175012   4.021   3.647   8.908 -0.7920 -0.5330 -2.2716
24430SOL    HW275013   3.974   3.772   8.836 -0.6339  0.7428 -0.2276
24431SOL     OW75014   3.130   5.480   5.084  0.3562  0.0453 -0.4050
24431SOL    HW175015   3.087   5.507   5.003 -0.3902 -1.0715 -0.4166
24431SOL    HW275016   3.207   5.536   5.091 -0.0538  0.7636 -1.4178
24432SOL     OW75017   7.007   8.895   2.826  0.2825 -0.5772  0.1244
24432SOL    HW175018   7.035   8.804   2.821 -1.6081 -1.1303 -2.4613
24432SOL    HW275019   7.027   8.931   2.740 -1.1408  0.7511  0.2976
24433SOL     OW75020   0.896   0.082   3.617 -0.1705 -0.5116 -0.6474
24433SOL    HW175021   0.991   0.077   3.610  0.2046  0.7266  2.1204
24433SOL    HW275022   0.869   0.144   3.549  0.9547 -1.0438 -1.5958
24434SOL     OW75023   9.178   6.805   2.720  0.3112 -0.4749 -0.0941
24434SOL    HW175024   9.120   6.731   2.738  0.0641 -0.1817  0.3354
24434SOL    HW275025   9.121   6.871   2.681  0.5394 -0.5254 -0.5150
24435SOL     OW75026   1.471   3.008   2.422  0.1729 -0.5745  0.1551
24435SOL    HW175027   1.554   2.960   2.426  0.7947  0.5522  2.9698
24435SOL    HW275028   1.411   2.956   2.475  0.0744  0.3474  0.9657
24436SOL     OW75029   3.651   0.931   4.288 -0.6313 -0.1474  0.0265
24436SOL    HW175030   3.631   0.840   4.308 -0.9325 -0.5855 -2.0723
24436SOL    HW275031   3.576   0.961   4.236  0.5537  0.5624 -1.3257
24437SOL     OW75032   9.045   7.152   8.946 -0.2810  0.8861 -0.6799
24437SOL    HW175033   9.010   7.122   8.862 -1.2363 -2.1937  0.6431
24437SOL    HW275034   9.137   7.172   8.928 -0.5964  0.7913 -2.5607
24438SOL     OW75035   3.372   7.051   5.685 -0.2010  0.1319  0.0118
24438SOL    HW175036   3.288   7.097   5.677 -0.0998  0.2614 -0.2880
24438SOL    HW275037   3.376   6.994   5.608 -0.6529 -0.9196  0.7387
24439SOL     OW75038   7.995   5.736   0.234 -0.0689 -0.4912  0.1974
24439SOL    HW175039   7.957   5.817   0.269  0.9841 -0.5202  1.4968
24439SOL    HW275040   8.075   5.764   0.190 -0.3519 -0.6895 -0.4456
24440SOL     OW75041   4.052   2.609   5.390 -0.4180 -0.1351 -0.5991
24440SOL    HW175042   4.139   2.598   5.351 -0.0499  0.1158  0.1236
24440SOL    HW275043   4.041   2.703   5.398  0.5466 -0.1517  2.0459
24441SOL     OW75044   3.283   2.917   6.649 -0.3573 -0.0147 -0.3354
24441SOL    HW175045   3.294   2.880   6.737  0.6876 -1.6383 -1.0991
24441SOL    HW275046   3.371   2.945   6.624 -0.7032  0.7009 -0.7687
24442SOL     OW75047   6.935   3.760   6.648 -0.4238  0.2227 -0.3724
24442SOL    HW175048   6.915   3.846   6.686  0.9462  0.4269 -0.0452
24442SOL    HW275049   7.005   3.778   6.585 -0.8517 -0.5094 -1.0750
24443SOL     OW75050   0.530   6.367   8.801 -0.5277  0.5594 -0.1056
24443SOL    HW175051   0.496   6.430   8.738 -0.8730 -0.3421 -0.8458
24443SOL    HW275052   0.623   6.386   8.807 -0.4759  0.6057 -0.9626
24444SOL     OW75053   0.483   1.772   5.884 -0.2253 -0.1428  0.1951
24444SOL    HW175054   0.512   1.739   5.799  0.6760  0.4148  0.2690
24444SOL    HW275055   0.544   1.732   5.947 -0.9788 -0.6791  0.6088
24445SOL     OW75056   9.019   7.602   5.045 -0.4748  0.5501 -0.4099
24445SOL    HW175057   9.020   7.517   5.000 -0.1883  0.4766 -0.2642
24445SOL    HW275058   9.101   7.644   5.019 -0.7591  0.9104 -0.7273
24446SOL     OW75059   8.763   8.628   6.276  0.2081 -0.0357  0.4346
24446SOL    HW175060   8.840   8.574   6.292  0.8305  0.4604 -0.7620
24446SOL    HW275061   8.788   8.715   6.309 -0.2097 -0.0941  0.9250
24447SOL     OW75062   4.582   9.664   1.158  0.0279  0.3945 -0.2391
24447SOL    HW175063   4.540   9.665   1.072  3.0878  0.9446 -1.8752
24447SOL    HW275064   4.562   9.751   1.194 -3.1697 -0.6091  0.7574
24448SOL     OW75065   3.484   8.562   6.466 -0.2065 -0.1675  0.0427
24448SOL    HW175066   3.400   8.537   6.427 -0.3366  1.4166 -0.7965
24448SOL    HW275067   3.465   8.643   6.514  0.6642 -0.2961  0.6396
24449SOL     OW75068   8.267   1.838   0.879  0.0672  0.1641 -0.0725
24449SOL    HW175069   8.276   1.920   0.830 -0.0641 -0.6351 -1.4926
24449SOL    HW275070   8.216   1.782   0.822 -0.4048 -0.7040  1.1668
24450SOL     OW75071   9.082   4.092   2.722 -0.1950  0.1201  0.3127
24450SOL    HW175072   9.021   4.137   2.780  1.1250  0.2619  1.6679
24450SOL    HW275073   9.148   4.159   2.700 -0.1909 -0.1768 -0.6498
24451SOL     OW75074   2.830   9.462   2.439  0.8091  0.0997  0.7556
24451SOL    HW175075   2.866   9.422   2.360  1.3758  0.9253  0.5778
24451SOL    HW275076   2.906   9.474   2.496  0.4903 -0.0018  1.2002
24452SOL     OW75077   8.969   7.056   6.712  0.7943  0.3102  0.2211
24452SOL    HW175078   8.995   6.983   6.655  0.2856  1.7148 -1.9347
24452SOL    HW275079   8.911   7.017   6.776  2.5607 -1.6115  0.7654
24453SOL     OW75080   8.122   8.821   0.159  0.4296 -0.2968 -0.0401
24453SOL    HW175081   8.083   8.742   0.195  0.5837  1.2317  4.1541
24453SOL    HW275082   8.203   8.792   0.118  0.8069 -2.3256  1.9417
24454SOL     OW75083   5.290   8.066   5.058  0.8441 -0.1317 -0.0585
24454SOL    HW175084   5.282   7.975   5.085  1.5997 -0.4751 -0.9501
24454SOL    HW275085   5.383   8.086   5.066  0.6819  0.5731  0.1457
24455SOL     OW75086   2.188   0.196   2.573 -0.6474 -0.5184  0.3618
24455SOL    HW175087   2.172   0.153   2.657 -1.9410 -0.0385  0.3965
24455SOL    HW275088   2.196   0.289   2.596  1.7813 -0.6388  0.2544
24456SOL     OW75089   4.907   2.171   7.186 -0.3212 -0.1819 -0.3726
24456SOL    HW175090   4.957   2.250   7.206  1.3390 -0.9236 -1.3229
24456SOL    HW275091   4.967   2.099   7.205 -0.7721 -1.0997 -2.1854
24457SOL     OW75092   7.175   0.052   5.650 -0.3015 -0.2281 -0.0213
24457SOL    HW175093   7.132   0.004   5.721 -0.7924 -0.3768 -0.4103
24457SOL    HW275094   7.233  -0.012   5.609 -1.8180 -0.8730 -1.2842
24458SOL     OW75095   3.539   4.660   9.139 -0.5187  0.0931  1.0567
24458SOL    HW175096   3.607   4.672   9.206  2.0714  1.6011 -1.6009
24458SOL    HW275097   3.564   4.578   9.095  0.2500  1.1296 -0.5317
24459SOL     OW75098   1.500   8.412   3.020 -0.1588  0.1025 -0.2158
24459SOL    HW175099   1.568   8.475   3.045  1.3373 -1.5591  0.0918
24459SOL    HW275100   1.510   8.341   3.083 -3.3302  0.4935  0.9255
24460SOL     OW75101   7.395   9.386   1.101 -0.4300 -0.3831 -0.0540
24460SOL    HW175102   7.321   9.355   1.152  0.1381  0.3637  1.2568
24460SOL    HW275103   7.466   9.325   1.121  0.3281  0.9493  1.5497
24461SOL     OW75104   3.237   0.452   3.264 -0.2157  0.4011 -0.5331
24461SOL    HW175105   3.205   0.530   3.309 -1.3180 -0.4292  0.1846
24461SOL    HW275106   3.310   0.421   3.317 -0.9856 -0.1106  0.2396
24462SOL     OW75107   2.934   1.996   1.795  0.0787 -0.1392  0.2918
24462SOL    HW175108   2.854   2.022   1.841  0.6974  2.1944  0.1668
24462SOL    HW275109   3.001   1.993   1.863  0.4043  0.4403  0.0005
24463SOL     OW75110   5.499   3.598   6.850  0.2271  0.0980  0.0936
24463SOL    HW175111   5.418   3.578   6.802  0.6204  0.6953 -0.8646
24463SOL    HW275112   5.561   3.531   6.821  0.8935  1.2835 -1.4202
24464SOL     OW75113   9.508   2.640   0.146  0.0784  0.5310  0.1203
24464SOL    HW175114   9.444   2.571   0.165  0.9697 -0.4783 -0.4439
24464SOL    HW275115   9.574   2.597   0.092  0.0390  2.1419 -1.2843
24465SOL     OW75116   8.973   1.935   4.025 -0.3878  0.4735 -0.8304
24465SOL    HW175117   8.944   1.848   4.001 -1.0017  0.6781 -0.8447
24465SOL    HW275118   9.014   1.925   4.111 -1.0573  0.2826 -0.5294
24466SOL     OW75119   4.440   9.308   0.366  0.0268 -0.2582 -0.2017
24466SOL    HW175120   4.444   9.394   0.408 -0.9574 -0.2437 -0.1063
24466SOL    HW275121   4.356   9.307   0.320  0.0534 -1.1382 -0.2631
24467SOL     OW75122   3.112   1.715   5.366  0.4723  0.1632  0.4855
24467SOL    HW175123   3.036   1.758   5.406 -0.2584 -0.4805 -0.1700
24467SOL    HW275124   3.120   1.632   5.413 -0.5982 -0.7514 -0.8578
24468SOL     OW75125   6.434   8.295   3.980 -0.1844  0.1451  0.4557
24468SOL    HW175126   6.466   8.277   4.069  0.1136  0.7642  0.4837
24468SOL    HW275127   6.513   8.301   3.927 -0.3768 -0.5257  0.0811
24469SOL     OW75128   6.963   6.686   5.297  0.2234  0.2594  0.2555
24469SOL    HW175129   6.934   6.699   5.207 -1.4140 -0.6260  0.6007
24469SOL    HW275130   6.949   6.592   5.313  3.0623 -0.1809  0.6044
24470SOL     OW75131   8.021   7.419   8.033 -0.8159 -0.1745  0.3833
24470SOL    HW175132   7.986   7.427   8.121 -0.0646 -0.8349  0.7569
24470SOL    HW275133   8.077   7.495   8.021 -0.1442 -0.5899  0.8508
24471SOL     OW75134   2.907   9.248   2.261 -0.3680  0.2124 -0.0173
24471SOL    HW175135   2.857   9.217   2.185 -1.1768 -0.1879  0.6539
24471SOL    HW275136   2.853   9.223   2.336  0.4771  0.4917  0.6952
24472SOL     OW75137   7.133   7.680   7.731 -0.0740  0.8360 -0.1133
24472SOL    HW175138   7.135   7.627   7.811  1.0629  1.7277  0.4855
24472SOL    HW275139   7.117   7.770   7.762 -2.3965  0.8672 -1.1332
24473SOL     OW75140   8.673   0.814   2.199 -0.1922  0.0535 -0.2459
24473SOL    HW175141   8.727   0.769   2.134  0.4481  2.8926 -1.8855
24473SOL    HW275142   8.587   0.823   2.157  0.3541  2.3133 -1.0255
24474SOL     OW75143   2.337   6.823   6.667  0.1614  0.0683  0.3418
24474SOL    HW175144   2.354   6.879   6.591 -1.7304  1.3124  0.7829
24474SOL    HW275145   2.247   6.792   6.655 -0.3712  0.7009  2.2968
24475SOL     OW75146   7.726   2.750   8.492 -0.7788 -1.1411  0.0313
24475SOL    HW175147   7.693   2.662   8.473  1.3586 -1.8924 -0.5065
24475SOL    HW275148   7.711   2.799   8.412 -2.9128 -0.6343  0.6602
24476SOL     OW75149   4.452   3.583   0.641  0.1153 -0.0171  0.6512
24476SOL    HW175150   4.364   3.591   0.679 -0.5536 -0.5601 -0.6918
24476SOL    HW275151   4.466   3.489   0.634  1.2204  0.0481  1.7078
24477SOL     OW75152   4.488   0.337   4.741 -0.3644  0.6850  0.4194
24477SOL    HW175153   4.452   0.318   4.828 -1.5336  1.7671  0.2088
24477SOL    HW275154   4.411   0.352   4.687  0.3509 -0.0827 -0.8521
24478SOL     OW75155   0.403   3.939   3.322  0.2567 -0.2593 -0.5951
24478SOL    HW175156   0.416   4.030   3.295  0.3665 -0.0206  0.2340
24478SOL    HW275157   0.492   3.901   3.323  0.6346  0.4893  1.9834
24479SOL     OW75158   1.868   4.846   6.660 -0.2225  0.1338  0.0334
24479SOL    HW175159   1.830   4.807   6.738  1.0522  0.1861  0.7032
24479SOL    HW275160   1.855   4.940   6.672  1.4674  0.2767  1.0381
24480SOL     OW75161   7.941   2.201   1.144  0.1639 -0.3987 -0.5008
24480SOL    HW175162   7.855   2.168   1.118 -0.5473 -0.9824  2.2336
24480SOL    HW275163   7.944   2.290   1.110 -0.6751 -1.0228 -2.3315
24481SOL     OW75164   6.780   2.691   7.014  0.2404 -0.1478 -0.0470
24481SOL    HW175165   6.798   2.676   7.107 -0.0088 -0.1606  0.0006
24481SOL    HW275166   6.843   2.635   6.968  0.5133  0.0298  0.1115
24482SOL     OW75167   0.227   1.634   5.883  0.4304  0.0927 -0.2687
24482SOL    HW175168   0.286   1.581   5.937 -1.2241  0.9896  2.6093
24482SOL    HW275169   0.285   1.684   5.825  2.5333  0.7163  2.2146
24483SOL     OW75170   9.249   2.327   6.246  0.9562  0.0986 -0.2527
24483SOL    HW175171   9.160   2.311   6.278  1.5031  0.3791  1.4802
24483SOL    HW275172   9.243   2.310   6.152 -0.7335 -0.6903 -0.0488
24484SOL     OW75173   8.888   5.833   4.816  0.4890 -0.1514 -0.3794
24484SOL    HW175174   8.828   5.846   4.743 -0.0683  0.3226  0.1488
24484SOL    HW275175   8.863   5.749   4.854  2.7470 -1.9464 -2.5334
24485SOL     OW75176   2.514   0.667   7.047  0.0016  0.0034  0.4970
24485SOL    HW175177   2.610   0.658   7.047 -0.0085 -0.2643 -0.3857
24485SOL    HW275178   2.495   0.725   6.973 -0.4321  1.4136  1.6770
24486SOL     OW75179   2.439   8.173   8.602 -0.2320  0.3489  0.3092
24486SOL    HW175180   2.515   8.228   8.621  1.5074 -1.1447 -1.8453
24486SOL    HW275181   2.447   8.099   8.663  0.0710  0.1944  0.0858
24487SOL     OW75182   8.049   2.499   5.385  0.2029  0.0808  0.3178
24487SOL    HW175183   8.106   2.494   5.308  0.7786  1.3925  0.6298
24487SOL    HW275184   8.043   2.592   5.404 -0.8944 -0.1443  1.1686
24488SOL     OW75185   1.988   0.026   5.824  0.7869 -0.3390 -0.2377
24488SOL    HW175186   2.007   0.115   5.853 -1.3972  0.4720 -1.0436
24488SOL    HW275187   1.994   0.030   5.728 -0.7759 -0.6360 -0.3743
24489SOL     OW75188   7.129   8.801   5.819 -0.4533 -0.2888  0.1114
24489SOL    HW175189   7.139   8.840   5.732 -1.0030  0.2393  0.2762
24489SOL    HW275190   7.125   8.707   5.803  1.9746 -0.4109 -0.2148
24490SOL     OW75191   0.792   7.738   4.038  0.2855 -0.5002  1.1069
24490SOL    HW175192   0.770   7.791   4.114  0.4098  0.2163  0.6590
24490SOL    HW275193   0.711   7.692   4.015 -0.3191  0.8339  0.4673
24491SOL     OW75194   0.343   7.346   6.043  0.4943 -0.0080 -0.0945
24491SOL    HW175195   0.294   7.417   6.084  2.6147  1.9761 -0.7526
24491SOL    HW275196   0.358   7.376   5.954  0.7230 -1.7188 -0.6723
24492SOL     OW75197   7.088   6.858   2.063  0.6193 -0.3198 -0.2436
24492SOL    HW175198   7.005   6.874   2.018  0.8616 -0.4263 -0.7422
24492SOL    HW275199   7.065   6.847   2.155 -0.1327 -2.2654 -0.6386
24493SOL     OW75200   8.469   2.919   8.318  0.0197  0.3327 -0.1449
24493SOL    HW175201   8.395   2.892   8.373 -0.2440  0.7351 -0.2997
24493SOL    HW275202   8.462   2.863   8.241 -1.1863  1.5656 -0.9770
24494SOL     OW75203   2.810   5.891   8.452 -0.1658  0.2331 -0.0314
24494SOL    HW175204   2.746   5.953   8.486  0.4385  1.2213 -0.6581
24494SOL    HW275205   2.857   5.860   8.529 -1.8928 -1.1298  0.5446
24495SOL     OW75206   0.635   3.068   4.029 -0.6251  0.1745 -0.3943
24495SOL    HW175207   0.717   3.064   4.079 -0.2212  1.2665 -0.9504
24495SOL    HW275208   0.570   3.032   4.089 -0.1134  1.2548  0.8607
24496SOL     OW75209   2.685   4.675   1.540  0.2628  0.4957 -0.0092
24496SOL    HW175210   2.698   4.749   1.599  0.3864  1.0291 -0.6857
24496SOL    HW275211   2.690   4.713   1.452  1.4770 -0.4980 -0.3955
24497SOL     OW75212   6.608   9.189   6.463  0.3196 -0.0296  0.2507
24497SOL    HW175213   6.683   9.207   6.520  0.7273 -0.3951 -0.1530
24497SOL    HW275214   6.572   9.275   6.441 -0.5941  0.0756  2.0189
24498SOL     OW75215   3.546   3.508   7.747 -0.0770  0.4307  0.1931
24498SOL    HW175216   3.627   3.458   7.735 -0.9959 -1.5849  1.6902
24498SOL    HW275217   3.515   3.527   7.659  0.7179 -1.0384 -0.4287
24499SOL     OW75218   4.287   3.158   7.238  0.2117 -0.1518  0.4025
24499SOL    HW175219   4.225   3.183   7.306 -1.1539  0.8013 -1.1461
24499SOL    HW275220   4.361   3.218   7.249 -0.8575  1.3229 -0.1440
24500SOL     OW75221   8.733   8.626   0.085  0.6032  0.4701 -0.1986
24500SOL    HW175222   8.814   8.643   0.036 -0.0178 -0.9167 -1.8016
24500SOL    HW275223   8.683   8.707   0.076  0.7894  0.4807 -1.3015
24501SOL     OW75224   0.564   4.146   3.138 -0.0190 -0.0891 -0.3327
24501SOL    HW175225   0.633   4.181   3.082  1.0630 -0.6679  0.6205
24501SOL    HW275226   0.534   4.067   3.093 -0.4599  0.4486 -1.0143
24502SOL     OW75227   5.958   2.771   5.751  0.0490  0.5455 -0.2803
24502SOL    HW175228   5.869   2.796   5.729 -0.7123 -1.0311  0.7791
24502SOL    HW275229   5.981   2.705   5.686 -0.6600 -1.1046  1.0743
24503SOL     OW75230   3.852   5.970   9.261 -0.6670  0.2276 -0.3960
24503SOL    HW175231   3.937   5.930   9.277  0.5254  2.3407 -1.1082
24503SOL    HW275232   3.816   5.922   9.186 -0.6477 -1.4099  0.6058
24504SOL     OW75233   5.232   6.491   5.229 -0.2167 -0.2063 -0.0014
24504SOL    HW175234   5.177   6.482   5.152 -0.5955 -0.4658  0.2987
24504SOL    HW275235   5.322   6.491   5.194 -0.3572 -0.9913 -0.3879
24505SOL     OW75236   1.260   4.878   9.355 -0.4920 -0.3312 -0.2631
24505SOL    HW175237   1.216   4.953   9.397  1.6758 -0.5791  2.8309
24505SOL    HW275238   1.337   4.916   9.313  0.1534 -0.6798  0.5757
24506SOL     OW75239   8.658   4.388   9.196  0.6718  0.6340 -0.2597
24506SOL    HW175240   8.609   4.334   9.134 -1.3892  0.2259  1.6032
24506SOL    HW275241   8.750   4.369   9.177  0.0701 -1.1258 -1.7234
24507SOL     OW75242   8.062   2.197   1.994  0.4890 -0.1910 -0.3718
24507SOL    HW175243   7.995   2.129   2.003 -0.1620  0.4625 -0.2144
24507SOL    HW275244   8.073   2.232   2.083  0.5618  0.1529 -0.5154
24508SOL     OW75245   2.167   8.067   9.021  0.5027  0.0200  0.3456
24508SOL    HW175246   2.254   8.037   9.050  0.9994  0.2541 -0.8621
24508SOL    HW275247   2.185   8.141   8.963 -0.5448  0.4607  0.5697
24509SOL     OW75248   4.809   8.038   6.399  0.6606 -0.0122 -0.8474
24509SOL    HW175249   4.885   8.070   6.448 -0.3456 -0.0715  0.8097
24509SOL    HW275250   4.843   7.963   6.349  1.6872 -0.0927 -0.0720
24510SOL     OW75251   7.183   6.398   4.968  0.2286  0.0781  0.4217
24510SOL    HW175252   7.193   6.345   5.048  1.3755  0.0757  0.2937
24510SOL    HW275253   7.242   6.356   4.905  1.0166  1.3965  0.2588
24511SOL     OW75254   9.280   0.155   5.865  0.0926 -0.7354  0.4497
24511SOL    HW175255   9.230   0.084   5.905 -2.9619  1.1740  0.3736
24511SOL    HW275256   9.296   0.126   5.775 -0.3716 -1.6684  0.6574
24512SOL     OW75257   4.667   7.407   4.559 -0.3141 -0.0022  0.2114
24512SOL    HW175258   4.602   7.367   4.502  0.2965 -0.5186 -0.1376
24512SOL    HW275259   4.650   7.371   4.645 -1.3567  0.9149  0.4163
24513SOL     OW75260   3.755   6.549   2.361 -0.1828 -0.1247 -0.4458
24513SOL    HW175261   3.689   6.480   2.369  0.2733 -0.3403  2.1763
24513SOL    HW275262   3.705   6.630   2.350 -0.9223 -0.3443  1.0664
24514SOL     OW75263   5.663   5.440   8.563 -0.0798 -0.2663 -0.6647
24514SOL    HW175264   5.700   5.520   8.599 -2.1935  0.8488 -0.8029
24514SOL    HW275265   5.619   5.468   8.483  0.0063 -1.7627 -1.2650
24515SOL     OW75266   1.165   8.223   8.124  0.1041 -0.0117 -0.0700
24515SOL    HW175267   1.081   8.260   8.098  0.0252  1.4403  2.0015
24515SOL    HW275268   1.146   8.132   8.144 -0.6407 -0.0908 -1.0547
24516SOL     OW75269   6.121   7.213   1.240 -0.1206  0.0408  0.2007
24516SOL    HW175270   6.129   7.208   1.145  1.6545  0.1673  0.3081
24516SOL    HW275271   6.198   7.263   1.267 -0.7928  0.3137  1.6812
24517SOL     OW75272   3.790   4.764   2.467 -0.9825  0.4629  0.0734
24517SOL    HW175273   3.747   4.833   2.516 -1.5387 -0.1269  0.4342
24517SOL    HW275274   3.750   4.683   2.499  0.8430 -0.1771  0.9150
24518SOL     OW75275   6.503   5.556   5.462 -0.0587 -0.0135 -0.4513
24518SOL    HW175276   6.512   5.580   5.370  3.8093 -0.4557 -0.3696
24518SOL    HW275277   6.536   5.632   5.510 -2.6932  0.4939  0.6940
24519SOL     OW75278   0.884   4.581   3.124  0.4080  0.1311  0.2213
24519SOL    HW175279   0.883   4.494   3.163  1.6398  0.8501  2.0021
24519SOL    HW275280   0.977   4.603   3.116  0.1206  1.5552  0.4917
24520SOL     OW75281   6.698   2.112   3.754 -0.1457 -0.7629 -0.6470
24520SOL    HW175282   6.632   2.130   3.687  0.7490  1.9919 -0.9384
24520SOL    HW275283   6.682   2.022   3.781 -1.7083 -1.3591 -3.2381
24521SOL     OW75284   0.851   8.261   7.865  0.2620  0.1361  0.1807
24521SOL    HW175285   0.896   8.268   7.781  0.7066 -0.8412  0.3315
24521SOL    HW275286   0.809   8.347   7.876  2.2180  1.1550  0.1142
24522SOL     OW75287   9.002   0.855   0.735 -0.2489  0.3112  0.2471
24522SOL    HW175288   9.053   0.878   0.658 -0.3741 -0.6600 -0.1380
24522SOL    HW275289   8.930   0.918   0.737 -1.1693 -0.6413 -1.3583
24523SOL     OW75290   9.612   0.432   8.673 -0.0587 -0.1168 -0.2579
24523SOL    HW175291   9.581   0.352   8.718 -2.1185  0.8124  0.1184
24523SOL    HW275292   9.707   0.428   8.679 -0.1818 -1.2474  2.1067
24524SOL     OW75293   3.715   5.684   4.704  0.3448 -0.2017  0.0001
24524SOL    HW175294   3.710   5.658   4.796 -0.3616 -1.1224 -0.2783
24524SOL    HW275295   3.801   5.724   4.695 -0.0977  1.1545  1.3678
24525SOL     OW75296   7.032   5.931   5.830  0.0292  0.2431 -0.0968
24525SOL    HW175297   7.117   5.923   5.786  0.8427  1.2912  1.2090
24525SOL    HW275298   7.052   5.971   5.914 -1.5399 -1.1735  1.0215
24526SOL     OW75299   3.016   9.617   1.867 -0.0395 -0.5457 -0.5859
24526SOL    HW175300   2.985   9.527   1.873 -1.7334  0.0594  0.0749
24526SOL    HW275301   3.093   9.620   1.924 -0.1664 -1.4926 -0.3555
24527SOL     OW75302   1.665   9.021   2.284  0.2575  0.0462 -0.4503
24527SOL    HW175303   1.682   8.952   2.348  2.4109  1.3158  0.4375
24527SOL    HW275304   1.670   9.102   2.334 -0.0877  0.9650 -1.8556
24528SOL     OW75305   5.309   1.306   4.407  0.2977  0.7692 -0.4152
24528SOL    HW175306   5.372   1.271   4.470 -0.5161  0.8640  0.4699
24528SOL    HW275307   5.264   1.377   4.454 -0.7149  0.4732 -0.9030
24529SOL     OW75308   0.745   0.379   6.161  0.0894 -0.5336 -0.0724
24529SOL    HW175309   0.731   0.432   6.083  2.6481  0.1926 -0.1433
24529SOL    HW275310   0.766   0.291   6.128 -1.6904 -1.0118 -0.0386
24530SOL     OW75311   3.775   0.272   2.486  0.2390 -0.0718 -0.1155
24530SOL    HW175312   3.738   0.184   2.494 -1.5916  0.7654  1.7736
24530SOL    HW275313   3.744   0.318   2.564  1.0388  2.2922 -1.0909
24531SOL     OW75314   0.394   9.088   5.974  0.0767  0.1209  0.3339
24531SOL    HW175315   0.405   9.141   6.053  3.1241 -1.3485  1.0525
24531SOL    HW275316   0.475   9.037   5.968 -0.7263 -1.0105 -2.8843
24532SOL     OW75317   6.963   1.902   5.627 -0.1076  0.1699 -0.0035
24532SOL    HW175318   7.041   1.851   5.651 -0.1015 -0.3675 -1.1260
24532SOL    HW275319   6.997   1.973   5.573 -0.3718  0.0506 -0.3274
24533SOL     OW75320   8.094   3.587   0.927  0.5945 -0.1520  0.1875
24533SOL    HW175321   8.105   3.670   0.974  0.6548 -0.9873  1.7040
24533SOL    HW275322   7.999   3.577   0.919  0.5225 -0.7511  1.5563
24534SOL     OW75323   5.369   3.431   0.813  0.3395  0.0588  0.2437
24534SOL    HW175324   5.320   3.513   0.812  0.3246  0.0625  0.9495
24534SOL    HW275325   5.333   3.382   0.887  2.0216  0.4577  1.3878
24535SOL     OW75326   7.675   8.016   7.310 -0.3540 -0.2485  0.4001
24535SOL    HW175327   7.617   7.966   7.252 -1.6964  1.5664  0.0943
24535SOL    HW275328   7.763   7.997   7.279 -0.9843 -0.3374 -1.4173
24536SOL     OW75329   8.881   2.690   9.215  0.7385  0.3967  0.2786
24536SOL    HW175330   8.852   2.777   9.189 -1.4082 -0.7139 -1.4839
24536SOL    HW275331   8.971   2.684   9.183  0.6531  1.6964 -0.2815
24537SOL     OW75332   6.028   9.454   2.710 -0.0152  0.1628  0.2436
24537SOL    HW175333   5.951   9.410   2.744  0.7116 -2.1915 -0.9389
24537SOL    HW275334   6.102   9.402   2.742  0.9969  1.2340 -0.2383
24538SOL     OW75335   9.008   3.192   9.351  0.5093 -0.1457  0.3847
24538SOL    HW175336   8.928   3.224   9.393 -0.4673 -2.9586  0.8593
24538SOL    HW275337   9.073   3.189   9.422  0.5885  0.6087  0.3545
24539SOL     OW75338   5.752   8.441   3.893  0.0930 -0.4083  0.0091
24539SOL    HW175339   5.685   8.419   3.957  0.3367 -0.3966  0.2679
24539SOL    HW275340   5.793   8.520   3.927 -0.6809  0.3899 -0.8425
24540SOL     OW75341   8.831   5.912   1.390  0.5678  0.1318  0.4057
24540SOL    HW175342   8.834   5.832   1.337 -0.1925 -0.8834  1.8173
24540SOL    HW275343   8.904   5.904   1.451  0.1264  0.2084  0.9526
24541SOL     OW75344   4.759   3.780   4.041 -0.3189 -0.2382 -0.0456
24541SOL    HW175345   4.674   3.822   4.023 -0.5261 -0.6509 -0.0426
24541SOL    HW275346   4.742   3.686   4.031  0.2790 -0.2942 -0.6210
24542SOL     OW75347   7.585   6.046   8.840  0.2027  0.2017  0.5290
24542SOL    HW175348   7.508   6.061   8.895 -1.0403 -1.2189 -0.7201
24542SOL    HW275349   7.631   5.974   8.881  0.3776  0.4591  0.7871
24543SOL     OW75350   0.609   7.129   6.035  0.5493  0.0189  0.0823
24543SOL    HW175351   0.578   7.201   5.979 -0.8767  0.4346  1.3431
24543SOL    HW275352   0.586   7.050   5.986 -0.0054  0.3876 -0.2747
24544SOL     OW75353   6.107   9.006   1.141  0.4643 -0.2097 -0.4154
24544SOL    HW175354   6.021   8.969   1.158  0.9414 -0.7395  0.9149
24544SOL    HW275355   6.107   9.089   1.189  0.2614  0.4147 -1.4514
24545SOL     OW75356   8.468   6.882   9.518  0.0772 -0.9451 -0.3203
24545SOL    HW175357   8.399   6.942   9.546  0.9474  0.1527 -0.4701
24545SOL    HW275358   8.435   6.842   9.438 -0.2790 -0.2476 -0.5207
24546SOL     OW75359   6.413   9.397   5.729  0.2330 -0.2443 -0.1468
24546SOL    HW175360   6.417   9.351   5.813  2.2419 -0.6450 -0.4104
24546SOL    HW275361   6.442   9.486   5.750 -0.7822  0.0986 -0.1598
24547SOL     OW75362   2.228   0.596   8.435 -0.2181  0.3407  0.1908
24547SOL    HW175363   2.231   0.514   8.386 -1.6506  1.1865 -1.4020
24547SOL    HW275364   2.316   0.632   8.426 -0.3291  0.2708 -1.4247
24548SOL     OW75365   3.406   1.100   1.537 -0.1754  0.5036 -0.4144
24548SOL    HW175366   3.331   1.121   1.593 -0.4448  0.9802 -0.9369
24548SOL    HW275367   3.444   1.186   1.516  1.2959  0.2156  0.8764
24549SOL     OW75368   0.259   2.069   1.657 -0.1370  0.1037  0.2672
24549SOL    HW175369   0.280   2.161   1.667  1.1420 -0.2539  1.1428
24549SOL    HW275370   0.163   2.066   1.659 -0.2398  1.5199 -1.0670
24550SOL     OW75371   2.266   6.068   0.052  0.0155  0.4039  0.2222
24550SOL    HW175372   2.265   6.159   0.082 -1.4937  0.8856 -1.1970
24550SOL    HW275373   2.260   6.017   0.133  0.6076  1.5418  1.0226
24551SOL     OW75374   1.364   6.306   3.781 -0.1352 -0.0100 -0.2801
24551SOL    HW175375   1.438   6.246   3.774 -1.1518 -1.1443 -1.9631
24551SOL    HW275376   1.319   6.277   3.861  0.1365 -0.6131 -0.3338
24552SOL     OW75377   9.081   5.127   4.749 -0.0957  0.3938  1.0277
24552SOL    HW175378   9.016   5.100   4.814  0.0706 -1.0596  0.6232
24552SOL    HW275379   9.097   5.219   4.768 -2.2396  0.8043  1.1699
24553SOL     OW75380   1.950   9.135   0.695  0.5099  0.0529  0.6358
24553SOL    HW175381   1.931   9.057   0.747  1.8479 -0.0802  0.9545
24553SOL    HW275382   1.895   9.203   0.733 -2.0161 -1.0619 -0.7234
24554SOL     OW75383   1.939   2.827   2.456  0.4993  0.2280  0.1181
24554SOL    HW175384   1.993   2.782   2.521 -1.9438 -1.6521  1.0127
24554SOL    HW275385   1.951   2.776   2.376  1.2867  0.8129 -0.1469
24555SOL     OW75386   9.093   6.588   1.264 -0.1071 -0.1155 -0.3042
24555SOL    HW175387   9.074   6.507   1.313  1.5698  0.0015  0.5822
24555SOL    HW275388   9.183   6.609   1.287 -0.2595  1.5763 -1.1770
24556SOL     OW75389   2.575   5.975   3.296  0.2988  0.1398  0.4992
24556SOL    HW175390   2.495   6.015   3.262 -0.2168 -0.9097  0.4089
24556SOL    HW275391   2.544   5.919   3.369  0.8691 -0.6514  0.1467
24557SOL     OW75392   1.189   1.393   1.458  0.3085 -0.0704 -0.1789
24557SOL    HW175393   1.241   1.473   1.447  0.9897 -0.6163 -1.0779
24557SOL    HW275394   1.254   1.326   1.482 -0.4083 -0.1197  1.8011
24558SOL     OW75395   9.697   5.904   3.971  0.5218  0.0501  0.0094
24558SOL    HW175396   9.757   5.935   4.038 -0.0107  2.1110 -0.4054
24558SOL    HW275397   9.615   5.950   3.988 -0.3891 -1.2652 -0.5849
24559SOL     OW75398   6.556   2.483   6.525  0.2149  0.0339 -0.1680
24559SOL    HW175399   6.515   2.437   6.452  0.2300  0.1113 -0.2239
24559SOL    HW275400   6.488   2.540   6.559  0.1927 -0.0383 -0.0904
24560SOL     OW75401   6.031   1.794   6.722 -0.0630 -0.5089  0.2203
24560SOL    HW175402   5.974   1.724   6.690  0.9461 -0.6729 -1.3347
24560SOL    HW275403   5.985   1.830   6.798 -0.4396 -3.1203  1.3645
24561SOL     OW75404   4.681   0.260   7.228  0.2727  0.8595  0.0448
24561SOL    HW175405   4.646   0.319   7.162 -0.6498 -0.6927 -0.9304
24561SOL    HW275406   4.776   0.273   7.224  0.3614 -0.0747 -2.5402
24562SOL     OW75407   9.569   5.907   7.559  0.1998 -0.5182  0.1319
24562SOL    HW175408   9.636   5.855   7.516  1.0139  1.4544 -1.1354
24562SOL    HW275409   9.501   5.918   7.493 -0.8988 -1.5793  1.0456
24563SOL     OW75410   2.002   9.406   7.167  0.2253  0.5338 -0.0349
24563SOL    HW175411   2.075   9.353   7.138  1.8347  1.6976  1.6428
24563SOL    HW275412   1.925   9.352   7.151  1.6296 -1.6038  0.0757
24564SOL     OW75413   1.174   6.991   8.045  0.2653  0.1319  0.4095
24564SOL    HW175414   1.104   7.056   8.043 -0.4905 -0.6561  0.9190
24564SOL    HW275415   1.192   6.977   8.138  0.0489 -0.7776  0.3200
24565SOL     OW75416   9.245   4.983   0.230 -0.1419 -0.6682  0.4717
24565SOL    HW175417   9.301   4.995   0.153 -1.0391  0.4877 -0.0363
24565SOL    HW275418   9.221   5.072   0.257 -0.7557 -1.0966  1.4004
24566SOL     OW75419   2.533   4.741   5.289  0.1683 -1.0253 -0.3095
24566SOL    HW175420   2.508   4.800   5.219 -0.0438 -2.2878 -1.3471
24566SOL    HW275421   2.603   4.687   5.251  0.9534 -0.8819  0.8878
24567SOL     OW75422   7.425   1.024   6.582 -0.4532  0.1597 -0.7507
24567SOL    HW175423   7.395   1.105   6.623 -1.8702 -0.3345 -0.7715
24567SOL    HW275424   7.436   0.963   6.655  1.5462  0.5994 -0.6157
24568SOL     OW75425   0.999   4.868   5.592  0.3361  0.1751  0.3215
24568SOL    HW175426   1.025   4.780   5.564  0.7976  0.5969 -0.6143
24568SOL    HW275427   0.903   4.867   5.588  0.3712  0.0374 -0.7434
24569SOL     OW75428   1.293   8.567   7.879  0.3692 -0.5928  0.2395
24569SOL    HW175429   1.346   8.556   7.959  0.5150  0.9543  0.3876
24569SOL    HW275430   1.331   8.644   7.836 -1.0231 -0.1660 -0.2617
24570SOL     OW75431   7.781   0.529   2.192  0.9107  0.2850  0.5223
24570SOL    HW175432   7.837   0.567   2.260  0.8871  0.7689  0.2723
24570SOL    HW275433   7.692   0.546   2.221  0.8946 -0.1384  0.7242
24571SOL     OW75434   2.501   4.368   8.198 -0.1372  0.1906  0.2119
24571SOL    HW175435   2.429   4.319   8.239  1.3684 -1.0278  1.5448
24571SOL    HW275436   2.543   4.415   8.270  1.0863 -0.0341 -0.3222
24572SOL     OW75437   8.091   3.973   7.589  0.1485 -0.4929 -0.2576
24572SOL    HW175438   8.063   4.058   7.556 -0.3616 -1.0576 -1.3256
24572SOL    HW275439   8.077   3.979   7.684  1.3932  1.0570 -0.1342
24573SOL     OW75440   3.378   4.815   5.380 -0.6902  0.3967 -0.2339
24573SOL    HW175441   3.305   4.829   5.320 -0.6684  1.8256  0.0312
24573SOL    HW275442   3.378   4.894   5.435  0.2590 -0.1720  0.6019
24574SOL     OW75443   2.361   0.726   4.444 -0.0024  0.1924 -0.5201
24574SOL    HW175444   2.370   0.784   4.519 -1.6289 -0.7110  0.4324
24574SOL    HW275445   2.451   0.709   4.416  0.5468  2.4928 -0.3506
24575SOL     OW75446   4.754   1.404   6.786 -0.2220 -0.5363  0.2331
24575SOL    HW175447   4.776   1.496   6.803  0.5112 -0.3160 -1.5743
24575SOL    HW275448   4.665   1.407   6.752  0.0658 -0.3610 -0.5501
24576SOL     OW75449   1.061   3.025   4.524  0.4131  1.0606 -0.0108
24576SOL    HW175450   0.968   3.038   4.545  0.6577  0.8527  1.2765
24576SOL    HW275451   1.095   2.973   4.596  0.7472 -1.9500 -2.1227
24577SOL     OW75452   7.577   0.570   8.654  0.0433 -0.7450  0.6934
24577SOL    HW175453   7.594   0.594   8.746  0.3667  0.4481  0.3439
24577SOL    HW275454   7.586   0.653   8.606  1.2530 -1.5824 -0.6009
24578SOL     OW75455   2.046   8.536   3.870 -0.4506  0.4150  0.3385
24578SOL    HW175456   2.074   8.454   3.829 -0.8233  1.8718 -3.1377
24578SOL    HW275457   1.951   8.527   3.877 -0.6289  0.9703 -1.1585
24579SOL     OW75458   3.220   4.998   5.238 -0.0395  0.2251 -0.2046
24579SOL    HW175459   3.219   5.060   5.165  2.1695  2.1845  1.2815
24579SOL    HW275460   3.173   5.043   5.308  1.6972  0.3644  0.9397
24580SOL     OW75461   7.500   7.683   4.840  0.3256 -0.3838 -0.2056
24580SOL    HW175462   7.490   7.649   4.751  0.5043  1.0333 -0.7869
24580SOL    HW275463   7.576   7.636   4.874  0.4434 -0.7228 -0.9041
24581SOL     OW75464   4.538   3.004   9.452 -0.3531 -0.4408 -0.3882
24581SOL    HW175465   4.462   3.043   9.409  0.0731 -0.7855 -1.4875
24581SOL    HW275466   4.529   3.029   9.544 -0.1531  2.1831 -1.0102
24582SOL     OW75467   8.315   5.052   8.910  0.3456 -0.3723  0.5184
24582SOL    HW175468   8.323   5.076   8.818  0.0585  0.0449  0.6014
24582SOL    HW275469   8.355   5.126   8.957 -1.6708  0.5730  0.8352
24583SOL     OW75470   6.258   9.607   1.412  0.3880  0.1322 -0.3440
24583SOL    HW175471   6.225   9.531   1.460  1.6679 -1.2447 -1.5252
24583SOL    HW275472   6.191   9.675   1.425 -0.2886 -0.8292  1.6144
24584SOL     OW75473   9.668   6.237   1.032 -0.1185 -0.4323  0.0245
24584SOL    HW175474   9.697   6.181   0.960 -0.1329 -0.9513  0.4113
24584SOL    HW275475   9.729   6.311   1.032  0.6083 -1.0233  0.2239
24585SOL     OW75476   6.646   0.031   4.914  0.4675 -0.3256 -0.3976
24585SOL    HW175477   6.668   0.107   4.969 -2.0325  0.6106 -0.5761
24585SOL    HW275478   6.595  -0.026   4.971 -1.5704  0.3333 -1.4614
24586SOL     OW75479   1.795   5.770   4.781 -0.0532 -0.0257  0.3257
24586SOL    HW175480   1.702   5.790   4.790 -0.3869 -1.9716  1.7814
24586SOL    HW275481   1.819   5.732   4.866  1.6625 -1.0832 -0.5925
24587SOL     OW75482   6.258   8.503   3.626  0.2667  0.6967 -0.1678
24587SOL    HW175483   6.261   8.532   3.717 -0.4921  0.2407  0.0165
24587SOL    HW275484   6.347   8.516   3.593  0.6501  0.5017  0.7532
24588SOL     OW75485   3.278   6.985   1.236 -0.0474  0.2114 -0.4554
24588SOL    HW175486   3.366   7.023   1.236  0.9221 -1.7104  1.9943
24588SOL    HW275487   3.293   6.891   1.221 -1.3218 -0.5694  2.5011
24589SOL     OW75488   6.285   8.312   4.297 -0.1843 -0.3885 -0.1910
24589SOL    HW175489   6.271   8.270   4.212  0.8475  1.3392 -1.2799
24589SOL    HW275490   6.288   8.240   4.360  0.0809 -1.7989 -1.7517
24590SOL     OW75491   2.528   9.625   7.580  0.3704  0.1886  0.1580
24590SOL    HW175492   2.480   9.553   7.539  2.3686 -0.5709 -1.0057
24590SOL    HW275493   2.615   9.589   7.598  0.9549  1.8790  0.9516
24591SOL     OW75494   3.105   8.659   0.942  0.2374 -0.2022 -0.1170
24591SOL    HW175495   3.193   8.629   0.920 -0.5551 -0.9072 -2.6558
24591SOL    HW275496   3.068   8.588   0.995  0.2078 -1.2894 -1.5540
24592SOL     OW75497   3.418   5.593   9.443  0.1400  0.4487 -0.2111
24592SOL    HW175498   3.385   5.668   9.492 -0.2300  0.7967 -0.9718
24592SOL    HW275499   3.462   5.539   9.508  0.8015  1.5453  0.2842
24593SOL     OW75500   0.764   2.264   5.617  0.0642 -0.4386 -0.0827
24593SOL    HW175501   0.670   2.273   5.603 -0.3156 -0.4231  2.1544
24593SOL    HW275502   0.776   2.277   5.711  2.3910  0.2127 -0.4051
24594SOL     OW75503   0.951   8.273   7.624  0.0918 -0.4439  0.0069
24594SOL    HW175504   1.043   8.247   7.624  0.6506  1.2593  1.8015
24594SOL    HW275505   0.929   8.281   7.531  1.3656 -2.0359 -0.4951
24595SOL     OW75506   0.455   6.580   5.294  0.1984  0.3888 -0.2448
24595SOL    HW175507   0.392   6.558   5.225  1.3587 -0.3659 -1.1072
24595SOL    HW275508   0.492   6.495   5.321  0.9611  0.8211  0.1172
24596SOL     OW75509   4.599   0.619   3.482  0.1052 -0.4226  0.6989
24596SOL    HW175510   4.605   0.524   3.490  0.9754 -0.4202  0.2466
24596SOL    HW275511   4.510   0.640   3.510 -0.7792 -1.5703 -1.0937
24597SOL     OW75512   9.401   8.919   0.155 -0.1804  0.0166  0.1322
24597SOL    HW175513   9.405   8.946   0.063  0.2503 -1.6599 -0.3783
24597SOL    HW275514   9.464   8.976   0.199 -0.1280  0.6028 -0.6820
24598SOL     OW75515   1.365   4.576   6.838 -0.0394  0.1099 -0.0062
24598SOL    HW175516   1.422   4.499   6.829  0.9670  0.6196  1.7804
24598SOL    HW275517   1.356   4.589   6.932  0.8683  2.9523 -0.2192
24599SOL     OW75518   2.878   5.045   2.630  0.0128 -0.3395  0.1088
24599SOL    HW175519   2.797   5.001   2.659 -0.3334 -0.4098 -0.9291
24599SOL    HW275520   2.912   5.085   2.710 -0.2483 -1.5539  0.8699
24600SOL     OW75521   4.809   8.599   3.433  0.1645 -0.3602 -0.6566
24600SOL    HW175522   4.800   8.611   3.338 -0.5438 -0.7044 -0.6418
24600SOL    HW275523   4.811   8.504   3.445 -0.9811 -0.3521 -0.2364
24601SOL     OW75524   0.737   1.891   2.735 -0.6065  0.8506 -0.3099
24601SOL    HW175525   0.825   1.853   2.730  0.8977  4.0142 -0.4094
24601SOL    HW275526   0.683   1.833   2.681  0.9669 -2.1049  1.0314
24602SOL     OW75527   7.500   5.785   1.526 -0.0384  0.5039 -0.0925
24602SOL    HW175528   7.485   5.720   1.594 -1.9193  0.6274 -0.3342
24602SOL    HW275529   7.552   5.853   1.569  1.5533 -0.8936  0.2827
24603SOL     OW75530   1.629   5.195   6.735  0.2724  0.0212  0.0515
24603SOL    HW175531   1.568   5.133   6.694  0.9749  0.1185 -1.2148
24603SOL    HW275532   1.585   5.279   6.728  0.0410 -0.0827  0.2380
24604SOL     OW75533   8.944   3.358   3.430  0.2376 -0.8045 -0.6933
24604SOL    HW175534   8.946   3.427   3.496  3.6528  0.8426 -2.2645
24604SOL    HW275535   8.851   3.348   3.409 -0.4866  2.9159  0.0702
24605SOL     OW75536   0.381   8.028   2.026  0.0273 -0.0273 -0.1556
24605SOL    HW175537   0.400   8.029   1.932 -3.1226 -2.0835 -0.9896
24605SOL    HW275538   0.309   8.090   2.036  0.3886  0.2282  0.9449
24606SOL     OW75539   8.130   4.648   9.340 -0.3603 -0.3494 -0.2888
24606SOL    HW175540   8.070   4.692   9.281  0.7310 -0.2483 -1.3750
24606SOL    HW275541   8.090   4.563   9.357 -0.2225 -0.7928 -2.0253
24607SOL     OW75542   3.692   0.899   0.901  0.1602 -0.2385 -0.6654
24607SOL    HW175543   3.759   0.880   0.966 -0.2799  0.4329 -0.0006
24607SOL    HW275544   3.671   0.814   0.862 -0.8356 -0.9723  1.3246
24608SOL     OW75545   5.590   8.122   9.425 -0.5267 -0.3190 -0.3765
24608SOL    HW175546   5.639   8.077   9.356 -0.7074 -0.8777 -0.1465
24608SOL    HW275547   5.583   8.057   9.495  2.2997  1.1380  1.4515
24609SOL     OW75548   5.545   1.530   0.371  0.2000 -0.2709  0.5424
24609SOL    HW175549   5.633   1.501   0.348  0.2589  1.2416 -1.4356
24609SOL    HW275550   5.521   1.592   0.302 -1.6079  0.9472  2.1297
24610SOL     OW75551   2.457   3.667   4.556  0.5054  0.0494  0.1698
24610SOL    HW175552   2.385   3.626   4.603  0.2114 -0.8955 -1.0760
24610SOL    HW275553   2.457   3.626   4.470  1.8687  0.7956 -0.2189
24611SOL     OW75554   3.847   2.754   0.794  0.0654  0.5450 -0.0910
24611SOL    HW175555   3.798   2.681   0.831  2.1708 -0.1770  1.5161
24611SOL    HW275556   3.851   2.819   0.865 -1.1521  1.9706 -1.2465
24612SOL     OW75557   9.187   3.879   1.872  0.0104  0.3333  0.2943
24612SOL    HW175558   9.174   3.806   1.810 -1.1373  0.7610 -0.0049
24612SOL    HW275559   9.148   3.848   1.954 -0.5431  0.6170  0.1472
24613SOL     OW75560   6.410   4.929   6.440 -0.1880 -0.6331  0.2196
24613SOL    HW175561   6.357   4.869   6.387  0.1568 -0.4754 -0.3000
24613SOL    HW275562   6.491   4.882   6.457 -0.7349 -1.1578  1.6045
24614SOL     OW75563   5.841   1.659   1.548  0.0592 -0.6387  0.0457
24614SOL    HW175564   5.765   1.608   1.575 -0.5687  0.7655  1.0472
24614SOL    HW275565   5.908   1.641   1.614 -0.8592  1.3791  1.5884
24615SOL     OW75566   3.068   0.989   3.084 -0.0713  0.1667 -0.7791
24615SOL    HW175567   3.129   0.953   3.148 -0.1403 -3.6170 -2.5366
24615SOL    HW275568   2.991   1.012   3.135  1.1814  0.7999  0.9142
24616SOL     OW75569   0.516   6.988   1.845  0.0279 -0.5050 -0.1521
24616SOL    HW175570   0.517   6.899   1.883  0.8328 -0.0114  1.0531
24616SOL    HW275571   0.607   7.016   1.848 -0.3978  0.8661  0.7259
24617SOL     OW75572   2.417   2.355   7.653  0.3077  0.7420  0.0486
24617SOL    HW175573   2.403   2.269   7.612  2.3958 -0.0149  0.7880
24617SOL    HW275574   2.365   2.351   7.734  0.9549 -0.1268  0.4384
24618SOL     OW75575   4.944   8.742   7.983  0.2385  0.0925 -0.4711
24618SOL    HW175576   5.027   8.782   8.009 -0.5906  0.1199  2.5759
24618SOL    HW275577   4.941   8.751   7.888  2.3882  2.7254 -0.4024
24619SOL     OW75578   9.558   1.859   0.549 -0.0697  0.2326 -0.4363
24619SOL    HW175579   9.528   1.900   0.468 -1.3498 -0.2504 -0.2369
24619SOL    HW275580   9.479   1.818   0.585  0.9391 -1.5201 -0.1139
24620SOL     OW75581   3.730   0.647   3.784 -0.1169  0.0191 -0.6505
24620SOL    HW175582   3.748   0.689   3.868  1.1809 -0.4041 -0.6899
24620SOL    HW275583   3.735   0.554   3.802 -0.6223 -0.0910 -1.0460
24621SOL     OW75584   3.082   4.373   0.197  0.6524 -0.4482 -0.4930
24621SOL    HW175585   3.130   4.296   0.168  1.3796 -0.4285  0.6072
24621SOL    HW275586   2.990   4.348   0.190  0.8796 -1.7514  0.6569
24622SOL     OW75587   1.805   9.251   2.065 -0.0403  0.5991  0.2394
24622SOL    HW175588   1.789   9.209   2.149  0.0537  1.1232  0.5234
24622SOL    HW275589   1.893   9.224   2.040 -0.0579  0.4666  0.3235
24623SOL     OW75590   1.308   5.112   7.001  0.2523  0.1120 -0.1040
24623SOL    HW175591   1.213   5.107   7.011  0.3333 -3.0238  0.0477
24623SOL    HW275592   1.321   5.170   6.926 -1.9098 -0.7636 -1.2529
24624SOL     OW75593   1.026   5.895   2.365 -0.0361 -0.0635 -0.1319
24624SOL    HW175594   0.964   5.850   2.308 -1.1362  0.8200  0.3410
24624SOL    HW275595   1.045   5.832   2.435 -1.2911  0.0420  0.3333
24625SOL     OW75596   9.539   0.272   0.006  0.5722  0.3655 -0.6330
24625SOL    HW175597   9.460   0.246  -0.040  0.0739  0.8617 -0.0811
24625SOL    HW275598   9.593   0.314  -0.061 -0.1863  1.1778 -0.7561
24626SOL     OW75599   3.626   5.994   6.664 -0.1344  0.2965 -0.3197
24626SOL    HW175600   3.657   5.991   6.573  0.3397 -0.3023 -0.1475
24626SOL    HW275601   3.547   5.939   6.664 -0.4211  0.7077 -0.4738
24627SOL     OW75602   9.259   2.078   9.132  0.1818  0.0926 -0.0089
24627SOL    HW175603   9.355   2.071   9.133  0.1441 -0.9536 -1.4088
24627SOL    HW275604   9.228   1.988   9.127 -0.8731  0.4339  0.2018
24628SOL     OW75605   7.074   5.066   0.017 -0.1721 -0.2304 -0.7102
24628SOL    HW175606   7.094   4.975  -0.007  2.3167  0.1646 -0.4510
24628SOL    HW275607   7.025   5.059   0.098 -0.3950 -1.3477 -0.9206
24629SOL     OW75608   0.732   0.700   4.194  0.1741  0.2175  0.6908
24629SOL    HW175609   0.785   0.776   4.221 -0.1206  0.2508  1.1856
24629SOL    HW275610   0.642   0.727   4.211  0.0793 -0.3209  1.0685
24630SOL     OW75611   4.167   9.049   7.974 -0.2458  0.0400 -0.3617
24630SOL    HW175612   4.244   9.096   7.941  0.0464 -0.8336 -0.9875
24630SOL    HW275613   4.092   9.092   7.934 -0.2900  2.2952  1.9327
24631SOL     OW75614   7.319   0.281   6.382  0.4505 -0.0374 -0.2612
24631SOL    HW175615   7.254   0.307   6.317 -0.3582 -1.2023  0.0478
24631SOL    HW275616   7.330   0.358   6.438 -1.0836  0.0216  0.0030
24632SOL     OW75617   3.665   8.795   6.042 -0.3387  0.3334  0.3355
24632SOL    HW175618   3.669   8.700   6.046 -1.7091  0.2569  0.4312
24632SOL    HW275619   3.641   8.815   5.952 -1.2477  0.5148  0.6044
24633SOL     OW75620   7.791   4.208   2.525  0.2456  0.0424 -0.6611
24633SOL    HW175621   7.724   4.225   2.459  0.0195  1.1865 -0.1785
24633SOL    HW275622   7.770   4.270   2.596  2.6244  1.4725 -1.0904
24634SOL     OW75623   7.246   8.419   4.376 -0.5789  0.3481 -0.1483
24634SOL    HW175624   7.211   8.484   4.315  1.3137  1.3963 -0.2198
24634SOL    HW275625   7.337   8.406   4.347 -0.7056 -1.8314  0.3033
24635SOL     OW75626   8.300   2.855   7.537 -0.1812 -0.2104  0.0344
24635SOL    HW175627   8.322   2.797   7.464 -3.0969  0.5173 -1.6120
24635SOL    HW275628   8.236   2.916   7.500 -1.7808  0.2253  3.1820
24636SOL     OW75629   8.959   5.083   2.498  0.2224  0.6219  0.1071
24636SOL    HW175630   9.049   5.114   2.484 -0.0313  0.8551 -1.1083
24636SOL    HW275631   8.907   5.132   2.435 -0.6199 -0.2235  0.1318
24637SOL     OW75632   1.651   7.787   7.395  0.7854  0.1715 -0.0180
24637SOL    HW175633   1.680   7.820   7.310  4.7354 -4.8467 -1.1439
24637SOL    HW275634   1.575   7.731   7.375  0.1872  0.8740  0.2394
24638SOL     OW75635   3.485   7.783   7.393 -0.4188 -0.4193  0.0175
24638SOL    HW175636   3.396   7.762   7.366 -0.5352  0.3324 -0.1913
24638SOL    HW275637   3.524   7.698   7.413 -0.1280 -1.1598 -3.0782
24639SOL     OW75638   0.757   7.894   5.706  0.3588 -0.1851  0.0385
24639SOL    HW175639   0.700   7.859   5.774 -0.3590 -1.0084 -0.9577
24639SOL    HW275640   0.772   7.985   5.732 -0.2136 -0.3710  1.0834
24640SOL     OW75641   5.199   9.099   2.818 -0.0172 -1.1775 -0.0138
24640SOL    HW175642   5.216   9.150   2.897 -1.2563  0.4856 -0.7835
24640SOL    HW275643   5.124   9.043   2.840  1.9231 -3.5396  1.1489
24641SOL     OW75644   6.102   2.674   1.585 -0.0900 -0.1230  0.2658
24641SOL    HW175645   6.035   2.742   1.581  0.1804  0.1544  0.4139
24641SOL    HW275646   6.064   2.606   1.640 -0.6851 -0.4521 -0.5309
24642SOL     OW75647   6.125   5.639   5.599 -0.5914  0.5283  0.4171
24642SOL    HW175648   6.131   5.721   5.551 -0.1350 -0.5544 -1.4731
24642SOL    HW275649   6.127   5.665   5.691 -0.9253  2.6472 -0.1193
24643SOL     OW75650   4.597   7.699   7.988  0.1749  0.2722 -0.5140
24643SOL    HW175651   4.594   7.606   8.012  0.4559 -0.4982 -3.2025
24643SOL    HW275652   4.675   7.708   7.934  1.2562  2.5654  1.2441
24644SOL     OW75653   6.583   7.376   9.242  0.1996  0.2855  0.1082
24644SOL    HW175654   6.598   7.467   9.268  0.2204  0.3442 -0.1104
24644SOL    HW275655   6.662   7.352   9.193 -0.8396  0.9362 -2.0007
24645SOL     OW75656   0.767   1.705   4.387 -0.0308 -0.4981  0.4162
24645SOL    HW175657   0.728   1.736   4.469  0.0480 -0.9132  0.6115
24645SOL    HW275658   0.783   1.785   4.337 -1.5778 -0.3312  0.1298
24646SOL     OW75659   8.408   2.350   2.139  0.0383  0.2175 -0.0874
24646SOL    HW175660   8.336   2.287   2.142 -0.6692  1.0098 -0.2505
24646SOL    HW275661   8.475   2.307   2.086 -0.4150 -0.4218 -0.1507
24647SOL     OW75662   9.706   7.050   5.359  0.3349  0.2250 -0.1332
24647SOL    HW175663   9.772   6.991   5.322  1.0280  1.0754 -0.2735
24647SOL    HW275664   9.729   7.057   5.451  0.9780  1.1922 -0.3495
24648SOL     OW75665   7.759   0.140   5.161  0.4299  0.3556  0.1260
24648SOL    HW175666   7.769   0.234   5.178  0.4646  0.0858  1.7441
24648SOL    HW275667   7.683   0.114   5.212  0.1093 -0.4173 -0.7175
24649SOL     OW75668   5.720   7.035   9.328  0.0682 -0.1510  0.0854
24649SOL    HW175669   5.627   7.016   9.313  0.2803 -1.1805  0.0151
24649SOL    HW275670   5.720   7.113   9.382 -0.8031  1.0952 -1.6183
24650SOL     OW75671   8.367   8.684   0.619 -0.6500  0.1627 -0.5332
24650SOL    HW175672   8.431   8.651   0.556 -1.9112 -0.8803 -1.3121
24650SOL    HW275673   8.301   8.728   0.565 -0.7201  1.0405  0.2410
24651SOL     OW75674   5.546   3.965   1.585 -0.1065  0.3627  0.0986
24651SOL    HW175675   5.480   4.035   1.589 -0.2570  0.2141  0.2053
24651SOL    HW275676   5.630   4.011   1.593 -0.2399  0.4415  1.0727
24652SOL     OW75677   1.106   2.142   7.078  0.3582 -0.0887 -0.6393
24652SOL    HW175678   1.197   2.151   7.048  0.6513  1.9524  0.7006
24652SOL    HW275679   1.053   2.180   7.007  0.7195  0.7187 -0.4843
24653SOL     OW75680   6.326   6.592   5.532 -0.2480  0.2710  0.0389
24653SOL    HW175681   6.335   6.525   5.465  1.1410 -2.2433  2.5449
24653SOL    HW275682   6.388   6.660   5.506  0.4654 -0.7673 -1.0787
24654SOL     OW75683   5.878   7.034   0.477  0.9077 -0.1718  0.6779
24654SOL    HW175684   5.865   7.006   0.387  1.4239 -0.3092  0.6434
24654SOL    HW275685   5.958   6.989   0.505  0.6938 -0.2161  1.2386
24655SOL     OW75686   6.567   0.320   2.675 -0.2246 -0.7006 -0.1178
24655SOL    HW175687   6.597   0.235   2.644 -0.7411 -0.5613 -1.0544
24655SOL    HW275688   6.473   0.321   2.656 -0.5899 -0.6232  1.5697
24656SOL     OW75689   4.593   1.339   5.917 -0.4799  0.1293  0.1302
24656SOL    HW175690   4.607   1.402   5.988  0.4636  1.7722 -1.4320
24656SOL    HW275691   4.670   1.282   5.920 -0.8703 -0.3715  0.9515
24657SOL     OW75692   5.472   3.196   0.665  0.0652  0.1658 -0.3343
24657SOL    HW175693   5.414   3.236   0.730  1.8224  1.0084  0.7748
24657SOL    HW275694   5.547   3.255   0.659  0.4891 -0.4968 -2.2934
24658SOL     OW75695   3.724   8.012   8.450 -0.4007  0.3780 -0.2862
24658SOL    HW175696   3.806   8.059   8.467  0.0496 -0.5813  0.2736
24658SOL    HW275697   3.738   7.971   8.365  0.6213 -1.6328  0.7861
24659SOL     OW75698   0.058   4.819   0.513 -0.0142 -0.2909 -0.1381
24659SOL    HW175699  -0.010   4.751   0.509  0.1695 -0.6862  2.0567
24659SOL    HW275700   0.010   4.900   0.525 -0.1550 -0.4350  0.3081
24660SOL     OW75701   3.193   8.288   1.940 -0.1957 -0.3705 -0.1970
24660SOL    HW175702   3.126   8.327   1.884  1.3238  2.8477  0.0200
24660SOL    HW275703   3.149   8.274   2.024 -0.8951  0.6548 -0.3747
24661SOL     OW75704   5.882   9.104   7.885  0.2277  0.2786 -0.1691
24661SOL    HW175705   5.961   9.152   7.861  0.2633 -0.0981 -0.8260
24661SOL    HW275706   5.886   9.024   7.834  0.4254 -0.6877  1.2973
24662SOL     OW75707   5.651   9.673   8.246 -0.1909  0.3873 -0.0117
24662SOL    HW175708   5.589   9.725   8.194 -1.4758 -0.3004  0.7881
24662SOL    HW275709   5.636   9.583   8.216  1.0293  0.2938 -0.3907
24663SOL     OW75710   0.619   5.556   9.685  0.3416  0.3516 -0.4076
24663SOL    HW175711   0.608   5.527   9.775 -2.7847 -2.0935 -1.3804
24663SOL    HW275712   0.696   5.508   9.654 -1.0098 -2.2036 -0.1091
24664SOL     OW75713   9.341   2.258   3.371  0.4245 -0.1426  0.3080
24664SOL    HW175714   9.273   2.200   3.339 -0.5414  0.1840  1.6500
24664SOL    HW275715   9.331   2.256   3.467 -0.3681  3.0032  0.3992
24665SOL     OW75716   7.502   5.481   7.478 -0.3687  0.0961 -0.8053
24665SOL    HW175717   7.441   5.550   7.504 -0.4427 -0.5199  0.7493
24665SOL    HW275718   7.448   5.417   7.432 -0.7604 -0.1030 -0.0707
24666SOL     OW75719   9.207   7.881   0.441 -0.6091  0.1416  0.1302
24666SOL    HW175720   9.132   7.914   0.391  1.1793  2.5949 -1.1318
24666SOL    HW275721   9.212   7.938   0.517 -0.3638 -0.3992  0.5275
24667SOL     OW75722   4.171   1.922   0.361  0.3398 -0.1092 -0.0775
24667SOL    HW175723   4.165   1.854   0.295  0.2884 -1.4129  1.2116
24667SOL    HW275724   4.082   1.933   0.393  0.3997  0.3301 -0.0568
24668SOL     OW75725   4.103   8.210   2.780 -0.6473 -0.3905  0.0369
24668SOL    HW175726   4.173   8.201   2.716  0.2580 -1.5198  1.1335
24668SOL    HW275727   4.093   8.305   2.791  0.4569 -0.2118 -0.4071
24669SOL     OW75728   2.774   1.395   1.912  0.4841 -0.6472 -0.4124
24669SOL    HW175729   2.815   1.340   1.980  0.6673 -0.4397 -0.3542
24669SOL    HW275730   2.775   1.340   1.834 -0.2503 -1.1021 -0.1095
24670SOL     OW75731   6.937   2.748   2.587 -0.4414 -0.2907 -0.4963
24670SOL    HW175732   6.882   2.805   2.640 -1.0427  0.1912 -1.5971
24670SOL    HW275733   7.009   2.805   2.558  0.5005 -0.8310  0.6632
24671SOL     OW75734   6.023   4.748   4.965  0.0474 -0.2728  0.3952
24671SOL    HW175735   6.048   4.840   4.960 -0.3641 -0.1320  0.8022
24671SOL    HW275736   5.929   4.750   4.984  0.0697 -0.7753  0.5683
24672SOL     OW75737   1.901   8.671   0.838 -0.0649  0.7119  0.3532
24672SOL    HW175738   1.989   8.642   0.862  0.4940 -0.7284 -2.9040
24672SOL    HW275739   1.871   8.722   0.913  3.1933  0.5457  1.9333
24673SOL     OW75740   1.850   3.263   2.786 -0.1480  0.4290  0.8922
24673SOL    HW175741   1.927   3.251   2.842 -0.5754  0.9561  1.6145
24673SOL    HW275742   1.808   3.177   2.785  0.2185  0.2470  0.8370
24674SOL     OW75743   2.643   0.168   6.742  0.3457 -0.0792  0.0777
24674SOL    HW175744   2.618   0.117   6.818 -0.2078 -0.1200 -0.1295
24674SOL    HW275745   2.561   0.184   6.695  0.6388  0.2016 -0.3495
24675SOL     OW75746   5.690   8.539   0.075 -0.7925 -0.0569  0.0223
24675SOL    HW175747   5.768   8.571   0.119 -0.1450 -0.6356 -0.6721
24675SOL    HW275748   5.710   8.549  -0.019 -0.7797 -1.9625 -0.2087
24676SOL     OW75749   1.206   8.206   3.165 -0.2044  0.2003  0.2104
24676SOL    HW175750   1.238   8.189   3.076  0.0531  0.4175  0.2625
24676SOL    HW275751   1.142   8.276   3.154 -0.1193  0.2769  0.2072
24677SOL     OW75752   5.261   4.553   3.160  0.6657 -0.2061 -0.1000
24677SOL    HW175753   5.237   4.485   3.097 -0.8405 -0.9703  1.2405
24677SOL    HW275754   5.281   4.630   3.106  1.6179 -1.4581 -1.6005
24678SOL     OW75755   7.642   5.729   3.122 -0.5248  0.4266  0.5469
24678SOL    HW175756   7.579   5.737   3.193 -1.0889  0.3084  0.0646
24678SOL    HW275757   7.661   5.635   3.118 -1.9898  0.1488 -0.7241
24679SOL     OW75758   9.644   7.597   1.064  0.1199 -0.2681 -0.4140
24679SOL    HW175759   9.555   7.611   1.031  0.5373 -1.3314 -2.1024
24679SOL    HW275760   9.697   7.583   0.986  1.8058  0.4239  0.5599
24680SOL     OW75761   5.052   6.295   2.565  0.2384  0.1140 -0.1276
24680SOL    HW175762   4.969   6.341   2.549  0.4582  1.1116  1.3882
24680SOL    HW275763   5.116   6.343   2.513 -0.1502 -0.8194 -1.5117
24681SOL     OW75764   7.409   3.676   1.098  0.4247  0.1571  0.9866
24681SOL    HW175765   7.408   3.635   1.011  0.9306  0.3964  0.8695
24681SOL    HW275766   7.454   3.612   1.154 -0.8040 -0.4614  1.3102
24682SOL     OW75767   0.387   6.024   4.244 -0.4979 -0.4175 -0.0195
24682SOL    HW175768   0.379   6.118   4.229 -1.3950 -0.2173  1.4966
24682SOL    HW275769   0.472   6.001   4.206 -0.1571  1.0502 -0.2161
24683SOL     OW75770   0.838   6.033   7.709  0.1987 -0.3692  0.3688
24683SOL    HW175771   0.758   6.061   7.666  0.4354  0.5721  0.5046
24683SOL    HW275772   0.815   6.027   7.802 -0.0241 -1.3054  0.2602
24684SOL     OW75773   3.210   6.645   4.902 -0.4473  0.2415  0.7149
24684SOL    HW175774   3.194   6.681   4.814 -1.0865  1.6103  1.3465
24684SOL    HW275775   3.275   6.576   4.889 -2.0316 -1.0156 -1.1172
24685SOL     OW75776   9.393   4.579   8.891  0.6844 -0.0429  0.2235
24685SOL    HW175777   9.338   4.607   8.819  0.6289 -1.4715 -0.3038
24685SOL    HW275778   9.437   4.659   8.919  0.0879  0.6833 -0.8433
24686SOL     OW75779   1.599   3.329   5.436 -0.3933  0.1010 -0.3907
24686SOL    HW175780   1.680   3.354   5.391 -0.6255  0.4409 -0.6282
24686SOL    HW275781   1.610   3.236   5.455 -0.8323 -0.3873 -2.3293
24687SOL     OW75782   0.885   8.225   4.761  0.6986 -0.1796 -0.4810
24687SOL    HW175783   0.884   8.200   4.853 -1.6577  1.5446  0.0579
24687SOL    HW275784   0.952   8.169   4.722  2.3594 -0.3833  2.4014
24688SOL     OW75785   1.349   7.636   4.871  0.6869 -0.2097 -0.0770
24688SOL    HW175786   1.300   7.717   4.856 -2.3951 -1.7464  0.8484
24688SOL    HW275787   1.345   7.623   4.965  1.7484 -1.1125 -0.1379
24689SOL     OW75788   4.446   4.086   0.074  0.7044  0.3849 -0.3440
24689SOL    HW175789   4.493   4.019   0.122 -0.6100  1.0258  1.9803
24689SOL    HW275790   4.509   4.158   0.066  1.0671  0.1184  0.0679
24690SOL     OW75791   1.812   6.920   0.381 -0.3552  0.4838 -0.4634
24690SOL    HW175792   1.831   6.946   0.471  1.1482  1.0112 -0.8891
24690SOL    HW275793   1.778   6.831   0.388  0.1097  0.3763  0.6059
24691SOL     OW75794   2.267   2.508   2.893  0.1764 -0.3610 -0.0487
24691SOL    HW175795   2.190   2.522   2.837 -0.1669 -1.3097  0.1659
24691SOL    HW275796   2.232   2.467   2.972  1.1245 -3.1136 -0.9047
24692SOL     OW75797   0.828   3.975   4.658 -0.0895 -0.3079  0.2176
24692SOL    HW175798   0.842   4.068   4.673  0.1204 -0.1500 -0.8278
24692SOL    HW275799   0.916   3.941   4.638 -0.2353 -0.6263  0.1069
24693SOL     OW75800   7.884   3.383   1.672  0.9888  0.3787  0.1380
24693SOL    HW175801   7.875   3.444   1.598 -0.5530  0.4437  0.3424
24693SOL    HW275802   7.834   3.424   1.742 -0.4712 -1.2987  0.1416
24694SOL     OW75803   5.991   9.120   9.624  0.6994  0.5451  0.0682
24694SOL    HW175804   5.994   9.063   9.547 -0.4866  0.1853  0.2607
24694SOL    HW275805   5.932   9.191   9.597 -0.3240  0.0244  0.8840
24695SOL     OW75806   5.419   1.020   5.831  0.2198  0.0912  0.2334
24695SOL    HW175807   5.462   0.935   5.826 -0.9745 -0.6609  1.8895
24695SOL    HW275808   5.385   1.025   5.920  1.0024  2.7021  0.4741
24696SOL     OW75809   8.972   1.530   0.672 -0.1126  0.4008 -0.1771
24696SOL    HW175810   8.912   1.476   0.724 -0.9097 -0.7715 -2.1528
24696SOL    HW275811   8.927   1.541   0.588  2.2481 -0.2604 -1.6539
24697SOL     OW75812   6.829   2.793   6.358 -0.6000  0.4482  1.0549
24697SOL    HW175813   6.802   2.883   6.339 -0.8493  0.1442 -0.1691
24697SOL    HW275814   6.918   2.787   6.322 -0.1331  0.5165  2.1607
24698SOL     OW75815   9.386   6.362   8.926 -0.2835 -0.1804 -0.2004
24698SOL    HW175816   9.469   6.352   8.879  0.2529 -0.0988  0.7018
24698SOL    HW275817   9.403   6.433   8.988 -1.0177 -0.2113  0.0391
24699SOL     OW75818   0.056   4.574   8.700  0.1342 -0.2124  0.4285
24699SOL    HW175819   0.080   4.612   8.785  3.2414  2.0251 -1.2495
24699SOL    HW275820   0.077   4.481   8.709 -0.7104 -0.2694  2.4210
24700SOL     OW75821   4.359   2.424   5.575 -0.4829 -0.4876 -0.3729
24700SOL    HW175822   4.446   2.392   5.600 -0.3328  0.5716  0.5370
24700SOL    HW275823   4.367   2.446   5.482  0.0888 -0.8143 -0.4074
24701SOL     OW75824   9.497   8.636   3.459  0.2796  0.2485  0.4390
24701SOL    HW175825   9.451   8.551   3.462 -0.5411  0.7061  1.1990
24701SOL    HW275826   9.494   8.660   3.366  0.1510 -0.3616  0.2758
24702SOL     OW75827   8.725   3.575   9.637 -0.1028  0.2252  0.5645
24702SOL    HW175828   8.650   3.612   9.590 -0.6676  0.1815  1.3932
24702SOL    HW275829   8.689   3.553   9.723  1.0242  0.7963  1.1926
24703SOL     OW75830   0.953   4.178   6.573  0.0611 -0.4649 -0.1864
24703SOL    HW175831   0.967   4.124   6.494  0.8956 -1.4235  0.5863
24703SOL    HW275832   0.928   4.115   6.640 -1.0700  0.4039  0.2292
24704SOL     OW75833   5.356   2.511   6.818 -0.3484 -0.1373  0.3859
24704SOL    HW175834   5.440   2.556   6.820 -0.7031  0.5532 -0.1544
24704SOL    HW275835   5.375   2.424   6.855  1.3197 -1.2201 -2.6963
24705SOL     OW75836   9.657   9.091   4.775  0.5046 -0.4942  0.1104
24705SOL    HW175837   9.690   9.023   4.716  0.2850 -0.9260  0.4837
24705SOL    HW275838   9.600   9.045   4.837 -2.3069  0.4560 -1.5766
24706SOL     OW75839   4.942   1.822   5.201  0.5986  0.4265 -0.0640
24706SOL    HW175840   4.916   1.793   5.114  0.5423  0.8584 -0.1937
24706SOL    HW275841   5.038   1.820   5.199  0.6280  1.3468 -0.4623
24707SOL     OW75842   3.493   4.896   7.706  0.4837  0.3661 -0.1966
24707SOL    HW175843   3.576   4.849   7.711  0.9925  1.0529 -1.7295
24707SOL    HW275844   3.440   4.859   7.777  2.0212 -0.2080  0.6918
24708SOL     OW75845   3.765   6.473   0.532  0.2664 -0.0817  0.3694
24708SOL    HW175846   3.735   6.450   0.620  0.7547 -0.9795  0.3055
24708SOL    HW275847   3.686   6.500   0.486 -0.4381 -2.1313  0.2920
24709SOL     OW75848   2.964   8.004   4.393  0.3428  0.8540  0.0391
24709SOL    HW175849   2.877   7.997   4.353  0.4231  1.3160 -0.2154
24709SOL    HW275850   2.950   8.052   4.474  0.3993  1.1656 -0.1337
24710SOL     OW75851   9.329   3.388   9.273 -0.6745  0.7008  0.1196
24710SOL    HW175852   9.241   3.405   9.307 -0.7018  0.9716 -0.0864
24710SOL    HW275853   9.336   3.292   9.274 -1.1273  0.6536 -0.2470
24711SOL     OW75854   3.489   0.155   7.717  0.5069  1.2289 -0.1614
24711SOL    HW175855   3.582   0.168   7.736  0.8806  0.9596 -1.7235
24711SOL    HW275856   3.460   0.092   7.784  1.6782  0.5758 -0.2571
24712SOL     OW75857   6.712   7.794   3.398 -0.0816 -0.2486 -0.7905
24712SOL    HW175858   6.708   7.720   3.458 -0.4773  1.2070  1.0840
24712SOL    HW275859   6.626   7.837   3.407  1.1246  2.0968  0.4812
24713SOL     OW75860   0.157   5.540   6.412 -0.0849  0.1066  0.0279
24713SOL    HW175861   0.213   5.618   6.404 -0.1234  0.0228 -1.2661
24713SOL    HW275862   0.166   5.496   6.328  1.9931 -2.7068  1.5877
24714SOL     OW75863   5.102   2.811   0.945 -0.6681  0.0952 -0.2566
24714SOL    HW175864   5.136   2.740   0.890  2.2730  0.8372  0.3978
24714SOL    HW275865   5.061   2.871   0.884 -0.7044 -0.8293 -1.1736
24715SOL     OW75866   1.992   8.465   9.559  0.1777  0.2601  0.0444
24715SOL    HW175867   1.904   8.427   9.560  0.3870 -0.2702 -0.5737
24715SOL    HW275868   2.049   8.397   9.594  0.7589 -0.6090 -2.3703
24716SOL     OW75869   5.926   2.221   3.586 -0.3923  0.0623 -0.2154
24716SOL    HW175870   5.891   2.256   3.668 -1.8824  0.0840 -0.8277
24716SOL    HW275871   5.973   2.142   3.613 -1.1399 -0.1175  0.6357
24717SOL     OW75872   3.785   7.067   7.736  0.1741  0.6374 -0.3068
24717SOL    HW175873   3.809   7.114   7.817 -0.0852 -0.7106  0.5859
24717SOL    HW275874   3.830   7.115   7.667 -0.9127  2.8207  0.4215
24718SOL     OW75875   1.903   1.494   2.987  0.2749 -0.1468 -0.3209
24718SOL    HW175876   1.922   1.569   2.931  0.9835  1.1602  1.5704
24718SOL    HW275877   1.965   1.426   2.958  0.5071  0.4204 -1.2019
24719SOL     OW75878   3.219   4.892   4.011 -0.4626 -0.1958  0.5151
24719SOL    HW175879   3.211   4.914   3.918  0.5718  0.6006  0.5908
24719SOL    HW275880   3.294   4.833   4.015  1.8821  2.5684  1.1731
24720SOL     OW75881   9.134   2.626   5.586 -0.0085 -0.3707  0.2304
24720SOL    HW175882   9.129   2.544   5.635  1.2108 -0.1141  0.8153
24720SOL    HW275883   9.159   2.600   5.498  0.2326 -0.6334  0.3772
24721SOL     OW75884   4.212   6.158   9.671 -0.6696 -0.5256  0.1592
24721SOL    HW175885   4.174   6.207   9.599  0.3464 -1.0740 -0.7940
24721SOL    HW275886   4.141   6.146   9.733 -2.2443 -2.0290 -1.8140
24722SOL     OW75887   0.674   7.740   3.719 -0.2962 -0.1946  0.3339
24722SOL    HW175888   0.723   7.658   3.717 -1.2402 -0.7390 -1.1974
24722SOL    HW275889   0.737   7.804   3.754  0.3361 -1.5986  1.9241
24723SOL     OW75890   3.410   2.534   5.116  0.2069  0.5958  0.6042
24723SOL    HW175891   3.404   2.624   5.086  1.7200  0.9813  1.3470
24723SOL    HW275892   3.457   2.539   5.199  2.2447 -1.0010 -0.3490
24724SOL     OW75893   3.234   7.802   1.582 -0.1977  0.2782 -0.4398
24724SOL    HW175894   3.207   7.876   1.637 -1.1600 -0.4051  0.0342
24724SOL    HW275895   3.174   7.731   1.606 -1.3589  0.2351 -3.0903
24725SOL     OW75896   2.595   4.010   4.704 -0.1282 -0.0832 -0.3470
24725SOL    HW175897   2.599   4.004   4.608  0.1327 -0.6936 -0.3001
24725SOL    HW275898   2.616   3.922   4.734 -1.1549 -0.1380  0.2568
24726SOL     OW75899   1.610   2.647   5.436  0.3283  0.4400 -0.2179
24726SOL    HW175900   1.619   2.690   5.521 -0.0815 -0.7955  0.4669
24726SOL    HW275901   1.609   2.554   5.455  2.2017  0.0214 -1.7656
24727SOL     OW75902   2.877   5.516   0.892 -0.4904  0.4885 -0.1104
24727SOL    HW175903   2.917   5.558   0.968 -0.3216 -2.2499  1.4337
24727SOL    HW275904   2.949   5.472   0.847 -1.2025 -2.3623  1.2721
24728SOL     OW75905   5.039   4.606   4.443  0.0538  0.0240  0.1410
24728SOL    HW175906   5.078   4.667   4.382  1.5406  0.4589  1.4622
24728SOL    HW275907   4.972   4.657   4.489  1.4315  0.7717  1.3847
24729SOL     OW75908   3.315   1.899   3.754  0.7471 -0.5398 -0.3910
24729SOL    HW175909   3.391   1.877   3.807  0.8059 -0.1298 -0.3023
24729SOL    HW275910   3.290   1.987   3.783  0.4784 -0.5143 -0.6953
24730SOL     OW75911   8.068   4.772   4.343  0.1227 -0.3237 -0.1489
24730SOL    HW175912   7.989   4.719   4.357 -0.1888  0.0494 -0.4810
24730SOL    HW275913   8.126   4.716   4.292  0.6244 -1.1068  1.2116
24731SOL     OW75914   1.991   1.899   9.510 -0.0706 -0.2123  0.5382
24731SOL    HW175915   1.903   1.879   9.478  0.4829 -0.6299 -0.8093
24731SOL    HW275916   2.049   1.868   9.440  1.0744  1.4706  0.6858
24732SOL     OW75917   7.601   5.988   1.814 -0.9097  0.2294 -0.3731
24732SOL    HW175918   7.585   6.015   1.723  0.1418 -1.6893 -1.2002
24732SOL    HW275919   7.514   5.972   1.850 -1.4006 -3.6079 -2.6580
24733SOL     OW75920   3.498   5.868   6.079 -0.5271 -0.3303  0.3049
24733SOL    HW175921   3.435   5.800   6.054 -2.4614  1.4711 -0.1072
24733SOL    HW275922   3.560   5.871   6.006  0.6501 -2.7331  1.1166
24734SOL     OW75923   6.243   5.833   2.751  0.2218 -0.1716  0.5391
24734SOL    HW175924   6.314   5.867   2.698  1.7401 -3.8856 -0.1298
24734SOL    HW275925   6.174   5.812   2.688  0.1437 -0.2084  0.6363
24735SOL     OW75926   1.645   6.781   7.976 -1.0442  0.1702 -0.8286
24735SOL    HW175927   1.622   6.836   7.901  1.5553  1.1703 -0.9994
24735SOL    HW275928   1.686   6.841   8.038 -1.6048 -0.9480  0.7035
24736SOL     OW75929   1.782   3.949   8.860 -0.1088 -0.1151  0.1264
24736SOL    HW175930   1.719   4.021   8.851  1.1738  1.2471  1.5548
24736SOL    HW275931   1.863   3.983   8.821  0.3071 -1.0645  0.1512
24737SOL     OW75932   9.466   8.660   3.194 -0.2126  0.4553 -0.1054
24737SOL    HW175933   9.535   8.622   3.139 -1.6233 -0.0126 -1.6372
24737SOL    HW275934   9.386   8.616   3.165 -1.3592  1.9750  0.6547
24738SOL     OW75935   2.853   1.733   2.546  0.4541 -0.0110 -0.2729
24738SOL    HW175936   2.841   1.700   2.635 -1.7160  0.2809 -0.4222
24738SOL    HW275937   2.772   1.778   2.526  0.5431 -0.8330 -2.7431
24739SOL     OW75938   1.836   4.233   6.136  0.0711  0.2478 -1.1819
24739SOL    HW175939   1.774   4.306   6.140  0.3744  0.4818 -0.6226
24739SOL    HW275940   1.836   4.207   6.044  0.8369  1.7066 -1.6248
24740SOL     OW75941   2.874   9.255   0.416 -0.0889 -0.0063 -0.1437
24740SOL    HW175942   2.939   9.251   0.345  1.5308 -1.0504  1.3217
24740SOL    HW275943   2.874   9.166   0.453 -0.7373  0.5696  1.3093
24741SOL     OW75944   2.430   8.651   2.381  0.1386  0.6856 -0.4090
24741SOL    HW175945   2.440   8.599   2.460  0.7347  0.5179 -0.5862
24741SOL    HW275946   2.353   8.704   2.396  1.7117  2.6103  1.3937
24742SOL     OW75947   6.276   7.602   9.254 -0.3762 -0.4343  0.0038
24742SOL    HW175948   6.300   7.514   9.283 -2.1514 -0.4401  1.6122
24742SOL    HW275949   6.222   7.588   9.177  2.5595 -0.5010 -2.2385
24743SOL     OW75950   4.745   6.191   7.871  0.4513  0.1285 -0.3701
24743SOL    HW175951   4.742   6.133   7.947  0.2946  1.3933  0.6254
24743SOL    HW275952   4.656   6.227   7.864  0.1280 -0.8521 -1.8947
24744SOL     OW75953   7.153   2.038   0.077 -0.4869 -0.3265 -0.3989
24744SOL    HW175954   7.085   1.973   0.096 -1.1639  0.8421  1.4240
24744SOL    HW275955   7.137   2.062  -0.015 -1.9276 -0.7712 -0.2912
24745SOL     OW75956   0.554   8.976   3.342  0.2295 -0.3619  0.2602
24745SOL    HW175957   0.523   8.971   3.252 -0.3676 -0.6002  0.4699
24745SOL    HW275958   0.616   9.049   3.343 -1.4636  1.1762  0.1338
24746SOL     OW75959   1.890   1.148   1.254  0.3100 -0.2099 -0.0004
24746SOL    HW175960   1.906   1.241   1.240  1.3562 -0.3306  0.3270
24746SOL    HW275961   1.849   1.118   1.173 -0.2432  0.5790 -0.0153
24747SOL     OW75962   6.316   4.506   8.495  0.1430 -0.2759  0.1819
24747SOL    HW175963   6.251   4.558   8.448  1.4497  1.5296  0.2883
24747SOL    HW275964   6.302   4.416   8.464  0.0593  0.6276 -2.6684
24748SOL     OW75965   6.805   0.244   0.886 -0.2207  1.0159 -0.0099
24748SOL    HW175966   6.733   0.207   0.936 -0.9518 -0.3942 -1.9744
24748SOL    HW275967   6.762   0.299   0.820  0.6172  1.7300  0.0259
24749SOL     OW75968   6.399   3.296   8.394 -0.2138 -0.1610 -0.0378
24749SOL    HW175969   6.377   3.206   8.417  2.5865 -1.0294 -0.3780
24749SOL    HW275970   6.446   3.330   8.470 -0.2715  0.6355 -0.3488
24750SOL     OW75971   0.450   3.623   0.532  0.4511  0.2342  0.2160
24750SOL    HW175972   0.375   3.639   0.589  0.9786 -0.4655  1.1335
24750SOL    HW275973   0.453   3.698   0.474  0.2885  1.2981  1.5432
24751SOL     OW75974   3.336   8.759   9.213  0.5209 -0.5339  0.6276
24751SOL    HW175975   3.302   8.839   9.253  2.3325  0.5848  0.0737
24751SOL    HW275976   3.373   8.709   9.286 -1.0136 -1.1125  1.0389
24752SOL     OW75977   3.290   0.188   0.208  0.5788  0.5297 -0.7475
24752SOL    HW175978   3.243   0.266   0.235  0.9337  0.2926  0.5955
24752SOL    HW275979   3.379   0.200   0.241  0.1302 -1.3451  1.3781
24753SOL     OW75980   4.472   9.401   9.146  0.1767  0.1365 -0.0776
24753SOL    HW175981   4.540   9.454   9.103 -0.3457 -0.0977 -1.2333
24753SOL    HW275982   4.390   9.442   9.121 -0.2051 -0.8244 -0.4510
24754SOL     OW75983   5.095   5.719   3.700 -0.4373 -0.2406  0.0347
24754SOL    HW175984   5.102   5.802   3.652  1.6338 -1.7958 -2.6908
24754SOL    HW275985   5.183   5.705   3.735 -0.0945 -2.2798 -1.5059
24755SOL     OW75986   4.700   8.469   9.225  0.2564 -0.2474 -0.0469
24755SOL    HW175987   4.652   8.516   9.292  2.4267  0.8176  0.8291
24755SOL    HW275988   4.705   8.530   9.151 -1.3343 -1.0801 -0.9013
24756SOL     OW75989   5.300   1.892   7.003 -0.0900 -0.6837 -0.1162
24756SOL    HW175990   5.206   1.912   7.006 -0.3367 -1.3480 -1.8454
24756SOL    HW275991   5.303   1.800   6.976  1.0651 -0.8686  0.5989
24757SOL     OW75992   4.216   0.166   6.738 -0.2745  0.5377  0.2361
24757SOL    HW175993   4.270   0.094   6.703 -1.5522 -0.6789  0.6563
24757SOL    HW275994   4.152   0.122   6.795 -2.2682  1.7934 -0.9192
24758SOL     OW75995   7.083   8.463   8.207  0.3983  0.5540 -0.5078
24758SOL    HW175996   7.115   8.407   8.278 -1.0681  0.7621  0.3552
24758SOL    HW275997   7.032   8.531   8.251 -0.5431  0.6945 -1.7686
24759SOL     OW75998   3.149   1.228   3.341 -0.2433  0.0130 -0.3937
24759SOL    HW175999   3.184   1.206   3.254 -1.2455  0.1248 -0.8376
24759SOL    HW276000   3.086   1.159   3.360 -1.0580  0.7368 -0.3838
24760SOL     OW76001   5.783   5.918   5.450  0.3510  0.4485 -0.3221
24760SOL    HW176002   5.733   5.885   5.376 -0.2204  2.5611 -0.9452
24760SOL    HW276003   5.739   5.883   5.527  2.4304 -3.9338 -0.8201
24761SOL     OW76004   0.647   1.718   1.065 -0.0201  0.0725  0.2822
24761SOL    HW176005   0.703   1.795   1.064 -1.7272  1.3948  1.1678
24761SOL    HW276006   0.573   1.741   1.008  0.0786 -1.4618 -0.5368
24762SOL     OW76007   1.548   6.466   0.608 -0.3222  0.3252 -0.7319
24762SOL    HW176008   1.462   6.490   0.641 -0.0418 -0.7340  0.8943
24762SOL    HW276009   1.608   6.526   0.652 -0.2241  1.2832 -2.1137
24763SOL     OW76010   2.225   4.881   5.119 -0.3067  0.2624 -0.1271
24763SOL    HW176011   2.242   4.819   5.190 -3.0300 -2.0085 -1.2419
24763SOL    HW276012   2.312   4.904   5.085  0.9143 -0.9383  1.9738
24764SOL     OW76013   5.351   6.788   8.046 -0.1486  0.1750  0.4899
24764SOL    HW176014   5.412   6.860   8.034 -0.4162  0.1018 -1.5494
24764SOL    HW276015   5.319   6.767   7.958 -1.0284 -1.6036  1.1698
24765SOL     OW76016   5.070   6.994   4.443  0.5382 -0.2908 -0.4848
24765SOL    HW176017   5.164   7.000   4.460  0.6624  1.1364 -1.4501
24765SOL    HW276018   5.056   6.903   4.417  1.3227 -0.9625  1.2954
24766SOL     OW76019   8.885   8.495   5.458 -0.3280  0.0073 -0.7159
24766SOL    HW176020   8.957   8.445   5.496 -1.5993 -0.8443  0.6852
24766SOL    HW276021   8.837   8.432   5.404 -1.4878 -0.1412  0.4344
24767SOL     OW76022   5.008   1.084   3.765 -0.3403 -0.4668 -0.5891
24767SOL    HW176023   4.920   1.057   3.791 -1.4292  3.3667  0.2664
24767SOL    HW276024   5.037   1.142   3.835  3.2621 -2.1103 -0.4913
24768SOL     OW76025   3.497   8.254   3.926 -0.1460 -0.4708 -0.2997
24768SOL    HW176026   3.475   8.290   3.840 -2.2475 -1.9229 -0.4314
24768SOL    HW276027   3.490   8.159   3.915 -2.6282 -0.6611  1.9576
24769SOL     OW76028   6.072   5.181   2.906 -0.2673 -0.1203  0.5208
24769SOL    HW176029   6.077   5.177   2.810  3.2180  0.8868  0.5555
24769SOL    HW276030   6.017   5.257   2.924  1.2396  1.3447 -0.7653
24770SOL     OW76031   9.222   2.037   3.784 -0.1649 -0.3463 -0.1924
24770SOL    HW176032   9.243   1.944   3.779  1.2097 -0.0538 -0.1163
24770SOL    HW276033   9.281   2.072   3.851 -0.3903  0.6552 -0.5002
24771SOL     OW76034   6.074   0.192   5.873  0.0408  0.3051  0.5483
24771SOL    HW176035   6.135   0.131   5.831 -0.3934 -0.7253  1.3612
24771SOL    HW276036   5.987   0.163   5.844 -0.1250  1.1796  0.1397
24772SOL     OW76037   4.920   6.803   4.076 -0.1717  0.8199 -0.1450
24772SOL    HW176038   4.871   6.721   4.080  1.3456 -0.1482 -0.4664
24772SOL    HW276039   4.984   6.797   4.147  1.0098  0.9942 -1.1536
24773SOL     OW76040   0.777   7.093   2.943  0.0523  0.5326  0.2454
24773SOL    HW176041   0.785   7.039   2.865 -2.6346 -0.2088  0.3771
24773SOL    HW276042   0.820   7.042   3.012  0.1079 -0.0682 -0.2286
24774SOL     OW76043   6.783   3.540   0.521  0.0760 -0.3581 -0.3173
24774SOL    HW176044   6.840   3.603   0.476 -0.0690 -1.0774 -1.5406
24774SOL    HW276045   6.829   3.457   0.513 -1.0361 -0.9140 -1.1323
24775SOL     OW76046   8.260   8.206   2.483  0.5970 -0.0261  0.2641
24775SOL    HW176047   8.185   8.162   2.524  0.2192  0.3020 -0.0626
24775SOL    HW276048   8.332   8.144   2.493  0.0372 -0.8214 -0.3454
24776SOL     OW76049   2.234   7.911   0.712 -0.8230 -0.0604  0.0199
24776SOL    HW176050   2.212   7.960   0.633 -0.3519 -0.7288 -0.5348
24776SOL    HW276051   2.197   7.963   0.783 -1.0194  0.6898 -0.6154
24777SOL     OW76052   2.932   5.534   9.073  0.4463  0.0911  0.3889
24777SOL    HW176053   2.925   5.521   9.167  0.1485 -0.0832  0.3432
24777SOL    HW276054   2.848   5.504   9.038  0.1391  1.1842  0.1687
24778SOL     OW76055   5.185   3.230   8.232 -0.0333  0.3664  0.1436
24778SOL    HW176056   5.132   3.223   8.153 -2.1324  1.5397  1.3455
24778SOL    HW276057   5.274   3.242   8.201 -0.2507 -2.4867 -1.9812
24779SOL     OW76058   8.106   6.550   1.225  0.0574 -0.2065  0.2014
24779SOL    HW176059   8.174   6.548   1.157  1.4705  0.6784  1.5527
24779SOL    HW276060   8.145   6.505   1.300 -1.1788 -0.4320  0.7415
24780SOL     OW76061   2.746   4.316   2.713 -0.0072  0.3874 -0.2057
24780SOL    HW176062   2.753   4.311   2.809  0.6078 -1.0840 -0.3023
24780SOL    HW276063   2.833   4.292   2.681 -0.2498  0.7159 -1.1360
24781SOL     OW76064   5.479   9.696   9.393  0.1667 -0.7023  0.1416
24781SOL    HW176065   5.517   9.627   9.338  2.4785  0.8390 -0.3330
24781SOL    HW276066   5.547   9.713   9.459 -0.4768  0.8951  0.4179
24782SOL     OW76067   2.294   0.844   8.634  0.1176 -0.3842 -0.1807
24782SOL    HW176068   2.275   0.934   8.606  0.8168  0.0337  0.6345
24782SOL    HW276069   2.342   0.806   8.560 -1.3317 -0.5489 -1.0901
24783SOL     OW76070   4.212   3.087   1.565  0.4315  0.0323 -0.0681
24783SOL    HW176071   4.178   3.112   1.479 -0.1376  1.9678  0.6769
24783SOL    HW276072   4.135   3.085   1.622  1.2285  2.8632  1.2704
24784SOL     OW76073   2.026   7.932   4.836 -0.0171 -0.2015 -0.2046
24784SOL    HW176074   1.984   7.996   4.779  1.3098  0.7220 -0.1954
24784SOL    HW276075   2.014   7.967   4.925  1.2330  0.3851 -0.2463
24785SOL     OW76076   4.723   5.394   3.475 -0.7051  0.2378  0.0782
24785SOL    HW176077   4.656   5.331   3.501 -3.2670  1.5405 -2.7770
24785SOL    HW276078   4.764   5.356   3.398 -0.0503  0.6826  0.1972
24786SOL     OW76079   6.379   5.138   0.288 -0.1436  0.1994  0.1025
24786SOL    HW176080   6.453   5.084   0.261 -0.7704 -1.0018  0.7159
24786SOL    HW276081   6.413   5.193   0.359 -0.0744 -1.0992  1.1173
24787SOL     OW76082   4.617   0.686   8.038 -0.0978 -0.4172 -0.1907
24787SOL    HW176083   4.652   0.724   7.958 -0.1471 -0.6552 -0.3246
24787SOL    HW276084   4.525   0.713   8.040 -0.0475 -0.2509 -0.1166
24788SOL     OW76085   5.111   8.304   3.599 -0.0195  0.3305 -0.5636
24788SOL    HW176086   5.086   8.396   3.603 -2.2594 -0.1659  3.7320
24788SOL    HW276087   5.188   8.297   3.655  0.7511 -0.3269 -1.6626
24789SOL     OW76088   0.741   5.379   5.711  0.2058 -0.2256 -0.5490
24789SOL    HW176089   0.766   5.308   5.769  0.8527  0.5140  0.0966
24789SOL    HW276090   0.774   5.353   5.625  0.4000 -0.7128 -0.3276
24790SOL     OW76091   1.573   2.883   0.558  0.4922 -0.1928 -0.4317
24790SOL    HW176092   1.533   2.967   0.583 -0.0859 -0.5662 -0.0935
24790SOL    HW276093   1.637   2.866   0.626  1.0546  0.2698 -0.8281
24791SOL     OW76094   6.227   9.545   7.446  1.0350  0.0125  0.4046
24791SOL    HW176095   6.151   9.538   7.504  0.9035 -0.5247  0.1668
24791SOL    HW276096   6.291   9.593   7.498  0.8917 -0.3944  0.9730
24792SOL     OW76097   9.164   2.819   6.063 -0.2483  0.5144  0.3974
24792SOL    HW176098   9.223   2.868   6.120 -0.1727  0.1969  0.5928
24792SOL    HW276099   9.222   2.759   6.016 -0.2117  1.2401 -0.5161
24793SOL     OW76100   7.565   7.099   0.770  0.1583 -0.3123  0.4450
24793SOL    HW176101   7.624   7.144   0.831 -0.4845  0.3047  0.6251
24793SOL    HW276102   7.616   7.024   0.739  1.5540  0.9533 -0.4824
24794SOL     OW76103   9.516   5.253   3.874 -0.7882 -0.0446  0.1060
24794SOL    HW176104   9.514   5.158   3.863 -0.2693 -0.0519  0.0532
24794SOL    HW276105   9.529   5.287   3.786  0.4790  0.0140  0.3045
24795SOL     OW76106   0.764   9.493   5.093 -0.4631  0.0195  0.1914
24795SOL    HW176107   0.849   9.534   5.110 -0.1307 -0.0311 -1.1695
24795SOL    HW276108   0.752   9.431   5.164  0.6479  0.0217  0.4011
24796SOL     OW76109   0.386   0.704   4.050  0.0270  0.0896 -0.7582
24796SOL    HW176110   0.302   0.743   4.026  0.0462  0.2096 -0.6309
24796SOL    HW276111   0.449   0.738   3.986  0.6932  2.7954  1.1825
24797SOL     OW76112   5.488   6.997   8.306 -0.5844  0.1232 -0.0475
24797SOL    HW176113   5.499   6.902   8.308 -0.5317  0.1042 -0.8721
24797SOL    HW276114   5.395   7.011   8.325 -0.1694  0.0429  2.3113
24798SOL     OW76115   5.900   3.798   9.575 -0.2113  1.0246 -0.2786
24798SOL    HW176116   5.847   3.775   9.651 -1.1512  1.6429 -0.7256
24798SOL    HW276117   5.957   3.868   9.606 -0.2297  0.9238 -0.0113
24799SOL     OW76118   9.125   4.887   1.648  0.1746  0.0032 -0.9398
24799SOL    HW176119   9.095   4.977   1.634  0.3376 -0.1277 -2.3343
24799SOL    HW276120   9.220   4.893   1.647  0.1851 -0.1678 -0.9266
24800SOL     OW76121   2.053   4.594   1.439 -0.5494 -0.0498 -0.0951
24800SOL    HW176122   2.060   4.674   1.388  0.6286  0.0364  0.1515
24800SOL    HW276123   1.966   4.597   1.478 -1.6029 -0.2749 -2.3068
24801SOL     OW76124   6.643   6.823   4.433 -0.2040 -0.3079 -0.9220
24801SOL    HW176125   6.616   6.911   4.459  0.6509 -0.5261  0.8438
24801SOL    HW276126   6.575   6.766   4.468  0.8067 -0.5817  0.6804
24802SOL     OW76127   7.279   1.522   5.470  0.7882  0.4358 -0.2267
24802SOL    HW176128   7.329   1.451   5.429 -0.2708  0.5271 -1.7848
24802SOL    HW276129   7.196   1.523   5.421  0.3371  2.0106  0.5214
24803SOL     OW76130   4.475   8.578   1.315  0.1310  0.2390  0.2405
24803SOL    HW176131   4.453   8.491   1.281  1.4107  0.2292 -0.6497
24803SOL    HW276132   4.440   8.639   1.249 -0.2484  0.3851  0.5696
24804SOL     OW76133   2.457   2.780   3.264  0.0444  0.2763 -0.3520
24804SOL    HW176134   2.542   2.756   3.226 -0.1751 -1.9887  0.4385
24804SOL    HW276135   2.468   2.763   3.357 -1.9448 -2.4626 -0.5030
24805SOL     OW76136   6.505   2.475   8.516  0.1032  0.0296  0.2932
24805SOL    HW176137   6.562   2.549   8.497 -1.3264  0.9415 -0.6473
24805SOL    HW276138   6.508   2.420   8.438  1.3993 -1.1193  1.1025
24806SOL     OW76139   8.931   0.710   5.429  0.3065  0.7940 -0.0028
24806SOL    HW176140   8.950   0.649   5.501 -2.3096  0.0245  0.1693
24806SOL    HW276141   8.975   0.791   5.454 -2.6491  1.4835  4.0322
24807SOL     OW76142   6.062   2.018   5.770 -0.0227  0.3036  0.1810
24807SOL    HW176143   6.022   2.024   5.857  0.2706  0.4329  0.3067
24807SOL    HW276144   6.079   1.924   5.758 -0.2698  0.2599  0.1702
24808SOL     OW76145   2.122   5.598   8.200 -0.0310  0.4718  0.0288
24808SOL    HW176146   2.030   5.596   8.229 -0.4899  0.1619 -1.3606
24808SOL    HW276147   2.172   5.608   8.281 -1.3494  2.1842  0.6976
24809SOL     OW76148   2.112   1.405   3.811  0.4325 -0.1987  0.6155
24809SOL    HW176149   2.054   1.376   3.882  0.3069  0.1532  0.6624
24809SOL    HW276150   2.110   1.501   3.817 -0.0958 -0.1372 -0.2672
24810SOL     OW76151   2.941   6.856   3.452  0.0881 -0.1221 -0.1393
24810SOL    HW176152   2.872   6.804   3.494  1.4679 -0.7972  1.3509
24810SOL    HW276153   2.932   6.943   3.491  0.2773 -0.2923  0.2877
24811SOL     OW76154   6.423   3.493   1.628  0.8906 -0.2151  0.0042
24811SOL    HW176155   6.398   3.419   1.684  2.1103  0.3017  1.2989
24811SOL    HW276156   6.353   3.558   1.642  1.7325  0.3781  1.9338
24812SOL     OW76157   5.908   6.367   0.444 -0.3774  0.0209 -0.6338
24812SOL    HW176158   5.967   6.326   0.507 -1.7948 -0.4716  0.4258
24812SOL    HW276159   5.923   6.461   0.454 -0.8794 -0.0375  0.7444
24813SOL     OW76160   6.132   7.393   3.803 -0.0933  0.5810 -0.1709
24813SOL    HW176161   6.097   7.455   3.739 -2.3975  1.0716  1.4263
24813SOL    HW276162   6.064   7.325   3.810  0.1722  0.4354  1.5322
24814SOL     OW76163   4.785   6.981   7.525 -0.0004  0.3417 -0.0762
24814SOL    HW176164   4.736   7.010   7.601 -0.6304 -0.3224 -0.2239
24814SOL    HW276165   4.877   6.983   7.553 -0.1674  0.8681  0.4345
24815SOL     OW76166   9.245   3.898   4.145 -0.2172 -0.3706  0.3910
24815SOL    HW176167   9.232   3.803   4.155  0.0736 -0.1506  4.4397
24815SOL    HW276168   9.326   3.916   4.192 -0.2694  1.9486 -0.2895
24816SOL     OW76169   4.336   5.424   5.502 -0.3156  0.1283  0.5359
24816SOL    HW176170   4.429   5.436   5.520  0.0466 -0.0574 -1.0593
24816SOL    HW276171   4.326   5.445   5.410 -2.1977  1.8730  1.0542
24817SOL     OW76172   7.340   8.490   6.188  0.2439 -0.5355 -0.7940
24817SOL    HW176173   7.316   8.579   6.159 -0.7729 -0.6539 -0.3748
24817SOL    HW276174   7.431   8.479   6.160  1.0649  1.3722  0.8234
24818SOL     OW76175   8.896   9.125   9.114  0.6434 -0.5324  0.0460
24818SOL    HW176176   8.813   9.079   9.130 -0.0017  1.0450  1.5839
24818SOL    HW276177   8.941   9.071   9.049 -2.7405 -0.0564 -3.0308
24819SOL     OW76178   4.019   8.703   7.394  0.5973  0.3307 -0.1853
24819SOL    HW176179   3.949   8.638   7.405  2.5023 -1.6466  1.0371
24819SOL    HW276180   4.070   8.671   7.320  2.5146 -0.5686  1.4461
24820SOL     OW76181   1.643   8.767   6.277  0.6709  0.2531  0.0096
24820SOL    HW176182   1.668   8.858   6.294 -0.3348  0.2422  1.7658
24820SOL    HW276183   1.567   8.752   6.333  1.0984 -1.8020  0.1197
24821SOL     OW76184   7.638   3.803   5.388  0.6104  0.1295 -0.4428
24821SOL    HW176185   7.691   3.880   5.367  1.2098 -0.2783 -0.4710
24821SOL    HW276186   7.611   3.816   5.478  2.9072 -0.8256  0.4742
24822SOL     OW76187   9.118   5.175   2.815 -0.1250  0.3958  0.0427
24822SOL    HW176188   9.085   5.101   2.764 -0.1118  0.0494  0.5215
24822SOL    HW276189   9.091   5.253   2.766  1.8587  0.0675 -1.7501
24823SOL     OW76190   6.685   9.527   1.296  0.1462 -0.2137 -0.3037
24823SOL    HW176191   6.758   9.473   1.264  0.2446 -0.8649  0.9679
24823SOL    HW276192   6.610   9.469   1.296  0.0092 -0.0397  0.0278
24824SOL     OW76193   3.798   7.703   7.315  0.2750 -0.2390  0.5964
24824SOL    HW176194   3.890   7.678   7.304  0.4472 -0.0843  1.5819
24824SOL    HW276195   3.779   7.758   7.239  1.4946  1.0822  1.1854
24825SOL     OW76196   4.689   8.638   2.610 -0.4514  0.4351  0.1685
24825SOL    HW176197   4.762   8.674   2.661 -0.4407  1.5206 -0.5886
24825SOL    HW276198   4.722   8.635   2.520 -0.2531 -2.0218  0.2512
24826SOL     OW76199   6.271   8.233   9.635 -0.2593 -0.3765 -0.3074
24826SOL    HW176200   6.340   8.282   9.679  0.8502 -2.7609  0.7825
24826SOL    HW276201   6.316   8.184   9.566 -1.7025  1.8708 -3.0814
24827SOL     OW76202   0.540   9.089   5.264  0.1595 -0.2703 -0.0021
24827SOL    HW176203   0.472   9.032   5.229  1.3304 -0.7607 -1.5625
24827SOL    HW276204   0.582   9.037   5.333 -2.3378  0.8043  2.5055
24828SOL     OW76205   3.545   2.435   1.852 -0.1237  0.1202  0.1083
24828SOL    HW176206   3.467   2.397   1.893  0.9283 -1.6550  0.5465
24828SOL    HW276207   3.595   2.360   1.820  1.2246  1.2409 -0.5291
24829SOL     OW76208   9.244   8.244   0.790 -0.2493  0.2942 -0.6362
24829SOL    HW176209   9.204   8.320   0.749 -0.2313  0.1313 -0.9611
24829SOL    HW276210   9.337   8.266   0.797 -0.0292 -0.1675 -1.8440
24830SOL     OW76211   0.534   6.090   2.154 -0.4033 -0.4585  0.3849
24830SOL    HW176212   0.567   6.021   2.097 -0.1127 -0.2686  0.3204
24830SOL    HW276213   0.457   6.052   2.197 -0.3981 -0.7305  0.1532
24831SOL     OW76214   3.735   5.845   8.170 -0.4586  0.8100  0.0866
24831SOL    HW176215   3.662   5.815   8.116 -0.4860 -0.7862  0.9479
24831SOL    HW276216   3.797   5.883   8.107 -1.0079  0.0698 -0.9312
24832SOL     OW76217   3.805   4.041   6.546 -0.6922 -0.7011  0.1782
24832SOL    HW176218   3.771   4.053   6.457 -1.9332  0.8507  0.8187
24832SOL    HW276219   3.883   3.988   6.534 -0.0483  0.6057 -1.9948
24833SOL     OW76220   4.648   9.406   7.987  0.2706  0.0118 -0.1482
24833SOL    HW176221   4.681   9.332   8.039 -1.3911 -0.0634  0.8984
24833SOL    HW276222   4.558   9.417   8.018 -0.6909  0.2064 -2.8063
24834SOL     OW76223   1.833   8.525   2.219  0.0771  0.0648  0.2840
24834SOL    HW176224   1.842   8.458   2.151 -0.0670 -0.3843  0.7017
24834SOL    HW276225   1.846   8.478   2.301  1.9654  0.8865  0.5221
24835SOL     OW76226   4.092   8.992   4.933 -0.0157 -0.4248  0.3573
24835SOL    HW176227   4.186   9.008   4.925  0.0560 -0.3901  1.2107
24835SOL    HW276228   4.054   9.034   4.856  0.6221 -0.0254  0.2546
24836SOL     OW76229   2.062   2.002   0.765  0.4572 -0.4567 -0.7634
24836SOL    HW176230   1.989   2.061   0.746  0.3204 -0.9156 -1.7632
24836SOL    HW276231   2.116   2.050   0.827 -0.7960 -0.1943  0.1621
24837SOL     OW76232   4.791   7.528   8.309 -0.2883 -0.4764 -0.2596
24837SOL    HW176233   4.852   7.599   8.290 -1.0182 -0.2333 -1.8376
24837SOL    HW276234   4.745   7.556   8.387 -0.0240  0.4261 -0.4234
24838SOL     OW76235   5.335   8.703   5.591 -0.0102 -0.3467 -0.0256
24838SOL    HW176236   5.298   8.786   5.562  1.9649  0.0398 -1.7439
24838SOL    HW276237   5.282   8.636   5.547 -2.2302 -0.1173  2.1360
24839SOL     OW76238   9.302   4.706   6.176 -0.1116  0.4342 -0.5356
24839SOL    HW176239   9.396   4.700   6.161 -0.0932  1.6166 -1.0168
24839SOL    HW276240   9.263   4.641   6.118  0.4093 -0.1894 -0.1973
24840SOL     OW76241   6.595   3.203   7.103 -0.3072 -0.2418  0.4461
24840SOL    HW176242   6.536   3.213   7.178  1.8226 -0.6785  2.2903
24840SOL    HW276243   6.597   3.109   7.087 -0.4826 -0.1804  0.0500
24841SOL     OW76244   1.330   5.636   1.515  0.5059  0.4635 -0.4999
24841SOL    HW176245   1.252   5.673   1.555 -0.4386 -1.1262 -0.7829
24841SOL    HW276246   1.390   5.621   1.588  0.0318  0.4799 -0.1042
24842SOL     OW76247   4.807   6.461   3.271 -0.2685 -0.6163 -0.0421
24842SOL    HW176248   4.770   6.549   3.276 -0.2413 -0.6354  0.5914
24842SOL    HW276249   4.894   6.473   3.233 -0.4770 -0.4348 -0.4597
24843SOL     OW76250   5.741   4.465   2.785  0.2014  0.3558  0.5991
24843SOL    HW176251   5.834   4.452   2.801  0.1055 -0.3969  0.5791
24843SOL    HW276252   5.700   4.453   2.871 -0.0990 -1.5878  0.2166
24844SOL     OW76253   3.204   1.413   6.000 -0.1809  0.2248  0.2210
24844SOL    HW176254   3.252   1.433   5.920 -0.8285 -0.8638 -0.4620
24844SOL    HW276255   3.272   1.408   6.068  0.5403 -0.2242 -0.5208
24845SOL     OW76256   9.368   6.642   2.954  0.0125 -0.0683 -0.1364
24845SOL    HW176257   9.361   6.736   2.939 -0.1676  0.0569  0.6820
24845SOL    HW276258   9.287   6.620   3.001  1.2528 -0.1258  2.1060
24846SOL     OW76259   8.756   4.385   6.913 -0.0604  0.6312 -0.4019
24846SOL    HW176260   8.754   4.348   7.001  1.9388 -0.5598 -0.7987
24846SOL    HW276261   8.737   4.311   6.856 -1.8284  1.4895 -1.0091
24847SOL     OW76262   1.042   4.828   2.424 -0.4539  0.1396 -0.5148
24847SOL    HW176263   1.053   4.920   2.447 -2.3379  0.0119  1.1782
24847SOL    HW276264   0.948   4.816   2.417 -0.2138 -1.5070 -1.4244
24848SOL     OW76265   6.768   3.938   5.627  0.1106  0.0854  0.1782
24848SOL    HW176266   6.771   3.851   5.667 -1.9893  0.1751  0.6629
24848SOL    HW276267   6.779   3.999   5.701  0.9223  0.2415 -0.0661
24849SOL     OW76268   5.969   8.660   5.028  0.2564  0.1584  0.1975
24849SOL    HW176269   5.918   8.580   5.019 -0.2961  0.2513  2.0828
24849SOL    HW276270   5.931   8.720   4.963  1.0641 -1.2378 -1.6495
24850SOL     OW76271   6.194   5.946   7.938 -0.2855 -0.2724 -0.1000
24850SOL    HW176272   6.255   5.975   7.870 -2.2588  1.1225 -1.3798
24850SOL    HW276273   6.182   5.853   7.922  2.7908 -1.0426  1.3194
24851SOL     OW76274   4.458   2.826   5.899 -0.0806 -0.5325  0.5931
24851SOL    HW176275   4.515   2.816   5.975  0.4133 -1.4198  0.1150
24851SOL    HW276276   4.454   2.739   5.860  1.5205  0.3023 -1.7022
24852SOL     OW76277   0.864   5.258   5.942 -0.4751 -0.3138 -0.6041
24852SOL    HW176278   0.911   5.303   6.012 -1.3642  0.2139 -0.3288
24852SOL    HW276279   0.929   5.246   5.873  0.1447  0.0941 -0.0993
24853SOL     OW76280   8.570   5.791   3.496 -0.2667  0.0004 -0.3214
24853SOL    HW176281   8.506   5.735   3.540  0.8136 -0.5560  0.5816
24853SOL    HW276282   8.598   5.741   3.420 -0.9833  0.3042 -0.7992
24854SOL     OW76283   5.682   4.130   9.450  0.4816 -0.1317 -0.6543
24854SOL    HW176284   5.776   4.136   9.431  0.7726  0.2686  0.7430
24854SOL    HW276285   5.639   4.149   9.367  1.6339 -1.5005 -1.5978
24855SOL     OW76286   4.604   3.365   4.348 -0.0512  0.6603  0.2891
24855SOL    HW176287   4.681   3.316   4.379 -0.8781 -0.4628  0.6117
24855SOL    HW276288   4.580   3.421   4.421  0.6746  1.3204  0.0487
24856SOL     OW76289   7.232   6.741   6.579 -0.2992 -0.2215  0.2053
24856SOL    HW176290   7.198   6.719   6.666 -0.6855  2.0820  0.6984
24856SOL    HW276291   7.327   6.752   6.593 -0.3539  0.1003  0.3338
24857SOL     OW76292   7.443   0.297   3.734  0.0772 -0.1441  0.3378
24857SOL    HW176293   7.438   0.387   3.703  0.2090 -0.4262 -0.5583
24857SOL    HW276294   7.534   0.272   3.719  0.2091 -0.2118  1.2206
24858SOL     OW76295   2.965   5.545   1.346  0.2042  0.0893 -0.2743
24858SOL    HW176296   2.958   5.640   1.357 -1.0345 -0.1806  1.8683
24858SOL    HW276297   2.887   5.521   1.296  0.9917  0.2546 -1.6419
24859SOL     OW76298   3.139   3.942   7.646 -0.0161  0.4568 -0.0017
24859SOL    HW176299   3.231   3.965   7.632  0.6222 -0.8958  1.6111
24859SOL    HW276300   3.111   3.999   7.718  0.0308 -0.1735  0.5241
24860SOL     OW76301   4.781   4.331   0.892  0.0028 -0.0209 -0.2529
24860SOL    HW176302   4.758   4.417   0.926 -1.7221  0.5329 -2.5347
24860SOL    HW276303   4.698   4.282   0.892 -0.3751  0.2735 -3.9952
24861SOL     OW76304   9.256   0.934   8.125  0.0900  0.0880 -0.3203
24861SOL    HW176305   9.258   0.846   8.089 -3.5858  0.0720 -0.9136
24861SOL    HW276306   9.231   0.923   8.217  1.0325  0.4885 -0.0001
24862SOL     OW76307   1.444   4.422   5.614  0.4477  0.9540 -0.2560
24862SOL    HW176308   1.440   4.363   5.690  2.3863  0.2255 -0.6607
24862SOL    HW276309   1.480   4.504   5.649  2.7985  0.1388 -0.5647
24863SOL     OW76310   9.069   6.670   3.802 -0.0008  0.1961 -0.3858
24863SOL    HW176311   9.047   6.585   3.763 -0.0359 -0.3948  0.8632
24863SOL    HW276312   9.080   6.651   3.895  1.6623  1.2422 -0.3276
24864SOL     OW76313   0.864   7.569   7.410 -0.3075 -0.1883  0.0640
24864SOL    HW176314   0.871   7.653   7.455  0.6822 -0.7163  0.9255
24864SOL    HW276315   0.874   7.504   7.480 -0.4760 -1.0262 -0.6814
24865SOL     OW76316   0.316   3.146   4.001  0.3620 -0.1242  0.1944
24865SOL    HW176317   0.364   3.100   3.932  0.9704 -0.0510  0.5611
24865SOL    HW276318   0.372   3.139   4.078 -0.4897 -0.5568  0.7970
24866SOL     OW76319   1.166   9.424   8.931 -0.1010 -0.3028 -0.4914
24866SOL    HW176320   1.182   9.338   8.892  0.2891  1.0753 -3.6354
24866SOL    HW276321   1.070   9.428   8.940 -0.0366 -1.7324  1.5659
24867SOL     OW76322   1.922   0.270   6.841  0.2793  0.1774 -0.6476
24867SOL    HW176323   1.856   0.201   6.835 -0.7074  0.9211  1.1642
24867SOL    HW276324   1.983   0.239   6.908 -0.4176  1.2187  0.5079
24868SOL     OW76325   6.854   9.308   3.570 -0.6199 -0.0601 -0.0587
24868SOL    HW176326   6.949   9.313   3.561 -0.5289  0.1782  0.8856
24868SOL    HW276327   6.827   9.395   3.600 -0.9073 -0.6243  1.4005
24869SOL     OW76328   2.186   8.517   0.532 -0.0030 -0.3806 -0.0869
24869SOL    HW176329   2.176   8.549   0.443 -0.4078  1.7532  0.6654
24869SOL    HW276330   2.279   8.530   0.551 -0.3600  1.6306  0.5976
24870SOL     OW76331   2.843   1.355   1.269 -0.4606  0.1111  0.2291
24870SOL    HW176332   2.915   1.398   1.316  2.1654 -2.9462 -0.6345
24870SOL    HW276333   2.800   1.301   1.336 -1.5726  1.3829  0.5854
24871SOL     OW76334   1.153   6.549   7.148 -0.2803  0.6063  0.2466
24871SOL    HW176335   1.069   6.584   7.118 -0.8522  0.6697  1.8394
24871SOL    HW276336   1.145   6.454   7.136  0.1467  0.7391 -1.3092
24872SOL     OW76337   2.462   6.907   8.207 -0.2294  0.1204 -0.3492
24872SOL    HW176338   2.494   6.987   8.247 -0.6039  0.4599 -0.7246
24872SOL    HW276339   2.541   6.865   8.171  0.6032 -1.5873  3.0680
24873SOL     OW76340   3.994   4.012   1.402  0.1233  0.4796  0.0254
24873SOL    HW176341   4.055   4.036   1.471  1.3152  1.5890 -1.3492
24873SOL    HW276342   3.908   4.034   1.437  0.7921  2.1180  0.7382
24874SOL     OW76343   9.439   9.575   5.420 -0.5562  0.2816 -0.4811
24874SOL    HW176344   9.362   9.536   5.378 -1.5722  1.0961  0.5821
24874SOL    HW276345   9.501   9.589   5.348 -1.8614  0.7275 -1.5451
24875SOL     OW76346   0.021   6.362   6.822  0.3524  0.1520 -0.5680
24875SOL    HW176347  -0.062   6.340   6.780  0.1911 -0.2788 -0.0338
24875SOL    HW276348   0.014   6.455   6.842 -0.2338 -0.0133 -0.0044
24876SOL     OW76349   5.735   8.951   6.577  0.1218 -0.0181  0.5996
24876SOL    HW176350   5.720   9.034   6.532 -1.3678  0.6415  2.1829
24876SOL    HW276351   5.654   8.901   6.563  1.3315 -1.6209 -1.0723
24877SOL     OW76352   0.914   0.105   9.015 -0.4765 -0.2968  0.6662
24877SOL    HW176353   0.981   0.093   9.083 -2.2091 -1.1133  2.3132
24877SOL    HW276354   0.853   0.033   9.029 -0.4722 -1.0121 -2.3720
24878SOL     OW76355   5.374   2.636   5.409  0.3438  0.3519  0.7894
24878SOL    HW176356   5.309   2.572   5.382  0.8816 -0.2775  0.9484
24878SOL    HW276357   5.444   2.629   5.344  0.0940  1.2863  0.4064
24879SOL     OW76358   5.357   3.826   2.202  0.1891 -0.0183  0.7909
24879SOL    HW176359   5.361   3.854   2.294  0.8214  0.2279  0.6935
24879SOL    HW276360   5.284   3.876   2.165  0.6125  0.6893  0.8948
24880SOL     OW76361   2.392   4.313   6.925 -0.5068  1.1806 -0.1421
24880SOL    HW176362   2.419   4.226   6.894 -1.1272  0.9812 -0.1344
24880SOL    HW276363   2.471   4.367   6.914 -0.1701  0.6684 -0.3308
24881SOL     OW76364   6.528   4.510   1.064 -0.0220  0.3339 -0.0507
24881SOL    HW176365   6.551   4.596   1.100 -0.5550  0.2441  0.5145
24881SOL    HW276366   6.437   4.497   1.088  0.0569 -0.4016 -0.1247
24882SOL     OW76367   6.808   5.000   1.234 -0.1000  0.0247  0.8139
24882SOL    HW176368   6.830   5.061   1.163  0.6209 -0.4666  0.5988
24882SOL    HW276369   6.737   5.042   1.281  0.5059  1.1222  0.7750
24883SOL     OW76370   9.277   2.155   4.242  0.5280 -0.3011 -0.3386
24883SOL    HW176371   9.271   2.178   4.150 -0.8326  2.1094  0.2757
24883SOL    HW276372   9.326   2.227   4.282  1.3804 -1.4580  0.8142
24884SOL     OW76373   3.614   9.063   3.570 -0.4632  0.0981 -0.4630
24884SOL    HW176374   3.590   8.977   3.535 -1.4282 -0.2375  0.9165
24884SOL    HW276375   3.702   9.050   3.607 -0.6939 -0.3750 -0.0598
24885SOL     OW76376   2.485   5.595   1.383 -0.0646 -0.2709  0.8202
24885SOL    HW176377   2.470   5.652   1.309 -1.1273 -1.4864  0.0572
24885SOL    HW276378   2.403   5.546   1.394 -0.2842  0.4919  3.3737
24886SOL     OW76379   3.458   7.284   2.071 -0.3063 -0.1655  0.4415
24886SOL    HW176380   3.535   7.227   2.059  1.2861  1.6564  1.4525
24886SOL    HW276381   3.460   7.342   1.994 -0.3616  0.2053  0.7180
24887SOL     OW76382   5.236   8.789   0.170 -0.0280 -0.7272  0.4365
24887SOL    HW176383   5.190   8.725   0.223  0.0620  0.4196  1.9627
24887SOL    HW276384   5.312   8.741   0.134  0.5376 -1.2614  2.2605
24888SOL     OW76385   3.098   0.305   7.988 -0.1488  0.2220 -0.6620
24888SOL    HW176386   3.022   0.337   8.037 -1.4425 -0.9696 -1.8186
24888SOL    HW276387   3.127   0.380   7.937 -0.1518  0.8574  0.2396
24889SOL     OW76388   3.392   4.474   6.982 -0.0429 -0.2919 -0.4440
24889SOL    HW176389   3.381   4.379   6.981  0.8723 -0.4365 -2.4033
24889SOL    HW276390   3.485   4.488   6.999  0.0114  0.1975 -1.0832
24890SOL     OW76391   0.774   0.913   0.320 -0.0968 -0.2297 -0.4364
24890SOL    HW176392   0.863   0.948   0.319  0.4376 -1.5126 -0.7199
24890SOL    HW276393   0.728   0.962   0.252  1.2471 -1.5530 -2.3976
24891SOL     OW76394   7.235   5.209   6.918  0.2067 -0.5307 -0.2045
24891SOL    HW176395   7.223   5.301   6.944 -0.2112 -0.1930 -1.5122
24891SOL    HW276396   7.302   5.213   6.849  0.0140 -1.1768 -0.4326
24892SOL     OW76397   0.118   8.399   9.506  0.1406  0.0833 -0.0088
24892SOL    HW176398   0.129   8.472   9.445 -1.3933 -0.6768 -1.2646
24892SOL    HW276399   0.049   8.428   9.566 -0.9444 -0.5706 -0.9232
24893SOL     OW76400   6.593   8.330   7.018  0.3242  0.3618 -0.1356
24893SOL    HW176401   6.677   8.286   7.029  0.2519  0.0777 -0.6808
24893SOL    HW276402   6.528   8.266   7.048  0.1781 -0.1449 -1.4310
24894SOL     OW76403   2.284   6.478   5.158 -0.0406 -0.6910 -0.1033
24894SOL    HW176404   2.300   6.544   5.090 -1.0285 -1.3992 -1.0650
24894SOL    HW276405   2.321   6.397   5.121  0.3259 -0.8806  0.6621
24895SOL     OW76406   9.001   0.927   5.114 -0.4142  0.6550  0.3602
24895SOL    HW176407   8.962   0.842   5.134  2.2350 -0.9113 -0.6374
24895SOL    HW276408   8.963   0.952   5.029 -1.3429  0.6035  0.7482
24896SOL     OW76409   4.388   4.206   1.322 -0.4064 -0.6764  0.5491
24896SOL    HW176410   4.411   4.156   1.400 -2.6453  1.5785  2.8645
24896SOL    HW276411   4.453   4.276   1.319  0.2815 -1.3354 -0.2523
24897SOL     OW76412   9.696   7.693   7.752 -0.4581  0.2279  0.4811
24897SOL    HW176413   9.791   7.682   7.756 -0.3139  1.3890  0.6195
24897SOL    HW276414   9.661   7.605   7.768  0.5653  0.1169  2.4168
24898SOL     OW76415   1.777   0.232   3.686 -0.3356  0.2220  0.3397
24898SOL    HW176416   1.691   0.190   3.686 -0.8484  1.2224  0.3021
24898SOL    HW276417   1.812   0.217   3.599 -1.1533  1.1107 -0.1610
24899SOL     OW76418   8.217   5.897   9.029 -0.0512 -0.3895 -0.3594
24899SOL    HW176419   8.204   5.914   8.936  0.7979  1.2620 -0.2120
24899SOL    HW276420   8.154   5.954   9.073  2.7539  2.5986  0.1463
24900SOL     OW76421   6.347   1.236   0.975  0.0312  0.5529 -0.3673
24900SOL    HW176422   6.329   1.293   0.900 -0.4999 -0.6038 -1.1590
24900SOL    HW276423   6.354   1.148   0.937 -0.6708 -0.1228  0.9740
24901SOL     OW76424   1.428   8.786   6.425 -0.5677 -0.1538  0.5895
24901SOL    HW176425   1.374   8.864   6.440  0.1344  0.4444  0.0972
24901SOL    HW276426   1.394   8.721   6.486 -0.7845  0.7229  1.4276
24902SOL     OW76427   1.782   3.960   3.883  0.1304  0.6292  0.1776
24902SOL    HW176428   1.691   3.984   3.902 -0.0313 -1.6017  2.9326
24902SOL    HW276429   1.777   3.905   3.805 -0.6261  1.8579 -0.6704
24903SOL     OW76430   1.766   0.562   2.444  0.2540  0.1978  0.2915
24903SOL    HW176431   1.848   0.543   2.398 -0.0522 -2.1811  0.5948
24903SOL    HW276432   1.786   0.639   2.497  1.7959  0.6232 -0.8249
24904SOL     OW76433   8.850   2.862   4.305  0.0623  0.1432  0.0657
24904SOL    HW176434   8.762   2.831   4.326 -0.3789  1.5260  0.3547
24904SOL    HW276435   8.881   2.904   4.386  1.6202 -1.6740  0.4792
24905SOL     OW76436   8.870   3.848   3.482  0.4283  0.4022  0.5710
24905SOL    HW176437   8.932   3.821   3.550 -0.6406  0.1926  1.4821
24905SOL    HW276438   8.797   3.787   3.491  0.1151  0.5999 -0.5378
24906SOL     OW76439   4.596   1.727   5.699  0.5079 -0.2705 -0.3142
24906SOL    HW176440   4.687   1.713   5.724  1.1530  2.0670 -1.0764
24906SOL    HW276441   4.592   1.819   5.671 -2.1621 -0.1882  0.0096
24907SOL     OW76442   5.894   2.483   2.533  0.0337  0.0064  0.0218
24907SOL    HW176443   5.937   2.398   2.519  1.1940  0.4946  0.4410
24907SOL    HW276444   5.951   2.528   2.595 -0.9111  0.8493  0.3017
24908SOL     OW76445   1.622   3.093   1.297  0.0205  0.1856  0.5362
24908SOL    HW176446   1.717   3.104   1.287  0.0314 -1.3712 -1.7788
24908SOL    HW276447   1.607   3.105   1.391  2.5357  0.3061  1.0027
24909SOL     OW76448   2.582   0.518   8.964 -0.4378 -0.0274 -0.2882
24909SOL    HW176449   2.660   0.516   8.908  0.4124 -0.5249  0.8860
24909SOL    HW276450   2.542   0.603   8.945  1.7593  1.3811  0.8494
24910SOL     OW76451   2.014   2.428   1.945  0.4515 -0.2464  1.2086
24910SOL    HW176452   1.980   2.517   1.930  1.0903 -0.4112 -2.1253
24910SOL    HW276453   2.106   2.433   1.917  0.3771 -2.0198  0.4949
24911SOL     OW76454   6.908   3.474   2.700 -0.4807 -0.1843 -0.1394
24911SOL    HW176455   6.829   3.510   2.659 -1.2507  0.2022  1.6030
24911SOL    HW276456   6.980   3.523   2.660 -1.3463  1.6607  0.4445
24912SOL     OW76457   5.150   7.095   6.707 -0.5056  0.5768 -0.3529
24912SOL    HW176458   5.234   7.135   6.729 -0.6989  0.6853  0.2129
24912SOL    HW276459   5.090   7.168   6.698 -0.1588  0.6577 -2.6610
24913SOL     OW76460   7.630   9.209   5.487  0.1510 -0.4045  0.3809
24913SOL    HW176461   7.585   9.265   5.425 -0.2232  0.9864  1.8459
24913SOL    HW276462   7.712   9.186   5.444  1.2736  2.9673  0.4918
24914SOL     OW76463   6.500   6.726   9.053 -0.4155  1.0877  0.1984
24914SOL    HW176464   6.560   6.664   9.095 -1.0462 -0.3900 -0.9890
24914SOL    HW276465   6.519   6.810   9.095  1.1806  0.3004  1.1445
24915SOL     OW76466   2.840   6.673   6.188  0.2004  0.7692 -0.4890
24915SOL    HW176467   2.835   6.722   6.106 -0.4546  0.2861 -0.7457
24915SOL    HW276468   2.914   6.613   6.174  1.7409  2.3921  0.2479
24916SOL     OW76469   6.977   4.407   3.954  0.8053  0.4534 -0.0427
24916SOL    HW176470   6.983   4.459   4.035 -0.5846 -0.4442  0.6799
24916SOL    HW276471   6.948   4.321   3.984  0.1962  0.1247 -1.5229
24917SOL     OW76472   6.257   7.879   0.746 -0.2567  0.5775  0.3972
24917SOL    HW176473   6.319   7.898   0.676 -0.8276 -1.8635 -0.8905
24917SOL    HW276474   6.311   7.875   0.825  0.8953  0.5110 -0.3621
24918SOL     OW76475   0.231   6.728   3.600  0.0278  0.3718  0.0765
24918SOL    HW176476   0.266   6.778   3.526  0.6599  3.1948  2.0992
24918SOL    HW276477   0.136   6.729   3.587  0.2108 -0.6650 -1.5177
24919SOL     OW76478   0.135   3.962   6.176 -0.4965 -0.0429 -0.1654
24919SOL    HW176479   0.132   3.968   6.080 -0.5347 -0.8420 -0.2206
24919SOL    HW276480   0.071   3.894   6.197  0.1668 -0.5132  0.3647
24920SOL     OW76481   1.961   2.178   6.073 -0.0925  0.0458  0.1970
24920SOL    HW176482   2.038   2.128   6.099  0.6021  0.0194 -1.7770
24920SOL    HW276483   1.918   2.123   6.007 -1.6959  0.1697  1.0842
24921SOL     OW76484   8.981   4.730   2.652 -0.2169 -0.1610  0.6484
24921SOL    HW176485   8.947   4.707   2.739  0.0451 -0.4864  0.6639
24921SOL    HW276486   8.903   4.756   2.602 -0.8436 -2.9689 -0.0006
24922SOL     OW76487   1.181   0.236   1.081  0.0177  0.6232 -0.2605
24922SOL    HW176488   1.179   0.331   1.083  2.7614  0.7328  0.5056
24922SOL    HW276489   1.222   0.214   0.998  1.8868  0.2480  0.7201
24923SOL     OW76490   8.625   3.054   4.102  0.0160 -0.2893  0.3380
24923SOL    HW176491   8.532   3.064   4.124 -0.5038 -2.4797 -0.5378
24923SOL    HW276492   8.636   2.960   4.089  2.5742 -0.1917  1.1980
24924SOL     OW76493   6.597   1.009   9.062 -0.5581 -0.1953 -0.7055
24924SOL    HW176494   6.548   1.019   9.144 -1.1620  2.7782 -1.3158
24924SOL    HW276495   6.689   1.005   9.090 -0.7975  0.0324  0.1619
24925SOL     OW76496   9.233   5.645   3.165  0.0471 -0.5172 -0.0791
24925SOL    HW176497   9.240   5.735   3.196 -0.9696 -0.7000  0.7683
24925SOL    HW276498   9.219   5.652   3.071  1.1622  0.1426 -0.2151
24926SOL     OW76499   5.010   3.956   7.324 -0.3276  0.3692  0.2170
24926SOL    HW176500   5.018   4.043   7.285 -1.2721 -0.1763 -1.2960
24926SOL    HW276501   4.917   3.935   7.315 -0.8209  0.5040  3.5610
24927SOL     OW76502   0.189   8.740   9.035 -0.2912  0.5380  0.2880
24927SOL    HW176503   0.180   8.769   8.944  0.9877 -0.6562 -0.2571
24927SOL    HW276504   0.171   8.819   9.086 -1.9658  1.0171 -0.9345
24928SOL     OW76505   0.770   1.770   6.281 -0.6730  0.4507  0.0829
24928SOL    HW176506   0.695   1.712   6.285  0.4377 -1.1230 -0.6598
24928SOL    HW276507   0.813   1.761   6.366 -0.2689 -0.1748 -0.1798
24929SOL     OW76508   7.286   5.740   9.220 -0.5748 -0.0624 -0.2205
24929SOL    HW176509   7.262   5.790   9.298  0.2401 -0.4425  0.2784
24929SOL    HW276510   7.376   5.711   9.236 -0.9623 -1.5449 -0.5708
24930SOL     OW76511   3.035   4.570   8.567 -0.4706 -0.0255  0.2908
24930SOL    HW176512   2.944   4.543   8.580 -1.2454  0.1568 -3.5283
24930SOL    HW276513   3.083   4.488   8.557 -0.3390 -0.1080  1.5044
24931SOL     OW76514   8.459   7.336   9.010 -0.1925  0.6681  0.1227
24931SOL    HW176515   8.525   7.304   8.949  0.3180  2.5888 -0.3937
24931SOL    HW276516   8.399   7.262   9.022  0.4931 -0.2044 -1.5743
24932SOL     OW76517   4.442   6.975   3.736  0.4969 -0.3800 -0.8098
24932SOL    HW176518   4.512   6.914   3.757  1.5628  1.5047  1.7470
24932SOL    HW276519   4.485   7.060   3.727 -1.2677  0.5780 -0.8100
24933SOL     OW76520   3.200   1.381   1.344 -0.2644 -0.3589  0.7815
24933SOL    HW176521   3.245   1.316   1.291 -0.0659  0.5990 -0.2626
24933SOL    HW276522   3.179   1.336   1.426  2.3628 -0.9356  1.2291
24934SOL     OW76523   2.982   8.237   1.747  0.2874  0.0424  0.1736
24934SOL    HW176524   2.915   8.303   1.764 -0.1349  0.1587 -1.6877
24934SOL    HW276525   3.035   8.275   1.677  1.8980 -0.3441  1.1344
24935SOL     OW76526   0.410   4.657   9.599  0.1653  0.0892 -0.4417
24935SOL    HW176527   0.336   4.688   9.652 -1.0588 -0.2474 -1.8753
24935SOL    HW276528   0.481   4.646   9.662 -1.3545 -0.7850  1.2286
24936SOL     OW76529   8.856   5.977   2.245 -0.1305  0.2978  0.3901
24936SOL    HW176530   8.794   5.904   2.245  0.5890 -0.3304  0.9994
24936SOL    HW276531   8.921   5.954   2.312  1.5860  0.2542 -1.2188
24937SOL     OW76532   1.546   5.127   6.202 -0.1843 -0.7283  0.0914
24937SOL    HW176533   1.635   5.162   6.198 -0.1617 -0.7640  0.2693
24937SOL    HW276534   1.494   5.186   6.148 -0.1976 -0.2635  0.6055
24938SOL     OW76535   4.533   5.793   9.291 -0.1349  0.3332 -0.0254
24938SOL    HW176536   4.457   5.741   9.315 -1.2032  1.7036 -0.3443
24938SOL    HW276537   4.501   5.884   9.288  1.6806  1.0497  0.6271
24939SOL     OW76538   9.552   6.849   4.999  0.2310 -0.5365  0.8794
24939SOL    HW176539   9.612   6.903   5.051 -0.1586  0.8316 -0.0195
24939SOL    HW276540   9.525   6.907   4.927 -1.2802 -1.5005  0.6356
24940SOL     OW76541   2.605   7.423   2.984 -0.1237  0.5847 -0.0451
24940SOL    HW176542   2.561   7.424   3.069  2.4451  1.6545  1.4042
24940SOL    HW276543   2.634   7.332   2.973 -2.2471 -0.0485 -0.8546
24941SOL     OW76544   5.932   2.082   0.984 -0.0501 -0.2734  0.4984
24941SOL    HW176545   5.937   2.140   0.908 -1.6699  0.2779  0.7955
24941SOL    HW276546   5.990   2.009   0.961 -2.4687 -1.4708 -2.5048
24942SOL     OW76547   3.448   1.563   6.411  0.1945  0.2594 -0.0518
24942SOL    HW176548   3.457   1.619   6.334  0.2663 -0.8229 -0.8368
24942SOL    HW276549   3.528   1.510   6.412  0.4512  0.6316  1.0777
24943SOL     OW76550   1.021   3.218   2.994  0.2651  0.0844  0.6212
24943SOL    HW176551   0.935   3.210   3.035  0.3054  0.2394  0.7380
24943SOL    HW276552   1.006   3.271   2.916  0.0295 -0.9429 -0.0562
24944SOL     OW76553   8.327   3.236   6.838  0.0871 -0.0015  0.4225
24944SOL    HW176554   8.321   3.184   6.757 -0.8094  1.3078 -0.3926
24944SOL    HW276555   8.340   3.326   6.807 -0.1770  0.5084  1.7448
24945SOL     OW76556   1.851   3.445   2.053  0.1581 -0.2886  0.0316
24945SOL    HW176557   1.935   3.487   2.033 -0.8255  1.1784 -1.2533
24945SOL    HW276558   1.870   3.388   2.128  2.3010 -0.0563 -0.2662
24946SOL     OW76559   8.584   9.569   5.747 -0.2748 -0.2321  0.0298
24946SOL    HW176560   8.566   9.475   5.756  0.0428 -0.3216 -0.2569
24946SOL    HW276561   8.525   9.610   5.810 -0.2166 -0.6427  0.3592
24947SOL     OW76562   2.783   8.460   0.382  0.0245  0.0768  0.1150
24947SOL    HW176563   2.701   8.473   0.334  1.1055  0.5623 -1.6949
24947SOL    HW276564   2.762   8.486   0.472 -2.1302 -1.0632  0.0060
24948SOL     OW76565   2.343   0.007   0.233 -0.0944 -0.0032 -0.2277
24948SOL    HW176566   2.380  -0.081   0.237 -1.2864 -0.5851 -1.3760
24948SOL    HW276567   2.285   0.006   0.157 -1.2394  1.3439  0.5697
24949SOL     OW76568   7.848   7.661   7.314  0.0702  0.5561  0.0127
24949SOL    HW176569   7.805   7.631   7.235 -0.7079  1.8694 -0.0952
24949SOL    HW276570   7.777   7.684   7.374  0.6388 -0.4658  1.1337
24950SOL     OW76571   7.159   2.991   5.802  0.2460  0.1883 -0.1748
24950SOL    HW176572   7.080   3.025   5.761  0.3088 -0.4558 -0.8476
24950SOL    HW276573   7.177   2.909   5.756 -0.5967 -1.4289  2.1834
24951SOL     OW76574   3.782   7.279   6.439 -0.0083 -0.4418  0.2317
24951SOL    HW176575   3.770   7.239   6.353  0.3438 -0.2432  0.0882
24951SOL    HW276576   3.741   7.218   6.500  0.3873 -0.9495 -0.0017
24952SOL     OW76577   1.651   6.572   9.005  0.0243  0.3206  0.1797
24952SOL    HW176578   1.674   6.485   9.037 -0.2119  0.6009  1.1539
24952SOL    HW276579   1.597   6.609   9.074 -1.6472  0.4616 -1.1197
24953SOL     OW76580   7.463   1.558   5.919 -0.8005 -0.1443  0.2340
24953SOL    HW176581   7.375   1.594   5.913 -0.3868  1.2037  1.5028
24953SOL    HW276582   7.478   1.516   5.834 -1.8421  1.5158 -0.8241
24954SOL     OW76583   7.617   4.900   9.620 -0.2933  0.2075  0.1785
24954SOL    HW176584   7.699   4.907   9.573 -0.1362  0.2916  0.4601
24954SOL    HW276585   7.575   4.822   9.584 -0.2037  0.3026 -0.1370
24955SOL     OW76586   7.320   6.173   3.902  0.4308 -0.7264 -0.4900
24955SOL    HW176587   7.265   6.179   3.824 -0.1882  1.2484  0.0579
24955SOL    HW276588   7.276   6.228   3.967  1.2054 -1.9057  1.1081
24956SOL     OW76589   6.764   8.489   6.200  0.1414 -0.0133 -0.0698
24956SOL    HW176590   6.832   8.424   6.184  0.4252  0.6731 -1.9419
24956SOL    HW276591   6.715   8.493   6.117 -1.8730 -0.1150  1.0426
24957SOL     OW76592   4.634   7.685   4.493 -0.1224  0.6884  0.0239
24957SOL    HW176593   4.545   7.702   4.462 -0.1949  0.0496 -0.1268
24957SOL    HW276594   4.628   7.601   4.539  0.0243  1.5062  1.6239
24958SOL     OW76595   4.928   5.907   6.853 -0.0079 -0.7293 -0.1699
24958SOL    HW176596   5.005   5.906   6.797 -0.5727 -0.6554 -0.9647
24958SOL    HW276597   4.957   5.951   6.933  0.5469  0.0418 -0.7868
24959SOL     OW76598   9.167   5.046   5.829  0.1833  0.5389 -0.5094
24959SOL    HW176599   9.191   5.108   5.761  1.0734 -0.1168 -0.8020
24959SOL    HW276600   9.231   5.061   5.899  0.6381 -0.2911 -0.7358
24960SOL     OW76601   5.696   0.881   2.990  0.7842 -0.0930  0.0258
24960SOL    HW176602   5.655   0.856   3.073  0.7773  1.1427  0.4161
24960SOL    HW276603   5.712   0.798   2.945 -1.4807 -0.6888  0.1618
24961SOL     OW76604   7.447   1.764   0.834 -0.7319  0.3439 -0.1549
24961SOL    HW176605   7.449   1.828   0.905 -1.5955 -0.1083  0.2824
24961SOL    HW276606   7.388   1.695   0.864 -0.0395 -0.5386 -0.7314
24962SOL     OW76607   0.668   1.877   1.999 -0.1917  0.0503 -0.1714
24962SOL    HW176608   0.689   1.803   1.943  1.1041 -0.1351  0.5295
24962SOL    HW276609   0.753   1.917   2.019 -0.6644  0.4109  1.2415
24963SOL     OW76610   3.649   2.129   6.496  0.2400 -0.1069 -0.7083
24963SOL    HW176611   3.703   2.068   6.446 -0.0562  0.4374 -1.7215
24963SOL    HW276612   3.702   2.208   6.505  0.1677 -0.0867 -0.4453
24964SOL     OW76613   6.744   6.455   0.138  0.5276 -0.4976 -0.1366
24964SOL    HW176614   6.791   6.533   0.110  0.0801  0.1534  0.8864
24964SOL    HW276615   6.806   6.407   0.193  1.0208 -1.2074 -1.2770
24965SOL     OW76616   8.813   6.011   8.885  0.0457  0.4369  0.4747
24965SOL    HW176617   8.815   5.928   8.838  1.6955  0.3811  0.5871
24965SOL    HW276618   8.864   5.995   8.964  0.6126  1.6140  0.3712
24966SOL     OW76619   6.447   7.011   8.534  0.5008  0.0254  0.8069
24966SOL    HW176620   6.502   7.018   8.612 -0.5775 -1.7393  1.7822
24966SOL    HW276621   6.363   7.047   8.559 -0.4631 -2.2981  1.1666
24967SOL     OW76622   7.211   6.700   6.173 -0.4517  0.9020  0.1665
24967SOL    HW176623   7.304   6.718   6.183 -0.9431  2.9784  1.6727
24967SOL    HW276624   7.170   6.742   6.249 -2.4432 -1.6902  0.6571
24968SOL     OW76625   4.422   7.440   2.903  0.6711  0.0412 -0.2865
24968SOL    HW176626   4.492   7.392   2.859  1.0790  0.7540 -0.4212
24968SOL    HW276627   4.342   7.411   2.859  0.8542 -0.8650 -0.0540
24969SOL     OW76628   0.418   1.856   1.811 -0.0782 -0.3996 -0.4063
24969SOL    HW176629   0.432   1.849   1.905 -0.3484 -0.5717 -0.3769
24969SOL    HW276630   0.410   1.950   1.794  1.7021 -0.2480 -0.5200
24970SOL     OW76631   9.015   4.399   4.281 -0.4982  0.3760 -0.1317
24970SOL    HW176632   9.061   4.474   4.244 -2.5531  1.5188 -0.5619
24970SOL    HW276633   8.994   4.344   4.205 -1.0700  0.6065 -0.1500
24971SOL     OW76634   0.890   8.503   7.065 -0.5203  0.3608 -0.2274
24971SOL    HW176635   0.899   8.551   6.983 -0.0695  1.2517  0.3282
24971SOL    HW276636   0.938   8.422   7.050 -0.0283  0.7288 -0.6837
24972SOL     OW76637   3.569   1.269   7.213  0.3881  0.3502 -0.1656
24972SOL    HW176638   3.607   1.213   7.281  1.8774 -1.6401 -2.4893
24972SOL    HW276639   3.620   1.350   7.218  1.6666 -0.4430 -0.0483
24973SOL     OW76640   0.615   4.491   7.331 -0.1051  0.6489  0.3472
24973SOL    HW176641   0.542   4.435   7.358  0.5367  0.7494  2.4555
24973SOL    HW276642   0.658   4.515   7.413  1.1514  2.1722 -0.7076
24974SOL     OW76643   8.713   2.594   3.490  0.1087  0.1505 -0.7314
24974SOL    HW176644   8.668   2.665   3.536  0.0747  0.5680 -1.3885
24974SOL    HW276645   8.726   2.527   3.556 -0.7862  0.3440 -0.3497
24975SOL     OW76646   0.452   1.933   6.940  0.7680  0.6182  0.3564
24975SOL    HW176647   0.507   1.978   6.876  0.7830  0.5848  0.3461
24975SOL    HW276648   0.515   1.891   6.999  0.7506  0.1297  0.0285
24976SOL     OW76649   1.657   9.035   7.997 -0.2163 -0.6423 -0.3962
24976SOL    HW176650   1.659   8.974   7.923 -0.1802  0.5644 -1.4263
24976SOL    HW276651   1.604   9.108   7.966  0.1509  0.0838  0.6305
24977SOL     OW76652   6.766   1.618   4.332 -0.3663 -0.3688  0.2164
24977SOL    HW176653   6.849   1.664   4.319 -0.4159 -0.2372  0.3671
24977SOL    HW276654   6.759   1.606   4.426 -0.5523 -0.3190  0.2103
24978SOL     OW76655   2.043   4.015   1.256  0.1491 -0.0957 -0.3534
24978SOL    HW176656   1.975   4.069   1.215 -0.9546 -0.7241  0.6023
24978SOL    HW276657   2.070   3.954   1.187 -0.0720  0.3296 -0.8177
24979SOL     OW76658   9.132   4.532   5.991  0.1113 -0.2689 -0.0499
24979SOL    HW176659   9.155   4.591   5.919 -0.1947  0.1645  0.2029
24979SOL    HW276660   9.042   4.505   5.973  0.0964 -0.3044  0.0765
24980SOL     OW76661   4.579   7.228   5.346 -0.3030  0.4892 -0.0257
24980SOL    HW176662   4.622   7.179   5.277  0.2801 -0.0093  0.6782
24980SOL    HW276663   4.534   7.299   5.301  0.6684  0.5968 -0.8484
24981SOL     OW76664   4.221   0.012   3.893  0.4642 -0.2080 -0.1645
24981SOL    HW176665   4.216   0.050   3.981  2.1404 -0.7582  0.2124
24981SOL    HW276666   4.144  -0.045   3.887 -0.7966  1.4023  0.1370
24982SOL     OW76667   3.420   4.573   3.285 -0.5101 -0.5916 -0.1860
24982SOL    HW176668   3.415   4.657   3.239 -0.3535 -1.1278 -1.1986
24982SOL    HW276669   3.473   4.592   3.363  0.0211  0.1275 -0.7012
24983SOL     OW76670   1.573   1.975   0.371  0.1854 -0.3356  0.0768
24983SOL    HW176671   1.591   1.897   0.318  1.4841 -0.6380  0.9130
24983SOL    HW276672   1.637   2.040   0.341  0.0545 -0.0717  0.3654
24984SOL     OW76673   3.676   5.304   2.517 -0.2542 -0.6396  0.5384
24984SOL    HW176674   3.678   5.213   2.489 -0.2544 -1.0033  1.6467
24984SOL    HW276675   3.686   5.355   2.437  0.1608 -1.6200 -0.0483
24985SOL     OW76676   1.310   6.791   2.235 -0.2738 -0.3686 -0.4777
24985SOL    HW176677   1.247   6.743   2.288  0.1208 -0.7208 -0.3179
24985SOL    HW276678   1.273   6.789   2.146  0.5462 -2.5024 -0.8367
24986SOL     OW76679   3.120   4.398   5.458  0.1485  0.0188  0.2474
24986SOL    HW176680   3.080   4.362   5.537  0.6510  1.6857  1.3114
24986SOL    HW276681   3.148   4.486   5.483  0.1223  0.6874 -1.8564
24987SOL     OW76682   5.324   2.927   1.020  0.1221  0.5958  0.8376
24987SOL    HW176683   5.236   2.892   1.025  0.9454 -1.4639  2.8488
24987SOL    HW276684   5.359   2.893   0.937 -0.7970  1.0192  0.2710
24988SOL     OW76685   8.886   2.258   8.981  0.4574 -0.4334 -0.3886
24988SOL    HW176686   8.873   2.281   8.889 -0.5622  0.6651  0.0085
24988SOL    HW276687   8.798   2.249   9.017  0.8432 -0.7140  0.5293
24989SOL     OW76688   0.237   0.251   4.052 -0.0026  0.0407 -0.5080
24989SOL    HW176689   0.268   0.309   4.122  0.2748  1.0120 -1.4076
24989SOL    HW276690   0.143   0.265   4.050  0.2201  1.7169 -1.7517
24990SOL     OW76691   4.300   5.079   5.371  0.3442  0.6662  0.2878
24990SOL    HW176692   4.296   5.052   5.463  0.0398 -2.9030 -0.6189
24990SOL    HW276693   4.391   5.103   5.357  0.4876  0.8305  1.4167
24991SOL     OW76694   0.987   1.424   2.827  0.1800 -0.8138  0.2997
24991SOL    HW176695   1.035   1.473   2.760  0.2543 -1.2891 -0.0007
24991SOL    HW276696   1.053   1.402   2.893  1.1794 -4.1934 -1.5982
24992SOL     OW76697   4.599   0.645   9.141 -0.7272  0.1314  0.4027
24992SOL    HW176698   4.570   0.671   9.229  1.2473 -0.8410  1.4106
24992SOL    HW276699   4.580   0.721   9.086 -1.4466  0.9972  1.7959
24993SOL     OW76700   1.912   6.292   8.321  0.1014  0.3977  0.2498
24993SOL    HW176701   1.850   6.234   8.277  1.6337 -2.5952  1.6666
24993SOL    HW276702   1.886   6.289   8.413  2.3141 -1.0782  0.9058
24994SOL     OW76703   2.545   7.907   0.284  0.1379 -0.1865  0.4638
24994SOL    HW176704   2.630   7.863   0.277 -0.1062 -0.4568 -1.1438
24994SOL    HW276705   2.493   7.850   0.341  0.9710 -0.0810  1.3585
24995SOL     OW76706   8.932   7.389   3.747  0.3478  0.0300  0.6004
24995SOL    HW176707   8.993   7.435   3.689  1.4156 -1.4174  0.5286
24995SOL    HW276708   8.942   7.433   3.832  0.2600  0.8638  0.1906
24996SOL     OW76709   4.964   4.459   8.152  0.2795 -0.5935 -0.0313
24996SOL    HW176710   5.039   4.498   8.105 -0.4750  1.0183  0.0400
24996SOL    HW276711   4.949   4.376   8.107  2.0409 -0.9228 -0.1045
24997SOL     OW76712   8.458   3.126   3.137  0.1524  0.1100 -0.4161
24997SOL    HW176713   8.422   3.194   3.194 -0.6022  0.4011 -1.2186
24997SOL    HW276714   8.546   3.109   3.171 -0.3820  0.0798  0.9960
24998SOL     OW76715   9.185   6.643   0.735  0.3173 -0.1574  0.5505
24998SOL    HW176716   9.171   6.558   0.692 -0.9245  0.6320 -0.6737
24998SOL    HW276717   9.169   6.625   0.828 -1.3230 -1.0153  0.1472
24999SOL     OW76718   2.316   5.927   8.114  0.0877  0.0417  0.3048
24999SOL    HW176719   2.373   5.858   8.078  0.2154  0.9730 -1.3946
24999SOL    HW276720   2.229   5.886   8.119  0.3120 -0.4768  0.0532
25000SOL     OW76721   7.105   0.631   6.024  0.5680  0.6830  0.7837
25000SOL    HW176722   7.159   0.551   6.028  0.7754  0.8452  1.2716
25000SOL    HW276723   7.160   0.699   6.063  0.9885  1.4130 -0.9441
25001SOL     OW76724   5.556   3.666   7.174  0.6664  0.5997  0.3802
25001SOL    HW176725   5.608   3.593   7.207  1.4479  0.3143 -1.3596
25001SOL    HW276726   5.487   3.624   7.122  1.3225  1.0573 -0.9180
25002SOL     OW76727   8.440   8.910   9.382  0.1991 -0.0315  0.1331
25002SOL    HW176728   8.426   8.829   9.431 -0.2212  0.4834  0.8806
25002SOL    HW276729   8.365   8.914   9.322 -0.8892  0.8083  1.5029
25003SOL     OW76730   0.267   5.208   7.691  0.4413 -0.0352  0.1255
25003SOL    HW176731   0.259   5.115   7.712 -1.9133  0.4930  1.9820
25003SOL    HW276732   0.349   5.235   7.731  0.1081 -0.9050  1.4762
25004SOL     OW76733   2.421   7.550   3.738  0.4276  0.0310 -0.1468
25004SOL    HW176734   2.506   7.592   3.728  0.4707  0.3585  1.3294
25004SOL    HW276735   2.424   7.511   3.826 -1.2952  0.9155  0.3556
25005SOL     OW76736   7.746   9.208   4.898 -0.0278 -0.6813  0.2799
25005SOL    HW176737   7.719   9.133   4.845  0.8747 -0.7048 -0.1668
25005SOL    HW276738   7.821   9.175   4.948 -0.1908 -0.3330  0.7637
25006SOL     OW76739   1.359   6.559   4.958  0.1525 -0.2226 -0.1038
25006SOL    HW176740   1.417   6.488   4.931  0.0075 -0.0949 -0.7553
25006SOL    HW276741   1.326   6.596   4.876  0.6612  0.9625  0.2091
25007SOL     OW76742   1.630   7.815   0.067 -0.7954 -0.3407 -0.4777
25007SOL    HW176743   1.633   7.821  -0.028 -0.9013  0.4724 -0.4436
25007SOL    HW276744   1.718   7.839   0.096 -1.2837  1.4029 -0.3146
25008SOL     OW76745   3.903   7.164   2.575  0.1861  0.2805  0.0097
25008SOL    HW176746   3.872   7.082   2.614  0.9114  0.3705  0.7858
25008SOL    HW276747   3.956   7.136   2.500 -0.1875  0.0710 -0.1829
25009SOL     OW76748   1.919   5.087   4.288 -0.1220  0.1605 -0.1687
25009SOL    HW176749   1.902   5.051   4.375  3.5545 -1.2188  0.1744
25009SOL    HW276750   1.888   5.020   4.228 -0.1016 -0.1917  0.2080
25010SOL     OW76751   5.758   6.012   7.421 -0.1430 -0.2330  0.0148
25010SOL    HW176752   5.783   5.983   7.509  1.4800 -3.3307 -1.3380
25010SOL    HW276753   5.818   6.084   7.402 -1.2661  1.2614  1.7854
25011SOL     OW76754   1.814   0.046   0.885 -0.3068 -0.1384  0.3263
25011SOL    HW176755   1.884   0.110   0.875  0.5302 -1.0021  0.4450
25011SOL    HW276756   1.822   0.015   0.975 -1.8131  0.8118  0.8352
25012SOL     OW76757   6.461   9.451   3.279 -0.7035  0.1189  0.4790
25012SOL    HW176758   6.542   9.464   3.329  0.0557  0.2458 -0.7514
25012SOL    HW276759   6.392   9.460   3.344  0.2271  0.8912  1.4067
25013SOL     OW76760   8.621   4.701   4.108 -0.1928 -0.1200  0.2799
25013SOL    HW176761   8.657   4.639   4.171  0.9536  0.1150 -0.1237
25013SOL    HW276762   8.545   4.656   4.071  0.8927 -1.5325 -0.3779
25014SOL     OW76763   3.733   8.803   1.654  0.0085 -0.0795 -0.1253
25014SOL    HW176764   3.812   8.816   1.706 -1.0335  1.0580  1.2551
25014SOL    HW276765   3.735   8.710   1.630  0.8849 -0.4709  1.3434
25015SOL     OW76766   7.745   9.670   3.399 -0.5942 -0.1933  0.2888
25015SOL    HW176767   7.675   9.719   3.442 -0.1502  0.6466  0.0747
25015SOL    HW276768   7.821   9.682   3.456 -0.8793 -2.0569  1.1333
25016SOL     OW76769   8.050   6.167   9.476 -0.0860 -0.3653 -0.5883
25016SOL    HW176770   7.998   6.168   9.396 -2.6935 -0.0566  1.0080
25016SOL    HW276771   8.034   6.081   9.515  0.8826 -0.3941 -0.2113
25017SOL     OW76772   0.920   4.363   7.076  0.5635  0.7242  0.1711
25017SOL    HW176773   0.926   4.458   7.076  0.9068  0.7064  0.2000
25017SOL    HW276774   0.827   4.344   7.080  0.5353  1.0616  1.7081
25018SOL     OW76775   8.085   0.159   3.429 -0.5553  0.1003  0.3522
25018SOL    HW176776   8.044   0.084   3.474 -1.9389  1.5199  1.5939
25018SOL    HW276777   8.172   0.165   3.468 -1.3046  0.5698  2.0368
25019SOL     OW76778   6.884   8.987   9.095  0.2913  0.0377 -0.0020
25019SOL    HW176779   6.930   9.036   9.026 -1.7787  0.7415 -0.9702
25019SOL    HW276780   6.895   9.040   9.174  0.9784  0.2697 -0.2412
25020SOL     OW76781   8.549   0.916   4.870 -0.6665 -0.3670  0.4724
25020SOL    HW176782   8.530   0.829   4.836 -0.6699 -0.3233  0.3616
25020SOL    HW276783   8.463   0.954   4.888 -0.7682  0.3467 -1.3229
25021SOL     OW76784   1.403   9.476   1.024  0.0780 -0.2972 -0.4246
25021SOL    HW176785   1.483   9.515   0.989  0.8440 -0.7362  0.7829
25021SOL    HW276786   1.350   9.454   0.946  1.2360 -0.2435 -1.2436
25022SOL     OW76787   1.071   2.603   9.685  0.7377  0.1906  0.3830
25022SOL    HW176788   1.073   2.684   9.634  1.4091 -0.1347 -0.1161
25022SOL    HW276789   1.066   2.534   9.620  1.7787 -0.2413  0.7453
25023SOL     OW76790   6.144   0.275   7.253  0.2954 -0.0917  0.5816
25023SOL    HW176791   6.167   0.307   7.166  0.1428 -0.0341  0.5628
25023SOL    HW276792   6.098   0.349   7.294 -0.2235 -0.3511  0.4728
25024SOL     OW76793   5.135   8.963   6.842  1.1674  0.4847 -0.6031
25024SOL    HW176794   5.186   8.886   6.815  1.4148  0.6013 -0.4653
25024SOL    HW276795   5.127   9.016   6.762  1.1650  0.4141 -0.6500
25025SOL     OW76796   4.795   4.661   6.075 -0.0368  0.6617 -0.1054
25025SOL    HW176797   4.735   4.691   6.144 -2.5521  1.2076 -2.3504
25025SOL    HW276798   4.821   4.573   6.103 -1.7981  0.4479  1.0791
25026SOL     OW76799   6.210   2.094   7.742 -0.2079  0.1374  0.6262
25026SOL    HW176800   6.278   2.031   7.721 -1.2385 -0.0798 -2.6956
25026SOL    HW276801   6.139   2.075   7.680 -1.7455  2.7252  1.4021
25027SOL     OW76802   9.649   2.427   2.001  0.1034 -0.8716 -0.1351
25027SOL    HW176803   9.679   2.484   1.930 -0.4335 -0.8029 -0.3161
25027SOL    HW276804   9.725   2.374   2.023  0.5976 -0.1334 -0.0088
25028SOL     OW76805   8.785   4.582   3.306  0.4014  0.2420 -0.2417
25028SOL    HW176806   8.736   4.660   3.332  1.6884  0.1279  3.0828
25028SOL    HW276807   8.758   4.516   3.370  3.3534 -0.3471  0.5346
25029SOL     OW76808   1.530   3.741   7.485  0.5178 -1.0425 -0.3656
25029SOL    HW176809   1.489   3.803   7.425  1.9170  1.0734  0.7197
25029SOL    HW276810   1.466   3.729   7.555  0.2903 -0.6797 -0.5094
25030SOL     OW76811   0.584   6.992   4.213  0.4167  0.0475 -0.0637
25030SOL    HW176812   0.653   6.926   4.221  1.4767  1.0220 -0.8932
25030SOL    HW276813   0.551   6.981   4.124  2.6637  2.5227 -1.3306
25031SOL     OW76814   7.297   0.089   3.301  0.2066 -0.3607 -0.1150
25031SOL    HW176815   7.286   0.041   3.219  1.9787 -0.9261 -0.0438
25031SOL    HW276816   7.377   0.140   3.290  0.7783 -0.8455  1.4462
25032SOL     OW76817   2.658   9.027   7.074  0.1733  0.2344 -0.0128
25032SOL    HW176818   2.716   9.004   7.002 -1.0931 -0.5432 -0.8105
25032SOL    HW276819   2.649   8.946   7.124  1.8427  0.9999  1.6578
25033SOL     OW76820   7.141   2.303   4.931  0.3698 -0.0751 -0.2083
25033SOL    HW176821   7.200   2.378   4.940  1.9002 -1.0656 -1.3708
25033SOL    HW276822   7.188   2.243   4.872 -1.6921 -1.0408 -0.9546
25034SOL     OW76823   9.375   2.161   3.994  0.6975 -0.1692 -0.1629
25034SOL    HW176824   9.464   2.158   4.029  1.1219  0.7034 -1.1021
25034SOL    HW276825   9.362   2.253   3.972 -0.1911 -0.4087 -0.6572
25035SOL     OW76826   8.609   0.704   9.414  0.4346  0.4141  0.3238
25035SOL    HW176827   8.532   0.723   9.468  1.0777  2.3117  0.6331
25035SOL    HW276828   8.582   0.726   9.325 -0.0397 -0.9980  0.0870
25036SOL     OW76829   6.495   0.275   3.961  0.3042 -0.0719 -0.4852
25036SOL    HW176830   6.576   0.256   3.915  0.0194 -0.4835 -0.8281
25036SOL    HW276831   6.455   0.346   3.911  0.3921  0.0473 -0.3872
25037SOL     OW76832   3.697   3.900   7.827 -0.0870 -0.3086 -0.4337
25037SOL    HW176833   3.770   3.857   7.873  0.0948  1.8275  1.4415
25037SOL    HW276834   3.739   3.954   7.760 -0.0945 -0.4873 -0.5847
25038SOL     OW76835   4.638   9.555   9.539  0.3499 -0.0737  0.4630
25038SOL    HW176836   4.655   9.484   9.477 -0.8816 -1.7853  1.9963
25038SOL    HW276837   4.576   9.518   9.602 -0.7027  2.5114  1.0824
25039SOL     OW76838   3.878   4.758   5.789 -0.0322  0.3062  0.2304
25039SOL    HW176839   3.858   4.800   5.873 -1.1532 -0.3202  0.3010
25039SOL    HW276840   3.826   4.677   5.791  0.8056 -0.2592 -0.5945
25040SOL     OW76841   7.976   1.576   1.378  0.0836 -0.3353  0.1244
25040SOL    HW176842   7.966   1.671   1.370 -3.0434 -0.4117  1.7379
25040SOL    HW276843   8.010   1.563   1.466 -2.3838 -0.7487  1.0693
25041SOL     OW76844   3.266   9.211   7.794 -0.3157 -0.1732 -0.3644
25041SOL    HW176845   3.311   9.174   7.870 -2.0434  0.3128  0.9551
25041SOL    HW276846   3.235   9.134   7.745 -0.6587 -0.4831  0.3369
25042SOL     OW76847   7.155   3.472   4.916  0.0843  0.5624 -0.4167
25042SOL    HW176848   7.119   3.417   4.847  1.6616 -0.9483 -0.0882
25042SOL    HW276849   7.151   3.561   4.880  0.4352 -0.1322 -2.2633
25043SOL     OW76850   4.030   7.458   8.952 -0.4049 -0.1652  0.0191
25043SOL    HW176851   3.953   7.452   8.896 -1.5882 -0.5734  1.6393
25043SOL    HW276852   3.997   7.448   9.041  1.3608  0.9023  0.8579
25044SOL     OW76853   6.013   5.688   4.181  0.1174 -0.1699 -0.4792
25044SOL    HW176854   5.951   5.728   4.242  0.8177  1.0885 -0.5620
25044SOL    HW276855   6.068   5.632   4.235  0.0554  0.1108 -0.1238
25045SOL     OW76856   4.769   9.187   8.757 -0.0357 -0.2742 -0.1429
25045SOL    HW176857   4.786   9.201   8.664  1.6582  0.3032  0.2062
25045SOL    HW276858   4.839   9.235   8.801  0.0859 -1.7654  1.3933
25046SOL     OW76859   3.266   2.621   5.843  0.0748 -0.6495  0.1571
25046SOL    HW176860   3.179   2.603   5.880 -2.1238  1.0779 -3.5683
25046SOL    HW276861   3.291   2.705   5.881 -2.0451  1.0070 -1.7757
25047SOL     OW76862   3.436   8.005   0.171 -0.0816 -0.7884  0.0352
25047SOL    HW176863   3.349   7.967   0.157  0.1011 -1.6400  1.1243
25047SOL    HW276864   3.476   7.951   0.240  1.0758 -0.0293 -0.0067
25048SOL     OW76865   8.283   5.974   2.338  0.1821  0.5608  0.8953
25048SOL    HW176866   8.197   6.012   2.322 -0.0578 -0.2362  0.2239
25048SOL    HW276867   8.270   5.916   2.413 -0.5517 -1.6630 -0.8541
25049SOL     OW76868   1.156   6.049   6.973 -0.3237 -0.2366  0.1809
25049SOL    HW176869   1.174   6.135   7.011 -2.0231 -0.2211  1.0679
25049SOL    HW276870   1.060   6.046   6.965 -0.4214 -2.5301  1.4001
25050SOL     OW76871   6.606   7.441   0.500  0.0530  0.3376  0.1235
25050SOL    HW176872   6.675   7.375   0.496  1.9980  2.0964  2.2270
25050SOL    HW276873   6.586   7.461   0.408  0.5112 -1.9728 -0.5404
25051SOL     OW76874   1.253   8.351   1.943  0.2740 -0.5224 -0.0818
25051SOL    HW176875   1.343   8.364   1.913 -0.1275 -1.9694 -2.1486
25051SOL    HW276876   1.199   8.364   1.864 -1.2397 -0.8041  0.8549
25052SOL     OW76877   8.824   1.542   0.432 -0.1418  0.3149 -0.0121
25052SOL    HW176878   8.835   1.487   0.355 -0.7793  1.4486 -0.9515
25052SOL    HW276879   8.855   1.628   0.405  1.6518  0.2650  1.7047
25053SOL     OW76880   5.604   2.680   7.931  0.4468 -0.4461  0.2870
25053SOL    HW176881   5.562   2.674   7.845  1.8913  0.0286 -0.4867
25053SOL    HW276882   5.537   2.716   7.989 -0.0572  0.7871 -1.0231
25054SOL     OW76883   8.618   1.885   3.531  0.1258  0.0603  0.3891
25054SOL    HW176884   8.646   1.797   3.557  0.2440  0.3702  1.3748
25054SOL    HW276885   8.563   1.914   3.604 -0.2472  0.6450 -0.1200
25055SOL     OW76886   7.829   2.609   6.225 -0.1692  0.2560  0.3479
25055SOL    HW176887   7.868   2.556   6.294 -0.5678  1.7099  1.7400
25055SOL    HW276888   7.758   2.657   6.269 -1.1416  0.4118 -1.3122
25056SOL     OW76889   7.096   4.299   1.456 -0.5463  0.4064  0.2122
25056SOL    HW176890   7.059   4.353   1.526 -0.1898  0.5843  0.2647
25056SOL    HW276891   7.021   4.251   1.420 -1.1665  2.1311 -0.9196
25057SOL     OW76892   3.434   2.014   4.802 -0.0223  0.3687 -0.0496
25057SOL    HW176893   3.491   2.090   4.807 -0.3594  1.2174 -4.7924
25057SOL    HW276894   3.495   1.939   4.799  0.5425  0.8096  0.2105
25058SOL     OW76895   8.066   5.617   0.562 -0.0616 -0.2963 -0.9484
25058SOL    HW176896   8.075   5.534   0.515  0.9955 -0.4354 -0.5202
25058SOL    HW276897   8.136   5.672   0.528 -0.0993  0.0556 -0.4704
25059SOL     OW76898   1.920   0.024   9.519 -0.6343 -0.0180  0.8654
25059SOL    HW176899   1.898   0.104   9.470  1.9782 -0.0074 -0.4804
25059SOL    HW276900   1.914  -0.046   9.454  1.6178 -0.1932  0.7519
25060SOL     OW76901   2.129   4.020   8.730  0.0089 -0.3305  0.1114
25060SOL    HW176902   2.152   3.944   8.784  0.3152  0.3709  0.9926
25060SOL    HW276903   2.095   4.084   8.793 -2.9538 -0.7317 -0.9221
25061SOL     OW76904   5.968   5.343   2.056  0.3225 -0.0291  0.1367
25061SOL    HW176905   6.013   5.418   2.096 -0.6210  0.0378  1.0956
25061SOL    HW276906   6.011   5.267   2.094 -0.8040  0.0311  1.5995
25062SOL     OW76907   5.393   7.147   3.704 -0.1229 -0.0762  0.3185
25062SOL    HW176908   5.380   7.090   3.628 -0.6801 -0.6771  0.8479
25062SOL    HW276909   5.304   7.168   3.733  0.0611 -0.9844  1.6224
25063SOL     OW76910   5.481   4.047   8.943  0.3537 -0.8560  0.7149
25063SOL    HW176911   5.482   3.970   8.887  1.4644 -0.9322  0.8008
25063SOL    HW276912   5.573   4.060   8.966  0.2310  0.6611  0.4637
25064SOL     OW76913   3.012   8.607   1.238 -0.4736  0.0524  0.5134
25064SOL    HW176914   2.930   8.636   1.279 -0.3358  2.4204 -0.6756
25064SOL    HW276915   3.049   8.687   1.200  3.0443 -0.6642  2.0303
25065SOL     OW76916   2.687   2.274   4.334  0.2350 -0.3572 -0.5405
25065SOL    HW176917   2.760   2.333   4.316 -0.2266  0.3078 -0.2618
25065SOL    HW276918   2.713   2.226   4.412  0.2880  0.0180 -0.3284
25066SOL     OW76919   8.041   9.011   9.638  0.1650 -0.1041  0.3028
25066SOL    HW176920   8.055   8.954   9.713  1.5422 -1.8405 -1.1609
25066SOL    HW276921   8.117   9.070   9.638 -0.7415  1.1039  1.2397
25067SOL     OW76922   4.563   1.615   0.837  0.0477 -0.2296  0.6063
25067SOL    HW176923   4.583   1.650   0.924  0.8344 -0.9682  0.7389
25067SOL    HW276924   4.487   1.558   0.850 -1.0719  1.1689  0.4366
25068SOL     OW76925   3.804   8.569   0.107  0.5937  0.1476 -0.2427
25068SOL    HW176926   3.897   8.584   0.093  0.4888  0.9939 -0.0512
25068SOL    HW276927   3.775   8.523   0.028  1.3124 -0.7698  0.0169
25069SOL     OW76928   8.422   9.326   3.262 -0.0173 -0.4985  0.0097
25069SOL    HW176929   8.518   9.325   3.270 -0.1052 -0.6399  1.2330
25069SOL    HW276930   8.391   9.319   3.353 -1.1970  1.4840 -0.1977
25070SOL     OW76931   6.933   8.471   0.329  0.0663  0.0409 -0.3496
25070SOL    HW176932   7.021   8.500   0.350  0.1387 -0.7878  0.6121
25070SOL    HW276933   6.911   8.515   0.247  2.1520 -1.3095 -1.7238
25071SOL     OW76934   2.600   8.640   9.605 -0.0049  0.3165  0.2061
25071SOL    HW176935   2.633   8.624   9.517  0.2000  1.2985  0.0903
25071SOL    HW276936   2.509   8.667   9.592  0.5970  2.4580  0.0956
25072SOL     OW76937   9.580   2.620   9.139 -0.3852 -0.0212 -0.5936
25072SOL    HW176938   9.656   2.561   9.141  0.0568  0.5474  0.0529
25072SOL    HW276939   9.608   2.691   9.082  0.1526  0.9149  0.7711
25073SOL     OW76940   4.984   7.679   8.763 -0.1388  0.1858  1.0645
25073SOL    HW176941   4.989   7.627   8.843  0.9957 -0.1810  0.7774
25073SOL    HW276942   5.056   7.741   8.769  0.2205 -0.1281  0.1459
25074SOL     OW76943   6.712   6.568   7.438  0.3471  0.1595 -0.1408
25074SOL    HW176944   6.648   6.601   7.501 -1.3725  0.1140 -1.8109
25074SOL    HW276945   6.705   6.473   7.445  0.7024  0.1480  0.1090
25075SOL     OW76946   6.703   8.011   1.317 -0.6015  0.1830  0.5858
25075SOL    HW176947   6.709   7.922   1.352  0.6607  0.3658  0.8677
25075SOL    HW276948   6.685   8.065   1.394  0.0245  0.3291  0.6331
25076SOL     OW76949   9.294   2.887   1.935  0.2973 -0.4474  0.6145
25076SOL    HW176950   9.224   2.928   1.884  2.0847  0.5341 -1.2071
25076SOL    HW276951   9.266   2.797   1.948 -0.4566 -0.6046 -1.7544
25077SOL     OW76952   6.694   0.089   6.281  0.3330  0.8089 -0.0812
25077SOL    HW176953   6.694   0.151   6.208 -0.3570  0.8899 -0.0168
25077SOL    HW276954   6.740   0.134   6.352  1.4885  0.5302 -0.6169
25078SOL     OW76955   3.418   3.612   7.960  0.1330 -0.7221  0.7750
25078SOL    HW176956   3.486   3.577   7.902  0.7411  1.3364  0.1477
25078SOL    HW276957   3.343   3.554   7.947  1.4535 -2.5205  0.8056
25079SOL     OW76958   6.141   2.946   2.602  0.0713 -0.2980 -0.6583
25079SOL    HW176959   6.220   2.892   2.598 -0.1778 -0.5993 -1.9053
25079SOL    HW276960   6.143   2.997   2.521  0.3411  1.6551  0.5197
25080SOL     OW76961   4.802   2.221   2.386 -0.8021 -0.1590  0.1910
25080SOL    HW176962   4.752   2.152   2.430 -1.2857  1.1002  1.7251
25080SOL    HW276963   4.882   2.230   2.439 -0.5065  0.1181 -0.2911
25081SOL     OW76964   1.055   4.788   0.142  0.3476  0.3060  0.4383
25081SOL    HW176965   1.133   4.733   0.138  0.2488  0.2260 -0.6529
25081SOL    HW276966   1.085   4.874   0.113 -0.1194  0.0737 -0.8198
25082SOL     OW76967   9.287   4.626   1.533  0.1994  0.5004  0.2774
25082SOL    HW176968   9.310   4.718   1.544 -0.5937  0.7893 -0.3643
25082SOL    HW276969   9.292   4.611   1.439  0.4123 -0.1431  0.3852
25083SOL     OW76970   7.004   2.393   9.040 -0.3072 -0.3201  0.1927
25083SOL    HW176971   6.938   2.456   9.070  0.2511  0.5543 -0.3643
25083SOL    HW276972   6.979   2.311   9.081 -1.3865  0.1360  0.4833
25084SOL     OW76973   2.876   5.890   4.019  0.5363 -0.2867  0.7876
25084SOL    HW176974   2.797   5.841   4.040  0.5877 -0.6684  0.1323
25084SOL    HW276975   2.865   5.974   4.062 -1.0123  0.2961 -0.6390
25085SOL     OW76976   6.316   1.451   1.812 -0.4786 -0.3249  0.5575
25085SOL    HW176977   6.391   1.395   1.831 -1.6673 -1.2714  2.7484
25085SOL    HW276978   6.245   1.390   1.790 -1.1439  0.4418  0.5146
25086SOL     OW76979   2.336   8.148   1.481 -0.3846  0.0049 -0.3869
25086SOL    HW176980   2.364   8.237   1.458 -1.8917  0.1749 -1.7534
25086SOL    HW276981   2.417   8.097   1.483  0.3731  1.1524 -0.8354
25087SOL     OW76982   4.072   3.051   0.996  0.1616  0.3373 -0.0473
25087SOL    HW176983   4.054   3.142   1.021  0.1663 -0.2059  2.1011
25087SOL    HW276984   3.986   3.009   0.998  0.2884  0.0755 -0.0531
25088SOL     OW76985   6.550   8.304   2.191 -0.1095 -0.1145  0.2922
25088SOL    HW176986   6.632   8.281   2.146  0.0415  0.0362  0.4869
25088SOL    HW276987   6.482   8.260   2.141  0.0433  0.1657 -0.1714
25089SOL     OW76988   2.910   1.505   4.499  0.3649 -0.1904  0.3927
25089SOL    HW176989   2.937   1.588   4.459  2.4296 -0.9085  0.1784
25089SOL    HW276990   2.908   1.523   4.592  0.1439  0.2602  0.3045
25090SOL     OW76991   4.347   1.711   5.305 -0.2174  0.3260 -0.2534
25090SOL    HW176992   4.314   1.650   5.239  0.3057  0.1770 -0.3760
25090SOL    HW276993   4.428   1.745   5.269 -0.0356  0.4057  0.2215
25091SOL     OW76994   2.360   7.505   8.441 -0.0798  0.0360 -0.0353
25091SOL    HW176995   2.393   7.590   8.410 -1.2325  1.0544  1.3893
25091SOL    HW276996   2.265   7.509   8.428 -0.5233  0.1538  2.5541
25092SOL     OW76997   2.922   1.920   8.315 -0.0949 -0.2682 -0.3042
25092SOL    HW176998   2.922   1.975   8.394 -1.2067  0.5295 -0.8423
25092SOL    HW276999   2.911   1.831   8.349  0.9191 -0.1028  0.5274
25093SOL     OW77000   2.075   4.293   5.803 -0.2030  0.0989 -0.2131
25093SOL    HW177001   2.063   4.388   5.806  0.7888  0.3871 -2.7673
25093SOL    HW277002   2.169   4.282   5.786 -0.6549 -1.2440 -1.9966
25094SOL     OW77003   9.164   8.917   1.027 -0.1881 -0.4652  0.4212
25094SOL    HW177004   9.082   8.965   1.023  0.3446  0.4001 -1.4295
25094SOL    HW277005   9.158   8.864   1.106 -1.7867  0.8826  1.2510
25095SOL     OW77006   1.233   7.990   7.092 -0.1829  0.3244  0.1252
25095SOL    HW177007   1.300   8.029   7.036  1.7259 -1.3056  1.1317
25095SOL    HW277008   1.160   8.052   7.090  2.1209  3.2372  0.5767
25096SOL     OW77009   7.316   9.124   6.152 -0.1467 -0.5987 -0.2531
25096SOL    HW177010   7.265   9.201   6.128  1.0389  0.2012 -0.2658
25096SOL    HW277011   7.407   9.153   6.148  0.3350 -2.0817 -0.5499
25097SOL     OW77012   3.325   8.615   8.562  0.1013  0.1156  0.1845
25097SOL    HW177013   3.373   8.533   8.556  1.1197  0.7155 -0.0894
25097SOL    HW277014   3.275   8.608   8.643  1.9515  0.1523  1.3788
25098SOL     OW77015   1.615   4.724   4.255 -0.1126  0.2797 -0.3145
25098SOL    HW177016   1.547   4.714   4.187 -1.0884 -0.6557  0.7423
25098SOL    HW277017   1.576   4.683   4.333  1.0479  1.1665  0.7633
25099SOL     OW77018   3.935   3.925   7.613 -0.1116  0.1077 -0.2602
25099SOL    HW177019   3.982   3.859   7.562 -0.5008  0.0150 -0.5068
25099SOL    HW277020   3.995   3.999   7.618 -0.1664  0.2234 -1.0950
25100SOL     OW77021   3.309   0.446   8.252 -0.5923 -0.2034  0.1595
25100SOL    HW177022   3.350   0.457   8.166  0.4750 -1.6298  0.4451
25100SOL    HW277023   3.217   0.430   8.234 -0.4018 -0.3463 -0.7028
25101SOL     OW77024   5.036   5.461   1.969  0.0130  0.3827 -0.7213
25101SOL    HW177025   5.038   5.398   2.042 -0.4628  1.8896  0.6563
25101SOL    HW277026   5.022   5.407   1.892  1.6903 -1.4010  0.1253
25102SOL     OW77027   8.342   0.109   2.134 -1.1254  0.1418 -0.1082
25102SOL    HW177028   8.305   0.059   2.207 -0.3209  0.7951  0.7673
25102SOL    HW277029   8.290   0.189   2.130 -2.4268 -0.7228 -1.5256
25103SOL     OW77030   6.991   4.371   3.435 -0.2761 -0.3161  0.0257
25103SOL    HW177031   6.993   4.307   3.506 -0.1305 -0.7243 -0.3445
25103SOL    HW277032   6.898   4.381   3.415 -0.2174 -2.5366 -1.8000
25104SOL     OW77033   6.726   5.839   8.603 -0.8751  0.2582 -0.5596
25104SOL    HW177034   6.688   5.826   8.690  0.3739 -0.3130 -0.0719
25104SOL    HW277035   6.734   5.934   8.594 -1.1587  0.3276 -0.1107
25105SOL     OW77036   4.826   1.107   4.509  0.1386  0.1596  0.1858
25105SOL    HW177037   4.905   1.137   4.463  0.1899  0.3749  0.4101
25105SOL    HW277038   4.846   1.121   4.602 -0.1195  0.1100  0.2499
25106SOL     OW77039   3.787   9.212   4.782 -0.2086  0.7030  0.1643
25106SOL    HW177040   3.708   9.170   4.748 -0.1607 -0.4922  1.4154
25106SOL    HW277041   3.859   9.162   4.744 -0.1549 -1.5359  2.8154
25107SOL     OW77042   8.681   3.918   5.838  0.2441  0.3179  0.2523
25107SOL    HW177043   8.612   3.875   5.889  0.2326 -1.0065 -0.8126
25107SOL    HW277044   8.661   3.896   5.747  0.1011  2.8526 -0.4017
25108SOL     OW77045   9.212   4.123   4.855  0.1034 -0.1514  0.2435
25108SOL    HW177046   9.148   4.095   4.920  0.1318 -0.8121 -0.0087
25108SOL    HW277047   9.217   4.051   4.793 -0.3645  0.7157 -0.8290
25109SOL     OW77048   0.321   6.450   6.935 -0.0759  0.3931  0.1058
25109SOL    HW177049   0.372   6.373   6.909  0.4619  0.4352  1.0009
25109SOL    HW277050   0.261   6.418   7.002  0.2987  0.7924  0.6380
25110SOL     OW77051   8.006   2.249   7.940  0.5230  0.3032 -0.0100
25110SOL    HW177052   7.982   2.341   7.950  0.2142  0.0448  2.1368
25110SOL    HW277053   8.015   2.216   8.029  2.1080 -1.3912 -0.7038
25111SOL     OW77054   1.269   9.618   9.507  0.0178  0.0892  0.2277
25111SOL    HW177055   1.293   9.552   9.572 -0.2241 -0.2936 -0.0623
25111SOL    HW277056   1.312   9.589   9.426 -0.1954  0.2152  0.0676
25112SOL     OW77057   8.584   6.482   7.674  0.1916  1.2986 -0.6843
25112SOL    HW177058   8.585   6.410   7.610  1.3463 -0.3132  1.0300
25112SOL    HW277059   8.527   6.548   7.635 -0.2785 -0.2053 -2.7177
25113SOL     OW77060   0.592   7.560   4.308  0.0410 -0.2821 -0.3425
25113SOL    HW177061   0.576   7.594   4.397  0.1460 -1.6788  0.2314
25113SOL    HW277062   0.555   7.472   4.310  1.4248 -0.8938 -1.2248
25114SOL     OW77063   3.925   4.268   5.417 -0.0323 -0.1655 -0.1976
25114SOL    HW177064   4.015   4.292   5.396 -0.3202  1.7335  0.5114
25114SOL    HW277065   3.896   4.335   5.479 -1.3078 -1.8650  1.1403
25115SOL     OW77066   6.896   9.384   2.352  0.2238  0.3386  0.1251
25115SOL    HW177067   6.923   9.476   2.347  0.0724  0.3965  0.3473
25115SOL    HW277068   6.813   9.380   2.304 -0.5806  0.6410  1.4285
25116SOL     OW77069   1.570   4.218   7.190  0.0162  0.1984 -0.3074
25116SOL    HW177070   1.652   4.260   7.165 -0.2615  1.8937  1.4044
25116SOL    HW277071   1.509   4.240   7.120  0.2803  1.4156 -0.1730
25117SOL     OW77072   5.251   0.458   7.935 -0.0761 -0.6015 -0.2138
25117SOL    HW177073   5.297   0.419   7.861  0.9255 -1.1084  0.6552
25117SOL    HW277074   5.307   0.440   8.010 -0.2507  1.3323  0.4296
25118SOL     OW77075   5.024   8.937   7.092 -0.2582  0.1509 -0.5631
25118SOL    HW177076   5.054   8.933   7.001  0.6176 -0.6282 -0.2557
25118SOL    HW277077   5.103   8.921   7.144 -0.1935  3.0774  0.4290
25119SOL     OW77078   7.820   8.715   9.692 -0.9289  0.1616 -0.0771
25119SOL    HW177079   7.841   8.622   9.689  0.0926  0.3279  1.0309
25119SOL    HW277080   7.830   8.745   9.601 -0.1068 -0.5736 -0.2436
25120SOL     OW77081   1.164   1.581   2.049 -0.0442 -0.0204  0.3037
25120SOL    HW177082   1.138   1.578   1.957 -2.0857 -1.1302  0.8555
25120SOL    HW277083   1.115   1.654   2.086  1.7141  1.2244  0.3049
25121SOL     OW77084   1.612   3.164   8.542  0.3173 -0.1890 -0.4896
25121SOL    HW177085   1.525   3.188   8.510  0.7313 -0.9186 -2.2725
25121SOL    HW277086   1.621   3.071   8.519  1.7313 -0.0077 -0.7527
25122SOL     OW77087   4.165   2.843   5.957 -0.3990  0.4883  0.1718
25122SOL    HW177088   4.260   2.831   5.949 -0.5196  0.2398 -1.2185
25122SOL    HW277089   4.134   2.841   5.866 -1.5338  2.3175  0.4851
25123SOL     OW77090   1.934   0.531   4.096  0.0615 -0.8840  0.1865
25123SOL    HW177091   2.000   0.581   4.145  1.4636  0.1559 -2.5449
25123SOL    HW277092   1.921   0.452   4.148  1.8035 -0.1197  1.9597
25124SOL     OW77093   7.797   1.918   9.131 -0.2297  0.0870  0.0327
25124SOL    HW177094   7.711   1.879   9.112  0.6728 -2.6114  1.0178
25124SOL    HW277095   7.833   1.864   9.201  1.8316  1.8684  0.4597
25125SOL     OW77096   2.034   7.082   4.030  0.2790  0.5839  0.1055
25125SOL    HW177097   1.979   7.154   4.060 -1.0727 -0.6663  0.7322
25125SOL    HW277098   2.122   7.105   4.060 -0.0003  2.2308 -0.2130
25126SOL     OW77099   4.686   6.073   8.091 -0.1658 -0.5181 -0.3723
25126SOL    HW177100   4.613   6.011   8.085  0.1954 -0.8892 -1.1787
25126SOL    HW277101   4.697   6.090   8.184 -2.3886  0.8835 -0.3115
25127SOL     OW77102   7.869   9.403   3.236 -0.4071 -0.1445 -0.1358
25127SOL    HW177103   7.944   9.343   3.236  1.5786  2.1167  1.9686
25127SOL    HW277104   7.820   9.380   3.316 -1.1163 -0.5738 -0.6764
25128SOL     OW77105   8.679   1.554   8.261  0.1794  0.1027  0.2402
25128SOL    HW177106   8.627   1.611   8.205  0.1212 -1.8732 -1.8732
25128SOL    HW277107   8.637   1.559   8.346 -2.5543 -0.2196 -0.9945
25129SOL     OW77108   5.218   3.756   8.976 -0.0088  0.2084 -0.2680
25129SOL    HW177109   5.244   3.777   8.887 -0.6159  2.1730 -0.0334
25129SOL    HW277110   5.291   3.787   9.030 -0.0283 -0.1847 -0.0078
25130SOL     OW77111   6.127   1.797   8.464  0.1826 -0.2159  0.2613
25130SOL    HW177112   6.062   1.730   8.486 -1.0208 -0.0737 -2.3746
25130SOL    HW277113   6.079   1.879   8.473  0.2678 -0.0450 -0.7691
25131SOL     OW77114   3.719   1.092   9.662 -0.2870 -0.1245  0.7676
25131SOL    HW177115   3.679   1.021   9.611  0.5982 -0.5815  0.6923
25131SOL    HW277116   3.795   1.051   9.703  1.3508  1.2403 -0.7857
25132SOL     OW77117   8.003   5.639   4.241  0.6722  0.2580  0.5136
25132SOL    HW177118   7.959   5.722   4.257  3.0938  1.4515  1.5652
25132SOL    HW277119   8.000   5.594   4.326  0.2669 -0.2522  0.2270
25133SOL     OW77120   5.667   1.014   4.033 -0.1390  0.1087 -0.0408
25133SOL    HW177121   5.715   1.013   4.116 -1.0440  0.8184  0.5191
25133SOL    HW277122   5.704   1.089   3.986 -0.1889  0.2126  0.0821
25134SOL     OW77123   0.697   6.024   3.860  0.5601 -0.3274  0.6104
25134SOL    HW177124   0.786   5.995   3.838  0.3861  0.8593 -2.0277
25134SOL    HW277125   0.642   5.985   3.792 -0.5664  1.0447  0.7006
25135SOL     OW77126   7.189   7.077   5.525  0.5014 -0.0294  0.5645
25135SOL    HW177127   7.116   7.088   5.586  0.8027  0.2062  0.8835
25135SOL    HW277128   7.181   6.986   5.494 -0.3932  0.2202 -0.0115
25136SOL     OW77129   2.423   2.488   8.975 -0.0617 -0.4411 -0.1429
25136SOL    HW177130   2.447   2.556   8.912  0.7452  1.7028  2.3219
25136SOL    HW277131   2.504   2.467   9.020 -0.8599 -0.8901  1.1410
25137SOL     OW77132   1.669   8.822   5.626 -0.2959  0.0951  0.6362
25137SOL    HW177133   1.591   8.797   5.575  1.0801 -2.0284 -0.5575
25137SOL    HW277134   1.726   8.865   5.562  1.3762 -2.4487  0.2487
25138SOL     OW77135   2.183   7.111   2.129  0.1405 -0.7965  0.7375
25138SOL    HW177136   2.228   7.134   2.047 -0.0010 -0.5801  0.7221
25138SOL    HW277137   2.192   7.188   2.184 -1.2921 -0.2743  0.2783
25139SOL     OW77138   3.876   4.559   5.154 -0.2453 -0.0542 -0.1239
25139SOL    HW177139   3.842   4.628   5.096  0.9249 -0.8375 -1.8314
25139SOL    HW277140   3.968   4.550   5.128 -0.0376 -1.3506  0.9781
25140SOL     OW77141   3.289   0.801   6.170 -0.0965 -0.1620 -0.5570
25140SOL    HW177142   3.348   0.849   6.112 -0.3199  0.5628 -0.1978
25140SOL    HW277143   3.225   0.866   6.199  1.4961  0.2229  2.5878
25141SOL     OW77144   3.289   2.885   2.823  0.1747  0.3989 -0.1402
25141SOL    HW177145   3.223   2.955   2.820  1.2071  1.3807 -0.8789
25141SOL    HW277146   3.370   2.930   2.847  0.8029 -0.5904 -0.3648
25142SOL     OW77147   7.820   1.094   6.201  0.0244 -0.2177 -0.3987
25142SOL    HW177148   7.840   1.128   6.288  0.3957  0.2043 -0.6484
25142SOL    HW277149   7.727   1.069   6.205 -0.2060  0.6540 -0.1587
25143SOL     OW77150   2.342   5.216   8.951  0.0029 -0.1401 -0.0964
25143SOL    HW177151   2.276   5.158   8.988  0.2849  0.1738  0.9663
25143SOL    HW277152   2.313   5.304   8.976  1.2823 -0.0519  1.2481
25144SOL     OW77153   1.935   4.891   9.093  0.3634 -0.3622  0.0717
25144SOL    HW177154   1.929   4.802   9.129 -0.0995 -0.5354 -0.4270
25144SOL    HW277155   2.015   4.927   9.133 -1.6577  0.5676  3.7278
25145SOL     OW77156   4.632   6.689   3.592  0.2397 -0.4866 -0.1330
25145SOL    HW177157   4.632   6.724   3.681  3.1420  1.2452 -0.6948
25145SOL    HW277158   4.614   6.595   3.604  0.8014 -0.3513  2.2845
25146SOL     OW77159   5.340   4.920   3.824  0.2346  0.3564 -0.8422
25146SOL    HW177160   5.270   4.984   3.834 -0.3822 -0.3286 -0.7203
25146SOL    HW277161   5.350   4.908   3.730 -0.9220 -0.7345 -0.8427
25147SOL     OW77162   4.622   5.034   6.769 -0.1532 -0.1102 -0.0083
25147SOL    HW177163   4.591   5.101   6.708 -0.5480 -3.0413 -3.2943
25147SOL    HW277164   4.546   4.978   6.783  0.1391  0.0416  2.7781
25148SOL     OW77165   9.623   3.161   7.242 -0.0010  0.4511  0.4524
25148SOL    HW177166   9.603   3.207   7.324 -0.9274  0.3036  0.3208
25148SOL    HW277167   9.679   3.222   7.194  3.1724 -0.6462  2.4438
25149SOL     OW77168   0.173   1.770   5.162 -0.5659 -0.1539  0.1138
25149SOL    HW177169   0.223   1.839   5.206 -1.3329  0.8607 -0.5554
25149SOL    HW277170   0.100   1.752   5.221  0.0339 -0.9474  0.6369
25150SOL     OW77171   2.686   3.632   3.251 -0.3215 -0.0477  0.0265
25150SOL    HW177172   2.781   3.640   3.245  0.2590 -0.9572  4.4046
25150SOL    HW277173   2.653   3.718   3.229  1.7794  1.0544  0.8590
25151SOL     OW77174   8.562   9.621   8.984  0.4448  0.1385 -0.0383
25151SOL    HW177175   8.583   9.662   8.900 -1.0669  0.5348 -0.2539
25151SOL    HW277176   8.620   9.545   8.988 -1.2684 -1.4906 -2.7481
25152SOL     OW77177   4.821   8.606   4.091  0.1552 -0.1711  0.2596
25152SOL    HW177178   4.900   8.656   4.114  0.6435 -0.0706 -1.5199
25152SOL    HW277179   4.851   8.516   4.084  0.6417  0.0954 -2.3380
25153SOL     OW77180   9.519   4.071   8.454  0.3503  0.6603 -0.2647
25153SOL    HW177181   9.499   4.130   8.527 -0.8200  2.2895 -1.8225
25153SOL    HW277182   9.436   4.061   8.408  1.0658 -0.2964 -1.4161
25154SOL     OW77183   5.103   2.499   1.877  0.8424  0.2701  0.3336
25154SOL    HW177184   5.019   2.545   1.881  0.6753 -0.0192  0.1537
25154SOL    HW277185   5.129   2.506   1.785  1.9491  2.0211  0.7386
25155SOL     OW77186   6.543   0.594   1.315 -0.1159 -0.0910 -0.2730
25155SOL    HW177187   6.564   0.561   1.402 -1.0926  2.2708  0.9771
25155SOL    HW277188   6.616   0.653   1.293  0.2620 -0.8762 -1.2151
25156SOL     OW77189   7.268   8.811   4.193  0.1131 -0.0048  0.2639
25156SOL    HW177190   7.283   8.890   4.245 -1.1973  0.6096 -0.2543
25156SOL    HW277191   7.240   8.843   4.107 -2.5430 -0.9665  0.6741
25157SOL     OW77192   1.663   0.960   3.222  0.0655  0.1789  0.0376
25157SOL    HW177193   1.593   1.008   3.267 -0.6496 -1.2350  0.4885
25157SOL    HW277194   1.657   0.989   3.131 -0.0179  1.2987  0.3839
25158SOL     OW77195   7.825   9.056   7.950  0.3614  0.3929 -0.0750
25158SOL    HW177196   7.897   9.001   7.917 -0.7065 -1.1033 -0.0439
25158SOL    HW277197   7.779   9.085   7.871 -1.1916 -1.7993 -0.0843
25159SOL     OW77198   6.235   7.568   3.427  0.4299 -0.5739  0.0605
25159SOL    HW177199   6.179   7.491   3.418  2.5722 -2.3405  0.7974
25159SOL    HW277200   6.312   7.548   3.373  0.8082  1.3480 -0.2001
25160SOL     OW77201   7.581   3.744   3.734  0.1325  0.0458  0.8618
25160SOL    HW177202   7.596   3.779   3.822 -4.0254  0.3731  1.6447
25160SOL    HW277203   7.524   3.808   3.692  1.2383 -0.5709 -1.8143
25161SOL     OW77204   3.683   6.153   0.285  0.8172  0.6217  0.8615
25161SOL    HW177205   3.761   6.208   0.299  0.9124  0.5351  0.6853
25161SOL    HW277206   3.687   6.130   0.192  0.2665  1.0915  0.7155
25162SOL     OW77207   4.585   0.154   2.805  0.0594 -0.2463  0.5819
25162SOL    HW177208   4.573   0.060   2.800 -0.7523 -0.2051  1.3437
25162SOL    HW277209   4.496   0.189   2.814  0.3600  0.5714  0.4525
25163SOL     OW77210   6.764   2.697   3.415  0.2146 -0.0062 -0.1170
25163SOL    HW177211   6.808   2.778   3.443  2.2958 -0.5571 -1.5034
25163SOL    HW277212   6.684   2.693   3.467  1.0011  1.9547  1.3537
25164SOL     OW77213   5.325   7.259   2.553  0.0232  0.0743 -0.0564
25164SOL    HW177214   5.390   7.203   2.512  0.4727 -0.2774  1.0919
25164SOL    HW277215   5.271   7.199   2.604  0.1860  0.6114  0.7714
25165SOL     OW77216   3.454   2.825   3.259 -0.2387 -0.3836 -0.5817
25165SOL    HW177217   3.449   2.909   3.305  1.1839 -0.0132 -1.0474
25165SOL    HW277218   3.529   2.780   3.299 -0.2740 -0.9340 -1.1192
25166SOL     OW77219   1.569   6.480   4.531 -0.1442  0.2462 -0.1218
25166SOL    HW177220   1.550   6.568   4.498 -3.6593 -0.5932 -0.7539
25166SOL    HW277221   1.607   6.434   4.456 -1.4678  0.3367 -0.8758
25167SOL     OW77222   6.980   2.637   2.992 -0.2192 -0.4549  0.3291
25167SOL    HW177223   6.923   2.595   3.055 -1.2114  0.5643  0.1355
25167SOL    HW277224   6.972   2.731   3.011 -0.2606 -0.1546 -1.0621
25168SOL     OW77225   7.698   7.988   1.948 -0.0561 -0.4731  0.7638
25168SOL    HW177226   7.761   7.954   1.885 -1.0058  0.9832 -1.0407
25168SOL    HW277227   7.613   7.973   1.909 -0.5903  2.5353  0.5256
25169SOL     OW77228   6.289   9.407   2.853  0.2007 -0.2807  0.2844
25169SOL    HW177229   6.288   9.394   2.948 -0.2529  1.4675  0.5479
25169SOL    HW277230   6.287   9.318   2.817  1.5908 -1.0245  1.8980
25170SOL     OW77231   3.031   5.472   3.256  0.0329  0.1490  0.0857
25170SOL    HW177232   2.960   5.471   3.322  0.9414  0.8439  1.1042
25170SOL    HW277233   3.023   5.388   3.212 -0.4859 -0.4332  1.2388
25171SOL     OW77234   3.277   0.189   2.649  0.5909 -0.3891  0.5210
25171SOL    HW177235   3.270   0.145   2.733  2.2412  0.0129  0.9012
25171SOL    HW277236   3.208   0.256   2.652  0.4113 -0.5968  1.4130
25172SOL     OW77237   2.931   1.169   8.537  0.0522  0.6348  0.1800
25172SOL    HW177238   2.892   1.256   8.528  0.9599  1.0381  0.0032
25172SOL    HW277239   2.892   1.133   8.617  0.4407  1.6441  0.8486
25173SOL     OW77240   3.385   4.342   8.745 -0.1790  0.1580  0.3317
25173SOL    HW177241   3.388   4.257   8.789  2.8769  0.0511  0.1583
25173SOL    HW277242   3.400   4.406   8.815  1.2417  0.2217  0.0158
25174SOL     OW77243   4.745   0.303   3.328  0.6196  0.2935  0.2533
25174SOL    HW177244   4.664   0.314   3.277 -0.0530  1.6086  1.5459
25174SOL    HW277245   4.810   0.274   3.263 -0.5558  0.4975 -1.0678
25175SOL     OW77246   9.463   1.815   5.460  0.0040  0.3324  0.0429
25175SOL    HW177247   9.371   1.838   5.475 -0.1654  0.7120 -1.4193
25175SOL    HW277248   9.468   1.722   5.482 -0.8373  0.2043 -0.2616
25176SOL     OW77249   3.871   1.127   0.570  0.1687 -0.0819  0.7057
25176SOL    HW177250   3.863   1.107   0.663 -0.9342  1.4215  0.9653
25176SOL    HW277251   3.824   1.210   0.558  1.2563  0.3651 -0.9769
25177SOL     OW77252   8.211   1.934   9.036 -0.7812  0.1625 -0.5968
25177SOL    HW177253   8.253   2.019   9.043 -0.8413  0.1120  0.6027
25177SOL    HW277254   8.163   1.924   9.118  0.1496 -1.5010 -0.2047
25178SOL     OW77255   2.966   8.237   8.149  0.3001  0.1240  0.4519
25178SOL    HW177256   3.007   8.151   8.161  0.3083  0.3175  2.0336
25178SOL    HW277257   3.018   8.297   8.202 -1.7145  0.4416  2.2358
25179SOL     OW77258   8.633   8.401   3.873 -0.3534 -0.5142  0.2093
25179SOL    HW177259   8.698   8.400   3.943  0.1869 -0.3198 -0.2850
25179SOL    HW277260   8.566   8.462   3.904 -1.2582 -2.0889  1.5535
25180SOL     OW77261   3.833   9.666   1.025 -0.3820  0.7705 -0.3198
25180SOL    HW177262   3.747   9.708   1.030 -0.8723 -0.2688  0.2067
25180SOL    HW277263   3.868   9.671   1.114  0.1040  1.1584 -0.5228
25181SOL     OW77264   2.576   0.030   4.196  0.8677  0.0317 -0.2216
25181SOL    HW177265   2.541   0.106   4.151  2.2706  0.6849 -0.2472
25181SOL    HW277266   2.647   0.064   4.251 -0.2657 -0.8484  1.9067
25182SOL     OW77267   0.338   9.000   9.664  0.1710 -0.1006 -0.3783
25182SOL    HW177268   0.247   9.013   9.691  0.1576 -0.5498 -0.2052
25182SOL    HW277269   0.388   9.058   9.721 -0.0301  0.3821 -0.6815
25183SOL     OW77270   0.616   3.941   6.342 -0.5203  0.3690  0.4642
25183SOL    HW177271   0.599   3.893   6.261 -0.5465 -2.3257  1.9635
25183SOL    HW277272   0.530   3.948   6.384 -0.2330  0.1517  1.0909
25184SOL     OW77273   5.262   2.292   3.133  0.4051  0.2483 -0.4251
25184SOL    HW177274   5.315   2.243   3.070 -0.0230 -0.6376 -0.1157
25184SOL    HW277275   5.209   2.225   3.177  0.5852  0.8673  0.7742
25185SOL     OW77276   6.358   2.862   1.312 -0.1859 -0.3879  0.0670
25185SOL    HW177277   6.411   2.847   1.233 -0.6220 -1.5622 -0.0300
25185SOL    HW277278   6.281   2.807   1.299  0.5967 -2.1285  2.1294
25186SOL     OW77279   6.836   3.738   7.605  0.4380 -0.1950 -1.2308
25186SOL    HW177280   6.761   3.679   7.606  1.4717 -1.5822 -1.2581
25186SOL    HW277281   6.853   3.754   7.512 -0.2135  0.6684 -1.2113
25187SOL     OW77282   4.200   0.067   4.192  0.4557 -0.2132 -0.1311
25187SOL    HW177283   4.110   0.081   4.221  0.0065  0.9334 -1.9394
25187SOL    HW277284   4.252   0.126   4.247  0.2827 -1.5624  1.5693
25188SOL     OW77285   0.137   2.102   8.930 -0.2838 -0.1388  0.3691
25188SOL    HW177286   0.119   2.051   8.851  1.5444  1.0839 -0.9339
25188SOL    HW277287   0.060   2.159   8.941 -0.8804 -0.8514 -0.0737
25189SOL     OW77288   5.707   3.929   0.213  0.0037 -0.0747 -0.2550
25189SOL    HW177289   5.662   3.981   0.147 -0.1338  1.5333  1.0414
25189SOL    HW277290   5.797   3.921   0.180 -0.3830 -0.4338 -1.2504
25190SOL     OW77291   7.807   2.013   3.218 -0.2373 -0.7769 -0.4321
25190SOL    HW177292   7.903   2.014   3.215 -0.2481  0.3473 -1.4038
25190SOL    HW277293   7.781   1.953   3.149 -0.2233 -0.1385 -1.0082
25191SOL     OW77294   9.606   4.347   2.678  0.1060 -0.2396  0.1234
25191SOL    HW177295   9.662   4.282   2.721  0.2803 -0.4182 -0.3732
25191SOL    HW277296   9.623   4.335   2.585 -0.9586 -0.4794 -0.0511
25192SOL     OW77297   2.945   4.943   4.067  0.5466 -0.4032  0.1563
25192SOL    HW177298   3.037   4.956   4.086  0.2289  0.2517  1.3620
25192SOL    HW277299   2.941   4.935   3.971  1.5939  1.9760 -0.1538
25193SOL     OW77300   5.598   3.877   4.921  0.3746 -0.0998 -0.1331
25193SOL    HW177301   5.506   3.864   4.898 -0.3845  0.5540  2.2213
25193SOL    HW277302   5.596   3.903   5.013  2.8164  1.5156 -0.4358
25194SOL     OW77303   8.925   5.329   0.237 -0.1041 -0.0375  0.1312
25194SOL    HW177304   8.934   5.245   0.283 -1.1885 -0.9673 -1.2832
25194SOL    HW277305   8.950   5.309   0.147  1.7137  1.6857  0.1733
25195SOL     OW77306   4.156   9.252   6.307 -0.1015 -0.2844  0.1392
25195SOL    HW177307   4.128   9.161   6.313 -0.9614 -0.0477 -0.1735
25195SOL    HW277308   4.219   9.262   6.378  0.8166 -1.3984 -0.4841
25196SOL     OW77309   8.227   8.045   0.477  0.0524 -0.2364  0.0528
25196SOL    HW177310   8.245   7.962   0.522 -1.1441 -0.6852 -0.2606
25196SOL    HW277311   8.231   8.111   0.546  0.2904 -0.6456  0.4356
25197SOL     OW77312   5.120   8.327   3.001  0.5986 -0.1399  0.0429
25197SOL    HW177313   5.158   8.414   2.995  0.5050 -0.1771 -1.5361
25197SOL    HW277314   5.136   8.300   3.091 -0.2303  1.8786  0.8465
25198SOL     OW77315   2.814   3.659   5.680  0.6601  0.6727  0.2335
25198SOL    HW177316   2.781   3.655   5.590 -2.6721 -1.6923  1.3467
25198SOL    HW277317   2.757   3.724   5.722  0.8505  0.2969  1.0782
25199SOL     OW77318   9.236   1.712   2.921 -0.1417  0.1096 -0.4338
25199SOL    HW177319   9.267   1.660   2.995 -0.2620  0.4081 -0.1724
25199SOL    HW277320   9.225   1.648   2.850 -0.6020 -0.2810 -0.0250
25200SOL     OW77321   6.712   7.256   2.856 -0.0693 -0.2661  0.2089
25200SOL    HW177322   6.753   7.256   2.943 -2.1256 -0.3140  1.2428
25200SOL    HW277323   6.651   7.330   2.859 -1.2114 -1.1426 -0.6736
25201SOL     OW77324   3.537   8.895   0.727 -0.6573  0.2111 -0.2931
25201SOL    HW177325   3.572   8.923   0.642 -1.0857  0.2730 -0.4491
25201SOL    HW277326   3.592   8.821   0.753 -0.4634  0.2564 -0.5773
25202SOL     OW77327   7.691   2.753   1.899  0.1489  0.2801  0.0907
25202SOL    HW177328   7.656   2.694   1.832 -1.8555  1.4795  0.0071
25202SOL    HW277329   7.669   2.841   1.868  2.7368  1.1145  0.3907
25203SOL     OW77330   3.002   0.713   1.275 -0.1380 -0.0515 -0.0863
25203SOL    HW177331   2.955   0.634   1.300  0.9142 -0.0192  2.2892
25203SOL    HW277332   3.060   0.685   1.204  2.7393 -2.4912  2.8750
25204SOL     OW77333   8.389   0.598   0.051 -0.5551 -0.3639  0.5652
25204SOL    HW177334   8.440   0.633   0.124 -0.8624  1.2584  0.0463
25204SOL    HW277335   8.390   0.668  -0.015 -0.6907 -1.5905 -0.7956
25205SOL     OW77336   5.996   3.511   7.341  1.0265  1.0256 -0.0774
25205SOL    HW177337   6.035   3.598   7.338  1.0867  0.9741 -1.3345
25205SOL    HW277338   6.055   3.456   7.289  2.3393 -0.3680  2.6734
25206SOL     OW77339   3.431   0.990   2.795  0.3606  0.3040  0.4152
25206SOL    HW177340   3.398   1.080   2.801 -1.4218 -0.3399  0.7617
25206SOL    HW277341   3.357   0.939   2.762  2.2955 -0.5751 -3.0320
25207SOL     OW77342   4.443   0.744   6.461  0.3040 -0.5201 -0.2894
25207SOL    HW177343   4.502   0.781   6.527 -0.3005  0.0808 -0.0842
25207SOL    HW277344   4.359   0.734   6.505 -0.1944  0.1694 -1.0332
25208SOL     OW77345   4.511   9.157   3.967 -0.2782 -0.1830  0.1791
25208SOL    HW177346   4.514   9.193   3.879 -0.5917 -0.5478  0.0141
25208SOL    HW277347   4.561   9.075   3.961  0.9820  0.5218  0.7010
25209SOL     OW77348   5.275   2.153   1.220 -0.2002 -0.2999  0.5162
25209SOL    HW177349   5.180   2.147   1.219 -0.2038 -0.7327  1.5392
25209SOL    HW277350   5.298   2.203   1.141 -1.2739 -0.0872  0.3305
25210SOL     OW77351   8.661   8.024   8.598 -0.2058 -0.3265  0.4772
25210SOL    HW177352   8.661   7.991   8.688  0.1751  1.1169  1.0449
25210SOL    HW277353   8.683   7.948   8.544 -0.1898 -1.1634  1.6269
25211SOL     OW77354   1.543   0.254   9.209  0.0395  0.1541 -0.7047
25211SOL    HW177355   1.547   0.212   9.123  0.6027  0.3557 -0.7801
25211SOL    HW277356   1.466   0.311   9.204 -1.0840 -1.2813 -0.4040
25212SOL     OW77357   3.433   1.343   0.565  1.0691  0.0017 -0.4767
25212SOL    HW177358   3.448   1.413   0.502 -0.6879  1.7606  0.9106
25212SOL    HW277359   3.420   1.388   0.648  0.3810 -2.0095  0.5824
25213SOL     OW77360   2.530   4.314   7.769 -0.3070 -0.1371 -0.3929
25213SOL    HW177361   2.463   4.376   7.797 -1.8566 -1.1461 -1.6563
25213SOL    HW277362   2.531   4.321   7.673  0.7527 -0.8076 -0.4532
25214SOL     OW77363   7.452   7.154   1.172  0.2835 -0.4242  0.3682
25214SOL    HW177364   7.516   7.177   1.239 -0.3759 -0.2491  0.9512
25214SOL    HW277365   7.404   7.235   1.156 -0.2456 -0.7168  0.4457
25215SOL     OW77366   7.786   2.576   1.245  0.0298  0.0059  0.0475
25215SOL    HW177367   7.746   2.534   1.169 -0.9185 -0.9999  1.0626
25215SOL    HW277368   7.853   2.514   1.273  1.0844  0.8504 -0.5628
25216SOL     OW77369   4.852   0.030   3.300 -0.1193  0.7605  0.2870
25216SOL    HW177370   4.768   0.007   3.340  0.3084 -1.1719  0.1520
25216SOL    HW277371   4.905  -0.050   3.306  1.6176  1.8319  0.0940
25217SOL     OW77372   7.101   6.636   0.158  0.6181 -0.6571  0.4887
25217SOL    HW177373   7.013   6.666   0.135  0.1908 -1.0966  1.4735
25217SOL    HW277374   7.087   6.576   0.232  1.7557 -0.5708  0.7908
25218SOL     OW77375   3.053   0.964   1.377  0.0460 -0.4190 -0.4076
25218SOL    HW177376   3.041   0.873   1.349 -0.4961 -0.3035 -0.5512
25218SOL    HW277377   3.095   1.007   1.302  1.3407 -0.8032  0.0674
25219SOL     OW77378   3.416   6.195   2.386 -0.5771 -0.6099 -0.5214
25219SOL    HW177379   3.449   6.143   2.313  0.4075 -0.9331  0.1282
25219SOL    HW277380   3.348   6.250   2.348  0.1767 -0.4979 -1.7548
25220SOL     OW77381   6.868   2.155   2.271  0.1562 -0.2906  0.5374
25220SOL    HW177382   6.892   2.205   2.349  0.8956 -1.3534  1.0098
25220SOL    HW277383   6.947   2.157   2.217  0.1009 -0.7338  0.4424
25221SOL     OW77384   5.501   5.072   1.730 -0.0152 -0.4380  0.9163
25221SOL    HW177385   5.507   5.004   1.797 -1.1285 -0.0042  1.4850
25221SOL    HW277386   5.571   5.051   1.668  0.2034 -1.5985  1.5265
25222SOL     OW77387   4.283   7.450   8.635  0.1022 -0.2096 -0.1543
25222SOL    HW177388   4.188   7.463   8.641  0.1037 -0.5401  0.6943
25222SOL    HW277389   4.311   7.512   8.568 -0.6991 -0.0433 -0.3522
25223SOL     OW77390   7.070   6.150   9.482 -0.5660  0.2211 -0.5135
25223SOL    HW177391   7.038   6.192   9.562 -1.0322 -0.0058 -0.5803
25223SOL    HW277392   6.994   6.147   9.424 -0.1980  0.5069 -1.0225
25224SOL     OW77393   1.414   2.520   9.304  0.1748 -0.1772  0.6469
25224SOL    HW177394   1.477   2.591   9.292 -0.0726 -0.1288 -0.4486
25224SOL    HW277395   1.394   2.522   9.398 -0.7313  1.9638  0.4612
25225SOL     OW77396   5.006   9.529   2.648  0.2581 -0.1975 -0.4008
25225SOL    HW177397   4.914   9.517   2.627 -0.4710  1.1770  1.7235
25225SOL    HW277398   5.010   9.613   2.693  2.2818 -1.0386  1.1512
25226SOL     OW77399   8.564   4.041   4.641 -0.1690 -0.7343  0.6700
25226SOL    HW177400   8.592   4.025   4.551 -0.5813  0.3953  0.3317
25226SOL    HW277401   8.502   3.970   4.659 -1.7712  0.2253 -0.7121
25227SOL     OW77402   5.514   0.450   3.004  0.4914 -0.3379 -0.0147
25227SOL    HW177403   5.470   0.499   3.073  0.1807  0.5719 -0.8376
25227SOL    HW277404   5.538   0.516   2.939  0.9265 -1.1504 -0.7002
25228SOL     OW77405   6.553   1.658   0.191 -0.7596 -0.4207 -0.4647
25228SOL    HW177406   6.564   1.576   0.239  3.6274  0.1746 -0.0872
25228SOL    HW277407   6.514   1.718   0.254  1.2793 -0.7293  1.1816
25229SOL     OW77408   6.311   4.568   2.335 -0.1612 -0.3968 -0.0221
25229SOL    HW177409   6.344   4.516   2.408 -0.7141 -0.0122  0.5174
25229SOL    HW277410   6.249   4.628   2.376  0.0119  0.2643 -0.7261
25230SOL     OW77411   0.635   4.447   1.097  0.1960  0.7011 -0.1817
25230SOL    HW177412   0.557   4.415   1.142  0.0162  0.1816 -0.8385
25230SOL    HW277413   0.699   4.377   1.107  0.2903  0.7567 -0.3858
25231SOL     OW77414   5.534   5.765   7.859 -0.1969  0.3284  0.0824
25231SOL    HW177415   5.599   5.742   7.926  0.1501 -0.2349 -0.4356
25231SOL    HW277416   5.584   5.810   7.791 -0.3224 -0.1967 -0.3672
25232SOL     OW77417   2.704   5.182   7.678 -0.4315  0.1242  0.0367
25232SOL    HW177418   2.640   5.123   7.639  0.4699 -0.6493 -0.3165
25232SOL    HW277419   2.783   5.170   7.625 -0.0860  1.2982  0.2608
25233SOL     OW77420   7.079   4.682   6.637  0.1680 -0.5426 -0.3133
25233SOL    HW177421   7.166   4.714   6.614  0.4351 -0.9702  0.0710
25233SOL    HW277422   7.025   4.703   6.561  0.1973  1.2755  0.1135
25234SOL     OW77423   2.625   9.331   9.147  0.3921  0.0971  0.2473
25234SOL    HW177424   2.694   9.288   9.097  1.2636 -0.4952  1.9060
25234SOL    HW277425   2.553   9.269   9.147  0.5359 -0.0719  0.0720
25235SOL     OW77426   7.046   7.409   6.117 -0.2466  0.4788  0.2973
25235SOL    HW177427   7.034   7.379   6.207 -0.9336 -0.9346 -0.2298
25235SOL    HW277428   7.138   7.433   6.111 -0.5936  2.4568  1.8829
25236SOL     OW77429   8.692   5.335   1.069 -0.0008 -0.3148 -0.2784
25236SOL    HW177430   8.680   5.243   1.089  2.0258 -0.5238  0.2181
25236SOL    HW277431   8.630   5.353   0.999 -0.4637 -2.0365 -0.3477
25237SOL     OW77432   9.632   5.406   4.721 -0.1688 -0.0434 -0.5391
25237SOL    HW177433   9.564   5.365   4.774 -1.7199 -1.1047 -3.1468
25237SOL    HW277434   9.592   5.486   4.688  1.5619  1.8313  1.5328
25238SOL     OW77435   1.385   2.878   7.073 -0.4641  0.4944 -0.3424
25238SOL    HW177436   1.450   2.906   7.138 -0.6339 -0.6986  0.3640
25238SOL    HW277437   1.348   2.960   7.039  1.7915  1.2262 -1.1883
25239SOL     OW77438   4.142   2.570   1.838 -0.1222 -0.2718 -0.0826
25239SOL    HW177439   4.069   2.597   1.783 -1.7977 -3.5713  0.2809
25239SOL    HW277440   4.212   2.548   1.776 -0.5692 -0.1295 -0.6420
25240SOL     OW77441   1.153   0.837   7.228 -0.4467  0.5815  0.0644
25240SOL    HW177442   1.057   0.831   7.221 -0.3996 -0.1351 -0.0332
25240SOL    HW277443   1.168   0.920   7.272 -1.1391  0.4215  0.6252
25241SOL     OW77444   6.589   6.172   0.798 -0.3594 -0.5639  0.1241
25241SOL    HW177445   6.657   6.108   0.819  1.2237 -0.0654 -2.9323
25241SOL    HW277446   6.592   6.180   0.703 -2.3984  2.0392  0.1587
25242SOL     OW77447   4.869   7.943   0.967 -0.1701  0.5280 -0.0477
25242SOL    HW177448   4.828   7.935   1.053 -1.9422 -0.7450 -0.9475
25242SOL    HW277449   4.932   7.871   0.962 -2.2370 -1.3450 -0.8698
25243SOL     OW77450   0.067   7.088   8.078  0.4793 -0.2718 -0.0038
25243SOL    HW177451  -0.012   7.063   8.126 -0.9935 -1.0735 -2.6066
25243SOL    HW277452   0.109   7.004   8.056  0.9159  0.0405 -0.3895
25244SOL     OW77453   9.123   9.201   8.623  0.3240 -0.4238 -0.1334
25244SOL    HW177454   9.062   9.259   8.578  1.1236 -0.0269 -0.7277
25244SOL    HW277455   9.123   9.231   8.714 -2.1367 -1.9173  0.4516
25245SOL     OW77456   8.616   0.072   1.685  0.3114  0.5211 -0.2376
25245SOL    HW177457   8.527   0.084   1.718  0.8818  0.2676  1.4706
25245SOL    HW277458   8.604   0.042   1.595 -1.3848 -1.0456  0.4372
25246SOL     OW77459   2.017   2.907   6.880  0.1986 -0.4496 -0.1607
25246SOL    HW177460   2.037   2.915   6.787  0.3527 -0.5708 -0.1399
25246SOL    HW277461   1.928   2.872   6.883 -0.4008  1.0289 -0.2539
25247SOL     OW77462   4.848   9.308   4.969 -0.3797  0.3983 -0.0926
25247SOL    HW177463   4.928   9.303   4.917  0.7111 -2.1304  1.6213
25247SOL    HW277464   4.777   9.307   4.906  0.8902 -1.6728 -1.5843
25248SOL     OW77465   9.116   9.017   8.048 -0.2452 -0.0700 -0.9886
25248SOL    HW177466   9.035   9.025   7.997  0.2632  1.3323 -1.6212
25248SOL    HW277467   9.135   8.923   8.046 -2.6989 -0.6934  0.5636
25249SOL     OW77468   2.468   6.096   2.335  0.5250  0.8893 -0.0970
25249SOL    HW177469   2.503   6.086   2.424 -1.6077  1.0756  0.8228
25249SOL    HW277470   2.537   6.139   2.287  0.8665  3.0407  2.1211
25250SOL     OW77471   0.875   9.282   5.621 -0.6430 -0.6416 -0.4531
25250SOL    HW177472   0.802   9.337   5.594 -0.1267  0.1441 -0.2682
25250SOL    HW277473   0.836   9.219   5.683 -1.0957 -0.0195 -0.0974
25251SOL     OW77474   0.600   5.369   6.622  0.0089 -0.7780 -0.2256
25251SOL    HW177475   0.640   5.428   6.558 -0.9441 -1.1331 -1.1589
25251SOL    HW277476   0.510   5.358   6.593 -0.4111 -1.0599  1.1061
25252SOL     OW77477   3.352   5.568   5.603 -0.1524 -0.1519  0.1603
25252SOL    HW177478   3.426   5.520   5.567  0.3756  0.1634  0.8010
25252SOL    HW277479   3.392   5.638   5.655 -0.6950 -2.3945  4.0517
25253SOL     OW77480   3.116   0.721   4.639  0.4560 -0.3291  0.4399
25253SOL    HW177481   3.185   0.772   4.598  1.0034 -1.7273 -0.4378
25253SOL    HW277482   3.039   0.736   4.584  0.2292  0.6321  0.9907
25254SOL     OW77483   7.009   0.359   4.066 -0.0882 -0.2922 -0.4318
25254SOL    HW177484   6.986   0.368   4.159  1.6489 -1.1186  0.1315
25254SOL    HW277485   7.055   0.439   4.044 -0.9647  0.1364 -0.7564
25255SOL     OW77486   5.990   4.838   0.124 -0.2237 -0.0088 -0.2119
25255SOL    HW177487   6.029   4.892   0.193  0.1888  0.3756 -0.7345
25255SOL    HW277488   6.029   4.752   0.137  2.0311  0.6956 -1.6115
25256SOL     OW77489   8.163   4.110   0.919  0.2976  0.3233 -0.1287
25256SOL    HW177490   8.173   4.203   0.934 -0.2491  0.3613  0.0269
25256SOL    HW277491   8.201   4.095   0.833  0.4374  0.6787 -0.1283
25257SOL     OW77492   2.226   7.985   3.989 -0.0258 -0.1134 -0.2157
25257SOL    HW177493   2.162   7.957   3.924 -0.1841  0.3493 -0.2637
25257SOL    HW277494   2.247   8.075   3.965 -0.1884  0.1089  0.4448
25258SOL     OW77495   9.562   3.712   5.552  0.1031 -0.0922 -0.1403
25258SOL    HW177496   9.558   3.807   5.566 -0.6437 -0.3145  1.3369
25258SOL    HW277497   9.626   3.681   5.616 -1.0296 -0.7870  0.6970
25259SOL     OW77498   5.402   7.338   5.419 -0.6957 -0.3238 -0.0048
25259SOL    HW177499   5.450   7.396   5.478  0.5005 -1.1320 -0.1480
25259SOL    HW277500   5.356   7.278   5.477 -1.5457  0.4419  0.1335
25260SOL     OW77501   6.938   3.241   1.690 -0.0213  0.0218  0.1328
25260SOL    HW177502   6.908   3.150   1.687  0.6511 -0.2754  1.6986
25260SOL    HW277503   6.978   3.255   1.604  1.5796 -1.7898  0.5106
25261SOL     OW77504   3.559   0.668   8.222 -0.4087 -0.2239 -0.3087
25261SOL    HW177505   3.555   0.740   8.286 -1.8768 -0.8022  0.2861
25261SOL    HW277506   3.469   0.638   8.214 -0.1458 -0.6271 -2.1656
25262SOL     OW77507   0.703   0.819   4.938  0.2049 -0.3823 -0.0152
25262SOL    HW177508   0.608   0.830   4.941  0.2997  0.7741 -0.4333
25262SOL    HW277509   0.718   0.753   4.871 -0.3201 -0.7442  0.2239
25263SOL     OW77510   9.052   7.349   0.785 -0.1652 -0.0858 -0.4450
25263SOL    HW177511   9.056   7.310   0.872  0.7503  0.9674 -0.0060
25263SOL    HW277512   9.137   7.328   0.745 -0.9215 -1.3858 -1.4730
25264SOL     OW77513   4.041   5.111   5.200 -0.0785 -0.3256 -0.4467
25264SOL    HW177514   4.112   5.124   5.264 -0.3643 -2.7160  0.4380
25264SOL    HW277515   4.043   5.191   5.147  1.5660  0.8232  1.1859
25265SOL     OW77516   5.918   0.451   6.104 -0.0831  0.0837 -0.6814
25265SOL    HW177517   5.924   0.454   6.009 -2.0137  0.1331 -0.8471
25265SOL    HW277518   5.825   0.465   6.123  0.0202 -1.2007  1.1475
25266SOL     OW77519   5.016   3.658   2.502  0.2278  0.4372  0.6311
25266SOL    HW177520   5.080   3.592   2.528 -1.0461 -0.1552  2.5285
25266SOL    HW277521   4.958   3.665   2.578 -0.8615  2.2829 -0.3164
25267SOL     OW77522   9.625   0.060   7.937  0.1067  0.4356  0.2372
25267SOL    HW177523   9.585   0.147   7.927 -0.1721  0.3417  0.5019
25267SOL    HW277524   9.573   0.003   7.879 -0.0968  0.3287  0.5211
25268SOL     OW77525   8.572   0.253   5.832 -1.0006  0.5314  0.1873
25268SOL    HW177526   8.644   0.190   5.835 -0.4966  0.9915 -1.1609
25268SOL    HW277527   8.531   0.247   5.918  1.2364  0.9431  1.3648
25269SOL     OW77528   6.379   2.484   0.740  0.8127  0.0898 -0.0023
25269SOL    HW177529   6.290   2.472   0.706  1.6416 -1.7225 -1.7414
25269SOL    HW277530   6.406   2.569   0.704 -0.5299  1.2208  1.4696
25270SOL     OW77531   5.489   7.617   0.884  0.1788 -0.6614 -0.1103
25270SOL    HW177532   5.560   7.554   0.899  0.5971  0.2594  2.2771
25270SOL    HW277533   5.440   7.616   0.967 -0.1964  1.6393 -0.2533
25271SOL     OW77534   5.773   5.631   5.023 -0.0501 -0.4048 -0.2897
25271SOL    HW177535   5.710   5.561   5.041  0.3219 -1.3578 -2.3690
25271SOL    HW277536   5.771   5.640   4.928 -0.1821  2.5556 -0.0894
25272SOL     OW77537   2.037   8.084   1.931  0.0482  0.1334  0.8196
25272SOL    HW177538   1.951   8.100   1.893 -0.0496 -0.0534  0.9613
25272SOL    HW277539   2.099   8.119   1.867 -0.0802 -0.8872  0.1156
25273SOL     OW77540   1.897   3.696   8.937  0.2466 -0.0794 -0.6731
25273SOL    HW177541   1.830   3.659   8.994  0.8441  1.3905  1.0591
25273SOL    HW277542   1.877   3.789   8.934  2.8226  0.6043  0.8284
25274SOL     OW77543   7.288   6.581   8.091  0.3936  0.2779  0.1662
25274SOL    HW177544   7.272   6.575   7.996  2.0413 -1.6079 -0.0608
25274SOL    HW277545   7.300   6.675   8.107  1.7249  0.5103 -1.8315
25275SOL     OW77546   3.860   4.110   2.737 -0.4612  0.8246  0.0631
25275SOL    HW177547   3.829   4.078   2.821  2.8785  0.2407  1.2418
25275SOL    HW277548   3.833   4.044   2.674 -1.2397  0.2115  1.0171
25276SOL     OW77549   6.627   7.228   8.567  0.4050 -0.2079  0.2765
25276SOL    HW177550   6.592   7.317   8.574  0.3572 -0.2602  0.6843
25276SOL    HW277551   6.608   7.203   8.477  1.5508  0.6723 -0.2545
25277SOL     OW77552   7.742   6.623   3.386 -0.2657 -0.7296 -0.2440
25277SOL    HW177553   7.752   6.714   3.358  1.2649 -1.5209 -2.5415
25277SOL    HW277554   7.709   6.578   3.309  0.8449 -2.4668  0.2505
25278SOL     OW77555   7.617   4.735   3.288  0.3374  0.6660  0.1194
25278SOL    HW177556   7.638   4.751   3.380 -0.2222 -3.1725  1.1205
25278SOL    HW277557   7.534   4.686   3.291 -0.4308  1.6212 -2.5688
25279SOL     OW77558   3.649   1.887   8.213 -0.5323  0.3035 -0.2840
25279SOL    HW177559   3.586   1.939   8.262  1.6712  3.2619 -0.3070
25279SOL    HW277560   3.643   1.800   8.251 -5.1198  0.1045 -0.8720
25280SOL     OW77561   1.635   2.302   6.411  0.2014  0.0135 -0.5054
25280SOL    HW177562   1.549   2.267   6.432  0.7219 -0.2340  1.4194
25280SOL    HW277563   1.656   2.361   6.483  1.4486  0.4203 -1.1630
25281SOL     OW77564   5.237   0.983   8.253  0.3480 -0.0305  0.6178
25281SOL    HW177565   5.221   0.994   8.347  0.2589  1.3829  0.4595
25281SOL    HW277566   5.298   1.054   8.231 -2.1450  1.7406 -1.0194
25282SOL     OW77567   6.894   0.170   0.405 -0.0948 -1.0566 -0.9067
25282SOL    HW177568   6.877   0.095   0.461 -2.0646  0.2410  0.3588
25282SOL    HW277569   6.963   0.219   0.451 -1.1893 -0.3776  0.0536
25283SOL     OW77570   3.907   5.661   5.469  0.1619  1.0028 -0.2889
25283SOL    HW177571   3.874   5.627   5.552  2.1038 -2.2002 -0.6488
25283SOL    HW277572   4.002   5.667   5.481  0.5206  0.2655 -2.2718
25284SOL     OW77573   1.849   1.624   5.191  0.5860 -0.1731 -0.3523
25284SOL    HW177574   1.840   1.715   5.222  4.6240  0.3731 -0.3215
25284SOL    HW277575   1.880   1.632   5.101 -0.0622 -1.5997 -0.7343
25285SOL     OW77576   3.186   0.190   6.070  0.1363 -0.0906  0.6203
25285SOL    HW177577   3.242   0.263   6.043 -0.0126 -0.6551 -1.3871
25285SOL    HW277578   3.238   0.142   6.134  2.2439 -0.8450 -1.4947
25286SOL     OW77579   2.274   6.844   4.073 -0.1384  0.1215  0.3268
25286SOL    HW177580   2.231   6.841   4.158  2.5516  1.3362  1.8438
25286SOL    HW277581   2.278   6.937   4.050 -1.6885 -0.2198 -1.7040
25287SOL     OW77582   0.106   1.164   9.639  0.0113 -0.2746  0.0597
25287SOL    HW177583   0.027   1.181   9.690 -0.5033  0.4882 -0.9674
25287SOL    HW277584   0.177   1.169   9.704 -0.4039  2.6729  0.4703
25288SOL     OW77585   7.821   7.890   3.969 -0.6138  0.4044 -0.0131
25288SOL    HW177586   7.835   7.812   3.915  1.1154  0.4181  0.3543
25288SOL    HW277587   7.822   7.962   3.906 -0.7343  0.2483 -0.1978
25289SOL     OW77588   1.236   4.203   5.371 -0.5499  0.2438 -0.2312
25289SOL    HW177589   1.261   4.282   5.323 -1.7931  0.1279 -1.1161
25289SOL    HW277590   1.212   4.235   5.458  0.9227  0.5654  0.0770
25290SOL     OW77591   3.973   1.665   3.529 -0.4232  0.0109  0.5740
25290SOL    HW177592   3.980   1.722   3.453 -1.3241 -0.4914  0.1018
25290SOL    HW277593   3.989   1.722   3.604  1.2509  0.3623 -0.0083
25291SOL     OW77594   6.440   7.802   9.294 -0.0706  0.4606 -0.4488
25291SOL    HW177595   6.380   7.729   9.283 -0.6179  0.6747  0.9160
25291SOL    HW277596   6.419   7.862   9.223  0.6296 -0.8368 -1.8045
25292SOL     OW77597   5.767   5.132   7.312 -0.5333  0.6765  0.2163
25292SOL    HW177598   5.794   5.154   7.401 -1.0707  1.8406  0.1036
25292SOL    HW277599   5.769   5.215   7.264 -0.2110  0.0610 -0.8720
25293SOL     OW77600   5.773   4.159   7.789 -0.0305 -0.5055 -0.0539
25293SOL    HW177601   5.740   4.095   7.852 -1.1854 -0.2158 -0.3384
25293SOL    HW277602   5.695   4.186   7.740  0.6864  0.0183 -0.9271
25294SOL     OW77603   5.991   2.607   3.457 -0.1084  0.0147  0.2272
25294SOL    HW177604   6.010   2.522   3.418  1.9324  0.7496 -0.4815
25294SOL    HW277605   5.923   2.588   3.522 -2.8889 -1.4711 -2.7860
25295SOL     OW77606   9.013   0.832   2.777  0.2749  0.3869 -0.4164
25295SOL    HW177607   9.039   0.775   2.850 -0.5860  2.2242  1.4649
25295SOL    HW277608   8.925   0.861   2.800 -1.0548 -0.8332 -3.4830
25296SOL     OW77609   4.458   7.160   7.315 -0.3636 -0.1212  0.0247
25296SOL    HW177610   4.417   7.105   7.381  0.1241 -1.2130 -0.5553
25296SOL    HW277611   4.409   7.242   7.318  0.5264  0.4045  2.7180
25297SOL     OW77612   1.915   6.792   6.908  0.3285 -0.3038 -0.0213
25297SOL    HW177613   1.921   6.887   6.922 -0.7724 -0.2165 -0.0093
25297SOL    HW277614   1.872   6.759   6.987 -0.3739 -0.6389 -0.5281
25298SOL     OW77615   0.088   5.926   5.114 -0.5201  0.1279 -0.3765
25298SOL    HW177616   0.112   5.983   5.041 -0.8967 -0.3630 -0.8938
25298SOL    HW277617   0.005   5.886   5.087  0.3187 -1.5839 -0.5668
25299SOL     OW77618   3.682   6.823   3.664 -0.3853  0.1070 -0.1983
25299SOL    HW177619   3.711   6.738   3.631  0.2365 -0.3652  1.4590
25299SOL    HW277620   3.601   6.841   3.616 -0.2444 -1.1630 -0.9633
25300SOL     OW77621   5.292   4.193   9.081  0.3517  0.3348 -0.0209
25300SOL    HW177622   5.344   4.163   9.006  0.1215  0.2472 -0.1464
25300SOL    HW277623   5.214   4.137   9.080  0.5887 -0.0279  0.5946
25301SOL     OW77624   3.047   1.066   2.233 -0.6679  0.0527 -0.1337
25301SOL    HW177625   3.026   1.007   2.305  0.2174 -0.8686 -0.6139
25301SOL    HW277626   3.056   1.152   2.274  0.8517 -0.6298  1.0302
25302SOL     OW77627   7.803   3.678   9.419  0.1108 -0.1408 -0.4031
25302SOL    HW177628   7.710   3.700   9.413  0.1093 -0.4608 -1.7800
25302SOL    HW277629   7.849   3.760   9.398  0.1140 -0.4291 -1.6048
25303SOL     OW77630   4.238   3.655   2.881  0.3034 -0.3688  0.0205
25303SOL    HW177631   4.158   3.602   2.884  0.1538 -0.2170 -1.0020
25303SOL    HW277632   4.289   3.618   2.809  0.7899  0.0532  0.1445
25304SOL     OW77633   2.996   6.307   1.881  0.4293 -0.6356  0.0847
25304SOL    HW177634   2.929   6.275   1.941  0.7168 -0.5215  0.4683
25304SOL    HW277635   3.072   6.325   1.937  0.1722  1.0536 -0.0540
25305SOL     OW77636   6.324   3.477   6.556  0.3037  0.4009  0.2207
25305SOL    HW177637   6.294   3.492   6.646 -1.7535  0.6966 -0.4677
25305SOL    HW277638   6.384   3.403   6.563  1.9652  1.8177  2.1304
25306SOL     OW77639   0.305   6.631   2.950  0.2877 -0.1600  0.1790
25306SOL    HW177640   0.308   6.557   3.010  1.7894  1.7225  2.6055
25306SOL    HW277641   0.231   6.613   2.893 -0.2570 -2.8188  1.5854
25307SOL     OW77642   8.138   3.563   4.700 -0.1158  0.2810 -0.3565
25307SOL    HW177643   8.111   3.539   4.611  1.7519  0.4363 -1.0250
25307SOL    HW277644   8.232   3.579   4.692 -0.4198  3.3649  1.0092
25308SOL     OW77645   1.502   3.098   9.663 -0.0369  0.0729 -0.2551
25308SOL    HW177646   1.456   3.111   9.579 -1.0669 -0.5655  0.1828
25308SOL    HW277647   1.498   3.003   9.677  0.8437  0.0853  0.1388
25309SOL     OW77648   8.455   7.236   0.685 -0.0593 -0.7031  0.3226
25309SOL    HW177649   8.438   7.319   0.641 -2.6812 -1.0465  0.5380
25309SOL    HW277650   8.402   7.172   0.638 -0.1778 -1.7393  1.7904
25310SOL     OW77651   6.656   9.584   5.351  0.3821  0.3943  0.0413
25310SOL    HW177652   6.748   9.556   5.359 -0.0324 -1.3357 -0.7247
25310SOL    HW277653   6.606   9.507   5.378 -0.8328  0.8139 -0.9474
25311SOL     OW77654   2.391   2.867   2.792  0.2582 -0.2333 -0.2434
25311SOL    HW177655   2.483   2.845   2.809  0.4614 -0.8177 -1.9333
25311SOL    HW277656   2.345   2.839   2.871  1.6467  1.0088  1.0777
25312SOL     OW77657   7.500   1.538   1.954 -0.0128 -0.4839  0.0559
25312SOL    HW177658   7.456   1.500   1.877 -0.6191 -1.1526  0.7123
25312SOL    HW277659   7.466   1.627   1.959 -0.0751 -0.4797 -0.3723
25313SOL     OW77660   8.413   4.570   5.177  0.4357 -0.0756 -0.5095
25313SOL    HW177661   8.374   4.653   5.204 -0.4299 -0.1519 -1.4850
25313SOL    HW277662   8.498   4.568   5.221  0.4291  1.2814 -0.4123
25314SOL     OW77663   3.847   0.381   6.109 -0.4558  0.3191  0.4321
25314SOL    HW177664   3.908   0.388   6.183 -0.5646 -0.4470  0.5978
25314SOL    HW277665   3.817   0.290   6.111 -2.1530  0.8558  0.7709
25315SOL     OW77666   3.343   2.921   1.265 -0.1077 -0.1342  0.1861
25315SOL    HW177667   3.314   2.927   1.174  1.5016 -0.4638 -0.3919
25315SOL    HW277668   3.363   2.828   1.276  1.6829  0.2218  0.1931
25316SOL     OW77669   1.739   0.839   3.698 -0.1868  0.5594  0.5949
25316SOL    HW177670   1.828   0.807   3.683 -0.2445  0.4994  0.3786
25316SOL    HW277671   1.686   0.797   3.630 -0.1545  1.6011 -0.0926
25317SOL     OW77672   5.465   2.121   4.731 -0.1118 -0.2084  0.7462
25317SOL    HW177673   5.480   2.207   4.769 -1.1279  0.1913  0.2672
25317SOL    HW277674   5.553   2.086   4.716  0.2989  0.3918  1.7103
25318SOL     OW77675   2.806   9.262   0.043 -0.0808 -0.3074  0.6670
25318SOL    HW177676   2.736   9.239   0.104 -1.7376 -0.5433 -1.2163
25318SOL    HW277677   2.824   9.181  -0.004  1.8997 -0.3880  1.4918
25319SOL     OW77678   2.219   5.656   4.930  0.9274  0.1917  0.4450
25319SOL    HW177679   2.272   5.697   4.998  0.1069  3.1615 -0.5285
25319SOL    HW277680   2.268   5.673   4.849  0.6003 -0.9285 -0.0003
25320SOL     OW77681   7.910   3.097   3.244  0.2226 -0.0715 -0.0359
25320SOL    HW177682   7.816   3.081   3.247  0.1318  0.5410  1.5751
25320SOL    HW277683   7.919   3.183   3.204  0.1712 -0.5272 -1.0469
25321SOL     OW77684   0.744   2.018   8.619  0.2627 -1.1709 -0.0653
25321SOL    HW177685   0.821   2.043   8.670  0.5146 -0.2552 -0.8778
25321SOL    HW277686   0.680   2.087   8.638  0.1183 -1.1998 -0.4463
25322SOL     OW77687   7.460   4.598   9.025 -0.0231 -0.3311  0.0449
25322SOL    HW177688   7.410   4.544   8.963  0.0125  0.0824 -0.3533
25322SOL    HW277689   7.394   4.657   9.062 -0.0870 -0.7387  0.5803
25323SOL     OW77690   4.669   0.370   0.357  0.4390  0.9086 -0.0501
25323SOL    HW177691   4.578   0.375   0.327  0.2843 -0.4446  0.1205
25323SOL    HW277692   4.662   0.357   0.452  0.7037 -1.1423 -0.2508
25324SOL     OW77693   3.625   6.432   4.200  0.0349 -0.4165 -0.1200
25324SOL    HW177694   3.534   6.408   4.216  0.1814 -1.6331 -0.9505
25324SOL    HW277695   3.672   6.349   4.200  0.6791 -0.1442 -2.5334
25325SOL     OW77696   2.280   6.598   4.609 -0.3790 -0.5272  0.1906
25325SOL    HW177697   2.282   6.694   4.602  0.0520 -0.6318 -1.7644
25325SOL    HW277698   2.362   6.569   4.568 -0.9574 -1.7517 -0.1567
25326SOL     OW77699   8.742   4.495   0.472  0.1429 -0.1284  0.1259
25326SOL    HW177700   8.745   4.402   0.493 -0.3139 -0.4517 -1.1502
25326SOL    HW277701   8.681   4.532   0.536  0.6766 -0.6103  0.9320
25327SOL     OW77702   1.773   6.017   8.560 -0.0641 -0.3216 -0.2076
25327SOL    HW177703   1.793   6.039   8.651  0.4339  2.1894 -0.8483
25327SOL    HW277704   1.847   5.965   8.530  0.0149 -0.7174  0.6554
25328SOL     OW77705   4.116   5.278   7.614 -0.0836  0.0887 -0.3700
25328SOL    HW177706   4.117   5.218   7.539 -2.3172  0.2772 -0.6235
25328SOL    HW277707   4.077   5.227   7.685  1.7266  0.0107  0.6466
25329SOL     OW77708   0.851   3.487   7.980  0.2384 -0.9233  0.3120
25329SOL    HW177709   0.786   3.489   8.049  0.2835 -1.4322  0.3682
25329SOL    HW277710   0.934   3.505   8.024  0.0801  0.2718  0.1625
25330SOL     OW77711   9.157   5.469   3.639  0.1779  0.5092 -0.0558
25330SOL    HW177712   9.247   5.445   3.616  0.3575  1.1845 -0.0797
25330SOL    HW277713   9.152   5.454   3.733  0.1930  0.1061 -0.1153
25331SOL     OW77714   3.729   6.684   7.120  0.0942  0.3423  0.0500
25331SOL    HW177715   3.814   6.643   7.104  0.1812  0.0664  1.0999
25331SOL    HW277716   3.666   6.612   7.116  0.1652  0.1959  1.2298
25332SOL     OW77717   2.623   9.495   5.463 -0.0640 -0.0323  0.4696
25332SOL    HW177718   2.546   9.438   5.464  0.8193 -1.3226 -0.6610
25332SOL    HW277719   2.592   9.577   5.424 -1.0358 -0.2351  0.7868
25333SOL     OW77720   3.772   4.413   2.857  0.3412  0.0745  0.1843
25333SOL    HW177721   3.775   4.485   2.793  0.0976  1.2571  1.4457
25333SOL    HW277722   3.745   4.337   2.806 -1.3770  1.2885 -0.8445
25334SOL     OW77723   5.599   3.830   0.436 -0.1571 -0.2346  0.1300
25334SOL    HW177724   5.620   3.858   0.347  0.0640 -0.6070  0.0624
25334SOL    HW277725   5.552   3.747   0.424  0.6468 -0.7377  0.3926
25335SOL     OW77726   3.050   0.737   8.165 -0.1743 -0.0717  0.0563
25335SOL    HW177727   2.973   0.682   8.152  1.1768 -1.7975 -1.0368
25335SOL    HW277728   3.052   0.755   8.259 -0.7284 -1.8299  0.4325
25336SOL     OW77729   3.454   2.019   0.911  0.1628 -0.9782 -0.4358
25336SOL    HW177730   3.391   2.078   0.953 -0.2026 -2.0174  0.5397
25336SOL    HW277731   3.527   2.075   0.886  0.4345 -0.2801  1.6993
25337SOL     OW77732   0.918   0.636   0.482 -0.2998  0.1963 -0.2912
25337SOL    HW177733   1.013   0.645   0.471 -0.4670  0.4367 -1.5745
25337SOL    HW277734   0.889   0.592   0.402 -1.1551 -0.7416  0.5091
25338SOL     OW77735   2.151   6.574   4.358 -0.1733 -0.4142  0.1772
25338SOL    HW177736   2.222   6.587   4.296 -0.9531 -0.4832 -0.7512
25338SOL    HW277737   2.185   6.609   4.441  0.7186  0.0739 -0.3766
25339SOL     OW77738   6.001   6.373   2.779  0.0396  0.2685 -0.5154
25339SOL    HW177739   6.064   6.301   2.774 -1.1862 -0.9628  0.8883
25339SOL    HW277740   5.926   6.336   2.824 -0.8548  2.3049 -0.2295
25340SOL     OW77741   8.342   0.921   0.099 -0.1973  0.0576 -0.0811
25340SOL    HW177742   8.423   0.891   0.139  1.7796  1.8263 -2.4187
25340SOL    HW277743   8.316   0.997   0.152  0.7669  0.6165 -0.3768
25341SOL     OW77744   5.713   9.497   3.105  0.4547  0.5220 -0.3905
25341SOL    HW177745   5.638   9.480   3.162 -0.1217  0.0199 -1.2852
25341SOL    HW277746   5.786   9.508   3.165  0.0483 -0.9354  0.4175
25342SOL     OW77747   0.909   7.980   7.688 -0.2414 -0.1073 -0.4889
25342SOL    HW177748   0.998   7.945   7.686  0.0588  0.6565 -1.0615
25342SOL    HW277749   0.920   8.074   7.676 -1.0466  0.1765  0.8700
25343SOL     OW77750   4.369   2.025   8.276 -0.0349  0.5716  0.3984
25343SOL    HW177751   4.351   2.003   8.367  0.1955  1.5774  0.7021
25343SOL    HW277752   4.343   2.117   8.268 -0.6720  0.3168 -0.7207
25344SOL     OW77753   5.891   6.834   4.735 -0.5311 -0.1199 -0.0037
25344SOL    HW177754   5.840   6.758   4.707  0.7597 -0.6782 -0.9385
25344SOL    HW277755   5.828   6.889   4.782 -1.5529 -1.6201  0.4520
25345SOL     OW77756   5.569   2.244   3.989 -0.0971  0.2870  0.2071
25345SOL    HW177757   5.569   2.149   4.003 -1.0181  0.1664 -0.5540
25345SOL    HW277758   5.503   2.259   3.922  1.0345  1.3266 -0.7368
25346SOL     OW77759   3.475   6.255   7.532  0.2181  0.8391  0.1494
25346SOL    HW177760   3.510   6.265   7.621 -2.0871  0.5068  1.1568
25346SOL    HW277761   3.509   6.331   7.485  2.0457  0.6660  1.0923
25347SOL     OW77762   3.648   9.124   8.209  0.3726  0.7140  0.1435
25347SOL    HW177763   3.667   9.045   8.260  1.0003  0.9121  0.2309
25347SOL    HW277764   3.705   9.191   8.247 -0.9947  1.5203  0.8305
25348SOL     OW77765   4.698   6.294   6.535  0.1461  0.6943  0.3763
25348SOL    HW177766   4.755   6.254   6.469 -0.0005 -0.4286  0.9028
25348SOL    HW277767   4.619   6.240   6.535 -0.5495  1.6963  0.2939
25349SOL     OW77768   7.258   9.324   2.900 -0.2185 -0.2025 -0.4363
25349SOL    HW177769   7.322   9.262   2.934 -0.2760  0.3169  0.6569
25349SOL    HW277770   7.174   9.280   2.911 -0.3117  0.2427  0.8224
25350SOL     OW77771   7.208   6.089   6.606 -0.0008  0.0886 -0.3690
25350SOL    HW177772   7.118   6.090   6.573  0.3621  0.6416 -1.3730
25350SOL    HW277773   7.251   6.162   6.562  0.9126 -0.0923  0.1935
25351SOL     OW77774   2.010   3.247   3.033 -0.0959 -0.3968 -0.1502
25351SOL    HW177775   2.070   3.322   3.043 -0.9815  0.1322  1.6709
25351SOL    HW277776   2.059   3.173   3.069 -0.3740 -0.0202  1.0736
25352SOL     OW77777   1.341   8.919   2.054  0.1160 -0.1407  0.2049
25352SOL    HW177778   1.435   8.923   2.035  0.1370  0.9657  0.4590
25352SOL    HW277779   1.335   8.890   2.145  0.1568 -1.3884 -0.1733
25353SOL     OW77780   1.997   0.836   9.499  0.4066 -0.3084  0.0873
25353SOL    HW177781   2.037   0.813   9.582 -3.3129 -0.9843  1.9078
25353SOL    HW277782   1.979   0.930   9.507 -1.8586 -0.7549  1.1081
25354SOL     OW77783   1.633   5.250   3.714  0.2461  0.0114  0.4959
25354SOL    HW177784   1.594   5.305   3.646  0.6837  0.2688  0.4509
25354SOL    HW277785   1.686   5.186   3.667 -1.2787 -1.3034  0.4654
25355SOL     OW77786   9.324   8.361   5.661  0.1555  0.1932 -0.1149
25355SOL    HW177787   9.345   8.270   5.684  1.6831  0.9424  1.8123
25355SOL    HW277788   9.358   8.372   5.572 -2.1222 -1.6994 -1.3164
25356SOL     OW77789   2.917   5.836   6.937 -0.1871 -0.9978 -0.3334
25356SOL    HW177790   3.011   5.833   6.956  0.1002 -0.3498 -1.4905
25356SOL    HW277791   2.900   5.928   6.918 -1.2703 -0.9446  0.7605
25357SOL     OW77792   3.359   2.693   8.098 -0.1663  0.1938  0.5433
25357SOL    HW177793   3.355   2.686   8.003  0.9471 -0.9129  0.5588
25357SOL    HW277794   3.297   2.627   8.130  1.0645 -0.9724  0.5844
25358SOL     OW77795   0.912   6.234   6.591 -0.4533  0.0240 -0.0611
25358SOL    HW177796   0.959   6.311   6.624 -0.4930  0.5560 -1.2246
25358SOL    HW277797   0.835   6.269   6.547 -0.4407 -0.6731 -0.6656
25359SOL     OW77798   0.523   4.118   4.107 -0.9591  0.0834 -0.3246
25359SOL    HW177799   0.588   4.051   4.088 -0.4043  1.2066 -2.8384
25359SOL    HW277800   0.457   4.107   4.038 -0.5357  2.4391 -1.1846
25360SOL     OW77801   1.085   0.653   3.218  0.2849  0.3696 -0.7134
25360SOL    HW177802   1.168   0.689   3.188  1.1238 -1.0803 -0.1888
25360SOL    HW277803   1.090   0.658   3.313  0.9711 -2.2135 -0.5509
25361SOL     OW77804   6.814   2.415   7.239 -0.0837  0.4281 -0.3864
25361SOL    HW177805   6.724   2.391   7.262  0.0176 -0.5685 -0.9861
25361SOL    HW277806   6.821   2.395   7.146  0.4775  1.4166 -0.5653
25362SOL     OW77807   5.046   8.164   8.052 -0.0417 -0.0257  0.0152
25362SOL    HW177808   4.982   8.104   8.090 -1.7686  2.2330  0.8942
25362SOL    HW277809   5.114   8.173   8.119 -1.0011  0.8082  0.8983
25363SOL     OW77810   0.159   7.654   9.348 -0.3365 -0.0370 -0.1253
25363SOL    HW177811   0.068   7.634   9.371 -0.2241  0.4538  0.8171
25363SOL    HW277812   0.163   7.643   9.253 -1.8889  1.8782 -0.4856
25364SOL     OW77813   5.089   9.555   7.450 -0.2873  0.3858  0.2361
25364SOL    HW177814   5.022   9.610   7.490 -1.6963  0.3582 -1.9403
25364SOL    HW277815   5.079   9.570   7.356  0.6078 -2.1000 -0.3220
25365SOL     OW77816   0.822   5.946   4.330  0.1051  0.0629 -0.6693
25365SOL    HW177817   0.839   5.852   4.340  0.9773  0.1227 -1.4878
25365SOL    HW277818   0.795   5.974   4.417  1.0596 -0.7072 -0.0990
25366SOL     OW77819   4.794   6.493   2.048 -0.2782  0.6406 -0.1153
25366SOL    HW177820   4.830   6.470   2.134  0.0072 -1.1381 -0.6730
25366SOL    HW277821   4.866   6.478   1.987 -0.6681  1.2769 -0.7479
25367SOL     OW77822   9.114   1.986   6.153 -0.5608  0.0132 -0.3953
25367SOL    HW177823   9.160   1.910   6.188 -0.6812 -0.5324 -1.4178
25367SOL    HW277824   9.173   2.022   6.087 -0.8546  0.3251 -0.4908
25368SOL     OW77825   8.786   6.865   0.751  0.3835  0.8363 -0.0089
25368SOL    HW177826   8.775   6.958   0.773 -0.5566  1.0560 -1.2669
25368SOL    HW277827   8.696   6.832   0.743  0.7082 -0.1866  0.4167
25369SOL     OW77828   1.945   7.065   6.902  0.1590  0.0006  0.5933
25369SOL    HW177829   1.883   7.134   6.926  0.4467  0.0578  1.2023
25369SOL    HW277830   2.028   7.093   6.941  0.7038  0.1904 -0.6662
25370SOL     OW77831   3.740   0.746   8.740  0.0721  0.7103 -0.2599
25370SOL    HW177832   3.772   0.687   8.809  2.6372  2.6593  0.3456
25370SOL    HW277833   3.795   0.727   8.664 -0.8308  0.5739 -0.8995
25371SOL     OW77834   2.369   9.228   0.480 -0.2029  0.7590  0.0937
25371SOL    HW177835   2.301   9.243   0.546 -1.3456 -1.1724 -0.5602
25371SOL    HW277836   2.451   9.253   0.524 -0.8557 -0.8923  2.4731
25372SOL     OW77837   2.239   6.149   5.782  0.1361  0.9019  0.2074
25372SOL    HW177838   2.286   6.225   5.750  0.8398  0.1717 -0.5470
25372SOL    HW277839   2.174   6.130   5.714 -0.2578  1.0210  0.5462
25373SOL     OW77840   6.522   1.655   2.930  0.2097  0.0278  0.2922
25373SOL    HW177841   6.614   1.639   2.906  0.1443 -0.8831  0.6374
25373SOL    HW277842   6.491   1.572   2.964 -0.8615  0.2362 -0.1412
25374SOL     OW77843   2.802   5.982   9.646 -0.2750  0.5649  0.6483
25374SOL    HW177844   2.756   6.061   9.673  1.6245  1.8870  0.2905
25374SOL    HW277845   2.738   5.912   9.654 -2.0512  2.1456  0.9284
25375SOL     OW77846   7.071   8.855   2.501  0.2724  0.2010  0.0292
25375SOL    HW177847   7.006   8.791   2.526 -0.0145  0.0768 -0.9818
25375SOL    HW277848   7.155   8.814   2.520  0.0764  0.6848  2.1174
25376SOL     OW77849   7.831   7.863   2.825  0.3747 -0.7818 -0.0505
25376SOL    HW177850   7.895   7.927   2.857 -1.5332  2.4407 -2.1086
25376SOL    HW277851   7.843   7.862   2.731 -1.1502 -1.7582 -0.2651
25377SOL     OW77852   1.348   3.336   2.023  0.0675 -0.0092 -0.0127
25377SOL    HW177853   1.433   3.374   2.003  1.0039 -0.3075  3.0268
25377SOL    HW277854   1.323   3.374   2.107 -1.2179 -2.3760  0.7708
25378SOL     OW77855   5.536   7.025   0.418 -0.1902 -0.6045 -0.0428
25378SOL    HW177856   5.591   6.976   0.479  0.7467  2.4020  1.7521
25378SOL    HW277857   5.450   7.026   0.460  0.2382  0.7141  0.8757
25379SOL     OW77858   7.117   6.859   3.909  0.0931  0.1500 -0.2303
25379SOL    HW177859   7.181   6.913   3.956 -0.1261 -0.2871  0.5833
25379SOL    HW277860   7.170   6.791   3.868  0.2050  0.0786  0.0301
25380SOL     OW77861   7.320   0.780   8.125 -0.2284  0.1740  0.6539
25380SOL    HW177862   7.304   0.873   8.143  1.6189  0.5880  0.3999
25380SOL    HW277863   7.233   0.743   8.110 -0.8812  2.3498 -1.5841
25381SOL     OW77864   7.616   1.574   5.158 -0.1255  0.1971  0.0063
25381SOL    HW177865   7.539   1.609   5.203  0.6155  1.0749  0.6691
25381SOL    HW277866   7.664   1.652   5.131 -0.2415 -0.3342 -1.8077
25382SOL     OW77867   9.034   4.193   0.535  0.3973 -0.3831 -0.1554
25382SOL    HW177868   8.977   4.217   0.462 -1.1747  1.2707  1.4960
25382SOL    HW277869   9.030   4.097   0.539  2.7137 -0.8375 -3.8032
25383SOL     OW77870   4.501   2.206   6.422 -0.7772 -0.6677  0.1435
25383SOL    HW177871   4.513   2.124   6.468 -1.6857 -0.8804  0.0164
25383SOL    HW277872   4.590   2.234   6.398 -0.4823 -1.7019  0.0120
25384SOL     OW77873   0.181   8.959   7.783  0.3459  0.0747 -0.3788
25384SOL    HW177874   0.126   9.018   7.834 -0.4176  0.3115 -1.4395
25384SOL    HW277875   0.119   8.896   7.745  0.8281  0.1633 -1.3440
25385SOL     OW77876   9.538   3.738   5.966  0.3495 -0.3069  0.1649
25385SOL    HW177877   9.483   3.659   5.968 -0.1803  0.0275  2.9100
25385SOL    HW277878   9.478   3.808   5.942  0.4158 -0.4861 -0.5228
25386SOL     OW77879   4.248   8.283   2.292  0.3850 -0.3208  0.1120
25386SOL    HW177880   4.277   8.300   2.202 -1.0351 -1.8100 -0.6917
25386SOL    HW277881   4.220   8.191   2.290 -2.3742  0.4156  1.3087
25387SOL     OW77882   4.955   3.348   1.257  0.1891 -0.5783  0.0811
25387SOL    HW177883   4.886   3.414   1.268 -0.1938 -1.1927  1.7193
25387SOL    HW277884   4.909   3.264   1.254  0.6260 -0.8154 -2.5391
25388SOL     OW77885   7.460   9.670   9.622 -0.6146 -0.3058 -0.0563
25388SOL    HW177886   7.374   9.690   9.587 -0.0993 -0.3199 -1.3986
25388SOL    HW277887   7.446   9.660   9.716 -1.7756  1.3412 -0.0055
25389SOL     OW77888   0.362   8.566   5.159 -0.0089 -0.2163 -0.0750
25389SOL    HW177889   0.354   8.661   5.148 -1.2887 -0.0979  1.6083
25389SOL    HW277890   0.326   8.548   5.245  0.0026 -2.2854 -0.4511
25390SOL     OW77891   1.735   3.986   7.947 -0.3392  0.0507  0.6277
25390SOL    HW177892   1.779   4.070   7.949  0.4736 -0.3678  2.1018
25390SOL    HW277893   1.663   3.994   8.011 -0.3377 -0.3235  0.6830
25391SOL     OW77894   7.711   4.918   6.942 -0.3192  0.2258 -0.1953
25391SOL    HW177895   7.779   4.903   6.876  0.0429  0.7193  0.0602
25391SOL    HW277896   7.701   5.013   6.944  0.1760  0.2616  0.9640
25392SOL     OW77897   8.984   0.028   7.203 -0.2068  0.5925  0.0949
25392SOL    HW177898   8.996  -0.054   7.252  2.2400 -0.0036 -1.3100
25392SOL    HW277899   9.056   0.083   7.233 -0.0392  1.0707 -1.1712
25393SOL     OW77900   5.735   5.279   7.678  0.4706 -0.8353 -0.3817
25393SOL    HW177901   5.679   5.234   7.741  0.1476 -2.0582 -1.5004
25393SOL    HW277902   5.824   5.249   7.698  0.6047  0.1499  0.5969
25394SOL     OW77903   5.387   8.138   8.346  0.0189 -0.0376 -0.4562
25394SOL    HW177904   5.455   8.148   8.280  0.1349  0.8867 -0.2038
25394SOL    HW277905   5.424   8.077   8.410 -0.4125 -1.6324 -1.6363
25395SOL     OW77906   2.174   3.313   1.715  0.1788 -0.0680  0.2555
25395SOL    HW177907   2.090   3.290   1.675 -0.3624 -2.5724  2.5261
25395SOL    HW277908   2.170   3.408   1.726 -1.5851  0.0835 -1.2649
25396SOL     OW77909   0.921   4.206   4.330  0.7768  0.1950  0.6206
25396SOL    HW177910   0.863   4.247   4.394  0.2138 -0.2085  0.3760
25396SOL    HW277911   1.003   4.255   4.337  0.3275  0.9272  0.7968
25397SOL     OW77912   5.492   2.246   8.839 -0.0430 -0.3819  0.1000
25397SOL    HW177913   5.513   2.337   8.859  1.2564 -0.3817 -1.1030
25397SOL    HW277914   5.549   2.224   8.765 -1.2677 -1.7704 -0.4779
25398SOL     OW77915   7.133   9.269   9.505 -0.3149  0.3638 -0.0364
25398SOL    HW177916   7.133   9.279   9.600  0.4197  1.4208 -0.1339
25398SOL    HW277917   7.156   9.355   9.471  0.4730 -0.2535 -1.1484
25399SOL     OW77918   6.759   9.068   9.507  0.5668  0.4462 -0.1361
25399SOL    HW177919   6.724   9.148   9.545 -0.3846 -0.2461  0.4717
25399SOL    HW277920   6.776   9.091   9.415 -0.4067  1.1229 -0.1586
25400SOL     OW77921   6.530   7.616   9.594 -0.3531  0.0484  0.0631
25400SOL    HW177922   6.623   7.595   9.605 -0.3593  0.3145  0.6467
25400SOL    HW277923   6.514   7.687   9.656 -1.0070 -0.1763  0.1536
25401SOL     OW77924   4.717   7.683   8.650  0.1360  0.2052 -0.3641
25401SOL    HW177925   4.787   7.690   8.714 -0.1620 -0.8690  0.1003
25401SOL    HW277926   4.642   7.650   8.700 -0.7787  1.5454 -0.7967
25402SOL     OW77927   1.263   6.460   6.463 -0.1570 -0.0687 -0.1659
25402SOL    HW177928   1.229   6.529   6.520 -0.0399 -0.4762  0.4108
25402SOL    HW277929   1.277   6.386   6.522  0.9233 -0.1823 -0.5581
25403SOL     OW77930   6.238   0.934   8.993  0.4311  0.1269  0.6463
25403SOL    HW177931   6.313   0.875   9.005  0.0638 -0.7150 -0.9918
25403SOL    HW277932   6.162   0.883   9.023  0.1345 -0.1786 -0.5992
25404SOL     OW77933   7.836   1.706   6.715  0.3810  0.2664  0.6969
25404SOL    HW177934   7.808   1.776   6.774  0.4038 -0.2201  1.2954
25404SOL    HW277935   7.876   1.751   6.641 -1.7760  0.9795 -0.0859
25405SOL     OW77936   2.135   5.227   1.928 -0.6619  0.3694 -0.1591
25405SOL    HW177937   2.210   5.205   1.872  0.5967 -2.0639  2.2065
25405SOL    HW277938   2.066   5.167   1.899 -0.7283  0.6009 -0.4812
25406SOL     OW77939   1.745   1.132   9.653 -0.2881  0.3410  0.3409
25406SOL    HW177940   1.707   1.115   9.567  1.5535 -2.1204 -0.1028
25406SOL    HW277941   1.839   1.120   9.640  0.2346  1.8288  2.3236
25407SOL     OW77942   5.127   1.763   9.206  0.0061  0.2736  0.0647
25407SOL    HW177943   5.063   1.695   9.185  1.0358 -0.5621 -0.5099
25407SOL    HW277944   5.079   1.845   9.200 -1.1618 -0.3746  0.3284
25408SOL     OW77945   5.109   0.169   0.275 -0.5108 -0.1832 -0.5549
25408SOL    HW177946   5.114   0.091   0.330  1.3179 -1.4320 -2.3849
25408SOL    HW277947   5.018   0.170   0.244 -0.8269 -0.9952  0.2786
25409SOL     OW77948   3.968   7.808   6.823  0.0851  0.1033  0.0483
25409SOL    HW177949   3.988   7.836   6.734 -0.4765  0.4766  0.0287
25409SOL    HW277950   4.053   7.802   6.866  0.2903  0.9748 -0.2111
25410SOL     OW77951   0.367   7.397   5.774 -0.1331 -0.0815 -0.3152
25410SOL    HW177952   0.374   7.305   5.749 -0.4507 -0.4228  0.7860
25410SOL    HW277953   0.437   7.441   5.725 -0.1119 -0.8714 -1.0023
25411SOL     OW77954   3.090   7.632   2.338  0.0885  0.2733  0.0193
25411SOL    HW177955   3.141   7.684   2.277  1.0915 -1.5375 -0.7689
25411SOL    HW277956   3.154   7.602   2.403 -0.3147 -0.5429  0.0504
25412SOL     OW77957   4.078   1.467   8.829  0.1886 -0.4385  0.8448
25412SOL    HW177958   4.124   1.430   8.753 -1.5618  0.7026 -0.8810
25412SOL    HW277959   4.000   1.413   8.837  0.0411 -0.1386  1.4338
25413SOL     OW77960   3.435   8.205   7.280 -0.0877  0.1109 -0.6703
25413SOL    HW177961   3.383   8.130   7.306  1.8885 -0.6207  1.4567
25413SOL    HW277962   3.487   8.174   7.205  0.2283 -0.4331 -0.2286
25414SOL     OW77963   7.717   8.014   1.049 -0.1513  0.3519  0.0729
25414SOL    HW177964   7.757   8.069   1.116  0.3520 -0.5115  0.5089
25414SOL    HW277965   7.624   8.034   1.053 -0.0742  0.5789  0.7738
25415SOL     OW77966   3.440   3.666   3.332  0.1879 -0.2505  0.0434
25415SOL    HW177967   3.522   3.711   3.353  0.5133 -0.6849 -0.2895
25415SOL    HW277968   3.462   3.609   3.259 -0.1521 -1.1774  0.6490
25416SOL     OW77969   6.908   0.427   9.232  0.0732  0.6016  0.3682
25416SOL    HW177970   6.832   0.460   9.280  0.2961  0.9585  0.4806
25416SOL    HW277971   6.886   0.441   9.140 -0.3240 -0.0148  0.3694
25417SOL     OW77972   0.800   3.803   7.141 -0.2951  0.3251 -0.2481
25417SOL    HW177973   0.844   3.757   7.069 -1.6939 -0.1917 -0.8175
25417SOL    HW277974   0.748   3.736   7.184 -0.9515  1.0182  0.0647
25418SOL     OW77975   6.563   4.824   1.448 -0.1229 -0.3169  0.7443
25418SOL    HW177976   6.500   4.753   1.440 -0.0097 -0.2936 -0.6035
25418SOL    HW277977   6.647   4.779   1.459  0.2096 -0.5160 -1.9016
25419SOL     OW77978   3.524   0.969   9.265  0.0606 -0.7405  0.0264
25419SOL    HW177979   3.463   1.042   9.257  0.5690 -0.2412  0.6750
25419SOL    HW277980   3.471   0.892   9.244 -0.7840 -0.3116  0.5201
25420SOL     OW77981   3.429   8.942   4.928 -0.5261  0.3521  0.0489
25420SOL    HW177982   3.355   8.904   4.880  1.2030 -0.6093 -1.9926
25420SOL    HW277983   3.478   8.867   4.960  0.1674  0.9633  0.4484
25421SOL     OW77984   9.185   1.392   5.380  0.2958 -0.4261 -0.5008
25421SOL    HW177985   9.140   1.456   5.325  1.6608  0.1878 -0.9280
25421SOL    HW277986   9.123   1.376   5.452  0.0825  1.7132 -0.1283
25422SOL     OW77987   3.859   7.393   5.207  0.1031  0.0511  0.3666
25422SOL    HW177988   3.806   7.350   5.140 -0.1436  0.3927  0.3380
25422SOL    HW277989   3.795   7.431   5.267  0.3211  0.1469  0.5402
25423SOL     OW77990   1.572   5.469   6.655 -0.2294  0.4317  0.2296
25423SOL    HW177991   1.480   5.459   6.631  0.2556 -3.3219 -0.6568
25423SOL    HW277992   1.619   5.478   6.572  0.3846  0.0381  0.5197
25424SOL     OW77993   3.133   8.824   2.279  0.3023 -0.2264 -0.3072
25424SOL    HW177994   3.167   8.820   2.190  3.0153 -2.0038  0.6539
25424SOL    HW277995   3.203   8.786   2.332 -1.3599  0.4334  2.5480
25425SOL     OW77996   1.973   4.940   6.349  0.2052 -0.0222  0.5484
25425SOL    HW177997   1.973   4.987   6.266  1.1132  0.8840  1.0437
25425SOL    HW277998   1.893   4.969   6.393  0.5514  0.7541  0.6773
25426SOL     OW77999   9.061   3.726   7.215  0.4989  0.0457 -0.6044
25426SOL    HW178000   9.143   3.738   7.169  1.0232 -1.2190 -0.0453
25426SOL    HW278001   8.994   3.727   7.147  1.0318  0.4756 -1.1263
25427SOL     OW78002   4.436   6.157   2.213 -0.6633 -0.1781 -0.1063
25427SOL    HW178003   4.376   6.230   2.231  0.4831  0.4683  1.1987
25427SOL    HW278004   4.496   6.192   2.147 -2.0404 -1.0432 -1.9254
25428SOL     OW78005   8.738   2.497   0.044  0.5591 -0.1754  0.3832
25428SOL    HW178006   8.752   2.537  -0.042  0.4352 -0.9205  0.0005
25428SOL    HW278007   8.808   2.532   0.099  0.7293  0.1946 -0.0630
25429SOL     OW78008   5.336   1.878   7.843 -0.2138 -0.0074 -0.2040
25429SOL    HW178009   5.363   1.968   7.862 -0.0070 -0.2545  0.7250
25429SOL    HW278010   5.283   1.853   7.918 -1.7427 -0.0716 -1.2752
25430SOL     OW78011   5.683   9.329   1.246  0.6462  0.2343 -0.0191
25430SOL    HW178012   5.686   9.304   1.153 -0.0014 -0.5653  0.1606
25430SOL    HW278013   5.671   9.424   1.245 -0.8283  0.0613 -0.7746
25431SOL     OW78014   9.000   4.013   8.193 -0.0794 -0.2681 -0.1387
25431SOL    HW178015   9.001   4.094   8.142 -0.6312 -1.5181 -2.2081
25431SOL    HW278016   8.974   4.042   8.281  1.7703  2.0671 -0.2521
25432SOL     OW78017   6.620   2.704   2.063 -0.4943 -0.1086 -0.6765
25432SOL    HW178018   6.551   2.748   2.113 -0.1033 -0.7490  0.4699
25432SOL    HW278019   6.679   2.669   2.129  0.6716 -0.0045 -1.6342
25433SOL     OW78020   4.815   2.320   4.616  0.1292  0.5728  0.0216
25433SOL    HW178021   4.823   2.256   4.545 -2.1688 -0.5002  0.6325
25433SOL    HW278022   4.869   2.284   4.686  1.6046  1.1227 -0.7947
25434SOL     OW78023   4.375   5.422   6.181 -0.0334 -0.3905 -0.3451
25434SOL    HW178024   4.303   5.365   6.208 -0.3732  0.5971  0.9338
25434SOL    HW278025   4.411   5.380   6.103 -0.7581 -1.9386  0.1092
25435SOL     OW78026   0.066   4.853   9.539  0.0380 -0.0170  0.0819
25435SOL    HW178027   0.092   4.935   9.582  1.4271 -0.3177 -0.1372
25435SOL    HW278028   0.098   4.785   9.599  0.7218 -0.4135 -0.7128
25436SOL     OW78029   5.671   4.667   6.809  0.6580  0.1938  0.6626
25436SOL    HW178030   5.692   4.655   6.717 -0.2063  0.4505  0.4201
25436SOL    HW278031   5.746   4.632   6.856  1.2841  0.4328 -0.1454
25437SOL     OW78032   1.758   4.917   5.912  0.4648  0.0134 -0.6332
25437SOL    HW178033   1.769   5.010   5.933 -0.8525  0.0236  0.0885
25437SOL    HW278034   1.847   4.882   5.916  0.7586  0.8375  1.1436
25438SOL     OW78035   5.728   5.227   3.165 -0.2944 -0.2398  0.0103
25438SOL    HW178036   5.673   5.171   3.219 -0.7232  0.9741  0.8720
25438SOL    HW278037   5.667   5.287   3.122  0.1639 -0.3443 -0.8225
25439SOL     OW78038   7.512   7.589   8.164  0.3907 -0.2594 -0.2200
25439SOL    HW178039   7.530   7.668   8.215  1.8669 -0.1611 -0.8501
25439SOL    HW278040   7.577   7.590   8.093 -0.8735 -0.9823 -1.4480
25440SOL     OW78041   6.312   9.611   9.067  0.2596  0.4915 -0.0283
25440SOL    HW178042   6.354   9.545   9.122  0.7132 -0.1185 -1.1015
25440SOL    HW278043   6.281   9.563   8.990 -0.2544  1.3610 -0.3796
25441SOL     OW78044   6.856   0.499   6.021  0.2811  0.3498  1.0515
25441SOL    HW178045   6.782   0.538   5.975 -0.9338 -1.0375  1.7612
25441SOL    HW278046   6.904   0.574   6.057 -0.6442  1.2745  0.4166
25442SOL     OW78047   9.202   5.598   6.342  0.3252  0.4542 -0.0571
25442SOL    HW178048   9.118   5.556   6.327  0.6462 -0.6115  0.9858
25442SOL    HW278049   9.257   5.530   6.381  2.0900  0.7574 -1.8333
25443SOL     OW78050   2.084   7.974   7.126 -0.3242 -0.3967 -0.0944
25443SOL    HW178051   2.116   7.892   7.162 -1.1761 -0.8652 -0.3641
25443SOL    HW278052   2.043   8.019   7.200  1.4080  0.4790  0.3899
25444SOL     OW78053   1.718   5.834   5.111  0.1373  0.1338  0.1096
25444SOL    HW178054   1.729   5.927   5.130  0.4282  0.2145 -0.4219
25444SOL    HW278055   1.804   5.805   5.081  0.1008 -0.3567  0.4640
25445SOL     OW78056   4.537   8.321   9.646 -0.3733  0.0093  0.1070
25445SOL    HW178057   4.519   8.411   9.673  2.6979  0.4029  1.2995
25445SOL    HW278058   4.527   8.270   9.726  2.1039  0.0707  0.5272
25446SOL     OW78059   7.856   9.183   3.872  0.1558 -0.5931 -0.4381
25446SOL    HW178060   7.868   9.240   3.948  0.5531 -0.0638 -0.8943
25446SOL    HW278061   7.835   9.097   3.910 -0.5252 -0.1354  0.2457
25447SOL     OW78062   6.264   9.419   0.288 -0.1367 -0.1992  0.4425
25447SOL    HW178063   6.231   9.334   0.258  0.1330 -0.1939  0.1131
25447SOL    HW278064   6.189   9.478   0.282 -0.6662 -0.6969  1.9157
25448SOL     OW78065   3.382   9.458   6.216  0.4551  0.5240 -0.7180
25448SOL    HW178066   3.371   9.551   6.237 -0.0976 -0.0240  1.6270
25448SOL    HW278067   3.467   9.435   6.252 -1.6163 -1.0724  3.8298
25449SOL     OW78068   9.371   1.849   3.465  0.2515  0.0498  0.0783
25449SOL    HW178069   9.460   1.865   3.498  0.8062 -2.2915 -0.1539
25449SOL    HW278070   9.343   1.935   3.431  2.0326  1.0665  1.0180
25450SOL     OW78071   6.981   7.856   5.777 -0.3272 -0.3650 -0.3041
25450SOL    HW178072   6.900   7.833   5.823  0.1957 -0.8277  0.4040
25450SOL    HW278073   7.038   7.781   5.789 -0.2750 -0.6392 -2.0039
25451SOL     OW78074   3.100   7.727   0.553  0.1283  0.6613 -0.2884
25451SOL    HW178075   3.098   7.741   0.648  1.6586  0.0744 -0.1293
25451SOL    HW278076   3.083   7.633   0.542  0.2173  0.6738 -0.5594
25452SOL     OW78077   3.353   5.545   8.654  0.0768  0.3682 -1.1393
25452SOL    HW178078   3.313   5.477   8.599  1.8259 -1.3656 -0.3624
25452SOL    HW278079   3.320   5.527   8.742 -0.9106  1.7320 -1.1938
25453SOL     OW78080   5.845   0.145   9.467 -0.3467  0.1452  0.3396
25453SOL    HW178081   5.795   0.149   9.386 -0.4937 -0.6422  0.3890
25453SOL    HW278082   5.898   0.066   9.460 -1.0848 -0.4702  1.4233
25454SOL     OW78083   3.701   0.358   9.374 -0.2686  0.2168  0.7759
25454SOL    HW178084   3.635   0.298   9.409 -1.5045  0.6058 -0.7972
25454SOL    HW278085   3.672   0.445   9.402  0.3490  0.2755  1.2500
25455SOL     OW78086   2.854   1.079   4.938 -0.1982 -0.6102  0.4864
25455SOL    HW178087   2.935   1.129   4.954  0.4781 -1.1769 -0.9790
25455SOL    HW278088   2.785   1.145   4.936  0.0415 -0.2162  2.7614
25456SOL     OW78089   6.354   5.388   6.988  0.1994  0.1538  0.1981
25456SOL    HW178090   6.398   5.399   6.903  0.7138  0.8869  0.5490
25456SOL    HW278091   6.416   5.424   7.051 -0.2173 -0.3183  0.8784
25457SOL     OW78092   3.366   9.461   0.438 -0.7339 -0.5231  0.1347
25457SOL    HW178093   3.325   9.378   0.416 -1.0250 -0.0597 -1.2100
25457SOL    HW278094   3.457   9.440   0.455 -0.9610 -1.2050  0.5260
25458SOL     OW78095   9.504   3.817   0.296  0.1756 -0.5677  0.1919
25458SOL    HW178096   9.469   3.864   0.372  1.5855  0.5930  0.1698
25458SOL    HW278097   9.596   3.842   0.294  0.5692 -2.0060 -0.8649
25459SOL     OW78098   3.669   4.190   6.986 -0.0879 -0.5539  0.2848
25459SOL    HW178099   3.712   4.190   6.900 -0.2078 -1.5868  0.2118
25459SOL    HW278100   3.710   4.116   7.032 -1.2230 -1.0609  0.4979
25460SOL     OW78101   5.204   1.546   6.493 -0.2492 -0.0790  0.0669
25460SOL    HW178102   5.189   1.620   6.552 -2.4390 -0.2076 -0.2342
25460SOL    HW278103   5.251   1.584   6.418 -0.7718  0.8776  0.2052
25461SOL     OW78104   8.720   7.105   5.823  0.1854 -0.1722  0.2792
25461SOL    HW178105   8.711   7.196   5.794  0.3281 -0.4106 -0.5418
25461SOL    HW278106   8.785   7.068   5.764  0.4927 -0.6768  0.9312
25462SOL     OW78107   1.677   2.984   9.430 -0.2788 -0.2977 -0.0031
25462SOL    HW178108   1.652   2.895   9.405  1.1626 -1.6910  2.9222
25462SOL    HW278109   1.754   3.003   9.376  1.1188 -2.0777  1.2046
25463SOL     OW78110   0.325   8.200   4.244  0.2335  0.0906 -0.0895
25463SOL    HW178111   0.419   8.210   4.234  0.2621 -0.5242 -0.4179
25463SOL    HW278112   0.315   8.132   4.311  0.0222  0.8177  0.6394
25464SOL     OW78113   9.673   7.181   5.613  0.0368 -0.6765 -0.1224
25464SOL    HW178114   9.654   7.195   5.706  1.5027  0.0305  0.1095
25464SOL    HW278115   9.592   7.147   5.576 -1.4925  1.7213  0.8367
25465SOL     OW78116   9.664   6.888   9.585  0.0594  0.0402  0.1858
25465SOL    HW178117   9.639   6.811   9.533  2.8340  0.0704 -1.3683
25465SOL    HW278118   9.728   6.856   9.648  1.5922  1.0617 -0.7684
25466SOL     OW78119   3.594   9.151   5.021 -0.1536 -0.1440  0.4857
25466SOL    HW178120   3.516   9.103   4.993  0.1196  0.3690 -1.3180
25466SOL    HW278121   3.666   9.113   4.971  0.3267  1.0308  0.2299
25467SOL     OW78122   0.920   9.125   6.526 -0.0767  0.4232 -0.0578
25467SOL    HW178123   0.825   9.135   6.528  0.0334  1.7366  2.0341
25467SOL    HW278124   0.952   9.203   6.479 -0.0256 -0.5120 -1.6522
25468SOL     OW78125   8.893   9.447   4.647 -0.1939 -0.2697 -0.0084
25468SOL    HW178126   8.877   9.371   4.703  1.8617  0.0995  1.1627
25468SOL    HW278127   8.905   9.410   4.560  0.1828 -1.2396  0.4414
25469SOL     OW78128   8.308   6.430   4.442  0.1080 -0.2312  0.6382
25469SOL    HW178129   8.257   6.424   4.362  1.3442 -1.9224 -0.0727
25469SOL    HW278130   8.300   6.522   4.468 -2.3625 -0.1954 -0.0015
25470SOL     OW78131   4.113   5.048   0.334 -0.1738  1.0769  0.6957
25470SOL    HW178132   4.199   5.072   0.367 -0.2054  0.1599  1.4862
25470SOL    HW278133   4.119   5.060   0.239  0.9142  0.7482  0.7137
25471SOL     OW78134   1.729   4.736   1.192  0.0469 -0.0470 -0.6644
25471SOL    HW178135   1.715   4.793   1.268  0.9017  0.7145 -1.0615
25471SOL    HW278136   1.678   4.777   1.122 -0.1219 -0.3211 -0.7039
25472SOL     OW78137   4.101   2.747   9.437 -0.4167  0.4549 -0.8385
25472SOL    HW178138   4.115   2.699   9.519 -0.8455  0.3622 -0.8139
25472SOL    HW278139   4.064   2.831   9.465 -0.4600  0.4671 -0.9312
25473SOL     OW78140   4.651   6.805   3.847  0.6881  0.1024  0.0654
25473SOL    HW178141   4.626   6.760   3.927  1.6338  0.4761  0.5848
25473SOL    HW278142   4.703   6.880   3.877 -0.9735  1.6460 -0.7573
25474SOL     OW78143   1.320   7.006   4.288  0.3278 -0.0265 -0.3371
25474SOL    HW178144   1.241   7.037   4.243  0.0815  0.2583  0.2798
25474SOL    HW278145   1.322   6.912   4.271 -0.4838 -0.1432  0.1338
25475SOL     OW78146   8.313   2.159   4.804 -0.0435 -0.3541  0.0319
25475SOL    HW178147   8.250   2.186   4.737  0.1389 -1.4618 -0.6069
25475SOL    HW278148   8.290   2.069   4.824  1.2177 -0.7302 -0.0889
25476SOL     OW78149   7.532   9.243   8.910  0.3111  0.5409 -0.1124
25476SOL    HW178150   7.521   9.264   9.002  0.0656  3.5183 -0.7381
25476SOL    HW278151   7.539   9.327   8.866 -3.3941 -0.5281 -3.3293
25477SOL     OW78152   5.752   0.393   0.596  0.2357  0.1869  0.1860
25477SOL    HW178153   5.661   0.412   0.574  0.5293  0.3137 -0.9807
25477SOL    HW278154   5.771   0.451   0.670 -0.0133  1.7505 -0.9207
25478SOL     OW78155   6.925   4.032   0.595  0.6732  0.4874 -0.0666
25478SOL    HW178156   6.934   4.124   0.619  3.0272 -0.6421  4.7260
25478SOL    HW278157   6.837   4.008   0.622  0.5467  1.0098 -0.0050
25479SOL     OW78158   8.507   8.634   9.427 -0.0886  0.0374  0.2404
25479SOL    HW178159   8.583   8.636   9.369  1.2757  0.1978  1.9709
25479SOL    HW278160   8.521   8.557   9.482  0.5674  1.8672  2.7800
25480SOL     OW78161   4.447   4.669   6.885 -0.2085 -0.0301 -0.0677
25480SOL    HW178162   4.459   4.668   6.790  1.5890  0.8162  0.1166
25480SOL    HW278163   4.437   4.577   6.909  2.7675 -0.6097 -0.7305
25481SOL     OW78164   3.344   4.386   0.443 -0.2717 -0.0557 -0.2211
25481SOL    HW178165   3.339   4.473   0.404 -0.3887 -0.1435 -0.4023
25481SOL    HW278166   3.418   4.344   0.398 -0.1663 -0.0243 -0.0795
25482SOL     OW78167   6.598   2.556   0.521 -0.1282  0.2987  0.5330
25482SOL    HW178168   6.561   2.469   0.506  0.6609  0.0018  0.2221
25482SOL    HW278169   6.523   2.614   0.526 -0.6140  0.0267 -2.0309
25483SOL     OW78170   2.595   6.937   6.231 -0.6562 -0.1257 -0.5158
25483SOL    HW178171   2.550   6.901   6.156 -1.7847  2.3609 -1.1390
25483SOL    HW278172   2.669   6.986   6.194 -0.4581  0.0543  0.0950
25484SOL     OW78173   5.893   2.166   1.379 -0.3488  0.0603  0.1165
25484SOL    HW178174   5.829   2.148   1.311 -3.1323  0.7288  2.3878
25484SOL    HW278175   5.893   2.087   1.434  1.0052 -0.0177  0.0516
25485SOL     OW78176   1.093   9.247   6.933 -0.1424  0.2504  1.1830
25485SOL    HW178177   1.036   9.192   6.987 -1.9123  0.0118 -0.7938
25485SOL    HW278178   1.033   9.293   6.875  1.6649  0.5517 -0.5346
25486SOL     OW78179   9.271   4.359   4.713  0.0409 -0.2149  0.2375
25486SOL    HW178180   9.225   4.337   4.632 -1.6764  0.0042  1.1004
25486SOL    HW278181   9.252   4.286   4.772  0.8154 -0.1128  0.6323
25487SOL     OW78182   1.690   1.614   7.045  0.3132  0.4188  0.5255
25487SOL    HW178183   1.772   1.567   7.030 -0.6112 -0.7806 -1.2194
25487SOL    HW278184   1.706   1.703   7.014  0.5145 -0.2508 -1.4432
25488SOL     OW78185   4.134   3.580   8.583  0.1294  0.7966  0.4860
25488SOL    HW178186   4.227   3.574   8.606 -0.1179  0.5919  1.4843
25488SOL    HW278187   4.101   3.491   8.594 -0.4636  1.1180  1.4643
25489SOL     OW78188   2.249   1.527   7.644 -0.2623  0.5312 -0.4049
25489SOL    HW178189   2.197   1.451   7.670  0.1531  0.6584  0.8804
25489SOL    HW278190   2.253   1.522   7.548 -0.8054 -0.6791 -0.3824
25490SOL     OW78191   3.382   7.348   0.132 -0.2325  0.8337  0.4204
25490SOL    HW178192   3.293   7.333   0.101 -0.3254  0.3634  0.9160
25490SOL    HW278193   3.383   7.440   0.159 -0.3206  1.0834 -0.3980
25491SOL     OW78194   0.516   6.583   0.879 -0.3699 -0.1677  0.4946
25491SOL    HW178195   0.598   6.564   0.924 -0.2393  0.0180  0.3350
25491SOL    HW278196   0.482   6.497   0.853 -0.3971 -0.2683  0.8572
25492SOL     OW78197   8.458   0.027   0.508  0.4201  0.0082 -0.3120
25492SOL    HW178198   8.534  -0.026   0.534  1.3383  1.8071  0.9421
25492SOL    HW278199   8.486   0.118   0.525 -2.8690  0.6831  2.8543
25493SOL     OW78200   8.554   1.529   2.401 -0.2652 -0.1750  0.3859
25493SOL    HW178201   8.559   1.581   2.321 -0.8626  0.9391  1.0415
25493SOL    HW278202   8.613   1.455   2.387 -1.6141 -0.9349 -1.7463
25494SOL     OW78203   1.445   6.715   3.164 -0.4249 -0.5307 -0.4886
25494SOL    HW178204   1.536   6.743   3.175 -0.3720 -0.5970 -0.7505
25494SOL    HW278205   1.449   6.619   3.161 -0.2324 -0.4967 -2.7203
25495SOL     OW78206   2.047   0.777   8.144 -0.0645  0.2012 -0.0181
25495SOL    HW178207   2.028   0.690   8.177  0.6065 -0.2122 -0.7030
25495SOL    HW278208   1.961   0.819   8.138 -0.7158 -1.2565 -2.0115
25496SOL     OW78209   7.671   8.175   2.815  0.1417 -0.1895  0.5154
25496SOL    HW178210   7.606   8.105   2.806  0.0687  0.0858 -1.9997
25496SOL    HW278211   7.684   8.185   2.909 -2.4698 -1.1546  1.0461
25497SOL     OW78212   4.374   2.713   1.549  0.0415  0.2412 -0.0170
25497SOL    HW178213   4.363   2.636   1.604  1.7749  0.6331  0.9619
25497SOL    HW278214   4.291   2.721   1.501 -0.7524 -1.2894  1.0265
25498SOL     OW78215   3.501   0.095   7.457 -0.4836  0.6418 -0.4915
25498SOL    HW178216   3.497  -0.001   7.456 -0.1748  0.6088 -1.9545
25498SOL    HW278217   3.508   0.119   7.549  0.3155 -0.7877 -0.1563
25499SOL     OW78218   3.121   7.955   5.156  0.1468  0.0171 -0.5425
25499SOL    HW178219   3.085   7.929   5.071 -0.9623  1.6157 -0.5972
25499SOL    HW278220   3.150   8.045   5.144 -0.9491  0.6190  1.0260
25500SOL     OW78221   0.361   0.569   7.839 -0.2588  0.0887  0.0146
25500SOL    HW178222   0.409   0.534   7.764  1.7140 -4.2395  2.8625
25500SOL    HW278223   0.423   0.627   7.883  0.9416 -2.0355  1.3016
25501SOL     OW78224   4.886   0.028   8.873 -0.3888 -0.1297  0.3112
25501SOL    HW178225   4.949   0.096   8.852 -0.0764 -0.8496 -1.2752
25501SOL    HW278226   4.922  -0.051   8.831 -2.7153 -0.3865 -1.3622
25502SOL     OW78227   0.800   2.057   3.582 -0.1252 -0.1903 -0.2760
25502SOL    HW178228   0.765   2.125   3.640 -1.4055 -1.8541  1.0330
25502SOL    HW278229   0.738   2.055   3.509  1.5323  1.9621 -1.8640
25503SOL     OW78230   1.980   2.734   7.834 -0.3171  0.1540 -0.4020
25503SOL    HW178231   1.947   2.672   7.899  1.0333 -1.1161 -0.8703
25503SOL    HW278232   2.041   2.790   7.882 -0.6424  0.3744 -0.2346
25504SOL     OW78233   5.335   5.024   9.665 -0.2272 -0.0418  0.5466
25504SOL    HW178234   5.333   4.971   9.745 -0.1497 -1.8588 -0.5936
25504SOL    HW278235   5.361   5.111   9.695 -0.8726 -0.4881  2.5827
25505SOL     OW78236   3.551   7.899   8.629 -0.3723 -0.0042 -0.6589
25505SOL    HW178237   3.598   7.951   8.563  0.6779 -0.4685 -0.2965
25505SOL    HW278238   3.466   7.882   8.589 -0.8891  2.2719 -0.6539
25506SOL     OW78239   0.414   7.583   0.116  0.2014 -0.1886 -0.1638
25506SOL    HW178240   0.398   7.491   0.099  0.5140 -0.0387 -1.3586
25506SOL    HW278241   0.425   7.622   0.029 -1.0308  1.1840  0.2468
25507SOL     OW78242   7.306   4.018   0.072 -0.1870  0.0033 -0.2033
25507SOL    HW178243   7.248   3.998   0.145 -0.6998  1.0954 -0.2789
25507SOL    HW278244   7.347   3.935   0.049  1.3402 -0.0762  2.4534
25508SOL     OW78245   0.239   4.590   3.962 -0.5015 -0.3826 -0.4552
25508SOL    HW178246   0.291   4.668   3.943 -1.0630  0.5093  1.4119
25508SOL    HW278247   0.291   4.517   3.927  1.0310  0.6405 -0.3976
25509SOL     OW78248   9.252   0.673   4.970 -0.6468  0.0891  0.2630
25509SOL    HW178249   9.180   0.736   4.973  0.6338  1.5652  1.1705
25509SOL    HW278250   9.331   0.727   4.968  0.5333 -1.4689  2.0137
25510SOL     OW78251   0.896   8.532   4.013 -0.3518 -0.0350 -0.4029
25510SOL    HW178252   0.943   8.500   3.936  1.0713  1.0087 -0.0276
25510SOL    HW278253   0.920   8.624   4.019 -0.8266  0.0271  0.9924
25511SOL     OW78254   1.759   5.761   9.023  0.2983 -0.3213  0.2908
25511SOL    HW178255   1.807   5.751   9.105 -1.6837 -2.7823  1.3007
25511SOL    HW278256   1.712   5.844   9.033  2.2152  0.7888  0.3923
25512SOL     OW78257   0.398   3.993   8.324  0.2224  0.5712 -0.0677
25512SOL    HW178258   0.459   4.034   8.263  0.9772 -0.3206  0.0735
25512SOL    HW278259   0.428   4.021   8.410  0.7568 -0.2919  0.0297
25513SOL     OW78260   3.207   2.509   0.729 -0.1151 -0.6167 -0.0804
25513SOL    HW178261   3.285   2.500   0.785  0.5814 -0.2463 -0.9656
25513SOL    HW278262   3.242   2.526   0.642 -1.2006  2.4456 -0.0287
25514SOL     OW78263   0.737   6.021   4.908  0.3259  0.3407 -0.2677
25514SOL    HW178264   0.755   6.080   4.980 -0.4406  1.3702 -0.8992
25514SOL    HW278265   0.667   5.964   4.940 -0.9175  1.6329 -0.6201
25515SOL     OW78266   5.758   7.677   3.750 -0.1261  0.2824  0.6317
25515SOL    HW178267   5.781   7.633   3.832 -0.8575  1.9775  1.7911
25515SOL    HW278268   5.839   7.675   3.699  0.6707  0.2032  1.8645
25516SOL     OW78269   5.787   1.666   6.620  0.1714  0.1507  0.5667
25516SOL    HW178270   5.801   1.580   6.581  0.3828  0.8407 -0.9905
25516SOL    HW278271   5.792   1.652   6.714  1.5519 -1.3185  0.3199
25517SOL     OW78272   4.724   2.921   6.297 -0.5645  0.6802  0.3776
25517SOL    HW178273   4.734   2.873   6.379 -1.7051  1.0732  0.7628
25517SOL    HW278274   4.636   2.958   6.301  0.1872  2.6056 -0.0204
25518SOL     OW78275   7.373   4.742   0.046  0.0336  0.1162  0.1690
25518SOL    HW178276   7.355   4.675  -0.020  1.4221 -0.4005  0.2837
25518SOL    HW278277   7.413   4.814  -0.003  0.2947  0.0748  0.3208
25519SOL     OW78278   1.300   0.943   9.645  0.3121 -0.6431 -0.2915
25519SOL    HW178279   1.290   1.035   9.668  0.1194 -0.6962 -0.1563
25519SOL    HW278280   1.281   0.896   9.727  2.0020 -0.7429  0.0843
25520SOL     OW78281   9.053   2.736   4.181  0.0547  0.0606 -0.0864
25520SOL    HW178282   9.103   2.811   4.148 -1.2627  0.2808 -1.7386
25520SOL    HW278283   8.984   2.775   4.234  0.2950 -0.1057  0.3572
25521SOL     OW78284   4.947   0.387   4.007 -0.1379 -0.1616 -0.4490
25521SOL    HW178285   5.029   0.411   3.963 -0.8378  1.5148 -0.9105
25521SOL    HW278286   4.932   0.297   3.981  0.6037  0.0976 -1.8946
25522SOL     OW78287   9.000   4.061   9.414 -0.0684  0.5379  0.7937
25522SOL    HW178288   9.020   4.042   9.322 -1.7717  3.0249 -0.2275
25522SOL    HW278289   9.015   3.978   9.460  3.5378 -0.1015 -1.1660
25523SOL     OW78290   0.642   3.713   1.022 -0.0359  0.0501  0.5046
25523SOL    HW178291   0.721   3.658   1.029  1.1098  1.5836  0.2166
25523SOL    HW278292   0.617   3.707   0.930 -0.1362 -0.2911  0.5541
25524SOL     OW78293   2.839   3.220   6.896  0.0483  0.0148  0.2015
25524SOL    HW178294   2.857   3.126   6.897  1.1986  0.1680  3.1130
25524SOL    HW278295   2.790   3.236   6.976 -2.5705  1.5732 -1.5605
25525SOL     OW78296   5.626   6.038   1.182 -0.0363 -0.0509  0.1564
25525SOL    HW178297   5.542   6.075   1.156  0.4387  1.3257  0.5175
25525SOL    HW278298   5.691   6.102   1.155  0.6875  0.1391  2.1822
25526SOL     OW78299   7.718   0.987   1.176 -0.4156  0.0331 -0.1643
25526SOL    HW178300   7.729   1.029   1.091 -3.3473 -0.5734 -0.9650
25526SOL    HW278301   7.685   1.056   1.233 -0.4339 -0.0360 -0.0903
25527SOL     OW78302   3.972   2.973   1.923  0.8501  0.2295  0.3874
25527SOL    HW178303   3.982   2.886   1.962  0.5000 -0.0420 -0.1302
25527SOL    HW278304   4.036   3.027   1.970 -1.0768  0.4780  2.9649
25528SOL     OW78305   6.890   6.232   1.726  0.4731 -0.3235  0.4370
25528SOL    HW178306   6.930   6.282   1.655  0.8226 -0.7386  0.3316
25528SOL    HW278307   6.952   6.161   1.742 -0.5878 -1.4552 -0.2760
25529SOL     OW78308   5.667   4.503   8.859  0.4324 -0.0820  0.0189
25529SOL    HW178309   5.734   4.508   8.791 -0.4219  0.6009 -0.8070
25529SOL    HW278310   5.686   4.574   8.919 -0.1802  0.8242 -0.8309
25530SOL     OW78311   5.358   1.669   6.302  0.2773  0.5384 -0.4451
25530SOL    HW178312   5.436   1.613   6.303 -0.2358 -0.2133 -1.0248
25530SOL    HW278313   5.380   1.742   6.359  0.6480 -0.7045  1.0808
25531SOL     OW78314   1.740   6.524   7.944 -0.0489 -0.1308 -0.0313
25531SOL    HW178315   1.786   6.508   7.861  0.1992  0.1003  0.0606
25531SOL    HW278316   1.688   6.602   7.927  0.6934  0.4526  0.3025
25532SOL     OW78317   7.036   5.563   3.491  0.1531 -0.2167  0.3282
25532SOL    HW178318   6.944   5.557   3.464 -0.3169 -0.8721  1.9236
25532SOL    HW278319   7.040   5.644   3.542  0.1799 -0.7392  1.1799
25533SOL     OW78320   9.143   0.104   9.129 -0.0435 -0.2723 -0.2005
25533SOL    HW178321   9.129   0.138   9.217  1.4834 -0.3082  0.0733
25533SOL    HW278322   9.238   0.102   9.118 -0.1672 -1.7778 -1.2709
25534SOL     OW78323   6.614   1.868   2.789 -0.0669  0.0840  0.2621
25534SOL    HW178324   6.554   1.891   2.718 -1.7295 -1.5811  1.0458
25534SOL    HW278325   6.558   1.827   2.856  1.8319 -0.8514  1.3737
25535SOL     OW78326   1.985   5.072   9.610 -0.0742 -0.7893 -0.4606
25535SOL    HW178327   1.928   5.032   9.546 -0.8302 -0.3879 -0.0498
25535SOL    HW278328   1.937   5.150   9.640  1.5020  0.6796 -1.5424
25536SOL     OW78329   2.776   1.657   5.227  0.1864  0.5319 -0.0429
25536SOL    HW178330   2.792   1.691   5.315 -1.2275 -0.6923  0.7430
25536SOL    HW278331   2.861   1.622   5.199  1.2481  2.9854 -0.1776
25537SOL     OW78332   2.480   0.465   0.447  0.1126 -0.3732 -0.2594
25537SOL    HW178333   2.561   0.480   0.398  0.5640 -1.1754  0.2114
25537SOL    HW278334   2.455   0.375   0.425 -1.4517  0.3113 -1.5080
25538SOL     OW78335   8.952   9.196   7.662 -0.2774 -0.1633 -0.2687
25538SOL    HW178336   8.873   9.250   7.653 -0.5298 -0.5551 -0.3922
25538SOL    HW278337   8.988   9.220   7.748  0.0616  0.8004 -0.6644
25539SOL     OW78338   3.618   3.981   1.310  0.1782  0.5604  0.3068
25539SOL    HW178339   3.583   4.003   1.223  1.5648  1.1714 -0.1320
25539SOL    HW278340   3.597   3.889   1.322  2.1575 -0.2671 -1.8287
25540SOL     OW78341   7.432   5.233   3.089 -0.2930 -0.1782  0.2252
25540SOL    HW178342   7.484   5.179   3.148 -0.2961 -0.7099 -0.2434
25540SOL    HW278343   7.343   5.227   3.122 -0.0510  0.8535  1.1167
25541SOL     OW78344   8.836   5.990   6.901  0.2144  0.1480 -0.5896
25541SOL    HW178345   8.826   5.898   6.876  0.8835  0.5167 -2.4228
25541SOL    HW278346   8.889   5.988   6.981 -1.7183 -1.1191  0.7149
25542SOL     OW78347   6.715   6.200   3.375 -0.1818 -0.0328 -0.3490
25542SOL    HW178348   6.665   6.131   3.419  0.3006  0.0276  0.3168
25542SOL    HW278349   6.650   6.251   3.328 -0.9411  0.8122  1.5190
25543SOL     OW78350   4.658   8.832   6.547 -0.5214 -0.0520  0.0111
25543SOL    HW178351   4.730   8.814   6.608  0.1370  0.9865 -0.4444
25543SOL    HW278352   4.674   8.774   6.473 -1.3523 -1.3592  0.8037
25544SOL     OW78353   9.144   2.187   0.471 -0.1639 -0.0464  1.1504
25544SOL    HW178354   9.089   2.265   0.471  0.9221  0.7598 -0.1483
25544SOL    HW278355   9.223   2.212   0.517  1.3217  0.5489 -1.5089
25545SOL     OW78356   3.764   3.100   9.013  0.4674 -0.4037  0.3974
25545SOL    HW178357   3.762   3.013   9.053  2.0643 -0.6908 -0.0854
25545SOL    HW278358   3.762   3.084   8.919 -1.2751  0.2026  0.2773
25546SOL     OW78359   1.149   4.589   3.151  0.2940  0.1310  0.2299
25546SOL    HW178360   1.215   4.658   3.148 -0.0464  0.4761  0.6762
25546SOL    HW278361   1.196   4.510   3.123  0.7980  0.4475  0.1711
25547SOL     OW78362   6.445   3.751   6.656 -0.2139 -0.0924 -0.4166
25547SOL    HW178363   6.414   3.839   6.678 -0.5048 -0.7507  2.1369
25547SOL    HW278364   6.377   3.714   6.600 -0.4018  1.0539 -0.9685
25548SOL     OW78365   2.207   6.735   5.740 -0.2291 -0.0377  0.4195
25548SOL    HW178366   2.269   6.693   5.680  2.4661  2.7133  1.0208
25548SOL    HW278367   2.153   6.790   5.683  0.8236  0.8386  0.2262
25549SOL     OW78368   6.645   4.605   2.624  0.4873 -0.3773  0.2009
25549SOL    HW178369   6.690   4.669   2.568 -1.3852 -0.4766 -1.5752
25549SOL    HW278370   6.674   4.626   2.712  2.2345  0.9702 -0.6185
25550SOL     OW78371   6.598   5.144   3.912 -0.2214  0.9357 -0.4968
25550SOL    HW178372   6.623   5.163   4.003  0.7438 -0.1888 -0.4858
25550SOL    HW278373   6.525   5.083   3.920  0.7767 -0.3032 -0.4136
25551SOL     OW78374   8.177   6.389   7.567  0.3890 -0.1313 -0.5543
25551SOL    HW178375   8.253   6.357   7.517  1.0265 -0.1183  0.3680
25551SOL    HW278376   8.173   6.483   7.547  2.3312  0.4706  1.4599
25552SOL     OW78377   1.615   0.075   6.584  0.3880  0.8371 -0.0557
25552SOL    HW178378   1.537   0.119   6.616 -1.4848 -1.9268 -0.5270
25552SOL    HW278379   1.638   0.013   6.653  0.3924 -0.4084 -1.1452
25553SOL     OW78380   8.752   4.153   6.752 -0.2863 -0.3335 -0.1618
25553SOL    HW178381   8.699   4.075   6.770 -1.3653  0.4108  0.0294
25553SOL    HW278382   8.787   4.139   6.664 -0.0780 -1.2409  0.0564
25554SOL     OW78383   5.467   6.613   8.410 -0.4377 -0.2407 -0.0595
25554SOL    HW178384   5.485   6.529   8.452 -0.7664  0.1964  0.9752
25554SOL    HW278385   5.411   6.659   8.471  0.3512  1.0336 -0.2652
25555SOL     OW78386   6.749   7.294   4.615 -0.5229  0.0251 -0.1383
25555SOL    HW178387   6.709   7.343   4.543 -0.0959  0.5452 -0.0262
25555SOL    HW278388   6.692   7.218   4.627 -0.8650  0.1905 -0.7026
25556SOL     OW78389   2.131   8.229   7.784  0.0220 -0.1477 -0.0775
25556SOL    HW178390   2.132   8.169   7.710 -0.2784 -0.0903 -0.1310
25556SOL    HW278391   2.041   8.263   7.786  0.4844  1.1965 -0.7686
25557SOL     OW78392   1.494   4.723   9.494 -0.0586 -0.4161  0.0587
25557SOL    HW178393   1.521   4.782   9.424  0.3598  0.1924  0.7153
25557SOL    HW278394   1.399   4.735   9.501 -0.1071 -0.5113 -0.4229
25558SOL     OW78395   3.316   3.880   6.949  0.1460  0.6352  0.2801
25558SOL    HW178396   3.393   3.824   6.962 -0.1148  0.6288  2.1183
25558SOL    HW278397   3.245   3.833   6.993 -0.6797  1.1321 -0.5082
25559SOL     OW78398   2.606   6.803   2.898  0.1959 -0.5250  0.0433
25559SOL    HW178399   2.637   6.747   2.968  0.1892 -1.4943 -0.7067
25559SOL    HW278400   2.615   6.750   2.818 -1.7619 -0.2575 -0.4235
25560SOL     OW78401   5.421   2.261   3.742 -0.2782 -0.3185  0.1322
25560SOL    HW178402   5.497   2.248   3.686 -0.9217 -0.4346 -0.7345
25560SOL    HW278403   5.351   2.289   3.683 -0.8426  0.0638  0.9496
25561SOL     OW78404   1.486   5.571   5.878 -0.5281 -0.0640  0.2742
25561SOL    HW178405   1.520   5.585   5.790 -0.3295  0.2444  0.3974
25561SOL    HW278406   1.482   5.659   5.916 -0.9312 -0.1567  0.4550
25562SOL     OW78407   6.729   1.611   6.835  0.4466  0.2240  0.2722
25562SOL    HW178408   6.814   1.656   6.839  0.6824 -0.2336  0.3803
25562SOL    HW278409   6.673   1.662   6.894  0.7676  0.2723  0.5401
25563SOL     OW78410   7.161   3.765   7.717  0.2652 -0.5018 -0.2288
25563SOL    HW178411   7.102   3.761   7.642  1.3514 -1.4125 -1.0889
25563SOL    HW278412   7.108   3.740   7.792 -0.4229 -1.4123 -0.9963
25564SOL     OW78413   5.013   0.883   8.925 -0.1948 -0.1731  0.4719
25564SOL    HW178414   5.011   0.905   9.018 -1.5966 -0.4648  0.5380
25564SOL    HW278415   4.922   0.896   8.895  0.1751 -0.3288 -0.7897
25565SOL     OW78416   3.053   9.390   5.353  0.1482  0.5665  0.1422
25565SOL    HW178417   3.121   9.413   5.289 -0.7993  0.0687 -1.0836
25565SOL    HW278418   2.996   9.329   5.306 -1.7785  1.8166  0.7591
25566SOL     OW78419   2.178   2.876   7.974  0.0690  0.7535  0.2944
25566SOL    HW178420   2.204   2.932   8.048 -1.5005 -0.0372  1.4933
25566SOL    HW278421   2.226   2.794   7.988  0.5203  0.9417 -0.1240
25567SOL     OW78422   0.020   8.682   9.491  0.3579  0.0661  0.2829
25567SOL    HW178423   0.074   8.692   9.569  0.1048 -1.8791  0.7594
25567SOL    HW278424  -0.047   8.750   9.500 -0.6373 -1.0893  2.6521
25568SOL     OW78425   6.344   3.257   3.134  0.1307  0.1649 -0.0917
25568SOL    HW178426   6.400   3.200   3.188  0.8471 -0.1340 -1.1048
25568SOL    HW278427   6.402   3.328   3.108 -0.0419  0.0102 -0.9107
25569SOL     OW78428   7.220   0.283   4.465  0.0685  0.0985 -0.0126
25569SOL    HW178429   7.274   0.262   4.389  0.5037 -3.7751  1.1514
25569SOL    HW278430   7.283   0.304   4.534  0.0444 -1.8223  0.6470
25570SOL     OW78431   3.661   7.609   3.708  0.2269  0.0855 -0.2851
25570SOL    HW178432   3.577   7.617   3.663  0.3809 -0.1088 -0.6102
25570SOL    HW278433   3.648   7.655   3.791 -0.9126 -1.8668  0.6623
25571SOL     OW78434   8.512   8.580   2.709 -0.3144 -0.7371  0.2014
25571SOL    HW178435   8.473   8.599   2.794 -1.3883  2.0315 -0.8230
25571SOL    HW278436   8.473   8.496   2.684 -1.8713 -0.4248  1.3880
25572SOL     OW78437   5.734   0.635   7.462 -0.2323  0.4333  0.1650
25572SOL    HW178438   5.693   0.549   7.458  1.0885 -0.2420  0.7221
25572SOL    HW278439   5.685   0.688   7.398  0.7804 -1.5234 -2.3744
25573SOL     OW78440   6.448   8.624   0.290  0.0870 -0.5492  0.2562
25573SOL    HW178441   6.424   8.532   0.294 -0.7900 -0.3244  0.2984
25573SOL    HW278442   6.478   8.645   0.379 -0.4830 -0.5927  0.4616
25574SOL     OW78443   6.790   8.720   5.763 -0.2128 -0.0836 -0.1651
25574SOL    HW178444   6.872   8.700   5.717 -0.5773 -2.5329  0.0917
25574SOL    HW278445   6.727   8.737   5.693  0.0156 -0.4494 -0.4669
25575SOL     OW78446   1.254   2.519   7.887  0.3556 -0.5070 -0.2730
25575SOL    HW178447   1.249   2.465   7.966  0.9250 -1.3136 -0.7667
25575SOL    HW278448   1.163   2.540   7.866  0.2672  1.2127  1.5754
25576SOL     OW78449   6.642   5.675   1.545  0.0752 -0.2137 -0.0747
25576SOL    HW178450   6.600   5.751   1.585  0.5837  1.3024 -2.2740
25576SOL    HW278451   6.571   5.613   1.530 -0.8325  0.9279 -0.6510
25577SOL     OW78452   4.646   9.123   8.384 -0.0210 -0.7648  0.2392
25577SOL    HW178453   4.734   9.131   8.420  0.1627 -2.3305  0.2253
25577SOL    HW278454   4.648   9.177   8.305  0.6196 -0.0144  0.7478
25578SOL     OW78455   9.313   4.048   9.046 -0.5026  0.2307  0.0112
25578SOL    HW178456   9.324   4.134   9.005 -1.4159 -0.0155 -0.7801
25578SOL    HW278457   9.351   3.987   8.984  1.1053  0.1154  1.0373
25579SOL     OW78458   6.634   0.620   3.957  0.1201 -0.2011  0.2135
25579SOL    HW178459   6.601   0.566   4.029  0.5735  0.1999  0.7219
25579SOL    HW278460   6.716   0.656   3.989  0.8997 -0.9039 -0.9169
25580SOL     OW78461   8.053   4.675   2.624  0.1490  0.0898 -0.3810
25580SOL    HW178462   8.060   4.584   2.596  0.8735  0.2767 -0.8523
25580SOL    HW278463   7.963   4.685   2.653 -0.0427 -0.6727 -0.6996
25581SOL     OW78464   4.056   6.296   9.518  0.2754  0.5255 -0.1148
25581SOL    HW178465   4.086   6.307   9.428  0.0498  1.5360 -0.0781
25581SOL    HW278466   3.961   6.294   9.512  0.2764 -0.3650  0.0118
25582SOL     OW78467   2.525   2.322   1.707  0.5334  0.0287  0.6151
25582SOL    HW178468   2.544   2.228   1.703  0.7170  0.1208 -1.2006
25582SOL    HW278469   2.610   2.364   1.703  0.3597  0.3180 -2.5964
25583SOL     OW78470   8.399   5.955   1.158 -0.2362 -0.3245 -0.1463
25583SOL    HW178471   8.461   5.997   1.098  0.2182 -0.1916  0.4112
25583SOL    HW278472   8.315   5.957   1.111  0.7302 -3.2677 -2.2387
25584SOL     OW78473   0.668   8.889   2.272 -0.5343  0.0864  0.3228
25584SOL    HW178474   0.674   8.801   2.309  0.0676  1.3057  3.3935
25584SOL    HW278475   0.749   8.899   2.220  1.7243  0.2405  3.5649
25585SOL     OW78476   1.045   5.039   7.247  0.1759  0.8564 -0.8716
25585SOL    HW178477   1.131   5.010   7.219  0.3824  2.7913 -2.4601
25585SOL    HW278478   0.989   5.027   7.170 -0.9944 -0.2500  0.0860
25586SOL     OW78479   9.367   3.774   7.623  0.2542 -0.1854 -0.4517
25586SOL    HW178480   9.333   3.730   7.701  0.6817  0.5634  0.1779
25586SOL    HW278481   9.455   3.738   7.610  0.8283  0.8531  0.4009
25587SOL     OW78482   4.778   7.597   1.482 -0.4145  0.0946  0.2164
25587SOL    HW178483   4.771   7.502   1.484  0.8300  0.0076  1.1521
25587SOL    HW278484   4.834   7.620   1.556 -0.9450  1.5863  0.1990
25588SOL     OW78485   1.449   5.271   6.462 -0.2125  0.5670  0.1078
25588SOL    HW178486   1.384   5.283   6.393 -0.0846  0.9862  0.0567
25588SOL    HW278487   1.528   5.243   6.416 -0.4435 -0.2479  0.2022
25589SOL     OW78488   1.249   7.447   8.428 -0.1875 -0.1109  0.0687
25589SOL    HW178489   1.196   7.444   8.508 -1.3177 -2.2374 -0.6831
25589SOL    HW278490   1.335   7.414   8.455 -0.0509  0.7581  0.7309
25590SOL     OW78491   2.010   7.722   3.587 -0.2362 -0.2046  0.2077
25590SOL    HW178492   2.095   7.684   3.568 -0.4616  0.0850 -1.5358
25590SOL    HW278493   1.949   7.648   3.586 -0.1241 -0.3098  0.7326
25591SOL     OW78494   7.621   7.355   8.378 -0.2869 -0.2661 -0.4127
25591SOL    HW178495   7.716   7.361   8.389 -0.4488  0.4230  0.9061
25591SOL    HW278496   7.603   7.261   8.369  0.6475 -0.2975 -2.2794
25592SOL     OW78497   1.324   3.937   3.076 -0.4658 -0.1190  0.2984
25592SOL    HW178498   1.410   3.941   3.036 -1.3742 -1.7468 -2.0397
25592SOL    HW278499   1.340   3.947   3.170  2.3812 -1.6982  0.0779
25593SOL     OW78500   6.495   4.725   6.984 -0.0662  0.3410 -0.2196
25593SOL    HW178501   6.571   4.667   6.993 -2.0269 -2.1161  1.6704
25593SOL    HW278502   6.463   4.707   6.895  0.4339 -0.0194 -0.3361
25594SOL     OW78503   4.111   7.434   8.014 -0.1253  0.4930  0.1345
25594SOL    HW178504   4.123   7.437   8.109 -1.3524 -0.2389  0.3446
25594SOL    HW278505   4.115   7.525   7.986 -0.7896  0.8192  1.0449
25595SOL     OW78506   5.102   3.429   7.817 -0.2110  0.3975  0.5413
25595SOL    HW178507   5.134   3.352   7.864 -0.5908 -0.7326 -0.9342
25595SOL    HW278508   5.010   3.409   7.798  0.7447 -1.0051 -3.7890
25596SOL     OW78509   7.021   2.999   1.448 -0.4464 -0.1860  0.4428
25596SOL    HW178510   6.958   2.979   1.517 -0.3407 -0.0963  0.5664
25596SOL    HW278511   7.003   2.935   1.379 -0.9130  0.0757  0.3214
25597SOL     OW78512   9.686   1.712   5.342  0.2603 -0.3562  0.1078
25597SOL    HW178513   9.629   1.788   5.328  0.6400  0.2936  1.8511
25597SOL    HW278514   9.643   1.662   5.411  0.7321 -0.9875 -0.0469
25598SOL     OW78515   1.967   8.096   2.611  0.0092 -0.1297  0.6022
25598SOL    HW178516   1.991   8.094   2.519  1.4499 -0.3502  0.9705
25598SOL    HW278517   1.895   8.034   2.619  0.6142 -0.9409 -0.1722
25599SOL     OW78518   0.081   9.695   3.194 -0.1801  0.1646  0.3107
25599SOL    HW178519   0.120   9.674   3.279  2.0195  0.7847 -0.4742
25599SOL    HW278520  -0.013   9.692   3.209  0.1418 -0.9403  2.4643
25600SOL     OW78521   9.212   6.152   3.760  0.5085 -0.2757  0.0471
25600SOL    HW178522   9.268   6.085   3.800  1.5227 -0.1755 -1.1383
25600SOL    HW278523   9.172   6.108   3.685  0.9643  0.3494 -0.5734
25601SOL     OW78524   1.844   4.870   5.269  0.3865 -0.4669 -0.2744
25601SOL    HW178525   1.908   4.941   5.263 -0.8715  0.7640  0.3035
25601SOL    HW278526   1.785   4.897   5.340  0.1572 -2.3422  0.2944
25602SOL     OW78527   8.826   0.913   0.064 -0.6606  0.0467  0.0146
25602SOL    HW178528   8.754   0.863   0.102 -1.3058  1.3539  0.5722
25602SOL    HW278529   8.803   0.920  -0.029 -1.9399  1.5120  0.3987
25603SOL     OW78530   0.718   1.472   6.927 -0.2308 -0.1586  0.5117
25603SOL    HW178531   0.742   1.556   6.967  1.3032 -0.0696 -0.4934
25603SOL    HW278532   0.792   1.451   6.870 -1.9589 -0.6519 -1.6719
25604SOL     OW78533   1.365   6.586   5.266  0.4408 -0.4479 -0.3147
25604SOL    HW178534   1.292   6.621   5.317  0.4688 -0.6726 -0.1200
25604SOL    HW278535   1.339   6.601   5.175  1.2049  1.6529 -0.2445
25605SOL     OW78536   3.262   3.176   4.501 -0.2988  0.9699 -0.2158
25605SOL    HW178537   3.282   3.090   4.538 -1.3958 -0.0015 -1.7712
25605SOL    HW278538   3.231   3.228   4.576 -0.9910 -0.4335  0.5080
25606SOL     OW78539   1.318   1.637   5.137  0.2153 -0.4086 -0.3724
25606SOL    HW178540   1.235   1.628   5.184  1.3877 -0.9743  1.7585
25606SOL    HW278541   1.368   1.700   5.189  1.6672 -1.2101 -0.7326
25607SOL     OW78542   6.137   3.019   7.400 -0.3432 -0.1931  0.3264
25607SOL    HW178543   6.216   2.968   7.418  0.1489  0.0786 -1.0100
25607SOL    HW278544   6.138   3.034   7.306 -2.1265 -0.3836  0.2443
25608SOL     OW78545   7.837   1.601   3.090 -0.1149 -0.2942 -0.9120
25608SOL    HW178546   7.784   1.665   3.136 -1.8770 -1.3914 -1.2962
25608SOL    HW278547   7.792   1.588   3.006  0.5714 -1.5037 -1.1272
25609SOL     OW78548   9.061   5.853   4.485  0.1442 -0.0925  0.3446
25609SOL    HW178549   8.968   5.829   4.478  0.2454 -0.3975  0.0550
25609SOL    HW278550   9.060   5.936   4.533 -0.2261 -0.5348  1.1383
25610SOL     OW78551   6.350   1.070   9.534  0.1499 -0.1148 -0.5500
25610SOL    HW178552   6.287   1.141   9.540  1.7419  1.8547 -3.8731
25610SOL    HW278553   6.297   0.991   9.538 -2.0441  1.2904  0.4198
25611SOL     OW78554   7.738   0.476   1.565 -0.1628 -0.5102  0.2724
25611SOL    HW178555   7.688   0.423   1.503 -1.1528  1.8706 -1.0683
25611SOL    HW278556   7.697   0.458   1.650 -1.2619 -0.9767 -0.3353
25612SOL     OW78557   4.276   4.195   8.437 -0.4602 -0.2367  0.0826
25612SOL    HW178558   4.212   4.195   8.508 -0.0095  0.2329  0.4948
25612SOL    HW278559   4.343   4.258   8.465  0.0458 -0.5272 -0.4633
25613SOL     OW78560   9.269   6.728   5.764 -0.1944  0.4486 -0.1704
25613SOL    HW178561   9.232   6.699   5.680 -1.3703 -0.2340  0.5563
25613SOL    HW278562   9.346   6.673   5.776 -1.0925 -0.7984  0.0789
25614SOL     OW78563   2.933   8.311   5.804 -0.2488  0.3254 -0.7987
25614SOL    HW178564   2.841   8.321   5.825 -0.1962  1.7767 -1.1769
25614SOL    HW278565   2.934   8.250   5.729 -0.6783 -1.7581  0.8015
25615SOL     OW78566   1.026   8.324   4.294 -0.3153 -0.0261 -0.0543
25615SOL    HW178567   0.997   8.410   4.326 -1.3496 -1.3414  2.9642
25615SOL    HW278568   0.960   8.300   4.229  0.6923  1.9189 -1.9234
25616SOL     OW78569   8.399   4.523   6.217 -0.1559 -0.2902  0.1813
25616SOL    HW178570   8.463   4.516   6.288 -0.7176 -0.3992  0.6842
25616SOL    HW278571   8.325   4.570   6.255 -1.0430 -1.5526  0.0806
25617SOL     OW78572   5.226   0.047   8.849  0.8736  0.3148  0.4728
25617SOL    HW178573   5.319   0.037   8.866  0.9622 -0.4978 -0.3821
25617SOL    HW278574   5.188   0.068   8.934  1.6404 -0.7873  1.1176
25618SOL     OW78575   4.282   2.454   9.684 -0.1436 -0.4384 -0.3438
25618SOL    HW178576   4.292   2.395   9.759 -3.2011  0.1357  0.6607
25618SOL    HW278577   4.256   2.397   9.612 -0.3587 -0.6371 -0.1125
25619SOL     OW78578   3.465   0.512   6.360  0.1179 -0.3788 -0.1663
25619SOL    HW178579   3.550   0.546   6.387 -0.0993 -0.4097  0.5703
25619SOL    HW278580   3.403   0.581   6.386 -0.3423 -1.3496  1.4416
25620SOL     OW78581   2.927   9.416   7.305 -0.1880 -0.0181  0.1526
25620SOL    HW178582   2.982   9.471   7.360  2.3183 -2.2830  0.1151
25620SOL    HW278583   2.872   9.368   7.366 -0.4131  0.5102  0.3674
25621SOL     OW78584   9.432   1.543   0.355 -0.2828  0.0093 -0.2234
25621SOL    HW178585   9.490   1.531   0.279 -0.0348 -0.4165  0.0300
25621SOL    HW278586   9.455   1.630   0.388  0.8542 -0.5026  0.4037
25622SOL     OW78587   2.138   8.941   1.665 -0.3800  0.0593 -0.2338
25622SOL    HW178588   2.058   8.938   1.718 -1.1847 -2.5490 -1.4205
25622SOL    HW278589   2.205   8.901   1.720 -0.8651 -1.3008 -0.5881
25623SOL     OW78590   8.024   8.070   2.839  0.3698 -0.1649  0.4965
25623SOL    HW178591   8.046   8.068   2.746 -2.1813 -0.5839 -0.1820
25623SOL    HW278592   7.994   8.160   2.855  0.7901 -0.0942  0.9295
25624SOL     OW78593   8.493   5.050   3.419  0.3290  0.1915  0.4444
25624SOL    HW178594   8.492   5.044   3.323 -1.0640  0.0184  0.4449
25624SOL    HW278595   8.441   4.975   3.448  0.4891  0.4099  1.3292
25625SOL     OW78596   1.614   1.600   5.457  0.1178 -0.2019 -0.3088
25625SOL    HW178597   1.682   1.661   5.486 -1.3713  2.5262 -2.0804
25625SOL    HW278598   1.661   1.523   5.427  2.4133  1.4317 -1.1378
25626SOL     OW78599   5.091   3.697   5.364 -0.3866 -0.0623  0.6666
25626SOL    HW178600   5.124   3.774   5.410 -1.7556 -0.0518  1.7052
25626SOL    HW278601   5.148   3.626   5.394  0.5910  0.4477  0.0620
25627SOL     OW78602   6.395   9.101   1.745 -0.1033 -0.0186 -0.4868
25627SOL    HW178603   6.381   9.040   1.672  0.9418  1.2288 -1.8062
25627SOL    HW278604   6.381   9.187   1.707  1.0589  0.7024  0.6212
25628SOL     OW78605   5.106   2.288   8.407  0.1674  0.4895 -0.5772
25628SOL    HW178606   5.170   2.302   8.477  1.1784 -1.0367 -1.1352
25628SOL    HW278607   5.025   2.267   8.452  0.0890  2.1989  0.1445
25629SOL     OW78608   1.156   4.540   4.985  0.1462 -0.0732 -0.0926
25629SOL    HW178609   1.166   4.629   5.020 -0.9047  0.4965 -1.1696
25629SOL    HW278610   1.084   4.502   5.036 -0.7097  0.4021 -0.9150
25630SOL     OW78611   4.854   9.272   0.992 -0.0420 -0.1318 -0.1030
25630SOL    HW178612   4.834   9.194   1.044 -1.8600 -0.4616 -1.2035
25630SOL    HW278613   4.830   9.345   1.048 -1.1998 -0.4641 -0.1338
25631SOL     OW78614   1.234   3.494   2.230 -0.1472  0.0630  0.1423
25631SOL    HW178615   1.246   3.587   2.208 -0.4091 -0.1369 -0.8916
25631SOL    HW278616   1.255   3.489   2.324 -1.4982  1.4132  0.5576
25632SOL     OW78617   6.129   6.364   8.172  0.4258  0.1138  0.1810
25632SOL    HW178618   6.044   6.328   8.146  0.7250 -0.9302  0.5988
25632SOL    HW278619   6.193   6.309   8.127  0.9860 -2.0227  3.2472
25633SOL     OW78620   9.149   1.812   7.215 -0.2033  0.1278  0.0792
25633SOL    HW178621   9.223   1.864   7.183  0.1179  0.0276  0.6438
25633SOL    HW278622   9.091   1.877   7.256 -0.2262  0.1508  0.0116
25634SOL     OW78623   4.052   0.968   2.412  0.1887 -0.1621 -0.2211
25634SOL    HW178624   4.099   0.994   2.333  1.1120  0.4186  0.4944
25634SOL    HW278625   3.996   0.895   2.384  1.4839 -0.8539 -1.1286
25635SOL     OW78626   5.499   5.171   0.747  0.3366  0.2880 -0.0061
25635SOL    HW178627   5.451   5.114   0.686 -0.6343 -0.0417  1.0227
25635SOL    HW278628   5.477   5.260   0.719 -3.2447  0.2358  2.0618
25636SOL     OW78629   1.184   0.047   6.738  0.3985 -0.5797  0.2656
25636SOL    HW178630   1.163   0.117   6.799 -0.7947  0.6692 -1.4947
25636SOL    HW278631   1.101   0.003   6.720  0.3656  0.1638 -1.7036
25637SOL     OW78632   2.538   4.908   9.304  0.5248 -0.3139  0.6712
25637SOL    HW178633   2.452   4.912   9.346 -0.1663 -0.3102 -0.7028
25637SOL    HW278634   2.562   4.815   9.306  1.1766 -0.1523  2.3294
25638SOL     OW78635   7.483   6.117   6.406  0.0231 -0.0036 -0.2099
25638SOL    HW178636   7.425   6.192   6.405  0.9192  0.7131  0.2079
25638SOL    HW278637   7.490   6.091   6.314  0.6410  1.1676 -0.5100
25639SOL     OW78638   3.667   8.664   4.841 -0.3885 -0.0760 -0.6961
25639SOL    HW178639   3.672   8.737   4.903 -0.0650  0.2158 -1.0672
25639SOL    HW278640   3.584   8.621   4.862 -1.0457  0.9637 -1.1187
25640SOL     OW78641   7.441   1.205   5.656  0.5790  0.0952  0.3929
25640SOL    HW178642   7.499   1.272   5.620  1.0475 -0.1595  0.6537
25640SOL    HW278643   7.357   1.249   5.668 -0.2312 -0.3109 -2.8505
25641SOL     OW78644   0.731   1.426   4.394  0.0508 -0.2224 -0.0329
25641SOL    HW178645   0.745   1.520   4.381  0.9190 -0.4598 -0.9596
25641SOL    HW278646   0.664   1.421   4.462  0.2898  1.0604  0.3245
25642SOL     OW78647   2.108   5.382   6.320  0.3495 -0.2033  0.4888
25642SOL    HW178648   2.019   5.346   6.317 -0.1305  0.9742 -0.4696
25642SOL    HW278649   2.110   5.445   6.247  2.2919 -0.9207 -0.1301
25643SOL     OW78650   2.848   4.929   8.240  0.7784 -0.1156 -0.5984
25643SOL    HW178651   2.879   5.012   8.203 -0.3170  0.4549 -0.2526
25643SOL    HW278652   2.897   4.920   8.322 -1.9274  2.2571  1.4669
25644SOL     OW78653   5.374   7.304   7.798  0.1688 -0.3002 -0.3598
25644SOL    HW178654   5.365   7.365   7.871 -0.9894  0.8461 -1.4185
25644SOL    HW278655   5.469   7.291   7.790  0.5691  2.3858 -0.8871
25645SOL     OW78656   4.625   3.809   0.839 -0.3603  0.2799  0.4447
25645SOL    HW178657   4.584   3.869   0.777 -0.0795 -2.7467 -2.9537
25645SOL    HW278658   4.719   3.827   0.831 -0.3778  0.5353  0.7722
25646SOL     OW78659   2.308   2.259   1.154 -0.0381  0.5581 -0.1881
25646SOL    HW178660   2.299   2.353   1.168  0.1774  0.5933 -0.3007
25646SOL    HW278661   2.289   2.221   1.240  0.8052  0.7556  0.0883
25647SOL     OW78662   8.985   3.975   4.266  0.3992  0.1858 -0.0145
25647SOL    HW178663   9.063   3.996   4.214 -0.6024 -0.1220 -1.7266
25647SOL    HW278664   8.973   3.881   4.254 -1.0526  0.4587 -1.0520
25648SOL     OW78665   5.509   1.605   4.331  1.1553  0.0735  0.2455
25648SOL    HW178666   5.569   1.543   4.290  1.0722  0.8578 -1.0975
25648SOL    HW278667   5.527   1.596   4.425  2.0281 -1.0641 -0.0038
25649SOL     OW78668   3.860   3.432   1.427  0.3786  0.3575 -0.2545
25649SOL    HW178669   3.810   3.386   1.494  1.6062  0.4594  0.7547
25649SOL    HW278670   3.860   3.523   1.455 -0.6433  0.7473 -1.3855
25650SOL     OW78671   4.394   4.688   0.759 -0.1050  0.4746 -0.1688
25650SOL    HW178672   4.314   4.658   0.715  0.3738 -0.5484 -0.3564
25650SOL    HW278673   4.465   4.643   0.714  0.7804  2.9376 -1.3634
25651SOL     OW78674   9.436   7.691   2.621  0.4531  0.1488  0.9134
25651SOL    HW178675   9.394   7.696   2.536 -0.0721 -3.4307  0.8310
25651SOL    HW278676   9.374   7.731   2.681  0.1527  1.3236 -0.1432
25652SOL     OW78677   1.231   7.309   1.716 -0.0090 -0.6900 -0.2570
25652SOL    HW178678   1.244   7.402   1.697  0.1796 -0.1611  2.1856
25652SOL    HW278679   1.314   7.280   1.753 -0.4909 -1.4737  0.2383
25653SOL     OW78680   0.990   9.696   9.523 -0.5233  0.3399 -0.1215
25653SOL    HW178681   0.927   9.651   9.466 -1.3361  0.6858  0.4844
25653SOL    HW278682   1.063   9.634   9.531 -0.3698  0.2935 -1.5552
25654SOL     OW78683   3.574   8.003   2.613  0.1491  0.2002 -0.1470
25654SOL    HW178684   3.571   7.919   2.567  0.0576 -0.9356  1.8301
25654SOL    HW278685   3.497   8.002   2.670  0.9926  0.9100  1.0573
25655SOL     OW78686   4.916   7.150   4.814  0.0388 -0.1137  0.2065
25655SOL    HW178687   4.903   7.064   4.775  2.0282 -0.6380  0.5626
25655SOL    HW278688   4.934   7.133   4.906 -0.5188  0.7824  0.5023
25656SOL     OW78689   1.566   6.127   4.430 -0.3303 -0.1903  0.0334
25656SOL    HW178690   1.475   6.156   4.425 -0.2372  0.3744  1.1951
25656SOL    HW278691   1.617   6.201   4.398 -0.1498  0.6468  2.0755
25657SOL     OW78692   4.522   2.344   1.099  0.3325  0.0887 -0.4276
25657SOL    HW178693   4.500   2.318   1.009 -0.5048 -1.2142  0.1174
25657SOL    HW278694   4.460   2.415   1.119  0.1859  0.0429 -0.7151
25658SOL     OW78695   5.933   4.876   5.685 -0.1712  0.7410  0.2910
25658SOL    HW178696   5.973   4.854   5.769 -0.4834  0.9322  0.4928
25658SOL    HW278697   6.003   4.863   5.621 -0.7460 -2.4300  0.1451
25659SOL     OW78698   8.701   6.595   2.794 -0.3205 -0.1204 -0.0191
25659SOL    HW178699   8.794   6.619   2.795 -0.5230  0.8807  2.4816
25659SOL    HW278700   8.655   6.674   2.823 -1.9161 -0.8335 -0.4564
25660SOL     OW78701   1.281   7.645   9.022 -0.1342  0.0194 -0.0181
25660SOL    HW178702   1.346   7.631   9.090  1.1532 -1.6037 -1.4888
25660SOL    HW278703   1.252   7.735   9.034  1.6649  0.4687  1.2962
25661SOL     OW78704   4.605   4.330   5.615 -0.3955  0.0693 -0.0121
25661SOL    HW178705   4.630   4.258   5.673  0.1890  0.0464 -0.2902
25661SOL    HW278706   4.651   4.406   5.649 -1.5816  0.4901  0.7222
25662SOL     OW78707   3.067   8.742   5.511  0.1743  0.2346 -0.2557
25662SOL    HW178708   3.024   8.820   5.547  0.9652  0.8486 -0.6277
25662SOL    HW278709   3.147   8.733   5.562  0.5780  0.2574 -0.8693
25663SOL     OW78710   8.336   4.298   8.331 -0.1567  0.1809 -0.4114
25663SOL    HW178711   8.407   4.286   8.394 -0.4673  1.1227  0.1469
25663SOL    HW278712   8.260   4.258   8.373 -0.2515  0.3596 -0.4124
25664SOL     OW78713   3.594   2.812   4.464  0.2978 -0.5738 -0.1915
25664SOL    HW178714   3.599   2.867   4.542 -1.2531 -1.2087  0.3897
25664SOL    HW278715   3.523   2.751   4.482  0.5987 -1.4086 -1.6866
25665SOL     OW78716   1.407   2.857   9.021  0.1534  0.3233  0.1145
25665SOL    HW178717   1.378   2.771   8.991  0.4714  0.2624 -0.0280
25665SOL    HW278718   1.380   2.917   8.952  0.3204  0.2747  0.0067
25666SOL     OW78719   1.260   2.213   7.637  0.2354 -0.5194 -0.1131
25666SOL    HW178720   1.172   2.175   7.632  0.0026 -0.2213  1.2667
25666SOL    HW278721   1.251   2.300   7.598 -0.6795  0.4506  2.1275
25667SOL     OW78722   1.934   2.452   3.965  0.1019  0.2396  0.1405
25667SOL    HW178723   1.944   2.432   3.872  1.8806 -0.3991  0.4148
25667SOL    HW278724   1.930   2.547   3.970  0.4213  0.2929 -0.5695
25668SOL     OW78725   6.317   4.692   4.743 -0.4016 -0.0918  0.2339
25668SOL    HW178726   6.269   4.686   4.826 -0.3103  0.3986  0.3271
25668SOL    HW278727   6.335   4.601   4.719 -0.8094 -0.2554  0.5278
25669SOL     OW78728   1.525   8.330   6.215 -0.8092  0.1188  0.4464
25669SOL    HW178729   1.495   8.241   6.232 -0.2099 -0.5835 -1.8641
25669SOL    HW278730   1.552   8.363   6.301 -0.2794 -2.2020  1.2315
25670SOL     OW78731   2.372   0.029   9.220 -0.0996  0.4077  0.2609
25670SOL    HW178732   2.457  -0.014   9.206  0.0177  0.6073  0.3535
25670SOL    HW278733   2.344   0.056   9.132 -0.6568 -0.7462  0.0597
25671SOL     OW78734   1.598   4.703   6.588 -0.2124 -0.0635  0.2516
25671SOL    HW178735   1.633   4.792   6.582 -0.4216  0.0657  0.8855
25671SOL    HW278736   1.589   4.675   6.497 -0.5194  0.7181  0.0314
25672SOL     OW78737   7.324   6.512   7.222 -0.7506  0.1295  0.4151
25672SOL    HW178738   7.366   6.427   7.205  0.2152  0.7643 -0.5382
25672SOL    HW278739   7.237   6.504   7.184 -0.7774 -0.5291  0.5940
25673SOL     OW78740   3.610   3.934   8.675 -0.0528  0.1950 -0.4583
25673SOL    HW178741   3.634   3.851   8.633  1.6523 -0.0770  0.9572
25673SOL    HW278742   3.612   3.998   8.604  0.2890 -0.6748 -1.2546
25674SOL     OW78743   6.188   4.456   1.603 -0.7961 -0.2333 -0.2032
25674SOL    HW178744   6.202   4.407   1.684  1.2577 -1.1461 -1.0365
25674SOL    HW278745   6.168   4.389   1.538  0.5161  0.1606 -1.0441
25675SOL     OW78746   1.475   4.110   9.236  0.7247  0.5020 -0.2887
25675SOL    HW178747   1.434   4.088   9.319  1.3874 -0.6215 -0.2462
25675SOL    HW278748   1.427   4.059   9.171 -1.4369  3.1771 -1.0141
25676SOL     OW78749   8.029   7.009   0.787 -0.0518 -0.3805  0.0154
25676SOL    HW178750   8.004   7.101   0.796  1.5005  0.1076 -0.4193
25676SOL    HW278751   7.993   6.967   0.865  0.6038  0.9131  1.0446
25677SOL     OW78752   7.551   5.590   2.164 -0.3542  0.3609  0.1094
25677SOL    HW178753   7.570   5.683   2.169  0.0595  0.2858 -0.0107
25677SOL    HW278754   7.462   5.585   2.128  0.4016  0.6839 -1.9903
25678SOL     OW78755   4.365   1.554   0.514  0.3452 -0.0963 -0.2160
25678SOL    HW178756   4.367   1.506   0.431  2.8149 -1.6465  0.6267
25678SOL    HW278757   4.448   1.532   0.556 -0.4268  1.3871  2.2669
25679SOL     OW78758   7.098   5.573   0.056  0.1587  0.2676 -0.1318
25679SOL    HW178759   7.057   5.494   0.091  0.2715  0.1580 -0.2458
25679SOL    HW278760   7.188   5.569   0.088  0.6261 -0.4835 -1.4538
25680SOL     OW78761   0.352   9.452   4.415  0.3794  0.0859  0.0886
25680SOL    HW178762   0.343   9.469   4.321  0.7042  0.4269  0.1184
25680SOL    HW278763   0.276   9.398   4.437  1.0428 -1.2090 -0.6724
25681SOL     OW78764   3.743   8.527   1.597 -0.1930  0.2577 -0.2383
25681SOL    HW178765   3.773   8.475   1.671 -0.3079 -0.3824 -0.6329
25681SOL    HW278766   3.758   8.471   1.521 -1.0733  0.4752 -0.5869
25682SOL     OW78767   5.929   3.235   3.718  0.6432  0.2536  0.1447
25682SOL    HW178768   5.863   3.166   3.733  0.9485  0.0503  0.5752
25682SOL    HW278769   5.902   3.276   3.636  0.2386 -0.1296  0.0798
25683SOL     OW78770   9.145   6.634   1.005 -0.0653 -0.1479  0.0605
25683SOL    HW178771   9.078   6.702   0.999  0.1930 -0.0001 -1.7414
25683SOL    HW278772   9.135   6.599   1.093 -0.0704  2.3484  1.1555
25684SOL     OW78773   6.642   7.592   8.753 -0.0294  0.8341  0.1808
25684SOL    HW178774   6.553   7.577   8.786 -0.8772  2.8327 -1.0253
25684SOL    HW278775   6.632   7.597   8.658  1.1794  2.0755  0.0807
25685SOL     OW78776   9.404   1.034   6.833  0.4677 -0.2599  0.2276
25685SOL    HW178777   9.372   1.118   6.867  1.0547  0.1813 -0.2672
25685SOL    HW278778   9.407   1.046   6.738  4.7661  0.8388  0.2605
25686SOL     OW78779   8.217   1.087   7.574  0.1191 -0.5096  0.4064
25686SOL    HW178780   8.253   1.009   7.615  0.3981 -0.7063 -0.1913
25686SOL    HW278781   8.198   1.060   7.484  1.0841  0.3436 -0.0772
25687SOL     OW78782   0.851   6.764   9.413 -0.0573 -0.3037  0.4743
25687SOL    HW178783   0.923   6.732   9.358 -0.7032  0.3524 -0.7904
25687SOL    HW278784   0.779   6.702   9.397 -0.9191  1.0126 -1.0570
25688SOL     OW78785   7.339   2.941   8.063 -1.0095 -0.1013  0.2389
25688SOL    HW178786   7.409   3.005   8.073  1.3148 -2.4855  0.4050
25688SOL    HW278787   7.313   2.949   7.971  1.3361 -0.8597 -0.5529
25689SOL     OW78788   0.608   1.183   5.851 -0.3118  0.3125 -0.0639
25689SOL    HW178789   0.686   1.174   5.796 -1.0096  0.3337 -1.0896
25689SOL    HW278790   0.560   1.256   5.812 -0.8864  0.2431  0.5023
25690SOL     OW78791   3.299   4.913   7.098  0.1157 -0.5779 -0.1630
25690SOL    HW178792   3.281   4.825   7.064 -0.4581 -0.0948 -1.1349
25690SOL    HW278793   3.220   4.963   7.080  0.5364  0.2158  0.1501
25691SOL     OW78794   8.275   8.910   2.194 -0.5000  0.9788  0.1372
25691SOL    HW178795   8.273   8.815   2.204 -0.4094  0.8814 -0.7153
25691SOL    HW278796   8.196   8.941   2.240  0.6841  0.7243  2.5033
25692SOL     OW78797   0.108   7.059   0.071  0.1887  0.0753  0.2358
25692SOL    HW178798   0.124   6.964   0.076  2.9280  0.3711 -0.7095
25692SOL    HW278799   0.116   7.089   0.161 -0.0622 -0.5103  0.4619
25693SOL     OW78800   1.529   2.763   4.029 -0.4446  0.6058 -0.2514
25693SOL    HW178801   1.596   2.773   4.097 -1.8592  0.9724  1.1599
25693SOL    HW278802   1.498   2.852   4.013  0.2378  0.5905 -1.8087
25694SOL     OW78803   6.759   9.491   8.130 -0.1734 -0.5753  0.2421
25694SOL    HW178804   6.850   9.472   8.107 -0.4692 -2.2533  0.2770
25694SOL    HW278805   6.765   9.550   8.205  0.8592  0.3552 -0.5562
25695SOL     OW78806   5.968   9.349   7.639 -0.4160  0.3007 -0.5948
25695SOL    HW178807   5.985   9.443   7.634 -1.1610  0.5519  1.1474
25695SOL    HW278808   6.041   9.314   7.690 -0.6950  0.0893 -0.3388
25696SOL     OW78809   7.033   3.191   2.142 -0.2532  0.4422  0.0137
25696SOL    HW178810   6.949   3.172   2.100 -0.0955 -1.2623  0.3901
25696SOL    HW278811   7.048   3.115   2.199  1.4404  0.8323  0.1199
25697SOL     OW78812   2.551   4.254   1.328  0.4261  0.7813 -0.2887
25697SOL    HW178813   2.639   4.224   1.305 -0.2697  0.2192 -2.4318
25697SOL    HW278814   2.494   4.212   1.264 -1.8279 -1.2641  2.8102
25698SOL     OW78815   2.487   2.823   9.402  0.3169 -0.4709 -0.1102
25698SOL    HW178816   2.512   2.834   9.494 -0.2748  0.7821 -0.0901
25698SOL    HW278817   2.441   2.903   9.380 -1.9040 -1.8459 -0.7470
25699SOL     OW78818   7.717   1.661   9.398 -0.4784 -0.4172  0.0560
25699SOL    HW178819   7.742   1.735   9.453 -1.1552  0.0553 -0.2588
25699SOL    HW278820   7.655   1.698   9.335 -0.4891 -1.1620 -0.3800
25700SOL     OW78821   1.293   5.505   3.439  0.3112 -0.1347 -0.0970
25700SOL    HW178822   1.205   5.476   3.416 -0.0158  0.4391  0.4151
25700SOL    HW278823   1.302   5.591   3.400  0.0357  0.5179  1.2226
25701SOL     OW78824   2.654   0.733   0.932 -0.2958 -1.1946 -0.6367
25701SOL    HW178825   2.623   0.680   0.859  1.3103  0.9415 -3.0518
25701SOL    HW278826   2.742   0.700   0.950  0.3377 -0.0574 -1.5099
25702SOL     OW78827   2.227   2.408   0.267 -0.0564  0.1049  0.4885
25702SOL    HW178828   2.213   2.339   0.332 -0.5440  0.0118  0.2886
25702SOL    HW278829   2.171   2.480   0.296  1.3329  0.8843  1.3618
25703SOL     OW78830   3.667   9.643   3.135 -0.1273 -0.3953  0.0553
25703SOL    HW178831   3.727   9.703   3.180 -0.2286  0.6415 -1.1313
25703SOL    HW278832   3.716   9.561   3.127  1.1129  0.3943 -0.7910
25704SOL     OW78833   6.190   0.824   9.585 -0.1167  0.0513  0.0209
25704SOL    HW178834   6.119   0.837   9.648 -1.0399  1.8386 -1.3207
25704SOL    HW278835   6.162   0.748   9.533 -1.0761  0.7509 -0.5071
25705SOL     OW78836   7.999   1.327   3.508 -0.7456  0.2545 -0.1783
25705SOL    HW178837   7.963   1.288   3.587  1.5132  1.8162  1.7673
25705SOL    HW278838   7.941   1.401   3.489 -0.2635  1.0178  1.2039
25706SOL     OW78839   5.079   2.772   0.130 -0.4924 -0.1277 -0.4638
25706SOL    HW178840   4.997   2.723   0.123 -0.9567  0.6539 -0.6517
25706SOL    HW278841   5.147   2.705   0.138 -1.1536 -0.7847 -0.2657
25707SOL     OW78842   9.598   6.196   0.041  0.3211  0.2580  0.2730
25707SOL    HW178843   9.604   6.109   0.003 -0.1899  0.5136 -0.4371
25707SOL    HW278844   9.685   6.214   0.076  0.8805  0.0718 -0.9529
25708SOL     OW78845   2.104   8.547   1.859 -0.1985  0.0708  0.2318
25708SOL    HW178846   2.092   8.628   1.910 -0.1239  0.0485  0.2858
25708SOL    HW278847   2.148   8.487   1.920 -0.3049 -0.0290  0.2104
25709SOL     OW78848   0.422   6.198   8.502  0.2083  0.5146 -0.7639
25709SOL    HW178849   0.433   6.132   8.571  1.7773  1.0461 -0.4686
25709SOL    HW278850   0.488   6.176   8.437  0.3822  1.4811 -0.9235
25710SOL     OW78851   2.087   6.543   0.352 -0.5218 -0.2485 -0.0694
25710SOL    HW178852   2.100   6.577   0.263  1.3982 -1.8802 -0.4640
25710SOL    HW278853   2.003   6.496   0.347  0.1174 -1.3243 -1.3729
25711SOL     OW78854   6.543   5.609   1.992  0.1221  0.1175  0.1374
25711SOL    HW178855   6.536   5.690   1.941 -1.0797 -0.4621 -0.6720
25711SOL    HW278856   6.453   5.576   1.997  0.5773 -1.1372  0.4945
25712SOL     OW78857   2.899   6.965   1.217 -0.0264  0.4291  0.6120
25712SOL    HW178858   2.833   7.019   1.174 -0.6034 -0.0085  0.9420
25712SOL    HW278859   2.911   7.005   1.303 -0.2933  0.1702  0.7727
25713SOL     OW78860   0.830   4.662   8.293 -0.2807 -0.1380  0.7817
25713SOL    HW178861   0.901   4.640   8.233 -1.7032 -0.1471 -0.9591
25713SOL    HW278862   0.854   4.618   8.375  1.4873 -0.4814  0.1202
25714SOL     OW78863   1.530   5.002   8.059 -0.7620  0.8501 -0.7878
25714SOL    HW178864   1.473   4.982   7.985 -0.7830 -2.0270 -0.1206
25714SOL    HW278865   1.485   5.072   8.106 -2.3127  0.6089 -1.8244
25715SOL     OW78866   6.865   5.499   7.174  0.6490  0.4980  0.5361
25715SOL    HW178867   6.801   5.494   7.103  1.2469 -1.0702  0.0644
25715SOL    HW278868   6.872   5.593   7.193 -0.2229  0.8753 -0.8327
25716SOL     OW78869   2.204   4.833   8.594  0.0020  0.3424 -0.4764
25716SOL    HW178870   2.215   4.879   8.511  1.9470  0.7844 -0.0439
25716SOL    HW278871   2.259   4.882   8.656 -1.5113  0.1234  1.1305
25717SOL     OW78872   1.627   5.444   4.362 -0.6957  0.1319 -0.6118
25717SOL    HW178873   1.700   5.394   4.399 -0.3289 -0.1065 -1.6250
25717SOL    HW278874   1.640   5.533   4.394 -0.2714 -0.0229 -0.3468
25718SOL     OW78875   1.515   0.185   4.554 -0.6720 -0.0454 -0.3258
25718SOL    HW178876   1.481   0.274   4.560 -1.1239 -0.1579 -1.0963
25718SOL    HW278877   1.610   0.196   4.551 -0.7064  0.3782  0.0200
25719SOL     OW78878   2.002   6.528   1.637 -0.2050 -0.2820  0.1229
25719SOL    HW178879   2.079   6.520   1.581 -1.0926 -1.7567 -0.9636
25719SOL    HW278880   1.992   6.442   1.677  0.4933  0.7583  2.7809
25720SOL     OW78881   6.531   3.670   7.430  0.2456 -0.0199 -0.5100
25720SOL    HW178882   6.464   3.622   7.477 -1.1481  0.0212 -2.3318
25720SOL    HW278883   6.499   3.674   7.340  1.3979  2.3348 -0.9024
25721SOL     OW78884   5.719   2.914   5.468  0.6783 -0.6109  0.3081
25721SOL    HW178885   5.712   3.008   5.452  0.8478 -0.6460  0.0187
25721SOL    HW278886   5.666   2.899   5.547 -0.2708 -0.4521 -0.2764
25722SOL     OW78887   5.306   7.365   3.530  0.1898  0.2389 -0.1135
25722SOL    HW178888   5.255   7.310   3.590 -0.2369  0.8083  0.0529
25722SOL    HW278889   5.338   7.437   3.584  2.2110 -0.7290  0.0646
25723SOL     OW78890   4.539   3.064   8.280 -0.7555 -0.3724 -0.1892
25723SOL    HW178891   4.461   3.056   8.336 -1.5089 -1.6367 -1.3524
25723SOL    HW278892   4.606   3.015   8.326 -0.9069 -0.0745  0.3628
25724SOL     OW78893   8.891   3.297   3.087  0.6650  0.8759  0.9493
25724SOL    HW178894   8.921   3.206   3.088 -2.7095 -0.4350 -0.8925
25724SOL    HW278895   8.969   3.348   3.065  2.2435 -1.8004 -0.1517
25725SOL     OW78896   1.523   3.934   3.554  0.6239  0.0785  0.2043
25725SOL    HW178897   1.522   3.983   3.637 -0.8392 -0.7178  0.6904
25725SOL    HW278898   1.551   3.999   3.489  1.0451  0.9278  1.1945
25726SOL     OW78899   6.118   5.902   1.542  0.5264  0.0893 -0.0909
25726SOL    HW178900   6.140   5.995   1.542  2.4335 -0.3240  0.7572
25726SOL    HW278901   6.145   5.871   1.628 -0.4607 -1.1854 -0.2145
25727SOL     OW78902   7.907   2.246   2.935 -0.2786  0.3687 -0.2631
25727SOL    HW178903   7.832   2.238   2.993  0.5102  1.0853  0.9034
25727SOL    HW278904   7.981   2.216   2.988  0.0155 -2.4558 -2.0762
25728SOL     OW78905   5.081   2.248   1.507 -0.3346  0.2490  0.2259
25728SOL    HW178906   5.064   2.227   1.415 -0.5530 -0.0995  0.3429
25728SOL    HW278907   4.997   2.282   1.540 -0.2851  0.2774  0.3228
25729SOL     OW78908   2.322   6.926   7.970  0.0751 -0.4530 -0.5429
25729SOL    HW178909   2.262   6.861   8.006 -2.1036  1.2233 -0.9008
25729SOL    HW278910   2.368   6.961   8.046 -1.4234  0.0985  0.1557
25730SOL     OW78911   8.467   1.589   9.289  0.7214  0.6628  0.0413
25730SOL    HW178912   8.522   1.594   9.367 -0.3025 -0.4423  0.8697
25730SOL    HW278913   8.451   1.680   9.264  0.9185  1.0383  1.2346
25731SOL     OW78914   0.285   7.019   6.344 -0.5389 -0.3666  0.3395
25731SOL    HW178915   0.351   7.077   6.306 -0.1066 -1.2376 -0.2743
25731SOL    HW278916   0.273   7.051   6.433 -0.1368  0.5111  0.0893
25732SOL     OW78917   2.852   0.509   9.123  0.0995 -0.1511 -0.0828
25732SOL    HW178918   2.788   0.467   9.182  0.7896  0.1370  0.9018
25732SOL    HW278919   2.844   0.602   9.142  1.4054 -0.1750  0.6901
25733SOL     OW78920   1.996   0.761   6.447 -0.2131 -0.1729 -0.0893
25733SOL    HW178921   1.997   0.857   6.440 -0.2764 -0.2619 -1.7440
25733SOL    HW278922   1.909   0.741   6.481  0.2825  0.3917  1.6258
25734SOL     OW78923   1.384   8.104   4.631 -0.3117  0.1702 -0.2268
25734SOL    HW178924   1.340   8.109   4.546 -0.3465  0.9571 -0.1692
25734SOL    HW278925   1.434   8.023   4.627 -0.1880  0.2741 -1.0575
25735SOL     OW78926   0.134   1.338   4.526  0.2243  0.2171 -0.7066
25735SOL    HW178927   0.093   1.369   4.446  0.8454  0.4411 -0.9471
25735SOL    HW278928   0.071   1.277   4.564 -1.0370  1.7550 -0.2277
25736SOL     OW78929   6.243   1.353   9.450  0.1079 -0.6270 -0.3047
25736SOL    HW178930   6.313   1.338   9.386  0.2032  1.5110 -0.7821
25736SOL    HW278931   6.269   1.434   9.495 -1.4580 -0.4543  0.3446
25737SOL     OW78932   5.685   6.982   0.670 -0.7467  0.1286  0.3282
25737SOL    HW178933   5.772   6.984   0.632 -0.6707 -1.9947  0.2734
25737SOL    HW278934   5.688   7.048   0.740  1.6785 -1.4422  1.8652
25738SOL     OW78935   4.128   7.528   2.596 -0.8913  0.0637  0.8910
25738SOL    HW178936   4.151   7.573   2.678  0.9321 -1.4779  1.3068
25738SOL    HW278937   4.141   7.435   2.616  2.3908 -0.2684 -1.8715
25739SOL     OW78938   1.594   8.182   8.791  0.1164  0.0034 -0.5099
25739SOL    HW178939   1.609   8.116   8.723 -0.1527 -0.6034  0.0027
25739SOL    HW278940   1.670   8.175   8.848 -0.6874 -1.0511  0.4761
25740SOL     OW78941   4.491   3.894   3.107 -0.1878 -0.7561 -0.4387
25740SOL    HW178942   4.569   3.840   3.098 -0.2400 -0.8170 -0.5236
25740SOL    HW278943   4.525   3.984   3.114 -0.1526 -0.6495 -1.6932
25741SOL     OW78944   6.880   6.206   9.093 -0.0037  0.0719  0.0939
25741SOL    HW178945   6.789   6.232   9.080  0.2762  0.1979 -1.8773
25741SOL    HW278946   6.914   6.193   9.005  0.7323 -4.1365  0.8164
25742SOL     OW78947   8.437   3.605   3.291  0.2906  0.1861 -0.1247
25742SOL    HW178948   8.460   3.646   3.208  1.6125  1.7350  0.9365
25742SOL    HW278949   8.520   3.573   3.327 -0.3914 -1.3020  0.1863
25743SOL     OW78950   0.133   3.248   7.556 -0.2222  0.1392  0.2246
25743SOL    HW178951   0.139   3.242   7.651  0.7122  1.4518  0.2798
25743SOL    HW278952   0.197   3.315   7.532  0.9990 -1.4969 -1.5111
25744SOL     OW78953   7.662   4.876   6.225 -0.3437  0.1669  0.7434
25744SOL    HW178954   7.658   4.969   6.202 -0.2045 -0.2382 -1.0188
25744SOL    HW278955   7.576   4.842   6.201  0.2437 -0.5353 -0.4452
25745SOL     OW78956   8.259   7.901   7.265 -0.3709  0.6672 -0.1459
25745SOL    HW178957   8.215   7.820   7.292  0.2633  0.1269 -0.7295
25745SOL    HW278958   8.277   7.946   7.348  2.2097 -1.3137  0.4931
25746SOL     OW78959   5.199   4.272   1.240  0.2460 -0.2333 -0.5648
25746SOL    HW178960   5.157   4.246   1.322  1.6527 -0.7561  0.0168
25746SOL    HW278961   5.215   4.190   1.194 -0.3637  0.0437 -1.2871
25747SOL     OW78962   6.714   4.563   2.133 -0.1541  0.3863 -0.1593
25747SOL    HW178963   6.748   4.652   2.122  0.2998  0.0827 -1.3170
25747SOL    HW278964   6.670   4.565   2.218  1.0268  1.3489  0.4659
25748SOL     OW78965   4.875   7.295   7.974 -0.7052  0.1527  0.6173
25748SOL    HW178966   4.784   7.322   7.973 -0.6858  0.2483 -0.4640
25748SOL    HW278967   4.922   7.367   7.931 -0.4152 -0.7613 -0.6824
25749SOL     OW78968   3.168   5.711   2.334  0.2890 -0.0235  0.3089
25749SOL    HW178969   3.110   5.656   2.281 -0.3632  0.1797  0.8027
25749SOL    HW278970   3.217   5.648   2.388 -0.6409 -0.1270  1.0610
25750SOL     OW78971   2.600   6.781   0.092 -0.6952 -0.4431  0.4723
25750SOL    HW178972   2.544   6.798   0.017 -0.6969 -2.2851 -0.0015
25750SOL    HW278973   2.541   6.786   0.168 -0.9961  0.0111  0.2069
25751SOL     OW78974   7.861   6.504   9.062 -0.6159 -0.0561 -0.1616
25751SOL    HW178975   7.860   6.593   9.099 -0.7437  0.3258 -1.0559
25751SOL    HW278976   7.823   6.514   8.975  1.0661 -0.6634 -0.9988
25752SOL     OW78977   5.798   2.278   7.503 -0.2791 -0.3380 -0.1898
25752SOL    HW178978   5.826   2.298   7.592 -0.6961 -1.6211  0.2541
25752SOL    HW278979   5.848   2.200   7.479 -0.0931  0.0584 -1.1296
25753SOL     OW78980   3.745   9.465   8.489  0.0467  0.0152  0.7862
25753SOL    HW178981   3.653   9.489   8.501 -0.3465  1.3587 -3.3060
25753SOL    HW278982   3.788   9.546   8.463  1.6535 -1.2046 -0.5690
25754SOL     OW78983   5.341   5.465   0.978 -0.2137 -0.0783  0.7045
25754SOL    HW178984   5.269   5.526   0.964 -2.1325 -2.5016 -1.1906
25754SOL    HW278985   5.380   5.454   0.891  0.7409 -0.7611  1.2025
25755SOL     OW78986   5.717   1.841   5.511  0.1902 -0.0968 -0.4401
25755SOL    HW178987   5.763   1.813   5.590  1.3815 -0.2805 -1.1727
25755SOL    HW278988   5.687   1.930   5.531  2.6620  0.8476 -0.6175
25756SOL     OW78989   2.861   5.196   1.324  0.2651  0.1534  0.2371
25756SOL    HW178990   2.830   5.122   1.272 -0.4889 -0.8316  1.9936
25756SOL    HW278991   2.796   5.264   1.311  1.4004  0.9036 -2.0753
25757SOL     OW78992   4.807   2.715   8.643  0.6451 -0.0643  0.0337
25757SOL    HW178993   4.776   2.792   8.595  1.3037  0.8808  1.0699
25757SOL    HW278994   4.748   2.644   8.616 -0.1940  0.8809 -0.6844
25758SOL     OW78995   4.651   1.606   2.005 -0.0175  0.0468  0.6088
25758SOL    HW178996   4.578   1.546   2.020 -0.9440  1.0935  0.4324
25758SOL    HW278997   4.625   1.658   1.929  1.3719 -0.2369 -0.1029
25759SOL     OW78998   6.362   4.968   1.861  0.7714 -0.5122  0.2493
25759SOL    HW178999   6.324   4.883   1.840 -0.5387  0.5369 -2.0801
25759SOL    HW279000   6.451   4.949   1.890  0.1620 -2.7203  0.7879
25760SOL     OW79001   7.665   9.568   2.334  0.1536 -0.0534  0.1438
25760SOL    HW179002   7.635   9.496   2.389  0.9865 -0.0702  0.5884
25760SOL    HW279003   7.702   9.632   2.395 -0.3696  0.6522 -0.2635
25761SOL     OW79004   2.400   3.624   6.028 -0.1198  0.1086  0.2245
25761SOL    HW179005   2.479   3.596   5.980 -0.8824 -0.1554 -0.9239
25761SOL    HW279006   2.336   3.641   5.959 -0.5458  2.0230  1.0528
25762SOL     OW79007   5.330   1.331   2.768  0.2604  0.3081 -0.3090
25762SOL    HW179008   5.242   1.367   2.763  0.1971  0.2083  0.0400
25762SOL    HW279009   5.388   1.407   2.765  0.1935  0.3281 -1.2865
25763SOL     OW79010   9.463   3.875   9.481  0.0008 -0.2530  0.3227
25763SOL    HW179011   9.485   3.889   9.573  0.7935 -1.5045  0.3467
25763SOL    HW279012   9.498   3.952   9.436  1.0448 -0.3769  0.8801
25764SOL     OW79013   6.905   0.544   3.360 -0.3966 -0.0833 -0.1555
25764SOL    HW179014   6.862   0.608   3.417 -1.3994  0.6782 -1.7107
25764SOL    HW279015   6.968   0.596   3.310 -1.7228 -0.1221 -1.9444
25765SOL     OW79016   5.704   2.311   3.276  0.2090 -0.1808 -0.2699
25765SOL    HW179017   5.784   2.353   3.244  1.5785 -2.1012  0.4320
25765SOL    HW279018   5.701   2.228   3.229 -0.6280 -0.7334  0.7237
25766SOL     OW79019   1.964   5.121   3.284 -0.1165 -0.0890  0.2522
25766SOL    HW179020   2.040   5.162   3.243  0.3196  0.5867  1.6619
25766SOL    HW279021   1.965   5.031   3.251  0.5509  0.2528 -0.7183
25767SOL     OW79022   5.025   7.628   6.859  0.0622  0.1939 -0.6314
25767SOL    HW179023   4.958   7.695   6.876  1.0103  1.1556 -0.6136
25767SOL    HW279024   5.014   7.565   6.930  0.2071  1.1796  0.3030
25768SOL     OW79025   8.521   3.963   6.581 -0.1294  0.0922 -0.5442
25768SOL    HW179026   8.529   3.920   6.666  0.1219 -0.3590 -0.7952
25768SOL    HW279027   8.504   4.055   6.602  2.8395  0.5990  0.0318
25769SOL     OW79028   3.632   2.046   0.360 -0.0612  0.0425 -0.3668
25769SOL    HW179029   3.638   2.009   0.272 -0.3399  2.1471 -1.3352
25769SOL    HW279030   3.654   2.138   0.348  0.7341  0.1963  1.9353
25770SOL     OW79031   5.897   0.218   5.685 -0.8439 -0.8171  0.4801
25770SOL    HW179032   5.884   0.267   5.604  0.9300 -0.9133  0.0922
25770SOL    HW279033   5.866   0.277   5.754  1.3305  0.9837  0.0361
25771SOL     OW79034   5.736   3.944   4.681 -0.3100  0.3545 -0.4794
25771SOL    HW179035   5.696   3.936   4.767 -0.3815 -0.4166 -0.5777
25771SOL    HW279036   5.759   3.854   4.656 -1.6569  0.3607 -1.9067
25772SOL     OW79037   2.385   2.561   8.416 -0.5583 -0.6175 -0.4440
25772SOL    HW179038   2.305   2.594   8.456 -0.7181 -1.0264 -0.4135
25772SOL    HW279039   2.430   2.638   8.383  0.0943 -0.1388  1.4372
25773SOL     OW79040   4.139   5.290   2.543 -0.1001  0.2991  0.3233
25773SOL    HW179041   4.089   5.360   2.503 -1.2337 -1.1106 -0.8246
25773SOL    HW279042   4.166   5.325   2.628  1.4647  2.9741 -1.1438
25774SOL     OW79043   7.876   4.467   9.137 -0.1363 -0.3872 -0.2126
25774SOL    HW179044   7.821   4.458   9.059 -0.8754 -1.0072  0.3683
25774SOL    HW279045   7.904   4.558   9.137 -0.0461 -0.4029 -1.2561
25775SOL     OW79046   4.757   0.531   2.281 -0.3995  0.0451 -0.7116
25775SOL    HW179047   4.792   0.486   2.357 -1.5877 -0.9220 -0.7234
25775SOL    HW279048   4.725   0.461   2.224 -0.7370  0.8223 -1.4983
25776SOL     OW79049   4.638   6.547   7.635 -0.2450  0.0567  0.1442
25776SOL    HW179050   4.559   6.497   7.657 -0.0739  0.0346  0.7263
25776SOL    HW279051   4.604   6.632   7.606 -0.4685  0.3307  1.1551
25777SOL     OW79052   3.324   6.461   4.628 -0.0445 -0.4284 -0.1131
25777SOL    HW179053   3.347   6.510   4.549 -0.3506 -0.2177 -0.0740
25777SOL    HW279054   3.255   6.401   4.600 -1.3119  0.7620  0.3282
25778SOL     OW79055   3.657   4.207   5.513 -0.0258  0.0043  0.0404
25778SOL    HW179056   3.636   4.124   5.470  1.0535 -0.9134  1.2050
25778SOL    HW279057   3.750   4.221   5.493  0.5050 -0.4591  2.0327
25779SOL     OW79058   3.479   7.432   4.368 -0.1699 -0.0319 -0.0687
25779SOL    HW179059   3.542   7.366   4.340 -2.7996 -2.0229 -1.7255
25779SOL    HW279060   3.453   7.404   4.456  0.0517 -0.1374 -0.0354
25780SOL     OW79061   2.739   8.913   5.285  0.3855 -0.7333  0.9388
25780SOL    HW179062   2.778   8.994   5.318 -0.9399  0.1152  0.4897
25780SOL    HW279063   2.761   8.912   5.192 -0.7352 -0.1691  0.6476
25781SOL     OW79064   7.707   6.013   7.226 -0.1109 -0.5377  0.1691
25781SOL    HW179065   7.759   5.933   7.220  1.0022 -0.1590  3.0833
25781SOL    HW279066   7.771   6.084   7.224 -0.8019  0.1090  0.5859
25782SOL     OW79067   7.601   3.587   5.731  0.2161 -0.3257  0.1067
25782SOL    HW179068   7.581   3.494   5.722 -0.4444 -0.2505  0.6732
25782SOL    HW279069   7.573   3.625   5.648  0.5279 -0.6316 -0.1439
25783SOL     OW79070   2.065   8.105   3.010  0.1565 -0.6264 -0.4973
25783SOL    HW179071   2.010   8.182   3.021  0.0557 -0.3420 -2.5560
25783SOL    HW279072   2.133   8.114   3.076 -0.3095  0.8121 -0.1847
25784SOL     OW79073   5.577   5.021   2.163 -0.8487  0.4218  0.5017
25784SOL    HW179074   5.645   5.081   2.133  1.4115 -1.7653  0.9304
25784SOL    HW279075   5.624   4.947   2.201 -3.4880 -1.0651  1.1901
25785SOL     OW79076   9.340   7.633   4.534  0.2092 -0.2607 -0.5041
25785SOL    HW179077   9.249   7.650   4.560  0.0755 -0.7995 -0.6101
25785SOL    HW279078   9.352   7.539   4.548  2.2744  0.4562  4.3389
25786SOL     OW79079   2.150   4.575   3.697  0.2862  0.4501  0.2574
25786SOL    HW179080   2.135   4.656   3.745  1.2548  0.9742 -0.2882
25786SOL    HW279081   2.170   4.604   3.608 -1.5910 -0.4914 -0.5220
25787SOL     OW79082   8.083   6.765   6.590  0.3505  0.2719  0.0538
25787SOL    HW179083   8.002   6.728   6.556  0.8777 -2.0868  1.1820
25787SOL    HW279084   8.068   6.773   6.685  1.3646 -0.1007  0.2632
25788SOL     OW79085   1.052   1.058   4.887  0.1626 -0.4044 -0.3024
25788SOL    HW179086   1.008   0.986   4.932 -1.6599 -0.1637 -1.5571
25788SOL    HW279087   0.982   1.099   4.835  1.2573  1.9678 -0.0004
25789SOL     OW79088   1.891   8.601   4.556  0.1759 -0.0489 -0.0312
25789SOL    HW179089   1.869   8.641   4.472  0.6071 -0.2258 -0.2341
25789SOL    HW279090   1.858   8.511   4.548 -0.7226  0.2318  0.3937
25790SOL     OW79091   5.334   5.466   1.267 -0.5950  0.4457  0.2217
25790SOL    HW179092   5.416   5.421   1.287  0.3525  1.6956 -0.6628
25790SOL    HW279093   5.341   5.488   1.174 -1.3029  1.7919  0.4636
25791SOL     OW79094   8.200   8.829   8.396  0.4709 -0.2951  0.0544
25791SOL    HW179095   8.294   8.812   8.403  0.5429  0.2847  0.5839
25791SOL    HW279096   8.190   8.870   8.310  0.7281 -0.1944  0.0712
25792SOL     OW79097   4.374   4.867   9.195  0.1525 -0.8449  0.4166
25792SOL    HW179098   4.398   4.954   9.164  0.2527 -0.5404  1.3142
25792SOL    HW279099   4.318   4.884   9.271  0.7322 -1.5608  1.0175
25793SOL     OW79100   5.380   6.464   1.088  0.1331 -0.1432 -0.4513
25793SOL    HW179101   5.293   6.443   1.056 -0.6691  1.6639  0.4040
25793SOL    HW279102   5.369   6.477   1.182  1.5558 -0.9643 -0.1399
25794SOL     OW79103   4.226   0.842   1.829 -0.2334  0.1469  0.2316
25794SOL    HW179104   4.176   0.761   1.814 -0.9523  0.5625  0.3537
25794SOL    HW279105   4.298   0.838   1.766 -0.8253 -0.1201 -0.4385
25795SOL     OW79106   2.122   1.069   1.364 -0.7281  0.0817 -0.1335
25795SOL    HW179107   2.040   1.097   1.322 -0.2213  0.9222 -0.5928
25795SOL    HW279108   2.190   1.094   1.302 -0.0514  0.2422  0.6601
25796SOL     OW79109   1.469   7.250   8.382 -0.4991  0.2108 -0.0072
25796SOL    HW179110   1.558   7.235   8.417 -1.1096  1.0747  2.0947
25796SOL    HW279111   1.475   7.334   8.337 -0.3833  0.6230  0.7490
25797SOL     OW79112   0.985   5.455   4.240  0.0553 -0.0018 -0.0459
25797SOL    HW179113   0.924   5.404   4.293 -1.6228  2.5852  0.6872
25797SOL    HW279114   1.071   5.421   4.264 -0.8436 -1.0614  1.9459
25798SOL     OW79115   5.431   6.125   3.214  0.4231  0.0803 -0.5452
25798SOL    HW179116   5.487   6.050   3.198  0.6870 -0.2872  1.7220
25798SOL    HW279117   5.343   6.088   3.221  0.4066  0.1216 -0.5294
25799SOL     OW79118   1.293   6.239   4.404  0.1493 -0.6419 -0.1068
25799SOL    HW179119   1.256   6.302   4.465  2.3869 -0.2107  0.9251
25799SOL    HW279120   1.342   6.292   4.341 -0.8942 -1.1800 -1.4165
25800SOL     OW79121   5.218   9.363   2.442  0.5357  0.3054  0.5860
25800SOL    HW179122   5.248   9.407   2.362 -1.9261 -0.6383 -0.9501
25800SOL    HW279123   5.132   9.400   2.459  0.0043 -1.2237  1.4170
25801SOL     OW79124   9.177   0.454   4.538  0.0329 -0.3459 -0.4156
25801SOL    HW179125   9.189   0.401   4.617 -0.4767  1.2471  0.7765
25801SOL    HW279126   9.221   0.537   4.558 -1.0110  0.4680 -1.3945
25802SOL     OW79127   6.395   7.885   0.975  0.5039 -0.0237 -0.3407
25802SOL    HW179128   6.487   7.887   0.948  0.1906 -0.4183 -1.5042
25802SOL    HW279129   6.398   7.864   1.068  1.5678 -0.6057 -0.4856
25803SOL     OW79130   9.584   7.009   7.755 -0.3380 -0.3178 -0.4462
25803SOL    HW179131   9.622   7.097   7.757 -2.9100  0.8676 -0.1944
25803SOL    HW279132   9.585   6.984   7.663  0.5900 -0.1591 -0.4929
25804SOL     OW79133   2.578   7.048   5.193 -0.3672 -0.0452  0.7054
25804SOL    HW179134   2.500   7.065   5.246 -0.5094  0.0052  0.4805
25804SOL    HW279135   2.626   7.131   5.194 -0.1929 -0.1454  1.0419
25805SOL     OW79136   1.399   8.279   5.783 -0.0564  0.6213 -0.5687
25805SOL    HW179137   1.472   8.235   5.827 -0.7346 -0.0453 -0.0895
25805SOL    HW279138   1.422   8.279   5.691  0.3836  0.0957 -0.4613
25806SOL     OW79139   4.260   0.907   8.454 -0.1167 -0.3619  0.0674
25806SOL    HW179140   4.225   0.933   8.540  0.1278  1.9187 -0.4374
25806SOL    HW279141   4.310   0.984   8.425  2.3208 -2.1518 -0.8278
25807SOL     OW79142   2.915   5.797   1.387 -0.6577 -0.6466  0.2611
25807SOL    HW179143   2.974   5.838   1.450  1.6810 -0.4977 -1.8462
25807SOL    HW279144   2.860   5.869   1.355  0.6754  0.0794 -0.4851
25808SOL     OW79145   1.437   9.027   8.185 -0.4033  0.4834 -0.1135
25808SOL    HW179146   1.505   9.030   8.118 -0.1427  1.4007  0.1833
25808SOL    HW279147   1.468   8.961   8.247 -0.5658 -0.2509 -0.8036
25809SOL     OW79148   5.127   8.429   9.210 -0.7680 -0.5588  0.0737
25809SOL    HW179149   5.110   8.519   9.183 -0.3231 -1.1722 -2.5078
25809SOL    HW279150   5.041   8.386   9.207 -0.7470 -0.5821 -0.1969
25810SOL     OW79151   5.891   7.608   8.398 -0.0428 -0.0771 -0.4655
25810SOL    HW179152   5.965   7.656   8.361 -0.0111 -0.2231 -0.5929
25810SOL    HW279153   5.877   7.535   8.337 -1.0182  0.5855 -1.0644
25811SOL     OW79154   5.435   8.308   6.066  0.2263 -0.5973  0.2946
25811SOL    HW179155   5.505   8.283   6.126 -0.2378 -0.4484  0.9177
25811SOL    HW279156   5.469   8.288   5.979 -0.3438 -4.0659  0.7228
25812SOL     OW79157   7.096   1.147   6.449 -1.0100  0.3266  0.8348
25812SOL    HW179158   7.072   1.194   6.529  1.0744  1.0213  1.1158
25812SOL    HW279159   7.108   1.215   6.384  1.6987  0.2916  1.1557
25813SOL     OW79160   7.473   7.049   8.895  0.0711 -0.4133  0.7143
25813SOL    HW179161   7.519   6.967   8.910 -1.2437 -1.4774 -0.6872
25813SOL    HW279162   7.422   7.063   8.975  0.2760 -0.9803  0.9487
25814SOL     OW79163   5.111   2.167   4.088  0.3231  0.4296 -0.2714
25814SOL    HW179164   5.177   2.230   4.057  1.1326 -0.3761 -0.2351
25814SOL    HW279165   5.038   2.221   4.117  0.3563  1.2987 -1.6899
25815SOL     OW79166   6.715   4.429   3.421  0.1754  0.2116  0.0616
25815SOL    HW179167   6.741   4.519   3.402  0.4353  0.2740  0.6973
25815SOL    HW279168   6.671   4.434   3.505 -0.6054 -0.1244 -0.3204
25816SOL     OW79169   6.848   4.532   5.234 -0.0270 -0.2329  0.9472
25816SOL    HW179170   6.820   4.440   5.230 -0.7426 -0.0441  1.6571
25816SOL    HW279171   6.767   4.582   5.233  0.3282  0.3614  1.6358
25817SOL     OW79172   0.811   6.707   5.960  0.0234  0.1764  0.7726
25817SOL    HW179173   0.729   6.713   6.008  0.1640  1.3231  0.8818
25817SOL    HW279174   0.839   6.616   5.972 -1.2491 -0.2489  0.6778
25818SOL     OW79175   6.153   6.496   8.534 -0.3380  0.2717 -0.0459
25818SOL    HW179176   6.157   6.460   8.622  3.1730 -0.3983 -0.3707
25818SOL    HW279177   6.204   6.577   8.539  2.2634 -1.1052 -1.9117
25819SOL     OW79178   0.110   8.823   4.008  0.5243  1.0683 -0.0061
25819SOL    HW179179   0.127   8.876   3.931 -0.9406 -0.6726 -1.6092
25819SOL    HW279180   0.190   8.772   4.020 -0.0290 -0.3570 -1.8786
25820SOL     OW79181   1.805   2.222   1.079  0.8643  0.8415 -0.2349
25820SOL    HW179182   1.767   2.301   1.117 -1.3434 -0.0301 -0.5053
25820SOL    HW279183   1.810   2.242   0.985 -1.0477  0.2009 -0.5133
25821SOL     OW79184   8.748   6.939   2.739 -0.3518 -0.0262 -0.1363
25821SOL    HW179185   8.662   6.969   2.713 -0.6646  0.3340  1.2181
25821SOL    HW279186   8.734   6.894   2.823  0.5688 -1.2362 -0.5849
25822SOL     OW79187   3.488   2.506   4.359  0.2667 -0.6666 -0.3281
25822SOL    HW179188   3.448   2.524   4.274  0.1233  1.9609  0.2163
25822SOL    HW279189   3.416   2.477   4.414 -0.2711  0.7491 -0.2655
25823SOL     OW79190   0.156   0.275   0.126 -0.3537  0.0595  0.0169
25823SOL    HW179191   0.236   0.267   0.075  0.7082  1.6512  1.3454
25823SOL    HW279192   0.095   0.213   0.085  1.6132 -1.3815 -0.8544
25824SOL     OW79193   3.713   9.669   6.288  0.0553  0.2268 -0.5113
25824SOL    HW179194   3.774   9.678   6.361  0.4813 -1.4297 -0.6179
25824SOL    HW279195   3.671   9.584   6.302 -0.3618  0.1912 -1.8117
25825SOL     OW79196   7.326   1.334   4.104 -0.2338 -0.5946 -0.3629
25825SOL    HW179197   7.259   1.300   4.045  1.0715 -3.3593 -0.3795
25825SOL    HW279198   7.278   1.365   4.180 -1.8816  2.1304 -2.2904
25826SOL     OW79199   9.299   6.465   8.698  0.5816  0.3488 -0.3721
25826SOL    HW179200   9.299   6.560   8.688  1.1311  0.3841 -0.0690
25826SOL    HW279201   9.331   6.450   8.787  1.3917 -0.1413 -0.7280
25827SOL     OW79202   0.037   0.865   6.376  0.4312  0.1014 -0.0700
25827SOL    HW179203   0.109   0.802   6.373 -0.3231 -0.7434 -0.9304
25827SOL    HW279204   0.022   0.889   6.285  1.3015  2.2760  0.2781
25828SOL     OW79205   8.510   0.831   7.377 -0.1734  0.2976  0.7538
25828SOL    HW179206   8.565   0.823   7.299  0.5604 -1.1085  1.3874
25828SOL    HW279207   8.431   0.874   7.345  0.9400  1.6156 -0.3408
25829SOL     OW79208   4.187   0.433   5.945  0.0573  0.0463  0.1712
25829SOL    HW179209   4.132   0.498   5.899  0.8083  0.2827 -0.4090
25829SOL    HW279210   4.189   0.464   6.035 -0.2739  0.3773  0.0702
25830SOL     OW79211   5.519   1.438   1.864  0.4522  0.1893  0.9770
25830SOL    HW179212   5.611   1.419   1.882  0.6793 -0.3751 -0.5823
25830SOL    HW279213   5.475   1.354   1.871  0.7121 -0.2586 -1.7271
25831SOL     OW79214   7.694   2.065   8.844 -0.0786 -1.0424 -0.1794
25831SOL    HW179215   7.630   2.118   8.797 -1.5456 -3.3628 -0.9755
25831SOL    HW279216   7.678   2.083   8.937  0.1748  0.6340 -0.4438
25832SOL     OW79217   5.324   5.982   6.476  0.1206  0.0026 -0.1417
25832SOL    HW179218   5.403   5.928   6.484  0.6013  0.9546  2.5993
25832SOL    HW279219   5.293   5.965   6.387  1.4932 -2.9939 -0.1878
25833SOL     OW79220   6.940   6.306   3.902 -0.5873  0.7065  0.0795
25833SOL    HW179221   6.935   6.235   3.839 -0.0044 -0.3079  1.1359
25833SOL    HW279222   6.889   6.377   3.863  1.1213  0.7410 -2.3064
25834SOL     OW79223   6.232   3.531   6.816 -0.4192 -0.4654 -0.4981
25834SOL    HW179224   6.138   3.523   6.833 -0.0366 -0.6171  1.8730
25834SOL    HW279225   6.269   3.448   6.847  0.9777  1.3324  3.3135
25835SOL     OW79226   7.509   4.038   3.286  0.0690  0.5014 -0.3385
25835SOL    HW179227   7.558   4.120   3.283 -0.4574  0.8537  0.3863
25835SOL    HW279228   7.420   4.065   3.309 -0.5472 -0.0872 -1.8541
25836SOL     OW79229   4.697   7.533   9.059  0.8461  0.6754  0.4665
25836SOL    HW179230   4.753   7.492   9.125  0.0449 -2.7798 -0.7919
25836SOL    HW279231   4.695   7.471   8.987  0.3719  3.5574 -2.2188
25837SOL     OW79232   2.305   7.639   2.925 -0.2986 -0.2428 -0.0884
25837SOL    HW179233   2.210   7.626   2.935 -0.3735 -3.0848 -2.8373
25837SOL    HW279234   2.344   7.574   2.984 -0.0579  0.4337  0.5061
25838SOL     OW79235   9.215   5.051   4.507 -0.1967  0.5610  0.5025
25838SOL    HW179236   9.183   4.969   4.468  0.2641 -0.4443  2.1761
25838SOL    HW279237   9.177   5.053   4.594  1.7663  0.8843  1.4091
25839SOL     OW79238   2.848   2.165   1.156 -0.0839  0.0879 -0.1686
25839SOL    HW179239   2.775   2.216   1.191  0.9024  1.7791 -0.4482
25839SOL    HW279240   2.879   2.114   1.231 -1.0080 -0.0127  0.1649
25840SOL     OW79241   3.552   6.630   4.715  0.4992  0.7897 -0.0005
25840SOL    HW179242   3.488   6.560   4.709  1.8264 -0.4881  0.1007
25840SOL    HW279243   3.527   6.691   4.646  0.3037 -0.6550 -1.2582
25841SOL     OW79244   8.056   4.148   0.294 -0.3389 -0.0158 -0.0980
25841SOL    HW179245   7.981   4.208   0.295  0.9607  1.7391 -1.3836
25841SOL    HW279246   8.098   4.161   0.379 -0.8915 -0.2311  0.2138
25842SOL     OW79247   0.446   4.556   6.563  0.4081  0.5685  0.0261
25842SOL    HW179248   0.451   4.578   6.655  3.3464 -0.0698  0.1025
25842SOL    HW279249   0.448   4.640   6.518 -0.3763  0.8553  0.5149
25843SOL     OW79250   4.250   1.509   5.145  0.0502 -0.1384  0.7674
25843SOL    HW179251   4.331   1.458   5.141 -0.0481 -0.3201  1.0368
25843SOL    HW279252   4.202   1.485   5.066  0.8588  0.9994 -0.1088
25844SOL     OW79253   3.098   5.558   3.857 -0.2865  0.2490  0.0536
25844SOL    HW179254   3.155   5.482   3.871 -0.4278  0.2713  0.8038
25844SOL    HW279255   3.010   5.521   3.847 -0.2964  0.2849  0.0070
25845SOL     OW79256   4.986   3.319   6.688  0.3229  0.3633 -0.0892
25845SOL    HW179257   5.038   3.257   6.637  1.6411  0.5843  0.9257
25845SOL    HW279258   4.943   3.265   6.754 -1.0246  0.1418 -1.0917
25846SOL     OW79259   2.756   7.514   7.902 -0.3859  0.1321 -0.1007
25846SOL    HW179260   2.822   7.445   7.897  1.0395  1.5204 -2.0048
25846SOL    HW279261   2.673   7.467   7.909  0.4544 -1.8694 -2.0631
25847SOL     OW79262   3.529   3.771   2.532  0.4586  0.4922 -0.0764
25847SOL    HW179263   3.549   3.689   2.577 -0.1186  0.7707  0.7114
25847SOL    HW279264   3.538   3.750   2.439  2.0463 -0.0026  0.1585
25848SOL     OW79265   3.994   7.561   7.589 -1.1017  0.1182 -0.4716
25848SOL    HW179266   3.926   7.617   7.626 -0.8888  0.1956 -0.1940
25848SOL    HW279267   3.949   7.479   7.569 -1.7613  0.8956 -2.3348
25849SOL     OW79268   2.964   0.134   3.382  0.2257 -0.2928  0.6011
25849SOL    HW179269   2.943   0.149   3.289  0.8846 -0.5759  0.4007
25849SOL    HW279270   3.025   0.061   3.381  2.3684  1.3951  1.0278
25850SOL     OW79271   5.478   6.286   1.378 -0.1302 -0.0186  0.1591
25850SOL    HW179272   5.522   6.207   1.412 -0.3079 -0.2152 -0.0621
25850SOL    HW279273   5.388   6.258   1.365 -0.2458  0.2903  0.2972
25851SOL     OW79274   6.880   9.432   0.414  0.0356  0.2766 -0.5174
25851SOL    HW179275   6.837   9.500   0.466  1.2330  0.3523  0.4169
25851SOL    HW279276   6.814   9.363   0.405 -0.5287  0.7063  0.2378
25852SOL     OW79277   1.933   4.664   2.814 -0.1821  0.2945 -0.2207
25852SOL    HW179278   1.933   4.734   2.880 -1.3018  0.4653 -0.3750
25852SOL    HW279279   2.007   4.608   2.838  0.3344  1.1721  0.2899
25853SOL     OW79280   4.382   5.889   7.350 -0.2984 -0.1794 -0.4343
25853SOL    HW179281   4.472   5.904   7.319 -0.3551 -0.4858 -0.7540
25853SOL    HW279282   4.361   5.801   7.321 -0.7941 -0.0164 -0.5849
25854SOL     OW79283   1.563   8.607   3.400  0.6970  0.2207  0.1140
25854SOL    HW179284   1.600   8.628   3.485  1.4037 -2.7437  0.6412
25854SOL    HW279285   1.499   8.538   3.417 -1.9974  2.1347 -1.3591
25855SOL     OW79286   5.176   6.016   8.214  0.4477 -0.0751  0.1038
25855SOL    HW179287   5.250   6.047   8.266  0.1920  1.5212 -0.4243
25855SOL    HW279288   5.112   6.087   8.218  0.1801 -0.1467 -1.8782
25856SOL     OW79289   5.383   3.237   9.533 -0.6098 -0.1459  0.1141
25856SOL    HW179290   5.388   3.186   9.452  0.5386  0.6496 -0.3337
25856SOL    HW279291   5.458   3.208   9.585  0.2913  1.3318 -0.3126
25857SOL     OW79292   4.210   0.682   0.252  0.2768 -0.4307  0.4927
25857SOL    HW179293   4.119   0.689   0.226  0.3902 -1.4842 -0.2591
25857SOL    HW279294   4.226   0.587   0.259  0.6434 -0.2558  3.0671
25858SOL     OW79295   3.017   3.696   4.512  0.3942  0.2572 -0.1240
25858SOL    HW179296   2.945   3.726   4.566  0.5157  1.2260 -0.4904
25858SOL    HW279297   2.977   3.669   4.430  0.4094  0.4762 -0.2036
25859SOL     OW79298   6.941   1.197   4.758 -0.1361 -0.3368  0.4972
25859SOL    HW179299   6.987   1.115   4.776  1.2175 -0.1728 -1.8415
25859SOL    HW279300   6.896   1.181   4.675  0.9222  1.5608 -0.4916
25860SOL     OW79301   1.321   3.480   5.826  0.6464  0.1638  0.2261
25860SOL    HW179302   1.322   3.482   5.731 -1.0607 -0.4075  0.1660
25860SOL    HW279303   1.409   3.508   5.852  1.2026  0.1063 -1.5065
25861SOL     OW79304   7.338   6.919   5.171 -0.4795  0.1116  0.7584
25861SOL    HW179305   7.264   6.939   5.228  0.2938  0.0482  1.8099
25861SOL    HW279306   7.391   6.999   5.170  0.0212 -0.2132  0.9244
25862SOL     OW79307   8.065   2.534   7.624 -0.4197 -0.6488 -0.5705
25862SOL    HW179308   8.010   2.529   7.546 -2.1471 -3.3798  0.6576
25862SOL    HW279309   8.020   2.597   7.681  0.1390  0.3627 -1.2137
25863SOL     OW79310   5.840   2.775   7.854 -0.0413 -0.6938 -0.3475
25863SOL    HW179311   5.762   2.729   7.884  0.3563  0.0343  2.0830
25863SOL    HW279312   5.811   2.827   7.779 -0.6470 -4.2065 -2.7764
25864SOL     OW79313   0.744   2.062   7.137  0.0006 -0.1592 -0.0847
25864SOL    HW179314   0.702   2.135   7.182  2.6352  1.9899 -0.8217
25864SOL    HW279315   0.793   2.103   7.066  1.9229 -2.6042 -0.3002
25865SOL     OW79316   1.863   8.832   2.811 -0.3096 -0.1688  0.2363
25865SOL    HW179317   1.858   8.854   2.904  0.1313 -0.5386  0.3548
25865SOL    HW279318   1.935   8.886   2.778  1.1292 -1.7498  0.6440
25866SOL     OW79319   6.522   2.617   3.543  0.0392  0.0460 -0.2571
25866SOL    HW179320   6.482   2.703   3.527  0.3480  0.0885 -0.8084
25866SOL    HW279321   6.457   2.554   3.514  0.2187  0.1097 -0.7964
25867SOL     OW79322   6.590   5.922   5.368 -0.2907  0.4943 -0.7576
25867SOL    HW179323   6.573   5.911   5.462  0.9002  2.3374 -0.2599
25867SOL    HW279324   6.522   5.983   5.339  0.5505  1.5493 -0.5860
25868SOL     OW79325   1.185   6.780   3.154  0.1662 -0.0426  0.0195
25868SOL    HW179326   1.278   6.763   3.139  0.8574  1.5686  1.9280
25868SOL    HW279327   1.146   6.781   3.067  1.5211 -2.6929 -0.6991
25869SOL     OW79328   2.875   1.027   5.725  0.0527 -0.0581 -0.2825
25869SOL    HW179329   2.906   1.057   5.639  2.8562 -0.4894  0.4563
25869SOL    HW279330   2.952   0.985   5.764 -2.1177 -3.2731  0.9785
25870SOL     OW79331   0.378   2.550   7.457  0.4617  0.4858  0.6988
25870SOL    HW179332   0.294   2.593   7.471  0.0946 -0.6641  2.2849
25870SOL    HW279333   0.376   2.473   7.514  2.5169  0.3403  0.6679
25871SOL     OW79334   6.820   6.428   4.586 -0.3275  0.5818  0.0250
25871SOL    HW179335   6.888   6.364   4.566 -2.6500 -2.3075  0.6037
25871SOL    HW279336   6.792   6.462   4.501  1.3383  1.3572 -0.2512
25872SOL     OW79337   8.629   4.636   9.052 -0.5075  0.0696  0.5693
25872SOL    HW179338   8.622   4.565   9.115 -0.2124 -1.2400 -0.8022
25872SOL    HW279339   8.704   4.611   8.997 -1.9378  0.1078 -1.5126
25873SOL     OW79340   2.831   7.424   3.245 -0.0493 -0.2394 -0.7905
25873SOL    HW179341   2.815   7.478   3.322 -2.2990  1.1819 -2.1278
25873SOL    HW279342   2.746   7.384   3.226  0.4515 -0.5896 -2.4616
25874SOL     OW79343   4.546   2.698   0.965  0.2546 -0.4867  0.1056
25874SOL    HW179344   4.557   2.783   0.923  0.0346  0.1877  1.3631
25874SOL    HW279345   4.478   2.654   0.913 -2.2699  1.5298  1.4735
25875SOL     OW79346   3.541   2.982   6.475  0.9012  0.3195  0.1811
25875SOL    HW179347   3.527   2.888   6.483  0.9238  0.3111  0.1261
25875SOL    HW279348   3.631   2.990   6.443  1.2142  0.3903  1.0472
25876SOL     OW79349   7.915   9.074   0.343  0.1185 -0.1919  0.1726
25876SOL    HW179350   7.881   9.018   0.273 -0.3570 -0.4290  0.5828
25876SOL    HW279351   8.008   9.084   0.323  0.3402 -1.5965  0.3951
25877SOL     OW79352   0.516   5.214   2.098  0.0290 -0.4261  0.7639
25877SOL    HW179353   0.493   5.147   2.163 -1.7672 -0.4285  0.1926
25877SOL    HW279354   0.442   5.215   2.037 -0.3920  2.5665  1.1532
25878SOL     OW79355   5.542   5.278   6.398 -0.1785 -0.0154 -0.0913
25878SOL    HW179356   5.464   5.236   6.433  0.0594 -0.1370  0.3012
25878SOL    HW279357   5.614   5.244   6.451  0.1862 -0.1716 -0.6779
25879SOL     OW79358   2.111   3.395   4.248 -0.0803  0.7659  0.2063
25879SOL    HW179359   2.052   3.380   4.322 -1.7076  1.6681 -0.8248
25879SOL    HW279360   2.092   3.485   4.221  1.7082  1.0279 -0.2600
25880SOL     OW79361   2.414   3.551   0.242 -0.1795 -0.9576 -0.3832
25880SOL    HW179362   2.422   3.460   0.268  0.6845 -0.6724  0.4147
25880SOL    HW279363   2.497   3.591   0.269 -0.2100 -0.1167 -1.4715
25881SOL     OW79364   4.391   7.550   4.926  0.1148 -0.1787 -0.0244
25881SOL    HW179365   4.376   7.539   4.832  0.5473  1.1215 -0.2736
25881SOL    HW279366   4.322   7.610   4.954  1.2554  1.1978  0.0052
25882SOL     OW79367   3.023   5.816   3.390  0.1397 -0.1663 -0.2654
25882SOL    HW179368   3.064   5.823   3.304  1.3234 -0.9326  0.2000
25882SOL    HW279369   3.094   5.834   3.452 -0.4724 -0.5152  0.5608
25883SOL     OW79370   0.509   2.246   6.678 -0.1915 -0.1756  0.0228
25883SOL    HW179371   0.564   2.287   6.612 -0.0328  1.8271  1.3185
25883SOL    HW279372   0.557   2.168   6.705 -1.3848 -2.5281 -3.8647
25884SOL     OW79373   7.497   7.899   2.837 -0.0234  0.6753 -0.2339
25884SOL    HW179374   7.432   7.906   2.907  1.1074  0.8811  0.8360
25884SOL    HW279375   7.535   7.812   2.847  0.4922  0.8922 -0.2811
25885SOL     OW79376   1.960   7.948   7.532 -0.2408 -0.4803  0.2118
25885SOL    HW179377   1.993   8.016   7.473  1.2926  0.3920  1.9947
25885SOL    HW279378   1.865   7.958   7.529 -0.2544 -0.5429 -2.1462
25886SOL     OW79379   7.506   6.937   0.079 -0.0853  0.3764 -0.0259
25886SOL    HW179380   7.503   6.942  -0.016 -1.5716 -1.1814 -0.1219
25886SOL    HW279381   7.414   6.943   0.106  0.0554 -1.4867  1.0919
25887SOL     OW79382   9.256   1.468   2.789 -0.2840 -0.2590  0.9299
25887SOL    HW179383   9.313   1.401   2.750 -1.5161 -1.3585  0.9261
25887SOL    HW279384   9.189   1.418   2.837 -0.9586  0.9873  1.3460
25888SOL     OW79385   4.909   4.919   3.538  0.0618  0.1713 -0.0847
25888SOL    HW179386   4.938   5.007   3.515 -0.9200  0.4713 -0.2164
25888SOL    HW279387   4.880   4.881   3.455  1.8374 -0.8319 -0.2971
25889SOL     OW79388   1.718   9.326   4.639 -0.4304 -0.2153 -0.1452
25889SOL    HW179389   1.690   9.405   4.685 -1.6785 -0.9511  0.3940
25889SOL    HW279390   1.642   9.269   4.639 -0.4421 -0.3448 -3.0098
25890SOL     OW79391   5.981   1.706   8.183  0.6089  0.0944 -0.4386
25890SOL    HW179392   6.017   1.795   8.189  1.7265 -0.4272  1.5385
25890SOL    HW279393   5.893   1.713   8.219  0.1216  0.6485 -1.6832
25891SOL     OW79394   9.066   7.941   7.486  0.2938  0.2009  0.2766
25891SOL    HW179395   9.030   7.908   7.404 -0.3103 -1.6621  1.2256
25891SOL    HW279396   9.039   8.033   7.489  1.1922  0.6035 -2.0432
25892SOL     OW79397   5.374   3.679   5.805 -0.2409  0.0081  0.1907
25892SOL    HW179398   5.458   3.689   5.850  1.2690 -1.6245 -2.0058
25892SOL    HW279399   5.395   3.690   5.712 -2.0212 -2.3201 -0.6063
25893SOL     OW79400   8.611   1.068   7.859 -0.2402  0.1998 -0.1233
25893SOL    HW179401   8.641   1.047   7.948  0.0436  0.3569 -0.1800
25893SOL    HW279402   8.602   1.164   7.860  0.4091  0.2705 -0.4610
25894SOL     OW79403   6.197   8.190   5.217  0.5502  0.0146  0.5129
25894SOL    HW179404   6.292   8.181   5.227  0.6485  0.6692  0.1890
25894SOL    HW279405   6.161   8.125   5.277  1.1971  0.3983  1.3384
25895SOL     OW79406   3.284   0.826   2.418 -0.1558  0.0410  0.0871
25895SOL    HW179407   3.324   0.910   2.398  1.5052 -0.9517 -1.1328
25895SOL    HW279408   3.272   0.785   2.332 -4.6535  0.5293  0.2598
25896SOL     OW79409   3.385   4.072   8.851 -0.5312  0.4406 -0.2971
25896SOL    HW179410   3.313   4.010   8.842 -1.6743  1.0315  3.2021
25896SOL    HW279411   3.462   4.018   8.871 -0.5922 -0.0200 -1.2422
25897SOL     OW79412   4.139   7.692   4.107 -0.7361 -0.2207 -0.2312
25897SOL    HW179413   4.150   7.599   4.128  1.9241  0.0190 -0.2689
25897SOL    HW279414   4.116   7.733   4.191  0.3861 -0.6120  0.2874
25898SOL     OW79415   2.547   8.841   0.612  0.0875 -0.1052  0.3489
25898SOL    HW179416   2.503   8.756   0.621  0.5118 -0.2199  1.4014
25898SOL    HW279417   2.543   8.880   0.699  1.6503  0.0919  0.3525
25899SOL     OW79418   1.346   7.067   6.628  0.2694 -0.6216 -0.0985
25899SOL    HW179419   1.312   7.132   6.566 -0.4357 -0.7857  0.1030
25899SOL    HW279420   1.273   7.006   6.641  0.8655 -1.3477 -0.1379
25900SOL     OW79421   5.220   2.694   0.491 -0.0405  0.1180  0.2710
25900SOL    HW179422   5.184   2.616   0.448 -0.8182  1.0508 -0.8338
25900SOL    HW279423   5.258   2.661   0.572  1.2444 -1.6741 -0.9775
25901SOL     OW79424   5.526   5.976   7.627  0.3938 -0.4585 -0.4140
25901SOL    HW179425   5.564   6.035   7.563  1.8466 -0.0883  0.7580
25901SOL    HW279426   5.491   5.904   7.574  0.5813  0.3519 -1.6893
25902SOL     OW79427   2.065   7.585   6.478  0.3756 -0.0422 -0.6146
25902SOL    HW179428   1.998   7.583   6.546  0.4423 -1.5193 -0.5658
25902SOL    HW279429   2.143   7.551   6.521  0.5975 -0.3245 -1.2422
25903SOL     OW79430   4.955   6.937   2.077 -0.0165  0.3152  0.3902
25903SOL    HW179431   5.017   7.001   2.111 -0.5695  1.2284 -0.2693
25903SOL    HW279432   5.010   6.868   2.039  0.5944 -0.1153  1.9672
25904SOL     OW79433   5.146   7.075   9.118  0.2808  0.4743  0.5245
25904SOL    HW179434   5.149   6.988   9.157  0.6475 -0.0111 -0.5557
25904SOL    HW279435   5.052   7.095   9.112  0.0181 -1.0232 -1.6829
25905SOL     OW79436   4.197   5.196   5.984  0.1892  0.0899 -1.0026
25905SOL    HW179437   4.166   5.286   5.983  0.7104  0.3781  1.6174
25905SOL    HW279438   4.272   5.195   5.924  0.8541  1.7005 -0.2421
25906SOL     OW79439   5.948   3.459   3.243 -0.3809  0.2089  0.4486
25906SOL    HW179440   5.958   3.365   3.232  0.2118  0.4308 -1.2591
25906SOL    HW279441   5.944   3.472   3.338  0.9077 -1.3977  0.7656
25907SOL     OW79442   6.612   0.175   7.267  0.2285 -0.0447  0.3600
25907SOL    HW179443   6.535   0.131   7.303 -0.5276 -0.5383 -1.7771
25907SOL    HW279444   6.676   0.105   7.253  0.3464  0.0799  0.2742
25908SOL     OW79445   5.304   1.916   8.389 -0.5165  0.5241 -0.2384
25908SOL    HW179446   5.374   1.981   8.378  0.4972 -0.0465  2.2427
25908SOL    HW279447   5.235   1.945   8.330  1.2757  1.8521 -1.8135
25909SOL     OW79448   9.590   6.854   0.703 -0.2496 -0.1098  0.1270
25909SOL    HW179449   9.521   6.839   0.767 -1.9124  1.7701 -1.0932
25909SOL    HW279450   9.606   6.769   0.663 -0.5680 -0.9137  1.6454
25910SOL     OW79451   3.834   4.478   4.397  0.2023  0.1878 -0.2054
25910SOL    HW179452   3.818   4.573   4.393 -0.9967 -0.0231 -1.0216
25910SOL    HW279453   3.756   4.439   4.359 -0.0250 -1.2155  1.5511
25911SOL     OW79454   1.403   7.793   5.953 -0.4511  0.4257  0.4154
25911SOL    HW179455   1.452   7.842   6.020 -1.8547  1.4239  0.7636
25911SOL    HW279456   1.470   7.759   5.894  0.6846  1.3544  1.1329
25912SOL     OW79457   1.274   9.563   9.176 -0.2031  0.5304 -0.2703
25912SOL    HW179458   1.238   9.494   9.121 -2.0431  1.9517 -0.9854
25912SOL    HW279459   1.349   9.596   9.128 -0.3244  0.1294 -0.7422
25913SOL     OW79460   9.426   4.551   5.340  0.5143  0.0468 -0.1103
25913SOL    HW179461   9.334   4.553   5.314  0.5439  1.4837 -0.1710
25913SOL    HW279462   9.473   4.527   5.260  0.2193 -0.6551 -0.0891
25914SOL     OW79463   6.332   0.360   6.254 -0.2477  0.3125  0.4320
25914SOL    HW179464   6.246   0.402   6.256 -0.1330  0.5792 -0.1139
25914SOL    HW279465   6.327   0.293   6.322 -1.2257 -0.3503 -0.2737
25915SOL     OW79466   4.867   4.254   8.019 -0.3068 -0.1681  0.0293
25915SOL    HW179467   4.802   4.188   8.042 -0.5267 -0.2662 -0.8380
25915SOL    HW279468   4.871   4.251   7.924 -0.2394  0.9983 -0.0139
25916SOL     OW79469   8.701   9.099   4.419  0.1020  0.3488 -0.0208
25916SOL    HW179470   8.783   9.132   4.457  1.6866 -2.8299 -0.3541
25916SOL    HW279471   8.700   9.134   4.330  0.9481  0.6701  0.0886
25917SOL     OW79472   5.246   5.476   3.536 -0.2988  0.2049 -0.2200
25917SOL    HW179473   5.166   5.473   3.589  0.3962 -2.2931  0.8395
25917SOL    HW279474   5.314   5.505   3.598  0.3814 -2.0122  0.1471
25918SOL     OW79475   4.330   5.042   8.393 -0.6187 -0.0502 -0.4816
25918SOL    HW179476   4.398   5.097   8.431  0.3707 -0.7366 -1.2012
25918SOL    HW279477   4.283   5.006   8.469 -0.0060  0.2260  0.0349
25919SOL     OW79478   0.387   0.494   9.053  0.0715  0.8752 -0.3320
25919SOL    HW179479   0.399   0.416   9.000  0.0288  0.3360  0.4335
25919SOL    HW279480   0.422   0.565   8.999  0.0820  0.3392 -1.0464
25920SOL     OW79481   0.921   3.934   2.616 -0.1607 -0.0306 -0.2159
25920SOL    HW179482   0.859   3.983   2.669 -0.5127  0.7626 -1.3163
25920SOL    HW279483   1.005   3.946   2.660 -0.2064  1.7337 -0.5313
25921SOL     OW79484   9.647   6.647   8.097 -1.2751 -0.0818 -0.5645
25921SOL    HW179485   9.580   6.706   8.131 -0.3781  0.0772  1.0293
25921SOL    HW279486   9.673   6.594   8.173 -0.2064 -0.7291 -1.3511
25922SOL     OW79487   6.148   8.213   1.555 -1.3094  0.3900  0.1029
25922SOL    HW179488   6.162   8.154   1.481 -1.0168  1.2392 -0.5320
25922SOL    HW279489   6.071   8.178   1.599 -0.6205 -0.9918  0.2809
25923SOL     OW79490   2.454   7.913   8.140 -0.2693 -0.0961 -0.4145
25923SOL    HW179491   2.376   7.925   8.086  0.0860  0.9443 -0.7260
25923SOL    HW279492   2.441   7.971   8.215 -0.2817 -0.7415  0.0920
25924SOL     OW79493   1.482   4.038   6.232  0.2039 -0.0874  0.8226
25924SOL    HW179494   1.500   4.056   6.325 -2.2597  0.8145  1.2328
25924SOL    HW279495   1.447   4.121   6.199  0.3480 -0.6162 -0.7166
25925SOL     OW79496   1.965   5.894   8.179 -0.2074  0.1262  0.2115
25925SOL    HW179497   1.946   5.967   8.121  0.5514  0.2998  0.1700
25925SOL    HW279498   1.879   5.861   8.205 -0.5557  0.8114 -0.0412
25926SOL     OW79499   3.225   1.979   8.980  0.1040 -0.2178 -0.2769
25926SOL    HW179500   3.145   2.005   9.025  0.3993 -0.1476  0.2153
25926SOL    HW279501   3.231   2.039   8.906 -2.0475 -2.3027 -2.2910
25927SOL     OW79502   2.336   1.532   6.235 -0.2362 -0.3015 -0.3276
25927SOL    HW179503   2.314   1.621   6.263  1.8874 -0.5945  2.8544
25927SOL    HW279504   2.274   1.476   6.281 -0.4391 -0.5471 -0.8970
25928SOL     OW79505   1.500   7.402   5.015  0.2393 -0.0740 -0.5504
25928SOL    HW179506   1.444   7.424   5.090  0.9321 -1.7410  0.5351
25928SOL    HW279507   1.559   7.477   5.006 -0.3969  0.5141  0.0519
25929SOL     OW79508   7.644   2.852   2.161  0.5339 -0.5150  0.2161
25929SOL    HW179509   7.621   2.840   2.069  0.6320  0.8701 -0.0091
25929SOL    HW279510   7.615   2.771   2.203 -1.1196 -0.4804 -0.7412
25930SOL     OW79511   1.115   3.165   0.347  0.2017  0.0207 -0.9854
25930SOL    HW179512   1.075   3.251   0.360 -0.4204 -0.2310 -1.1874
25930SOL    HW279513   1.155   3.170   0.260  0.2948  0.1495 -0.9361
25931SOL     OW79514   7.986   6.596   8.344 -0.1660  0.0588 -0.1065
25931SOL    HW179515   8.064   6.604   8.288 -0.7547 -0.8281 -1.0908
25931SOL    HW279516   8.017   6.621   8.431  1.1400  0.0623 -0.5414
25932SOL     OW79517   0.367   1.158   4.687 -0.4402 -0.0822 -0.3247
25932SOL    HW179518   0.273   1.154   4.703 -0.5508  0.2153 -0.8700
25932SOL    HW279519   0.394   1.067   4.679 -0.6125 -0.1838  0.1974
25933SOL     OW79520   4.268   7.736   8.621 -0.2917  0.4336  0.3519
25933SOL    HW179521   4.336   7.787   8.664 -1.0921  1.8531 -0.0194
25933SOL    HW279522   4.294   7.735   8.529 -0.0392 -0.2499  0.4220
25934SOL     OW79523   1.831   3.155   4.586 -0.0670 -0.3879 -0.0403
25934SOL    HW179524   1.745   3.136   4.548  0.7168 -1.0331 -1.5856
25934SOL    HW279525   1.812   3.210   4.662 -1.8627 -0.7721 -0.1642
25935SOL     OW79526   6.002   3.918   9.069 -0.2053  0.6506 -0.1413
25935SOL    HW179527   5.916   3.885   9.042 -0.0455  0.3416 -0.2747
25935SOL    HW279528   6.034   3.853   9.132  1.2197 -0.8493 -2.2612
25936SOL     OW79529   0.409   2.113   7.871 -0.2370 -0.4639  0.4068
25936SOL    HW179530   0.498   2.120   7.905 -0.7671  0.5849  1.6938
25936SOL    HW279531   0.389   2.020   7.873  0.3540 -0.5795  1.4447
25937SOL     OW79532   7.208   5.919   6.160  0.5980  0.6108 -0.1454
25937SOL    HW179533   7.293   5.963   6.163  1.4442 -0.9423 -0.4998
25937SOL    HW279534   7.217   5.852   6.092 -1.2985  1.1455 -1.0275
25938SOL     OW79535   3.989   5.546   8.722  0.0347  0.3040 -0.1707
25938SOL    HW179536   4.014   5.584   8.806 -0.6245 -0.8152  0.5495
25938SOL    HW279537   3.927   5.477   8.743  1.7697 -1.7527 -1.3281
25939SOL     OW79538   8.097   7.240   9.196  0.5351  0.3522 -0.0764
25939SOL    HW179539   8.035   7.168   9.205  0.1871  0.6447 -0.1417
25939SOL    HW279540   8.043   7.318   9.184  0.9235  0.5119 -0.8425
25940SOL     OW79541   4.844   4.515   1.425  0.3378  0.0591 -0.0692
25940SOL    HW179542   4.870   4.605   1.444  1.1096 -0.0687 -0.5060
25940SOL    HW279543   4.927   4.467   1.420 -0.0572 -0.6225 -0.0999
25941SOL     OW79544   4.099   3.853   8.561 -0.0574 -0.0504  0.2717
25941SOL    HW179545   4.024   3.856   8.621  0.3013  0.0599  0.7163
25941SOL    HW279546   4.119   3.760   8.554 -0.5895 -0.1303 -0.2975
25942SOL     OW79547   5.297   0.448   5.187  0.1386  0.2389 -0.3807
25942SOL    HW179548   5.243   0.498   5.125 -2.5315 -0.9158  0.8415
25942SOL    HW279549   5.300   0.502   5.266 -2.1805 -1.0726  0.7049
25943SOL     OW79550   7.881   7.368   1.349  0.2679 -0.2101  0.7114
25943SOL    HW179551   7.927   7.433   1.297  0.0004 -0.8992 -0.4414
25943SOL    HW279552   7.933   7.358   1.428  0.2440  1.4763  0.9697
25944SOL     OW79553   5.504   5.387   7.524 -0.8520  0.1007 -0.7518
25944SOL    HW179554   5.430   5.374   7.584 -0.2114  1.3345  0.3371
25944SOL    HW279555   5.581   5.362   7.575 -0.2219  1.9221 -0.7585
25945SOL     OW79556   8.368   4.505   3.415 -0.1920 -0.8236 -0.6977
25945SOL    HW179557   8.296   4.465   3.366  0.1129 -1.6915 -0.4512
25945SOL    HW279558   8.440   4.443   3.405  0.5748  0.1035 -1.0629
25946SOL     OW79559   1.718   1.728   1.632  0.8059 -0.4522  0.2267
25946SOL    HW179560   1.693   1.648   1.679  0.7232 -0.6566 -0.1626
25946SOL    HW279561   1.753   1.786   1.700 -0.7671 -0.1319  0.8071
25947SOL     OW79562   8.022   1.632   5.174 -0.2968  0.5315 -0.4201
25947SOL    HW179563   8.084   1.706   5.171 -0.0856  0.3192 -1.8721
25947SOL    HW279564   7.952   1.657   5.113 -0.1917 -0.4830 -0.9724
25948SOL     OW79565   6.719   9.557   6.759 -0.3126 -0.0444  0.2607
25948SOL    HW179566   6.761   9.523   6.838 -0.8404  0.5825  0.8197
25948SOL    HW279567   6.636   9.511   6.754 -1.1428  1.2898  1.1582
25949SOL     OW79568   2.662   0.854   7.982 -0.2842  0.0853 -0.2902
25949SOL    HW179569   2.720   0.797   7.931 -1.4918  0.1275 -1.7665
25949SOL    HW279570   2.627   0.916   7.918  0.0724  1.7641  1.0675
25950SOL     OW79571   8.102   6.080   3.519 -0.1628  0.3070  0.3327
25950SOL    HW179572   8.039   6.071   3.447  1.5837 -1.5215 -1.1109
25950SOL    HW279573   8.066   6.024   3.588 -0.6573  0.1152 -0.0654
25951SOL     OW79574   0.385   8.143   9.419  0.1016 -0.0604  0.0976
25951SOL    HW179575   0.428   8.194   9.350 -0.2709  0.5735  0.3278
25951SOL    HW279576   0.303   8.114   9.379  0.1918 -0.2619  0.0554
25952SOL     OW79577   8.594   6.613   0.437 -0.1762 -0.0054 -0.4098
25952SOL    HW179578   8.538   6.555   0.488  0.7088  0.3377  1.0367
25952SOL    HW279579   8.683   6.582   0.456  0.1744  0.1135 -1.8069
25953SOL     OW79580   7.148   9.522   4.035  0.2709 -0.0124  0.1823
25953SOL    HW179581   7.232   9.510   4.079  0.5169  2.6541  0.6585
25953SOL    HW279582   7.144   9.616   4.017 -1.1267 -0.5345 -2.9347
25954SOL     OW79583   2.712   8.896   2.547  0.0518 -0.0114 -0.2433
25954SOL    HW179584   2.694   8.820   2.603 -1.4727  1.6374  1.6254
25954SOL    HW279585   2.806   8.889   2.528  0.5417 -0.9185  2.1421
25955SOL     OW79586   7.936   3.138   4.090  0.7147 -0.2044 -0.0599
25955SOL    HW179587   7.903   3.049   4.082 -2.0652  0.3276  3.1572
25955SOL    HW279588   7.901   3.184   4.014  0.2814 -1.3610 -0.5834
25956SOL     OW79589   7.580   2.554   4.628 -0.6022  0.4503 -0.6097
25956SOL    HW179590   7.676   2.549   4.628 -0.6456 -2.4156 -0.0923
25956SOL    HW279591   7.554   2.505   4.549 -1.6398 -0.1526  0.0880
25957SOL     OW79592   7.313   0.562   6.463  0.0927  0.4810  0.6710
25957SOL    HW179593   7.338   0.648   6.428  1.6441 -0.9173 -2.0285
25957SOL    HW279594   7.279   0.580   6.551  1.2776  3.7126  0.5909
25958SOL     OW79595   3.966   0.151   0.445 -0.5874 -0.0360  0.0165
25958SOL    HW179596   4.054   0.147   0.480 -0.9195  0.9686  1.0330
25958SOL    HW279597   3.978   0.152   0.350  0.4567 -0.3924  0.1362
25959SOL     OW79598   1.821   3.351   9.216  0.0350  0.1340 -0.1112
25959SOL    HW179599   1.797   3.444   9.206 -0.2219  0.0052 -0.7327
25959SOL    HW279600   1.798   3.311   9.133  1.4003 -0.2319 -0.3331
25960SOL     OW79601   6.154   2.636   4.709 -0.4730 -0.0155  0.4082
25960SOL    HW179602   6.068   2.631   4.666 -1.5451 -2.1493  2.5704
25960SOL    HW279603   6.214   2.595   4.646 -1.2345  0.4103 -0.6335
25961SOL     OW79604   1.392   6.547   7.732 -0.4264 -0.2728 -0.3016
25961SOL    HW179605   1.410   6.616   7.796 -1.0393  0.8826 -1.3180
25961SOL    HW279606   1.332   6.487   7.777 -0.3684  0.1869  0.3989
25962SOL     OW79607   8.628   4.047   8.697  0.6494 -0.1019 -0.1638
25962SOL    HW179608   8.556   4.076   8.640  2.2867 -0.8493 -2.7630
25962SOL    HW279609   8.618   3.952   8.702  1.6905 -0.2736 -0.9753
25963SOL     OW79610   4.584   3.176   0.360 -0.6711 -0.2610  0.8659
25963SOL    HW179611   4.571   3.249   0.300 -1.4348 -2.1371 -1.4146
25963SOL    HW279612   4.678   3.170   0.371 -0.5633  0.5819  0.4627
25964SOL     OW79613   8.800   0.705   3.042 -0.0854 -0.4823 -0.1695
25964SOL    HW179614   8.732   0.763   3.076  0.4785  0.7906 -1.1407
25964SOL    HW279615   8.882   0.752   3.058  0.2350  0.0905 -2.9843
25965SOL     OW79616   7.167   2.289   8.825  0.4201  0.4313 -0.6129
25965SOL    HW179617   7.243   2.338   8.858  0.8659 -0.3998 -0.3853
25965SOL    HW279618   7.094   2.350   8.835  0.9610  1.0501 -0.3239
25966SOL     OW79619   4.374   1.479   3.434 -0.4860  0.2275  0.1730
25966SOL    HW179620   4.443   1.431   3.388  0.3362  0.6207  0.9626
25966SOL    HW279621   4.360   1.558   3.381  0.4716  0.6901  0.5826
25967SOL     OW79622   8.778   3.489   2.268 -0.2064  0.0831 -0.2493
25967SOL    HW179623   8.761   3.559   2.331 -1.3299  0.4533 -0.9242
25967SOL    HW279624   8.856   3.445   2.301 -0.1732  0.9084  0.8336
25968SOL     OW79625   6.950   5.545   0.995 -0.0786 -0.1621 -0.3317
25968SOL    HW179626   6.968   5.539   0.901 -0.1656  0.3334 -0.3866
25968SOL    HW279627   6.857   5.568   0.999  0.1911  0.9705 -0.1655
25969SOL     OW79628   4.592   6.645   0.388 -0.0825  0.2155 -0.3765
25969SOL    HW179629   4.535   6.721   0.394  1.0790  1.0815  0.2952
25969SOL    HW279630   4.550   6.578   0.442  0.6285  1.6045  2.0652
25970SOL     OW79631   6.989   3.381   6.625 -0.2566  0.5023  0.5484
25970SOL    HW179632   7.079   3.359   6.647 -0.0140  0.6340 -0.2989
25970SOL    HW279633   6.936   3.323   6.681  0.3506 -0.1391  0.4718
25971SOL     OW79634   3.971   5.991   6.115  0.5840 -0.7395  0.0417
25971SOL    HW179635   3.972   5.896   6.119 -1.1712 -0.7607  0.7445
25971SOL    HW279636   3.887   6.016   6.153  0.6370  1.0580 -0.9180
25972SOL     OW79637   6.279   6.728   8.532  0.4174  0.3790  0.0606
25972SOL    HW179638   6.353   6.788   8.540  1.2734 -0.5339 -0.7680
25972SOL    HW279639   6.213   6.776   8.482 -0.6214  2.1240  2.8527
25973SOL     OW79640   0.891   6.764   8.472 -0.4481 -0.3650 -0.3499
25973SOL    HW179641   0.946   6.831   8.511 -0.0345 -0.7716 -0.2232
25973SOL    HW279642   0.952   6.696   8.443 -0.7230  0.0474 -1.9764
25974SOL     OW79643   7.555   2.469   2.907  0.0821 -0.4408 -0.7491
25974SOL    HW179644   7.608   2.530   2.856  0.2332 -0.2005 -0.3154
25974SOL    HW279645   7.593   2.473   2.995 -2.6828  2.2754  0.4924
25975SOL     OW79646   6.273   8.544   9.325  0.2880 -0.2965 -0.4097
25975SOL    HW179647   6.271   8.608   9.253 -0.0906  0.3000  0.1163
25975SOL    HW279648   6.188   8.501   9.320  0.1779 -0.1071 -0.1937
25976SOL     OW79649   5.442   3.277   5.236 -1.0880 -0.8590  0.0856
25976SOL    HW179650   5.454   3.365   5.272 -0.1414 -1.0410  0.2189
25976SOL    HW279651   5.470   3.218   5.306  0.1116 -1.2327 -0.6890
25977SOL     OW79652   6.077   4.513   8.036 -0.0574 -0.1537 -0.1567
25977SOL    HW179653   5.982   4.501   8.043  0.0209  0.0711  1.8879
25977SOL    HW279654   6.106   4.443   7.977 -1.0935 -2.4350  1.8877
25978SOL     OW79655   4.926   3.845   0.643 -0.2713  0.0917  0.7240
25978SOL    HW179656   5.020   3.849   0.628 -0.4337 -0.3264 -0.5180
25978SOL    HW279657   4.899   3.937   0.651  0.0951  0.2772 -0.0152
25979SOL     OW79658   3.004   2.419   6.289  0.2675 -0.1651 -0.3499
25979SOL    HW179659   2.925   2.471   6.275  0.6844  0.7318  0.4450
25979SOL    HW279660   3.020   2.426   6.384  1.1787 -0.5049 -0.4721
25980SOL     OW79661   7.591   6.105   2.744 -0.5493 -0.2276  0.1753
25980SOL    HW179662   7.650   6.178   2.727  0.2049 -0.6413  0.9377
25980SOL    HW279663   7.648   6.035   2.777 -1.0197 -1.6793 -1.9114
25981SOL     OW79664   0.129   2.162   3.924  0.3793 -0.0487 -0.1740
25981SOL    HW179665   0.165   2.075   3.907 -0.7775 -0.5515 -0.1248
25981SOL    HW279666   0.199   2.208   3.971  1.3714 -0.6043 -1.0705
25982SOL     OW79667   2.714   4.638   5.018 -0.1805  0.4173 -0.1042
25982SOL    HW179668   2.673   4.571   4.963  1.0491  0.1883 -0.7819
25982SOL    HW279669   2.721   4.715   4.961  0.2260  0.4819  0.0276
25983SOL     OW79670   1.357   2.815   2.971 -0.1811  0.0300 -0.3281
25983SOL    HW179671   1.320   2.898   2.998  1.6444  1.5271 -2.0956
25983SOL    HW279672   1.282   2.766   2.935 -1.2265  0.9893  0.4746
25984SOL     OW79673   6.155   0.091   9.436  0.1482  0.1846  0.2548
25984SOL    HW179674   6.140   0.123   9.347 -0.8636 -1.2681 -0.1519
25984SOL    HW279675   6.206   0.159   9.478  0.3960  1.0468 -1.3518
25985SOL     OW79676   2.687   3.374   4.388 -0.2806 -0.3776 -0.0709
25985SOL    HW179677   2.594   3.353   4.394 -0.0696 -1.6229 -0.8091
25985SOL    HW279678   2.703   3.387   4.295 -0.1119  1.8998  0.2277
25986SOL     OW79679   3.819   4.955   4.675 -0.2284  0.2042  0.5616
25986SOL    HW179680   3.762   4.897   4.725  1.6033 -0.4837  1.9571
25986SOL    HW279681   3.838   4.907   4.595  0.4954 -0.7379  1.2781
25987SOL     OW79682   7.242   7.504   7.952 -0.5921  0.6105  0.3646
25987SOL    HW179683   7.293   7.460   8.020  0.7259  0.7196 -0.5173
25987SOL    HW279684   7.194   7.573   7.998  1.3278  1.5776  1.0262
25988SOL     OW79685   6.694   5.687   1.264 -0.3401  0.2277  0.4744
25988SOL    HW179686   6.675   5.780   1.250 -0.9420 -0.0504 -0.6811
25988SOL    HW279687   6.701   5.678   1.359  3.2082  2.1037  0.5700
25989SOL     OW79688   4.079   0.375   0.737 -0.4394 -0.3193 -0.3858
25989SOL    HW179689   3.986   0.399   0.740 -0.0535  1.4693 -1.3000
25989SOL    HW279690   4.123   0.444   0.787  0.3806 -1.3755  0.3943
25990SOL     OW79691   6.646   8.821   8.072 -0.5616 -0.2083  0.0822
25990SOL    HW179692   6.610   8.885   8.133 -0.2141 -0.2573  0.3427
25990SOL    HW279693   6.598   8.740   8.091 -0.8534 -0.0819 -0.1044
25991SOL     OW79694   6.894   1.303   5.972  0.4636  0.4718 -0.4708
25991SOL    HW179695   6.874   1.221   5.927  0.3568 -0.1119  0.6003
25991SOL    HW279696   6.840   1.369   5.928  0.4538 -0.0528 -1.2595
25992SOL     OW79697   9.660   6.353   8.894 -0.0054 -0.0084 -0.3605
25992SOL    HW179698   9.726   6.328   8.830  0.1397 -1.0214  0.1687
25992SOL    HW279699   9.688   6.439   8.925  0.9827 -0.3680 -0.2401
25993SOL     OW79700   3.413   8.896   7.664 -0.2193  0.3929 -0.7935
25993SOL    HW179701   3.460   8.812   7.658 -0.0160  0.6123 -2.6915
25993SOL    HW279702   3.415   8.931   7.575 -1.4705  1.7957 -0.2996
25994SOL     OW79703   9.272   5.694   1.650 -0.4566 -0.8012  0.1656
25994SOL    HW179704   9.288   5.676   1.743  1.2143  1.2551  0.3436
25994SOL    HW279705   9.212   5.769   1.650  2.1434  1.4098 -0.2645
25995SOL     OW79706   1.499   5.448   7.303 -0.4695  0.2933  0.1787
25995SOL    HW179707   1.479   5.407   7.387  0.2598 -0.5491 -0.0418
25995SOL    HW279708   1.578   5.403   7.273  0.9355  2.4549  0.3484
25996SOL     OW79709   3.220   6.102   0.345 -0.2678  0.4429 -0.5136
25996SOL    HW179710   3.163   6.135   0.414 -1.9586  0.7381 -1.9814
25996SOL    HW279711   3.294   6.162   0.343 -0.2077  0.4452  0.9822
25997SOL     OW79712   6.071   9.167   6.344  0.0074 -0.0281  0.3313
25997SOL    HW179713   5.985   9.197   6.314 -0.6665 -0.4148  1.7733
25997SOL    HW279714   6.093   9.227   6.415  1.3533  0.6050 -0.5875
25998SOL     OW79715   1.522   5.289   0.940 -0.2546 -0.1055  0.0841
25998SOL    HW179716   1.495   5.364   0.993 -0.7686 -0.7738  0.7940
25998SOL    HW279717   1.463   5.289   0.865  0.6784  1.0352 -0.6861
25999SOL     OW79718   3.212   5.774   8.634 -0.0262 -0.3925 -0.1279
25999SOL    HW179719   3.247   5.823   8.560 -2.1239  0.0955 -0.8624
25999SOL    HW279720   3.274   5.701   8.646  0.5649 -0.2849 -2.1178
26000SOL     OW79721   6.015   6.632   2.946 -0.4947 -0.1434  0.6567
26000SOL    HW179722   5.926   6.668   2.942 -0.0303  0.9464 -0.9637
26000SOL    HW279723   6.016   6.564   2.879 -0.3612 -0.8192  1.3323
26001SOL     OW79724   7.775   8.685   8.944 -0.0210  0.1346  0.4292
26001SOL    HW179725   7.765   8.590   8.951  0.4985  0.0728  0.4249
26001SOL    HW279726   7.858   8.696   8.897 -1.0298  0.5762 -1.3322
26002SOL     OW79727   3.707   4.811   8.012 -0.2135 -0.5230 -0.0495
26002SOL    HW179728   3.713   4.777   8.101  0.0325 -0.1156  0.0896
26002SOL    HW279729   3.694   4.905   8.022 -1.8214 -0.6736 -0.4121
26003SOL     OW79730   0.626   2.075   0.618 -0.8670  0.0417 -0.6439
26003SOL    HW179731   0.632   1.985   0.650  1.0769  0.2726 -0.2607
26003SOL    HW279732   0.717   2.102   0.604 -1.3547  2.2269  0.0535
26004SOL     OW79733   8.262   0.293   2.875  0.3486  0.7834  0.7644
26004SOL    HW179734   8.266   0.225   2.942  2.5631  1.4471  1.3936
26004SOL    HW279735   8.246   0.245   2.794 -0.5784 -0.2105  1.5013
26005SOL     OW79736   5.664   5.138   7.903  0.1235 -0.2042 -0.1936
26005SOL    HW179737   5.669   5.042   7.904  1.2506 -0.1551  0.9185
26005SOL    HW279738   5.602   5.160   7.972 -0.1863 -0.1311 -0.4933
26006SOL     OW79739   6.964   2.183   4.242 -0.3137  0.3186  0.3783
26006SOL    HW179740   6.966   2.273   4.209 -1.3001  0.6643  1.2156
26006SOL    HW279741   6.910   2.187   4.321 -0.5582 -1.0465  0.3124
26007SOL     OW79742   1.500   3.375   4.960 -0.0040 -0.3666 -0.4242
26007SOL    HW179743   1.420   3.322   4.960  1.2174 -2.3254 -1.6508
26007SOL    HW279744   1.478   3.451   4.906 -1.1851 -0.5885 -0.2884
26008SOL     OW79745   4.650   4.161   8.469  0.2625 -0.1372 -0.1528
26008SOL    HW179746   4.703   4.240   8.456  1.9139 -1.0455  0.7720
26008SOL    HW279747   4.608   4.145   8.384  1.8590  0.3474 -1.0564
26009SOL     OW79748   6.099   4.585   0.127  0.1995 -0.0740  0.5638
26009SOL    HW179749   6.141   4.532   0.195  0.0607 -0.7861  0.1100
26009SOL    HW279750   6.069   4.521   0.062 -1.4237  0.4085  0.7725
26010SOL     OW79751   2.810   1.239   0.474  0.0358  0.6564 -0.4216
26010SOL    HW179752   2.840   1.227   0.384 -2.2143  0.9325 -1.2665
26010SOL    HW279753   2.755   1.162   0.491  0.3114  0.6895  0.6703
26011SOL     OW79754   6.183   0.194   6.709 -0.0279 -0.3765  0.3001
26011SOL    HW179755   6.091   0.167   6.715 -0.3341  0.6130  0.0857
26011SOL    HW279756   6.191   0.268   6.768  1.3147 -2.1424  2.5412
26012SOL     OW79757   2.534   4.055   1.548 -0.2713  0.1527  1.0662
26012SOL    HW179758   2.618   4.059   1.595 -1.1478 -0.2802  2.7471
26012SOL    HW279759   2.515   4.145   1.524  1.5242  0.0710 -1.0094
26013SOL     OW79760   7.646   0.305   8.209  0.2312 -0.7386 -0.4587
26013SOL    HW179761   7.613   0.340   8.292  0.5588 -1.1977 -0.1318
26013SOL    HW279762   7.675   0.217   8.230  2.2903 -0.1445 -0.5515
26014SOL     OW79763   3.708   9.328   9.011  0.3665 -0.1870  0.5869
26014SOL    HW179764   3.763   9.250   9.006  1.9379  0.9661 -2.0975
26014SOL    HW279765   3.626   9.297   9.050  2.2518 -2.2905  3.2686
26015SOL     OW79766   0.256   4.876   8.126  0.2481 -0.5059  0.6760
26015SOL    HW179767   0.197   4.951   8.114  0.1073 -0.2399  2.7458
26015SOL    HW279768   0.224   4.832   8.204  2.0807 -1.0409  1.1742
26016SOL     OW79769   9.630   1.140   7.644 -0.0203 -0.2305 -0.1575
26016SOL    HW179770   9.715   1.154   7.686 -0.0040  0.7781 -0.4924
26016SOL    HW279771   9.651   1.113   7.555 -0.0465 -0.0940 -0.2056
26017SOL     OW79772   3.099   2.661   9.610  0.1823  0.4885  0.2806
26017SOL    HW179773   3.022   2.652   9.666 -0.1752 -0.0298 -0.2834
26017SOL    HW279774   3.099   2.754   9.585 -1.1758  0.2003 -0.9749
26018SOL     OW79775   1.613   5.288   7.905  0.5837  0.1740  0.6002
26018SOL    HW179776   1.570   5.352   7.961 -1.6690  0.0686 -0.8615
26018SOL    HW279777   1.610   5.206   7.954 -1.3684  0.0791  0.3933
26019SOL     OW79778   5.052   9.443   3.585  0.2746 -0.0986 -0.1957
26019SOL    HW179779   5.137   9.405   3.608  0.1633  0.0129  0.4026
26019SOL    HW279780   5.072   9.534   3.563  0.6133 -0.5981 -2.0955
26020SOL     OW79781   0.570   3.546   0.768  0.4908  1.0015  0.3625
26020SOL    HW179782   0.522   3.595   0.702  0.3423  1.4175  0.7722
26020SOL    HW279783   0.657   3.534   0.730 -0.2175 -0.7283 -0.8604
26021SOL     OW79784   7.500   5.927   7.468  0.3570  0.4359  0.1322
26021SOL    HW179785   7.467   5.991   7.405  0.1324 -0.3166 -0.5366
26021SOL    HW279786   7.555   5.869   7.416 -0.9096 -1.0037  0.3463
26022SOL     OW79787   6.714   1.155   3.997  0.4434  0.1971 -0.5913
26022SOL    HW179788   6.661   1.233   4.013 -0.1521 -0.2871 -0.1641
26022SOL    HW279789   6.771   1.180   3.924  1.9749  1.8547  1.0455
26023SOL     OW79790   7.511   9.301   0.600  0.7981 -0.4380  0.1569
26023SOL    HW179791   7.433   9.349   0.573  1.0873 -0.3311 -0.5247
26023SOL    HW279792   7.519   9.230   0.536  0.4750 -1.3056  1.0469
26024SOL     OW79793   2.404   0.870   6.192  0.6125 -0.5665 -0.1544
26024SOL    HW179794   2.393   0.963   6.176 -0.1787 -0.0672  2.6945
26024SOL    HW279795   2.315   0.833   6.184  0.0505 -0.1895  2.9315
26025SOL     OW79796   8.311   4.397   8.931 -0.3476 -0.0840  0.3028
26025SOL    HW179797   8.370   4.471   8.919 -0.4867  0.4837  2.6209
26025SOL    HW279798   8.347   4.328   8.875  1.1092  0.9880 -0.1482
26026SOL     OW79799   0.276   1.356   6.014  0.2146 -0.1977 -0.4130
26026SOL    HW179800   0.324   1.301   6.076  0.4135 -0.7738 -1.0708
26026SOL    HW279801   0.223   1.414   6.070  0.3352 -0.7509  0.2938
26027SOL     OW79802   4.097   4.310   3.997 -0.1977  0.1899 -0.4622
26027SOL    HW179803   4.053   4.255   4.062 -0.1010  1.5364  0.8065
26027SOL    HW279804   4.043   4.302   3.919 -1.7329  0.4061  0.5182
26028SOL     OW79805   8.812   4.847   2.473 -0.6648  0.2933  0.4995
26028SOL    HW179806   8.868   4.923   2.460  0.8800 -1.0132 -1.0216
26028SOL    HW279807   8.723   4.881   2.465 -0.0199  1.5910 -2.9376
26029SOL     OW79808   3.833   2.650   5.908  0.4213 -0.0612 -0.0906
26029SOL    HW179809   3.805   2.598   5.833  1.2810 -0.1924 -0.3293
26029SOL    HW279810   3.790   2.735   5.897  0.3357 -0.1709 -0.5855
26030SOL     OW79811   8.915   4.684   5.123  0.1792  0.0215  0.1134
26030SOL    HW179812   8.892   4.611   5.065  1.9123 -0.4769 -0.0005
26030SOL    HW279813   9.011   4.687   5.120  0.2009  1.2787  1.3936
26031SOL     OW79814   6.356   8.696   6.180  0.2540 -0.2814 -0.2236
26031SOL    HW179815   6.413   8.758   6.134 -0.3088  0.9089  0.6539
26031SOL    HW279816   6.267   8.721   6.156 -0.0050 -0.3673  0.6154
26032SOL     OW79817   4.012   8.784   8.170  0.0974 -0.4067 -0.3212
26032SOL    HW179818   3.982   8.755   8.084 -0.6110 -0.0704 -0.1973
26032SOL    HW279819   4.106   8.797   8.160 -0.1388  0.6749 -1.3529
26033SOL     OW79820   6.211   1.046   7.811  0.2737  0.1748 -0.1260
26033SOL    HW179821   6.246   1.124   7.768  0.4724 -0.5239 -1.2872
26033SOL    HW279822   6.174   0.995   7.739  0.3170 -0.8880  0.5943
26034SOL     OW79823   7.911   5.261   0.732 -0.4306  0.7387  0.0693
26034SOL    HW179824   7.881   5.341   0.775 -1.7766  0.3288 -0.0331
26034SOL    HW279825   7.866   5.190   0.780 -1.0062  0.2032 -1.2277
26035SOL     OW79826   0.765   8.286   8.613  0.3304 -0.2914 -0.4225
26035SOL    HW179827   0.824   8.231   8.561 -0.6766 -3.4640  1.5276
26035SOL    HW279828   0.679   8.246   8.603 -0.4360  0.8185  1.2750
26036SOL     OW79829   1.410   3.127   5.900  0.3344 -0.0515  0.0839
26036SOL    HW179830   1.332   3.154   5.949  0.1504 -1.0489  0.3662
26036SOL    HW279831   1.481   3.177   5.940 -0.0446  0.2916  0.3411
26037SOL     OW79832   4.352   3.264   2.366 -0.3687 -0.3143  0.0971
26037SOL    HW179833   4.270   3.269   2.415 -0.8165 -1.5636 -0.4941
26037SOL    HW279834   4.419   3.247   2.432 -0.7007 -0.1449  0.4830
26038SOL     OW79835   6.807   5.818   3.162 -0.2099 -0.5804  0.7735
26038SOL    HW179836   6.716   5.792   3.173 -0.3855 -0.7591 -0.8123
26038SOL    HW279837   6.845   5.750   3.106  0.0739  0.9713 -1.0472
26039SOL     OW79838   9.025   6.788   4.271 -0.4190 -0.0797 -0.1296
26039SOL    HW179839   8.940   6.811   4.307  0.3633  0.8950  1.2092
26039SOL    HW279840   9.079   6.768   4.348  1.3947  2.3639 -0.6250
26040SOL     OW79841   0.880   9.384   4.437  0.6896  0.4910 -0.1438
26040SOL    HW179842   0.957   9.418   4.482  0.5360  1.8540 -0.8597
26040SOL    HW279843   0.806   9.417   4.488  0.5360 -1.4568  0.9978
26041SOL     OW79844   7.538   5.165   8.720  0.1604  0.7131  0.3684
26041SOL    HW179845   7.447   5.160   8.689  0.5483 -0.3290 -0.7023
26041SOL    HW279846   7.568   5.251   8.690  0.1079  0.2686 -1.0520
26042SOL     OW79847   8.442   0.943   6.422 -0.7012  0.1096  0.1707
26042SOL    HW179848   8.527   0.981   6.404 -1.5438  1.9114 -0.2460
26042SOL    HW279849   8.432   0.951   6.517  0.0027 -1.0830  0.3629
26043SOL     OW79850   5.105   4.381   4.677  0.3245  0.2715  0.1547
26043SOL    HW179851   5.146   4.295   4.687  1.4064  0.6957 -0.4172
26043SOL    HW279852   5.170   4.433   4.630 -0.1453  1.5273  0.8403
26044SOL     OW79853   6.069   5.077   1.029  0.0623 -0.4549  0.4342
26044SOL    HW179854   6.094   5.067   0.937  1.5245 -2.1471  0.9637
26044SOL    HW279855   6.051   4.988   1.059 -1.1175  0.1479  1.6221
26045SOL     OW79856   7.035   4.354   7.052 -0.2016  0.0517 -0.2504
26045SOL    HW179857   7.033   4.319   7.141  3.0161 -1.0155 -0.4575
26045SOL    HW279858   7.046   4.448   7.064 -0.0949 -0.0474  0.4931
26046SOL     OW79859   0.664   2.939   7.860 -0.3172 -0.7882 -0.0495
26046SOL    HW179860   0.589   2.997   7.873  0.8740  1.2517 -1.6451
26046SOL    HW279861   0.739   2.991   7.889  0.7333 -1.7739 -0.9437
26047SOL     OW79862   8.306   3.453   1.780 -0.3983  0.2191 -0.0688
26047SOL    HW179863   8.231   3.425   1.832  0.9342 -2.8400  0.4788
26047SOL    HW279864   8.303   3.396   1.703  2.8557 -2.2611  1.3907
26048SOL     OW79865   7.751   9.263   6.901  0.4169  0.3910  0.5438
26048SOL    HW179866   7.774   9.226   6.986 -1.2447  0.0240  0.8734
26048SOL    HW279867   7.676   9.210   6.871  1.4857 -0.0588 -1.5533
26049SOL     OW79868   8.418   4.565   3.974 -0.2687  0.2801 -0.0129
26049SOL    HW179869   8.336   4.516   3.986 -0.5280  0.4396 -1.0190
26049SOL    HW279870   8.479   4.501   3.936  0.7501 -0.4067  2.5802
26050SOL     OW79871   8.804   3.553   7.897  0.7253 -0.6550  0.2884
26050SOL    HW179872   8.720   3.518   7.868  0.9773 -1.2809  0.2932
26050SOL    HW279873   8.786   3.591   7.983 -0.0722  1.3681 -0.7027
26051SOL     OW79874   8.598   8.850   5.142  0.5390  0.2653  0.4530
26051SOL    HW179875   8.658   8.800   5.087  0.2481  0.2956  0.1014
26051SOL    HW279876   8.563   8.787   5.204 -0.6362 -0.2237 -0.6635
26052SOL     OW79877   2.080   4.496   4.691 -0.0164 -0.7276  0.2400
26052SOL    HW179878   2.145   4.448   4.640 -2.0822 -1.1450 -2.2367
26052SOL    HW279879   2.020   4.532   4.625 -0.4956  2.4280  2.1785
26053SOL     OW79880   5.874   0.082   8.703 -0.2790  0.1412 -0.1461
26053SOL    HW179881   5.781   0.097   8.689 -0.7444  0.8247  3.0677
26053SOL    HW279882   5.914   0.168   8.695 -0.1281  0.0813 -0.0359
26054SOL     OW79883   5.794   6.633   1.373 -0.2497  0.6376 -0.1510
26054SOL    HW179884   5.839   6.662   1.452  1.2851 -1.5224 -0.1453
26054SOL    HW279885   5.760   6.546   1.395 -1.0493  0.6020 -1.4116
26055SOL     OW79886   1.699   1.910   7.686 -0.6408  0.3536 -0.9388
26055SOL    HW179887   1.660   1.997   7.675  0.0889  1.1753  2.1190
26055SOL    HW279888   1.786   1.917   7.647 -0.2074  1.3697  0.1405
26056SOL     OW79889   0.270   8.019   5.631 -0.1666 -0.1727 -0.4112
26056SOL    HW179890   0.289   8.108   5.600  0.7444 -0.2928 -0.2163
26056SOL    HW279891   0.228   7.976   5.556  0.6637  0.0012 -0.9887
26057SOL     OW79892   9.183   7.404   9.687 -0.3061  0.4793 -0.2421
26057SOL    HW179893   9.123   7.378   9.617  1.5779 -1.4941 -1.2232
26057SOL    HW279894   9.269   7.411   9.644  0.3931  2.2198  1.3026
26058SOL     OW79895   5.343   7.972   1.823 -0.2586 -1.0775 -0.6591
26058SOL    HW179896   5.361   8.058   1.787 -0.3556  0.4486  2.6206
26058SOL    HW279897   5.261   7.982   1.870 -0.3874 -3.0613 -0.3575
26059SOL     OW79898   1.598   7.469   4.359  0.1076  0.0716 -0.0323
26059SOL    HW179899   1.599   7.456   4.264 -0.0397  1.3433 -0.2290
26059SOL    HW279900   1.526   7.530   4.373 -1.6644 -2.1364  1.2078
26060SOL     OW79901   7.201   0.385   6.049 -0.4827 -0.2497  0.8007
26060SOL    HW179902   7.201   0.305   5.996  0.0226  0.3706 -0.1665
26060SOL    HW279903   7.139   0.367   6.120  1.1356 -2.2669  1.8176
26061SOL     OW79904   4.620   5.679   2.253  0.7308  0.0228 -0.3566
26061SOL    HW179905   4.598   5.741   2.322 -0.8515  0.2651 -1.0297
26061SOL    HW279906   4.550   5.690   2.188  1.0606 -1.6334 -1.0420
26062SOL     OW79907   2.977   4.060   7.337  0.0333  0.1097 -0.1721
26062SOL    HW179908   2.903   4.034   7.393  1.2612  0.1777  1.5768
26062SOL    HW279909   2.976   4.156   7.338  0.6096  0.1158  0.5358
26063SOL     OW79910   0.898   2.156   0.876  0.0836  0.0159 -0.1471
26063SOL    HW179911   0.915   2.103   0.798 -1.1242  0.1808 -0.5525
26063SOL    HW279912   0.841   2.101   0.930  0.0840  0.3002  0.1423
26064SOL     OW79913   1.192   1.940   3.755 -0.3237  0.0630 -0.7631
26064SOL    HW179914   1.281   1.954   3.788 -0.6234  1.1644 -0.3515
26064SOL    HW279915   1.203   1.923   3.661  0.2928  0.8053 -0.8385
26065SOL     OW79916   4.519   1.815   7.829  0.1893 -0.2611 -0.8703
26065SOL    HW179917   4.461   1.767   7.888 -1.9437  1.0281 -1.8153
26065SOL    HW279918   4.534   1.899   7.871  0.4814 -0.1635 -1.1577
26066SOL     OW79919   0.558   6.832   6.211  0.2205  0.4189  0.2293
26066SOL    HW179920   0.545   6.855   6.119 -1.2793  0.6709  0.4940
26066SOL    HW279921   0.527   6.742   6.218  0.7108  0.2597  0.4166
26067SOL     OW79922   0.649   4.016   0.584 -0.1009 -0.5875  0.2851
26067SOL    HW179923   0.563   4.056   0.574 -0.6984 -1.9052 -0.0431
26067SOL    HW279924   0.705   4.087   0.615 -1.0014  0.6133 -0.7376
26068SOL     OW79925   5.104   6.839   6.786 -0.4394  0.1324  0.2360
26068SOL    HW179926   5.120   6.926   6.750 -0.8083  0.2907  0.4510
26068SOL    HW279927   5.099   6.853   6.881  2.8208 -0.6049  0.6188
26069SOL     OW79928   9.005   9.058   4.658 -0.3692 -1.1893 -0.3124
26069SOL    HW179929   9.074   9.050   4.724  0.5434 -0.3397 -1.1372
26069SOL    HW279930   9.033   9.130   4.602 -2.5972  0.0936  0.1115
26070SOL     OW79931   4.451   6.661   8.360  0.0396 -0.2795  0.2394
26070SOL    HW179932   4.491   6.682   8.445  0.7297 -0.2393 -0.0812
26070SOL    HW279933   4.363   6.698   8.365  0.9489  2.1360 -0.0302
26071SOL     OW79934   4.220   4.209   0.729 -0.0918 -0.3471  0.0265
26071SOL    HW179935   4.197   4.248   0.813  2.8023 -1.0571  1.2688
26071SOL    HW279936   4.243   4.119   0.750 -1.5232 -1.2497 -1.9549
26072SOL     OW79937   8.150   7.244   1.412  0.3232  0.3861  0.2256
26072SOL    HW179938   8.226   7.197   1.444 -0.1290  0.0450  0.8231
26072SOL    HW279939   8.090   7.246   1.487 -0.1792  0.8050 -0.1800
26073SOL     OW79940   8.974   0.772   6.312  0.4986 -0.5912 -0.2744
26073SOL    HW179941   8.894   0.738   6.273  1.2222 -1.7914 -0.7519
26073SOL    HW279942   9.044   0.744   6.253  1.2091  1.2892 -0.4232
26074SOL     OW79943   5.807   5.439   1.465  0.2294  0.4621 -0.3253
26074SOL    HW179944   5.878   5.414   1.524 -1.0037  1.7831  1.8364
26074SOL    HW279945   5.851   5.458   1.382  2.3768  0.9241  0.8453
26075SOL     OW79946   6.267   3.594   8.494  0.3863 -0.3731  0.1492
26075SOL    HW179947   6.200   3.659   8.514  1.4881  0.5695  0.8589
26075SOL    HW279948   6.241   3.516   8.544  1.2022  0.8151  2.5259
26076SOL     OW79949   4.272   4.337   2.540  0.2041 -0.1552  0.6704
26076SOL    HW179950   4.278   4.428   2.512  1.1054 -0.2383  0.5486
26076SOL    HW279951   4.202   4.336   2.605 -2.1855 -0.0163 -1.7654
26077SOL     OW79952   4.198   5.016   3.343 -0.2706  0.4338  0.7016
26077SOL    HW179953   4.199   5.086   3.277  0.3834 -0.0892  0.1385
26077SOL    HW279954   4.220   5.060   3.425 -0.6371  1.0185  0.4923
26078SOL     OW79955   6.327   6.633   9.667  0.2997  0.7289 -0.2520
26078SOL    HW179956   6.297   6.716   9.630 -1.3972  0.3356  0.1939
26078SOL    HW279957   6.373   6.658   9.747  0.3380  1.2824 -0.4442
26079SOL     OW79958   6.899   8.649   9.538  0.3921 -0.5956  0.3150
26079SOL    HW179959   6.891   8.737   9.501 -1.7843 -0.3843  1.1247
26079SOL    HW279960   6.860   8.591   9.474  0.5334 -0.7992  0.4085
26080SOL     OW79961   1.856   3.360   5.754  0.3392  0.3133  0.3901
26080SOL    HW179962   1.905   3.313   5.687  0.7259  0.5739  0.4883
26080SOL    HW279963   1.921   3.385   5.819 -0.1124 -0.3601  1.1094
26081SOL     OW79964   1.289   3.778   1.882  0.3696  0.2874  0.1911
26081SOL    HW179965   1.255   3.806   1.967 -1.8637  2.8503 -1.3879
26081SOL    HW279966   1.212   3.744   1.835  1.7222 -1.9629 -0.5788
26082SOL     OW79967   4.730   0.682   1.862  0.4546 -0.0594 -0.2505
26082SOL    HW179968   4.640   0.656   1.879  0.3205  1.0553  0.8132
26082SOL    HW279969   4.777   0.661   1.943  1.2947 -1.1419 -0.9793
26083SOL     OW79970   1.559   3.796   8.372 -0.9723  0.3999  0.2798
26083SOL    HW179971   1.497   3.832   8.435  0.9999 -0.1850  2.7340
26083SOL    HW279972   1.635   3.853   8.378 -0.3546 -0.2560 -0.8753
26084SOL     OW79973   0.219   0.174   9.247 -0.4739 -0.1073 -0.1080
26084SOL    HW179974   0.179   0.170   9.334 -0.6216  1.1220 -0.1140
26084SOL    HW279975   0.304   0.215   9.261 -0.7615  0.6853 -0.6277
26085SOL     OW79976   2.710   1.747   4.730 -0.7373  0.1379  0.0901
26085SOL    HW179977   2.768   1.810   4.687  2.2902 -2.3966  0.1039
26085SOL    HW279978   2.701   1.780   4.819 -1.2575  1.7842 -0.5436
26086SOL     OW79979   8.656   1.346   3.538  0.4996  0.3009 -0.3175
26086SOL    HW179980   8.627   1.287   3.607 -0.0072  1.6821  0.6927
26086SOL    HW279981   8.575   1.368   3.491  0.4860  1.0818  0.0503
26087SOL     OW79982   4.148   6.173   4.730 -0.0944 -0.1515 -0.1014
26087SOL    HW179983   4.101   6.214   4.657 -0.5565 -0.8032 -0.1805
26087SOL    HW279984   4.188   6.246   4.777  0.2612  0.2776 -1.0439
26088SOL     OW79985   7.306   4.404   5.414 -0.2048 -0.2311  0.0111
26088SOL    HW179986   7.234   4.465   5.435 -0.8523 -0.8892 -0.2452
26088SOL    HW279987   7.278   4.362   5.333  0.0476 -1.1571  0.3911
26089SOL     OW79988   5.431   3.579   7.805  0.1102 -0.5988  0.6428
26089SOL    HW179989   5.393   3.667   7.801  0.8184 -0.3297 -1.2173
26089SOL    HW279990   5.471   3.567   7.719  1.4484 -2.1118  1.4379
26090SOL     OW79991   0.788   4.937   2.162  1.4565  0.2326 -0.4707
26090SOL    HW179992   0.758   4.848   2.147  2.9755 -0.5913  1.0385
26090SOL    HW279993   0.723   4.974   2.223  1.3352 -0.1617 -0.3559
26091SOL     OW79994   4.939   7.182   3.495 -0.0583  0.2049  0.2152
26091SOL    HW179995   4.866   7.239   3.519  0.8814  1.1360  0.9638
26091SOL    HW279996   4.990   7.173   3.576 -0.2622 -1.8594  0.1808
26092SOL     OW79997   5.555   1.377   1.055 -0.2372 -0.4789 -0.1862
26092SOL    HW179998   5.519   1.325   0.983 -1.6750  0.2415 -0.0115
26092SOL    HW279999   5.486   1.438   1.078 -0.7282 -2.0526  3.2449
26093SOL     OW80000   7.271   9.560   8.164  0.8945  0.1513  0.3548
26093SOL    HW180001   7.331   9.631   8.141  1.5975 -0.2596  0.8902
26093SOL    HW280002   7.327   9.491   8.199  0.1276 -0.3082  0.7086
26094SOL     OW80003   0.803   5.050   3.735 -0.0955 -0.7004  0.0924
26094SOL    HW180004   0.750   5.129   3.722  0.5220 -0.3537 -0.3555
26094SOL    HW280005   0.873   5.078   3.793  0.4283 -0.7812 -0.4949
26095SOL     OW80006   1.238   1.678   8.865 -0.2935  1.3418  0.1036
26095SOL    HW180007   1.151   1.714   8.881 -0.1459  1.9064 -0.3326
26095SOL    HW280008   1.234   1.639   8.778 -0.2761  0.8371  0.3247
26096SOL     OW80009   7.823   5.546   9.159  0.0444  0.1560  0.4665
26096SOL    HW180010   7.858   5.635   9.162  0.5523  0.1697 -2.7696
26096SOL    HW280011   7.896   5.491   9.189  1.0348  0.6014 -1.0262
26097SOL     OW80012   5.892   8.840   7.734  0.9412 -0.1621  0.2165
26097SOL    HW180013   5.934   8.757   7.756  0.5754 -0.3283  0.2975
26097SOL    HW280014   5.942   8.873   7.660  0.3537 -1.0378 -0.5936
26098SOL     OW80015   6.189   2.453   7.710  0.1884  0.1792  0.1938
26098SOL    HW180016   6.210   2.472   7.802  2.6337  0.6471 -0.3756
26098SOL    HW280017   6.186   2.539   7.668  0.0060 -0.0784 -0.3309
26099SOL     OW80018   5.083   9.481   5.977 -0.3655  0.4942 -0.2599
26099SOL    HW180019   5.174   9.460   5.959  0.2291  0.9648  1.8895
26099SOL    HW280020   5.039   9.396   5.986 -0.0268  0.2617 -0.8047
26100SOL     OW80021   8.400   6.815   9.263 -0.2320 -0.4539  0.0087
26100SOL    HW180022   8.399   6.720   9.251 -1.1140 -0.4982  0.4226
26100SOL    HW280023   8.319   6.846   9.223 -0.3554  0.0367  0.6236
26101SOL     OW80024   0.850   5.191   0.617 -0.5063 -0.2208  0.3830
26101SOL    HW180025   0.877   5.279   0.592 -0.4371 -0.5091 -0.5879
26101SOL    HW280026   0.906   5.133   0.565 -0.5350 -0.8387  1.0273
26102SOL     OW80027   5.949   8.952   3.253  0.3266  0.2808 -0.8582
26102SOL    HW180028   5.875   9.013   3.248  0.7173  0.8128 -0.3737
26102SOL    HW280029   5.968   8.946   3.347 -0.0700 -1.0467 -0.8473
26103SOL     OW80030   6.058   8.597   3.068 -0.0182 -0.4340 -0.2942
26103SOL    HW180031   6.103   8.531   3.016 -1.3835  0.3144 -2.5646
26103SOL    HW280032   6.092   8.681   3.036 -0.2875  0.0524  0.6324
26104SOL     OW80033   5.196   0.637   9.214  0.0992 -0.0652 -0.2696
26104SOL    HW180034   5.226   0.592   9.294  0.8348 -1.8351 -1.4683
26104SOL    HW280035   5.104   0.611   9.206 -0.2845  0.9960  0.5558
26105SOL     OW80036   9.203   5.206   9.120 -0.3051  0.2152 -0.3148
26105SOL    HW180037   9.239   5.122   9.147  2.1856  1.8817  2.1339
26105SOL    HW280038   9.173   5.247   9.201  0.7035  2.5802 -1.0273
26106SOL     OW80039   4.154   3.221   8.101 -0.2731  0.3749  0.3178
26106SOL    HW180040   4.074   3.194   8.057  0.1179 -0.5962  0.1649
26106SOL    HW280041   4.126   3.253   8.187 -0.9083  1.0096 -0.1185
26107SOL     OW80042   1.711   1.142   4.439  0.4151 -0.0492  0.1052
26107SOL    HW180043   1.800   1.116   4.463  0.4583 -0.9908 -0.9823
26107SOL    HW280044   1.665   1.151   4.523  0.7933 -2.3156  0.6145
26108SOL     OW80045   7.906   5.821   9.082  0.8694 -0.0112 -0.1719
26108SOL    HW180046   7.867   5.896   9.127 -0.4434 -0.3207 -0.7570
26108SOL    HW280047   7.877   5.830   8.991  0.5731 -1.3042 -0.2196
26109SOL     OW80048   6.521   8.286   3.084  0.2559 -0.5945  0.1509
26109SOL    HW180049   6.480   8.342   3.018 -0.0746  0.9003  1.5576
26109SOL    HW280050   6.473   8.203   3.079 -1.9917  0.5842  0.6936
26110SOL     OW80051   5.303   0.865   3.903  0.1632 -0.3102 -0.1186
26110SOL    HW180052   5.240   0.830   3.840  0.3017 -1.9072  0.5904
26110SOL    HW280053   5.366   0.914   3.849 -0.9114  0.1857 -0.9685
26111SOL     OW80054   3.434   0.866   1.231 -0.1592  0.9214  0.6149
26111SOL    HW180055   3.476   0.780   1.223  0.8820  1.5089 -0.4384
26111SOL    HW280056   3.340   0.847   1.226 -0.0485 -0.3314  2.2659
26112SOL     OW80057   4.699   7.563   6.855 -0.3721 -0.3702 -0.0964
26112SOL    HW180058   4.688   7.639   6.914  0.7655 -0.5159  0.3145
26112SOL    HW280059   4.703   7.488   6.914 -0.9520 -0.7123 -0.4784
26113SOL     OW80060   1.760   7.932   2.583 -0.3329 -0.0813 -0.1286
26113SOL    HW180061   1.707   7.963   2.509  0.0323  1.3465  0.1864
26113SOL    HW280062   1.706   7.947   2.660  0.5446  1.5266  0.2126
26114SOL     OW80063   1.729   4.653   1.939 -0.2127  0.3579  0.0304
26114SOL    HW180064   1.666   4.584   1.920  1.0513 -0.6278 -0.7964
26114SOL    HW280065   1.699   4.728   1.888 -0.4944 -0.2250 -0.6745
26115SOL     OW80066   6.339   2.559   8.741  0.6827 -0.1875  0.0166
26115SOL    HW180067   6.418   2.565   8.795  1.2488 -1.1903 -0.6514
26115SOL    HW280068   6.371   2.526   8.657 -0.0113  2.3350 -1.3196
26116SOL     OW80069   3.140   1.232   6.893 -0.3269 -0.3132 -0.0637
26116SOL    HW180070   3.232   1.210   6.878 -0.6441 -1.9279  0.1582
26116SOL    HW280071   3.142   1.300   6.961  0.7744  1.4506 -1.7686
26117SOL     OW80072   6.599   2.860   0.086 -0.1036  0.0269 -0.6236
26117SOL    HW180073   6.605   2.806   0.007  1.5421 -0.1057 -0.4472
26117SOL    HW280074   6.673   2.921   0.079  1.3499 -1.2970  1.7233
26118SOL     OW80075   9.328   0.044   2.422  0.1671 -0.1797  0.3590
26118SOL    HW180076   9.327   0.016   2.513 -1.1972  2.2429  1.2021
26118SOL    HW280077   9.273  -0.020   2.376  1.2071 -1.6598  1.0956
26119SOL     OW80078   6.714   6.678   2.205 -0.3342  0.2250 -0.3699
26119SOL    HW180079   6.663   6.759   2.195 -0.4574  0.1964  0.0073
26119SOL    HW280080   6.684   6.623   2.134  0.0145  0.6453 -0.8520
26120SOL     OW80081   7.261   6.677   3.750 -0.1048 -0.0423 -0.2705
26120SOL    HW180082   7.332   6.728   3.712 -1.1354  0.9941 -0.8529
26120SOL    HW280083   7.284   6.586   3.730  2.5656 -0.0519  2.1326
26121SOL     OW80084   4.318   7.900   6.333  0.0059 -0.0980 -0.4690
26121SOL    HW180085   4.403   7.859   6.347 -0.1316 -0.1464  0.2620
26121SOL    HW280086   4.265   7.832   6.292  0.4186  0.0481 -1.2801
26122SOL     OW80087   2.280   1.968   0.409  0.3279  0.6660 -0.0247
26122SOL    HW180088   2.372   1.970   0.434  0.0449 -0.1612  1.1675
26122SOL    HW280089   2.242   2.045   0.451  0.1820  0.1674  0.7786
26123SOL     OW80090   4.414   3.248   1.816 -0.0636  0.1439 -0.2052
26123SOL    HW180091   4.395   3.178   1.877 -1.3875  1.0143  0.4185
26123SOL    HW280092   4.347   3.240   1.748  1.8839 -1.3452 -2.0876
26124SOL     OW80093   4.567   3.567   0.933 -0.3452  0.2331  0.2478
26124SOL    HW180094   4.635   3.510   0.898 -1.0984  0.1294 -1.0980
26124SOL    HW280095   4.573   3.647   0.880 -0.9751  0.3984  0.4152
26125SOL     OW80096   3.004   5.120   3.789  0.2079 -0.1377 -0.4181
26125SOL    HW180097   3.091   5.084   3.807  0.0799 -0.1566  0.1842
26125SOL    HW280098   3.008   5.209   3.824 -0.1837 -0.3159  0.0733
26126SOL     OW80099   0.809   6.746   6.239 -0.1572  0.6910  0.6949
26126SOL    HW180100   0.865   6.798   6.296 -1.2165  0.8024  1.6714
26126SOL    HW280101   0.731   6.800   6.226 -0.1580  0.4431 -0.4404
26127SOL     OW80102   5.631   3.640   0.836 -0.3966  0.0607 -0.0428
26127SOL    HW180103   5.677   3.651   0.919 -0.0285 -1.2659 -0.0429
26127SOL    HW280104   5.664   3.710   0.780  0.2669  0.2222  0.5419
26128SOL     OW80105   8.611   8.892   2.717 -0.0061 -0.2345  0.2678
26128SOL    HW180106   8.600   8.956   2.787  0.9067 -0.8791  1.0228
26128SOL    HW280107   8.536   8.834   2.725  0.4349 -0.7022  1.1641
26129SOL     OW80108   9.222   4.237   9.517  0.0467  0.3625  0.7914
26129SOL    HW180109   9.195   4.318   9.474 -0.2368  0.8671  1.8827
26129SOL    HW280110   9.166   4.170   9.479  0.9854  0.4724 -0.8855
26130SOL     OW80111   7.823   3.643   6.150  0.3532  0.1208  0.0707
26130SOL    HW180112   7.795   3.718   6.203  0.8238 -0.3982  1.0846
26130SOL    HW280113   7.779   3.655   6.066 -1.3025  0.3780  0.9301
26131SOL     OW80114   0.548   6.325   5.378 -0.1892 -0.0024  0.2700
26131SOL    HW180115   0.526   6.281   5.296  0.7290 -1.7248  0.8913
26131SOL    HW280116   0.643   6.316   5.385  0.0831  2.3820  0.3114
26132SOL     OW80117   9.363   3.830   4.905  0.1099  0.3488  0.0681
26132SOL    HW180118   9.440   3.881   4.932  1.1307 -0.4510 -1.2449
26132SOL    HW280119   9.395   3.740   4.899 -1.4139 -0.3267  1.3171
26133SOL     OW80120   2.825   2.614   3.627  0.6832 -0.2038  0.3164
26133SOL    HW180121   2.743   2.576   3.659  1.0194 -1.0882  0.1586
26133SOL    HW280122   2.808   2.632   3.535  0.9566 -1.2945  0.0319
26134SOL     OW80123   1.061   3.709   5.603  0.3892 -0.4050 -0.1583
26134SOL    HW180124   1.097   3.657   5.675  0.0020 -1.1232 -0.4759
26134SOL    HW280125   1.137   3.735   5.552  0.5744 -0.8413 -0.1110
26135SOL     OW80126   8.303   8.545   6.275  0.5627 -0.1573 -0.6319
26135SOL    HW180127   8.390   8.519   6.305  0.1322 -0.3908  0.4673
26135SOL    HW280128   8.314   8.561   6.181  1.3137 -2.2400 -0.9591
26136SOL     OW80129   3.244   8.573   2.121 -0.0607  0.1371 -0.7979
26136SOL    HW180130   3.184   8.599   2.050 -1.0557  0.7344  0.2324
26136SOL    HW280131   3.186   8.538   2.189  0.7695  0.6765  0.2039
26137SOL     OW80132   7.363   2.762   4.657  0.1606  0.4148  0.1664
26137SOL    HW180133   7.271   2.758   4.680 -0.3604  1.2276 -1.5452
26137SOL    HW280134   7.398   2.677   4.681 -1.4560 -0.5402 -0.6849
26138SOL     OW80135   2.421   1.047   4.295  0.4747 -0.4011 -0.2272
26138SOL    HW180136   2.345   1.024   4.241 -0.2073 -0.5291  0.7774
26138SOL    HW280137   2.496   1.016   4.244 -0.3210 -3.9632  0.5053
26139SOL     OW80138   1.627   5.498   9.550 -0.7653  0.0649  0.1289
26139SOL    HW180139   1.679   5.425   9.583  1.3211  0.0071 -2.8496
26139SOL    HW280140   1.634   5.565   9.619  0.5009 -1.1702  1.2738
26140SOL     OW80141   5.337   4.447   9.209  0.2310  0.3256 -0.1282
26140SOL    HW180142   5.303   4.422   9.295  0.1749 -0.5231 -0.3939
26140SOL    HW280143   5.321   4.371   9.153  1.2452  0.4545 -0.6209
26141SOL     OW80144   2.081   6.510   1.202  0.0703 -0.2270 -1.2166
26141SOL    HW180145   2.018   6.572   1.239 -0.2376  0.4741 -2.8274
26141SOL    HW280146   2.165   6.555   1.209  0.8785 -1.9108  2.7014
26142SOL     OW80147   1.381   7.978   3.765 -0.2117 -0.3676  0.2325
26142SOL    HW180148   1.419   8.023   3.690 -0.8000 -1.4305 -0.7296
26142SOL    HW280149   1.456   7.940   3.811  0.0260 -1.3504 -0.9218
26143SOL     OW80150   6.292   9.592   5.224 -0.7327  1.0725  0.4431
26143SOL    HW180151   6.278   9.592   5.319 -1.4160  1.5716  0.3459
26143SOL    HW280152   6.227   9.530   5.190 -0.4653  0.8689  0.3020
26144SOL     OW80153   4.309   7.593   7.589 -0.8662 -0.6445 -0.1091
26144SOL    HW180154   4.332   7.665   7.648 -1.2345 -1.6238  1.2813
26144SOL    HW280155   4.220   7.614   7.560 -1.1058 -0.7129  0.5682
26145SOL     OW80156   0.156   1.205   6.651 -0.1217 -0.2388  0.1332
26145SOL    HW180157   0.192   1.120   6.624 -1.6364 -1.3399  1.3378
26145SOL    HW280158   0.212   1.232   6.724  1.5866  0.8330 -1.4979
26146SOL     OW80159   1.982   1.181   9.043 -0.3523 -0.0853 -0.3989
26146SOL    HW180160   1.984   1.135   9.127  0.8180  2.2509  0.9601
26146SOL    HW280161   2.048   1.136   8.989  0.3687 -0.3361  0.6727
26147SOL     OW80162   7.624   4.295   0.835  0.2780 -0.9778 -0.4262
26147SOL    HW180163   7.539   4.293   0.878 -0.6008 -0.7454 -2.0824
26147SOL    HW280164   7.676   4.230   0.883 -0.8363 -1.1828  0.5587
26148SOL     OW80165   6.904   8.536   6.445 -0.3573  0.0330 -0.1361
26148SOL    HW180166   6.961   8.612   6.433  0.3953 -0.7813 -2.1622
26148SOL    HW280167   6.852   8.532   6.366 -2.5077  0.0844  1.1920
26149SOL     OW80168   0.407   5.876   8.864  0.3396 -0.2661 -0.3056
26149SOL    HW180169   0.486   5.929   8.874  0.2395 -0.0359 -0.7036
26149SOL    HW280170   0.439   5.786   8.861  0.5765 -0.1812 -0.3475
26150SOL     OW80171   1.445   7.443   7.156  0.3893  0.1053  0.1497
26150SOL    HW180172   1.433   7.485   7.241  2.2794 -0.3359  0.6898
26150SOL    HW280173   1.439   7.349   7.175  0.2597  0.0165 -0.3187
26151SOL     OW80174   6.697   3.622   0.185 -0.2168 -0.3603 -0.4901
26151SOL    HW180175   6.712   3.682   0.112 -2.3083 -0.4286 -1.0154
26151SOL    HW280176   6.751   3.545   0.164  0.8863  0.4825 -0.8346
26152SOL     OW80177   6.607   2.408   7.853 -0.0894 -0.0660  0.3260
26152SOL    HW180178   6.650   2.343   7.799  0.2582 -0.5028  1.1180
26152SOL    HW280179   6.670   2.429   7.922 -0.2474  1.0033  0.1759
26153SOL     OW80180   1.669   4.958   9.054  0.0603 -0.6898 -0.2640
26153SOL    HW180181   1.763   4.939   9.051  0.3439 -0.3595  2.9951
26153SOL    HW280182   1.663   5.043   9.097 -1.7590 -0.1833 -1.3711
26154SOL     OW80183   4.926   7.277   8.323 -0.2330 -0.1633  0.2724
26154SOL    HW180184   4.904   7.367   8.300 -1.3328  0.1210  2.2780
26154SOL    HW280185   5.020   7.279   8.342  0.1958  0.0837 -1.6749
26155SOL     OW80186   0.224   2.159   0.377  0.7314  0.4796  0.0349
26155SOL    HW180187   0.261   2.134   0.462  0.8909  2.3907  0.5723
26155SOL    HW280188   0.146   2.210   0.399  0.2736  0.2405 -1.0054
26156SOL     OW80189   0.184   1.711   3.055  0.0622  0.4829 -0.4815
26156SOL    HW180190   0.093   1.739   3.045 -0.1909 -0.3451 -0.6101
26156SOL    HW280191   0.236   1.784   3.023 -0.5169  1.5294  0.8940
26157SOL     OW80192   4.498   0.582   1.524 -0.0889 -0.1173 -0.0366
26157SOL    HW180193   4.494   0.656   1.585  3.1206 -0.6247  0.9567
26157SOL    HW280194   4.540   0.618   1.446 -1.1620 -0.2706 -0.7111
26158SOL     OW80195   1.439   1.920   6.991 -0.4316 -0.4437  0.6393
26158SOL    HW180196   1.405   1.967   6.916  0.5740 -0.6808  0.0210
26158SOL    HW280197   1.534   1.919   6.979  0.0780  1.9167  3.2973
26159SOL     OW80198   7.871   9.591   8.770 -0.3179 -0.0940 -0.0846
26159SOL    HW180199   7.959   9.619   8.743 -0.0269 -0.4282  0.4990
26159SOL    HW280200   7.830   9.671   8.803  0.5066 -0.3209  1.5721
26160SOL     OW80201   0.770   3.808   7.511  0.1765 -0.3363 -0.2315
26160SOL    HW180202   0.712   3.788   7.437  0.6757  0.3653 -0.8282
26160SOL    HW280203   0.793   3.723   7.547 -1.0293 -0.6456 -0.1298
26161SOL     OW80204   3.904   8.100   1.339 -0.3223  0.2275 -0.1137
26161SOL    HW180205   3.846   8.149   1.281 -0.7965 -0.6580 -0.4162
26161SOL    HW280206   3.861   8.015   1.349  0.9173 -0.4490 -0.3398
26162SOL     OW80207   3.842   5.067   2.183 -0.3093 -0.2874 -0.5673
26162SOL    HW180208   3.843   5.157   2.152  1.2992  0.0512  0.3671
26162SOL    HW280209   3.876   5.071   2.272  0.4935 -1.8947 -0.7611
26163SOL     OW80210   5.058   6.603   0.174 -0.2327  0.4170 -0.5212
26163SOL    HW180211   5.052   6.578   0.267 -1.4318 -0.1222 -0.7181
26163SOL    HW280212   5.120   6.676   0.173 -1.3051  1.4168  0.9153
26164SOL     OW80213   3.072   5.803   0.058 -0.3204 -0.7859 -0.0582
26164SOL    HW180214   3.155   5.774   0.097 -0.2182 -0.4510 -0.0288
26164SOL    HW280215   3.066   5.896   0.080 -0.6494 -0.7831 -0.1593
26165SOL     OW80216   7.587   4.829   7.150 -0.2195  0.7560  0.2141
26165SOL    HW180217   7.614   4.872   7.069 -0.2829  0.9472  0.2940
26165SOL    HW280218   7.670   4.807   7.194 -0.1680  0.0230 -0.2242
26166SOL     OW80219   6.256   6.682   5.133  0.1824  0.2059 -0.0495
26166SOL    HW180220   6.266   6.595   5.172  0.4726  0.3973  0.3154
26166SOL    HW280221   6.192   6.670   5.064  0.4345 -0.3583 -0.1927
26167SOL     OW80222   5.891   9.578   3.280 -0.0343 -0.4422 -0.3311
26167SOL    HW180223   5.838   9.590   3.359  0.2027  0.6388 -0.3150
26167SOL    HW280224   5.944   9.658   3.275 -1.5607  0.5161 -2.7280
26168SOL     OW80225   4.459   1.404   9.493  0.1398 -0.2748  0.7517
26168SOL    HW180226   4.426   1.489   9.520 -3.6919 -1.2993 -0.0409
26168SOL    HW280227   4.516   1.422   9.419 -0.5472  1.6070  0.6392
26169SOL     OW80228   7.272   2.193   4.270  0.4097 -0.2466 -0.6820
26169SOL    HW180229   7.286   2.265   4.208  0.1203 -1.3153 -2.0327
26169SOL    HW280230   7.182   2.165   4.254 -0.1730  0.3656  1.2555
26170SOL     OW80231   8.559   2.704   5.536 -0.2219 -0.1928 -0.1898
26170SOL    HW180232   8.645   2.714   5.577 -0.3530  0.5841 -0.0970
26170SOL    HW280233   8.576   2.714   5.443  0.0774 -1.9634 -0.3615
26171SOL     OW80234   0.057   5.956   4.469 -0.1558  0.0995  0.7141
26171SOL    HW180235   0.148   5.940   4.492 -0.1450  2.0836  2.3028
26171SOL    HW280236   0.008   5.899   4.529 -0.0175 -1.8367 -0.9101
26172SOL     OW80237   8.784   7.385   0.691 -0.2397 -0.3672 -0.4070
26172SOL    HW180238   8.793   7.409   0.599  4.5947 -0.9786 -0.3311
26172SOL    HW280239   8.874   7.380   0.724 -1.5507 -3.4052  3.5518
26173SOL     OW80240   2.075   8.143   1.371 -0.4816  0.4875 -0.7942
26173SOL    HW180241   2.028   8.141   1.454 -0.4628  0.6619 -0.7792
26173SOL    HW280242   2.158   8.186   1.392  0.0414 -0.5525 -0.6363
26174SOL     OW80243   8.195   3.590   0.001  0.2696 -0.5540 -0.4666
26174SOL    HW180244   8.145   3.582   0.082  0.0628 -1.9929 -0.7133
26174SOL    HW280245   8.132   3.569  -0.069  0.9267 -1.3288 -0.8480
26175SOL     OW80246   3.374   3.354   7.273  0.1387  0.6792  0.3211
26175SOL    HW180247   3.305   3.356   7.207 -0.5876 -1.6321  0.9204
26175SOL    HW280248   3.451   3.320   7.228 -0.0765  0.0644  0.4060
26176SOL     OW80249   2.342   1.180   5.854 -0.7640  0.1308  0.0271
26176SOL    HW180250   2.373   1.092   5.831 -0.4336  0.6516 -1.6496
26176SOL    HW280251   2.311   1.217   5.772 -0.7394  1.6539  0.6719
26177SOL     OW80252   8.695   1.582   3.052  0.4260  0.3174 -0.1866
26177SOL    HW180253   8.784   1.617   3.046 -0.2044  2.4492  1.2967
26177SOL    HW280254   8.684   1.562   3.145 -1.2321  2.0572  0.0643
26178SOL     OW80255   6.861   7.885   2.602 -0.5422 -0.3448  0.0030
26178SOL    HW180256   6.922   7.881   2.528 -0.3408 -0.9943  0.2002
26178SOL    HW280257   6.907   7.840   2.673 -1.0594 -0.4186  0.2923
26179SOL     OW80258   0.826   2.128   5.179 -0.3822 -0.0369 -0.0739
26179SOL    HW180259   0.760   2.079   5.228 -0.7179  0.0256 -0.4575
26179SOL    HW280260   0.808   2.106   5.087  1.3908 -1.6309 -0.1048
26180SOL     OW80261   3.951   6.532   7.055  0.0711  0.1094 -0.6197
26180SOL    HW180262   3.970   6.439   7.047  1.2117  0.4121 -1.7451
26180SOL    HW280263   4.036   6.573   7.070 -0.3799  1.0097 -0.4540
26181SOL     OW80264   2.296   9.691   7.754  0.0459 -0.5051  0.0442
26181SOL    HW180265   2.271   9.679   7.845 -0.0726 -0.7209 -0.0146
26181SOL    HW280266   2.220   9.661   7.704 -0.0187 -0.0748 -0.1205
26182SOL     OW80267   4.893   2.124   4.422 -0.2775  0.3940  0.1381
26182SOL    HW180268   4.811   2.083   4.397  0.4777 -0.9561 -0.1926
26182SOL    HW280269   4.959   2.082   4.368  0.9748 -0.3150  2.1168
26183SOL     OW80270   2.680   8.463   3.136 -0.0370  0.1924  0.5198
26183SOL    HW180271   2.727   8.482   3.055  0.1878  1.3595  0.8954
26183SOL    HW280272   2.716   8.525   3.199 -1.0119  0.0786  1.2156
26184SOL     OW80273   1.484   2.149   4.537 -0.1756 -0.4125  0.3470
26184SOL    HW180274   1.412   2.131   4.477  0.3232 -2.1474  0.2191
26184SOL    HW280275   1.528   2.225   4.499 -3.6001  2.7543  2.0158
26185SOL     OW80276   2.973   8.889   1.193 -0.5533  0.1013  0.7074
26185SOL    HW180277   2.953   8.970   1.146 -1.6816 -0.8161 -0.4933
26185SOL    HW280278   2.894   8.872   1.244 -0.4412 -0.3997  0.7118
26186SOL     OW80279   2.528   5.977   5.503 -0.0198 -0.6484 -0.0163
26186SOL    HW180280   2.531   6.071   5.486 -1.9459 -0.8218 -1.7107
26186SOL    HW280281   2.474   5.968   5.581 -0.9874 -0.3787 -0.6365
26187SOL     OW80282   0.999   2.294   8.369 -0.0208  0.1668  0.5010
26187SOL    HW180283   1.029   2.336   8.450  0.6085 -0.3954  0.5613
26187SOL    HW280284   1.016   2.359   8.301  3.0693 -0.7723  0.2388
26188SOL     OW80285   4.566   6.966   6.530  0.4641 -0.0363  0.2279
26188SOL    HW180286   4.616   7.037   6.569  0.9560 -1.2926  2.0381
26188SOL    HW280287   4.478   6.976   6.566 -0.0439  0.8653 -1.1981
26189SOL     OW80288   8.505   2.249   6.707  0.1266 -0.4025  0.0167
26189SOL    HW180289   8.480   2.290   6.624 -1.4152 -1.0285  0.1376
26189SOL    HW280290   8.552   2.170   6.681  1.1889  0.3002 -0.2340
26190SOL     OW80291   8.418   3.780   4.657 -0.0415 -0.6266 -0.3875
26190SOL    HW180292   8.443   3.710   4.717 -0.6977  0.6055  1.4153
26190SOL    HW280293   8.331   3.808   4.687  0.3462  1.1640 -0.8012
26191SOL     OW80294   1.534   9.130   0.848 -0.2300 -0.3519  0.1394
26191SOL    HW180295   1.548   9.087   0.933 -0.5008  0.8858  0.8448
26191SOL    HW280296   1.439   9.129   0.837 -0.4223  1.5358  1.0304
26192SOL     OW80297   0.998   6.499   3.383 -0.3009 -0.0443 -0.3541
26192SOL    HW180298   1.076   6.554   3.386  1.3481 -2.0795 -1.8650
26192SOL    HW280299   1.002   6.447   3.463 -1.2553  1.2113  0.5388
26193SOL     OW80300   8.683   1.251   6.591  0.3228  0.0813  0.1106
26193SOL    HW180301   8.606   1.291   6.552 -0.0887 -0.3043  0.5042
26193SOL    HW280302   8.730   1.323   6.633 -0.6167  0.1237  1.1640
26194SOL     OW80303   8.507   9.346   3.529  0.7199  0.2171 -0.9216
26194SOL    HW180304   8.590   9.385   3.556  0.8916 -0.3684 -0.5922
26194SOL    HW280305   8.490   9.278   3.593  0.4907 -0.3388 -1.5583
26195SOL     OW80306   5.846   8.467   0.778  0.1633  0.3286  0.2174
26195SOL    HW180307   5.905   8.437   0.847  1.9865  1.7388 -0.6376
26195SOL    HW280308   5.867   8.411   0.703 -0.2756  0.2226  0.1711
26196SOL     OW80309   6.881   2.247   7.457 -0.4747  0.1350  0.3278
26196SOL    HW180310   6.797   2.239   7.503 -0.0259 -0.1979  1.0959
26196SOL    HW280311   6.857   2.254   7.365 -1.2819 -1.6940  0.3554
26197SOL     OW80312   2.557   5.945   7.334 -0.0895 -0.1708  0.1857
26197SOL    HW180313   2.641   5.920   7.293 -0.0057 -0.8048  0.7394
26197SOL    HW280314   2.539   6.032   7.298  0.8968  0.0540  0.1880
26198SOL     OW80315   4.700   5.707   4.763  0.1571  0.1085  0.0507
26198SOL    HW180316   4.680   5.642   4.696  0.8782  0.4258 -0.4787
26198SOL    HW280317   4.733   5.783   4.715 -0.1963  0.6871  0.6963
26199SOL     OW80318   7.568   0.867   0.771  0.2682 -0.2924  0.1011
26199SOL    HW180319   7.607   0.949   0.801  0.8444 -0.9644  1.2465
26199SOL    HW280320   7.638   0.824   0.722 -0.0098 -0.1512 -0.4321
26200SOL     OW80321   3.250   9.606   4.622  0.4005  0.0866 -0.5301
26200SOL    HW180322   3.226   9.515   4.605 -0.5272  0.0055  1.0297
26200SOL    HW280323   3.294   9.634   4.542  0.3610 -1.6074 -1.1945
26201SOL     OW80324   4.916   2.016   7.557 -0.2501 -0.1863  0.7849
26201SOL    HW180325   4.942   2.103   7.527  2.2272 -0.5786  1.5164
26201SOL    HW280326   4.896   2.027   7.650  3.8407 -0.8525  1.9751
26202SOL     OW80327   2.139   6.108   4.076  0.0642  0.2213  0.0783
26202SOL    HW180328   2.119   6.127   3.984  0.9907  0.6779 -0.0485
26202SOL    HW280329   2.118   6.189   4.122  2.0746  0.9525 -0.1548
26203SOL     OW80330   1.992   8.316   0.169  0.0529 -0.0836  0.4115
26203SOL    HW180331   2.032   8.396   0.204  0.7826  0.0554 -0.7185
26203SOL    HW280332   2.035   8.302   0.085 -0.5859 -1.2725  0.2657
26204SOL     OW80333   9.255   5.108   3.659 -0.2220 -0.1297 -0.3187
26204SOL    HW180334   9.257   5.096   3.754  1.1765 -1.3729 -0.4586
26204SOL    HW280335   9.189   5.175   3.644 -1.9954 -1.4093  1.3665
26205SOL     OW80336   6.786   7.381   8.850  0.5409 -0.2018 -0.0229
26205SOL    HW180337   6.840   7.364   8.772 -0.1438  0.4337 -0.6494
26205SOL    HW280338   6.738   7.461   8.828 -0.9506 -0.9782  0.3617
26206SOL     OW80339   6.457   8.303   1.249 -0.6088  0.1662 -0.5357
26206SOL    HW180340   6.412   8.266   1.173 -1.3523  1.0835 -0.5640
26206SOL    HW280341   6.531   8.350   1.212  0.1901 -1.0341 -0.5186
26207SOL     OW80342   3.685   4.649   4.816  0.4492  0.1428 -0.3275
26207SOL    HW180343   3.743   4.685   4.884  1.6697  0.2072 -1.3634
26207SOL    HW280344   3.698   4.554   4.822  0.3343  0.1288 -0.2914
26208SOL     OW80345   7.475   7.381   2.948 -0.2910  0.2449  0.4610
26208SOL    HW180346   7.458   7.288   2.962 -0.3929 -0.0890 -1.5356
26208SOL    HW280347   7.557   7.383   2.898  0.4810  1.3245  1.6969
26209SOL     OW80348   4.612   2.666   9.476  0.6402  0.2299  0.3711
26209SOL    HW180349   4.673   2.740   9.476  0.4749  0.4157 -1.4675
26209SOL    HW280350   4.533   2.700   9.518  0.6174  1.0604 -0.3291
26210SOL     OW80351   5.562   4.933   7.351 -0.0202  0.0425  0.5471
26210SOL    HW180352   5.638   4.991   7.349  1.5834 -1.8294  2.4322
26210SOL    HW280353   5.487   4.992   7.338  1.6848  1.8736 -2.0910
26211SOL     OW80354   8.179   5.068   3.251 -0.2003 -0.7116  0.2036
26211SOL    HW180355   8.268   5.091   3.223 -0.7094  1.2348  0.0242
26211SOL    HW280356   8.128   5.068   3.170 -0.8343  0.7063  0.5695
26212SOL     OW80357   8.628   3.248   6.377 -0.2919 -0.6875  0.0447
26212SOL    HW180358   8.652   3.274   6.288 -0.3259 -0.8447 -0.0096
26212SOL    HW280359   8.688   3.177   6.399 -1.4633 -1.8700 -0.5215
26213SOL     OW80360   2.669   7.027   7.004 -0.5174 -0.1673 -0.1594
26213SOL    HW180361   2.627   6.943   7.019  0.2074 -0.5096 -0.0149
26213SOL    HW280362   2.601   7.081   6.964 -1.3484 -0.4299  0.8607
26214SOL     OW80363   2.871   3.357   3.302  0.0940  0.1642  0.3010
26214SOL    HW180364   2.951   3.320   3.339  0.4059 -1.6095 -1.8961
26214SOL    HW280365   2.800   3.309   3.345  0.4127 -1.1827 -0.5930
26215SOL     OW80366   2.031   5.278   8.795  0.3043  0.1203  0.8776
26215SOL    HW180367   2.054   5.186   8.801 -0.3598  0.0016  1.6963
26215SOL    HW280368   1.953   5.288   8.850 -0.8925  0.7533 -0.8285
26216SOL     OW80369   3.182   8.468   6.650 -0.0631  0.0403 -0.5578
26216SOL    HW180370   3.255   8.526   6.668 -1.1016  0.8310  1.5336
26216SOL    HW280371   3.109   8.526   6.628 -0.2239 -0.7033 -2.1457
26217SOL     OW80372   2.539   2.984   7.133 -0.4689 -0.9551  0.8435
26217SOL    HW180373   2.517   3.077   7.136  0.7054 -0.5463 -1.4874
26217SOL    HW280374   2.457   2.941   7.108 -0.5258 -0.3020 -0.1336
26218SOL     OW80375   4.910   5.771   2.530 -0.2427 -0.4538 -0.6293
26218SOL    HW180376   4.877   5.861   2.535  3.3236  0.9491  0.3002
26218SOL    HW280377   4.942   5.762   2.440  0.1615 -0.4857 -0.4841
26219SOL     OW80378   1.008   7.480   2.048 -0.3281 -0.3490 -0.3079
26219SOL    HW180379   0.979   7.439   1.966  1.5117 -0.5023 -0.9268
26219SOL    HW280380   1.031   7.408   2.105  1.1988 -0.2654 -0.7570
26220SOL     OW80381   2.301   3.243   8.599  0.0883 -0.0553 -0.8135
26220SOL    HW180382   2.377   3.201   8.639  0.8397  1.9753  0.0151
26220SOL    HW280383   2.253   3.171   8.558  1.5808 -1.6151  0.0395
26221SOL     OW80384   3.268   7.464   7.950 -0.3043 -0.0018 -0.0444
26221SOL    HW180385   3.201   7.429   8.008  0.1295 -1.6533 -0.4821
26221SOL    HW280386   3.243   7.434   7.863  0.3762  0.3623 -0.3774
26222SOL     OW80387   1.432   8.561   9.229  0.1619 -0.0636  0.2328
26222SOL    HW180388   1.415   8.641   9.280  0.1850 -0.5292  0.9911
26222SOL    HW280389   1.499   8.514   9.279  0.4156 -0.3879 -0.3966
26223SOL     OW80390   7.269   3.652   1.789  0.2100 -0.5319 -0.2140
26223SOL    HW180391   7.230   3.600   1.718 -1.0115  1.6510 -1.2315
26223SOL    HW280392   7.364   3.642   1.775  0.0028 -1.3719 -1.1990
26224SOL     OW80393   8.931   5.093   6.682  0.3116  0.1761 -0.0282
26224SOL    HW180394   8.862   5.044   6.638 -0.6004  1.7847 -0.4677
26224SOL    HW280395   8.965   5.033   6.748 -1.0180 -0.9069 -0.2940
26225SOL     OW80396   8.079   4.271   0.572  0.5905  0.8333 -0.3490
26225SOL    HW180397   8.148   4.305   0.629  1.6032 -1.1857 -0.3016
26225SOL    HW280398   8.034   4.350   0.540  0.8481  2.0945  2.1133
26226SOL     OW80399   0.841   5.444   2.866 -0.2720  0.0423 -0.2546
26226SOL    HW180400   0.841   5.536   2.890 -1.1743 -0.0557  0.1796
26226SOL    HW280401   0.801   5.442   2.779 -0.1068  0.0716 -0.3320
26227SOL     OW80402   8.517   8.505   0.506 -0.1184  0.2967  0.5269
26227SOL    HW180403   8.562   8.522   0.588 -1.4332 -0.0207  1.3553
26227SOL    HW280404   8.431   8.471   0.533  0.1051 -1.6598 -0.9726
26228SOL     OW80405   9.640   4.922   8.787  0.3378  0.1539 -0.4991
26228SOL    HW180406   9.591   4.972   8.721 -0.3612  2.0702  1.3660
26228SOL    HW280407   9.603   4.950   8.870  0.9067 -2.5097  0.7512
26229SOL     OW80408   0.657   9.161   4.241  1.0801  0.4825  0.2272
26229SOL    HW180409   0.702   9.140   4.323  1.1735  2.0892  0.6161
26229SOL    HW280410   0.670   9.255   4.230  0.3935  0.4314 -1.2352
26230SOL     OW80411   7.512   1.574   2.403  0.5513  0.5309  0.3555
26230SOL    HW180412   7.539   1.661   2.375 -2.4038  1.0021 -1.4493
26230SOL    HW280413   7.550   1.514   2.339  0.6006  0.7581  0.1721
26231SOL     OW80414   9.289   7.905   3.251 -0.6650 -0.0218 -0.7352
26231SOL    HW180415   9.365   7.912   3.192 -0.7255  0.5835 -0.7503
26231SOL    HW280416   9.245   7.989   3.242 -0.7182  0.0466  0.1299
26232SOL     OW80417   9.605   3.416   5.566  0.0558  0.0098 -0.4944
26232SOL    HW180418   9.550   3.397   5.642  1.1488 -0.1119  0.2987
26232SOL    HW280419   9.636   3.505   5.580  2.0979 -0.7608  0.4553
26233SOL     OW80420   3.236   6.110   4.334 -0.0526  0.3700  0.0976
26233SOL    HW180421   3.214   6.094   4.242 -0.7314  3.3294 -0.3808
26233SOL    HW280422   3.227   6.025   4.376  0.8311 -1.2065 -2.6523
26234SOL     OW80423   7.903   4.088   6.726 -0.0182  0.0874 -0.2705
26234SOL    HW180424   7.819   4.130   6.707 -0.4053 -0.1354  0.8735
26234SOL    HW280425   7.888   3.996   6.707  0.7893  0.3922 -2.6421
26235SOL     OW80426   2.517   7.409   7.966 -0.0677  0.0955 -0.1686
26235SOL    HW180427   2.441   7.444   8.012  0.4706  0.4555  0.4752
26235SOL    HW280428   2.537   7.327   8.012  0.5278  0.5018  0.3072
26236SOL     OW80429   6.692   9.053   5.442 -0.5125 -0.0957  0.5636
26236SOL    HW180430   6.711   9.081   5.532  0.2008 -2.1489  1.1135
26236SOL    HW280431   6.771   9.006   5.415 -1.0107 -0.1563 -0.8702
26237SOL     OW80432   4.087   4.479   7.033 -0.0020  0.0224  0.2376
26237SOL    HW180433   4.147   4.418   7.076 -0.2349  0.2740  0.9398
26237SOL    HW280434   4.000   4.455   7.065 -0.1429  0.4214  0.1671
26238SOL     OW80435   2.427   0.460   3.934  0.0652 -0.0963 -0.0485
26238SOL    HW180436   2.483   0.517   3.987  0.8117  0.2507 -1.1886
26238SOL    HW280437   2.381   0.519   3.875 -0.8555 -0.4692  0.2800
26239SOL     OW80438   1.563   9.613   6.363  0.3847 -1.0401 -0.5943
26239SOL    HW180439   1.567   9.676   6.435 -0.0916 -0.2979 -1.1948
26239SOL    HW280440   1.652   9.611   6.328  0.8519 -2.1110  0.5730
26240SOL     OW80441   3.266   7.831   9.509 -0.2112 -0.4546 -0.2360
26240SOL    HW180442   3.324   7.757   9.526 -1.4180 -1.1740  0.9758
26240SOL    HW280443   3.178   7.794   9.512 -0.8566  1.0173  0.4192
26241SOL     OW80444   2.150   5.652   6.951  0.0181 -0.9048  0.1699
26241SOL    HW180445   2.243   5.669   6.936 -0.4812  1.2171 -0.8201
26241SOL    HW280446   2.119   5.728   7.000 -1.2225 -1.5480  0.4203
26242SOL     OW80447   4.554   3.125   2.513 -0.1411 -0.6283  0.3724
26242SOL    HW180448   4.605   3.194   2.554 -0.4171 -0.2896  0.1487
26242SOL    HW280449   4.618   3.058   2.488  0.3534  0.3126 -0.9899
26243SOL     OW80450   7.704   5.481   1.299 -0.5707 -0.0365  0.5136
26243SOL    HW180451   7.739   5.553   1.352  1.0030 -0.8463  0.6310
26243SOL    HW280452   7.781   5.445   1.255 -1.2510 -1.9920  0.8707
26244SOL     OW80453   2.355   1.742   3.569 -0.3036 -0.8482  0.1696
26244SOL    HW180454   2.349   1.698   3.485  1.1556  0.2678 -0.5748
26244SOL    HW280455   2.443   1.781   3.569 -1.2581  1.4984  1.0138
26245SOL     OW80456   8.030   4.179   2.394 -0.5791  0.6805  0.2370
26245SOL    HW180457   7.942   4.148   2.416  0.0401 -2.1263 -0.7718
26245SOL    HW280458   8.021   4.215   2.306 -0.3924 -1.7641 -0.8677
26246SOL     OW80459   5.160   5.442   8.996 -0.4021 -0.6116  0.0809
26246SOL    HW180460   5.068   5.470   9.001 -0.6675 -1.3731 -0.4149
26246SOL    HW280461   5.210   5.522   9.013 -1.1540 -0.0524 -0.2881
26247SOL     OW80462   2.573   0.202   8.254  0.0845  0.0041  0.1384
26247SOL    HW180463   2.575   0.294   8.227 -1.5645  0.2961  0.9135
26247SOL    HW280464   2.505   0.163   8.200 -0.3837 -0.3689  1.0005
26248SOL     OW80465   8.455   4.302   3.826 -0.0693 -0.3645  0.2567
26248SOL    HW180466   8.515   4.245   3.779 -1.3535  0.3738 -2.5018
26248SOL    HW280467   8.401   4.243   3.878  1.3346 -1.2339  0.7713
26249SOL     OW80468   1.168   1.691   0.017 -0.1765 -0.3743  0.4344
26249SOL    HW180469   1.202   1.602   0.022  1.0530  0.0636  0.1802
26249SOL    HW280470   1.245   1.747   0.018 -0.7827  0.6217 -1.7080
26250SOL     OW80471   5.897   3.387   1.010  0.0791  0.0289 -0.1065
26250SOL    HW180472   5.868   3.331   1.082 -2.0048  0.3249 -0.6670
26250SOL    HW280473   5.957   3.450   1.050 -1.1567  0.2843  1.3946
26251SOL     OW80474   9.251   4.656   0.512  0.3716  0.0970 -0.1164
26251SOL    HW180475   9.219   4.686   0.427 -0.1914 -3.0004 -1.1146
26251SOL    HW280476   9.189   4.589   0.539  2.1893 -1.1229  1.2744
26252SOL     OW80477   8.981   1.747   8.677  0.5253 -0.8050  1.1552
26252SOL    HW180478   8.933   1.765   8.758  1.5191  1.9771  1.2115
26252SOL    HW280479   8.927   1.786   8.608  1.7474  0.7562  1.0225
26253SOL     OW80480   1.226   7.881   4.859  0.1956  0.5200 -0.0268
26253SOL    HW180481   1.298   7.945   4.855 -0.1769  0.9314 -0.2681
26253SOL    HW280482   1.207   7.873   4.953  0.8730  0.0383  0.0805
26254SOL     OW80483   0.932   7.595   6.784 -0.2558  0.1985  0.0554
26254SOL    HW180484   1.023   7.577   6.763 -0.2941  1.0613 -0.9723
26254SOL    HW280485   0.911   7.535   6.855  0.7677 -0.8251 -0.4753
26255SOL     OW80486   5.870   9.282   9.383 -0.2526 -0.2286 -0.0620
26255SOL    HW180487   5.857   9.204   9.330  0.1216  1.0800 -2.2100
26255SOL    HW280488   5.947   9.324   9.346 -0.1610  0.9300  1.3460
26256SOL     OW80489   6.487   0.886   8.458 -0.3914 -0.1786  0.3370
26256SOL    HW180490   6.513   0.795   8.468 -1.4746 -0.4352  0.9388
26256SOL    HW280491   6.392   0.884   8.457 -0.4194  0.8822 -0.3164
26257SOL     OW80492   0.758   2.727   6.951 -0.7575  0.1894  0.5031
26257SOL    HW180493   0.718   2.786   6.887 -0.3448 -0.9405 -0.8308
26257SOL    HW280494   0.771   2.645   6.904 -0.3778 -0.6655  2.0247
26258SOL     OW80495   4.040   9.561   1.816  0.0816 -0.3919  0.2741
26258SOL    HW180496   3.960   9.509   1.810  0.9057 -1.7908  0.9255
26258SOL    HW280497   4.022   9.640   1.765 -1.1030 -1.4589 -1.0186
26259SOL     OW80498   3.996   9.522   3.805 -0.8824  0.2239  0.4686
26259SOL    HW180499   3.902   9.505   3.808 -0.7157 -0.5648  1.7501
26259SOL    HW280500   4.033   9.463   3.870  0.4738  0.7345  0.1804
26260SOL     OW80501   8.370   2.727   5.266 -0.2166  0.0481  0.2672
26260SOL    HW180502   8.313   2.669   5.216 -0.7872  0.8146 -0.0077
26260SOL    HW280503   8.312   2.764   5.333  0.5082 -0.8706  1.4360
26261SOL     OW80504   6.846   0.183   7.972 -0.8892 -0.2177 -0.3465
26261SOL    HW180505   6.909   0.113   7.985 -0.2633  0.0921 -1.5468
26261SOL    HW280506   6.768   0.155   8.020  0.3830 -0.2538  1.8193
26262SOL     OW80507   1.100   4.757   7.448 -0.0648 -0.3805  0.2399
26262SOL    HW180508   1.085   4.838   7.401 -0.5724 -0.2419  0.6315
26262SOL    HW280509   1.012   4.726   7.471  0.0888 -1.3707 -0.4557
26263SOL     OW80510   6.411   5.752   9.306 -0.2274  0.3556  0.4333
26263SOL    HW180511   6.328   5.800   9.307  0.0466  0.8311  1.1199
26263SOL    HW280512   6.474   5.815   9.272 -0.2105 -0.1325 -0.4722
26264SOL     OW80513   7.564   5.666   4.510 -0.0019  0.0056 -0.4909
26264SOL    HW180514   7.513   5.711   4.578  1.5470  0.5529  0.3556
26264SOL    HW280515   7.655   5.687   4.531  0.6210 -1.4771 -1.5744
26265SOL     OW80516   3.128   5.590   7.499  0.3212  0.3624 -0.6965
26265SOL    HW180517   3.115   5.497   7.482  1.2066  0.1830 -0.4503
26265SOL    HW280518   3.099   5.634   7.420  0.4407 -0.1716 -1.0379
26266SOL     OW80519   4.935   7.273   8.903  0.5712 -0.2087 -0.1244
26266SOL    HW180520   4.932   7.363   8.936  1.5047 -0.1157 -0.2577
26266SOL    HW280521   4.926   7.218   8.981  3.4381  0.0040  0.4569
26267SOL     OW80522   8.560   7.780   8.124 -0.2745  0.1640  0.2782
26267SOL    HW180523   8.550   7.789   8.029  0.4569  0.5413  0.2285
26267SOL    HW280524   8.558   7.685   8.140 -1.4684  0.1239  0.0251
26268SOL     OW80525   9.174   0.588   2.691  0.1072 -0.1717  0.2840
26268SOL    HW180526   9.139   0.523   2.630  1.4254 -0.5948 -0.0641
26268SOL    HW280527   9.129   0.570   2.773 -1.7008  0.4021 -0.5177
26269SOL     OW80528   3.130   6.247   4.946 -0.6365 -0.0241  0.4238
26269SOL    HW180529   3.104   6.220   5.034 -2.6974  0.2721 -0.0449
26269SOL    HW280530   3.103   6.175   4.889  2.0802 -0.9337  0.1119
26270SOL     OW80531   4.781   7.571   1.179 -0.0217 -0.0029 -0.5158
26270SOL    HW180532   4.782   7.594   1.272 -0.6096  2.0449 -0.9626
26270SOL    HW280533   4.863   7.605   1.145  1.0940 -2.4382 -0.4413
26271SOL     OW80534   3.029   5.206   7.352  0.8338 -0.3327  0.1213
26271SOL    HW180535   2.994   5.187   7.265  1.9484 -0.1887 -0.3699
26271SOL    HW280536   3.117   5.170   7.351  1.1599  0.4105  0.9189
26272SOL     OW80537   4.761   4.249   2.039  0.1655 -0.3535 -0.5947
26272SOL    HW180538   4.709   4.191   2.095 -0.2508 -0.2175 -0.8412
26272SOL    HW280539   4.703   4.322   2.020  0.5404 -0.0702 -0.6512
26273SOL     OW80540   0.203   3.118   1.620  0.1535 -0.0136  0.4692
26273SOL    HW180541   0.168   3.061   1.689 -2.8992  1.3843  0.2341
26273SOL    HW280542   0.127   3.165   1.588  1.9538  1.4070 -1.9943
26274SOL     OW80543   6.488   6.303   4.966 -0.1553 -0.3383  0.5772
26274SOL    HW180544   6.488   6.289   4.871 -0.4600  0.5273  0.4360
26274SOL    HW280545   6.486   6.399   4.975 -0.2146 -0.4199  1.4585
26275SOL     OW80546   1.643   4.637   6.302 -0.0336  0.3148  0.1064
26275SOL    HW180547   1.636   4.724   6.261  0.1190 -0.6591 -2.1351
26275SOL    HW280548   1.733   4.634   6.335  0.4562  0.4957 -1.1362
26276SOL     OW80549   3.890   5.828   9.639  0.2321 -0.1162 -0.0198
26276SOL    HW180550   3.875   5.755   9.579 -0.1514  0.3646 -0.5179
26276SOL    HW280551   3.984   5.841   9.638  0.1198  0.7393 -1.5520
26277SOL     OW80552   2.867   3.679   0.998 -0.4640 -0.5190  0.4873
26277SOL    HW180553   2.781   3.641   1.016 -0.6865 -0.7807 -1.0067
26277SOL    HW280554   2.855   3.773   1.012 -0.8183 -0.6232  0.9071
26278SOL     OW80555   2.060   0.978   1.613 -0.6303  0.5972  0.1071
26278SOL    HW180556   2.074   1.020   1.528  0.1641  0.3985  0.1288
26278SOL    HW280557   2.029   1.049   1.670 -0.0059  1.0068 -0.0487
26279SOL     OW80558   0.308   6.657   0.313  0.2189  0.1256 -0.7312
26279SOL    HW180559   0.327   6.748   0.290  0.4550  0.0564 -0.8141
26279SOL    HW280560   0.365   6.638   0.387 -0.2600  0.2269 -0.3329
26280SOL     OW80561   7.895   3.361   3.876  0.0820  0.3395  0.5044
26280SOL    HW180562   7.898   3.405   3.961  1.1776 -2.5806  2.1011
26280SOL    HW280563   7.955   3.412   3.821  1.9585  0.4299  2.4962
26281SOL     OW80564   1.166   7.291   1.008 -0.1347  0.3232 -0.4103
26281SOL    HW180565   1.245   7.344   1.004  0.1181 -0.0463 -0.3481
26281SOL    HW280566   1.098   7.352   1.037 -0.1955  0.9899 -1.8708
26282SOL     OW80567   3.237   3.758   4.859  0.2553  0.5315 -0.1067
26282SOL    HW180568   3.217   3.810   4.782 -0.1668  0.6134  0.0583
26282SOL    HW280569   3.327   3.729   4.845  0.4654  1.2288 -0.2397
26283SOL     OW80570   0.204   2.115   4.235  0.2208  0.2238 -0.1011
26283SOL    HW180571   0.294   2.086   4.218  0.3859 -0.6917  2.0045
26283SOL    HW280572   0.159   2.037   4.267 -1.3054  0.7135 -0.9439
26284SOL     OW80573   0.214   1.341   7.429  0.6120  0.3919 -0.2928
26284SOL    HW180574   0.282   1.320   7.493 -0.0442  1.7909  0.9496
26284SOL    HW280575   0.143   1.280   7.448  1.4409 -1.0374 -1.5586
26285SOL     OW80576   4.290   2.387   6.236  0.0253 -0.1151 -0.2037
26285SOL    HW180577   4.369   2.410   6.187  1.5421 -0.9774  1.6882
26285SOL    HW280578   4.320   2.324   6.302 -1.9490  0.6832  1.5893
26286SOL     OW80579   9.672   7.047   3.934 -0.6815 -0.1310  0.1835
26286SOL    HW180580   9.613   7.009   3.868 -2.8749  0.9557  1.3865
26286SOL    HW280581   9.725   7.110   3.886  0.4884 -2.0664 -1.1764
26287SOL     OW80582   2.175   0.345   8.291 -0.0807  0.2930 -0.1713
26287SOL    HW180583   2.158   0.252   8.307 -1.0385  0.1567 -1.7595
26287SOL    HW280584   2.237   0.346   8.219 -0.4302  0.8852 -0.4684
26288SOL     OW80585   8.919   5.699   2.422 -0.2018  0.5419 -0.0569
26288SOL    HW180586   8.864   5.729   2.494 -1.0472 -0.5117 -0.2381
26288SOL    HW280587   8.993   5.759   2.422  0.2380  0.0819  2.1989
26289SOL     OW80588   9.467   3.610   1.666 -0.1779 -0.2516  0.1294
26289SOL    HW180589   9.371   3.611   1.664 -0.1751  0.1971 -0.3811
26289SOL    HW280590   9.490   3.565   1.746 -0.8210 -0.5101  0.1715
26290SOL     OW80591   2.823   5.856   5.187 -0.4870 -0.7854  0.2029
26290SOL    HW180592   2.911   5.826   5.212 -1.0850 -1.1257  2.0696
26290SOL    HW280593   2.766   5.782   5.206 -1.4430  0.1320  1.0118
26291SOL     OW80594   2.846   4.202   7.113  0.6299  0.4526 -0.2802
26291SOL    HW180595   2.930   4.178   7.074  0.6103 -0.5380  0.2646
26291SOL    HW280596   2.790   4.222   7.038  0.7765 -0.8136 -0.7454
26292SOL     OW80597   3.816   3.542   8.787 -0.1301 -0.0958 -0.3547
26292SOL    HW180598   3.751   3.540   8.716  1.4744 -0.4488 -1.8834
26292SOL    HW280599   3.886   3.485   8.756 -0.1234 -1.6959  2.3358
26293SOL     OW80600   9.100   2.999   6.666  0.4007  0.1819  0.8517
26293SOL    HW180601   9.181   3.048   6.681  1.1182 -0.6192 -0.3108
26293SOL    HW280602   9.116   2.913   6.705 -0.1713  0.2416  1.2404
26294SOL     OW80603   3.953   1.450   6.483  0.1062 -0.2599  0.0345
26294SOL    HW180604   4.012   1.424   6.412  0.6193  0.0416  0.3460
26294SOL    HW280605   4.008   1.500   6.543 -0.5477  0.3648  0.1361
26295SOL     OW80606   5.531   8.158   0.368 -0.0762 -0.0086 -0.3577
26295SOL    HW180607   5.452   8.153   0.422 -0.3912 -0.9436 -0.8666
26295SOL    HW280608   5.500   8.138   0.280  0.9327 -1.9759 -0.3336
26296SOL     OW80609   2.515   1.036   2.733 -0.1633 -0.6584 -0.7851
26296SOL    HW180610   2.423   1.022   2.754 -0.3729  1.1775 -0.3058
26296SOL    HW280611   2.534   0.972   2.665 -2.9110  1.4091 -3.8254
26297SOL     OW80612   7.919   6.575   7.000  0.1598  0.2037  0.1530
26297SOL    HW180613   7.916   6.670   7.006 -0.3835  0.0761  3.7781
26297SOL    HW280614   7.993   6.549   7.055  0.1880 -1.5081 -0.6238
26298SOL     OW80615   3.658   2.976   4.045  0.0284  0.1722 -0.1969
26298SOL    HW180616   3.613   2.969   4.129 -0.0911  2.2321 -0.0334
26298SOL    HW280617   3.746   2.944   4.062 -0.2845 -0.3622  0.4627
26299SOL     OW80618   3.303   4.849   2.362 -0.1832  0.0144 -0.6106
26299SOL    HW180619   3.216   4.838   2.401  0.4706 -1.7530  0.4556
26299SOL    HW280620   3.331   4.936   2.391 -0.4921 -0.5002  1.3807
26300SOL     OW80621   5.430   3.117   9.294 -0.0190 -0.2463  0.3574
26300SOL    HW180622   5.444   3.193   9.238 -0.5929 -2.3751 -2.9113
26300SOL    HW280623   5.511   3.066   9.288 -1.2086 -2.0645 -1.2452
26301SOL     OW80624   8.158   5.392   7.272  0.6177  0.0221  0.5677
26301SOL    HW180625   8.219   5.323   7.248  0.8149 -0.2669  1.8406
26301SOL    HW280626   8.079   5.346   7.302  0.8437  0.3187  1.6722
26302SOL     OW80627   6.560   1.378   0.787 -0.0122  0.4046 -0.4109
26302SOL    HW180628   6.469   1.383   0.757  0.0124  0.4220 -0.4842
26302SOL    HW280629   6.572   1.287   0.812 -0.3195  0.6015  0.4663
26303SOL     OW80630   5.060   7.168   0.804  0.1367 -0.3662  0.2443
26303SOL    HW180631   5.058   7.072   0.797 -1.3579 -0.4723  1.5059
26303SOL    HW280632   4.990   7.198   0.746  1.4595  0.0988 -1.1878
26304SOL     OW80633   8.060   4.538   0.188  0.3789 -0.3513  0.0519
26304SOL    HW180634   8.019   4.589   0.118 -1.8266 -1.4408  0.4418
26304SOL    HW280635   8.144   4.510   0.152 -1.0328 -1.5961 -2.5467
26305SOL     OW80636   2.756   4.242   7.632  0.2447  0.0247  0.2438
26305SOL    HW180637   2.815   4.301   7.677 -0.0927  0.3606  0.2545
26305SOL    HW280638   2.672   4.252   7.678  0.1891 -0.4794  0.2628
26306SOL     OW80639   7.051   6.640   2.877  0.0587 -0.1225  0.3773
26306SOL    HW180640   7.138   6.614   2.848 -0.8455 -1.5563 -1.2897
26306SOL    HW280641   7.018   6.564   2.925  0.1977  0.9245  2.2075
26307SOL     OW80642   5.027   3.896   1.349 -0.0006 -0.5200  0.0193
26307SOL    HW180643   4.986   3.982   1.361 -0.3883 -0.3666 -2.1386
26307SOL    HW280644   5.110   3.903   1.397 -0.9626  0.3020  1.6401
26308SOL     OW80645   2.464   2.221   9.550 -0.1196 -0.4815 -0.2549
26308SOL    HW180646   2.463   2.130   9.578  2.4671 -0.4985 -0.0377
26308SOL    HW280647   2.459   2.217   9.454 -1.4761 -0.7377 -0.1972
26309SOL     OW80648   2.647   3.228   2.173 -0.2958 -0.2784  0.4725
26309SOL    HW180649   2.691   3.286   2.111  1.7961 -0.1024  1.9851
26309SOL    HW280650   2.561   3.267   2.187 -0.4059  0.2515 -1.4808
26310SOL     OW80651   1.477   6.875   4.006  0.6184 -0.6888 -0.3797
26310SOL    HW180652   1.391   6.852   4.041  0.2020  2.1380  0.7043
26310SOL    HW280653   1.539   6.822   4.056 -0.3872 -1.4116  0.1189
26311SOL     OW80654   0.904   0.354   8.091  0.4790 -0.1780 -0.8005
26311SOL    HW180655   0.929   0.268   8.125  0.7249  0.2858  0.2309
26311SOL    HW280656   0.849   0.392   8.159  0.6039  0.5913 -1.1140
26312SOL     OW80657   4.150   6.984   9.111 -0.3850  0.3653 -0.1465
26312SOL    HW180658   4.222   6.986   9.048  0.6559  0.2897  1.0026
26312SOL    HW280659   4.189   6.948   9.191 -1.6613  0.4738  0.5517
26313SOL     OW80660   2.665   3.563   3.521  0.0288 -0.6114 -0.0545
26313SOL    HW180661   2.594   3.626   3.533 -0.0393 -0.8039  0.5996
26313SOL    HW280662   2.677   3.558   3.426 -1.2925 -1.0807 -0.2241
26314SOL     OW80663   3.134   1.158   9.066  0.2444  0.0991  0.2763
26314SOL    HW180664   3.202   1.200   9.120  0.3667  0.6905 -0.3235
26314SOL    HW280665   3.052   1.176   9.113  0.3713  0.4361  0.3745
26315SOL     OW80666   4.526   2.452   8.253  0.7677 -0.4873 -0.3020
26315SOL    HW180667   4.516   2.435   8.347 -0.2700 -0.8844 -0.4780
26315SOL    HW280668   4.529   2.548   8.247 -1.2361 -0.3621 -0.0308
26316SOL     OW80669   3.337   6.029   0.731 -0.6148 -0.0007 -0.9624
26316SOL    HW180670   3.266   6.029   0.796  1.4862  0.8827  1.4543
26316SOL    HW280671   3.310   6.095   0.667 -2.6377 -0.7270 -0.9582
26317SOL     OW80672   1.742   7.514   5.396 -0.0476  0.1368  0.1447
26317SOL    HW180673   1.755   7.522   5.302 -1.4492 -3.9652 -0.6329
26317SOL    HW280674   1.655   7.550   5.412  0.6333  1.8551  0.1472
26318SOL     OW80675   2.153   2.468   7.517  0.0659  0.1279  0.0094
26318SOL    HW180676   2.210   2.454   7.593 -0.6183 -0.4874  0.4298
26318SOL    HW280677   2.179   2.553   7.482  0.8952  0.0808  0.4923
26319SOL     OW80678   2.160   1.721   4.964  0.3158 -0.0477 -0.2693
26319SOL    HW180679   2.232   1.718   4.902  0.3429  0.2596 -0.2545
26319SOL    HW280680   2.097   1.783   4.926 -0.7636 -1.6254 -1.1530
26320SOL     OW80681   2.945   4.202   2.121  0.4582 -0.6920  0.9975
26320SOL    HW180682   2.918   4.110   2.131  2.2302 -1.2338  1.1673
26320SOL    HW280683   2.957   4.232   2.211 -1.3620  0.1317  0.9941
26321SOL     OW80684   0.222   4.888   3.133 -0.0025  0.5894 -0.1515
26321SOL    HW180685   0.265   4.806   3.112  0.0130  0.7253 -0.6652
26321SOL    HW280686   0.152   4.896   3.068  0.1757  1.1182 -0.2850
26322SOL     OW80687   5.833   0.733   5.930 -0.8098  0.2283 -0.0647
26322SOL    HW180688   5.837   0.752   6.023  2.9056  1.0772 -0.2560
26322SOL    HW280689   5.795   0.813   5.891 -0.2649  0.7962  0.5502
26323SOL     OW80690   7.481   8.998   5.919 -0.3559  0.0061 -0.5342
26323SOL    HW180691   7.540   9.071   5.902 -2.4282  2.1498  0.8464
26323SOL    HW280692   7.530   8.942   5.980  1.6085 -0.3141 -2.2952
26324SOL     OW80693   6.000   7.572   9.367  0.0704  0.0130  0.0247
26324SOL    HW180694   5.960   7.643   9.417  0.4419 -0.6419  1.2770
26324SOL    HW280695   6.063   7.533   9.426 -0.3019 -1.5271 -0.5451
26325SOL     OW80696   4.332   5.825   8.673 -0.1034  0.1257  0.2386
26325SOL    HW180697   4.368   5.741   8.700 -2.2883 -0.9157  0.1816
26325SOL    HW280698   4.248   5.802   8.633 -0.9322  2.3779  0.5713
26326SOL     OW80699   2.477   5.326   3.844  0.3749  0.0552 -0.3623
26326SOL    HW180700   2.388   5.361   3.849 -0.0950 -0.9336 -1.3604
26326SOL    HW280701   2.503   5.311   3.935 -0.0787  1.2789 -0.0079
26327SOL     OW80702   3.276   5.662   0.889 -0.2479  0.5581  0.0897
26327SOL    HW180703   3.233   5.599   0.947  1.9082 -1.1627 -0.0366
26327SOL    HW280704   3.256   5.747   0.927 -1.8005 -0.3050  1.3230
26328SOL     OW80705   7.288   3.017   3.283 -0.2089 -0.3019 -0.2337
26328SOL    HW180706   7.285   2.944   3.221 -0.4435 -0.1202 -0.4344
26328SOL    HW280707   7.358   3.074   3.250  2.4284 -2.1133  1.7834
26329SOL     OW80708   7.961   8.359   2.904 -1.2073 -0.3957 -0.0535
26329SOL    HW180709   7.866   8.371   2.901 -1.0538  0.8748 -1.6460
26329SOL    HW280710   7.995   8.437   2.860  0.6503 -0.1725  1.6323
26330SOL     OW80711   3.399   3.537   0.284 -0.0540 -0.2406 -0.0722
26330SOL    HW180712   3.394   3.582   0.368 -0.3534  1.7881 -1.1111
26330SOL    HW280713   3.491   3.511   0.277  0.1042  0.0828  0.6365
26331SOL     OW80714   9.430   2.106   7.243 -0.3651 -0.0880  0.5397
26331SOL    HW180715   9.440   2.196   7.214  1.4647 -0.0154  1.2501
26331SOL    HW280716   9.421   2.055   7.163 -2.8779  0.8289  0.1780
26332SOL     OW80717   5.903   6.275   8.016 -0.1779 -0.3612 -0.2994
26332SOL    HW180718   5.966   6.326   7.966  0.0256 -1.6551 -1.4557
26332SOL    HW280719   5.856   6.339   8.069  2.7861  0.5598  1.4476
26333SOL     OW80720   2.694   2.484   5.301 -0.1890  0.1273 -0.1437
26333SOL    HW180721   2.728   2.562   5.346 -0.9461 -0.5345  1.6956
26333SOL    HW280722   2.762   2.418   5.312  0.1572  0.3097 -1.1012
26334SOL     OW80723   7.039   3.215   6.409 -0.0090  0.7176  0.2625
26334SOL    HW180724   7.112   3.157   6.428 -1.1850 -1.4694 -1.3840
26334SOL    HW280725   7.033   3.272   6.485  2.1250 -0.3605  1.3327
26335SOL     OW80726   5.006   1.170   4.297 -0.2429  0.1392 -0.3980
26335SOL    HW180727   4.932   1.157   4.238 -0.1266  3.1366 -1.4041
26335SOL    HW280728   5.075   1.114   4.261 -0.9385  0.0304 -1.6337
26336SOL     OW80729   6.345   2.800   6.367 -1.1073  0.6630  0.4213
26336SOL    HW180730   6.320   2.786   6.276  1.2423 -1.0175 -0.0555
26336SOL    HW280731   6.382   2.888   6.368  1.4150 -0.2877 -0.9611
26337SOL     OW80732   4.382   0.918   4.578  0.4029  0.1840 -0.3926
26337SOL    HW180733   4.463   0.867   4.568  1.0619  0.9234  0.8558
26337SOL    HW280734   4.407   0.990   4.636 -1.4638 -0.2440  1.0289
26338SOL     OW80735   8.995   9.076   6.422  0.0202 -0.0798 -0.3224
26338SOL    HW180736   9.030   8.995   6.385  0.6722 -1.2847  2.6522
26338SOL    HW280737   9.064   9.107   6.481 -0.7389  1.9831 -0.4487
26339SOL     OW80738   1.342   8.473   3.806 -0.6143  0.2800 -0.1526
26339SOL    HW180739   1.380   8.420   3.736 -0.4964 -0.4400  0.4434
26339SOL    HW280740   1.270   8.520   3.764 -0.7535 -0.3964 -0.6891
26340SOL     OW80741   1.269   0.539   6.299 -0.0960  0.6143 -0.3207
26340SOL    HW180742   1.173   0.538   6.299 -0.1006 -0.8694  0.4215
26340SOL    HW280743   1.294   0.458   6.343  1.5166 -0.3150 -2.7487
26341SOL     OW80744   1.283   2.116   0.053 -0.4569  0.5196 -0.3158
26341SOL    HW180745   1.314   2.025   0.046  0.2232  0.5517  1.6522
26341SOL    HW280746   1.281   2.133   0.147  0.8187  3.0205 -0.6530
26342SOL     OW80747   0.601   3.342   6.556  0.5954  0.0626  0.0419
26342SOL    HW180748   0.604   3.423   6.506 -0.9158  0.2838  0.2464
26342SOL    HW280749   0.619   3.368   6.646 -0.8765  0.3743  0.2774
26343SOL     OW80750   9.643   5.734   9.039  0.3356 -0.2567  0.3092
26343SOL    HW180751   9.673   5.692   8.958 -0.2867 -0.4090  0.1511
26343SOL    HW280752   9.570   5.680   9.068  0.3994 -0.0590  0.8442
26344SOL     OW80753   7.515   5.423   9.589  0.1834  0.3821 -0.0233
26344SOL    HW180754   7.486   5.373   9.513 -1.1196 -1.0675  1.3504
26344SOL    HW280755   7.604   5.392   9.606  0.6375  0.9960 -1.1253
26345SOL     OW80756   8.386   1.947   2.181 -0.2880  0.1993 -0.3122
26345SOL    HW180757   8.303   1.985   2.209  0.9612  2.3507  0.7335
26345SOL    HW280758   8.416   2.004   2.110 -0.6911 -1.8680 -2.2486
26346SOL     OW80759   2.649   2.805   2.880 -0.2436  0.3877 -0.8157
26346SOL    HW180760   2.711   2.798   2.807 -0.0910 -0.9891 -0.5758
26346SOL    HW280761   2.690   2.866   2.941  2.9517 -3.3854  1.2715
26347SOL     OW80762   4.089   7.725   8.891 -0.5128  0.1233  0.0665
26347SOL    HW180763   4.082   7.736   8.986  1.7932  0.4779  0.2515
26347SOL    HW280764   4.079   7.631   8.877  0.0770 -0.0598  0.7878
26348SOL     OW80765   7.523   9.439   6.767 -0.0639  0.6631  0.2516
26348SOL    HW180766   7.542   9.528   6.740 -0.3031  0.4986 -0.4774
26348SOL    HW280767   7.508   9.391   6.685  1.3425 -0.3507  0.5387
26349SOL     OW80768   8.010   1.272   6.009  1.0573  0.0112 -0.0189
26349SOL    HW180769   7.952   1.319   5.949  2.8382 -0.3826 -2.1925
26349SOL    HW280770   7.951   1.226   6.069 -0.7823  1.7360 -0.4182
26350SOL     OW80771   1.211   2.024   1.831 -0.1217 -0.2589 -0.4322
26350SOL    HW180772   1.220   2.098   1.892 -0.6182 -0.0604 -0.5920
26350SOL    HW280773   1.117   2.018   1.816 -0.4670 -2.7594  1.8627
26351SOL     OW80774   2.769   5.631   6.293 -0.9619  0.2520 -0.1135
26351SOL    HW180775   2.846   5.687   6.306 -1.3417  0.9842 -0.9265
26351SOL    HW280776   2.736   5.614   6.381  0.1087 -0.0571  0.2442
26352SOL     OW80777   0.497   6.417   9.171 -0.4060  0.2396 -0.0144
26352SOL    HW180778   0.437   6.466   9.227  2.3659  2.3204  1.3694
26352SOL    HW280779   0.565   6.480   9.147  3.1359 -2.6584  1.4196
26353SOL     OW80780   4.946   3.586   0.248  0.0004 -0.3708  0.0193
26353SOL    HW180781   5.000   3.513   0.277  0.3603 -0.6079 -1.2101
26353SOL    HW280782   4.988   3.617   0.168 -0.0308  1.3157  0.6160
26354SOL     OW80783   5.479   5.541   2.453 -0.4589 -0.2858 -0.1952
26354SOL    HW180784   5.505   5.628   2.484 -0.6489 -0.4443  0.4176
26354SOL    HW280785   5.388   5.551   2.426 -0.1552 -0.0341 -1.1654
26355SOL     OW80786   8.469   7.213   6.210 -0.3694  0.4766 -0.4955
26355SOL    HW180787   8.564   7.219   6.223 -0.4135  0.6336 -0.2538
26355SOL    HW280788   8.458   7.140   6.149 -0.1166  0.2334 -0.2512
26356SOL     OW80789   8.010   1.119   9.072  0.1367  0.4964 -0.4589
26356SOL    HW180790   7.987   1.104   8.980 -1.2469  2.4296 -0.4841
26356SOL    HW280791   7.926   1.122   9.118  0.7614  0.5779  0.7199
26357SOL     OW80792   8.500   0.729   5.186 -0.2681  0.4113 -0.4348
26357SOL    HW180793   8.576   0.766   5.142 -0.9644  0.3352 -1.7526
26357SOL    HW280794   8.502   0.636   5.163 -0.4324  0.2866  0.0313
26358SOL     OW80795   1.357   8.057   6.855  0.1456 -0.0608 -0.1664
26358SOL    HW180796   1.279   8.083   6.806  1.2724  0.7986 -1.6077
26358SOL    HW280797   1.425   8.046   6.787  1.6861  0.8272  1.1610
26359SOL     OW80798   2.347   8.709   9.508  0.2447 -0.1962 -0.1234
26359SOL    HW180799   2.278   8.756   9.462  0.8754  1.6842  0.7455
26359SOL    HW280800   2.319   8.618   9.506 -2.6222  0.5509  0.7869
26360SOL     OW80801   0.112   0.016   8.810 -0.8033 -0.2680 -0.0202
26360SOL    HW180802   0.102   0.088   8.873 -0.9244  0.2532 -0.6206
26360SOL    HW280803   0.117   0.060   8.725  2.5812 -0.7288 -0.1685
26361SOL     OW80804   5.236   4.522   1.166 -0.5996 -0.0171  0.1263
26361SOL    HW180805   5.262   4.450   1.224 -1.2614 -0.2817  0.1087
26361SOL    HW280806   5.151   4.494   1.131 -0.9096  0.8264  0.1951
26362SOL     OW80807   3.880   7.519   4.466 -0.0797 -0.4657  0.1829
26362SOL    HW180808   3.954   7.463   4.491 -0.7353 -2.1679 -1.4935
26362SOL    HW280809   3.814   7.502   4.533  0.4634 -0.1495  0.8052
26363SOL     OW80810   3.367   1.642   8.142 -0.2096  0.1277  0.0180
26363SOL    HW180811   3.371   1.547   8.133  1.2513  0.1973 -0.3041
26363SOL    HW280812   3.459   1.670   8.149 -0.6634  1.3497  1.8633
26364SOL     OW80813   6.256   4.299   6.216 -0.6426 -0.0980  0.4630
26364SOL    HW180814   6.250   4.232   6.283  1.2079  0.5070  1.2943
26364SOL    HW280815   6.342   4.287   6.177 -1.9437 -0.9698 -2.4550
26365SOL     OW80816   0.399   3.752   7.573  1.1077 -0.2404 -0.1660
26365SOL    HW180817   0.366   3.814   7.508 -1.4075 -1.7577 -0.4578
26365SOL    HW280818   0.468   3.801   7.619  0.4433  2.1383 -1.5106
26366SOL     OW80819   2.470   1.921   2.599  0.1599  0.0667  0.0548
26366SOL    HW180820   2.408   1.993   2.599 -0.6022 -0.5776  0.1578
26366SOL    HW280821   2.532   1.943   2.670 -0.8376 -0.0289  0.9795
26367SOL     OW80822   7.167   2.272   5.705  0.0932 -0.0223  0.2249
26367SOL    HW180823   7.134   2.224   5.629 -1.8319 -1.0818  1.6719
26367SOL    HW280824   7.183   2.205   5.771 -1.0454  1.1149  1.7224
26368SOL     OW80825   4.150   8.118   4.260 -0.0798 -0.6402 -0.0171
26368SOL    HW180826   4.116   8.152   4.343 -0.5500  0.0116 -0.4702
26368SOL    HW280827   4.225   8.173   4.240  0.0623 -0.8279 -0.0056
26369SOL     OW80828   0.814   5.569   5.158 -0.9105 -0.4963 -0.5600
26369SOL    HW180829   0.763   5.593   5.081  0.1058  2.1320 -0.5162
26369SOL    HW280830   0.885   5.514   5.124 -0.4513  0.6632 -1.5466
26370SOL     OW80831   5.136   7.446   4.827 -0.0209  1.0476  0.2225
26370SOL    HW180832   5.114   7.355   4.847  1.4689  1.0691  2.3278
26370SOL    HW280833   5.078   7.469   4.755 -1.3135 -1.1735  0.4450
26371SOL     OW80834   3.320   5.925   0.130  0.0162 -0.5103 -0.2777
26371SOL    HW180835   3.369   5.882   0.200  0.8875  1.7029  0.5561
26371SOL    HW280836   3.261   5.986   0.174  2.8397  3.3720 -1.2921
26372SOL     OW80837   1.548   2.351   9.096  0.5274 -0.1840 -0.3172
26372SOL    HW180838   1.509   2.412   9.160  0.6622 -2.8845  2.5952
26372SOL    HW280839   1.477   2.331   9.036 -0.5653  0.1581  0.8111
26373SOL     OW80840   4.002   4.216   7.580  0.5300  0.4854  0.6647
26373SOL    HW180841   3.988   4.234   7.673  0.8728 -1.5276  1.1670
26373SOL    HW280842   3.916   4.191   7.548  0.0291  2.8736 -0.0553
26374SOL     OW80843   8.490   0.826   8.459 -0.6036 -0.1421  0.3239
26374SOL    HW180844   8.546   0.868   8.394 -1.4302  1.5362  0.6474
26374SOL    HW280845   8.537   0.746   8.483  0.2876 -0.2031 -1.4415
26375SOL     OW80846   9.460   9.417   8.919  0.1914 -0.4632 -0.1579
26375SOL    HW180847   9.403   9.352   8.961  0.2794 -0.2681  0.2658
26375SOL    HW280848   9.402   9.492   8.904 -0.0742 -0.8454 -1.2172
26376SOL     OW80849   9.398   7.428   6.572 -0.0859 -0.3280 -0.6306
26376SOL    HW180850   9.392   7.475   6.655  0.0990 -0.4716 -0.5344
26376SOL    HW280851   9.335   7.357   6.580 -0.3522 -0.1090 -0.7689
26377SOL     OW80852   6.080   3.977   0.254  0.5031  0.2746 -0.8028
26377SOL    HW180853   6.057   3.978   0.161 -0.3349  1.9902 -0.6409
26377SOL    HW280854   6.070   3.886   0.281  1.2477 -0.3419 -2.4852
26378SOL     OW80855   2.907   5.337   1.893 -0.2954 -0.2491 -0.2443
26378SOL    HW180856   2.841   5.302   1.833 -3.4506  2.1741  1.5137
26378SOL    HW280857   2.934   5.419   1.853  0.1287 -0.2585  0.0227
26379SOL     OW80858   0.929   5.599   8.265  0.1987 -0.5201 -0.1183
26379SOL    HW180859   0.913   5.506   8.277 -0.0051 -0.8581 -2.6225
26379SOL    HW280860   1.018   5.612   8.298  0.4038 -1.6793 -0.1756
26380SOL     OW80861   2.641   5.031   5.553  0.2256 -0.4334  0.2979
26380SOL    HW180862   2.682   5.074   5.478  0.5942 -1.5746 -0.1839
26380SOL    HW280863   2.557   5.000   5.519  0.4157 -0.9955  0.3269
26381SOL     OW80864   6.222   4.769   1.038  0.2118 -0.1127  0.0877
26381SOL    HW180865   6.228   4.675   1.024 -0.1872 -0.0261 -0.7050
26381SOL    HW280866   6.136   4.794   1.002  0.1839  0.5071  0.5518
26382SOL     OW80867   4.671   9.099   5.431 -0.3737  0.2194 -0.0161
26382SOL    HW180868   4.714   9.040   5.492 -0.7863  1.1891  1.2607
26382SOL    HW280869   4.589   9.123   5.474 -0.6426  1.0002 -0.9138
26383SOL     OW80870   6.073   6.039   8.419 -0.1046  0.0989 -0.0018
26383SOL    HW180871   5.980   6.051   8.438 -0.9001 -3.8120 -0.5927
26383SOL    HW280872   6.081   6.058   8.326 -0.6981 -1.0466 -0.3040
26384SOL     OW80873   6.003   7.185   8.108  0.0212 -0.4511 -0.3557
26384SOL    HW180874   6.033   7.146   8.190  1.4609  0.9798 -0.1644
26384SOL    HW280875   5.967   7.111   8.058 -1.4941 -1.2419  1.7917
26385SOL     OW80876   5.251   3.762   8.290 -0.2906  0.1204  0.1856
26385SOL    HW180877   5.187   3.833   8.297 -0.7482 -0.3558  0.9654
26385SOL    HW280878   5.200   3.687   8.261  0.0059 -0.1424  0.3395
26386SOL     OW80879   8.075   3.569   9.439  0.3077  0.3781 -0.6550
26386SOL    HW180880   8.096   3.599   9.351 -1.8507  0.5284 -1.1810
26386SOL    HW280881   7.987   3.603   9.456  0.8275  0.7438  1.7590
26387SOL     OW80882   0.308   4.430   6.988  0.3763  0.5663 -0.3469
26387SOL    HW180883   0.319   4.384   6.906 -0.5796  0.7440 -0.5920
26387SOL    HW280884   0.353   4.514   6.976 -0.9543  1.1869 -1.2234
26388SOL     OW80885   6.561   0.916   3.955 -0.5925  0.2556  0.3048
26388SOL    HW180886   6.626   0.987   3.961 -0.9488  0.5764  0.4114
26388SOL    HW280887   6.611   0.840   3.926 -0.5726  1.0818 -2.0394
26389SOL     OW80888   8.247   4.443   3.652  0.0116 -0.0241 -0.2992
26389SOL    HW180889   8.313   4.435   3.721 -1.3088 -0.2759  0.9831
26389SOL    HW280890   8.298   4.454   3.572  1.6372  2.5902  0.9286
26390SOL     OW80891   4.061   4.030   4.240  0.8532 -0.4366  0.1452
26390SOL    HW180892   4.106   4.106   4.276  1.8856 -0.7971 -0.3464
26390SOL    HW280893   3.968   4.047   4.256  1.1593  0.3204  1.1859
26391SOL     OW80894   8.171   0.259   4.352  0.1106 -0.4466 -0.0555
26391SOL    HW180895   8.219   0.328   4.306  0.6943  0.2008  1.4353
26391SOL    HW280896   8.098   0.305   4.395 -0.1920 -0.9579 -0.0236
26392SOL     OW80897   2.510   6.881   5.970  0.4721 -0.0892  0.4831
26392SOL    HW180898   2.511   6.976   5.960  1.6028  0.0727  1.7848
26392SOL    HW280899   2.556   6.848   5.893  2.0612  0.5835  1.1062
26393SOL     OW80900   0.124   2.268   4.840 -0.2939 -0.0093 -0.1301
26393SOL    HW180901   0.142   2.251   4.932 -0.0614  0.2147 -0.1361
26393SOL    HW280902   0.208   2.294   4.803 -0.6710  1.3086 -0.0926
26394SOL     OW80903   1.715   6.788   3.075  0.6424  0.0753  0.5244
26394SOL    HW180904   1.719   6.883   3.068  2.1841 -0.0488 -0.9490
26394SOL    HW280905   1.760   6.756   2.997 -0.8069 -1.8930  0.4172
26395SOL     OW80906   0.054   4.207   2.884 -0.0804  0.6703 -0.4955
26395SOL    HW180907   0.024   4.151   2.955 -0.1662  1.5947  0.2259
26395SOL    HW280908   0.101   4.278   2.928 -0.3321  1.3786 -1.3453
26396SOL     OW80909   1.405   5.342   9.556 -0.1550 -0.2292 -0.1002
26396SOL    HW180910   1.342   5.403   9.517 -0.5822 -0.4247  0.2631
26396SOL    HW280911   1.490   5.384   9.544 -0.3646  0.0904 -0.5093
26397SOL     OW80912   7.856   5.829   8.783  0.2294  0.0680  0.1892
26397SOL    HW180913   7.882   5.905   8.730 -0.0951  1.2883  1.7155
26397SOL    HW280914   7.771   5.804   8.749  0.1166  0.7045 -0.0064
26398SOL     OW80915   4.049   6.223   4.308  0.5254 -0.3109  0.1293
26398SOL    HW180916   4.058   6.318   4.308 -0.8086 -0.1654 -0.0038
26398SOL    HW280917   4.138   6.190   4.319  1.0749  0.9399 -0.4408
26399SOL     OW80918   5.689   9.484   4.774 -0.1812  0.0746  0.0390
26399SOL    HW180919   5.600   9.461   4.802 -1.1356  2.0817 -1.1146
26399SOL    HW280920   5.714   9.556   4.832  0.9933 -0.8708  0.7615
26400SOL     OW80921   5.141   9.408   5.268 -0.1650  0.6531  0.5266
26400SOL    HW180922   5.138   9.320   5.231  1.0366 -0.1946  2.3026
26400SOL    HW280923   5.235   9.427   5.276 -0.3700  2.6170 -0.8988
26401SOL     OW80924   9.339   3.925   1.151 -0.5241 -0.0777  0.0942
26401SOL    HW180925   9.365   4.004   1.199 -2.6311  0.9580 -0.3566
26401SOL    HW280926   9.361   3.944   1.060 -3.7684  1.4260 -0.5436
26402SOL     OW80927   2.665   5.302   8.155 -0.1185 -0.4291 -0.1141
26402SOL    HW180928   2.677   5.366   8.224 -0.6257  1.0144 -1.3160
26402SOL    HW280929   2.716   5.226   8.183 -0.9941 -0.2376  2.2469
26403SOL     OW80930   8.441   9.316   4.024  0.3947 -0.1688  0.1483
26403SOL    HW180931   8.472   9.406   4.016  0.3478 -0.1722 -0.0648
26403SOL    HW280932   8.386   9.302   3.947  0.9918 -0.6163 -0.2044
26404SOL     OW80933   9.423   7.961   4.698  0.3886  0.3971  0.5211
26404SOL    HW180934   9.430   8.037   4.756  1.1000 -0.1787  1.2128
26404SOL    HW280935   9.513   7.943   4.671  0.2894 -0.5026  0.7677
26405SOL     OW80936   0.524   0.882   5.895 -0.6660  0.4046 -0.4225
26405SOL    HW180937   0.537   0.856   5.804  2.7010  0.9217 -0.2019
26405SOL    HW280938   0.560   0.970   5.901 -0.7904  0.3769  1.4248
26406SOL     OW80939   4.982   1.268   9.352 -0.0344 -0.1154  0.6559
26406SOL    HW180940   4.926   1.191   9.347  0.8126 -0.6799 -2.2325
26406SOL    HW280941   5.034   1.255   9.432 -1.0264 -1.6948  1.0880
26407SOL     OW80942   7.153   9.326   1.228  0.2125 -0.2345  0.2198
26407SOL    HW180943   7.165   9.260   1.297  0.5239  1.4623  1.8841
26407SOL    HW280944   7.064   9.358   1.241  0.8617  1.3554  1.0710
26408SOL     OW80945   4.519   3.768   1.393  0.3436 -0.0750 -0.2927
26408SOL    HW180946   4.465   3.691   1.379  0.2968 -0.3521  1.2517
26408SOL    HW280947   4.526   3.809   1.306 -1.8985 -0.3078 -0.6289
26409SOL     OW80948   9.649   0.098   3.736 -0.6581  0.0775  0.2390
26409SOL    HW180949   9.696   0.027   3.780 -1.2768  0.5020  1.6461
26409SOL    HW280950   9.567   0.058   3.708 -1.9211  0.6454  2.8416
26410SOL     OW80951   5.859   8.287   7.168  0.3467 -0.0723 -0.3424
26410SOL    HW180952   5.916   8.211   7.157 -0.4993 -0.5650 -1.5390
26410SOL    HW280953   5.890   8.350   7.104  0.5805  0.3108  0.1421
26411SOL     OW80954   8.339   4.603   1.581  0.2485  0.1774  0.2009
26411SOL    HW180955   8.272   4.671   1.584 -1.1088 -1.1194  0.3814
26411SOL    HW280956   8.413   4.641   1.628  0.2606  2.2535 -1.3425
26412SOL     OW80957   0.441   0.444   5.041  0.3776  0.0599  0.2257
26412SOL    HW180958   0.481   0.470   4.959 -0.2746 -0.1269 -0.1589
26412SOL    HW280959   0.363   0.395   5.015  1.2623 -1.8229  0.9070
26413SOL     OW80960   1.663   8.414   4.881  0.0032  0.3194  0.0443
26413SOL    HW180961   1.723   8.358   4.930  0.1454  0.1341 -0.3372
26413SOL    HW280962   1.688   8.503   4.904 -0.2458  0.2316  0.6850
26414SOL     OW80963   3.971   5.997   4.880  0.3550 -0.6057  0.2085
26414SOL    HW180964   4.047   6.054   4.866 -0.4376  0.1971 -1.1044
26414SOL    HW280965   3.983   5.926   4.817  0.0575 -0.5102  0.0425
26415SOL     OW80966   9.415   3.295   4.368 -0.4998  0.2006  0.5280
26415SOL    HW180967   9.358   3.356   4.415  0.2758  0.8387  0.6487
26415SOL    HW280968   9.502   3.335   4.372 -0.0851 -0.6460  0.1351
26416SOL     OW80969   2.751   5.607   3.887 -0.2240 -0.4099 -0.2647
26416SOL    HW180970   2.781   5.656   3.811  1.4923 -1.5019 -0.3324
26416SOL    HW280971   2.697   5.670   3.935  1.3957  1.3796 -0.6362
26417SOL     OW80972   9.011   9.667   3.737 -0.2053  0.5914 -0.5204
26417SOL    HW180973   9.072   9.683   3.665 -1.8537  0.5566 -1.9875
26417SOL    HW280974   9.064   9.625   3.805  1.0940 -0.8316 -2.3268
26418SOL     OW80975   7.653   7.421   7.100 -0.0459  0.4263 -0.2452
26418SOL    HW180976   7.676   7.340   7.055 -0.8529 -0.6648  1.2054
26418SOL    HW280977   7.706   7.420   7.180 -1.7761  0.0973  0.9519
26419SOL     OW80978   0.972   8.279   8.840 -0.4720  0.4053  0.5238
26419SOL    HW180979   0.882   8.305   8.819 -0.4337 -0.0602 -0.2510
26419SOL    HW280980   0.966   8.186   8.861  0.0634 -0.0366 -1.1540
26420SOL     OW80981   3.955   6.699   5.569 -0.1482 -0.3748 -0.3113
26420SOL    HW180982   3.945   6.788   5.602 -1.0616  0.0835 -1.7562
26420SOL    HW280983   3.926   6.703   5.478 -0.6742 -2.2537 -0.2729
26421SOL     OW80984   5.498   4.233   3.361 -0.1935  0.0556  0.2861
26421SOL    HW180985   5.435   4.217   3.432  0.2855  0.6473  0.8527
26421SOL    HW280986   5.567   4.168   3.376 -1.3257 -1.5790 -1.1834
26422SOL     OW80987   4.722   3.390   9.028 -0.1453 -0.7797 -0.3188
26422SOL    HW180988   4.649   3.443   9.061 -0.1887 -0.7332 -0.4884
26422SOL    HW280989   4.794   3.406   9.089 -0.2506 -0.7559 -0.2023
26423SOL     OW80990   1.134   7.422   9.017 -1.2686 -0.4099 -0.1773
26423SOL    HW180991   1.083   7.420   9.098 -1.5394  0.5906 -0.3061
26423SOL    HW280992   1.199   7.490   9.032 -1.1213 -0.4337 -0.6895
26424SOL     OW80993   7.243   3.543   2.729 -1.0176 -0.4648 -0.4493
26424SOL    HW180994   7.272   3.583   2.811 -1.2583 -0.9916 -0.0985
26424SOL    HW280995   7.263   3.608   2.662  0.3014 -0.5108 -0.1313
26425SOL     OW80996   2.391   7.189   8.642  0.1705 -0.4029  0.0080
26425SOL    HW180997   2.345   7.168   8.561  1.3253 -0.0644 -0.7601
26425SOL    HW280998   2.463   7.245   8.614 -0.0416  0.6187  1.4145
26426SOL     OW80999   7.634   8.861   0.880 -0.0125 -0.0557 -0.2057
26426SOL    HW181000   7.560   8.921   0.888  1.8131  2.4740 -0.8657
26426SOL    HW281001   7.609   8.801   0.810 -2.4190 -0.9799  1.3247
26427SOL     OW81002   0.312   0.831   8.172  0.1713  0.2030 -0.1142
26427SOL    HW181003   0.354   0.865   8.252  1.1459  0.6737 -0.8127
26427SOL    HW281004   0.270   0.908   8.133  1.9364  0.5531 -1.4219
26428SOL     OW81005   1.451   4.026   4.797  0.0404  0.6240 -0.2822
26428SOL    HW181006   1.364   3.989   4.781  0.1039 -0.0496  0.8668
26428SOL    HW281007   1.507   3.951   4.815  0.9728  1.0158 -1.4053
26429SOL     OW81008   7.251   3.273   7.864  0.5263 -0.0753 -0.1050
26429SOL    HW181009   7.155   3.265   7.864  0.5717 -0.7939 -0.6953
26429SOL    HW281010   7.281   3.189   7.829  1.3536  0.3380 -0.3946
26430SOL     OW81011   6.045   7.303   7.051  0.1796  0.0180 -0.6064
26430SOL    HW181012   5.958   7.311   7.091  1.3154 -2.0004  2.7053
26430SOL    HW281013   6.097   7.371   7.093  1.2964 -1.8633  1.2614
26431SOL     OW81014   2.306   8.915   7.748  0.5048  0.2935 -0.3697
26431SOL    HW181015   2.253   8.968   7.688 -0.8764  0.0884  0.6365
26431SOL    HW281016   2.276   8.940   7.835  0.7117 -1.2330  0.1597
26432SOL     OW81017   7.593   3.384   1.655 -0.0333 -0.2527  0.0367
26432SOL    HW181018   7.678   3.353   1.624  0.0371 -1.2466  1.1587
26432SOL    HW281019   7.614   3.460   1.709  0.1532 -0.4490  0.2482
26433SOL     OW81020   6.518   7.681   1.861  0.4618  0.4695  0.2806
26433SOL    HW181021   6.486   7.738   1.791  0.4874 -0.3701 -0.4319
26433SOL    HW281022   6.586   7.732   1.905  1.7776  0.3528 -1.4939
26434SOL     OW81023   2.131   4.068   5.451  0.3405 -0.0784  0.1100
26434SOL    HW181024   2.142   3.985   5.404 -0.1863 -0.3596  0.4706
26434SOL    HW281025   2.216   4.084   5.491  0.8482  0.2477 -1.0597
26435SOL     OW81026   8.375   5.381   4.782 -0.0131  0.5433  0.4235
26435SOL    HW181027   8.313   5.310   4.769  1.8067 -0.8665 -1.0764
26435SOL    HW281028   8.448   5.360   4.724  2.0471  1.9287  2.3570
26436SOL     OW81029   4.147   8.491   2.774 -0.1849 -0.5477  0.7480
26436SOL    HW181030   4.174   8.469   2.685 -0.9996 -3.0332  1.0454
26436SOL    HW281031   4.068   8.544   2.763  0.7278  0.7326  0.0217
26437SOL     OW81032   5.611   0.157   8.657  0.1655 -0.2097 -0.5919
26437SOL    HW181033   5.551   0.170   8.730  0.2869 -0.8306 -0.3781
26437SOL    HW281034   5.570   0.086   8.606  0.3440 -0.1305 -0.8441
26438SOL     OW81035   3.761   9.096   6.421  1.1848 -0.1319  0.3474
26438SOL    HW181036   3.830   9.084   6.487  1.8383  0.5140 -0.2006
26438SOL    HW281037   3.797   9.160   6.360  0.7164 -0.9634 -0.8353
26439SOL     OW81038   9.371   5.828   2.473  0.0704  0.5988  0.8242
26439SOL    HW181039   9.398   5.896   2.535  2.1231 -1.4856  2.3864
26439SOL    HW281040   9.452   5.782   2.451 -1.4480 -3.0569  2.0551
26440SOL     OW81041   6.631   5.596   3.197  0.3271 -0.0252  0.2239
26440SOL    HW181042   6.553   5.648   3.218  0.4913 -0.0735  0.9868
26440SOL    HW281043   6.619   5.569   3.106 -0.0757  0.8013  0.0250
26441SOL     OW81044   8.142   8.080   8.050 -0.2057 -0.0730 -0.1635
26441SOL    HW181045   8.094   8.161   8.066 -0.7858 -0.9186  3.1049
26441SOL    HW281046   8.079   8.022   8.009 -1.0530 -0.0922  1.1003
26442SOL     OW81047   8.712   4.912   4.273  0.3675 -0.1160  0.6691
26442SOL    HW181048   8.799   4.900   4.310  2.2611  1.7597 -2.6435
26442SOL    HW281049   8.695   4.831   4.225  1.4549  0.3856 -0.6282
26443SOL     OW81050   6.145   7.488   0.568 -0.0346 -0.3038 -0.1564
26443SOL    HW181051   6.212   7.541   0.613 -1.9731  1.6304  0.6510
26443SOL    HW281052   6.147   7.519   0.477 -0.2609  0.2659  0.0232
26444SOL     OW81053   6.112   1.030   5.315  0.1438 -0.2900 -0.1597
26444SOL    HW181054   6.079   1.029   5.226 -2.0434  0.2255  0.5764
26444SOL    HW281055   6.114   0.938   5.342 -1.6319 -0.2977  0.0527
26445SOL     OW81056   5.465   0.177   5.300  0.3759 -0.0374  0.1977
26445SOL    HW181057   5.500   0.243   5.360  0.4999 -0.8176  1.0068
26445SOL    HW281058   5.370   0.189   5.304  0.4417  1.6635 -1.5191
26446SOL     OW81059   0.662   5.276   3.695  0.1104 -0.6479 -0.1952
26446SOL    HW181060   0.675   5.338   3.767  1.1184 -0.5538 -0.4473
26446SOL    HW281061   0.657   5.330   3.617 -0.1466 -0.8111 -0.2927
26447SOL     OW81062   7.655   8.807   6.739 -0.6096  0.4133  0.4085
26447SOL    HW181063   7.695   8.759   6.811 -0.9523 -0.5564 -0.0321
26447SOL    HW281064   7.729   8.838   6.686 -0.3969 -1.4849 -0.4794
26448SOL     OW81065   5.072   1.250   3.955  0.0045 -0.1686 -0.1522
26448SOL    HW181066   5.123   1.309   3.900 -0.2037  1.4081  1.2670
26448SOL    HW281067   5.014   1.307   4.005  0.2406 -1.5032  1.7740
26449SOL     OW81068   5.613   8.947   9.143 -0.1075 -0.7837 -0.8806
26449SOL    HW181069   5.577   8.897   9.069 -0.1226 -0.4614 -1.0956
26449SOL    HW281070   5.556   8.926   9.216  0.6642 -2.1121 -0.6310
26450SOL     OW81071   8.446   7.670   8.833  0.3557  0.3671 -0.2329
26450SOL    HW181072   8.378   7.628   8.781  0.8699  0.0211 -0.6270
26450SOL    HW281073   8.412   7.759   8.849  0.1507  0.4429 -1.0602
26451SOL     OW81074   0.964   3.271   1.395 -0.0873  0.4069 -0.0862
26451SOL    HW181075   0.891   3.295   1.452 -0.5436 -1.4977  0.1890
26451SOL    HW281076   1.042   3.278   1.452 -0.4483 -0.7400  0.5656
26452SOL     OW81077   7.131   1.177   0.877 -0.2480 -0.1690  0.5192
26452SOL    HW181078   7.104   1.086   0.893 -0.5977 -0.7303 -2.5409
26452SOL    HW281079   7.048   1.226   0.874 -0.1729 -0.0292  0.7528
26453SOL     OW81080   8.005   7.837   1.075  0.4181  0.1739 -0.4437
26453SOL    HW181081   7.931   7.889   1.043 -0.4546 -0.5099  0.4225
26453SOL    HW281082   8.061   7.900   1.121  0.0035  0.5676 -0.4728
26454SOL     OW81083   3.016   8.973   7.084 -0.6008 -0.2150 -0.1723
26454SOL    HW181084   2.980   9.001   7.000 -0.3738 -0.9508 -0.5259
26454SOL    HW281085   3.053   9.053   7.122 -0.6300  0.1108 -0.8099
26455SOL     OW81086   1.465   3.648   2.891  0.6063 -0.6866 -0.2464
26455SOL    HW181087   1.445   3.664   2.983 -0.1857  0.8405 -0.6369
26455SOL    HW281088   1.544   3.700   2.874 -0.7834  1.3086 -1.0280
26456SOL     OW81089   4.212   7.521   3.272  0.0592 -0.1255  0.1808
26456SOL    HW181090   4.200   7.557   3.184 -1.1918 -1.4702 -0.2275
26456SOL    HW281091   4.292   7.468   3.265 -1.1092 -1.8765 -0.7561
26457SOL     OW81092   7.833   9.007   0.634  0.1389  0.2573  0.5296
26457SOL    HW181093   7.861   9.048   0.552  1.1851  1.1230  1.2861
26457SOL    HW281094   7.856   8.915   0.624  1.1082  0.5250  0.1956
26458SOL     OW81095   8.254   0.258   4.049  0.0845  0.3521 -0.1128
26458SOL    HW181096   8.299   0.260   3.964  0.7016  1.1074  0.2082
26458SOL    HW281097   8.312   0.308   4.107  0.5346 -1.6109  1.1957
26459SOL     OW81098   0.306   5.859   4.447 -0.4159 -0.1916  0.0739
26459SOL    HW181099   0.327   5.767   4.428 -0.5967  0.0206 -1.2792
26459SOL    HW281100   0.371   5.909   4.397  0.1414  0.4344  1.3726
26460SOL     OW81101   7.069   1.864   4.494 -0.0144 -0.4454 -0.2274
26460SOL    HW181102   7.063   1.876   4.399  0.1370 -0.5242 -0.2480
26460SOL    HW281103   6.979   1.866   4.525 -0.1289 -1.2576 -0.4811
26461SOL     OW81104   7.682   2.268   5.302  0.4410 -0.0524 -0.2997
26461SOL    HW181105   7.633   2.349   5.288  0.5377 -0.1925 -1.4964
26461SOL    HW281106   7.701   2.267   5.396 -1.0695  0.4465  0.0270
26462SOL     OW81107   5.426   4.475   0.225 -0.0180  0.5950  0.6252
26462SOL    HW181108   5.500   4.441   0.175 -0.2980 -0.5421  0.9369
26462SOL    HW281109   5.350   4.458   0.169 -0.2221  0.2147  1.0136
26463SOL     OW81110   6.610   9.369   5.031  0.0957  0.0550  0.2527
26463SOL    HW181111   6.593   9.378   4.937 -0.4903 -0.5622  0.2912
26463SOL    HW281112   6.557   9.437   5.072 -0.2221 -0.1455  0.1814
26464SOL     OW81113   2.095   3.498   3.854 -0.3249  0.2196 -0.3020
26464SOL    HW181114   2.071   3.488   3.762 -2.2366 -0.4458  0.2246
26464SOL    HW281115   2.024   3.549   3.892  1.0459  1.5378  0.5779
26465SOL     OW81116   8.115   1.444   9.546 -0.0924  0.1790  0.3183
26465SOL    HW181117   8.208   1.433   9.568 -0.1044  1.1662  0.9360
26465SOL    HW281118   8.109   1.534   9.513 -0.7386 -0.0591 -0.2353
26466SOL     OW81119   6.988   1.488   0.665 -0.2579  0.0928  0.3186
26466SOL    HW181120   6.923   1.532   0.719  0.0653 -0.4064  1.1334
26466SOL    HW281121   6.956   1.398   0.657 -0.9313  0.4429 -1.3556
26467SOL     OW81122   3.504   0.321   6.070 -0.4304 -0.6896  0.0617
26467SOL    HW181123   3.481   0.297   5.980  0.6834 -0.9855 -0.1616
26467SOL    HW281124   3.447   0.395   6.091  0.7419  0.7664 -1.6495
26468SOL     OW81125   4.352   8.060   5.743 -0.1325 -0.3485 -0.2268
26468SOL    HW181126   4.399   7.980   5.765  1.3410  0.1532 -1.4280
26468SOL    HW281127   4.402   8.130   5.784 -0.4325  0.1136 -0.6364
26469SOL     OW81128   2.817   4.934   9.538  0.3532  0.3296  0.3990
26469SOL    HW181129   2.726   4.906   9.550  0.0129  0.1820 -2.0141
26469SOL    HW281130   2.863   4.855   9.513  0.7461  0.7395 -0.1979
26470SOL     OW81131   6.622   6.601   8.574 -0.0374  0.1664  0.3398
26470SOL    HW181132   6.668   6.579   8.655  0.5870 -0.1394 -0.0905
26470SOL    HW281133   6.544   6.649   8.603  0.0923 -0.0801  1.1263
26471SOL     OW81134   8.425   8.625   2.954 -0.1826  0.3235  0.0162
26471SOL    HW181135   8.399   8.558   3.018  0.8193 -0.0320  0.0682
26471SOL    HW281136   8.468   8.693   3.007  2.9757 -1.1282 -0.4496
26472SOL     OW81137   3.928   3.584   4.484  0.2463  0.4752  0.3396
26472SOL    HW181138   3.944   3.521   4.414  3.2923 -0.1161  1.3854
26472SOL    HW281139   3.844   3.557   4.521 -0.6473 -0.1889 -1.9986
26473SOL     OW81140   4.812   6.102   5.013  0.6081 -0.1068  0.1644
26473SOL    HW181141   4.749   6.174   5.014 -0.3876 -0.9362 -0.6198
26473SOL    HW281142   4.830   6.088   4.920  0.9926 -0.7058  0.3295
26474SOL     OW81143   6.906   1.366   9.483 -0.2768 -0.6190 -0.5458
26474SOL    HW181144   6.884   1.344   9.392 -0.8484 -0.8653 -0.3557
26474SOL    HW281145   6.831   1.334   9.534 -0.3333  0.2463 -0.0703
26475SOL     OW81146   2.865   2.245   6.754 -0.4318  0.3239 -0.3859
26475SOL    HW181147   2.844   2.159   6.790  0.5227  0.3373  0.2293
26475SOL    HW281148   2.793   2.301   6.783 -1.0388 -0.2514 -0.7567
26476SOL     OW81149   1.505   0.573   6.530  0.0556  0.0017 -0.1585
26476SOL    HW181150   1.521   0.496   6.474  0.7758 -0.2295  0.3463
26476SOL    HW281151   1.591   0.613   6.540 -0.3641  1.0318 -0.6285
26477SOL     OW81152   2.221   1.569   0.308  0.0521 -0.1812 -0.2873
26477SOL    HW181153   2.137   1.524   0.302  1.1216 -2.1328 -3.7278
26477SOL    HW281154   2.200   1.662   0.303 -1.9024 -0.6606 -1.9883
26478SOL     OW81155   7.400   3.514   8.265  0.1153 -0.4411  0.2585
26478SOL    HW181156   7.439   3.596   8.298  0.3352  0.1043 -1.2764
26478SOL    HW281157   7.310   3.516   8.298 -0.1623  0.8768 -0.4916
26479SOL     OW81158   9.219   6.172   4.290 -0.2394  0.2481 -1.1891
26479SOL    HW181159   9.198   6.243   4.231  0.3394  2.0635  0.6700
26479SOL    HW281160   9.288   6.207   4.347  0.2581 -1.8826 -0.3626
26480SOL     OW81161   8.518   8.647   3.960 -0.0233 -0.0872 -0.8871
26480SOL    HW181162   8.473   8.726   3.929  2.1033  1.1899 -0.9081
26480SOL    HW281163   8.580   8.678   4.025  0.0147 -1.9364  0.0294
26481SOL     OW81164   0.177   4.484   1.751 -0.4141 -0.2815  0.3782
26481SOL    HW181165   0.169   4.478   1.847 -0.6289 -1.4315  0.3079
26481SOL    HW281166   0.272   4.487   1.736 -0.3437 -0.9715  0.6062
26482SOL     OW81167   6.227   3.593   3.578 -0.1254  0.0316 -0.6004
26482SOL    HW181168   6.163   3.664   3.579  0.2164  0.3425 -0.1297
26482SOL    HW281169   6.198   3.533   3.646  0.6651  0.7180  0.3783
26483SOL     OW81170   7.343   9.606   5.505 -0.1039 -0.1654  0.2293
26483SOL    HW181171   7.368   9.520   5.540  0.7858 -0.1001 -0.2288
26483SOL    HW281172   7.323   9.589   5.413  1.4764  0.3568 -0.2303
26484SOL     OW81173   8.329   5.598   4.487 -0.4637  0.1193 -0.1957
26484SOL    HW181174   8.383   5.582   4.410 -0.6659 -0.0764 -0.3005
26484SOL    HW281175   8.332   5.515   4.536 -2.3935 -0.6749 -1.2831
26485SOL     OW81176   1.480   4.424   8.711 -0.1278 -0.5120  0.1233
26485SOL    HW181177   1.400   4.471   8.735  0.2486  0.8726 -1.1739
26485SOL    HW281178   1.548   4.463   8.767  0.3428  1.1894 -1.5219
26486SOL     OW81179   8.096   2.962   9.646 -0.3733 -0.1867  0.2146
26486SOL    HW181180   8.098   3.044   9.598 -0.7253 -0.5938 -0.5064
26486SOL    HW281181   8.028   2.974   9.712 -0.5890  0.0192 -0.0456
26487SOL     OW81182   4.959   2.852   4.003  0.5513  1.4188  0.2427
26487SOL    HW181183   4.898   2.811   3.941  0.6371 -0.9689  1.6103
26487SOL    HW281184   4.983   2.934   3.961 -1.9055  1.4488 -1.3692
26488SOL     OW81185   0.190   7.405   1.976  0.7277 -0.2167  0.2063
26488SOL    HW181186   0.172   7.337   1.911 -1.2299  2.1046 -1.8653
26488SOL    HW281187   0.169   7.364   2.060  0.7635 -2.4906 -0.8201
26489SOL     OW81188   0.838   1.569   8.807  0.7256  0.1515 -0.3407
26489SOL    HW181189   0.862   1.652   8.767  1.5982 -0.6341 -1.4905
26489SOL    HW281190   0.910   1.510   8.785  1.1174 -0.4091  2.1617
26490SOL     OW81191   4.156   1.809   0.643  0.3063  0.4019 -0.3767
26490SOL    HW181192   4.208   1.736   0.609 -2.7166 -2.4533  0.5738
26490SOL    HW281193   4.138   1.864   0.567  1.2799 -0.7654 -1.4890
26491SOL     OW81194   3.184   6.308   3.730  0.4771  0.0192  0.6236
26491SOL    HW181195   3.174   6.244   3.660  0.1198 -1.0630  1.6303
26491SOL    HW281196   3.146   6.389   3.694  0.2377 -0.5228 -0.3905
26492SOL     OW81197   4.835   7.663   2.614  0.7220 -0.2127 -0.3294
26492SOL    HW181198   4.848   7.756   2.597  1.2407 -0.2366 -0.0906
26492SOL    HW281199   4.833   7.655   2.709 -0.3460 -0.3199 -0.3495
26493SOL     OW81200   0.304   8.773   0.752 -0.3423  0.4723 -0.1494
26493SOL    HW181201   0.337   8.847   0.701  0.0405  0.5753  0.2415
26493SOL    HW281202   0.250   8.814   0.820 -0.7471  0.3448 -0.3962
26494SOL     OW81203   3.583   3.725   1.367 -0.7174 -0.2255 -0.6778
26494SOL    HW181204   3.513   3.696   1.308  1.0897 -1.1791 -2.4786
26494SOL    HW281205   3.542   3.725   1.453 -2.8149 -1.1685 -1.5807
26495SOL     OW81206   5.293   6.051   5.780 -0.0896 -0.2748 -0.1211
26495SOL    HW181207   5.308   5.971   5.830 -0.0168 -1.0734 -1.3661
26495SOL    HW281208   5.200   6.070   5.792  0.2361  0.4352  1.5378
26496SOL     OW81209   0.674   9.150   6.427 -0.8292 -0.7823  0.5358
26496SOL    HW181210   0.583   9.137   6.452 -1.1222  0.2440  0.0756
26496SOL    HW281211   0.670   9.184   6.337 -0.0264 -0.2567  0.6834
26497SOL     OW81212   8.804   5.707   6.941  0.0576 -0.5847  0.0442
26497SOL    HW181213   8.875   5.677   6.997 -0.6005 -1.4355  0.4448
26497SOL    HW281214   8.833   5.685   6.852  0.5479 -0.3994  0.1588
26498SOL     OW81215   1.907   1.816   4.736 -0.5420 -0.5030 -0.2133
26498SOL    HW181216   1.903   1.906   4.767  2.4034  0.1881 -1.4815
26498SOL    HW281217   1.907   1.823   4.641  1.5218 -1.6316 -0.3538
26499SOL     OW81218   0.132   1.934   8.704 -0.1579 -0.0989  0.0997
26499SOL    HW181219   0.225   1.936   8.729  0.3837 -0.7551 -1.6800
26499SOL    HW281220   0.104   1.844   8.723 -1.0520  0.6133  2.5147
26500SOL     OW81221   1.418   2.633   2.001 -0.1552 -0.9806 -0.0138
26500SOL    HW181222   1.436   2.726   2.018 -1.0378 -0.9924  1.1439
26500SOL    HW281223   1.455   2.617   1.914  2.0288 -0.1247  0.6899
26501SOL     OW81224   8.604   3.129   0.368 -0.1918 -0.1623  0.8058
26501SOL    HW181225   8.649   3.182   0.433  0.4991 -0.6046  0.6943
26501SOL    HW281226   8.626   3.170   0.284 -0.8021  0.2031  0.8181
26502SOL     OW81227   6.213   2.672   1.947 -0.0289 -0.1281 -0.5720
26502SOL    HW181228   6.140   2.621   1.911 -0.8669 -0.0125  0.8972
26502SOL    HW281229   6.290   2.617   1.932 -0.6851 -1.0910 -0.4796
26503SOL     OW81230   5.248   9.458   6.928  0.2460  0.5629  0.1208
26503SOL    HW181231   5.214   9.437   7.015 -0.9970 -1.3472 -0.7617
26503SOL    HW281232   5.214   9.546   6.909 -1.0486  0.2387  0.8198
26504SOL     OW81233   1.875   6.877   3.928 -0.1571  0.1252  0.4061
26504SOL    HW181234   1.939   6.943   3.952  1.0912 -1.3463  1.3514
26504SOL    HW281235   1.925   6.795   3.924 -1.7078 -0.8390 -0.2891
26505SOL     OW81236   0.826   9.000   4.085  0.3408  0.5839  0.0356
26505SOL    HW181237   0.889   9.059   4.043 -0.2735  2.0747  1.1205
26505SOL    HW281238   0.753   9.057   4.109 -0.3831 -0.6839  0.9269
26506SOL     OW81239   0.967   6.375   7.795  0.6699 -0.0017  0.3033
26506SOL    HW181240   0.974   6.438   7.723  2.2996 -0.5505 -0.0665
26506SOL    HW281241   1.056   6.366   7.827  0.3814 -1.7001  0.7035
26507SOL     OW81242   2.601   5.032   6.070 -0.1682  0.1734 -0.3879
26507SOL    HW181243   2.538   5.007   6.002  0.3880 -0.9546 -0.5121
26507SOL    HW281244   2.638   5.115   6.038 -1.1377  0.5390 -0.6055
26508SOL     OW81245   4.569   8.891   5.217 -0.6590 -0.3456  0.3338
26508SOL    HW181246   4.647   8.835   5.228  0.1768  0.2593 -1.9676
26508SOL    HW281247   4.520   8.849   5.147 -0.3079  1.4382 -1.0384
26509SOL     OW81248   9.348   5.572   3.832 -0.2410  0.4936 -1.1500
26509SOL    HW181249   9.372   5.549   3.922 -1.0661  0.9785 -0.7977
26509SOL    HW281250   9.405   5.517   3.777  0.3713  0.3026 -0.3382
26510SOL     OW81251   8.565   5.946   1.402 -0.3196 -0.0579 -0.2168
26510SOL    HW181252   8.553   5.933   1.308 -0.8007 -3.4068  0.1922
26510SOL    HW281253   8.659   5.941   1.415 -0.0426  2.5503 -0.6755
26511SOL     OW81254   1.735   6.409   4.727  0.3995  0.6352  0.0241
26511SOL    HW181255   1.670   6.432   4.661  2.7008  0.1199 -2.6128
26511SOL    HW281256   1.763   6.320   4.704  0.5902  0.0496  2.3294
26512SOL     OW81257   2.400   5.995   5.267  0.2343 -0.3106 -0.3714
26512SOL    HW181258   2.392   6.089   5.283 -1.5933 -0.5120  0.0672
26512SOL    HW281259   2.458   5.964   5.337  1.2911  0.5408 -0.8376
26513SOL     OW81260   9.118   5.336   3.880  0.1001  0.1698  0.0240
26513SOL    HW181261   9.038   5.288   3.902 -0.0428  0.2755 -0.2595
26513SOL    HW281262   9.188   5.277   3.905 -0.0590  0.3038  0.7919
26514SOL     OW81263   1.474   3.546   5.257  0.1254 -0.1179  0.1572
26514SOL    HW181264   1.418   3.480   5.216  0.2150 -1.4121  1.9696
26514SOL    HW281265   1.528   3.496   5.318  1.8146  1.3697 -0.0419
26515SOL     OW81266   2.433   8.563   0.670 -0.0106 -0.0783  0.9092
26515SOL    HW181267   2.527   8.545   0.678 -0.2693 -1.3167  1.2614
26515SOL    HW281268   2.405   8.588   0.758  0.3820  2.4655  0.4004
26516SOL     OW81269   9.532   0.899   8.747 -0.0552 -0.0920  0.1600
26516SOL    HW181270   9.488   0.952   8.813 -1.1700 -1.2197  0.3625
26516SOL    HW281271   9.515   0.944   8.665  0.0446  0.5066  0.4612
26517SOL     OW81272   4.876   9.158   9.551 -0.4117  0.5261 -0.6392
26517SOL    HW181273   4.956   9.154   9.500  0.5650  1.0316  0.7706
26517SOL    HW281274   4.835   9.241   9.526 -0.4073  0.3464 -1.2440
26518SOL     OW81275   0.843   5.676   3.030 -0.7369 -0.6367  0.0891
26518SOL    HW181276   0.785   5.730   3.084 -0.2178  0.9490 -0.9034
26518SOL    HW281277   0.872   5.733   2.959  0.5512 -1.9521 -0.5097
26519SOL     OW81278   5.180   6.938   5.383  0.1615  0.2853  0.7349
26519SOL    HW181279   5.271   6.966   5.390  0.2593  0.6617 -1.2715
26519SOL    HW281280   5.130   7.006   5.428  0.8961 -0.4549  2.7699
26520SOL     OW81281   5.975   4.700   2.168 -0.0472 -0.4143  0.0587
26520SOL    HW181282   5.958   4.607   2.187 -0.5809 -0.5915 -1.1562
26520SOL    HW281283   6.030   4.730   2.240 -1.9476 -0.9904  1.8461
26521SOL     OW81284   9.494   0.972   8.309 -0.1860 -0.3365 -0.0108
26521SOL    HW181285   9.527   0.882   8.299  1.6067  0.3120 -0.2689
26521SOL    HW281286   9.459   0.994   8.223  0.1107 -0.5088 -0.1778
26522SOL     OW81287   7.132   1.508   7.584  0.3199 -0.4272 -0.0882
26522SOL    HW181288   7.117   1.592   7.629 -1.2662 -0.7497  0.0575
26522SOL    HW281289   7.058   1.453   7.611  0.6311 -1.4360 -1.2131
26523SOL     OW81290   2.908   6.787   5.002  0.1886 -0.5776  0.2969
26523SOL    HW181291   2.950   6.706   5.032 -0.2165 -0.5581  0.9398
26523SOL    HW281292   2.814   6.768   5.005  0.1204 -0.3473 -0.3366
26524SOL     OW81293   6.831   8.510   9.324 -0.2742 -0.3895 -0.0864
26524SOL    HW181294   6.863   8.580   9.267  0.8362  0.0806  1.0613
26524SOL    HW281295   6.832   8.432   9.270  1.2228 -0.0476 -0.6003
26525SOL     OW81296   6.125   5.995   4.727 -0.0153  0.5121  0.0970
26525SOL    HW181297   6.081   6.031   4.650  0.6110  2.7219  0.6940
26525SOL    HW281298   6.213   6.032   4.724  1.0116 -1.7378  0.3385
26526SOL     OW81299   3.730   4.705   7.760 -0.0624 -0.4046 -0.0378
26526SOL    HW181300   3.704   4.724   7.850 -0.7939  1.0727 -0.5433
26526SOL    HW281301   3.809   4.757   7.747  0.5621 -1.3125  0.0120
26527SOL     OW81302   8.198   1.632   2.823  0.3369 -0.0369  0.4749
26527SOL    HW181303   8.139   1.561   2.850 -0.9509  0.1826 -1.5192
26527SOL    HW281304   8.262   1.589   2.765  0.6644  0.1363  0.7051
26528SOL     OW81305   4.135   0.644   7.375  0.0809 -1.0467  0.1693
26528SOL    HW181306   4.221   0.603   7.374  0.3647 -0.4753  0.3459
26528SOL    HW281307   4.100   0.627   7.288  0.3317 -1.3741  0.1306
26529SOL     OW81308   7.855   6.103   2.479  0.4614 -0.2476  0.3002
26529SOL    HW181309   7.795   6.032   2.459  0.8263 -0.2627 -0.8284
26529SOL    HW281310   7.898   6.077   2.560 -0.8024 -0.3895  0.9472
26530SOL     OW81311   8.716   2.927   6.200  0.1211  0.6493 -0.5200
26530SOL    HW181312   8.743   2.974   6.279 -1.2673  1.4499 -0.4857
26530SOL    HW281313   8.710   2.994   6.133  2.0859 -0.1423 -1.5867
26531SOL     OW81314   5.759   3.028   2.305  0.1184  0.2799 -0.4525
26531SOL    HW181315   5.828   3.003   2.245 -0.0170  3.6251 -2.1950
26531SOL    HW281316   5.803   3.077   2.374 -0.2300 -0.0182 -0.0069
26532SOL     OW81317   2.792   0.099   8.513  0.0303 -0.6871  0.0687
26532SOL    HW181318   2.872   0.151   8.514 -0.3851  0.0614 -1.3711
26532SOL    HW281319   2.800   0.044   8.435 -0.7901 -0.7034 -0.0137
26533SOL     OW81320   4.864   9.232   6.851  0.1540  0.1603  0.1752
26533SOL    HW181321   4.926   9.280   6.796  0.6271 -0.4739  0.1422
26533SOL    HW281322   4.783   9.230   6.800  0.1992  0.7159  0.0781
26534SOL     OW81323   1.157   6.088   0.973  0.5439  0.1740  0.3166
26534SOL    HW181324   1.150   6.088   0.877  0.9637  0.5483  0.2818
26534SOL    HW281325   1.077   6.045   1.003  1.0377 -1.1723 -0.2476
26535SOL     OW81326   0.903   8.987   6.774 -0.3601 -0.2816  0.4892
26535SOL    HW181327   0.880   9.041   6.697 -1.5647 -1.3453  0.0537
26535SOL    HW281328   0.820   8.979   6.822  0.6708  1.6643  2.8193
26536SOL     OW81329   4.178   4.750   2.174  0.2826 -0.4429  0.4741
26536SOL    HW181330   4.222   4.686   2.118 -0.1078 -0.9581  0.7453
26536SOL    HW281331   4.088   4.753   2.140  0.6993  1.1997 -0.5967
26537SOL     OW81332   8.665   3.578   5.890 -0.4196  0.6356  0.5398
26537SOL    HW181333   8.626   3.491   5.903  0.1941  0.0772 -1.0405
26537SOL    HW281334   8.591   3.633   5.862 -0.4377  0.0081 -0.7515
26538SOL     OW81335   9.278   6.712   4.882  0.2019 -0.6902 -0.3930
26538SOL    HW181336   9.198   6.747   4.842  0.8904  1.6629  0.0849
26538SOL    HW281337   9.256   6.707   4.976  0.5615 -0.0646 -0.2659
26539SOL     OW81338   6.566   8.834   8.514 -0.5938  0.2598  0.4462
26539SOL    HW181339   6.541   8.751   8.554  0.1172  0.7677  2.0119
26539SOL    HW281340   6.485   8.866   8.473 -1.0170 -0.8978  0.3485
26540SOL     OW81341   1.146   8.116   8.508  0.0548  0.0322  0.3452
26540SOL    HW181342   1.157   8.034   8.459 -0.8446 -0.2671  0.6241
26540SOL    HW281343   1.056   8.142   8.490  0.0698  0.5116  0.9468
26541SOL     OW81344   2.728   4.757   4.127  0.9417  0.4616  0.0583
26541SOL    HW181345   2.759   4.715   4.207  3.5660  1.1674 -0.5051
26541SOL    HW281346   2.799   4.814   4.101 -0.6836  1.7967 -1.7033
26542SOL     OW81347   8.599   0.560   0.990 -0.4769 -0.9022  0.0632
26542SOL    HW181348   8.568   0.506   1.062  0.0364 -1.1757  0.0867
26542SOL    HW281349   8.618   0.498   0.920 -2.0165 -0.5514 -0.7194
26543SOL     OW81350   9.497   1.449   8.620  0.1083 -0.2350 -0.2729
26543SOL    HW181351   9.584   1.487   8.631 -0.8095  2.6094 -1.8879
26543SOL    HW281352   9.480   1.455   8.526 -2.0658 -0.1119  0.0772
26544SOL     OW81353   3.151   2.137   3.578  0.1428  0.3309  0.8319
26544SOL    HW181354   3.114   2.225   3.578 -0.5621  0.0601 -0.5736
26544SOL    HW281355   3.085   2.083   3.536  1.0878 -0.6339  0.5398
26545SOL     OW81356   7.156   3.859   3.784  0.1257 -0.4260  0.1292
26545SOL    HW181357   7.201   3.858   3.869 -0.3740 -0.0985  0.4043
26545SOL    HW281358   7.129   3.769   3.769  0.7922 -0.6061  0.0066
26546SOL     OW81359   9.037   5.490   7.887  0.3819 -0.1556 -0.3691
26546SOL    HW181360   9.085   5.423   7.935 -0.3926 -1.4031 -1.2668
26546SOL    HW281361   8.974   5.525   7.950  1.5746  0.5749  0.4400
26547SOL     OW81362   4.892   2.738   3.323  0.3407  0.4774 -0.5920
26547SOL    HW181363   4.825   2.764   3.386  0.3564  0.5076 -0.5881
26547SOL    HW281364   4.974   2.766   3.362  0.2421  1.7775 -1.2759
26548SOL     OW81365   0.941   0.257   7.543 -0.1560 -0.5831  0.5591
26548SOL    HW181366   0.862   0.243   7.491 -0.7583 -1.0065  1.5752
26548SOL    HW281367   0.966   0.347   7.524 -2.5202  0.5715  2.3749
26549SOL     OW81368   5.796   2.074   8.353  0.2699 -0.5701  0.4952
26549SOL    HW181369   5.872   2.059   8.410 -0.6368 -2.0461  1.3906
26549SOL    HW281370   5.830   2.129   8.283  1.5172  1.1245  2.2918
26550SOL     OW81371   4.939   4.780   9.013  0.7394  0.1804  0.2139
26550SOL    HW181372   4.930   4.784   9.108  0.5609 -1.2091  0.2844
26550SOL    HW281373   4.849   4.779   8.980  0.7894  1.9536 -0.0802
26551SOL     OW81374   2.507   0.095   1.834  0.1790 -0.4206 -0.3197
26551SOL    HW181375   2.451   0.069   1.907 -1.3481 -1.5322 -1.8148
26551SOL    HW281376   2.594   0.064   1.858  0.2571  1.4482  2.1193
26552SOL     OW81377   3.715   1.824   3.526  0.4002 -0.0245 -0.1194
26552SOL    HW181378   3.620   1.819   3.516  0.3467  1.7731 -0.8992
26552SOL    HW281379   3.744   1.733   3.520 -1.4302 -0.8865  2.3371
26553SOL     OW81380   4.895   7.601   2.120 -0.2811 -0.3173  0.5737
26553SOL    HW181381   4.856   7.596   2.207 -0.9405  0.1534  0.3110
26553SOL    HW281382   4.850   7.533   2.070  0.3029 -0.7855  0.6697
26554SOL     OW81383   1.947   3.028   7.279 -0.1859  0.6262  0.8168
26554SOL    HW181384   2.042   3.015   7.285 -0.2896 -0.6896  0.1485
26554SOL    HW281385   1.936   3.095   7.212  0.3284  2.5318  2.5678
26555SOL     OW81386   8.668   2.694   6.891 -0.4367 -0.3389  0.2112
26555SOL    HW181387   8.710   2.691   6.978 -2.0091  0.8354  1.0641
26555SOL    HW281388   8.741   2.700   6.830  0.7157  2.2690  1.6681
26556SOL     OW81389   9.592   3.982   5.613 -0.6530  0.1332  0.5822
26556SOL    HW181390   9.502   4.015   5.621 -1.1155 -1.0393  0.4174
26556SOL    HW281391   9.622   3.973   5.703  0.3363  3.1129  0.6704
26557SOL     OW81392   1.206   6.186   9.066  0.1056 -0.0740 -0.2716
26557SOL    HW181393   1.245   6.274   9.068  1.9010 -0.8539  0.4033
26557SOL    HW281394   1.218   6.152   9.154  0.0287 -1.2416 -0.6936
26558SOL     OW81395   4.741   7.039   4.450  0.8864  0.2157  0.4437
26558SOL    HW181396   4.755   7.021   4.357  2.4414 -0.8989  0.8493
26558SOL    HW281397   4.778   7.126   4.464  0.8976  0.2680  0.0818
26559SOL     OW81398   6.853   7.344   5.945 -0.0392 -0.6345 -0.2518
26559SOL    HW181399   6.886   7.257   5.965  0.6903 -0.0290  1.3104
26559SOL    HW281400   6.889   7.400   6.014  0.8614  1.2098 -2.1030
26560SOL     OW81401   7.792   0.084   6.398  0.1696  0.9610 -0.1198
26560SOL    HW181402   7.796   0.094   6.493 -3.4539 -1.7201  0.5689
26560SOL    HW281403   7.756   0.167   6.366 -0.3401  1.2413  1.1277
26561SOL     OW81404   9.096   9.553   3.025 -0.4770 -0.1260  0.2545
26561SOL    HW181405   9.143   9.500   2.961  0.6120  0.2127  0.7521
26561SOL    HW281406   9.156   9.561   3.099 -1.3499  0.2539  0.9486
26562SOL     OW81407   6.792   7.564   9.633 -0.0927  0.3709 -0.0407
26562SOL    HW181408   6.820   7.655   9.628 -0.5145  0.4310 -2.8246
26562SOL    HW281409   6.872   7.513   9.621 -0.0207  0.3702  0.4086
26563SOL     OW81410   3.904   2.622   6.854  0.1606  0.4457 -0.2794
26563SOL    HW181411   3.903   2.526   6.850  0.6967  0.3900  0.7525
26563SOL    HW281412   3.835   2.649   6.793  1.7043 -0.5195 -2.6325
26564SOL     OW81413   5.964   9.547   5.015  0.6970 -0.4066  0.2022
26564SOL    HW181414   6.024   9.589   4.953  2.0669 -0.8800  1.1651
26564SOL    HW281415   6.015   9.476   5.054 -0.7485 -1.3198  0.4971
26565SOL     OW81416   8.773   4.976   1.901  0.3530 -0.1331 -0.0490
26565SOL    HW181417   8.743   4.885   1.908  2.2018 -0.8875 -0.8541
26565SOL    HW281418   8.862   4.974   1.937  1.3117  0.8013 -2.1861
26566SOL     OW81419   7.222   0.725   4.502 -0.4088  0.4018 -0.0949
26566SOL    HW181420   7.256   0.775   4.429 -0.5923  2.3163  1.0749
26566SOL    HW281421   7.299   0.704   4.555 -0.3138 -0.7296 -0.6429
26567SOL     OW81422   3.172   0.377   7.000 -0.0144  0.2975 -0.7413
26567SOL    HW181423   3.138   0.317   6.933 -1.3053 -0.3509  0.4450
26567SOL    HW281424   3.185   0.459   6.953 -0.6369 -0.2107 -1.8629
26568SOL     OW81425   4.144   2.010   1.317  0.0145 -0.8041 -0.2884
26568SOL    HW181426   4.153   2.050   1.403 -0.7769 -2.0702  0.4087
26568SOL    HW281427   4.234   2.004   1.283  0.4341 -1.1705  0.8547
26569SOL     OW81428   3.510   2.715   6.479  0.0073 -0.4599 -0.4301
26569SOL    HW181429   3.441   2.649   6.483 -0.0641 -0.5550 -2.2133
26569SOL    HW281430   3.569   2.684   6.409  0.1538  1.1513 -1.0658
26570SOL     OW81431   4.209   9.512   9.074  0.0021  0.1554  0.2366
26570SOL    HW181432   4.150   9.578   9.110 -1.8858 -1.0378 -0.4869
26570SOL    HW281433   4.219   9.536   8.981 -1.3277 -0.9303 -0.2258
26571SOL     OW81434   2.226   7.569   9.502 -0.0560 -0.0950  0.2965
26571SOL    HW181435   2.318   7.568   9.526  0.0523  0.5957 -0.0511
26571SOL    HW281436   2.225   7.583   9.407 -0.5109  0.5881  0.3857
26572SOL     OW81437   9.013   7.578   0.174 -0.0258  0.4993  0.5580
26572SOL    HW181438   9.069   7.579   0.251  1.3366  0.2851 -0.4040
26572SOL    HW281439   9.061   7.527   0.109 -1.6349 -0.2864 -0.0942
26573SOL     OW81440   3.048   6.118   1.185  0.1082 -0.7282  0.6490
26573SOL    HW181441   2.978   6.182   1.193  0.6657 -0.0538  0.2598
26573SOL    HW281442   3.050   6.073   1.270  1.6270  1.7866  2.0912
26574SOL     OW81443   1.414   4.592   7.188  0.1163 -0.2632 -0.3326
26574SOL    HW181444   1.420   4.670   7.244 -0.9043 -0.5521  0.2044
26574SOL    HW281445   1.505   4.563   7.177  0.4537  0.6515 -0.0438
26575SOL     OW81446   7.240   2.182   8.570  0.0324 -0.0613  0.5895
26575SOL    HW181447   7.195   2.219   8.646 -1.8540  1.6014 -1.2034
26575SOL    HW281448   7.170   2.163   8.507  1.6626  2.0852 -2.1401
26576SOL     OW81449   9.489   7.933   6.578  0.2266  0.1789  0.2375
26576SOL    HW181450   9.481   8.028   6.588  0.2269  0.2465 -0.3481
26576SOL    HW281451   9.470   7.917   6.485  1.5050 -0.2476  0.0261
26577SOL     OW81452   2.933   7.029   5.177 -0.2261 -0.1253 -0.0880
26577SOL    HW181453   2.969   7.102   5.128 -1.7296  1.3906  0.9182
26577SOL    HW281454   2.931   6.956   5.115  0.3446  0.9799 -1.4568
26578SOL     OW81455   2.844   1.906   7.558  0.3381  0.3592 -0.4631
26578SOL    HW181456   2.768   1.955   7.529  0.7798  2.7540  2.1407
26578SOL    HW281457   2.824   1.879   7.647  1.4375 -1.4809 -0.7131
26579SOL     OW81458   2.594   1.710   2.754 -0.3622  0.0968 -0.3538
26579SOL    HW181459   2.603   1.757   2.837  0.3882  0.2282 -0.4942
26579SOL    HW281460   2.609   1.777   2.687 -0.2472 -0.1502 -0.5771
26580SOL     OW81461   0.962   7.313   7.950  0.4774  0.0641  0.1814
26580SOL    HW181462   1.056   7.305   7.961  0.6198  0.0237 -0.9107
26580SOL    HW281463   0.943   7.405   7.972  1.2253  0.8808 -2.1979
26581SOL     OW81464   8.283   2.833   8.671  0.4770  0.0724  0.1442
26581SOL    HW181465   8.205   2.860   8.623  0.0189 -0.7439  0.4093
26581SOL    HW281466   8.251   2.814   8.759  0.7482 -1.4672 -0.0723
26582SOL     OW81467   4.016   5.157   8.408 -0.6528 -0.6305 -0.3107
26582SOL    HW181468   4.045   5.098   8.339 -1.6638  1.1139 -2.3323
26582SOL    HW281469   3.924   5.135   8.422 -0.5288 -0.7831  0.2748
26583SOL     OW81470   5.711   9.285   5.997  0.1135 -0.6738  0.0118
26583SOL    HW181471   5.630   9.235   5.988 -0.6700  0.7453 -1.1395
26583SOL    HW281472   5.777   9.232   5.953 -1.1445  0.2086 -3.2388
26584SOL     OW81473   3.090   3.754   5.355 -0.0244 -0.1143  0.0941
26584SOL    HW181474   3.060   3.830   5.305 -0.5283 -0.9154 -0.8642
26584SOL    HW281475   3.184   3.768   5.367 -0.0657  0.5240 -0.2999
26585SOL     OW81476   9.005   8.709   2.344  0.2080 -0.0640  0.2132
26585SOL    HW181477   9.035   8.800   2.336  0.0773 -0.1333 -1.2962
26585SOL    HW281478   8.960   8.707   2.429 -0.2405  1.4258  0.0473
26586SOL     OW81479   6.710   2.764   4.127  0.0458  0.7381 -0.3339
26586SOL    HW181480   6.666   2.808   4.055  0.7216 -1.1315 -1.9724
26586SOL    HW281481   6.803   2.767   4.105  0.0879 -1.9499 -0.8681
26587SOL     OW81482   2.646   4.708   5.903  0.2321  0.0344  0.4489
26587SOL    HW181483   2.725   4.753   5.935 -0.5295  3.3647 -1.8169
26587SOL    HW281484   2.670   4.677   5.816 -0.8318  0.9608 -0.2101
26588SOL     OW81485   0.289   7.667   6.300 -0.0921  0.1379 -0.5865
26588SOL    HW181486   0.232   7.646   6.374  0.7600  1.3179  0.4401
26588SOL    HW281487   0.236   7.726   6.246 -0.4541 -0.1400 -0.5407
26589SOL     OW81488   0.348   9.706   7.205  0.2683  0.5392 -0.5675
26589SOL    HW181489   0.327   9.746   7.290  0.5160 -2.2359  0.9395
26589SOL    HW281490   0.410   9.636   7.227 -0.0548 -0.6087 -2.9906
26590SOL     OW81491   4.642   9.579   6.081 -0.2396  0.2520  0.5545
26590SOL    HW181492   4.552   9.564   6.111 -0.7519  0.9908 -0.5076
26590SOL    HW281493   4.658   9.509   6.018  0.6261 -0.9648  2.0754
26591SOL     OW81494   7.999   4.706   5.443  0.2029  0.1198 -0.0302
26591SOL    HW181495   7.964   4.618   5.449  0.3407 -0.0667 -1.5042
26591SOL    HW281496   7.978   4.734   5.354  1.5278  0.9769 -0.1062
26592SOL     OW81497   3.390   7.055   8.262  0.4673 -0.0862  0.1556
26592SOL    HW181498   3.410   7.035   8.354  2.0655  0.0969 -0.1264
26592SOL    HW281499   3.448   6.997   8.212 -1.3822 -1.2100 -0.7892
26593SOL     OW81500   2.070   4.632   9.604 -0.5577  0.2129 -0.0547
26593SOL    HW181501   1.996   4.672   9.559 -2.0630 -0.6586  1.5250
26593SOL    HW281502   2.048   4.539   9.607  0.2491  0.0469  1.0861
26594SOL     OW81503   7.915   0.814   7.895 -0.2980 -0.2193  0.0964
26594SOL    HW181504   7.983   0.754   7.927  0.9011  0.8347 -0.3912
26594SOL    HW281505   7.855   0.824   7.969 -0.4424 -1.8714  0.2349
26595SOL     OW81506   2.659   2.883   5.686  0.1306 -0.1617  0.1798
26595SOL    HW181507   2.741   2.932   5.698  0.0610 -0.1576  0.6306
26595SOL    HW281508   2.670   2.804   5.738 -1.7956  1.7436  3.8528
26596SOL     OW81509   6.931   9.518   4.529 -0.1329 -0.0635 -0.1454
26596SOL    HW181510   6.993   9.589   4.512 -0.1121 -0.0635 -0.0674
26596SOL    HW281511   6.891   9.541   4.613 -0.6826  0.2600 -0.4901
26597SOL     OW81512   8.707   5.372   7.668  0.2650 -0.1328 -0.0270
26597SOL    HW181513   8.708   5.464   7.696  2.4505  0.0886 -0.6431
26597SOL    HW281514   8.617   5.356   7.642  0.3367  2.6798 -2.5124
26598SOL     OW81515   0.294   0.193   4.717  0.2781  0.2264 -0.4189
26598SOL    HW181516   0.260   0.126   4.658 -1.1665  0.8457 -0.3342
26598SOL    HW281517   0.361   0.148   4.768  0.8382 -0.5828 -1.8121
26599SOL     OW81518   7.115   3.114   7.246 -0.4189 -0.3531 -0.6787
26599SOL    HW181519   7.119   3.033   7.296  0.7354  0.5611  0.7923
26599SOL    HW281520   7.201   3.120   7.203  0.2655  0.9938  0.7823
26600SOL     OW81521   0.908   8.053   8.957  0.1581  0.1414 -0.4441
26600SOL    HW181522   0.861   8.000   8.893  1.4228 -2.2883  0.5114
26600SOL    HW281523   0.846   8.061   9.031  1.1100 -3.1418  0.8592
26601SOL     OW81524   7.086   1.706   7.797  0.0775 -0.0764  0.3359
26601SOL    HW181525   7.091   1.662   7.882  3.1952 -2.6350 -0.9437
26601SOL    HW281526   7.148   1.779   7.803  2.1427 -1.6886 -0.3429
26602SOL     OW81527   5.594   1.549   1.578 -0.2355  0.6848  0.0651
26602SOL    HW181528   5.527   1.599   1.530  0.3127  2.5027  1.0892
26602SOL    HW281529   5.545   1.505   1.647 -0.8733 -1.0964 -1.4303
26603SOL     OW81530   1.027   5.027   8.306 -0.0508 -0.1436  0.5289
26603SOL    HW181531   1.042   5.003   8.214  0.5678 -1.2454  0.8913
26603SOL    HW281532   1.115   5.029   8.344 -0.3341 -0.0896  1.1805
26604SOL     OW81533   3.626   0.974   5.276 -0.3110 -0.0561  0.2449
26604SOL    HW181534   3.633   0.961   5.181 -1.6408  1.3300 -0.0688
26604SOL    HW281535   3.713   1.006   5.301  0.2927 -1.1439 -0.3600
26605SOL     OW81536   9.536   5.802   4.252 -0.4090 -0.2255  0.2325
26605SOL    HW181537   9.579   5.884   4.276 -0.4821 -0.4046  0.9999
26605SOL    HW281538   9.526   5.755   4.335  0.3338 -1.3587 -0.2869
26606SOL     OW81539   7.673   8.484   1.631  0.1065  0.1752  0.6645
26606SOL    HW181540   7.711   8.430   1.701 -0.3099 -2.3458 -0.9007
26606SOL    HW281541   7.589   8.442   1.612  1.3632 -1.0038 -3.1219
26607SOL     OW81542   5.439   9.615   5.172 -0.0368  0.3793 -0.8039
26607SOL    HW181543   5.464   9.706   5.187 -1.5015  0.4497  1.8898
26607SOL    HW281544   5.344   9.618   5.160 -0.0976 -0.7633 -0.7973
26608SOL     OW81545   5.276   6.339   2.361 -0.3571 -1.0555  0.0448
26608SOL    HW181546   5.360   6.338   2.316  1.1155 -1.2888  2.6118
26608SOL    HW281547   5.241   6.250   2.349  0.3263 -1.3148 -0.0364
26609SOL     OW81548   2.742   8.289   2.375  0.1847 -0.2796  0.4084
26609SOL    HW181549   2.809   8.295   2.307  1.2829 -0.7742  1.4153
26609SOL    HW281550   2.766   8.357   2.438 -1.9103  1.4760 -0.5624
26610SOL     OW81551   5.560   1.576   7.147  0.0250 -0.6945 -0.5531
26610SOL    HW181552   5.555   1.669   7.127  1.3759 -0.5801 -0.4608
26610SOL    HW281553   5.496   1.563   7.216  0.2352  0.2873 -0.1549
26611SOL     OW81554   4.537   7.843   0.218  0.2610 -0.5458  0.1660
26611SOL    HW181555   4.624   7.806   0.225  0.4494 -0.0172  0.7280
26611SOL    HW281556   4.520   7.849   0.124  0.0221 -2.4815  0.0428
26612SOL     OW81557   3.964   0.175   5.258  0.1004 -0.5148 -0.3257
26612SOL    HW181558   3.933   0.159   5.168  2.2622  0.6341 -1.3564
26612SOL    HW281559   3.917   0.254   5.285  1.7878  1.0627 -1.7691
26613SOL     OW81560   1.412   8.016   4.278  0.2641  0.0669  0.0290
26613SOL    HW181561   1.455   8.100   4.287  0.8567  0.0471 -2.0344
26613SOL    HW281562   1.483   7.954   4.260 -0.3714 -0.3690 -1.1214
26614SOL     OW81563   1.669   8.958   4.764  0.3819  0.4583 -0.4048
26614SOL    HW181564   1.685   8.975   4.856  1.7332  0.0272 -0.5462
26614SOL    HW281565   1.615   9.032   4.735 -1.1698 -0.0648  1.0122
26615SOL     OW81566   5.972   5.180   0.697  0.3491 -0.1152  0.2383
26615SOL    HW181567   6.018   5.133   0.767  0.6779 -0.9982 -0.5519
26615SOL    HW281568   5.903   5.120   0.669 -0.1196  0.4531  0.1671
26616SOL     OW81569   2.601   4.193   2.485  0.2439 -0.4774  0.3028
26616SOL    HW181570   2.592   4.264   2.422  0.2358 -2.5960 -2.2370
26616SOL    HW281571   2.688   4.206   2.523  1.9472 -1.2170 -2.9972
26617SOL     OW81572   5.791   3.258   9.199  0.2471 -0.4193  0.7883
26617SOL    HW181573   5.762   3.322   9.264 -1.9518  1.4404 -1.8136
26617SOL    HW281574   5.769   3.173   9.237  0.9386  0.4454  3.2857
26618SOL     OW81575   5.900   5.829   6.029 -0.0496  0.2448  0.7154
26618SOL    HW181576   5.955   5.821   5.951 -0.1980 -2.3403  0.8097
26618SOL    HW281577   5.884   5.739   6.057 -4.3419  0.8054  0.6936
26619SOL     OW81578   2.906   2.523   1.227 -0.1062  0.2078 -0.3272
26619SOL    HW181579   2.993   2.498   1.256 -0.6337 -1.4314 -0.0384
26619SOL    HW281580   2.921   2.585   1.156  1.2544  0.8679  0.5044
26620SOL     OW81581   2.984   6.573   0.648 -0.2438 -0.1201 -0.0649
26620SOL    HW181582   2.910   6.518   0.675  0.6943 -1.6752 -0.5309
26620SOL    HW281583   3.022   6.604   0.730 -1.1313  0.3207  0.1888
26621SOL     OW81584   4.736   3.066   9.257  0.1772  0.4566 -0.8204
26621SOL    HW181585   4.807   3.031   9.311  0.6803  0.9899 -1.1208
26621SOL    HW281586   4.659   3.065   9.314  0.0593 -1.5300 -0.9519
26622SOL     OW81587   5.153   0.102   3.832 -0.7495  0.4478 -0.4142
26622SOL    HW181588   5.188   0.135   3.915  0.7799  0.5409 -1.0524
26622SOL    HW281589   5.213   0.031   3.807 -0.5058  1.1469 -1.9714
26623SOL     OW81590   2.305   5.338   0.985  0.3123  0.0476 -0.4846
26623SOL    HW181591   2.316   5.333   0.890 -0.5841 -0.2348 -0.5830
26623SOL    HW281592   2.327   5.429   1.007  1.8039 -0.2074 -0.7677
26624SOL     OW81593   6.221   3.245   4.908  0.1197 -0.1741  0.5623
26624SOL    HW181594   6.157   3.310   4.879 -0.1352  0.1062  1.7272
26624SOL    HW281595   6.195   3.165   4.862  1.2378  0.7986 -1.9509
26625SOL     OW81596   4.020   1.075   1.163  0.1636 -0.4498  0.6219
26625SOL    HW181597   4.113   1.095   1.169 -0.1066  1.2537 -0.1108
26625SOL    HW281598   3.987   1.083   1.252  0.1955  2.1155  0.4750
26626SOL     OW81599   7.489   7.042   1.856  0.3214  0.5146 -0.6393
26626SOL    HW181600   7.504   6.962   1.805 -1.4457  0.1838 -0.6921
26626SOL    HW281601   7.394   7.054   1.855  0.3692  1.3904  1.2370
26627SOL     OW81602   6.177   5.142   1.814 -0.3229 -0.1785 -0.4342
26627SOL    HW181603   6.234   5.065   1.814  1.2106  0.8845 -1.4167
26627SOL    HW281604   6.172   5.168   1.906  0.1127 -0.7759 -0.2349
26628SOL     OW81605   9.637   3.954   2.604  0.0976  0.1655 -0.1474
26628SOL    HW181606   9.603   3.966   2.693  0.2636 -1.7951  0.2253
26628SOL    HW281607   9.683   3.870   2.607  0.8000  0.4411 -1.8934
26629SOL     OW81608   6.242   9.265   3.855  0.5583  0.1268  0.1185
26629SOL    HW181609   6.285   9.275   3.771 -1.0438 -1.7440 -0.9950
26629SOL    HW281610   6.150   9.250   3.834  0.3575 -1.9977  2.0738
26630SOL     OW81611   2.729   1.664   6.997  0.3324  0.1109  0.1191
26630SOL    HW181612   2.661   1.622   6.944 -0.2426  0.1553  0.7963
26630SOL    HW281613   2.799   1.599   7.003  0.4708  0.1658 -0.8109
26631SOL     OW81614   7.192   9.294   6.547  0.0604 -0.1771 -0.0393
26631SOL    HW181615   7.104   9.298   6.509  1.3765  1.8078 -3.3442
26631SOL    HW281616   7.205   9.381   6.584  0.7246 -0.3481  0.1407
26632SOL     OW81617   8.396   7.301   7.334  0.2156  0.2678  0.5526
26632SOL    HW181618   8.455   7.253   7.277  0.4463 -1.4429  2.1070
26632SOL    HW281619   8.434   7.388   7.341  1.8666 -0.4197  0.5190
26633SOL     OW81620   6.453   0.794   8.765  0.2616  0.5283  0.1641
26633SOL    HW181621   6.493   0.870   8.722  1.3861 -0.5742 -0.8135
26633SOL    HW281622   6.368   0.784   8.723  1.3347 -0.5160 -1.8895
26634SOL     OW81623   3.475   5.936   2.292  0.0142 -0.1206  1.2547
26634SOL    HW181624   3.527   5.955   2.370 -0.6554 -0.4356  1.7869
26634SOL    HW281625   3.489   5.843   2.275  2.4117  0.5004 -0.7012
26635SOL     OW81626   8.387   6.318   7.396  0.6040 -0.2768 -0.0575
26635SOL    HW181627   8.473   6.290   7.364  0.7627 -1.6252  1.4242
26635SOL    HW281628   8.325   6.289   7.329  1.1522 -0.8103 -0.3397
26636SOL     OW81629   2.256   1.460   6.939 -0.1844 -0.1494  0.6650
26636SOL    HW181630   2.305   1.507   6.872  0.0900  0.9332  1.5998
26636SOL    HW281631   2.229   1.378   6.896  1.6087 -0.3426 -0.1681
26637SOL     OW81632   4.194   8.784   0.189 -0.6344  0.1774  0.3251
26637SOL    HW181633   4.110   8.823   0.216 -1.2576 -0.9226  0.0412
26637SOL    HW281634   4.240   8.766   0.271 -0.9478  0.2031  0.5073
26638SOL     OW81635   1.243   2.312   0.857  0.4716  0.1920  0.2168
26638SOL    HW181636   1.203   2.388   0.814 -2.0733 -0.5007  1.1712
26638SOL    HW281637   1.241   2.334   0.950 -1.1213 -1.3217  0.5935
26639SOL     OW81638   2.622   2.006   7.430  0.0246  0.4247  0.0474
26639SOL    HW181639   2.619   1.937   7.363  0.7743  0.0850  0.3500
26639SOL    HW281640   2.594   2.085   7.384 -0.2766  0.0313 -0.4548
26640SOL     OW81641   3.791   6.563   6.806  0.1760  0.2526 -0.3958
26640SOL    HW181642   3.731   6.489   6.814  0.1138  0.2990 -0.4308
26640SOL    HW281643   3.875   6.528   6.834 -0.0478  0.4224  0.5317
26641SOL     OW81644   0.122   7.651   3.743 -0.8579  0.4778  0.3532
26641SOL    HW181645   0.032   7.659   3.712 -0.9511 -0.8502  0.1936
26641SOL    HW281646   0.114   7.610   3.830 -0.4259  0.5375  0.4249
26642SOL     OW81647   4.395   3.771   7.283 -0.1082 -0.4929  0.2224
26642SOL    HW181648   4.316   3.730   7.245 -0.0576 -0.7652  0.4124
26642SOL    HW281649   4.461   3.763   7.214 -0.4504  0.4057 -0.2287
26643SOL     OW81650   2.277   7.159   2.967 -0.5812  0.0459 -0.3875
26643SOL    HW181651   2.300   7.076   2.926 -2.3571  0.3671 -2.1507
26643SOL    HW281652   2.286   7.225   2.898 -0.2382  1.1807  0.6870
26644SOL     OW81653   5.303   8.005   2.619  0.4110  0.4199  0.3996
26644SOL    HW181654   5.226   7.949   2.626  0.0462  0.8040 -0.4754
26644SOL    HW281655   5.275   8.089   2.656  0.3269  0.6317 -0.1326
26645SOL     OW81656   5.188   1.530   8.927 -0.4190  0.4118  0.1501
26645SOL    HW181657   5.206   1.624   8.926 -2.0489  0.8057 -2.5562
26645SOL    HW281658   5.094   1.523   8.941 -0.3466 -0.8142  0.1659
26646SOL     OW81659   6.906   0.069   2.062  0.2320  0.2242  0.3693
26646SOL    HW181660   6.980   0.009   2.055 -0.2257 -0.4775  1.3955
26646SOL    HW281661   6.831   0.012   2.078 -0.7034  0.8458 -1.5742
26647SOL     OW81662   4.531   6.940   8.780 -0.5765 -0.0115 -0.2072
26647SOL    HW181663   4.522   6.859   8.729 -1.3626 -0.9057  1.2851
26647SOL    HW281664   4.621   6.939   8.810 -0.9124 -1.0501  0.8787
26648SOL     OW81665   2.406   1.957   9.648 -0.4073  0.2414 -0.6167
26648SOL    HW181666   2.377   1.963   9.739  1.6731 -0.5700  0.1516
26648SOL    HW281667   2.329   1.925   9.600 -2.0052  2.1074  0.5480
26649SOL     OW81668   3.249   8.599   3.969  0.2920 -0.2086 -0.1566
26649SOL    HW181669   3.247   8.504   3.964  1.1583 -0.2068 -0.7186
26649SOL    HW281670   3.251   8.619   4.062  2.6324 -0.8298 -0.0226
26650SOL     OW81671   5.688   3.553   0.408 -0.0303  0.0330  0.5668
26650SOL    HW181672   5.608   3.562   0.459 -0.2404  1.4675  0.0353
26650SOL    HW281673   5.660   3.512   0.326  0.2828 -2.1262  1.4808
26651SOL     OW81674   0.503   1.263   4.473 -0.2078 -0.6080  0.1676
26651SOL    HW181675   0.477   1.217   4.553  0.2767 -0.7834  0.2322
26651SOL    HW281676   0.568   1.205   4.432 -0.9339 -0.8356 -0.7012
26652SOL     OW81677   7.213   5.436   6.427 -0.2935  0.2517  0.5554
26652SOL    HW181678   7.161   5.517   6.427 -0.6540  0.0357  1.9719
26652SOL    HW281679   7.203   5.400   6.515 -0.0442 -1.2921 -0.0116
26653SOL     OW81680   1.066   2.621   4.985 -0.5689  0.2015 -0.4160
26653SOL    HW181681   1.027   2.540   4.950  0.7589 -1.1038  0.9554
26653SOL    HW281682   1.159   2.611   4.969 -0.4585  1.9794 -1.1204
26654SOL     OW81683   1.117   3.007   1.565  0.1274 -0.1617  0.1576
26654SOL    HW181684   1.177   2.976   1.498  0.7444 -0.3494  0.7937
26654SOL    HW281685   1.148   3.095   1.587 -0.0606 -0.1105  0.2269
26655SOL     OW81686   8.406   5.677   3.200 -0.1579 -0.1208  0.1108
26655SOL    HW181687   8.495   5.713   3.193  0.2962 -1.0120  0.9855
26655SOL    HW281688   8.419   5.585   3.222 -1.3032 -0.1783  0.6436
26656SOL     OW81689   3.680   6.023   6.942  0.4952 -0.7463  0.4099
26656SOL    HW181690   3.710   6.066   6.862 -0.2222  2.0441  1.5266
26656SOL    HW281691   3.593   5.991   6.920  0.6987 -0.9121 -0.1945
26657SOL     OW81692   2.804   7.908   2.414 -0.1856 -0.2338 -0.1456
26657SOL    HW181693   2.819   7.960   2.492 -0.1095  0.0278 -0.3346
26657SOL    HW281694   2.838   7.821   2.437 -1.7668 -0.6666  0.7431
26658SOL     OW81695   0.565   6.364   2.154 -0.0905 -0.0807 -0.1743
26658SOL    HW181696   0.636   6.377   2.218 -1.0992  0.4350  0.8770
26658SOL    HW281697   0.578   6.274   2.124  1.0739  0.0368 -0.0929
26659SOL     OW81698   5.526   0.186   2.961 -0.3742  0.2309 -0.6001
26659SOL    HW181699   5.508   0.280   2.963 -1.7090  0.0119 -1.2577
26659SOL    HW281700   5.482   0.152   3.039 -0.2554  0.1021 -0.5905
26660SOL     OW81701   2.621   9.399   2.108 -0.4741 -0.7126  0.5372
26660SOL    HW181702   2.631   9.391   2.202  0.2096  0.1460  0.5478
26660SOL    HW281703   2.542   9.452   2.096 -1.5830 -2.3008  0.5751
26661SOL     OW81704   4.413   3.782   6.480  0.9598 -0.1120  0.1828
26661SOL    HW181705   4.325   3.760   6.448  0.6142 -0.3674  1.2661
26661SOL    HW281706   4.472   3.728   6.427  0.4587 -0.1243 -0.3839
26662SOL     OW81707   4.103   4.255   1.679 -0.0244  0.4636 -0.0867
26662SOL    HW181708   4.147   4.172   1.664  0.3117  0.8968 -1.6802
26662SOL    HW281709   4.025   4.232   1.730 -0.8874 -1.1002 -2.0154
26663SOL     OW81710   4.400   2.690   9.650 -0.0683  0.2247 -0.1912
26663SOL    HW181711   4.477   2.676   9.705  0.0737  1.4279 -0.0594
26663SOL    HW281712   4.359   2.604   9.645 -0.6014  0.2241  2.5780
26664SOL     OW81713   6.854   7.586   6.772  0.6440 -0.2142  0.1140
26664SOL    HW181714   6.865   7.638   6.852  0.0747  1.0871 -0.6209
26664SOL    HW281715   6.904   7.633   6.706 -0.1763 -0.4000 -0.6567
26665SOL     OW81716   4.334   0.400   1.328 -0.0240 -0.1248  0.5300
26665SOL    HW181717   4.357   0.491   1.344 -2.4952  0.7389 -0.3690
26665SOL    HW281718   4.245   0.391   1.361 -0.2327 -1.9106 -0.3640
26666SOL     OW81719   2.354   3.626   2.930 -0.3877  0.2563 -0.2602
26666SOL    HW181720   2.270   3.583   2.948 -0.3965  1.2451  2.4049
26666SOL    HW281721   2.413   3.595   2.999  0.7782  1.3628 -0.7153
26667SOL     OW81722   4.135   6.344   7.796 -0.1677  0.0855 -0.1998
26667SOL    HW181723   4.143   6.292   7.877 -1.2508 -0.4221 -0.4048
26667SOL    HW281724   4.108   6.431   7.825 -1.4588 -0.3448 -0.0597
26668SOL     OW81725   4.008   5.018   0.795 -0.3546 -0.3077  0.2731
26668SOL    HW181726   3.941   4.991   0.732  0.0267  0.5968 -0.5353
26668SOL    HW281727   4.059   5.084   0.750  0.7203 -0.5406  1.1028
26669SOL     OW81728   8.645   4.204   8.347  0.1524 -0.0418  0.1300
26669SOL    HW181729   8.710   4.228   8.413 -0.2141  0.7241  0.2164
26669SOL    HW281730   8.670   4.253   8.269  0.6381 -1.0169 -0.3405
26670SOL     OW81731   3.928   1.707   0.781  0.5226 -0.3029 -0.6706
26670SOL    HW181732   3.929   1.618   0.817 -1.9743 -1.0876 -2.2416
26670SOL    HW281733   4.006   1.712   0.726  0.7032 -1.5515 -0.5579
26671SOL     OW81734   8.759   7.041   1.012 -0.2975  0.1042 -0.5995
26671SOL    HW181735   8.696   7.056   0.942 -0.9853  0.5039  0.1000
26671SOL    HW281736   8.793   7.128   1.034  1.4564 -0.2193 -1.8232
26672SOL     OW81737   1.522   0.161   0.455  0.0785  0.0565  0.0614
26672SOL    HW181738   1.553   0.103   0.524  0.8385  1.2854  0.7957
26672SOL    HW281739   1.601   0.200   0.419 -0.3469 -0.1744 -1.1763
26673SOL     OW81740   5.326   1.337   6.914  0.2628  0.4442  0.0884
26673SOL    HW181741   5.349   1.263   6.858  2.3834  0.1563  1.2546
26673SOL    HW281742   5.364   1.317   6.999 -1.7329  1.5018  1.3059
26674SOL     OW81743   8.671   5.513   0.003  0.0005  0.3814  0.0176
26674SOL    HW181744   8.579   5.514   0.030  0.2453 -2.3512  1.3387
26674SOL    HW281745   8.719   5.514   0.086  1.0421 -0.8239 -0.5445
26675SOL     OW81746   9.135   7.158   6.413  0.2916  0.1696  0.5912
26675SOL    HW181747   9.113   7.224   6.478 -1.1979 -1.0792  1.4021
26675SOL    HW281748   9.072   7.172   6.342 -0.6124 -0.8674  1.1467
26676SOL     OW81749   0.677   2.899   4.363 -0.4334  0.0058  0.1291
26676SOL    HW181750   0.582   2.892   4.365 -0.3948 -0.4653  0.3718
26676SOL    HW281751   0.707   2.811   4.343  0.0341 -0.4080  2.3450
26677SOL     OW81752   5.736   4.122   7.427 -0.0805 -0.1155 -0.3738
26677SOL    HW181753   5.785   4.110   7.346  1.4039  0.8946  0.3360
26677SOL    HW281754   5.722   4.034   7.461  0.0964 -0.4855 -1.2531
26678SOL     OW81755   6.462   1.725   0.790 -0.5881  0.4999 -0.3709
26678SOL    HW181756   6.513   1.749   0.713  0.1882 -0.1629 -0.0788
26678SOL    HW281757   6.413   1.805   0.813 -0.3357  0.8861 -1.1591
26679SOL     OW81758   9.631   7.196   9.605 -0.3751 -0.1416 -0.2441
26679SOL    HW181759   9.696   7.140   9.648  0.6542 -0.1754 -1.7428
26679SOL    HW281760   9.618   7.155   9.519 -1.7442  0.3661 -0.3007
26680SOL     OW81761   7.700   2.874   8.236 -0.2305 -0.2643 -0.4236
26680SOL    HW181762   7.708   2.824   8.155  1.6476 -0.6966 -0.0238
26680SOL    HW281763   7.768   2.942   8.229 -1.1942  0.7797  0.0534
26681SOL     OW81764   3.895   9.635   5.485  0.1300  0.7945  1.0665
26681SOL    HW181765   3.933   9.608   5.569 -1.1897  0.4839  1.5741
26681SOL    HW281766   3.829   9.701   5.508 -0.3372  0.6147  0.2830
26682SOL     OW81767   0.835   3.777   0.678 -0.1156  0.4563 -0.6288
26682SOL    HW181768   0.765   3.839   0.655 -0.3692  0.6132  0.5347
26682SOL    HW281769   0.887   3.823   0.744 -1.5053 -1.2868  1.8441
26683SOL     OW81770   4.447   7.877   3.046  0.0198  0.1773  0.0413
26683SOL    HW181771   4.414   7.965   3.032  1.8524  0.8115 -0.5810
26683SOL    HW281772   4.439   7.835   2.960  0.6506  0.2896 -0.0781
26684SOL     OW81773   8.159   1.604   0.607 -0.0934  0.0735  0.2917
26684SOL    HW181774   8.078   1.607   0.555 -0.3167  0.2660  0.6493
26684SOL    HW281775   8.131   1.575   0.694  0.5538 -2.4473 -0.2455
26685SOL     OW81776   4.508   9.545   2.184  0.1849 -0.3073  0.2786
26685SOL    HW181777   4.501   9.601   2.261  1.4881 -0.5310  0.5789
26685SOL    HW281778   4.552   9.600   2.119  0.2376 -0.5342  0.1226
26686SOL     OW81779   7.673   5.856   2.868  0.0075  0.2689  0.3867
26686SOL    HW181780   7.591   5.808   2.876 -0.2189  0.7389  0.9490
26686SOL    HW281781   7.731   5.816   2.932  0.1158  0.1468  0.2132
26687SOL     OW81782   6.221   6.374   6.985  0.4702 -0.4601  0.0591
26687SOL    HW181783   6.289   6.357   6.920 -1.6348 -0.0964 -2.4329
26687SOL    HW281784   6.261   6.435   7.047  2.2357  0.1755 -1.6177
26688SOL     OW81785   5.019   7.353   6.668 -0.0816 -0.8046  0.6779
26688SOL    HW181786   4.943   7.355   6.610  0.2475 -5.0324 -0.1854
26688SOL    HW281787   4.983   7.328   6.754 -0.1111  1.9956  1.6004
26689SOL     OW81788   6.695   5.922   0.750  0.3259  0.3323  0.1150
26689SOL    HW181789   6.692   5.866   0.672 -0.3514  3.1505 -2.0346
26689SOL    HW281790   6.619   5.895   0.801  0.5123 -1.2835 -0.4022
26690SOL     OW81791   4.190   6.570   5.676  0.7985  0.0469 -0.3390
26690SOL    HW181792   4.193   6.666   5.669  0.1344  0.0465 -0.6362
26690SOL    HW281793   4.264   6.549   5.733 -0.4704  0.9373  1.7572
26691SOL     OW81794   0.275   0.903   9.689  0.1134 -0.0395  0.0393
26691SOL    HW181795   0.264   0.911   9.594  0.9877 -1.6958 -0.2513
26691SOL    HW281796   0.294   0.992   9.719  1.7557  0.2368 -1.6388
26692SOL     OW81797   6.710   5.827   9.059  0.2205  0.3316  0.2264
26692SOL    HW181798   6.804   5.826   9.071  0.6592  0.1367 -2.5762
26692SOL    HW281799   6.675   5.862   9.142  2.6827  0.1726  1.4072
26693SOL     OW81800   3.815   4.421   6.663 -0.4439 -0.1197 -0.2132
26693SOL    HW181801   3.885   4.478   6.696 -0.5559  0.2149 -0.5471
26693SOL    HW281802   3.816   4.346   6.722  0.0613 -0.0231 -0.0921
26694SOL     OW81803   7.646   1.365   6.862  0.3927 -0.6093 -0.1590
26694SOL    HW181804   7.715   1.306   6.831  0.8459  0.3763 -1.0870
26694SOL    HW281805   7.671   1.388   6.951  0.7556 -0.9854 -0.1600
26695SOL     OW81806   0.786   8.074   6.299  0.1276 -0.2178  0.1974
26695SOL    HW181807   0.737   8.108   6.224 -2.5575  1.0963  2.3368
26695SOL    HW281808   0.837   8.148   6.331 -1.4898  0.3609  1.6355
26696SOL     OW81809   1.277   6.882   8.310 -0.5138 -0.2566 -0.5984
26696SOL    HW181810   1.337   6.808   8.312  1.1832  0.9784  2.8536
26696SOL    HW281811   1.198   6.850   8.354  0.4994  0.0676  1.5827
26697SOL     OW81812   1.574   2.621   8.390  0.2265  0.0978  0.2215
26697SOL    HW181813   1.535   2.552   8.337 -1.5582  0.6609  0.7188
26697SOL    HW281814   1.584   2.695   8.330  2.3629 -0.6151 -0.3711
26698SOL     OW81815   0.039   4.635   4.805  0.3495 -0.2317  0.1106
26698SOL    HW181816  -0.031   4.694   4.832  0.5471  0.9019 -1.6852
26698SOL    HW281817   0.085   4.614   4.886 -0.7872  0.6937  1.0338
26699SOL     OW81818   2.359   3.276   0.274  0.4137 -0.0907  0.0672
26699SOL    HW181819   2.391   3.257   0.362  0.7793 -1.3446 -0.3161
26699SOL    HW281820   2.326   3.192   0.242  0.9085  0.1855 -1.2391
26700SOL     OW81821   7.942   0.221   9.481 -0.0321  0.5851  0.7282
26700SOL    HW181822   7.869   0.160   9.468 -0.5125  0.9409  1.6365
26700SOL    HW281823   7.973   0.242   9.393 -1.0120  0.4111  0.3309
26701SOL     OW81824   7.699   4.231   5.544  0.1407  0.1753 -0.1417
26701SOL    HW181825   7.717   4.142   5.575 -0.2591  0.7091  1.7544
26701SOL    HW281826   7.611   4.250   5.576  0.6296  1.6352  0.4391
26702SOL     OW81827   8.476   4.576   8.842 -0.1754  0.3352  0.4145
26702SOL    HW181828   8.527   4.591   8.921  0.8565  1.0010 -0.3544
26702SOL    HW281829   8.502   4.646   8.783  0.0740 -0.9189 -1.0132
26703SOL     OW81830   9.412   5.299   8.981  0.2708  0.8609  0.0197
26703SOL    HW181831   9.341   5.275   9.039 -1.0845  0.7044 -1.6293
26703SOL    HW281832   9.468   5.221   8.977  1.1857  1.3486  2.1597
26704SOL     OW81833   8.841   6.885   5.192  0.7627  0.2048  0.1429
26704SOL    HW181834   8.852   6.924   5.279 -3.0503  0.6604  0.5795
26704SOL    HW281835   8.816   6.794   5.209  1.4040 -0.1212 -0.5796
26705SOL     OW81836   1.885   0.893   2.300  0.1357  0.2059 -0.0369
26705SOL    HW181837   1.897   0.980   2.263 -0.1708  0.1658 -0.2357
26705SOL    HW281838   1.919   0.834   2.232  0.6740  0.1862  0.2464
26706SOL     OW81839   3.983   4.492   2.602  0.4585  0.3781 -0.3095
26706SOL    HW181840   3.923   4.421   2.578  1.0606 -0.3344  0.2567
26706SOL    HW281841   4.046   4.495   2.530  1.3741 -0.7580  0.3893
26707SOL     OW81842   4.765   7.987   7.206  0.3111 -0.2453  0.6512
26707SOL    HW181843   4.790   7.965   7.296  0.8222  2.4292  1.2434
26707SOL    HW281844   4.848   7.994   7.159  0.0273 -2.0873 -0.2047
26708SOL     OW81845   9.196   6.208   6.366  0.6500 -0.5293 -0.9069
26708SOL    HW181846   9.110   6.191   6.327  0.6425  0.0290 -1.1433
26708SOL    HW281847   9.251   6.234   6.292  0.3953  1.4887 -0.4533
26709SOL     OW81848   5.645   5.595   4.793 -0.6161  0.1051  0.2128
26709SOL    HW181849   5.652   5.588   4.698  0.3669  0.7545  0.2117
26709SOL    HW281850   5.551   5.601   4.811 -0.7944  0.2123 -0.7371
26710SOL     OW81851   3.037   8.031   3.000 -0.0632  0.1460 -0.2591
26710SOL    HW181852   3.068   7.944   2.975  0.2259  0.0259  0.5023
26710SOL    HW281853   2.942   8.025   2.996 -0.0397 -0.1587 -0.3616
26711SOL     OW81854   7.073   8.642   2.881  0.2928 -0.2953 -0.3249
26711SOL    HW181855   7.127   8.563   2.890  0.5646  0.0092  0.8872
26711SOL    HW281856   7.042   8.660   2.969  1.4609  1.7899 -0.2645
26712SOL     OW81857   4.930   5.060   6.144 -0.1041  0.2906 -0.1478
26712SOL    HW181858   4.990   5.128   6.114  1.7498 -0.7778  0.9199
26712SOL    HW281859   4.887   5.098   6.221  0.2911  0.5499 -0.0532
26713SOL     OW81860   4.983   7.466   0.238  0.0759  0.1696 -0.1762
26713SOL    HW181861   4.987   7.561   0.252 -0.5532  0.2848 -0.7410
26713SOL    HW281862   5.066   7.433   0.274 -0.9770  0.5304  2.8945
26714SOL     OW81863   1.712   7.035   4.219  0.0437  0.0112  0.2765
26714SOL    HW181864   1.670   7.040   4.305  0.4226 -1.6614  0.6015
26714SOL    HW281865   1.792   6.985   4.235 -0.8106 -2.0262 -1.3648
26715SOL     OW81866   8.116   5.463   2.727  0.4055  0.2867 -0.0512
26715SOL    HW181867   8.058   5.509   2.789 -0.5215 -0.5295 -0.2901
26715SOL    HW281868   8.202   5.467   2.768  0.4353  2.4670 -0.1841
26716SOL     OW81869   8.980   4.828   6.110  0.2183  0.4925  0.2600
26716SOL    HW181870   8.919   4.829   6.036  0.2343  1.3956  0.2455
26716SOL    HW281871   9.065   4.806   6.071  0.2752  1.2123 -0.0415
26717SOL     OW81872   3.357   1.107   7.181 -0.0254  0.1023  0.8720
26717SOL    HW181873   3.429   1.171   7.187  0.6222 -0.7032  2.4357
26717SOL    HW281874   3.343   1.095   7.087 -1.1389  3.5406  0.4441
26718SOL     OW81875   0.404   4.116   8.577 -0.0139 -0.4097  0.2441
26718SOL    HW181876   0.497   4.099   8.593  0.1239 -0.4202 -0.5378
26718SOL    HW281877   0.386   4.199   8.621  0.8941  0.7056 -1.3998
26719SOL     OW81878   5.406   8.504   8.700 -0.4074  0.2081  0.5319
26719SOL    HW181879   5.363   8.419   8.712 -1.2042  0.5529  0.1417
26719SOL    HW281880   5.430   8.507   8.608 -1.7595  1.0335  0.1838
26720SOL     OW81881   4.083   6.797   3.109  0.2367  0.1464 -0.1103
26720SOL    HW181882   4.158   6.788   3.168  0.2168  2.3315  0.3129
26720SOL    HW281883   4.010   6.757   3.158  0.6457  0.0978  0.4755
26721SOL     OW81884   1.691   5.786   3.647 -0.1606 -0.0651  0.1823
26721SOL    HW181885   1.701   5.738   3.564 -2.2260 -0.4038  0.0859
26721SOL    HW281886   1.715   5.722   3.714 -0.0206 -0.2856 -0.0714
26722SOL     OW81887   4.421   6.867   2.361 -0.1005 -0.2388  0.0884
26722SOL    HW181888   4.331   6.859   2.394 -0.4084  2.0822 -0.0371
26722SOL    HW281889   4.466   6.920   2.428  0.6642  0.1503 -0.7170
26723SOL     OW81890   6.991   1.368   4.208 -0.0915  0.0297 -0.2480
26723SOL    HW181891   6.967   1.444   4.154 -0.8332 -0.0054  0.0305
26723SOL    HW281892   6.942   1.380   4.289  0.8556 -0.0341  0.3449
26724SOL     OW81893   5.143   1.757   8.086 -0.4326  0.3215 -0.3893
26724SOL    HW181894   5.221   1.743   8.140 -1.1558  1.9861  1.2013
26724SOL    HW281895   5.126   1.671   8.046  1.1211 -0.5472  0.6890
26725SOL     OW81896   5.836   8.194   9.077  0.1254  0.0437 -0.1539
26725SOL    HW181897   5.832   8.110   9.122  1.7713  0.6639  1.2782
26725SOL    HW281898   5.872   8.255   9.142  1.5049  1.2554 -1.9313
26726SOL     OW81899   9.511   0.393   3.869  0.6605  0.2838  0.3492
26726SOL    HW181900   9.449   0.465   3.870  0.2246 -0.0549 -0.6227
26726SOL    HW281901   9.467   0.324   3.820  1.3771 -0.3592  0.5893
26727SOL     OW81902   8.962   0.308   5.321 -0.5358 -0.2290 -0.1187
26727SOL    HW181903   9.013   0.231   5.296 -0.0687  0.6158 -1.9051
26727SOL    HW281904   8.872   0.287   5.294 -0.3088  0.0489 -1.1397
26728SOL     OW81905   0.643   7.253   7.705  0.2083 -0.1651 -0.5122
26728SOL    HW181906   0.592   7.270   7.625 -3.1198 -1.6090  1.1249
26728SOL    HW281907   0.626   7.329   7.760 -0.1820 -0.6320  0.0226
26729SOL     OW81908   3.331   8.168   8.414  0.2799 -0.4603 -0.0269
26729SOL    HW181909   3.350   8.095   8.473  0.6879  0.3986  0.9473
26729SOL    HW281910   3.249   8.145   8.372 -0.6126 -0.6194  1.7087
26730SOL     OW81911   3.003   9.250   5.872 -0.6176  0.3378 -0.2239
26730SOL    HW181912   3.031   9.327   5.921 -1.2556 -0.1524  0.9513
26730SOL    HW281913   3.038   9.264   5.784 -0.2919  1.7175  0.0971
26731SOL     OW81914   1.410   5.477   2.305  0.2292  0.2499 -0.6814
26731SOL    HW181915   1.506   5.471   2.303  0.2486  0.5925 -0.7505
26731SOL    HW281916   1.389   5.504   2.394  0.2147  0.4706 -0.7507
26732SOL     OW81917   4.577   5.282   2.155 -0.4538 -0.2424  0.4910
26732SOL    HW181918   4.498   5.336   2.157 -0.0838  0.4044 -1.1252
26732SOL    HW281919   4.544   5.192   2.158 -1.2989  0.0062 -0.6700
26733SOL     OW81920   7.439   4.156   8.443  0.0210 -0.1110  0.5819
26733SOL    HW181921   7.383   4.231   8.423  0.3859  0.2889  1.0585
26733SOL    HW281922   7.502   4.153   8.372 -1.2123 -1.1834 -0.5243
26734SOL     OW81923   7.481   2.645   0.805  0.6585  0.0449  0.3262
26734SOL    HW181924   7.509   2.735   0.787  0.3873  0.4199  1.6883
26734SOL    HW281925   7.517   2.594   0.732  5.0518  0.4548  1.8993
26735SOL     OW81926   9.638   7.373   3.108 -0.6621  0.0980 -0.4005
26735SOL    HW181927   9.572   7.305   3.093  0.6364 -1.5638  0.9889
26735SOL    HW281928   9.720   7.333   3.080  0.1724  1.0171  0.6512
26736SOL     OW81929   0.524   4.101   2.568  0.1205  0.0986  0.0416
26736SOL    HW181930   0.615   4.075   2.582  0.2241 -0.1497 -0.9812
26736SOL    HW281931   0.509   4.174   2.629  1.4815  1.1790 -0.8727
26737SOL     OW81932   3.726   4.541   5.385  0.3639 -0.2291 -0.4863
26737SOL    HW181933   3.786   4.529   5.459  0.5738  0.0220 -0.6142
26737SOL    HW281934   3.783   4.564   5.312  0.3104 -1.8636 -1.0828
26738SOL     OW81935   9.526   8.004   1.079 -0.0029 -0.0005  0.2786
26738SOL    HW181936   9.486   8.091   1.081 -1.1563 -0.5133 -0.0559
26738SOL    HW281937   9.453   7.943   1.074  0.5870 -1.1871  3.4953
26739SOL     OW81938   0.600   9.261   9.554  0.1057 -0.1561 -0.9732
26739SOL    HW181939   0.585   9.246   9.460  0.4454  0.4819 -1.1331
26739SOL    HW281940   0.630   9.176   9.587  0.8719 -0.1528 -1.6219
26740SOL     OW81941   0.986   5.756   0.792  1.1903 -0.3713 -0.2298
26740SOL    HW181942   1.043   5.695   0.745  0.5486 -0.6401 -0.6755
26740SOL    HW281943   0.966   5.825   0.728 -2.2352 -2.3113 -1.5491
26741SOL     OW81944   0.712   0.573   5.098 -0.6254  0.3883 -0.3328
26741SOL    HW181945   0.696   0.666   5.118 -0.0265  0.8726 -1.9533
26741SOL    HW281946   0.624   0.536   5.090 -0.9085  0.3722  1.9858
26742SOL     OW81947   7.686   1.977   5.376 -0.5374  0.6841 -0.3417
26742SOL    HW181948   7.649   2.058   5.339 -1.8364  1.1887  1.8792
26742SOL    HW281949   7.640   1.907   5.330 -1.8996  1.2857  0.0360
26743SOL     OW81950   6.597   3.194   4.049  0.4826 -0.2111 -0.3962
26743SOL    HW181951   6.538   3.152   3.988  0.7665 -0.0772 -0.7675
26743SOL    HW281952   6.590   3.143   4.129  0.9456 -1.0713 -0.8944
26744SOL     OW81953   7.065   4.690   5.704  0.7112 -0.3633  0.3129
26744SOL    HW181954   7.013   4.610   5.699  0.1012 -0.0145  0.8846
26744SOL    HW281955   7.044   4.737   5.623  1.3177 -0.9127 -0.1784
26745SOL     OW81956   0.044   3.440   5.309  0.0350 -0.6853 -0.3340
26745SOL    HW181957   0.136   3.415   5.312  0.8849  2.1872 -0.0003
26745SOL    HW281958   0.020   3.453   5.401  0.2775  1.6022 -0.5374
26746SOL     OW81959   4.743   8.533   4.528  0.0463  0.2887 -0.2719
26746SOL    HW181960   4.649   8.520   4.518  0.1892  0.2029 -1.7386
26746SOL    HW281961   4.782   8.471   4.467  0.9836  1.8075 -1.2740
26747SOL     OW81962   3.681   7.930   7.462 -0.2140  0.8180 -0.4188
26747SOL    HW181963   3.743   7.874   7.414 -0.2050  1.1733 -0.8200
26747SOL    HW281964   3.596   7.888   7.449  0.0500 -0.1685  0.8636
26748SOL     OW81965   2.774   0.704   5.176  0.0381  0.0228  0.8163
26748SOL    HW181966   2.725   0.629   5.143 -0.4395  0.7836 -0.2866
26748SOL    HW281967   2.784   0.687   5.269 -0.5582 -1.1322  0.6926
26749SOL     OW81968   3.281   0.490   0.317 -0.9105 -0.7958  0.2181
26749SOL    HW181969   3.190   0.484   0.288 -0.9744 -0.8034  0.4200
26749SOL    HW281970   3.327   0.528   0.243 -1.3997  0.9346  0.7584
26750SOL     OW81971   1.043   2.251   0.084 -0.5075  0.4367  0.2054
26750SOL    HW181972   0.987   2.236   0.008  2.1583  0.2758 -1.9267
26750SOL    HW281973   1.117   2.191   0.070  0.3413  0.7836  2.7073
26751SOL     OW81974   7.544   3.249   7.310 -0.4798 -0.0568 -0.0085
26751SOL    HW181975   7.605   3.318   7.333 -2.2106  1.6369 -0.2515
26751SOL    HW281976   7.523   3.207   7.394  0.7302 -0.4480  0.1111
26752SOL     OW81977   3.546   5.558   1.651  0.3509  0.1143  0.3237
26752SOL    HW181978   3.522   5.648   1.630  2.2400  1.0452  1.7881
26752SOL    HW281979   3.474   5.526   1.704  0.2764  1.2711  0.9616
26753SOL     OW81980   6.675   6.574   4.755 -0.6002  0.3950 -0.1325
26753SOL    HW181981   6.736   6.543   4.823 -0.2837  2.4952  0.6042
26753SOL    HW281982   6.712   6.541   4.673  0.8355  0.5575  0.4177
26754SOL     OW81983   8.405   3.269   0.564 -0.2510  0.3404  0.1787
26754SOL    HW181984   8.368   3.308   0.643 -1.5262 -0.6277  0.0768
26754SOL    HW281985   8.435   3.183   0.591  2.4356  1.2320  0.3665
26755SOL     OW81986   6.396   9.217   5.171 -0.1248 -1.0845 -0.0443
26755SOL    HW181987   6.428   9.126   5.167  0.8368 -0.7237 -2.6180
26755SOL    HW281988   6.467   9.269   5.132 -2.4769  0.1344 -3.1656
26756SOL     OW81989   5.887   6.426   6.706  0.0008  0.1884  0.2282
26756SOL    HW181990   5.965   6.404   6.655 -1.0406 -0.5658 -1.1076
26756SOL    HW281991   5.882   6.522   6.701  0.8931  0.2524  0.4307
26757SOL     OW81992   3.378   2.087   9.579 -0.0174 -0.6387  0.2083
26757SOL    HW181993   3.324   2.155   9.539 -1.2948 -1.6469  0.1739
26757SOL    HW281994   3.410   2.035   9.504  1.7835  0.4808  0.1521
26758SOL     OW81995   3.453   6.416   3.572  0.2527  0.1950 -0.1064
26758SOL    HW181996   3.474   6.449   3.485  1.3312  0.9339  0.4182
26758SOL    HW281997   3.359   6.399   3.569 -0.0680  1.9161 -0.8582
26759SOL     OW81998   2.638   5.779   9.262  0.4132 -0.4691 -0.3184
26759SOL    HW181999   2.556   5.827   9.256  0.7413 -0.0615 -3.2035
26759SOL    HW282000   2.614   5.694   9.298 -0.9211  0.2996  0.6891
26760SOL     OW82001   7.144   8.771   0.568  0.5166  0.2942  0.2059
26760SOL    HW182002   7.216   8.780   0.631  1.7058  0.6061 -1.1352
26760SOL    HW282003   7.075   8.827   0.603  2.0646  2.4835  0.0043
26761SOL     OW82004   9.415   3.739   0.793 -0.3230  0.2593  0.3146
26761SOL    HW182005   9.501   3.768   0.824 -0.8791  1.1998  0.9943
26761SOL    HW282006   9.353   3.803   0.827 -1.3546 -0.6173  0.1575
26762SOL     OW82007   0.880   2.535   8.189  0.1651  0.1307 -0.0569
26762SOL    HW182008   0.962   2.572   8.222  0.0533  0.4203 -0.1054
26762SOL    HW282009   0.885   2.547   8.094  0.2778 -0.2795 -0.1044
26763SOL     OW82010   1.571   6.828   2.777 -0.0804  0.0431 -0.0041
26763SOL    HW182011   1.649   6.831   2.722  1.3346  0.8970  1.9435
26763SOL    HW282012   1.592   6.764   2.845 -0.7571  0.8259  0.9676
26764SOL     OW82013   6.897   3.571   0.943 -0.1360 -0.1848 -0.3547
26764SOL    HW182014   6.835   3.510   0.902 -0.7838  0.8895 -1.0388
26764SOL    HW282015   6.983   3.543   0.912 -0.3522 -1.1653 -0.0959
26765SOL     OW82016   5.810   6.587   3.606 -0.0921 -0.7525  0.2256
26765SOL    HW182017   5.848   6.544   3.682  0.3307 -1.0857 -0.1651
26765SOL    HW282018   5.721   6.611   3.633  0.8047  1.1967  1.5917
26766SOL     OW82019   1.021   1.520   0.189 -0.3521  1.1124  0.2419
26766SOL    HW182020   1.077   1.587   0.151  0.2316  0.5389  0.0594
26766SOL    HW282021   1.075   1.482   0.259 -0.4998  0.5398  0.0490
26767SOL     OW82022   3.098   2.759   4.851  0.0095  0.4789  0.0780
26767SOL    HW182023   3.036   2.690   4.875 -0.3560  0.7837  0.0215
26767SOL    HW282024   3.053   2.809   4.782  0.3938  0.5877 -0.0943
26768SOL     OW82025   6.239   2.686   8.153  0.1377 -0.1140 -0.1839
26768SOL    HW182026   6.324   2.728   8.163  1.1192 -1.2535 -2.6901
26768SOL    HW282027   6.182   2.755   8.119  0.7810  0.0515 -0.9568
26769SOL     OW82028   3.996   5.558   0.651 -0.0638 -0.7869  0.1784
26769SOL    HW182029   3.942   5.633   0.675 -2.2121 -2.0044 -0.6467
26769SOL    HW282030   4.028   5.577   0.563  0.1161 -0.4605  0.3149
26770SOL     OW82031   8.380   3.373   5.652 -0.8599  0.2631  0.2112
26770SOL    HW182032   8.383   3.372   5.748  0.0562 -0.2042  0.1877
26770SOL    HW282033   8.287   3.375   5.631 -1.0718  0.2632  1.1118
26771SOL     OW82034   7.771   1.900   7.667 -0.5687  0.3368 -0.2282
26771SOL    HW182035   7.765   1.929   7.575  0.7044 -0.8939 -0.7342
26771SOL    HW282036   7.784   1.981   7.716  0.4972  0.8752 -1.3462
26772SOL     OW82037   6.226   5.668   6.968  0.0920 -0.3191 -0.1686
26772SOL    HW182038   6.191   5.583   6.939  1.0271 -0.5474 -0.6749
26772SOL    HW282039   6.175   5.689   7.046 -0.7802 -0.9039 -0.5537
26773SOL     OW82040   6.277   5.451   4.027 -0.5392  0.2880  0.1758
26773SOL    HW182041   6.281   5.544   4.007  0.4820 -0.2123 -2.4179
26773SOL    HW282042   6.193   5.439   4.072 -0.6055  2.4533  0.7082
26774SOL     OW82043   8.595   1.898   4.666  0.3245  0.0551 -0.3774
26774SOL    HW182044   8.513   1.877   4.622  0.8522  0.7797 -1.7563
26774SOL    HW282045   8.647   1.818   4.658  0.4980  0.2518 -1.2811
26775SOL     OW82046   1.132   3.443   8.519  0.3788 -0.1077  0.5026
26775SOL    HW182047   1.164   3.525   8.483  1.1485 -0.5921  0.0592
26775SOL    HW282048   1.074   3.469   8.590 -0.5988  0.8435 -0.6084
26776SOL     OW82049   8.172   6.884   9.138  0.2308  0.0076 -0.2067
26776SOL    HW182050   8.164   6.838   9.054 -0.3914  0.0754 -0.1897
26776SOL    HW282051   8.100   6.947   9.138  0.3584  0.1567  0.2854
26777SOL     OW82052   2.216   9.620   3.004 -0.1976 -0.2169  0.3550
26777SOL    HW182053   2.199   9.595   3.095 -0.8621 -1.1475 -0.0126
26777SOL    HW282054   2.271   9.550   2.969 -0.2507 -0.0529 -0.0644
26778SOL     OW82055   8.744   8.354   9.341  0.0808 -0.0947  0.0453
26778SOL    HW182056   8.728   8.431   9.286  0.9385 -0.5593 -0.8774
26778SOL    HW282057   8.684   8.365   9.415 -3.1687 -0.8417 -2.2764
26779SOL     OW82058   5.618   8.017   5.908 -0.0548  0.1792 -0.2413
26779SOL    HW182059   5.547   7.965   5.870 -0.3030 -0.7718  1.4469
26779SOL    HW282060   5.595   8.108   5.887 -0.7155 -0.2260 -1.4123
26780SOL     OW82061   1.822   3.326   3.977  0.3454  0.2959  0.5021
26780SOL    HW182062   1.856   3.416   3.980 -0.9347  0.7989  0.6682
26780SOL    HW282063   1.764   3.320   4.053  1.3225 -1.0680  1.1786
26781SOL     OW82064   3.538   5.336   8.191 -0.0216  0.8599  0.5652
26781SOL    HW182065   3.604   5.294   8.245 -0.9717  0.7675  1.7072
26781SOL    HW282066   3.497   5.264   8.142  0.6816  0.9144 -0.1176
26782SOL     OW82067   9.180   0.945   8.846 -0.0450 -0.1915 -0.0603
26782SOL    HW182068   9.143   0.950   8.758 -0.6650 -1.4869  0.1144
26782SOL    HW282069   9.256   1.003   8.843 -0.8685  0.8766 -1.0274
26783SOL     OW82070   8.597   8.678   7.759  0.2532 -0.4439  0.6177
26783SOL    HW182071   8.597   8.582   7.750  2.1203 -0.3854 -0.4664
26783SOL    HW282072   8.534   8.708   7.695 -0.0069 -0.9245  0.6399
26784SOL     OW82073   9.038   7.343   5.479  0.0969  0.3549  0.2565
26784SOL    HW182074   8.992   7.281   5.422 -0.8557 -0.2501  1.6133
26784SOL    HW282075   9.101   7.387   5.422  1.0577 -2.1077 -0.7154
26785SOL     OW82076   0.350   4.875   5.194  0.0030  0.5204  0.4743
26785SOL    HW182077   0.305   4.847   5.273  0.5680  1.0131  0.9825
26785SOL    HW282078   0.369   4.794   5.147  0.4180  0.1437  1.2675
26786SOL     OW82079   9.245   8.752   8.780  0.1215 -0.0356 -0.6295
26786SOL    HW182080   9.203   8.792   8.704 -1.5775 -0.7146 -0.0996
26786SOL    HW282081   9.300   8.683   8.744  0.6415  0.7125 -1.3243
26787SOL     OW82082   6.267   0.319   1.414 -0.1752 -0.3201  0.5190
26787SOL    HW182083   6.280   0.317   1.320 -0.2746  2.2972  0.3878
26787SOL    HW282084   6.343   0.274   1.451  0.2843 -0.5971 -0.7440
26788SOL     OW82085   6.581   8.921   2.516  0.2942  0.4352  0.2933
26788SOL    HW182086   6.501   8.938   2.466  0.8839  0.2438 -0.7391
26788SOL    HW282087   6.585   8.825   2.522 -0.6581  0.4646  2.2110
26789SOL     OW82088   6.866   1.461   3.609  0.0410 -0.3617 -0.4044
26789SOL    HW182089   6.772   1.467   3.588  0.2187 -1.8421 -1.7902
26789SOL    HW282090   6.887   1.547   3.646 -1.3261  0.9262 -2.3623
26790SOL     OW82091   5.617   5.337   1.809  0.1348  0.1497 -0.3308
26790SOL    HW182092   5.583   5.252   1.780  1.9033 -0.8858  0.4543
26790SOL    HW282093   5.567   5.358   1.887 -0.4451 -0.0647 -0.6383
26791SOL     OW82094   4.131   0.604   4.425  0.1731 -0.3501 -0.1276
26791SOL    HW182095   4.107   0.675   4.485  0.1064 -1.3588  1.0673
26791SOL    HW282096   4.225   0.593   4.438  0.1851 -0.4892 -0.3276
26792SOL     OW82097   6.076   2.274   6.011 -0.8924  0.4388 -0.1914
26792SOL    HW182098   6.115   2.341   6.067 -4.0092  1.3489  1.1133
26792SOL    HW282099   6.043   2.323   5.936 -3.2118  0.4846  0.7802
26793SOL     OW82100   3.725   0.893   2.766 -0.2683  0.2835 -0.5585
26793SOL    HW182101   3.764   0.969   2.722  0.2495 -0.6731 -1.8032
26793SOL    HW282102   3.632   0.915   2.773  0.2088  2.0062  1.2065
26794SOL     OW82103   3.247   1.246   0.822  0.4095  0.1421  0.2685
26794SOL    HW182104   3.251   1.150   0.820 -0.8384  0.0876 -0.6466
26794SOL    HW282105   3.202   1.270   0.741  0.9829  1.5357  0.3315
26795SOL     OW82106   4.219   4.290   7.441 -0.5389 -0.6125 -0.0535
26795SOL    HW182107   4.279   4.309   7.513 -1.3128 -0.5383  0.5904
26795SOL    HW282108   4.139   4.259   7.484 -1.2339  0.0203 -0.8408
26796SOL     OW82109   2.529   1.357   6.680 -0.4247 -0.1217 -0.2514
26796SOL    HW182110   2.544   1.387   6.590  2.8081 -1.1146 -0.1677
26796SOL    HW282111   2.556   1.265   6.680 -0.3787 -0.1592  1.7087
26797SOL     OW82112   7.240   2.519   5.871 -0.3769 -0.1279 -0.3912
26797SOL    HW182113   7.173   2.528   5.938  0.7956 -1.1652  0.9735
26797SOL    HW282114   7.213   2.443   5.820 -1.4509  0.8642 -1.3772
26798SOL     OW82115   7.632   7.709   5.294 -0.3223 -0.2248 -0.1495
26798SOL    HW182116   7.669   7.771   5.233 -0.7198 -0.2915 -0.4649
26798SOL    HW282117   7.661   7.623   5.263  0.9544 -0.1538  0.7894
26799SOL     OW82118   4.452   8.669   5.394  0.0767 -0.4683  0.4457
26799SOL    HW182119   4.410   8.645   5.312 -1.5796  0.2378  1.0386
26799SOL    HW282120   4.457   8.764   5.392 -0.2368 -0.4279  1.2848
26800SOL     OW82121   7.029   7.879   7.409  0.3782 -0.2955 -0.1774
26800SOL    HW182122   7.085   7.946   7.369  1.2380 -1.8978 -1.8311
26800SOL    HW282123   7.088   7.805   7.426 -0.9256 -1.4474 -0.4769
26801SOL     OW82124   1.470   4.799   2.218 -0.2182  0.4737  0.1400
26801SOL    HW182125   1.493   4.711   2.187 -0.5292  0.3820  0.1592
26801SOL    HW282126   1.527   4.813   2.294 -0.1247  0.3100  0.1012
26802SOL     OW82127   6.271   8.091   5.965 -0.3504 -0.2874  0.2208
26802SOL    HW182128   6.246   8.056   5.880 -1.6114  1.1147 -0.0542
26802SOL    HW282129   6.302   8.016   6.015 -2.2775 -1.6705 -0.5343
26803SOL     OW82130   0.831   7.465   3.437 -0.0440 -0.2939 -0.5754
26803SOL    HW182131   0.749   7.502   3.472 -0.6999 -1.9986 -0.1997
26803SOL    HW282132   0.841   7.507   3.352  0.4290  2.3272  0.6477
26804SOL     OW82133   8.291   6.044   6.513 -0.6333 -0.8363 -0.1490
26804SOL    HW182134   8.250   5.960   6.489 -1.5531  0.0444 -1.8499
26804SOL    HW282135   8.376   6.041   6.470 -0.6711 -0.8943 -0.2220
26805SOL     OW82136   1.270   5.961   7.458 -0.1250  0.4321  0.1350
26805SOL    HW182137   1.215   5.972   7.535 -1.1565 -0.0298 -0.5108
26805SOL    HW282138   1.220   6.000   7.387  0.3903  0.0142 -0.4684
26806SOL     OW82139   1.494   1.519   6.022 -0.1419 -0.4420  0.6089
26806SOL    HW182140   1.577   1.556   5.992 -0.9461  0.2465 -0.8399
26806SOL    HW282141   1.503   1.424   6.008  0.7938 -0.4978  1.5021
26807SOL     OW82142   5.828   6.546   2.645  0.4263  0.2318 -0.5463
26807SOL    HW182143   5.760   6.520   2.707 -1.1028  0.2883 -2.1210
26807SOL    HW282144   5.901   6.486   2.662 -0.5881 -0.8335  0.1822
26808SOL     OW82145   6.528   9.433   0.896 -0.8366  0.6542 -0.2966
26808SOL    HW182146   6.464   9.363   0.906  0.9578 -1.4338 -2.1720
26808SOL    HW282147   6.588   9.422   0.970 -1.5385  1.3996  0.4020
26809SOL     OW82148   0.653   7.418   3.982 -0.4307 -0.0114  0.1206
26809SOL    HW182149   0.642   7.447   4.072  0.0550  1.8634 -0.3764
26809SOL    HW282150   0.735   7.368   3.983  0.3559  1.2545  0.4562
26810SOL     OW82151   9.675   5.621   7.776 -0.0081  0.5456 -0.1550
26810SOL    HW182152   9.647   5.544   7.826  2.5338 -0.0255  0.5408
26810SOL    HW282153   9.680   5.591   7.685  1.5362 -0.3453  0.1919
26811SOL     OW82154   2.179   1.595   2.107 -0.2951  0.0889  0.6264
26811SOL    HW182155   2.252   1.656   2.110  0.4432 -0.7701  0.4394
26811SOL    HW282156   2.142   1.606   2.019  0.1590 -0.1062  0.4104
26812SOL     OW82157   4.398   7.774   5.316 -0.2142 -0.2992 -0.0457
26812SOL    HW182158   4.385   7.857   5.361 -2.6723 -0.7383  0.2065
26812SOL    HW282159   4.493   7.761   5.317  0.0444  1.0062  2.6467
26813SOL     OW82160   6.648   5.529   8.203 -0.3646  0.1854  0.4096
26813SOL    HW182161   6.704   5.499   8.274 -1.3878 -1.7309  0.4628
26813SOL    HW282162   6.694   5.502   8.123 -0.4601  0.0243  0.4097
26814SOL     OW82163   9.548   2.104   0.258 -0.1097 -0.1153 -0.0268
26814SOL    HW182164   9.578   2.161   0.329 -0.4282  1.5301 -1.1729
26814SOL    HW282165   9.454   2.119   0.253 -0.1077 -0.3264 -0.7197
26815SOL     OW82166   9.235   0.987   7.577  0.7890 -0.1045 -0.1083
26815SOL    HW182167   9.205   0.914   7.631  0.2958  1.0181  1.1794
26815SOL    HW282168   9.198   1.065   7.618  0.1510  0.7992 -2.2421
26816SOL     OW82169   9.456   3.748   3.167 -0.2676 -0.0450 -0.6554
26816SOL    HW182170   9.435   3.756   3.074 -0.6412  1.9368 -0.4313
26816SOL    HW282171   9.372   3.741   3.211 -0.2729  2.0834 -0.2440
26817SOL     OW82172   8.826   8.401   4.364 -0.1613 -0.3359 -0.3729
26817SOL    HW182173   8.900   8.455   4.392  0.7094 -0.4069 -2.4389
26817SOL    HW282174   8.837   8.319   4.412  1.1140 -0.3521 -0.6612
26818SOL     OW82175   3.569   2.177   3.432  0.0395 -0.2500  0.1738
26818SOL    HW182176   3.613   2.132   3.504  1.6021 -0.4438 -0.8612
26818SOL    HW282177   3.479   2.144   3.434  0.1954 -0.6569  1.6688
26819SOL     OW82178   3.449   4.974   4.439  0.3347  0.2092 -0.3908
26819SOL    HW182179   3.478   4.914   4.509 -0.1686 -0.4218 -0.7089
26819SOL    HW282180   3.412   5.049   4.486  0.5745  0.0759  0.0197
26820SOL     OW82181   0.544   2.275   6.229 -0.0687  0.0455 -0.7363
26820SOL    HW182182   0.489   2.351   6.246 -0.8699 -0.0740 -2.5282
26820SOL    HW282183   0.623   2.291   6.280 -0.2029  2.1050 -1.0845
26821SOL     OW82184   0.145   0.557   8.948 -0.3485 -0.0505 -0.6390
26821SOL    HW182185   0.234   0.552   8.985  0.5628  1.6489 -2.3694
26821SOL    HW282186   0.146   0.496   8.874  0.1160  1.3884 -1.8882
26822SOL     OW82187   0.568   6.258   3.839  0.0102  0.7187 -0.0732
26822SOL    HW182188   0.614   6.183   3.876 -0.4918  1.3852  2.0916
26822SOL    HW282189   0.494   6.271   3.899 -2.8411 -0.0540 -3.1380
26823SOL     OW82190   5.367   0.705   8.590  0.0107  0.2566 -0.1120
26823SOL    HW182191   5.459   0.684   8.603 -0.1852 -0.0656  0.8466
26823SOL    HW282192   5.331   0.629   8.544  0.2977  0.5557 -0.8477
26824SOL     OW82193   3.210   5.571   6.576  0.2955 -0.1271 -0.4501
26824SOL    HW182194   3.176   5.521   6.650  0.4819 -0.4981 -0.6090
26824SOL    HW282195   3.159   5.540   6.501 -1.5691  1.9635 -0.1297
26825SOL     OW82196   4.101   1.760   0.111  0.7041  0.0192  0.2022
26825SOL    HW182197   4.034   1.721   0.167 -0.1128  0.9419 -0.0961
26825SOL    HW282198   4.146   1.686   0.071 -0.9293 -0.6224 -0.5076
26826SOL     OW82199   3.639   2.858   1.131 -0.1707  0.5334 -0.5903
26826SOL    HW182200   3.638   2.910   1.212 -0.5908 -0.2416 -0.0850
26826SOL    HW282201   3.586   2.781   1.151 -1.1224  0.7935 -1.9216
26827SOL     OW82202   6.109   9.274   3.024  0.2902 -0.5793  0.4910
26827SOL    HW182203   6.141   9.184   3.026  0.8012 -0.4922 -1.7296
26827SOL    HW282204   6.021   9.267   2.985  0.0932 -0.1736  0.8542
26828SOL     OW82205   9.369   5.673   6.658  0.1558  0.7531  0.4097
26828SOL    HW182206   9.464   5.669   6.649  0.2098  1.4008  0.6755
26828SOL    HW282207   9.336   5.646   6.572  0.5484 -0.4700  0.6156
26829SOL     OW82208   0.697   1.399   1.064 -0.1820  0.0968  0.2074
26829SOL    HW182209   0.792   1.408   1.067 -0.2020  0.1710  0.7640
26829SOL    HW282210   0.665   1.489   1.074 -0.3112  0.1082 -0.2676
26830SOL     OW82211   6.492   4.618   6.181  0.1288 -0.1466 -0.0300
26830SOL    HW182212   6.548   4.683   6.138  1.0146  0.1358  1.5118
26830SOL    HW282213   6.407   4.662   6.190 -0.5246 -0.6766 -2.6293
26831SOL     OW82214   4.203   2.833   2.441  0.4741  0.0340 -0.6612
26831SOL    HW182215   4.155   2.771   2.386  0.3485  0.9503 -1.5949
26831SOL    HW282216   4.139   2.861   2.506 -0.1482  0.9111 -1.6321
26832SOL     OW82217   5.992   2.946   2.210 -0.7072  0.6033 -0.0881
26832SOL    HW182218   6.056   3.006   2.249  0.3287  0.6898 -1.8118
26832SOL    HW282219   5.989   2.872   2.270  1.1462  0.5315 -0.0224
26833SOL     OW82220   9.495   8.264   0.824  0.1559  0.6154  0.5547
26833SOL    HW182221   9.522   8.178   0.790  0.1196  0.9750 -0.4208
26833SOL    HW282222   9.560   8.325   0.788 -0.2289  1.0883  0.6567
26834SOL     OW82223   3.282   4.343   8.277 -0.5420 -0.0842  0.0550
26834SOL    HW182224   3.226   4.415   8.247 -0.6629 -0.3095 -0.2587
26834SOL    HW282225   3.277   4.278   8.208  0.3637  0.0306 -0.1363
26835SOL     OW82226   8.094   1.156   3.311  0.2811  0.3824 -0.3182
26835SOL    HW182227   8.009   1.113   3.310  0.3284  0.1829  1.1379
26835SOL    HW282228   8.074   1.249   3.317  0.1789  0.4618 -1.6992
26836SOL     OW82229   7.159   5.027   7.835 -0.2636  0.5959 -0.1774
26836SOL    HW182230   7.170   5.003   7.926 -0.2091 -0.6507 -0.4953
26836SOL    HW282231   7.195   4.953   7.786  0.0629  1.4156 -1.2089
26837SOL     OW82232   0.360   6.772   9.497  0.0611  0.6522 -0.7717
26837SOL    HW182233   0.395   6.857   9.523  3.8252 -0.9889  0.2665
26837SOL    HW282234   0.369   6.771   9.401 -2.9978  2.4349 -1.2014
26838SOL     OW82235   3.523   5.307   6.115 -0.0945 -0.4823 -0.2527
26838SOL    HW182236   3.547   5.216   6.098  1.9512  0.0041 -0.2212
26838SOL    HW282237   3.559   5.355   6.040  0.0089  0.4434  0.3815
26839SOL     OW82238   3.103   5.089   6.978  0.4073 -0.3915 -0.4549
26839SOL    HW182239   3.034   5.135   7.027  1.0809  0.7342 -0.5155
26839SOL    HW282240   3.057   5.024   6.926 -0.9134  1.6821 -2.0799
26840SOL     OW82241   5.506   2.271   7.542 -0.2105 -0.3419 -0.5936
26840SOL    HW182242   5.599   2.287   7.526 -0.2685  1.4022  0.5074
26840SOL    HW282243   5.505   2.190   7.594  0.8211  0.3472  0.5658
26841SOL     OW82244   4.167   1.270   7.822 -0.0908 -0.3191 -0.2688
26841SOL    HW182245   4.174   1.294   7.915  1.0800  1.4096 -0.7498
26841SOL    HW282246   4.149   1.176   7.823  1.4495 -0.6691  1.7020
26842SOL     OW82247   8.537   3.342   4.026  0.1705  0.4292 -0.5576
26842SOL    HW182248   8.598   3.336   4.100 -0.4013  0.1452 -0.0992
26842SOL    HW282249   8.579   3.292   3.956  0.7802  0.8120 -0.4707
26843SOL     OW82250   3.796   6.549   7.660  0.8089 -0.2800  0.3508
26843SOL    HW182251   3.869   6.504   7.618  1.8174  2.1303 -0.6745
26843SOL    HW282252   3.807   6.641   7.635 -1.9410  0.3475  1.1094
26844SOL     OW82253   7.009   3.282   7.066 -0.3498  0.0821  0.1145
26844SOL    HW182254   7.041   3.241   6.986 -0.5061  1.6661 -0.7891
26844SOL    HW282255   7.023   3.215   7.134  0.8295 -0.8710 -1.0086
26845SOL     OW82256   6.980   9.386   3.887  0.4907  0.0262  0.1344
26845SOL    HW182257   7.025   9.303   3.874 -1.2730 -1.2532  1.7626
26845SOL    HW282258   7.035   9.435   3.948  1.2376 -0.1675 -0.3748
26846SOL     OW82259   6.352   2.704   9.629  0.0297  0.3130  0.1111
26846SOL    HW182260   6.366   2.783   9.577 -3.0246  0.8117 -0.1965
26846SOL    HW282261   6.262   2.678   9.607  0.6219 -2.7446  0.9043
26847SOL     OW82262   2.859   7.348   2.213  0.3941  0.6883  0.3239
26847SOL    HW182263   2.897   7.421   2.166 -0.2165  0.6567 -0.2374
26847SOL    HW282264   2.782   7.385   2.257 -0.2659  0.2717 -0.4512
26848SOL     OW82265   1.248   3.983   3.412 -0.3920  0.0086  0.1454
26848SOL    HW182266   1.229   3.895   3.380 -1.9113  1.2005 -2.4938
26848SOL    HW282267   1.344   3.986   3.417 -0.2701 -1.4350 -0.7544
26849SOL     OW82268   7.014   2.703   0.170  0.3339 -0.1261  0.1266
26849SOL    HW182269   6.989   2.657   0.090 -0.0877 -1.6049  1.0645
26849SOL    HW282270   6.939   2.691   0.229  0.2978  1.6273  0.4874
26850SOL     OW82271   5.625   1.984   8.072  0.2529 -0.2818  0.3808
26850SOL    HW182272   5.627   2.048   8.001  0.0987 -0.2961  0.3618
26850SOL    HW282273   5.551   2.011   8.126 -1.9837 -2.3459 -1.4412
26851SOL     OW82274   5.577   6.354   4.233  0.3077 -0.1302 -0.1175
26851SOL    HW182275   5.523   6.277   4.249  0.5149 -0.1495  0.5138
26851SOL    HW282276   5.515   6.420   4.201 -0.4635  0.4140  2.2575
26852SOL     OW82277   0.058   5.263   4.036  0.7214 -0.0616 -0.3151
26852SOL    HW182278   0.090   5.180   3.999  0.7460 -0.0951 -0.2202
26852SOL    HW282279  -0.026   5.277   3.993  1.5093  0.7725 -1.6509
26853SOL     OW82280   2.669   5.527   4.656  0.0318 -0.0566 -0.0227
26853SOL    HW182281   2.737   5.513   4.721 -0.7286  2.1673  1.3747
26853SOL    HW282282   2.630   5.441   4.642  1.0409 -0.7997  1.5573
26854SOL     OW82283   1.301   6.172   6.600  0.2292 -0.6936 -0.8158
26854SOL    HW182284   1.391   6.159   6.570  0.4153 -0.5107 -0.3475
26854SOL    HW282285   1.310   6.214   6.685 -0.3270  0.3743 -1.2719
26855SOL     OW82286   1.589   2.096   4.797 -0.2724  0.4023 -0.1394
26855SOL    HW182287   1.520   2.106   4.731 -2.3002  1.2064  1.9510
26855SOL    HW282288   1.638   2.178   4.793  0.1254  0.1383 -1.1232
26856SOL     OW82289   1.788   2.747   5.263 -0.4362 -0.6295  0.1819
26856SOL    HW182290   1.766   2.839   5.275  0.1944 -0.3511 -0.6615
26856SOL    HW282291   1.739   2.701   5.330 -1.3939  0.2452  0.0951
26857SOL     OW82292   2.517   0.269   8.539 -0.6121  0.0268 -0.3767
26857SOL    HW182293   2.549   0.199   8.596 -3.0934  0.2808  1.4870
26857SOL    HW282294   2.555   0.249   8.453  2.2067 -1.1069  1.0207
26858SOL     OW82295   8.891   3.804   5.960  0.0529 -0.4458  0.3758
26858SOL    HW182296   8.868   3.711   5.957  0.1859 -0.4786 -2.8333
26858SOL    HW282297   8.817   3.848   5.918  1.0000  0.6358 -0.2025
26859SOL     OW82298   4.266   7.048   8.811 -0.2346 -0.0511  0.7206
26859SOL    HW182299   4.347   7.015   8.774 -0.8174  0.3902 -1.0718
26859SOL    HW282300   4.217   7.081   8.735 -2.1114 -0.3733  1.7316
26860SOL     OW82301   8.677   6.880   7.266 -0.2744  0.7356 -0.0181
26860SOL    HW182302   8.729   6.816   7.315  2.3792  0.6832 -2.6699
26860SOL    HW282303   8.615   6.827   7.216  0.4144  0.3942 -0.5220
26861SOL     OW82304   9.163   7.265   4.722  0.2183 -0.3236 -0.0282
26861SOL    HW182305   9.122   7.347   4.695 -0.1084 -0.8245 -1.1005
26861SOL    HW282306   9.242   7.259   4.669 -0.0620 -0.9839 -0.3776
26862SOL     OW82307   4.464   0.369   9.698 -0.1246  0.2461 -0.7046
26862SOL    HW182308   4.468   0.308   9.771 -0.8332 -0.4894 -1.2705
26862SOL    HW282309   4.485   0.317   9.621  0.0443  0.8890 -1.1048
26863SOL     OW82310   6.046   0.155   7.560 -0.6248  0.0164 -0.4921
26863SOL    HW182311   5.982   0.208   7.513 -2.4888 -0.6915  1.1072
26863SOL    HW282312   6.086   0.214   7.623 -0.1411  0.3043 -1.0560
26864SOL     OW82313   9.189   4.024   5.365 -0.9577 -0.2890  0.3354
26864SOL    HW182314   9.228   3.957   5.309 -0.5991  0.5061 -0.3702
26864SOL    HW282315   9.095   4.020   5.346 -1.1205 -1.4557  1.2429
26865SOL     OW82316   9.124   0.671   4.073  0.0276 -0.0582  0.0308
26865SOL    HW182317   9.151   0.654   3.983 -1.9960 -1.2567 -0.4250
26865SOL    HW282318   9.187   0.624   4.127  0.2446 -0.7871 -0.8458
26866SOL     OW82319   3.393   8.423   9.324  0.0920 -0.2902  0.0815
26866SOL    HW182320   3.376   8.434   9.417  1.5005 -0.2016  0.3392
26866SOL    HW282321   3.413   8.331   9.313 -0.1723 -0.3212 -0.1553
26867SOL     OW82322   5.294   9.393   6.201  0.0205 -0.1581 -0.1353
26867SOL    HW182323   5.310   9.416   6.110  0.7095 -0.0586  0.0002
26867SOL    HW282324   5.226   9.326   6.198  0.8435 -0.9992 -0.8120
26868SOL     OW82325   8.696   4.741   4.591 -0.0208 -0.2369 -0.1545
26868SOL    HW182326   8.735   4.664   4.550 -0.8919 -0.8091  0.0604
26868SOL    HW282327   8.739   4.748   4.676  0.7476  0.0895 -0.5671
26869SOL     OW82328   2.768   2.759   4.292 -0.3402  0.2408  0.1761
26869SOL    HW182329   2.727   2.699   4.354  0.8945  0.0306  0.8185
26869SOL    HW282330   2.753   2.846   4.329 -0.4113  0.1830  0.2815
26870SOL     OW82331   5.121   5.034   5.736  0.5998  0.1517 -0.2407
26870SOL    HW182332   5.216   5.022   5.737  0.5471 -0.3231 -0.4632
26870SOL    HW282333   5.086   4.950   5.766  0.2726  0.7136  1.0543
26871SOL     OW82334   2.525   7.752   2.344 -0.0761  0.0673  0.0290
26871SOL    HW182335   2.537   7.802   2.424  0.2578  2.4251 -1.3815
26871SOL    HW282336   2.595   7.782   2.286 -0.0499 -1.8662 -1.0238
26872SOL     OW82337   3.833   0.955   6.853  0.1416 -0.1245 -0.0739
26872SOL    HW182338   3.876   1.037   6.829 -0.4705 -0.1985 -1.5799
26872SOL    HW282339   3.778   0.978   6.928 -0.7144  1.1052 -1.0153
26873SOL     OW82340   0.482   2.562   3.204  0.3746  0.1144  0.1020
26873SOL    HW182341   0.482   2.640   3.149 -0.9875 -0.9363 -1.4751
26873SOL    HW282342   0.396   2.563   3.247  0.5733 -0.2406  0.5187
26874SOL     OW82343   6.390   4.611   1.428 -0.0688  0.1272  0.0489
26874SOL    HW182344   6.433   4.588   1.510 -0.9711  0.1446  0.5377
26874SOL    HW282345   6.298   4.591   1.443 -0.2744  0.3250 -0.8945
26875SOL     OW82346   2.409   2.880   6.499 -0.4167 -0.1979 -0.0449
26875SOL    HW182347   2.479   2.822   6.469  0.2740  0.6896 -0.1927
26875SOL    HW282348   2.354   2.824   6.555 -1.4847 -1.7904 -2.4728
26876SOL     OW82349   6.213   0.957   3.489 -0.6197  0.0172  0.0369
26876SOL    HW182350   6.284   0.975   3.550 -0.6422  0.0319  0.0590
26876SOL    HW282351   6.169   1.042   3.477 -2.2706 -0.4671  2.0730
26877SOL     OW82352   6.084   4.044   3.914  0.2730 -0.1718 -0.3650
26877SOL    HW182353   6.119   3.955   3.921  2.5326  0.5061 -2.0056
26877SOL    HW282354   6.059   4.053   3.822  0.3831  0.9974 -0.2932
26878SOL     OW82355   3.558   0.400   2.227 -0.4442 -0.1695  0.2279
26878SOL    HW182356   3.521   0.380   2.313 -1.2856 -0.2516 -0.1435
26878SOL    HW282357   3.556   0.317   2.180  0.6099 -0.2727  0.3217
26879SOL     OW82358   0.426   4.845   5.969 -0.1863  0.1088  0.0650
26879SOL    HW182359   0.426   4.772   5.907  0.4086 -0.1226  0.3356
26879SOL    HW282360   0.421   4.923   5.913  0.6346 -0.0886 -0.2987
26880SOL     OW82361   4.375   5.970   0.703 -0.4834 -0.1802  0.0735
26880SOL    HW182362   4.401   6.008   0.787 -0.5567 -0.6787  0.3300
26880SOL    HW282363   4.442   5.904   0.685 -0.3344  0.0914 -0.3835
26881SOL     OW82364   2.789   6.398   6.601  0.1479 -0.2535  0.5616
26881SOL    HW182365   2.850   6.375   6.531  0.2205  0.0072  0.5413
26881SOL    HW282366   2.784   6.318   6.654  2.7606  0.5562  2.2258
26882SOL     OW82367   7.840   7.047   5.165 -0.0106  0.0348 -0.1361
26882SOL    HW182368   7.797   7.040   5.250 -1.6094  0.2532 -0.8807
26882SOL    HW282369   7.931   7.023   5.181 -0.2807  0.0883  1.6250
26883SOL     OW82370   7.097   6.222   0.088 -0.2501  0.2265  0.2417
26883SOL    HW182371   7.019   6.230   0.142 -1.0896 -1.6498 -0.6239
26883SOL    HW282372   7.125   6.131   0.099  1.6269  0.7691  0.2551
26884SOL     OW82373   9.461   2.650   8.762  0.1014 -0.1244 -0.0084
26884SOL    HW182374   9.548   2.612   8.774  0.5073  0.8295  0.1281
26884SOL    HW282375   9.470   2.707   8.685 -0.7312 -0.9764 -0.7616
26885SOL     OW82376   1.066   6.419   6.739  0.0038 -0.2269 -0.1996
26885SOL    HW182377   1.037   6.503   6.774  0.0047 -0.2460 -0.1513
26885SOL    HW282378   1.143   6.396   6.792  0.0257 -0.2404 -0.2372
26886SOL     OW82379   3.529   6.560   0.468  0.2205 -0.6069 -0.0370
26886SOL    HW182380   3.462   6.589   0.407 -1.3037  0.4697  2.0148
26886SOL    HW282381   3.481   6.507   0.532  0.9684  1.3647  2.3113
26887SOL     OW82382   9.250   7.388   6.074 -0.3024  0.0969  0.4164
26887SOL    HW182383   9.326   7.441   6.099  1.0096 -0.6822 -1.6719
26887SOL    HW282384   9.178   7.427   6.123  1.1858  1.7264  1.4662
26888SOL     OW82385   0.507   4.254   6.642  0.5642 -0.1077 -0.0579
26888SOL    HW182386   0.450   4.310   6.695  0.4206 -0.0793 -0.2397
26888SOL    HW282387   0.484   4.165   6.668  1.1512 -0.0758  0.6000
26889SOL     OW82388   4.646   6.733   1.720 -0.6701 -0.4933  0.3023
26889SOL    HW182389   4.693   6.756   1.800 -0.4690 -0.4765  0.1790
26889SOL    HW282390   4.666   6.805   1.660 -0.8297 -0.5005  0.2409
26890SOL     OW82391   7.832   3.500   0.872 -0.4324 -0.5477 -0.6171
26890SOL    HW182392   7.846   3.417   0.828 -0.4019 -0.9396  0.1208
26890SOL    HW282393   7.761   3.483   0.934 -0.2191 -0.1099 -0.2440
26891SOL     OW82394   0.202   3.129   6.511  0.8761 -0.4442 -0.3864
26891SOL    HW182395   0.112   3.147   6.484  1.8357  2.3503 -2.1097
26891SOL    HW282396   0.211   3.171   6.596  0.9933  0.8831 -1.0255
26892SOL     OW82397   1.680   4.555   7.112  0.4191 -0.5953 -0.1273
26892SOL    HW182398   1.719   4.481   7.065 -0.1654 -0.9881 -0.0039
26892SOL    HW282399   1.729   4.631   7.082  2.2738 -1.2419  1.1085
26893SOL     OW82400   7.175   2.927   2.450  0.5920 -0.0927  0.6636
26893SOL    HW182401   7.219   2.974   2.380 -0.1926  0.6398  0.6532
26893SOL    HW282402   7.082   2.940   2.433  0.3883 -0.3598  1.5350
26894SOL     OW82403   6.943   1.898   9.071  0.8772 -0.2326 -0.0196
26894SOL    HW182404   6.882   1.834   9.107 -0.8781  1.2630 -0.1888
26894SOL    HW282405   6.968   1.862   8.986  0.2720 -0.8799  0.0656
26895SOL     OW82406   7.077   2.895   2.980  0.4789 -0.7416  0.3889
26895SOL    HW182407   7.075   2.989   2.997 -1.2977 -0.8678  1.1517
26895SOL    HW282408   7.149   2.862   3.034  0.9465  0.1400  0.3114
26896SOL     OW82409   6.017   4.015   8.205 -0.0932 -0.1924 -0.2653
26896SOL    HW182410   6.008   4.098   8.252  0.4001  0.3270 -1.0733
26896SOL    HW282411   6.096   4.025   8.152 -0.1012 -1.1306 -0.4808
26897SOL     OW82412   5.809   5.657   9.037 -0.0310 -0.2975 -0.0244
26897SOL    HW182413   5.725   5.673   8.993 -0.3439  0.2886  0.7517
26897SOL    HW282414   5.797   5.575   9.083 -0.0333 -0.4260 -0.2527
26898SOL     OW82415   6.724   8.868   8.855 -0.4371 -0.0398 -0.5074
26898SOL    HW182416   6.652   8.925   8.828  1.6138  2.0339 -1.9653
26898SOL    HW282417   6.793   8.928   8.882  0.5611 -1.9733  1.5463
26899SOL     OW82418   7.614   1.427   2.188 -0.3793 -0.3661 -0.0811
26899SOL    HW182419   7.599   1.447   2.095  1.1325 -0.1485 -0.3002
26899SOL    HW282420   7.608   1.332   2.193  0.5786 -0.4670 -0.6184
26900SOL     OW82421   7.502   6.033   8.312 -0.2638  0.4252 -0.3800
26900SOL    HW182422   7.483   6.054   8.403  1.2242  0.1115  0.0243
26900SOL    HW282423   7.508   6.118   8.268 -2.3233  0.5505 -0.5144
26901SOL     OW82424   2.753   9.660   1.863 -0.4170  0.7476  0.1946
26901SOL    HW182425   2.843   9.686   1.843 -0.8856  1.1988 -1.4766
26901SOL    HW282426   2.748   9.569   1.834 -1.3060  1.6198 -2.7033
26902SOL     OW82427   6.620   5.087   1.449  0.1168 -0.0505  0.4771
26902SOL    HW182428   6.594   4.995   1.442 -1.4100  0.3813  0.0325
26902SOL    HW282429   6.594   5.113   1.537 -0.8172  0.3227  0.1086
26903SOL     OW82430   8.292   2.607   6.690  0.0555 -0.1024 -0.2573
26903SOL    HW182431   8.358   2.570   6.749  0.9493  0.1784 -1.0469
26903SOL    HW282432   8.284   2.698   6.717  0.4379  0.0167 -0.5300
26904SOL     OW82433   1.889   2.703   6.485  0.2121 -0.0582  0.1658
26904SOL    HW182434   1.912   2.774   6.424  2.2080 -0.3047  0.5555
26904SOL    HW282435   1.812   2.736   6.531  1.0364  1.8504  0.2890
26905SOL     OW82436   5.652   3.612   5.859  0.4132  0.0648 -0.1426
26905SOL    HW182437   5.705   3.545   5.902  0.0219  0.9927  1.8640
26905SOL    HW282438   5.692   3.695   5.884 -1.0294  0.7191  0.1092
26906SOL     OW82439   3.203   2.818   3.172  0.4321  0.1182 -0.5600
26906SOL    HW182440   3.297   2.808   3.185  0.1416 -0.2564  1.5567
26906SOL    HW282441   3.171   2.855   3.254 -1.3249 -0.1574 -1.0812
26907SOL     OW82442   0.217   7.577   4.755 -0.1534 -0.2209  0.4882
26907SOL    HW182443   0.255   7.593   4.669  0.0055  0.2597  0.6399
26907SOL    HW282444   0.156   7.651   4.768 -0.3673 -0.4287  0.6775
26908SOL     OW82445   9.361   2.577   6.246  0.0849 -0.8892  0.3839
26908SOL    HW182446   9.432   2.585   6.310  0.5255 -0.3115 -0.1504
26908SOL    HW282447   9.339   2.484   6.245  1.9192 -1.3700 -0.5400
26909SOL     OW82448   2.553   5.922   6.369  0.4148 -0.4967 -0.1562
26909SOL    HW182449   2.603   5.942   6.448 -0.6565 -1.3277  0.7653
26909SOL    HW282450   2.485   5.990   6.366  0.3150 -0.5988 -0.2322
26910SOL     OW82451   6.407   9.660   0.289  0.2428  0.5902 -0.1914
26910SOL    HW182452   6.321   9.679   0.328  1.0322  0.9250  1.5110
26910SOL    HW282453   6.407   9.565   0.276 -0.2097  0.5220  0.2664
26911SOL     OW82454   2.620   1.067   0.236 -0.4492 -0.3741 -0.5807
26911SOL    HW182455   2.610   1.112   0.152  0.4481 -0.7496 -0.8938
26911SOL    HW282456   2.545   1.008   0.240 -1.4968  0.9031 -0.2940
26912SOL     OW82457   6.521   5.763   3.385 -0.0054  0.1692  0.3413
26912SOL    HW182458   6.494   5.847   3.347 -0.5875 -0.3823 -0.5033
26912SOL    HW282459   6.568   5.787   3.465 -0.8003  1.2649  0.5005
26913SOL     OW82460   1.527   1.981   0.650  0.4944 -0.3709 -0.7108
26913SOL    HW182461   1.542   1.934   0.568  0.3769  0.9911 -1.5429
26913SOL    HW282462   1.463   2.049   0.627  1.6812  1.0696  0.0938
26914SOL     OW82463   2.241   9.336   4.169  0.0011  0.0847 -0.1449
26914SOL    HW182464   2.156   9.362   4.134  0.0086 -0.1381 -0.3326
26914SOL    HW282465   2.267   9.409   4.225 -0.5490 -0.0741  0.3288
26915SOL     OW82466   6.580   9.398   2.493 -0.0184  0.1789 -0.2942
26915SOL    HW182467   6.499   9.427   2.534  0.0190  0.2161 -0.2464
26915SOL    HW282468   6.649   9.448   2.537 -0.1590  2.0062 -2.0242
26916SOL     OW82469   2.551   7.471   7.023  0.1646  0.1468 -0.2237
26916SOL    HW182470   2.555   7.394   7.080 -2.5521 -0.0769 -0.2400
26916SOL    HW282471   2.527   7.437   6.937  0.6757  0.8705 -0.6714
26917SOL     OW82472   9.604   4.907   6.422  0.7480  0.3002  0.4150
26917SOL    HW182473   9.662   4.949   6.487  1.7996 -0.1750 -0.1993
26917SOL    HW282474   9.614   4.814   6.438  0.0684  0.2130  0.3523
26918SOL     OW82475   4.290   3.585   1.252 -0.3071 -0.3639 -0.0427
26918SOL    HW182476   4.220   3.521   1.244 -1.0547  0.2910  1.0481
26918SOL    HW282477   4.289   3.633   1.169 -0.7856 -0.7223 -0.2446
26919SOL     OW82478   0.412   6.918   0.259  0.3594  0.4140  0.5811
26919SOL    HW182479   0.486   6.913   0.319  0.3224 -1.1042  0.5297
26919SOL    HW282480   0.442   6.875   0.179 -0.4589  0.0899  0.4366
26920SOL     OW82481   7.318   7.311   4.667  0.2530 -0.2211 -0.3587
26920SOL    HW182482   7.225   7.300   4.687  0.5640 -2.0081  0.3238
26920SOL    HW282483   7.338   7.238   4.608  1.2928 -0.0829 -0.1879
26921SOL     OW82484   6.456   9.261   7.195  0.0791 -0.0344  0.1172
26921SOL    HW182485   6.451   9.344   7.149  0.6097 -0.2149 -0.2706
26921SOL    HW282486   6.365   9.240   7.216 -0.0038  1.0516  0.9621
26922SOL     OW82487   8.269   2.197   9.154  0.2816  0.1339  0.2251
26922SOL    HW182488   8.277   2.284   9.115 -1.3470 -0.2406 -1.0583
26922SOL    HW282489   8.178   2.172   9.140  0.1503 -0.9363  2.4556
26923SOL     OW82490   4.396   5.993   4.004  0.0763 -0.5180 -0.1834
26923SOL    HW182491   4.423   6.077   4.039  0.3187 -0.7014  0.0729
26923SOL    HW282492   4.330   6.014   3.938 -2.1253 -0.2358  1.9588
26924SOL     OW82493   2.003   7.763   3.188  0.0038  0.7338  0.1468
26924SOL    HW182494   1.910   7.778   3.207 -0.4430 -0.3553 -0.9917
26924SOL    HW282495   2.035   7.847   3.156 -0.9004  0.8437 -0.5216
26925SOL     OW82496   5.577   9.666   3.649 -1.1723  0.1460  0.0595
26925SOL    HW182497   5.610   9.672   3.738 -1.3973 -2.3151  0.3909
26925SOL    HW282498   5.484   9.645   3.660 -1.1187 -0.5598 -0.7109
26926SOL     OW82499   0.068   3.991   1.137 -0.1174 -0.3022  0.1003
26926SOL    HW182500   0.081   3.922   1.072 -1.7792  0.2515 -0.8911
26926SOL    HW282501   0.053   4.070   1.085 -0.5681  0.3338  1.1657
26927SOL     OW82502   6.118   9.298   5.893 -0.3853 -0.9255  0.5292
26927SOL    HW182503   6.188   9.242   5.858  1.2194  1.2239  0.1117
26927SOL    HW282504   6.163   9.359   5.951 -1.9622  0.3388  0.4961
26928SOL     OW82505   7.784   4.250   0.302 -0.7585  0.1854 -0.0100
26928SOL    HW182506   7.730   4.305   0.359 -1.3217  1.4046 -1.6352
26928SOL    HW282507   7.725   4.180   0.274 -1.5582  1.4373 -1.6691
26929SOL     OW82508   9.430   1.260   6.034 -0.0567 -0.3632  0.0041
26929SOL    HW182509   9.507   1.303   6.000 -0.1088  0.2827  0.6781
26929SOL    HW282510   9.357   1.318   6.011  0.0870  1.1138  2.7717
26930SOL     OW82511   7.101   6.636   9.440  0.0481 -0.5240  0.1627
26930SOL    HW182512   7.115   6.721   9.482 -0.1969 -0.1911 -0.4076
26930SOL    HW282513   7.115   6.572   9.510 -0.1275  0.0017  0.6921
26931SOL     OW82514   3.207   8.110   4.279  0.3938  0.2649 -0.4211
26931SOL    HW182515   3.208   8.117   4.183 -0.3930 -0.7108 -0.5297
26931SOL    HW282516   3.114   8.101   4.301  0.6180 -0.3179  0.3557
26932SOL     OW82517   3.650   4.652   8.817  0.0966 -0.1230 -0.0970
26932SOL    HW182518   3.702   4.589   8.867  0.2926  1.4597  1.8140
26932SOL    HW282519   3.563   4.650   8.857  0.3059  1.2945  0.5156
26933SOL     OW82520   8.157   5.922   8.769  0.3575 -0.5525 -0.5104
26933SOL    HW182521   8.233   5.967   8.731 -0.2358 -0.4690 -1.6103
26933SOL    HW282522   8.081   5.971   8.738 -0.1398 -0.2699  1.0789
26934SOL     OW82523   7.935   6.623   5.385  0.2147 -0.0900  0.0743
26934SOL    HW182524   7.993   6.650   5.456  0.5070 -0.1492 -0.1407
26934SOL    HW282525   7.847   6.648   5.415  0.4816  1.2274 -0.1602
26935SOL     OW82526   5.434   8.272   3.504 -0.1209  0.3241  0.0977
26935SOL    HW182527   5.514   8.322   3.486 -0.7870  1.2428 -0.3768
26935SOL    HW282528   5.428   8.271   3.599  0.5310  0.1124  0.1446
26936SOL     OW82529   8.765   6.319   1.155 -0.2479  0.4848  0.1401
26936SOL    HW182530   8.831   6.388   1.163 -0.5728  0.8226 -0.0590
26936SOL    HW282531   8.806   6.252   1.101 -0.3576  1.0503 -0.6600
26937SOL     OW82532   1.706   4.339   3.984 -0.2140  0.6069  0.1120
26937SOL    HW182533   1.768   4.269   3.966 -0.0162  0.9082 -0.4280
26937SOL    HW282534   1.650   4.341   3.907 -1.2682 -0.0337  0.8365
26938SOL     OW82535   6.665   8.839   7.605 -0.2596  0.6847  0.3028
26938SOL    HW182536   6.596   8.893   7.643  0.1541  2.0281 -0.7844
26938SOL    HW282537   6.743   8.894   7.607  0.4527 -0.2884  0.1955
26939SOL     OW82538   9.702   8.938   9.215 -0.3258 -0.0978 -0.0170
26939SOL    HW182539   9.620   8.901   9.247 -0.3801  0.2264  0.2308
26939SOL    HW282540   9.751   8.958   9.294  0.1510 -0.6350 -0.1729
26940SOL     OW82541   9.135   8.927   9.663  0.0902  0.2937 -0.3421
26940SOL    HW182542   9.073   8.998   9.679  0.4188  0.6660 -0.7281
26940SOL    HW282543   9.218   8.970   9.646  0.6788 -0.2232  1.0261
26941SOL     OW82544   2.510   5.828   0.837  0.0998  0.4128  0.2348
26941SOL    HW182545   2.418   5.809   0.854  0.5341 -0.6868  1.6204
26941SOL    HW282546   2.540   5.755   0.783  0.2276  0.6152  0.0309
26942SOL     OW82547   5.943   3.479   9.636 -0.1532  0.1212  0.0552
26942SOL    HW182548   5.909   3.394   9.662  0.9115 -0.1120  0.7182
26942SOL    HW282549   5.914   3.539   9.705  2.5993 -0.4826  1.8644
26943SOL     OW82550   0.544   5.867   3.685 -0.0018  0.3530 -0.1834
26943SOL    HW182551   0.474   5.922   3.722  0.5472  0.8586  0.1237
26943SOL    HW282552   0.527   5.866   3.591 -0.1823  0.8263 -0.1597
26944SOL     OW82553   9.011   2.925   5.842 -0.2673  0.4635 -0.2357
26944SOL    HW182554   8.978   2.851   5.791  3.0439 -1.0320 -0.5095
26944SOL    HW282555   9.048   2.884   5.921 -0.3181  2.1228  0.6810
26945SOL     OW82556   1.421   4.322   3.910 -0.0513  0.1251  0.3789
26945SOL    HW182557   1.426   4.255   3.842  0.1395 -0.6240  1.1221
26945SOL    HW282558   1.402   4.274   3.990 -1.3625  1.1114  0.6805
26946SOL     OW82559   0.537   2.741   3.874  0.3663 -0.2199  0.0766
26946SOL    HW182560   0.556   2.664   3.927  0.6285 -0.2894 -0.1206
26946SOL    HW282561   0.500   2.707   3.793  0.5214 -0.1421 -0.0279
26947SOL     OW82562   6.661   3.821   3.164 -0.0239  0.5379 -0.7816
26947SOL    HW182563   6.737   3.764   3.156  0.1021  0.7833 -1.3738
26947SOL    HW282564   6.690   3.906   3.131 -0.3285  0.8444 -0.2896
26948SOL     OW82565   0.459   8.188   1.597 -0.7798 -0.0272 -0.0973
26948SOL    HW182566   0.394   8.128   1.561 -2.3048  0.9917  0.8845
26948SOL    HW282567   0.446   8.185   1.691  0.1793  0.6860  0.0803
26949SOL     OW82568   8.704   4.177   7.976  0.5360  0.5529 -0.0619
26949SOL    HW182569   8.728   4.217   8.060  1.5836 -0.5131  0.1833
26949SOL    HW282570   8.610   4.190   7.970  0.8305  3.0915 -0.0627
26950SOL     OW82571   0.870   4.758   9.102 -0.3811  0.1612  0.0061
26950SOL    HW182572   0.940   4.766   9.037 -0.2514  0.6076  0.1960
26950SOL    HW282573   0.883   4.672   9.142  0.0616  0.2447  0.0439
26951SOL     OW82574   3.968   3.774   4.981  0.1871  0.6561 -0.2835
26951SOL    HW182575   3.967   3.869   4.966  3.8376  0.7961 -0.6749
26951SOL    HW282576   3.987   3.736   4.895  1.3468 -0.1749  0.3112
26952SOL     OW82577   1.903   4.874   2.222  0.1364 -0.9881 -0.3031
26952SOL    HW182578   1.960   4.812   2.176  0.9983 -0.0567 -0.5231
26952SOL    HW282579   1.861   4.925   2.153 -0.8026 -1.5062 -0.1322
26953SOL     OW82580   0.696   5.645   6.934  0.1746 -0.2877 -0.1145
26953SOL    HW182581   0.776   5.671   6.890 -0.2717  1.0681 -0.1510
26953SOL    HW282582   0.657   5.726   6.966  0.0199 -1.1268  2.0209
26954SOL     OW82583   0.342   5.013   0.137 -0.5744  0.1121 -0.0986
26954SOL    HW182584   0.335   4.931   0.187  4.2795 -0.9689 -0.6557
26954SOL    HW282585   0.370   5.078   0.201  0.9743 -0.1063 -0.5138
26955SOL     OW82586   1.293   0.736   6.530  0.0803 -0.4506 -0.2153
26955SOL    HW182587   1.280   0.770   6.441 -0.1660  0.6187  0.2220
26955SOL    HW282588   1.369   0.678   6.522  0.4933  0.1724 -0.9948
26956SOL     OW82589   6.070   6.282   9.499  0.5864 -0.1476  0.9846
26956SOL    HW182590   5.975   6.292   9.510  0.1869 -2.3021  0.0542
26956SOL    HW282591   6.082   6.189   9.482  2.5109  0.5484 -2.3159
26957SOL     OW82592   9.695   1.935   4.332  0.1804  0.1855  0.3959
26957SOL    HW182593   9.727   1.850   4.361 -0.7436 -0.3720 -0.1870
26957SOL    HW282594   9.718   1.995   4.404 -0.5484 -0.8451  1.5226
26958SOL     OW82595   6.840   4.601   6.719  0.4451 -0.2699  0.1615
26958SOL    HW182596   6.932   4.613   6.695  0.1207  0.8775 -0.6263
26958SOL    HW282597   6.824   4.668   6.785  0.0517 -0.1188 -0.0848
26959SOL     OW82598   2.432   3.876   0.267 -0.1321 -0.6135 -0.1917
26959SOL    HW182599   2.430   3.914   0.180 -1.4133  0.2975  0.2056
26959SOL    HW282600   2.502   3.922   0.312 -0.9488  0.5503 -0.0612
26960SOL     OW82601   5.122   2.738   8.987 -0.4289 -0.0185 -0.7502
26960SOL    HW182602   5.045   2.682   8.993 -1.2798  1.2232  0.3681
26960SOL    HW282603   5.144   2.738   8.893 -1.3402 -0.9653 -0.9787
26961SOL     OW82604   8.791   7.679   4.795  0.4131  0.3195  0.7361
26961SOL    HW182605   8.821   7.734   4.723 -1.4157 -0.6717 -0.8801
26961SOL    HW282606   8.697   7.667   4.778  0.3281 -1.5236  2.2114
26962SOL     OW82607   1.698   3.985   9.153 -0.0513 -0.4963 -0.4101
26962SOL    HW182608   1.702   4.024   9.066  0.6947 -1.3707 -0.7847
26962SOL    HW282609   1.621   4.025   9.194 -0.0646  0.3706 -1.2446
26963SOL     OW82610   1.425   1.728   3.051 -0.1975  0.2558 -0.4267
26963SOL    HW182611   1.494   1.789   3.027 -0.5199  0.8139  0.0379
26963SOL    HW282612   1.353   1.783   3.081 -0.0483 -0.3645  1.2003
26964SOL     OW82613   4.552   8.232   3.797 -0.0275 -0.4868 -0.3157
26964SOL    HW182614   4.501   8.292   3.741  0.3770  0.5212  0.3719
26964SOL    HW282615   4.598   8.176   3.735  3.0450  2.6855 -1.2698
26965SOL     OW82616   9.303   9.112   4.130  0.2071 -0.0519  0.5124
26965SOL    HW182617   9.246   9.048   4.171 -0.2265 -0.7845 -1.1531
26965SOL    HW282618   9.282   9.107   4.037 -0.7299  3.3739  0.4138
26966SOL     OW82619   4.925   3.050   6.442 -0.0372 -0.8339  0.2520
26966SOL    HW182620   4.861   3.120   6.451  0.8621 -0.0385  0.6193
26966SOL    HW282621   4.897   3.001   6.365 -0.2018  0.4357 -0.5149
26967SOL     OW82622   6.704   1.741   6.122  0.0479  0.5123 -0.7320
26967SOL    HW182623   6.612   1.764   6.109 -0.5836 -0.7507  1.1174
26967SOL    HW282624   6.749   1.778   6.046 -1.8685  1.7709 -1.3256
26968SOL     OW82625   4.392   6.297   8.953  0.2034  0.2611  0.3410
26968SOL    HW182626   4.377   6.301   9.048 -0.5495  0.8788  0.2139
26968SOL    HW282627   4.392   6.204   8.932  2.7070 -0.0009  1.2751
26969SOL     OW82628   3.582   4.241   0.351  0.7804 -0.1315  0.1648
26969SOL    HW182629   3.645   4.193   0.297  2.0521  0.8258  0.7563
26969SOL    HW282630   3.636   4.297   0.407 -0.6358  2.4715 -0.9079
26970SOL     OW82631   3.804   7.761   5.870 -0.4485 -0.3824 -0.3623
26970SOL    HW182632   3.844   7.690   5.820 -2.7984 -1.5851 -0.6558
26970SOL    HW282633   3.845   7.841   5.836  0.8186 -1.4485 -1.4286
26971SOL     OW82634   4.340   5.664   1.950  0.6147 -0.4607 -0.1675
26971SOL    HW182635   4.246   5.649   1.939  0.0855  1.0861  1.7922
26971SOL    HW282636   4.370   5.591   2.003  0.7952 -1.5394 -1.6767
26972SOL     OW82637   2.889   7.742   6.718 -0.4931  0.0538 -0.5182
26972SOL    HW182638   2.795   7.757   6.725 -0.6763 -1.7066  2.7565
26972SOL    HW282639   2.927   7.800   6.785  0.2283 -2.2989  1.2416
26973SOL     OW82640   8.523   1.507   8.491 -0.4743 -0.4502 -0.0693
26973SOL    HW182641   8.456   1.573   8.506 -0.9537 -0.8347 -0.5177
26973SOL    HW282642   8.478   1.423   8.500 -0.3507 -0.7167 -1.5912
26974SOL     OW82643   7.814   3.869   8.266  0.4905 -0.0167 -0.3084
26974SOL    HW182644   7.846   3.957   8.286  0.3425  0.0198 -0.2287
26974SOL    HW282645   7.777   3.838   8.348 -2.6062  1.2039 -1.0934
26975SOL     OW82646   1.601   3.925   0.676  0.3123  0.0795 -0.7935
26975SOL    HW182647   1.666   3.990   0.703 -0.3070  0.7769 -0.9199
26975SOL    HW282648   1.533   3.930   0.744  0.0672 -0.1395 -1.0205
26976SOL     OW82649   6.762   5.300   9.377  0.2627  0.0856  0.0589
26976SOL    HW182650   6.765   5.392   9.351 -0.2208 -0.0941 -0.6556
26976SOL    HW282651   6.719   5.301   9.462  0.5170  0.5419  0.1892
26977SOL     OW82652   0.818   1.349   0.233 -0.3225 -0.3073  0.1991
26977SOL    HW182653   0.876   1.422   0.208 -1.2994  0.8390  1.1630
26977SOL    HW282654   0.869   1.271   0.213  1.7134  0.6422  1.3245
26978SOL     OW82655   9.032   4.776   4.686 -0.3588  0.0678 -0.2083
26978SOL    HW182656   9.011   4.856   4.734 -0.2075 -0.8369  1.4304
26978SOL    HW282657   9.127   4.778   4.676 -0.4324  0.4507 -0.8169
26979SOL     OW82658   5.658   2.381   0.481 -0.0141 -0.3350  0.5555
26979SOL    HW182659   5.632   2.402   0.571  1.4795  1.5289  0.6282
26979SOL    HW282660   5.678   2.466   0.442 -0.6172 -1.1165 -1.5615
26980SOL     OW82661   8.232   3.122   7.431  0.3344  0.0848  0.0671
26980SOL    HW182662   8.256   3.148   7.342 -0.1736 -0.2457 -0.1716
26980SOL    HW282663   8.306   3.150   7.485  0.7656  0.0506 -0.4952
26981SOL     OW82664   5.407   1.095   5.202  0.0025  0.3639 -0.2716
26981SOL    HW182665   5.319   1.080   5.237 -1.4276  0.7665 -3.4119
26981SOL    HW282666   5.416   1.190   5.199  0.1264  0.3378 -0.8881
26982SOL     OW82667   5.366   7.466   3.234  0.1116  0.0397 -0.0066
26982SOL    HW182668   5.345   7.429   3.319 -2.3633  1.1713 -0.0470
26982SOL    HW282669   5.339   7.400   3.170 -1.3515  0.5801  0.0192
26983SOL     OW82670   1.169   9.019   6.580  0.4250 -0.5837 -0.4735
26983SOL    HW182671   1.200   9.099   6.624  0.0971 -1.6314  1.8037
26983SOL    HW282672   1.074   9.023   6.587  0.4322 -1.6042  0.5743
26984SOL     OW82673   7.239   6.891   2.539  0.3159 -0.0338  0.4430
26984SOL    HW182674   7.305   6.960   2.546  0.5317 -0.0858 -0.8199
26984SOL    HW282675   7.173   6.926   2.480 -0.2235 -0.4165  0.8112
26985SOL     OW82676   5.258   4.525   4.894 -0.2681  0.0261  0.1804
26985SOL    HW182677   5.223   4.602   4.939 -0.8995 -0.4191  0.4663
26985SOL    HW282678   5.182   4.485   4.852  0.2986  0.3514 -1.1776
26986SOL     OW82679   3.455   5.272   1.258 -0.9170 -0.0244 -0.1476
26986SOL    HW182680   3.475   5.243   1.169 -1.0377 -1.3798  0.2416
26986SOL    HW282681   3.420   5.194   1.301  2.1794 -0.3867  2.0559
26987SOL     OW82682   2.535   0.671   7.643 -0.3710  0.6688  0.2370
26987SOL    HW182683   2.601   0.738   7.624  0.7686  0.0999  1.8950
26987SOL    HW282684   2.451   0.714   7.626  0.2289  3.0695  2.5518
26988SOL     OW82685   4.186   8.130   6.208 -0.3181 -0.3001 -0.8634
26988SOL    HW182686   4.239   8.051   6.219 -0.7412 -0.4508  0.1151
26988SOL    HW282687   4.111   8.118   6.265  1.5313  2.5143  2.6533
26989SOL     OW82688   3.949   2.847   2.840 -0.3817 -0.3360 -0.6835
26989SOL    HW182689   3.884   2.857   2.910 -0.2460 -1.0413 -0.4566
26989SOL    HW282690   4.033   2.867   2.882 -0.4702  0.8986 -1.0540
26990SOL     OW82691   8.735   8.779   6.615 -0.3919  0.8565  0.0534
26990SOL    HW182692   8.736   8.796   6.521 -1.4174 -1.7715 -0.5121
26990SOL    HW282693   8.644   8.795   6.642 -0.4249  0.2556  0.3070
26991SOL     OW82694   9.255   5.100   3.925  0.0257  0.4707  0.0370
26991SOL    HW182695   9.342   5.097   3.963  0.6876 -0.7045 -1.4744
26991SOL    HW282696   9.208   5.027   3.966  0.8243 -0.9718 -1.4769
26992SOL     OW82697   0.136   8.918   8.406  0.7310  0.4330 -0.0863
26992SOL    HW182698   0.212   8.908   8.463 -0.5458  2.0105  2.0304
26992SOL    HW282699   0.104   8.829   8.392  1.4584 -0.0406  1.1350
26993SOL     OW82700   9.495   5.724   3.599  0.2168 -0.4489 -0.3036
26993SOL    HW182701   9.484   5.753   3.509 -0.5048  0.1869 -0.0219
26993SOL    HW282702   9.409   5.737   3.639  0.7440  0.0846  0.7025
26994SOL     OW82703   0.170   2.315   8.444  0.5911  0.1381  0.2277
26994SOL    HW182704   0.113   2.388   8.470  1.3097 -0.1104  2.8439
26994SOL    HW282705   0.112   2.238   8.445 -0.2254  0.6007 -2.7824
26995SOL     OW82706   3.642   1.888   5.444  0.3161 -0.7416 -0.0315
26995SOL    HW182707   3.633   1.943   5.522 -1.7766 -0.7897 -0.1813
26995SOL    HW282708   3.554   1.884   5.407  0.6126 -3.3160 -0.6485
26996SOL     OW82709   4.743   6.431   9.490 -0.1186  0.4126  0.1192
26996SOL    HW182710   4.796   6.442   9.569 -0.2975  0.1865  0.2724
26996SOL    HW282711   4.737   6.336   9.478 -1.5519  0.3815  0.8395
26997SOL     OW82712   1.114   2.570   0.781  0.0149 -0.6842  0.1601
26997SOL    HW182713   1.066   2.631   0.726 -0.9629  3.1530  4.6345
26997SOL    HW282714   1.203   2.606   0.785  0.4454 -1.7055  0.0473
26998SOL     OW82715   6.758   0.900   7.597  0.1651  0.3994 -0.1087
26998SOL    HW182716   6.685   0.879   7.656 -0.2689 -0.7362 -0.9995
26998SOL    HW282717   6.836   0.879   7.647 -0.1229  1.3103  0.7453
26999SOL     OW82718   9.266   1.307   6.826 -0.1657 -0.0493  0.3850
26999SOL    HW182719   9.175   1.312   6.798  0.1089  3.1782 -0.4572
26999SOL    HW282720   9.316   1.323   6.746  1.0805 -0.6531  1.0216
27000SOL     OW82721   5.403   8.573   5.926  0.2537  0.4795  0.6096
27000SOL    HW182722   5.454   8.587   5.846  0.0883  0.4278  0.4935
27000SOL    HW282723   5.453   8.509   5.976 -1.2153 -2.0474 -0.9232
27001SOL     OW82724   6.059   5.022   4.982 -0.0825  0.0635  0.0616
27001SOL    HW182725   6.148   5.010   5.017  0.5118  0.4634 -1.2664
27001SOL    HW282726   6.025   5.098   5.030  0.8006  0.7382 -0.3403
27002SOL     OW82727   3.630   0.507   0.384 -0.0764 -0.2076 -0.1360
27002SOL    HW182728   3.586   0.527   0.466  0.7465 -0.0898  0.2862
27002SOL    HW282729   3.723   0.497   0.407 -0.1432 -2.6556 -0.6219
27003SOL     OW82730   1.448   7.572   9.527 -0.1418 -0.1994  0.4184
27003SOL    HW182731   1.455   7.478   9.544  2.0338 -0.0760  0.4802
27003SOL    HW282732   1.539   7.603   9.527 -0.8354  2.0069  0.9352
27004SOL     OW82733   0.027   0.368   6.118  0.5496  0.0791 -0.6510
27004SOL    HW182734  -0.024   0.449   6.111 -1.9479 -1.1722  1.5202
27004SOL    HW282735   0.118   0.396   6.102 -0.3808  2.9952 -1.5025
27005SOL     OW82736   5.228   3.332   2.269 -0.2888 -0.1084  0.5307
27005SOL    HW182737   5.242   3.390   2.194 -0.2961 -0.2147  0.4461
27005SOL    HW282738   5.305   3.275   2.270 -0.7619 -0.7766 -0.0106
27006SOL     OW82739   3.316   0.725   8.066  0.4474 -0.6113  0.1126
27006SOL    HW182740   3.234   0.726   8.116 -0.5721  0.1724 -1.4882
27006SOL    HW282741   3.371   0.790   8.108 -1.7956  2.8903 -1.8503
27007SOL     OW82742   7.251   7.733   3.638 -0.6948 -0.1444 -0.4503
27007SOL    HW182743   7.313   7.743   3.566  0.0838 -3.0029 -0.3100
27007SOL    HW282744   7.166   7.753   3.600 -0.0665  0.3366 -1.6225
27008SOL     OW82745   5.249   4.319   2.977 -0.0958 -0.5697 -0.2781
27008SOL    HW182746   5.281   4.271   3.053  3.4445  2.0197  0.1257
27008SOL    HW282747   5.297   4.281   2.903  2.3031  1.6420 -0.0275
27009SOL     OW82748   8.218   1.797   7.831 -0.5919  0.0038  0.4834
27009SOL    HW182749   8.188   1.886   7.849 -1.3458  0.2194 -1.5835
27009SOL    HW282750   8.255   1.801   7.743 -1.7391 -1.9374 -0.1578
27010SOL     OW82751   4.982   6.994   0.487 -0.0110 -0.0814  0.6454
27010SOL    HW182752   4.992   7.030   0.399  1.2648 -2.0042 -0.0488
27010SOL    HW282753   4.913   6.929   0.479 -0.8866  0.7193  1.4256
27011SOL     OW82754   3.382   1.797   0.164  0.1603 -0.4727 -0.2023
27011SOL    HW182755   3.426   1.877   0.193  1.0025 -0.8771 -0.3312
27011SOL    HW282756   3.340   1.763   0.242 -1.2265  0.7234 -0.3924
27012SOL     OW82757   4.224   1.524   6.689 -0.0176  0.0408 -0.1305
27012SOL    HW182758   4.269   1.457   6.740 -0.5034  0.3520  0.7345
27012SOL    HW282759   4.172   1.572   6.754 -0.3540  0.6910 -0.8685
27013SOL     OW82760   3.658   6.863   2.586  0.3327 -0.0614 -0.1024
27013SOL    HW182761   3.705   6.833   2.509  0.1198 -1.0206  0.1234
27013SOL    HW282762   3.586   6.801   2.596 -1.3016  1.6433 -0.7126
27014SOL     OW82763   7.246   4.190   2.859 -0.0163  0.0469 -0.7706
27014SOL    HW182764   7.239   4.236   2.943  0.2728  1.7472 -1.6265
27014SOL    HW282765   7.156   4.187   2.826 -0.0265  0.1077 -0.7483
27015SOL     OW82766   9.006   8.680   2.773  0.1184  0.3712  0.4032
27015SOL    HW182767   8.979   8.763   2.814 -1.2897  0.7580 -1.1642
27015SOL    HW282768   8.924   8.633   2.759  0.6313 -0.1149 -1.1268
27016SOL     OW82769   8.050   9.671   0.196 -0.7492 -0.0998  0.1426
27016SOL    HW182770   8.081   9.676   0.105 -1.2429  0.1222 -0.0172
27016SOL    HW282771   8.002   9.588   0.200 -0.0182 -0.5261  0.4348
27017SOL     OW82772   9.682   1.469   7.178  0.0500  0.5470  0.3944
27017SOL    HW182773   9.684   1.412   7.101  0.9309  0.6369  0.3452
27017SOL    HW282774   9.742   1.428   7.240  2.0579  2.2849 -0.2729
27018SOL     OW82775   1.091   2.392   7.432 -0.5086 -0.1917  0.0211
27018SOL    HW182776   1.177   2.379   7.393 -0.2814 -1.4334  0.8800
27018SOL    HW282777   1.099   2.471   7.485  0.6155 -1.2202  1.4405
27019SOL     OW82778   6.578   2.925   7.069 -0.2400  0.5739  0.1093
27019SOL    HW182779   6.671   2.911   7.090 -0.3967  0.0092  0.4417
27019SOL    HW282780   6.534   2.848   7.104 -0.8073  0.7251 -0.2686
27020SOL     OW82781   7.826   6.007   0.605  0.1878 -0.0999 -0.2819
27020SOL    HW182782   7.740   6.044   0.624 -0.4461 -1.7765  0.2307
27020SOL    HW282783   7.879   6.029   0.681 -0.1681 -0.1975 -0.0056
27021SOL     OW82784   7.027   3.584   9.644 -0.3115 -0.4262 -0.1453
27021SOL    HW182785   6.956   3.542   9.596  1.7964 -0.2628 -3.8061
27021SOL    HW282786   7.009   3.678   9.637  0.4827 -0.3556 -1.6130
27022SOL     OW82787   1.082   3.333   6.960 -0.4935 -0.3548  0.4650
27022SOL    HW182788   1.017   3.316   7.028  1.3704 -1.7404  2.0199
27022SOL    HW282789   1.047   3.289   6.882 -0.9098 -2.1353  1.5863
27023SOL     OW82790   2.139   8.028   0.494  0.4263  0.3318 -0.6644
27023SOL    HW182791   2.126   8.117   0.526  0.9849 -0.1282  0.9200
27023SOL    HW282792   2.077   8.019   0.422 -0.2113  1.7272 -0.3205
27024SOL     OW82793   3.796   7.718   7.046 -0.2235 -0.3925  0.1853
27024SOL    HW182794   3.812   7.624   7.049  2.0422 -0.0704 -0.1698
27024SOL    HW282795   3.857   7.751   6.981 -0.2711  1.4586  1.0198
27025SOL     OW82796   0.706   1.275   7.741 -0.2917  0.2808 -0.1881
27025SOL    HW182797   0.731   1.208   7.678  0.2819  0.4406 -0.1312
27025SOL    HW282798   0.746   1.356   7.708 -0.0742  0.3839  0.3245
27026SOL     OW82799   1.660   7.102   2.612 -0.1370 -0.6775  0.2032
27026SOL    HW182800   1.617   7.093   2.526 -1.3939 -1.4321  0.8812
27026SOL    HW282801   1.701   7.017   2.627  0.8644 -0.2474 -0.0357
27027SOL     OW82802   4.348   3.015   0.525 -0.0899 -0.1567 -0.3361
27027SOL    HW182803   4.278   3.068   0.486 -0.5251  0.6096  1.3897
27027SOL    HW282804   4.428   3.066   0.508 -0.5662  1.4380  1.7772
27028SOL     OW82805   6.339   4.009   5.828 -0.0459  0.1493 -0.1894
27028SOL    HW182806   6.249   4.015   5.858 -0.2404 -0.7400 -0.5657
27028SOL    HW282807   6.388   3.976   5.903 -0.2106 -0.3389 -0.2974
27029SOL     OW82808   3.343   4.365   7.607 -0.2768 -0.2281  0.3666
27029SOL    HW182809   3.293   4.363   7.689  0.3578 -0.9031  0.7519
27029SOL    HW282810   3.421   4.416   7.629  0.3559 -1.2170  0.4624
27030SOL     OW82811   5.932   4.878   6.820  0.4739 -0.3083 -0.1381
27030SOL    HW182812   6.021   4.900   6.845 -0.0113  0.4332  1.0142
27030SOL    HW282813   5.886   4.864   6.903 -0.4570 -0.7658 -0.7156
27031SOL     OW82814   4.840   7.020   3.277 -0.2597 -0.3652 -0.0476
27031SOL    HW182815   4.882   7.087   3.331 -1.6612  1.4195 -1.0593
27031SOL    HW282816   4.838   6.942   3.333 -1.5203  1.3363  2.4821
27032SOL     OW82817   1.134   2.300   3.778  0.1236 -0.4442  0.5170
27032SOL    HW182818   1.046   2.332   3.760  0.1901 -1.0912 -1.1196
27032SOL    HW282819   1.129   2.265   3.867 -1.1755 -0.1882  0.5624
27033SOL     OW82820   8.750   6.584   3.336 -0.1542 -0.1931 -0.0058
27033SOL    HW182821   8.720   6.665   3.379  0.6527  0.6589 -0.9928
27033SOL    HW282822   8.694   6.516   3.372 -2.1951  1.0911 -0.5666
27034SOL     OW82823   3.589   6.436   0.214  0.9314  0.0592  0.1363
27034SOL    HW182824   3.579   6.376   0.140 -0.2875  1.8388 -1.2251
27034SOL    HW282825   3.526   6.405   0.279 -0.1960  0.2640 -0.8387
27035SOL     OW82826   4.399   1.345   1.465 -0.2117  0.0595 -0.2264
27035SOL    HW182827   4.353   1.426   1.441 -0.4439  0.4221  1.3656
27035SOL    HW282828   4.461   1.371   1.532  1.2974 -0.7162 -1.2609
27036SOL     OW82829   2.798   3.597   6.172 -0.2858  0.3123 -0.6302
27036SOL    HW182830   2.745   3.659   6.223 -0.8990 -0.2479 -0.5745
27036SOL    HW282831   2.755   3.593   6.087 -0.5786 -0.4400 -0.4589
27037SOL     OW82832   3.811   6.091   5.423  0.0810  0.3381  0.1562
27037SOL    HW182833   3.870   6.042   5.366  1.1535 -0.2006  1.6814
27037SOL    HW282834   3.771   6.156   5.365 -0.8663 -1.8235 -1.7969
27038SOL     OW82835   4.479   7.317   0.834 -0.1871 -0.2803  0.2021
27038SOL    HW182836   4.512   7.316   0.744 -0.1268  0.3615  0.2123
27038SOL    HW282837   4.557   7.322   0.888 -0.2286 -0.5475  0.2876
27039SOL     OW82838   6.727   0.345   6.756 -0.3966 -0.2329 -0.3544
27039SOL    HW182839   6.704   0.406   6.826 -2.2914  0.5218 -1.5473
27039SOL    HW282840   6.822   0.337   6.762 -0.1684  2.1572  0.4310
27040SOL     OW82841   4.037   1.832   3.078 -0.2308 -0.2048 -0.4264
27040SOL    HW182842   3.978   1.908   3.073  0.6494  0.4816 -0.6877
27040SOL    HW282843   4.006   1.774   3.009  0.2195  0.7633 -1.4774
27041SOL     OW82844   9.145   7.906   2.452 -0.3120  0.3076 -0.3710
27041SOL    HW182845   9.132   7.818   2.488 -0.3258  1.0569  1.5932
27041SOL    HW282846   9.065   7.922   2.401 -0.7162 -0.4730 -0.0109
27042SOL     OW82847   6.458   9.343   7.552 -0.3163 -0.0466  0.4716
27042SOL    HW182848   6.386   9.394   7.515  0.4984  0.7830  0.0112
27042SOL    HW282849   6.516   9.324   7.479  0.1988 -0.2827  0.9296
27043SOL     OW82850   0.969   8.260   7.343 -0.1069 -0.7096  0.0690
27043SOL    HW182851   0.981   8.273   7.249 -1.4471 -1.3910 -0.2159
27043SOL    HW282852   0.995   8.169   7.358 -0.0497 -0.6495  0.3439
27044SOL     OW82853   7.301   1.746   0.430 -0.0384  0.0136  0.0305
27044SOL    HW182854   7.348   1.716   0.352 -0.5191 -1.8190  0.3876
27044SOL    HW282855   7.217   1.777   0.397 -0.9323 -2.3536 -0.0876
27045SOL     OW82856   5.602   2.036   4.362  0.3136 -0.0619 -0.4796
27045SOL    HW182857   5.525   2.089   4.383  0.4639  0.2332 -0.6670
27045SOL    HW282858   5.676   2.089   4.390  0.4274 -0.6275  0.3064
27046SOL     OW82859   3.231   2.078   0.286  0.1295 -0.1392  0.5271
27046SOL    HW182860   3.308   2.115   0.242 -1.3318  2.0214 -0.4180
27046SOL    HW282861   3.157   2.118   0.240 -1.5851 -2.3005  1.2563
27047SOL     OW82862   2.128   3.350   5.290 -0.0733  0.1382  0.1830
27047SOL    HW182863   2.152   3.265   5.255 -1.9224 -0.8716  1.2254
27047SOL    HW282864   2.211   3.387   5.323  0.5994 -1.6798  0.6262
27048SOL     OW82865   8.135   7.671   1.851 -0.5602 -0.0843 -0.1694
27048SOL    HW182866   8.165   7.616   1.778 -3.4371 -0.7117 -0.9921
27048SOL    HW282867   8.168   7.627   1.929 -0.5808 -1.5402 -0.9391
27049SOL     OW82868   0.466   8.010   7.866  0.4816 -0.1780 -0.0708
27049SOL    HW182869   0.390   8.060   7.895  0.4610 -0.8378  1.0674
27049SOL    HW282870   0.532   8.027   7.932  0.1295 -2.4846  0.9520
27050SOL     OW82871   3.561   3.097   6.824 -0.1125  0.0637 -0.5922
27050SOL    HW182872   3.535   3.121   6.912 -1.1525 -0.6568 -0.6914
27050SOL    HW282873   3.540   3.174   6.770 -2.1823 -0.5128 -0.6885
27051SOL     OW82874   1.292   3.460   6.806  0.4342  0.6033 -0.6421
27051SOL    HW182875   1.335   3.538   6.840 -1.1172  1.2091  0.0309
27051SOL    HW282876   1.234   3.432   6.877  1.3517 -1.5143 -0.6322
27052SOL     OW82877   0.775   6.437   3.824 -0.2385  0.2577  0.1838
27052SOL    HW182878   0.800   6.440   3.916  0.9109  0.6643 -0.1229
27052SOL    HW282879   0.691   6.391   3.823 -2.3956  3.7412  1.8741
27053SOL     OW82880   8.137   0.872   8.765  0.5118 -0.1126  0.3823
27053SOL    HW182881   8.179   0.937   8.709  1.3748 -0.4569  0.6140
27053SOL    HW282882   8.045   0.897   8.767  0.2674 -0.6432 -1.9842
27054SOL     OW82883   3.933   9.283   8.335 -0.4932  0.8010  0.0453
27054SOL    HW182884   3.901   9.357   8.387 -2.4301 -1.0488  1.6920
27054SOL    HW282885   3.963   9.220   8.400 -0.3637 -0.5109 -1.2355
27055SOL     OW82886   2.595   2.276   7.936 -0.3069 -0.4806  0.3204
27055SOL    HW182887   2.527   2.232   7.886 -1.5475 -0.4323  1.8668
27055SOL    HW282888   2.549   2.312   8.013  1.4263 -0.3055  1.3382
27056SOL     OW82889   7.718   2.550   8.816 -0.2936  0.1808  0.1651
27056SOL    HW182890   7.682   2.639   8.811  0.8843  0.8237  2.2541
27056SOL    HW282891   7.648   2.498   8.856 -1.0864  0.0462 -1.3017
27057SOL     OW82892   1.186   6.837   6.376  0.0500 -0.3520 -0.3628
27057SOL    HW182893   1.175   6.918   6.327  0.1956 -0.6258 -0.8573
27057SOL    HW282894   1.184   6.768   6.309  0.2662 -0.7291  0.0129
27058SOL     OW82895   6.151   5.372   6.501 -0.2244 -0.4384  0.4817
27058SOL    HW182896   6.224   5.341   6.448 -0.3801  0.8020 -0.5013
27058SOL    HW282897   6.172   5.464   6.519 -1.3622 -0.1791  0.5217
27059SOL     OW82898   1.059   2.593   1.450  0.0842 -0.3176 -0.1349
27059SOL    HW182899   1.122   2.610   1.380  0.8058  1.6885  0.9140
27059SOL    HW282900   0.997   2.530   1.412 -0.4176  1.7224 -3.1171
27060SOL     OW82901   1.598   7.478   1.388  0.3421  0.4215  0.0642
27060SOL    HW182902   1.649   7.549   1.427  0.6503  0.7072 -0.8278
27060SOL    HW282903   1.598   7.409   1.455  1.0614  0.7961  0.4643
27061SOL     OW82904   2.487   4.809   3.541  0.0679  0.4310 -0.2844
27061SOL    HW182905   2.538   4.745   3.493  1.1420  1.2807 -0.3167
27061SOL    HW282906   2.414   4.830   3.483  1.6774  1.9173 -1.9011
27062SOL     OW82907   6.527   8.589   8.644  0.3828 -0.3123  0.5153
27062SOL    HW182908   6.572   8.576   8.727 -1.9899 -0.8337  1.8249
27062SOL    HW282909   6.497   8.502   8.619 -0.5486  0.1007  0.1286
27063SOL     OW82910   8.245   8.916   3.021  0.2522  0.0287 -0.3667
27063SOL    HW182911   8.209   8.846   3.075  2.6135 -1.0467 -0.0390
27063SOL    HW282912   8.339   8.916   3.041  0.5507  2.4444 -1.3333
27064SOL     OW82913   8.880   9.628   6.781 -0.1605  0.3118  0.3173
27064SOL    HW182914   8.968   9.620   6.744 -0.3499  1.9198 -0.5522
27064SOL    HW282915   8.822   9.591   6.715 -0.3917  2.1807 -0.6142
27065SOL     OW82916   4.241   0.234   5.605  0.3491  0.1102  0.3731
27065SOL    HW182917   4.301   0.227   5.531  0.7187 -0.0907  0.6853
27065SOL    HW282918   4.290   0.283   5.671  0.6896 -1.1906  1.1287
27066SOL     OW82919   0.336   3.390   2.480 -0.4936  0.1835  0.1262
27066SOL    HW182920   0.262   3.425   2.530 -0.2156  1.1114 -0.0940
27066SOL    HW282921   0.334   3.295   2.497  0.1448  0.5446  2.6640
27067SOL     OW82922   4.205   7.212   8.518 -0.1575 -0.1934  0.3010
27067SOL    HW182923   4.275   7.153   8.492  0.8361  0.3706  1.5757
27067SOL    HW282924   4.250   7.293   8.543 -1.2839  0.2787  0.8857
27068SOL     OW82925   0.555   7.396   6.208  0.0300  0.0647  0.0991
27068SOL    HW182926   0.467   7.390   6.171  0.5172 -0.0944 -1.0586
27068SOL    HW282927   0.611   7.421   6.134  1.4127 -2.5766  0.1493
27069SOL     OW82928   5.062   6.613   0.800 -0.5556 -0.4884  0.1657
27069SOL    HW182929   5.140   6.588   0.751  1.8317  1.2441  2.7750
27069SOL    HW282930   5.056   6.549   0.871 -0.5990  0.2528  0.8443
27070SOL     OW82931   4.875   4.833   5.728 -0.3213 -0.1524  0.0073
27070SOL    HW182932   4.814   4.881   5.784  0.1986 -0.1574  0.5944
27070SOL    HW282933   4.950   4.815   5.785  1.1749  1.7142 -1.2615
27071SOL     OW82934   2.755   5.688   3.134  0.1758  0.3427  0.3367
27071SOL    HW182935   2.728   5.767   3.086 -1.2706 -0.6462 -0.5674
27071SOL    HW282936   2.784   5.628   3.065 -1.3402 -0.8793  0.7146
27072SOL     OW82937   3.317   8.989   0.887  0.0474 -0.3039 -0.5225
27072SOL    HW182938   3.351   9.079   0.886 -3.4819  1.2231 -2.6286
27072SOL    HW282939   3.392   8.935   0.863  2.1552  2.1046  0.2037
27073SOL     OW82940   3.302   9.251   3.511 -0.4741 -0.1809  0.5264
27073SOL    HW182941   3.310   9.158   3.489 -0.6317  0.0130 -0.4287
27073SOL    HW282942   3.360   9.263   3.586  1.1590 -0.6467 -0.5948
27074SOL     OW82943   8.656   7.434   1.092  0.2538 -0.6099  0.4171
27074SOL    HW182944   8.689   7.407   1.007  0.5147  1.6862 -0.2724
27074SOL    HW282945   8.652   7.529   1.088 -0.0174 -0.4336  2.8716
27075SOL     OW82946   1.038   7.976   7.412 -0.3679 -0.0974  0.3062
27075SOL    HW182947   0.946   7.965   7.437 -0.3654 -0.2205  0.2587
27075SOL    HW282948   1.084   7.907   7.458 -0.2399  0.2127  0.6519
27076SOL     OW82949   5.674   1.143   2.902 -0.1774 -0.0615 -0.3379
27076SOL    HW182950   5.689   1.054   2.935  0.0419 -0.1600 -0.6908
27076SOL    HW282951   5.579   1.154   2.904 -0.3919 -1.0623 -2.1907
27077SOL     OW82952   0.674   4.294   6.075  0.0831  0.4173 -0.1825
27077SOL    HW182953   0.585   4.289   6.040 -0.2959  0.7280  0.7157
27077SOL    HW282954   0.724   4.232   6.021 -0.6449  0.3224 -0.7698
27078SOL     OW82955   4.256   7.144   4.295  0.1971 -0.2622  0.1695
27078SOL    HW182956   4.348   7.124   4.276 -0.0335  0.4100 -1.8528
27078SOL    HW282957   4.258   7.228   4.341  0.6168 -0.6551  0.8963
27079SOL     OW82958   6.248   4.120   9.394  0.2800 -0.2560 -0.1388
27079SOL    HW182959   6.221   4.200   9.350 -1.2027 -0.9703 -0.6260
27079SOL    HW282960   6.253   4.143   9.487 -0.4755  0.3237 -0.2361
27080SOL     OW82961   3.267   7.521   0.942  0.4854 -0.3170 -0.8815
27080SOL    HW182962   3.178   7.551   0.962  0.8204  2.8045 -3.3468
27080SOL    HW282963   3.274   7.436   0.986 -3.3180 -0.2092  0.2767
27081SOL     OW82964   2.916   5.325   2.551  0.0015  0.3639 -0.3179
27081SOL    HW182965   2.894   5.386   2.481  0.6615 -1.4987 -2.2530
27081SOL    HW282966   2.880   5.241   2.522 -1.4729 -0.1291  2.5550
27082SOL     OW82967   5.075   7.184   8.584  0.1589  0.1672  0.4335
27082SOL    HW182968   5.134   7.224   8.648 -0.8620 -0.1333  1.6107
27082SOL    HW282969   5.009   7.251   8.566  0.2191  0.1120  0.0007
27083SOL     OW82970   3.496   7.282   7.720 -0.6204  0.6362 -0.0958
27083SOL    HW182971   3.517   7.275   7.627  1.1613 -0.8419  0.3685
27083SOL    HW282972   3.581   7.290   7.763 -1.4166  1.3122  1.4290
27084SOL     OW82973   9.131   2.856   5.430  0.2133  0.5408 -0.0645
27084SOL    HW182974   9.162   2.859   5.521  1.1836  0.7808 -0.3918
27084SOL    HW282975   9.066   2.925   5.425  0.3354  0.6962  0.3914
27085SOL     OW82976   2.052   9.169   1.986  0.5907  0.2922  0.3480
27085SOL    HW182977   2.120   9.237   1.978 -0.9025  2.4119  3.4491
27085SOL    HW282978   2.073   9.124   2.068  0.6673 -2.1049 -0.8975
27086SOL     OW82979   6.733   0.825   4.861 -0.2487 -0.3262 -0.0851
27086SOL    HW182980   6.808   0.851   4.915 -0.4357 -0.9238  0.4767
27086SOL    HW282981   6.682   0.767   4.917 -1.1973  0.1620 -0.4329
27087SOL     OW82982   5.253   6.067   7.732 -0.3092  0.6338 -0.7250
27087SOL    HW182983   5.160   6.061   7.756 -0.3706  0.8897 -0.9003
27087SOL    HW282984   5.261   6.151   7.687  0.1680  0.9628 -0.0308
27088SOL     OW82985   4.099   7.664   5.553  0.2266 -0.1743 -0.1306
27088SOL    HW182986   4.125   7.756   5.555  0.9382 -0.3650 -0.3612
27088SOL    HW282987   4.125   7.630   5.639  1.4743 -0.5543 -0.6416
27089SOL     OW82988   4.554   3.750   5.686  0.1027  0.4837 -0.5448
27089SOL    HW182989   4.632   3.719   5.733 -0.2714  1.2148  0.5924
27089SOL    HW282990   4.526   3.675   5.634  0.1093 -0.6098  0.9603
27090SOL     OW82991   1.537   4.944   8.822  0.5927 -0.5507  0.1984
27090SOL    HW182992   1.584   4.916   8.901  0.6184 -0.2584  0.2879
27090SOL    HW282993   1.582   5.023   8.794 -1.3294  1.1989  1.7123
27091SOL     OW82994   1.959   5.340   0.885 -0.0589  0.2151  0.0490
27091SOL    HW182995   1.982   5.419   0.934 -1.4765  1.3716 -1.0415
27091SOL    HW282996   1.973   5.363   0.794  3.3119 -2.1611 -0.2291
27092SOL     OW82997   3.009   0.137   2.203 -0.1193  0.2108  0.5057
27092SOL    HW182998   3.029   0.132   2.297  1.5434  1.3155  0.2512
27092SOL    HW282999   2.994   0.046   2.177  0.0821 -0.1899  1.7135
27093SOL     OW83000   7.562   5.899   0.925 -0.1924 -0.4242 -0.1988
27093SOL    HW183001   7.635   5.842   0.951  0.2562  0.7332  1.2320
27093SOL    HW283002   7.544   5.951   1.003 -3.0839 -1.1701 -0.2625
27094SOL     OW83003   4.738   0.653   0.050  0.5102  0.1407 -0.1520
27094SOL    HW183004   4.695   0.667   0.134  0.8868 -0.5600  0.1696
27094SOL    HW283005   4.832   0.652   0.071  0.5568 -2.1685 -0.2057
27095SOL     OW83006   0.626   5.640   1.083  0.1690 -0.1891 -1.3389
27095SOL    HW183007   0.597   5.549   1.088  0.4955 -0.2563 -0.4793
27095SOL    HW283008   0.719   5.636   1.105  0.3475  0.2783 -1.9754
27096SOL     OW83009   1.056   0.661   8.752 -0.3093  0.3262  1.0192
27096SOL    HW183010   1.137   0.702   8.784  0.3572 -0.6990  0.6914
27096SOL    HW283011   0.992   0.677   8.821  0.8341 -0.9756  2.4492
27097SOL     OW83012   7.174   1.338   9.677 -0.6292  0.2718 -0.2022
27097SOL    HW183013   7.118   1.388   9.617  1.2655  0.8612 -1.5999
27097SOL    HW283014   7.168   1.384   9.760  0.0423  2.1018 -1.1151
27098SOL     OW83015   0.515   0.908   0.934 -0.3263 -0.1921  0.4423
27098SOL    HW183016   0.578   0.869   0.995 -1.1697 -1.2476  0.6617
27098SOL    HW283017   0.508   0.999   0.962  0.8471 -0.1356  0.6225
27099SOL     OW83018   7.481   8.115   6.890  0.0208 -0.0442  0.3989
27099SOL    HW183019   7.574   8.097   6.883  0.0882 -0.4891  1.9488
27099SOL    HW283020   7.453   8.135   6.801  1.5804  0.0683 -0.0917
27100SOL     OW83021   1.789   9.556   5.932  0.0366 -0.6223  0.0193
27100SOL    HW183022   1.761   9.540   5.842 -0.8170  0.7735  0.0114
27100SOL    HW283023   1.856   9.624   5.924 -0.6388  0.1114  0.4918
27101SOL     OW83024   3.284   4.205   2.464  0.6298 -0.3432  0.0189
27101SOL    HW183025   3.327   4.139   2.409  0.2827 -0.0684 -0.5763
27101SOL    HW283026   3.313   4.289   2.429  0.1463 -0.1637  0.0501
27102SOL     OW83027   8.490   6.498   8.254  0.0210 -0.0788  0.0347
27102SOL    HW183028   8.415   6.444   8.230 -1.0410  1.1887  0.3542
27102SOL    HW283029   8.494   6.491   8.350  0.3205 -0.1419  0.0185
27103SOL     OW83030   1.385   1.344   6.345 -0.4628 -0.0470  0.2645
27103SOL    HW183031   1.436   1.287   6.287 -3.1778 -1.4491 -0.9245
27103SOL    HW283032   1.305   1.295   6.363 -1.4568  2.0427  1.9678
27104SOL     OW83033   6.112   6.961   1.952  0.2941  0.0347  0.0752
27104SOL    HW183034   6.070   7.004   2.027 -0.2276  0.0747 -0.2394
27104SOL    HW283035   6.145   6.879   1.988 -0.9790 -0.4881  0.1045
27105SOL     OW83036   4.428   9.572   3.791  0.2595  0.0382 -0.2849
27105SOL    HW183037   4.431   9.516   3.868  1.4278  1.1152  0.4985
27105SOL    HW283038   4.371   9.645   3.815  0.8468  0.5216 -0.3068
27106SOL     OW83039   9.655   7.961   2.268 -0.0233  0.0164 -0.4299
27106SOL    HW183040   9.647   8.053   2.292  1.7547 -0.1395  0.8908
27106SOL    HW283041   9.690   7.962   2.179 -0.5457  0.5950 -0.6361
27107SOL     OW83042   4.550   9.459   7.320  0.1199  0.0285  0.0991
27107SOL    HW183043   4.597   9.542   7.314 -0.7118  0.5091 -0.0240
27107SOL    HW283044   4.464   9.483   7.355 -0.5249 -0.6246 -0.9866
27108SOL     OW83045   0.761   0.473   8.341  0.0955  0.0628 -0.1980
27108SOL    HW183046   0.710   0.429   8.409 -0.1479 -0.7262 -0.8840
27108SOL    HW283047   0.849   0.481   8.379 -0.6212  1.9860  1.2453
27109SOL     OW83048   2.926   2.466   2.869  0.5778  0.1639 -0.3645
27109SOL    HW183049   2.946   2.552   2.833 -0.3847  0.6668  0.2746
27109SOL    HW283050   2.882   2.483   2.952  0.2318 -0.9351 -0.2994
27110SOL     OW83051   2.066   8.449   8.782 -0.2346 -0.1196  0.3153
27110SOL    HW183052   1.986   8.498   8.802 -0.0265  0.1062  0.6096
27110SOL    HW283053   2.135   8.515   8.786  0.0704 -0.4665  0.8703
27111SOL     OW83054   7.901   8.267   0.628 -0.4550  0.1950  0.0394
27111SOL    HW183055   7.861   8.225   0.704 -0.9148  0.4932 -0.0317
27111SOL    HW283056   7.939   8.348   0.663 -2.0364  1.1324 -0.2940
27112SOL     OW83057   7.170   7.719   1.679  0.2618  0.0405 -0.2382
27112SOL    HW183058   7.216   7.689   1.757 -1.5981 -2.6957 -0.0637
27112SOL    HW283059   7.111   7.788   1.711  0.0237 -0.5582  0.6365
27113SOL     OW83060   4.082   0.197   2.870  0.0603 -0.2271 -0.2012
27113SOL    HW183061   4.048   0.194   2.780 -1.0464  1.0236  0.1522
27113SOL    HW283062   4.097   0.290   2.887  1.8060 -0.5678  0.3778
27114SOL     OW83063   6.488   0.944   3.639 -0.0150 -0.0308 -0.2791
27114SOL    HW183064   6.517   1.016   3.582 -0.9389 -0.1336 -0.9022
27114SOL    HW283065   6.525   0.965   3.724 -1.0516  1.7193 -0.2077
27115SOL     OW83066   6.947   3.925   2.834  0.4480 -0.0861  0.1957
27115SOL    HW183067   7.034   3.897   2.865  0.1431 -2.0340 -0.5763
27115SOL    HW283068   6.908   3.970   2.909  1.5805 -0.4291  1.0134
27116SOL     OW83069   5.730   9.435   6.986 -0.0803 -0.1409  0.6958
27116SOL    HW183070   5.795   9.458   7.052  0.2990 -0.7636  0.5437
27116SOL    HW283071   5.781   9.411   6.909 -0.3553 -2.9637  1.2853
27117SOL     OW83072   5.883   1.470   2.905  0.0634 -0.4701  0.1658
27117SOL    HW183073   5.855   1.407   2.838 -0.1846  1.4639 -1.6509
27117SOL    HW283074   5.978   1.459   2.910  0.3964  0.7978 -2.1568
27118SOL     OW83075   2.798   7.654   1.773 -0.2657 -0.4107 -0.2804
27118SOL    HW183076   2.873   7.631   1.718  0.0200  0.2380 -0.1679
27118SOL    HW283077   2.722   7.622   1.724 -0.0120  0.1360 -1.0488
27119SOL     OW83078   5.229   2.924   9.285 -0.3429 -0.9672  0.0461
27119SOL    HW183079   5.280   3.001   9.307 -1.6008 -0.0134 -0.2360
27119SOL    HW283080   5.291   2.865   9.242  1.0748 -0.9411  1.9405
27120SOL     OW83081   9.195   7.045   1.838  0.0635 -0.3520 -0.3936
27120SOL    HW183082   9.201   7.055   1.743  1.7405  0.3982 -0.2400
27120SOL    HW283083   9.213   6.952   1.853  2.0547 -0.0491 -0.6841
27121SOL     OW83084   1.537   4.363   3.387  0.2258 -0.1708 -0.0460
27121SOL    HW183085   1.612   4.303   3.381  0.9270  0.7929 -1.3334
27121SOL    HW283086   1.572   4.448   3.361 -1.5413  0.1098 -1.7662
27122SOL     OW83087   7.349   2.859   6.375 -0.8684  0.1566  0.4434
27122SOL    HW183088   7.358   2.776   6.423  0.3357  0.4227  0.7010
27122SOL    HW283089   7.295   2.837   6.300 -0.0880 -1.0092  0.1963
27123SOL     OW83090   8.228   7.441   3.473  0.4750  0.0865  0.6818
27123SOL    HW183091   8.321   7.462   3.469  0.5108 -0.1660 -2.2663
27123SOL    HW283092   8.191   7.482   3.395 -1.4654 -1.6763  0.5900
27124SOL     OW83093   0.571   8.664   6.372 -0.1543  0.1466 -0.2717
27124SOL    HW183094   0.498   8.632   6.424 -1.8392  3.0568 -0.6613
27124SOL    HW283095   0.620   8.721   6.431 -1.9894  3.3542 -1.6328
27125SOL     OW83096   4.505   7.064   4.176  0.1653 -0.0066  0.1033
27125SOL    HW183097   4.573   7.008   4.139 -0.8051 -0.0949 -1.6550
27125SOL    HW283098   4.533   7.153   4.155  0.4895  0.0589  0.7645
27126SOL     OW83099   0.290   6.051   7.049 -0.5651 -0.1329 -0.0615
27126SOL    HW183100   0.201   6.038   7.079 -0.3728 -2.0289 -0.2117
27126SOL    HW283101   0.312   5.970   7.002  0.4348  1.1907 -2.0288
27127SOL     OW83102   7.496   4.120   9.336 -0.3590  0.4570  0.6885
27127SOL    HW183103   7.448   4.115   9.419  2.5237 -0.9194  2.4235
27127SOL    HW283104   7.548   4.201   9.344 -1.5224  1.3945 -0.7267
27128SOL     OW83105   3.547   6.792   4.502  0.0417 -0.0577  0.6905
27128SOL    HW183106   3.623   6.801   4.444  2.0172  0.4954  3.1925
27128SOL    HW283107   3.496   6.721   4.463  1.9596 -0.6268 -0.9696
27129SOL     OW83108   1.297   5.012   8.368  0.3806  0.4133 -0.4300
27129SOL    HW183109   1.370   5.070   8.346  1.3194 -1.3527 -2.3145
27129SOL    HW283110   1.333   4.950   8.431 -0.4037  1.3261  0.9744
27130SOL     OW83111   3.236   1.894   7.241 -0.4063  0.1617 -0.1779
27130SOL    HW183112   3.177   1.916   7.313  1.7604  0.4956  1.5811
27130SOL    HW283113   3.280   1.814   7.270  0.1944  0.0496 -1.3436
27131SOL     OW83114   8.574   9.281   1.190  0.4402 -0.2300 -0.3621
27131SOL    HW183115   8.540   9.310   1.106 -2.0250 -2.9707 -0.4712
27131SOL    HW283116   8.600   9.190   1.176  1.8601 -0.1547  1.3849
27132SOL     OW83117   3.176   2.614   3.786 -0.1709 -0.9589  0.0234
27132SOL    HW183118   3.246   2.623   3.721  1.0063  2.6716  1.5216
27132SOL    HW283119   3.213   2.557   3.854  1.3096  0.6101  0.6116
27133SOL     OW83120   7.895   6.165   1.682  0.5345 -0.1146  0.0621
27133SOL    HW183121   7.880   6.258   1.700  0.1734 -0.1796  0.1077
27133SOL    HW283122   7.986   6.160   1.653  0.5576  0.2514  0.0734
27134SOL     OW83123   0.023   8.183   0.308  0.4413 -1.2374  0.8493
27134SOL    HW183124  -0.055   8.210   0.356  0.3600  0.7650 -0.3071
27134SOL    HW283125  -0.006   8.110   0.252 -0.3227 -1.2086  1.2083
27135SOL     OW83126   5.040   2.979   8.615  0.2002  0.3671  0.0375
27135SOL    HW183127   4.972   2.922   8.652  0.1557  0.6013  0.3280
27135SOL    HW283128   4.991   3.046   8.567  0.1904  0.9146  0.7940
27136SOL     OW83129   2.880   5.974   8.209  0.6887 -0.3262  0.3169
27136SOL    HW183130   2.849   5.931   8.289 -0.9832 -2.4079 -1.3477
27136SOL    HW283131   2.915   5.903   8.156  1.0406  0.8930 -1.1418
27137SOL     OW83132   2.866   7.721   1.123  0.1677 -0.1837  0.4734
27137SOL    HW183133   2.791   7.710   1.066 -0.4763 -2.4017  1.6321
27137SOL    HW283134   2.829   7.727   1.211  1.1859  2.2717  0.8039
27138SOL     OW83135   6.951   8.460   1.717 -0.7832 -0.3376 -0.5669
27138SOL    HW183136   6.962   8.544   1.673 -1.9002 -0.7062 -1.6229
27138SOL    HW283137   7.039   8.435   1.746 -0.2720  0.6562 -1.2336
27139SOL     OW83138   5.192   9.124   7.559  0.3539 -0.3468 -0.4717
27139SOL    HW183139   5.250   9.151   7.630  0.3174  0.3441 -0.6973
27139SOL    HW283140   5.173   9.205   7.511 -1.0336 -0.4982 -0.2323
27140SOL     OW83141   2.750   1.050   2.886 -0.3240 -0.0401 -0.2064
27140SOL    HW183142   2.664   1.042   2.846  0.1335 -0.0728 -1.2011
27140SOL    HW283143   2.732   1.072   2.977 -1.3863 -0.3295 -0.3342
27141SOL     OW83144   4.088   4.220   6.728  0.3454 -0.1275 -0.0189
27141SOL    HW183145   4.159   4.184   6.675  1.3813 -0.8863  1.8024
27141SOL    HW283146   4.107   4.314   6.732  1.6530 -0.3972  0.9506
27142SOL     OW83147   3.569   9.406   8.237  0.1856  0.6190 -0.3495
27142SOL    HW183148   3.573   9.337   8.172 -2.6821  1.9111 -2.0839
27142SOL    HW283149   3.568   9.360   8.321  0.8215 -1.2510 -1.3051
27143SOL     OW83150   7.490   9.364   0.009  0.1274  0.5270  0.6276
27143SOL    HW183151   7.457   9.452   0.026 -0.2558  0.1397  2.0032
27143SOL    HW283152   7.511   9.329   0.096  0.8883 -0.5033  0.0480
27144SOL     OW83153   6.126   7.251   0.457  0.1957 -0.4216 -0.1148
27144SOL    HW183154   6.052   7.231   0.401  1.3179  0.2066 -1.9015
27144SOL    HW283155   6.107   7.337   0.494  0.2055 -0.1047 -0.8499
27145SOL     OW83156   2.939   0.833   0.281 -0.1400 -0.0260  0.2648
27145SOL    HW183157   2.994   0.904   0.316  0.2465 -0.9633  1.6373
27145SOL    HW283158   2.853   0.874   0.268 -0.0578  0.5917  1.5050
27146SOL     OW83159   8.490   7.943   3.735 -0.2464 -0.2985  0.1556
27146SOL    HW183160   8.416   7.914   3.789  0.1447 -0.2909  0.7015
27146SOL    HW283161   8.468   8.032   3.709 -1.1732 -0.8260 -1.0237
27147SOL     OW83162   7.229   9.377   0.557 -0.6522 -0.9726  0.4133
27147SOL    HW183163   7.223   9.462   0.600  1.4031 -1.4206  1.7136
27147SOL    HW283164   7.155   9.327   0.591 -1.4163  0.0260  0.2443
27148SOL     OW83165   2.463   4.776   4.772 -0.1301 -0.4844 -0.1253
27148SOL    HW183166   2.504   4.831   4.839  0.5111 -0.7683 -0.2852
27148SOL    HW283167   2.405   4.718   4.822  0.6047 -0.9272  0.2274
27149SOL     OW83168   8.113   7.676   7.328 -0.2951 -0.0218 -0.0058
27149SOL    HW183169   8.018   7.669   7.317 -0.2053 -1.4783 -0.0503
27149SOL    HW283170   8.135   7.608   7.391  0.6743  0.6044  0.3495
27150SOL     OW83171   2.852   9.326   4.668 -0.6053 -0.1109 -0.4222
27150SOL    HW183172   2.878   9.385   4.598  0.6288 -1.3671 -1.0501
27150SOL    HW283173   2.934   9.289   4.700 -1.2260 -0.2547  1.0802
27151SOL     OW83174   6.467   2.529   1.919 -0.2338 -0.3498  0.5883
27151SOL    HW183175   6.537   2.587   1.948 -0.2041  0.2914 -0.6733
27151SOL    HW283176   6.511   2.445   1.903  0.4380  0.2579 -0.9503
27152SOL     OW83177   3.948   4.120   3.068  0.5938 -0.1471  0.0476
27152SOL    HW183178   4.040   4.145   3.059  0.5009 -0.1098 -0.8503
27152SOL    HW283179   3.946   4.026   3.051  0.4134 -0.0814 -0.3029
27153SOL     OW83180   0.825   6.458   6.290  0.1580  0.0781 -0.1343
27153SOL    HW183181   0.911   6.423   6.266 -0.0925 -0.0350 -0.9003
27153SOL    HW283182   0.827   6.549   6.260 -0.1807 -0.0814 -0.6504
27154SOL     OW83183   9.260   7.810   2.782 -0.0071  0.2303  0.5812
27154SOL    HW183184   9.254   7.760   2.864 -1.8171 -0.2385  0.2260
27154SOL    HW283185   9.169   7.820   2.754  0.5787 -0.5540 -1.9249
27155SOL     OW83186   8.984   8.998   2.010  0.1089  0.8907 -0.4116
27155SOL    HW183187   9.014   9.089   2.021  0.2555  0.6638  1.1895
27155SOL    HW283188   8.903   8.993   2.061 -1.7176  0.9452 -3.0675
27156SOL     OW83189   3.446   8.272   6.847 -0.1674  0.4451  0.6815
27156SOL    HW183190   3.379   8.234   6.790  0.2282  1.0405 -0.2033
27156SOL    HW283191   3.397   8.304   6.923 -0.4568 -2.2199  1.7119
27157SOL     OW83192   2.693   3.552   1.749 -0.3355  0.2044 -0.3759
27157SOL    HW183193   2.745   3.625   1.716 -1.1968  0.3713 -1.4460
27157SOL    HW283194   2.703   3.484   1.684  1.5552 -1.1935  1.2779
27158SOL     OW83195   8.233   5.168   6.478 -0.7380 -0.1484  0.1307
27158SOL    HW183196   8.158   5.129   6.524 -0.9731 -1.9696 -1.6670
27158SOL    HW283197   8.217   5.262   6.483 -2.0892 -0.4017  1.4840
27159SOL     OW83198   6.688   1.123   0.798  0.0501  0.0675  0.0282
27159SOL    HW183199   6.751   1.111   0.728  1.3774 -0.9305  1.3372
27159SOL    HW283200   6.635   1.043   0.796 -0.7706  0.6091 -0.6365
27160SOL     OW83201   7.618   4.997   8.444  0.3591  0.0118 -0.3257
27160SOL    HW183202   7.579   5.032   8.524 -1.3149 -0.2575 -0.9719
27160SOL    HW283203   7.685   4.936   8.475 -0.9365 -0.8554  0.9354
27161SOL     OW83204   8.434   7.557   3.802 -0.0633  0.1168  0.1688
27161SOL    HW183205   8.417   7.581   3.893 -0.5294  0.2992  0.0345
27161SOL    HW283206   8.352   7.576   3.756 -0.0505 -0.5979 -0.1672
27162SOL     OW83207   0.849   4.620   2.063 -0.1815  0.0130  0.1096
27162SOL    HW183208   0.879   4.648   1.976  1.7866  2.1434  1.3484
27162SOL    HW283209   0.928   4.583   2.104 -0.6800  0.4313  1.4908
27163SOL     OW83210   9.618   8.011   0.118  0.0439  0.5421  0.4228
27163SOL    HW183211   9.657   7.925   0.102  0.6333  0.6226  1.3210
27163SOL    HW283212   9.536   8.010   0.069  1.5945  0.7213 -2.3562
27164SOL     OW83213   0.911   7.797   6.265 -0.5030 -0.0852  0.0725
27164SOL    HW183214   0.938   7.769   6.177  2.3489  1.2389  0.4352
27164SOL    HW283215   0.867   7.881   6.251  2.0369  1.3314 -0.0020
27165SOL     OW83216   3.886   0.511   4.449 -0.4323  0.2210  0.9167
27165SOL    HW183217   3.975   0.544   4.463  0.0040 -0.6711  0.3639
27165SOL    HW283218   3.899   0.428   4.403 -1.5628  0.1368  0.7336
27166SOL     OW83219   4.812   4.342   2.721 -0.2933 -0.5216 -0.2250
27166SOL    HW183220   4.893   4.370   2.679 -1.3281  0.0982 -1.9640
27166SOL    HW283221   4.834   4.330   2.813  1.5599  0.4425 -0.5077
27167SOL     OW83222   6.627   1.444   9.151  0.3217  0.2267  0.6100
27167SOL    HW183223   6.564   1.410   9.214 -0.9158 -0.2406 -0.8101
27167SOL    HW283224   6.574   1.493   9.088  0.8706 -2.5894 -2.2832
27168SOL     OW83225   8.538   5.326   5.629  0.1889  0.2771  0.4028
27168SOL    HW183226   8.490   5.408   5.621  0.7882  0.7510  1.4790
27168SOL    HW283227   8.620   5.350   5.672  2.4266 -0.1303 -3.2300
27169SOL     OW83228   7.040   5.532   7.449  0.6458  0.3054 -0.1781
27169SOL    HW183229   7.054   5.470   7.520 -1.1931 -0.0752 -0.0883
27169SOL    HW283230   7.018   5.614   7.493  2.1144  0.7913 -0.3081
27170SOL     OW83231   9.338   2.578   6.967  0.1805  0.3967 -0.2324
27170SOL    HW183232   9.427   2.548   6.948  0.6351  0.2279  1.9182
27170SOL    HW283233   9.349   2.665   7.005 -0.3153 -0.4881  2.1052
27171SOL     OW83234   1.765   9.695   3.926  0.1662  0.7132  0.1565
27171SOL    HW183235   1.730   9.785   3.927  0.4593  0.8839 -1.6960
27171SOL    HW283236   1.702   9.645   3.978 -0.4109  1.8421  0.5917
27172SOL     OW83237   8.280   7.215   9.605 -0.5944 -0.0787 -0.0817
27172SOL    HW183238   8.367   7.249   9.625  0.1745 -1.0118 -1.6216
27172SOL    HW283239   8.269   7.139   9.662  1.0115 -1.9155 -2.0476
27173SOL     OW83240   6.877   3.220   2.844 -0.3234  0.0282  0.0548
27173SOL    HW183241   6.936   3.215   2.919 -1.0810 -0.9348  0.6016
27173SOL    HW283242   6.895   3.306   2.805  1.5386 -0.2936  0.1160
27174SOL     OW83243   9.176   3.430   4.419 -0.2361  0.0222 -0.1142
27174SOL    HW183244   9.154   3.339   4.443 -0.1132 -0.2439 -0.9858
27174SOL    HW283245   9.148   3.438   4.328 -2.1920  1.4986  0.5309
27175SOL     OW83246   8.349   8.478   6.533 -0.8082  0.1021  0.4027
27175SOL    HW183247   8.277   8.488   6.595 -0.8451  0.8772  0.2441
27175SOL    HW283248   8.358   8.564   6.492  2.3189  1.0855  2.7321
27176SOL     OW83249   3.319   1.911   6.267 -0.2696 -0.3533  0.0110
27176SOL    HW183250   3.300   1.955   6.184 -1.1706  0.6473  0.7315
27176SOL    HW283251   3.402   1.948   6.296 -0.2683 -0.2467 -0.1301
27177SOL     OW83252   2.483   9.431   4.584  0.4897  0.1361  0.4013
27177SOL    HW183253   2.502   9.350   4.632  0.7487 -0.3532 -0.5105
27177SOL    HW283254   2.396   9.416   4.547  0.1422  0.6526  0.9923
27178SOL     OW83255   3.130   7.783   4.370 -0.3392 -0.1247  0.7623
27178SOL    HW183256   3.085   7.864   4.347 -1.9342 -0.6368  1.8755
27178SOL    HW283257   3.152   7.743   4.286  0.0059  1.1861  0.2010
27179SOL     OW83258   1.942   0.741   2.629 -0.3028 -0.7046  0.3023
27179SOL    HW183259   1.935   0.722   2.723 -3.8489  0.1154  0.3533
27179SOL    HW283260   1.939   0.837   2.624 -1.2134 -0.7598 -0.6454
27180SOL     OW83261   2.864   7.630   2.034 -0.0763 -0.2772 -0.3147
27180SOL    HW183262   2.789   7.665   2.082 -0.2919  1.8979 -2.1012
27180SOL    HW283263   2.839   7.634   1.942  2.1085  0.2164 -0.9450
27181SOL     OW83264   7.923   1.497   9.277 -0.1276 -0.3522 -0.0651
27181SOL    HW183265   7.864   1.560   9.318  0.2923  1.8209 -2.5032
27181SOL    HW283266   8.010   1.523   9.307 -0.0336 -0.3376 -0.3420
27182SOL     OW83267   9.385   8.034   9.689  0.0223 -0.1504  0.3335
27182SOL    HW183268   9.321   8.096   9.655 -0.1399 -0.2807  0.3960
27182SOL    HW283269   9.335   7.953   9.700 -0.0577  0.0272  1.3657
27183SOL     OW83270   5.558   0.410   3.386 -0.0597  0.3037  0.0056
27183SOL    HW183271   5.600   0.342   3.334 -0.1988  0.2868 -0.0859
27183SOL    HW283272   5.515   0.466   3.321 -0.5443  0.0749  0.1239
27184SOL     OW83273   6.593   4.407   9.438 -0.1052  0.8766 -0.6023
27184SOL    HW183274   6.657   4.397   9.509 -0.0326  0.1679 -0.7575
27184SOL    HW283275   6.639   4.456   9.371 -0.3767  2.1147  0.0869
27185SOL     OW83276   8.106   6.699   8.582 -0.4292  0.2932 -0.3052
27185SOL    HW183277   8.196   6.730   8.589 -0.0595 -0.7999 -0.0157
27185SOL    HW283278   8.071   6.703   8.671 -0.1748 -0.6831 -0.1521
27186SOL     OW83279   5.358   0.933   6.963  0.5784  0.3625 -0.0923
27186SOL    HW183280   5.311   0.959   7.043  0.3139  0.1907 -0.1924
27186SOL    HW283281   5.442   0.900   6.995  1.5986  2.7751 -0.0286
27187SOL     OW83282   1.451   9.291   5.004  0.0303  0.2154  0.2539
27187SOL    HW183283   1.367   9.247   5.012  0.1903 -0.1731 -0.1456
27187SOL    HW283284   1.432   9.383   5.021 -0.3469  0.0255  0.8518
27188SOL     OW83285   9.197   0.456   4.820  0.1901 -0.1558 -0.4358
27188SOL    HW183286   9.214   0.535   4.870 -0.8691  0.8821 -1.6572
27188SOL    HW283287   9.277   0.404   4.830  0.4775  0.5619  1.2620
27189SOL     OW83288   2.897   5.162   8.616  0.2986 -0.0959  0.6785
27189SOL    HW183289   2.806   5.153   8.589  0.5435  0.7732 -0.5072
27189SOL    HW283290   2.893   5.201   8.703 -0.4603 -0.9115  1.0341
27190SOL     OW83291   4.604   4.089   7.120 -0.1478 -0.3388 -0.2280
27190SOL    HW183292   4.599   4.021   7.053  1.4164 -2.8322  1.9744
27190SOL    HW283293   4.684   4.138   7.098  0.3267 -1.1055 -0.2502
27191SOL     OW83294   4.016   2.438   2.355  0.3003 -0.8408  0.1417
27191SOL    HW183295   4.041   2.530   2.353 -2.9510  0.2364  1.3893
27191SOL    HW283296   3.943   2.432   2.293  0.1913 -2.4951  0.3811
27192SOL     OW83297   1.793   4.605   1.572  0.1235 -0.5097 -0.2035
27192SOL    HW183298   1.740   4.531   1.542  1.3778 -0.9486 -1.5015
27192SOL    HW283299   1.754   4.681   1.529 -0.3969 -0.6027  0.1023
27193SOL     OW83300   4.039   8.916   4.089  0.2065  0.4097  0.6463
27193SOL    HW183301   3.970   8.967   4.047 -0.6820 -0.4575  1.0273
27193SOL    HW283302   4.083   8.979   4.146  1.2940  1.5465 -1.3371
27194SOL     OW83303   7.974   2.519   7.262  0.8097  0.1286  0.2340
27194SOL    HW183304   7.967   2.435   7.309  1.7530  0.3322  0.7539
27194SOL    HW283305   7.939   2.583   7.324  0.7975  0.2178  0.1334
27195SOL     OW83306   9.200   3.511   5.488  0.3298 -0.3084 -0.0084
27195SOL    HW183307   9.162   3.573   5.550 -1.1931  0.3261 -1.4890
27195SOL    HW283308   9.162   3.426   5.513  0.0140 -0.1247  0.1392
27196SOL     OW83309   6.021   4.007   9.686 -0.2248 -0.2504 -0.4736
27196SOL    HW183310   6.087   4.071   9.660 -0.7729 -0.6691 -3.1794
27196SOL    HW283311   5.949   4.060   9.720  0.7764  0.2894  0.9413
27197SOL     OW83312   9.354   6.725   0.557 -0.0319 -0.1158 -0.2415
27197SOL    HW183313   9.287   6.748   0.492 -1.0400 -1.9903  0.0873
27197SOL    HW283314   9.305   6.704   0.636  0.9886 -0.7803  0.2333
27198SOL     OW83315   9.528   5.583   5.425 -0.0148  0.0720  0.2785
27198SOL    HW183316   9.438   5.609   5.407  0.2952  0.8277 -0.2417
27198SOL    HW283317   9.524   5.535   5.507 -0.8571  0.3165  0.3848
27199SOL     OW83318   1.787   4.282   5.302  0.2070  0.5700 -1.2711
27199SOL    HW183319   1.709   4.227   5.292  0.5672  0.2368 -2.3967
27199SOL    HW283320   1.771   4.358   5.247  1.7240 -0.7211 -3.6636
27200SOL     OW83321   8.181   1.238   6.406 -0.4046  0.2464  0.6224
27200SOL    HW183322   8.125   1.306   6.369 -0.3501 -0.4256 -0.7253
27200SOL    HW283323   8.256   1.232   6.346  0.4267  0.1394  1.6284
27201SOL     OW83324   9.494   5.976   9.444  0.2271 -0.0355 -0.1218
27201SOL    HW183325   9.507   5.897   9.391 -1.0340 -1.2775  1.3011
27201SOL    HW283326   9.565   5.974   9.508  0.9442  0.7021 -0.8886
27202SOL     OW83327   6.148   9.193   0.192  0.0563 -0.3350  0.2250
27202SOL    HW183328   6.167   9.100   0.206  1.8147 -0.1544 -0.6467
27202SOL    HW283329   6.096   9.195   0.111  1.0914 -0.4958 -0.4599
27203SOL     OW83330   0.613   1.586   8.366 -0.0534 -0.6658  0.4210
27203SOL    HW183331   0.606   1.629   8.281 -0.8850 -0.8972  0.3573
27203SOL    HW283332   0.579   1.650   8.428  1.2455 -0.2171  0.6823
27204SOL     OW83333   0.624   0.242   8.222 -0.0985  0.5246  0.7161
27204SOL    HW183334   0.575   0.323   8.208 -1.7633 -0.7916 -1.6517
27204SOL    HW283335   0.568   0.190   8.279  0.0499  0.2629  0.6242
27205SOL     OW83336   2.239   7.415   0.930  0.7505  0.4113 -0.5356
27205SOL    HW183337   2.198   7.375   1.007  2.3505 -0.3434 -0.0308
27205SOL    HW283338   2.332   7.401   0.943  1.1529  1.6197 -1.8955
27206SOL     OW83339   3.808   7.478   9.137  0.1839 -0.1396 -0.4707
27206SOL    HW183340   3.812   7.573   9.145  2.2092 -0.1584 -0.7991
27206SOL    HW283341   3.825   7.445   9.225  0.5246 -0.1992 -0.5579
27207SOL     OW83342   5.394   6.869   5.856  0.3839 -0.2898  0.5799
27207SOL    HW183343   5.401   6.869   5.952  0.7038  2.5417  0.6470
27207SOL    HW283344   5.484   6.867   5.825  0.4237  1.2840  0.4746
27208SOL     OW83345   1.958   3.887   2.977  0.2722  0.5629  0.2062
27208SOL    HW183346   1.962   3.838   3.059  0.5731  0.5036  0.1552
27208SOL    HW283347   2.031   3.855   2.926 -0.1687  0.2946 -0.2618
27209SOL     OW83348   1.780   0.638   6.124  0.0136  0.1178  0.1002
27209SOL    HW183349   1.709   0.591   6.082 -0.6658  2.5210 -1.6780
27209SOL    HW283350   1.854   0.577   6.124 -1.4258 -1.6924  0.0561
27210SOL     OW83351   7.179   4.308   4.520 -0.0139 -0.2161 -0.2104
27210SOL    HW183352   7.195   4.303   4.614 -0.5813 -0.4687 -0.1190
27210SOL    HW283353   7.219   4.229   4.484  0.1468 -0.1524 -0.1711
27211SOL     OW83354   7.854   7.037   1.356  0.4813 -0.0841  0.8978
27211SOL    HW183355   7.865   7.125   1.319  0.1485 -1.5012 -3.0641
27211SOL    HW283356   7.771   7.041   1.403 -1.5590  0.9448 -2.4323
27212SOL     OW83357   3.833   7.962   9.520 -0.4108  0.0627 -0.7749
27212SOL    HW183358   3.766   7.988   9.584  1.0612 -0.2038  0.9486
27212SOL    HW283359   3.916   7.976   9.565  0.6404 -2.3585 -1.7567
27213SOL     OW83360   2.407   1.874   1.077 -0.6307  0.1215  0.0253
27213SOL    HW183361   2.456   1.895   1.156 -0.8107 -0.2861  0.2462
27213SOL    HW283362   2.317   1.901   1.097 -1.5043 -3.2943  1.3755
27214SOL     OW83363   8.571   9.345   7.059 -0.4693  0.0808 -0.6678
27214SOL    HW183364   8.658   9.351   7.099 -0.3989 -0.9973 -0.6380
27214SOL    HW283365   8.579   9.394   6.977 -0.0857  0.7130 -0.2632
27215SOL     OW83366   1.421   1.049   8.993  0.3015 -0.0397  0.1779
27215SOL    HW183367   1.396   1.089   9.077  0.0436  1.5633 -0.6215
27215SOL    HW283368   1.372   1.099   8.928 -0.6304 -2.1909 -0.8714
27216SOL     OW83369   2.306   7.131   4.092  0.5006 -0.2644 -0.0867
27216SOL    HW183370   2.338   7.153   4.180  0.9996 -1.4085  0.0365
27216SOL    HW283371   2.375   7.163   4.033  0.2245  0.3908 -0.0627
27217SOL     OW83372   2.024   7.597   9.239  0.0200  0.2305  0.1745
27217SOL    HW183373   1.969   7.557   9.172 -4.0754  3.4422  1.1731
27217SOL    HW283374   2.047   7.683   9.203  1.1116  0.4627  1.3578
27218SOL     OW83375   6.424   1.816   0.382  0.2763  0.4493  0.2189
27218SOL    HW183376   6.350   1.798   0.440 -1.8519  0.3243 -2.3426
27218SOL    HW283377   6.426   1.911   0.373 -1.3649  0.3810 -1.6984
27219SOL     OW83378   1.999   6.485   3.617 -0.1306 -0.1952 -0.1516
27219SOL    HW183379   2.075   6.534   3.648  0.0643 -0.6426  0.0883
27219SOL    HW283380   1.934   6.552   3.596  0.2659  0.1808 -0.1837
27220SOL     OW83381   1.298   6.856   6.958 -0.2954 -0.3413  0.0423
27220SOL    HW183382   1.205   6.869   6.941 -0.2334  3.1280  1.4848
27220SOL    HW283383   1.334   6.944   6.967  2.8140 -1.5570  1.2532
27221SOL     OW83384   0.579   5.108   6.850  0.2457  0.1521  0.2647
27221SOL    HW183385   0.550   5.176   6.790 -0.8656  1.3542  2.0527
27221SOL    HW283386   0.498   5.069   6.884  0.8546 -1.3584  0.0733
27222SOL     OW83387   2.865   1.829   4.008 -0.1985  0.4664  0.1758
27222SOL    HW183388   2.847   1.923   4.005  0.9761  0.7064  0.4807
27222SOL    HW283389   2.934   1.819   4.072 -0.5431 -0.6592  0.3964
27223SOL     OW83390   7.022   7.462   2.314  0.0892  0.4119 -0.1461
27223SOL    HW183391   7.014   7.453   2.219 -0.3572 -2.4012  0.0956
27223SOL    HW283392   6.932   7.478   2.344  0.0182 -0.1542 -0.0636
27224SOL     OW83393   2.477   6.255   0.927 -0.2364 -0.0869 -0.5479
27224SOL    HW183394   2.382   6.251   0.924 -0.3018  0.5717  0.3148
27224SOL    HW283395   2.501   6.308   0.851 -0.6320  0.6298 -0.1798
27225SOL     OW83396   9.455   1.069   8.554  0.0949  0.8540  0.8965
27225SOL    HW183397   9.465   1.053   8.460 -0.8729  0.0840  0.9087
27225SOL    HW283398   9.365   1.100   8.563 -0.0575  0.2069  1.6477
27226SOL     OW83399   4.715   1.495   0.350  0.2145 -0.1007 -0.4231
27226SOL    HW183400   4.690   1.493   0.443  0.5155 -0.1679 -0.3394
27226SOL    HW283401   4.701   1.405   0.320  0.2979 -0.1255 -0.3901
27227SOL     OW83402   6.666   7.556   6.170 -0.2110  0.3080 -0.0958
27227SOL    HW183403   6.661   7.513   6.255  1.1638  2.4037  1.1175
27227SOL    HW283404   6.676   7.649   6.189 -0.1112  0.8898 -2.5579
27228SOL     OW83405   3.255   3.434   3.749  0.5575  0.1220 -0.1327
27228SOL    HW183406   3.241   3.402   3.838  0.5096 -0.0462 -0.2019
27228SOL    HW283407   3.218   3.523   3.750 -1.2245 -0.5817 -0.5168
27229SOL     OW83408   2.774   3.429   4.637  0.4584 -0.3657  0.2834
27229SOL    HW183409   2.756   3.404   4.546 -0.8935  0.0743  0.4058
27229SOL    HW283410   2.693   3.408   4.684  0.1247  1.9708  0.8466
27230SOL     OW83411   3.482   6.829   0.895  0.1897  0.1230 -0.0055
27230SOL    HW183412   3.467   6.858   0.805  2.1401  0.8248 -0.1479
27230SOL    HW283413   3.503   6.909   0.943  1.0682 -0.4612  0.6216
27231SOL     OW83414   8.929   5.566   1.676 -0.2559 -0.1497 -0.5527
27231SOL    HW183415   8.833   5.571   1.676 -0.2334  0.7656  0.3495
27231SOL    HW283416   8.953   5.578   1.585 -0.9631  1.4109 -0.5783
27232SOL     OW83417   0.020   3.291   1.882 -0.3890  0.2899 -0.3361
27232SOL    HW183418  -0.053   3.348   1.860  0.3172  0.7870 -1.5192
27232SOL    HW283419   0.098   3.345   1.866  0.2458 -0.1616  1.0537
27233SOL     OW83420   6.322   7.684   0.416  0.0020 -0.1261  0.2911
27233SOL    HW183421   6.365   7.666   0.500 -1.4202  2.1020  1.6123
27233SOL    HW283422   6.373   7.755   0.377 -0.2122 -0.1286  0.0002
27234SOL     OW83423   5.300   2.844   4.614  0.0146  0.0366 -0.2775
27234SOL    HW183424   5.230   2.781   4.595 -1.3870  1.4541 -0.0970
27234SOL    HW283425   5.328   2.875   4.528  1.6278 -1.7146 -0.4386
27235SOL     OW83426   1.007   1.404   0.914  0.1269 -0.4910  0.2296
27235SOL    HW183427   1.099   1.382   0.928  0.1679  0.4000  1.5015
27235SOL    HW283428   1.009   1.493   0.879 -0.2902  0.0219  1.4887
27236SOL     OW83429   3.689   4.206   7.449 -0.4146  0.7020 -0.1873
27236SOL    HW183430   3.608   4.168   7.415  1.0610 -3.8049  0.5839
27236SOL    HW283431   3.676   4.209   7.544 -0.8670  3.4967 -0.2591
27237SOL     OW83432   7.971   7.565   2.347  0.1069 -0.3913  0.4883
27237SOL    HW183433   7.885   7.576   2.308  0.9542 -1.3380 -1.8166
27237SOL    HW283434   7.978   7.471   2.364  0.0556 -0.1010  2.3571
27238SOL     OW83435   8.194   7.203   5.212 -0.0669 -0.0550 -0.2972
27238SOL    HW183436   8.158   7.126   5.169  0.6122  0.0836 -1.1462
27238SOL    HW283437   8.267   7.169   5.265 -0.0747 -0.0597 -0.2899
27239SOL     OW83438   3.938   8.218   3.126 -0.0288 -0.3726 -0.4145
27239SOL    HW183439   3.922   8.179   3.212  1.7630 -0.5879 -0.1417
27239SOL    HW283440   4.031   8.239   3.127 -0.6990  3.1053 -0.9023
27240SOL     OW83441   9.635   1.120   4.599  0.9300  0.9637 -0.4964
27240SOL    HW183442   9.675   1.085   4.678 -0.9244  0.1318  0.1505
27240SOL    HW283443   9.648   1.051   4.533  1.3573  1.1018 -0.5589
27241SOL     OW83444   1.720   7.195   7.886 -0.2646 -0.4522 -0.4497
27241SOL    HW183445   1.743   7.245   7.964  0.1463 -1.7169  0.2645
27241SOL    HW283446   1.657   7.129   7.916 -1.0887 -0.1671 -1.4444
27242SOL     OW83447   3.708   5.395   7.106  0.3219 -0.4991  0.8111
27242SOL    HW183448   3.746   5.369   7.190  0.5091 -1.6932  0.3793
27242SOL    HW283449   3.622   5.429   7.128  0.6349 -0.1646  1.5510
27243SOL     OW83450   6.571   5.786   8.832  0.7072 -0.2573  0.1794
27243SOL    HW183451   6.613   5.818   8.911 -0.5316 -1.4142  1.3556
27243SOL    HW283452   6.491   5.743   8.862  0.4592 -1.2045 -1.6486
27244SOL     OW83453   4.310   4.500   3.941 -0.2755  0.0006 -0.1592
27244SOL    HW183454   4.231   4.506   3.887 -0.5402 -0.7480  0.1195
27244SOL    HW283455   4.300   4.417   3.988  0.6952 -0.1176 -0.1399
27245SOL     OW83456   8.748   8.877   2.134 -0.6367 -0.0727 -0.4552
27245SOL    HW183457   8.755   8.781   2.127  0.0548 -0.1381  0.7279
27245SOL    HW283458   8.737   8.892   2.228  2.5736  1.1574 -0.1671
27246SOL     OW83459   6.454   5.804   6.542  0.3473  0.1510 -0.4532
27246SOL    HW183460   6.497   5.814   6.627  0.2190 -0.9289 -0.2424
27246SOL    HW283461   6.406   5.885   6.529 -0.8609 -0.2568  1.2292
27247SOL     OW83462   7.319   5.187   4.695  0.1432 -0.1633 -0.0158
27247SOL    HW183463   7.321   5.276   4.661  0.1393 -0.5650 -1.0988
27247SOL    HW283464   7.243   5.147   4.652 -0.4669 -0.3993  1.2253
27248SOL     OW83465   0.978   1.816   2.862  0.9917  0.3890  0.7307
27248SOL    HW183466   1.010   1.731   2.894  1.5358  0.4366  0.3271
27248SOL    HW283467   1.028   1.831   2.782 -2.1988 -1.0428 -1.7585
27249SOL     OW83468   5.158   3.603   4.882 -0.0731 -0.2248  0.0834
27249SOL    HW183469   5.161   3.670   4.813 -1.6406  1.9907  2.0229
27249SOL    HW283470   5.250   3.583   4.899  0.3908 -1.1613 -2.8255
27250SOL     OW83471   5.990   3.315   0.514 -0.3392  0.0752  0.1639
27250SOL    HW183472   5.976   3.328   0.608  0.6789  1.0888  0.1956
27250SOL    HW283473   5.965   3.399   0.475 -0.3285 -0.1914 -0.4199
27251SOL     OW83474   7.812   3.037   5.042  0.8281 -0.2210 -0.3095
27251SOL    HW183475   7.880   3.061   5.105  0.7733  1.8953 -0.9729
27251SOL    HW283476   7.785   2.949   5.069  2.9843 -0.6598  0.6728
27252SOL     OW83477   7.599   0.046   0.953  0.8747  0.1101 -0.3904
27252SOL    HW183478   7.581  -0.020   0.887  1.5311 -1.5230  0.9930
27252SOL    HW283479   7.556   0.013   1.032  1.7410  1.0301  0.4955
27253SOL     OW83480   8.903   6.743   2.601  0.0577  0.0023 -0.0481
27253SOL    HW183481   8.958   6.700   2.666 -0.1015  0.6857  0.5432
27253SOL    HW283482   8.875   6.825   2.642  0.1406  0.5569 -1.0620
27254SOL     OW83483   5.032   9.226   5.934 -0.0362 -0.0186  0.3182
27254SOL    HW183484   4.969   9.165   5.894  1.3584  0.6751 -3.2913
27254SOL    HW283485   5.115   9.178   5.934  0.4697  0.8310  0.1684
27255SOL     OW83486   8.450   1.045   8.623  0.2349 -1.0042  0.1875
27255SOL    HW183487   8.362   1.075   8.603 -0.1731 -2.4596 -0.3931
27255SOL    HW283488   8.461   0.967   8.568  1.5646 -1.3391  0.8884
27256SOL     OW83489   2.944   4.844   8.797 -0.4300  0.2326 -0.5269
27256SOL    HW183490   2.904   4.918   8.842  0.7534  0.9814 -0.6466
27256SOL    HW283491   2.871   4.785   8.776 -0.9952 -0.4651  2.8604
27257SOL     OW83492   6.321   1.503   9.114 -0.2587  0.1004  0.6229
27257SOL    HW183493   6.309   1.409   9.125 -0.4755  0.1207  0.5591
27257SOL    HW283494   6.232   1.538   9.110 -0.1833  0.2089 -0.2103
27258SOL     OW83495   6.425   0.170   4.205 -0.2786 -0.2404  0.2425
27258SOL    HW183496   6.507   0.122   4.217  0.2234  0.4932 -0.1524
27258SOL    HW283497   6.440   0.223   4.126 -1.0007  0.1712  0.3733
27259SOL     OW83498   5.207   4.517   7.972  0.0566  0.0825 -0.4990
27259SOL    HW183499   5.203   4.502   7.877  3.1219 -1.6136 -0.4930
27259SOL    HW283500   5.243   4.605   7.981  2.5594 -0.8061 -1.0639
27260SOL     OW83501   3.299   5.765   6.352  0.5237  0.0060  0.0827
27260SOL    HW183502   3.342   5.681   6.335 -1.8819 -1.2199 -0.4767
27260SOL    HW283503   3.258   5.754   6.438 -2.8814 -0.9456 -1.4684
27261SOL     OW83504   2.956   7.103   4.124 -0.4772 -0.1326  0.0991
27261SOL    HW183505   2.965   7.149   4.208 -0.5423  1.5058 -0.7447
27261SOL    HW283506   3.042   7.066   4.108 -0.6876 -1.1852  1.2718
27262SOL     OW83507   7.273   3.940   5.266 -0.7443  0.7134  0.2784
27262SOL    HW183508   7.359   3.981   5.274 -0.6045  0.7817 -1.2030
27262SOL    HW283509   7.240   3.934   5.356  1.2962 -0.4196  0.9903
27263SOL     OW83510   4.982   2.188   8.116  0.2841  0.2245  0.1091
27263SOL    HW183511   4.985   2.255   8.047 -2.1462  1.9785  1.5545
27263SOL    HW283512   4.988   2.237   8.198 -0.2286 -1.4488  1.1996
27264SOL     OW83513   6.189   5.138   5.563  0.6897  0.0618 -0.5376
27264SOL    HW183514   6.185   5.095   5.649  0.1233  0.0284 -0.5806
27264SOL    HW283515   6.208   5.230   5.582  0.9527 -0.0191 -0.3996
27265SOL     OW83516   7.812   8.349   3.599 -0.1013  0.3371  0.1962
27265SOL    HW183517   7.770   8.281   3.652 -2.0184  0.5395 -0.9701
27265SOL    HW283518   7.843   8.302   3.521 -0.4133  0.6014 -0.0884
27266SOL     OW83519   1.256   8.384   4.918  0.4447 -0.0230 -0.1870
27266SOL    HW183520   1.293   8.296   4.914 -0.7325 -0.5051 -1.1561
27266SOL    HW283521   1.168   8.371   4.955 -0.0453  0.6142 -1.0899
27267SOL     OW83522   5.020   5.807   0.133  0.1053 -0.0662  0.8718
27267SOL    HW183523   5.075   5.857   0.194 -0.1781  0.8566  0.3917
27267SOL    HW283524   5.048   5.837   0.047  0.2401 -1.0873  0.5544
27268SOL     OW83525   4.418   1.555   2.398 -0.8266 -0.4699  0.0307
27268SOL    HW183526   4.487   1.595   2.346 -0.2599 -1.3862  0.0563
27268SOL    HW283527   4.403   1.469   2.357 -1.1149 -0.7686  0.7353
27269SOL     OW83528   5.120   7.779   2.413 -0.1827  0.2102  0.0432
27269SOL    HW183529   5.113   7.842   2.484  0.7093 -1.6698  1.8980
27269SOL    HW283530   5.051   7.715   2.430 -0.5843  0.2453 -1.3487
27270SOL     OW83531   4.144   5.373   1.704  0.2474  0.4112 -0.1728
27270SOL    HW183532   4.112   5.459   1.677  0.5651  0.0689 -1.7584
27270SOL    HW283533   4.108   5.313   1.639 -1.6725 -0.9976  2.0423
27271SOL     OW83534   4.027   2.213   7.178 -0.1851 -0.5408  0.0637
27271SOL    HW183535   4.046   2.159   7.101  0.7924 -0.6322  0.3660
27271SOL    HW283536   3.941   2.181   7.208 -0.4837 -0.6430 -0.8594
27272SOL     OW83537   3.133   6.961   6.089  0.1330 -0.2631  0.5427
27272SOL    HW183538   3.099   7.045   6.058 -0.0689  0.3996  2.4073
27272SOL    HW283539   3.148   6.910   6.009 -0.3177  1.3116 -0.6049
27273SOL     OW83540   9.590   7.814   7.996  0.3738  0.4173  0.0475
27273SOL    HW183541   9.616   7.780   7.910  1.6821  1.7660 -0.1342
27273SOL    HW283542   9.531   7.748   8.031  2.0404 -1.5682 -0.6747
27274SOL     OW83543   2.004   0.693   1.690 -0.1347  0.5722 -0.1604
27274SOL    HW183544   2.017   0.782   1.660  0.9398 -0.3140 -2.5574
27274SOL    HW283545   1.920   0.667   1.651  0.0692  0.2054 -0.3588
27275SOL     OW83546   6.902   0.093   3.740 -0.4087 -0.1518 -0.5223
27275SOL    HW183547   6.914   0.164   3.677 -0.1475 -0.1414 -0.4593
27275SOL    HW283548   6.826   0.119   3.791 -0.1306  0.2277 -0.2978
27276SOL     OW83549   4.850   9.512   2.952 -0.0614 -0.0854 -0.0261
27276SOL    HW183550   4.819   9.439   2.899 -1.3933  0.9853 -0.7655
27276SOL    HW283551   4.780   9.526   3.016  0.8950 -0.4494  1.1313
27277SOL     OW83552   6.177   8.093   6.348  0.4447  0.5607  0.3897
27277SOL    HW183553   6.206   8.005   6.323 -1.0289  0.1655  0.0280
27277SOL    HW283554   6.118   8.079   6.421 -0.1460  1.2148  0.0442
27278SOL     OW83555   2.156   0.034   1.037  0.0971  0.4627  0.0043
27278SOL    HW183556   2.165   0.070   1.125  0.8320  1.8430 -0.6083
27278SOL    HW283557   2.115  -0.052   1.050 -0.5239  0.9676  1.6214
27279SOL     OW83558   0.561   7.803   9.089 -0.1680 -0.4146 -0.3584
27279SOL    HW183559   0.614   7.723   9.092 -1.0374 -1.0069 -0.4139
27279SOL    HW283560   0.508   7.794   9.010 -1.1751 -0.3800  0.2862
27280SOL     OW83561   1.674   3.527   9.029 -0.3873  0.3352 -1.1992
27280SOL    HW183562   1.609   3.457   9.024 -0.5130  0.3305  0.1911
27280SOL    HW283563   1.647   3.579   9.105  2.3648 -0.8439  0.7253
27281SOL     OW83564   6.517   8.443   9.210 -0.1739 -0.8833  0.0335
27281SOL    HW183565   6.558   8.465   9.293  0.5607 -0.0659 -0.5241
27281SOL    HW283566   6.536   8.349   9.198  0.5099 -0.7955  0.3551
27282SOL     OW83567   1.902   5.130   6.747  0.1549  0.1589  0.2609
27282SOL    HW183568   1.819   5.177   6.749  0.6381  1.1256 -1.1666
27282SOL    HW283569   1.901   5.077   6.827 -1.5969  0.5317  0.5311
27283SOL     OW83570   9.391   2.796   3.249  0.6306  0.1748  0.4519
27283SOL    HW183571   9.437   2.715   3.226 -1.5002 -1.4799  1.6420
27283SOL    HW283572   9.353   2.777   3.335 -0.4492  2.2443  0.4675
27284SOL     OW83573   8.321   4.108   8.853 -0.0603 -0.2910  0.2552
27284SOL    HW183574   8.283   4.030   8.894  1.7083 -1.0717  0.5013
27284SOL    HW283575   8.262   4.128   8.780 -0.2307 -2.2436 -0.1959
27285SOL     OW83576   5.662   2.774   4.285 -0.1690  0.0766 -0.1964
27285SOL    HW183577   5.656   2.852   4.340 -0.8510 -0.1750  0.1006
27285SOL    HW283578   5.572   2.750   4.266  0.0567  0.2624 -1.6094
27286SOL     OW83579   3.165   7.120   4.954  0.5985 -0.4242  0.4111
27286SOL    HW183580   3.172   7.031   4.988 -1.5906 -0.2857  1.3581
27286SOL    HW283581   3.253   7.139   4.921  2.0005 -1.8088  2.9816
27287SOL     OW83582   9.413   3.540   4.994 -0.2959  0.0232  0.5111
27287SOL    HW183583   9.476   3.509   4.929  0.2430  1.1844  0.4414
27287SOL    HW283584   9.444   3.504   5.077  0.5905  0.7373  0.5052
27288SOL     OW83585   1.366   4.336   0.401  0.0309  0.5644 -0.6590
27288SOL    HW183586   1.460   4.337   0.385  0.4276  0.3276  1.4136
27288SOL    HW283587   1.327   4.327   0.314  2.0287 -2.9887 -1.4046
27289SOL     OW83588   1.203   2.004   6.472  0.0513 -0.1519  0.2466
27289SOL    HW183589   1.109   1.999   6.493  0.0589 -0.5914  0.1784
27289SOL    HW283590   1.217   1.937   6.405 -0.0920  1.6403 -1.6876
27290SOL     OW83591   5.162   9.042   4.261 -0.3034  0.4971  0.2176
27290SOL    HW183592   5.187   9.093   4.184  0.5619 -0.6119 -0.2629
27290SOL    HW283593   5.240   9.042   4.316 -0.1520 -0.6251  0.0274
27291SOL     OW83594   7.856   9.027   0.925 -0.0341  0.0197  0.4901
27291SOL    HW183595   7.902   9.047   0.843  0.7640 -2.1860  0.3318
27291SOL    HW283596   7.796   8.956   0.901 -1.1414  0.6066  1.4409
27292SOL     OW83597   2.648   2.734   0.830  0.0239  0.4191  0.6149
27292SOL    HW183598   2.572   2.701   0.878 -2.3251  1.8958 -1.8010
27292SOL    HW283599   2.661   2.670   0.760  1.8307 -0.4186  1.6475
27293SOL     OW83600   3.719   9.006   8.442  0.2493 -0.6903  0.3556
27293SOL    HW183601   3.802   9.053   8.445  0.5064 -1.0493 -0.6083
27293SOL    HW283602   3.654   9.069   8.471  0.5960  0.2584 -0.8591
27294SOL     OW83603   8.082   6.973   2.002 -0.5761 -0.5682 -0.4362
27294SOL    HW183604   8.137   6.923   1.942 -0.2845 -0.3866 -0.3208
27294SOL    HW283605   8.040   7.039   1.947  0.0080 -0.1372 -0.3757
27295SOL     OW83606   1.183   8.655   6.100 -0.1107 -0.3043 -0.3045
27295SOL    HW183607   1.240   8.587   6.064  1.0967  0.3035  0.3952
27295SOL    HW283608   1.198   8.731   6.045  0.4954  0.1417  0.4601
27296SOL     OW83609   0.864   8.845   2.777 -0.1164 -0.3352  0.5088
27296SOL    HW183610   0.941   8.887   2.739  0.3359 -0.7701  0.9383
27296SOL    HW283611   0.896   8.802   2.857 -0.7936 -0.5471  0.6772
27297SOL     OW83612   5.494   8.786   7.185 -0.2061  0.3937 -0.3483
27297SOL    HW183613   5.506   8.880   7.195 -0.2689  0.1686  2.6027
27297SOL    HW283614   5.465   8.775   7.095 -0.9629  3.2673 -0.5356
27298SOL     OW83615   6.759   3.689   2.169 -0.4835 -0.0160 -0.1830
27298SOL    HW183616   6.846   3.665   2.135 -0.5118  0.0924 -0.3336
27298SOL    HW283617   6.699   3.629   2.124 -0.6023  0.6154 -0.8851
27299SOL     OW83618   6.087   5.730   8.461 -0.1326  0.2537 -0.4938
27299SOL    HW183619   6.154   5.688   8.515 -0.3224 -0.1628 -0.5825
27299SOL    HW283620   6.027   5.771   8.524 -0.2520 -0.0753 -0.3924
27300SOL     OW83621   4.947   0.317   7.695  0.6230 -0.0790 -0.4944
27300SOL    HW183622   5.009   0.355   7.632  1.3502  0.0425  0.2926
27300SOL    HW283623   4.866   0.367   7.681  1.6381  2.0293  0.7242
27301SOL     OW83624   4.929   8.685   0.782 -0.0058  0.1890  0.1290
27301SOL    HW183625   4.943   8.703   0.689 -0.1267 -0.9670 -0.1355
27301SOL    HW283626   4.974   8.755   0.828 -1.1829  1.6089 -0.8100
27302SOL     OW83627   2.456   0.480   7.250 -0.0888  0.0411  0.0637
27302SOL    HW183628   2.465   0.556   7.192  0.6256 -0.6376 -0.7377
27302SOL    HW283629   2.496   0.508   7.332 -0.4856  0.7777  0.0139
27303SOL     OW83630   0.774   8.899   0.443  0.4133 -0.0566  0.0280
27303SOL    HW183631   0.861   8.879   0.477  1.1692 -0.5127 -1.9926
27303SOL    HW283632   0.770   8.994   0.442  1.6533  0.0326 -1.4995
27304SOL     OW83633   5.137   2.420   0.381  0.2799 -0.4664  0.4355
27304SOL    HW183634   5.153   2.454   0.293 -0.6957  1.1673  0.8642
27304SOL    HW283635   5.210   2.359   0.396  0.7799 -0.3361 -1.2645
27305SOL     OW83636   9.132   6.854   0.469 -0.1249  0.2200  0.2851
27305SOL    HW183637   9.097   6.921   0.409 -0.2856  1.0319  1.2646
27305SOL    HW283638   9.056   6.801   0.492 -0.2007  0.3462  0.3284
27306SOL     OW83639   0.399   9.462   6.628 -0.6454  0.3101  0.6055
27306SOL    HW183640   0.403   9.367   6.618  1.1668  0.4195 -0.2498
27306SOL    HW283641   0.398   9.496   6.538 -1.1188  1.1118  0.8975
27307SOL     OW83642   2.428   2.959   5.569 -0.0730  0.4920  0.3638
27307SOL    HW183643   2.503   2.912   5.604  1.5032  3.0632  0.7043
27307SOL    HW283644   2.371   2.972   5.644  0.5191  0.9741  0.7378
27308SOL     OW83645   9.548   0.697   8.245 -0.5537 -0.0704  0.1554
27308SOL    HW183646   9.507   0.715   8.160  0.6293  0.1297 -0.3939
27308SOL    HW283647   9.512   0.612   8.271 -1.3839  0.1407 -0.2457
27309SOL     OW83648   0.543   5.669   4.209 -0.5846 -0.3761 -0.1066
27309SOL    HW183649   0.585   5.753   4.189  0.6146 -1.1725 -1.0719
27309SOL    HW283650   0.472   5.662   4.145 -1.9175  0.7300  1.1854
27310SOL     OW83651   0.817   5.973   5.785  0.2860  0.0886 -0.1868
27310SOL    HW183652   0.816   5.963   5.881 -1.5757 -0.6413 -0.2339
27310SOL    HW283653   0.823   5.883   5.752 -0.3104  0.2374 -0.7312
27311SOL     OW83654   9.664   1.750   6.796  0.1122  0.0279 -0.0164
27311SOL    HW183655   9.632   1.746   6.887 -0.3278 -0.1382 -0.1735
27311SOL    HW283656   9.711   1.833   6.790 -0.4981  0.3900  0.1571
27312SOL     OW83657   2.442   3.575   4.303 -0.4341 -0.2058 -0.3821
27312SOL    HW183658   2.401   3.490   4.286  0.9482 -0.9715 -0.0952
27312SOL    HW283659   2.494   3.593   4.224 -0.2132  0.0581 -0.1792
27313SOL     OW83660   0.377   3.633   4.240 -0.3320  0.1625  0.3646
27313SOL    HW183661   0.369   3.594   4.328  1.1352 -0.0907  0.4140
27313SOL    HW283662   0.348   3.564   4.181 -1.1504  0.2674  0.6267
27314SOL     OW83663   1.623   9.330   1.857 -0.0970  0.1212 -0.0469
27314SOL    HW183664   1.703   9.301   1.901  0.2792 -0.6610 -1.1908
27314SOL    HW283665   1.626   9.425   1.862 -0.6524  0.0842  2.5842
27315SOL     OW83666   6.929   3.684   3.404  0.3992 -0.5992  0.1654
27315SOL    HW183667   6.902   3.655   3.317  1.3125  0.3201 -0.4512
27315SOL    HW283668   6.903   3.775   3.409  1.7791 -0.1858  0.2157
27316SOL     OW83669   2.162   3.987   5.106 -0.1204 -0.3099 -0.1612
27316SOL    HW183670   2.096   4.018   5.044  1.0730 -1.4197 -2.0920
27316SOL    HW283671   2.212   4.065   5.130 -0.7378  0.1745 -0.4442
27317SOL     OW83672   0.253   4.128   9.518  0.2247 -0.2708 -0.2030
27317SOL    HW183673   0.179   4.188   9.513  1.4783  1.4082  0.3418
27317SOL    HW283674   0.308   4.164   9.588  0.2122 -3.0644  1.4129
27318SOL     OW83675   4.702   4.544   5.799 -0.7059  0.0274  0.0201
27318SOL    HW183676   4.759   4.503   5.863  0.3128 -0.4082 -1.1191
27318SOL    HW283677   4.648   4.605   5.849 -0.5755 -0.9518  1.4006
27319SOL     OW83678   7.305   1.191   4.373 -0.5281 -0.3147  0.1517
27319SOL    HW183679   7.294   1.284   4.393 -2.7593 -0.6421  0.7804
27319SOL    HW283680   7.284   1.147   4.456  0.1280 -1.4070 -0.2452
27320SOL     OW83681   7.445   3.679   5.196 -0.1931 -0.2564 -0.0573
27320SOL    HW183682   7.485   3.707   5.278  0.7355 -0.2836 -0.4876
27320SOL    HW283683   7.351   3.693   5.209  0.0090  0.4539  0.7372
27321SOL     OW83684   3.939   5.100   3.452  0.5050  0.4597 -0.2063
27321SOL    HW183685   3.897   5.140   3.528 -0.7447  1.6389 -1.4489
27321SOL    HW283686   3.963   5.012   3.480 -1.8569  0.1153  0.9195
27322SOL     OW83687   8.324   7.036   8.660 -0.1985 -0.2675  0.4210
27322SOL    HW183688   8.358   7.108   8.606 -1.2341  0.8169  1.1549
27322SOL    HW283689   8.307   6.966   8.598  1.5581 -0.1811 -0.2124
27323SOL     OW83690   6.157   4.439   3.839 -0.0705 -0.3222  0.2750
27323SOL    HW183691   6.108   4.412   3.916 -0.7347 -1.8888 -0.6335
27323SOL    HW283692   6.245   4.405   3.854  0.2028  0.6627  0.9754
27324SOL     OW83693   4.317   0.360   7.655  0.7311  0.0516  0.3086
27324SOL    HW183694   4.398   0.397   7.690  0.8755 -1.6081  1.8727
27324SOL    HW283695   4.344   0.278   7.614 -0.2459 -0.9679  1.6354
27325SOL     OW83696   9.214   8.212   0.167  0.2365 -0.1568 -0.3166
27325SOL    HW183697   9.144   8.275   0.184 -1.0934 -1.1644 -1.7009
27325SOL    HW283698   9.289   8.244   0.216 -1.4406  0.5060  1.9811
27326SOL     OW83699   2.415   4.538   7.444 -0.1319  0.0793 -0.2625
27326SOL    HW183700   2.374   4.617   7.408  2.4414  1.3166 -0.7904
27326SOL    HW283701   2.478   4.512   7.377  1.8936 -0.0103  1.5652
27327SOL     OW83702   0.316   0.334   1.029 -0.0544  0.1875  0.3361
27327SOL    HW183703   0.288   0.365   0.944  0.4713  0.4834  0.2674
27327SOL    HW283704   0.279   0.396   1.092 -0.8061 -0.2761  0.3621
27328SOL     OW83705   9.467   7.500   2.047  0.1292 -0.7863 -0.2073
27328SOL    HW183706   9.410   7.487   2.122  1.6119 -1.4466  0.8543
27328SOL    HW283707   9.467   7.415   2.002 -1.2944 -0.1963 -1.3762
27329SOL     OW83708   5.596   4.880   7.607  0.2835  0.6836  0.2016
27329SOL    HW183709   5.544   4.954   7.639  1.1994  2.0247 -1.2330
27329SOL    HW283710   5.583   4.880   7.512  1.7990  0.2178 -0.0467
27330SOL     OW83711   9.381   0.761   2.697 -0.2238  0.5927  0.1024
27330SOL    HW183712   9.307   0.705   2.718 -0.2534  0.4485 -0.3802
27330SOL    HW283713   9.405   0.738   2.608 -0.0466  1.1368  0.0022
27331SOL     OW83714   3.470   6.944   5.069 -0.3702 -0.1921 -0.0005
27331SOL    HW183715   3.482   6.971   4.978  0.4709  0.7144  0.3703
27331SOL    HW283716   3.453   7.025   5.117  0.7519 -0.4453  0.8898
27332SOL     OW83717   2.796   9.596   7.147  0.3741  0.7005 -0.1602
27332SOL    HW183718   2.724   9.632   7.198  0.5214  1.6565 -0.6131
27332SOL    HW283719   2.833   9.528   7.203  0.3283  1.5014  0.8701
27333SOL     OW83720   8.441   7.271   1.145 -0.0499  0.0113  0.0397
27333SOL    HW183721   8.508   7.339   1.141 -0.2211  0.1911  0.2346
27333SOL    HW283722   8.421   7.251   1.053 -0.4390  0.6562 -0.0194
27334SOL     OW83723   3.399   0.595   7.209 -0.0554 -0.1220  0.4081
27334SOL    HW183724   3.447   0.518   7.181 -2.1459 -0.5539 -2.3771
27334SOL    HW283725   3.307   0.570   7.200 -0.8044  2.7384 -0.8982
27335SOL     OW83726   5.276   2.283   6.388 -0.2820  0.7690 -0.1557
27335SOL    HW183727   5.237   2.247   6.467  0.1603 -1.4536 -0.8758
27335SOL    HW283728   5.368   2.256   6.392 -0.5236 -0.5385 -1.9819
27336SOL     OW83729   9.434   8.623   2.708 -0.2498  0.2886  0.5232
27336SOL    HW183730   9.417   8.705   2.661  3.6728  1.3470  0.6395
27336SOL    HW283731   9.416   8.644   2.800 -0.1828  0.7141  0.4419
27337SOL     OW83732   6.562   3.120   6.112 -0.0100 -0.3674 -0.3726
27337SOL    HW183733   6.553   3.081   6.025 -1.0638 -0.1409 -0.3774
27337SOL    HW283734   6.654   3.109   6.134  0.6978  1.1890 -2.2859
27338SOL     OW83735   0.015   1.117   7.020  0.2240 -0.4566  0.4085
27338SOL    HW183736  -0.055   1.071   7.067  0.4249 -0.6362  0.5364
27338SOL    HW283737   0.094   1.099   7.072  0.3641 -0.2529  0.2675
27339SOL     OW83738   1.629   7.453   0.029  0.2995  0.2931  0.6645
27339SOL    HW183739   1.561   7.405   0.076 -1.5264  2.3168  0.2906
27339SOL    HW283740   1.676   7.500   0.097  0.7457 -0.4081  0.8473
27340SOL     OW83741   8.179   0.973   1.680 -0.8382 -0.5124  0.1200
27340SOL    HW183742   8.110   0.918   1.716 -1.2365 -1.2517 -1.6471
27340SOL    HW283743   8.260   0.923   1.695 -0.7847 -0.0697  1.3748
27341SOL     OW83744   8.571   2.623   7.928 -0.0659 -0.4252 -0.0748
27341SOL    HW183745   8.586   2.605   8.021  1.4739 -1.6021 -0.4914
27341SOL    HW283746   8.544   2.538   7.891  0.3473 -0.2302 -0.8578
27342SOL     OW83747   4.492   2.111   6.128  0.4697  0.6200 -0.7655
27342SOL    HW183748   4.488   2.024   6.089 -3.4886  1.3884 -2.5878
27342SOL    HW283749   4.471   2.097   6.220  1.9632 -0.4493 -0.5396
27343SOL     OW83750   0.998   0.876   6.431 -0.3545 -0.1499  0.2039
27343SOL    HW183751   1.091   0.852   6.425 -0.9729 -2.4664 -1.9460
27343SOL    HW283752   0.974   0.903   6.343 -1.4661  1.7336  1.0286
27344SOL     OW83753   7.768   4.734   8.027  0.3604 -0.6845 -0.7252
27344SOL    HW183754   7.770   4.824   7.995  0.9157 -0.7993 -1.0240
27344SOL    HW283755   7.706   4.689   7.971 -1.3881 -0.0602  0.6031
27345SOL     OW83756   1.698   3.686   5.081 -0.0332 -0.2523 -0.0576
27345SOL    HW183757   1.792   3.666   5.088  0.4550  1.4987 -1.0464
27345SOL    HW283758   1.659   3.646   5.158  1.7016 -0.0962  0.9467
27346SOL     OW83759   4.838   4.164   5.841  0.1680 -0.1074 -0.4750
27346SOL    HW183760   4.886   4.107   5.781 -0.4595 -0.7628 -0.3594
27346SOL    HW283761   4.809   4.106   5.911  0.8353  0.6373  0.4477
27347SOL     OW83762   1.931   5.720   3.842 -0.4071 -0.0254 -0.3982
27347SOL    HW183763   1.991   5.740   3.769 -0.1484  1.5171  0.2058
27347SOL    HW283764   1.951   5.786   3.908 -3.4677  1.2112 -0.5594
27348SOL     OW83765   7.032   0.984   3.966 -0.0074  0.5525  0.0818
27348SOL    HW183766   7.102   0.925   3.994 -0.3766 -0.4628 -1.0532
27348SOL    HW283767   7.019   1.043   4.040  1.8650  0.6008  0.4228
27349SOL     OW83768   2.047   7.385   2.776  0.2759 -0.5890 -0.1863
27349SOL    HW183769   2.015   7.295   2.764  0.5313 -0.8757  1.1181
27349SOL    HW283770   2.118   7.393   2.713 -0.7689 -0.7559 -1.4263
27350SOL     OW83771   3.326   9.533   6.851 -0.2059  0.2044  0.1180
27350SOL    HW183772   3.253   9.509   6.794  1.1254 -2.6962 -0.5965
27350SOL    HW283773   3.308   9.489   6.934 -0.1052  0.9315  0.5337
27351SOL     OW83774   2.585   2.653   6.501  0.4058  0.4005 -0.3992
27351SOL    HW183775   2.535   2.587   6.550 -1.4273  1.4914 -0.6784
27351SOL    HW283776   2.676   2.627   6.512 -0.2140 -2.0943 -0.3673
27352SOL     OW83777   4.286   8.044   0.743 -0.0519 -0.3034 -0.4638
27352SOL    HW183778   4.207   8.069   0.695  1.1283  1.4824 -1.5732
27352SOL    HW283779   4.320   7.969   0.695 -0.2082 -0.0675 -0.9506
27353SOL     OW83780   4.702   0.947   9.559 -0.2313  0.0238  0.1294
27353SOL    HW183781   4.660   0.923   9.642 -0.3792 -0.1490  0.0061
27353SOL    HW283782   4.657   0.894   9.494  1.3916 -1.5046  0.2095
27354SOL     OW83783   2.577   0.471   4.849 -0.6172  0.4055 -0.4123
27354SOL    HW183784   2.511   0.443   4.785 -0.1098  1.1471 -1.2785
27354SOL    HW283785   2.527   0.516   4.917 -0.9787  1.4502 -1.3365
27355SOL     OW83786   8.901   7.997   0.537  0.0607  0.5466 -0.0390
27355SOL    HW183787   8.899   7.973   0.444 -0.5702  1.4748 -0.2853
27355SOL    HW283788   8.808   8.003   0.561  0.2211  0.7790  0.5203
27356SOL     OW83789   3.424   6.854   6.776  0.0736 -0.3170  0.0351
27356SOL    HW183790   3.444   6.872   6.867 -0.2489  0.7466 -0.0865
27356SOL    HW283791   3.386   6.936   6.743 -1.0630 -1.1106 -0.6926
27357SOL     OW83792   9.591   8.084   9.500  0.0373  0.2685 -0.0723
27357SOL    HW183793   9.624   8.158   9.550 -0.5790  0.4970 -0.0016
27357SOL    HW283794   9.511   8.058   9.544 -0.0064 -0.1362 -0.3808
27358SOL     OW83795   8.306   4.564   0.088  0.5210 -0.3804 -0.3654
27358SOL    HW183796   8.338   4.577  -0.001 -0.0304  0.1074 -0.5044
27358SOL    HW283797   8.356   4.626   0.141  1.8967 -1.6965 -0.0721
27359SOL     OW83798   6.509   7.844   7.034  0.2562 -0.1809 -0.3556
27359SOL    HW183799   6.586   7.786   7.043  0.6244  0.2355 -0.7543
27359SOL    HW283800   6.519   7.909   7.103  0.2999 -0.0848 -0.4520
27360SOL     OW83801   4.654   4.716   8.091  0.4461 -0.4016 -0.5533
27360SOL    HW183802   4.694   4.654   8.029 -0.1377  0.0793 -1.4382
27360SOL    HW283803   4.591   4.765   8.038  0.2035  0.2896  0.3526
27361SOL     OW83804   2.840   5.988   4.672  0.0945 -0.3252 -0.3669
27361SOL    HW183805   2.841   6.000   4.767 -1.9173 -1.9537 -0.0880
27361SOL    HW283806   2.777   6.053   4.640 -1.3592 -1.6177 -0.2302
27362SOL     OW83807   2.968   7.222   0.306 -0.1650 -0.0299  0.7613
27362SOL    HW183808   3.021   7.143   0.314 -2.2399 -1.3793  1.9350
27362SOL    HW283809   2.967   7.241   0.213  0.3086 -1.4176  0.4490
27363SOL     OW83810   1.837   1.543   2.505 -0.2445  0.3516  0.2406
27363SOL    HW183811   1.910   1.571   2.451  0.3992  0.0510  0.9336
27363SOL    HW283812   1.761   1.591   2.471  0.1069  0.0635 -0.9961
27364SOL     OW83813   6.939   6.977   2.597  0.3982 -0.6300 -0.3182
27364SOL    HW183814   6.980   6.899   2.634 -0.9965 -1.1530  0.2033
27364SOL    HW283815   6.881   6.944   2.529 -1.0116 -0.1761  0.6263
27365SOL     OW83816   7.453   6.104   5.265  0.0257  0.0483  0.3480
27365SOL    HW183817   7.490   6.186   5.296 -0.1443 -0.0322  0.7702
27365SOL    HW283818   7.493   6.037   5.319  0.6428 -0.2146 -0.4163
27366SOL     OW83819   2.117   8.943   3.264 -0.0879 -0.1930  0.2345
27366SOL    HW183820   2.164   8.957   3.183  1.9296  2.1879  1.6927
27366SOL    HW283821   2.165   8.872   3.308  0.2533  0.1072  0.3504
27367SOL     OW83822   8.606   4.011   4.332 -0.6754  0.2313 -0.2971
27367SOL    HW183823   8.605   4.107   4.336 -2.1637  0.2405 -0.2446
27367SOL    HW283824   8.625   3.992   4.240 -1.9497  0.6282 -0.6653
27368SOL     OW83825   2.648   6.942   2.408 -0.3291  0.6184  0.1733
27368SOL    HW183826   2.728   6.890   2.413 -0.9895 -0.2815  2.4700
27368SOL    HW283827   2.649   6.978   2.319  0.8780 -2.1431 -1.0566
27369SOL     OW83828   1.370   3.192   6.725 -0.1590 -0.2657  0.1734
27369SOL    HW183829   1.357   3.287   6.722  1.0993 -0.0318  1.3128
27369SOL    HW283830   1.296   3.157   6.675 -0.7560  1.2937 -0.1147
27370SOL     OW83831   2.557   0.179   2.519 -0.1688  0.1340 -0.4522
27370SOL    HW183832   2.627   0.114   2.519  0.2071  0.5026  0.8430
27370SOL    HW283833   2.589   0.248   2.460  0.3418  0.0725 -0.2504
27371SOL     OW83834   2.807   4.150   1.328  0.0214 -0.2881  0.1620
27371SOL    HW183835   2.882   4.090   1.329 -0.7152 -1.2677 -1.1967
27371SOL    HW283836   2.844   4.234   1.354  1.5444 -0.8126 -0.1914
27372SOL     OW83837   6.572   4.200   3.079  0.2995 -0.0886 -0.1790
27372SOL    HW183838   6.661   4.221   3.052  0.6255 -0.1272  0.8313
27372SOL    HW283839   6.567   4.229   3.170 -0.0357 -2.0117  0.4600
27373SOL     OW83840   9.040   7.990   3.955  0.2090  0.6237 -1.0257
27373SOL    HW183841   9.074   8.049   4.022  0.9017  0.9940 -1.6948
27373SOL    HW283842   9.062   8.031   3.872 -3.2887  1.7583 -1.5736
27374SOL     OW83843   4.049   8.500   4.728 -0.1470 -0.8067 -0.4413
27374SOL    HW183844   4.138   8.466   4.725  0.3373  0.3119  0.4642
27374SOL    HW283845   4.055   8.579   4.782 -1.7066 -0.7832 -0.2453
27375SOL     OW83846   7.083   6.468   6.516  0.4534 -0.3601 -0.3324
27375SOL    HW183847   7.127   6.508   6.591 -0.6215 -0.3669  0.3356
27375SOL    HW283848   6.991   6.464   6.542  0.3355 -2.1749 -0.8497
27376SOL     OW83849   7.616   1.052   5.812  0.0064  0.1453  0.2048
27376SOL    HW183850   7.641   1.105   5.887  1.3660  0.6711 -0.5800
27376SOL    HW283851   7.560   1.109   5.760 -0.0953  0.1417  0.3100
27377SOL     OW83852   1.273   4.197   9.642  0.7840 -0.0581 -0.0824
27377SOL    HW183853   1.354   4.147   9.654  1.7575  1.6587  0.9987
27377SOL    HW283854   1.300   4.274   9.592 -0.4534 -0.0752 -0.8123
27378SOL     OW83855   7.217   1.643   5.916 -0.5479 -0.4477 -0.1548
27378SOL    HW183856   7.140   1.614   5.867 -1.1701  0.6753  0.1304
27378SOL    HW283857   7.198   1.733   5.941  0.6093 -0.3421  0.4471
27379SOL     OW83858   0.193   6.870   5.247 -0.6624  0.6229 -0.8918
27379SOL    HW183859   0.188   6.828   5.161 -0.8839 -0.6217 -0.2974
27379SOL    HW283860   0.224   6.801   5.305 -1.1581  1.2610  0.1571
27380SOL     OW83861   0.678   3.698   0.051  0.1317 -0.7620 -0.2211
27380SOL    HW183862   0.740   3.663  -0.013 -0.4927 -0.8002 -0.8251
27380SOL    HW283863   0.592   3.674   0.016 -0.3110  1.0637 -0.4809
27381SOL     OW83864   9.526   4.463   3.239  0.4145 -0.1320  0.7369
27381SOL    HW183865   9.439   4.494   3.214  0.3349  1.2337  2.4746
27381SOL    HW283866   9.517   4.368   3.246 -0.5484 -0.1456 -0.4576
27382SOL     OW83867   6.624   4.078   5.454  0.0813 -0.3311  0.3598
27382SOL    HW183868   6.673   4.026   5.517  1.8060  1.6672  0.7531
27382SOL    HW283869   6.532   4.062   5.476  0.6191  0.0410  3.1817
27383SOL     OW83870   2.419   3.996   3.844 -0.0860  0.6659  0.0946
27383SOL    HW183871   2.344   3.985   3.903 -1.2357  0.7604 -1.2688
27383SOL    HW283872   2.439   4.089   3.849 -3.0771  1.6745 -2.8393
27384SOL     OW83873   7.639   6.834   4.857 -0.4825  0.1951  0.4469
27384SOL    HW183874   7.690   6.788   4.924  0.9023  0.9116 -0.0764
27384SOL    HW283875   7.621   6.920   4.895 -0.3587  0.3275  0.2089
27385SOL     OW83876   1.790   0.795   4.873  0.5538  0.0556  0.0195
27385SOL    HW183877   1.744   0.781   4.956  1.7770  1.0834  0.9188
27385SOL    HW283878   1.726   0.773   4.806 -0.4542 -0.8689  1.2353
27386SOL     OW83879   9.111   7.532   0.453  0.0132  0.4198  0.3267
27386SOL    HW183880   9.171   7.466   0.420 -1.5889 -0.8026 -0.2620
27386SOL    HW283881   9.168   7.604   0.482  1.6978 -0.3530 -0.8926
27387SOL     OW83882   9.361   7.387   3.463  0.2234  0.2042 -0.0793
27387SOL    HW183883   9.381   7.296   3.441  1.8138  0.2482  1.0091
27387SOL    HW283884   9.351   7.431   3.378  2.3416 -0.4053 -0.7169
27388SOL     OW83885   3.813   5.978   0.581 -0.6265  0.1080  0.7089
27388SOL    HW183886   3.876   6.037   0.624 -0.2539 -0.5648  1.1094
27388SOL    HW283887   3.728   6.017   0.598 -0.3205  1.0808  0.0918
27389SOL     OW83888   2.948   9.202   6.481  0.0894  0.1505 -0.0932
27389SOL    HW183889   2.875   9.251   6.518  0.1628  0.7442 -0.7180
27389SOL    HW283890   3.020   9.265   6.478 -0.1800  0.4315 -2.1371
27390SOL     OW83891   2.784   2.786   8.786 -0.0738 -0.3853  0.3169
27390SOL    HW183892   2.849   2.854   8.772 -0.4236 -0.1948 -0.4912
27390SOL    HW283893   2.723   2.822   8.850  1.4635 -1.1826  2.3084
27391SOL     OW83894   2.528   6.339   7.599 -0.3103 -0.3231  0.1748
27391SOL    HW183895   2.571   6.256   7.622  0.1043 -0.3500 -0.6915
27391SOL    HW283896   2.594   6.406   7.616 -0.6644 -0.1462  0.9295
27392SOL     OW83897   4.992   3.527   4.338 -0.0585  0.5232 -0.1533
27392SOL    HW183898   5.052   3.461   4.304 -1.3142 -0.1538 -1.1437
27392SOL    HW283899   5.032   3.610   4.312  0.7222  0.1102 -0.3235
27393SOL     OW83900   0.923   4.843   0.364  0.8156 -0.4038 -0.2314
27393SOL    HW183901   0.971   4.812   0.287  1.2266  2.2192 -1.1083
27393SOL    HW283902   0.990   4.853   0.432  0.6784 -1.3608  0.0615
27394SOL     OW83903   5.664   3.519   3.524  0.5402 -0.1392 -0.5682
27394SOL    HW183904   5.604   3.446   3.513  0.1303  0.1969 -0.5691
27394SOL    HW283905   5.645   3.554   3.611  0.9527 -0.2257 -0.4380
27395SOL     OW83906   6.012   2.552   3.998 -0.0388  0.3632  0.0009
27395SOL    HW183907   6.016   2.495   4.075  0.2519  0.8141  0.3245
27395SOL    HW283908   6.085   2.524   3.943 -0.8595 -0.6569 -0.6176
27396SOL     OW83909   8.027   2.523   8.019  0.1569  0.8318  0.0184
27396SOL    HW183910   8.021   2.603   8.071  0.6866  0.8960 -0.0130
27396SOL    HW283911   8.121   2.510   8.006  0.1221 -0.3102  0.7947
27397SOL     OW83912   1.426   7.929   3.138 -0.4435  0.5329 -0.0443
27397SOL    HW183913   1.420   7.836   3.157  1.4948 -0.2760 -2.7581
27397SOL    HW283914   1.503   7.959   3.186  0.0088  0.2661 -0.5860
27398SOL     OW83915   7.378   1.835   2.234  0.3961 -0.2475  0.5835
27398SOL    HW183916   7.460   1.839   2.283  0.0924  0.6876  1.0272
27398SOL    HW283917   7.330   1.913   2.260 -0.0464 -0.0558 -0.7409
27399SOL     OW83918   7.266   1.009   5.423  0.3379  0.2413  0.3407
27399SOL    HW183919   7.298   0.919   5.427 -0.0462  0.1061  0.3293
27399SOL    HW283920   7.261   1.037   5.515 -2.8983 -0.9247  0.6160
27400SOL     OW83921   7.863   9.152   5.319  0.6597  0.0246 -0.5765
27400SOL    HW183922   7.892   9.061   5.326  1.1935  0.2495  0.3321
27400SOL    HW283923   7.929   9.195   5.264  1.2003  0.1715  0.1662
27401SOL     OW83924   4.444   5.272   9.648  0.4608 -0.3543 -0.2898
27401SOL    HW183925   4.406   5.310   9.569 -0.2027 -0.1960  0.0993
27401SOL    HW283926   4.379   5.289   9.716  1.8560  1.2253  0.7283
27402SOL     OW83927   2.940   2.482   9.460  0.1924  0.2095  0.9130
27402SOL    HW183928   2.902   2.491   9.548  1.1825 -3.9196  1.9928
27402SOL    HW283929   3.035   2.477   9.475  0.3032 -2.3250 -0.0136
27403SOL     OW83930   2.487   5.781   1.118 -0.1488  0.6906 -0.3313
27403SOL    HW183931   2.570   5.782   1.070  1.2418  1.1625  1.9583
27403SOL    HW283932   2.476   5.871   1.148 -0.8513  0.3531  0.4426
27404SOL     OW83933   9.385   5.454   4.115  1.0125 -0.5335 -0.0613
27404SOL    HW183934   9.385   5.371   4.066  0.0042 -0.3886 -0.3362
27404SOL    HW283935   9.475   5.484   4.112  1.1091 -0.9107 -1.1879
27405SOL     OW83936   4.298   5.965   1.320  0.2468 -0.0670  0.3522
27405SOL    HW183937   4.345   6.026   1.263  0.7507 -0.1654  0.6594
27405SOL    HW283938   4.290   6.011   1.403 -0.3231  0.0014  0.2585
27406SOL     OW83939   4.763   3.701   4.352 -0.2187  0.2492  0.7033
27406SOL    HW183940   4.739   3.745   4.271 -1.0789 -0.3948  0.5919
27406SOL    HW283941   4.792   3.614   4.324  0.5769  0.4153  0.9949
27407SOL     OW83942   9.707   7.734   4.839 -0.2074  0.0541 -0.0554
27407SOL    HW183943   9.698   7.693   4.925  0.4503  0.2191  0.0938
27407SOL    HW283944   9.689   7.827   4.855 -0.3835  0.0386 -0.1553
27408SOL     OW83945   9.530   6.248   7.466 -0.4304 -0.4065 -0.0383
27408SOL    HW183946   9.513   6.192   7.541 -0.2121  0.7605  0.9254
27408SOL    HW283947   9.621   6.231   7.441 -0.3530 -0.4479  0.2793
27409SOL     OW83948   4.793   3.054   3.245  0.5004  0.3298  0.1953
27409SOL    HW183949   4.782   3.105   3.165 -0.3107  1.2001  0.8311
27409SOL    HW283950   4.704   3.043   3.279  0.9389  1.4529  1.8415
27410SOL     OW83951   4.637   6.561   6.381 -0.1787  0.5105  0.6600
27410SOL    HW183952   4.675   6.531   6.464  0.1813 -0.8601  0.0214
27410SOL    HW283953   4.566   6.500   6.365  0.8830 -0.3667 -0.9264
27411SOL     OW83954   4.125   3.691   0.712 -0.2406  0.3125  0.6002
27411SOL    HW183955   4.128   3.697   0.616  0.5293  0.4990  0.6300
27411SOL    HW283956   4.177   3.766   0.742  0.6615 -0.5080  1.1378
27412SOL     OW83957   3.155   8.402   8.305  0.6575  0.3782 -0.3225
27412SOL    HW183958   3.212   8.334   8.340  0.2790  0.3599  0.2696
27412SOL    HW283959   3.213   8.458   8.254  0.6152 -1.7879 -3.0025
27413SOL     OW83960   1.453   2.681   6.017 -0.1844  0.3737  0.4097
27413SOL    HW183961   1.527   2.622   6.006  0.0354  0.6577  0.3587
27413SOL    HW283962   1.458   2.740   5.941 -0.2039  0.6700  0.6358
27414SOL     OW83963   3.746   7.282   0.885 -0.5613  0.1220 -0.1584
27414SOL    HW183964   3.803   7.268   0.961 -0.0814 -0.3370 -0.5965
27414SOL    HW283965   3.688   7.353   0.912  0.7957  1.2189 -0.0213
27415SOL     OW83966   6.741   2.215   4.468  0.4997  0.4533  0.1999
27415SOL    HW183967   6.743   2.301   4.509  0.9357  0.9607 -0.8243
27415SOL    HW283968   6.710   2.156   4.536  0.0487  1.4454  0.8776
27416SOL     OW83969   2.268   6.931   3.670 -0.2910 -0.4601  0.6477
27416SOL    HW183970   2.223   7.005   3.710 -1.6678 -1.4980  1.0666
27416SOL    HW283971   2.360   6.958   3.669 -0.8813  1.7486 -0.3238
27417SOL     OW83972   5.753   9.041   4.418  0.7356  0.5464 -0.3063
27417SOL    HW183973   5.839   9.082   4.420  0.3317  1.3832  0.2910
27417SOL    HW283974   5.692   9.112   4.396  0.2220 -0.0947 -1.0613
27418SOL     OW83975   8.790   8.919   4.065 -0.1907 -0.2028  0.2919
27418SOL    HW183976   8.743   8.852   4.115  0.7371 -0.4064  0.9122
27418SOL    HW283977   8.767   8.901   3.974 -0.7467 -0.7356  0.5282
27419SOL     OW83978   5.569   7.476   6.318  0.2546  0.1951  0.7674
27419SOL    HW183979   5.498   7.531   6.283 -0.4472 -1.0894  0.0740
27419SOL    HW283980   5.641   7.488   6.256  0.0057  0.1122  0.4605
27420SOL     OW83981   5.315   9.589   1.257  0.2101 -0.1784  0.5234
27420SOL    HW183982   5.271   9.535   1.191  1.0302  0.1368 -0.3078
27420SOL    HW283983   5.263   9.670   1.259 -0.1996 -0.4415  0.7509
27421SOL     OW83984   5.825   0.496   4.055 -0.6325 -0.5225  0.2749
27421SOL    HW183985   5.870   0.412   4.052  1.7998  0.6781  0.0854
27421SOL    HW283986   5.818   0.523   3.963  0.8275  0.4971  0.4181
27422SOL     OW83987   4.857   0.042   2.774 -0.0111 -0.3268  0.1819
27422SOL    HW183988   4.791   0.110   2.790  0.4838  0.2466 -0.2107
27422SOL    HW283989   4.847  -0.017   2.849 -0.9351 -0.2212  0.1616
27423SOL     OW83990   3.926   2.927   7.662 -0.1388 -0.0499 -0.6660
27423SOL    HW183991   3.977   2.852   7.633 -0.4147  0.6521 -3.1524
27423SOL    HW283992   3.853   2.933   7.600 -0.2828  2.1012 -0.3676
27424SOL     OW83993   2.548   7.993   3.653 -0.4549  0.0836  0.1213
27424SOL    HW183994   2.517   7.976   3.564 -0.4691  1.1631 -0.0999
27424SOL    HW283995   2.473   8.034   3.696  0.0237  0.9522  0.1602
27425SOL     OW83996   6.173   4.713   5.249 -0.2637 -0.1051  0.7378
27425SOL    HW183997   6.138   4.779   5.309 -0.5092  0.4548 -0.0077
27425SOL    HW283998   6.097   4.661   5.222 -0.3561  0.4165 -0.0286
27426SOL     OW83999   8.838   7.271   3.426 -0.6544  0.3185  0.2572
27426SOL    HW184000   8.814   7.350   3.475 -0.4240 -0.5220  1.7736
27426SOL    HW284001   8.901   7.226   3.482  0.0157 -0.4309 -1.0587
27427SOL     OW84002   7.090   1.524   9.324 -0.4580  0.9368 -0.5928
27427SOL    HW184003   7.010   1.557   9.283 -1.6029  0.4661  1.1915
27427SOL    HW284004   7.060   1.471   9.398  1.5239  1.6354  0.7983
27428SOL     OW84005   2.987   1.424   6.725 -0.1894  0.2036 -0.7874
27428SOL    HW184006   2.974   1.468   6.809 -0.1105 -0.2652 -0.5230
27428SOL    HW284007   3.077   1.392   6.729 -0.6414 -1.0946 -0.4289
27429SOL     OW84008   5.718   7.084   1.321  0.2913 -0.3287  0.2449
27429SOL    HW184009   5.808   7.060   1.300  0.1182 -1.4879  0.7627
27429SOL    HW284010   5.668   7.003   1.310 -0.1880 -0.4813  2.8620
27430SOL     OW84011   1.721   7.704   1.491 -0.2889 -0.9211  0.2996
27430SOL    HW184012   1.786   7.745   1.434 -0.2706  0.0781  1.0048
27430SOL    HW284013   1.742   7.737   1.578 -1.1977 -1.2875  0.6655
27431SOL     OW84014   8.925   6.530   0.323  0.0013  0.2951 -0.2328
27431SOL    HW184015   8.999   6.511   0.266 -0.6742  1.5231 -1.5728
27431SOL    HW284016   8.957   6.599   0.382  0.4353 -0.3705  0.3164
27432SOL     OW84017   7.853   6.726   7.662 -0.0359 -0.2670 -0.3568
27432SOL    HW184018   7.786   6.783   7.701  0.1173 -0.3677  0.0681
27432SOL    HW284019   7.810   6.641   7.654 -0.5671  0.1155 -1.8611
27433SOL     OW84020   6.016   6.119   5.821  0.1420 -0.0300  0.3237
27433SOL    HW184021   5.932   6.083   5.853  0.2899  0.5997  1.4673
27433SOL    HW284022   6.015   6.210   5.849  0.8371  0.2127 -0.4268
27434SOL     OW84023   1.614   0.861   6.378  0.3023 -0.1783  0.3135
27434SOL    HW184024   1.684   0.824   6.325  0.2324  1.8653 -1.3527
27434SOL    HW284025   1.536   0.853   6.323  0.2399  2.0678 -0.0507
27435SOL     OW84026   2.624   7.814   6.704  0.3038  0.1401  0.4057
27435SOL    HW184027   2.533   7.799   6.729  0.6344 -0.1799  1.4485
27435SOL    HW284028   2.628   7.907   6.681 -0.3868  0.0492 -0.1225
27436SOL     OW84029   3.325   2.791   4.059 -0.1403 -0.2411  0.2079
27436SOL    HW184030   3.322   2.840   4.141  0.7102  2.5462 -1.3083
27436SOL    HW284031   3.271   2.842   3.999 -0.1908 -1.8591 -1.2021
27437SOL     OW84032   1.161   8.847   5.245  0.7642 -0.1236  0.3770
27437SOL    HW184033   1.097   8.917   5.257  0.5592 -0.1780 -0.3454
27437SOL    HW284034   1.109   8.766   5.246  1.0596 -0.3121  1.7099
27438SOL     OW84035   8.176   7.275   4.649  0.5095  0.1996  0.2388
27438SOL    HW184036   8.204   7.183   4.653 -0.5411 -0.1030  1.0328
27438SOL    HW284037   8.128   7.281   4.566 -0.1012 -0.1753  0.5599
27439SOL     OW84038   0.887   6.982   5.862 -0.2922 -0.0788  0.5291
27439SOL    HW184039   0.920   6.993   5.951  1.5532  0.4042 -0.1767
27439SOL    HW284040   0.862   6.889   5.857 -0.0880 -0.1917  1.4387
27440SOL     OW84041   8.931   2.221   3.233 -0.3145 -0.7517 -0.0590
27440SOL    HW184042   8.888   2.301   3.203 -2.1521 -1.5159  0.4612
27440SOL    HW284043   8.876   2.189   3.304  1.2565 -1.6588  0.8069
27441SOL     OW84044   5.788   2.546   3.010  0.0064 -0.1048  0.1533
27441SOL    HW184045   5.716   2.575   3.065 -0.0137 -0.4257  0.3031
27441SOL    HW284046   5.757   2.560   2.920  0.0112  0.3513  0.2214
27442SOL     OW84047   3.863   2.956   4.566 -0.3059 -0.1169  0.2054
27442SOL    HW184048   3.894   3.032   4.614  0.3961  1.3284 -2.3330
27442SOL    HW284049   3.778   2.983   4.530  0.1664 -0.3120 -1.1190
27443SOL     OW84050   9.636   2.712   7.719 -0.2881 -0.0432 -0.8139
27443SOL    HW184051   9.674   2.634   7.759 -1.4142 -0.1723  0.0516
27443SOL    HW284052   9.541   2.700   7.729 -0.5189  0.9270 -1.6473
27444SOL     OW84053   2.090   4.602   8.926  0.2266 -0.1813  0.3914
27444SOL    HW184054   2.113   4.695   8.926  0.7131 -0.2932 -0.2256
27444SOL    HW284055   2.132   4.566   9.004 -1.0480  0.3659  1.3566
27445SOL     OW84056   9.691   0.456   5.784  0.1611  0.0612 -0.3086
27445SOL    HW184057   9.702   0.501   5.701  2.4127  0.6074  0.2195
27445SOL    HW284058   9.747   0.504   5.845 -2.7884  0.8281  2.0310
27446SOL     OW84059   3.254   9.308   3.943 -0.7131 -0.5048  0.2708
27446SOL    HW184060   3.200   9.251   3.998 -2.1523 -0.6743 -1.2148
27446SOL    HW284061   3.199   9.324   3.865  0.1814  1.8342  0.0583
27447SOL     OW84062   1.622   0.371   2.574 -0.1351 -0.3666 -0.0608
27447SOL    HW184063   1.683   0.423   2.522  0.7860  0.8179  2.0360
27447SOL    HW284064   1.569   0.436   2.620 -1.5045 -1.3669 -0.1543
27448SOL     OW84065   4.696   5.653   8.522  0.3039 -0.0879  0.2684
27448SOL    HW184066   4.729   5.564   8.521  0.6580  0.0434 -0.2423
27448SOL    HW284067   4.728   5.692   8.440 -0.6897  0.1990  0.0014
27449SOL     OW84068   9.651   2.948   6.206  0.4853 -0.1155 -0.1267
27449SOL    HW184069   9.580   2.972   6.146  1.1290  0.4803 -0.6583
27449SOL    HW284070   9.697   2.877   6.161 -0.2190 -1.0337  0.5607
27450SOL     OW84071   9.669   3.409   2.494 -0.8530  0.1733  0.0665
27450SOL    HW184072   9.741   3.381   2.550 -0.4014 -0.5359 -0.8428
27450SOL    HW284073   9.698   3.494   2.460 -0.7707  0.2280  0.2683
27451SOL     OW84074   3.467   7.611   9.535  0.6135  0.1871  0.0033
27451SOL    HW184075   3.519   7.545   9.579  2.2561  1.6777  0.4257
27451SOL    HW284076   3.480   7.595   9.441 -0.7645 -1.3678  0.0371
27452SOL     OW84077   5.396   2.056   1.859 -0.4162  0.5062  0.2105
27452SOL    HW184078   5.340   2.011   1.796  0.2834 -2.1403  1.3092
27452SOL    HW284079   5.467   1.994   1.876  1.2748  2.5537  1.0311
27453SOL     OW84080   9.079   8.627   4.037 -0.3533  0.4761 -0.0929
27453SOL    HW184081   9.111   8.697   4.094  1.1476  1.3418 -1.8673
27453SOL    HW284082   8.984   8.627   4.049 -0.2245  1.7659  1.1174
27454SOL     OW84083   8.232   8.267   7.714 -0.4193 -0.0684 -0.1798
27454SOL    HW184084   8.324   8.248   7.732 -0.1179  1.3971 -0.1045
27454SOL    HW284085   8.232   8.354   7.676 -1.8337  0.1917  0.3503
27455SOL     OW84086   3.724   9.385   9.442 -0.8750  0.4123  0.3382
27455SOL    HW184087   3.745   9.295   9.467  0.3386 -0.2035 -2.4529
27455SOL    HW284088   3.631   9.394   9.461 -1.0264 -1.4397  0.6989
27456SOL     OW84089   9.692   4.315   8.293 -0.1055  0.2344 -1.0494
27456SOL    HW184090   9.673   4.268   8.211  1.5932 -1.3754 -0.5729
27456SOL    HW284091   9.737   4.251   8.348 -2.2315  0.8796  1.6770
27457SOL     OW84092   0.741   4.845   6.242 -0.0742 -0.9310  0.0638
27457SOL    HW184093   0.662   4.801   6.211  0.4432 -0.6088 -1.8142
27457SOL    HW284094   0.805   4.831   6.173  1.6292 -1.3881  1.6405
27458SOL     OW84095   2.523   5.235   8.766  0.6124 -0.1258  0.0229
27458SOL    HW184096   2.456   5.233   8.835 -0.0375  0.9675 -0.5338
27458SOL    HW284097   2.590   5.294   8.800  1.0923 -0.8758  0.3954
27459SOL     OW84098   1.994   7.917   3.842  0.1099 -0.0661  0.1571
27459SOL    HW184099   1.997   7.925   3.746 -3.1385 -0.6465 -0.0916
27459SOL    HW284100   2.022   7.827   3.859 -1.8712 -0.8663 -0.5510
27460SOL     OW84101   7.866   9.695   4.201 -0.1701 -0.3406  0.0779
27460SOL    HW184102   7.907   9.774   4.165 -0.4322 -0.0948  0.3223
27460SOL    HW284103   7.904   9.685   4.288 -0.3923 -0.2937  0.1800
27461SOL     OW84104   1.666   4.818   1.478  0.5705 -0.1415 -0.2714
27461SOL    HW184105   1.571   4.802   1.481  0.8118 -1.7668 -0.6815
27461SOL    HW284106   1.673   4.911   1.456 -0.9344  0.0227 -0.1877
27462SOL     OW84107   9.489   3.905   7.914  0.0204 -0.1347 -0.0801
27462SOL    HW184108   9.524   3.927   7.827  0.8232  0.2839  0.3404
27462SOL    HW284109   9.419   3.969   7.928 -0.1917 -0.2762 -0.4608
27463SOL     OW84110   0.405   2.004   8.761 -0.1557 -0.3356  0.3404
27463SOL    HW184111   0.447   2.074   8.710 -0.3369  0.1689  0.8804
27463SOL    HW284112   0.445   2.010   8.848 -0.3217 -0.7741  0.4508
27464SOL     OW84113   4.958   4.782   3.271  0.5925 -0.6178  0.0552
27464SOL    HW184114   4.987   4.855   3.216  3.6667 -1.2478  0.6701
27464SOL    HW284115   4.928   4.716   3.209  0.0171  0.2443 -0.6105
27465SOL     OW84116   5.296   0.680   9.572 -0.7789 -0.1489 -0.1749
27465SOL    HW184117   5.206   0.715   9.575  0.2475  2.8147 -0.1699
27465SOL    HW284118   5.350   0.754   9.599  1.7128 -1.7637 -0.5014
27466SOL     OW84119   8.832   2.141   9.576 -0.5742  0.5210  0.1615
27466SOL    HW184120   8.893   2.168   9.645 -0.0612  0.0167 -0.0899
27466SOL    HW284121   8.888   2.122   9.501 -0.9945 -0.5049  0.0975
27467SOL     OW84122   8.528   2.036   8.345 -0.2672  0.6612  0.3350
27467SOL    HW184123   8.583   2.102   8.303  1.0771 -0.1636  0.7135
27467SOL    HW284124   8.441   2.049   8.308  0.6250  0.6536 -1.9273
27468SOL     OW84125   6.629   2.272   2.041  0.8044  0.6678 -0.1018
27468SOL    HW184126   6.599   2.240   1.955  0.2592 -0.2496  0.4042
27468SOL    HW284127   6.688   2.203   2.073  0.1009  0.4399  0.7483
27469SOL     OW84128   6.269   8.831   2.056  0.2249  0.2468 -1.1509
27469SOL    HW184129   6.196   8.857   2.113  0.1386 -1.9608 -0.1190
27469SOL    HW284130   6.247   8.866   1.970 -0.5945  2.0844 -0.2404
27470SOL     OW84131   4.424   8.032   5.382  0.2887 -0.0650 -0.0804
27470SOL    HW184132   4.369   8.110   5.386  0.0984 -0.0687 -1.7666
27470SOL    HW284133   4.492   8.047   5.448 -1.5492  0.0319  1.8961
27471SOL     OW84134   8.392   7.781   4.702  0.1391  0.2186  1.2189
27471SOL    HW184135   8.438   7.803   4.783 -0.0998 -0.6543  1.6089
27471SOL    HW284136   8.451   7.723   4.655  0.1682  0.5135  0.8838
27472SOL     OW84137   2.834   8.921   5.027  0.3736 -0.0893  0.7839
27472SOL    HW184138   2.838   9.017   5.028  1.0809 -0.0946  0.0061
27472SOL    HW284139   2.800   8.900   4.940  1.9713 -0.5690  0.2518
27473SOL     OW84140   4.684   8.899   1.013  0.6463  0.0133  0.1034
27473SOL    HW184141   4.771   8.859   1.010 -0.0712 -1.5461 -1.4177
27473SOL    HW284142   4.626   8.827   1.038 -0.2991  0.8750  0.4208
27474SOL     OW84143   5.086   7.695   1.404 -0.0962 -0.2117  0.8175
27474SOL    HW184144   5.027   7.766   1.378 -1.6053 -2.2181 -1.8055
27474SOL    HW284145   5.158   7.701   1.341 -0.2282 -0.9507  0.5908
27475SOL     OW84146   7.386   9.003   7.658  0.9600  0.2863  0.2894
27475SOL    HW184147   7.354   8.941   7.592  1.4418 -0.3079  0.6096
27475SOL    HW284148   7.413   9.080   7.607  0.9767 -0.0214 -0.1746
27476SOL     OW84149   1.738   2.774   9.033 -0.1963 -0.0842 -0.0241
27476SOL    HW184150   1.702   2.854   8.995 -0.8946  0.5225  1.8483
27476SOL    HW284151   1.757   2.796   9.124 -0.2957 -2.0177  0.5080
27477SOL     OW84152   3.218   9.397   1.863  0.4037 -0.2260  0.2027
27477SOL    HW184153   3.243   9.433   1.778 -4.5216  1.5607 -0.8022
27477SOL    HW284154   3.239   9.466   1.926  0.1435  0.2516 -0.2310
27478SOL     OW84155   2.630   8.029   6.534 -0.0073 -0.7207  0.2434
27478SOL    HW184156   2.635   8.021   6.438  0.9141  1.2708  0.0713
27478SOL    HW284157   2.612   8.122   6.549  2.5062 -0.4418  2.0545
27479SOL     OW84158   4.178   2.608   6.387 -0.5021  0.4738 -0.1965
27479SOL    HW184159   4.255   2.582   6.337  1.2432  1.6105  1.7198
27479SOL    HW284160   4.124   2.657   6.325 -0.1598 -1.0986 -1.8182
27480SOL     OW84161   0.490   5.869   7.955  0.7988 -0.2251  0.0505
27480SOL    HW184162   0.497   5.828   7.869 -1.0774  4.0744 -2.5128
27480SOL    HW284163   0.577   5.905   7.972  0.8151  0.1632 -0.8161
27481SOL     OW84164   2.520   8.748   6.954 -0.3357 -0.3348 -0.2322
27481SOL    HW184165   2.492   8.678   7.012 -0.7823  0.6797  0.8020
27481SOL    HW284166   2.448   8.757   6.891 -0.9382  0.1708  0.5221
27482SOL     OW84167   2.533   5.885   2.206  0.2374 -0.3476 -0.7471
27482SOL    HW184168   2.492   5.962   2.245  0.3252 -0.2690 -0.8099
27482SOL    HW284169   2.624   5.888   2.236 -0.0687 -1.1391  0.3225
27483SOL     OW84170   5.967   0.972   8.305  0.0855  0.1002  0.1530
27483SOL    HW184171   5.960   0.980   8.210 -0.7943 -1.8316  0.0058
27483SOL    HW284172   5.877   0.961   8.335  0.3674  0.5439  1.2066
27484SOL     OW84173   8.227   8.426   8.052  0.5856 -0.5225  0.1076
27484SOL    HW184174   8.195   8.455   8.138  0.9630  0.8973 -0.2077
27484SOL    HW284175   8.156   8.371   8.017 -0.3152  0.3105  0.5922
27485SOL     OW84176   1.830   7.912   8.644 -0.1260 -0.4456 -1.1328
27485SOL    HW184177   1.922   7.906   8.669 -0.0240  0.1533 -1.3453
27485SOL    HW284178   1.786   7.945   8.723  0.0613  0.6043 -1.4550
27486SOL     OW84179   0.360   4.981   2.878 -0.3924  0.4200 -0.2834
27486SOL    HW184180   0.401   4.904   2.916  1.3937  0.3385 -2.2137
27486SOL    HW284181   0.299   4.946   2.813 -0.3681  0.6273 -0.4190
27487SOL     OW84182   8.267   1.130   4.042 -0.9350  0.0223  0.0495
27487SOL    HW184183   8.262   1.204   3.982  1.5833  0.5769  0.4398
27487SOL    HW284184   8.281   1.170   4.128 -0.6555 -0.8922  0.4338
27488SOL     OW84185   5.381   5.518   2.085 -0.0788  0.3055  0.2463
27488SOL    HW184186   5.374   5.423   2.075 -2.2335  0.4071  0.3122
27488SOL    HW284187   5.351   5.553   2.001  0.6976  0.9338  0.2242
27489SOL     OW84188   2.720   1.489   6.207 -0.0306  0.1335 -0.0102
27489SOL    HW184189   2.793   1.505   6.147  0.0353 -1.8716 -0.5444
27489SOL    HW284190   2.669   1.419   6.165  0.0981 -1.4495  2.2888
27490SOL     OW84191   7.926   7.300   2.104  0.3442  0.2073  0.4026
27490SOL    HW184192   7.836   7.269   2.093 -0.1380  1.4272  0.7131
27490SOL    HW284193   7.921   7.394   2.085  1.6873  0.1725 -0.2536
27491SOL     OW84194   2.698   5.393   2.763  0.0395 -0.4318  0.2920
27491SOL    HW184195   2.698   5.439   2.847  0.8054  0.3232 -0.1103
27491SOL    HW284196   2.687   5.301   2.786  0.1471 -0.2205  1.2108
27492SOL     OW84197   1.575   0.905   2.640 -0.0136  0.0247 -0.1880
27492SOL    HW184198   1.592   0.849   2.716  1.4458  0.2597 -0.3113
27492SOL    HW284199   1.604   0.992   2.667  1.9535 -0.1768 -1.4826
27493SOL     OW84200   3.951   2.916   7.941 -0.2811 -0.5116 -0.4712
27493SOL    HW184201   4.040   2.898   7.971 -0.7750 -0.1140  1.3983
27493SOL    HW284202   3.955   2.909   7.846  2.3718  2.1377 -0.7200
27494SOL     OW84203   7.504   5.309   1.226  0.7719 -0.2792 -0.0082
27494SOL    HW184204   7.585   5.353   1.253  1.1424 -1.1165  0.2771
27494SOL    HW284205   7.465   5.277   1.307 -0.2627  0.7702 -0.0532
27495SOL     OW84206   8.083   6.132   8.344 -0.1090 -1.0959 -0.0689
27495SOL    HW184207   8.039   6.103   8.424 -0.0309 -1.2114 -0.0679
27495SOL    HW284208   8.013   6.138   8.279 -0.5162  0.8645  0.4978
27496SOL     OW84209   2.850   5.260   1.599 -0.5495  0.7036 -0.0607
27496SOL    HW184210   2.904   5.339   1.603 -2.2054  1.8601  1.8717
27496SOL    HW284211   2.864   5.225   1.511  1.4296  2.2630 -0.4414
27497SOL     OW84212   3.015   5.883   5.795 -0.0135  0.0863  0.2022
27497SOL    HW184213   3.025   5.874   5.890 -0.9723  0.4439  0.3474
27497SOL    HW284214   3.105   5.884   5.762  0.3412 -2.2611  0.8797
27498SOL     OW84215   3.941   6.247   1.153  0.1879  0.6009  0.3468
27498SOL    HW184216   3.912   6.167   1.109 -1.3670  1.7045 -0.7676
27498SOL    HW284217   4.031   6.259   1.124 -0.6349  1.0328 -2.2750
27499SOL     OW84218   1.700   4.808   6.889  0.2468 -0.0890  0.0622
27499SOL    HW184219   1.705   4.832   6.982  0.8459 -0.7845  0.2237
27499SOL    HW284220   1.612   4.834   6.862  0.3543  0.8930  0.6016
27500SOL     OW84221   5.824   4.447   1.959  0.0424 -0.8734  0.2322
27500SOL    HW184222   5.839   4.452   2.053 -0.4184 -1.0125  0.3149
27500SOL    HW284223   5.799   4.536   1.934 -0.5331 -0.9955  0.3656
27501SOL     OW84224   9.685   4.592   8.240 -0.2697  0.3735 -0.2337
27501SOL    HW184225   9.688   4.500   8.265  4.2350 -0.2541 -2.0005
27501SOL    HW284226   9.637   4.594   8.158  0.5373 -0.6597 -0.7476
27502SOL     OW84227   7.537   0.494   0.703  0.1694  0.4435  0.2566
27502SOL    HW184228   7.623   0.517   0.737  1.1008 -3.2334  0.8264
27502SOL    HW284229   7.489   0.459   0.778 -0.2644 -1.3984 -0.8217
27503SOL     OW84230   6.403   0.350   5.117 -0.3546  0.0449 -0.1335
27503SOL    HW184231   6.476   0.341   5.057  0.3908  0.2549  0.7228
27503SOL    HW284232   6.363   0.263   5.121 -0.9811  0.2424 -1.6165
27504SOL     OW84233   0.536   3.414   1.771 -0.2404  0.2914 -0.3007
27504SOL    HW184234   0.519   3.369   1.854 -1.1136 -0.3742 -0.8212
27504SOL    HW284235   0.613   3.469   1.788  1.0693 -1.6415  0.2686
27505SOL     OW84236   5.440   8.333   2.323 -0.0819 -0.4953 -0.2880
27505SOL    HW184237   5.466   8.388   2.249 -0.4040  0.3814  0.2307
27505SOL    HW284238   5.485   8.372   2.398  1.1719 -2.0651 -0.1767
27506SOL     OW84239   8.200   8.815   0.449 -0.0080 -0.2139 -0.0381
27506SOL    HW184240   8.239   8.900   0.470 -0.6655 -0.1351  0.9289
27506SOL    HW284241   8.181   8.820   0.356 -0.5260  0.9035  0.1079
27507SOL     OW84242   5.424   7.354   4.006 -0.2857 -0.2758  0.4044
27507SOL    HW184243   5.497   7.407   4.036 -1.2725  0.9847  0.7038
27507SOL    HW284244   5.396   7.396   3.924 -1.3769 -0.0182  0.8852
27508SOL     OW84245   2.262   3.862   4.277  0.4988  0.2097 -0.1930
27508SOL    HW184246   2.248   3.853   4.371  0.5827  1.1044 -0.0856
27508SOL    HW284247   2.338   3.806   4.259 -0.5480 -1.3219 -0.0515
27509SOL     OW84248   7.137   0.881   7.859 -0.2240 -0.0053  0.6063
27509SOL    HW184249   7.045   0.861   7.841 -0.7117  1.6827  1.0979
27509SOL    HW284250   7.167   0.808   7.914 -1.7268  0.1741  1.7403
27510SOL     OW84251   8.066   5.753   4.908 -0.5720  0.1950  0.5683
27510SOL    HW184252   8.052   5.660   4.893 -0.3455  0.1240  0.8000
27510SOL    HW284253   8.151   5.759   4.951 -1.7004  0.2767  2.9467
27511SOL     OW84254   7.421   2.011   0.077  0.2681 -0.1592 -0.3190
27511SOL    HW184255   7.326   2.006   0.068  0.3151  0.0092 -0.9477
27511SOL    HW284256   7.439   1.968   0.160 -0.2799 -0.9023 -0.5721
27512SOL     OW84257   8.533   1.909   5.647 -0.1097  0.1477  0.0962
27512SOL    HW184258   8.569   1.858   5.575 -0.9174  1.0711 -0.9993
27512SOL    HW284259   8.471   1.850   5.690 -0.7230  0.0530 -0.8963
27513SOL     OW84260   2.450   2.632   1.901 -0.7352 -0.0148 -0.1029
27513SOL    HW184261   2.429   2.713   1.854 -0.4825  0.8422  1.2039
27513SOL    HW284262   2.542   2.644   1.927 -1.1337 -0.0195  1.4157
27514SOL     OW84263   0.396   7.375   4.500 -0.5106 -0.1683  0.2876
27514SOL    HW184264   0.415   7.293   4.547  1.1727 -1.1029 -1.8370
27514SOL    HW284265   0.312   7.404   4.535 -0.5810 -2.1652  1.9663
27515SOL     OW84266   4.744   4.361   5.115  0.1583 -0.4976 -0.3517
27515SOL    HW184267   4.783   4.411   5.188  0.9711 -1.2382 -0.2639
27515SOL    HW284268   4.704   4.428   5.060 -0.0618  0.1219  0.5251
27516SOL     OW84269   0.646   5.234   0.160  0.4684 -0.2146  0.2349
27516SOL    HW184270   0.663   5.328   0.162  0.5562 -0.1611 -1.4247
27516SOL    HW284271   0.707   5.196   0.222  0.3832  0.8304  0.9640
27517SOL     OW84272   3.488   6.449   2.351 -0.3548  0.0263 -0.2718
27517SOL    HW184273   3.426   6.495   2.407 -1.2928 -0.3012 -1.0159
27517SOL    HW284274   3.494   6.361   2.389 -0.0246  0.1737  0.0300
27518SOL     OW84275   6.959   6.056   5.346  0.0037  0.0853  0.5168
27518SOL    HW184276   6.915   6.067   5.262 -0.0813 -1.0502  0.3988
27518SOL    HW284277   6.973   6.146   5.377  1.0180  0.5596 -1.1890
27519SOL     OW84278   4.086   8.840   7.023  0.3934 -0.0604 -0.0156
27519SOL    HW184279   4.140   8.763   7.038 -1.1636 -0.9488  1.3472
27519SOL    HW284280   4.001   8.819   7.062 -0.3217  2.0502 -0.2562
27520SOL     OW84281   6.797   8.645   1.505  0.2317 -0.0852 -0.0042
27520SOL    HW184282   6.857   8.665   1.433 -0.8390  2.4363 -0.3158
27520SOL    HW284283   6.802   8.550   1.515  1.6131 -0.3416 -2.3227
27521SOL     OW84284   1.199   2.010   8.659  1.3182 -0.2180  0.0308
27521SOL    HW184285   1.259   1.937   8.648  0.8813 -1.0412  2.5255
27521SOL    HW284286   1.138   2.003   8.585  0.5087 -3.2110  0.8543
27522SOL     OW84287   6.098   5.917   8.697 -0.8041  0.1179 -0.0512
27522SOL    HW184288   6.163   5.848   8.710  0.8872  1.5524 -0.4498
27522SOL    HW284289   6.119   5.954   8.611 -1.1040  1.6541  0.5026
27523SOL     OW84290   1.470   0.788   4.780 -0.3690  0.2481 -0.0535
27523SOL    HW184291   1.458   0.762   4.871 -0.1671  1.6591  0.4023
27523SOL    HW284292   1.383   0.817   4.752 -0.4865 -0.4164 -0.4035
27524SOL     OW84293   9.071   5.369   2.503 -0.2815  0.1190  0.0442
27524SOL    HW184294   9.141   5.414   2.550 -0.1762 -2.9472  3.2673
27524SOL    HW284295   8.998   5.369   2.565 -2.0682  0.4512 -1.9747
27525SOL     OW84296   4.191   2.304   6.835 -0.6852  0.1189 -0.5754
27525SOL    HW184297   4.188   2.246   6.760 -0.5638  2.7321 -2.7483
27525SOL    HW284298   4.108   2.352   6.832 -0.0989  1.2282  0.0923
27526SOL     OW84299   0.988   5.319   8.319 -0.2107  0.0559  0.5765
27526SOL    HW184300   1.080   5.345   8.308 -0.4557 -0.0136 -2.4263
27526SOL    HW284301   0.984   5.231   8.282 -1.6266  0.3948 -0.1508
27527SOL     OW84302   9.245   7.675   8.743  0.5062 -0.3887 -0.1603
27527SOL    HW184303   9.308   7.679   8.671  0.7411  2.0671  0.1041
27527SOL    HW284304   9.242   7.765   8.777 -1.2863 -1.0009  1.4417
27528SOL     OW84305   7.703   3.251   2.233  0.4823  0.4833 -0.2732
27528SOL    HW184306   7.617   3.212   2.245  0.0329  0.2699 -3.4300
27528SOL    HW284307   7.696   3.338   2.273 -1.1609  0.4352 -0.4142
27529SOL     OW84308   5.533   8.610   0.375  0.3334 -0.0712  0.3622
27529SOL    HW184309   5.460   8.602   0.313  2.1700 -2.4524 -1.6839
27529SOL    HW284310   5.529   8.530   0.426  1.9932 -0.6962 -0.4204
27530SOL     OW84311   5.029   0.407   8.946 -0.2041  0.3933 -0.6234
27530SOL    HW184312   5.051   0.362   8.865 -0.2523 -0.8214  0.0184
27530SOL    HW284313   5.076   0.358   9.014 -1.5046  0.3543  0.2686
27531SOL     OW84314   1.393   6.494   8.423 -0.2840  0.6352  0.2104
27531SOL    HW184315   1.383   6.403   8.453  0.9005  0.4035 -0.0655
27531SOL    HW284316   1.485   6.514   8.438  0.2427  0.7239 -2.6636
27532SOL     OW84317   7.409   3.321   1.373  0.9223  0.3847 -0.0736
27532SOL    HW184318   7.344   3.362   1.317  0.8776  0.2571 -0.1156
27532SOL    HW284319   7.461   3.394   1.408  0.8065  0.4796 -0.1013
27533SOL     OW84320   6.740   3.377   1.793 -0.0349  0.3175  0.2597
27533SOL    HW184321   6.804   3.317   1.755 -0.7101  0.0404 -0.4787
27533SOL    HW284322   6.655   3.336   1.775 -0.4379  0.8490  0.9060
27534SOL     OW84323   7.305   5.365   1.459  0.4978 -0.1209 -0.2320
27534SOL    HW184324   7.247   5.411   1.397 -1.7378 -1.5972  0.6431
27534SOL    HW284325   7.308   5.422   1.536  0.8440  0.3233 -0.5719
27535SOL     OW84326   1.229   6.041   8.258 -0.0688  0.4266 -0.5543
27535SOL    HW184327   1.308   6.063   8.308  0.7908 -0.9633 -1.2443
27535SOL    HW284328   1.158   6.047   8.322  0.8303  0.0049  0.5223
27536SOL     OW84329   1.522   9.367   1.301  0.1196  0.2742  0.0864
27536SOL    HW184330   1.462   9.325   1.364 -0.1899 -0.7286 -0.8493
27536SOL    HW284331   1.599   9.310   1.300 -0.0893 -0.0007 -0.8197
27537SOL     OW84332   7.269   8.714   6.042 -0.0643  1.0850  0.1896
27537SOL    HW184333   7.310   8.654   5.980 -1.7794 -2.2533  2.0450
27537SOL    HW284334   7.199   8.756   5.991 -1.7825 -1.9704 -0.1808
27538SOL     OW84335   0.760   9.571   6.931 -0.2601 -0.2700 -0.3167
27538SOL    HW184336   0.796   9.626   6.862  0.3125 -2.0402 -1.5175
27538SOL    HW284337   0.665   9.576   6.919 -0.3785  2.2841  1.1396
27539SOL     OW84338   0.836   0.986   0.838 -0.2608  0.7499  0.3871
27539SOL    HW184339   0.800   0.944   0.916  2.0253 -0.7064  0.7400
27539SOL    HW284340   0.798   0.938   0.765  0.3088 -0.2466  0.7290
27540SOL     OW84341   5.691   2.580   5.630  0.4187 -0.2461  0.1783
27540SOL    HW184342   5.609   2.536   5.651  0.5324 -1.2489 -1.2810
27540SOL    HW284343   5.734   2.521   5.568  1.4530  1.0656 -0.4008
27541SOL     OW84344   4.478   0.766   4.199 -0.0112 -0.2442 -0.6255
27541SOL    HW184345   4.533   0.688   4.189 -2.7648 -2.4017 -0.2788
27541SOL    HW284346   4.530   0.825   4.253  2.6292 -1.3336 -1.7678
27542SOL     OW84347   8.469   8.762   2.377 -0.3631  0.2464 -0.9399
27542SOL    HW184348   8.435   8.702   2.311 -1.5024  1.3130 -1.3745
27542SOL    HW284349   8.392   8.784   2.430  0.3315  0.1868  0.1266
27543SOL     OW84350   4.183   0.736   5.610 -0.0288  0.1690 -0.7413
27543SOL    HW184351   4.107   0.733   5.668 -0.3497 -1.1664 -1.2113
27543SOL    HW284352   4.198   0.646   5.584  1.7233  0.4091 -0.6829
27544SOL     OW84353   5.945   4.109   9.364 -0.0188  0.8550  0.0964
27544SOL    HW184354   6.026   4.147   9.397 -0.3786  2.0574 -0.3412
27544SOL    HW284355   5.972   4.033   9.313  0.5669 -1.0808  3.0889
27545SOL     OW84356   4.721   6.114   5.576  0.1253 -0.0453 -0.0124
27545SOL    HW184357   4.724   6.060   5.656 -1.6279  0.5255  0.4772
27545SOL    HW284358   4.793   6.080   5.522  0.3175 -1.5447  1.1068
27546SOL     OW84359   8.251   7.412   4.153 -0.4649 -0.1108 -0.6144
27546SOL    HW184360   8.285   7.497   4.125 -0.6114 -0.3803 -1.6346
27546SOL    HW284361   8.183   7.391   4.089  1.1998 -2.0938 -1.8185
27547SOL     OW84362   8.877   4.026   3.030 -0.4519 -0.0792 -0.2168
27547SOL    HW184363   8.794   3.987   3.003  0.4810 -1.6685 -0.9145
27547SOL    HW284364   8.881   4.109   2.983 -1.0685 -0.5936 -1.2156
27548SOL     OW84365   2.215   6.806   2.419 -0.5484 -0.1096 -0.2320
27548SOL    HW184366   2.301   6.773   2.395 -0.2868 -0.7261  1.4153
27548SOL    HW284367   2.154   6.759   2.362  0.2180  0.9228 -1.9849
27549SOL     OW84368   2.992   2.581   5.529  0.3784  0.0544 -0.0708
27549SOL    HW184369   2.967   2.627   5.609 -0.1769  0.3587 -0.4149
27549SOL    HW284370   3.060   2.636   5.490 -0.2670  0.5842 -0.4698
27550SOL     OW84371   4.386   3.080   9.209 -0.0183 -0.8364  0.1413
27550SOL    HW184372   4.309   3.022   9.209  0.3553 -1.3454 -0.3044
27550SOL    HW284373   4.443   3.043   9.142  0.8335 -0.7482  0.8057
27551SOL     OW84374   5.903   8.718   8.543  0.0151  0.3875 -0.3689
27551SOL    HW184375   5.994   8.741   8.565 -0.2231  0.9947 -0.0005
27551SOL    HW284376   5.870   8.673   8.621 -0.7909  2.4326  0.5433
27552SOL     OW84377   0.369   4.191   0.038 -0.0267  0.7532  0.0982
27552SOL    HW184378   0.386   4.106   0.080 -1.2771  0.6941  0.5324
27552SOL    HW284379   0.402   4.255   0.101  0.3674  0.5959  0.0506
27553SOL     OW84380   5.890   5.385   1.754 -0.0242 -0.4332 -0.4021
27553SOL    HW184381   5.913   5.342   1.836  0.4958 -0.2752 -0.4617
27553SOL    HW284382   5.796   5.370   1.745 -0.3012  0.4601  0.7581
27554SOL     OW84383   5.124   0.518   3.158  0.2605 -0.5654 -0.5027
27554SOL    HW184384   5.072   0.558   3.228  0.8649 -0.2632 -0.2195
27554SOL    HW284385   5.215   0.536   3.182  0.5191 -1.4362 -0.7833
27555SOL     OW84386   3.546   7.443   8.250 -0.0431 -0.0431 -0.2471
27555SOL    HW184387   3.555   7.478   8.339 -0.5224  0.3051 -0.3324
27555SOL    HW284388   3.459   7.403   8.248  0.4472 -1.1496 -0.1924
27556SOL     OW84389   1.499   7.277   6.065  0.1874  0.4120 -0.1783
27556SOL    HW184390   1.426   7.234   6.020  1.3898  0.1052 -1.8899
27556SOL    HW284391   1.464   7.363   6.090 -0.4769  0.6533 -1.8428
27557SOL     OW84392   1.907   2.048   4.352 -0.0292  0.0235  0.0997
27557SOL    HW184393   1.911   2.110   4.280 -0.2044  0.3603  0.3792
27557SOL    HW284394   1.916   2.102   4.431  1.5282 -0.4637  0.2968
27558SOL     OW84395   2.543   9.190   7.496 -0.3252 -0.0313  0.2641
27558SOL    HW184396   2.591   9.185   7.579 -0.3881  0.2578  0.3207
27558SOL    HW284397   2.515   9.281   7.491 -0.1765 -0.0050 -0.1557
27559SOL     OW84398   7.771   2.057   7.424 -0.0393 -0.3880 -0.2647
27559SOL    HW184399   7.711   2.087   7.492 -0.2967 -0.5352 -0.4220
27559SOL    HW284400   7.727   2.082   7.342  1.4169  2.0865 -0.3931
27560SOL     OW84401   0.799   1.824   9.686 -0.4609  0.5625 -0.6761
27560SOL    HW184402   0.745   1.897   9.717  0.4987  1.1377 -0.2994
27560SOL    HW284403   0.764   1.747   9.730 -1.6678  0.7411 -1.2860
27561SOL     OW84404   9.160   9.688   6.021  0.5262 -0.2121  0.5129
27561SOL    HW184405   9.112   9.609   6.045  0.3595  0.3971  2.3126
27561SOL    HW284406   9.229   9.695   6.088  0.8521  0.8899  0.0797
27562SOL     OW84407   8.902   3.509   1.756  0.2378  0.0754 -0.4734
27562SOL    HW184408   8.982   3.540   1.714  0.6497 -0.3330  0.0021
27562SOL    HW284409   8.899   3.555   1.840 -0.2506  0.4074 -0.6658
27563SOL     OW84410   8.327   5.196   2.827  0.3108 -0.6236  0.2483
27563SOL    HW184411   8.362   5.243   2.752 -1.5841 -0.8133 -0.8310
27563SOL    HW284412   8.383   5.119   2.836  2.5289  1.0085  1.1076
27564SOL     OW84413   4.119   2.924   0.345 -0.1229 -0.4798  0.1231
27564SOL    HW184414   4.202   2.884   0.318 -0.2850 -0.9770  0.3444
27564SOL    HW284415   4.092   2.874   0.422  0.1265  0.6650  0.9741
27565SOL     OW84416   3.112   9.577   7.459 -0.3932  0.0410  0.0793
27565SOL    HW184417   3.075   9.636   7.394  0.7139  1.2783  0.5394
27565SOL    HW284418   3.082   9.611   7.543 -0.5020 -0.6068  0.3120
27566SOL     OW84419   6.510   2.729   4.304  0.0807 -0.5874 -0.1731
27566SOL    HW184420   6.592   2.766   4.272 -0.3122  1.4057  0.9750
27566SOL    HW284421   6.443   2.792   4.279 -0.7442 -0.9014  1.1206
27567SOL     OW84422   7.983   1.963   5.160 -0.0564  0.1565  0.2292
27567SOL    HW184423   7.899   1.976   5.117 -0.3487  1.2792  1.1010
27567SOL    HW284424   7.989   2.034   5.225  2.5100  1.4519 -1.2615
27568SOL     OW84425   9.345   5.766   1.137  0.2328 -0.2522 -0.1992
27568SOL    HW184426   9.374   5.763   1.228  0.3145 -0.6244 -0.2347
27568SOL    HW284427   9.420   5.802   1.089 -0.5943  2.1612  0.1749
27569SOL     OW84428   2.740   4.377   1.035  0.1421 -0.2573  0.2178
27569SOL    HW184429   2.683   4.301   1.028 -0.6905  0.4815 -1.8546
27569SOL    HW284430   2.826   4.346   1.007 -0.1635 -0.4949 -0.4792
27570SOL     OW84431   5.860   3.323   8.399  0.0814  0.4516 -0.0273
27570SOL    HW184432   5.820   3.327   8.312  0.6608 -2.8756 -0.5978
27570SOL    HW284433   5.901   3.408   8.411 -2.1582  1.8975 -1.9090
27571SOL     OW84434   1.453   8.659   8.085  0.4628  0.0510 -0.2016
27571SOL    HW184435   1.505   8.717   8.141 -1.0370 -0.1564  1.5180
27571SOL    HW284436   1.363   8.670   8.117 -0.2461 -1.1785 -1.6588
27572SOL     OW84437   6.392   8.358   8.173 -0.0219  0.1904  0.3007
27572SOL    HW184438   6.437   8.377   8.091 -0.6388  0.3824  0.0082
27572SOL    HW284439   6.305   8.329   8.147 -0.6202  1.3745  0.9308
27573SOL     OW84440   7.739   5.955   6.052  0.1737  0.1392 -0.0985
27573SOL    HW184441   7.739   5.926   6.143 -0.6632  0.1672 -0.0833
27573SOL    HW284442   7.832   5.969   6.032  0.3307  0.7070  0.9291
27574SOL     OW84443   7.501   7.431   0.510 -0.0015 -0.2228 -0.5464
27574SOL    HW184444   7.552   7.473   0.441 -0.8862 -2.1511 -2.4904
27574SOL    HW284445   7.410   7.447   0.486 -0.3697  0.4890  1.1411
27575SOL     OW84446   3.062   3.242   6.402 -0.4011  0.1369  0.0811
27575SOL    HW184447   2.986   3.192   6.372  0.1964 -0.7287 -0.0350
27575SOL    HW284448   3.091   3.196   6.481 -1.4668  1.9047  1.5970
27576SOL     OW84449   1.974   7.492   5.022 -0.0257  0.7234  0.3355
27576SOL    HW184450   2.016   7.409   5.046  0.3046  1.0983  1.0695
27576SOL    HW284451   2.043   7.557   5.027 -0.1552  0.9673 -0.8033
27577SOL     OW84452   7.934   6.367   8.509 -0.5979 -0.0349 -0.0480
27577SOL    HW184453   7.922   6.450   8.463 -1.5036  0.7487  1.5108
27577SOL    HW284454   7.851   6.321   8.495 -1.0908  0.4359  1.1734
27578SOL     OW84455   8.030   9.314   9.436  0.1210 -0.0808 -0.4463
27578SOL    HW184456   7.952   9.354   9.475 -0.7069 -2.0185  0.0364
27578SOL    HW284457   8.003   9.224   9.417  2.1649 -0.7182 -0.5597
27579SOL     OW84458   9.573   6.446   0.788  0.2706 -0.4624 -0.8612
27579SOL    HW184459   9.481   6.432   0.767 -0.0583  0.3566 -0.0481
27579SOL    HW284460   9.575   6.452   0.883  1.2241 -0.8292 -0.8466
27580SOL     OW84461   9.370   0.683   8.040  0.6506  0.6488  0.0549
27580SOL    HW184462   9.413   0.711   7.959 -1.7345  2.1995 -0.7914
27580SOL    HW284463   9.307   0.617   8.013  0.3720  0.6102  0.7693
27581SOL     OW84464   0.773   1.939   2.358 -0.2855 -0.0407 -0.2516
27581SOL    HW184465   0.820   2.004   2.307  0.1315 -0.1347  0.0145
27581SOL    HW284466   0.822   1.858   2.344  0.1284  0.0360  0.7042
27582SOL     OW84467   1.771   0.655   7.461  0.4224  0.3506 -0.0750
27582SOL    HW184468   1.711   0.727   7.480 -0.3413 -0.1916 -0.3837
27582SOL    HW284469   1.797   0.670   7.370 -0.6733 -0.4046 -0.5349
27583SOL     OW84470   1.380   0.466   0.094 -0.3035 -0.0185  0.3892
27583SOL    HW184471   1.471   0.450   0.070  0.3007 -1.1654  3.1088
27583SOL    HW284472   1.384   0.501   0.183 -2.5158  0.4511  0.3635
27584SOL     OW84473   4.824   8.726   8.681 -0.2035  0.4104  0.1936
27584SOL    HW184474   4.888   8.713   8.611 -0.3444 -2.1779  0.4332
27584SOL    HW284475   4.745   8.757   8.635  0.6132  1.8354 -0.3237
27585SOL     OW84476   1.310   1.012   5.680 -0.2150  0.5998 -0.2777
27585SOL    HW184477   1.316   0.933   5.733 -1.8724  0.0565 -0.8476
27585SOL    HW284478   1.399   1.047   5.679  0.5768 -1.3060 -0.1084
27586SOL     OW84479   0.132   5.096   6.316 -0.1425 -0.1968  0.2880
27586SOL    HW184480   0.094   5.042   6.247  0.1370  1.1017 -0.9307
27586SOL    HW284481   0.223   5.065   6.324  0.6794  1.3637 -1.8943
27587SOL     OW84482   5.134   2.088   6.839 -0.5258  0.3300 -0.2371
27587SOL    HW184483   5.043   2.096   6.868 -0.5772  0.8139 -0.5273
27587SOL    HW284484   5.182   2.148   6.896 -0.3827  0.0537 -0.0654
27588SOL     OW84485   9.216   6.391   3.117  0.4471  0.5786  0.3370
27588SOL    HW184486   9.132   6.372   3.160 -0.7058 -1.8660 -2.6126
27588SOL    HW284487   9.223   6.325   3.048  4.0773  1.7286 -0.6064
27589SOL     OW84488   6.080   3.718   9.234  0.4852 -0.3013 -0.4972
27589SOL    HW184489   6.143   3.649   9.214  1.1960 -0.1020  0.9309
27589SOL    HW284490   6.015   3.676   9.290  0.4976 -0.0047 -0.2576
27590SOL     OW84491   1.060   5.777   5.896  0.7693 -0.1145  0.2303
27590SOL    HW184492   1.093   5.795   5.985  0.4921  0.7777  0.1665
27590SOL    HW284493   0.971   5.812   5.897  0.8624  0.1408 -0.4815
27591SOL     OW84494   2.338   7.764   1.679 -0.7215 -0.3547  0.0690
27591SOL    HW184495   2.361   7.671   1.683  1.7730  0.1778 -0.1293
27591SOL    HW284496   2.415   7.806   1.642 -0.4240  2.2002  3.1341
27592SOL     OW84497   7.062   5.259   5.750  0.0362  0.4408  0.2697
27592SOL    HW184498   7.070   5.170   5.784  1.0694  0.6607  0.6391
27592SOL    HW284499   7.143   5.274   5.701  1.0062  1.9676  2.1656
27593SOL     OW84500   4.111   1.667   2.136  0.0894  0.4377  0.3366
27593SOL    HW184501   4.143   1.596   2.080 -1.4030 -0.6938  0.8500
27593SOL    HW284502   4.057   1.623   2.201 -1.0876  2.0706  0.5169
27594SOL     OW84503   4.244   2.639   7.680  0.1797 -0.2556  0.8911
27594SOL    HW184504   4.207   2.552   7.693  1.9377 -1.0959  0.5014
27594SOL    HW284505   4.318   2.643   7.740  0.1417  0.9813  0.8860
27595SOL     OW84506   5.256   5.591   0.546  0.2453  0.4355  0.1059
27595SOL    HW184507   5.171   5.549   0.552  0.3837  0.2662  1.0408
27595SOL    HW284508   5.237   5.685   0.540 -0.0738  0.2677 -2.2511
27596SOL     OW84509   5.849   3.529   4.464  0.0702 -0.0770 -0.0114
27596SOL    HW184510   5.832   3.593   4.534  0.0622 -0.2799  0.1753
27596SOL    HW284511   5.801   3.563   4.389 -1.1220 -0.5843  0.4835
27597SOL     OW84512   1.043   3.747   4.279 -0.4510 -0.1513 -0.0212
27597SOL    HW184513   0.949   3.746   4.297 -0.5265  1.2908 -0.1547
27597SOL    HW284514   1.049   3.740   4.184 -0.2856 -2.5505  0.1091
27598SOL     OW84515   7.721   0.197   1.431 -0.4358 -0.0551  0.2684
27598SOL    HW184516   7.698   0.154   1.513 -0.8162  1.0225  0.7413
27598SOL    HW284517   7.796   0.147   1.399 -1.1988 -1.4156  0.4943
27599SOL     OW84518   8.162   4.907   0.187  0.4191  0.3760 -0.2921
27599SOL    HW184519   8.141   4.965   0.261 -1.0642 -0.5581  0.0597
27599SOL    HW284520   8.080   4.862   0.168  1.4226 -1.3472 -0.7844
27600SOL     OW84521   7.887   0.883   3.953  0.4993 -0.4829 -0.0528
27600SOL    HW184522   7.916   0.972   3.933 -1.4639 -0.3042 -2.6267
27600SOL    HW284523   7.926   0.830   3.884  0.3795 -1.3866  0.5631
27601SOL     OW84524   7.275   9.664   1.938 -0.1226 -0.5049  0.7103
27601SOL    HW184525   7.282   9.569   1.934  0.6450 -0.5565  2.4351
27601SOL    HW284526   7.249   9.683   2.028  2.1285  0.9945  1.1592
27602SOL     OW84527   1.999   6.477   8.139  0.7980  0.0209  0.2755
27602SOL    HW184528   1.975   6.409   8.201  1.2750 -0.0214  0.4172
27602SOL    HW284529   1.917   6.499   8.094  0.6785 -0.7805  0.0884
27603SOL     OW84530   8.761   6.215   4.230 -0.7833 -0.7606 -0.0603
27603SOL    HW184531   8.672   6.224   4.197 -0.2498  1.6793 -1.0423
27603SOL    HW284532   8.766   6.277   4.303  0.3753 -0.0168 -0.7325
27604SOL     OW84533   2.550   4.330   0.198 -0.8220 -0.5214  0.1355
27604SOL    HW184534   2.464   4.325   0.239 -1.2986 -0.7497 -0.8657
27604SOL    HW284535   2.539   4.287   0.113  0.4819 -1.2685  0.3198
27605SOL     OW84536   3.085   2.336   5.480  0.1116  0.5547 -0.1029
27605SOL    HW184537   3.084   2.275   5.554 -0.5978 -2.2376 -2.2256
27605SOL    HW284538   3.037   2.412   5.511  0.1300 -0.3577  2.4016
27606SOL     OW84539   0.256   2.665   3.330  0.3543  0.5074  0.1106
27606SOL    HW184540   0.218   2.751   3.351  0.4181  0.5947 -0.1305
27606SOL    HW284541   0.184   2.604   3.342  0.7830  0.3453  2.1551
27607SOL     OW84542   8.242   7.308   8.428  0.2537 -0.4901  0.3476
27607SOL    HW184543   8.320   7.306   8.373 -1.2868 -0.2615 -2.0084
27607SOL    HW284544   8.272   7.343   8.512  2.7411 -0.8800 -0.3161
27608SOL     OW84545   0.026   3.347   9.124 -0.0501  0.1162  0.4487
27608SOL    HW184546  -0.059   3.385   9.100 -0.1408 -0.0515  0.5010
27608SOL    HW284547   0.068   3.414   9.177 -1.1218 -0.6605  2.4065
27609SOL     OW84548   4.803   0.442   4.890  0.1572 -0.3102  0.5897
27609SOL    HW184549   4.866   0.418   4.823  1.1286 -0.0079  1.3785
27609SOL    HW284550   4.794   0.363   4.944  1.9057  0.4120  2.0459
27610SOL     OW84551   7.823   9.472   7.805 -0.0586 -0.5917  0.3756
27610SOL    HW184552   7.907   9.515   7.822 -0.7405  1.4562 -1.1487
27610SOL    HW284553   7.842   9.409   7.735 -0.0333  0.8422 -0.9391
27611SOL     OW84554   3.853   0.264   2.225  0.6189  0.0249  0.3939
27611SOL    HW184555   3.805   0.282   2.306 -1.0996  1.2343 -0.8151
27611SOL    HW284556   3.807   0.189   2.187 -1.1189  1.8177 -1.2738
27612SOL     OW84557   3.639   5.182   7.264  0.4853  0.3099  0.1661
27612SOL    HW184558   3.625   5.170   7.358 -1.3116 -0.9854 -0.2103
27612SOL    HW284559   3.589   5.261   7.242 -1.0647 -0.6835 -0.0526
27613SOL     OW84560   3.749   6.231   2.324  0.5994 -0.1326  0.2892
27613SOL    HW184561   3.673   6.246   2.267  0.8030 -0.1299  0.0158
27613SOL    HW284562   3.824   6.256   2.270  0.9268 -1.7113 -0.0290
27614SOL     OW84563   2.822   1.096   8.775  0.1652  0.1237  0.6014
27614SOL    HW184564   2.740   1.050   8.790  2.0391 -3.6276  0.4708
27614SOL    HW284565   2.846   1.131   8.860 -0.9498  0.1839  0.9051
27615SOL     OW84566   9.493   1.396   6.671  0.1668 -0.2086  0.2188
27615SOL    HW184567   9.543   1.372   6.593  1.2334 -1.1149  1.1453
27615SOL    HW284568   9.550   1.371   6.744 -0.6663  0.9133  1.2891
27616SOL     OW84569   7.504   3.657   4.446 -0.1040 -0.2281  0.0907
27616SOL    HW184570   7.416   3.691   4.427  0.3651  1.0209  0.0820
27616SOL    HW284571   7.489   3.584   4.506 -1.1758 -0.3230 -0.2607
27617SOL     OW84572   2.915   6.699   7.420 -0.7087  0.1221 -0.0588
27617SOL    HW184573   2.874   6.649   7.491  0.9268  0.7852  1.4426
27617SOL    HW284574   2.910   6.790   7.449  0.2692  0.3719 -0.6434
27618SOL     OW84575   2.943   7.886   3.908  0.4631  0.1218  0.4304
27618SOL    HW184576   2.985   7.879   3.823  0.5682  1.5770  0.3441
27618SOL    HW284577   2.849   7.876   3.890  0.5936 -1.4271  0.4147
27619SOL     OW84578   0.944   6.535   7.572 -0.3416  0.1796  0.3206
27619SOL    HW184579   0.870   6.596   7.580 -0.0626  0.3890  1.5124
27619SOL    HW284580   1.019   6.591   7.551 -0.5749 -0.0772 -1.2881
27620SOL     OW84581   7.845   3.970   1.133 -0.8316 -0.3062  0.1857
27620SOL    HW184582   7.852   4.054   1.179  0.0394  0.6922 -1.6562
27620SOL    HW284583   7.821   3.994   1.044 -1.0850 -2.0786 -0.2545
27621SOL     OW84584   7.122   4.295   5.763 -0.0840  0.2578  0.4116
27621SOL    HW184585   7.090   4.312   5.852 -0.2669 -0.8690  0.5761
27621SOL    HW284586   7.217   4.298   5.771 -0.1107  1.6200  0.3356
27622SOL     OW84587   4.878   5.660   5.308  0.0744  0.1784 -0.1702
27622SOL    HW184588   4.868   5.742   5.261 -0.5925  0.1475 -0.0950
27622SOL    HW284589   4.920   5.683   5.390  0.6393  0.3239 -0.4940
27623SOL     OW84590   6.427   4.280   6.785  0.2877 -0.2746 -0.4422
27623SOL    HW184591   6.358   4.331   6.745  0.6131 -1.4352 -2.6660
27623SOL    HW284592   6.503   4.292   6.727  1.0777 -1.2988  0.3304
27624SOL     OW84593   0.308   3.994   6.929 -0.2685 -0.4901 -0.3126
27624SOL    HW184594   0.331   3.990   6.836 -1.5132  2.2216 -0.8517
27624SOL    HW284595   0.216   4.021   6.930 -0.3458 -0.6355  1.7305
27625SOL     OW84596   9.277   5.508   7.576 -0.4045 -0.7009  0.1811
27625SOL    HW184597   9.213   5.542   7.514 -1.9355 -2.8725  0.5002
27625SOL    HW284598   9.233   5.436   7.620  0.9851  0.0959  3.1070
27626SOL     OW84599   4.592   8.709   2.296  0.2655 -0.2100  0.4899
27626SOL    HW184600   4.670   8.730   2.245 -0.8305  1.7984 -0.4518
27626SOL    HW284601   4.544   8.647   2.240  0.9914 -1.2201  0.9437
27627SOL     OW84602   8.136   3.813   1.328 -0.0196  0.0476 -0.6884
27627SOL    HW184603   8.074   3.771   1.387  1.0952 -1.0462 -0.2595
27627SOL    HW284604   8.160   3.894   1.373  0.6278 -0.6550  0.2705
27628SOL     OW84605   3.759   9.118   2.371  0.4013  0.3823 -0.2236
27628SOL    HW184606   3.791   9.167   2.447 -2.0387 -0.5139  1.5243
27628SOL    HW284607   3.774   9.026   2.394 -2.9057 -0.0978  0.6510
27629SOL     OW84608   4.471   5.388   5.929  0.5206  0.1779 -0.1745
27629SOL    HW184609   4.436   5.312   5.881 -2.0072  0.3803  1.1874
27629SOL    HW284610   4.451   5.463   5.873  0.2447  0.1290 -0.1432
27630SOL     OW84611   1.452   0.816   5.980 -0.2136 -0.1046 -0.5520
27630SOL    HW184612   1.368   0.778   5.953 -0.8102  1.0431 -0.3640
27630SOL    HW284613   1.508   0.740   5.996 -0.6063 -0.8784 -2.5575
27631SOL     OW84614   1.368   8.088   6.267  0.0298 -0.0767 -0.8014
27631SOL    HW184615   1.423   8.081   6.345 -1.3706  1.6702  0.4289
27631SOL    HW284616   1.370   8.000   6.228  2.1119 -0.5521  0.2371
27632SOL     OW84617   3.014   0.883   5.123  0.2505 -0.1495  0.6179
27632SOL    HW184618   2.928   0.863   5.161  0.2412 -1.2646  0.0541
27632SOL    HW284619   3.011   0.843   5.036  0.4463  1.9353 -0.4108
27633SOL     OW84620   6.399   4.736   8.957 -0.0682 -0.0742  0.2779
27633SOL    HW184621   6.391   4.786   9.038  0.0877  1.0531 -0.3845
27633SOL    HW284622   6.315   4.692   8.947 -0.4628  0.6203  0.5086
27634SOL     OW84623   8.360   2.411   6.083 -0.0206  0.0890 -0.6216
27634SOL    HW184624   8.286   2.460   6.048  0.5791  0.7204 -1.0181
27634SOL    HW284625   8.400   2.369   6.007  2.5818  3.1672 -1.1788
27635SOL     OW84626   8.657   0.087   7.582  0.2845  0.3830  0.8489
27635SOL    HW184627   8.727   0.125   7.528  0.9081  0.3647  1.6255
27635SOL    HW284628   8.603   0.038   7.520  1.1925  0.0619  0.2873
27636SOL     OW84629   5.298   9.170   6.949  0.1128 -0.1950 -0.6103
27636SOL    HW184630   5.261   9.114   6.880  0.1862 -0.9275 -0.0645
27636SOL    HW284631   5.254   9.254   6.937 -1.5855 -0.9715 -0.1302
27637SOL     OW84632   7.147   9.126   3.232 -1.3267 -0.1560 -0.4173
27637SOL    HW184633   7.169   9.102   3.142  0.2847 -0.0360 -0.0836
27637SOL    HW284634   7.144   9.222   3.231  0.9755 -0.0331  0.1091
27638SOL     OW84635   0.113   8.447   6.525 -0.5844 -0.0975  0.5626
27638SOL    HW184636   0.070   8.482   6.603 -1.0654 -2.0831  1.2639
27638SOL    HW284637   0.112   8.519   6.462 -2.1899  0.8884  1.6319
27639SOL     OW84638   9.683   7.195   9.264 -0.0310 -0.3201 -0.4529
27639SOL    HW184639   9.764   7.245   9.253  0.1467  0.0635  2.0442
27639SOL    HW284640   9.703   7.108   9.229  1.5137 -0.2484  0.1744
27640SOL     OW84641   2.320   5.746   2.196 -0.3846 -0.5246 -0.7396
27640SOL    HW184642   2.395   5.803   2.184 -0.5498 -0.3658 -1.0415
27640SOL    HW284643   2.353   5.671   2.245 -0.3821  0.2968  0.5523
27641SOL     OW84644   6.667   6.147   1.868 -0.0601  0.2905 -1.1691
27641SOL    HW184645   6.692   6.153   1.960 -1.2865  0.6957 -0.8442
27641SOL    HW284646   6.743   6.181   1.820  1.0234 -0.9282 -0.3971
27642SOL     OW84647   3.946   1.031   0.134 -0.1591  0.2964 -0.2972
27642SOL    HW184648   3.941   0.989   0.219 -1.7708 -0.2613 -0.6288
27642SOL    HW284649   3.970   1.122   0.153  0.1904  0.0127  0.6721
27643SOL     OW84650   4.491   1.654   2.837 -0.3736  0.1576  0.0651
27643SOL    HW184651   4.525   1.582   2.785 -1.0915  0.4682 -0.8749
27643SOL    HW284652   4.555   1.724   2.825  0.1339 -0.2011  0.6761
27644SOL     OW84653   9.311   8.450   5.385  0.4382  0.2022  0.2059
27644SOL    HW184654   9.264   8.444   5.301  0.1971  1.7732  0.1996
27644SOL    HW284655   9.401   8.471   5.361  0.3779  0.6139  0.3293
27645SOL     OW84656   6.304   5.087   8.390  0.1261  0.9429  0.4343
27645SOL    HW184657   6.210   5.079   8.407  0.2986  0.6092  1.3192
27645SOL    HW284658   6.329   5.170   8.431 -0.1571  2.1315 -1.6737
27646SOL     OW84659   7.977   3.985   3.950  0.1273 -0.0060  0.0647
27646SOL    HW184660   7.955   3.916   4.013 -2.1514  2.3719  2.0551
27646SOL    HW284661   8.064   4.015   3.976  0.5808 -1.1507 -0.0224
27647SOL     OW84662   8.097   9.382   8.244 -0.0658 -0.1972  0.1926
27647SOL    HW184663   8.186   9.346   8.243 -0.2039 -0.5417 -1.0041
27647SOL    HW284664   8.054   9.336   8.316  0.6706 -0.1474  0.6818
27648SOL     OW84665   5.810   4.374   1.119  0.6375 -0.1649  0.6240
27648SOL    HW184666   5.729   4.346   1.077 -0.5404  0.9671  2.0473
27648SOL    HW284667   5.874   4.307   1.094 -1.1768 -2.1650  1.0168
27649SOL     OW84668   6.575   6.129   7.929  0.1034  0.7354 -0.2184
27649SOL    HW184669   6.544   6.143   7.839 -0.0108 -0.0969 -0.3136
27649SOL    HW284670   6.626   6.048   7.925 -1.7899 -0.5886  0.8865
27650SOL     OW84671   0.929   6.249   8.985  0.4296  0.4137 -0.4080
27650SOL    HW184672   0.912   6.243   9.079 -0.8221  0.9963 -0.5810
27650SOL    HW284673   1.012   6.203   8.973  1.0863  1.1355  1.1111
27651SOL     OW84674   7.615   5.562   6.094 -0.3116  0.6363  0.3092
27651SOL    HW184675   7.572   5.554   6.179 -1.7319 -0.7965 -0.4909
27651SOL    HW284676   7.700   5.601   6.114 -1.0202  1.3246  2.2458
27652SOL     OW84677   3.508   9.281   7.592 -0.0523 -0.2149  0.0173
27652SOL    HW184678   3.439   9.271   7.659  1.1662  1.0385  1.5548
27652SOL    HW284679   3.578   9.222   7.620  0.1440 -0.2946 -0.6251
27653SOL     OW84680   4.572   3.785   7.029 -0.0842 -0.3444 -0.0262
27653SOL    HW184681   4.612   3.712   6.982 -2.8710 -1.2755 -1.1441
27653SOL    HW284682   4.529   3.837   6.961  0.3370  1.3744  0.9567
27654SOL     OW84683   3.547   0.177   6.329  0.8065  0.1050  0.0823
27654SOL    HW184684   3.547   0.230   6.250 -0.7542 -1.2750 -0.9036
27654SOL    HW284685   3.595   0.097   6.305  1.1266  0.0673  0.8166
27655SOL     OW84686   1.683   5.977   1.434  0.3897 -0.2492  0.2200
27655SOL    HW184687   1.744   5.945   1.368 -1.1994 -1.4567 -0.7403
27655SOL    HW284688   1.673   5.905   1.496  0.4133  0.1688  0.7188
27656SOL     OW84689   1.785   5.997   3.832  0.1041 -0.0397  0.8130
27656SOL    HW184690   1.808   5.905   3.825 -0.2902 -0.1265  0.6992
27656SOL    HW284691   1.721   6.001   3.903 -0.4743  0.0409  0.2934
27657SOL     OW84692   6.276   0.450   8.802  0.4688  0.0297  0.6448
27657SOL    HW184693   6.197   0.410   8.836 -0.4348  2.0236  1.0239
27657SOL    HW284694   6.268   0.443   8.707 -1.2725  2.0777  0.5719
27658SOL     OW84695   5.742   1.134   1.049 -0.5597  0.1088  0.1054
27658SOL    HW184696   5.769   1.136   0.957  0.1928 -0.6308  0.2964
27658SOL    HW284697   5.735   1.226   1.074 -0.0318  0.3155 -0.4813
27659SOL     OW84698   0.938   3.381   5.622 -0.0511 -0.2334 -0.2304
27659SOL    HW184699   0.984   3.440   5.681 -1.2644 -0.9114  1.4584
27659SOL    HW284700   0.901   3.439   5.555  2.4465  0.4026 -1.1558
27660SOL     OW84701   8.347   1.199   7.263  0.2012 -0.1812  0.6204
27660SOL    HW184702   8.349   1.294   7.274 -0.2523 -0.1362  0.3735
27660SOL    HW284703   8.438   1.171   7.268  0.3129  0.2372  0.9540
27661SOL     OW84704   1.999   8.672   9.173 -0.0029  0.1874 -0.0809
27661SOL    HW184705   2.037   8.590   9.204  0.7180  0.6203  0.2091
27661SOL    HW284706   1.939   8.646   9.103  1.1032 -0.5068 -0.8074
27662SOL     OW84707   3.700   3.127   4.422  0.4867 -0.2612 -0.3329
27662SOL    HW184708   3.717   3.198   4.359 -0.8798  0.9153  0.5428
27662SOL    HW284709   3.638   3.070   4.377 -0.4600  0.5572 -0.0988
27663SOL     OW84710   8.691   0.256   5.298  0.1054  0.5768  0.1281
27663SOL    HW184711   8.663   0.180   5.248 -1.0416  1.1493 -0.1369
27663SOL    HW284712   8.667   0.236   5.388  1.6739 -0.2182  0.4212
27664SOL     OW84713   8.521   5.252   9.590 -0.0974  0.2439 -0.3333
27664SOL    HW184714   8.600   5.285   9.633 -1.3531 -1.6248  3.8837
27664SOL    HW284715   8.539   5.159   9.575 -1.3364 -0.1584  0.5007
27665SOL     OW84716   0.708   0.394   7.370 -0.0958 -0.4432 -0.2398
27665SOL    HW184717   0.752   0.470   7.335 -0.6857 -0.6296 -1.4288
27665SOL    HW284718   0.624   0.427   7.403  0.1346 -0.3968  0.3163
27666SOL     OW84719   3.758   2.389   3.912  0.3888 -0.0945 -0.1544
27666SOL    HW184720   3.731   2.338   3.988  0.1367  2.1805  1.3809
27666SOL    HW284721   3.756   2.480   3.942  0.6848  0.8678 -2.7767
27667SOL     OW84722   0.516   3.249   6.232  0.1463 -0.3109  0.2824
27667SOL    HW184723   0.489   3.282   6.318 -0.2667 -0.7143  0.3120
27667SOL    HW284724   0.447   3.278   6.172  0.6616  0.3623 -0.0024
27668SOL     OW84725   4.029   0.814   6.142  0.0924  0.0803  0.1875
27668SOL    HW184726   3.939   0.793   6.119  0.2094 -0.4825  0.2235
27668SOL    HW284727   4.048   0.895   6.096  0.2708 -0.9246 -1.5927
27669SOL     OW84728   0.431   9.254   0.565  0.3850  0.4375  0.2791
27669SOL    HW184729   0.437   9.255   0.470 -0.7751  1.7347  0.1796
27669SOL    HW284730   0.444   9.345   0.591  1.8846 -0.0761  1.4778
27670SOL     OW84731   8.510   2.518   4.238 -0.2284  0.4234 -0.3645
27670SOL    HW184732   8.488   2.425   4.236  0.0485  0.3637 -1.6168
27670SOL    HW284733   8.455   2.554   4.307  0.9915 -0.9803  1.4323
27671SOL     OW84734   0.371   4.867   8.527  0.7294  1.0685 -0.2515
27671SOL    HW184735   0.336   4.798   8.470 -1.1984  0.7887  1.1796
27671SOL    HW284736   0.392   4.939   8.468 -0.4513  0.5022 -1.4013
27672SOL     OW84737   3.247   2.879   3.658 -0.2099  0.6057 -0.2463
27672SOL    HW184738   3.222   2.852   3.746 -0.3594  2.0405  0.1794
27672SOL    HW284739   3.284   2.801   3.618  0.2001  0.0269  1.2125
27673SOL     OW84740   8.614   6.758   8.308 -0.8764  0.2513 -0.0235
27673SOL    HW184741   8.564   6.708   8.243 -0.9610  0.5894 -0.2183
27673SOL    HW284742   8.680   6.696   8.339 -0.7862  0.1102 -0.4875
27674SOL     OW84743   1.284   1.572   4.834  0.0450 -0.1659  0.6942
27674SOL    HW184744   1.192   1.559   4.811  0.2275  0.0871 -0.2416
27674SOL    HW284745   1.313   1.643   4.776  0.8917 -0.4184  0.7980
27675SOL     OW84746   4.550   8.499   8.217  0.4417  0.1297  0.1148
27675SOL    HW184747   4.486   8.486   8.147 -0.3641  0.9769  0.6527
27675SOL    HW284748   4.603   8.420   8.217 -0.5890 -0.5821 -0.3788
27676SOL     OW84749   9.693   6.640   4.569 -0.1990 -0.4517 -0.3665
27676SOL    HW184750   9.761   6.597   4.620  0.2683 -1.0484 -1.4626
27676SOL    HW284751   9.617   6.582   4.576  0.0393 -0.8230 -0.7977
27677SOL     OW84752   0.512   5.395   1.395 -0.0226 -0.1490  0.7505
27677SOL    HW184753   0.472   5.457   1.335 -0.5621 -0.0010  1.2509
27677SOL    HW284754   0.477   5.418   1.481  1.0167 -0.1152  1.1912
27678SOL     OW84755   9.226   7.502   3.907  0.4359 -0.3374 -0.1909
27678SOL    HW184756   9.229   7.502   3.812 -1.1235 -3.0034 -0.3619
27678SOL    HW284757   9.158   7.566   3.929  2.7149  2.4106 -0.5866
27679SOL     OW84758   5.420   7.474   1.114  0.5933  0.4401  0.3154
27679SOL    HW184759   5.441   7.392   1.068 -0.9648 -0.1277  0.5507
27679SOL    HW284760   5.472   7.470   1.194  1.1678  0.0977 -0.0614
27680SOL     OW84761   1.535   5.819   4.580 -0.4780 -0.1030 -0.4972
27680SOL    HW184762   1.495   5.860   4.503 -0.0595  0.2222 -0.5424
27680SOL    HW284763   1.529   5.885   4.649  1.0625  0.4223 -0.8273
27681SOL     OW84764   2.152   6.916   8.991 -0.3701 -0.3296  0.1666
27681SOL    HW184765   2.073   6.866   9.010 -0.2500 -0.4945  0.2403
27681SOL    HW284766   2.121   7.002   8.965 -0.5629 -0.2564  0.6237
27682SOL     OW84767   9.703   5.630   8.798 -0.0857 -0.2540 -0.0733
27682SOL    HW184768   9.660   5.576   8.732  0.5720 -1.2385  0.2862
27682SOL    HW284769   9.791   5.644   8.763 -0.0464  0.0418  0.1413
27683SOL     OW84770   0.479   7.205   6.706 -0.0375 -0.1011  0.2100
27683SOL    HW184771   0.489   7.117   6.670 -1.4943  1.2476 -4.0550
27683SOL    HW284772   0.415   7.194   6.777  1.4751 -2.6897  1.3236
27684SOL     OW84773   1.243   2.847   9.276 -1.0483 -0.4058 -0.3848
27684SOL    HW184774   1.308   2.859   9.207 -0.0968 -0.0720  0.5353
27684SOL    HW284775   1.166   2.896   9.245 -0.9230 -0.9117 -1.5440
27685SOL     OW84776   2.073   0.791   3.828  0.4180  0.2229 -0.5131
27685SOL    HW184777   1.995   0.795   3.883 -0.5402  0.4264 -1.8485
27685SOL    HW284778   2.060   0.859   3.762  1.1491 -0.5501 -1.4911
27686SOL     OW84779   1.410   5.018   7.843 -0.1345  0.4446 -0.0301
27686SOL    HW184780   1.356   5.097   7.843 -0.1996  0.4417  1.6512
27686SOL    HW284781   1.381   4.969   7.766 -1.6593  1.0398  0.1244
27687SOL     OW84782   7.285   6.942   0.383 -0.2322  0.4103  0.0001
27687SOL    HW184783   7.321   6.854   0.381  0.3065  0.6082 -2.7993
27687SOL    HW284784   7.354   6.996   0.422  0.3814 -0.0479 -0.4371
27688SOL     OW84785   8.488   9.366   6.548 -0.3526  0.3676 -0.1216
27688SOL    HW184786   8.441   9.377   6.465 -0.8979 -3.4693 -0.4889
27688SOL    HW284787   8.430   9.312   6.601  1.6856 -0.5811  1.2533
27689SOL     OW84788   1.632   3.509   5.748  0.2065  0.6551  0.4063
27689SOL    HW184789   1.711   3.455   5.739  0.3749  0.6832  1.4969
27689SOL    HW284790   1.573   3.477   5.680  1.1759  0.6745 -0.4629
27690SOL     OW84791   9.361   7.119   6.597  0.4087  0.1350 -0.0248
27690SOL    HW184792   9.310   7.121   6.516  1.2216 -0.8519 -0.5859
27690SOL    HW284793   9.296   7.115   6.667 -0.2977 -1.1074 -0.7187
27691SOL     OW84794   2.894   8.045   9.332 -0.0418 -0.5363 -0.0943
27691SOL    HW184795   2.920   8.077   9.246  1.7613 -0.0110  0.5842
27691SOL    HW284796   2.842   7.967   9.314 -0.2698 -0.0621 -1.6635
27692SOL     OW84797   1.944   2.416   4.337 -0.3459  0.1356  0.3937
27692SOL    HW184798   2.016   2.354   4.328 -0.2926  0.2322  0.1486
27692SOL    HW284799   1.913   2.430   4.247 -0.5040  0.2909  0.4719
27693SOL     OW84800   6.195   4.872   8.229  0.3311 -0.2407  1.0018
27693SOL    HW184801   6.274   4.879   8.283 -1.4340  0.3837  3.6617
27693SOL    HW284802   6.140   4.945   8.257 -1.5232 -1.0968 -0.2390
27694SOL     OW84803   1.281   3.007   0.876 -0.3586 -0.4992 -0.6666
27694SOL    HW184804   1.290   3.059   0.796  1.4530 -0.2808 -0.3645
27694SOL    HW284805   1.358   3.029   0.928 -1.0667 -1.2820  0.7770
27695SOL     OW84806   0.825   7.900   3.325  0.3025  0.0399  0.6059
27695SOL    HW184807   0.879   7.858   3.391 -0.0821 -1.6593 -0.1043
27695SOL    HW284808   0.882   7.966   3.285  1.4778 -0.9289  0.6435
27696SOL     OW84809   5.222   0.716   3.474 -0.5718 -0.1916  0.4364
27696SOL    HW184810   5.292   0.678   3.421 -0.2526 -0.4634  1.0477
27696SOL    HW284811   5.197   0.796   3.427  0.7271  0.3578  0.6430
27697SOL     OW84812   4.008   7.512   8.649 -0.3016 -0.2311  0.1266
27697SOL    HW184813   4.002   7.607   8.663 -0.2556 -0.5753  3.1424
27697SOL    HW284814   3.932   7.476   8.696  1.5914 -1.8566  2.1596
27698SOL     OW84815   4.120   8.516   3.818 -0.0314 -0.0235  0.4069
27698SOL    HW184816   4.156   8.478   3.898  0.4653 -1.4747 -0.4670
27698SOL    HW284817   4.033   8.477   3.810 -0.0134 -0.0161  0.1584
27699SOL     OW84818   0.846   2.739   7.716  0.3599 -0.5038  0.2192
27699SOL    HW184819   0.811   2.823   7.747 -0.7819 -0.7365 -0.4012
27699SOL    HW284820   0.772   2.697   7.673  0.9835 -1.7482  0.3439
27700SOL     OW84821   4.929   6.249   5.960  0.9505 -0.4037  0.0812
27700SOL    HW184822   4.942   6.157   5.981  0.2078 -0.6441 -0.5034
27700SOL    HW284823   4.837   6.266   5.980  0.8019 -0.0684 -0.8498
27701SOL     OW84824   3.947   0.666   2.541 -0.1401  0.1600 -0.3012
27701SOL    HW184825   3.874   0.646   2.599 -1.5521  3.0433 -0.9175
27701SOL    HW284826   3.916   0.641   2.454 -0.8696  2.2564 -0.6985
27702SOL     OW84827   5.663   2.006   6.775  0.2870 -0.2834 -0.0283
27702SOL    HW184828   5.627   1.921   6.749 -2.8023  1.1464 -0.9692
27702SOL    HW284829   5.719   2.032   6.702  0.5931 -1.1300 -0.1070
27703SOL     OW84830   2.348   5.653   4.039  0.1822  0.1418  0.4828
27703SOL    HW184831   2.284   5.655   4.110  1.2086 -1.4820  1.5278
27703SOL    HW284832   2.359   5.560   4.018 -0.1753  0.5650 -1.9369
27704SOL     OW84833   6.239   2.037   6.017 -0.8366  0.0095 -0.0260
27704SOL    HW184834   6.280   2.073   6.096 -0.2675 -0.2350 -0.2048
27704SOL    HW284835   6.168   2.098   5.997 -0.7494  0.2763  0.4602
27705SOL     OW84836   5.382   9.347   2.900 -0.5113  0.9321 -0.3620
27705SOL    HW184837   5.419   9.435   2.886 -1.9936  1.7355  0.4938
27705SOL    HW284838   5.291   9.355   2.871 -0.3366 -0.7249 -1.5183
27706SOL     OW84839   9.288   2.639   4.928  0.1891 -0.0482  0.6600
27706SOL    HW184840   9.260   2.550   4.949 -0.7561  0.0696 -0.0445
27706SOL    HW284841   9.288   2.684   5.013 -1.1427 -0.2360  0.7847
27707SOL     OW84842   4.052   6.346   2.474  0.1996  0.0329 -0.3598
27707SOL    HW184843   4.049   6.339   2.570 -1.3656 -1.8283 -0.4960
27707SOL    HW284844   4.031   6.438   2.456 -0.3638  0.2027  1.0570
27708SOL     OW84845   8.603   9.198   6.151 -0.2827  0.2203 -0.5610
27708SOL    HW184846   8.619   9.282   6.106 -1.0077  0.4455 -0.4083
27708SOL    HW284847   8.675   9.142   6.122 -1.4844 -0.1134 -3.1599
27709SOL     OW84848   9.493   5.307   5.960 -0.5023 -0.4424  0.6279
27709SOL    HW184849   9.422   5.311   6.024 -1.0213  0.1673  0.0313
27709SOL    HW284850   9.452   5.273   5.881 -0.2839  0.4826  0.1025
27710SOL     OW84851   4.146   0.078   1.126 -0.1239 -0.0267  0.4417
27710SOL    HW184852   4.085   0.126   1.070  0.9994 -0.6638 -1.3900
27710SOL    HW284853   4.224   0.132   1.129 -0.2490  0.1301  1.6741
27711SOL     OW84854   2.362   5.269   7.537  0.4781  0.0043  0.1165
27711SOL    HW184855   2.266   5.276   7.543  0.5857  0.6925  1.1917
27711SOL    HW284856   2.383   5.186   7.578  0.4566  0.5987  1.3878
27712SOL     OW84857   4.803   3.149   1.713  0.4015  0.2331 -0.0138
27712SOL    HW184858   4.823   3.195   1.795 -0.7522  0.4160  0.1843
27712SOL    HW284859   4.734   3.202   1.673  1.1507  0.2983 -1.2528
27713SOL     OW84860   4.655   2.668   3.171 -0.0106  0.6941 -0.5294
27713SOL    HW184861   4.726   2.697   3.229 -0.4014 -1.1220  0.9388
27713SOL    HW284862   4.700   2.628   3.097  0.6829 -2.2739  1.3036
27714SOL     OW84863   7.355   2.192   9.560  0.5277 -0.0230  0.5556
27714SOL    HW184864   7.435   2.150   9.593  0.0995 -2.1594 -0.8622
27714SOL    HW284865   7.317   2.236   9.636  1.2559 -1.9316  2.1230
27715SOL     OW84866   8.086   3.506   7.706 -0.0184 -0.1424 -0.0022
27715SOL    HW184867   8.149   3.536   7.772  0.4072 -2.2151  0.5893
27715SOL    HW284868   8.111   3.554   7.627  0.1959  1.5228  1.0123
27716SOL     OW84869   2.447   9.689   9.654  0.2263  0.2348 -0.2548
27716SOL    HW184870   2.479   9.710   9.741  0.6595  0.6351 -0.5084
27716SOL    HW284871   2.446   9.772   9.607 -1.7989  0.3456 -0.0703
27717SOL     OW84872   9.195   1.852   0.386  0.4750  0.0982  0.9779
27717SOL    HW184873   9.268   1.870   0.328  1.6514  2.2720  2.9627
27717SOL    HW284874   9.118   1.886   0.340  1.1961  0.6927  0.1928
27718SOL     OW84875   4.434   3.460   5.752 -0.5531 -0.3650 -0.4179
27718SOL    HW184876   4.525   3.452   5.726 -0.4903 -0.6646 -0.1136
27718SOL    HW284877   4.393   3.378   5.725 -0.1188 -1.4098  1.8542
27719SOL     OW84878   7.276   8.090   1.081 -0.2519 -0.1387  0.2975
27719SOL    HW184879   7.315   8.171   1.115 -0.2286  0.9946 -2.1599
27719SOL    HW284880   7.307   8.021   1.140  1.1389  1.4171  1.4817
27720SOL     OW84881   7.937   3.344   0.079 -0.0565 -0.0259 -0.3003
27720SOL    HW184882   7.906   3.347   0.169 -0.0953  2.8192 -0.2903
27720SOL    HW284883   8.032   3.334   0.087 -0.3288 -3.3294 -0.1474
27721SOL     OW84884   8.962   2.297   6.180  0.0911  0.6104  0.3324
27721SOL    HW184885   8.882   2.245   6.185  0.5452 -0.1373 -0.1037
27721SOL    HW284886   8.930   2.388   6.177 -0.8989  0.2747 -2.4873
27722SOL     OW84887   2.653   2.278   8.720 -0.2051 -0.0506  0.2426
27722SOL    HW184888   2.694   2.350   8.768 -0.2152  0.7681 -0.9495
27722SOL    HW284889   2.567   2.312   8.695  0.1188 -0.1281 -1.0700
27723SOL     OW84890   2.673   4.559   1.251  0.0391  0.3411  0.1984
27723SOL    HW184891   2.681   4.496   1.179  0.3306 -0.7552  1.1609
27723SOL    HW284892   2.587   4.540   1.289 -0.3363  1.2639 -0.1529
27724SOL     OW84893   6.574   4.484   3.991  0.0194 -0.2375 -0.2258
27724SOL    HW184894   6.643   4.545   4.017  1.0282 -1.1977 -0.5665
27724SOL    HW284895   6.506   4.540   3.954  0.1575  0.8157  1.0555
27725SOL     OW84896   0.367   2.083   4.725  0.4575 -0.2638 -0.1681
27725SOL    HW184897   0.459   2.054   4.726  0.4618 -0.6444  3.6666
27725SOL    HW284898   0.371   2.177   4.740  0.2290 -0.3157  0.2319
27726SOL     OW84899   2.192   2.179   8.631  0.7797  0.7448 -0.1182
27726SOL    HW184900   2.113   2.229   8.610  0.7406  0.4643 -0.6462
27726SOL    HW284901   2.216   2.209   8.719 -0.5111  0.0856  0.4950
27727SOL     OW84902   4.124   2.607   2.752  0.3965  0.4777  0.2969
27727SOL    HW184903   4.090   2.687   2.711 -2.6962  0.2611  2.1582
27727SOL    HW284904   4.070   2.537   2.717  2.1294 -0.6780 -0.2089
27728SOL     OW84905   6.942   2.821   9.005 -0.2915 -0.0434 -0.1727
27728SOL    HW184906   6.927   2.762   9.079 -0.9860  0.6793  0.2871
27728SOL    HW284907   6.903   2.775   8.930  0.8374 -0.9926 -0.2050
27729SOL     OW84908   4.266   1.240   9.629  0.1844 -0.1172 -0.7249
27729SOL    HW184909   4.333   1.297   9.593 -2.0069  3.6612  0.5704
27729SOL    HW284910   4.305   1.204   9.708  1.6180 -0.3907 -1.5247
27730SOL     OW84911   6.565   8.929   4.250  0.4504  0.2059  0.1523
27730SOL    HW184912   6.637   8.873   4.280  0.6414  1.3131  1.9207
27730SOL    HW284913   6.600   9.018   4.256 -0.4593  0.6489 -0.7934
27731SOL     OW84914   8.788   9.263   3.307 -0.7220 -0.0168  0.3375
27731SOL    HW184915   8.804   9.334   3.245 -1.1963  0.1254  0.3678
27731SOL    HW284916   8.850   9.278   3.378 -0.6548  0.2301  0.2268
27732SOL     OW84917   8.347   7.521   0.613  0.2597  0.2797 -0.0452
27732SOL    HW184918   8.255   7.537   0.630  0.3719  0.7152  0.1702
27732SOL    HW284919   8.357   7.531   0.518 -0.5482 -3.0519 -0.6056
27733SOL     OW84920   4.867   6.592   8.853  0.0713 -0.2870  0.2071
27733SOL    HW184921   4.870   6.527   8.923 -3.0994 -0.8045 -0.0007
27733SOL    HW284922   4.827   6.669   8.893 -0.0885  0.0577 -0.5911
27734SOL     OW84923   9.351   2.367   0.514  0.1515  0.0086 -0.3908
27734SOL    HW184924   9.399   2.348   0.433  0.5343 -0.1009 -0.1475
27734SOL    HW284925   9.413   2.344   0.584  0.2403  1.1590 -0.0679
27735SOL     OW84926   9.527   6.126   4.077  0.1228 -0.1431  0.0389
27735SOL    HW184927   9.468   6.193   4.043  0.2673  0.0624  0.1940
27735SOL    HW284928   9.509   6.124   4.171  2.1476  1.7272  0.5397
27736SOL     OW84929   4.936   7.796   9.211  0.0729  0.2946  0.6460
27736SOL    HW184930   4.908   7.722   9.264  0.7819 -0.3753  0.1007
27736SOL    HW284931   4.931   7.871   9.271 -2.5747  0.1860  0.6525
27737SOL     OW84932   8.563   0.424   6.225 -0.0219 -0.5256 -0.5229
27737SOL    HW184933   8.649   0.433   6.266 -0.0989 -1.8781 -0.0157
27737SOL    HW284934   8.569   0.479   6.147  0.6279  0.9214  0.5008
27738SOL     OW84935   9.383   6.979   3.553 -0.3195  0.5235 -0.3274
27738SOL    HW184936   9.314   6.927   3.512 -0.4342  1.1977 -1.0277
27738SOL    HW284937   9.408   7.042   3.485  0.3723  0.8502  0.2230
27739SOL     OW84938   6.634   3.234   0.325 -0.0563 -0.3425 -0.5998
27739SOL    HW184939   6.685   3.255   0.403  2.0809  1.1406 -2.2447
27739SOL    HW284940   6.651   3.142   0.309 -1.5104 -0.9951  1.2783
27740SOL     OW84941   2.857   4.148   2.935  0.2492 -0.2632 -0.3270
27740SOL    HW184942   2.946   4.176   2.955  0.9165  0.2494 -3.4652
27740SOL    HW284943   2.868   4.063   2.892 -0.9099 -0.7889  0.3858
27741SOL     OW84944   4.209   1.543   3.639 -0.1051 -0.4100 -0.2267
27741SOL    HW184945   4.246   1.481   3.575 -1.2755 -1.1139 -0.2493
27741SOL    HW284946   4.116   1.546   3.617  0.0576  2.0802 -0.7978
27742SOL     OW84947   4.714   7.354   1.458  0.0557  0.3948  0.1107
27742SOL    HW184948   4.749   7.322   1.541  1.7078 -0.1454 -0.7412
27742SOL    HW284949   4.667   7.278   1.422  0.3735  0.2500  0.0014
27743SOL     OW84950   7.323   8.358   4.833  0.0198  0.7110  0.3341
27743SOL    HW184951   7.273   8.318   4.903 -0.2778 -2.3211 -1.4467
27743SOL    HW284952   7.414   8.334   4.851 -0.0785 -0.2450 -0.3616
27744SOL     OW84953   3.661   7.943   1.714 -0.1921  0.0883 -0.1488
27744SOL    HW184954   3.647   7.850   1.736 -2.5064 -0.0415 -1.7118
27744SOL    HW284955   3.583   7.987   1.748  0.9471  1.5129  0.6834
27745SOL     OW84956   4.455   3.727   9.139 -0.4145 -0.6547 -0.8040
27745SOL    HW184957   4.480   3.637   9.157 -1.4336 -1.1534 -1.7380
27745SOL    HW284958   4.470   3.738   9.045 -1.9855 -0.4480 -1.0593
27746SOL     OW84959   5.096   6.389   5.462 -0.0912 -0.4433 -0.2114
27746SOL    HW184960   5.160   6.449   5.424  2.4179 -2.1509  1.0387
27746SOL    HW284961   5.063   6.435   5.539  0.5493 -0.0336 -0.1752
27747SOL     OW84962   2.175   7.121   7.061 -0.3003  0.0755  0.2700
27747SOL    HW184963   2.162   7.073   7.142 -0.2481  0.3621  0.4484
27747SOL    HW284964   2.218   7.058   7.003  1.9254  0.5918  1.2568
27748SOL     OW84965   4.198   1.885   5.010  0.0013  0.3701  0.1046
27748SOL    HW184966   4.190   1.876   5.105 -0.7753  1.2428  0.1417
27748SOL    HW284967   4.285   1.852   4.989  0.1760  0.1697  1.1176
27749SOL     OW84968   3.252   9.241   0.365  0.5350 -0.1610  0.1036
27749SOL    HW184969   3.197   9.312   0.332  1.5474  0.1531 -0.9763
27749SOL    HW284970   3.211   9.161   0.333  1.4292  0.1243 -1.9571
27750SOL     OW84971   8.850   9.450   3.131 -0.2537  0.3912 -0.0054
27750SOL    HW184972   8.831   9.421   3.042 -0.4080  0.5512 -0.0245
27750SOL    HW284973   8.936   9.491   3.125 -0.2308  0.3349 -0.0662
27751SOL     OW84974   4.738   0.370   8.626  0.5220  0.2122  0.0762
27751SOL    HW184975   4.771   0.281   8.626 -1.0310 -0.4042  0.3945
27751SOL    HW284976   4.738   0.396   8.533  0.5817 -0.2769 -0.0606
27752SOL     OW84977   4.552   8.148   0.756  0.2747 -0.3137 -0.5681
27752SOL    HW184978   4.588   8.210   0.820  1.0153 -0.3816 -0.9041
27752SOL    HW284979   4.457   8.161   0.760 -0.0774 -2.5286  2.8734
27753SOL     OW84980   3.556   8.529   6.826 -0.5431  0.3014  0.1942
27753SOL    HW184981   3.476   8.581   6.819 -0.6203  0.0300 -1.1795
27753SOL    HW284982   3.527   8.438   6.816  0.0148  0.2608 -1.3629
27754SOL     OW84983   8.089   9.174   7.756 -0.6566 -0.4688  0.4260
27754SOL    HW184984   8.061   9.083   7.766 -3.0116  0.2712  1.2216
27754SOL    HW284985   8.126   9.197   7.841 -1.4660 -0.2649  0.7329
27755SOL     OW84986   2.863   5.121   7.071 -0.2613  0.4887 -0.4868
27755SOL    HW184987   2.826   5.033   7.066  1.1178 -0.1033 -0.9191
27755SOL    HW284988   2.794   5.179   7.039 -0.3125 -0.7051 -2.7282
27756SOL     OW84989   3.977   0.075   0.172  0.6332  0.1143 -0.5859
27756SOL    HW184990   4.020   0.082   0.086  1.1597  0.6348 -0.2893
27756SOL    HW284991   4.025   0.004   0.216  1.3232  0.8126 -0.1891
27757SOL     OW84992   6.794   9.175   1.284  0.2639 -0.0729  0.3688
27757SOL    HW184993   6.851   9.101   1.304  1.2687  0.8102  0.8388
27757SOL    HW284994   6.820   9.243   1.346  0.6261  1.2978 -1.2154
27758SOL     OW84995   6.378   1.141   8.866  0.2873 -0.0919 -0.1035
27758SOL    HW184996   6.470   1.119   8.874 -0.1334 -1.8971  0.1649
27758SOL    HW284997   6.331   1.064   8.899 -1.3194  1.3729  1.2682
27759SOL     OW84998   0.386   7.409   2.338  0.3108 -0.6010  0.5406
27759SOL    HW184999   0.320   7.473   2.314  0.3354  0.5184  3.1000
27759SOL    HW285000   0.337   7.328   2.351  0.0384 -0.7274 -1.1479
27760SOL     OW85001   1.438   1.878   1.940 -0.1126 -0.0282  0.3942
27760SOL    HW185002   1.434   1.911   2.029  1.1554  1.7428 -0.1334
27760SOL    HW285003   1.364   1.919   1.895  0.0979  0.2475  0.2957
27761SOL     OW85004   4.346   3.610   0.191  0.2630  0.1502  0.4260
27761SOL    HW185005   4.296   3.682   0.229 -0.4822 -0.5229  0.7475
27761SOL    HW285006   4.365   3.640   0.102  0.0814  0.7986  0.5935
27762SOL     OW85007   9.156   2.222   6.778  0.1500  0.7328  0.1556
27762SOL    HW185008   9.115   2.292   6.728 -1.7586  0.2601  0.9902
27762SOL    HW285009   9.206   2.172   6.713 -0.4473  1.4393 -0.8645
27763SOL     OW85010   9.240   4.092   7.838 -0.2553 -0.0454 -0.2059
27763SOL    HW185011   9.145   4.095   7.826 -0.5111  1.1305  1.7196
27763SOL    HW285012   9.274   4.114   7.751 -1.8250  2.2496 -0.3563
27764SOL     OW85013   2.858   3.937   2.181  0.2204  0.1369  0.0672
27764SOL    HW185014   2.940   3.952   2.228  0.0023 -1.1800  0.9308
27764SOL    HW285015   2.868   3.850   2.143 -0.0979  0.6826 -1.3242
27765SOL     OW85016   0.048   6.624   0.930 -0.0679  0.0612 -0.0411
27765SOL    HW185017   0.116   6.637   0.865 -1.4203 -0.3655 -1.6018
27765SOL    HW285018   0.065   6.536   0.965 -1.1990 -1.1443 -2.2597
27766SOL     OW85019   7.101   2.883   5.204 -0.4422 -0.0396  0.1767
27766SOL    HW185020   7.171   2.948   5.192  0.2522 -0.8825 -0.4855
27766SOL    HW285021   7.023   2.926   5.168 -0.0452  0.5089 -0.0587
27767SOL     OW85022   8.576   7.594   5.653 -0.0929 -0.6178 -0.3002
27767SOL    HW185023   8.613   7.660   5.594 -0.5815  0.3361  0.4293
27767SOL    HW285024   8.528   7.645   5.719 -0.1552 -1.6848  0.5080
27768SOL     OW85025   3.360   1.410   7.947 -0.1729 -0.5914 -0.4736
27768SOL    HW185026   3.360   1.315   7.950 -0.1081 -0.5634  2.0870
27768SOL    HW285027   3.268   1.434   7.933 -0.5846 -1.0347  1.2792
27769SOL     OW85028   6.422   4.779   7.455 -0.9992  0.3026  0.1882
27769SOL    HW185029   6.373   4.757   7.376 -1.9200  0.9514  0.5610
27769SOL    HW285030   6.403   4.872   7.470 -0.7270  0.2223  1.0938
27770SOL     OW85031   4.263   5.165   8.664  0.3693  0.5748  0.8893
27770SOL    HW185032   4.246   5.243   8.717  0.6554  1.9652 -0.9698
27770SOL    HW285033   4.338   5.188   8.610  0.5408 -1.0530  0.3795
27771SOL     OW85034   3.885   9.067   3.685  0.3874 -0.0486 -0.3216
27771SOL    HW185035   3.920   8.982   3.659 -2.4499 -1.3271 -0.2616
27771SOL    HW285036   3.891   9.120   3.605  2.3057 -0.1908 -0.3212
27772SOL     OW85037   0.574   0.311   3.107 -0.1916 -0.1891  0.6656
27772SOL    HW185038   0.555   0.218   3.109  2.3857 -0.7871  0.6835
27772SOL    HW285039   0.634   0.322   3.033 -0.1986  1.4109  0.8555
27773SOL     OW85040   0.368   5.124   0.401 -0.0338 -0.3056  0.3317
27773SOL    HW185041   0.403   5.204   0.440 -0.1281 -0.3232  0.4521
27773SOL    HW285042   0.375   5.059   0.470 -1.6327  0.0306  0.8566
27774SOL     OW85043   6.065   6.468   0.740  0.0198 -0.1966 -0.1519
27774SOL    HW185044   6.076   6.456   0.646 -0.9298 -0.6833 -0.2078
27774SOL    HW285045   5.970   6.472   0.753  0.1571  2.0046  0.5284
27775SOL     OW85046   4.399   7.604   5.548  0.8670 -0.3312  0.3836
27775SOL    HW185047   4.391   7.680   5.490 -2.5811 -1.7835 -1.3396
27775SOL    HW285048   4.462   7.546   5.504  0.6277 -0.0818 -0.2962
27776SOL     OW85049   8.696   7.694   9.489 -0.1331 -0.3244  0.2484
27776SOL    HW185050   8.697   7.789   9.477 -0.9613 -0.3860 -0.4525
27776SOL    HW285051   8.689   7.681   9.583 -2.8375  0.3815  0.2438
27777SOL     OW85052   0.636   2.021   6.737  0.6993  0.5959 -0.1495
27777SOL    HW185053   0.689   1.959   6.787  0.1828 -0.3606 -0.7808
27777SOL    HW285054   0.624   1.981   6.651 -2.3583  0.0069  0.4391
27778SOL     OW85055   7.421   7.798   5.450 -0.1548  0.0751 -0.3405
27778SOL    HW185056   7.487   7.745   5.405  1.9875  0.3651  2.2049
27778SOL    HW285057   7.463   7.883   5.462 -1.6723  0.8206 -0.1064
27779SOL     OW85058   2.556   2.000   3.880  0.0876  0.3878 -0.1032
27779SOL    HW185059   2.595   2.085   3.900  0.7004  0.2624 -0.7324
27779SOL    HW285060   2.499   2.017   3.805 -0.0099  0.2920 -0.0525
27780SOL     OW85061   0.057   2.139   2.405 -0.0952 -0.0879 -0.0694
27780SOL    HW185062   0.049   2.054   2.449 -1.0383  0.0744  0.0982
27780SOL    HW285063  -0.034   2.166   2.390  0.1927  0.9669  0.0297
27781SOL     OW85064   7.449   4.382   1.374 -0.0844 -0.7499  0.2186
27781SOL    HW185065   7.446   4.393   1.279 -0.0736  1.3128  0.4034
27781SOL    HW285066   7.431   4.289   1.388  0.5867 -1.2453 -1.8149
27782SOL     OW85067   1.766   7.659   8.499 -0.3527  0.5078  0.6790
27782SOL    HW185068   1.738   7.641   8.589 -0.5769  1.1081  0.7353
27782SOL    HW285069   1.806   7.746   8.504  1.1403 -0.1462  0.5177
27783SOL     OW85070   2.400   6.353   8.319 -0.1748 -0.3494  0.3260
27783SOL    HW185071   2.376   6.351   8.226 -1.2415 -0.9096  0.6001
27783SOL    HW285072   2.491   6.384   8.319  0.3857 -1.8111 -1.0212
27784SOL     OW85073   2.995   7.534   4.549 -0.5875  0.2994  0.0420
27784SOL    HW185074   3.047   7.612   4.565 -1.8311  0.7419  2.2954
27784SOL    HW285075   3.058   7.468   4.519  0.6270  1.8498 -0.9280
27785SOL     OW85076   6.806   2.717   7.983  1.0299  0.0958  0.3001
27785SOL    HW185077   6.717   2.745   8.006  0.9722  0.2578 -0.1122
27785SOL    HW285078   6.864   2.776   8.030  0.9224 -0.2804  0.9089
27786SOL     OW85079   5.199   1.243   3.652 -0.0359  0.2899  0.0570
27786SOL    HW185080   5.193   1.322   3.707 -0.0968  1.0850 -1.0701
27786SOL    HW285081   5.138   1.181   3.693  0.9099  0.3522  1.6774
27787SOL     OW85082   1.644   2.716   5.696  0.1676 -0.1800  0.2670
27787SOL    HW185083   1.569   2.770   5.720  0.2330 -0.6453  1.6767
27787SOL    HW285084   1.650   2.652   5.768  0.3098 -1.8220 -1.1351
27788SOL     OW85085   6.994   9.465   0.738  0.4119  0.5753  0.1250
27788SOL    HW185086   6.926   9.500   0.681  1.7695  1.2708 -1.1128
27788SOL    HW285087   6.995   9.371   0.720  0.5200  0.7239 -0.6776
27789SOL     OW85088   7.440   3.764   0.674  0.1236 -0.2675 -0.5195
27789SOL    HW185089   7.482   3.746   0.589  0.5777 -0.3953 -0.2721
27789SOL    HW285090   7.425   3.859   0.673  0.9647 -0.1200 -0.3772
27790SOL     OW85091   1.625   8.463   7.939  0.3618 -0.2211 -0.5079
27790SOL    HW185092   1.661   8.379   7.970  0.7518  0.5424  1.2346
27790SOL    HW285093   1.599   8.508   8.019  0.4145  1.4471 -1.3971
27791SOL     OW85094   6.489   8.319   8.494 -0.1053 -0.2418 -0.2316
27791SOL    HW185095   6.582   8.324   8.470  0.3919  0.2697  1.5833
27791SOL    HW285096   6.443   8.311   8.411  1.5583 -0.4286 -1.1882
27792SOL     OW85097   9.118   6.319   8.562 -0.1718 -0.0894 -0.0566
27792SOL    HW185098   9.179   6.371   8.614  0.6407 -0.2237 -0.8532
27792SOL    HW285099   9.136   6.228   8.587 -2.1092 -0.0093  1.8953
27793SOL     OW85100   9.481   8.350   4.254  0.0210 -0.4089 -0.1850
27793SOL    HW185101   9.514   8.265   4.283  3.2507  1.1240  1.1103
27793SOL    HW285102   9.455   8.395   4.334 -0.3846  0.3478 -0.7246
27794SOL     OW85103   3.170   2.017   4.497 -0.2808 -0.5517  0.5068
27794SOL    HW185104   3.207   2.096   4.459  1.9887 -2.0421 -0.5792
27794SOL    HW285105   3.219   2.004   4.578 -0.1982 -1.1756  0.3616
27795SOL     OW85106   2.184   5.530   1.969 -0.7523 -0.3534  0.0435
27795SOL    HW185107   2.121   5.461   1.988 -1.1273  0.3238  1.2976
27795SOL    HW285108   2.268   5.495   2.000 -0.4519 -1.2524 -1.6246
27796SOL     OW85109   6.273   2.028   8.808  0.6301 -0.4552  0.0438
27796SOL    HW185110   6.241   1.969   8.876 -0.3501 -1.2293 -1.0445
27796SOL    HW285111   6.247   1.986   8.726  0.2717  1.3060 -0.7809
27797SOL     OW85112   6.615   5.501   2.950 -0.0543  0.3943 -0.2523
27797SOL    HW185113   6.549   5.514   2.882 -0.1174  0.0093 -0.2688
27797SOL    HW285114   6.681   5.569   2.934 -0.2944  0.5847 -0.4222
27798SOL     OW85115   6.922   3.986   9.276 -0.2493 -0.1052  0.3836
27798SOL    HW185116   6.863   4.017   9.208 -0.9623 -0.3168  0.9009
27798SOL    HW285117   6.865   3.945   9.342  0.5244 -1.0200  0.5151
27799SOL     OW85118   5.367   3.810   2.491  0.0250  0.1854  0.0055
27799SOL    HW185119   5.313   3.820   2.569  0.0546 -0.3014  0.0888
27799SOL    HW285120   5.409   3.724   2.501  1.3632  0.8415  0.2754
27800SOL     OW85121   2.025   6.071   6.822  0.0672 -0.0373  0.2698
27800SOL    HW185122   2.003   6.074   6.729  0.7768 -2.9909 -0.0810
27800SOL    HW285123   2.093   6.138   6.833  2.1671 -1.6402 -2.0360
27801SOL     OW85124   1.940   0.101   2.029 -0.3854  0.2716  0.2673
27801SOL    HW185125   1.927   0.128   2.120  1.1063 -0.0997  0.6157
27801SOL    HW285126   1.945   0.183   1.979 -2.2389  0.4673  0.3238
27802SOL     OW85127   8.886   0.176   8.033  0.4176  0.0372  0.4415
27802SOL    HW185128   8.844   0.244   8.086  1.9356  0.7673  0.7788
27802SOL    HW285129   8.934   0.224   7.966 -0.0779 -0.8155 -0.5536
27803SOL     OW85130   0.974   6.249   8.664  0.2822  0.9377 -0.3804
27803SOL    HW185131   0.955   6.252   8.758  1.8012 -0.4353  0.0096
27803SOL    HW285132   1.060   6.290   8.656 -0.3728  2.1863 -1.3752
27804SOL     OW85133   4.565   0.616   8.442  0.5516  0.2129 -0.0709
27804SOL    HW185134   4.609   0.698   8.420 -2.0253  1.2567 -1.8454
27804SOL    HW285135   4.553   0.619   8.537  2.2846  0.8739  0.1606
27805SOL     OW85136   2.488   4.224   9.031  1.0518 -0.3034 -0.3978
27805SOL    HW185137   2.424   4.271   9.084  1.1464 -0.9790  0.3289
27805SOL    HW285138   2.495   4.276   8.951  1.5437  1.2218  0.5864
27806SOL     OW85139   8.761   6.539   4.371  0.3865  0.4469  0.5536
27806SOL    HW185140   8.790   6.630   4.372  1.3866  0.1443  1.0217
27806SOL    HW285141   8.835   6.490   4.408 -0.0125 -0.5868  0.0426
27807SOL     OW85142   0.244   6.150   1.630  0.2072  0.2837 -0.7037
27807SOL    HW185143   0.206   6.204   1.699  0.8668  0.3575 -0.3926
27807SOL    HW285144   0.246   6.206   1.553 -0.6035  0.1762 -0.8129
27808SOL     OW85145   7.434   8.536   9.129  0.1378 -0.0291  0.5978
27808SOL    HW185146   7.521   8.564   9.157  0.2714  0.3330 -0.1713
27808SOL    HW285147   7.381   8.541   9.209  0.8911 -0.6037  1.1595
27809SOL     OW85148   4.009   9.274   2.190  0.2969  0.2176 -0.2042
27809SOL    HW185149   4.002   9.366   2.165 -0.5429  0.5080  1.0418
27809SOL    HW285150   3.924   9.236   2.168  1.1991 -0.7490 -2.4110
27810SOL     OW85151   9.590   1.638   6.276  0.0968 -0.0004 -0.1147
27810SOL    HW185152   9.532   1.698   6.228  0.2285 -0.4453 -0.8307
27810SOL    HW285153   9.543   1.555   6.277  1.1173 -0.6189 -1.5027
27811SOL     OW85154   7.967   0.053   7.618 -0.5844  0.3445 -0.4690
27811SOL    HW185155   7.999   0.123   7.676 -0.8315  0.0398  0.0373
27811SOL    HW285156   8.043   0.029   7.565 -0.7324  1.6714 -1.3413
27812SOL     OW85157   5.682   6.368   8.151  0.7855 -0.5093  0.0964
27812SOL    HW185158   5.700   6.365   8.245  0.5272  0.4376  0.1897
27812SOL    HW285159   5.642   6.454   8.137  0.7816 -0.6554 -0.8743
27813SOL     OW85160   1.088   4.117   4.955 -0.2300  0.2161 -0.4953
27813SOL    HW185161   1.072   4.071   4.873  0.0521  0.5678 -0.7510
27813SOL    HW285162   1.057   4.057   5.023 -2.1559  0.6758 -0.9299
27814SOL     OW85163   6.284   4.914   2.714  0.5355  0.1273 -0.7982
27814SOL    HW185164   6.256   4.972   2.785  1.0795  0.0800 -0.5366
27814SOL    HW285165   6.380   4.916   2.719  0.5714 -1.7702  0.0200
27815SOL     OW85166   4.413   1.112   3.409 -0.2144  0.4661  0.0312
27815SOL    HW185167   4.489   1.085   3.359  0.7942  2.3726  0.4520
27815SOL    HW285168   4.347   1.134   3.343  0.1485  0.3341 -0.3774
27816SOL     OW85169   6.675   6.584   0.570  0.2661 -0.3802 -0.1079
27816SOL    HW185170   6.651   6.573   0.662  1.5949 -2.1541  0.0724
27816SOL    HW285171   6.611   6.531   0.522 -1.2888  1.6168 -0.4060
27817SOL     OW85172   5.653   1.517   5.681 -0.1245 -0.2996  0.1828
27817SOL    HW185173   5.697   1.586   5.731 -1.3436  0.9556 -0.4106
27817SOL    HW285174   5.705   1.438   5.699  1.6132  0.8480  0.4846
27818SOL     OW85175   6.813   4.971   7.947 -0.2013 -1.0456 -0.2938
27818SOL    HW185176   6.865   5.051   7.946  0.2540 -1.3400 -0.1981
27818SOL    HW285177   6.852   4.917   8.016 -1.1754 -0.9111  0.3710
27819SOL     OW85178   7.124   8.067   3.426  0.1252 -0.4616 -0.2662
27819SOL    HW185179   7.194   8.132   3.426 -0.0270 -0.2949 -0.4745
27819SOL    HW285180   7.146   8.008   3.498  0.9908 -0.9751 -0.9372
27820SOL     OW85181   0.574   6.298   1.600  0.2263  0.3284 -0.1175
27820SOL    HW185182   0.587   6.283   1.506 -0.7072  3.0774 -0.7893
27820SOL    HW285183   0.522   6.223   1.629 -0.5318  0.0213 -2.0926
27821SOL     OW85184   6.091   3.367   7.744 -0.1860 -0.0263 -0.0645
27821SOL    HW185185   6.156   3.332   7.683 -0.6028  0.7049 -0.9560
27821SOL    HW285186   6.142   3.399   7.818  0.5598  1.2527 -1.0976
27822SOL     OW85187   2.050   6.096   1.372  0.0090  0.5297  0.4231
27822SOL    HW185188   2.133   6.138   1.350  1.3154 -2.1000 -0.0346
27822SOL    HW285189   2.031   6.040   1.296 -0.3273 -1.5495  1.9466
27823SOL     OW85190   9.531   0.709   9.280  0.0834  0.2617 -0.0734
27823SOL    HW185191   9.620   0.728   9.310 -0.2866  2.3393 -0.1581
27823SOL    HW285192   9.541   0.678   9.191  0.6374  3.2476 -1.1747
27824SOL     OW85193   4.288   8.142   2.588 -0.1881 -0.6463  0.2793
27824SOL    HW185194   4.336   8.225   2.591 -1.1441 -0.1023  1.6671
27824SOL    HW285195   4.258   8.136   2.497  0.6542  0.0667 -0.0667
27825SOL     OW85196   1.791   6.195   6.313 -0.3152  0.1819 -0.1231
27825SOL    HW185197   1.755   6.259   6.251  0.8546 -0.4961 -1.5333
27825SOL    HW285198   1.885   6.195   6.296 -0.0431 -0.4727  1.2567
27826SOL     OW85199   3.741   0.604   7.149 -0.1707 -0.1715 -0.0833
27826SOL    HW185200   3.660   0.642   7.181 -0.0508  1.9748 -2.1191
27826SOL    HW285201   3.713   0.529   7.096 -0.6623 -0.4353  0.5251
27827SOL     OW85202   3.462   5.804   1.564  0.3287 -0.0492 -0.0247
27827SOL    HW185203   3.509   5.875   1.521 -0.6889  0.5605 -0.1654
27827SOL    HW285204   3.376   5.803   1.522 -1.0862  1.2297  2.5602
27828SOL     OW85205   3.021   5.265   1.093 -0.2093 -0.1717  0.2824
27828SOL    HW185206   2.981   5.225   1.170 -0.0001 -1.9166 -0.4658
27828SOL    HW285207   2.949   5.270   1.030 -0.0473 -0.1248  0.1020
27829SOL     OW85208   0.272   3.601   4.502  0.5370  0.0377 -0.5167
27829SOL    HW185209   0.218   3.656   4.446  2.1148  2.8761  0.5260
27829SOL    HW285210   0.241   3.620   4.591 -0.0368 -2.2013 -0.1745
27830SOL     OW85211   5.644   0.638   2.460  0.2084  0.3524 -0.0189
27830SOL    HW185212   5.654   0.727   2.495  0.2147  0.8562 -1.2583
27830SOL    HW285213   5.719   0.626   2.402  0.8849 -0.9440  1.0738
27831SOL     OW85214   3.766   8.538   2.605  0.1690 -0.5386 -0.7363
27831SOL    HW185215   3.797   8.547   2.515  0.3103  0.0471 -0.6340
27831SOL    HW285216   3.791   8.449   2.631  1.4905 -0.1812 -0.7553
27832SOL     OW85217   1.787   5.809   1.907 -0.7810  0.1339 -0.6158
27832SOL    HW185218   1.851   5.841   1.971  0.1165 -1.5714 -0.5896
27832SOL    HW285219   1.821   5.838   1.823  0.4988 -1.3760 -0.6714
27833SOL     OW85220   5.120   5.312   3.757 -0.0342 -0.4153  0.5170
27833SOL    HW185221   5.041   5.363   3.736  1.0875  1.1466 -0.1617
27833SOL    HW285222   5.138   5.333   3.848  0.0841 -0.0427  0.4126
27834SOL     OW85223   7.446   3.350   8.791  0.3719  0.5017 -0.0680
27834SOL    HW185224   7.477   3.266   8.759 -0.3329  0.4311 -0.5810
27834SOL    HW285225   7.366   3.329   8.839  0.3216  0.8532  0.0033
27835SOL     OW85226   4.913   0.543   2.731  0.4374  0.3464  0.2878
27835SOL    HW185227   4.819   0.526   2.731  0.6982 -1.2448 -0.4549
27835SOL    HW285228   4.944   0.506   2.814  0.6908 -1.0424 -0.3953
27836SOL     OW85229   6.070   4.054   2.392 -0.4492 -0.5692 -0.0341
27836SOL    HW185230   6.043   4.047   2.484 -0.1950  0.8568  0.1693
27836SOL    HW285231   6.108   4.141   2.385  1.9151 -1.5844 -0.8867
27837SOL     OW85232   9.094   6.652   0.021  0.1312  0.0838  0.3882
27837SOL    HW185233   9.101   6.593   0.096  0.3611  0.3632  0.5883
27837SOL    HW285234   9.089   6.739   0.059 -1.2030  0.1368  0.1311
27838SOL     OW85235   2.612   7.751   2.082  0.1885  0.4778  0.2395
27838SOL    HW185236   2.523   7.752   2.116  0.1204 -0.8932  0.1488
27838SOL    HW285237   2.612   7.816   2.012 -0.8415  0.2418  0.0117
27839SOL     OW85238   2.628   7.091   4.124  0.1201  0.4527 -0.2394
27839SOL    HW185239   2.591   7.086   4.212 -0.5882  0.4642 -0.5253
27839SOL    HW285240   2.722   7.083   4.136 -0.1093 -1.7723  0.3284
27840SOL     OW85241   0.293   8.518   3.844  0.2965  0.2605 -0.4308
27840SOL    HW185242   0.318   8.595   3.895 -2.1873  0.4643  0.5910
27840SOL    HW285243   0.235   8.469   3.901 -0.4789 -0.8823 -2.1336
27841SOL     OW85244   1.569   5.229   8.740  0.5021  0.0380  0.4216
27841SOL    HW185245   1.507   5.286   8.785  0.7945 -0.3768  1.3740
27841SOL    HW285246   1.636   5.289   8.707 -0.9758  0.6556 -1.7135
27842SOL     OW85247   1.405   3.915   6.898 -0.0005  0.2514 -0.2267
27842SOL    HW185248   1.363   3.939   6.816  1.5081  1.6069 -0.6387
27842SOL    HW285249   1.332   3.899   6.958 -1.1467 -1.2956 -1.9283
27843SOL     OW85250   8.019   2.190   6.139  0.2069  0.6546  0.7144
27843SOL    HW185251   7.987   2.144   6.061 -1.1239  3.3474 -0.4787
27843SOL    HW285252   7.989   2.136   6.212 -0.1809 -0.9849 -0.5911
27844SOL     OW85253   4.104   3.558   9.700  0.6129  0.2151  0.4600
27844SOL    HW185254   4.173   3.565   9.766  0.7270 -1.8003  0.6089
27844SOL    HW285255   4.152   3.559   9.617  1.0418 -2.3191  0.5806
27845SOL     OW85256   7.062   5.462   3.088 -0.6638  0.3919  0.0620
27845SOL    HW185257   7.085   5.551   3.060  0.7884  0.6506  1.8863
27845SOL    HW285258   7.059   5.467   3.183  0.1161 -1.6701  0.2367
27846SOL     OW85259   8.854   4.777   2.903  0.7845  0.2170 -0.2965
27846SOL    HW185260   8.777   4.821   2.939 -0.4023 -2.8327  1.2951
27846SOL    HW285261   8.928   4.810   2.954  0.0665  0.8292  0.3676
27847SOL     OW85262   6.097   7.158   9.320  0.8651 -0.1858 -0.1988
27847SOL    HW185263   6.191   7.163   9.306  1.3134 -1.1580  2.1518
27847SOL    HW285264   6.082   7.203   9.403 -0.5803 -1.0973  0.0687
27848SOL     OW85265   3.786   4.866   0.147 -0.0481  0.1497 -0.4078
27848SOL    HW185266   3.725   4.820   0.089 -0.2280 -0.0637 -0.0540
27848SOL    HW285267   3.862   4.809   0.152  0.4782  0.7568 -1.4231
27849SOL     OW85268   7.629   1.546   0.506  0.5099 -0.4488 -0.0360
27849SOL    HW185269   7.587   1.536   0.421  0.4881 -0.9195  0.0261
27849SOL    HW285270   7.579   1.487   0.564  1.0591 -0.7727  0.1110
27850SOL     OW85271   6.505   6.901   0.484  0.0967 -0.1431 -0.5214
27850SOL    HW185272   6.585   6.922   0.436 -0.1962 -1.4195 -1.6492
27850SOL    HW285273   6.526   6.920   0.575  2.0110 -1.3352 -0.6553
27851SOL     OW85274   2.872   9.381   1.983  0.4655 -0.4895  0.0721
27851SOL    HW185275   2.919   9.314   2.032  0.7137  0.7080  1.5600
27851SOL    HW285276   2.784   9.381   2.021  0.0616 -0.8626 -0.8375
27852SOL     OW85277   2.525   3.029   5.194  0.0391 -0.4868 -0.1432
27852SOL    HW185278   2.580   2.952   5.211 -1.3934 -1.7096 -0.7438
27852SOL    HW285279   2.564   3.099   5.246  0.7066 -1.9326  1.4029
27853SOL     OW85280   1.050   3.847   4.557 -0.1932  0.8605 -0.4683
27853SOL    HW185281   1.058   3.871   4.465 -0.1157  2.2284 -0.1304
27853SOL    HW285282   1.052   3.751   4.557 -0.9190  0.8082 -1.9465
27854SOL     OW85283   8.631   8.206   1.484 -0.2186 -0.1428 -0.6507
27854SOL    HW185284   8.688   8.171   1.415  2.4812  2.9240 -0.2075
27854SOL    HW285285   8.592   8.285   1.447 -2.3599 -0.8594 -0.0774
27855SOL     OW85286   1.057   5.216   0.269 -0.2638  0.3638 -0.2935
27855SOL    HW185287   1.133   5.225   0.211 -0.2413 -2.5055 -0.8950
27855SOL    HW285288   1.094   5.195   0.355 -0.3573  1.2024 -0.0430
27856SOL     OW85289   7.246   4.559   2.871 -0.3923  0.0249 -0.2226
27856SOL    HW185290   7.168   4.576   2.818 -0.4936 -1.9528 -0.7998
27856SOL    HW285291   7.314   4.539   2.807  0.0433 -0.2935  0.3367
27857SOL     OW85292   2.572   1.147   2.008  0.2014  0.0826  0.3745
27857SOL    HW185293   2.658   1.122   2.041  0.7543  1.3131 -0.0823
27857SOL    HW285294   2.579   1.242   1.992 -1.6035  0.4562  1.4935
27858SOL     OW85295   9.655   8.302   5.072  0.7551 -0.2562  0.5076
27858SOL    HW185296   9.750   8.310   5.064  0.7362 -0.3820  0.1403
27858SOL    HW285297   9.628   8.384   5.115  0.8795  0.3915 -0.6061
27859SOL     OW85298   8.805   4.255   5.585 -0.1621 -0.3789  0.2762
27859SOL    HW185299   8.876   4.230   5.645 -1.7225  0.6744  2.7181
27859SOL    HW285300   8.812   4.350   5.579 -0.9827 -0.3268  0.0542
27860SOL     OW85301   3.287   6.741   8.153 -0.1050  0.2494 -0.1254
27860SOL    HW185302   3.203   6.707   8.120  0.2714  0.3086 -1.1849
27860SOL    HW285303   3.290   6.712   8.244 -1.5111  0.6740  0.0919
27861SOL     OW85304   1.774   9.040   6.582  0.3776 -0.0859 -0.3858
27861SOL    HW185305   1.781   9.110   6.516  0.5446  0.3227  0.0570
27861SOL    HW285306   1.680   9.031   6.596  0.3470 -0.0667 -0.5695
27862SOL     OW85307   7.409   6.625   2.493 -0.4661  0.2411  0.4239
27862SOL    HW185308   7.463   6.594   2.420  0.9323 -0.7253  1.7893
27862SOL    HW285309   7.407   6.721   2.482 -0.8406  0.0752 -1.2124
27863SOL     OW85310   2.230   2.823   2.205  0.0774 -0.6843  0.1031
27863SOL    HW185311   2.253   2.837   2.296  0.9594  0.2544 -0.2508
27863SOL    HW285312   2.313   2.816   2.159 -0.3496 -1.7612 -0.5621
27864SOL     OW85313   5.686   8.612   6.031 -0.2259 -0.3081  0.4471
27864SOL    HW185314   5.684   8.573   5.943  0.4713 -0.0178  0.2885
27864SOL    HW285315   5.746   8.556   6.080  1.9445  1.3030 -0.1862
27865SOL     OW85316   5.773   2.377   5.484  0.1063  0.2124  0.7012
27865SOL    HW185317   5.708   2.325   5.436 -0.2732  1.0067  0.3413
27865SOL    HW285318   5.826   2.312   5.530  0.5751 -0.5930 -0.9099
27866SOL     OW85319   9.637   3.448   4.393 -0.3349  0.0424 -0.3406
27866SOL    HW185320   9.654   3.542   4.395 -0.9693  0.1538 -0.0527
27866SOL    HW285321   9.707   3.410   4.446  0.1671  0.3120 -0.8018
27867SOL     OW85322   6.582   0.759   6.954  0.2294 -0.2114 -0.4205
27867SOL    HW185323   6.588   0.721   7.042 -0.8508 -0.2849 -0.3605
27867SOL    HW285324   6.553   0.687   6.898  1.7823 -0.4014 -1.0401
27868SOL     OW85325   7.194   9.125   5.453 -0.1342  0.1972 -0.5736
27868SOL    HW185326   7.163   9.185   5.385  1.0760  1.0024 -0.4415
27868SOL    HW285327   7.279   9.094   5.422 -0.9083 -1.8189 -0.8332
27869SOL     OW85328   3.213   4.032   5.006  0.2916 -0.0553 -0.6561
27869SOL    HW185329   3.120   4.057   5.013 -0.0134 -1.0588 -1.0243
27869SOL    HW285330   3.242   4.072   4.924 -0.4793 -1.6973 -1.7887
27870SOL     OW85331   4.682   6.350   8.994 -0.2915 -0.0512  0.1197
27870SOL    HW185332   4.599   6.330   8.952 -0.9034 -1.2866  1.7836
27870SOL    HW285333   4.658   6.405   9.069  0.4163 -0.2089  0.4700
27871SOL     OW85334   9.443   4.343   9.272 -0.3560 -0.5275 -0.1462
27871SOL    HW185335   9.470   4.386   9.354 -2.0893 -0.3459  0.3683
27871SOL    HW285336   9.490   4.390   9.204 -1.4328  1.5531  0.4867
27872SOL     OW85337   7.412   4.469   2.188  0.3595 -0.2481  0.5448
27872SOL    HW185338   7.418   4.527   2.264 -1.8649  1.4277 -0.4323
27872SOL    HW285339   7.495   4.481   2.141  1.4182 -0.6871  2.2051
27873SOL     OW85340   1.546   3.660   0.161  0.0452  0.3544  0.1245
27873SOL    HW185341   1.465   3.619   0.132  0.2895  0.2772 -0.4555
27873SOL    HW285342   1.528   3.753   0.161  0.0773  0.3619 -0.3899
27874SOL     OW85343   3.337   2.847   0.090 -0.1777  0.2178  0.5422
27874SOL    HW185344   3.340   2.937   0.121 -1.2214  0.5558 -0.2558
27874SOL    HW285345   3.243   2.830   0.077 -0.0493 -1.1993  1.2998
27875SOL     OW85346   5.164   3.763   3.439 -0.6110 -0.1523 -0.2868
27875SOL    HW185347   5.256   3.737   3.443  0.0253  2.0239  0.5328
27875SOL    HW285348   5.133   3.754   3.529 -1.5016 -1.7411 -0.7202
27876SOL     OW85349   4.883   4.670   7.458  0.5701  0.1699 -0.6658
27876SOL    HW185350   4.961   4.718   7.485  0.3643  0.0251  0.2361
27876SOL    HW285351   4.869   4.606   7.529 -0.7666  0.6674 -0.4529
27877SOL     OW85352   0.130   7.488   4.501 -0.0374  0.2052 -0.3188
27877SOL    HW185353   0.077   7.411   4.481 -0.3565  0.6121 -1.0993
27877SOL    HW285354   0.079   7.536   4.566 -0.0774  0.0115 -0.2075
27878SOL     OW85355   1.494   2.049   3.367 -0.4797  0.0773 -0.4446
27878SOL    HW185356   1.501   2.122   3.428  0.0015 -0.1579 -0.2087
27878SOL    HW285357   1.505   2.088   3.281  1.6707  0.0551 -0.2335
27879SOL     OW85358   7.786   9.645   7.478 -0.2496 -0.4697  0.2417
27879SOL    HW185359   7.771   9.723   7.424 -0.1472  0.0180  0.9135
27879SOL    HW285360   7.859   9.668   7.535 -2.4204  0.3176  2.9693
27880SOL     OW85361   2.059   6.929   4.976  0.3059  0.0811  0.0320
27880SOL    HW185362   2.042   6.849   4.926  1.1492  0.6933 -1.2838
27880SOL    HW285363   1.975   6.976   4.975 -0.0504 -0.5342  0.3679
27881SOL     OW85364   8.176   3.723   4.319 -0.1075 -0.3487 -0.1637
27881SOL    HW185365   8.175   3.635   4.356 -1.3322 -0.7100 -1.0146
27881SOL    HW285366   8.259   3.729   4.271 -0.9820 -1.8283 -1.9369
27882SOL     OW85367   4.230   4.536   4.585 -0.5569 -0.1566  0.2397
27882SOL    HW185368   4.173   4.500   4.516 -0.9964  1.7964 -0.4709
27882SOL    HW285369   4.292   4.591   4.537  2.3526 -2.5864  0.9243
27883SOL     OW85370   0.557   4.555   5.316  0.4005 -0.1313 -0.0557
27883SOL    HW185371   0.623   4.604   5.266  0.4762  0.1536  0.3168
27883SOL    HW285372   0.483   4.546   5.256  1.5004 -2.2128 -1.2156
27884SOL     OW85373   7.682   4.276   3.249 -0.4671  0.4666 -0.4151
27884SOL    HW185374   7.686   4.357   3.200  0.0863  0.6424 -0.0859
27884SOL    HW285375   7.725   4.211   3.193  0.6561  0.7848  0.0575
27885SOL     OW85376   1.056   8.867   6.974  0.4132  0.0694  0.6558
27885SOL    HW185377   1.036   8.914   6.894 -0.6352 -0.3260  0.6684
27885SOL    HW285378   1.104   8.789   6.945 -0.4380 -0.3492  0.3510
27886SOL     OW85379   5.967   4.329   2.851 -0.0236 -0.2950  0.1491
27886SOL    HW185380   5.921   4.250   2.879 -0.9665  0.4905  0.8766
27886SOL    HW285381   5.998   4.369   2.932  2.4888 -1.0731 -0.3479
27887SOL     OW85382   7.906   8.666   7.327  0.0470  0.4115  0.2259
27887SOL    HW185383   7.932   8.738   7.384  0.9613  0.2079  0.0740
27887SOL    HW285384   7.931   8.695   7.239 -2.3385  1.1979 -0.2708
27888SOL     OW85385   5.577   1.414   8.302 -0.2171 -0.0148 -0.6039
27888SOL    HW185386   5.616   1.352   8.239  1.8935  1.0860 -0.4604
27888SOL    HW285387   5.498   1.445   8.258  1.2745  0.8608 -2.8646
27889SOL     OW85388   2.187   6.162   0.930  0.3455 -0.1393  0.3152
27889SOL    HW185389   2.105   6.176   0.882  1.3838  1.6553 -1.1014
27889SOL    HW285390   2.211   6.072   0.911 -1.2759 -0.7070  0.7678
27890SOL     OW85391   5.605   5.785   1.797 -0.3472 -0.4223  0.0798
27890SOL    HW185392   5.587   5.723   1.868 -0.2531 -0.7140 -0.1500
27890SOL    HW285393   5.615   5.730   1.719 -2.1544  0.0102 -0.5006
27891SOL     OW85394   5.977   4.927   5.303 -0.0533 -0.0192 -0.3758
27891SOL    HW185395   5.886   4.954   5.289  0.2650  1.6951  0.5704
27891SOL    HW285396   6.019   5.004   5.342  1.7395 -0.8763 -0.5149
27892SOL     OW85397   8.967   0.336   3.958 -0.0952 -0.7348  0.1872
27892SOL    HW185398   8.944   0.346   3.865  0.8660 -0.2685 -0.0209
27892SOL    HW285399   8.883   0.331   4.003 -0.5828 -0.8183 -0.6946
27893SOL     OW85400   2.467   8.234   6.048  0.1415 -0.0370  0.0286
27893SOL    HW185401   2.407   8.306   6.030  0.0320 -0.2050 -0.2789
27893SOL    HW285402   2.420   8.178   6.110 -0.0761 -0.2405 -0.3175
27894SOL     OW85403   0.452   5.070   7.225 -0.1643  0.4222  0.2148
27894SOL    HW185404   0.465   4.982   7.190  2.0116  0.3907  0.9379
27894SOL    HW285405   0.431   5.057   7.317  0.6974  0.6446  0.4545
27895SOL     OW85406   1.289   3.346   8.080 -0.1689  0.0350 -0.5238
27895SOL    HW185407   1.301   3.251   8.081  0.1747  0.0751  0.8583
27895SOL    HW285408   1.355   3.378   8.018 -0.6822 -0.6655 -1.4441
27896SOL     OW85409   1.344   2.381   7.336 -0.3150  0.4369 -0.3169
27896SOL    HW185410   1.425   2.332   7.319  0.0928  0.8078  0.5007
27896SOL    HW285411   1.373   2.467   7.363 -1.0013  0.6678 -0.2928
27897SOL     OW85412   3.137   9.503   6.616  0.3325  0.2453  0.3412
27897SOL    HW185413   3.042   9.513   6.626  0.2232 -1.3824  1.3785
27897SOL    HW285414   3.147   9.414   6.581  1.3913  1.3165 -2.3612
27898SOL     OW85415   7.356   1.186   9.569 -0.1458 -0.0578 -0.1716
27898SOL    HW185416   7.278   1.226   9.605  0.2297  0.9966 -0.4834
27898SOL    HW285417   7.348   1.198   9.474  1.2524  1.7929 -0.1214
27899SOL     OW85418   3.105   3.683   6.409  0.0266 -0.0192  0.1931
27899SOL    HW185419   3.194   3.694   6.444  0.0757 -3.3124  1.5147
27899SOL    HW285420   3.056   3.758   6.442  1.9385  1.0567  0.7402
27900SOL     OW85421   4.450   6.856   5.051 -0.2772 -0.1140 -0.7460
27900SOL    HW185422   4.365   6.893   5.028 -0.4179 -1.1431 -2.0495
27900SOL    HW285423   4.460   6.874   5.144  0.0287  3.8024 -1.3736
27901SOL     OW85424   9.498   4.564   8.012 -0.1069 -0.2223 -0.0164
27901SOL    HW185425   9.415   4.605   7.987  0.7440  1.1816 -0.6594
27901SOL    HW285426   9.477   4.471   8.021 -1.8700  0.1924  0.4339
27902SOL     OW85427   7.331   4.604   6.283 -0.0541  0.3316 -0.2406
27902SOL    HW185428   7.372   4.586   6.368 -0.9222  1.0572  0.3425
27902SOL    HW285429   7.392   4.665   6.240  0.2149  0.2332 -0.0055
27903SOL     OW85430   5.635   6.379   0.408  0.4801 -0.2316 -0.0480
27903SOL    HW185431   5.579   6.321   0.356  0.2714 -0.2610  0.2068
27903SOL    HW285432   5.724   6.350   0.388  0.5682  1.2888 -2.2521
27904SOL     OW85433   2.599   9.547   7.919 -0.1464  0.0185 -0.2974
27904SOL    HW185434   2.624   9.484   7.987 -0.6656  1.3328  1.1910
27904SOL    HW285435   2.522   9.509   7.878 -1.8087  0.5819  2.0639
27905SOL     OW85436   2.973   5.232   2.154 -0.4266  0.3230 -0.0439
27905SOL    HW185437   2.981   5.138   2.169  1.7159  0.2604 -1.2197
27905SOL    HW285438   2.943   5.240   2.064 -0.6600  0.7860  0.0699
27906SOL     OW85439   1.320   8.615   7.234 -0.6773  0.1395 -0.9544
27906SOL    HW185440   1.284   8.526   7.237  2.3109 -1.1741  2.5729
27906SOL    HW285441   1.397   8.607   7.178 -0.2850  0.4329 -0.4616
27907SOL     OW85442   0.040   1.886   7.661 -0.0734 -0.4266  0.2074
27907SOL    HW185443   0.081   1.849   7.582  1.0087 -0.9662  0.9994
27907SOL    HW285444  -0.022   1.819   7.690 -0.1837 -0.3941  0.0535
27908SOL     OW85445   7.744   0.365   0.140  0.3457  0.2556  0.1407
27908SOL    HW185446   7.837   0.387   0.138  0.4404 -0.0871  0.5005
27908SOL    HW285447   7.713   0.381   0.051  1.2920 -1.8692 -0.6505
27909SOL     OW85448   3.849   7.347   9.382 -0.3409 -0.2471  0.1706
27909SOL    HW185449   3.837   7.399   9.461 -0.2792 -1.3689  0.9403
27909SOL    HW285450   3.897   7.269   9.411  0.7291 -0.1404 -1.1873
27910SOL     OW85451   4.312   3.479   7.543  0.0019 -0.4137  0.0602
27910SOL    HW185452   4.262   3.493   7.624 -0.2748 -0.4300 -0.1074
27910SOL    HW285453   4.401   3.462   7.573 -0.0378 -0.1303  0.3514
27911SOL     OW85454   3.029   6.087   0.133 -0.2452 -0.5715  0.2568
27911SOL    HW185455   2.969   6.138   0.080 -0.3612 -1.7215 -0.7482
27911SOL    HW285456   2.995   6.094   0.222 -1.3805 -0.5333 -0.1740
27912SOL     OW85457   8.503   1.450   5.361 -0.4578 -0.2084  0.4372
27912SOL    HW185458   8.542   1.472   5.277 -0.1301  2.2717  1.1582
27912SOL    HW285459   8.410   1.438   5.342 -0.7893  2.4992 -0.0209
27913SOL     OW85460   5.139   0.880   7.546  0.3864 -0.0414  0.0023
27913SOL    HW185461   5.084   0.957   7.560 -0.4745 -0.9319  1.7351
27913SOL    HW285462   5.229   0.913   7.555  0.0437  0.8150  0.3995
27914SOL     OW85463   4.465   4.181   8.253 -0.2691 -0.0201  0.2899
27914SOL    HW185464   4.392   4.152   8.308 -0.1043  0.4589  0.7655
27914SOL    HW285465   4.441   4.270   8.227  0.3238  0.2757  0.7533
27915SOL     OW85466   6.707   4.260   3.678 -0.5714 -0.1167 -0.2829
27915SOL    HW185467   6.653   4.332   3.712  0.2870  0.7103 -0.6198
27915SOL    HW285468   6.654   4.221   3.609 -0.8208  0.5678 -0.4836
27916SOL     OW85469   8.048   6.138   5.335 -0.2397  0.6221  0.1729
27916SOL    HW185470   8.140   6.158   5.352  0.1507 -1.3758  0.6430
27916SOL    HW285471   8.046   6.106   5.245 -0.4381  0.5322  0.2073
27917SOL     OW85472   3.930   2.052   6.279  0.5760  0.4268 -0.4171
27917SOL    HW185473   4.011   2.006   6.256  0.7184  1.3136 -1.7646
27917SOL    HW285474   3.956   2.143   6.291  0.2298  0.2865  1.9043
27918SOL     OW85475   7.526   1.884   5.091 -0.6159  0.3501 -0.4689
27918SOL    HW185476   7.507   1.938   5.015 -0.7225  0.4462 -0.3737
27918SOL    HW285477   7.440   1.863   5.128 -0.5499  0.5418 -0.2081
27919SOL     OW85478   5.253   8.363   1.519 -0.1887 -0.1166  0.3471
27919SOL    HW185479   5.303   8.445   1.517  0.2835 -0.3648  1.3160
27919SOL    HW285480   5.296   8.308   1.453 -2.0326  1.2108 -2.1406
27920SOL     OW85481   3.434   0.991   5.752  0.1559 -0.3474 -0.1989
27920SOL    HW185482   3.461   1.048   5.680  0.7952  1.0360  1.0849
27920SOL    HW285483   3.405   0.910   5.709  1.9021 -0.1263 -1.9112
27921SOL     OW85484   4.596   2.764   4.745 -0.1124 -0.0022 -0.1339
27921SOL    HW185485   4.585   2.731   4.834  1.3251 -0.8091 -0.2231
27921SOL    HW285486   4.687   2.792   4.741 -0.2679  0.4147 -1.2383
27922SOL     OW85487   9.239   7.385   0.251 -1.1051 -0.0034  0.0742
27922SOL    HW185488   9.296   7.308   0.257 -1.6267 -0.4420 -0.4365
27922SOL    HW285489   9.235   7.405   0.158  0.4247  1.7417  0.3282
27923SOL     OW85490   5.986   3.780   8.401 -0.0078  0.3334 -0.2515
27923SOL    HW185491   5.967   3.712   8.336 -1.8532  0.4766  0.0815
27923SOL    HW285492   5.972   3.862   8.354 -0.5484  0.4404  0.0865
27924SOL     OW85493   6.528   8.760   0.853 -0.1952 -0.1493  0.1733
27924SOL    HW185494   6.524   8.772   0.948  1.2664  0.3868  0.1974
27924SOL    HW285495   6.556   8.669   0.841 -0.1510 -0.1495  0.2724
27925SOL     OW85496   1.075   1.612   5.930  0.1429  0.9049  0.9405
27925SOL    HW185497   1.033   1.669   5.865 -0.8590  0.9820  1.6265
27925SOL    HW285498   1.115   1.542   5.878 -0.9404  0.7747  0.2533
27926SOL     OW85499   4.502   4.314   4.880 -0.1689 -0.0589 -0.5801
27926SOL    HW185500   4.513   4.249   4.949  2.0145  0.3636 -0.4635
27926SOL    HW285501   4.525   4.397   4.921 -2.0933  0.7155 -0.9560
27927SOL     OW85502   0.680   2.225   1.452 -0.3132  0.2722 -0.0216
27927SOL    HW185503   0.752   2.261   1.400 -1.0072  1.1351 -0.4068
27927SOL    HW285504   0.675   2.283   1.528  0.2262 -0.5575  0.6609
27928SOL     OW85505   2.301   7.860   5.298 -0.7220 -0.1280  0.2235
27928SOL    HW185506   2.242   7.911   5.353 -1.1716  1.0953 -1.3052
27928SOL    HW285507   2.255   7.853   5.214  0.6045 -0.5584 -0.5003
27929SOL     OW85508   4.165   2.266   4.854 -0.7485  0.4585 -0.6590
27929SOL    HW185509   4.234   2.202   4.840 -1.2812 -0.0748 -0.8518
27929SOL    HW285510   4.183   2.335   4.790 -0.1387  0.5427 -0.4050
27930SOL     OW85511   5.029   7.730   1.041  0.8807  0.0423 -0.2321
27930SOL    HW185512   5.101   7.762   1.096  1.4205  0.9947 -1.4536
27930SOL    HW285513   5.069   7.666   0.983  0.7759  0.6209 -0.9604
27931SOL     OW85514   9.183   4.317   5.611 -0.0673  0.3481  0.0516
27931SOL    HW185515   9.123   4.269   5.668  0.2670  0.6956  0.7106
27931SOL    HW285516   9.132   4.335   5.533 -0.8845  0.7743  0.6628
27932SOL     OW85517   3.620   3.356   0.682 -0.1580  0.9902  0.0242
27932SOL    HW185518   3.573   3.364   0.765  0.4476  1.6524  0.3151
27932SOL    HW285519   3.698   3.305   0.704 -0.6386  0.0579 -0.4145
27933SOL     OW85520   1.830   6.678   3.558  0.4336  0.7353  0.3159
27933SOL    HW185521   1.822   6.744   3.489  2.1183  2.2966  1.5167
27933SOL    HW285522   1.781   6.714   3.631 -0.4490 -0.4136  0.3276
27934SOL     OW85523   3.615   5.176   5.255  0.0688 -0.4740 -0.5407
27934SOL    HW185524   3.675   5.248   5.238  1.2086 -1.1455  0.4959
27934SOL    HW285525   3.671   5.100   5.269 -1.0081 -1.1187  0.4726
27935SOL     OW85526   1.477   6.274   6.014 -0.2616  0.1153  0.6743
27935SOL    HW185527   1.487   6.302   6.105  0.3955  0.0348  0.6291
27935SOL    HW285528   1.433   6.188   6.020  2.4329 -1.3393  1.0979
27936SOL     OW85529   3.646   6.610   9.490 -0.3775 -0.3193 -0.1880
27936SOL    HW185530   3.697   6.603   9.410  0.1843 -2.5044  0.2697
27936SOL    HW285531   3.581   6.678   9.472  1.6038  1.3838 -1.3788
27937SOL     OW85532   7.434   8.486   7.452  0.1365 -0.0054 -0.8974
27937SOL    HW185533   7.492   8.562   7.442 -1.2560  1.1240 -0.6256
27937SOL    HW285534   7.381   8.506   7.528  1.1999 -2.2733  0.5687
27938SOL     OW85535   3.812   0.744   1.451 -0.1261  0.3574  0.2979
27938SOL    HW185536   3.818   0.708   1.362 -2.3356 -0.4548  0.4089
27938SOL    HW285537   3.755   0.821   1.441 -0.7638 -0.0015  1.0431
27939SOL     OW85538   4.522   1.137   1.082 -0.3613 -0.4651 -0.2370
27939SOL    HW185539   4.516   1.149   0.987 -2.4051  0.9104  0.0072
27939SOL    HW285540   4.477   1.054   1.098 -1.3169  0.0265 -0.3428
27940SOL     OW85541   0.268   1.578   3.450 -0.8175 -0.9266 -0.5673
27940SOL    HW185542   0.349   1.578   3.399 -0.5935  1.4071 -0.2858
27940SOL    HW285543   0.205   1.532   3.394  0.4736 -2.1886 -1.0774
27941SOL     OW85544   2.944   2.705   7.582  0.6009  0.0936 -0.3304
27941SOL    HW185545   2.938   2.737   7.672  0.0694  0.2354 -0.4130
27941SOL    HW285546   2.855   2.674   7.562  1.3801 -2.8039  0.2448
27942SOL     OW85547   5.626   7.747   3.522  0.1222 -0.7348  0.1526
27942SOL    HW185548   5.663   7.726   3.608  0.2119 -0.9358  0.0661
27942SOL    HW285549   5.541   7.704   3.521 -1.2217  1.7170  1.2912
27943SOL     OW85550   5.938   7.430   5.275  0.3699  0.3698  0.4733
27943SOL    HW185551   6.020   7.421   5.227  0.5041  2.0486  0.3427
27943SOL    HW285552   5.936   7.353   5.333  0.9614 -0.8421 -1.0497
27944SOL     OW85553   5.056   4.830   4.789  0.3668  0.4857 -0.3460
27944SOL    HW185554   5.126   4.824   4.724  0.3359 -4.0522 -0.3115
27944SOL    HW285555   5.092   4.789   4.867 -1.1591  1.5099  0.9659
27945SOL     OW85556   8.453   3.566   1.350  0.0983  0.5240 -0.4732
27945SOL    HW185557   8.403   3.581   1.430  0.3360  0.1714 -0.2535
27945SOL    HW285558   8.390   3.581   1.279 -0.4482 -0.3555 -0.1915
27946SOL     OW85559   1.263   4.712   6.632 -0.7268 -0.0654  0.2827
27946SOL    HW185560   1.321   4.692   6.706 -1.3053 -2.0580  0.2468
27946SOL    HW285561   1.272   4.637   6.573 -0.8584  1.1355 -1.3463
27947SOL     OW85562   6.977   2.499   3.338 -0.1543  0.6088 -0.2528
27947SOL    HW185563   6.921   2.560   3.386 -0.7424 -0.4355  0.4363
27947SOL    HW285564   7.064   2.513   3.374 -0.5628 -0.0747  1.1057
27948SOL     OW85565   3.989   7.515   8.371  0.5581  0.4221 -0.0065
27948SOL    HW185566   4.068   7.566   8.350  1.0700 -0.3075  0.1237
27948SOL    HW285567   3.988   7.511   8.466  0.8347 -0.2916 -0.0304
27949SOL     OW85568   5.130   1.451   5.703  0.6849 -0.5084 -0.0304
27949SOL    HW185569   5.146   1.374   5.649  0.8415 -1.9410  1.9430
27949SOL    HW285570   5.036   1.467   5.694  1.0971  0.9237 -2.7126
27950SOL     OW85571   2.610   9.227   0.951  0.5040  0.4141  0.1575
27950SOL    HW185572   2.636   9.236   1.043 -1.0234  0.5720  0.6024
27950SOL    HW285573   2.572   9.311   0.928 -1.0635 -0.2911  0.0499
27951SOL     OW85574   3.373   2.544   4.615  0.1154  0.1414  0.4693
27951SOL    HW185575   3.349   2.635   4.633  1.0987  0.2158  1.5667
27951SOL    HW285576   3.368   2.501   4.701 -3.4526 -1.6649 -0.4652
27952SOL     OW85577   2.236   7.220   8.173 -0.8694  0.1704 -0.2733
27952SOL    HW185578   2.241   7.315   8.165  1.0934  0.0077 -1.5575
27952SOL    HW285579   2.203   7.191   8.088  2.0211 -0.4547 -1.2815
27953SOL     OW85580   7.122   6.296   5.359  0.1889 -0.0830 -0.2354
27953SOL    HW185581   7.083   6.309   5.446  1.4648 -1.2908  0.5519
27953SOL    HW285582   7.181   6.222   5.370  0.3173 -0.3131 -2.1779
27954SOL     OW85583   0.509   0.497   4.765 -1.0405 -0.3313 -0.3626
27954SOL    HW185584   0.556   0.414   4.759 -0.8058 -0.2810  0.6378
27954SOL    HW285585   0.438   0.489   4.701  0.0680 -0.5629 -1.6177
27955SOL     OW85586   3.069   2.670   2.484 -0.3342  0.6133  0.2882
27955SOL    HW185587   3.032   2.692   2.569 -1.2571  2.2226 -0.4790
27955SOL    HW285588   3.107   2.751   2.452 -2.7152  0.9596 -2.1245
27956SOL     OW85589   6.706   8.608   7.774 -0.1646  0.4880 -0.5429
27956SOL    HW185590   6.653   8.678   7.736  0.0798  0.8379 -0.2461
27956SOL    HW285591   6.744   8.647   7.853  0.0918  0.0677 -0.4571
27957SOL     OW85592   5.054   4.928   5.337  0.0804  0.0903  0.2459
27957SOL    HW185593   5.046   4.932   5.241  1.8095  2.9671  0.1088
27957SOL    HW285594   4.973   4.966   5.369 -0.1463 -0.1066 -0.0843
27958SOL     OW85595   0.934   8.566   4.398 -0.1845 -0.1820 -0.1219
27958SOL    HW185596   0.899   8.622   4.329 -0.8902  1.4541  1.4900
27958SOL    HW285597   0.978   8.625   4.458 -1.3557 -1.2327  1.8990
27959SOL     OW85598   6.330   1.697   2.156 -0.1818 -0.0787 -0.0603
27959SOL    HW185599   6.363   1.779   2.193 -0.2582 -0.2112  0.3034
27959SOL    HW285600   6.285   1.654   2.229 -0.6246 -0.1852 -0.3928
27960SOL     OW85601   4.541   8.435   6.360  0.1996 -0.0702  0.1900
27960SOL    HW185602   4.449   8.417   6.338  0.3805 -0.0044 -0.6528
27960SOL    HW285603   4.570   8.356   6.406  0.1249 -0.7033 -0.8113
27961SOL     OW85604   0.595   8.825   3.979  0.1220 -0.1290 -0.2547
27961SOL    HW185605   0.651   8.903   3.976 -0.0643 -0.0099 -2.7507
27961SOL    HW285606   0.595   8.792   3.889 -0.7969 -2.3210  0.4846
27962SOL     OW85607   8.742   6.115   6.617  0.5091 -0.3426 -0.2625
27962SOL    HW185608   8.796   6.194   6.615  0.7957 -0.5440 -0.8926
27962SOL    HW285609   8.751   6.082   6.707 -1.7608  1.7690  0.8347
27963SOL     OW85610   3.491   9.254   3.712 -0.0756  0.3003  0.0328
27963SOL    HW185611   3.541   9.188   3.664 -1.0365  0.5528 -1.4052
27963SOL    HW285612   3.494   9.225   3.803 -1.0859 -2.1860 -0.6343
27964SOL     OW85613   6.706   9.200   3.754  0.6529 -0.2405  0.1397
27964SOL    HW185614   6.768   9.229   3.686  0.4745 -1.8644 -0.7713
27964SOL    HW285615   6.684   9.280   3.802  1.8505  0.7231 -0.8371
27965SOL     OW85616   1.004   6.407   1.371  0.3869  0.6982 -0.4196
27965SOL    HW185617   0.951   6.411   1.291 -1.2555  0.6653  0.6279
27965SOL    HW285618   1.016   6.314   1.388  2.2371  0.6764 -1.5269
27966SOL     OW85619   3.573   7.843   8.075  0.4663 -0.1099 -0.0162
27966SOL    HW185620   3.652   7.842   8.130  0.1115 -1.7856  0.5182
27966SOL    HW285621   3.515   7.779   8.116 -0.1242 -0.8384 -1.9141
27967SOL     OW85622   8.626   7.341   2.527  0.1531  0.2061  0.5243
27967SOL    HW185623   8.543   7.352   2.480  0.4434  1.9754  0.3528
27967SOL    HW285624   8.631   7.417   2.585  1.3581 -0.2167  1.0171
27968SOL     OW85625   2.676   6.352   9.403  0.5707  0.3271 -0.2250
27968SOL    HW185626   2.669   6.447   9.413 -1.1424  0.9154 -4.6540
27968SOL    HW285627   2.751   6.340   9.344 -0.4867 -0.8541 -1.3764
27969SOL     OW85628   2.938   3.206   4.472  0.2858 -0.3867 -0.1349
27969SOL    HW185629   2.902   3.146   4.538  1.0798 -2.1485 -1.2096
27969SOL    HW285630   2.863   3.256   4.441 -0.1298  0.3952  1.9625
27970SOL     OW85631   3.565   3.272   7.982 -0.2169  0.5075 -0.0723
27970SOL    HW185632   3.504   3.313   7.921  0.3683  1.3236 -0.1201
27970SOL    HW285633   3.635   3.237   7.927 -0.1418  0.4502  0.0596
27971SOL     OW85634   2.757   0.239   6.189  0.3923 -0.3393 -0.4657
27971SOL    HW185635   2.675   0.265   6.147 -0.7535 -0.9495  1.3048
27971SOL    HW285636   2.763   0.145   6.174 -0.4226 -0.7137  1.2779
27972SOL     OW85637   4.134   5.974   8.468  0.5436 -1.1833  0.4994
27972SOL    HW185638   4.223   5.967   8.434  1.3874 -1.4291  2.5973
27972SOL    HW285639   4.115   5.887   8.503 -0.7198 -1.2528 -0.2990
27973SOL     OW85640   0.264   8.057   5.909  0.1775  0.2313  0.2294
27973SOL    HW185641   0.279   8.068   5.815 -0.1458 -0.1483  0.1320
27973SOL    HW285642   0.328   7.992   5.936 -0.8654 -0.9418 -0.0698
27974SOL     OW85643   9.003   5.152   0.889 -0.2052  0.0262  0.2821
27974SOL    HW185644   9.091   5.177   0.864 -0.2990 -2.2295 -2.8490
27974SOL    HW285645   8.953   5.234   0.886  1.1370  0.8392 -1.0554
27975SOL     OW85646   7.214   3.332   0.521 -0.4009  0.0427 -0.1729
27975SOL    HW185647   7.246   3.422   0.521 -0.5086  0.1508  2.1070
27975SOL    HW285648   7.238   3.297   0.435 -0.9723  2.4220 -1.3709
27976SOL     OW85649   3.073   3.423   8.916 -0.3681  0.3693 -0.7803
27976SOL    HW185650   2.997   3.421   8.975  0.3066  0.7140  0.1170
27976SOL    HW285651   3.132   3.356   8.950  0.9212  1.9139  0.2024
27977SOL     OW85652   6.578   0.011   2.858 -0.4002  0.0669 -0.3151
27977SOL    HW185653   6.639  -0.042   2.908  0.8043 -0.3685 -2.1567
27977SOL    HW285654   6.525   0.055   2.925  1.9520  0.5384  1.4022
27978SOL     OW85655   7.887   9.152   7.146  0.3555 -0.0684 -0.3228
27978SOL    HW185656   7.868   9.203   7.225 -0.0268 -1.4170  0.4979
27978SOL    HW285657   7.982   9.139   7.149  0.2453 -0.8197  0.3943
27979SOL     OW85658   6.494   6.231   1.421  0.3517  0.0599 -1.0270
27979SOL    HW185659   6.523   6.322   1.424  0.4119  0.0386  1.9181
27979SOL    HW285660   6.575   6.180   1.434  0.3229 -0.4646 -2.6641
27980SOL     OW85661   6.178   8.896   0.361  0.3201  0.0765 -0.0802
27980SOL    HW185662   6.177   8.939   0.446  1.2888  0.6173 -0.3320
27980SOL    HW285663   6.176   8.803   0.381 -2.3652  0.1688  0.4675
27981SOL     OW85664   3.612   5.434   9.062  0.1047  0.1137  0.1566
27981SOL    HW185665   3.580   5.356   9.017 -0.5701  0.5976 -0.2102
27981SOL    HW285666   3.537   5.467   9.111  0.4077  0.4927  0.3730
27982SOL     OW85667   7.929   1.132   5.469 -0.3517 -0.3059 -0.1498
27982SOL    HW185668   7.900   1.216   5.504  0.6622  0.3495 -0.8336
27982SOL    HW285669   7.980   1.093   5.540 -0.2415 -0.0266 -0.0751
27983SOL     OW85670   2.822   7.518   9.626 -0.1530 -0.5764  0.2199
27983SOL    HW185671   2.797   7.607   9.602 -1.9320 -0.5528  1.9088
27983SOL    HW285672   2.814   7.468   9.544 -1.6489  0.3153 -0.2120
27984SOL     OW85673   0.111   4.378   4.527 -0.0973 -0.4915  0.4656
27984SOL    HW185674   0.042   4.388   4.592  0.0194 -0.0159  0.5186
27984SOL    HW285675   0.067   4.341   4.450 -0.8154  1.6451 -0.2049
27985SOL     OW85676   7.068   7.551   4.732 -0.0395  0.0816  0.0507
27985SOL    HW185677   7.069   7.550   4.828  0.1455  0.7044  0.0595
27985SOL    HW285678   7.105   7.635   4.708 -0.4341  0.0913 -0.5676
27986SOL     OW85679   2.466   6.912   1.949  0.2271 -0.4330  0.4260
27986SOL    HW185680   2.415   6.835   1.925 -0.8229  0.4887 -0.3587
27986SOL    HW285681   2.556   6.890   1.923 -0.0804 -1.3277  0.0857
27987SOL     OW85682   8.365   0.173   0.159  0.0773  0.3039  0.6378
27987SOL    HW185683   8.443   0.167   0.214 -1.2233 -0.2406  2.5179
27987SOL    HW285684   8.350   0.083   0.128  1.0128  0.6693 -0.9836
27988SOL     OW85685   5.749   1.239   5.697  0.6836  0.5073 -0.2534
27988SOL    HW185686   5.740   1.147   5.722  0.2930  0.9069  1.1677
27988SOL    HW285687   5.832   1.266   5.735  0.8544  0.7247 -0.7697
27989SOL     OW85688   7.282   6.874   3.484 -0.2296 -0.8006  0.2313
27989SOL    HW185689   7.234   6.919   3.554 -0.3516 -0.6484  0.0504
27989SOL    HW285690   7.358   6.835   3.529 -2.1262 -3.7713  1.1273
27990SOL     OW85691   8.908   8.824   0.831  0.3458 -0.1463 -0.2454
27990SOL    HW185692   8.888   8.894   0.894 -0.8921 -0.4539 -0.2598
27990SOL    HW285693   8.904   8.868   0.746  1.4073  0.1410 -0.1541
27991SOL     OW85694   0.596   2.192   4.335  0.2201  0.5088 -0.5613
27991SOL    HW185695   0.631   2.153   4.416  0.3979  0.4764 -0.6539
27991SOL    HW285696   0.570   2.281   4.360  0.0046  0.4022 -0.3976
27992SOL     OW85697   5.422   1.681   0.184 -0.0981  0.2888  0.3552
27992SOL    HW185698   5.341   1.634   0.161  1.5887 -2.2686 -0.8737
27992SOL    HW285699   5.465   1.696   0.100  1.5126 -0.0289  1.0967
27993SOL     OW85700   8.613   5.014   2.361  0.5174  0.0486 -0.5434
27993SOL    HW185701   8.683   5.070   2.327  1.6121 -0.4440  0.7773
27993SOL    HW285702   8.550   5.075   2.400  1.6701  0.4170  0.8359
27994SOL     OW85703   2.873   6.295   0.028 -0.1766  0.2693  0.2718
27994SOL    HW185704   2.794   6.240   0.024  0.3519 -0.4582 -0.4620
27994SOL    HW285705   2.840   6.383   0.044 -1.0560 -0.2291  1.2919
27995SOL     OW85706   7.168   6.227   5.848  0.0651 -0.3561 -0.4730
27995SOL    HW185707   7.090   6.179   5.876 -0.4147  0.0781 -1.0670
27995SOL    HW285708   7.137   6.291   5.785  0.5087  1.5615  1.1380
27996SOL     OW85709   8.150   2.102   7.767 -0.2012  0.3010 -0.0067
27996SOL    HW185710   8.102   2.160   7.827  0.4980 -0.0902  0.9390
27996SOL    HW285711   8.235   2.144   7.758 -0.2346  0.2468 -0.5783
27997SOL     OW85712   1.931   1.129   3.399  0.5334  0.2992  0.3400
27997SOL    HW185713   1.932   1.160   3.309  1.1397 -0.9085 -0.0978
27997SOL    HW285714   1.937   1.033   3.391  1.0493  0.2030  1.6675
27998SOL     OW85715   1.477   8.038   0.159  0.6182 -0.1730  0.1492
27998SOL    HW185716   1.389   8.002   0.165  0.0311  0.5945 -2.5821
27998SOL    HW285717   1.534   7.961   0.156  0.4227 -0.7176  4.2555
27999SOL     OW85718   0.690   8.932   5.411 -0.2153  0.0579 -0.2435
27999SOL    HW185719   0.730   8.974   5.487 -0.0501  0.6688 -0.6638
27999SOL    HW285720   0.721   8.841   5.416 -0.2429  0.0771  0.4428
28000SOL     OW85721   4.875   1.410   4.839  0.2813 -0.2224  0.4808
28000SOL    HW185722   4.815   1.429   4.767  0.5030 -0.7802  0.1400
28000SOL    HW285723   4.891   1.315   4.833  1.0657 -0.1141  0.6587
28001SOL     OW85724   2.662   0.321   3.795 -0.2353 -0.3675 -0.1463
28001SOL    HW185725   2.661   0.256   3.724 -0.3764  0.0550 -0.5345
28001SOL    HW285726   2.570   0.338   3.813 -0.1993 -0.5317  0.1961
28002SOL     OW85727   0.710   6.084   0.531  0.6493 -0.0784 -0.2535
28002SOL    HW185728   0.766   6.105   0.456  0.1910 -2.6802 -1.4608
28002SOL    HW285729   0.636   6.036   0.493 -2.2009  2.6795  1.3467
28003SOL     OW85730   9.285   7.053   9.155 -0.2719  0.0545 -0.2175
28003SOL    HW185731   9.204   7.047   9.205 -0.0294 -0.7047  0.0950
28003SOL    HW285732   9.331   7.128   9.193 -0.3334 -0.1883  0.3418
28004SOL     OW85733   6.204   4.829   1.321  0.7596  0.1412  0.4448
28004SOL    HW185734   6.201   4.886   1.245  2.1719  0.4385  0.5893
28004SOL    HW285735   6.269   4.762   1.300 -1.7759 -2.3226 -0.2753
28005SOL     OW85736   9.052   1.344   5.614  0.2866 -0.0251 -0.1003
28005SOL    HW185737   9.057   1.344   5.709  0.7443  2.6929 -0.0487
28005SOL    HW285738   8.980   1.285   5.594 -0.5867  0.2454  2.0039
28006SOL     OW85739   4.949   3.224   3.624  0.0525  0.0592 -0.0951
28006SOL    HW185740   4.881   3.198   3.686 -1.7858  0.2719 -1.9066
28006SOL    HW285741   4.950   3.154   3.559  1.6798  0.0078 -0.0388
28007SOL     OW85742   5.551   7.743   6.877 -0.3816  0.0010  0.4025
28007SOL    HW185743   5.555   7.834   6.846  1.8316 -0.0975  0.1918
28007SOL    HW285744   5.628   7.702   6.838 -0.8971 -1.7647  1.1520
28008SOL     OW85745   1.621   2.750   2.360 -0.0039  0.2165  0.0368
28008SOL    HW185746   1.657   2.773   2.445 -0.3270  1.2491 -0.0788
28008SOL    HW285747   1.585   2.662   2.371 -0.4206  0.5033  1.0911
28009SOL     OW85748   7.610   0.815   6.940  0.1158  0.2608 -0.3452
28009SOL    HW185749   7.590   0.749   7.005 -1.5311  1.8718  0.8960
28009SOL    HW285750   7.696   0.849   6.965 -0.5188  0.8979  1.0953
28010SOL     OW85751   9.116   1.473   4.681 -0.3903 -0.5362 -0.0470
28010SOL    HW185752   9.044   1.481   4.744 -0.3118 -0.8473  0.0811
28010SOL    HW285753   9.073   1.450   4.598 -0.3365 -1.9129  0.2946
28011SOL     OW85754   9.634   4.400   6.564  0.1626  0.0436  0.3700
28011SOL    HW185755   9.674   4.385   6.650  1.0556 -0.4998 -0.1243
28011SOL    HW285756   9.593   4.316   6.543  1.6610 -0.4949 -0.5940
28012SOL     OW85757   2.103   3.241   3.625 -0.1124 -0.9245 -0.4729
28012SOL    HW185758   2.032   3.249   3.689  0.5200  0.8620  0.0559
28012SOL    HW285759   2.074   3.172   3.566 -2.9018  0.5485 -1.0024
28013SOL     OW85760   8.729   9.224   9.391 -0.3440  0.1995  0.1867
28013SOL    HW185761   8.678   9.290   9.438 -0.1897 -0.3509  1.1306
28013SOL    HW285762   8.801   9.202   9.450  0.0939 -0.1890 -0.4817
28014SOL     OW85763   9.526   3.369   0.071 -0.0523 -0.5215  0.6354
28014SOL    HW185764   9.457   3.436   0.063 -0.9365 -1.3059  1.3923
28014SOL    HW285765   9.575   3.395   0.149  0.0898 -0.3244  0.4791
28015SOL     OW85766   6.766   3.270   4.534  0.5082  0.1088  0.0840
28015SOL    HW185767   6.728   3.332   4.597  2.8146 -0.4310  2.1526
28015SOL    HW285768   6.747   3.184   4.571 -0.9792 -0.4412 -1.7741
28016SOL     OW85769   7.580   8.003   5.517  0.0921  0.2091 -0.2885
28016SOL    HW185770   7.599   8.009   5.611 -0.1582  1.9896 -0.3082
28016SOL    HW285771   7.572   8.095   5.489 -0.5876 -0.3099 -1.8940
28017SOL     OW85772   6.781   8.925   6.452 -0.6466 -0.6916  0.2152
28017SOL    HW185773   6.700   8.920   6.402 -0.6802  0.6617  0.0838
28017SOL    HW285774   6.784   9.015   6.484  1.1901 -0.4661 -0.4596
28018SOL     OW85775   2.677   7.566   3.466  0.3605  0.1705  0.6748
28018SOL    HW185776   2.671   7.515   3.547  2.4374 -0.2752  0.6218
28018SOL    HW285777   2.731   7.642   3.490 -0.3449  0.8721  0.0746
28019SOL     OW85778   2.500   5.222   0.164  0.2850 -0.1015  0.1068
28019SOL    HW185779   2.544   5.214   0.080  1.0008  1.1881  0.3392
28019SOL    HW285780   2.570   5.232   0.228 -0.2758 -0.0777  0.7392
28020SOL     OW85781   2.326   7.750   6.495  0.2882  0.6601 -0.2690
28020SOL    HW185782   2.263   7.808   6.539 -0.4872 -0.9396  0.8193
28020SOL    HW285783   2.304   7.662   6.527  2.3743 -0.0769 -0.7407
28021SOL     OW85784   0.930   4.218   7.616 -0.6223  0.9867 -0.2828
28021SOL    HW185785   0.927   4.210   7.520  0.1827 -1.5261 -0.1853
28021SOL    HW285786   1.017   4.187   7.640 -1.5034 -0.3782  1.3713
28022SOL     OW85787   4.607   5.919   1.743 -0.1938 -0.7472 -0.4497
28022SOL    HW185788   4.528   5.871   1.719 -0.2446 -0.5462 -0.7000
28022SOL    HW285789   4.678   5.872   1.699 -0.2235 -0.6889 -0.5598
28023SOL     OW85790   6.140   5.627   7.230  0.2501  0.1879 -0.0747
28023SOL    HW185791   6.100   5.541   7.218 -4.2687  2.3201 -2.9160
28023SOL    HW285792   6.091   5.666   7.301  1.1684  1.0371  0.1115
28024SOL     OW85793   8.766   0.338   0.931 -0.2778  0.2493  0.2802
28024SOL    HW185794   8.853   0.342   0.972 -0.8151 -0.6854  1.5698
28024SOL    HW285795   8.782   0.362   0.840  1.1007  1.5234  0.8195
28025SOL     OW85796   7.631   9.184   5.147  0.0765 -0.1049  0.5393
28025SOL    HW185797   7.661   9.203   5.058  0.4017  0.2810  0.7210
28025SOL    HW285798   7.711   9.190   5.200 -0.0024 -0.9727  0.7640
28026SOL     OW85799   2.291   0.094   7.462  0.2432 -0.1942  0.0459
28026SOL    HW185800   2.206   0.125   7.491 -0.6954 -3.2185  0.8235
28026SOL    HW285801   2.288   0.102   7.367 -1.1616 -0.7801  0.0190
28027SOL     OW85802   6.280   7.893   6.775  0.3998 -0.2770  0.2829
28027SOL    HW185803   6.233   7.974   6.753  1.2089 -0.8964 -4.9058
28027SOL    HW285804   6.210   7.831   6.795 -0.6215  0.4361 -0.8882
28028SOL     OW85805   9.293   0.334   2.818 -0.4443 -0.2431  0.0295
28028SOL    HW185806   9.364   0.271   2.804 -0.6164 -0.0730 -1.7854
28028SOL    HW285807   9.243   0.333   2.736 -1.0665  1.4766  0.3490
28029SOL     OW85808   6.269   0.141   3.902 -0.8624 -0.2665  0.0923
28029SOL    HW185809   6.298   0.070   3.845  0.2901  1.5803 -1.7245
28029SOL    HW285810   6.349   0.175   3.941 -1.4680 -0.3016  1.4627
28030SOL     OW85811   5.925   8.767   1.461 -0.8702 -0.1169 -0.1327
28030SOL    HW185812   5.871   8.844   1.479  0.5257  0.6875  0.7642
28030SOL    HW285813   5.987   8.763   1.534 -0.2359 -1.4845 -0.7109
28031SOL     OW85814   0.446   7.735   0.655 -0.0751  0.1590 -0.1066
28031SOL    HW185815   0.444   7.718   0.749 -1.0199  1.1550  0.0738
28031SOL    HW285816   0.362   7.777   0.637 -0.3453 -0.9440 -1.5911
28032SOL     OW85817   7.944   1.573   0.415 -0.9193  0.2347 -0.5773
28032SOL    HW185818   7.952   1.492   0.365  0.4150 -2.0954  2.9618
28032SOL    HW285819   7.850   1.593   0.413 -0.9030  0.5604 -4.1129
28033SOL     OW85820   1.046   0.537   0.880  0.0571  0.3790 -0.1202
28033SOL    HW185821   1.033   0.536   0.975  0.9254 -2.8931  0.0816
28033SOL    HW285822   0.978   0.478   0.846  2.0821 -1.5551 -1.0437
28034SOL     OW85823   6.018   7.854   2.623  0.3036  0.1616  0.8144
28034SOL    HW185824   6.006   7.913   2.549 -0.2167 -1.4641 -0.4440
28034SOL    HW285825   5.934   7.809   2.632  1.1065 -1.3778  0.8479
28035SOL     OW85826   5.342   5.923   2.340  0.4370 -0.2133  0.6327
28035SOL    HW185827   5.345   5.893   2.431  0.3873 -0.5828  0.5110
28035SOL    HW285828   5.250   5.946   2.325  0.1201 -1.7161  0.1690
28036SOL     OW85829   7.501   8.287   1.248 -0.0741  0.1969  0.2017
28036SOL    HW185830   7.573   8.336   1.286  0.0183  0.1815  0.0490
28036SOL    HW285831   7.480   8.220   1.313  0.0378  0.2120  0.2525
28037SOL     OW85832   9.663   5.474   5.194  0.1838 -0.0573 -0.4007
28037SOL    HW185833   9.744   5.426   5.209 -0.5490 -0.8053  1.4574
28037SOL    HW285834   9.627   5.490   5.281 -2.7979 -1.7491 -1.1489
28038SOL     OW85835   7.792   1.845   3.419 -0.3425 -0.5519 -0.3352
28038SOL    HW185836   7.823   1.899   3.346 -1.1617  0.3566 -0.0301
28038SOL    HW285837   7.700   1.871   3.431 -0.9539 -2.4340 -0.5538
28039SOL     OW85838   8.507   1.890   4.930 -0.1040 -0.5154 -0.1098
28039SOL    HW185839   8.530   1.933   4.848 -0.7527  0.7275  0.3415
28039SOL    HW285840   8.448   1.819   4.903  0.4641 -0.7390 -0.7982
28040SOL     OW85841   0.829   7.633   3.234  0.0073 -0.2471  0.0247
28040SOL    HW185842   0.866   7.643   3.146  1.5569 -0.1881  0.6456
28040SOL    HW285843   0.815   7.723   3.264 -0.5652 -0.2685 -0.1813
28041SOL     OW85844   8.111   0.993   9.276  0.1171  0.3436  0.0223
28041SOL    HW185845   8.081   1.040   9.198 -1.2061 -1.2598 -0.4992
28041SOL    HW285846   8.038   1.000   9.338  0.9222  1.0962  0.9209
28042SOL     OW85847   5.451   0.131   3.222  0.2395 -0.5870 -0.4874
28042SOL    HW185848   5.379   0.175   3.266 -0.7307 -1.5916 -1.0194
28042SOL    HW285849   5.481   0.065   3.285  0.0559 -0.8063 -0.6277
28043SOL     OW85850   6.943   2.474   6.780  0.1006  0.2856 -0.1965
28043SOL    HW185851   6.987   2.539   6.835  0.4900  0.5593 -0.8214
28043SOL    HW285852   7.014   2.434   6.730 -0.4325  1.4046 -1.9319
28044SOL     OW85853   8.708   4.677   7.000 -0.4438  0.6077  0.1017
28044SOL    HW185854   8.742   4.590   6.976 -0.4721  0.8492 -0.8447
28044SOL    HW285855   8.764   4.704   7.074  0.2437  0.2254 -0.2628
28045SOL     OW85856   5.591   1.497   7.856  0.4130  0.9106  0.1917
28045SOL    HW185857   5.533   1.570   7.875 -1.0366  0.2830 -1.5334
28045SOL    HW285858   5.593   1.492   7.760 -0.7854 -2.2081  0.2108
28046SOL     OW85859   6.346   5.004   4.023  0.0068  0.3170 -0.3272
28046SOL    HW185860   6.268   5.046   4.059 -0.2261 -0.4314  0.0444
28046SOL    HW285861   6.413   5.014   4.091 -0.2190 -0.4292  0.0122
28047SOL     OW85862   2.974   9.633   5.703  0.2970  0.3504 -0.2533
28047SOL    HW185863   3.048   9.669   5.751 -0.5562  0.8779  0.7117
28047SOL    HW285864   2.957   9.696   5.634  1.5657 -0.4378 -1.3369
28048SOL     OW85865   3.416   9.083   6.915 -0.3225 -0.3654 -0.1875
28048SOL    HW185866   3.373   9.009   6.957  0.3852 -0.9661 -0.5000
28048SOL    HW285867   3.345   9.129   6.870 -0.5753 -1.7251 -1.2644
28049SOL     OW85868   8.250   5.155   6.217  0.0041 -0.1287 -0.2921
28049SOL    HW185869   8.291   5.237   6.190 -0.8189 -0.4059 -2.5783
28049SOL    HW285870   8.257   5.155   6.312  4.1357  0.4126 -0.4197
28050SOL     OW85871   0.775   6.972   6.486  0.0101 -0.1028 -0.0092
28050SOL    HW185872   0.733   7.053   6.458  1.2928  0.0093 -1.8083
28050SOL    HW285873   0.862   6.999   6.514  0.4815 -0.8343 -0.7112
28051SOL     OW85874   4.799   1.477   7.675 -0.2076 -0.1700  0.7049
28051SOL    HW185875   4.758   1.556   7.709  1.7641  1.1660  0.1291
28051SOL    HW285876   4.830   1.431   7.753  0.3047  0.5987  0.9672
28052SOL     OW85877   3.359   5.932   8.818  0.6037  0.3578  0.0400
28052SOL    HW185878   3.359   5.919   8.913  1.6031  2.6060  0.3960
28052SOL    HW285879   3.300   5.864   8.785  2.3138 -2.2459  1.9666
28053SOL     OW85880   7.125   1.868   3.780 -0.5751  0.5554 -0.2821
28053SOL    HW185881   7.181   1.810   3.729 -0.0064 -0.5574  1.5308
28053SOL    HW285882   7.182   1.904   3.847 -1.2418  2.2203 -0.5629
28054SOL     OW85883   3.465   0.145   5.369 -0.5429  0.0736 -0.7080
28054SOL    HW185884   3.516   0.131   5.449 -0.7005  0.4100 -0.5502
28054SOL    HW285885   3.401   0.074   5.368  1.2571 -1.6599 -1.9858
28055SOL     OW85886   6.767   2.704   8.795  0.1401 -0.1913  0.0427
28055SOL    HW185887   6.694   2.647   8.818 -0.3872  1.0326  1.5265
28055SOL    HW285888   6.735   2.755   8.720 -0.2568 -0.1505  0.2392
28056SOL     OW85889   2.402   1.701   4.806  0.1565  1.0430 -0.2050
28056SOL    HW185890   2.470   1.746   4.856  0.9847 -1.1547  0.7877
28056SOL    HW285891   2.422   1.721   4.714  2.2542  0.3770  0.0590
28057SOL     OW85892   2.372   8.603   8.366 -0.0895  0.1193 -0.0200
28057SOL    HW185893   2.453   8.556   8.346 -0.1125 -0.1273  0.4390
28057SOL    HW285894   2.302   8.543   8.341 -0.1318  0.2997 -0.3401
28058SOL     OW85895   2.872   9.481   4.408  0.1989 -0.3400 -0.5607
28058SOL    HW185896   2.905   9.391   4.403  2.5667  0.1032  2.9866
28058SOL    HW285897   2.902   9.522   4.327  0.1411 -2.3777 -1.6979
28059SOL     OW85898   8.144   0.288   2.079 -0.1819 -0.2934 -0.1076
28059SOL    HW185899   8.113   0.237   2.004 -2.8999  0.6859  0.2546
28059SOL    HW285900   8.194   0.360   2.040  0.2827 -0.9890 -0.8258
28060SOL     OW85901   6.299   5.045   7.186 -0.0411 -0.5289 -0.0784
28060SOL    HW185902   6.332   5.111   7.247  1.1636  0.8084 -2.0335
28060SOL    HW285903   6.220   5.011   7.227 -0.3302  1.6534  1.3299
28061SOL     OW85904   5.382   3.754   4.542 -0.2064  0.1583  0.7812
28061SOL    HW185905   5.471   3.787   4.527  0.8081 -1.9452  1.6874
28061SOL    HW285906   5.367   3.693   4.470 -1.4537  1.3724 -0.0433
28062SOL     OW85907   8.611   0.195   5.549  0.3803  0.5208 -0.3702
28062SOL    HW185908   8.582   0.218   5.637 -0.0177  0.0975 -0.3894
28062SOL    HW285909   8.689   0.140   5.562  0.0608  0.0903 -0.2703
28063SOL     OW85910   8.526   3.337   2.775 -0.0067  0.2023  0.6222
28063SOL    HW185911   8.469   3.307   2.704  0.2684  0.7983  0.1392
28063SOL    HW285912   8.466   3.378   2.838 -0.1035  1.0115  0.0196
28064SOL     OW85913   8.510   1.983   1.726 -0.3254 -0.4391  0.3736
28064SOL    HW185914   8.492   1.966   1.633 -1.1016  0.4079  0.3495
28064SOL    HW285915   8.535   1.898   1.762 -0.9817 -0.9736 -0.3988
28065SOL     OW85916   1.348   0.152   9.582 -0.1852  0.3446 -0.4906
28065SOL    HW185917   1.374   0.131   9.672  0.2753 -0.0294 -0.7074
28065SOL    HW285918   1.306   0.073   9.550  1.2006 -0.1583 -1.1753
28066SOL     OW85919   6.787   1.087   5.833 -0.0690  0.0115  0.0206
28066SOL    HW185920   6.707   1.043   5.864 -0.7644  0.0031 -1.6460
28066SOL    HW285921   6.779   1.085   5.737  0.6194  2.4158 -0.1491
28067SOL     OW85922   7.513   4.074   7.116  0.1670  0.1292  0.1478
28067SOL    HW185923   7.444   4.135   7.093  1.3549  1.5122  0.1421
28067SOL    HW285924   7.468   4.002   7.160 -1.3219  0.7103 -0.3921
28068SOL     OW85925   4.171   0.582   6.152  0.1974 -0.6719 -0.1950
28068SOL    HW185926   4.138   0.541   6.232  1.2516  1.1252  1.2702
28068SOL    HW285927   4.136   0.671   6.155  3.5218  0.7867  0.5610
28069SOL     OW85928   0.025   3.918   6.562  0.3289 -0.2107  0.1307
28069SOL    HW185929   0.031   3.904   6.656  0.6928  2.9898  0.6980
28069SOL    HW285930  -0.068   3.923   6.544  0.2694  0.2520  0.5432
28070SOL     OW85931   8.340   2.018   6.405  0.2923 -0.0945  0.4884
28070SOL    HW185932   8.299   2.103   6.423 -0.1636 -0.7334  2.7343
28070SOL    HW285933   8.383   1.995   6.488  2.5333 -0.9312 -0.8268
28071SOL     OW85934   7.759   0.896   1.772 -0.3228  0.3211  0.5903
28071SOL    HW185935   7.761   0.847   1.689  1.4531 -0.4405  1.0336
28071SOL    HW285936   7.679   0.949   1.767  0.7011  1.7801 -2.4431
28072SOL     OW85937   5.702   3.056   0.760  0.3002 -0.6743  0.0150
28072SOL    HW185938   5.623   3.088   0.714 -0.4810 -1.9631  0.4139
28072SOL    HW285939   5.738   3.134   0.802 -0.8536 -0.0789 -0.0548
28073SOL     OW85940   5.750   5.883   7.008 -0.2719  0.2041 -0.4251
28073SOL    HW185941   5.661   5.854   7.030 -0.9404  0.7285 -2.2129
28073SOL    HW285942   5.747   5.979   7.017 -0.1134  0.2871 -1.1803
28074SOL     OW85943   9.013   8.175   5.286 -0.4766  0.1506  0.0438
28074SOL    HW185944   8.954   8.143   5.354  0.6050 -0.7084  0.6099
28074SOL    HW285945   9.088   8.115   5.289 -0.1261  0.4779 -1.4844
28075SOL     OW85946   2.090   0.660   7.106  0.4483 -0.4676 -0.3247
28075SOL    HW185947   2.158   0.726   7.092 -1.6170  1.1616 -3.8170
28075SOL    HW285948   2.138   0.579   7.119  3.0590  1.2801  2.4231
28076SOL     OW85949   5.370   2.699   2.990 -0.4484 -0.0252  0.5024
28076SOL    HW185950   5.460   2.732   2.989 -0.5713  0.3084 -0.1892
28076SOL    HW285951   5.363   2.645   2.911 -0.9211  0.1352  0.4323
28077SOL     OW85952   9.447   3.893   8.844  0.0672  0.4966  0.2133
28077SOL    HW185953   9.409   3.930   8.764  1.4534  0.4041 -0.5213
28077SOL    HW285954   9.491   3.813   8.814  0.4262  0.3503  1.1111
28078SOL     OW85955   7.019   6.810   2.326 -0.1781 -0.1580 -0.4672
28078SOL    HW185956   7.038   6.763   2.407 -1.2458 -0.1253 -0.1860
28078SOL    HW285957   6.925   6.825   2.328 -0.0445  0.9017 -1.1414
28079SOL     OW85958   2.781   4.286   4.218 -0.0691  0.6868  0.2306
28079SOL    HW185959   2.743   4.304   4.131 -0.7236  0.2071  0.4107
28079SOL    HW285960   2.711   4.310   4.279 -0.3539 -0.8731  0.5435
28080SOL     OW85961   1.833   7.071   4.954 -0.2996 -0.6481  0.3225
28080SOL    HW185962   1.756   7.095   5.005 -0.6792 -0.3067 -0.3980
28080SOL    HW285963   1.839   7.137   4.886 -1.4183 -2.5606 -1.7732
28081SOL     OW85964   1.404   0.314   5.971  0.3675 -0.0001 -0.5089
28081SOL    HW185965   1.429   0.273   6.054  3.8248 -0.5204 -1.6286
28081SOL    HW285966   1.345   0.251   5.929  1.6807 -1.5783 -0.0721
28082SOL     OW85967   6.948   0.290   4.917  0.1337 -0.2630 -1.0432
28082SOL    HW185968   6.950   0.367   4.860  0.2824 -0.1905 -0.9429
28082SOL    HW285969   7.022   0.237   4.890  1.3659  0.6755  0.3024
28083SOL     OW85970   6.379   6.333   6.500 -0.0343  0.7285  0.0642
28083SOL    HW185971   6.431   6.355   6.423  0.6022  1.7996  0.7821
28083SOL    HW285972   6.296   6.302   6.464 -0.2788  2.5470 -1.0500
28084SOL     OW85973   4.886   1.471   6.014  0.4501  0.1409  0.0666
28084SOL    HW185974   4.944   1.396   5.998  1.2775  0.4322  1.5072
28084SOL    HW285975   4.900   1.528   5.939 -0.6004 -1.3556 -1.3295
28085SOL     OW85976   2.471   7.711   9.223  0.6406  0.8437 -0.1608
28085SOL    HW185977   2.420   7.785   9.189 -0.1741  0.1496 -0.4939
28085SOL    HW285978   2.470   7.646   9.152  0.3587  0.0536  0.5524
28086SOL     OW85979   8.218   7.586   3.231  0.3431  0.1232  0.2887
28086SOL    HW185980   8.154   7.590   3.160  1.2228 -4.0489 -1.0416
28086SOL    HW285981   8.295   7.631   3.196  0.8205 -2.0042 -1.6578
28087SOL     OW85982   0.715   7.956   4.248  0.4018  0.0394 -0.3910
28087SOL    HW185983   0.700   7.921   4.336  0.6291  0.3698 -0.2178
28087SOL    HW285984   0.680   8.045   4.251 -0.9726 -0.4461 -1.0833
28088SOL     OW85985   4.592   6.826   7.401  0.8063  0.2863  0.5488
28088SOL    HW185986   4.548   6.863   7.325  2.2757 -1.3199 -1.2151
28088SOL    HW285987   4.648   6.896   7.434 -0.1262  1.1147  0.4073
28089SOL     OW85988   2.642   8.026   8.765 -0.2363 -0.1410 -0.2336
28089SOL    HW185989   2.729   8.011   8.728  0.3190  0.1975  0.9025
28089SOL    HW285990   2.595   7.945   8.747  0.6797 -0.7737  0.1382
28090SOL     OW85991   0.750   5.475   3.856  0.2596 -0.6735 -0.3184
28090SOL    HW185992   0.845   5.488   3.854  0.2456 -0.3323  0.7340
28090SOL    HW285993   0.734   5.428   3.938 -0.4573 -0.9246 -0.5962
28091SOL     OW85994   9.207   4.561   6.483  0.2964 -0.4310 -0.0240
28091SOL    HW185995   9.245   4.477   6.511  0.7787 -0.6779 -1.3504
28091SOL    HW285996   9.190   4.550   6.389 -0.6077  0.6079 -0.0041
28092SOL     OW85997   4.050   0.475   1.395  0.2260 -0.2959  0.1387
28092SOL    HW185998   4.027   0.547   1.454 -4.0024 -0.2841 -1.2015
28092SOL    HW285999   4.084   0.407   1.453 -0.3670  0.9934  2.1104
28093SOL     OW86000   2.195   5.720   0.598  0.8649 -0.4042 -0.0228
28093SOL    HW186001   2.215   5.751   0.686  2.2806 -0.7088 -0.2084
28093SOL    HW286002   2.279   5.722   0.552  0.1472 -0.2133 -1.3879
28094SOL     OW86003   1.999   3.183   5.567 -0.4755  0.4442 -0.6673
28094SOL    HW186004   1.992   3.151   5.477 -0.1355 -1.9681  0.0827
28094SOL    HW286005   2.092   3.202   5.578 -0.6426  1.5792 -1.0411
28095SOL     OW86006   5.272   6.482   7.192 -0.0148 -0.0177 -0.1977
28095SOL    HW186007   5.341   6.501   7.255 -0.9340  1.7265  0.3608
28095SOL    HW286008   5.288   6.543   7.120 -1.1764  0.7146  0.1313
28096SOL     OW86009   9.428   7.036   6.161  0.5800  0.5768 -0.7181
28096SOL    HW186010   9.505   7.078   6.200  0.3674  0.4819 -0.1863
28096SOL    HW286011   9.404   7.093   6.087 -0.5196  2.1601  0.7820
28097SOL     OW86012   6.305   1.737   2.467 -0.4402 -0.2916 -0.5455
28097SOL    HW186013   6.269   1.657   2.428  0.6744 -1.1747  0.1714
28097SOL    HW286014   6.333   1.710   2.555 -1.3047  1.2279  0.2515
28098SOL     OW86015   1.958   7.409   8.630 -1.1187 -0.2698  0.3433
28098SOL    HW186016   2.015   7.334   8.646 -1.1734 -0.2234  0.7941
28098SOL    HW286017   1.871   7.378   8.654 -1.2456 -0.2654 -0.1077
28099SOL     OW86018   5.061   0.795   2.347 -0.2211  0.3633  0.6657
28099SOL    HW186019   5.086   0.768   2.435  0.4309 -1.7947 -0.1257
28099SOL    HW286020   4.968   0.816   2.354 -0.4519 -0.8747  1.6396
28100SOL     OW86021   7.034   9.441   7.156  0.0450  0.2598 -0.4393
28100SOL    HW186022   7.054   9.517   7.102 -1.0892  0.2025 -0.9629
28100SOL    HW286023   7.035   9.474   7.246  1.7724  0.3922 -0.4728
28101SOL     OW86024   7.892   4.496   1.777  0.1617 -0.1087 -0.4363
28101SOL    HW186025   7.953   4.567   1.796  0.0024  0.0319 -0.4564
28101SOL    HW286026   7.816   4.539   1.737  0.7816 -0.4561 -2.0803
28102SOL     OW86027   5.718   0.981   8.720 -0.2537  0.1803  0.1044
28102SOL    HW186028   5.749   1.070   8.738 -0.1312  0.1036  0.2765
28102SOL    HW286029   5.632   0.976   8.761 -1.6997  1.2493 -2.5998
28103SOL     OW86030   7.835   4.887   3.230 -0.4641 -0.8409 -0.0443
28103SOL    HW186031   7.754   4.841   3.250 -1.6236  1.2899  0.4511
28103SOL    HW286032   7.851   4.868   3.137 -1.1546 -1.8155  0.0256
28104SOL     OW86033   4.660   1.209   5.060 -0.5949  0.3917 -0.1412
28104SOL    HW186034   4.735   1.170   5.014  0.0032  2.0585 -0.6644
28104SOL    HW286035   4.627   1.140   5.117  2.0067 -0.0821  0.8954
28105SOL     OW86036   9.184   3.542   8.348 -0.0989  0.0940 -0.6364
28105SOL    HW186037   9.265   3.561   8.395 -1.6185  1.2522  1.7279
28105SOL    HW286038   9.184   3.604   8.275 -1.3807  4.5224  2.6210
28106SOL     OW86039   6.956   3.779   5.340 -0.0720  0.2408 -0.4637
28106SOL    HW186040   6.892   3.822   5.284 -3.0423 -1.7310  1.1286
28106SOL    HW286041   6.969   3.840   5.413  2.0645  1.8042 -2.0194
28107SOL     OW86042   6.021   0.234   3.836  0.0881  0.2043 -0.6583
28107SOL    HW186043   6.115   0.222   3.851 -0.1842 -0.7797  0.4105
28107SOL    HW286044   5.984   0.246   3.923 -0.9043 -0.4345 -0.9748
28108SOL     OW86045   0.782   3.584   0.299 -0.0820 -0.5030  0.0719
28108SOL    HW186046   0.765   3.657   0.358  0.6345 -0.0096 -0.3174
28108SOL    HW286047   0.760   3.618   0.212 -0.7745 -1.1019  0.0042
28109SOL     OW86048   7.015   3.921   2.218  0.1862  0.0020  0.2889
28109SOL    HW186049   6.929   3.905   2.256 -0.5501  0.2870 -1.1778
28109SOL    HW286050   7.019   4.016   2.206 -0.1998 -0.1835 -1.6099
28110SOL     OW86051   3.814   5.742   0.688 -0.0207 -0.1041  0.6151
28110SOL    HW186052   3.865   5.818   0.658  1.3120 -1.3113 -0.2685
28110SOL    HW286053   3.724   5.764   0.666  0.6800 -0.1318 -2.7333
28111SOL     OW86054   8.078   7.345   3.227  0.8068 -0.2530 -0.0496
28111SOL    HW186055   8.008   7.325   3.165  0.2838  1.5284 -0.1027
28111SOL    HW286056   8.114   7.428   3.196  0.0295  1.0972  2.3870
28112SOL     OW86057   2.446   3.393   3.998  0.9908  0.0249  0.2841
28112SOL    HW186058   2.451   3.409   3.904 -0.0958  3.5885  0.6798
28112SOL    HW286059   2.359   3.356   4.011  0.5403  0.9550  0.0014
28113SOL     OW86060   4.532   5.317   0.249 -0.1854 -0.5530 -0.7285
28113SOL    HW186061   4.530   5.412   0.238  2.3742 -0.1624  1.3587
28113SOL    HW286062   4.539   5.283   0.159 -0.4576  1.2236 -1.4735
28114SOL     OW86063   3.983   4.856   7.245  0.2242  0.3421 -0.1575
28114SOL    HW186064   4.008   4.788   7.183 -0.2564  1.0427 -1.1354
28114SOL    HW286065   3.948   4.926   7.191 -2.3151  0.0911  1.0290
28115SOL     OW86066   1.354   8.004   5.482  0.1303  0.3057 -0.7757
28115SOL    HW186067   1.445   8.035   5.480  0.3494 -0.2693  0.0570
28115SOL    HW286068   1.334   7.984   5.390  0.3948  1.6972 -1.1569
28116SOL     OW86069   7.671   6.464   8.029 -0.7516 -0.3341 -0.4782
28116SOL    HW186070   7.735   6.393   8.015  1.0426  1.1407 -0.1852
28116SOL    HW286071   7.678   6.518   7.951 -1.4311  0.0248 -0.2977
28117SOL     OW86072   4.796   0.759   0.719 -0.2471  0.2796 -0.0933
28117SOL    HW186073   4.823   0.680   0.671  0.6240  0.1480  0.6015
28117SOL    HW286074   4.873   0.815   0.720 -0.6402  0.8306  0.0724
28118SOL     OW86075   7.788   5.825   1.644 -0.6551  0.6788 -0.2497
28118SOL    HW186076   7.870   5.870   1.625 -0.1144  0.0106  0.4267
28118SOL    HW286077   7.750   5.875   1.717 -0.5254  0.6118 -0.1349
28119SOL     OW86078   9.359   8.122   6.815  0.6826  0.2695 -0.1973
28119SOL    HW186079   9.423   8.192   6.822 -0.6958  1.5352  0.4476
28119SOL    HW286080   9.311   8.141   6.734 -2.5477  2.7597  2.0195
28120SOL     OW86081   3.596   5.736   2.729  0.4227 -0.4618  0.3105
28120SOL    HW186082   3.609   5.644   2.754 -0.1094 -0.4956  0.4832
28120SOL    HW286083   3.501   5.749   2.734  0.4962  0.1069  0.3129
28121SOL     OW86084   5.607   8.031   8.225  0.4197 -0.7293  0.3584
28121SOL    HW186085   5.588   7.955   8.280 -0.4161 -1.2516 -0.6223
28121SOL    HW286086   5.584   8.003   8.137  1.8681  0.0470 -0.2881
28122SOL     OW86087   8.990   0.560   2.890  0.1637  0.0918  0.5849
28122SOL    HW186088   8.929   0.602   2.950 -0.7681  0.1529 -0.3616
28122SOL    HW286089   8.934   0.513   2.828  1.0671  0.3229 -0.4449
28123SOL     OW86090   2.596   2.559   4.114  0.1813  0.0052 -0.5351
28123SOL    HW186091   2.586   2.499   4.040  0.0957  0.2165 -0.6946
28123SOL    HW286092   2.653   2.628   4.082 -0.7662  0.6916 -0.7631
28124SOL     OW86093   4.878   4.226   1.176  0.1212 -0.1898  0.6862
28124SOL    HW186094   4.962   4.192   1.145  0.9632  1.3760  1.1277
28124SOL    HW286095   4.896   4.252   1.267 -1.2127 -1.0124  1.2176
28125SOL     OW86096   7.734   3.563   6.571  0.2066  0.3062  0.3045
28125SOL    HW186097   7.687   3.488   6.609  0.5078  0.5462  1.1855
28125SOL    HW286098   7.775   3.528   6.492  0.5831 -0.5468  0.8623
28126SOL     OW86099   2.675   5.638   5.238 -0.5547 -0.7225  0.1575
28126SOL    HW186100   2.763   5.600   5.247  0.8262  1.7730 -1.5875
28126SOL    HW286101   2.633   5.583   5.171  0.1243 -1.1887  0.0980
28127SOL     OW86102   0.107   5.722   0.737  0.1589 -0.5226 -0.0667
28127SOL    HW186103   0.115   5.736   0.832 -0.0728  0.8853 -0.2272
28127SOL    HW286104   0.020   5.684   0.725 -0.2961  0.4099  0.1925
28128SOL     OW86105   6.862   2.425   1.774  0.0777 -0.0699  0.0568
28128SOL    HW186106   6.900   2.456   1.856 -0.5001  2.2018 -0.4492
28128SOL    HW286107   6.906   2.342   1.756  0.8300 -0.1887  2.2016
28129SOL     OW86108   0.435   5.544   8.919  0.0670 -0.6873  0.1770
28129SOL    HW186109   0.377   5.544   8.842 -0.3981 -0.6926  0.5216
28129SOL    HW286110   0.448   5.451   8.938  1.6592 -0.7380 -0.9775
28130SOL     OW86111   6.736   7.640   7.721  0.0915 -0.7586 -0.2990
28130SOL    HW186112   6.737   7.702   7.647 -0.2736  0.1413  0.4323
28130SOL    HW286113   6.768   7.692   7.795  0.5308 -1.6786  0.1643
28131SOL     OW86114   0.965   2.894   6.645  0.5139  0.7303 -0.1297
28131SOL    HW186115   0.905   2.913   6.572  0.4978  2.9956  0.3867
28131SOL    HW286116   0.945   2.804   6.669 -0.7396  0.5073 -1.7668
28132SOL     OW86117   2.799   5.593   7.062 -0.1488  0.3020 -0.2976
28132SOL    HW186118   2.843   5.670   7.025 -0.3671  1.1321  1.1195
28132SOL    HW286119   2.713   5.592   7.020 -0.9719  2.1172  1.2234
28133SOL     OW86120   9.235   8.360   8.827 -0.0548 -0.2094  0.2420
28133SOL    HW186121   9.183   8.439   8.810  0.3651 -0.5979 -3.8358
28133SOL    HW286122   9.170   8.289   8.829 -0.0463 -0.2763 -1.1416
28134SOL     OW86123   5.954   1.596   8.523  0.3791  0.4226 -0.2684
28134SOL    HW186124   5.873   1.564   8.483  1.5331 -1.1032 -1.4724
28134SOL    HW286125   5.970   1.537   8.596  0.6231  0.4798 -0.2755
28135SOL     OW86126   5.332   4.657   7.394  0.0798 -0.3812  0.4130
28135SOL    HW186127   5.408   4.629   7.446  0.7401 -0.2302 -0.4453
28135SOL    HW286128   5.301   4.576   7.352  0.2486 -0.3162  0.1583
28136SOL     OW86129   8.351   8.174   8.678 -0.2385  0.5165 -0.0870
28136SOL    HW186130   8.382   8.263   8.662 -0.1109  0.6265  0.7821
28136SOL    HW286131   8.410   8.119   8.627 -0.7212  0.9582 -1.1700
28137SOL     OW86132   7.593   4.107   8.153  0.2848 -0.7214 -0.6101
28137SOL    HW186133   7.569   4.191   8.114 -0.3733 -0.3635  0.5113
28137SOL    HW286134   7.543   4.042   8.104 -3.5770  0.0151  1.8992
28138SOL     OW86135   3.000   7.431   7.118  0.0722  0.9205 -0.8461
28138SOL    HW186136   2.953   7.355   7.085  0.3822  0.8675 -1.1675
28138SOL    HW286137   2.943   7.466   7.187  0.2080  0.0535 -0.2827
28139SOL     OW86138   5.346   7.702   8.554  0.1082 -0.3793  0.0819
28139SOL    HW186139   5.395   7.624   8.579  1.5011 -0.2645 -2.0190
28139SOL    HW286140   5.261   7.669   8.526 -0.1207 -0.8697  1.2832
28140SOL     OW86141   4.536   2.972   5.640  0.4348 -0.4814  0.1388
28140SOL    HW186142   4.544   2.891   5.691 -0.2540 -1.6696 -1.5448
28140SOL    HW286143   4.488   2.946   5.561  0.1392  1.6001 -0.4290
28141SOL     OW86144   8.569   9.096   7.131 -0.0085  0.0903  0.1831
28141SOL    HW186145   8.557   9.191   7.131  1.2928  0.2917 -1.1844
28141SOL    HW286146   8.618   9.078   7.211 -1.6760  0.3099  1.3223
28142SOL     OW86147   1.828   2.376   6.226  0.4166  0.5211  0.4451
28142SOL    HW186148   1.766   2.344   6.292  1.3114 -2.7914 -0.1528
28142SOL    HW286149   1.837   2.304   6.164  1.2309  2.7182 -2.2050
28143SOL     OW86150   1.613   3.008   9.120  0.7564 -0.2705 -0.2209
28143SOL    HW186151   1.556   2.942   9.080  0.3537  0.9851 -1.8289
28143SOL    HW286152   1.559   3.047   9.189  0.9103 -1.4033  0.5778
28144SOL     OW86153   0.583   5.314   4.469 -0.5918  0.2128 -0.6181
28144SOL    HW186154   0.579   5.221   4.494 -0.1219  0.3441 -0.0116
28144SOL    HW286155   0.631   5.314   4.387  0.6965  0.0215  0.1048
28145SOL     OW86156   8.369   4.273   0.055 -0.2870 -0.1184 -0.1441
28145SOL    HW186157   8.363   4.356   0.102 -0.4365  0.6958 -1.5584
28145SOL    HW286158   8.339   4.293  -0.034 -3.4873 -2.3988  0.2635
28146SOL     OW86159   9.653   6.407   5.144 -0.0943  0.1984 -0.3954
28146SOL    HW186160   9.642   6.464   5.068  0.3322 -2.2305 -2.4118
28146SOL    HW286161   9.565   6.376   5.164 -0.1404  0.4231 -0.2522
28147SOL     OW86162   4.069   5.711   8.277 -0.2811  0.5887  0.2017
28147SOL    HW186163   3.979   5.715   8.309 -0.6115 -2.6052 -0.0085
28147SOL    HW286164   4.073   5.779   8.209 -2.7021  0.4939 -0.1307
28148SOL     OW86165   1.953   4.773   3.825  0.1273 -0.0907  0.2685
28148SOL    HW186166   1.868   4.766   3.781 -0.4569  0.1818  1.3152
28148SOL    HW286167   1.954   4.862   3.861  0.8961 -0.0637  0.1899
28149SOL     OW86168   2.005   1.541   7.276  0.3122  0.2201  0.0855
28149SOL    HW186169   2.039   1.451   7.280 -0.1907  0.0749  2.1283
28149SOL    HW286170   1.918   1.535   7.315  0.4821  1.6893  0.7394
28150SOL     OW86171   6.883   8.386   2.675  0.4129  0.1616 -0.4159
28150SOL    HW186172   6.881   8.317   2.609  1.0796  0.6995 -1.0087
28150SOL    HW286173   6.847   8.344   2.754 -0.4331 -0.4812 -1.1104
28151SOL     OW86174   3.531   3.525   5.859 -0.0062  0.3379  0.0763
28151SOL    HW186175   3.496   3.441   5.890 -0.8635  0.8768  0.6014
28151SOL    HW286176   3.456   3.584   5.859  0.5159  1.0135 -0.6497
28152SOL     OW86177   8.051   5.834   1.558 -0.0272 -0.3682 -0.3669
28152SOL    HW186178   8.062   5.921   1.519 -1.4367  0.1263  0.2594
28152SOL    HW286179   8.085   5.773   1.493 -0.7569  0.5422 -1.6207
28153SOL     OW86180   0.305   4.396   8.273 -0.3075  0.3009  0.1827
28153SOL    HW186181   0.247   4.471   8.262  0.2345  1.1796  2.5262
28153SOL    HW286182   0.390   4.435   8.295  0.6826 -0.9849 -1.2215
28154SOL     OW86183   4.945   7.419   8.625 -0.0762 -0.2398  0.2354
28154SOL    HW186184   4.853   7.401   8.646  0.6571 -3.7384  1.0734
28154SOL    HW286185   4.965   7.500   8.673 -3.3002  2.2011 -2.1184
28155SOL     OW86186   4.530   9.685   3.391  0.3509  0.0223 -0.0560
28155SOL    HW186187   4.496   9.616   3.447  0.2335  0.4506  0.4110
28155SOL    HW286188   4.486   9.672   3.307  0.7673 -0.8185 -0.1550
28156SOL     OW86189   5.737   4.900   4.615  0.3803 -0.3687  0.0822
28156SOL    HW186190   5.740   4.988   4.654  0.6590 -0.5090  0.3862
28156SOL    HW286191   5.657   4.861   4.650  0.5406 -0.4322  0.3801
28157SOL     OW86192   7.386   3.550   0.847  0.2458  0.3194  0.0722
28157SOL    HW186193   7.339   3.471   0.820  1.3623  0.0799 -1.2816
28157SOL    HW286194   7.394   3.602   0.767 -0.9501  2.1110  1.0413
28158SOL     OW86195   8.787   3.724   7.135  0.1535 -0.2908  0.2322
28158SOL    HW186196   8.780   3.643   7.185 -0.9630  0.0858  0.7109
28158SOL    HW286197   8.708   3.726   7.082  0.2888  0.3710  0.0512
28159SOL     OW86198   7.703   6.499   5.152  0.6448  0.0966 -0.6720
28159SOL    HW186199   7.688   6.593   5.144 -0.1195  0.2238  1.5926
28159SOL    HW286200   7.645   6.470   5.222  0.4825 -2.1925 -1.6314
28160SOL     OW86201   7.051   4.467   5.048 -0.2005  0.3150 -0.1599
28160SOL    HW186202   6.974   4.492   5.099  0.7110  3.0065  0.0943
28160SOL    HW286203   7.113   4.539   5.063  2.0347 -1.3220 -1.0402
28161SOL     OW86204   7.439   6.775   5.657 -0.5009  0.3490 -0.4509
28161SOL    HW186205   7.455   6.692   5.703  1.2939  1.1446  0.4726
28161SOL    HW286206   7.465   6.757   5.566 -1.2168 -0.4058 -0.5159
28162SOL     OW86207   8.772   8.825   3.803  0.4549  0.6335 -0.2578
28162SOL    HW186208   8.811   8.891   3.745 -6.0365  2.2101 -3.7844
28162SOL    HW286209   8.763   8.747   3.748  2.0193 -1.0891  1.7625
28163SOL     OW86210   1.563   1.890   1.489 -0.8301  0.0311 -0.6515
28163SOL    HW186211   1.520   1.946   1.555 -0.8461  0.4923 -1.0537
28163SOL    HW286212   1.618   1.831   1.541 -0.4289  0.7426 -0.2474
28164SOL     OW86213   8.241   4.744   7.788 -0.4050  0.3787  0.6126
28164SOL    HW186214   8.296   4.670   7.760 -0.7017 -0.3746  1.9641
28164SOL    HW286215   8.199   4.774   7.707  1.1950  0.3256 -0.2805
28165SOL     OW86216   2.763   8.467   3.843  0.3818 -0.1793 -0.6869
28165SOL    HW186217   2.830   8.524   3.879  0.1161 -0.1077 -0.2997
28165SOL    HW286218   2.778   8.469   3.749  1.0896 -0.3734 -0.5844
28166SOL     OW86219   0.216   3.420   5.759 -0.5004  0.0649 -0.4798
28166SOL    HW186220   0.303   3.446   5.730 -0.8796  2.7020  0.4745
28166SOL    HW286221   0.230   3.341   5.811  0.8766 -1.3480 -2.8558
28167SOL     OW86222   0.966   4.362   3.267  0.3816 -0.6993  0.1359
28167SOL    HW186223   1.053   4.325   3.281  1.7154  1.0792 -2.5230
28167SOL    HW286224   0.907   4.286   3.269  2.3055 -2.2924 -0.3467
28168SOL     OW86225   5.689   2.816   5.720  0.5185  0.2813 -0.2526
28168SOL    HW186226   5.598   2.833   5.743  0.5286  1.2194 -0.8895
28168SOL    HW286227   5.689   2.726   5.688  0.1163 -0.3061  1.2770
28169SOL     OW86228   2.157   6.796   3.093 -0.3263  0.2574  0.3322
28169SOL    HW186229   2.245   6.797   3.130 -0.7852  0.2629  1.4669
28169SOL    HW286230   2.147   6.707   3.057 -0.0379  0.0875  0.6673
28170SOL     OW86231   9.691   4.406   6.833  0.0563  0.0322 -0.4321
28170SOL    HW186232   9.597   4.415   6.815 -0.2805  0.3617  1.2663
28170SOL    HW286233   9.714   4.487   6.878  1.5064  0.5656 -2.0626
28171SOL     OW86234   6.191   9.438   8.015  0.0685 -0.1931  1.0204
28171SOL    HW186235   6.152   9.519   7.983 -1.1460 -0.9927  0.3863
28171SOL    HW286236   6.283   9.444   7.991 -0.0899  0.8183  0.6239
28172SOL     OW86237   4.841   5.086   3.750 -0.1140  0.1356 -0.1360
28172SOL    HW186238   4.927   5.085   3.793 -0.3439  0.2124  0.3297
28172SOL    HW286239   4.844   5.011   3.691  0.5977  0.6531 -0.7768
28173SOL     OW86240   1.401   3.990   8.962  0.4298 -0.2833 -0.5508
28173SOL    HW186241   1.396   4.059   8.897 -0.7318  1.8664  1.6688
28173SOL    HW286242   1.396   3.909   8.912 -0.9137  1.2541 -3.0744
28174SOL     OW86243   5.261   1.743   7.361  0.0466  0.2675  0.3947
28174SOL    HW186244   5.280   1.825   7.315  1.3840 -0.2598 -0.0279
28174SOL    HW286245   5.335   1.686   7.340 -1.0688 -1.2115  0.3227
28175SOL     OW86246   8.128   3.228   0.487 -0.1129  0.2703 -0.4206
28175SOL    HW186247   8.154   3.282   0.562 -0.3046  0.1265 -0.2485
28175SOL    HW286248   8.181   3.260   0.415  0.4221  0.0991 -0.1138
28176SOL     OW86249   7.473   8.338   5.247 -0.1263  0.3423  0.0697
28176SOL    HW186250   7.527   8.275   5.200 -0.4780 -0.7948  1.1178
28176SOL    HW286251   7.483   8.420   5.200  0.5931 -0.4340 -1.1538
28177SOL     OW86252   9.454   7.673   8.571  0.7088  0.8940  0.3129
28177SOL    HW186253   9.509   7.664   8.649 -0.7993 -1.3228  1.2354
28177SOL    HW286254   9.496   7.619   8.505 -0.2209 -0.6923  0.9754
28178SOL     OW86255   3.202   4.233   4.595 -0.1434 -0.1513 -0.6046
28178SOL    HW186256   3.173   4.164   4.535  0.5477 -0.2664 -0.8155
28178SOL    HW286257   3.152   4.218   4.675 -1.1393  0.0572 -1.1851
28179SOL     OW86258   5.713   4.855   0.096 -0.8349 -0.0438 -0.2091
28179SOL    HW186259   5.800   4.858   0.135 -0.9282  1.9124 -0.0309
28179SOL    HW286260   5.701   4.764   0.070  1.4749 -0.2607 -0.7466
28180SOL     OW86261   7.910   4.826   2.986 -0.3362 -0.0373 -0.1133
28180SOL    HW186262   7.886   4.850   2.896 -1.6903 -0.3103  0.1583
28180SOL    HW286263   7.902   4.731   2.988 -1.8453  0.0710  0.6875
28181SOL     OW86264   0.275   4.337   3.839  0.2191 -0.2514 -0.0733
28181SOL    HW186265   0.330   4.310   3.765  0.9013 -1.9397  0.9826
28181SOL    HW286266   0.271   4.260   3.895 -0.5472  0.8779  1.5034
28182SOL     OW86267   2.688   5.135   1.949  0.0024 -0.5286 -0.0216
28182SOL    HW186268   2.774   5.094   1.937  0.4442 -0.0299  1.3391
28182SOL    HW286269   2.642   5.077   2.009  0.1852  0.2911  0.9391
28183SOL     OW86270   6.456   6.218   5.579  0.2698 -0.0437  0.2429
28183SOL    HW186271   6.427   6.128   5.590  0.3207 -0.0472  0.3558
28183SOL    HW286272   6.476   6.247   5.668 -0.3432  0.2852  0.2746
28184SOL     OW86273   5.159   1.399   0.633  0.0354 -0.1130  0.1235
28184SOL    HW186274   5.094   1.409   0.564 -0.0915  0.1312  0.2763
28184SOL    HW286275   5.238   1.370   0.588 -0.1436 -0.2902 -0.0787
28185SOL     OW86276   4.062   1.829   2.771  0.4218 -0.2270  0.0838
28185SOL    HW186277   4.145   1.870   2.794  2.0039 -2.6397 -0.9472
28185SOL    HW286278   4.054   1.840   2.677 -0.7249  0.4218  0.2344
28186SOL     OW86279   3.879   1.287   8.804  0.2125 -0.2175  0.3474
28186SOL    HW186280   3.874   1.191   8.804  0.0368 -0.2090  1.0923
28186SOL    HW286281   3.846   1.313   8.889 -1.6043  0.6045 -0.5549
28187SOL     OW86282   1.288   9.576   1.895 -0.3603  0.4466  0.0997
28187SOL    HW186283   1.196   9.601   1.881  0.0041  1.5998 -0.3340
28187SOL    HW286284   1.296   9.490   1.854 -1.1317  0.5400 -0.2705
28188SOL     OW86285   0.920   1.682   6.523  0.4024  0.3974 -0.7066
28188SOL    HW186286   0.938   1.589   6.506  1.7371  0.6929 -1.0231
28188SOL    HW286287   0.995   1.712   6.572 -0.5916  1.0506  0.4586
28189SOL     OW86288   3.693   8.813   0.164  0.1223  0.3690  0.4991
28189SOL    HW186289   3.603   8.815   0.133  0.6203  2.5690 -1.0999
28189SOL    HW286290   3.726   8.727   0.137 -1.1137  0.0401 -0.0407
28190SOL     OW86291   2.697   3.268   0.429 -0.2440 -0.0934 -0.0619
28190SOL    HW186292   2.698   3.363   0.444  1.0328 -0.0512 -0.2941
28190SOL    HW286293   2.655   3.258   0.344 -0.3812  0.2666 -0.0382
28191SOL     OW86294   7.886   5.428   6.362 -0.2628  0.4131 -0.4678
28191SOL    HW186295   7.875   5.352   6.304  0.8430  0.3970 -0.6860
28191SOL    HW286296   7.912   5.390   6.446  0.2282  0.5420 -0.5594
28192SOL     OW86297   4.940   0.042   4.662  0.0835 -0.2383  0.1387
28192SOL    HW186298   4.922   0.096   4.584  0.5819  1.0149  0.8577
28192SOL    HW286299   4.858  -0.005   4.677 -1.0094  1.6428  0.4791
28193SOL     OW86300   2.293   7.968   4.700  0.2344  0.0535  0.3210
28193SOL    HW186301   2.224   7.965   4.766 -0.3754 -0.0478 -0.2981
28193SOL    HW286302   2.321   7.877   4.689 -0.3004 -0.0569 -0.1946
28194SOL     OW86303   3.680   4.570   5.784  0.2465 -0.1106  0.1990
28194SOL    HW186304   3.595   4.614   5.781  0.0953 -0.1028  2.6190
28194SOL    HW286305   3.660   4.478   5.766 -0.2573 -0.0781  0.5816
28195SOL     OW86306   6.080   8.734   1.698 -0.1090  0.6402  0.0283
28195SOL    HW186307   6.023   8.667   1.737  1.4213  0.1982  1.6555
28195SOL    HW286308   6.096   8.796   1.770  0.5536  1.3597 -0.7228
28196SOL     OW86309   8.563   5.886   7.340 -0.3831 -0.4652  0.1690
28196SOL    HW186310   8.468   5.878   7.328 -0.1789 -0.9189 -1.2502
28196SOL    HW286311   8.601   5.840   7.266  0.9652 -0.3161  0.7376
28197SOL     OW86312   1.631   2.627   4.865  0.7141  0.1882  0.5221
28197SOL    HW186313   1.677   2.711   4.854  0.3201  0.5288  1.4349
28197SOL    HW286314   1.681   2.582   4.933  0.1041  0.2779  1.0375
28198SOL     OW86315   5.391   2.980   1.770 -0.4411 -0.0544  0.1332
28198SOL    HW186316   5.403   2.903   1.825  0.0643 -0.0113  0.0867
28198SOL    HW286317   5.307   3.016   1.797 -2.6188 -2.7457 -2.3963
28199SOL     OW86318   0.459   6.792   6.484 -0.0518 -0.2292 -0.5484
28199SOL    HW186319   0.466   6.704   6.446 -2.3924  0.1857 -2.2281
28199SOL    HW286320   0.504   6.849   6.421  0.4257 -0.0786 -0.0773
28200SOL     OW86321   6.431   6.015   0.436  0.1186 -0.1370 -0.0747
28200SOL    HW186322   6.501   6.042   0.377 -0.0460 -0.9875 -0.6740
28200SOL    HW286323   6.353   6.009   0.381  0.3791 -3.0034 -0.3171
28201SOL     OW86324   9.298   5.663   0.065 -0.2115 -0.2699 -0.0218
28201SOL    HW186325   9.303   5.604   0.140  0.1795 -0.5128 -0.2346
28201SOL    HW286326   9.375   5.641   0.012  0.8002  1.4304  0.6364
28202SOL     OW86327   3.228   1.542   8.645  0.0956 -0.1671  0.1645
28202SOL    HW186328   3.243   1.460   8.597  0.5042 -0.0587  0.1026
28202SOL    HW286329   3.275   1.608   8.595 -1.4113  0.3752 -0.5899
28203SOL     OW86330   5.736   4.706   1.964  0.1834  0.6464 -0.2594
28203SOL    HW186331   5.654   4.736   1.927  0.4353  3.4241  1.2292
28203SOL    HW286332   5.793   4.783   1.964  2.2412 -0.7756  0.2783
28204SOL     OW86333   4.349   7.462   4.661  0.4438  0.0249  0.0331
28204SOL    HW186334   4.308   7.377   4.643  0.2248  0.0143  0.5539
28204SOL    HW286335   4.288   7.526   4.625 -0.1279  0.0168  0.9615
28205SOL     OW86336   2.709   6.563   1.976 -0.4456 -0.2736  0.6625
28205SOL    HW186337   2.715   6.632   2.043 -0.0491 -0.4016  0.7573
28205SOL    HW286338   2.764   6.493   2.008  1.8733  0.6597 -0.9964
28206SOL     OW86339   3.246   3.256   9.079  0.7676 -0.2266  0.7218
28206SOL    HW186340   3.290   3.272   9.162  1.9305 -2.7043  0.6811
28206SOL    HW286341   3.184   3.185   9.097  0.3380 -0.1379 -0.3082
28207SOL     OW86342   7.672   7.537   0.709 -0.9439 -0.3072 -0.7417
28207SOL    HW186343   7.660   7.624   0.746  1.0839 -0.0972 -0.4670
28207SOL    HW286344   7.602   7.529   0.643 -0.7119  1.8177 -1.3216
28208SOL     OW86345   1.628   3.867   2.249 -0.2237  0.2710  0.4148
28208SOL    HW186346   1.598   3.785   2.210 -0.1284  0.3153  0.2482
28208SOL    HW286347   1.695   3.900   2.189 -1.5557  1.4073 -0.5208
28209SOL     OW86348   4.747   6.955   5.507 -0.6990 -0.1135 -0.8449
28209SOL    HW186349   4.770   6.877   5.456 -1.1816 -1.1104  0.4094
28209SOL    HW286350   4.818   7.017   5.489  1.0983 -1.7731  0.0959
28210SOL     OW86351   2.283   6.304   7.513  0.1024  0.1070 -0.5803
28210SOL    HW186352   2.370   6.334   7.538  0.2702 -0.0075 -1.0143
28210SOL    HW286353   2.279   6.213   7.543  0.4060 -0.1175 -1.2052
28211SOL     OW86354   3.797   0.361   0.766  0.3222 -0.0483 -0.1203
28211SOL    HW186355   3.820   0.275   0.732  2.0295  0.3074  0.0333
28211SOL    HW286356   3.771   0.346   0.857  2.7579 -0.1864  0.6065
28212SOL     OW86357   7.247   5.947   2.226 -0.0639 -0.7764  0.7789
28212SOL    HW186358   7.255   6.008   2.299 -0.4026 -0.4290  0.5234
28212SOL    HW286359   7.311   5.878   2.246  1.3364  0.3551  0.3627
28213SOL     OW86360   8.015   7.896   7.890  0.4055  0.4702 -0.3484
28213SOL    HW186361   8.049   7.810   7.865  1.4640  0.0766  2.1764
28213SOL    HW286362   7.922   7.881   7.908  0.8713 -0.5363  1.4569
28214SOL     OW86363   7.299   8.834   7.463  0.4233 -0.4509  0.5650
28214SOL    HW186364   7.207   8.814   7.479  0.4228  0.1915  1.4708
28214SOL    HW286365   7.315   8.805   7.374 -1.2143  1.2443 -0.3569
28215SOL     OW86366   0.165   7.347   5.133  0.0902  0.0968 -0.0969
28215SOL    HW186367   0.162   7.443   5.131 -2.0020  0.0721 -0.6307
28215SOL    HW286368   0.148   7.324   5.224 -1.7906  0.2572 -0.3597
28216SOL     OW86369   6.226   2.605   5.841  0.1072 -0.5387 -0.0450
28216SOL    HW186370   6.322   2.602   5.844  0.1905  1.1407  0.2395
28216SOL    HW286371   6.207   2.673   5.776 -0.8873 -0.9443 -0.1777
28217SOL     OW86372   8.895   6.149   0.540  0.4384  0.6028  0.1846
28217SOL    HW186373   8.896   6.064   0.584  1.5860  0.9704  0.9191
28217SOL    HW286374   8.868   6.129   0.451 -0.3753 -0.3813  0.6269
28218SOL     OW86375   3.916   4.751   2.902 -0.3139 -0.2489  0.1928
28218SOL    HW186376   3.830   4.731   2.866  0.1058 -1.2255 -0.3176
28218SOL    HW286377   3.938   4.836   2.865 -1.1377  0.1032  0.4891
28219SOL     OW86378   1.836   9.251   5.341 -0.1040  0.1647  0.7092
28219SOL    HW186379   1.742   9.232   5.340  0.1794 -1.4067  0.0345
28219SOL    HW286380   1.843   9.341   5.311 -1.3377 -0.0082 -0.1832
28220SOL     OW86381   7.494   6.382   7.592 -0.0661 -0.3336 -0.7937
28220SOL    HW186382   7.434   6.332   7.536 -1.9171  0.8890  0.0026
28220SOL    HW286383   7.440   6.408   7.667  1.7349  0.0406  0.4204
28221SOL     OW86384   3.106   0.102   6.479 -0.2182 -0.0851 -0.0689
28221SOL    HW186385   3.125   0.041   6.550 -0.8603 -1.0465 -0.7021
28221SOL    HW286386   3.018   0.134   6.499 -0.6694 -0.8676 -0.7784
28222SOL     OW86387   3.661   3.021   0.784 -0.4579 -0.2407  0.0284
28222SOL    HW186388   3.574   3.058   0.796 -0.6780  0.0626 -2.1248
28222SOL    HW286389   3.649   2.926   0.790 -0.6658 -0.1487  1.1653
28223SOL     OW86390   6.082   0.853   2.229 -0.1185 -0.0061  0.5789
28223SOL    HW186391   6.074   0.946   2.252 -0.0820  0.3474 -0.7426
28223SOL    HW286392   6.003   0.813   2.266 -0.5666  0.7100  0.4310
28224SOL     OW86393   4.216   5.067   1.391  0.1312  0.5793 -0.0306
28224SOL    HW186394   4.226   5.082   1.297  1.4195  1.5815  0.2339
28224SOL    HW286395   4.168   5.143   1.423  0.6976  0.8045  0.2931
28225SOL     OW86396   9.462   0.339   4.511  0.2451  0.6898 -0.3028
28225SOL    HW186397   9.462   0.381   4.597 -3.1211  0.3090  0.0265
28225SOL    HW286398   9.374   0.355   4.476  0.4248 -1.8888 -2.2837
28226SOL     OW86399   8.722   0.058   5.103  0.2370  0.2362 -0.0013
28226SOL    HW186400   8.795   0.002   5.075  0.5153  0.0915  0.9616
28226SOL    HW286401   8.702   0.112   5.027 -0.3128 -1.4572 -1.1021
28227SOL     OW86402   8.550   7.541   0.821 -0.0069  0.0990  0.1215
28227SOL    HW186403   8.600   7.473   0.775  1.7389  0.2439  1.6804
28227SOL    HW286404   8.470   7.550   0.770  1.0779 -0.9258 -1.9087
28228SOL     OW86405   8.992   7.426   8.470  0.2465  0.1621 -0.3162
28228SOL    HW186406   9.020   7.410   8.560  0.9344  1.3183 -0.3115
28228SOL    HW286407   8.957   7.342   8.441  2.2279 -0.9048  0.2195
28229SOL     OW86408   8.556   0.873   2.596 -0.0476 -0.1623  0.3012
28229SOL    HW186409   8.488   0.910   2.651 -0.7902  0.4759 -1.0078
28229SOL    HW286410   8.566   0.935   2.524 -0.6759 -1.9958 -1.4658
28230SOL     OW86411   3.758   9.631   9.320  0.2193  0.1966 -0.5657
28230SOL    HW186412   3.733   9.542   9.343 -1.0045  0.2853 -1.4915
28230SOL    HW286413   3.819   9.621   9.248  1.4060  0.0641  0.4202
28231SOL     OW86414   4.603   5.302   1.437 -0.0360  0.3877 -0.4238
28231SOL    HW186415   4.694   5.271   1.446 -1.3001 -3.3890  1.5363
28231SOL    HW286416   4.582   5.288   1.345  0.4472 -1.9646 -0.2335
28232SOL     OW86417   1.484   5.153   2.657 -0.0557 -0.5939  0.7339
28232SOL    HW186418   1.526   5.075   2.694  0.0289 -1.0339 -0.2639
28232SOL    HW286419   1.390   5.136   2.665 -0.0764  0.0167  2.1780
28233SOL     OW86420   4.464   1.851   9.343  0.0661  0.3152  0.3434
28233SOL    HW186421   4.369   1.861   9.347  0.0919  1.0993 -0.6512
28233SOL    HW286422   4.498   1.919   9.400  0.0353 -0.1823  0.9678
28234SOL     OW86423   1.546   0.291   4.228 -0.0588  0.6338  0.2755
28234SOL    HW186424   1.551   0.387   4.228  2.7730  0.5724 -0.4557
28234SOL    HW286425   1.458   0.272   4.260 -0.9804  3.4744 -0.2484
28235SOL     OW86426   8.915   7.590   7.558 -0.6763 -0.2939  0.4019
28235SOL    HW186427   8.890   7.497   7.548  1.1536 -0.6678 -1.4000
28235SOL    HW286428   9.003   7.587   7.595 -0.5164  0.7042  0.1170
28236SOL     OW86429   9.414   3.525   6.860 -0.0850 -0.1315  0.2963
28236SOL    HW186430   9.393   3.572   6.780  2.0172  1.0342  0.3476
28236SOL    HW286431   9.502   3.491   6.845 -1.0153 -3.0272  0.7799
28237SOL     OW86432   5.491   3.366   7.501  1.0759  0.6841 -0.0338
28237SOL    HW186433   5.408   3.410   7.520 -0.0167 -1.6017  1.0050
28237SOL    HW286434   5.486   3.345   7.408  0.5865  0.8057 -0.0396
28238SOL     OW86435   2.680   3.528   5.438  0.3552  0.2819 -0.6266
28238SOL    HW186436   2.745   3.548   5.371 -0.5236  0.8431 -1.3359
28238SOL    HW286437   2.602   3.577   5.412 -0.8766 -1.5964 -0.7027
28239SOL     OW86438   2.891   6.879   0.575 -0.3259  0.3064  0.1674
28239SOL    HW186439   2.857   6.968   0.582  0.3795  0.5691  0.3364
28239SOL    HW286440   2.986   6.890   0.565 -0.1924 -0.4328  0.5254
28240SOL     OW86441   2.390   0.160   8.034 -0.3561 -0.6576 -0.1884
28240SOL    HW186442   2.451   0.148   7.961  2.1865  1.1812  1.4809
28240SOL    HW286443   2.364   0.252   8.028 -0.9953 -0.7756  0.6088
28241SOL     OW86444   3.070   8.722   7.463  0.0312  0.2879  0.1699
28241SOL    HW186445   3.041   8.804   7.423  1.2937  1.2153  1.0483
28241SOL    HW286446   3.164   8.735   7.478  0.0068 -0.8177  1.5002
28242SOL     OW86447   1.458   1.836   8.131 -0.2319 -0.1047  0.8670
28242SOL    HW186448   1.392   1.781   8.087 -0.3610  1.3715 -0.8895
28242SOL    HW286449   1.538   1.823   8.079  0.8591 -1.6034  2.7701
28243SOL     OW86450   8.573   0.598   2.549  0.4100  0.0203 -0.8148
28243SOL    HW186451   8.485   0.567   2.528  0.7608  0.0351 -2.4614
28243SOL    HW286452   8.564   0.693   2.555  0.2771  0.0048 -0.7549
28244SOL     OW86453   3.666   2.528   5.673 -0.1930 -0.7846  0.1136
28244SOL    HW186454   3.681   2.588   5.599  3.7280 -2.0163 -0.3136
28244SOL    HW286455   3.655   2.442   5.632 -0.2226 -1.1685  0.9156
28245SOL     OW86456   8.862   1.114   0.684  0.1038  0.0579 -0.1712
28245SOL    HW186457   8.846   1.155   0.599  1.0549  1.6826  0.3837
28245SOL    HW286458   8.958   1.111   0.691  0.1031 -3.0095 -0.4849
28246SOL     OW86459   8.083   2.759   4.566  0.9440  0.5837  0.0498
28246SOL    HW186460   8.039   2.792   4.488 -1.1158 -0.6080  0.6080
28246SOL    HW286461   8.045   2.810   4.638  0.6806 -0.2481  0.5147
28247SOL     OW86462   1.045   3.168   0.867  0.8753 -0.4802  0.7089
28247SOL    HW186463   1.040   3.247   0.922 -0.9037 -0.6916  0.9060
28247SOL    HW286464   1.131   3.131   0.886  2.2432  1.9792 -0.2079
28248SOL     OW86465   4.482   3.487   6.703 -0.3588 -0.3714 -0.4415
28248SOL    HW186466   4.397   3.499   6.746 -0.7327  0.3663 -1.3370
28248SOL    HW286467   4.525   3.572   6.712  0.7389 -1.0332  0.9035
28249SOL     OW86468   2.928   7.294   5.009  0.1626 -0.3404 -0.3575
28249SOL    HW186469   3.012   7.256   4.983  0.9069 -0.0845  1.5152
28249SOL    HW286470   2.905   7.353   4.938  0.6561 -1.7453 -1.7431
28250SOL     OW86471   6.693   6.583   2.454  0.0597 -0.6109  0.3173
28250SOL    HW186472   6.728   6.495   2.464  0.3134 -0.6226 -0.6270
28250SOL    HW286473   6.678   6.593   2.360 -2.0190 -0.4250  0.6290
28251SOL     OW86474   1.897   4.535   0.416 -0.3159 -0.6163 -0.0057
28251SOL    HW186475   1.923   4.510   0.327  1.9880  0.6317  0.2257
28251SOL    HW286476   1.843   4.613   0.403  0.9604  0.2464 -0.3059
28252SOL     OW86477   1.456   5.509   5.384  0.2271  0.5378 -0.0632
28252SOL    HW186478   1.411   5.591   5.361  0.5872  0.6796 -0.2800
28252SOL    HW286479   1.478   5.470   5.299 -0.9288 -0.3477  0.0200
28253SOL     OW86480   7.929   7.867   6.080 -0.3711 -0.0408  0.0747
28253SOL    HW186481   7.988   7.883   6.154  1.1036 -1.7248 -0.6574
28253SOL    HW286482   7.945   7.939   6.020 -0.7963  0.7671  0.9138
28254SOL     OW86483   4.878   6.269   5.289  0.0630  0.0957  0.1568
28254SOL    HW186484   4.941   6.325   5.334 -0.7339  1.1071  0.0397
28254SOL    HW286485   4.905   6.180   5.312  1.9939  0.4611 -0.5109
28255SOL     OW86486   0.607   0.588   5.991 -0.3088 -0.1160 -0.4655
28255SOL    HW186487   0.514   0.563   5.991 -0.0569 -1.1327  0.5107
28255SOL    HW286488   0.607   0.677   6.026 -0.9052 -0.1971 -0.2398
28256SOL     OW86489   9.472   4.734   3.912 -0.4470  0.2736  0.1699
28256SOL    HW186490   9.558   4.691   3.915 -1.7983 -2.6153  1.1205
28256SOL    HW286491   9.433   4.703   3.830 -1.6342 -0.7460  1.0936
28257SOL     OW86492   3.267   3.048   5.398 -0.0497  0.2446  0.4064
28257SOL    HW186493   3.239   3.138   5.415 -0.9226 -0.1947  1.4141
28257SOL    HW286494   3.207   2.994   5.451 -0.7374 -1.0381 -1.5887
28258SOL     OW86495   7.618   6.480   1.840  0.4519  0.3335 -0.1376
28258SOL    HW186496   7.707   6.452   1.817 -0.3149 -1.2397 -1.3851
28258SOL    HW286497   7.578   6.505   1.757 -0.3116  0.9357  0.3978
28259SOL     OW86498   3.212   6.535   7.416 -0.2104  0.7619  0.0978
28259SOL    HW186499   3.154   6.611   7.403  0.9793  2.0346  1.7374
28259SOL    HW286500   3.282   6.547   7.352 -1.2358 -0.3130 -1.2932
28260SOL     OW86501   6.590   7.841   2.659  0.0220 -0.2345  0.1946
28260SOL    HW186502   6.679   7.850   2.626 -0.3896 -1.5957 -1.4086
28260SOL    HW286503   6.539   7.815   2.583 -1.7003  0.1996  1.1561
28261SOL     OW86504   1.095   8.128   2.175 -0.5063  0.5176  0.6899
28261SOL    HW186505   1.056   8.168   2.097  1.0900  0.8063 -0.0081
28261SOL    HW286506   1.099   8.199   2.239 -0.7696  0.5773  0.6426
28262SOL     OW86507   5.897   2.088   4.029  0.2579  0.0182  0.2619
28262SOL    HW186508   5.813   2.042   4.033  0.3403 -0.1955 -0.3452
28262SOL    HW286509   5.951   2.034   3.971  1.4668 -0.8587  2.1227
28263SOL     OW86510   5.741   7.260   0.377  0.0606 -0.0569  0.2144
28263SOL    HW186511   5.690   7.206   0.317  0.3202 -0.3431  0.2461
28263SOL    HW286512   5.776   7.198   0.441 -1.2013  0.4184  1.3770
28264SOL     OW86513   8.600   7.875   6.967 -0.1682 -0.3215  0.2729
28264SOL    HW186514   8.620   7.888   6.874 -0.9254  1.1297  0.2968
28264SOL    HW286515   8.647   7.944   7.012 -1.2982  0.1398  0.7828
28265SOL     OW86516   4.813   5.916   9.514 -0.5634 -0.2700  0.2940
28265SOL    HW186517   4.731   5.923   9.562 -0.8143 -0.4939 -0.1018
28265SOL    HW286518   4.847   5.829   9.538 -0.2802 -0.0477  0.7103
28266SOL     OW86519   1.182   3.735   3.322  0.3187 -0.2531  0.3153
28266SOL    HW186520   1.258   3.684   3.294 -1.2196 -2.0883 -0.7568
28266SOL    HW286521   1.129   3.673   3.371 -0.5065  1.0095  1.0809
28267SOL     OW86522   4.750   3.567   7.032 -0.4802 -0.0930  0.2133
28267SOL    HW186523   4.757   3.544   6.940  1.4551  0.9657  0.0516
28267SOL    HW286524   4.828   3.529   7.073  1.2444  3.2899  0.4732
28268SOL     OW86525   0.557   6.893   5.664 -0.1478 -0.0527  0.0655
28268SOL    HW186526   0.639   6.880   5.617 -0.6511  1.1144 -1.2020
28268SOL    HW286527   0.497   6.829   5.627  0.0144 -0.5108  0.5806
28269SOL     OW86528   2.277   8.249   8.855 -0.1189 -0.2005 -0.2639
28269SOL    HW186529   2.213   8.319   8.839 -0.9573 -1.1378 -1.2254
28269SOL    HW286530   2.303   8.220   8.767  0.1917 -1.0946  0.1080
28270SOL     OW86531   5.214   6.169   3.725 -0.6383 -0.2534  0.3309
28270SOL    HW186532   5.213   6.262   3.748 -0.7146  0.0743 -0.9318
28270SOL    HW286533   5.147   6.160   3.658 -2.0203 -1.6152  1.7901
28271SOL     OW86534   6.186   6.249   4.981  0.1714  0.0734 -0.2491
28271SOL    HW186535   6.185   6.158   4.950  0.0822 -0.2057  0.5581
28271SOL    HW286536   6.229   6.297   4.910  0.5297 -0.6483 -0.5387
28272SOL     OW86537   0.547   5.151   5.072  0.2069  0.5980  0.0510
28272SOL    HW186538   0.630   5.160   5.119  0.1668  0.7743  0.0905
28272SOL    HW286539   0.481   5.145   5.142  0.2029  0.2936  0.0217
28273SOL     OW86540   7.112   0.659   1.869  0.5294 -0.1895 -0.0631
28273SOL    HW186541   7.054   0.583   1.864  0.0533  0.1039  0.7649
28273SOL    HW286542   7.198   0.625   1.847  0.2196 -0.8519 -0.2712
28274SOL     OW86543   2.571   3.673   9.665  0.1533 -0.3006 -0.0015
28274SOL    HW186544   2.662   3.644   9.669  0.2279 -0.1163 -0.3208
28274SOL    HW286545   2.525   3.616   9.726  0.3103 -1.0291 -0.5574
28275SOL     OW86546   6.350   1.746   1.876  0.0657 -0.5375 -1.1289
28275SOL    HW186547   6.347   1.718   1.968 -4.1811 -0.8217 -1.1555
28275SOL    HW286548   6.346   1.664   1.826  0.6860 -0.3247 -1.5292
28276SOL     OW86549   0.969   9.175   7.297  0.0197  0.0216 -0.2338
28276SOL    HW186550   0.937   9.137   7.216  0.4321 -2.6446  0.7359
28276SOL    HW286551   0.899   9.231   7.328 -2.2770 -2.7369 -0.0350
28277SOL     OW86552   9.430   1.072   7.397  0.3411 -0.2944  0.1217
28277SOL    HW186553   9.375   1.145   7.369 -0.1891 -0.6429  0.2488
28277SOL    HW286554   9.390   1.042   7.478  0.7318 -0.5401  0.2244
28278SOL     OW86555   2.929   5.544   5.263  0.3801 -0.2005  0.0164
28278SOL    HW186556   3.000   5.517   5.204  1.9480  0.4713  1.4922
28278SOL    HW286557   2.967   5.534   5.350 -2.3876 -2.7173  1.0696
28279SOL     OW86558   5.363   9.580   2.350 -0.0165 -0.3214  0.1117
28279SOL    HW186559   5.440   9.535   2.384 -0.9156 -2.0483 -0.0474
28279SOL    HW286560   5.338   9.641   2.419  3.1629  2.4952 -0.9634
28280SOL     OW86561   2.920   7.970   8.032 -0.3645  0.0832 -0.3081
28280SOL    HW186562   2.867   7.891   8.045 -0.2140  0.0833  0.3826
28280SOL    HW286563   2.857   8.037   8.004 -0.4986 -0.2708 -0.8635
28281SOL     OW86564   1.160   2.079   8.285 -0.2675  0.3850 -0.7154
28281SOL    HW186565   1.228   2.102   8.222 -0.8683 -0.3715 -1.6628
28281SOL    HW286566   1.108   2.159   8.296  0.5424  0.8561 -0.2677
28282SOL     OW86567   8.166   5.412   8.921  0.0788 -0.1698 -0.2152
28282SOL    HW186568   8.073   5.416   8.940  0.0473  0.6879 -0.5185
28282SOL    HW286569   8.209   5.440   9.002  0.1015 -1.0843  0.1019
28283SOL     OW86570   0.205   7.306   9.130 -0.4562 -0.3923 -0.0544
28283SOL    HW186571   0.187   7.241   9.062  0.2686 -0.8510  0.1716
28283SOL    HW286572   0.266   7.261   9.189  1.4705  1.0861 -0.8287
28284SOL     OW86573   8.065   5.062   5.793  0.3196 -0.0739 -0.0535
28284SOL    HW186574   8.141   5.009   5.770  1.2819  1.2340 -0.0474
28284SOL    HW286575   8.025   5.016   5.866  1.9071 -0.1178  0.8444
28285SOL     OW86576   1.430   2.555   2.429  0.2799 -0.0671 -0.1593
28285SOL    HW186577   1.374   2.483   2.401  1.8456 -2.1307  1.6879
28285SOL    HW286578   1.384   2.594   2.503  0.0666 -0.0161 -0.3158
28286SOL     OW86579   1.918   1.438   0.104 -1.1041 -0.5823 -0.2485
28286SOL    HW186580   1.931   1.533   0.096 -2.3543 -0.2444  1.2061
28286SOL    HW286581   2.001   1.400   0.076 -0.1453  1.0008  0.3180
28287SOL     OW86582   0.851   4.710   9.674  0.0753  0.1650 -0.2380
28287SOL    HW186583   0.872   4.630   9.626 -2.9486 -1.7225  1.2330
28287SOL    HW286584   0.927   4.725   9.730  0.7546 -1.6810 -0.5768
28288SOL     OW86585   6.511   7.272   3.102  0.2658  0.0234  0.4580
28288SOL    HW186586   6.539   7.231   3.184  2.5530  1.3874  0.4667
28288SOL    HW286587   6.469   7.202   3.053  1.1746 -1.4841  1.7252
28289SOL     OW86588   4.740   5.497   6.939 -0.0599 -0.5596  0.2636
28289SOL    HW186589   4.761   5.404   6.947  1.4045 -0.4059 -1.2943
28289SOL    HW286590   4.821   5.538   6.909 -0.8033  1.1582  0.4531
28290SOL     OW86591   7.158   2.105   7.768 -0.3257 -0.2226  0.2152
28290SOL    HW186592   7.250   2.130   7.779 -0.4944  0.5422 -0.0246
28290SOL    HW286593   7.158   2.043   7.695  0.1020 -0.9148  0.7942
28291SOL     OW86594   4.175   0.090   5.052 -0.3260  0.2100 -0.5173
28291SOL    HW186595   4.187   0.049   5.138 -0.6095 -1.2742 -1.1659
28291SOL    HW286596   4.081   0.104   5.045 -0.5424 -1.5013 -1.3783
28292SOL     OW86597   8.804   8.055   2.977  0.3683 -0.2009 -0.3745
28292SOL    HW186598   8.840   8.111   3.047  0.0180 -1.2830  0.7050
28292SOL    HW286599   8.714   8.038   3.004  0.9077 -2.5510  0.1776
28293SOL     OW86600   4.373   4.398   5.721  0.1262 -0.5908  0.2868
28293SOL    HW186601   4.445   4.370   5.665  0.7971  0.2441  0.7123
28293SOL    HW286602   4.412   4.407   5.808 -0.6559 -0.8277  0.6721
28294SOL     OW86603   5.885   8.297   0.544  0.8001  0.0722 -0.1958
28294SOL    HW186604   5.840   8.310   0.461  1.9191  0.4606 -0.7567
28294SOL    HW286605   5.918   8.207   0.540 -0.2264 -0.3551  0.3863
28295SOL     OW86606   2.486   5.918   2.970  0.0196 -0.0833  0.0096
28295SOL    HW186607   2.555   5.937   3.034 -0.4751 -0.8297  0.7877
28295SOL    HW286608   2.497   5.985   2.902  0.7194  0.5662  0.7438
28296SOL     OW86609   8.265   6.742   6.929  0.1947 -0.5924  0.2691
28296SOL    HW186610   8.311   6.808   6.876 -0.1758 -0.3320  0.2715
28296SOL    HW286611   8.173   6.768   6.925  0.3036  0.1735  2.0859
28297SOL     OW86612   1.039   3.520   5.824 -0.2569 -0.1704  0.0286
28297SOL    HW186613   0.996   3.502   5.908 -0.4661  1.2772  0.2625
28297SOL    HW286614   1.132   3.507   5.842 -0.3834 -1.0056  0.1536
28298SOL     OW86615   4.175   8.777   9.312  0.3492  0.5198  0.5623
28298SOL    HW186616   4.232   8.831   9.258 -0.7698 -0.3476 -1.6103
28298SOL    HW286617   4.098   8.832   9.329  0.1078  0.3481  0.0710
28299SOL     OW86618   9.182   7.502   8.107 -0.8439  0.3304 -0.1772
28299SOL    HW186619   9.158   7.412   8.087 -1.2528  0.5585 -0.7434
28299SOL    HW286620   9.100   7.544   8.133 -0.3434  0.0287  2.1885
28300SOL     OW86621   4.856   4.944   4.936  0.1812 -0.3812 -0.2927
28300SOL    HW186622   4.831   5.017   4.879  0.3367  0.6648  0.9217
28300SOL    HW286623   4.907   4.886   4.880 -0.8773 -0.1315 -1.5743
28301SOL     OW86624   1.870   4.268   2.817  0.2505 -0.4813  0.3381
28301SOL    HW186625   1.816   4.189   2.823 -1.5700  0.4946 -1.7182
28301SOL    HW286626   1.816   4.337   2.857  1.0777  0.0436  0.5669
28302SOL     OW86627   3.060   8.935   6.182 -0.0449  0.4355 -0.5394
28302SOL    HW186628   3.009   9.014   6.164 -0.8620  0.5024  1.7157
28302SOL    HW286629   3.002   8.863   6.155 -0.5031  0.5562  0.1069
28303SOL     OW86630   1.617   6.522   6.686 -0.3038 -0.2833 -0.4018
28303SOL    HW186631   1.656   6.608   6.674 -1.0065 -0.1766 -2.2374
28303SOL    HW286632   1.589   6.496   6.599 -1.1113 -1.8999  0.2950
28304SOL     OW86633   3.153   0.428   2.587 -0.7846  0.1287 -0.0253
28304SOL    HW186634   3.249   0.434   2.591 -0.7306  0.3667 -1.2528
28304SOL    HW286635   3.126   0.509   2.546 -1.4983 -0.0931 -0.0030
28305SOL     OW86636   9.272   7.703   3.021 -0.4890  0.6806  0.0562
28305SOL    HW186637   9.216   7.640   3.067 -1.3077  1.3199 -0.0484
28305SOL    HW286638   9.274   7.779   3.079 -2.9199  2.1867 -1.6373
28306SOL     OW86639   6.959   5.935   2.950  0.2347 -0.0009  0.1760
28306SOL    HW186640   6.971   6.025   2.982  0.8410 -1.0329  3.2341
28306SOL    HW286641   6.897   5.896   3.012 -0.2624 -1.6275 -1.2652
28307SOL     OW86642   8.822   4.890   1.131 -0.3573  0.2183 -0.2844
28307SOL    HW186643   8.757   4.849   1.189 -0.8585 -0.8623 -1.5490
28307SOL    HW286644   8.902   4.841   1.147 -1.0464 -1.6208 -2.0613
28308SOL     OW86645   5.799   4.397   3.883  0.4412 -0.4355  0.0127
28308SOL    HW186646   5.766   4.485   3.867  0.6525 -0.5146 -0.9547
28308SOL    HW286647   5.753   4.367   3.961 -0.6309  0.0299 -0.4312
28309SOL     OW86648   4.594   1.371   3.344 -0.1116 -0.8137  0.5303
28309SOL    HW186649   4.653   1.444   3.328 -0.9269 -0.2016  0.2177
28309SOL    HW286650   4.583   1.329   3.258 -0.8728 -0.3401  0.3895
28310SOL     OW86651   2.905   4.220   9.611 -0.0323  0.2296  0.2545
28310SOL    HW186652   2.840   4.166   9.564 -0.6443  0.5079  0.7671
28310SOL    HW286653   2.918   4.174   9.694  2.0230 -0.9705 -0.6639
28311SOL     OW86654   0.474   7.998   0.945 -0.1794  0.4398 -0.2262
28311SOL    HW186655   0.379   8.009   0.951 -0.1613  1.8971 -1.7507
28311SOL    HW286656   0.509   8.064   1.005 -0.0780 -1.2317  1.6575
28312SOL     OW86657   7.604   5.155   2.310  0.1433 -0.1705  0.3251
28312SOL    HW186658   7.564   5.115   2.388 -0.8427  0.4272  0.1510
28312SOL    HW286659   7.599   5.249   2.326  0.2850 -0.0528 -0.2926
28313SOL     OW86660   6.208   0.494   3.492  0.4496  0.3095  0.3795
28313SOL    HW186661   6.213   0.579   3.536 -0.3097  2.0547 -2.6231
28313SOL    HW286662   6.131   0.452   3.531  0.6747  1.0917  1.7317
28314SOL     OW86663   8.655   8.638   8.762  0.2117  0.4378 -0.2960
28314SOL    HW186664   8.734   8.609   8.717  1.3868  2.0304  0.6362
28314SOL    HW286665   8.654   8.588   8.843  0.0549  0.1424 -0.4808
28315SOL     OW86666   4.472   8.265   5.883  0.1849 -0.4686 -0.3541
28315SOL    HW186667   4.560   8.241   5.913  0.5873 -0.7062 -1.6835
28315SOL    HW286668   4.484   8.348   5.837 -0.3976 -0.1763  0.0124
28316SOL     OW86669   7.239   7.118   3.368  0.2312  0.5894  0.2912
28316SOL    HW186670   7.250   7.028   3.398 -0.0546 -0.0694 -1.4612
28316SOL    HW286671   7.145   7.126   3.351  0.2764  1.1832  0.2979
28317SOL     OW86672   4.994   5.798   8.143 -0.8978 -0.4167  0.3951
28317SOL    HW186673   5.036   5.883   8.160 -0.2207 -0.5946 -0.3363
28317SOL    HW286674   4.982   5.796   8.048 -1.0926 -1.0589  0.4285
28318SOL     OW86675   3.418   6.297   5.728 -0.0871  0.2553 -0.2391
28318SOL    HW186676   3.470   6.257   5.658 -0.6092 -1.8503  0.4910
28318SOL    HW286677   3.333   6.314   5.689 -0.1979 -0.3739 -0.2798
28319SOL     OW86678   8.707   1.163   4.871 -0.1992  0.3047 -0.5894
28319SOL    HW186679   8.717   1.193   4.961 -1.2184 -0.0674 -0.3360
28319SOL    HW286680   8.674   1.073   4.879  1.5697 -0.4639 -1.3354
28320SOL     OW86681   7.358   0.545   3.631  0.3465 -0.4222  0.1462
28320SOL    HW186682   7.327   0.634   3.646  0.8118 -0.3079  0.4804
28320SOL    HW286683   7.283   0.498   3.596 -0.3583 -0.2918  1.4252
28321SOL     OW86684   0.660   7.980   3.047  0.3169 -0.1473 -0.5839
28321SOL    HW186685   0.647   7.885   3.042 -0.7223 -0.0719  0.3752
28321SOL    HW286686   0.739   7.991   3.101 -0.1513 -0.4531  0.1762
28322SOL     OW86687   6.866   9.553   9.683  0.9425 -0.1435 -0.1172
28322SOL    HW186688   6.889   9.482   9.744 -0.7061 -0.5527  0.0667
28322SOL    HW286689   6.777   9.578   9.708  1.0179  1.1124 -1.0334
28323SOL     OW86690   3.531   0.072   2.431 -0.0689 -0.2379  1.0686
28323SOL    HW186691   3.553   0.009   2.500 -0.0321 -2.1145 -0.5879
28323SOL    HW286692   3.437   0.087   2.441 -0.4501 -1.9596  0.4225
28324SOL     OW86693   1.036   6.910   6.942 -0.3026 -0.0926 -0.2297
28324SOL    HW186694   0.996   6.959   7.014  2.5794  1.5555  0.3854
28324SOL    HW286695   1.022   6.965   6.865 -1.0928 -0.5913 -0.4543
28325SOL     OW86696   5.015   3.319   4.569 -0.2997  0.1276 -0.1656
28325SOL    HW186697   5.103   3.356   4.559  0.0484 -0.5613  0.3105
28325SOL    HW286698   5.030   3.227   4.590 -1.0646  0.4074  1.8565
28326SOL     OW86699   7.520   6.972   2.909  0.0279 -1.3320 -0.6986
28326SOL    HW186700   7.459   7.033   2.867 -0.3010 -1.6111 -0.6387
28326SOL    HW286701   7.607   7.007   2.890 -0.1700  0.9670  2.0688
28327SOL     OW86702   7.280   0.601   7.158  0.3589  0.0172 -0.0852
28327SOL    HW186703   7.260   0.522   7.109  0.3083 -0.2038  0.2893
28327SOL    HW286704   7.255   0.581   7.248  0.2208  0.5076 -0.0138
28328SOL     OW86705   3.411   4.003   2.314 -0.3493  0.5609 -0.1352
28328SOL    HW186706   3.453   4.051   2.242 -0.5425  1.2670  0.2119
28328SOL    HW286707   3.477   3.939   2.342 -0.9542 -1.1250 -2.2324
28329SOL     OW86708   8.403   0.523   0.639  0.3646 -0.3641 -0.4393
28329SOL    HW186709   8.349   0.602   0.633 -0.0337 -0.7017 -1.8978
28329SOL    HW286710   8.357   0.467   0.701 -0.3747 -0.1988 -0.8276
28330SOL     OW86711   7.299   5.017   5.467  0.4173  0.0352 -0.2940
28330SOL    HW186712   7.379   5.031   5.519  1.0063 -1.1940 -0.8298
28330SOL    HW286713   7.242   5.090   5.492  1.9392  1.3224 -0.3712
28331SOL     OW86714   0.535   4.951   4.881  0.4234  0.0917  0.1602
28331SOL    HW186715   0.527   5.042   4.909  0.3838  0.0296  0.3494
28331SOL    HW286716   0.456   4.909   4.915 -0.2322  0.2864 -1.0705
28332SOL     OW86717   1.935   8.156   3.986  0.2628 -0.9553 -0.5772
28332SOL    HW186718   1.951   8.065   3.964 -0.2342 -0.6575 -2.3622
28332SOL    HW286719   1.845   8.158   4.019  0.3980 -1.1688 -0.2034
28333SOL     OW86720   8.065   1.652   7.639  0.0541  0.0401  0.0589
28333SOL    HW186721   8.107   1.566   7.652  0.7453  0.1861 -1.0207
28333SOL    HW286722   8.086   1.701   7.718 -1.7860 -1.3189  1.4611
28334SOL     OW86723   5.426   3.122   3.104 -0.5553  0.2391  0.5714
28334SOL    HW186724   5.450   3.213   3.088 -1.5101  0.3152 -0.5624
28334SOL    HW286725   5.338   3.125   3.141  0.0547 -0.1693  2.1693
28335SOL     OW86726   1.658   3.178   7.600 -0.5934  0.2646  0.3329
28335SOL    HW186727   1.722   3.112   7.574  0.2863  1.0922  0.3286
28335SOL    HW286728   1.589   3.129   7.645 -0.3841 -0.7489 -0.4085
28336SOL     OW86729   4.035   1.397   7.265  0.4015  0.0004  0.1629
28336SOL    HW186730   4.107   1.431   7.318  0.9807 -2.0983  0.8129
28336SOL    HW286731   4.037   1.303   7.279 -0.0556 -0.5696 -2.8445
28337SOL     OW86732   1.160   2.883   7.255  0.5818 -0.3053 -0.0534
28337SOL    HW186733   1.244   2.890   7.210 -0.2627  1.9865 -1.4361
28337SOL    HW286734   1.125   2.798   7.226  1.3531 -0.2058 -1.3979
28338SOL     OW86735   5.893   7.562   3.360  0.1797  0.0556 -0.2530
28338SOL    HW186736   5.840   7.624   3.310  1.5497  1.4011 -0.0803
28338SOL    HW286737   5.837   7.484   3.368 -0.7715  0.4680 -2.2880
28339SOL     OW86738   3.397   5.630   4.354  0.5592  0.1216 -1.1730
28339SOL    HW186739   3.418   5.691   4.425  1.6780  0.5699 -1.8530
28339SOL    HW286740   3.479   5.623   4.304  0.1950 -1.2658 -1.6131
28340SOL     OW86741   9.657   6.330   1.342  0.2065  0.2616  0.4863
28340SOL    HW186742   9.644   6.248   1.293 -1.4948  1.0107 -0.3997
28340SOL    HW286743   9.569   6.361   1.361  0.8279  1.6321  1.2747
28341SOL     OW86744   7.136   6.452   5.705  0.2516 -0.4047  0.2064
28341SOL    HW186745   7.042   6.443   5.687  0.4116 -1.9635  0.0035
28341SOL    HW286746   7.141   6.519   5.773 -1.0795 -0.9356  0.8644
28342SOL     OW86747   0.973   2.532   2.957 -0.5705 -1.0887 -0.1081
28342SOL    HW186748   0.902   2.571   2.906 -0.7936 -1.0702  0.2184
28342SOL    HW286749   0.945   2.540   3.048  0.5455  0.3458  0.1339
28343SOL     OW86750   1.790   1.357   2.278 -0.6176  0.1883  0.5864
28343SOL    HW186751   1.818   1.372   2.368 -0.1365  0.1164  0.4471
28343SOL    HW286752   1.859   1.396   2.225  0.2601 -1.7954  0.2143
28344SOL     OW86753   4.515   4.143   1.880 -0.3548  0.1494  0.1998
28344SOL    HW186754   4.475   4.056   1.884  1.5144 -0.8640 -1.1919
28344SOL    HW286755   4.607   4.127   1.903  0.2421  1.5891 -1.0521
28345SOL     OW86756   4.183   1.261   5.971  0.2871 -0.1299 -1.0120
28345SOL    HW186757   4.268   1.298   5.949  1.7615 -2.7595 -0.1478
28345SOL    HW286758   4.152   1.222   5.889  0.1161  0.4238 -1.2146
28346SOL     OW86759   4.397   7.634   9.606 -0.5826 -0.0999  0.2018
28346SOL    HW186760   4.353   7.653   9.688  0.4327  0.7974  0.5593
28346SOL    HW286761   4.354   7.689   9.541 -2.3289 -1.8260 -0.1999
28347SOL     OW86762   3.760   1.225   3.203 -0.2575  0.0736 -0.7904
28347SOL    HW186763   3.823   1.153   3.204  1.9810  1.8922  0.2295
28347SOL    HW286764   3.701   1.206   3.276 -1.1024 -1.7989 -1.9075
28348SOL     OW86765   8.114   9.463   7.451 -0.2176  0.4201  0.0995
28348SOL    HW186766   8.131   9.553   7.422  1.0754 -0.3382 -1.6758
28348SOL    HW286767   8.051   9.429   7.387 -0.2358 -0.1291  0.4025
28349SOL     OW86768   9.115   7.015   1.530  0.1393  0.5239  0.4100
28349SOL    HW186769   9.156   7.040   1.446  0.0603  0.2336  0.2838
28349SOL    HW286770   9.071   6.932   1.511  0.9611 -0.0557  0.9999
28350SOL     OW86771   5.696   7.621   4.464  0.2260 -0.9815  0.4785
28350SOL    HW186772   5.698   7.542   4.411 -0.2670 -1.5630  1.3061
28350SOL    HW286773   5.777   7.618   4.515  0.8492 -0.2685 -0.4248
28351SOL     OW86774   3.043   4.231   4.820  0.2820 -0.5795 -0.0203
28351SOL    HW186775   2.995   4.187   4.890  1.2279 -0.7830  0.5239
28351SOL    HW286776   3.058   4.320   4.854 -0.6000 -0.1883 -0.6226
28352SOL     OW86777   2.854   6.497   6.968 -0.4451 -0.0899  0.5142
28352SOL    HW186778   2.790   6.426   6.962 -0.5039  0.0436 -0.9946
28352SOL    HW286779   2.905   6.477   7.046 -1.1115 -1.2448  0.6833
28353SOL     OW86780   6.221   3.961   1.898 -0.2799  0.2955 -0.0527
28353SOL    HW186781   6.277   3.890   1.866 -1.3653 -0.6985  0.1837
28353SOL    HW286782   6.251   3.976   1.987 -0.0238  0.1516 -0.1121
28354SOL     OW86783   9.176   2.411   5.379 -0.2424  0.3213  0.2253
28354SOL    HW186784   9.192   2.324   5.417 -0.6780  0.6179  1.1315
28354SOL    HW286785   9.081   2.416   5.371 -0.2531  0.9216  0.6920
28355SOL     OW86786   3.634   2.203   4.392  0.0864 -0.2167  0.0863
28355SOL    HW186787   3.635   2.242   4.479  1.7555 -1.6209  0.7524
28355SOL    HW286788   3.714   2.234   4.351 -0.1287 -0.4778 -0.5394
28356SOL     OW86789   4.050   9.539   2.107 -0.0017  0.4233 -0.4970
28356SOL    HW186790   4.058   9.549   2.013 -2.4211  0.3262 -0.7741
28356SOL    HW286791   4.135   9.568   2.142  1.0991  0.0458 -2.6896
28357SOL     OW86792   8.042   8.567   2.733  0.0278 -0.2056  0.1811
28357SOL    HW186793   7.977   8.585   2.665 -2.3451 -0.2100  2.2842
28357SOL    HW286794   8.119   8.616   2.706 -0.8875  0.0087 -2.3356
28358SOL     OW86795   1.716   9.293   4.994 -0.1028 -0.7459 -0.2114
28358SOL    HW186796   1.623   9.278   5.010  0.1120 -0.7486  1.1978
28358SOL    HW286797   1.760   9.229   5.051  0.7796 -2.1425 -2.3351
28359SOL     OW86798   9.456   7.556   0.862 -0.2395  0.0869  0.3204
28359SOL    HW186799   9.548   7.560   0.834 -0.8877  4.1969 -2.0507
28359SOL    HW286800   9.418   7.490   0.804  0.9515 -0.7430  0.4357
28360SOL     OW86801   1.500   2.598   3.134  0.0023 -1.0268 -0.5795
28360SOL    HW186802   1.490   2.532   3.066 -1.1793 -0.2741 -1.1599
28360SOL    HW286803   1.425   2.656   3.123  0.7872  0.1835  0.1859
28361SOL     OW86804   2.630   8.195   5.821 -0.4290  0.2247  0.2532
28361SOL    HW186805   2.618   8.182   5.915  2.2636  1.0484  0.7718
28361SOL    HW286806   2.575   8.271   5.801  0.3841  1.2070  1.5716
28362SOL     OW86807   3.956   0.628   3.565 -0.3973  0.1014  0.1958
28362SOL    HW186808   3.948   0.632   3.661  0.7065  0.3213  0.3000
28362SOL    HW286809   3.871   0.596   3.535 -0.9289  0.4920  1.2142
28363SOL     OW86810   2.998   6.655   8.909  0.3630  0.0073 -0.6098
28363SOL    HW186811   3.060   6.605   8.856 -1.2071 -1.5662 -1.0740
28363SOL    HW286812   2.948   6.706   8.844 -1.1276 -1.4273 -0.6544
28364SOL     OW86813   4.142   3.414   6.380 -0.1676  0.0137 -0.3069
28364SOL    HW186814   4.173   3.407   6.290 -0.1951  2.0321 -0.5199
28364SOL    HW286815   4.213   3.380   6.433  0.1273 -0.5515 -1.0435
28365SOL     OW86816   5.508   6.762   0.289 -0.7023 -0.5129  0.1742
28365SOL    HW186817   5.570   6.834   0.274 -3.5819  2.0925 -0.3173
28365SOL    HW286818   5.506   6.714   0.206 -0.9211  0.7293 -0.5665
28366SOL     OW86819   4.343   8.432   0.798 -0.3449 -0.1967  0.9193
28366SOL    HW186820   4.330   8.344   0.833  1.6053 -1.0636 -0.3374
28366SOL    HW286821   4.255   8.461   0.773 -0.8992 -2.4311 -0.0281
28367SOL     OW86822   6.035   0.027   7.122 -0.3503 -0.2070 -0.2285
28367SOL    HW186823   6.060   0.092   7.187 -0.2691 -0.6240  0.1652
28367SOL    HW286824   5.945   0.049   7.099 -0.6160 -0.4584  0.5344
28368SOL     OW86825   5.655   0.004   3.909 -0.1978  0.4639 -0.1462
28368SOL    HW186826   5.572   0.051   3.911  0.1235  1.0441 -0.2403
28368SOL    HW286827   5.688   0.009   3.998 -1.3341 -1.7614  0.4966
28369SOL     OW86828   6.559   0.783   6.418 -0.1910 -0.2954 -0.3928
28369SOL    HW186829   6.627   0.755   6.356  0.3416 -0.0393  0.0691
28369SOL    HW286830   6.605   0.791   6.501 -1.3828 -3.2199  0.6791
28370SOL     OW86831   7.715   9.565   4.406  0.0336 -0.2363  0.0618
28370SOL    HW186832   7.730   9.654   4.374  2.4205 -0.2612  0.9068
28370SOL    HW286833   7.659   9.576   4.484  0.8987  0.6229  0.5837
28371SOL     OW86834   8.199   8.316   5.686  0.4324  0.1030  0.8719
28371SOL    HW186835   8.181   8.399   5.641  1.9609 -0.6556 -1.2685
28371SOL    HW286836   8.256   8.268   5.627  1.7030 -1.4461  3.1880
28372SOL     OW86837   6.094   5.857   5.446  0.3701  0.1118  0.0558
28372SOL    HW186838   6.011   5.899   5.467  0.8118 -0.2563  2.8138
28372SOL    HW286839   6.136   5.916   5.384 -1.9198  0.2758 -1.4395
28373SOL     OW86840   3.843   2.149   9.498  0.0805  0.4045 -0.2648
28373SOL    HW186841   3.870   2.240   9.506 -0.4427  0.5264  0.1994
28373SOL    HW286842   3.843   2.132   9.404 -1.3995  1.3829 -0.4782
28374SOL     OW86843   3.796   5.612   9.241 -0.3195 -0.2379 -0.3339
28374SOL    HW186844   3.747   5.532   9.223 -0.5422  0.1516 -1.5816
28374SOL    HW286845   3.733   5.683   9.226 -0.6047  0.1677  2.3865
28375SOL     OW86846   8.875   0.499   0.150  0.0110 -0.4638  0.0700
28375SOL    HW186847   8.796   0.536   0.112 -0.5823 -0.9451  0.7950
28375SOL    HW286848   8.940   0.569   0.143 -0.1023 -0.4915 -1.6686
28376SOL     OW86849   3.683   4.990   9.353  0.5955 -0.0442 -0.1862
28376SOL    HW186850   3.657   5.082   9.351  0.0307 -0.1962 -1.6917
28376SOL    HW286851   3.604   4.943   9.382  0.1613 -0.2167 -1.5583
28377SOL     OW86852   4.298   5.521   6.972 -0.0537 -0.0088  0.1906
28377SOL    HW186853   4.350   5.599   6.952 -0.0703  0.1040  0.5811
28377SOL    HW286854   4.215   5.534   6.925 -0.5026  0.7488  1.1626
28378SOL     OW86855   8.256   5.838   2.558  0.1079 -0.1328 -0.2172
28378SOL    HW186856   8.189   5.769   2.566 -1.3864  1.3145  0.3891
28378SOL    HW286857   8.339   5.791   2.563 -0.8446 -1.7640  1.5718
28379SOL     OW86858   1.150   5.005   3.065  0.2108  0.1068 -0.0148
28379SOL    HW186859   1.194   5.088   3.045  1.2587 -0.7108 -1.2647
28379SOL    HW286860   1.057   5.024   3.055  0.4179  1.2014  0.0046
28380SOL     OW86861   2.347   3.659   5.747 -0.4204  0.5239  0.1124
28380SOL    HW186862   2.378   3.656   5.657 -1.4849  0.4999 -0.2643
28380SOL    HW286863   2.377   3.743   5.780  1.1862 -0.0443  0.2089
28381SOL     OW86864   3.914   2.183   5.057 -0.5449 -0.2184 -0.1719
28381SOL    HW186865   3.984   2.198   4.994 -0.7931 -0.8545 -0.6100
28381SOL    HW286866   3.860   2.115   5.018 -0.6563 -0.6937  0.7669
28382SOL     OW86867   6.761   3.277   3.835  0.2246  0.8974 -0.4172
28382SOL    HW186868   6.710   3.242   3.908 -1.5587  0.9463 -1.5708
28382SOL    HW286869   6.730   3.367   3.824  0.5017  0.9081 -1.1892
28383SOL     OW86870   5.245   9.053   5.983 -0.1921 -0.4641 -0.4230
28383SOL    HW186871   5.326   9.096   5.955 -0.1464 -0.9084 -0.9843
28383SOL    HW286872   5.239   8.974   5.930 -1.2954 -0.1455 -0.8189
28384SOL     OW86873   8.359   8.243   0.837 -0.2952 -0.3155  0.0963
28384SOL    HW186874   8.445   8.224   0.798 -0.3678  0.0035 -0.2235
28384SOL    HW286875   8.300   8.178   0.799 -0.3600 -0.0235 -0.3061
28385SOL     OW86876   3.075   9.295   1.395 -0.0308  0.1773 -0.2732
28385SOL    HW186877   3.167   9.313   1.412  0.2351 -0.9019 -0.4579
28385SOL    HW286878   3.044   9.370   1.345  1.6934 -1.0545 -3.4295
28386SOL     OW86879   4.079   9.331   0.822 -0.2229  0.4619  0.4872
28386SOL    HW186880   4.089   9.359   0.913 -0.8274 -0.2539  0.7903
28386SOL    HW286881   4.133   9.252   0.815 -1.3626 -0.3629  0.6675
28387SOL     OW86882   5.185   9.654   0.408 -0.5476 -0.4886  0.2973
28387SOL    HW186883   5.127   9.653   0.484  1.0960  2.1349  1.7660
28387SOL    HW286884   5.272   9.637   0.445 -0.0678 -2.2876 -1.5165
28388SOL     OW86885   1.479   9.703   5.155 -0.0906  0.4221 -0.3704
28388SOL    HW186886   1.429   9.736   5.080  0.4668 -0.0633 -0.9699
28388SOL    HW286887   1.564   9.679   5.117  0.3236  0.5111  0.4895
28389SOL     OW86888   6.175   7.268   0.090  0.5897  0.3224  0.1106
28389SOL    HW186889   6.193   7.351   0.134 -0.0222  0.1267  0.7489
28389SOL    HW286890   6.087   7.245   0.118  1.0405 -0.9311  0.5578
28390SOL     OW86891   2.209   4.668   5.313  0.4499 -0.3322  0.2843
28390SOL    HW186892   2.274   4.602   5.288  0.5778 -0.5095  1.0683
28390SOL    HW286893   2.128   4.619   5.323  0.6171 -0.4442  1.2051
28391SOL     OW86894   0.163   1.409   9.482 -0.1989 -0.1017 -0.0767
28391SOL    HW186895   0.069   1.414   9.464 -0.2053  0.0122 -0.0183
28391SOL    HW286896   0.176   1.321   9.517 -0.3680  0.0490  0.3751
28392SOL     OW86897   6.107   1.547   2.037 -0.2327 -0.1682  0.8069
28392SOL    HW186898   6.202   1.535   2.027 -0.1831  0.2273  0.7818
28392SOL    HW286899   6.070   1.461   2.017  0.0588 -0.1128 -0.0267
28393SOL     OW86900   0.679   0.990   3.949  0.1516  0.1882  0.0859
28393SOL    HW186901   0.737   0.995   3.873 -0.1897 -0.0700 -0.1977
28393SOL    HW286902   0.685   1.076   3.990  2.5822 -0.5425  1.4488
28394SOL     OW86903   7.570   9.376   2.517 -0.0023 -0.3681 -0.2238
28394SOL    HW186904   7.520   9.296   2.531  0.2650 -0.4960  0.0205
28394SOL    HW286905   7.662   9.347   2.515  0.1257 -0.0167  0.3112
28395SOL     OW86906   7.999   6.348   4.725 -0.2436  0.3282 -0.1384
28395SOL    HW186907   7.953   6.393   4.796  0.3154 -0.0298  0.4608
28395SOL    HW286908   8.032   6.267   4.765  2.3554  1.3270 -0.0789
28396SOL     OW86909   6.681   0.272   6.052  0.3049 -0.0913  0.0531
28396SOL    HW186910   6.729   0.333   5.998 -1.5002  0.2635 -1.2463
28396SOL    HW286911   6.630   0.327   6.112 -1.9250 -0.1457 -1.6310
28397SOL     OW86912   6.712   1.981   7.666 -0.6981 -0.1040  0.5452
28397SOL    HW186913   6.778   1.926   7.622 -1.7862 -1.1021  0.1012
28397SOL    HW286914   6.703   1.941   7.753  0.8451  1.3652  1.4349
28398SOL     OW86915   3.778   2.212   5.297  0.0748  0.7206  0.1745
28398SOL    HW186916   3.824   2.164   5.366  0.7968 -0.0721 -0.8400
28398SOL    HW286917   3.819   2.183   5.216 -2.2312 -0.0255 -0.7854
28399SOL     OW86918   7.348   6.073   8.978 -0.5729 -0.0700 -0.0026
28399SOL    HW186919   7.279   6.065   9.043  0.1202  0.3311  0.7974
28399SOL    HW286920   7.326   6.153   8.930 -0.2282  0.5080  0.7884
28400SOL     OW86921   8.209   1.970   3.375  0.2848 -0.4259 -0.3975
28400SOL    HW186922   8.190   2.050   3.325  2.7206 -0.1929 -1.0601
28400SOL    HW286923   8.143   1.970   3.445  0.5034  2.4581 -0.0524
28401SOL     OW86924   1.886   2.264   7.989  0.2422 -0.2136 -0.1895
28401SOL    HW186925   1.831   2.205   8.040 -0.0518 -0.2878 -0.5819
28401SOL    HW286926   1.968   2.216   7.976 -0.0293 -0.5831 -0.5891
28402SOL     OW86927   0.151   4.261   6.249  0.4335 -0.2396 -0.0538
28402SOL    HW186928   0.135   4.325   6.179 -0.4841 -0.3248  0.0758
28402SOL    HW286929   0.119   4.178   6.214 -2.4414  0.1599  1.3886
28403SOL     OW86930   2.850   6.483   5.396 -0.0601  0.6708  0.5083
28403SOL    HW186931   2.765   6.497   5.437 -0.0198  1.1363  0.4362
28403SOL    HW286932   2.910   6.535   5.449  0.2158  0.1872  0.6796
28404SOL     OW86933   4.686   4.045   1.059  0.4738 -0.1773 -0.6263
28404SOL    HW186934   4.655   4.091   0.981 -0.2879  0.9063  0.2862
28404SOL    HW286935   4.746   4.107   1.100  1.0661 -0.8432 -0.4685
28405SOL     OW86936   0.753   8.259   2.040  0.0582 -0.4637 -0.3153
28405SOL    HW186937   0.676   8.221   2.083 -0.5147  0.2089 -0.7427
28405SOL    HW286938   0.810   8.183   2.024  0.1850 -0.7632  1.3960
28406SOL     OW86939   5.220   2.930   7.453  0.3052 -0.0716 -0.2325
28406SOL    HW186940   5.251   3.003   7.399 -0.4727 -0.0839 -0.7198
28406SOL    HW286941   5.132   2.911   7.419  0.3839 -1.0490  0.0728
28407SOL     OW86942   9.318   6.849   7.660 -0.4032 -0.1842 -0.2895
28407SOL    HW186943   9.276   6.780   7.710 -0.0118  0.3419  0.7905
28407SOL    HW286944   9.354   6.909   7.726  0.3592  0.3849 -1.1900
28408SOL     OW86945   7.282   4.395   3.735  0.5881 -0.5901 -0.3779
28408SOL    HW186946   7.278   4.317   3.791 -1.8530 -0.3056 -0.0809
28408SOL    HW286947   7.274   4.468   3.796 -1.3780 -0.2631 -0.9586
28409SOL     OW86948   6.753   8.613   3.762  0.1990  0.3514  0.0181
28409SOL    HW186949   6.810   8.677   3.804 -0.4790  0.8116  0.2419
28409SOL    HW286950   6.811   8.564   3.703  1.3135 -0.7234  1.9021
28410SOL     OW86951   4.266   8.904   2.491 -0.1155 -0.1766 -0.2488
28410SOL    HW186952   4.255   8.978   2.431  0.5019 -0.7514 -1.0793
28410SOL    HW286953   4.201   8.920   2.560 -1.0580  0.3398 -1.2197
28411SOL     OW86954   5.246   2.515   9.280 -0.4831  0.5678 -0.0836
28411SOL    HW186955   5.326   2.478   9.317  0.0434  1.3491 -0.4221
28411SOL    HW286956   5.270   2.604   9.254 -1.6966  1.1256  0.6324
28412SOL     OW86957   6.169   7.944   8.730  0.2769  0.1978 -0.0110
28412SOL    HW186958   6.114   7.909   8.800  0.1656  0.8122  0.2198
28412SOL    HW286959   6.148   8.037   8.727  1.6318  0.5482  0.4021
28413SOL     OW86960   5.530   7.633   8.146 -0.0699  0.0880 -0.5012
28413SOL    HW186961   5.534   7.685   8.226 -3.1403 -0.5357  0.2034
28413SOL    HW286962   5.552   7.544   8.173 -1.1855 -0.1381 -0.2851
28414SOL     OW86963   9.654   9.570   2.708 -0.1402 -0.0568 -0.2465
28414SOL    HW186964   9.639   9.520   2.627 -1.9410 -0.0559  0.0588
28414SOL    HW286965   9.575   9.621   2.720  0.0866 -0.0683  1.5405
28415SOL     OW86966   3.629   3.392   2.856  0.4918  0.6231 -0.6976
28415SOL    HW186967   3.692   3.443   2.805 -0.9212  2.8581 -0.3412
28415SOL    HW286968   3.550   3.391   2.803  0.1431 -0.2970 -0.1915
28416SOL     OW86969   7.631   6.982   1.105 -0.8158 -0.0773  0.6533
28416SOL    HW186970   7.536   6.994   1.103 -1.0052 -0.7682  2.8762
28416SOL    HW286971   7.665   7.065   1.138 -0.7672 -0.2789  1.1120
28417SOL     OW86972   6.801   7.174   3.138 -0.0567  0.1315  0.2219
28417SOL    HW186973   6.732   7.144   3.196 -0.2137 -1.1158 -0.5635
28417SOL    HW286974   6.789   7.269   3.133 -2.6769 -0.1718 -1.0456
28418SOL     OW86975   6.126   0.774   5.404  0.8076  0.0702  0.2105
28418SOL    HW186976   6.208   0.735   5.435  1.2561 -0.1071 -1.1278
28418SOL    HW286977   6.081   0.702   5.359  0.2639  0.3563  0.2958
28419SOL     OW86978   8.846   0.076   6.983 -0.1589  1.3668 -0.1465
28419SOL    HW186979   8.910   0.034   7.040  0.8623  0.3369 -1.9322
28419SOL    HW286980   8.848   0.023   6.903 -2.3111  2.1016 -0.7392
28420SOL     OW86981   2.993   3.975   3.700  0.0602  0.4198 -0.0741
28420SOL    HW186982   2.955   3.925   3.772  0.1488  0.9022  0.3218
28420SOL    HW286983   2.981   3.921   3.623 -1.8943  0.7766 -0.0525
28421SOL     OW86984   1.407   7.079   4.733  0.0896 -0.1570  0.4559
28421SOL    HW186985   1.407   7.012   4.801  2.3878  0.7980  1.4977
28421SOL    HW286986   1.495   7.117   4.736 -0.5669  1.7009 -1.2933
28422SOL     OW86987   7.636   4.582   7.875 -0.0853 -0.2817  0.4356
28422SOL    HW186988   7.613   4.494   7.905  0.5223 -1.0461 -1.2550
28422SOL    HW286989   7.582   4.595   7.797  2.3573 -0.6087 -1.4074
28423SOL     OW86990   8.388   7.780   7.703  0.1980 -0.1718  0.2693
28423SOL    HW186991   8.482   7.789   7.687  0.4802 -2.0208  0.6504
28423SOL    HW286992   8.348   7.844   7.645  1.6867  0.7662  0.2086
28424SOL     OW86993   5.505   0.833   0.856  0.1989  0.2841 -0.1862
28424SOL    HW186994   5.510   0.783   0.937 -4.7100 -1.6227 -0.7232
28424SOL    HW286995   5.534   0.772   0.788 -0.0350  0.2620 -0.2683
28425SOL     OW86996   3.941   8.606   2.362 -0.1901 -0.6671  0.1929
28425SOL    HW186997   3.908   8.547   2.294 -1.1983 -0.3678  0.3977
28425SOL    HW286998   4.036   8.597   2.358 -0.2360 -0.7479 -1.1700
28426SOL     OW86999   9.101   8.192   4.118 -0.4568  0.1018  0.1952
28426SOL    HW187000   9.138   8.274   4.085 -1.7188  0.7654  0.3177
28426SOL    HW287001   9.095   8.206   4.213  2.4972 -1.5129  0.7119
28427SOL     OW87002   1.872   8.988   9.029 -0.0737  1.0969 -0.0087
28427SOL    HW187003   1.870   9.019   8.938 -0.7736 -1.0396 -0.7871
28427SOL    HW287004   1.845   8.896   9.024  2.1602  0.2048  2.0749
28428SOL     OW87005   8.817   6.233   9.506 -0.2918  0.2884  0.0335
28428SOL    HW187006   8.901   6.205   9.542 -0.6162 -0.0433  0.5480
28428SOL    HW287007   8.838   6.265   9.418  0.6164  1.7471  0.7549
28429SOL     OW87008   8.827   7.626   2.175  0.1320 -0.6143 -0.0017
28429SOL    HW187009   8.909   7.578   2.161  0.4328 -0.2262  0.4342
28429SOL    HW287010   8.787   7.630   2.088  0.2042 -1.4681 -0.0869
28430SOL     OW87011   3.081   3.820   0.716 -0.1001  0.0716  0.4559
28430SOL    HW187012   3.133   3.784   0.788 -1.8596  1.6936  2.6777
28430SOL    HW287013   3.008   3.759   0.706  0.0954 -0.1054  0.1098
28431SOL     OW87014   9.272   2.987   7.823 -0.0935  0.1877 -0.8459
28431SOL    HW187015   9.284   2.892   7.833  1.3834  0.4606  0.2957
28431SOL    HW287016   9.216   3.012   7.896 -0.4601  0.2163 -1.1312
28432SOL     OW87017   3.277   8.475   2.633 -0.0330  0.1125  0.1365
28432SOL    HW187018   3.329   8.432   2.701  0.6013 -2.0131 -1.5914
28432SOL    HW287019   3.302   8.432   2.552 -2.1098  1.2831 -1.2343
28433SOL     OW87020   1.921   8.403   0.511 -0.1673  0.5747 -0.4800
28433SOL    HW187021   1.966   8.335   0.562 -0.6859  2.2594  2.4611
28433SOL    HW287022   1.987   8.433   0.449  0.5021 -1.6146 -0.9155
28434SOL     OW87023   0.120   9.558   0.179 -0.3841  0.2898  0.0060
28434SOL    HW187024   0.214   9.563   0.163 -0.3409 -0.8337 -0.1693
28434SOL    HW287025   0.113   9.534   0.272 -0.4243 -1.6609 -0.4615
28435SOL     OW87026   5.436   1.689   1.819 -0.1171  0.2067 -0.0485
28435SOL    HW187027   5.345   1.690   1.789  0.0563  2.1185 -0.6180
28435SOL    HW287028   5.456   1.596   1.831 -1.0283 -0.5320 -3.3165
28436SOL     OW87029   6.443   8.468   5.568 -0.4633 -0.0225  0.8432
28436SOL    HW187030   6.385   8.456   5.493 -0.9994  0.3594  1.1900
28436SOL    HW287031   6.392   8.436   5.642 -0.4510  0.8619  1.2359
28437SOL     OW87032   8.351   0.076   7.886 -0.0342 -0.2193  1.1071
28437SOL    HW187033   8.332   0.126   7.965 -0.0744 -0.2892  1.1415
28437SOL    HW287034   8.370   0.142   7.820  0.8127 -0.1728  1.3810
28438SOL     OW87035   9.575   3.342   0.349  0.4352 -0.3344 -0.0897
28438SOL    HW187036   9.581   3.350   0.444 -0.0568  0.7643 -0.1415
28438SOL    HW287037   9.659   3.374   0.317  0.2687  0.1423 -0.0599
28439SOL     OW87038   2.549   8.251   3.208 -0.7132  0.3655 -0.1788
28439SOL    HW187039   2.604   8.323   3.178 -0.0520 -0.0592 -0.0085
28439SOL    HW287040   2.532   8.271   3.301  0.0899 -0.0731  0.0685
28440SOL     OW87041   5.403   0.759   7.837 -0.4560  0.3416 -0.3428
28440SOL    HW187042   5.377   0.710   7.759  0.3189 -1.6073  0.5582
28440SOL    HW287043   5.497   0.770   7.829 -0.2739 -0.4317  0.6086
28441SOL     OW87044   6.201   9.311   4.349 -0.0706  0.0579 -0.5111
28441SOL    HW187045   6.238   9.243   4.292 -0.9065 -0.0354 -0.9509
28441SOL    HW287046   6.257   9.387   4.334 -0.5738  0.1958 -1.8728
28442SOL     OW87047   7.567   8.766   3.931  0.0905  0.0303  0.1937
28442SOL    HW187048   7.482   8.792   3.896  0.4928 -0.9150 -1.5824
28442SOL    HW287049   7.551   8.679   3.969  0.6516 -1.1388 -2.0709
28443SOL     OW87050   5.114   6.434   1.034  0.2980  0.1384  0.2873
28443SOL    HW187051   5.039   6.382   1.062 -0.8186  1.4655 -0.1850
28443SOL    HW287052   5.105   6.517   1.080  0.3007  1.0922 -1.3721
28444SOL     OW87053   6.945   0.300   8.617 -0.7744 -0.2777  0.0820
28444SOL    HW187054   7.008   0.343   8.675 -0.1290  0.1650 -0.9243
28444SOL    HW287055   6.984   0.214   8.598 -1.2927 -0.6816  0.8011
28445SOL     OW87056   8.812   3.055   6.430 -0.2654 -0.4937  0.2907
28445SOL    HW187057   8.899   3.096   6.433 -0.4546 -0.0873  0.2703
28445SOL    HW287058   8.795   3.029   6.520 -0.5336  0.3025  0.4781
28446SOL     OW87059   8.950   7.481   5.686 -0.5033  0.3805  0.0826
28446SOL    HW187060   8.977   7.571   5.670 -1.0247  0.2958 -1.4662
28446SOL    HW287061   8.976   7.433   5.607 -1.8858 -0.4260  0.0699
28447SOL     OW87062   5.933   6.719   9.429 -0.3765 -0.4961  0.2973
28447SOL    HW187063   5.992   6.741   9.500 -1.0024 -1.2018  1.0642
28447SOL    HW287064   5.964   6.769   9.354 -0.1566  0.8406  1.2582
28448SOL     OW87065   0.112   2.173   7.578  0.4381 -0.5577  0.1377
28448SOL    HW187066   0.110   2.085   7.617  2.8938 -1.2563 -1.0967
28448SOL    HW287067   0.074   2.161   7.491  2.3777 -0.8743 -0.7223
28449SOL     OW87068   2.000   0.671   3.488  0.3650  0.1255 -0.9032
28449SOL    HW187069   1.957   0.752   3.461  2.2616  1.0667 -1.3267
28449SOL    HW287070   1.933   0.622   3.536 -0.9055  1.8190 -0.8634
28450SOL     OW87071   5.029   2.960   5.738 -0.0887  0.5293  0.2573
28450SOL    HW187072   4.980   2.978   5.657 -1.3213  0.9314  1.0734
28450SOL    HW287073   4.986   2.883   5.775  0.7503  0.0842  0.3277
28451SOL     OW87074   0.554   7.068   1.472  0.0809  0.0223  0.5640
28451SOL    HW187075   0.573   7.140   1.411 -0.6127  0.2596  0.6221
28451SOL    HW287076   0.502   7.109   1.542  1.6220 -0.0323  1.8188
28452SOL     OW87077   7.189   2.731   6.191 -0.2234  0.0803 -0.0261
28452SOL    HW187078   7.247   2.659   6.219  1.1511  1.4596  0.8737
28452SOL    HW287079   7.111   2.688   6.158  0.0922 -1.8183  1.5092
28453SOL     OW87080   4.538   7.133   1.683  0.1659 -0.4362  0.5399
28453SOL    HW187081   4.585   7.051   1.696  4.1193  1.3766 -0.7734
28453SOL    HW287082   4.524   7.167   1.772 -1.4745 -2.3536  1.0989
28454SOL     OW87083   5.790   2.080   8.726 -0.2731  0.1098 -0.4972
28454SOL    HW187084   5.790   2.032   8.809 -0.0073 -2.5144 -1.9093
28454SOL    HW287085   5.704   2.062   8.688  0.8867 -1.9055 -2.4020
28455SOL     OW87086   0.117   8.151   0.553  0.2083 -0.2315  0.3038
28455SOL    HW187087   0.072   8.157   0.469  0.0344 -2.7831  0.1370
28455SOL    HW287088   0.069   8.211   0.610 -1.0100 -0.0494 -0.8740
28456SOL     OW87089   0.462   4.920   9.196  0.0326 -0.4928  0.6848
28456SOL    HW187090   0.505   4.929   9.111  2.0630  1.1150  1.8044
28456SOL    HW287091   0.516   4.858   9.244 -1.7665 -2.3172  0.4799
28457SOL     OW87092   6.810   7.431   3.102 -0.1474  0.1931  0.2059
28457SOL    HW187093   6.757   7.510   3.110  1.2307  1.0453  1.5250
28457SOL    HW287094   6.890   7.460   3.057 -0.4764 -0.9085 -1.1411
28458SOL     OW87095   2.367   7.234   4.360  0.3491 -0.6671  0.4656
28458SOL    HW187096   2.292   7.285   4.389  0.6081 -0.0714  0.1301
28458SOL    HW287097   2.441   7.269   4.410  0.6858 -0.0760 -0.4100
28459SOL     OW87098   9.219   8.893   2.909  0.0200 -0.4036 -0.1585
28459SOL    HW187099   9.226   8.799   2.924 -1.5526 -0.7572 -1.3630
28459SOL    HW287100   9.178   8.927   2.989 -0.2399 -0.9001 -0.0761
28460SOL     OW87101   3.445   8.373   8.612  0.0494 -0.6147  0.3449
28460SOL    HW187102   3.419   8.309   8.547  0.6435 -1.2682  0.7399
28460SOL    HW287103   3.480   8.321   8.685  0.1734  0.1360  0.8340
28461SOL     OW87104   4.500   2.333   0.845  0.7136 -0.0701  0.6434
28461SOL    HW187105   4.467   2.263   0.789  1.3703  1.0832 -1.2854
28461SOL    HW287106   4.439   2.405   0.832  0.8461  0.1933  1.4625
28462SOL     OW87107   2.029   1.110   8.219  0.3400  0.2978  0.5416
28462SOL    HW187108   1.992   1.071   8.139  1.7729 -2.3623  1.0683
28462SOL    HW287109   1.968   1.084   8.288  0.7632 -0.1680  0.7471
28463SOL     OW87110   1.873   8.778   2.256  0.4672 -0.6837 -0.8378
28463SOL    HW187111   1.819   8.805   2.331  2.5116 -1.6970  1.1376
28463SOL    HW287112   1.843   8.689   2.237  0.0403 -0.4769 -1.1447
28464SOL     OW87113   4.403   1.652   6.122 -0.3608 -0.2677 -0.6477
28464SOL    HW187114   4.487   1.607   6.112 -0.0186 -0.1164  1.2034
28464SOL    HW287115   4.419   1.740   6.087  0.1156 -0.3741 -0.7106
28465SOL     OW87116   5.111   3.707   0.926 -0.4132 -0.3897 -0.3631
28465SOL    HW187117   5.176   3.706   0.996  0.6140  0.2495 -1.2689
28465SOL    HW287118   5.052   3.779   0.949  1.4487  1.6183 -1.4102
28466SOL     OW87119   7.189   2.679   9.264 -0.0028  0.4327  1.0052
28466SOL    HW187120   7.163   2.606   9.321  0.2954  0.2502  0.9125
28466SOL    HW287121   7.123   2.680   9.195 -0.6148  0.9355  1.5935
28467SOL     OW87122   0.065   6.836   7.921  0.0752  0.4114  0.0804
28467SOL    HW187123  -0.009   6.848   7.862 -1.1787 -0.2297  1.4396
28467SOL    HW287124   0.043   6.757   7.971  2.5767 -0.9054 -0.7362
28468SOL     OW87125   1.270   1.857   4.210  0.0993 -0.4049  0.3632
28468SOL    HW187126   1.189   1.808   4.226  0.2818 -0.4510  1.1603
28468SOL    HW287127   1.310   1.812   4.135  0.6464 -1.9747  1.5401
28469SOL     OW87128   1.834   6.908   2.683  0.2645 -0.4542 -0.4047
28469SOL    HW187129   1.861   6.847   2.613 -1.2757 -3.1293  1.1474
28469SOL    HW287130   1.837   6.855   2.763  3.1395  2.8080  1.8889
28470SOL     OW87131   3.819   4.398   7.128  0.0149 -0.5233 -0.4219
28470SOL    HW187132   3.750   4.412   7.064 -0.2178 -0.2551 -0.1150
28470SOL    HW287133   3.816   4.303   7.145 -1.1819 -0.3492  0.5719
28471SOL     OW87134   4.766   3.866   8.961  0.0669  0.3801 -0.0583
28471SOL    HW187135   4.784   3.872   8.867 -0.0130 -1.5688 -0.2366
28471SOL    HW287136   4.678   3.828   8.966  0.9998 -1.8472  0.7405
28472SOL     OW87137   2.222   1.022   1.059 -0.0262 -0.4447  0.1435
28472SOL    HW187138   2.298   1.028   1.002 -1.0393  2.2116 -1.0751
28472SOL    HW287139   2.160   0.967   1.011  0.8550 -2.1784  0.9075
28473SOL     OW87140   4.508   3.126   4.778  0.3388 -0.5632  0.4337
28473SOL    HW187141   4.485   3.214   4.749 -0.3585 -0.1317  2.1451
28473SOL    HW287142   4.558   3.089   4.706  1.2565  1.4851 -0.0622
28474SOL     OW87143   7.045   0.847   8.452 -0.5890  0.1499  0.4634
28474SOL    HW187144   7.134   0.813   8.445 -0.1126  1.3766  0.2731
28474SOL    HW287145   6.990   0.770   8.465  0.5563 -0.5760  1.1041
28475SOL     OW87146   0.945   5.749   7.188 -0.8237 -0.2677 -0.6068
28475SOL    HW187147   0.856   5.756   7.223 -0.1763 -0.7495  1.2815
28475SOL    HW287148   0.962   5.654   7.187  0.0900 -0.1265  0.2453
28476SOL     OW87149   6.523   0.603   8.493 -0.2708  0.3035 -0.3964
28476SOL    HW187150   6.592   0.544   8.522  0.6984  0.9165 -1.3689
28476SOL    HW287151   6.442   0.563   8.524  0.5374 -0.1750  1.2005
28477SOL     OW87152   3.334   3.784   5.121  0.0897  1.0794 -0.0398
28477SOL    HW187153   3.409   3.841   5.139 -0.3701  2.2733 -1.6729
28477SOL    HW287154   3.294   3.821   5.042 -0.2764 -1.4789 -1.1495
28478SOL     OW87155   7.283   3.670   8.985 -0.1321 -0.3281 -0.0751
28478SOL    HW187156   7.271   3.581   9.018 -1.0104 -0.6936 -1.2810
28478SOL    HW287157   7.215   3.722   9.029  0.7532 -0.1161  1.0651
28479SOL     OW87158   0.357   6.601   5.848 -0.2920 -0.0612 -0.4694
28479SOL    HW187159   0.279   6.657   5.851 -0.9955 -1.0376  0.0994
28479SOL    HW287160   0.377   6.593   5.755 -1.7008 -0.8616 -0.7420
28480SOL     OW87161   5.286   2.248   7.039 -0.1284 -0.6684 -0.3027
28480SOL    HW187162   5.283   2.199   7.121  1.3528  1.3764  1.0878
28480SOL    HW287163   5.245   2.332   7.061  1.2530  0.3212 -1.3282
28481SOL     OW87164   7.000   5.736   2.212 -0.1980  0.1648  0.1067
28481SOL    HW187165   7.070   5.789   2.175 -0.8755  0.4112 -0.8806
28481SOL    HW287166   6.972   5.679   2.140  1.1613 -2.2976  1.3729
28482SOL     OW87167   8.798   5.201   9.684 -0.3555 -0.6777  0.5168
28482SOL    HW187168   8.865   5.133   9.682 -0.6457 -0.9451 -0.5381
28482SOL    HW287169   8.845   5.282   9.667 -0.0820 -0.6597  1.3052
28483SOL     OW87170   1.490   4.084   5.070  0.4454 -0.6509 -0.5266
28483SOL    HW187171   1.444   4.076   4.986  0.5968 -1.3615 -0.5449
28483SOL    HW287172   1.453   4.163   5.109  0.0926 -0.5254 -1.0909
28484SOL     OW87173   5.416   7.581   2.212  0.0730 -0.0491 -0.1033
28484SOL    HW187174   5.443   7.627   2.133  0.3171  1.6027  0.8988
28484SOL    HW287175   5.322   7.568   2.201  0.1161  0.1251 -0.6958
28485SOL     OW87176   7.917   3.806   5.528  0.4753 -0.4852 -0.3716
28485SOL    HW187177   7.863   3.773   5.456  0.8998  0.3881 -1.1012
28485SOL    HW287178   8.006   3.804   5.494  0.7211 -0.3495  0.2456
28486SOL     OW87179   4.943   3.644   7.294  0.3423  0.4400  0.3287
28486SOL    HW187180   5.022   3.694   7.316  0.2932  0.8011 -0.3057
28486SOL    HW287181   4.892   3.702   7.238 -0.0897 -0.0256  0.2289
28487SOL     OW87182   7.426   7.186   5.145  0.3072 -0.0434 -0.2688
28487SOL    HW187183   7.353   7.215   5.201 -1.0057 -2.1104 -0.8200
28487SOL    HW287184   7.409   7.228   5.061  1.5509  1.9865  0.4061
28488SOL     OW87185   2.527   9.574   6.637 -0.1138  0.1622  0.0949
28488SOL    HW187186   2.433   9.556   6.634 -0.0599 -0.2506  0.7215
28488SOL    HW287187   2.553   9.549   6.726 -0.1263  3.7047  1.2520
28489SOL     OW87188   4.517   8.441   0.371  0.3214  0.1070 -0.0731
28489SOL    HW187189   4.571   8.449   0.450  1.7399  0.4383 -1.0368
28489SOL    HW287190   4.480   8.353   0.376  0.5749  0.0402  0.8473
28490SOL     OW87191   8.574   9.029   3.434  0.0530  0.2249 -0.0740
28490SOL    HW187192   8.540   9.016   3.523 -1.1693  0.5318 -0.4862
28490SOL    HW287193   8.597   9.122   3.431 -0.3333  0.3192 -0.2124
28491SOL     OW87194   4.645   5.571   5.152 -0.0910 -0.0575  0.1611
28491SOL    HW187195   4.659   5.663   5.130 -2.0744  1.0841  3.0759
28491SOL    HW287196   4.699   5.557   5.229 -0.7559 -0.9728  0.4664
28492SOL     OW87197   0.305   1.667   6.941  0.3700 -0.3980 -0.1563
28492SOL    HW187198   0.335   1.755   6.964 -1.4310  0.0979  0.4329
28492SOL    HW287199   0.341   1.651   6.854  2.1860  0.1941  0.4455
28493SOL     OW87200   3.472   1.948   8.411  0.2989 -0.5713 -0.6276
28493SOL    HW187201   3.522   1.946   8.493 -0.2298  2.0785 -0.1448
28493SOL    HW287202   3.391   1.902   8.431  0.3982 -0.4085  0.1796
28494SOL     OW87203   0.446   4.583   4.374 -0.1246 -0.2929 -0.6407
28494SOL    HW187204   0.441   4.488   4.366  1.1297 -0.2566 -2.6806
28494SOL    HW287205   0.505   4.610   4.304  2.0680  1.7318  1.7850
28495SOL     OW87206   0.034   7.849   1.156 -0.7234  0.5948 -0.1024
28495SOL    HW187207   0.003   7.766   1.119 -0.1764 -1.1569  3.0566
28495SOL    HW287208  -0.037   7.911   1.138 -3.0023 -1.5664  0.8622
28496SOL     OW87209   9.037   9.297   3.591 -0.1384  0.2488  0.4391
28496SOL    HW187210   8.958   9.266   3.634 -1.1981  0.1707 -1.4216
28496SOL    HW287211   9.104   9.231   3.610 -0.9540 -0.4924  0.7822
28497SOL     OW87212   0.442   4.817   6.730 -0.4477 -0.2934  0.3634
28497SOL    HW187213   0.387   4.874   6.784 -1.3418 -1.1386  0.3744
28497SOL    HW287214   0.400   4.818   6.644  0.5546  0.4654 -0.1304
28498SOL     OW87215   0.657   4.299   7.068  0.1866  0.2313 -0.3803
28498SOL    HW187216   0.627   4.350   7.143 -0.6288 -0.0160 -0.5222
28498SOL    HW287217   0.634   4.208   7.090 -0.6998  0.2366 -1.2084
28499SOL     OW87218   3.488   3.064   0.341 -0.7590 -0.0476 -0.9744
28499SOL    HW187219   3.584   3.065   0.335 -0.6077  0.1494  0.9167
28499SOL    HW287220   3.468   3.126   0.411 -2.2629 -0.4735 -0.9935
28500SOL     OW87221   3.187   9.695   9.039 -0.2897 -0.2305 -0.0768
28500SOL    HW187222   3.110   9.649   9.072 -1.6011  0.2428 -2.3363
28500SOL    HW287223   3.182   9.782   9.079 -0.1119 -0.6277  0.8601
28501SOL     OW87224   4.029   6.047   7.844  0.2515 -0.2050  0.6240
28501SOL    HW187225   4.074   6.033   7.761  2.1412  0.5052  1.4759
28501SOL    HW287226   3.970   6.120   7.827  0.4334 -0.2296 -0.1571
28502SOL     OW87227   6.703   9.633   9.260 -0.4610  0.3492 -0.1130
28502SOL    HW187228   6.784   9.679   9.278 -0.4786  0.1138  0.5978
28502SOL    HW287229   6.695   9.568   9.330 -1.1470  0.2164 -0.2980
28503SOL     OW87230   0.530   8.788   4.234 -0.0730 -0.6281 -0.2475
28503SOL    HW187231   0.496   8.875   4.255  0.2207 -0.9009  1.4903
28503SOL    HW287232   0.542   8.790   4.139 -1.1439  0.8277 -0.3944
28504SOL     OW87233   8.701   0.544   4.712 -0.0182 -0.0747 -0.2374
28504SOL    HW187234   8.787   0.531   4.752  0.4912 -0.6383 -1.4689
28504SOL    HW287235   8.716   0.606   4.641 -0.9674  1.1474  0.5924
28505SOL     OW87236   6.502   2.757   8.156  0.3059 -0.3737 -0.1669
28505SOL    HW187237   6.584   2.765   8.205  1.8102 -2.5802 -2.1425
28505SOL    HW287238   6.491   2.842   8.114  1.4084  0.0622  0.3798
28506SOL     OW87239   3.226   8.669   1.776 -0.0491  0.1209 -0.2634
28506SOL    HW187240   3.321   8.680   1.780 -0.2088  1.6107  0.0137
28506SOL    HW287241   3.192   8.725   1.846 -1.1498 -0.1094 -0.5861
28507SOL     OW87242   9.523   9.347   4.800 -0.2021  0.0445 -0.3074
28507SOL    HW187243   9.551   9.256   4.797 -2.8858 -1.1145  2.8104
28507SOL    HW287244   9.568   9.384   4.877 -0.6273  0.7268 -0.3714
28508SOL     OW87245   1.396   7.064   3.144 -0.0626 -0.3591  0.4063
28508SOL    HW187246   1.307   7.071   3.110 -0.0936 -1.1355  0.3170
28508SOL    HW287247   1.386   7.062   3.239  0.1107  3.3077  0.6535
28509SOL     OW87248   0.961   6.838   4.826 -0.3825 -0.5388 -0.4825
28509SOL    HW187249   1.051   6.869   4.815 -0.6309 -0.3477 -2.2442
28509SOL    HW287250   0.909   6.894   4.769 -1.2430 -2.3252 -1.5640
28510SOL     OW87251   8.144   8.001   4.636  0.9835  0.0104  0.4062
28510SOL    HW187252   8.198   7.980   4.560  0.2666 -0.8097  0.1097
28510SOL    HW287253   8.063   7.953   4.622  0.9612 -0.4132  1.8509
28511SOL     OW87254   7.704   7.156   4.192  0.3191 -0.6566  0.2854
28511SOL    HW187255   7.624   7.151   4.244  0.5984  0.3747  0.8181
28511SOL    HW287256   7.679   7.207   4.115  0.3636 -0.6676  0.2634
28512SOL     OW87257   7.696   7.539   9.116  0.2000  0.1732  0.3723
28512SOL    HW187258   7.617   7.487   9.097  1.6252 -1.4226 -1.6023
28512SOL    HW287259   7.681   7.622   9.071 -0.0538 -0.4184 -0.6691
28513SOL     OW87260   0.133   2.895   3.760 -0.2213 -0.1388 -0.1348
28513SOL    HW187261   0.206   2.948   3.793 -1.3722  0.6928  1.1607
28513SOL    HW287262   0.132   2.818   3.817 -0.8869  0.2688  0.4091
28514SOL     OW87263   8.137   9.567   3.960 -0.1750 -0.1060  0.0449
28514SOL    HW187264   8.203   9.549   3.893 -0.2042  0.6317 -0.1937
28514SOL    HW287265   8.186   9.606   4.033 -0.5428  2.1798 -0.8496
28515SOL     OW87266   4.540   6.594   0.980  0.0597 -0.0441 -0.2975
28515SOL    HW187267   4.501   6.513   0.948 -0.0388  0.2274 -0.9009
28515SOL    HW287268   4.630   6.591   0.950  0.5984 -0.7767  1.2991
28516SOL     OW87269   1.585   6.698   5.094 -0.3247  0.1136  0.1289
28516SOL    HW187270   1.580   6.683   4.999 -0.3070 -0.9203  0.2806
28516SOL    HW287271   1.516   6.643   5.131  1.0666 -1.2049  0.8730
28517SOL     OW87272   6.602   1.202   4.736  0.3501  0.4963 -0.5003
28517SOL    HW187273   6.581   1.122   4.688 -1.0087 -0.3429  1.3783
28517SOL    HW287274   6.604   1.175   4.828  0.0565  2.5668  0.1690
28518SOL     OW87275   0.743   3.839   8.713  0.2381  0.0928  0.0410
28518SOL    HW187276   0.815   3.857   8.773  1.3863  0.1327 -1.2905
28518SOL    HW287277   0.680   3.909   8.729 -0.3049 -0.8546  2.3690
28519SOL     OW87278   6.528   0.462   7.871  0.6137  0.0034 -0.0403
28519SOL    HW187279   6.527   0.423   7.784 -0.8625 -0.6919  0.2683
28519SOL    HW287280   6.465   0.534   7.866 -0.9157 -1.2103  0.9381
28520SOL     OW87281   8.403   3.053   5.598  0.5834 -0.0953 -0.4045
28520SOL    HW187282   8.445   3.006   5.526  0.3704 -0.2522 -0.4259
28520SOL    HW287283   8.429   3.005   5.677  1.3298  0.4366 -0.3061
28521SOL     OW87284   8.103   9.704   9.608 -0.3003  0.0733 -0.4842
28521SOL    HW187285   8.140   9.786   9.575  0.5780 -1.2152 -3.0159
28521SOL    HW287286   8.018   9.697   9.565 -1.5987  0.8424  1.7906
28522SOL     OW87287   4.739   2.552   4.145  0.0736  0.6518  0.5740
28522SOL    HW187288   4.693   2.600   4.077 -0.7369  2.3913  2.2300
28522SOL    HW287289   4.802   2.615   4.180 -0.0182  0.0625  1.8691
28523SOL     OW87290   5.079   1.115   9.632 -0.2640  0.2910  0.0630
28523SOL    HW187291   5.160   1.145   9.591 -0.6617  1.4950  0.1033
28523SOL    HW287292   5.071   1.023   9.606  0.7931  0.3257 -0.4363
28524SOL     OW87293   5.052   0.216   5.536  0.1400 -0.2490 -0.9612
28524SOL    HW187294   5.140   0.183   5.555 -1.1245 -3.8155 -0.4173
28524SOL    HW287295   5.027   0.263   5.616  1.3614  0.4889 -0.9812
28525SOL     OW87296   5.786   5.449   0.824  0.2982  0.2739  1.4529
28525SOL    HW187297   5.767   5.543   0.829  0.9402  0.5034  0.0611
28525SOL    HW287298   5.796   5.431   0.730 -0.5165 -1.3393  1.6378
28526SOL     OW87299   5.145   6.479   0.431 -0.0074  0.1060 -0.0414
28526SOL    HW187300   5.183   6.564   0.412  0.4543  0.1380  0.9597
28526SOL    HW287301   5.173   6.459   0.520  0.7455 -1.5481 -0.6032
28527SOL     OW87302   8.282   2.252   5.076 -0.2772  0.2358 -0.0136
28527SOL    HW187303   8.328   2.179   5.117  0.7123  0.9923  0.2597
28527SOL    HW287304   8.272   2.227   4.985  1.8326  0.5683 -0.3744
28528SOL     OW87305   6.063   7.714   6.741  0.0571  0.6079 -0.3451
28528SOL    HW187306   5.979   7.679   6.710  0.4076 -0.7602  0.1544
28528SOL    HW287307   6.129   7.657   6.700  0.7510  1.5866 -0.6325
28529SOL     OW87308   5.894   6.526   1.665  0.2372 -0.3064  0.1977
28529SOL    HW187309   5.824   6.563   1.719 -0.4964 -0.5414 -0.5591
28529SOL    HW287310   5.850   6.459   1.612  0.8731  0.0707 -0.8463
28530SOL     OW87311   5.784   6.478   5.553  0.5837  0.1884  0.1722
28530SOL    HW187312   5.737   6.395   5.550  1.3893 -0.2717 -0.0267
28530SOL    HW287313   5.720   6.544   5.527  0.6520 -0.7015 -2.5016
28531SOL     OW87314   7.373   5.275   1.899  0.1724 -0.0717  0.0827
28531SOL    HW187315   7.371   5.247   1.808 -0.7007  1.1130 -0.2862
28531SOL    HW287316   7.458   5.316   1.910 -0.1936  0.8961 -0.5708
28532SOL     OW87317   2.052   6.313   4.228  0.0921 -0.5372 -0.4588
28532SOL    HW187318   2.077   6.390   4.279  0.5198 -0.9050 -0.1118
28532SOL    HW287319   1.956   6.310   4.236  0.0442  0.1126 -0.7045
28533SOL     OW87320   2.303   0.101   2.029 -0.5720 -0.1369  0.2060
28533SOL    HW187321   2.235   0.034   2.021 -1.5824  0.6648  1.5473
28533SOL    HW287322   2.308   0.118   2.123  0.0649  1.2457 -0.0534
28534SOL     OW87323   2.316   7.898   5.616  0.2069  0.1574 -0.0210
28534SOL    HW187324   2.392   7.841   5.603 -0.1746 -0.2924 -0.2898
28534SOL    HW287325   2.303   7.900   5.711  2.1101  2.2874  0.2935
28535SOL     OW87326   2.168   1.271   2.283 -0.2846  0.1916 -0.0139
28535SOL    HW187327   2.255   1.233   2.270 -0.3621  0.7991 -3.1673
28535SOL    HW287328   2.182   1.366   2.279 -1.0564  0.2990 -0.4552
28536SOL     OW87329   9.590   3.797   1.306  0.0162  0.0182 -1.0494
28536SOL    HW187330   9.599   3.861   1.236  0.0861 -0.8322 -1.8426
28536SOL    HW287331   9.522   3.832   1.362  1.3700  1.7204 -0.3900
28537SOL     OW87332   5.639   3.577   7.603 -0.2002  0.1269 -0.6439
28537SOL    HW187333   5.583   3.517   7.556 -0.5539 -0.3496  0.3496
28537SOL    HW287334   5.728   3.548   7.584 -0.3169  0.2682 -1.4217
28538SOL     OW87335   2.061   7.004   5.843 -0.3345 -0.0153 -0.4001
28538SOL    HW187336   2.009   6.946   5.899 -1.1104  0.4261 -0.6400
28538SOL    HW287337   1.996   7.050   5.790  0.3719 -0.6612 -1.9145
28539SOL     OW87338   9.109   4.826   3.030  0.1946  0.0602 -0.1863
28539SOL    HW187339   9.204   4.831   3.021  0.1489  1.0443 -0.2808
28539SOL    HW287340   9.090   4.875   3.110 -0.1990 -0.5103  0.0783
28540SOL     OW87341   5.234   2.268   8.664 -0.1621  0.5782 -0.3143
28540SOL    HW187342   5.309   2.310   8.706  0.3208  1.7716 -2.2360
28540SOL    HW287343   5.158   2.308   8.706  0.1184 -1.6191  2.6334
28541SOL     OW87344   5.176   0.448   1.594 -0.2601 -0.5390 -0.5439
28541SOL    HW187345   5.151   0.507   1.522  1.6470  0.4796 -0.4307
28541SOL    HW287346   5.116   0.373   1.585 -1.0380  0.2230 -2.2820
28542SOL     OW87347   6.062   0.102   6.431 -0.2128 -0.2060 -0.0701
28542SOL    HW187348   6.050   0.197   6.434 -0.8833 -0.3079  0.7424
28542SOL    HW287349   6.075   0.083   6.338  0.4464  0.7360 -0.1888
28543SOL     OW87350   3.443   9.317   6.572 -0.4148  0.4040  0.4286
28543SOL    HW187351   3.352   9.309   6.545 -0.8987  0.4634  1.9864
28543SOL    HW287352   3.457   9.244   6.632  0.1292  1.2353  1.3276
28544SOL     OW87353   6.510   0.294   9.292 -0.1638 -0.0139  0.3596
28544SOL    HW187354   6.506   0.243   9.211  1.3785 -0.8720  0.7797
28544SOL    HW287355   6.511   0.228   9.361  0.2511  0.6554  0.9993
28545SOL     OW87356   4.372   7.028   1.192 -0.5103 -0.1479 -0.2250
28545SOL    HW187357   4.388   6.971   1.268 -0.9075  1.1042  0.8263
28545SOL    HW287358   4.300   6.985   1.146 -1.2319 -0.1914  0.9046
28546SOL     OW87359   7.803   1.579   7.003 -0.3282  0.3996  0.0611
28546SOL    HW187360   7.806   1.666   6.964 -0.8662 -0.0850 -1.1065
28546SOL    HW287361   7.889   1.542   6.986  0.0084  0.8144  0.8382
28547SOL     OW87362   5.166   8.115   9.254 -0.4857  0.4467  0.1221
28547SOL    HW187363   5.089   8.114   9.310 -0.2666 -0.2276  0.4244
28547SOL    HW287364   5.228   8.172   9.299 -0.5118  0.3485  0.2811
28548SOL     OW87365   5.994   4.079   1.029 -0.1750  0.1174 -0.1281
28548SOL    HW187366   5.980   4.022   0.954  0.5401  0.7685 -0.7660
28548SOL    HW287367   5.907   4.088   1.069 -1.0887  1.7202 -2.3023
28549SOL     OW87368   3.380   3.045   0.756 -0.9638 -0.2407 -0.1152
28549SOL    HW187369   3.338   2.964   0.727 -0.5197 -0.5173 -0.0033
28549SOL    HW287370   3.384   3.099   0.677 -0.7292 -0.5633 -0.3286
28550SOL     OW87371   4.915   1.974   7.902  0.1257  0.1468  0.0678
28550SOL    HW187372   4.928   2.057   7.947  5.3531 -0.0370 -0.5159
28550SOL    HW287373   4.896   1.911   7.971 -1.8143  1.3625  0.7234
28551SOL     OW87374   2.653   1.264   4.973  0.1483  0.3501 -0.1041
28551SOL    HW187375   2.686   1.352   4.952  1.6638  0.0882  1.0543
28551SOL    HW287376   2.587   1.247   4.905 -0.5944  2.5937 -0.0203
28552SOL     OW87377   8.969   3.558   6.957  0.3346  0.0252  0.3782
28552SOL    HW187378   8.917   3.493   6.911 -0.5520 -0.0055  1.3808
28552SOL    HW287379   8.910   3.594   7.023  2.0332 -1.2940  2.8078
28553SOL     OW87380   1.627   3.598   3.433  0.5760 -0.7309  0.4576
28553SOL    HW187381   1.644   3.651   3.355 -0.7845 -1.4907 -0.3768
28553SOL    HW287382   1.539   3.625   3.461  0.3603 -1.6906  0.7162
28554SOL     OW87383   2.564   3.635   1.073 -0.2072 -0.2259  0.2283
28554SOL    HW187384   2.576   3.547   1.109  1.0462 -0.0134  0.3789
28554SOL    HW287385   2.497   3.674   1.128 -1.3905 -1.3613 -0.3591
28555SOL     OW87386   2.889   7.319   1.195  0.5990  0.1570  0.1174
28555SOL    HW187387   2.970   7.268   1.197  0.4357 -0.2126 -1.3795
28555SOL    HW287388   2.823   7.257   1.165  0.0069  0.7738  0.1272
28556SOL     OW87389   8.349   6.069   9.632  0.0508  0.1307  0.0663
28556SOL    HW187390   8.292   6.121   9.688  0.1572  1.3538 -0.9129
28556SOL    HW287391   8.290   6.005   9.590 -0.7194  1.5760 -1.1725
28557SOL     OW87392   8.958   9.024   0.618  0.1560 -0.6437  0.1960
28557SOL    HW187393   8.975   8.951   0.559 -1.5240 -1.3346  0.5024
28557SOL    HW287394   9.045   9.060   0.638  0.8823 -1.4552 -1.3193
28558SOL     OW87395   6.511   9.210   0.208 -0.1781 -0.3636 -0.2490
28558SOL    HW187396   6.470   9.129   0.177  1.7442 -0.4689 -2.8363
28558SOL    HW287397   6.440   9.274   0.206 -1.4955 -1.7167  0.8572
28559SOL     OW87398   5.770   4.542   2.496 -0.5552  0.0456  0.4161
28559SOL    HW187399   5.767   4.493   2.578 -0.8660  0.4437  0.6496
28559SOL    HW287400   5.775   4.634   2.524  0.4208  0.1325 -0.0125
28560SOL     OW87401   1.607   6.666   4.830  0.0218  0.0541 -0.4760
28560SOL    HW187402   1.591   6.600   4.763 -1.9305  0.8721 -0.8882
28560SOL    HW287403   1.642   6.741   4.781 -1.3863  0.6455 -0.6263
28561SOL     OW87404   1.140   4.165   7.058 -0.3673 -0.3410  0.7699
28561SOL    HW187405   1.222   4.193   7.017 -0.7205  0.1512  0.3886
28561SOL    HW287406   1.085   4.244   7.060 -1.9679 -1.2689 -1.7608
28562SOL     OW87407   4.755   0.774   3.635  0.4395  0.3269  0.4366
28562SOL    HW187408   4.807   0.711   3.685 -0.0920  0.7968  1.6318
28562SOL    HW287409   4.707   0.721   3.572 -0.4574 -0.5763  1.8257
28563SOL     OW87410   9.329   8.125   8.504  0.1668 -0.1121  0.5102
28563SOL    HW187411   9.339   8.096   8.413 -0.0542  1.0921  0.0719
28563SOL    HW287412   9.237   8.108   8.525  0.3505 -0.8889  0.6989
28564SOL     OW87413   6.363   5.229   4.675  0.1257 -0.0011 -0.0634
28564SOL    HW187414   6.417   5.273   4.740 -0.2293 -0.9204  0.8724
28564SOL    HW287415   6.285   5.200   4.723  0.3790 -1.7123 -0.6120
28565SOL     OW87416   3.931   3.642   8.189 -0.3603 -0.7354 -0.3843
28565SOL    HW187417   3.873   3.571   8.164 -1.2959 -0.1711  0.1278
28565SOL    HW287418   3.944   3.692   8.108 -2.7428  0.6398 -0.0025
28566SOL     OW87419   4.322   6.232   8.655 -0.2671 -0.3059  0.2080
28566SOL    HW187420   4.391   6.222   8.590  2.7399  2.1604  2.7038
28566SOL    HW287421   4.283   6.317   8.636 -1.7344 -1.0559 -0.3061
28567SOL     OW87422   8.479   2.422   0.141  0.1097  0.7478 -0.0259
28567SOL    HW187423   8.424   2.482   0.091 -0.1286  1.2575  0.8272
28567SOL    HW287424   8.568   2.453   0.128 -0.0274  1.3900  0.5371
28568SOL     OW87425   7.540   6.132   3.713  0.5877 -0.2623 -0.0547
28568SOL    HW187426   7.493   6.062   3.667 -2.3126  2.1305 -1.0153
28568SOL    HW287427   7.582   6.182   3.644  0.1581  0.6206  0.3101
28569SOL     OW87428   9.547   7.811   9.399 -0.6298  0.2249  0.0961
28569SOL    HW187429   9.598   7.883   9.436 -1.5336  0.8591  0.1405
28569SOL    HW287430   9.595   7.732   9.425  0.7321  0.8186 -0.5066
28570SOL     OW87431   7.704   3.722   2.545 -0.7874 -0.4597  0.1856
28570SOL    HW187432   7.653   3.803   2.548 -0.3556 -0.1627 -0.3629
28570SOL    HW287433   7.792   3.748   2.569 -0.2209 -0.3982 -1.7634
28571SOL     OW87434   2.999   7.368   6.246  0.5254 -0.1132 -0.1416
28571SOL    HW187435   2.927   7.428   6.265  1.1741  0.7799 -0.4513
28571SOL    HW287436   3.013   7.320   6.328 -0.6641 -0.5657 -0.1961
28572SOL     OW87437   3.116   3.225   0.882 -0.5518 -0.1517  0.3650
28572SOL    HW187438   3.080   3.160   0.942  0.4434 -0.6221  0.4637
28572SOL    HW287439   3.096   3.191   0.795  0.5350 -0.9290  0.4082
28573SOL     OW87440   6.494   4.156   8.704 -0.0723 -0.2753 -0.0558
28573SOL    HW187441   6.468   4.133   8.615 -0.9165 -1.3125  0.4317
28573SOL    HW287442   6.446   4.094   8.760 -2.2604  2.4638  1.3724
28574SOL     OW87443   5.826   6.964   1.866 -0.2045 -0.4193  0.2743
28574SOL    HW187444   5.916   6.930   1.857  0.4101  0.9620  0.8993
28574SOL    HW287445   5.795   6.971   1.776  0.0443 -1.5681  0.0797
28575SOL     OW87446   7.742   1.534   4.217  0.0338  0.8614  0.0340
28575SOL    HW187447   7.687   1.540   4.139 -0.6550  2.3833  0.5845
28575SOL    HW287448   7.688   1.486   4.280  0.3611  0.1303 -0.2418
28576SOL     OW87449   5.527   9.167   8.818  0.4470 -0.3532  0.4565
28576SOL    HW187450   5.581   9.099   8.779 -0.6208 -1.0853  0.1977
28576SOL    HW287451   5.549   9.247   8.769  0.1849 -0.9549 -0.6736
28577SOL     OW87452   4.448   8.136   4.794 -0.0207  0.3195  0.4195
28577SOL    HW187453   4.406   8.063   4.750  0.1252 -0.0277  0.8520
28577SOL    HW287454   4.536   8.139   4.756 -0.7554  1.7909 -1.3665
28578SOL     OW87455   8.928   4.256   2.883  0.6440 -0.2084 -0.2009
28578SOL    HW187456   8.843   4.291   2.856  0.4973 -0.4811 -0.0992
28578SOL    HW287457   8.958   4.316   2.952  0.8080  0.2233 -0.6411
28579SOL     OW87458   7.682   5.182   0.932  0.0124  0.0175  0.6287
28579SOL    HW187459   7.723   5.227   1.005 -0.5703 -1.9995  2.2788
28579SOL    HW287460   7.588   5.197   0.942 -0.1750 -1.2845  1.0677
28580SOL     OW87461   2.592   4.243   0.523  0.2075  0.8343  0.1441
28580SOL    HW187462   2.662   4.286   0.572  1.2124  1.3943 -1.6695
28580SOL    HW287463   2.513   4.294   0.543  1.1012  2.6785 -0.8489
28581SOL     OW87464   1.514   2.044   5.101  0.4306  0.1734  0.3281
28581SOL    HW187465   1.495   2.133   5.132  2.0303  0.4954  0.4765
28581SOL    HW287466   1.468   2.038   5.017 -3.0817 -0.3323  2.0998
28582SOL     OW87467   7.628   4.871   4.942 -0.1171 -0.1740 -0.4665
28582SOL    HW187468   7.532   4.868   4.933 -0.2845  1.7630  0.2310
28582SOL    HW287469   7.657   4.925   4.868  0.1590  1.2839  0.6604
28583SOL     OW87470   9.010   4.561   2.136  0.2016  0.0716 -0.0500
28583SOL    HW187471   8.986   4.594   2.050 -0.0654 -1.7074 -0.6981
28583SOL    HW287472   9.068   4.487   2.118 -1.1563 -1.3707  1.2065
28584SOL     OW87473   1.585   0.970   0.085  0.4675  0.4469 -0.1373
28584SOL    HW187474   1.551   0.904   0.024 -2.2868  0.8199  0.8491
28584SOL    HW287475   1.628   1.034   0.029 -1.7299  0.6345 -1.7420
28585SOL     OW87476   8.743   5.197   1.751 -0.1332 -0.0220  0.0886
28585SOL    HW187477   8.751   5.109   1.786  0.7694  0.5442  1.3934
28585SOL    HW287478   8.828   5.238   1.768  0.8467  0.0013 -3.8416
28586SOL     OW87479   2.479   6.509   7.017  0.1135 -0.8543 -0.2293
28586SOL    HW187480   2.546   6.463   6.966 -0.0167 -0.4162 -0.7982
28586SOL    HW287481   2.500   6.487   7.108  0.3145 -1.6870 -0.4644
28587SOL     OW87482   0.221   6.520   8.635 -0.3234 -0.0441 -0.0764
28587SOL    HW187483   0.207   6.434   8.675  2.2275  0.4832  2.2122
28587SOL    HW287484   0.278   6.503   8.560 -0.5194 -0.4368 -0.1374
28588SOL     OW87485   3.077   6.834   6.339  0.4570 -0.0874  0.6241
28588SOL    HW187486   3.019   6.762   6.315 -1.3478  1.8496 -1.1069
28588SOL    HW287487   3.095   6.879   6.257  2.3518  0.9095  1.5262
28589SOL     OW87488   8.311   6.021   8.224 -0.2223 -0.4791 -0.0860
28589SOL    HW187489   8.390   6.056   8.266 -0.4195 -1.4911  1.2043
28589SOL    HW287490   8.239   6.070   8.264 -0.3152 -0.2052 -0.5783
28590SOL     OW87491   9.018   6.618   2.847  0.1469 -0.1137 -0.0194
28590SOL    HW187492   9.055   6.530   2.860 -2.2787 -1.2928 -0.4929
28590SOL    HW287493   8.988   6.644   2.934 -0.4776 -0.4420 -0.1267
28591SOL     OW87494   1.806   4.311   7.104  0.7331 -0.0455 -0.4629
28591SOL    HW187495   1.874   4.283   7.043  1.0056 -0.2914 -0.0579
28591SOL    HW287496   1.854   4.361   7.171  0.8629 -1.9021  0.9329
28592SOL     OW87497   8.155   1.879   2.951  0.5385  0.5753  0.2085
28592SOL    HW187498   8.220   1.932   2.905 -0.4977  0.4744 -1.4452
28592SOL    HW287499   8.180   1.788   2.932  1.1623  0.4817  1.3975
28593SOL     OW87500   6.109   0.007   0.513  0.3915  0.5310  0.0172
28593SOL    HW187501   6.133   0.100   0.515  0.8028  0.4563 -0.8426
28593SOL    HW287502   6.191  -0.040   0.528  0.2607  0.3037  0.0216
28594SOL     OW87503   2.233   3.886   4.576 -0.5027 -0.8830  0.0123
28594SOL    HW187504   2.327   3.899   4.583 -0.7654  0.7457  1.0266
28594SOL    HW287505   2.219   3.794   4.597  0.8138 -1.0325  0.3007
28595SOL     OW87506   7.931   0.837   4.722 -0.6167 -0.0299 -0.6122
28595SOL    HW187507   8.020   0.805   4.733 -0.6620  0.0884  0.1229
28595SOL    HW287508   7.921   0.905   4.789 -1.7030 -0.9929  0.2472
28596SOL     OW87509   2.592   1.314   7.587  0.2963  0.1040  0.4300
28596SOL    HW187510   2.615   1.269   7.668  2.3926  1.1592  0.4892
28596SOL    HW287511   2.554   1.246   7.532 -1.9375 -0.4790  2.5179
28597SOL     OW87512   9.269   8.438   7.077 -0.5656  0.1001  0.3051
28597SOL    HW187513   9.254   8.348   7.048  1.7008 -0.6551  1.2503
28597SOL    HW287514   9.202   8.453   7.144 -0.7238 -1.0225  0.4200
28598SOL     OW87515   4.877   8.268   9.173  0.6973 -0.3568 -0.4545
28598SOL    HW187516   4.811   8.330   9.204  2.0034  0.1508  1.4929
28598SOL    HW287517   4.827   8.199   9.129 -1.0051  0.6357 -0.1606
28599SOL     OW87518   2.617   8.477   8.245  0.2287 -0.1117 -0.2184
28599SOL    HW187519   2.703   8.502   8.211 -0.5857 -0.7095 -3.0265
28599SOL    HW287520   2.626   8.384   8.268  0.1988 -0.3582 -1.1536
28600SOL     OW87521   7.310   0.393   6.778 -0.0987  0.0822  0.0407
28600SOL    HW187522   7.401   0.374   6.753  0.1003 -0.2798  0.9718
28600SOL    HW287523   7.299   0.486   6.760  1.1805  0.6625  1.9316
28601SOL     OW87524   2.861   1.927   9.064  0.6006 -0.9054 -0.0017
28601SOL    HW187525   2.776   1.964   9.089  1.4235  0.6521  0.5753
28601SOL    HW287526   2.841   1.835   9.044 -0.9871 -0.9519  1.4805
28602SOL     OW87527   2.518   7.786   8.701  0.7304 -0.3696  0.4359
28602SOL    HW187528   2.590   7.724   8.687  0.5822 -0.1433 -1.5124
28602SOL    HW287529   2.439   7.737   8.676  0.6847  0.7965 -1.9118
28603SOL     OW87530   1.907   8.613   6.034 -0.2884 -0.0705  0.7717
28603SOL    HW187531   1.930   8.657   5.952  0.2882  1.2154  1.5763
28603SOL    HW287532   1.837   8.552   6.010 -0.5655  0.7241 -0.5579
28604SOL     OW87533   8.349   0.396   7.945  0.1815 -0.8453 -0.0259
28604SOL    HW187534   8.390   0.475   7.910  1.8284 -1.0117  1.4121
28604SOL    HW287535   8.288   0.369   7.876  0.4377  0.9888 -1.0580
28605SOL     OW87536   8.414   4.795   4.926  0.1940 -0.0777 -0.2319
28605SOL    HW187537   8.344   4.854   4.954 -0.0077 -1.5272  2.6934
28605SOL    HW287538   8.408   4.720   4.985  3.8517 -0.5077 -0.1592
28606SOL     OW87539   3.040   4.869   2.473 -0.1155  0.7349 -0.0053
28606SOL    HW187540   3.001   4.946   2.515  0.2146  0.9899 -0.1656
28606SOL    HW287541   3.045   4.804   2.544 -0.8300  0.6934  0.0178
28607SOL     OW87542   0.897   7.721   5.578  0.0688 -0.9470 -0.6721
28607SOL    HW187543   0.985   7.760   5.575 -0.0149 -0.5787  0.9437
28607SOL    HW287544   0.844   7.783   5.628 -1.0588 -1.3052 -1.3871
28608SOL     OW87545   4.525   2.978   1.095  0.0589 -0.0324 -0.2577
28608SOL    HW187546   4.452   2.934   1.050  0.2413 -0.1503 -0.4391
28608SOL    HW287547   4.508   2.963   1.188  0.2465 -0.6874 -0.3250
28609SOL     OW87548   7.031   0.922   3.508 -0.4547 -0.1881 -0.0477
28609SOL    HW187549   6.955   0.937   3.452 -1.3193 -2.4249  0.4375
28609SOL    HW287550   6.995   0.917   3.597  0.4636  0.1381  0.3529
28610SOL     OW87551   7.856   8.879   3.273  0.1887 -0.0261 -0.1748
28610SOL    HW187552   7.897   8.932   3.342  2.9374 -0.5903 -1.2458
28610SOL    HW287553   7.830   8.798   3.317 -0.4055  0.6084  0.6733
28611SOL     OW87554   9.497   8.123   5.199  0.4260 -0.0876  0.0585
28611SOL    HW187555   9.564   8.075   5.248  2.2930  1.1190 -1.1918
28611SOL    HW287556   9.546   8.184   5.144 -1.6846  0.3581 -1.4642
28612SOL     OW87557   5.400   9.185   4.841  0.2778 -0.7600  0.1398
28612SOL    HW187558   5.486   9.166   4.804  0.7185 -0.2119  0.8643
28612SOL    HW287559   5.396   9.280   4.845  0.5026 -0.7822  2.0477
28613SOL     OW87560   7.175   7.631   8.645 -0.7422 -0.5815 -0.2073
28613SOL    HW187561   7.259   7.588   8.632  0.0368  1.2428 -1.8030
28613SOL    HW287562   7.197   7.723   8.658 -2.4950  0.1021 -1.6014
28614SOL     OW87563   8.461   3.671   7.297 -0.6200 -0.1080 -0.0627
28614SOL    HW187564   8.474   3.579   7.322  1.1669  0.1853  0.2054
28614SOL    HW287565   8.468   3.671   7.202 -1.6625 -0.3929 -0.1443
28615SOL     OW87566   7.072   1.162   7.843  0.1393 -0.0705  0.2082
28615SOL    HW187567   7.089   1.068   7.851 -1.4547 -0.6409 -1.9849
28615SOL    HW287568   7.157   1.203   7.860  1.0918 -1.9613  0.3098
28616SOL     OW87569   8.855   9.673   4.122 -0.1865 -0.7188  0.0655
28616SOL    HW187570   8.922   9.701   4.059 -0.1811 -1.1642 -0.1309
28616SOL    HW287571   8.866   9.578   4.128 -0.1951 -0.6848  0.7323
28617SOL     OW87572   0.599   2.175   7.368 -0.4186 -0.1298  0.1291
28617SOL    HW187573   0.642   2.257   7.393 -1.3012  0.5350 -0.4692
28617SOL    HW287574   0.601   2.122   7.447  2.1922 -0.4536 -0.0654
28618SOL     OW87575   6.799   3.581   8.894  0.2626 -0.4459  0.0321
28618SOL    HW187576   6.839   3.532   8.966  0.0872  0.3302  0.6662
28618SOL    HW287577   6.815   3.526   8.817  1.2847 -0.8428  0.4996
28619SOL     OW87578   0.063   9.567   9.382  0.7284  0.0129  0.1031
28619SOL    HW187579   0.065   9.501   9.451 -0.5756  0.2990  0.4544
28619SOL    HW287580   0.102   9.645   9.421  1.0389 -0.1614  0.1364
28620SOL     OW87581   6.456   6.930   7.254 -0.4425 -0.0564  0.4846
28620SOL    HW187582   6.547   6.905   7.240 -0.8382 -0.6616 -1.3690
28620SOL    HW287583   6.457   7.025   7.257  0.2073 -0.0308 -0.1468
28621SOL     OW87584   3.250   7.777   8.239 -0.3727 -0.1061  0.0753
28621SOL    HW187585   3.220   7.838   8.172 -0.2187 -0.1279 -0.0163
28621SOL    HW287586   3.304   7.714   8.190 -1.8133 -1.2466 -0.1065
28622SOL     OW87587   3.538   2.558   5.395  0.2599  0.3945 -0.2813
28622SOL    HW187588   3.502   2.474   5.424  0.6246  0.7027  1.1148
28622SOL    HW287589   3.627   2.538   5.367  0.4805  0.3632  0.4182
28623SOL     OW87590   7.894   1.596   3.412  0.1318 -0.5804 -0.6077
28623SOL    HW187591   7.839   1.557   3.343 -1.2883  0.1547  0.0771
28623SOL    HW287592   7.872   1.689   3.410  0.3955 -0.4866  0.5642
28624SOL     OW87593   4.889   1.775   7.442  0.2038 -0.0288 -0.1760
28624SOL    HW187594   4.875   1.726   7.523 -1.2536  0.1347 -0.2945
28624SOL    HW287595   4.906   1.865   7.472 -0.1111 -0.0131 -0.0380
28625SOL     OW87596   7.845   2.207   6.869 -0.3654  0.2525  0.0550
28625SOL    HW187597   7.822   2.270   6.938 -0.6324 -0.5205  0.6770
28625SOL    HW287598   7.930   2.238   6.837 -0.7000  1.1861  0.0481
28626SOL     OW87599   7.174   7.105   4.448  0.1996 -0.3271  0.3590
28626SOL    HW187600   7.224   7.050   4.509  1.3492 -0.2075 -0.4391
28626SOL    HW287601   7.100   7.050   4.423  0.0520 -0.6142  1.3727
28627SOL     OW87602   4.221   1.075   9.418  0.0700 -0.4179 -0.1919
28627SOL    HW187603   4.230   1.143   9.485  0.5528  0.7965 -1.4326
28627SOL    HW287604   4.298   1.019   9.429 -0.1438 -0.5707  0.6061
28628SOL     OW87605   4.576   8.059   1.564 -0.5998  0.0727 -0.7795
28628SOL    HW187606   4.616   8.147   1.561 -0.8197  0.1707 -0.8654
28628SOL    HW287607   4.524   8.055   1.484  2.6664 -1.6939 -3.0250
28629SOL     OW87608   3.858   6.938   1.912 -0.4373 -0.3979 -0.2700
28629SOL    HW187609   3.850   6.843   1.905  0.2781 -0.5292  0.4425
28629SOL    HW287610   3.895   6.966   1.828 -0.2899 -0.7973 -0.3385
28630SOL     OW87611   3.980   9.052   8.485 -0.2210  0.2606  0.0226
28630SOL    HW187612   4.001   9.076   8.575  0.1198  1.3261 -0.3250
28630SOL    HW287613   4.061   9.013   8.451 -0.7914 -1.5300  0.6044
28631SOL     OW87614   0.428   1.621   6.652 -0.0049 -0.1362  0.4544
28631SOL    HW187615   0.522   1.636   6.663 -0.1109  0.2039  0.9467
28631SOL    HW287616   0.400   1.689   6.590  0.1696 -0.5845 -0.1233
28632SOL     OW87617   4.087   5.355   9.218 -0.0910  0.0365 -0.5705
28632SOL    HW187618   4.086   5.445   9.186 -0.2235 -0.4505 -1.9893
28632SOL    HW287619   4.023   5.355   9.289  0.3065  1.1767 -0.1894
28633SOL     OW87620   5.630   3.413   9.386  0.2713 -0.4301 -0.3214
28633SOL    HW187621   5.593   3.411   9.474  1.0009 -2.7664  0.0069
28633SOL    HW287622   5.556   3.434   9.329 -0.4750 -0.1659  0.7237
28634SOL     OW87623   1.847   7.697   0.653  0.2503 -0.2275  0.3397
28634SOL    HW187624   1.845   7.743   0.736 -0.3732 -1.7470  1.2106
28634SOL    HW287625   1.804   7.613   0.671  1.0362 -1.0158 -1.2560
28635SOL     OW87626   1.023   1.699   4.234 -0.2197  0.2430  0.4068
28635SOL    HW187627   1.021   1.657   4.320 -0.6842  0.4107  0.4771
28635SOL    HW287628   1.073   1.638   4.180 -2.2717 -1.2485  0.0664
28636SOL     OW87629   2.272   4.563   5.856 -0.0623 -0.0086 -0.0302
28636SOL    HW187630   2.211   4.574   5.783  0.1632  0.4676 -0.1525
28636SOL    HW287631   2.235   4.615   5.927 -1.8792 -2.8024  1.2347
28637SOL     OW87632   1.279   5.649   7.217 -0.2950  0.0114  0.6060
28637SOL    HW187633   1.256   5.573   7.164 -3.0060  0.4356  1.0101
28637SOL    HW287634   1.255   5.624   7.306  1.4630  0.3546  1.2152
28638SOL     OW87635   7.379   7.865   3.413  0.4627 -0.2497  0.2116
28638SOL    HW187636   7.460   7.846   3.367  1.0382 -0.8874  1.4518
28638SOL    HW287637   7.349   7.948   3.376  2.9096  1.2151  1.3262
28639SOL     OW87638   9.606   1.332   9.297 -0.4215  0.5466  0.3122
28639SOL    HW187639   9.609   1.383   9.378  1.1008 -0.0934  0.6926
28639SOL    HW287640   9.513   1.320   9.279 -0.7959  0.2871  2.2355
28640SOL     OW87641   3.296   7.265   1.022  0.4987 -0.2180 -0.5420
28640SOL    HW187642   3.224   7.225   1.071  0.4045  0.0088 -0.4946
28640SOL    HW287643   3.292   7.222   0.936 -0.0864  0.2343 -0.7485
28641SOL     OW87644   6.303   5.041   9.333  0.0171  0.3764  0.6206
28641SOL    HW187645   6.269   5.046   9.244  0.6391  1.0593  0.4109
28641SOL    HW287646   6.372   4.975   9.329 -0.5038 -0.1972  0.7969
28642SOL     OW87647   4.212   4.471   1.468  0.3597 -0.1461  0.7548
28642SOL    HW187648   4.152   4.466   1.394 -1.5439  2.2964  1.9685
28642SOL    HW287649   4.202   4.388   1.513 -1.0526 -0.3522  0.1052
28643SOL     OW87650   2.985   0.163   0.109 -0.2843  0.2115  0.1585
28643SOL    HW187651   2.961   0.118   0.190  0.1271  0.5668  0.4800
28643SOL    HW287652   2.954   0.104   0.040 -1.0764  0.1384  0.5627
28644SOL     OW87653   6.065   0.051   6.153 -0.3803 -0.9168 -0.0160
28644SOL    HW187654   6.135   0.092   6.102  0.0767 -0.5633  0.8935
28644SOL    HW287655   5.985   0.070   6.103  0.1700 -1.4375 -1.1345
28645SOL     OW87656   4.349   0.271   2.806  0.3422 -0.1460 -0.1115
28645SOL    HW187657   4.268   0.244   2.764  0.6586  0.2241 -0.9801
28645SOL    HW287658   4.322   0.319   2.883 -0.2596 -2.6956  1.3936
28646SOL     OW87659   6.942   5.665   4.291 -0.1030 -0.4584 -0.2415
28646SOL    HW187660   6.918   5.665   4.384  1.2664 -1.3177  0.1476
28646SOL    HW287661   6.885   5.600   4.251  0.6800 -1.6087  0.4344
28647SOL     OW87662   3.345   1.450   1.723 -0.2475  0.0386  0.1227
28647SOL    HW187663   3.336   1.453   1.818  0.6676 -0.0953  0.2189
28647SOL    HW287664   3.389   1.532   1.701 -1.4738  0.6091 -0.3189
28648SOL     OW87665   8.798   2.404   3.077  0.8083 -0.0965  0.0137
28648SOL    HW187666   8.710   2.378   3.101  0.9376 -1.3655 -0.8157
28648SOL    HW287667   8.806   2.494   3.110 -1.2051  0.4951 -0.9740
28649SOL     OW87668   6.743   1.648   8.413 -0.5344  0.2838  0.0761
28649SOL    HW187669   6.836   1.643   8.436 -0.4297  0.8030 -0.2255
28649SOL    HW287670   6.736   1.727   8.359 -0.9606 -0.3643 -0.8252
28650SOL     OW87671   8.199   6.526   3.696  0.1881  0.7038 -0.0916
28650SOL    HW187672   8.183   6.620   3.683 -0.4432  1.1914  3.3474
28650SOL    HW287673   8.274   6.522   3.755 -0.7944 -0.8665  1.1352
28651SOL     OW87674   3.297   8.865   7.039 -0.1618 -0.1821  0.7479
28651SOL    HW187675   3.341   8.832   7.118 -0.5678 -1.8081  0.3292
28651SOL    HW287676   3.206   8.878   7.066 -0.4894 -1.5359  0.3654
28652SOL     OW87677   0.746   5.856   7.378 -0.1216 -0.5171 -0.1291
28652SOL    HW187678   0.769   5.931   7.323  0.8625 -1.2462 -0.7500
28652SOL    HW287679   0.794   5.870   7.459  0.9408 -1.0060 -0.6557
28653SOL     OW87680   6.341   6.064   8.469  0.2365 -0.1289 -0.0738
28653SOL    HW187681   6.246   6.067   8.458  0.1570  0.2715  0.6288
28653SOL    HW287682   6.375   6.037   8.383 -0.5213 -0.5218 -0.2593
28654SOL     OW87683   5.229   5.377   4.812  0.5374  0.2969 -0.2391
28654SOL    HW187684   5.269   5.455   4.849 -1.9481  0.9090  1.4293
28654SOL    HW287685   5.239   5.387   4.717  0.9446  2.2633 -0.0243
28655SOL     OW87686   8.673   3.031   8.718 -0.4630 -0.2338 -0.0189
28655SOL    HW187687   8.617   2.964   8.679 -0.6983 -0.1725  0.2115
28655SOL    HW287688   8.750   2.984   8.748 -1.1679 -0.6091  1.2698
28656SOL     OW87689   6.899   1.309   5.435 -0.2832  0.3806  0.1786
28656SOL    HW187690   6.894   1.243   5.504  0.5523  0.3061  0.1805
28656SOL    HW287691   6.948   1.266   5.365 -0.8659  0.5570 -0.3470
28657SOL     OW87692   9.167   0.965   6.000  0.0183 -0.0501 -0.1583
28657SOL    HW187693   9.109   1.040   6.011 -1.6178 -1.3914  0.7499
28657SOL    HW287694   9.238   0.980   6.063  0.1142  1.0699 -0.5064
28658SOL     OW87695   8.689   5.190   2.086  0.1869  0.3956 -0.1008
28658SOL    HW187696   8.728   5.230   2.009 -1.3437 -1.0758 -1.7588
28658SOL    HW287697   8.712   5.097   2.078  2.7048  0.6095  3.0088
28659SOL     OW87698   1.379   8.342   3.401 -0.4884  0.4424 -0.3662
28659SOL    HW187699   1.425   8.321   3.320  0.4014  1.8378 -0.2647
28659SOL    HW287700   1.430   8.300   3.470  0.0954  1.1710 -0.3426
28660SOL     OW87701   6.972   1.063   8.221  1.3838 -0.1998 -0.0005
28660SOL    HW187702   7.064   1.081   8.201  1.6173  0.0480  1.2305
28660SOL    HW287703   6.926   1.080   8.138  2.2832  0.8883 -0.3008
28661SOL     OW87704   4.912   1.839   3.711  0.2159 -0.4430  0.2575
28661SOL    HW187705   4.961   1.757   3.710  1.8132  0.4907 -0.2788
28661SOL    HW287706   4.923   1.875   3.623 -2.3305 -0.6683 -0.2517
28662SOL     OW87707   3.397   2.274   6.611 -0.1679  0.1838  0.1438
28662SOL    HW187708   3.478   2.226   6.597  0.0535  0.3996  0.6705
28662SOL    HW287709   3.332   2.207   6.632 -0.0717  0.0351 -0.0305
28663SOL     OW87710   8.391   8.266   9.583 -0.1170 -0.3226 -0.2706
28663SOL    HW187711   8.348   8.273   9.498  0.7148 -0.8444 -0.7453
28663SOL    HW287712   8.319   8.253   9.645 -0.7340  0.1176 -0.8834
28664SOL     OW87713   2.107   3.034   2.568 -0.0547 -0.3208 -0.1212
28664SOL    HW187714   2.045   2.986   2.513 -0.0024 -0.7225  0.1705
28664SOL    HW287715   2.084   3.010   2.658  1.7626 -2.0643 -0.0346
28665SOL     OW87716   0.907   1.523   0.610 -0.2388  0.6392  0.3408
28665SOL    HW187717   0.953   1.562   0.684 -0.0337  0.9285  0.0638
28665SOL    HW287718   0.898   1.594   0.546 -0.2012  0.3364 -0.0101
28666SOL     OW87719   6.915   0.697   9.587 -0.7450  0.1026 -0.4255
28666SOL    HW187720   6.946   0.751   9.514 -0.5463  0.7925  0.1560
28666SOL    HW287721   6.929   0.751   9.664 -0.1528 -0.9475  0.2267
28667SOL     OW87722   6.065   2.996   6.278  0.0960  0.3750 -0.4526
28667SOL    HW187723   6.051   2.950   6.196  3.0718  0.0255 -0.8688
28667SOL    HW287724   6.038   2.933   6.346 -0.6189 -0.0239 -1.0914
28668SOL     OW87725   9.209   4.150   3.263 -0.1259  0.9042  0.4620
28668SOL    HW187726   9.141   4.083   3.265  0.8413 -0.0835  1.5043
28668SOL    HW287727   9.218   4.173   3.171  0.1321 -1.0322 -0.0300
28669SOL     OW87728   4.787   1.166   4.126  0.0975  0.1982  0.0707
28669SOL    HW187729   4.784   1.186   4.033  0.5335 -1.4423 -0.3165
28669SOL    HW287730   4.699   1.135   4.147 -0.0741  0.8112  0.2705
28670SOL     OW87731   4.576   4.967   7.811  0.1978 -0.3775 -0.3905
28670SOL    HW187732   4.662   5.004   7.832 -0.3497  0.3907  0.5418
28670SOL    HW287733   4.596   4.878   7.781  1.3658 -0.0028 -0.7983
28671SOL     OW87734   6.127   9.303   2.104 -0.0454  0.4250  0.4182
28671SOL    HW187735   6.176   9.354   2.040  1.8841 -1.1555  0.5180
28671SOL    HW287736   6.150   9.341   2.189  0.1570  0.3788  0.3853
28672SOL     OW87737   8.995   1.372   6.242 -0.1349  0.2961 -0.1725
28672SOL    HW187738   8.973   1.336   6.328  0.5490  1.5814  0.5699
28672SOL    HW287739   8.914   1.413   6.212  0.0857  1.3931  0.6783
28673SOL     OW87740   8.304   0.564   4.003  0.6846  0.0051 -0.3001
28673SOL    HW187741   8.221   0.557   4.050  0.8108 -0.0669 -0.0821
28673SOL    HW287742   8.370   0.543   4.069  0.8434 -0.4983 -0.6117
28674SOL     OW87743   3.096   7.977   0.034 -0.6762 -0.2559  0.3060
28674SOL    HW187744   3.117   8.060  -0.010 -1.8781  0.0629  0.2927
28674SOL    HW287745   3.085   7.914  -0.038  2.4301 -1.0407  0.3720
28675SOL     OW87746   6.761   4.825   5.727 -0.2261  0.4256 -0.1133
28675SOL    HW187747   6.803   4.791   5.648 -0.1446 -2.0277  0.9123
28675SOL    HW287748   6.682   4.869   5.695 -0.1751 -0.4846 -1.5772
28676SOL     OW87749   0.341   0.574   3.682  0.2650 -0.1071  0.4242
28676SOL    HW187750   0.329   0.647   3.742  2.6837 -0.8469  1.9277
28676SOL    HW287751   0.370   0.501   3.737 -1.2118 -2.0048 -1.1484
28677SOL     OW87752   9.600   7.420   8.921 -0.0953  0.3841  0.2145
28677SOL    HW187753   9.545   7.498   8.916 -0.8017 -0.1251 -0.3630
28677SOL    HW287754   9.611   7.404   9.015  0.8931  1.7260  0.3435
28678SOL     OW87755   6.360   3.986   6.779  0.3478 -0.6115 -0.1729
28678SOL    HW187756   6.266   4.003   6.781  0.0814 -1.9414 -0.3353
28678SOL    HW287757   6.400   4.072   6.770 -0.9205 -0.1309 -1.7035
28679SOL     OW87758   5.474   4.450   7.770  0.0359 -0.4171 -0.3480
28679SOL    HW187759   5.491   4.388   7.700 -1.0550 -1.8904  0.6275
28679SOL    HW287760   5.540   4.519   7.758  1.9777 -2.2648 -0.8471
28680SOL     OW87761   4.229   1.214   9.009 -0.2384 -0.1591 -0.5481
28680SOL    HW187762   4.323   1.208   9.021 -0.3797 -1.2354  0.1705
28680SOL    HW287763   4.215   1.300   8.968  0.9567  0.4179  0.1930
28681SOL     OW87764   9.307   0.732   7.116  0.2903 -0.4076 -0.1868
28681SOL    HW187765   9.397   0.720   7.086  0.5588  0.4229  0.2875
28681SOL    HW287766   9.305   0.694   7.204  0.4292  0.4813  0.2000
28682SOL     OW87767   0.488   3.937   7.915 -0.6393  0.4417 -0.0203
28682SOL    HW187768   0.521   3.924   7.826  0.1570  0.4362  0.2657
28682SOL    HW287769   0.559   3.905   7.971 -1.6903 -0.8804  0.6019
28683SOL     OW87770   4.431   1.451   2.041  0.5327 -0.0135 -0.1518
28683SOL    HW187771   4.413   1.388   2.110 -2.1031 -1.1317 -1.6819
28683SOL    HW287772   4.462   1.399   1.967  1.0889  0.8470 -0.5464
28684SOL     OW87773   4.957   2.275   9.631  0.4581  0.2408  0.2539
28684SOL    HW187774   4.913   2.213   9.572  1.8444 -1.1520  0.6082
28684SOL    HW287775   5.028   2.313   9.578 -0.5969  1.8549 -0.0696
28685SOL     OW87776   1.287   7.263   7.408 -0.5307 -0.0944 -0.0914
28685SOL    HW187777   1.382   7.257   7.411 -0.6391 -2.1340  0.4252
28685SOL    HW287778   1.270   7.352   7.376  1.5268  0.1640 -0.6211
28686SOL     OW87779   6.976   8.895   4.465 -0.3230 -0.2410 -0.0634
28686SOL    HW187780   7.036   8.897   4.391 -0.7855  0.5107 -0.4300
28686SOL    HW287781   7.032   8.899   4.542  0.0854  0.6578 -0.4021
28687SOL     OW87782   3.848   6.145   9.064  0.8186 -0.3284  0.3050
28687SOL    HW187783   3.758   6.173   9.050 -0.5880 -3.1075  2.8533
28687SOL    HW287784   3.853   6.123   9.157  4.0292 -0.7323  0.1589
28688SOL     OW87785   4.226   6.110   9.311 -0.2141  0.4950 -0.5244
28688SOL    HW187786   4.191   6.176   9.252  0.5990  0.6714 -0.8283
28688SOL    HW287787   4.168   6.034   9.300  0.1099  0.4100 -1.7995
28689SOL     OW87788   2.757   9.387   8.741 -0.1485 -0.1794 -0.3879
28689SOL    HW187789   2.675   9.413   8.781 -0.6359 -0.9321 -0.8668
28689SOL    HW287790   2.753   9.424   8.652  1.1264  1.8817  0.3454
28690SOL     OW87791   9.690   6.388   7.774  0.5668  1.2252  0.2299
28690SOL    HW187792   9.638   6.308   7.763  1.9325  0.1776  1.1742
28690SOL    HW287793   9.626   6.454   7.801 -0.4363  0.2406  0.3174
28691SOL     OW87794   6.870   3.642   5.802 -0.0242 -0.1165 -0.2769
28691SOL    HW187795   6.873   3.624   5.896 -0.7217  1.7448  0.1469
28691SOL    HW287796   6.960   3.668   5.780 -0.2803  1.3721  0.3334
28692SOL     OW87797   8.679   7.444   6.014  0.0337 -0.4682  0.0524
28692SOL    HW187798   8.656   7.424   5.924 -0.3114 -2.6394  0.5558
28692SOL    HW287799   8.638   7.529   6.031  2.2153  1.2549 -2.5252
28693SOL     OW87800   9.587   5.111   2.560 -0.3207  0.7958  0.3526
28693SOL    HW187801   9.512   5.067   2.600 -0.7589  2.1656  1.1026
28693SOL    HW287802   9.629   5.044   2.507 -0.4100 -0.7671  2.1808
28694SOL     OW87803   0.551   3.597   6.368  0.1762 -0.5650 -0.8594
28694SOL    HW187804   0.485   3.629   6.306  0.3141 -1.5567 -1.5477
28694SOL    HW287805   0.635   3.613   6.324  0.4142  0.6073 -0.0281
28695SOL     OW87806   0.082   1.071   7.442 -0.6438 -0.2066 -0.0157
28695SOL    HW187807   0.127   0.998   7.484  3.1892  0.5010 -2.4035
28695SOL    HW287808   0.126   1.081   7.357 -1.7742  4.0577 -0.3577
28696SOL     OW87809   7.041   2.546   2.741  0.5883 -0.1296  0.7923
28696SOL    HW187810   7.012   2.586   2.823 -2.0619 -0.6799  0.2089
28696SOL    HW287811   6.989   2.590   2.674  2.6756  0.2730 -0.6344
28697SOL     OW87812   4.816   7.606   6.609 -0.1041 -0.5312 -0.6171
28697SOL    HW187813   4.888   7.669   6.610  2.2205 -2.9864  0.4921
28697SOL    HW287814   4.798   7.588   6.702  0.0023 -2.1944 -0.8892
28698SOL     OW87815   2.783   8.016   3.370 -0.1998 -0.4293 -0.3158
28698SOL    HW187816   2.791   8.015   3.274 -0.0071  1.2217 -0.3639
28698SOL    HW287817   2.802   8.107   3.393 -0.6950 -0.7060  1.2622
28699SOL     OW87818   1.223   2.041   0.820 -0.0164  0.4267  0.1556
28699SOL    HW187819   1.246   2.040   0.913  0.6251 -0.8411 -0.0033
28699SOL    HW287820   1.235   2.132   0.794 -0.7483  0.9179  1.4310
28700SOL     OW87821   2.558   0.045   6.039  0.2541  0.3235  0.0700
28700SOL    HW187822   2.572  -0.027   6.101 -0.2429  1.4509  1.5762
28700SOL    HW287823   2.463   0.047   6.026  0.4237 -0.5531 -1.6199
28701SOL     OW87824   3.986   6.758   6.477  0.2421  0.0978  0.4049
28701SOL    HW187825   4.074   6.788   6.454  1.1689 -1.7927  1.2338
28701SOL    HW287826   3.929   6.798   6.411  1.8547  0.5107 -0.8118
28702SOL     OW87827   6.958   5.414   0.727 -0.5904 -0.0280 -0.3923
28702SOL    HW187828   6.892   5.365   0.776 -1.3553  1.8084  0.5317
28702SOL    HW287829   6.907   5.473   0.671  0.2795  0.3132 -0.8468
28703SOL     OW87830   6.451   5.336   7.792  0.4789 -0.4586  0.2184
28703SOL    HW187831   6.445   5.367   7.882 -2.4161 -0.7370  0.2150
28703SOL    HW287832   6.439   5.241   7.799  1.6694 -0.6783 -0.3875
28704SOL     OW87833   5.570   1.850   7.080 -0.1652  0.6039 -0.2487
28704SOL    HW187834   5.483   1.869   7.046 -0.2324  1.0562  0.1662
28704SOL    HW287835   5.582   1.912   7.152  0.8996  1.2560 -0.9472
28705SOL     OW87836   9.448   0.122   0.269 -0.2950  0.7528  0.1674
28705SOL    HW187837   9.469   0.035   0.233 -1.6255  0.3152  0.4164
28705SOL    HW287838   9.477   0.183   0.200  1.9509  0.2408  0.5665
28706SOL     OW87839   1.222   8.638   3.625 -0.1068  0.4197 -0.1055
28706SOL    HW187840   1.251   8.631   3.534 -3.5579 -0.9155 -1.2952
28706SOL    HW287841   1.128   8.620   3.621 -0.8127  2.4127  3.5029
28707SOL     OW87842   2.939   3.876   6.542  0.1283 -0.0992  0.1798
28707SOL    HW187843   2.968   3.887   6.633  1.5990  0.4508 -0.3324
28707SOL    HW287844   2.959   3.960   6.500  1.1954 -0.9527 -1.0876
28708SOL     OW87845   5.482   6.034   9.360  0.0191 -0.3195 -0.2145
28708SOL    HW187846   5.560   6.054   9.412  0.4529  0.1008 -1.0148
28708SOL    HW287847   5.456   6.118   9.322 -1.7908 -0.1155  1.3143
28709SOL     OW87848   1.249   1.774   0.690  0.2040  0.4877 -0.0112
28709SOL    HW187849   1.268   1.841   0.756  1.6502  0.8045 -0.7313
28709SOL    HW287850   1.331   1.762   0.642 -0.5545 -0.4343 -1.1418
28710SOL     OW87851   0.650   6.819   0.379 -0.0129  0.3486 -0.1184
28710SOL    HW187852   0.732   6.856   0.411  0.1899  1.3395 -1.6939
28710SOL    HW287853   0.675   6.764   0.305 -0.7445  0.5995 -0.5674
28711SOL     OW87854   3.070   5.021   2.891  0.3196 -0.3707  0.3632
28711SOL    HW187855   3.084   4.986   2.979 -2.4435 -0.2551  0.9266
28711SOL    HW287856   3.155   5.057   2.866  1.4513 -1.3508  2.5329
28712SOL     OW87857   3.118   2.124   6.384 -0.1543 -0.1716 -0.5050
28712SOL    HW187858   3.059   2.180   6.334  3.3868  0.4205 -4.6221
28712SOL    HW287859   3.095   2.035   6.357 -1.0528 -0.1994  0.3069
28713SOL     OW87860   3.461   7.737   0.925 -0.4376 -0.6800  0.1662
28713SOL    HW187861   3.437   7.649   0.955 -0.3445 -1.0182 -0.7170
28713SOL    HW287862   3.391   7.761   0.864  1.4062 -1.7049 -2.4952
28714SOL     OW87863   8.588   6.258   8.525 -0.0005 -0.7959 -0.8250
28714SOL    HW187864   8.565   6.201   8.452 -1.5213 -0.6228 -0.5030
28714SOL    HW287865   8.676   6.290   8.503 -0.3095 -0.9696 -2.4374
28715SOL     OW87866   6.060   2.823   8.578  0.0752 -0.3077 -0.7576
28715SOL    HW187867   6.095   2.826   8.488 -1.0880 -1.3665 -1.2753
28715SOL    HW287868   6.026   2.735   8.587  0.1951 -0.2195  0.7664
28716SOL     OW87869   5.284   4.707   2.053 -0.0810 -0.4745  0.2709
28716SOL    HW187870   5.346   4.638   2.027 -1.0117 -1.3639  0.3395
28716SOL    HW287871   5.253   4.679   2.139 -1.1163 -0.4267 -0.0774
28717SOL     OW87872   5.845   2.721   5.343  0.4341  0.0499 -0.2177
28717SOL    HW187873   5.809   2.781   5.408  0.2193 -0.6594  0.3274
28717SOL    HW287874   5.779   2.718   5.274 -0.9245 -1.7680  1.0881
28718SOL     OW87875   3.837   9.235   5.190 -0.1968 -0.6489  0.3231
28718SOL    HW187876   3.807   9.220   5.280  0.2642  1.1639  0.8159
28718SOL    HW287877   3.756   9.245   5.140 -0.4685 -0.2509  0.8237
28719SOL     OW87878   4.021   3.882   6.470 -0.5059 -0.0722  0.2859
28719SOL    HW187879   3.959   3.882   6.397  1.8916  2.5225 -1.9956
28719SOL    HW287880   4.099   3.839   6.435 -0.4571 -2.0744  2.6388
28720SOL     OW87881   5.174   7.855   8.792 -0.3011  0.0132  0.0405
28720SOL    HW187882   5.126   7.918   8.845  0.4745  0.9511 -0.3350
28720SOL    HW287883   5.255   7.838   8.840 -0.1426 -0.0677 -0.2472
28721SOL     OW87884   4.815   3.911   4.977 -0.0445 -0.0785 -0.3359
28721SOL    HW187885   4.852   3.991   5.014  1.4932 -1.1117  0.5148
28721SOL    HW287886   4.861   3.840   5.023 -1.4656 -1.4581 -0.9395
28722SOL     OW87887   4.529   6.910   1.415 -0.5178  0.0192  0.6093
28722SOL    HW187888   4.585   6.845   1.372 -0.5577  0.5056 -0.1873
28722SOL    HW287889   4.591   6.972   1.454 -0.4899  0.1603  0.3437
28723SOL     OW87890   5.103   9.076   6.555  0.0612 -0.3676 -0.6202
28723SOL    HW187891   5.059   9.068   6.470 -0.1207  0.3570 -0.6021
28723SOL    HW287892   5.092   9.168   6.579  0.1073 -0.5666  0.1937
28724SOL     OW87893   7.928   6.999   5.950  0.0517 -0.0909  0.6959
28724SOL    HW187894   7.856   6.936   5.942 -0.2220  0.3945 -1.0715
28724SOL    HW287895   7.904   7.072   5.893  1.3411  0.6799  1.0779
28725SOL     OW87896   8.377   1.168   3.308  0.3242 -0.1659  0.4779
28725SOL    HW187897   8.418   1.089   3.343 -0.7123 -1.2735 -0.7299
28725SOL    HW287898   8.284   1.146   3.299 -0.2717  1.6687  1.4220
28726SOL     OW87899   2.219   4.854   3.140  0.4469  0.2592 -0.1983
28726SOL    HW187900   2.237   4.926   3.080 -0.2640  1.9755  1.5421
28726SOL    HW287901   2.294   4.852   3.199 -0.7729  1.5722  1.5353
28727SOL     OW87902   3.771   1.963   2.999  0.3976  0.1528  0.5036
28727SOL    HW187903   3.775   1.867   2.996 -0.5500  0.0972  0.6701
28727SOL    HW287904   3.702   1.982   3.062 -0.3105  0.9345 -0.4826
28728SOL     OW87905   2.849   0.703   1.809  0.0543  0.1480  0.1854
28728SOL    HW187906   2.920   0.746   1.762  0.2040  1.8067  1.8019
28728SOL    HW287907   2.893   0.645   1.871  0.1840  2.6116  2.5431
28729SOL     OW87908   2.313   9.206   0.940  0.4838  0.5161  0.0493
28729SOL    HW187909   2.295   9.113   0.951  1.3724  0.4444  1.0110
28729SOL    HW287910   2.388   9.209   0.881  1.0077  0.5873  0.7166
28730SOL     OW87911   8.053   0.556   8.042 -0.2434 -0.2325  0.1640
28730SOL    HW187912   8.028   0.481   8.096  1.1060 -1.4988 -0.8851
28730SOL    HW287913   8.122   0.599   8.091 -0.2700 -0.3119  0.2717
28731SOL     OW87914   7.804   2.038   6.018 -0.2055  0.6030 -0.0034
28731SOL    HW187915   7.725   2.091   6.023  0.1962  1.0891  2.7666
28731SOL    HW287916   7.813   1.999   6.105  2.5371  0.4738 -0.2451
28732SOL     OW87917   1.408   7.943   7.627 -0.4576  0.2748 -0.1181
28732SOL    HW187918   1.469   7.992   7.681 -1.3737  0.6940  0.5730
28732SOL    HW287919   1.393   7.999   7.551  0.4976 -0.1185 -0.6045
28733SOL     OW87920   6.242   5.670   7.934 -0.8981 -0.6912  0.0764
28733SOL    HW187921   6.197   5.618   7.869 -1.1981 -1.2084  0.6913
28733SOL    HW287922   6.191   5.659   8.014  0.0434 -0.9022  0.6616
28734SOL     OW87923   5.198   9.235   0.262  0.4166 -0.0622  0.5304
28734SOL    HW187924   5.125   9.287   0.227  0.5996 -2.2706 -3.8249
28734SOL    HW287925   5.276   9.288   0.243  0.2548  0.3280  0.9515
28735SOL     OW87926   9.540   5.394   7.913  0.7686 -0.0578 -0.5601
28735SOL    HW187927   9.465   5.362   7.863 -1.2097  0.1824  2.0920
28735SOL    HW287928   9.604   5.322   7.909  0.0993 -0.6197 -2.1150
28736SOL     OW87929   4.961   2.531   3.663  0.8701 -0.0354  0.1635
28736SOL    HW187930   4.884   2.503   3.711  0.5971 -1.1366 -0.8704
28736SOL    HW287931   4.957   2.626   3.664 -0.1348 -0.0739  0.6949
28737SOL     OW87932   8.688   6.957   7.665  0.6871  0.2394  0.3881
28737SOL    HW187933   8.659   7.026   7.725  0.2044 -0.0365  0.4709
28737SOL    HW287934   8.693   6.878   7.719 -0.9585 -0.2893 -0.1919
28738SOL     OW87935   5.730   0.783   1.454 -0.6827 -0.8119 -0.2044
28738SOL    HW187936   5.803   0.845   1.465  0.5347 -1.3494 -4.0079
28738SOL    HW287937   5.716   0.748   1.542  3.6296 -0.6109  0.7772
28739SOL     OW87938   9.430   5.278   7.543 -0.0602  0.3314 -0.2288
28739SOL    HW187939   9.401   5.369   7.540 -0.1432  0.2810 -2.4151
28739SOL    HW287940   9.442   5.253   7.452 -2.6639 -2.7313  0.1032
28740SOL     OW87941   7.477   8.371   0.539 -0.2147  0.3083 -0.2807
28740SOL    HW187942   7.430   8.296   0.504 -0.2772  0.0785  0.2934
28740SOL    HW287943   7.450   8.377   0.631  1.2906 -0.1816  0.2217
28741SOL     OW87944   5.574   3.111   3.423  0.4992  0.3066 -0.0266
28741SOL    HW187945   5.594   3.094   3.330 -0.6616  0.1770 -0.2608
28741SOL    HW287946   5.499   3.056   3.442 -2.1149  3.4658 -0.2557
28742SOL     OW87947   7.082   9.230   5.223  0.7620  0.0696  0.1035
28742SOL    HW187948   7.011   9.250   5.163 -0.0815  0.5505  1.2196
28742SOL    HW287949   7.114   9.144   5.196 -2.2056 -1.5823  1.3359
28743SOL     OW87950   7.051   5.758   0.453  0.2855 -0.2532  0.1949
28743SOL    HW187951   7.102   5.831   0.489 -0.2658  0.0902  0.2895
28743SOL    HW287952   7.102   5.680   0.476  1.2834  0.1378 -0.5676
28744SOL     OW87953   3.041   7.688   5.552  0.0310  0.4536  0.0412
28744SOL    HW187954   3.049   7.678   5.647 -2.2010 -0.5534  0.1957
28744SOL    HW287955   3.131   7.697   5.521  0.8724 -0.0117  2.1627
28745SOL     OW87956   7.033   1.275   1.168  0.3682 -0.7248  0.3312
28745SOL    HW187957   7.060   1.187   1.144 -0.2897 -1.3274  1.6668
28745SOL    HW287958   6.973   1.301   1.098 -0.8369 -2.0773  0.7987
28746SOL     OW87959   7.492   1.073   0.590 -0.2542  0.0400  0.1259
28746SOL    HW187960   7.451   0.993   0.623 -1.7655  0.8963  0.3922
28746SOL    HW287961   7.420   1.134   0.577  0.7812  1.1242 -0.8163
28747SOL     OW87962   4.589   7.396   6.636 -0.1743  0.1624  0.4566
28747SOL    HW187963   4.636   7.461   6.687  0.5767 -0.0875  0.1055
28747SOL    HW287964   4.627   7.402   6.548  1.1374 -1.8814  0.8022
28748SOL     OW87965   4.801   3.188   6.124  0.1458  0.4319  0.3117
28748SOL    HW187966   4.896   3.178   6.128  0.2587  0.2880 -1.6726
28748SOL    HW287967   4.767   3.099   6.121 -0.1192  0.4689  1.5298
28749SOL     OW87968   6.639   7.796   3.692  0.3694 -0.2227 -0.1896
28749SOL    HW187969   6.552   7.835   3.701  1.1442  1.3814  0.7622
28749SOL    HW287970   6.689   7.829   3.767  1.4804 -2.0554 -0.0376
28750SOL     OW87971   8.862   3.897   6.207  0.1576 -0.2845 -0.0366
28750SOL    HW187972   8.880   3.990   6.193 -1.3408  0.0036 -0.1819
28750SOL    HW287973   8.877   3.856   6.122  1.4331 -0.2922  0.1797
28751SOL     OW87974   5.957   5.009   1.714  0.3259  0.0240 -0.0339
28751SOL    HW187975   6.040   5.039   1.750  0.3163  0.3234 -0.2580
28751SOL    HW287976   5.973   5.001   1.620  0.4757 -1.1696  0.0865
28752SOL     OW87977   6.518   8.050   6.742 -0.0365  0.2165  0.1790
28752SOL    HW187978   6.490   8.122   6.799  0.8197 -0.8493  2.0389
28752SOL    HW287979   6.450   7.984   6.752 -0.4505  0.4515 -0.9515
28753SOL     OW87980   1.114   7.227   1.253  0.1562  0.1194 -0.4365
28753SOL    HW187981   1.126   7.237   1.159 -2.0010 -0.2393 -0.7792
28753SOL    HW287982   1.202   7.243   1.290  0.9759  0.5221 -2.4520
28754SOL     OW87983   6.067   5.605   3.796  0.1079 -0.2113 -0.0751
28754SOL    HW187984   6.146   5.598   3.742 -0.4195 -1.6045 -0.7052
28754SOL    HW287985   6.023   5.521   3.785 -1.4680  0.5398  0.2602
28755SOL     OW87986   3.969   6.272   6.956  0.2023  0.4955  0.0821
28755SOL    HW187987   3.900   6.232   6.903  1.2266  0.0256 -0.9388
28755SOL    HW287988   3.966   6.224   7.039 -0.4650  0.2406 -0.0837
28756SOL     OW87989   8.630   0.906   3.124  0.6292 -0.4911 -0.1354
28756SOL    HW187990   8.610   0.880   3.214 -0.1249 -1.7851 -0.6433
28756SOL    HW287991   8.629   1.001   3.125  2.3763 -0.4399  1.5981
28757SOL     OW87992   6.644   4.454   0.175 -0.3070  0.0855 -0.1934
28757SOL    HW187993   6.730   4.445   0.216 -1.1501 -1.8557  1.3566
28757SOL    HW287994   6.602   4.527   0.221  0.0429  0.1779 -0.0206
28758SOL     OW87995   7.168   8.600   7.303  0.2630 -0.2007  0.3738
28758SOL    HW187996   7.210   8.560   7.379  1.6115  1.5208  0.5789
28758SOL    HW287997   7.240   8.626   7.245 -0.6869 -0.4154 -0.9712
28759SOL     OW87998   0.399   7.126   3.526  0.1620  0.4914  0.1018
28759SOL    HW187999   0.344   7.063   3.479  1.6243  0.4859 -1.7119
28759SOL    HW288000   0.337   7.187   3.567 -1.2101  0.2641 -1.5510
28760SOL     OW88001   3.658   1.708   1.118  0.0529  0.1923  0.2187
28760SOL    HW188002   3.612   1.665   1.045 -0.4706  1.5359 -0.2730
28760SOL    HW288003   3.743   1.732   1.082  0.7836 -1.3666  0.8223
28761SOL     OW88004   4.347   1.945   9.704  0.0153  0.1945  0.1064
28761SOL    HW188005   4.327   1.852   9.693  1.2830 -0.0985  0.1226
28761SOL    HW288006   4.362   1.955   9.798 -2.6845  0.9960  0.5561
28762SOL     OW88007   5.598   8.484   0.897 -0.1397  0.5049  1.1276
28762SOL    HW188008   5.616   8.576   0.917  0.7722  0.1863  1.8266
28762SOL    HW288009   5.677   8.453   0.852 -1.1638  0.5326 -0.8093
28763SOL     OW88010   4.113   0.586   1.991 -0.3797 -0.4305  0.0960
28763SOL    HW188011   4.149   0.645   2.058  2.6427  1.1499 -2.6212
28763SOL    HW288012   4.144   0.499   2.016  0.1439  0.0258  1.0855
28764SOL     OW88013   7.277   1.452   9.026 -0.4131  0.0424  0.1164
28764SOL    HW188014   7.316   1.448   8.939 -1.7329 -2.5363 -0.4702
28764SOL    HW288015   7.230   1.535   9.028 -0.0425  0.3205 -1.4875
28765SOL     OW88016   7.124   6.573   4.566 -0.6457 -0.0633 -0.5112
28765SOL    HW188017   7.107   6.627   4.489  0.7978  1.1254 -0.0257
28765SOL    HW288018   7.217   6.550   4.560 -0.5493 -0.0739  0.8002
28766SOL     OW88019   4.876   8.545   2.008  0.1537  0.7880 -0.0032
28766SOL    HW188020   4.861   8.451   1.999  2.4958  0.4850 -1.6302
28766SOL    HW288021   4.972   8.554   2.011 -0.0197  3.0843  0.6866
28767SOL     OW88022   4.313   5.550   6.685 -0.1144  0.3204  0.3010
28767SOL    HW188023   4.399   5.579   6.714  0.3556 -0.4195 -0.3003
28767SOL    HW288024   4.322   5.541   6.590 -0.4650 -1.0072  0.3762
28768SOL     OW88025   5.579   3.673   2.240  0.1813 -0.1976  0.4421
28768SOL    HW188026   5.505   3.728   2.217 -1.0202 -1.8708  0.0631
28768SOL    HW288027   5.655   3.714   2.199 -0.9014  0.3611 -1.0800
28769SOL     OW88028   3.566   0.849   4.648  0.0654 -0.2342 -0.1210
28769SOL    HW188029   3.500   0.800   4.697 -0.0377  0.3298  0.3136
28769SOL    HW288030   3.589   0.792   4.575  0.2960 -1.1379  0.6323
28770SOL     OW88031   2.112   2.583   6.613 -0.0947 -0.1741 -0.6044
28770SOL    HW188032   2.062   2.528   6.673 -1.1549  0.5686 -0.7855
28770SOL    HW288033   2.048   2.645   6.578  0.3280 -1.0052 -3.0388
28771SOL     OW88034   2.418   9.359   3.955  0.1369 -0.1979 -0.5729
28771SOL    HW188035   2.346   9.354   4.018  0.7231  1.0422  0.2323
28771SOL    HW288036   2.452   9.448   3.963  0.9019 -0.3319 -1.9094
28772SOL     OW88037   6.837   0.794   4.038  0.4823 -0.2412 -0.1440
28772SOL    HW188038   6.913   0.843   4.006 -0.5372  1.3954 -0.1966
28772SOL    HW288039   6.827   0.822   4.129 -0.3915  0.0247 -0.3117
28773SOL     OW88040   8.686   5.233   3.152  0.0484  0.2241  0.0622
28773SOL    HW188041   8.756   5.217   3.215  1.1365  1.5571 -0.7389
28773SOL    HW288042   8.731   5.239   3.068 -1.1833  0.0272 -0.6416
28774SOL     OW88043   7.488   0.957   7.531  0.1046 -0.3692  0.7564
28774SOL    HW188044   7.411   0.901   7.525  0.4375 -0.8968  1.3747
28774SOL    HW288045   7.537   0.939   7.451 -1.9407  2.3115 -1.2859
28775SOL     OW88046   3.458   6.874   1.473 -0.0688  0.1387 -0.4704
28775SOL    HW188047   3.547   6.907   1.481 -0.4498  1.1861 -0.4057
28775SOL    HW288048   3.402   6.948   1.497 -0.9592 -0.4943 -0.5241
28776SOL     OW88049   8.669   3.569   6.201 -0.8902  0.4661  0.6859
28776SOL    HW188050   8.576   3.556   6.182 -0.9987  0.7415  1.0145
28776SOL    HW288051   8.671   3.648   6.255 -0.8005 -1.3077  3.4351
28777SOL     OW88052   1.984   9.673   7.023 -0.3420 -0.1398 -0.3189
28777SOL    HW188053   2.021   9.593   7.059 -0.5422  0.1136  0.4656
28777SOL    HW288054   1.894   9.650   7.001 -0.3077 -0.2126 -0.3826
28778SOL     OW88055   7.292   5.902   5.702 -0.3214 -0.0615  0.0565
28778SOL    HW188056   7.380   5.905   5.741 -0.9964 -0.6805  1.7193
28778SOL    HW288057   7.274   5.808   5.692 -1.4236 -0.0062  1.2887
28779SOL     OW88058   3.609   8.907   6.795  0.4834  0.2529 -0.1125
28779SOL    HW188059   3.679   8.972   6.797 -1.8171  3.2297 -3.3726
28779SOL    HW288060   3.543   8.941   6.856 -0.6237  0.9701 -1.6402
28780SOL     OW88061   5.645   4.638   9.632  0.1441 -0.7903 -0.3386
28780SOL    HW188062   5.576   4.662   9.569 -0.2413 -0.5360  0.1767
28780SOL    HW288063   5.726   4.671   9.593  0.0489 -1.5133 -1.1858
28781SOL     OW88064   6.120   0.941   5.784 -0.1325 -0.0128 -0.0582
28781SOL    HW188065   6.092   0.990   5.861 -0.5530  0.6652 -0.6273
28781SOL    HW288066   6.118   0.849   5.812  0.3568  0.2626  0.9245
28782SOL     OW88067   4.668   9.335   4.739  0.2371 -0.4116  0.3761
28782SOL    HW188068   4.752   9.319   4.696 -0.0066 -1.7542  0.3411
28782SOL    HW288069   4.606   9.278   4.692 -0.1912 -1.3475  1.9881
28783SOL     OW88070   8.239   6.475   8.953 -0.3262 -0.3290  0.1499
28783SOL    HW188071   8.148   6.445   8.956 -0.5864  0.2805 -1.0810
28783SOL    HW288072   8.289   6.396   8.934 -0.9654 -0.1671 -2.6029
28784SOL     OW88073   7.671   2.810   8.747 -0.3259 -0.0538  0.4286
28784SOL    HW188074   7.734   2.873   8.781 -0.1896 -0.0260  0.1271
28784SOL    HW288075   7.688   2.807   8.653 -1.0233  0.2348  0.2865
28785SOL     OW88076   7.312   3.585   6.957  0.3151 -0.6784  0.2678
28785SOL    HW188077   7.266   3.516   6.910 -0.8484  0.1559  0.1323
28785SOL    HW288078   7.321   3.551   7.046  1.3400 -1.7160 -0.2086
28786SOL     OW88079   5.750   2.730   0.942 -0.6363 -0.6118  0.0134
28786SOL    HW188080   5.773   2.780   1.021 -1.3403  0.9365 -0.7207
28786SOL    HW288081   5.657   2.712   0.951 -1.3380  1.7485 -1.5383
28787SOL     OW88082   6.060   3.169   7.915 -0.0652 -0.1712 -0.1494
28787SOL    HW188083   6.057   3.199   7.824  0.8262 -0.1807 -0.1911
28787SOL    HW288084   6.056   3.250   7.967 -0.0469 -0.1360 -0.2032
28788SOL     OW88085   0.274   0.929   9.411  0.4452 -0.1196  0.2920
28788SOL    HW188086   0.266   0.966   9.323  0.5336  1.0249  0.7512
28788SOL    HW288087   0.359   0.886   9.411 -0.1150 -1.2838 -0.5874
28789SOL     OW88088   7.392   5.998   0.338  0.8371 -0.3877 -0.1389
28789SOL    HW188089   7.461   5.936   0.314  1.8722 -0.2416  2.1320
28789SOL    HW288090   7.335   6.002   0.262  2.5363 -1.6397 -1.5577
28790SOL     OW88091   6.688   2.041   5.832 -0.5014 -0.0784 -0.1387
28790SOL    HW188092   6.739   1.961   5.848  1.4898  1.4726  1.8792
28790SOL    HW288093   6.745   2.095   5.778 -0.6876  1.0066  0.7125
28791SOL     OW88094   4.375   9.226   3.211 -0.4846 -0.0637  0.6242
28791SOL    HW188095   4.380   9.148   3.157 -1.3639  0.9124 -0.9549
28791SOL    HW288096   4.460   9.231   3.255 -0.0424 -1.3309 -0.0526
28792SOL     OW88097   3.304   8.381   7.029  0.1162  0.7666 -0.6883
28792SOL    HW188098   3.225   8.373   6.976  1.2864 -0.2099 -2.3791
28792SOL    HW288099   3.273   8.371   7.120 -1.7091  0.6499 -1.2903
28793SOL     OW88100   7.303   5.615   5.749 -0.0363 -0.2951  0.5915
28793SOL    HW188101   7.231   5.582   5.695 -0.7139  0.4219  1.0395
28793SOL    HW288102   7.382   5.591   5.701 -0.5320 -1.8503  0.5096
28794SOL     OW88103   7.877   2.557   4.023 -0.0060  0.6124 -0.3189
28794SOL    HW188104   7.822   2.578   3.948  1.8077 -0.2164 -1.9879
28794SOL    HW288105   7.839   2.478   4.060  0.6090 -0.5995 -2.1351
28795SOL     OW88106   4.371   2.032   2.503  0.2661 -0.5928 -0.4687
28795SOL    HW188107   4.300   2.086   2.467 -0.1860 -1.3279 -0.6919
28795SOL    HW288108   4.328   1.951   2.529  0.9867 -0.9395 -0.3508
28796SOL     OW88109   2.400   0.376   4.676  0.0153  0.1354 -0.4671
28796SOL    HW188110   2.310   0.408   4.668  0.2844  0.4394 -2.7167
28796SOL    HW288111   2.424   0.348   4.588  1.9957 -0.3673  0.1779
28797SOL     OW88112   0.962   1.731   5.690  0.5232 -0.0739  0.0296
28797SOL    HW188113   0.881   1.725   5.639 -0.6709 -2.5314  1.9657
28797SOL    HW288114   1.032   1.722   5.626 -0.5814  3.2641 -1.8654
28798SOL     OW88115   0.428   6.598   4.704 -0.2070  0.5218  0.0114
28798SOL    HW188116   0.342   6.601   4.747 -1.3297  0.2529 -2.0967
28798SOL    HW288117   0.421   6.659   4.631  1.4919  0.6528 -0.0892
28799SOL     OW88118   1.867   3.920   2.039 -0.1936  0.7655  0.0218
28799SOL    HW188119   1.934   3.987   2.054 -0.7165  1.5432 -1.0498
28799SOL    HW288120   1.788   3.969   2.020 -0.5317 -0.1631 -1.0362
28800SOL     OW88121   4.210   0.418   0.502 -0.0620 -0.8572 -0.0992
28800SOL    HW188122   4.128   0.382   0.536  0.0341 -0.4829  0.5486
28800SOL    HW288123   4.214   0.507   0.537  0.5422 -0.8110 -0.2627
28801SOL     OW88124   0.236   8.110   5.359  0.4796 -0.3021 -0.1692
28801SOL    HW188125   0.204   8.192   5.396  0.7557 -0.8443  1.3560
28801SOL    HW288126   0.262   8.132   5.270 -1.4259  0.7799 -0.5023
28802SOL     OW88127   6.148   5.744   0.890  0.0877  0.1144  0.1091
28802SOL    HW188128   6.200   5.720   0.813 -1.8897  1.1368 -1.6449
28802SOL    HW288129   6.104   5.825   0.864 -1.9816 -0.4419  1.6859
28803SOL     OW88130   4.836   1.646   7.205  0.1643  0.1900  0.2632
28803SOL    HW188131   4.798   1.558   7.198 -2.4506  0.9598  2.7463
28803SOL    HW288132   4.852   1.657   7.299  1.5548  1.9776 -0.1400
28804SOL     OW88133   0.414   1.763   0.451 -0.1450 -0.3915  0.0355
28804SOL    HW188134   0.333   1.714   0.460 -0.7199  0.7683  1.6773
28804SOL    HW288135   0.481   1.705   0.487 -0.1188 -1.5178 -1.6989
28805SOL     OW88136   9.291   2.265   3.646  0.2873  0.4588  0.0818
28805SOL    HW188137   9.264   2.187   3.694  0.3273  0.6244  0.3710
28805SOL    HW288138   9.355   2.308   3.702 -1.6159  2.0862  1.1294
28806SOL     OW88139   4.760   7.382   2.011 -0.1260 -0.3129  0.0839
28806SOL    HW188140   4.742   7.306   2.066  0.5151 -1.8526 -1.7357
28806SOL    HW288141   4.685   7.388   1.953 -0.6117  1.0580  0.8203
28807SOL     OW88142   4.425   0.004   5.602 -0.8776  0.0838  0.1952
28807SOL    HW188143   4.483   0.009   5.679 -1.4008  0.9324  0.5491
28807SOL    HW288144   4.469   0.057   5.536 -2.9523  4.0134  1.6487
28808SOL     OW88145   8.664   7.463   5.017  0.2543  0.0092 -0.2299
28808SOL    HW188146   8.615   7.468   5.099  0.0458  0.7618 -0.3905
28808SOL    HW288147   8.744   7.512   5.034  0.8502 -1.0085 -0.0465
28809SOL     OW88148   5.444   5.612   6.208  0.4039  0.1743  0.3219
28809SOL    HW188149   5.391   5.655   6.140 -0.3697 -3.1746 -1.4279
28809SOL    HW288150   5.390   5.617   6.287 -1.5880 -1.0399 -0.8488
28810SOL     OW88151   6.033   2.673   3.096  0.7228  0.4327  0.2021
28810SOL    HW188152   5.975   2.749   3.091 -0.7323 -0.3867  2.8852
28810SOL    HW288153   5.977   2.598   3.078  2.0135 -0.1521 -1.7876
28811SOL     OW88154   3.753   8.057   2.979 -0.1634 -0.1168 -0.0178
28811SOL    HW188155   3.685   8.115   2.945 -0.7637 -0.3686  0.7275
28811SOL    HW288156   3.820   8.116   3.013  0.0150  0.1327 -0.7689
28812SOL     OW88157   6.615   9.384   6.973 -0.1538 -0.1006 -0.6697
28812SOL    HW188158   6.562   9.323   6.922 -1.5088  0.8899 -0.4801
28812SOL    HW288159   6.699   9.340   6.982 -1.7135 -2.9485  1.3052
28813SOL     OW88160   1.284   4.803   7.621 -0.5493  0.5579 -0.4051
28813SOL    HW188161   1.221   4.790   7.549 -0.5599  0.7257 -0.4264
28813SOL    HW288162   1.319   4.715   7.638 -0.9637  0.4257 -0.2330
28814SOL     OW88163   0.237   5.557   8.689  0.4965  0.3272 -0.1698
28814SOL    HW188164   0.262   5.594   8.605  0.1750  0.5750 -0.1614
28814SOL    HW288165   0.250   5.463   8.680  1.4897  0.4533 -0.1359
28815SOL     OW88166   7.493   7.317   4.925  0.0794 -0.0501  0.1057
28815SOL    HW188167   7.564   7.377   4.947  1.0650 -1.0725 -0.2076
28815SOL    HW288168   7.488   7.320   4.829 -0.6901  0.4341  0.1489
28816SOL     OW88169   5.361   6.932   4.480  0.5111 -0.3178  0.1170
28816SOL    HW188170   5.410   7.004   4.522 -2.0184  1.7452 -0.2211
28816SOL    HW288171   5.355   6.865   4.548  2.3708  0.0315  0.6860
28817SOL     OW88172   7.856   6.296   7.940 -0.1983 -0.0529 -0.4050
28817SOL    HW188173   7.844   6.204   7.964  2.7710 -0.1977  0.9471
28817SOL    HW288174   7.869   6.295   7.845  0.1488 -1.0878 -0.3533
28818SOL     OW88175   9.442   8.378   2.349 -0.0272 -0.2012  0.4415
28818SOL    HW188176   9.499   8.424   2.411  0.9472  0.0224 -0.5836
28818SOL    HW288177   9.365   8.436   2.340  1.2429  1.3911 -0.9429
28819SOL     OW88178   9.000   5.209   3.623  0.0045  0.9389 -0.1090
28819SOL    HW188179   8.905   5.203   3.635  0.1071  1.7263  1.3678
28819SOL    HW288180   9.030   5.264   3.696  2.0038 -1.9166  1.4186
28820SOL     OW88181   6.894   2.286   3.950  0.3548  0.0024 -0.0489
28820SOL    HW188182   6.803   2.266   3.975  0.9456 -3.7147 -0.3506
28820SOL    HW288183   6.915   2.365   4.000 -2.5242  0.0764  1.2761
28821SOL     OW88184   7.335   6.887   8.077  0.4948  0.2782 -0.3763
28821SOL    HW188185   7.267   6.918   8.137 -1.3058  0.3267 -2.3163
28821SOL    HW288186   7.405   6.951   8.086 -0.3264  1.0922  0.5923
28822SOL     OW88187   6.899   0.745   8.924 -0.3700  0.2556  0.5754
28822SOL    HW188188   6.848   0.744   9.005 -2.5696  1.2307 -0.6974
28822SOL    HW288189   6.834   0.735   8.855  1.4517 -0.6101 -1.1022
28823SOL     OW88190   6.251   6.190   9.168 -0.0150  0.1119  0.2555
28823SOL    HW188191   6.196   6.133   9.223 -0.4166  0.2272 -0.0179
28823SOL    HW288192   6.315   6.132   9.129 -0.3435 -0.1359  0.0783
28824SOL     OW88193   9.257   9.496   3.249 -0.3201 -0.0664 -0.4110
28824SOL    HW188194   9.330   9.556   3.261 -0.4553  0.4314 -1.9040
28824SOL    HW288195   9.296   9.409   3.252 -0.1522  0.0370  1.9666
28825SOL     OW88196   2.770   8.821   6.625  0.1954 -0.1776  0.0652
28825SOL    HW188197   2.824   8.749   6.592  0.6702 -0.8352  2.1209
28825SOL    HW288198   2.689   8.815   6.575  1.6232  0.2801 -2.4902
28826SOL     OW88199   0.396   9.071   4.285 -0.4411  0.2761 -0.1971
28826SOL    HW188200   0.483   9.111   4.287 -1.5211  2.7656  0.8898
28826SOL    HW288201   0.376   9.051   4.376 -0.7628 -0.8940 -0.5108
28827SOL     OW88202   7.446   5.398   7.757  0.0180 -0.0546  0.2888
28827SOL    HW188203   7.408   5.310   7.753 -2.2655  0.8886 -0.0657
28827SOL    HW288204   7.469   5.418   7.666  1.5609 -0.6405  0.5066
28828SOL     OW88205   3.558   3.225   8.874  0.3782 -0.0354 -0.0202
28828SOL    HW188206   3.630   3.189   8.927 -1.1683 -0.1575  2.1139
28828SOL    HW288207   3.528   3.151   8.822  0.0105 -0.7421  1.1576
28829SOL     OW88208   2.914   0.621   0.444  0.1866  0.2754 -0.7455
28829SOL    HW188209   2.938   0.676   0.519 -0.2495 -0.3858 -0.1102
28829SOL    HW288210   2.907   0.683   0.371  2.1899  0.7339 -0.6250
28830SOL     OW88211   5.164   3.425   2.519 -0.2733  0.3946 -0.1226
28830SOL    HW188212   5.096   3.364   2.546  0.2703  0.0939  0.5773
28830SOL    HW288213   5.172   3.411   2.425 -1.8860  1.1533 -0.4243
28831SOL     OW88214   9.503   3.033   5.994 -0.4477  0.1804 -0.6474
28831SOL    HW188215   9.500   2.959   5.933  2.1495 -0.4329 -0.1598
28831SOL    HW288216   9.574   3.089   5.961  0.1224  0.5159  1.0319
28832SOL     OW88217   3.904   3.539   1.731  0.1200 -0.3899  0.0633
28832SOL    HW188218   3.858   3.562   1.812 -1.6500 -1.7819 -0.4836
28832SOL    HW288219   3.870   3.453   1.707  0.5663 -0.0117 -2.1717
28833SOL     OW88220   5.089   4.739   8.714 -0.2111  0.3210 -0.0954
28833SOL    HW188221   5.119   4.666   8.659  0.4358  0.4103  0.1306
28833SOL    HW288222   5.092   4.704   8.803 -0.9742  0.2717 -0.0837
28834SOL     OW88223   9.340   5.580   8.110  0.1560  0.1546  0.3511
28834SOL    HW188224   9.298   5.499   8.079  1.6388 -0.8463  0.8393
28834SOL    HW288225   9.312   5.588   8.201 -0.7459  0.7326  0.0365
28835SOL     OW88226   2.563   0.235   3.397 -0.5067 -0.2048  0.2274
28835SOL    HW188227   2.587   0.198   3.312 -0.9197 -0.5141  0.2409
28835SOL    HW288228   2.471   0.260   3.387 -0.4215  0.2070  0.4324
28836SOL     OW88229   6.297   9.181   2.710 -0.1522 -0.2324 -0.0146
28836SOL    HW188230   6.310   9.090   2.735  2.8375  0.0385 -0.2689
28836SOL    HW288231   6.271   9.177   2.618  0.7374 -0.8247 -0.2533
28837SOL     OW88232   2.381   5.730   4.695  0.0895  0.3718  0.0574
28837SOL    HW188233   2.369   5.766   4.607  0.5314  0.4791  0.0347
28837SOL    HW288234   2.474   5.746   4.714  0.4441 -1.2085 -0.1703
28838SOL     OW88235   8.667   4.766   0.543  0.1665 -0.5341  0.5423
28838SOL    HW188236   8.741   4.826   0.537 -0.6675  0.4862  0.1703
28838SOL    HW288237   8.639   4.752   0.452 -0.7765 -0.0202  0.7364
28839SOL     OW88238   0.751   1.643   5.530  0.2539  0.2964 -0.0028
28839SOL    HW188239   0.747   1.721   5.474  2.8268  1.3381  1.1002
28839SOL    HW288240   0.781   1.573   5.472 -1.8151  0.1097 -0.9430
28840SOL     OW88241   2.264   0.045   5.987 -0.0544 -0.5252 -0.4801
28840SOL    HW188242   2.233  -0.029   5.934 -1.5175  0.4471 -1.0380
28840SOL    HW288243   2.195   0.110   5.980  0.3860  0.2241  1.4477
28841SOL     OW88244   4.896   4.526   7.699  0.0129 -0.0693  0.6656
28841SOL    HW188245   4.855   4.503   7.782  0.3318  1.6557  1.3525
28841SOL    HW288246   4.989   4.505   7.711  0.2989  1.3975  1.2820
28842SOL     OW88247   0.971   4.852   1.203  0.3797 -0.0602  0.5936
28842SOL    HW188248   1.028   4.895   1.138  1.9665  1.8968  3.0681
28842SOL    HW288249   0.979   4.907   1.281 -1.9288 -1.9358  2.2864
28843SOL     OW88250   9.094   5.571   7.345 -0.3510  0.3306 -0.4334
28843SOL    HW188251   9.102   5.598   7.254  0.7231 -0.3926 -0.5804
28843SOL    HW288252   9.000   5.567   7.361 -0.6013 -0.6410 -1.8744
28844SOL     OW88253   4.059   9.020   6.207 -0.4359 -0.3529 -0.0262
28844SOL    HW188254   4.092   8.981   6.126 -0.8472 -1.1475  0.1785
28844SOL    HW288255   3.968   9.043   6.187 -0.6204 -0.8003  0.2918
28845SOL     OW88256   0.659   1.906   6.513 -0.3117 -0.2981 -0.1928
28845SOL    HW188257   0.603   1.939   6.443  2.3267  0.9162 -1.9300
28845SOL    HW288258   0.626   1.819   6.532 -2.0960 -0.0462 -1.8549
28846SOL     OW88259   2.391   0.217   9.511  0.2253  0.2786  0.0094
28846SOL    HW188260   2.368   0.302   9.547 -0.1631  0.8014 -1.4270
28846SOL    HW288261   2.367   0.222   9.419 -0.9273 -1.8007  0.1408
28847SOL     OW88262   1.209   8.602   3.323  0.5669  0.3911 -0.2963
28847SOL    HW188263   1.221   8.507   3.327  3.4013  0.6812 -0.0705
28847SOL    HW288264   1.137   8.614   3.260 -0.1763 -1.8825  0.0195
28848SOL     OW88265   9.378   4.122   8.168  0.0028 -0.5433  0.1214
28848SOL    HW188266   9.307   4.153   8.111  0.4704  1.1743  0.4166
28848SOL    HW288267   9.458   4.140   8.119  0.3004 -4.0648 -0.9877
28849SOL     OW88268   7.086   5.639   4.985  0.3194 -0.1789 -0.0226
28849SOL    HW188269   7.036   5.577   5.036 -0.5438 -0.4472 -1.1557
28849SOL    HW288270   7.163   5.659   5.039 -0.7002 -0.1966  1.4952
28850SOL     OW88271   3.516   6.555   1.564 -0.3090 -0.1579 -0.5927
28850SOL    HW188272   3.569   6.622   1.522  0.6537 -1.6171 -1.8140
28850SOL    HW288273   3.555   6.472   1.536 -0.7773 -1.2454  1.7169
28851SOL     OW88274   1.968   6.691   8.616 -0.3103  0.0445 -0.0995
28851SOL    HW188275   1.908   6.644   8.675 -1.4517 -0.1290 -1.3535
28851SOL    HW288276   2.052   6.691   8.663 -1.6933  2.1365  2.7219
28852SOL     OW88277   8.307   4.171   7.835  0.6031  0.5932  0.0666
28852SOL    HW188278   8.238   4.229   7.868  0.3166  0.7345 -0.7593
28852SOL    HW288279   8.278   4.147   7.747  1.1061 -0.1805  0.1019
28853SOL     OW88280   7.134   8.093   0.535 -0.4329 -0.5655 -0.3090
28853SOL    HW188281   7.201   8.109   0.469 -0.6649 -2.5770 -1.1002
28853SOL    HW288282   7.175   8.033   0.597 -0.7177  0.1367  0.5835
28854SOL     OW88283   0.894   9.372   8.899 -0.7051  0.1152 -0.3484
28854SOL    HW188284   0.812   9.412   8.926 -0.1469  0.3021  1.1647
28854SOL    HW288285   0.870   9.314   8.827 -2.3326 -0.5897  0.7106
28855SOL     OW88286   9.685   2.583   8.227 -0.6319 -0.7765 -0.3596
28855SOL    HW188287   9.721   2.495   8.240 -1.6017 -0.8691  2.3143
28855SOL    HW288288   9.612   2.570   8.167 -0.1479 -1.6267 -0.7841
28856SOL     OW88289   6.241   9.064   4.217 -0.5754 -0.2420  0.8836
28856SOL    HW188290   6.201   8.979   4.235 -1.4900 -0.0840 -0.2883
28856SOL    HW288291   6.286   9.053   4.134 -0.3774  0.3275  0.9045
28857SOL     OW88292   0.369   5.202   1.619  0.4809  0.1623  0.2312
28857SOL    HW188293   0.315   5.220   1.542 -0.6318  0.7451  1.1154
28857SOL    HW288294   0.410   5.117   1.601 -0.5451 -0.1781 -0.5590
28858SOL     OW88295   7.464   4.750   6.060  0.0479 -0.0273  0.1554
28858SOL    HW188296   7.513   4.812   6.005  0.4112  0.4742  1.0293
28858SOL    HW288297   7.519   4.673   6.064  0.2706  0.1361  0.2552
28859SOL     OW88298   7.632   0.064   1.648  0.3895 -0.0243 -0.4918
28859SOL    HW188299   7.585   0.074   1.731 -1.1303 -0.4915 -1.2486
28859SOL    HW288300   7.722   0.042   1.673 -0.1764 -0.7387  1.0308
28860SOL     OW88301   5.638   9.402   3.483  0.3511  0.5840 -0.3745
28860SOL    HW188302   5.594   9.433   3.563 -1.1769 -1.5446 -0.3028
28860SOL    HW288303   5.728   9.384   3.510  0.0361  0.5543  0.7162
28861SOL     OW88304   3.800   5.739   2.526 -0.1795  0.0287  0.2279
28861SOL    HW188305   3.733   5.725   2.594 -0.5308 -0.6349 -0.2457
28861SOL    HW288306   3.764   5.808   2.471  0.2431  0.7895  0.8772
28862SOL     OW88307   2.532   2.884   2.147 -0.0828  0.1252  0.0784
28862SOL    HW188308   2.577   2.804   2.120  0.0685 -0.0326  0.7668
28862SOL    HW288309   2.577   2.911   2.227 -0.8407  0.2784  0.4655
28863SOL     OW88310   7.572   6.076   0.686 -0.4895 -0.3334 -0.6884
28863SOL    HW188311   7.557   5.990   0.727  2.4190 -0.2911  0.7163
28863SOL    HW288312   7.499   6.086   0.625 -1.7815 -3.1038  0.2198
28864SOL     OW88313   3.732   1.814   2.671 -0.0010 -0.3491 -0.5031
28864SOL    HW188314   3.770   1.831   2.757 -0.7375  1.2561 -0.4562
28864SOL    HW288315   3.787   1.746   2.633  0.7369 -0.6046  0.9647
28865SOL     OW88316   3.361   7.036   6.250  0.0633 -0.5633 -0.2776
28865SOL    HW188317   3.291   6.999   6.196 -0.2518  1.4939 -1.4065
28865SOL    HW288318   3.319   7.055   6.334 -0.9618  1.1187 -1.1055
28866SOL     OW88319   5.958   5.882   4.892 -0.7533 -0.1248  0.0889
28866SOL    HW188320   5.952   5.945   4.965 -0.5003  1.6540 -1.3417
28866SOL    HW288321   6.010   5.927   4.826  0.0070 -2.1526 -0.7654
28867SOL     OW88322   7.982   6.840   6.853 -0.9161 -0.1088 -0.2790
28867SOL    HW188323   7.900   6.886   6.835  0.7510  3.1467 -0.2749
28867SOL    HW288324   8.048   6.910   6.859  1.8547 -2.5449 -0.1558
28868SOL     OW88325   0.288   6.029   7.504 -0.0509 -0.2480 -0.3141
28868SOL    HW188326   0.355   5.994   7.446 -1.8932 -1.1438 -2.0271
28868SOL    HW288327   0.315   6.003   7.592  0.9038 -2.1642 -1.1336
28869SOL     OW88328   8.305   0.567   2.486  0.3297 -0.1020 -0.5846
28869SOL    HW188329   8.215   0.564   2.519  0.4041 -0.2237 -0.3954
28869SOL    HW288330   8.301   0.626   2.411  0.2676  0.6400 -0.0165
28870SOL     OW88331   8.392   1.045   9.127  0.1786  0.2160 -0.5759
28870SOL    HW188332   8.440   0.966   9.102 -0.7729 -0.0908 -1.4959
28870SOL    HW288333   8.320   1.013   9.181 -0.5030  0.3847 -1.3646
28871SOL     OW88334   4.075   1.936   4.370 -0.1240 -0.0044 -0.3596
28871SOL    HW188335   4.006   1.968   4.427  0.6277 -1.0544  1.2179
28871SOL    HW288336   4.066   1.840   4.373  3.4918 -0.4884  2.8502
28872SOL     OW88337   3.507   6.495   7.068 -0.5041 -0.5217 -0.3534
28872SOL    HW188338   3.547   6.457   6.990 -1.5225 -0.6282 -0.8304
28872SOL    HW288339   3.429   6.540   7.036 -0.9019 -0.5081  0.5957
28873SOL     OW88340   7.518   0.279   3.364  0.4432 -0.1864 -0.1410
28873SOL    HW188341   7.515   0.374   3.371  0.9153 -0.1874  0.1437
28873SOL    HW288342   7.590   0.262   3.302  2.4980 -0.4199  2.1340
28874SOL     OW88343   2.907   5.210   8.919  0.4226 -0.4583  0.4273
28874SOL    HW188344   2.966   5.270   8.873  0.9787 -0.3879  1.2236
28874SOL    HW288345   2.956   5.182   8.996 -0.8033  0.0380  1.4123
28875SOL     OW88346   6.233   3.125   6.572  0.3740  0.0874  0.3261
28875SOL    HW188347   6.253   3.087   6.487 -0.9703  1.6620 -0.7506
28875SOL    HW288348   6.305   3.187   6.588  0.3205  0.2208  0.0533
28876SOL     OW88349   7.762   2.620   5.962  0.0217  0.3036 -0.3413
28876SOL    HW188350   7.706   2.694   5.985  1.1343  0.8837  0.6228
28876SOL    HW288351   7.831   2.621   6.029  0.0915 -1.5758 -0.3541
28877SOL     OW88352   7.040   3.471   2.264  0.4068 -0.1181  0.1664
28877SOL    HW188353   6.946   3.467   2.282  0.2088  0.2910 -0.7125
28877SOL    HW288354   7.068   3.380   2.264 -0.3444 -0.3757 -1.2922
28878SOL     OW88355   3.232   5.844   4.449  0.2137 -0.5543 -0.1720
28878SOL    HW188356   3.156   5.833   4.506 -0.7165 -0.7210 -1.4161
28878SOL    HW288357   3.303   5.869   4.509 -0.9635  0.2782  0.9315
28879SOL     OW88358   2.410   5.153   7.284 -0.0176 -0.1814  0.1389
28879SOL    HW188359   2.465   5.076   7.266 -0.6483 -0.4478 -0.6935
28879SOL    HW288360   2.429   5.175   7.376 -0.4309 -1.8137  0.6387
28880SOL     OW88361   7.660   3.270   6.537 -0.6958  0.3382 -0.1038
28880SOL    HW188362   7.590   3.232   6.589 -0.5343 -0.1103 -0.2115
28880SOL    HW288363   7.714   3.196   6.510  1.2538  0.8860  2.0225
28881SOL     OW88364   5.949   6.013   8.896  0.0318  0.1004  0.0835
28881SOL    HW188365   6.011   5.994   8.825 -0.8270 -0.0008 -0.6581
28881SOL    HW288366   5.954   6.108   8.906  0.1184  0.1229 -0.1502
28882SOL     OW88367   5.440   9.313   5.211  0.1833  0.2444 -0.5641
28882SOL    HW188368   5.450   9.227   5.251 -0.5365  1.2123  1.9101
28882SOL    HW288369   5.529   9.349   5.210 -0.0032  1.2160  2.8991
28883SOL     OW88370   0.640   9.673   0.393  0.4964 -0.2856 -0.5185
28883SOL    HW188371   0.637   9.713   0.480  0.3872 -1.7194  0.1729
28883SOL    HW288372   0.566   9.712   0.346 -1.2784 -1.5976  1.0292
28884SOL     OW88373   4.765   3.806   7.960 -0.0641  0.1242  0.3187
28884SOL    HW188374   4.796   3.741   8.023 -0.2096  0.0726  0.3370
28884SOL    HW288375   4.695   3.762   7.912 -2.4476  1.2735  2.4995
28885SOL     OW88376   9.421   5.364   7.080 -0.3555 -0.1301  0.2065
28885SOL    HW188377   9.333   5.332   7.096 -0.9343  1.4191  0.2824
28885SOL    HW288378   9.427   5.372   6.985 -0.8932  1.2697  0.2635
28886SOL     OW88379   3.250   3.653   7.144  0.8596  0.3280  0.3865
28886SOL    HW188380   3.188   3.721   7.170 -0.5066 -0.2671 -1.1702
28886SOL    HW288381   3.210   3.571   7.171  1.0188 -0.0606 -0.5322
28887SOL     OW88382   2.631   4.521   8.441  0.1909 -0.0258  0.0339
28887SOL    HW188383   2.700   4.560   8.388  1.3488 -0.2911  1.3049
28887SOL    HW288384   2.603   4.591   8.499 -0.9049  0.1923 -0.7228
28888SOL     OW88385   7.528   1.817   9.207  0.2982 -0.1600  0.1453
28888SOL    HW188386   7.468   1.783   9.142  0.9706  1.3366 -1.3223
28888SOL    HW288387   7.479   1.887   9.251  0.7377  0.7051 -0.6943
28889SOL     OW88388   0.467   4.646   6.924 -0.5081  0.2819 -0.4344
28889SOL    HW188389   0.543   4.592   6.903 -1.0069 -0.1552 -1.1561
28889SOL    HW288390   0.459   4.706   6.850 -1.4324 -0.3185 -0.8438
28890SOL     OW88391   0.026   2.521   8.623 -0.1220  0.3391 -0.0614
28890SOL    HW188392  -0.013   2.590   8.568  0.6309  1.1939  0.4543
28890SOL    HW288393   0.098   2.564   8.667 -0.1801 -0.5712  0.9456
28891SOL     OW88394   3.013   1.847   4.792  0.0634  0.1145  0.4129
28891SOL    HW188395   2.991   1.885   4.707  0.6492 -2.0161 -0.7873
28891SOL    HW288396   3.057   1.917   4.839  0.7126  1.0576 -1.4770
28892SOL     OW88397   2.196   1.472   8.662  0.0472 -0.2428 -0.3980
28892SOL    HW188398   2.252   1.405   8.623  0.3574 -0.5488  0.5564
28892SOL    HW288399   2.116   1.469   8.609 -0.4857 -2.3047  0.4106
28893SOL     OW88400   4.930   6.442   3.815  0.4023  0.4591 -0.5089
28893SOL    HW188401   4.853   6.409   3.770  0.5022  0.8617 -0.9916
28893SOL    HW288402   5.004   6.406   3.766  0.6001 -1.8139  1.2902
28894SOL     OW88403   5.059   3.744   4.581  0.1143 -0.2312 -0.1579
28894SOL    HW188404   5.140   3.771   4.536  0.8872 -1.7223  0.2852
28894SOL    HW288405   5.028   3.669   4.530 -0.6204 -0.0963  0.0906
28895SOL     OW88406   5.323   8.570   0.897 -0.2104  0.0581  0.4234
28895SOL    HW188407   5.284   8.571   0.810  2.0352  0.8929 -0.6406
28895SOL    HW288408   5.364   8.484   0.903  0.6193  0.4284  0.1693
28896SOL     OW88409   1.062   6.771   7.496  0.7612  0.0373  0.3579
28896SOL    HW188410   1.087   6.829   7.567 -0.8793  0.8206  0.3467
28896SOL    HW288411   1.123   6.790   7.425  1.0947  0.7627  0.8365
28897SOL     OW88412   5.896   6.626   3.344  0.4204  0.2475 -0.0082
28897SOL    HW188413   5.864   6.610   3.433 -1.2731 -0.3500 -0.6869
28897SOL    HW288414   5.826   6.593   3.287  1.3232  0.9228 -1.5642
28898SOL     OW88415   3.103   8.077   3.984  0.0736  0.4901  0.2673
28898SOL    HW188416   3.053   7.995   3.980 -2.0510  1.6155  1.8765
28898SOL    HW288417   3.048   8.141   3.939 -0.0666  1.8113  2.2279
28899SOL     OW88418   1.672   3.695   1.013 -0.0029  0.3930  0.7395
28899SOL    HW188419   1.711   3.691   0.925 -0.2502  3.0345  0.4305
28899SOL    HW288420   1.593   3.642   1.006 -1.2935  2.3710 -1.4251
28900SOL     OW88421   5.905   3.764   5.248  0.9463 -0.3964  0.2335
28900SOL    HW188422   5.903   3.735   5.157  2.5759  1.3674 -0.4415
28900SOL    HW288423   5.989   3.732   5.281  0.5947 -0.5835  0.9706
28901SOL     OW88424   8.981   6.371   4.416  0.7222  0.5628 -0.1562
28901SOL    HW188425   9.050   6.369   4.483 -0.9356  0.1139  1.6402
28901SOL    HW288426   8.958   6.279   4.403 -1.8683  0.7788  1.9433
28902SOL     OW88427   5.160   4.748   5.027 -0.0037 -0.1545 -0.2651
28902SOL    HW188428   5.133   4.837   5.052 -0.2033 -0.5949  1.2124
28902SOL    HW288429   5.121   4.692   5.095 -0.1862 -1.4110 -1.3737
28903SOL     OW88430   8.142   9.598   5.225  0.0772 -0.2469  0.4778
28903SOL    HW188431   8.221   9.652   5.230  0.5847 -1.0714  1.8091
28903SOL    HW288432   8.156   9.528   5.289 -1.9474 -0.1376  1.1111
28904SOL     OW88433   5.747   6.815   2.596 -0.4319 -0.1232 -0.3103
28904SOL    HW188434   5.743   6.727   2.635 -1.5089  0.2206  0.3991
28904SOL    HW288435   5.723   6.874   2.668 -0.7714  0.6623 -1.0549
28905SOL     OW88436   9.354   6.526   5.351  0.1043 -0.2489  0.1627
28905SOL    HW188437   9.394   6.603   5.310  1.1766  0.3884  2.2429
28905SOL    HW288438   9.338   6.465   5.279 -0.2202  1.6672 -1.4693
28906SOL     OW88439   5.511   2.842   0.782  0.2645  0.3384  0.1277
28906SOL    HW188440   5.475   2.854   0.695 -2.2687  0.8717  1.1617
28906SOL    HW288441   5.591   2.896   0.783 -0.0585  0.9096 -1.5836
28907SOL     OW88442   9.189   4.272   6.560 -0.4572 -0.5730 -0.1898
28907SOL    HW188443   9.272   4.274   6.608  0.4266 -2.9319 -1.4280
28907SOL    HW288444   9.122   4.286   6.627  0.8939  1.3787  0.8417
28908SOL     OW88445   8.948   1.902   8.430  0.2584  0.1442 -0.3853
28908SOL    HW188446   8.982   1.891   8.341  0.7155  1.4711 -0.3941
28908SOL    HW288447   9.018   1.945   8.478 -0.7997  1.5193  0.0116
28909SOL     OW88448   3.070   9.119   4.061  0.1595  0.1981  0.5860
28909SOL    HW188449   3.007   9.191   4.063  0.0303  0.1307 -0.3188
28909SOL    HW288450   3.022   9.047   4.019  0.7036  0.0218  0.2495
28910SOL     OW88451   7.865   1.086   1.571 -0.7962 -0.0350 -0.3873
28910SOL    HW188452   7.891   1.009   1.521  1.1930 -0.0092  0.5130
28910SOL    HW288453   7.865   1.057   1.662  0.6671  1.1521  0.0291
28911SOL     OW88454   0.823   6.127   5.135  0.1649 -0.4227  0.0035
28911SOL    HW188455   0.916   6.146   5.119  0.5250 -1.9276  0.1342
28911SOL    HW288456   0.796   6.193   5.199  1.9955 -1.7239  2.2910
28912SOL     OW88457   0.755   3.291   7.290 -0.0181  0.1082  0.4727
28912SOL    HW188458   0.733   3.272   7.199  0.8500  1.9433 -0.1681
28912SOL    HW288459   0.676   3.331   7.327 -1.0502 -2.3640  1.1611
28913SOL     OW88460   0.573   2.496   8.996 -0.0918 -0.0678 -0.2161
28913SOL    HW188461   0.598   2.420   9.049  0.4008  0.4204  0.2735
28913SOL    HW288462   0.602   2.474   8.908 -1.0854 -0.9713 -0.3377
28914SOL     OW88463   3.050   8.621   2.695 -0.3958 -0.5686  0.0790
28914SOL    HW188464   3.117   8.564   2.657 -0.1369 -0.8271  0.9165
28914SOL    HW288465   3.096   8.704   2.710  0.0232 -1.0561  1.5940
28915SOL     OW88466   3.515   7.552   8.744  0.2268 -0.0179  0.0784
28915SOL    HW188467   3.458   7.620   8.781  1.9158  1.8127 -0.4835
28915SOL    HW288468   3.488   7.472   8.788 -2.7203  0.7316 -0.1250
28916SOL     OW88469   4.171   9.110   2.883 -0.4831 -0.0240  0.5270
28916SOL    HW188470   4.129   9.182   2.836 -2.5173 -1.5335 -0.1157
28916SOL    HW288471   4.264   9.132   2.883 -1.0079  2.4624  0.1725
28917SOL     OW88472   2.493   7.704   8.334  0.0134 -0.2072 -0.0763
28917SOL    HW188473   2.573   7.718   8.384  0.3749 -1.4469 -0.2572
28917SOL    HW288474   2.515   7.734   8.245  1.0548 -2.5055 -0.6711
28918SOL     OW88475   5.768   5.677   2.240  0.6631 -0.0653 -0.4174
28918SOL    HW188476   5.805   5.668   2.328 -0.1659  1.3542  0.1078
28918SOL    HW288477   5.734   5.767   2.238 -3.6749 -1.5130 -0.4815
28919SOL     OW88478   0.134   7.606   6.531  0.4167  0.7524 -0.1641
28919SOL    HW188479   0.075   7.667   6.576  1.5342  0.8792  1.2048
28919SOL    HW288480   0.202   7.588   6.596  1.0585 -0.5708 -1.1820
28920SOL     OW88481   6.891   8.207   0.212  0.4403  0.5349  0.0381
28920SOL    HW188482   6.888   8.290   0.259  0.5024 -0.0675  1.1315
28920SOL    HW288483   6.871   8.141   0.278 -1.2907 -0.2042 -1.1447
28921SOL     OW88484   5.435   8.544   8.444 -0.2657 -0.2104  0.7981
28921SOL    HW188485   5.370   8.508   8.384 -0.3354 -0.1418  0.8314
28921SOL    HW288486   5.519   8.521   8.405 -0.3029  0.9026  0.0175
28922SOL     OW88487   7.181   6.483   6.776 -0.1733 -0.0465  0.1671
28922SOL    HW188488   7.171   6.405   6.829 -0.3282 -0.3038 -0.2397
28922SOL    HW288489   7.272   6.510   6.791 -0.6960  0.9242  1.9631
28923SOL     OW88490   2.391   4.969   1.072  0.1483  0.0444  0.3710
28923SOL    HW188491   2.455   4.898   1.064 -0.1592 -0.2872  0.7794
28923SOL    HW288492   2.444   5.048   1.084  0.4742 -0.3078  1.3160
28924SOL     OW88493   1.221   4.687   9.563 -0.5228  0.1541  0.2595
28924SOL    HW188494   1.216   4.768   9.513  0.6603  0.2843  0.3164
28924SOL    HW288495   1.143   4.638   9.539 -0.8725  0.9935 -0.3373
28925SOL     OW88496   4.543   1.395   5.227  0.2183 -0.0463 -0.3676
28925SOL    HW188497   4.596   1.340   5.169  2.5279 -0.7319  2.1374
28925SOL    HW288498   4.496   1.332   5.282 -1.5780  0.5824 -1.1211
28926SOL     OW88499   9.038   7.602   6.577  0.6752 -0.0253 -0.0376
28926SOL    HW188500   9.126   7.635   6.558  0.6214 -0.8232 -1.8995
28926SOL    HW288501   8.987   7.680   6.597  1.3144  0.6946 -1.0988
28927SOL     OW88502   7.174   8.161   4.966 -0.5500 -0.0649 -0.3027
28927SOL    HW188503   7.245   8.101   4.989  0.1592  1.4523  1.6915
28927SOL    HW288504   7.154   8.140   4.874  1.4111 -1.5766 -0.4471
28928SOL     OW88505   9.223   8.079   5.865  0.0103 -0.8120  0.6981
28928SOL    HW188506   9.200   8.047   5.952  1.7551  0.2699  1.6055
28928SOL    HW288507   9.226   8.174   5.875 -0.8268 -0.6010 -0.8384
28929SOL     OW88508   6.740   5.966   4.368  0.0573 -0.4592  0.1348
28929SOL    HW188509   6.683   6.042   4.365 -0.1573 -0.6095  0.3485
28929SOL    HW288510   6.793   5.979   4.446 -0.6819 -1.0228  0.7425
28930SOL     OW88511   8.963   1.625   3.054  0.4150  0.3381 -0.3860
28930SOL    HW188512   8.988   1.541   3.015 -0.7807  0.3217 -1.1507
28930SOL    HW288513   9.039   1.681   3.041  0.6331 -0.1582 -1.3078
28931SOL     OW88514   1.887   5.401   9.246  0.2028 -0.3514 -0.1380
28931SOL    HW188515   1.822   5.471   9.258  0.3715  0.0383 -1.3696
28931SOL    HW288516   1.958   5.425   9.305 -0.1178  0.0465  0.0936
28932SOL     OW88517   2.780   8.139   2.045 -0.1728 -0.3258 -0.3553
28932SOL    HW188518   2.823   8.128   2.130  1.3713 -2.2731 -1.3370
28932SOL    HW288519   2.851   8.141   1.982 -1.3390  0.5072 -1.6953
28933SOL     OW88520   2.679   3.023   4.328  0.4882  0.2307  0.0945
28933SOL    HW188521   2.600   3.042   4.277 -0.3330 -2.5594  0.1780
28933SOL    HW288522   2.660   3.059   4.415 -0.4409  0.1664 -0.0632
28934SOL     OW88523   7.532   5.413   9.130 -0.6715  0.2230 -0.2273
28934SOL    HW188524   7.592   5.443   9.062 -0.2625  0.3401  0.1750
28934SOL    HW288525   7.518   5.491   9.185 -0.7765  0.0596 -0.0217
28935SOL     OW88526   2.626   1.846   2.102  0.0132 -0.0504  0.3834
28935SOL    HW188527   2.600   1.753   2.100  1.0026 -0.3605  1.0578
28935SOL    HW288528   2.556   1.889   2.151 -0.1727 -0.5456  0.5606
28936SOL     OW88529   3.882   6.596   4.702 -0.0974 -0.8907 -0.1576
28936SOL    HW188530   3.805   6.589   4.645 -0.3287  0.2524 -0.0016
28936SOL    HW288531   3.848   6.577   4.790 -0.5783  1.2769  0.1622
28937SOL     OW88532   7.848   7.776   4.909 -0.5904 -0.4030 -1.0299
28937SOL    HW188533   7.844   7.792   4.815  1.8528 -1.9930 -1.4746
28937SOL    HW288534   7.938   7.796   4.934 -0.7739 -1.4630  0.6660
28938SOL     OW88535   3.791   6.568   2.784 -0.0706 -0.3962  0.3920
28938SOL    HW188536   3.787   6.648   2.837  0.6491  0.9837 -1.5398
28938SOL    HW288537   3.699   6.547   2.766 -0.2679 -0.0948  1.0138
28939SOL     OW88538   7.147   4.948   5.776  0.7155 -0.4601 -0.3465
28939SOL    HW188539   7.105   4.863   5.763  1.5186 -1.3157  1.9608
28939SOL    HW288540   7.241   4.930   5.763  0.8664  0.1279 -0.1057
28940SOL     OW88541   1.874   3.309   2.288  0.0243  0.4840  0.4838
28940SOL    HW188542   1.954   3.266   2.318  0.3538  1.5059  1.1553
28940SOL    HW288543   1.818   3.312   2.366 -0.3340  0.5077  0.2279
28941SOL     OW88544   4.446   4.877   3.805  0.0679  0.1974 -0.0821
28941SOL    HW188545   4.425   4.828   3.884  0.8562 -0.4045 -0.2282
28941SOL    HW288546   4.441   4.969   3.832  1.2409 -0.0075  0.9345
28942SOL     OW88547   3.228   5.780   1.374  0.5829  0.0848  0.0062
28942SOL    HW188548   3.262   5.698   1.337 -1.7415 -1.0932  0.2673
28942SOL    HW288549   3.175   5.818   1.304 -0.0307  0.2792  0.5653
28943SOL     OW88550   8.310   6.924   6.548 -0.3652 -0.3574 -0.2916
28943SOL    HW188551   8.280   7.015   6.547  0.8160  0.0506 -0.3593
28943SOL    HW288552   8.230   6.872   6.546 -1.0613  0.6609 -3.1480
28944SOL     OW88553   6.636   0.116   8.175 -0.1259  0.6614 -0.8304
28944SOL    HW188554   6.668   0.076   8.256  1.0292  0.2806 -1.4501
28944SOL    HW288555   6.566   0.058   8.145  0.1418  0.2329 -0.6359
28945SOL     OW88556   7.770   5.358   4.748  0.0689 -0.1647  0.1403
28945SOL    HW188557   7.828   5.340   4.673 -1.1281 -0.6860 -0.6923
28945SOL    HW288558   7.682   5.349   4.712 -0.5459  1.1306  1.2645
28946SOL     OW88559   1.877   3.140   6.318 -0.3324 -0.1272  0.0255
28946SOL    HW188560   1.883   3.183   6.403 -0.3454 -0.3268  0.1293
28946SOL    HW288561   1.928   3.059   6.329 -0.8364 -0.4465  0.0272
28947SOL     OW88562   6.583   2.228   3.346  0.0380  0.1479  0.5565
28947SOL    HW188563   6.580   2.295   3.278  0.9580 -0.0303  0.3293
28947SOL    HW288564   6.667   2.242   3.390 -0.1814 -0.2591  1.1184
28948SOL     OW88565   2.303   1.396   9.224  0.1992  0.0153  0.7174
28948SOL    HW188566   2.209   1.396   9.208  0.6061  1.7665 -2.3171
28948SOL    HW288567   2.317   1.469   9.284 -0.2661  0.5207  0.2201
28949SOL     OW88568   5.518   0.525   9.506  0.4379 -0.4797 -0.3448
28949SOL    HW188569   5.548   0.452   9.560 -0.8293 -0.6124  0.2189
28949SOL    HW288570   5.442   0.559   9.553  0.3789  0.5327 -1.1535
28950SOL     OW88571   8.504   5.785   8.514  0.2704 -0.3635  0.4104
28950SOL    HW188572   8.433   5.724   8.494  0.7697 -1.3104  1.4509
28950SOL    HW288573   8.516   5.778   8.609  1.2466  0.3501  0.3538
28951SOL     OW88574   7.184   3.430   1.234  0.4025  0.6214  0.6097
28951SOL    HW188575   7.133   3.509   1.251 -0.5158  0.0750  0.4397
28951SOL    HW288576   7.163   3.407   1.144  0.3187 -0.0626  0.8015
28952SOL     OW88577   6.495   3.259   6.613  0.4442  0.1805  0.2949
28952SOL    HW188578   6.556   3.207   6.560  0.2900  0.0426  0.2503
28952SOL    HW288579   6.541   3.273   6.696  0.7697  0.5692  0.0515
28953SOL     OW88580   8.999   1.613   5.343  0.1691  0.0072  0.5242
28953SOL    HW188581   8.943   1.628   5.418  0.9229 -1.7105  1.4977
28953SOL    HW288582   9.016   1.700   5.307 -3.0689  0.5906  0.1561
28954SOL     OW88583   8.494   5.015   5.619 -0.3325  0.0114  0.2546
28954SOL    HW188584   8.481   5.046   5.709 -2.1500 -1.9711  0.7670
28954SOL    HW288585   8.475   5.092   5.565  2.0481  1.6153  1.4922
28955SOL     OW88586   3.459   6.220   2.112  0.3082  0.2385 -0.5139
28955SOL    HW188587   3.495   6.269   2.038  0.0906  0.1569 -0.6757
28955SOL    HW288588   3.373   6.191   2.081 -0.1130  0.8673  0.0532
28956SOL     OW88589   4.309   2.061   3.238 -0.9345  0.1696  0.7807
28956SOL    HW188590   4.286   2.113   3.161  0.4367 -2.3131 -1.4854
28956SOL    HW288591   4.234   2.003   3.251 -1.1310  0.5308  1.3041
28957SOL     OW88592   8.466   1.760   3.804  0.2993 -0.2990  0.6924
28957SOL    HW188593   8.554   1.796   3.794  1.7204 -3.7474 -0.9128
28957SOL    HW288594   8.474   1.698   3.877 -1.1658  0.2550  1.3532
28958SOL     OW88595   2.479   4.165   5.869  0.3640 -0.0406  0.0005
28958SOL    HW188596   2.512   4.255   5.876 -0.1228  0.1260  0.2053
28958SOL    HW288597   2.482   4.146   5.775  1.7545 -0.3071  0.0793
28959SOL     OW88598   3.005   0.735   3.652 -0.3896  0.4610  0.2625
28959SOL    HW188599   2.962   0.651   3.666  4.5831 -2.8634 -1.3695
28959SOL    HW288600   3.060   0.747   3.729 -0.8088  2.1589  0.3344
28960SOL     OW88601   1.458   6.852   0.620  0.0854  0.1092 -0.2088
28960SOL    HW188602   1.464   6.813   0.533 -1.6964 -0.1423 -0.2485
28960SOL    HW288603   1.546   6.887   0.636  1.1679 -2.0164 -1.0564
28961SOL     OW88604   1.024   8.894   8.665  0.4165  0.5065 -0.3364
28961SOL    HW188605   1.071   8.824   8.619 -0.2148 -0.3144  0.2312
28961SOL    HW288606   1.086   8.923   8.733  0.0945 -0.6441  0.4775
28962SOL     OW88607   9.386   5.010   4.908 -0.2678 -0.5406 -0.3102
28962SOL    HW188608   9.293   5.022   4.930 -0.8272 -1.0318 -2.1499
28962SOL    HW288609   9.387   5.011   4.812  1.5921 -0.8753 -0.3206
28963SOL     OW88610   7.613   5.389   0.366 -0.6435 -0.0514  0.1457
28963SOL    HW188611   7.608   5.338   0.285 -0.8569 -0.1561  0.2221
28963SOL    HW288612   7.675   5.459   0.347 -1.0703  0.2238 -0.2731
28964SOL     OW88613   1.603   0.093   8.149 -0.3196 -0.5837 -0.8199
28964SOL    HW188614   1.584   0.165   8.210 -1.0743 -2.5380  1.4022
28964SOL    HW288615   1.585   0.129   8.063 -2.0917  1.4558  0.3185
28965SOL     OW88616   6.045   8.745   7.111  0.1199 -0.2117  1.2462
28965SOL    HW188617   5.965   8.795   7.095  1.3498  0.8211 -2.6494
28965SOL    HW288618   6.106   8.809   7.149  0.3913  0.2036  0.1511
28966SOL     OW88619   4.434   8.376   6.944  0.2693 -0.0706  0.6313
28966SOL    HW188620   4.348   8.334   6.956  0.3723  0.3173  3.4625
28966SOL    HW288621   4.439   8.439   7.015  2.9763 -0.1645  0.6011
28967SOL     OW88622   6.798   1.722   3.637  0.0139  0.2532  0.2860
28967SOL    HW188623   6.738   1.779   3.590 -1.8912 -1.3282  0.6665
28967SOL    HW288624   6.807   1.761   3.724 -0.0366  0.7628  0.0651
28968SOL     OW88625   5.388   3.259   8.761 -0.5880 -0.3960  0.3063
28968SOL    HW188626   5.344   3.318   8.823 -1.2730 -0.9526  0.3662
28968SOL    HW288627   5.395   3.176   8.808 -0.2218 -0.5482 -0.0127
28969SOL     OW88628   4.673   7.359   7.057 -0.1122  0.3036  0.2278
28969SOL    HW188629   4.600   7.310   7.019 -0.8805  0.1604  1.8475
28969SOL    HW288630   4.716   7.296   7.115 -0.6279  1.2904  1.7198
28970SOL     OW88631   9.329   4.820   4.141  0.2525  0.4310 -0.4180
28970SOL    HW188632   9.322   4.915   4.153  0.9538  0.4021  0.3705
28970SOL    HW288633   9.382   4.810   4.062 -0.1366  0.6913 -0.7160
28971SOL     OW88634   5.391   1.277   5.994  0.0483 -0.2492  0.2777
28971SOL    HW188635   5.348   1.330   6.061  0.3420  1.4016 -0.7823
28971SOL    HW288636   5.361   1.188   6.011 -4.3956  0.7863 -0.7520
28972SOL     OW88637   2.483   7.095   3.868  0.1352  0.0458 -0.2352
28972SOL    HW188638   2.556   7.091   3.929  0.7507 -0.8402 -0.9998
28972SOL    HW288639   2.508   7.035   3.797 -1.4203 -0.4299 -0.4108
28973SOL     OW88640   5.015   6.899   8.667  0.0865 -0.0720  0.4922
28973SOL    HW188641   4.959   6.944   8.730  0.1588  0.3093  0.2853
28973SOL    HW288642   5.069   6.968   8.629  0.4561 -0.3849  0.4390
28974SOL     OW88643   9.281   8.789   3.475 -0.4047 -0.2790 -0.0714
28974SOL    HW188644   9.328   8.858   3.522 -1.2751  0.1710  0.1601
28974SOL    HW288645   9.350   8.739   3.431  0.3037  0.2201  0.4485
28975SOL     OW88646   6.718   6.459   0.840  0.2968  0.0555  0.6166
28975SOL    HW188647   6.685   6.374   0.809 -0.7466  1.3301 -2.1357
28975SOL    HW288648   6.812   6.454   0.824  0.0380 -0.0639 -1.1188
28976SOL     OW88649   3.258   8.955   3.462  0.3401  0.2404  0.0442
28976SOL    HW188650   3.213   8.933   3.543 -0.4570  2.9281  0.4535
28976SOL    HW288651   3.344   8.914   3.469 -0.8459 -2.3374  0.7011
28977SOL     OW88652   9.684   1.176   8.728 -0.1112  0.2065 -0.3452
28977SOL    HW188653   9.599   1.148   8.694 -0.1318 -1.0576  0.7030
28977SOL    HW288654   9.746   1.157   8.657 -0.5084 -0.1359 -0.6022
28978SOL     OW88655   6.578   2.477   4.522  0.1720 -0.0727 -0.5411
28978SOL    HW188656   6.585   2.495   4.616  1.0973  0.3247 -0.6760
28978SOL    HW288657   6.484   2.485   4.503  0.1347  1.1960  0.0882
28979SOL     OW88658   1.418   2.500   1.778 -0.4953  0.0800  0.2996
28979SOL    HW188659   1.401   2.575   1.720 -0.1615  0.3003  0.4866
28979SOL    HW288660   1.490   2.453   1.736 -1.8579 -1.1602 -0.7845
28980SOL     OW88661   7.154   8.551   8.818 -0.2991 -0.3836 -0.0828
28980SOL    HW188662   7.065   8.585   8.821 -0.2336 -0.2166 -0.0176
28980SOL    HW288663   7.210   8.627   8.836 -0.1116 -0.3435 -0.7794
28981SOL     OW88664   2.056   8.728   9.597  0.0664 -0.3918 -0.9854
28981SOL    HW188665   2.026   8.810   9.558  1.0019  0.0961 -0.7042
28981SOL    HW288666   1.996   8.662   9.562  0.2926  0.1618 -2.4978
28982SOL     OW88667   3.525   1.138   0.137 -0.2660 -0.3041 -0.1158
28982SOL    HW188668   3.462   1.067   0.123 -0.7937 -0.0732  1.0137
28982SOL    HW288669   3.600   1.114   0.083 -1.7066 -0.0611 -2.3522
28983SOL     OW88670   4.291   4.903   6.910 -0.3987 -0.6248 -0.4989
28983SOL    HW188671   4.205   4.877   6.943 -0.5052  1.4726  1.0681
28983SOL    HW288672   4.344   4.824   6.918 -1.8761 -1.6468 -0.4286
28984SOL     OW88673   4.962   7.215   6.388 -0.2753  0.4613  0.2481
28984SOL    HW188674   4.950   7.205   6.294 -0.7219 -0.2825  0.3812
28984SOL    HW288675   4.972   7.310   6.400 -0.7066  0.6132 -0.4910
28985SOL     OW88676   3.694   5.726   8.832 -0.3122 -0.1598 -0.3572
28985SOL    HW188677   3.727   5.680   8.755  0.0856 -0.2609 -0.1290
28985SOL    HW288678   3.688   5.659   8.900  0.0331  0.0717 -0.0937
28986SOL     OW88679   4.827   2.108   3.135 -0.7569  0.5402  0.3766
28986SOL    HW188680   4.789   2.194   3.116  1.4600  1.7315  1.0780
28986SOL    HW288681   4.918   2.126   3.157 -0.5700 -1.8689  1.8713
28987SOL     OW88682   7.689   4.434   8.948 -0.1901  0.8954 -0.4089
28987SOL    HW188683   7.649   4.356   8.985 -0.7781  1.3959  0.0400
28987SOL    HW288684   7.626   4.504   8.966  1.2112  1.8637  0.9681
28988SOL     OW88685   8.534   9.409   5.251  0.2977 -0.1519 -0.3883
28988SOL    HW188686   8.448   9.427   5.214 -0.4194  0.6198  1.5348
28988SOL    HW288687   8.548   9.477   5.317  2.4800 -0.1296 -0.7825
28989SOL     OW88688   5.935   0.037   4.611 -0.1693 -0.4065 -0.2715
28989SOL    HW188689   5.925   0.131   4.625 -1.4936 -0.6251  0.4193
28989SOL    HW288690   5.898   0.022   4.523  1.0280 -0.1469 -0.8373
28990SOL     OW88691   8.052   2.652   1.426 -0.1421 -0.0951 -0.0653
28990SOL    HW188692   8.094   2.593   1.363 -1.3217 -0.5689 -0.4227
28990SOL    HW288693   7.977   2.603   1.459 -0.8774  1.0206 -0.0206
28991SOL     OW88694   5.150   9.061   1.333 -0.2154 -0.2002 -0.2732
28991SOL    HW188695   5.125   9.047   1.241  2.5007 -0.2287 -1.1112
28991SOL    HW288696   5.215   8.992   1.350 -0.2046  0.2098  1.4765
28992SOL     OW88697   3.469   5.251   8.911  0.6516 -0.1723  0.2253
28992SOL    HW188698   3.494   5.163   8.940 -0.0691 -0.1669  0.9053
28992SOL    HW288699   3.448   5.241   8.819  1.6589 -0.4782  0.0153
28993SOL     OW88700   1.768   1.320   7.122  0.4477  0.1000  0.0877
28993SOL    HW188701   1.844   1.293   7.173  0.0253 -1.3495  0.0068
28993SOL    HW288702   1.742   1.404   7.159 -0.4168 -1.2971  2.9591
28994SOL     OW88703   2.078   6.756   6.692 -0.4669 -0.0322  0.0295
28994SOL    HW188704   2.024   6.798   6.625 -1.1142  2.1518  1.8080
28994SOL    HW288705   2.025   6.757   6.771  0.8871 -1.0375  1.0075
28995SOL     OW88706   0.607   8.260   4.304 -0.1715  0.2552 -0.1068
28995SOL    HW188707   0.635   8.351   4.296 -1.8891  0.8969  0.6690
28995SOL    HW288708   0.631   8.235   4.393 -1.3527  0.5932  0.3308
28996SOL     OW88709   0.763   4.523   0.640  0.0384  0.1485  0.8146
28996SOL    HW188710   0.751   4.550   0.731  0.5359 -0.3984  1.0490
28996SOL    HW288711   0.857   4.532   0.624 -0.2551  1.8444 -0.1748
28997SOL     OW88712   8.431   9.262   4.434  0.2415 -0.4478 -0.3955
28997SOL    HW188713   8.511   9.210   4.432  0.2860 -0.3525 -1.5801
28997SOL    HW288714   8.458   9.348   4.402 -0.3222 -0.4155 -0.7940
28998SOL     OW88715   0.997   6.317   7.366  0.2225  0.6609  0.0675
28998SOL    HW188716   0.991   6.401   7.412 -0.8569  1.0722 -0.7691
28998SOL    HW288717   0.910   6.278   7.376  0.3314  0.2247 -0.6430
28999SOL     OW88718   1.056   1.821   1.057 -1.1229  0.5655  0.7892
28999SOL    HW188719   1.105   1.779   1.128  1.2562  1.7066 -0.0537
28999SOL    HW288720   1.047   1.912   1.085 -0.5277  0.9282 -0.1492
29000SOL     OW88721   8.168   0.640   7.738 -0.4752 -0.4117 -0.3410
29000SOL    HW188722   8.145   0.672   7.651  1.1054  0.0347 -0.6284
29000SOL    HW288723   8.183   0.546   7.726 -1.9960 -0.6908 -0.1630
29001SOL     OW88724   2.871   8.431   2.595  0.1180 -0.5658 -0.3226
29001SOL    HW188725   2.905   8.514   2.628  1.3079 -0.7746 -0.9880
29001SOL    HW288726   2.939   8.367   2.615 -0.6110 -1.3252 -0.1813
29002SOL     OW88727   8.282   6.163   7.751 -0.5978 -0.6121 -0.0585
29002SOL    HW188728   8.207   6.221   7.740 -0.6221  0.0886  2.8261
29002SOL    HW288729   8.322   6.191   7.834  2.9947 -0.8205 -1.5328
29003SOL     OW88730   1.407   2.839   7.455 -0.7423  0.6864 -0.1562
29003SOL    HW188731   1.397   2.912   7.516  0.3626  0.7725 -0.0520
29003SOL    HW288732   1.501   2.817   7.459 -0.6632  0.6012 -1.7000
29004SOL     OW88733   4.706   8.269   8.266  0.1949 -0.1152 -0.1719
29004SOL    HW188734   4.656   8.212   8.324  2.0494 -1.4502  0.1865
29004SOL    HW288735   4.797   8.248   8.284  0.8779  1.2069 -1.8333
29005SOL     OW88736   8.677   4.440   5.285  0.4371  0.1698 -0.0175
29005SOL    HW188737   8.675   4.347   5.262  0.7739  0.2657 -0.4451
29005SOL    HW288738   8.699   4.485   5.203  0.8919  0.5783  0.3233
29006SOL     OW88739   6.017   1.252   5.428 -0.1881  0.2248  0.3317
29006SOL    HW188740   6.058   1.173   5.393  0.6165  0.2890  1.0759
29006SOL    HW288741   6.025   1.243   5.523  0.0399  1.2564  0.4220
29007SOL     OW88742   7.477   7.331   8.771  0.0419 -0.0932 -1.2520
29007SOL    HW188743   7.434   7.371   8.847 -0.8682  0.2996 -1.9621
29007SOL    HW288744   7.476   7.237   8.790  0.5124  0.0536 -0.4392
29008SOL     OW88745   7.218   0.002   9.362  0.0473 -0.3231 -0.5695
29008SOL    HW188746   7.184   0.006   9.452 -1.1749 -0.4538 -1.0059
29008SOL    HW288747   7.249   0.090   9.344 -2.3658  0.5137 -0.9840
29009SOL     OW88748   3.211   4.720   6.722  0.4551  0.0027  0.1023
29009SOL    HW188749   3.229   4.794   6.664  0.8387 -0.9841 -1.0691
29009SOL    HW288750   3.144   4.669   6.676  0.0097 -0.2559  1.0173
29010SOL     OW88751   4.420   0.485   3.892 -0.3204  0.4590  0.1436
29010SOL    HW188752   4.404   0.572   3.856  3.3773  0.9903 -0.6253
29010SOL    HW288753   4.428   0.428   3.815  0.2590  0.0739  0.4818
29011SOL     OW88754   2.663   8.696   5.461 -0.0165  0.2476 -0.0380
29011SOL    HW188755   2.742   8.657   5.499  0.2948 -0.2569 -1.1683
29011SOL    HW288756   2.692   8.780   5.427  0.0757 -0.0134 -0.6071
29012SOL     OW88757   3.785   0.101   6.091 -0.0276  0.2442  0.4856
29012SOL    HW188758   3.715   0.066   6.036 -0.7847  0.9631  0.9792
29012SOL    HW288759   3.783   0.048   6.170  0.2210  0.0438  0.3611
29013SOL     OW88760   4.941   7.476   2.419 -0.5091 -0.3603  0.2155
29013SOL    HW188761   4.920   7.534   2.492 -0.2345  1.2090 -0.8925
29013SOL    HW288762   4.875   7.407   2.424 -2.0115  1.0205  0.5568
29014SOL     OW88763   1.469   6.360   8.093  0.6369 -0.6161 -0.4900
29014SOL    HW188764   1.525   6.382   8.168 -2.3759 -0.1743  1.8204
29014SOL    HW288765   1.450   6.445   8.053  0.7507 -0.6387 -0.5904
29015SOL     OW88766   4.423   2.722   6.755  0.8339 -0.2985  0.2233
29015SOL    HW188767   4.421   2.629   6.734  1.6028 -0.2757  0.0356
29015SOL    HW288768   4.516   2.744   6.761  0.6638  0.4741  0.1978
29016SOL     OW88769   7.017   0.706   2.599 -0.2575  0.8669 -0.2061
29016SOL    HW188770   6.957   0.780   2.604  0.6457  1.5364  1.5599
29016SOL    HW288771   6.990   0.658   2.521 -3.7907  0.4866  1.0865
29017SOL     OW88772   7.324   8.913   3.882 -0.0180 -0.1676 -0.2416
29017SOL    HW188773   7.313   8.922   3.788  1.8341  0.7605 -0.4276
29017SOL    HW288774   7.259   8.972   3.920 -0.2673  0.0234 -0.9562
29018SOL     OW88775   1.546   3.741   1.941  0.1135 -0.4274 -0.1790
29018SOL    HW188776   1.567   3.655   1.979 -0.4500 -0.3904  0.2365
29018SOL    HW288777   1.450   3.744   1.941  0.1077  0.7187  1.0371
29019SOL     OW88778   5.343   9.104   3.568  0.3640  0.5292 -0.3625
29019SOL    HW188779   5.402   9.121   3.495  1.1442 -1.4661 -0.2423
29019SOL    HW288780   5.399   9.067   3.636 -0.4382  1.8108  1.0658
29020SOL     OW88781   1.173   8.035   6.572  0.3944 -0.1994 -0.7854
29020SOL    HW188782   1.122   7.954   6.571  0.4068 -0.1991 -1.3708
29020SOL    HW288783   1.253   8.014   6.525  1.1365 -0.3190  0.4674
29021SOL     OW88784   1.559   0.576   0.578 -0.1244  0.4085  0.3533
29021SOL    HW188785   1.649   0.547   0.563 -0.2746  0.9880 -2.1068
29021SOL    HW288786   1.511   0.496   0.598  0.6259 -0.1361  0.0323
29022SOL     OW88787   4.662   0.416   2.730  0.2444  0.2454 -0.6639
29022SOL    HW188788   4.654   0.323   2.751  0.6044  0.6101  1.2646
29022SOL    HW288789   4.580   0.437   2.684 -0.1455 -0.8694 -0.5125
29023SOL     OW88790   1.278   0.734   5.761  0.4223  0.2007  0.4181
29023SOL    HW188791   1.202   0.680   5.785  0.6201 -0.0241  0.5405
29023SOL    HW288792   1.346   0.671   5.740  0.5700  0.4038  0.2852
29024SOL     OW88793   7.788   7.019   7.806 -0.2009  0.2274  0.3611
29024SOL    HW188794   7.843   6.966   7.863  0.6867 -0.5689 -1.1811
29024SOL    HW288795   7.815   7.109   7.824  2.5660 -0.1852 -1.2085
29025SOL     OW88796   6.956   3.985   1.390 -0.3604  0.6757 -0.1344
29025SOL    HW188797   6.908   4.067   1.377 -0.8607  0.4714  0.3640
29025SOL    HW288798   6.928   3.929   1.317 -0.5250  0.7206 -0.1056
29026SOL     OW88799   1.814   1.082   8.426  0.1560  0.1872  0.8414
29026SOL    HW188800   1.739   1.118   8.473  0.5566 -0.8738  2.3634
29026SOL    HW288801   1.874   1.053   8.495  0.5533 -1.8947 -0.2916
29027SOL     OW88802   8.611   9.102   6.440  0.0761  0.2773 -0.0231
29027SOL    HW188803   8.673   9.131   6.507 -0.3894 -0.1314  0.5952
29027SOL    HW288804   8.602   9.178   6.382 -0.4570  1.0916  1.0865
29028SOL     OW88805   7.258   5.704   0.698  0.4022 -0.2136  0.3549
29028SOL    HW188806   7.261   5.723   0.792  0.4833  1.0500  0.1062
29028SOL    HW288807   7.263   5.789   0.656 -0.1059 -0.7335 -0.7999
29029SOL     OW88808   3.492   4.673   0.907 -0.8467  0.1643  0.8686
29029SOL    HW188809   3.497   4.636   0.819  2.2310  2.8518 -0.2729
29029SOL    HW288810   3.525   4.603   0.964  2.1925  0.0096 -0.8583
29030SOL     OW88811   4.059   6.937   7.980  0.3346  0.0570  0.3910
29030SOL    HW188812   4.003   6.864   8.010  1.0247 -0.9689 -0.7299
29030SOL    HW288813   4.007   7.015   7.999 -0.5118 -0.7160  1.4764
29031SOL     OW88814   0.338   9.515   8.327  0.7335  0.1290  0.0274
29031SOL    HW188815   0.375   9.450   8.267  1.6549 -1.0241  1.7695
29031SOL    HW288816   0.411   9.576   8.343  1.4991 -1.2366  2.2024
29032SOL     OW88817   8.490   8.241   3.689  0.5007  0.1760 -0.1235
29032SOL    HW188818   8.495   8.306   3.619 -1.2796 -0.7902 -1.2444
29032SOL    HW288819   8.538   8.280   3.762  0.6083  2.1512 -1.1799
29033SOL     OW88820   4.965   2.086   0.847 -0.1273  0.2846 -0.1255
29033SOL    HW188821   4.930   2.060   0.762 -0.5497  1.1580 -0.2322
29033SOL    HW288822   5.033   2.022   0.866 -1.1638 -0.8962 -0.3360
29034SOL     OW88823   5.804   3.704   1.035 -0.5860  0.1712 -0.2420
29034SOL    HW188824   5.851   3.634   1.080  0.3176  0.3604 -0.8623
29034SOL    HW288825   5.872   3.753   0.990 -1.1792  1.5745  0.3335
29035SOL     OW88826   5.450   4.024   6.877 -0.0585 -0.1248  0.2130
29035SOL    HW188827   5.413   4.090   6.936 -0.6597 -0.2658 -0.0026
29035SOL    HW288828   5.390   3.950   6.883 -0.5615  0.1477 -1.1721
29036SOL     OW88829   8.128   0.207   8.072 -0.1282 -0.3243  0.6357
29036SOL    HW188830   8.070   0.262   8.125 -1.3077 -1.1929  0.2751
29036SOL    HW288831   8.144   0.130   8.127 -0.6597 -0.8386  0.0723
29037SOL     OW88832   8.462   8.142   1.956 -0.0641 -0.5740  0.6983
29037SOL    HW188833   8.447   8.066   1.900  0.2415  0.7233 -1.2355
29037SOL    HW288834   8.375   8.169   1.985 -0.4196 -0.1793 -0.6813
29038SOL     OW88835   6.657   5.495   6.242  0.0018  0.1321  0.0840
29038SOL    HW188836   6.612   5.526   6.320 -0.8593 -0.8504 -0.0078
29038SOL    HW288837   6.715   5.426   6.274  1.8030  1.6211  0.2645
29039SOL     OW88838   5.612   7.526   4.066  0.7889  0.0290  0.2968
29039SOL    HW188839   5.583   7.616   4.053 -2.1155 -1.0417 -1.3288
29039SOL    HW288840   5.672   7.509   3.993 -0.6295 -0.0910 -0.8687
29040SOL     OW88841   6.746   6.231   1.197  0.2551  0.1348  0.9095
29040SOL    HW188842   6.679   6.249   1.264  1.2387 -0.8042  2.1808
29040SOL    HW288843   6.790   6.316   1.184 -0.6998  0.5941  0.5684
29041SOL     OW88844   4.478   7.761   2.762  0.0276 -0.5083 -0.2591
29041SOL    HW188845   4.561   7.804   2.783  0.8999 -2.9530  1.7935
29041SOL    HW288846   4.496   7.714   2.680  0.4238 -0.4008 -0.2382
29042SOL     OW88847   3.269   0.150   1.728 -0.4020 -0.2583  0.4929
29042SOL    HW188848   3.289   0.165   1.821  0.5289 -2.3516  0.6848
29042SOL    HW288849   3.218   0.069   1.727 -0.6282 -0.1148 -0.8135
29043SOL     OW88850   1.437   0.511   5.791  0.1060  0.4602  0.2597
29043SOL    HW188851   1.497   0.458   5.739 -0.1784  0.2569  0.1453
29043SOL    HW288852   1.416   0.457   5.867 -0.1001  0.4547  0.1967
29044SOL     OW88853   1.736   4.758   0.772 -0.1021  0.0135  0.2812
29044SOL    HW188854   1.823   4.774   0.736  0.1119 -0.6045  0.5053
29044SOL    HW288855   1.676   4.798   0.709  0.2966 -0.4669 -0.4200
29045SOL     OW88856   5.090   0.315   3.609 -0.0681  0.7194  0.1480
29045SOL    HW188857   5.173   0.335   3.653 -0.1599  2.2675 -0.3234
29045SOL    HW288858   5.025   0.317   3.679  0.1352  0.6830  0.3395
29046SOL     OW88859   1.813   3.082   5.730  1.3432  0.2546  0.2532
29046SOL    HW188860   1.803   3.172   5.760  1.2965  0.4826 -0.4268
29046SOL    HW288861   1.893   3.083   5.677  0.3330  0.3553 -1.3622
29047SOL     OW88862   1.967   3.165   0.167  0.0448 -0.3253 -0.1427
29047SOL    HW188863   2.033   3.098   0.188  0.2848  0.2226  0.9270
29047SOL    HW288864   1.961   3.163   0.071  1.6973 -0.3175 -0.2743
29048SOL     OW88865   8.092   7.781   1.554 -0.2502  0.0509  0.0485
29048SOL    HW188866   8.183   7.807   1.538 -0.4618 -0.3996 -2.2994
29048SOL    HW288867   8.099   7.702   1.608  0.6901  0.5685  0.7151
29049SOL     OW88868   2.726   5.108   6.666  0.1967  0.1979 -0.3381
29049SOL    HW188869   2.683   5.194   6.665  1.1896  0.7087  0.0438
29049SOL    HW288870   2.729   5.083   6.574 -1.3312 -0.0741 -0.3477
29050SOL     OW88871   2.764   1.575   3.937  0.1452  0.7181 -0.4016
29050SOL    HW188872   2.853   1.556   3.906  1.2651  2.0126  1.7381
29050SOL    HW288873   2.765   1.669   3.954 -0.6896  0.3299  2.2602
29051SOL     OW88874   8.227   4.430   7.078 -0.0348  0.1735 -0.1312
29051SOL    HW188875   8.236   4.517   7.117 -0.4001 -0.1046  0.5960
29051SOL    HW288876   8.305   4.420   7.023  0.5298  0.5622  0.5803
29052SOL     OW88877   3.912   0.031   7.271 -0.0480  0.4744  0.0021
29052SOL    HW188878   3.831   0.077   7.294  0.2156 -0.0619  2.2433
29052SOL    HW288879   3.980   0.075   7.323  1.0887  0.7791 -1.6743
29053SOL     OW88880   2.775   5.433   3.018 -0.5101  0.3564 -0.1924
29053SOL    HW188881   2.795   5.420   3.111  1.1063  1.7048 -0.2951
29053SOL    HW288882   2.835   5.374   2.973  1.0246  1.9883 -0.4134
29054SOL     OW88883   5.858   7.460   6.039  0.4843 -0.4530 -0.1935
29054SOL    HW188884   5.775   7.430   6.000  0.3141  1.2874 -1.2937
29054SOL    HW288885   5.904   7.502   5.966  0.6919  1.8910  1.2185
29055SOL     OW88886   8.248   4.849   0.822  0.2310  0.3068  0.4286
29055SOL    HW188887   8.340   4.833   0.800 -0.0188  0.4555 -0.8030
29055SOL    HW288888   8.234   4.941   0.798 -0.3023  0.2250  0.4245
29056SOL     OW88889   3.832   2.949   0.981  0.3234  0.2090  0.1419
29056SOL    HW188890   3.776   2.998   0.920 -0.2117  1.2864  1.4545
29056SOL    HW288891   3.772   2.895   1.032  0.2888  2.0508  2.1891
29057SOL     OW88892   4.704   9.624   4.726  0.1234 -0.4346  0.3386
29057SOL    HW188893   4.690   9.531   4.711  0.8539 -0.4895 -0.0221
29057SOL    HW288894   4.616   9.661   4.726 -0.0674 -0.6838 -2.4300
29058SOL     OW88895   3.970   4.692   6.705  0.4759  0.0328  0.5986
29058SOL    HW188896   4.019   4.749   6.646  0.0509 -0.6613 -0.4550
29058SOL    HW288897   3.878   4.714   6.688  0.3585  0.9854  2.2118
29059SOL     OW88898   3.111   9.219   3.255  0.5556 -0.3857 -0.2127
29059SOL    HW188899   3.167   9.251   3.326 -1.2770  1.8196  0.3631
29059SOL    HW288900   3.149   9.257   3.176  0.6640 -0.0269  0.0078
29060SOL     OW88901   3.541   7.355   1.049 -0.2541  0.2873  0.5823
29060SOL    HW188902   3.535   7.427   1.113 -0.7214 -0.8192  1.8426
29060SOL    HW288903   3.453   7.318   1.047 -0.0514 -0.1732 -0.1526
29061SOL     OW88904   2.158   3.522   9.131  0.4118 -0.2277 -0.7689
29061SOL    HW188905   2.217   3.534   9.205 -0.9043  0.1063  0.2683
29061SOL    HW288906   2.087   3.584   9.147  0.1752 -0.0262 -2.4143
29062SOL     OW88907   6.787   8.274   8.802  0.4430 -0.2946  0.4116
29062SOL    HW188908   6.882   8.285   8.793  0.2997 -0.4572 -2.0800
29062SOL    HW288909   6.753   8.363   8.812  0.6778  0.0959 -1.7331
29063SOL     OW88910   5.876   4.611   8.693  0.5582 -0.5186  0.1434
29063SOL    HW188911   5.815   4.680   8.668 -0.1119 -1.9589 -2.6249
29063SOL    HW288912   5.963   4.650   8.682  0.1808  0.3375  0.1743
29064SOL     OW88913   0.934   6.194   1.780  0.1346 -0.0086 -0.3804
29064SOL    HW188914   0.888   6.275   1.800 -0.9684 -0.7188  0.0907
29064SOL    HW288915   1.007   6.220   1.723  0.3581  1.4160  0.5147
29065SOL     OW88916   0.580   7.558   4.599  0.4560 -0.2852 -0.3444
29065SOL    HW188917   0.534   7.487   4.554 -0.1012  0.3693 -0.8425
29065SOL    HW288918   0.595   7.525   4.688 -0.0618 -0.9058 -0.4813
29066SOL     OW88919   0.797   1.390   3.867  0.0829  0.0833  0.9053
29066SOL    HW188920   0.762   1.320   3.921 -1.3230 -1.0095 -1.2569
29066SOL    HW288921   0.737   1.464   3.880 -0.5168 -0.3264  0.5410
29067SOL     OW88922   7.726   8.502   5.324  0.2615  0.2320  0.1422
29067SOL    HW188923   7.652   8.500   5.264 -0.0163 -1.1953  0.4796
29067SOL    HW288924   7.792   8.556   5.280  0.1357 -0.9077 -1.5370
29068SOL     OW88925   3.548   0.864   7.279 -0.2957 -0.0317  0.6129
29068SOL    HW188926   3.581   0.844   7.367 -0.3692  1.4973  1.0121
29068SOL    HW288927   3.470   0.809   7.270  1.1560 -2.2058  0.4327
29069SOL     OW88928   2.870   9.307   8.979 -0.7012  1.0671 -0.2126
29069SOL    HW188929   2.821   9.309   8.897 -0.2614  1.0375 -0.4825
29069SOL    HW288930   2.941   9.244   8.963 -1.6790 -0.3683  0.8188
29070SOL     OW88931   2.791   1.508   0.596 -0.5709  0.1796 -0.0381
29070SOL    HW188932   2.857   1.490   0.663 -2.3689 -3.2754  1.0027
29070SOL    HW288933   2.787   1.428   0.544 -4.2391  0.0195  0.2619
29071SOL     OW88934   0.331   6.445   1.690  0.6021 -0.5174 -0.6734
29071SOL    HW188935   0.374   6.502   1.626 -0.5192  1.0564 -0.0930
29071SOL    HW288936   0.334   6.358   1.651  2.7035 -0.1648 -1.4396
29072SOL     OW88937   3.577   8.914   4.494 -0.1678  0.4211  0.0337
29072SOL    HW188938   3.584   8.848   4.425 -0.0509  1.4542 -0.9726
29072SOL    HW288939   3.648   8.975   4.475 -0.8955  1.3762  0.3413
29073SOL     OW88940   3.316   2.476   6.765 -0.3976 -0.3652  0.9249
29073SOL    HW188941   3.346   2.433   6.685 -0.7843  0.1124  0.5118
29073SOL    HW288942   3.268   2.408   6.812  3.1810 -1.8826  2.7562
29074SOL     OW88943   9.657   2.310   9.409  0.0462 -0.4442  0.5459
29074SOL    HW188944   9.624   2.224   9.436 -1.0865 -0.4301 -0.6618
29074SOL    HW288945   9.606   2.331   9.330  3.9202 -1.0709 -2.4548
29075SOL     OW88946   0.542   4.802   0.835 -0.1823 -0.1087 -0.0514
29075SOL    HW188947   0.579   4.865   0.772  1.9436 -0.4297  0.7825
29075SOL    HW288948   0.457   4.839   0.858 -0.3112  0.8600 -1.8680
29076SOL     OW88949   8.316   6.197   1.969  0.3023 -0.3906 -0.3721
29076SOL    HW188950   8.383   6.240   1.915 -0.0754 -1.4984 -1.8040
29076SOL    HW288951   8.365   6.136   2.023  0.6982  0.7938  0.6411
29077SOL     OW88952   8.967   7.392   6.919 -0.0697  0.1177  0.4309
29077SOL    HW188953   8.915   7.376   6.840  1.0387 -1.2694 -0.0837
29077SOL    HW288954   8.946   7.481   6.945 -1.6680  0.0459 -0.5179
29078SOL     OW88955   4.526   5.997   6.115 -0.2389 -0.4940  0.0310
29078SOL    HW188956   4.578   5.917   6.127  3.8730  2.2111  4.2171
29078SOL    HW288957   4.495   6.018   6.203 -3.0235  1.5228 -1.2836
29079SOL     OW88958   8.865   9.581   5.994 -0.2507 -0.3893 -0.0822
29079SOL    HW188959   8.818   9.633   6.059 -0.7338  0.6625 -1.2209
29079SOL    HW288960   8.919   9.521   6.045 -0.0283  0.9149  1.2967
29080SOL     OW88961   6.051   4.941   7.317  0.1967  0.1340  0.2511
29080SOL    HW188962   5.998   4.881   7.265  1.0654 -1.8725  1.5580
29080SOL    HW288963   5.999   4.959   7.395 -0.6434  2.2700 -0.7282
29081SOL     OW88964   1.606   7.898   1.700  0.7307 -0.1053 -0.0260
29081SOL    HW188965   1.554   7.933   1.628  1.7750  1.0776 -0.2431
29081SOL    HW288966   1.544   7.885   1.771 -0.1541 -0.4186 -0.8440
29082SOL     OW88967   6.487   6.593   0.196 -0.1531 -0.3322 -0.1259
29082SOL    HW188968   6.552   6.538   0.153  0.1134 -0.0718 -0.0565
29082SOL    HW288969   6.478   6.555   0.283  1.2422  0.6895  0.5087
29083SOL     OW88970   6.557   5.120   1.719 -0.2504 -0.5184  0.0213
29083SOL    HW188971   6.599   5.158   1.796 -1.5462  2.9565 -0.7602
29083SOL    HW288972   6.479   5.078   1.752  0.6222 -1.5430  0.8384
29084SOL     OW88973   9.646   9.216   6.679  0.4349  0.0282 -0.3817
29084SOL    HW188974   9.567   9.229   6.731 -1.3743  0.8149 -3.0866
29084SOL    HW288975   9.719   9.228   6.740 -1.5022 -0.0871  2.0779
29085SOL     OW88976   8.351   9.105   5.022  0.5832  0.4704 -0.3280
29085SOL    HW188977   8.390   9.192   5.026 -0.5052  0.9456  0.5944
29085SOL    HW288978   8.344   9.085   4.929  0.5204  1.5319 -0.5551
29086SOL     OW88979   8.821   3.826   2.171  0.2409  0.0964 -0.1668
29086SOL    HW188980   8.769   3.841   2.250 -0.8800  0.4460 -0.9314
29086SOL    HW288981   8.774   3.757   2.124  0.5989  0.2492 -0.7638
29087SOL     OW88982   0.582   6.303   3.173  0.3664 -0.2004 -0.1368
29087SOL    HW188983   0.640   6.367   3.213 -0.4506 -0.7654  2.0733
29087SOL    HW288984   0.602   6.221   3.217 -1.5556 -0.5600  0.1604
29088SOL     OW88985   2.211   7.589   6.828 -0.5307 -0.3684  0.7895
29088SOL    HW188986   2.238   7.498   6.811 -0.7322 -0.1509 -0.9094
29088SOL    HW288987   2.116   7.589   6.813 -0.6247  0.0011  1.3671
29089SOL     OW88988   8.117   1.652   8.791 -0.2217  0.0699  0.1940
29089SOL    HW188989   8.185   1.690   8.735 -1.1177 -0.5577 -1.3770
29089SOL    HW288990   8.073   1.727   8.830 -0.5530  0.5965 -1.1405
29090SOL     OW88991   5.662   2.178   9.144  0.0214  0.3540 -0.2643
29090SOL    HW188992   5.652   2.165   9.050 -2.0696  1.2787 -0.2163
29090SOL    HW288993   5.633   2.095   9.183 -1.2815  0.7292 -0.3875
29091SOL     OW88994   8.408   6.276   1.391 -0.3147  0.3845 -0.7055
29091SOL    HW188995   8.502   6.268   1.408 -0.2699 -0.6086 -1.3561
29091SOL    HW288996   8.381   6.350   1.445  0.3199 -0.9346  1.5457
29092SOL     OW88997   7.870   0.589   3.124 -0.7168 -0.5236 -0.1708
29092SOL    HW188998   7.844   0.600   3.032  0.0229 -1.4535 -0.5005
29092SOL    HW288999   7.965   0.594   3.123 -0.7499  0.8008  0.7489
29093SOL     OW89000   9.631   9.645   0.462 -0.8713  0.0994  0.4391
29093SOL    HW189001   9.554   9.699   0.477  0.3477  2.0346  0.0224
29093SOL    HW289002   9.699   9.706   0.434  0.3715 -1.7455 -0.8620
29094SOL     OW89003   1.715   3.773   6.681 -0.2078  0.2981 -0.1211
29094SOL    HW189004   1.804   3.749   6.708  0.5303  2.8706  0.0893
29094SOL    HW289005   1.663   3.765   6.760 -0.3758 -1.9011 -0.4009
29095SOL     OW89006   9.008   0.024   7.533  0.2040 -0.2287  0.2004
29095SOL    HW189007   9.010  -0.055   7.480  0.2176 -0.1594  0.0983
29095SOL    HW289008   9.100   0.052   7.538  0.1115  0.1947 -0.3805
29096SOL     OW89009   7.017   7.219   4.712  0.2099  0.1772 -0.5684
29096SOL    HW189010   6.959   7.149   4.682  1.4897 -0.9322 -0.5495
29096SOL    HW289011   7.046   7.191   4.799  0.0246  1.1854 -0.1704
29097SOL     OW89012   5.312   9.663   8.471 -0.8210  0.2742 -0.0304
29097SOL    HW189013   5.396   9.622   8.494 -0.1664  0.6848 -1.5894
29097SOL    HW289014   5.260   9.591   8.436 -1.2019 -0.0110  1.0750
29098SOL     OW89015   3.653   3.477   0.252 -0.3999  0.3124 -0.3017
29098SOL    HW189016   3.667   3.398   0.200  0.6974 -0.2747  0.8252
29098SOL    HW289017   3.701   3.546   0.205  1.7861 -0.5037  0.5724
29099SOL     OW89018   1.653   0.948   5.481  0.0536  0.0562 -0.3053
29099SOL    HW189019   1.733   0.957   5.533 -1.9439 -0.6424  3.1786
29099SOL    HW289020   1.628   1.038   5.460  0.4464  0.4356  0.7779
29100SOL     OW89021   9.609   8.434   8.863 -0.2343 -0.1052  0.3086
29100SOL    HW189022   9.672   8.405   8.929 -0.3545 -2.3129 -0.4491
29100SOL    HW289023   9.564   8.508   8.903  1.2930  0.1062  1.7464
29101SOL     OW89024   8.630   8.408   3.054 -0.5823  0.4401 -0.2462
29101SOL    HW189025   8.651   8.484   3.109 -2.2971  1.3767 -0.7984
29101SOL    HW289026   8.535   8.411   3.046 -0.6352 -1.4718 -0.7592
29102SOL     OW89027   3.509   9.643   1.282  0.1113  0.0138  0.0488
29102SOL    HW189028   3.488   9.713   1.344  0.3740 -0.6860  0.9523
29102SOL    HW289029   3.503   9.684   1.196 -1.6838  0.6429  0.4483
29103SOL     OW89030   1.450   7.189   1.875 -0.0000 -0.0184  0.1874
29103SOL    HW189031   1.376   7.151   1.922  0.8017 -1.6190  0.2355
29103SOL    HW289032   1.497   7.240   1.940  0.8352 -1.8298  1.0761
29104SOL     OW89033   4.823   2.868   7.751 -0.2757 -0.4723 -0.1470
29104SOL    HW189034   4.839   2.830   7.664  2.0146  0.0622 -0.0434
29104SOL    HW289035   4.730   2.856   7.766 -0.8098 -0.3491 -2.8111
29105SOL     OW89036   2.826   7.458   5.836  0.5755 -0.1425 -0.2007
29105SOL    HW189037   2.774   7.426   5.910  0.4458 -1.5355 -0.8517
29105SOL    HW289038   2.816   7.390   5.769  1.7172  0.4719 -1.0307
29106SOL     OW89039   3.126   8.240   5.185  0.5771  0.5539 -0.1884
29106SOL    HW189040   3.034   8.217   5.177  0.4683  0.9892 -0.1912
29106SOL    HW289041   3.135   8.273   5.275  0.7663  0.3563 -0.1323
29107SOL     OW89042   2.358   8.995   2.161  0.1115  0.1488 -0.3094
29107SOL    HW189043   2.423   8.925   2.166 -0.0759  0.0043  0.0962
29107SOL    HW289044   2.375   9.037   2.076  0.4696 -0.1442 -0.3846
29108SOL     OW89045   9.249   0.314   8.959 -0.8278 -0.2399  0.6465
29108SOL    HW189046   9.177   0.257   8.984 -0.8408 -0.3924  0.2578
29108SOL    HW289047   9.208   0.388   8.915 -0.6387 -1.1491 -1.1272
29109SOL     OW89048   4.273   0.021   8.572 -0.6411 -0.0617 -0.1019
29109SOL    HW189049   4.222   0.068   8.506 -1.3730 -1.4123 -0.5282
29109SOL    HW289050   4.358   0.065   8.572 -1.0892  0.8422 -0.9425
29110SOL     OW89051   2.090   0.160   3.194  0.4193 -0.0249 -0.4128
29110SOL    HW189052   2.178   0.158   3.157  0.3341  0.0844 -0.6255
29110SOL    HW289053   2.044   0.226   3.141  0.9482  1.8612  1.3232
29111SOL     OW89054   9.677   0.218   3.026 -0.0288 -0.0398  0.0504
29111SOL    HW189055   9.645   0.174   3.105 -1.3720 -2.1236 -1.5388
29111SOL    HW289056   9.771   0.201   3.026 -0.3143 -1.8055  0.2117
29112SOL     OW89057   3.638   5.447   3.517  0.3577  0.1009  0.1731
29112SOL    HW189058   3.665   5.356   3.530  0.0648 -0.0354 -0.1576
29112SOL    HW289059   3.543   5.444   3.512  0.3871  0.2730 -0.8932
29113SOL     OW89060   8.790   5.222   2.358 -0.3341  0.1161  0.0879
29113SOL    HW189061   8.743   5.235   2.275 -2.6930 -0.8943  1.1723
29113SOL    HW289062   8.778   5.304   2.405  0.9318  0.6580 -0.4942
29114SOL     OW89063   5.513   2.348   9.305  0.5215 -0.2938  1.1220
29114SOL    HW189064   5.549   2.296   9.377  1.6306 -0.2188  0.6355
29114SOL    HW289065   5.570   2.329   9.230 -0.9022 -0.7719  0.0989
29115SOL     OW89066   2.700   5.461   1.274 -0.3485 -0.1516 -0.2649
29115SOL    HW189067   2.654   5.470   1.191 -1.0503 -1.6183 -0.0766
29115SOL    HW289068   2.643   5.502   1.338 -0.9541 -1.1122 -0.1754
29116SOL     OW89069   7.646   5.435   3.099 -0.2535 -0.6475  0.1209
29116SOL    HW189070   7.590   5.360   3.077 -0.1095 -0.6972 -0.0870
29116SOL    HW289071   7.727   5.395   3.130 -1.5816 -0.6741  4.1105
29117SOL     OW89072   4.362   1.298   7.099  0.1255 -0.1641 -0.4439
29117SOL    HW189073   4.413   1.295   7.180  1.9382 -1.1541 -1.5514
29117SOL    HW289074   4.337   1.390   7.090  0.7645  0.1482  0.7256
29118SOL     OW89075   6.932   8.574   7.176  0.0255 -0.6572  0.1821
29118SOL    HW189076   6.872   8.608   7.243 -0.2329 -1.5481  0.4146
29118SOL    HW289077   7.017   8.574   7.218  0.2553  0.8922 -0.2458
29119SOL     OW89078   5.563   5.026   5.706  0.1332  0.1517 -0.1997
29119SOL    HW189079   5.652   5.049   5.733 -0.7397  2.5594  0.9117
29119SOL    HW289080   5.562   4.930   5.708  2.7498  0.0380 -0.5214
29120SOL     OW89081   6.609   5.140   8.233 -0.0266  0.2882 -0.0863
29120SOL    HW189082   6.651   5.226   8.234  0.1762  0.1853  0.3520
29120SOL    HW289083   6.530   5.153   8.180  0.8425  0.3362 -1.4117
29121SOL     OW89084   4.528   4.526   4.292 -0.0808  0.1233  0.3800
29121SOL    HW189085   4.552   4.495   4.204 -0.0153  0.1783  0.3782
29121SOL    HW289086   4.538   4.449   4.348  0.6097  0.2714  0.4732
29122SOL     OW89087   8.968   5.394   6.598  0.2629 -0.0575  0.3108
29122SOL    HW189088   8.977   5.299   6.599  1.3034  0.0091 -0.5942
29122SOL    HW289089   9.038   5.426   6.655  0.6312  0.1837 -0.2560
29123SOL     OW89090   7.447   9.266   3.649  0.0823  0.2393 -0.2639
29123SOL    HW189091   7.436   9.264   3.554 -1.8814  0.4063 -0.0951
29123SOL    HW289092   7.466   9.357   3.670  1.3161  0.0601 -0.5418
29124SOL     OW89093   5.987   5.440   5.384 -0.3499  0.3748 -0.2621
29124SOL    HW189094   5.945   5.511   5.432 -1.9949  0.0842 -1.1956
29124SOL    HW289095   6.066   5.479   5.346 -0.7267  1.4380  0.0187
29125SOL     OW89096   5.474   4.123   5.627 -0.4912 -0.2032 -0.0872
29125SOL    HW189097   5.489   4.034   5.595  0.8885  0.5511 -1.6884
29125SOL    HW289098   5.548   4.140   5.686  0.1895  0.4606 -1.1160
29126SOL     OW89099   1.133   6.432   5.756 -0.3515  0.2838  0.1158
29126SOL    HW189100   1.177   6.396   5.678 -0.7268  1.5959 -0.7343
29126SOL    HW289101   1.116   6.356   5.811 -1.3573 -0.9080 -1.7259
29127SOL     OW89102   6.012   1.717   4.222 -0.0481  0.3778 -0.0571
29127SOL    HW189103   6.063   1.787   4.183  0.0911  0.7683  0.7916
29127SOL    HW289104   5.963   1.760   4.292 -1.1377 -0.0863 -0.5109
29128SOL     OW89105   3.402   1.368   5.811  0.2147 -0.4673  0.4855
29128SOL    HW189106   3.322   1.350   5.762  0.3704 -1.0297  0.4355
29128SOL    HW289107   3.466   1.391   5.744 -0.1580  0.9688  0.5950
29129SOL     OW89108   3.155   0.292   7.273 -0.8124  0.3270 -0.6733
29129SOL    HW189109   3.250   0.306   7.272 -0.6965 -0.3958 -2.1936
29129SOL    HW289110   3.125   0.328   7.189 -1.3031 -2.8797 -2.0004
29130SOL     OW89111   6.932   6.541   8.540  0.0161  0.0887  0.3713
29130SOL    HW189112   6.879   6.550   8.620 -0.9942 -1.1967 -0.1278
29130SOL    HW289113   6.870   6.553   8.468  0.5049 -0.8584 -0.2257
29131SOL     OW89114   6.066   9.124   1.614  0.6456  0.1336  0.3542
29131SOL    HW189115   6.139   9.078   1.573  1.2443  0.2556  1.2547
29131SOL    HW289116   6.097   9.214   1.624 -0.3455  0.6600 -0.9746
29132SOL     OW89117   6.937   0.524   7.768  0.0075 -0.5788  0.1970
29132SOL    HW189118   7.001   0.487   7.830 -2.0438 -3.0595  0.9856
29132SOL    HW289119   6.894   0.595   7.817 -1.1298 -2.0805  1.4565
29133SOL     OW89120   6.461   8.089   8.908  0.1072 -0.6906  0.1243
29133SOL    HW189121   6.463   8.172   8.859  0.7164 -0.7420  0.0528
29133SOL    HW289122   6.443   8.023   8.841  0.1608 -0.6788  0.0985
29134SOL     OW89123   5.988   5.604   7.792  0.1565  0.0764  0.3899
29134SOL    HW189124   5.920   5.583   7.727  1.2739  0.7482 -1.0592
29134SOL    HW289125   6.030   5.520   7.809  1.0582  0.1574 -1.2203
29135SOL     OW89126   1.019   5.975   1.514 -0.2302 -0.4310 -0.2055
29135SOL    HW189127   1.108   5.989   1.483 -0.0962 -1.4809 -0.3306
29135SOL    HW289128   1.027   5.906   1.580 -1.0351 -1.0712 -0.7495
29136SOL     OW89129   9.246   7.506   4.901 -0.1902 -0.2096  0.0498
29136SOL    HW189130   9.314   7.564   4.935  0.7475 -1.3912  0.2370
29136SOL    HW289131   9.261   7.422   4.945 -0.8761 -0.8966 -0.9841
29137SOL     OW89132   7.916   8.697   6.309  0.5009  0.3373 -0.6568
29137SOL    HW189133   7.827   8.683   6.340  0.0099  1.3329 -1.5580
29137SOL    HW289134   7.949   8.770   6.363  0.8997 -0.2487 -0.0951
29138SOL     OW89135   9.424   8.339   1.752  0.3168  0.8591 -0.1791
29138SOL    HW189136   9.347   8.351   1.697 -0.0676 -2.2305 -0.4515
29138SOL    HW289137   9.397   8.371   1.838 -0.5247  1.7062 -0.7344
29139SOL     OW89138   8.998   8.901   4.421 -0.6528  0.0024  0.0550
29139SOL    HW189139   8.998   8.951   4.503 -0.0690  1.5908 -0.8661
29139SOL    HW289140   8.926   8.938   4.371 -1.0442 -1.0038 -0.1460
29140SOL     OW89141   0.563   8.480   4.954 -0.2384  0.4555  0.5972
29140SOL    HW189142   0.476   8.451   4.980 -0.7645 -1.4423 -2.6941
29140SOL    HW289143   0.548   8.557   4.899  0.1449  0.1550  0.0588
29141SOL     OW89144   8.183   5.442   6.441  0.1689  0.5879  0.6925
29141SOL    HW189145   8.102   5.492   6.437  0.3083  0.7946  0.3967
29141SOL    HW289146   8.218   5.446   6.352 -1.5172 -2.8932 -0.3367
29142SOL     OW89147   0.519   4.023   3.782  0.0346  0.3973  0.0688
29142SOL    HW189148   0.479   4.094   3.732  0.1585 -0.4635 -1.3091
29142SOL    HW289149   0.444   3.972   3.814 -0.0464  0.9834  0.8585
29143SOL     OW89150   3.919   7.271   2.822  0.3320 -0.0874  0.2701
29143SOL    HW189151   3.933   7.235   2.734 -0.8026 -1.9853  0.8192
29143SOL    HW289152   3.988   7.231   2.875 -1.3723 -2.1420  1.0394
29144SOL     OW89153   9.443   8.100   5.606  0.1198 -0.6352 -0.3719
29144SOL    HW189154   9.482   8.038   5.544  1.6469  0.3577 -0.4393
29144SOL    HW289155   9.372   8.050   5.647 -0.2193 -1.6726 -2.0967
29145SOL     OW89156   8.958   8.248   4.608  0.7732 -0.0910  0.3144
29145SOL    HW189157   8.908   8.198   4.673  0.7486  0.1981  0.5235
29145SOL    HW289158   8.954   8.338   4.640  1.8129 -0.1272  0.5751
29146SOL     OW89159   7.700   1.428   7.834 -0.4628 -0.2511 -0.4684
29146SOL    HW189160   7.724   1.520   7.830 -0.5835 -0.2127 -0.3013
29146SOL    HW289161   7.614   1.423   7.793 -0.5253 -0.2662 -0.3339
29147SOL     OW89162   1.105   6.317   4.209 -0.5358 -0.1428 -0.0682
29147SOL    HW189163   1.030   6.376   4.213 -0.5982 -0.2615  0.5206
29147SOL    HW289164   1.134   6.308   4.299 -1.4551 -2.2051  0.0834
29148SOL     OW89165   4.979   1.812   1.273  0.3075 -0.2157  0.4950
29148SOL    HW189166   4.935   1.812   1.188  1.2228  1.6874 -0.0316
29148SOL    HW289167   4.935   1.743   1.323 -0.4413 -1.2063 -1.4071
29149SOL     OW89168   8.813   7.921   3.614 -0.7686 -0.2397 -0.4834
29149SOL    HW189169   8.780   7.946   3.701  0.9355 -2.0751  0.7854
29149SOL    HW289170   8.907   7.933   3.620 -0.6903  0.5970 -2.4987
29150SOL     OW89171   4.677   0.950   1.732 -0.0847  0.4167  0.5769
29150SOL    HW189172   4.699   1.017   1.667  0.7316  0.0123  0.4194
29150SOL    HW289173   4.757   0.941   1.784 -0.9704  1.2906  2.1521
29151SOL     OW89174   1.827   8.304   5.091  0.0305 -0.8368  0.2041
29151SOL    HW189175   1.762   8.348   5.146  0.1370  1.0708 -1.0868
29151SOL    HW289176   1.911   8.338   5.122  0.0819  0.3994 -1.1791
29152SOL     OW89177   4.561   2.267   4.707  0.7263 -0.2122 -0.2048
29152SOL    HW189178   4.651   2.286   4.679  0.4461  3.1450  0.7667
29152SOL    HW289179   4.510   2.340   4.674 -1.5915 -1.6850 -0.0967
29153SOL     OW89180   5.791   6.096   6.335  0.0465 -0.7719  0.6358
29153SOL    HW189181   5.735   6.171   6.314  0.0343 -0.8044  0.5498
29153SOL    HW289182   5.752   6.023   6.288 -0.4624 -1.0278  1.4373
29154SOL     OW89183   3.277   1.077   3.738 -0.3741  0.0044  0.1921
29154SOL    HW189184   3.326   0.997   3.754  1.0701  0.5445 -1.2906
29154SOL    HW289185   3.219   1.057   3.665 -1.0620 -0.0990  0.7584
29155SOL     OW89186   9.095   8.613   3.241  0.0005 -0.3031 -0.2055
29155SOL    HW189187   9.138   8.533   3.210 -0.9574 -0.9051 -0.0209
29155SOL    HW289188   9.098   8.607   3.337  1.2704  0.6400 -0.1527
29156SOL     OW89189   9.382   5.034   5.990 -0.7292  0.0056  0.3871
29156SOL    HW189190   9.449   5.102   5.982 -1.3353  0.5526 -0.1845
29156SOL    HW289191   9.400   4.992   6.074  0.2689  0.2016  0.2798
29157SOL     OW89192   6.353   5.428   1.817 -0.0111  0.5189  0.2373
29157SOL    HW189193   6.414   5.391   1.880 -0.6216 -0.6231  0.1767
29157SOL    HW289194   6.276   5.371   1.821 -1.2842  2.1777  0.6513
29158SOL     OW89195   3.667   3.375   6.912 -0.5753  0.3462 -0.5650
29158SOL    HW189196   3.761   3.374   6.930 -0.8180  2.5127  1.2358
29158SOL    HW289197   3.657   3.436   6.839 -0.6853  1.2127  0.1629
29159SOL     OW89198   7.782   0.967   2.968 -0.0259 -0.1825 -0.0810
29159SOL    HW189199   7.746   0.993   2.883  1.2319 -0.2643 -0.6594
29159SOL    HW289200   7.708   0.926   3.014 -1.1245  1.2246 -0.5240
29160SOL     OW89201   6.056   2.286   1.148  0.4770 -0.1991  0.1602
29160SOL    HW189202   5.997   2.228   1.100 -1.7968  2.1028 -0.0879
29160SOL    HW289203   6.137   2.286   1.097  0.0684 -2.0383 -0.5683
29161SOL     OW89204   1.547   4.876   3.482  1.0010  0.3367  0.4364
29161SOL    HW189205   1.609   4.889   3.411  0.2756  0.9151 -0.1056
29161SOL    HW289206   1.461   4.894   3.443  0.3483 -1.6957  0.8160
29162SOL     OW89207   5.662   7.540   3.173  0.2070 -0.1882 -0.9796
29162SOL    HW189208   5.593   7.516   3.234  1.5067 -0.4853  0.4489
29162SOL    HW289209   5.633   7.623   3.135 -0.6355  0.0202  0.0675
29163SOL     OW89210   8.251   1.758   4.314 -0.2879 -0.2662  0.3416
29163SOL    HW189211   8.157   1.778   4.316 -0.6857 -1.3203 -2.7235
29163SOL    HW289212   8.291   1.837   4.279 -0.9790 -1.7477 -4.5803
29164SOL     OW89213   4.568   1.641   1.122 -0.7280  0.4974 -0.2487
29164SOL    HW189214   4.497   1.577   1.120  0.0813 -0.4673  0.7104
29164SOL    HW289215   4.648   1.589   1.112  0.0156  1.1973  1.5476
29165SOL     OW89216   4.182   8.258   6.984  0.0227 -0.4122  0.0612
29165SOL    HW189217   4.140   8.230   6.903  1.2507  0.0190 -0.7449
29165SOL    HW289218   4.109   8.266   7.047 -0.9120 -0.9717 -0.9130
29166SOL     OW89219   9.467   5.217   6.590  0.1782 -0.4259 -0.4157
29166SOL    HW189220   9.557   5.229   6.560  0.6519  0.2428  1.2000
29166SOL    HW289221   9.473   5.151   6.658 -0.7613 -1.2899 -1.1417
29167SOL     OW89222   0.009   7.653   8.701 -0.0930  0.7220 -0.8749
29167SOL    HW189223   0.063   7.705   8.641  1.6991  1.7347  1.4771
29167SOL    HW289224   0.068   7.586   8.735 -0.9297  0.4693  0.1345
29168SOL     OW89225   6.421   6.675   4.550 -0.2872 -1.0228 -0.2201
29168SOL    HW189226   6.429   6.580   4.538 -1.4207 -1.2131  0.4113
29168SOL    HW289227   6.335   6.697   4.517 -0.3894 -0.3573  0.4588
29169SOL     OW89228   7.868   7.494   0.207  0.2007 -0.6721 -0.0608
29169SOL    HW189229   7.906   7.526   0.125 -0.0590 -0.3381 -0.0548
29169SOL    HW289230   7.943   7.487   0.267  0.1102  1.1362  0.3188
29170SOL     OW89231   1.987   9.341   3.931 -0.3344 -0.0079  0.6041
29170SOL    HW189232   2.010   9.395   4.007  1.9146 -0.4828  0.3267
29170SOL    HW289233   1.961   9.405   3.864 -0.8508  0.5073  1.2787
29171SOL     OW89234   5.845   2.741   6.283 -0.6820 -0.0172  0.2180
29171SOL    HW189235   5.872   2.673   6.222  0.2441 -0.1937  0.8097
29171SOL    HW289236   5.759   2.713   6.314 -1.2631  0.1779 -1.1353
29172SOL     OW89237   6.866   1.892   3.868 -0.9277  0.7149 -0.0017
29172SOL    HW189238   6.951   1.867   3.833 -0.6290 -0.0514  1.2238
29172SOL    HW289239   6.874   1.986   3.885 -0.4830  0.7334 -0.2999
29173SOL     OW89240   3.201   4.136   1.371  0.5674 -0.1145 -0.2272
29173SOL    HW189241   3.172   4.210   1.318  0.4185  0.8046  1.1010
29173SOL    HW289242   3.145   4.138   1.449  2.8173  0.5417  1.5014
29174SOL     OW89243   9.407   8.871   0.612 -0.1970  0.4695  0.4564
29174SOL    HW189244   9.362   8.923   0.545  0.9875  1.9126  0.7421
29174SOL    HW289245   9.490   8.846   0.571  1.0543  2.3464  1.7350
29175SOL     OW89246   9.283   6.023   4.956  0.2118 -0.0568 -0.2794
29175SOL    HW189247   9.339   6.093   4.922 -1.2752  0.2101 -2.3914
29175SOL    HW289248   9.229   6.065   5.022 -0.5415  0.7926 -1.4044
29176SOL     OW89249   3.385   5.353   4.343 -0.1328  0.6409  0.4016
29176SOL    HW189250   3.362   5.440   4.311 -1.4613 -0.1977 -1.0772
29176SOL    HW289251   3.422   5.368   4.430 -1.4146  2.5774  0.6698
29177SOL     OW89252   6.175   5.186   8.867  0.1069 -0.6763 -0.2808
29177SOL    HW189253   6.095   5.210   8.821  1.0735  1.5040 -0.9577
29177SOL    HW289254   6.242   5.183   8.799  0.9545 -0.5351  0.5253
29178SOL     OW89255   0.526   6.895   6.722  0.2298  0.1666  0.3975
29178SOL    HW189256   0.454   6.882   6.784  1.4966 -1.7530  1.5635
29178SOL    HW289257   0.495   6.855   6.641  0.7250 -2.7018  1.5164
29179SOL     OW89258   2.005   9.169   8.406 -0.0719 -1.0015 -0.0359
29179SOL    HW189259   1.919   9.143   8.439  0.2166 -1.0843  0.6680
29179SOL    HW289260   2.028   9.100   8.343 -1.3934  0.0588 -1.7883
29180SOL     OW89261   1.630   6.907   2.146 -0.5528  0.1470  0.4143
29180SOL    HW189262   1.724   6.924   2.152 -0.0675 -1.8311 -0.9316
29180SOL    HW289263   1.623   6.816   2.118 -2.8778  0.3533  0.1182
29181SOL     OW89264   0.673   8.929   7.174 -0.4527 -0.2031  0.2628
29181SOL    HW189265   0.637   8.936   7.263  0.4902  1.5093  0.5623
29181SOL    HW289266   0.738   8.859   7.181 -1.3656 -1.0540  0.5401
29182SOL     OW89267   1.665   7.890   5.209 -0.6497 -0.1164 -0.0034
29182SOL    HW189268   1.711   7.870   5.127  1.2726  1.3674  0.6357
29182SOL    HW289269   1.727   7.865   5.278  0.5496  4.3057  0.8804
29183SOL     OW89270   4.130   1.159   0.543  0.1135 -0.1025 -0.3445
29183SOL    HW189271   4.036   1.151   0.559  0.0967  0.3166 -0.2223
29183SOL    HW289272   4.162   1.069   0.543 -0.5200 -0.3475 -1.8065
29184SOL     OW89273   2.669   0.333   1.941 -0.0338 -0.2448  0.4186
29184SOL    HW189274   2.607   0.380   1.886  0.7664  0.5644  0.1903
29184SOL    HW289275   2.630   0.334   2.028 -0.6721 -0.3724  0.1436
29185SOL     OW89276   7.929   6.045   8.581 -0.0826  0.3289 -0.1441
29185SOL    HW189277   7.889   6.126   8.615  0.7786  1.4952 -1.7274
29185SOL    HW289278   7.865   6.012   8.517  0.5719  1.1284 -1.2561
29186SOL     OW89279   1.966   4.202   2.155 -0.2275 -0.2571  0.0005
29186SOL    HW189280   1.981   4.140   2.226  0.0297 -0.7924 -0.5137
29186SOL    HW289281   1.958   4.287   2.199 -0.2590 -0.6059  0.6812
29187SOL     OW89282   7.989   0.303   3.819  0.4491  0.6141  0.1922
29187SOL    HW189283   7.937   0.376   3.788  0.3398  0.7040  0.5886
29187SOL    HW289284   8.080   0.329   3.802  0.5108  1.4724  1.6349
29188SOL     OW89285   7.359   0.215   4.226  0.4912  0.2732  0.1062
29188SOL    HW189286   7.444   0.245   4.257 -0.3586  1.1738  1.6661
29188SOL    HW289287   7.364   0.224   4.130  2.4445 -0.5882  0.0870
29189SOL     OW89288   4.931   5.210   6.389  0.1801 -0.5695 -0.0118
29189SOL    HW189289   5.000   5.277   6.390  0.4341 -0.8317  0.2316
29189SOL    HW289290   4.938   5.168   6.475  0.6673 -1.5652 -0.5202
29190SOL     OW89291   0.666   5.641   2.395 -0.8150 -0.1187  0.0690
29190SOL    HW189292   0.601   5.680   2.454 -0.9698 -0.7113  0.3026
29190SOL    HW289293   0.625   5.560   2.364 -0.5015 -0.1017 -0.4035
29191SOL     OW89294   0.991   6.653   6.858  0.1038 -0.3919  0.0744
29191SOL    HW189295   0.919   6.676   6.799 -0.3006 -0.2012  0.6421
29191SOL    HW289296   1.035   6.737   6.876  1.2324 -0.6532 -1.2362
29192SOL     OW89297   4.301   6.475   4.044  0.1896 -0.0729 -0.0832
29192SOL    HW189298   4.324   6.446   4.133  0.4675 -0.6871 -0.3460
29192SOL    HW289299   4.317   6.569   4.045 -1.5840  0.2605  1.0683
29193SOL     OW89300   5.802   0.690   8.093 -0.5827  0.1252  0.3470
29193SOL    HW189301   5.761   0.725   8.172  0.0787 -0.4808  0.9765
29193SOL    HW289302   5.809   0.596   8.109  1.0836  0.2069  0.3003
29194SOL     OW89303   6.779   3.542   7.359  0.0523 -0.4267  0.3211
29194SOL    HW189304   6.693   3.580   7.378  0.4028 -0.2997  1.7927
29194SOL    HW289305   6.775   3.454   7.397  1.1479  0.2160  2.0595
29195SOL     OW89306   7.268   5.687   7.759 -0.1215 -0.5035  0.2600
29195SOL    HW189307   7.254   5.620   7.826 -1.0482  0.4829  1.0977
29195SOL    HW289308   7.357   5.718   7.775  0.0669 -1.0596  0.3089
29196SOL     OW89309   3.145   8.901   9.501  0.2292 -0.0843 -0.2969
29196SOL    HW189310   3.109   8.987   9.522 -0.1443 -0.4045  0.4283
29196SOL    HW289311   3.094   8.871   9.426 -1.4061 -0.7267  0.9884
29197SOL     OW89312   1.857   9.621   0.103  0.6917 -0.3582 -0.8993
29197SOL    HW189313   1.929   9.559   0.114  0.4960 -0.1234  2.6404
29197SOL    HW289314   1.900   9.703   0.078  1.3910 -0.8402 -1.2876
29198SOL     OW89315   9.270   6.231   2.425 -0.7720 -0.1623  0.2269
29198SOL    HW189316   9.196   6.287   2.401  1.1221  2.9496  1.1121
29198SOL    HW289317   9.343   6.265   2.374  0.1865 -2.9265 -0.3645
29199SOL     OW89318   0.351   5.161   6.003 -0.1679 -0.2332 -0.1497
29199SOL    HW189319   0.446   5.151   5.999  0.1209  1.7297  0.4649
29199SOL    HW289320   0.327   5.198   5.918  0.1108  2.2113  0.7592
29200SOL     OW89321   6.166   6.365   8.766  0.1125  0.1407  0.1237
29200SOL    HW189322   6.111   6.349   8.842  1.5103  0.3806  1.2308
29200SOL    HW289323   6.204   6.280   8.745  2.7495  0.6927  2.1803
29201SOL     OW89324   5.514   1.012   4.644 -0.6739 -0.4797 -0.5176
29201SOL    HW189325   5.502   1.006   4.739  0.3344  0.7683 -0.2843
29201SOL    HW289326   5.601   1.050   4.633 -0.3411 -1.5848 -1.9758
29202SOL     OW89327   5.363   0.755   4.140 -0.2911 -0.1691 -0.1973
29202SOL    HW189328   5.353   0.808   4.060 -0.3316 -0.0181 -0.0929
29202SOL    HW289329   5.373   0.820   4.210 -2.5004 -0.2184  0.2428
29203SOL     OW89330   5.264   8.047   3.429  0.3186  0.1194 -0.2973
29203SOL    HW189331   5.286   8.123   3.483  0.0180 -1.0326  1.5253
29203SOL    HW289332   5.348   8.006   3.409  0.3564 -0.1572  0.4010
29204SOL     OW89333   8.945   5.302   5.014 -0.7293  0.2105  0.7631
29204SOL    HW189334   8.866   5.347   5.043  0.4060  1.3969  2.1968
29204SOL    HW289335   8.970   5.248   5.090  0.1794  0.3488  0.5664
29205SOL     OW89336   5.194   5.753   1.085  0.2241  0.0126 -0.1099
29205SOL    HW189337   5.229   5.841   1.070 -1.5413  0.5885 -1.3481
29205SOL    HW289338   5.178   5.749   1.179 -1.2885  1.7414 -0.2303
29206SOL     OW89339   7.452   3.290   0.729  0.1746 -0.3982  0.2428
29206SOL    HW189340   7.412   3.283   0.643 -1.6337  0.1508  1.0017
29206SOL    HW289341   7.506   3.369   0.724  0.9958 -0.9953 -0.7121
29207SOL     OW89342   5.992   8.168   2.926  0.3071 -0.8340 -0.0117
29207SOL    HW189343   5.906   8.204   2.948 -1.4818 -2.8117 -2.9883
29207SOL    HW289344   6.000   8.090   2.982 -0.4401 -1.3237 -0.5677
29208SOL     OW89345   5.076   0.019   8.627  0.3513  0.1314  0.8899
29208SOL    HW189346   5.143   0.023   8.694  0.3541  1.0739  0.8469
29208SOL    HW289347   5.124   0.006   8.545  0.3665 -0.7159  1.0195
29209SOL     OW89348   0.828   3.451   1.850  0.9657 -0.0363  0.3144
29209SOL    HW189349   0.825   3.394   1.926 -0.4525 -0.9240 -0.3651
29209SOL    HW289350   0.774   3.527   1.875  2.3663  0.7710  0.9983
29210SOL     OW89351   9.343   3.031   5.199 -0.5021 -0.1480  0.5063
29210SOL    HW189352   9.407   3.018   5.269 -0.2067  1.0208  0.4780
29210SOL    HW289353   9.293   3.107   5.226 -0.5881  0.1392 -0.4042
29211SOL     OW89354   4.905   6.643   8.100  0.3521 -0.3452 -0.0185
29211SOL    HW189355   4.961   6.581   8.147  0.0188 -1.0563 -0.5294
29211SOL    HW289356   4.818   6.602   8.101  0.0457  0.2944 -0.0455
29212SOL     OW89357   5.215   9.531   4.711  0.1169  0.2036  0.3763
29212SOL    HW189358   5.213   9.595   4.782  1.2379 -0.4272  1.0028
29212SOL    HW289359   5.140   9.474   4.729 -1.3687  1.7388 -0.6240
29213SOL     OW89360   3.432   3.221   6.571  0.5416 -0.7455  0.4253
29213SOL    HW189361   3.432   3.144   6.514  0.9338 -0.9814  0.7381
29213SOL    HW289362   3.521   3.255   6.567  0.8798 -1.4064  1.7318
29214SOL     OW89363   2.738   8.682   9.170  0.1898 -0.4388 -0.1906
29214SOL    HW189364   2.799   8.619   9.131 -1.0956 -2.2770  0.6165
29214SOL    HW289365   2.657   8.672   9.120  0.1023  0.9473 -0.3556
29215SOL     OW89366   1.088   9.041   7.502  0.1525 -0.4347 -0.0834
29215SOL    HW189367   1.056   9.076   7.419 -2.1809 -2.7635 -0.3173
29215SOL    HW289368   1.136   8.962   7.478 -0.2814 -0.9661  0.7576
29216SOL     OW89369   9.119   2.822   6.898  0.0209  0.0140 -0.0339
29216SOL    HW189370   9.160   2.845   6.981  0.0375 -1.2423  0.3266
29216SOL    HW289371   9.032   2.862   6.902 -0.0462 -0.1913  0.6705
29217SOL     OW89372   7.409   0.197   1.202 -0.0377 -0.0950  0.0049
29217SOL    HW189373   7.369   0.180   1.117 -0.3182 -2.6646  0.5729
29217SOL    HW289374   7.454   0.115   1.224  0.9785  0.8898  1.8288
29218SOL     OW89375   2.877   0.690   3.231  0.4347 -0.5873 -0.4990
29218SOL    HW189376   2.866   0.757   3.298  2.4750  0.2824 -0.9561
29218SOL    HW289377   2.913   0.615   3.277 -1.3613 -1.2474 -0.0799
29219SOL     OW89378   0.060   8.649   8.408 -0.1908 -0.2906  0.1154
29219SOL    HW189379   0.104   8.601   8.338  0.2768  0.9920 -0.5061
29219SOL    HW289380   0.014   8.582   8.459 -0.5257 -1.2615 -1.4091
29220SOL     OW89381   2.887   2.944   6.931  0.3780  0.3106 -0.6323
29220SOL    HW189382   2.797   2.922   6.911  0.6917 -0.2428 -1.4812
29220SOL    HW289383   2.932   2.859   6.937  1.0737  0.6164 -1.3537
29221SOL     OW89384   9.241   5.414   1.607  0.5089 -0.3798  0.1605
29221SOL    HW189385   9.186   5.404   1.529  0.5137 -0.4452  0.1658
29221SOL    HW289386   9.257   5.509   1.612  1.4931 -0.4894 -0.6047
29222SOL     OW89387   1.368   7.859   8.336 -0.6046  0.3282 -0.1440
29222SOL    HW189388   1.369   7.861   8.240 -1.0843 -1.6487 -0.2325
29222SOL    HW289389   1.444   7.911   8.362  0.5965 -0.5819 -1.6652
29223SOL     OW89390   9.526   4.976   4.655  0.5290 -0.4756 -0.6874
29223SOL    HW189391   9.521   5.025   4.573  0.7320 -0.3983 -0.6538
29223SOL    HW289392   9.613   4.996   4.690 -0.2228  0.9782  0.4797
29224SOL     OW89393   1.740   3.055   3.061 -0.2740  0.0969 -0.6948
29224SOL    HW189394   1.712   2.982   3.117 -0.6227 -0.2537 -1.3210
29224SOL    HW289395   1.822   3.084   3.100 -0.8887  0.3571  0.4631
29225SOL     OW89396   4.980   7.409   7.031  0.1164  0.0099  0.1516
29225SOL    HW189397   5.069   7.399   7.065 -0.3704 -0.3989  1.3576
29225SOL    HW289398   4.934   7.460   7.098 -0.3710  0.8458 -0.8011
29226SOL     OW89399   1.738   1.290   9.151 -0.4002  0.1766 -0.1381
29226SOL    HW189400   1.651   1.263   9.123 -0.3431 -0.8387  0.6152
29226SOL    HW289401   1.723   1.340   9.231 -0.4799  2.2431 -1.3700
29227SOL     OW89402   9.706   4.718   1.893  0.3425  0.9807 -0.2339
29227SOL    HW189403   9.785   4.750   1.937  0.6693 -0.3523  0.1885
29227SOL    HW289404   9.675   4.647   1.949 -0.9620  1.2454 -0.5882
29228SOL     OW89405   8.928   2.967   8.166  0.0779 -0.2665  0.0450
29228SOL    HW189406   8.876   2.914   8.105 -0.5230  0.8411 -0.4354
29228SOL    HW289407   8.875   2.970   8.246 -0.4410  0.5581 -0.3208
29229SOL     OW89408   0.296   3.796   5.823 -0.1274 -0.8369 -0.5466
29229SOL    HW189409   0.377   3.847   5.819 -0.7061  0.0272 -3.2486
29229SOL    HW289410   0.324   3.710   5.852  1.3761  0.0731  0.9178
29230SOL     OW89411   1.503   8.365   1.869  0.1526 -0.2182  0.2578
29230SOL    HW189412   1.530   8.453   1.895  0.9072 -0.6177  0.9013
29230SOL    HW289413   1.582   8.312   1.881  0.5202 -0.4996 -2.7059
29231SOL     OW89414   0.278   3.756   1.613  0.2930  0.0767  0.0612
29231SOL    HW189415   0.326   3.750   1.695  0.3872  0.1492  0.0120
29231SOL    HW289416   0.252   3.848   1.607 -1.2953 -0.2707  0.8996
29232SOL     OW89417   4.959   0.367   4.679  0.2166  0.7078  0.8693
29232SOL    HW189418   5.030   0.308   4.652 -0.7820  0.3753 -1.1960
29232SOL    HW289419   4.999   0.454   4.678  0.7071  0.4859  0.0833
29233SOL     OW89420   3.246   3.507   5.144 -0.0790  0.0986  0.4754
29233SOL    HW189421   3.311   3.572   5.171  0.9187 -0.8300  0.3207
29233SOL    HW289422   3.169   3.560   5.120  0.3481  1.1643  1.3455
29234SOL     OW89423   6.169   4.623   8.993  0.0472 -0.0719 -0.6038
29234SOL    HW189424   6.157   4.539   9.038  0.0669 -0.5630 -1.4924
29234SOL    HW289425   6.080   4.652   8.972  0.0651 -0.1574 -0.8032
29235SOL     OW89426   1.252   0.240   8.561  0.1918 -0.1939 -0.6721
29235SOL    HW189427   1.178   0.248   8.622 -0.1291  0.1141 -1.0904
29235SOL    HW289428   1.314   0.307   8.589 -0.1818  0.2919 -0.9928
29236SOL     OW89429   2.173   3.864   7.595  0.2088 -0.1425  0.0045
29236SOL    HW189430   2.091   3.907   7.572  1.2556  1.7148 -0.5239
29236SOL    HW289431   2.152   3.771   7.597 -1.6906  0.2098 -0.9895
29237SOL     OW89432   6.004   0.116   5.394  0.0223 -0.1250  0.2481
29237SOL    HW189433   6.044   0.127   5.307  0.8175  0.6556  0.7032
29237SOL    HW289434   5.959   0.198   5.410 -0.5922 -0.4774  0.3506
29238SOL     OW89435   6.089   7.762   6.243 -0.1527  0.1280  0.1083
29238SOL    HW189436   6.116   7.682   6.196 -0.1887  0.7018 -0.9119
29238SOL    HW289437   6.025   7.731   6.307  0.0499 -0.7064 -0.0751
29239SOL     OW89438   8.376   0.415   4.949  0.2121  0.3071 -0.5992
29239SOL    HW189439   8.434   0.418   5.025 -0.3599  1.1186 -0.1749
29239SOL    HW289440   8.291   0.390   4.985  0.3927 -1.4495 -1.2955
29240SOL     OW89441   4.339   4.058   8.012 -0.2155  0.6028 -0.9399
29240SOL    HW189442   4.359   4.102   8.095  0.0445 -1.2191  0.0100
29240SOL    HW289443   4.348   4.126   7.946 -0.9296  2.2425  0.5700
29241SOL     OW89444   3.752   2.019   7.812 -0.1496  0.3058  0.3078
29241SOL    HW189445   3.659   2.002   7.830 -0.2708 -1.6934 -1.7363
29241SOL    HW289446   3.752   2.076   7.736  0.1138 -2.7499 -2.2068
29242SOL     OW89447   3.744   2.916   6.285 -0.4715  0.0811  0.1830
29242SOL    HW189448   3.787   2.832   6.271 -1.2788 -0.1976 -0.7335
29242SOL    HW289449   3.814   2.973   6.317  0.6909 -0.2889 -1.5385
29243SOL     OW89450   1.670   6.093   2.105 -0.2314 -0.4437  0.1010
29243SOL    HW189451   1.714   6.161   2.156 -1.2937 -1.1327  2.0207
29243SOL    HW289452   1.635   6.140   2.029  0.4311  0.8445  0.5487
29244SOL     OW89453   0.048   4.982   7.000 -0.6957  0.3651  0.1055
29244SOL    HW189454  -0.040   5.013   6.980 -0.3078  0.1294 -2.1697
29244SOL    HW289455   0.060   5.003   7.093 -2.4371  2.0766 -0.0001
29245SOL     OW89456   5.035   5.651   2.807  0.2214  0.3152  0.5355
29245SOL    HW189457   5.078   5.658   2.722  1.2566  0.1926  1.0242
29245SOL    HW289458   4.981   5.730   2.813  0.5990  0.6205  0.0127
29246SOL     OW89459   7.014   0.107   0.747 -0.0094 -0.0593 -0.9434
29246SOL    HW189460   7.058   0.170   0.691 -0.7359  0.7944 -0.5874
29246SOL    HW289461   6.956   0.160   0.802 -0.5708 -1.0288 -0.5631
29247SOL     OW89462   8.095   0.263   5.190  0.1756 -0.0357  0.0345
29247SOL    HW189463   8.132   0.193   5.137  1.3991  1.3161 -1.0060
29247SOL    HW289464   8.022   0.297   5.138  0.0748 -0.0315  0.1771
29248SOL     OW89465   6.457   5.195   9.021 -0.3245 -0.4489 -0.0713
29248SOL    HW189466   6.421   5.107   9.008 -0.6522 -0.3370  0.0824
29248SOL    HW289467   6.403   5.233   9.090  0.8634 -0.7295  1.0550
29249SOL     OW89468   8.821   1.567   8.018 -0.0596 -0.8350  0.1315
29249SOL    HW189469   8.770   1.527   8.088  0.0129 -2.3452 -0.6459
29249SOL    HW289470   8.890   1.504   7.999  0.0535 -0.3606 -1.1498
29250SOL     OW89471   9.537   7.417   8.134  0.2450 -0.1577  0.7398
29250SOL    HW189472   9.583   7.372   8.064 -0.3624  0.2942  0.0377
29250SOL    HW289473   9.467   7.357   8.160  0.3218 -0.2221  0.8001
29251SOL     OW89474   3.218   0.539   3.932 -0.1806 -0.0684  0.3748
29251SOL    HW189475   3.214   0.516   4.025  2.0387 -0.9092  0.3336
29251SOL    HW289476   3.256   0.627   3.931  0.5696 -0.3891  0.2530
29252SOL     OW89477   4.607   4.568   8.827  0.4584 -0.0704 -0.0935
29252SOL    HW189478   4.570   4.521   8.902 -0.0042  0.9474  0.3496
29252SOL    HW289479   4.663   4.635   8.866  0.9734 -0.1402 -0.6994
29253SOL     OW89480   7.429   9.205   9.500 -0.6621  0.1361  0.4532
29253SOL    HW189481   7.462   9.263   9.568  1.0654  0.6602 -0.7515
29253SOL    HW289482   7.343   9.239   9.478 -0.2418  1.4105  0.7192
29254SOL     OW89483   3.095   4.092   6.993 -0.2583  0.6484  0.3431
29254SOL    HW189484   3.115   4.025   7.059  0.1641 -1.7732 -2.0497
29254SOL    HW289485   3.173   4.147   6.990 -0.2076  0.6796  1.6692
29255SOL     OW89486   9.638   7.158   6.604  0.0163 -0.3779  0.2028
29255SOL    HW189487   9.544   7.155   6.622  0.3062 -0.9313  1.8256
29255SOL    HW289488   9.649   7.230   6.542 -1.6185 -1.2139 -1.1379
29256SOL     OW89489   2.763   6.435   0.768  0.0319  0.4207 -0.6898
29256SOL    HW189490   2.672   6.421   0.741  0.1396 -0.8414 -0.4675
29256SOL    HW289491   2.756   6.468   0.858 -0.2655  2.9921 -1.5904
29257SOL     OW89492   5.746   6.901   4.404 -0.3178  0.2242 -0.1831
29257SOL    HW189493   5.823   6.914   4.349  0.0059  0.6821  0.3749
29257SOL    HW289494   5.742   6.806   4.418  0.3638  0.2355  0.1014
29258SOL     OW89495   7.862   0.446   1.024  0.7225  0.0456  0.0353
29258SOL    HW189496   7.920   0.371   1.012 -0.3458 -0.9306  0.6412
29258SOL    HW289497   7.790   0.411   1.077  0.7414  1.7884  1.3061
29259SOL     OW89498   2.565   8.484   7.773  0.4076 -0.2575  0.0903
29259SOL    HW189499   2.494   8.548   7.763 -0.8328 -1.4635  0.7179
29259SOL    HW289500   2.645   8.535   7.769 -0.5166  1.2237 -0.1838
29260SOL     OW89501   0.646   4.704   2.225  0.9657 -0.0013 -0.6546
29260SOL    HW189502   0.698   4.660   2.158  1.2907 -2.6542  1.1395
29260SOL    HW289503   0.697   4.693   2.306 -0.9788 -0.1315  0.6378
29261SOL     OW89504   3.257   3.018   5.121  0.3851  0.3605 -0.1053
29261SOL    HW189505   3.299   3.024   5.207  0.1180  1.2529 -0.0275
29261SOL    HW289506   3.233   3.108   5.100  1.2534  0.2980 -1.5206
29262SOL     OW89507   1.406   4.921   1.148 -0.3552  0.2416  0.2490
29262SOL    HW189508   1.329   4.945   1.097  0.5816 -0.4448 -1.5709
29262SOL    HW289509   1.480   4.943   1.091  0.7052 -1.2902  0.9767
29263SOL     OW89510   5.668   9.470   9.198 -0.2291 -0.5740 -0.2333
29263SOL    HW189511   5.650   9.451   9.290 -1.7263  1.0156 -0.1409
29263SOL    HW289512   5.645   9.390   9.151  3.3306 -2.4830  0.9615
29264SOL     OW89513   1.979   1.215   7.942 -0.1039 -0.1264 -0.2677
29264SOL    HW189514   2.016   1.128   7.923 -0.5301 -0.6391  1.0989
29264SOL    HW289515   1.987   1.224   8.037 -0.0134  1.3756 -0.3906
29265SOL     OW89516   1.442   8.281   5.388 -0.1423  0.1589  0.0671
29265SOL    HW189517   1.503   8.313   5.454  0.5142  0.4317 -0.6611
29265SOL    HW289518   1.384   8.221   5.435  1.5933 -1.2484  0.4878
29266SOL     OW89519   3.067   3.388   4.324 -0.1930  0.2897  0.0231
29266SOL    HW189520   3.031   3.324   4.385 -0.3035  0.6242  0.3079
29266SOL    HW289521   3.015   3.377   4.244 -1.0055  0.8534  0.4663
29267SOL     OW89522   8.979   4.700   8.632  0.7391 -0.1904  0.4021
29267SOL    HW189523   8.895   4.741   8.653  1.3355  0.8295  0.9107
29267SOL    HW289524   8.988   4.710   8.537  0.6433  0.4351  0.4533
29268SOL     OW89525   2.663   9.200   5.289  0.7519  0.1078  0.1492
29268SOL    HW189526   2.635   9.272   5.231  1.3904  0.7491  0.6219
29268SOL    HW289527   2.758   9.205   5.288  0.7722  0.3511  1.5194
29269SOL     OW89528   6.568   6.046   2.359 -0.0422  0.0920  0.3495
29269SOL    HW189529   6.628   6.110   2.395  0.3861 -0.2081  0.1728
29269SOL    HW289530   6.607   6.019   2.276 -0.1667 -0.4673  0.4647
29270SOL     OW89531   1.728   3.742   2.874 -0.4821 -0.5561 -0.3092
29270SOL    HW189532   1.780   3.820   2.894  1.2668 -1.5690 -0.6396
29270SOL    HW289533   1.792   3.680   2.839 -1.9442 -1.9092 -0.6781
29271SOL     OW89534   9.163   1.086   2.734  0.0441  0.4104 -0.5171
29271SOL    HW189535   9.125   1.141   2.803 -0.4150  0.8688 -1.1178
29271SOL    HW289536   9.093   1.025   2.711  1.2163 -1.9305  1.6275
29272SOL     OW89537   4.212   8.970   1.684  0.0805  0.1477  0.0135
29272SOL    HW189538   4.262   8.922   1.617 -0.8033 -1.1488  0.2462
29272SOL    HW289539   4.181   9.048   1.639  0.0328 -0.3860 -0.9248
29273SOL     OW89540   0.474   5.469   6.928 -0.6723  0.0357 -0.2571
29273SOL    HW189541   0.416   5.521   6.872 -0.9347 -0.2331 -0.2343
29273SOL    HW289542   0.545   5.530   6.951 -1.4318  0.6777  0.5013
29274SOL     OW89543   9.239   1.089   0.300  0.4173 -0.1059  0.2625
29274SOL    HW189544   9.268   1.175   0.269 -1.2516 -0.0553 -1.3050
29274SOL    HW289545   9.167   1.065   0.241 -0.4105 -1.7330  1.8487
29275SOL     OW89546   5.120   8.552   6.931  0.0719  0.6321 -0.4970
29275SOL    HW189547   5.059   8.479   6.937  0.9456 -0.0346  0.7201
29275SOL    HW289548   5.102   8.592   6.846 -0.8191 -0.6428 -0.9296
29276SOL     OW89549   4.797   6.178   3.195  0.1895  0.0823  0.1169
29276SOL    HW189550   4.713   6.169   3.149  0.0727  0.1638  0.3160
29276SOL    HW289551   4.790   6.260   3.243  0.5109  0.2552 -0.1302
29277SOL     OW89552   4.824   5.069   2.358  0.2131 -0.3903 -0.2961
29277SOL    HW189553   4.840   5.110   2.273 -0.4025 -0.5378 -0.4847
29277SOL    HW289554   4.749   5.012   2.343 -0.1626 -0.0975  0.4550
29278SOL     OW89555   8.630   6.593   9.458  0.2128  0.0390 -0.1553
29278SOL    HW189556   8.723   6.585   9.479  0.5273 -2.6601 -1.9793
29278SOL    HW289557   8.599   6.665   9.513  2.8646 -0.4110  2.1964
29279SOL     OW89558   2.970   0.403   8.903  0.1740  0.2814 -0.2521
29279SOL    HW189559   3.051   0.453   8.914  1.6061 -2.3839  2.8979
29279SOL    HW289560   2.918   0.425   8.980 -0.6585 -0.5179 -0.5713
29280SOL     OW89561   8.710   9.406   2.185  0.7526  0.4288  0.0501
29280SOL    HW189562   8.643   9.441   2.244  1.0333  0.8799  0.1030
29280SOL    HW289563   8.661   9.374   2.109  0.3838 -0.1906  0.5373
29281SOL     OW89564   4.497   2.705   7.572  0.2094  0.7798  0.2574
29281SOL    HW189565   4.435   2.719   7.500 -1.2558 -0.3860  1.2431
29281SOL    HW289566   4.552   2.632   7.543 -1.1646 -0.5009  0.7717
29282SOL     OW89567   2.423   7.888   7.417 -0.0938  0.1225  0.3847
29282SOL    HW189568   2.396   7.868   7.507  1.1959  1.1439  1.0367
29282SOL    HW289569   2.509   7.928   7.426 -0.0918  0.5888 -1.2955
29283SOL     OW89570   7.267   1.124   5.929  0.7615  0.1041 -0.2737
29283SOL    HW189571   7.216   1.080   5.998 -1.1357  1.7878 -0.4935
29283SOL    HW289572   7.357   1.099   5.946  0.1497 -0.9533  1.7497
29284SOL     OW89573   5.322   3.189   0.950  0.0861 -0.0030 -0.3623
29284SOL    HW189574   5.380   3.234   1.012 -1.6955  2.9375 -0.6349
29284SOL    HW289575   5.306   3.104   0.990  1.0633  0.7951  1.9239
29285SOL     OW89576   6.578   0.669   2.651 -0.0845 -1.0366 -0.6385
29285SOL    HW189577   6.642   0.740   2.643 -1.0427  0.0620  0.8465
29285SOL    HW289578   6.610   0.616   2.723 -0.4998 -0.8581 -0.3203
29286SOL     OW89579   5.592   7.855   8.855 -0.4975  0.3682 -0.1900
29286SOL    HW189580   5.612   7.948   8.848  0.6507  0.1975  0.7408
29286SOL    HW289581   5.497   7.852   8.865 -0.6728  1.3646 -1.2627
29287SOL     OW89582   3.780   1.812   6.313 -0.3150  0.3002  0.6388
29287SOL    HW189583   3.759   1.774   6.228 -0.3797  0.8633  0.4041
29287SOL    HW289584   3.833   1.889   6.293  1.0344 -0.4386  1.1670
29288SOL     OW89585   2.214   3.239   0.993 -0.3251  0.3235  0.5729
29288SOL    HW189586   2.260   3.321   0.979 -0.3083  0.1368 -0.6437
29288SOL    HW289587   2.133   3.263   1.038  0.1341  0.8715  1.1094
29289SOL     OW89588   4.937   7.227   6.104  0.0407 -0.1842  0.0401
29289SOL    HW189589   4.949   7.191   6.016  1.8091 -0.5243  0.3783
29289SOL    HW289590   5.006   7.293   6.112  0.1674 -0.4590  1.3221
29290SOL     OW89591   3.705   9.675   8.259  0.0109 -0.1404  0.8297
29290SOL    HW189592   3.670   9.733   8.327 -1.8972 -1.8637  1.4270
29290SOL    HW289593   3.669   9.589   8.280  0.2055 -0.9529 -1.7970
29291SOL     OW89594   9.011   2.774   7.513 -0.5353 -0.3654  0.3882
29291SOL    HW189595   8.987   2.799   7.423 -0.9697 -2.9945 -0.3079
29291SOL    HW289596   9.066   2.696   7.502 -0.7054 -0.8122  2.4193
29292SOL     OW89597   6.022   2.018   0.720  0.4171 -0.7441 -0.2379
29292SOL    HW189598   6.033   2.090   0.657 -0.4803 -0.7977 -0.4726
29292SOL    HW289599   5.927   2.004   0.723  0.2599  0.3865  2.3853
29293SOL     OW89600   2.377   6.552   7.705  0.5530  0.2037 -0.3340
29293SOL    HW189601   2.412   6.503   7.631 -0.0606 -1.1775  0.2571
29293SOL    HW289602   2.284   6.565   7.683  0.2133 -0.7755  0.4549
29294SOL     OW89603   4.967   7.132   2.853 -0.1205 -0.4122  0.7677
29294SOL    HW189604   4.902   7.124   2.922  0.7020 -0.8892  1.4938
29294SOL    HW289605   4.968   7.226   2.832 -1.5884 -0.4991  0.1958
29295SOL     OW89606   0.811   8.466   7.444 -0.1073  0.3708 -0.2524
29295SOL    HW189607   0.736   8.408   7.452  0.2586 -0.1538 -0.5914
29295SOL    HW289608   0.874   8.417   7.392  0.6088  0.6719  0.3117
29296SOL     OW89609   4.531   5.419   4.948 -0.1816 -0.1837 -0.3338
29296SOL    HW189610   4.500   5.500   4.908  1.9457  0.8455  0.0004
29296SOL    HW289611   4.600   5.446   5.008  0.6228 -2.2466 -0.2365
29297SOL     OW89612   6.170   5.356   0.160  0.1319  0.0374  0.4612
29297SOL    HW189613   6.232   5.423   0.187  0.6388  1.0380 -2.7939
29297SOL    HW289614   6.223   5.277   0.150  0.8926  0.7716 -1.8458
29298SOL     OW89615   6.964   1.975   8.509  0.4212 -0.3575 -0.1663
29298SOL    HW189616   6.911   1.943   8.436  0.3541 -0.3370 -0.1263
29298SOL    HW289617   6.962   2.070   8.501 -0.8487 -0.2896  0.7472
29299SOL     OW89618   0.451   1.424   0.078  0.0860  0.2088 -0.1552
29299SOL    HW189619   0.425   1.346   0.126  0.6864  1.2906  2.0615
29299SOL    HW289620   0.515   1.394   0.015  1.0690 -0.9777  1.3506
29300SOL     OW89621   6.713   2.574   0.774  0.5814  0.4663  0.1853
29300SOL    HW189622   6.670   2.573   0.688 -0.0707  0.7088  0.4992
29300SOL    HW289623   6.750   2.486   0.783 -0.8530 -0.1510  0.3867
29301SOL     OW89624   9.284   1.771   9.317  0.0029 -0.5697  0.7698
29301SOL    HW189625   9.250   1.792   9.230 -0.3771 -1.6134  0.6548
29301SOL    HW289626   9.380   1.772   9.306 -0.0476 -1.5690  0.1111
29302SOL     OW89627   0.164   0.781   4.281 -0.4980  0.1021  0.1494
29302SOL    HW189628   0.216   0.803   4.204 -1.2908  1.3799 -0.0419
29302SOL    HW289629   0.113   0.705   4.255  1.6823 -1.6360  0.5539
29303SOL     OW89630   0.211   7.593   8.235 -0.4345  0.4937 -0.2158
29303SOL    HW189631   0.196   7.538   8.157  0.8998 -1.1421  0.6238
29303SOL    HW289632   0.206   7.683   8.202 -2.9269 -0.0481 -1.6046
29304SOL     OW89633   3.510   4.591   7.418  0.3163  0.7107 -0.8340
29304SOL    HW189634   3.587   4.613   7.367  0.4497 -0.2742 -1.0733
29304SOL    HW289635   3.458   4.535   7.361  0.8913 -1.1596  0.3877
29305SOL     OW89636   2.995   7.018   2.111 -0.1571  0.0534 -0.3378
29305SOL    HW189637   2.917   7.049   2.065 -0.1850  1.7159  0.7689
29305SOL    HW289638   2.985   6.922   2.110 -1.1141  0.1131 -2.0454
29306SOL     OW89639   0.520   0.809   3.808 -0.3854  0.4477 -0.1264
29306SOL    HW189640   0.548   0.717   3.813  0.1067  0.6488  1.3897
29306SOL    HW289641   0.590   0.857   3.851  0.0356  1.7292 -2.1210
29307SOL     OW89642   2.035   4.849   5.837  0.1742 -0.0986 -0.5906
29307SOL    HW189643   2.046   4.944   5.835 -2.2935  0.2316 -2.0264
29307SOL    HW289644   2.039   4.822   5.746  2.8120 -1.7379 -0.1000
29308SOL     OW89645   9.150   8.528   0.195  0.0780  0.2717 -0.4735
29308SOL    HW189646   9.066   8.507   0.154 -0.3832 -0.1056  0.6287
29308SOL    HW289647   9.142   8.621   0.218 -0.0914  0.2058 -0.2586
29309SOL     OW89648   6.933   9.649   2.378  0.5996  0.2230 -0.0413
29309SOL    HW189649   6.987   9.677   2.304 -0.5273  1.2587 -0.4991
29309SOL    HW289650   6.908   9.730   2.422 -1.0396 -0.1548 -0.1904
29310SOL     OW89651   8.495   9.353   0.262  0.0274  0.0714 -0.2720
29310SOL    HW189652   8.548   9.320   0.334  0.4556 -0.0477 -0.6377
29310SOL    HW289653   8.439   9.419   0.302  0.1784 -0.0751  0.1917
29311SOL     OW89654   9.398   7.070   4.550 -0.9059 -0.3328  0.3704
29311SOL    HW189655   9.352   6.998   4.594  0.4427 -0.6197  1.3889
29311SOL    HW289656   9.490   7.056   4.572 -0.4160  0.7076 -0.8933
29312SOL     OW89657   6.408   7.202   7.250  0.0434 -0.0290 -0.0167
29312SOL    HW189658   6.409   7.227   7.158  0.7878  1.2565  0.3165
29312SOL    HW289659   6.467   7.265   7.293 -0.6801 -0.2865  1.4178
29313SOL     OW89660   1.186   9.468   4.009  0.0375  0.4787  0.1694
29313SOL    HW189661   1.240   9.470   4.087 -0.7084  0.5638  0.6980
29313SOL    HW289662   1.133   9.388   4.018  0.7995 -0.1608 -0.8455
29314SOL     OW89663   0.104   0.306   3.665 -0.5439 -0.5580 -0.5665
29314SOL    HW189664   0.045   0.250   3.716 -0.9245 -1.2009 -1.6877
29314SOL    HW289665   0.092   0.277   3.575  1.4799 -0.6862 -0.8311
29315SOL     OW89666   9.064   7.838   5.928 -0.1286  0.2206 -0.3961
29315SOL    HW189667   9.013   7.771   5.974 -0.9852  1.0603 -0.0805
29315SOL    HW289668   9.135   7.859   5.989 -0.0310 -0.1892 -0.3676
29316SOL     OW89669   5.514   4.466   5.776 -0.3185  0.9821  0.3973
29316SOL    HW189670   5.476   4.543   5.819 -1.0398  0.3412  0.9406
29316SOL    HW289671   5.442   4.430   5.724 -0.0019  0.6442  0.1913
29317SOL     OW89672   6.833   5.332   6.624 -0.7616 -0.4319  0.6993
29317SOL    HW189673   6.785   5.283   6.692 -0.2666 -0.4936  1.0067
29317SOL    HW289674   6.820   5.280   6.544  1.0539 -1.9555  1.3169
29318SOL     OW89675   4.041   4.705   4.714  0.0294  0.0165 -0.0868
29318SOL    HW189676   3.990   4.744   4.643 -1.0408 -1.9332 -0.4501
29318SOL    HW289677   4.124   4.681   4.673 -0.0632  0.1336 -0.3460
29319SOL     OW89678   4.442   6.859   1.862 -0.4015 -0.1119  0.0209
29319SOL    HW189679   4.379   6.788   1.872  0.3851 -0.9117 -0.5781
29319SOL    HW289680   4.526   6.816   1.850  0.3573  0.9356  1.2397
29320SOL     OW89681   4.231   3.942   8.795 -1.0253  0.9690 -0.2966
29320SOL    HW189682   4.221   3.937   8.700  0.0643 -2.2139 -0.3487
29320SOL    HW289683   4.162   3.885   8.830 -0.1071  0.4147  0.6778
29321SOL     OW89684   9.232   2.957   2.313 -0.5151 -0.2156  0.2503
29321SOL    HW189685   9.298   2.975   2.247  0.2747 -0.0932  1.0557
29321SOL    HW289686   9.261   3.005   2.390 -0.2189 -2.0735  1.3721
29322SOL     OW89687   4.186   8.414   0.439  0.0206 -0.0380 -0.1082
29322SOL    HW189688   4.134   8.361   0.500  0.1551  0.8420  0.7831
29322SOL    HW289689   4.183   8.502   0.475  0.9662  0.2974 -0.8199
29323SOL     OW89690   9.661   3.160   9.389 -0.2305  0.3956 -0.2915
29323SOL    HW189691   9.750   3.191   9.370 -0.3588  1.2869  0.5125
29323SOL    HW289692   9.636   3.110   9.311  0.4117  1.3804 -1.1510
29324SOL     OW89693   5.670   1.367   3.632  0.4779 -0.1698  0.1646
29324SOL    HW189694   5.670   1.447   3.684 -0.4398 -1.1095  1.7107
29324SOL    HW289695   5.583   1.364   3.592  0.4731 -0.4037  0.1857
29325SOL     OW89696   8.490   8.415   7.983  0.0221  0.0263 -0.3769
29325SOL    HW189697   8.400   8.393   8.008 -0.1865  0.9009 -0.3253
29325SOL    HW289698   8.543   8.379   8.054 -0.1110 -1.9835 -1.2305
29326SOL     OW89699   2.370   4.888   4.400  0.1620  0.0620 -0.5857
29326SOL    HW189700   2.371   4.797   4.372  0.1752  0.1131 -0.7508
29326SOL    HW289701   2.393   4.885   4.493 -1.0600 -0.2146 -0.2763
29327SOL     OW89702   0.610   5.849   6.579  0.5922 -0.1355 -0.1934
29327SOL    HW189703   0.634   5.892   6.661 -1.5486  0.5035  0.1392
29327SOL    HW289704   0.648   5.905   6.511  1.4406 -0.0741  0.3077
29328SOL     OW89705   1.235   0.344   9.166 -0.1363  0.4916 -0.5845
29328SOL    HW189706   1.172   0.359   9.096  0.4120 -0.8141 -1.3972
29328SOL    HW289707   1.206   0.263   9.207 -1.4814  2.1162  1.9185
29329SOL     OW89708   9.183   4.591   5.667 -0.0465 -0.1475 -0.3671
29329SOL    HW189709   9.238   4.516   5.689  0.3751  0.5512  1.0808
29329SOL    HW289710   9.166   4.581   5.573  2.4774 -0.4534 -0.8739
29330SOL     OW89711   5.858   7.397   8.227  0.0535  0.2382 -0.6918
29330SOL    HW189712   5.799   7.334   8.269 -1.7867  0.6315 -2.5123
29330SOL    HW289713   5.915   7.343   8.172  1.5796 -0.1600  1.2057
29331SOL     OW89714   0.571   6.120   0.164  0.9167  0.6628  0.2539
29331SOL    HW189715   0.526   6.122   0.080 -0.2503  0.4308  0.8587
29331SOL    HW289716   0.652   6.072   0.147  0.3172 -0.0831 -0.5597
29332SOL     OW89717   8.049   2.344   5.744 -0.7035 -0.0257  0.0102
29332SOL    HW189718   8.030   2.377   5.832 -1.0323 -0.1074 -0.0300
29332SOL    HW289719   8.114   2.405   5.709 -1.2962  0.5785 -0.0642
29333SOL     OW89720   0.182   6.456   6.000 -0.0856 -0.5620 -0.4350
29333SOL    HW189721   0.260   6.502   5.970  0.0217 -0.2059  0.3620
29333SOL    HW289722   0.155   6.503   6.079  0.2465 -2.0763  0.6291
29334SOL     OW89723   6.423   3.253   3.793 -0.1757  0.0267  0.1064
29334SOL    HW189724   6.343   3.287   3.832 -0.3155 -0.3721  0.1626
29334SOL    HW289725   6.439   3.310   3.718  0.6520  1.4539  1.2978
29335SOL     OW89726   5.532   4.180   2.943  0.0475  0.5593  0.3714
29335SOL    HW189727   5.525   4.239   3.018  0.1938 -0.0708  0.8872
29335SOL    HW289728   5.492   4.229   2.870  0.7469  1.5451  0.6333
29336SOL     OW89729   3.162   3.327   2.926 -0.6383 -0.1236  0.1922
29336SOL    HW189730   3.175   3.308   3.019  0.9811  0.6467  0.1584
29336SOL    HW289731   3.069   3.350   2.920 -1.0219 -1.1932  1.4140
29337SOL     OW89732   5.105   1.691   6.752  0.4021 -0.4216  0.1581
29337SOL    HW189733   5.179   1.639   6.784  0.8027 -0.4094 -0.7188
29337SOL    HW289734   5.145   1.771   6.718 -0.1630  0.2368  0.9927
29338SOL     OW89735   1.756   1.133   2.737 -0.4977 -0.0029 -0.2645
29338SOL    HW189736   1.824   1.103   2.676  0.1197 -0.4934  0.6277
29338SOL    HW289737   1.719   1.210   2.696  0.1396 -0.1296 -1.1029
29339SOL     OW89738   0.735   6.445   2.376 -0.5767  0.0744 -0.0852
29339SOL    HW189739   0.827   6.429   2.397 -0.0893 -0.4189 -2.3342
29339SOL    HW289740   0.738   6.515   2.310 -1.7542 -0.3482 -0.6016
29340SOL     OW89741   3.606   2.286   4.118 -0.3226 -0.5103  0.1317
29340SOL    HW189742   3.596   2.299   4.212 -1.1419  2.9242 -0.2883
29340SOL    HW289743   3.519   2.305   4.081  0.1259 -1.1686 -1.3676
29341SOL     OW89744   4.073   4.436   8.905  0.4744  0.6819 -0.1484
29341SOL    HW189745   4.143   4.379   8.872  1.3531  1.6713 -0.0507
29341SOL    HW289746   4.084   4.434   9.000  0.4229  0.9176 -0.1389
29342SOL     OW89747   1.916   7.601   1.856  0.1942 -0.4930  0.1146
29342SOL    HW189748   1.977   7.675   1.845  0.5428 -0.6712  0.7766
29342SOL    HW289749   1.973   7.525   1.867 -0.1541 -0.6711  0.6866
29343SOL     OW89750   4.600   0.406   6.998  0.0441 -0.0661  0.3825
29343SOL    HW189751   4.514   0.446   7.013  0.4090  0.9130 -0.0843
29343SOL    HW289752   4.663   0.476   7.014  0.7735 -0.7792  0.7519
29344SOL     OW89753   5.709   4.719   5.687  0.1863 -0.1902 -0.3148
29344SOL    HW189754   5.785   4.775   5.669  0.7542 -1.1473 -1.0494
29344SOL    HW289755   5.685   4.685   5.601 -0.3373 -0.8271  0.0791
29345SOL     OW89756   2.828   0.154   1.053 -0.2351 -0.0903 -0.4046
29345SOL    HW189757   2.881   0.147   0.973  0.3466 -0.0557 -0.0259
29345SOL    HW289758   2.737   0.152   1.021 -0.0119  0.1477 -1.0837
29346SOL     OW89759   6.555   3.579   5.733  0.6558 -0.3918 -0.5112
29346SOL    HW189760   6.569   3.594   5.826  0.0105 -1.6947 -0.1710
29346SOL    HW289761   6.461   3.562   5.726  0.4842  0.8287 -1.5879
29347SOL     OW89762   0.077   7.249   7.857  0.1442 -0.2857  0.1132
29347SOL    HW189763   0.077   7.182   7.925  1.1820  0.8528  1.2971
29347SOL    HW289764   0.150   7.307   7.880 -0.6438  1.1906 -0.9124
29348SOL     OW89765   1.231   4.286   8.441 -0.0170  0.0980  0.0714
29348SOL    HW189766   1.165   4.259   8.505  1.0517  1.0754  1.6345
29348SOL    HW289767   1.214   4.379   8.427 -0.5325 -0.1970 -1.4756
29349SOL     OW89768   2.628   2.181   5.800 -0.5574 -0.1293  0.2630
29349SOL    HW189769   2.564   2.246   5.772 -2.3338 -2.0286 -0.3320
29349SOL    HW289770   2.663   2.215   5.883 -0.9739  1.8132 -0.3176
29350SOL     OW89771   8.957   1.140   0.950  0.3874  0.0003 -0.3025
29350SOL    HW189772   8.990   1.105   1.033 -0.7637 -1.2588 -0.3525
29350SOL    HW289773   8.877   1.090   0.933 -0.7311  1.9280 -0.9452
29351SOL     OW89774   1.419   5.340   0.322 -0.4017 -0.2753  0.1680
29351SOL    HW189775   1.353   5.370   0.385 -0.0500 -0.2676  0.5379
29351SOL    HW289776   1.500   5.382   0.350  0.0378 -1.3014  0.5038
29352SOL     OW89777   3.807   7.872   5.045 -0.4593  0.0546 -0.9394
29352SOL    HW189778   3.902   7.859   5.051 -0.4808  0.5055  1.4466
29352SOL    HW289779   3.792   7.959   5.081 -2.0185 -1.4006  2.3974
29353SOL     OW89780   0.771   3.490   8.238  0.4986  0.1756 -0.2694
29353SOL    HW189781   0.835   3.422   8.260  0.7772  0.6853  0.5413
29353SOL    HW289782   0.719   3.501   8.318 -1.5676 -1.2155 -1.3132
29354SOL     OW89783   8.432   1.216   2.086  0.2432 -0.5817  0.3605
29354SOL    HW189784   8.376   1.292   2.101  0.1084 -0.6614  0.2620
29354SOL    HW289785   8.373   1.141   2.093  0.5929 -0.7660  1.7024
29355SOL     OW89786   7.289   9.498   4.999 -0.4221  0.2420  0.3003
29355SOL    HW189787   7.203   9.518   4.962  0.1026  0.3942 -0.9084
29355SOL    HW289788   7.351   9.522   4.929  0.4607 -2.2134  0.1363
29356SOL     OW89789   6.330   1.268   4.975 -0.3546 -0.3868  0.3322
29356SOL    HW189790   6.400   1.306   5.027 -1.7576  1.4531  0.9547
29356SOL    HW289791   6.308   1.187   5.021  0.1376 -0.0678  1.1526
29357SOL     OW89792   9.183   4.761   1.051 -0.5297 -0.1901  0.2316
29357SOL    HW189793   9.182   4.767   0.955 -2.1975  0.9517  0.2757
29357SOL    HW289794   9.173   4.668   1.069 -0.3020 -0.4081 -0.7008
29358SOL     OW89795   5.222   3.444   7.565  0.4487 -0.2130 -0.0428
29358SOL    HW189796   5.169   3.454   7.644  1.5983  0.2334  0.7056
29358SOL    HW289797   5.215   3.529   7.522 -1.1634 -0.8299 -1.1059
29359SOL     OW89798   6.514   0.527   8.967 -0.5030  0.2381 -0.2881
29359SOL    HW189799   6.456   0.459   9.001 -0.3351  1.3735  2.5488
29359SOL    HW289800   6.458   0.583   8.914 -1.7598  0.5538  1.3049
29360SOL     OW89801   9.057   8.443   0.647 -0.0022 -0.1444  0.1123
29360SOL    HW189802   9.132   8.488   0.609 -0.7189  1.7605  0.8461
29360SOL    HW289803   9.019   8.395   0.573  1.3214 -0.3234 -0.4901
29361SOL     OW89804   5.493   3.299   1.832 -0.3208  0.3576  0.3731
29361SOL    HW189805   5.465   3.267   1.918  0.6948  0.9155  0.9270
29361SOL    HW289806   5.582   3.331   1.846  0.3843 -0.7749 -1.1882
29362SOL     OW89807   5.827   3.893   4.025  0.1684 -0.3803  0.3685
29362SOL    HW189808   5.915   3.929   4.017 -0.2067  0.5739  0.3625
29362SOL    HW289809   5.825   3.852   4.112  0.4782 -0.0239  0.5450
29363SOL     OW89810   6.222   6.073   3.964 -0.3010 -0.6365 -0.5192
29363SOL    HW189811   6.175   5.990   3.975 -0.9645 -0.3913 -1.3733
29363SOL    HW289812   6.262   6.066   3.878 -1.1296  0.2788 -1.0005
29364SOL     OW89813   8.172   2.796   8.916 -0.3377 -0.0153  0.3562
29364SOL    HW189814   8.234   2.800   8.989 -0.2764  1.6589  0.2431
29364SOL    HW289815   8.087   2.784   8.956 -0.1690 -0.3011  0.6303
29365SOL     OW89816   9.099   5.853   7.345  0.0988 -0.0455 -0.1440
29365SOL    HW189817   9.064   5.930   7.389 -1.7182 -1.2786  0.6671
29365SOL    HW289818   9.084   5.781   7.405  2.9159 -0.9179 -0.3266
29366SOL     OW89819   5.682   8.783   7.911  0.4911 -0.3274  0.1345
29366SOL    HW189820   5.741   8.805   7.839 -0.5927 -1.5162 -1.1747
29366SOL    HW289821   5.737   8.735   7.973  0.5498 -3.6636 -2.2149
29367SOL     OW89822   2.858   2.041   5.582  0.3271 -0.1047 -0.0911
29367SOL    HW189823   2.802   2.041   5.660 -0.3128  0.6207 -0.5395
29367SOL    HW289824   2.939   2.082   5.611  0.4249 -0.6371  0.4145
29368SOL     OW89825   2.502   7.064   2.585  0.1764 -0.0734  0.0008
29368SOL    HW189826   2.534   6.999   2.522 -2.1421 -0.6539 -0.6746
29368SOL    HW289827   2.532   7.148   2.550  1.5259 -0.6064 -0.1834
29369SOL     OW89828   8.959   1.344   7.588  0.0612  0.3647  0.8617
29369SOL    HW189829   9.031   1.308   7.640  0.5254 -0.8373 -0.5452
29369SOL    HW289830   8.990   1.431   7.563  1.1243 -0.2005  0.1394
29370SOL     OW89831   5.071   5.310   6.020  0.1133  0.1941 -0.0507
29370SOL    HW189832   5.030   5.367   6.085 -1.1451  2.1931 -2.4562
29370SOL    HW289833   5.164   5.336   6.021 -0.3579  2.0707 -0.7958
29371SOL     OW89834   1.904   2.808   8.574 -0.7135 -0.2464 -0.5188
29371SOL    HW189835   1.850   2.731   8.591 -1.1258  0.2081  0.2960
29371SOL    HW289836   1.981   2.774   8.529 -1.8447 -0.8627 -2.1065
29372SOL     OW89837   4.741   2.869   1.747  0.0083 -0.9948 -0.5205
29372SOL    HW189838   4.758   2.831   1.660 -0.7889 -0.3790 -0.9672
29372SOL    HW289839   4.767   2.960   1.739 -2.3588 -0.2722 -0.9299
29373SOL     OW89840   2.553   4.216   5.315 -0.4907  0.4112 -0.2534
29373SOL    HW189841   2.548   4.177   5.402 -0.8633 -0.7137 -0.7640
29373SOL    HW289842   2.616   4.162   5.268 -0.5314  0.8193 -0.7910
29374SOL     OW89843   5.108   3.929   2.119  0.0116  0.1708  0.0341
29374SOL    HW189844   5.055   3.864   2.073  0.6618  0.2406 -0.8425
29374SOL    HW289845   5.065   3.940   2.204 -0.1305 -1.3549  0.1725
29375SOL     OW89846   3.176   3.682   1.804  0.0779 -0.1220  0.0339
29375SOL    HW189847   3.265   3.683   1.768  0.5124 -1.4155  1.0202
29375SOL    HW289848   3.179   3.618   1.875 -0.7019  2.4040  2.5246
29376SOL     OW89849   6.669   7.812   6.257 -0.2515 -0.0740 -0.1601
29376SOL    HW189850   6.739   7.841   6.315  1.5278 -1.0774 -1.6959
29376SOL    HW289851   6.662   7.881   6.190 -0.6800 -0.0315 -0.0795
29377SOL     OW89852   2.642   6.277   4.991 -0.1553  0.1174  0.1582
29377SOL    HW189853   2.562   6.233   5.017  0.1963 -1.5503 -1.3780
29377SOL    HW289854   2.698   6.273   5.069 -0.6336 -0.9950  0.4601
29378SOL     OW89855   6.110   2.469   7.362 -0.7391 -0.1037  0.5148
29378SOL    HW189856   6.140   2.399   7.420 -2.3070 -0.1367  1.3428
29378SOL    HW289857   6.187   2.493   7.311 -0.1646 -2.4500  0.1923
29379SOL     OW89858   5.656   1.741   7.977  0.3414 -0.0646 -0.4125
29379SOL    HW189859   5.673   1.835   7.987 -1.3776  0.7600 -3.6503
29379SOL    HW289860   5.704   1.716   7.898 -2.2098 -0.8634 -1.8462
29380SOL     OW89861   1.680   5.878   0.218  0.1179 -0.8861  0.0604
29380SOL    HW189862   1.757   5.935   0.225 -0.7971  0.6225 -1.2794
29380SOL    HW289863   1.608   5.931   0.251 -0.7345 -1.3181 -1.0336
29381SOL     OW89864   0.472   5.084   8.819 -0.2118  0.3092  0.0826
29381SOL    HW189865   0.409   5.012   8.820  0.8547 -0.6715 -0.8585
29381SOL    HW289866   0.546   5.052   8.871 -0.2537  1.2561  0.7586
29382SOL     OW89867   5.772   0.562   4.679 -0.2964 -0.2598  0.0964
29382SOL    HW189868   5.709   0.627   4.711 -1.5289 -0.9511 -0.8317
29382SOL    HW289869   5.845   0.614   4.647  0.0210  0.5314  1.9624
29383SOL     OW89870   5.963   5.193   4.480 -0.5852  0.3123 -0.3898
29383SOL    HW189871   5.990   5.273   4.526 -1.0982  1.0022 -1.2630
29383SOL    HW289872   5.972   5.124   4.546  1.5188  0.7808 -0.0986
29384SOL     OW89873   4.632   8.461   5.299 -0.0160  0.4392 -0.5361
29384SOL    HW189874   4.580   8.531   5.339  0.7538  1.4602 -1.2338
29384SOL    HW289875   4.589   8.380   5.325 -0.4378  1.1243  1.0361
29385SOL     OW89876   5.832   6.019   2.485  0.4097  0.0797 -0.3839
29385SOL    HW189877   5.914   6.047   2.445  1.2721 -0.7788  0.7331
29385SOL    HW289878   5.765   6.043   2.421  1.1641  3.5136 -0.0926
29386SOL     OW89879   5.010   6.906   7.631 -0.3714 -0.1922  0.1368
29386SOL    HW189880   5.085   6.965   7.634 -1.5620  1.3270  1.0387
29386SOL    HW289881   4.985   6.894   7.722 -0.4054 -1.8048 -0.0546
29387SOL     OW89882   2.050   1.611   7.025 -0.2319 -0.7734 -0.3234
29387SOL    HW189883   2.119   1.550   6.996  1.3826  1.0098 -0.4850
29387SOL    HW289884   2.054   1.608   7.120  0.2896 -0.4683 -0.3311
29388SOL     OW89885   4.919   4.422   8.700  0.1269  0.2427 -0.3462
29388SOL    HW189886   4.837   4.377   8.718 -0.4476  1.0250 -0.8914
29388SOL    HW289887   4.894   4.494   8.641  1.2608  0.2635 -0.8336
29389SOL     OW89888   6.936   8.610   1.009  0.5481  0.1279 -0.4457
29389SOL    HW189889   7.012   8.597   0.952  1.5122  3.9104 -0.3041
29389SOL    HW289890   6.861   8.586   0.955  1.6765 -1.1865 -1.4994
29390SOL     OW89891   6.606   3.262   2.838  0.0596  0.2165 -0.2148
29390SOL    HW189892   6.701   3.260   2.849  0.0537 -2.0436 -0.0133
29390SOL    HW289893   6.589   3.203   2.764 -1.1617  0.8245 -0.4424
29391SOL     OW89894   0.163   8.485   1.087  0.5052  0.2508  0.0155
29391SOL    HW189895   0.232   8.497   1.021 -1.6994 -2.5560 -3.1519
29391SOL    HW289896   0.088   8.532   1.051 -0.9991 -2.0187 -0.0011
29392SOL     OW89897   6.430   4.413   9.054  0.8071  0.2558  0.4960
29392SOL    HW189898   6.405   4.405   8.961  1.6147  2.0784  0.0751
29392SOL    HW289899   6.371   4.480   9.088  0.0691 -0.8771  1.5089
29393SOL     OW89900   8.339   8.410   3.094 -0.2311 -0.0134 -0.3991
29393SOL    HW189901   8.248   8.424   3.119 -0.3948  0.3791 -1.1729
29393SOL    HW289902   8.344   8.316   3.074 -1.4705  0.5240 -4.0006
29394SOL     OW89903   9.315   9.327   8.390  0.2173  0.2917 -0.1915
29394SOL    HW189904   9.250   9.283   8.443 -1.2880 -0.0797 -2.2216
29394SOL    HW289905   9.328   9.270   8.314 -0.5355  2.4436 -2.0643
29395SOL     OW89906   6.234   0.488   1.944  0.0109 -0.2841 -0.1361
29395SOL    HW189907   6.183   0.414   1.977 -0.3138 -0.0964 -0.2235
29395SOL    HW289908   6.224   0.484   1.849 -1.0645  0.6373 -0.0706
29396SOL     OW89909   9.437   9.124   0.486  0.0178  0.3987  0.5515
29396SOL    HW189910   9.342   9.119   0.500  0.3143  1.3077  3.8530
29396SOL    HW289911   9.457   9.218   0.492  1.1665  0.1798  0.3933
29397SOL     OW89912   1.611   1.800   6.441  0.1496 -0.2354 -0.2221
29397SOL    HW189913   1.595   1.732   6.375  0.3680 -0.3430 -0.1630
29397SOL    HW289914   1.704   1.818   6.436  0.2560 -0.5810  0.3803
29398SOL     OW89915   4.941   8.754   2.723 -0.2521  0.4854 -0.2294
29398SOL    HW189916   4.955   8.661   2.739 -0.6658  0.5767  0.7057
29398SOL    HW289917   4.967   8.767   2.631 -1.0136 -0.7203 -0.6349
29399SOL     OW89918   9.689   7.601   6.897  0.0048 -0.1288  0.4455
29399SOL    HW189919   9.714   7.671   6.838 -0.2622 -0.9833 -0.7030
29399SOL    HW289920   9.609   7.633   6.939 -1.6760 -0.7976 -2.0617
29400SOL     OW89921   1.880   9.320   6.898 -0.3111  0.2033 -0.0133
29400SOL    HW189922   1.863   9.397   6.952 -1.8931  0.2204 -0.4895
29400SOL    HW289923   1.794   9.296   6.862  0.2728 -1.3492 -0.4531
29401SOL     OW89924   3.584   2.543   8.086 -0.3446 -0.0907  0.3464
29401SOL    HW189925   3.521   2.603   8.125 -0.9473 -0.4132 -0.1087
29401SOL    HW289926   3.540   2.511   8.006  0.5339 -0.0406 -0.1693
29402SOL     OW89927   5.349   6.904   2.836  0.4087  0.2020  0.4983
29402SOL    HW189928   5.270   6.953   2.858  0.3437 -0.0253  0.7724
29402SOL    HW289929   5.326   6.812   2.851  1.2399  0.2436  2.2382
29403SOL     OW89930   0.738   4.850   4.728  0.2264  1.1494 -0.9585
29403SOL    HW189931   0.790   4.930   4.729  1.1877  0.5432 -1.3470
29403SOL    HW289932   0.652   4.877   4.761  0.8012  2.1519 -0.2246
29404SOL     OW89933   6.898   9.430   3.143  0.0449 -0.2258  0.0474
29404SOL    HW189934   6.984   9.410   3.181  0.7433  0.8880 -0.8726
29404SOL    HW289935   6.848   9.349   3.154  1.4949 -1.1991 -0.1756
29405SOL     OW89936   6.284   9.149   6.172 -0.2056 -0.2759  0.0608
29405SOL    HW189937   6.206   9.157   6.227 -0.5056 -2.7304  0.1207
29405SOL    HW289938   6.270   9.068   6.123  2.5761 -1.2053  0.5947
29406SOL     OW89939   5.525   6.832   3.093  0.5773  0.7700  0.1516
29406SOL    HW189940   5.620   6.835   3.079  0.6626 -1.2863 -0.0782
29406SOL    HW289941   5.491   6.787   3.015 -0.3010 -0.4382  1.1825
29407SOL     OW89942   1.691   5.511   2.286 -0.2439 -0.2286 -0.4465
29407SOL    HW189943   1.707   5.430   2.238  0.5194 -0.2620 -0.1558
29407SOL    HW289944   1.723   5.580   2.228 -1.4530 -0.0627 -0.9575
29408SOL     OW89945   0.318   2.095   0.621  0.1367  0.2602  0.1652
29408SOL    HW189946   0.340   2.120   0.711  0.6763 -0.1599  0.1560
29408SOL    HW289947   0.365   2.013   0.607  0.0955  0.3508 -0.5207
29409SOL     OW89948   3.042   4.144   1.589 -0.1834  0.3961  0.0233
29409SOL    HW189949   3.053   4.055   1.622 -1.3286  0.2386  0.0275
29409SOL    HW289950   2.963   4.176   1.633 -0.2339  1.1244 -0.5827
29410SOL     OW89951   0.903   6.487   8.403 -0.2051 -0.2886  0.4441
29410SOL    HW189952   0.897   6.549   8.476  2.3438  1.9259 -1.0127
29410SOL    HW289953   0.889   6.542   8.325  1.9691 -1.5492 -0.9143
29411SOL     OW89954   1.934   5.894   4.063  0.0895  0.5841 -0.3691
29411SOL    HW189955   2.007   5.933   4.111 -0.6559  0.5032  0.8789
29411SOL    HW289956   1.902   5.964   4.007  0.4284  0.9509 -0.1078
29412SOL     OW89957   7.405   5.899   2.703 -0.2538 -0.3952  0.1874
29412SOL    HW189958   7.457   5.979   2.711 -1.0444  0.0165  1.5674
29412SOL    HW289959   7.441   5.840   2.769  0.6775 -1.4253 -1.1849
29413SOL     OW89960   1.581   8.620   5.811  0.1341  0.1753  0.2374
29413SOL    HW189961   1.612   8.690   5.755  0.4648 -0.1145  0.0548
29413SOL    HW289962   1.509   8.579   5.762  0.5688 -0.2190 -0.0708
29414SOL     OW89963   7.224   5.360   9.494  0.0020 -0.4244  0.1433
29414SOL    HW189964   7.228   5.341   9.588  1.6059  0.5511  0.3100
29414SOL    HW289965   7.298   5.313   9.456 -2.0170 -2.8336 -1.0987
29415SOL     OW89966   0.223   4.480   7.626  0.3491 -0.2433 -0.1535
29415SOL    HW189967   0.238   4.464   7.719  0.4817 -0.8026 -0.2642
29415SOL    HW289968   0.133   4.451   7.611  0.3430 -0.1967 -0.2096
29416SOL     OW89969   6.891   3.597   8.398 -0.2266 -0.1650 -0.1494
29416SOL    HW189970   6.806   3.553   8.402 -0.6088  0.4889 -0.8033
29416SOL    HW289971   6.894   3.635   8.310 -0.4764  2.2003  0.7726
29417SOL     OW89972   8.757   1.387   0.806 -0.5112  0.0799 -0.1566
29417SOL    HW189973   8.806   1.309   0.779  0.0555  0.7668 -1.2121
29417SOL    HW289974   8.712   1.361   0.886  0.2871 -1.0882 -0.0592
29418SOL     OW89975   5.905   7.275   5.546 -0.2745 -0.0468  0.4648
29418SOL    HW189976   5.931   7.184   5.541 -1.6860 -0.5169  1.0547
29418SOL    HW289977   5.982   7.321   5.578  0.2133 -1.1574  0.9283
29419SOL     OW89978   6.825   9.139   6.629 -0.1011  0.6562 -0.1085
29419SOL    HW189979   6.892   9.179   6.574 -0.7320 -0.7861 -2.0330
29419SOL    HW289980   6.873   9.102   6.703  1.2983 -0.5602 -1.5566
29420SOL     OW89981   8.070   3.487   2.673  0.3682  0.5654 -0.6471
29420SOL    HW189982   8.025   3.403   2.670  1.2024  0.1136 -0.7586
29420SOL    HW289983   8.009   3.545   2.718  0.0541 -0.2678  0.0238
29421SOL     OW89984   2.458   1.456   7.147 -0.1282 -0.5150  0.4469
29421SOL    HW189985   2.497   1.397   7.083 -0.0751  0.4218 -0.4127
29421SOL    HW289986   2.369   1.470   7.114  0.8512  2.4506 -1.2331
29422SOL     OW89987   8.449   8.419   8.687 -0.0810  0.3844  0.3617
29422SOL    HW189988   8.462   8.489   8.751 -0.1049  0.7166  0.0114
29422SOL    HW289989   8.414   8.464   8.609  1.8694  0.3159 -0.6164
29423SOL     OW89990   8.803   9.429   2.860  0.3860 -0.1440  0.5017
29423SOL    HW189991   8.866   9.379   2.808 -1.3637 -1.4398 -0.4788
29423SOL    HW289992   8.775   9.501   2.804 -0.7298 -0.9479 -0.0210
29424SOL     OW89993   5.304   4.308   0.934  0.3754  0.2208  0.6140
29424SOL    HW189994   5.275   4.380   0.990 -0.3026  1.8726 -1.7063
29424SOL    HW289995   5.230   4.247   0.933  0.4270  0.1322  1.5538
29425SOL     OW89996   5.736   0.268   1.065 -0.6634 -0.7890  0.1582
29425SOL    HW189997   5.647   0.234   1.075 -0.6099 -1.3092 -0.9796
29425SOL    HW289998   5.789   0.191   1.044 -0.2249 -0.2769 -0.6840
29426SOL     OW89999   6.562   6.904   2.257 -0.1666 -0.4535  0.0250
29426SOL    HW190000   6.470   6.908   2.230 -0.5627 -0.9985  1.2231
29426SOL    HW290001   6.598   6.989   2.233 -1.3009  0.2111  0.5827
29427SOL     OW90002   2.916   8.970   8.131 -0.5068  0.0775 -0.2430
29427SOL    HW190003   3.007   8.948   8.151 -1.3120 -2.1880  1.3344
29427SOL    HW290004   2.904   8.944   8.040 -0.2124 -2.1459  0.2945
29428SOL     OW90005   6.854   7.939   9.108  0.1092 -0.6049  0.1328
29428SOL    HW190006   6.783   7.895   9.062 -1.0901 -0.9110  2.1417
29428SOL    HW290007   6.844   8.031   9.086 -1.6041 -0.5007  1.1813
29429SOL     OW90008   0.649   0.019   7.212 -0.2501 -0.2347  0.1800
29429SOL    HW190009   0.587   0.083   7.177 -1.0245 -0.8232  0.4447
29429SOL    HW290010   0.624  -0.063   7.170  0.4526 -0.4489  0.1753
29430SOL     OW90011   4.360   1.417   0.271  0.2689 -0.6857 -0.6769
29430SOL    HW190012   4.265   1.427   0.270  0.3536  0.1295 -1.1117
29430SOL    HW290013   4.377   1.333   0.229 -0.1776 -0.1144 -2.0267
29431SOL     OW90014   5.124   0.915   4.936  0.4302  0.0210  0.0668
29431SOL    HW190015   5.075   0.913   4.854  0.3717 -1.2955  0.1097
29431SOL    HW290016   5.063   0.953   4.999  0.3602  0.7291 -0.4188
29432SOL     OW90017   5.116   6.087   2.380  0.5732  0.1835 -0.2696
29432SOL    HW190018   5.057   6.079   2.305  0.7950 -0.9175 -0.3354
29432SOL    HW290019   5.057   6.107   2.453  0.2232  0.0846 -0.5193
29433SOL     OW90020   3.626   7.101   6.750  0.0815  0.0429  0.4263
29433SOL    HW190021   3.646   7.022   6.800  0.2841  0.4347  0.9612
29433SOL    HW290022   3.633   7.073   6.658 -0.3291 -0.6828  0.6041
29434SOL     OW90023   5.577   4.653   2.715  0.1587 -0.1355 -0.4833
29434SOL    HW190024   5.648   4.589   2.713 -0.6948 -1.1033 -0.8345
29434SOL    HW290025   5.618   4.736   2.689  0.8728 -0.9634 -2.1683
29435SOL     OW90026   2.218   5.131   0.219  0.1454  0.0073 -0.4139
29435SOL    HW190027   2.236   5.038   0.229 -0.8844 -0.1909 -0.2302
29435SOL    HW290028   2.290   5.164   0.166  0.4628 -0.9213 -0.5834
29436SOL     OW90029   5.134   4.834   4.002 -0.5521 -0.2229 -0.4630
29436SOL    HW190030   5.121   4.742   3.979 -1.7001 -0.7408  1.9729
29436SOL    HW290031   5.227   4.849   3.985 -0.9142 -0.9342 -3.6304
29437SOL     OW90032   1.398   3.447   5.576 -0.0439  0.0010  0.8612
29437SOL    HW190033   1.481   3.426   5.532  0.8568  2.5644  1.2132
29437SOL    HW290034   1.369   3.529   5.536 -1.2732  0.3067  2.2972
29438SOL     OW90035   0.249   1.873   3.582 -0.1162  0.0243  0.6632
29438SOL    HW190036   0.326   1.816   3.574  1.0678  1.5533  0.8228
29438SOL    HW290037   0.199   1.856   3.502  0.8289 -0.3591  0.1379
29439SOL     OW90038   5.531   0.146   1.154 -0.1861  0.1735  0.5391
29439SOL    HW190039   5.497   0.174   1.239 -1.8443 -1.5509  0.5054
29439SOL    HW290040   5.456   0.156   1.094 -0.1944 -2.1715  0.0971
29440SOL     OW90041   8.411   3.002   9.251 -0.4194  0.2476  0.1760
29440SOL    HW190042   8.467   3.062   9.201 -1.5373  1.3030  0.1427
29440SOL    HW290043   8.470   2.965   9.317  0.5856  0.4399 -0.5859
29441SOL     OW90044   7.422   1.658   7.925 -0.0946  0.1727 -0.2132
29441SOL    HW190045   7.409   1.569   7.959 -0.6823  0.0347 -0.7881
29441SOL    HW290046   7.347   1.707   7.956  0.7666  0.7576  1.0109
29442SOL     OW90047   9.331   0.045   8.301  0.1905 -0.2641  0.5833
29442SOL    HW190048   9.305   0.050   8.393  1.9528  1.1805  1.0589
29442SOL    HW290049   9.350   0.135   8.276  0.3443 -0.7042 -1.0481
29443SOL     OW90050   9.394   4.466   6.778  0.5371  0.5988  0.0084
29443SOL    HW190051   9.307   4.478   6.816  0.5465  0.8774 -0.0597
29443SOL    HW290052   9.417   4.551   6.741  0.7609  0.4770 -0.1385
29444SOL     OW90053   6.472   6.858   5.015 -0.1794  0.4982 -0.3541
29444SOL    HW190054   6.492   6.939   5.062 -0.2258  1.2421 -1.5810
29444SOL    HW290055   6.465   6.884   4.923 -0.4216 -0.8618 -0.7476
29445SOL     OW90056   1.739   8.208   1.935 -0.1147 -0.0286 -0.3575
29445SOL    HW190057   1.746   8.156   1.855 -0.9805 -0.1007 -0.3930
29445SOL    HW290058   1.722   8.144   2.004  1.9799 -0.1282  0.1424
29446SOL     OW90059   7.641   2.851   1.086 -0.2222  0.1016 -0.3662
29446SOL    HW190060   7.653   2.881   0.997  1.5424 -0.0790 -0.2231
29446SOL    HW290061   7.645   2.930   1.140 -1.3310  0.2160 -0.4281
29447SOL     OW90062   1.442   4.248   7.978  0.2545  0.3921 -0.0038
29447SOL    HW190063   1.349   4.224   7.972 -0.0773  0.4146  3.3479
29447SOL    HW290064   1.441   4.343   7.987  0.3479  0.2318  2.2577
29448SOL     OW90065   2.521   8.661   7.491 -0.4722 -0.2272  0.5865
29448SOL    HW190066   2.602   8.609   7.488  0.5818  1.3804 -1.2320
29448SOL    HW290067   2.538   8.728   7.557  0.2251  0.8626 -0.6562
29449SOL     OW90068   6.985   1.183   8.484  0.6024 -0.5394  0.9527
29449SOL    HW190069   6.937   1.262   8.459  1.8580  0.8892  2.7504
29449SOL    HW290070   7.042   1.212   8.556  0.8665 -3.1724  1.8913
29450SOL     OW90071   8.522   8.915   9.670 -0.1685  0.3453  0.1567
29450SOL    HW190072   8.541   8.944   9.581 -1.2139  1.1703  0.1802
29450SOL    HW290073   8.537   8.992   9.725 -0.1549  0.0257  0.6048
29451SOL     OW90074   4.444   3.055   8.735 -0.2720 -0.0478 -0.4746
29451SOL    HW190075   4.355   3.083   8.759  0.3272  0.9762  0.6471
29451SOL    HW290076   4.502   3.114   8.784  1.0358 -0.5754 -1.3313
29452SOL     OW90077   2.300   4.368   8.746  0.1641  0.4313 -0.6802
29452SOL    HW190078   2.330   4.451   8.782  2.0290 -0.3070 -0.4128
29452SOL    HW290079   2.376   4.334   8.698 -1.1115 -0.3099 -2.2691
29453SOL     OW90080   3.970   5.926   4.037 -0.2723  0.4793  0.0829
29453SOL    HW190081   4.047   5.982   4.052 -0.6563  0.5791  1.9154
29453SOL    HW290082   3.901   5.987   4.010  0.2668  0.3747 -1.6954
29454SOL     OW90083   0.955   0.112   4.771 -0.3455  0.1076 -0.5016
29454SOL    HW190084   0.866   0.080   4.788  0.0796  0.0302  1.8170
29454SOL    HW290085   0.979   0.162   4.849  0.6725  2.4692 -2.1876
29455SOL     OW90086   5.076   3.329   0.248  0.0832 -0.3487 -0.5337
29455SOL    HW190087   5.093   3.278   0.327  1.3799 -0.1269 -0.6416
29455SOL    HW290088   4.997   3.290   0.211 -0.8755 -0.0856  1.1537
29456SOL     OW90089   1.952   1.079   4.568 -0.0978  0.2660  0.6233
29456SOL    HW190090   1.946   1.064   4.662  0.2301 -3.2703  0.2217
29456SOL    HW290091   2.046   1.085   4.550 -0.1086 -0.2479  0.3861
29457SOL     OW90092   9.474   3.146   9.600  0.0891  0.6913 -0.3719
29457SOL    HW190093   9.531   3.142   9.524  1.4481 -1.6194  0.6466
29457SOL    HW290094   9.513   3.214   9.655  1.7009 -0.5470  0.1102
29458SOL     OW90095   1.277   3.147   9.180  0.1253 -0.1023 -0.4279
29458SOL    HW190096   1.317   3.234   9.187  2.7355 -1.1794 -0.7983
29458SOL    HW290097   1.186   3.165   9.156  0.2789  2.5334  0.5784
29459SOL     OW90098   3.859   9.098   8.977 -0.2324 -0.0697 -0.4998
29459SOL    HW190099   3.945   9.104   9.018 -0.0322  2.4968 -1.0940
29459SOL    HW290100   3.808   9.042   9.036  1.3178 -0.1350  0.8455
29460SOL     OW90101   2.663   4.404   1.900 -0.0453  0.3887 -0.0121
29460SOL    HW190102   2.649   4.314   1.929  0.1296  0.6989  1.1047
29460SOL    HW290103   2.626   4.408   1.812  0.1997 -0.8470 -0.1849
29461SOL     OW90104   8.365   8.213   3.403 -0.5155 -0.9447  0.2683
29461SOL    HW190105   8.433   8.280   3.402 -1.7011  0.3988 -2.2066
29461SOL    HW290106   8.296   8.249   3.459  0.1124 -1.5609  1.4582
29462SOL     OW90107   5.714   4.131   9.086  0.4666 -0.2005 -0.1388
29462SOL    HW190108   5.714   4.216   9.131  0.4041 -0.0245 -0.4645
29462SOL    HW290109   5.776   4.078   9.135  1.1661  0.3151 -0.4508
29463SOL     OW90110   9.581   6.432   3.626  0.1178 -0.0129  0.4855
29463SOL    HW190111   9.594   6.500   3.560 -0.1994  0.9346  1.3590
29463SOL    HW290112   9.486   6.429   3.640  0.2772  1.0786  2.1353
29464SOL     OW90113   4.236   0.615   4.739  0.4110  0.0628 -0.1019
29464SOL    HW190114   4.183   0.675   4.685 -0.6498 -1.1741 -0.4911
29464SOL    HW290115   4.196   0.529   4.725  1.8888 -0.7486  0.4555
29465SOL     OW90116   4.346   0.564   2.197  0.2532 -0.2036 -0.5654
29465SOL    HW190117   4.276   0.550   2.260 -1.2992 -1.5761 -2.4984
29465SOL    HW290118   4.404   0.488   2.208  0.1181 -0.3169 -0.6454
29466SOL     OW90119   6.745   5.074   5.884  0.0264  0.1525 -0.2427
29466SOL    HW190120   6.702   5.101   5.803 -0.5848 -1.8347 -0.6564
29466SOL    HW290121   6.784   4.989   5.863 -0.6810 -0.7140  1.6913
29467SOL     OW90122   7.218   7.641   1.237 -1.2833 -0.2335  0.0674
29467SOL    HW190123   7.135   7.687   1.224 -2.0946 -1.3522  1.0702
29467SOL    HW290124   7.195   7.549   1.228 -0.2955 -0.5953  1.1043
29468SOL     OW90125   0.593   1.096   9.385 -0.0997  0.1688  0.1835
29468SOL    HW190126   0.653   1.157   9.343 -0.6618  1.1583  0.7703
29468SOL    HW290127   0.513   1.147   9.400 -1.2808 -1.2405 -0.9893
29469SOL     OW90128   8.999   7.873   2.844 -0.3348  0.4004  0.0523
29469SOL    HW190129   8.973   7.956   2.885 -0.0949  0.6409 -0.2660
29469SOL    HW290130   8.983   7.807   2.910 -0.5125  0.7072  0.3202
29470SOL     OW90131   7.530   6.950   5.869  0.2845  0.2116  0.1700
29470SOL    HW190132   7.468   6.921   5.937  0.5891 -1.4509 -0.2108
29470SOL    HW290133   7.507   6.897   5.793  2.3017 -0.6206  0.0873
29471SOL     OW90134   2.003   0.700   5.535  0.1430 -0.1454 -0.5652
29471SOL    HW190135   1.927   0.695   5.593  0.2746  0.2290 -0.3566
29471SOL    HW290136   2.039   0.611   5.534 -0.9601 -0.6016 -1.5675
29472SOL     OW90137   6.995   2.782   0.744 -0.7307  0.1722  0.5314
29472SOL    HW190138   7.063   2.829   0.697 -0.8428  1.0328  1.2135
29472SOL    HW290139   7.012   2.690   0.725  0.6754  0.3664  0.7665
29473SOL     OW90140   6.805   2.992   0.402 -0.1313 -0.0664 -0.0620
29473SOL    HW190141   6.737   2.955   0.458 -1.6865  1.6674 -0.6865
29473SOL    HW290142   6.867   3.031   0.463 -1.2883  0.9464  0.5179
29474SOL     OW90143   6.306   7.262   4.321 -0.4147  0.1914 -0.5618
29474SOL    HW190144   6.240   7.328   4.300 -0.4688  0.1938 -0.3924
29474SOL    HW290145   6.390   7.306   4.310 -0.4394  0.1715 -0.8368
29475SOL     OW90146   9.596   0.153   6.628  0.5863 -0.2401  0.5402
29475SOL    HW190147   9.619   0.066   6.595 -0.1832 -0.3362  0.2307
29475SOL    HW290148   9.508   0.143   6.663  0.2796  0.5274  0.0317
29476SOL     OW90149   8.760   7.587   9.260  0.0285 -0.1551 -0.1069
29476SOL    HW190150   8.713   7.614   9.339  0.1253  0.2316 -0.1775
29476SOL    HW290151   8.852   7.593   9.284  0.0804  0.8531 -0.5276
29477SOL     OW90152   3.611   1.454   1.271  0.1797  0.2964 -0.0284
29477SOL    HW190153   3.607   1.539   1.227 -1.0933  1.0089  1.3938
29477SOL    HW290154   3.676   1.405   1.220  1.7156  2.4317 -0.3043
29478SOL     OW90155   1.787   5.286   6.188  0.7180 -0.3637  0.1533
29478SOL    HW190156   1.810   5.360   6.131  3.0815 -0.9770  0.2199
29478SOL    HW290157   1.781   5.324   6.275 -0.5003  0.1466 -0.1321
29479SOL     OW90158   5.877   8.466   3.208 -0.1429 -0.0225 -0.0116
29479SOL    HW190159   5.824   8.542   3.233  0.3595 -0.3962  2.4859
29479SOL    HW290160   5.950   8.502   3.159 -0.9741  0.8479 -0.6574
29480SOL     OW90161   7.696   6.557   4.195 -0.0912 -0.0244  0.4051
29480SOL    HW190162   7.707   6.512   4.278 -0.0272 -0.3100  0.2421
29480SOL    HW290163   7.761   6.518   4.137 -0.6383 -0.3563  0.0071
29481SOL     OW90164   7.993   1.806   3.164 -0.6369 -0.0130  0.1469
29481SOL    HW190165   7.946   1.749   3.104 -0.5039  1.0726 -1.0391
29481SOL    HW290166   8.059   1.850   3.109  1.0260 -0.6677  1.5367
29482SOL     OW90167   9.154   6.790   8.514  0.3747  0.4015 -0.1674
29482SOL    HW190168   9.187   6.750   8.595 -1.6085  0.2241  0.5940
29482SOL    HW290169   9.142   6.716   8.455 -0.9487  0.1471  0.3976
29483SOL     OW90170   6.546   1.295   1.828 -0.5006 -0.0117  0.0618
29483SOL    HW190171   6.593   1.272   1.909  1.3100  4.8410  0.7399
29483SOL    HW290172   6.614   1.332   1.771 -2.0432 -1.6538 -3.0758
29484SOL     OW90173   2.486   7.528   7.405 -0.6240  0.8387  0.2162
29484SOL    HW190174   2.508   7.577   7.483 -1.0284  2.0791 -0.4243
29484SOL    HW290175   2.391   7.519   7.408 -0.4505 -1.4236  1.1769
29485SOL     OW90176   8.114   2.493   2.464 -0.2165 -0.7924  0.3231
29485SOL    HW190177   8.173   2.530   2.530 -2.6707 -0.9824  2.7895
29485SOL    HW290178   8.037   2.464   2.513 -1.1734 -3.2914 -2.3211
29486SOL     OW90179   1.856   3.683   1.261  0.0370 -0.0056 -0.3635
29486SOL    HW190180   1.867   3.751   1.328 -0.2190 -0.5762  0.2776
29486SOL    HW290181   1.787   3.717   1.203  0.3491  0.5514 -0.4114
29487SOL     OW90182   4.502   5.090   5.542  0.2725 -0.2665 -0.2105
29487SOL    HW190183   4.527   5.156   5.478 -0.2855  0.4416  0.2924
29487SOL    HW290184   4.573   5.026   5.539  1.1364  0.6763 -0.2585
29488SOL     OW90185   2.971   4.195   6.750  0.4030 -0.4032  0.6673
29488SOL    HW190186   3.002   4.153   6.830 -1.1294 -0.4867  1.2451
29488SOL    HW290187   2.888   4.237   6.775 -0.2694 -0.6906 -0.9470
29489SOL     OW90188   6.128   5.356   7.876 -0.7373 -0.0004 -0.2816
29489SOL    HW190189   6.053   5.364   7.934 -1.1475  0.6852 -0.8953
29489SOL    HW290190   6.108   5.280   7.820 -1.7478  1.1199 -1.5209
29490SOL     OW90191   0.390   6.806   8.356 -0.4836 -0.4248  0.2552
29490SOL    HW190192   0.449   6.732   8.340  0.6294  0.6210 -0.7322
29490SOL    HW290193   0.307   6.781   8.315  0.1090 -0.8252 -0.7174
29491SOL     OW90194   4.341   0.475   7.301  0.1411 -0.1278  0.1344
29491SOL    HW190195   4.358   0.381   7.298 -0.1989 -0.1888 -0.0241
29491SOL    HW290196   4.418   0.512   7.343  1.1820 -0.2610 -1.5456
29492SOL     OW90197   6.413   5.162   6.258 -0.0401 -0.2697  0.1525
29492SOL    HW190198   6.487   5.137   6.203 -0.8101 -0.3423 -0.8666
29492SOL    HW290199   6.410   5.095   6.326  0.0655 -0.9787 -0.5265
29493SOL     OW90200   7.024   8.431   9.068  0.0795  0.0644  0.1735
29493SOL    HW190201   7.108   8.439   9.024 -0.4116  1.1156 -0.5946
29493SOL    HW290202   6.962   8.477   9.012 -1.2825 -1.7775  0.0601
29494SOL     OW90203   4.223   7.768   9.172 -0.2335  0.1037  0.6319
29494SOL    HW190204   4.297   7.823   9.200 -0.3395  0.4671  0.2094
29494SOL    HW290205   4.261   7.681   9.164  0.2751  0.3716 -0.0348
29495SOL     OW90206   6.228   0.661   4.701 -0.0480 -0.1063  0.5684
29495SOL    HW190207   6.193   0.598   4.765  0.1110 -0.7478  0.0307
29495SOL    HW290208   6.323   0.653   4.709 -0.0110 -1.0060 -0.5156
29496SOL     OW90209   2.569   4.162   0.955 -0.0250 -0.0971  0.1953
29496SOL    HW190210   2.534   4.119   1.033 -0.2902  1.5253  1.0107
29496SOL    HW290211   2.494   4.173   0.897 -0.0782 -0.1410  0.2558
29497SOL     OW90212   8.642   1.358   7.895 -0.1587  0.0043  0.1326
29497SOL    HW190213   8.725   1.316   7.916  0.2445  0.5518 -0.3498
29497SOL    HW290214   8.664   1.450   7.882 -0.8707  0.1913  0.1835
29498SOL     OW90215   3.509   5.207   0.972  0.5199  0.5747  0.6128
29498SOL    HW190216   3.493   5.113   0.977 -2.4568  0.9228 -0.3409
29498SOL    HW290217   3.513   5.226   0.878 -2.4045  1.7686  0.6258
29499SOL     OW90218   4.033   7.997   0.607 -0.0463 -0.1602 -0.0120
29499SOL    HW190219   3.939   7.980   0.597  0.1081 -1.3626  0.4642
29499SOL    HW290220   4.067   7.999   0.517 -0.1459 -2.1302 -0.1428
29500SOL     OW90221   4.020   1.082   6.636 -0.3999 -0.4362  0.0339
29500SOL    HW190222   4.041   1.084   6.542  0.0071 -0.5984  0.1170
29500SOL    HW290223   3.997   1.172   6.657 -2.4195 -0.7566 -0.6382
29501SOL     OW90224   3.527   0.599   1.228  0.0857 -0.3831 -0.7903
29501SOL    HW190225   3.513   0.559   1.314 -0.2878  0.8632 -0.2508
29501SOL    HW290226   3.600   0.550   1.191  2.8460  1.3716  1.8087
29502SOL     OW90227   3.736   8.058   7.121  0.3706 -0.3490  0.0428
29502SOL    HW190228   3.806   8.000   7.149  1.1527  0.0489 -0.9984
29502SOL    HW290229   3.760   8.083   7.032 -0.2505  1.0995  0.2556
29503SOL     OW90230   2.160   8.371   2.785 -0.8532  0.0074 -0.8637
29503SOL    HW190231   2.249   8.347   2.809 -0.7109  1.2575 -0.0919
29503SOL    HW290232   2.118   8.287   2.765 -0.7321 -1.1502  2.8924
29504SOL     OW90233   0.452   3.142   4.273  0.1438 -0.0097  0.0996
29504SOL    HW190234   0.432   3.063   4.323 -0.0843  0.6391  1.0753
29504SOL    HW290235   0.389   3.207   4.305  0.7391  0.7461 -0.2208
29505SOL     OW90236   6.167   0.571   4.082 -0.0162  0.5552 -0.2054
29505SOL    HW190237   6.238   0.551   4.144 -0.2426 -0.7271 -0.3196
29505SOL    HW290238   6.196   0.532   4.000 -0.9740 -0.2648 -0.1753
29506SOL     OW90239   5.631   7.619   9.610 -0.2910 -0.2359 -0.0712
29506SOL    HW190240   5.559   7.567   9.573 -0.0295 -0.0512 -0.8768
29506SOL    HW290241   5.589   7.698   9.643 -0.9575 -1.6949  2.8457
29507SOL     OW90242   5.579   4.907   0.472 -0.6076 -0.2482  0.6549
29507SOL    HW190243   5.617   4.821   0.456 -0.9323  0.0095 -1.8183
29507SOL    HW290244   5.485   4.891   0.479 -0.6502 -0.1284  0.3818
29508SOL     OW90245   1.050   8.081   4.628  0.0720  0.7188 -0.2634
29508SOL    HW190246   1.082   8.021   4.696 -0.9256  0.9960  0.4821
29508SOL    HW290247   1.097   8.055   4.549 -1.1589 -1.8326 -0.2535
29509SOL     OW90248   0.610   4.034   4.993 -0.4118  0.5337 -0.4814
29509SOL    HW190249   0.639   3.943   4.997 -1.9116  0.0361 -0.0866
29509SOL    HW290250   0.518   4.031   5.020 -0.0629  2.3832  1.1070
29510SOL     OW90251   1.367   2.298   8.900 -0.1682  0.4273  0.2114
29510SOL    HW190252   1.272   2.313   8.899 -0.1566  0.5114  0.5198
29510SOL    HW290253   1.377   2.205   8.880 -0.3392  0.2916  0.7418
29511SOL     OW90254   9.277   7.127   7.114 -0.0457 -0.2183 -0.1584
29511SOL    HW190255   9.198   7.180   7.123 -0.0937 -0.0559 -1.4821
29511SOL    HW290256   9.322   7.137   7.198 -0.6139  1.0008  0.0155
29512SOL     OW90257   3.516   5.438   5.839 -0.4501  0.3441  0.3007
29512SOL    HW190258   3.603   5.399   5.830 -0.6126 -0.0961  0.5808
29512SOL    HW290259   3.464   5.399   5.769 -1.2644 -1.8208  1.9606
29513SOL     OW90260   6.180   6.305   4.063  0.1675  0.6665  0.8611
29513SOL    HW190261   6.172   6.221   4.020 -1.3750  0.4988  1.4214
29513SOL    HW290262   6.097   6.350   4.046  0.1565  1.2378  2.2563
29514SOL     OW90263   4.395   4.819   4.750 -0.1891  0.1618 -0.7374
29514SOL    HW190264   4.376   4.802   4.657 -2.1204  1.5759 -0.6720
29514SOL    HW290265   4.448   4.898   4.749  0.9792 -0.6032 -0.6665
29515SOL     OW90266   6.035   4.484   7.619 -0.2217  0.0146  0.6410
29515SOL    HW190267   6.002   4.555   7.564 -0.2893 -0.6413 -0.1856
29515SOL    HW290268   6.114   4.521   7.660 -0.3933  0.6473  0.4145
29516SOL     OW90269   4.088   8.317   1.655  0.6610  0.2554 -0.3404
29516SOL    HW190270   4.077   8.346   1.564 -0.5628  1.6942  0.2258
29516SOL    HW290271   4.021   8.250   1.667  0.4179  0.5030 -0.3182
29517SOL     OW90272   4.653   1.661   4.096  0.8531  0.4960  0.2175
29517SOL    HW190273   4.598   1.694   4.167  0.0696 -0.8291  0.2675
29517SOL    HW290274   4.619   1.705   4.018 -0.8613 -0.8347  0.1321
29518SOL     OW90275   6.377   3.307   0.244 -0.2865  0.3752 -0.2683
29518SOL    HW190276   6.469   3.291   0.264 -0.2001 -0.6103 -1.3384
29518SOL    HW290277   6.332   3.302   0.328  0.5188 -0.0586  0.1388
29519SOL     OW90278   0.547   1.163   3.738  0.4923  0.1594 -0.9181
29519SOL    HW190279   0.497   1.132   3.813 -0.0539 -0.4124 -1.5121
29519SOL    HW290280   0.525   1.256   3.732  2.9602  1.0593  1.5269
29520SOL     OW90281   2.014   6.904   0.643  0.2204 -0.3729 -0.3779
29520SOL    HW190282   2.067   6.980   0.667 -1.7093  1.1598 -0.7450
29520SOL    HW290283   1.924   6.928   0.665 -0.4683 -2.6063 -0.4154
29521SOL     OW90284   4.206   7.667   2.842  0.1699  0.4052  0.1822
29521SOL    HW190285   4.187   7.706   2.927  1.6414 -0.1497  0.8091
29521SOL    HW290286   4.300   7.648   2.845 -0.3445 -2.7249 -0.2438
29522SOL     OW90287   5.848   9.520   8.527  0.5165  0.6073 -0.0489
29522SOL    HW190288   5.890   9.599   8.560  1.0503  0.4941 -0.4455
29522SOL    HW290289   5.920   9.466   8.493 -0.0062  0.7708 -1.5099
29523SOL     OW90290   2.538   9.604   3.949 -0.2131  0.3957 -0.2757
29523SOL    HW190291   2.541   9.626   4.042  0.6577 -0.4691 -0.0879
29523SOL    HW290292   2.629   9.603   3.921 -0.2893 -1.4813 -0.6043
29524SOL     OW90293   3.232   6.353   9.088  0.3214 -0.4204 -0.1089
29524SOL    HW190294   3.306   6.403   9.123  1.1038 -0.1778 -2.0103
29524SOL    HW290295   3.243   6.356   8.993 -2.3114 -0.1141 -0.4887
29525SOL     OW90296   4.538   3.350   1.336  0.3345 -0.3870  0.4597
29525SOL    HW190297   4.469   3.336   1.271  2.4065  0.4167 -2.0641
29525SOL    HW290298   4.526   3.279   1.399 -2.6032 -0.4169  0.0405
29526SOL     OW90299   4.200   3.226   8.430  0.0252  0.3069 -0.5764
29526SOL    HW190300   4.162   3.250   8.514 -1.1881 -1.3028 -0.6178
29526SOL    HW290301   4.202   3.130   8.430  0.6757  0.2780 -2.0869
29527SOL     OW90302   6.652   9.608   7.362  1.0476 -0.8092 -0.0288
29527SOL    HW190303   6.660   9.513   7.369 -1.1562 -0.9962  0.5834
29527SOL    HW290304   6.691   9.641   7.443  1.3645 -1.1990 -0.0154
29528SOL     OW90305   0.734   8.846   3.678  0.1916  0.2195 -0.1208
29528SOL    HW190306   0.705   8.934   3.701 -2.2093 -1.1098  2.5892
29528SOL    HW290307   0.815   8.834   3.727  0.5756  0.9224 -0.5697
29529SOL     OW90308   0.420   7.883   6.045  0.4245 -0.0632 -0.6481
29529SOL    HW190309   0.338   7.907   6.088  0.1671 -2.0192  0.0573
29529SOL    HW290310   0.480   7.954   6.067 -0.6894  0.7214 -0.0103
29530SOL     OW90311   3.218   5.293   7.923  0.0749  0.0886 -0.8815
29530SOL    HW190312   3.143   5.284   7.863  0.5532 -1.1885 -1.3028
29530SOL    HW290313   3.202   5.229   7.992  1.1862 -0.7704 -1.4076
29531SOL     OW90314   4.607   2.391   5.680 -0.1034  0.3843 -0.5880
29531SOL    HW190315   4.671   2.323   5.659 -1.8365 -0.8095 -2.3324
29531SOL    HW290316   4.580   2.371   5.770 -1.0389 -1.6910 -1.2672
29532SOL     OW90317   8.434   5.842   6.675  0.1785 -0.4852 -0.9733
29532SOL    HW190318   8.424   5.932   6.644 -0.8962 -1.0581 -2.3642
29532SOL    HW290319   8.392   5.842   6.762  0.1330  0.3292 -0.9876
29533SOL     OW90320   6.176   0.053   0.990 -0.2738 -0.7734  0.5498
29533SOL    HW190321   6.258   0.098   0.968 -0.8787  0.6544  1.1424
29533SOL    HW290322   6.200  -0.008   1.060  0.7183 -2.0090 -0.8114
29534SOL     OW90323   7.708   2.182   3.383 -0.2133  0.1384  0.1352
29534SOL    HW190324   7.754   2.177   3.467  0.1899  1.3387  0.0015
29534SOL    HW290325   7.751   2.117   3.328 -0.7517 -0.9573  0.9660
29535SOL     OW90326   7.988   0.411   9.147 -0.1432  0.5718 -0.4523
29535SOL    HW190327   8.081   0.425   9.131  0.0066 -0.3165 -0.3920
29535SOL    HW290328   7.967   0.330   9.101 -0.4485 -0.2579  1.0715
29536SOL     OW90329   7.422   1.382   8.806  0.7177 -0.3013 -0.5506
29536SOL    HW190330   7.444   1.440   8.734 -0.1665 -0.2001 -0.7504
29536SOL    HW290331   7.502   1.331   8.821  2.1347  2.1541  0.8291
29537SOL     OW90332   5.304   0.235   9.352 -0.1316 -0.4175 -0.1197
29537SOL    HW190333   5.382   0.179   9.351  0.2646  0.1240 -0.0231
29537SOL    HW290334   5.234   0.179   9.318 -0.3822 -1.8835  2.5179
29538SOL     OW90335   4.773   5.028   5.899 -0.2723  0.7806  0.1987
29538SOL    HW190336   4.812   5.089   5.838 -1.1010  0.2796 -0.8597
29538SOL    HW290337   4.838   5.020   5.970  1.4429  0.1205 -1.3776
29539SOL     OW90338   4.457   7.892   9.258 -0.7671  0.0118 -0.3228
29539SOL    HW190339   4.522   7.841   9.210 -0.4491 -0.2911  0.4093
29539SOL    HW290340   4.469   7.982   9.227  1.3610  0.3291  1.1728
29540SOL     OW90341   7.926   9.264   8.422 -0.0879 -0.1616 -0.1545
29540SOL    HW190342   7.870   9.331   8.462 -0.2047 -0.7895  0.7596
29540SOL    HW290343   7.899   9.182   8.463  0.2055 -0.7495 -1.1046
29541SOL     OW90344   9.039   3.232   6.434  0.3179 -0.8893  0.7315
29541SOL    HW190345   9.116   3.251   6.488  2.0594  1.8280 -2.3773
29541SOL    HW290346   8.990   3.314   6.432 -0.8860 -1.6058 -0.0267
29542SOL     OW90347   1.515   4.056   3.295  0.9389  0.5303 -0.1262
29542SOL    HW190348   1.603   4.018   3.291  1.1696  0.7621  1.8791
29542SOL    HW290349   1.527   4.147   3.266  1.1872  0.3299 -0.6672
29543SOL     OW90350   0.753   2.645   3.749 -0.7686 -0.7597 -0.0288
29543SOL    HW190351   0.745   2.657   3.654  0.7378  1.4741  0.0408
29543SOL    HW290352   0.684   2.701   3.786 -0.4760 -0.5436  0.1965
29544SOL     OW90353   6.824   4.914   7.430 -0.1386  0.7830  0.5485
29544SOL    HW190354   6.880   4.836   7.432 -2.2076 -0.8144  0.3616
29544SOL    HW290355   6.751   4.888   7.374 -1.6791  2.3260  1.7590
29545SOL     OW90356   1.255   7.592   1.675  0.1904 -0.1157 -0.0067
29545SOL    HW190357   1.164   7.620   1.679  0.0346 -0.5216 -0.5476
29545SOL    HW290358   1.306   7.668   1.703 -0.2563  0.4590 -0.7314
29546SOL     OW90359   0.035   6.605   0.646 -0.4759  0.1294  0.6810
29546SOL    HW190360  -0.014   6.528   0.674  0.6360 -1.6001 -1.7845
29546SOL    HW290361   0.126   6.577   0.646  0.0627  1.7780  0.6513
29547SOL     OW90362   8.134   7.006   4.087 -0.3252  0.0544  0.4618
29547SOL    HW190363   8.132   7.014   3.992 -1.8414  0.6199  0.5261
29547SOL    HW290364   8.214   6.957   4.105  0.3147  0.4961 -1.0543
29548SOL     OW90365   7.496   7.916   7.932  0.0109 -0.4782  0.3831
29548SOL    HW190366   7.415   7.884   7.973 -0.7885 -0.1931 -0.9345
29548SOL    HW290367   7.489   7.887   7.841  1.6596 -0.9157  0.3719
29549SOL     OW90368   2.871   3.634   4.751 -0.4358  0.3077 -0.6904
29549SOL    HW190369   2.789   3.681   4.765 -0.9004 -0.8576  0.8310
29549SOL    HW290370   2.847   3.561   4.693 -0.8254 -0.7835  0.7685
29550SOL     OW90371   2.653   3.780   6.318 -0.2732 -0.0017 -0.6942
29550SOL    HW190372   2.689   3.739   6.397 -0.4899  1.1993  0.0562
29550SOL    HW290373   2.561   3.797   6.340 -0.1117  1.1734 -0.8350
29551SOL     OW90374   6.357   7.514   5.616  0.2493  0.2834  0.0039
29551SOL    HW190375   6.423   7.495   5.550  1.7619 -0.1835  1.5759
29551SOL    HW290376   6.396   7.583   5.671 -0.5736  0.0435  0.9324
29552SOL     OW90377   8.231   3.743   2.863  0.1208  0.5947 -0.2455
29552SOL    HW190378   8.164   3.789   2.914  0.3339  0.6903 -0.0545
29552SOL    HW290379   8.199   3.748   2.773 -0.2704  0.4045 -0.1242
29553SOL     OW90380   3.235   7.491   6.828  0.3865  0.3711 -0.0859
29553SOL    HW190381   3.258   7.492   6.735  0.3477  0.2395 -0.0969
29553SOL    HW290382   3.315   7.464   6.873  0.1847 -0.3468 -0.1445
29554SOL     OW90383   8.898   3.426   5.457 -0.4955 -0.1272  0.0875
29554SOL    HW190384   8.874   3.334   5.452  0.8652 -0.5212  0.2411
29554SOL    HW290385   8.984   3.426   5.499 -0.9435  1.2973  1.0680
29555SOL     OW90386   5.925   8.175   3.361 -0.4298  0.7853 -0.2398
29555SOL    HW190387   5.990   8.203   3.296  0.8071  0.8977  0.9881
29555SOL    HW290388   5.975   8.117   3.419 -1.2355  1.5198  1.2115
29556SOL     OW90389   1.402   4.124   1.258  0.0853  0.6077 -0.6892
29556SOL    HW190390   1.373   4.044   1.214 -0.1942 -0.0506  0.6287
29556SOL    HW290391   1.352   4.194   1.217 -2.2681 -0.3167  0.4392
29557SOL     OW90392   4.269   6.392   2.046  0.5695 -0.4466 -0.5696
29557SOL    HW190393   4.354   6.437   2.050  1.1215 -1.3096 -1.7857
29557SOL    HW290394   4.239   6.408   1.956 -1.4436  1.3402  0.3454
29558SOL     OW90395   2.100   4.372   0.095  0.1874 -0.0271 -0.2653
29558SOL    HW190396   2.100   4.366  -0.000  1.7148 -0.3476 -0.2749
29558SOL    HW290397   2.092   4.465   0.114 -3.3195 -0.1367 -0.5876
29559SOL     OW90398   8.170   0.927   3.648  0.0426  0.6768 -0.5616
29559SOL    HW190399   8.263   0.908   3.649 -0.1801 -0.6313  1.7261
29559SOL    HW290400   8.165   1.022   3.659  1.0915  0.7615 -0.7529
29560SOL     OW90401   7.739   9.280   4.344  0.0548 -0.5517  0.0729
29560SOL    HW190402   7.755   9.374   4.337  0.7750 -0.7292 -1.0551
29560SOL    HW290403   7.824   9.243   4.369  0.5350 -1.1489 -2.2259
29561SOL     OW90404   6.729   4.320   6.687 -0.5395  0.7183 -0.3862
29561SOL    HW190405   6.731   4.324   6.782  1.2808 -2.1111 -0.2213
29561SOL    HW290406   6.766   4.404   6.659 -0.1146  1.1641  1.3980
29562SOL     OW90407   5.343   6.442   2.836  0.0902  0.3869 -0.3496
29562SOL    HW190408   5.400   6.399   2.900 -0.0651  1.8775  0.8418
29562SOL    HW290409   5.280   6.374   2.812 -0.4557  0.0188  1.8563
29563SOL     OW90410   0.701   4.038   1.344 -0.4711  0.1583 -0.1794
29563SOL    HW190411   0.614   4.014   1.376 -0.3333  0.6145  0.5394
29563SOL    HW290412   0.701   4.009   1.252 -0.3030 -2.5936  0.6180
29564SOL     OW90413   0.363   3.904   1.177  0.0154 -0.0037  0.1551
29564SOL    HW190414   0.456   3.909   1.158 -0.3508  2.6635 -1.5032
29564SOL    HW290415   0.320   3.905   1.091 -1.5450  1.6516  0.8762
29565SOL     OW90416   4.124   7.986   3.476  0.0989  0.2559  0.7907
29565SOL    HW190417   4.129   7.971   3.570  1.1724 -0.2865  0.6645
29565SOL    HW290418   4.163   7.907   3.437 -2.1453 -0.4601 -0.1840
29566SOL     OW90419   7.734   4.042   0.892  0.3812  0.2617  0.0331
29566SOL    HW190420   7.816   4.065   0.847 -0.0470  0.2298 -0.7700
29566SOL    HW290421   7.704   3.963   0.848 -1.7878  2.0462 -1.9385
29567SOL     OW90422   9.565   7.606   3.223 -0.0353 -0.1146  0.0439
29567SOL    HW190423   9.593   7.517   3.200 -0.6394 -0.6019  1.1129
29567SOL    HW290424   9.470   7.601   3.226 -0.2490  1.2000 -2.2577
29568SOL     OW90425   4.933   2.830   9.206 -0.2637  0.0156  0.1361
29568SOL    HW190426   5.007   2.826   9.144  0.9109  0.1864  1.4842
29568SOL    HW290427   4.859   2.794   9.156  0.5117  0.6030 -1.5288
29569SOL     OW90428   3.456   8.383   1.928  0.3148 -0.1298 -0.1844
29569SOL    HW190429   3.366   8.384   1.960 -1.0296  0.5446 -3.5414
29569SOL    HW290430   3.480   8.291   1.928 -0.8901 -0.4709 -0.3761
29570SOL     OW90431   6.920   6.072   6.794 -0.2236 -0.0412  0.5499
29570SOL    HW190432   6.914   6.143   6.857 -3.3549  1.2387 -0.9704
29570SOL    HW290433   6.936   6.115   6.710 -4.0122 -0.6863 -0.7237
29571SOL     OW90434   3.617   0.253   6.803 -0.2462  0.5193 -0.0009
29571SOL    HW190435   3.683   0.254   6.873 -0.3638  1.5317  0.1045
29571SOL    HW290436   3.551   0.191   6.833  1.0250 -1.1744 -0.4784
29572SOL     OW90437   0.140   4.116   3.658  0.8618 -0.3829  0.0932
29572SOL    HW190438   0.118   4.055   3.729 -0.6710 -2.5516 -2.0572
29572SOL    HW290439   0.087   4.193   3.675  0.7816 -0.7268  1.4817
29573SOL     OW90440   4.157   4.135   6.380 -0.6932 -0.2484  0.1219
29573SOL    HW190441   4.217   4.162   6.449 -2.8438 -0.7773  2.3223
29573SOL    HW290442   4.120   4.052   6.411 -1.7455 -0.5110 -1.6883
29574SOL     OW90443   7.274   9.492   8.608 -0.4252  0.9560  0.4482
29574SOL    HW190444   7.241   9.402   8.620 -0.4828  0.8642 -0.3791
29574SOL    HW290445   7.328   9.508   8.685  0.4226 -0.1672  0.1100
29575SOL     OW90446   2.923   3.887   2.820 -0.3996  0.1238  0.2636
29575SOL    HW190447   2.913   3.805   2.771 -0.7971 -0.7278  1.7290
29575SOL    HW290448   3.005   3.877   2.867  0.1232  1.0594 -0.4139
29576SOL     OW90449   8.968   2.008   6.386  0.3957  0.0832 -0.1044
29576SOL    HW190450   8.933   2.096   6.373  1.9134  1.1124  2.0148
29576SOL    HW290451   9.017   1.989   6.307 -0.5231  0.8306 -0.8747
29577SOL     OW90452   5.883   4.697   8.966  0.4912  0.5429 -0.5253
29577SOL    HW190453   5.799   4.728   8.999  1.3713  1.8313  0.6616
29577SOL    HW290454   5.877   4.705   8.871 -1.5981 -1.8321 -0.7009
29578SOL     OW90455   6.845   3.419   4.321 -0.5901 -0.3152  0.1585
29578SOL    HW190456   6.926   3.466   4.338 -0.4243 -0.5769  0.0928
29578SOL    HW290457   6.811   3.398   4.409  0.0860 -1.3526  0.1933
29579SOL     OW90458   3.120   7.300   3.505 -0.0491 -0.8137  0.7590
29579SOL    HW190459   3.212   7.290   3.527 -0.2075 -0.8002  1.4447
29579SOL    HW290460   3.107   7.394   3.494 -0.2412 -0.6990  1.8633
29580SOL     OW90461   3.480   0.883   3.463 -0.6866  0.1140  0.3739
29580SOL    HW190462   3.573   0.899   3.475 -0.5667  1.4028 -1.5854
29580SOL    HW290463   3.462   0.801   3.508  2.0204 -1.7048 -1.5908
29581SOL     OW90464   3.588   5.841   1.830 -0.3039 -0.1030  0.4724
29581SOL    HW190465   3.625   5.756   1.807 -0.0234 -0.0964  0.8949
29581SOL    HW290466   3.500   5.821   1.862 -0.9145 -0.0671 -1.0843
29582SOL     OW90467   5.513   5.561   8.351  0.3092  0.5200 -0.2527
29582SOL    HW190468   5.437   5.544   8.296  1.5625 -0.4684 -1.7933
29582SOL    HW290469   5.520   5.657   8.354 -0.2765  0.6010 -1.1457
29583SOL     OW90470   2.296   2.316   7.182  0.2063 -0.3960  0.3708
29583SOL    HW190471   2.271   2.309   7.090  2.4759  1.7441 -0.5215
29583SOL    HW290472   2.228   2.269   7.230 -2.4578  0.6492 -2.1704
29584NA      NA90473   4.604   9.091   5.214  0.0223 -0.3075  0.1055
29585NA      NA90474   3.884   5.933   7.018  0.1695  0.6455 -0.0264
29586NA      NA90475   2.128   5.828   2.230  0.0574 -0.5059  0.3547
29587NA      NA90476   7.242   0.731   3.203 -0.1453 -0.1949 -0.5912
29588NA      NA90477   8.259   1.282   8.080 -0.2475  0.5105 -0.1624
29589NA      NA90478   8.901   9.371   2.248  0.4424 -0.1402  0.2223
29590NA      NA90479   2.035   8.883   6.900 -0.1795  0.1006  0.4973
29591NA      NA90480   0.471   7.439   3.874 -0.5141  0.0124  0.0948
29592NA      NA90481   0.041   6.786   1.877  0.4795  0.5891  0.0278
29593NA      NA90482   2.025   4.227   6.226 -0.1274  0.1617  0.3920
29594NA      NA90483   1.143   2.151   5.541 -0.1721 -0.2969  0.1117
29595NA      NA90484   3.981   6.498   5.661 -0.0218 -0.2935  0.6408
29596NA      NA90485   6.755   3.498   5.683 -0.3143 -0.0141  0.2237
29597NA      NA90486   4.987   9.528   5.348 -0.2414 -0.0216 -0.5088
29598NA      NA90487   8.240   9.030   3.862 -0.0065 -0.1376  0.5882
29599NA      NA90488   7.256   1.949   2.671 -0.0004 -0.2653 -0.3470
29600NA      NA90489   8.556   1.155   8.765  0.2117  0.2269  0.3884
29601NA      NA90490   4.679   6.780   6.421  0.1286  0.0082  0.2741
29602NA      NA90491   3.560   4.675   5.422  0.1877  0.3331  0.0823
29603NA      NA90492   1.386   7.393   2.884  0.6158 -0.2198  0.2940
29604NA      NA90493   4.760   3.951   4.749 -0.5580  0.4871  0.4912
29605NA      NA90494   1.931   7.565   2.840 -0.3169  0.1230 -0.2330
29606NA      NA90495   5.601   8.945   8.294 -0.1019 -0.0274 -0.3292
29607NA      NA90496   0.867   8.061   6.906  0.2641  0.2102  0.2291
29608NA      NA90497   5.417   9.488   6.346 -0.6098 -0.0089 -0.1554
29609NA      NA90498   4.344   1.692   6.577 -0.8387  0.0957 -0.0018
29610NA      NA90499   2.381   5.849   3.666  0.6218 -0.1527  0.1402
29611NA      NA90500   3.238   5.750   4.236 -0.2076  0.0017  0.0121
29612NA      NA90501   2.132   6.580   7.239  0.2606 -0.2923 -0.0986
29613NA      NA90502   7.072   3.646   1.885  0.1894 -0.0597  0.5536
29614NA      NA90503   3.711   5.413   1.632 -0.1815  0.0453  0.7699
29615NA      NA90504   6.097   8.605   3.523  0.3801  0.2357 -0.3668
29616NA      NA90505   9.696   5.683   2.873  0.5396  0.2840  0.1865
29617NA      NA90506   8.109   8.113   8.596 -0.2655 -0.1343  0.7520
29618NA      NA90507   2.766   1.268   1.073  0.0927 -0.1980 -0.4682
29619NA      NA90508   9.315   2.036   4.612  0.6950  0.1877  0.2264
29620NA      NA90509   5.199   8.071   2.122  0.1500  0.7968  0.1272
29621NA      NA90510   6.818   7.145   2.676  0.2342 -0.1920 -0.2697
29622NA      NA90511   7.535   6.176   3.921  0.3370 -0.3920  0.1618
29623NA      NA90512   5.151   0.843   8.100 -0.2491 -0.4306 -0.3141
29624NA      NA90513   7.622   7.625   7.736  0.0186  0.5726  0.3006
29625NA      NA90514   7.844   1.963   8.730 -0.3145  0.6344  0.7021
29626NA      NA90515   6.373   5.377   1.255 -0.1713 -0.0547  0.1791
29627NA      NA90516   6.594   5.479   7.679  0.0023 -0.1934  0.0368
29628NA      NA90517   6.922   7.405   4.674 -0.1448  0.1493  0.1375
29629NA      NA90518   8.604   7.434   9.151  0.4460  0.1799  0.1335
29630NA      NA90519   5.640   8.348   7.200  0.0178  0.1462 -0.5644
29631NA      NA90520   4.603   8.617   4.028  0.1143  0.0850 -0.1214
29632NA      NA90521   6.006   2.358   1.346  0.4710 -0.3901 -0.0305
29633NA      NA90522   3.082   3.477   6.410 -0.0029  0.1073 -0.3486
29634NA      NA90523   5.671   5.213   1.164 -0.0038 -0.1108 -0.0500
29635NA      NA90524   6.331   1.734   8.443 -0.5814 -0.8467  0.2555
29636NA      NA90525   9.704   3.961   8.423  0.1999 -0.0744 -0.1511
29637NA      NA90526   7.370   5.900   8.203  0.2746 -0.1032  0.2828
29638NA      NA90527   6.904   6.938   7.486  0.4825  0.7663 -0.5052
29639NA      NA90528   7.493   4.157   4.240  0.1063  0.5854 -0.5425
29640NA      NA90529   0.267   1.566   9.086  0.3283 -0.0332 -0.2610
29641NA      NA90530   6.873   2.249   3.709 -0.0357 -0.3380 -0.2254
29642NA      NA90531   0.260   5.553   9.477 -0.0734  0.1610 -0.4478
29643NA      NA90532   5.449   6.024   7.827 -0.0301  0.4263  0.3622
29644NA      NA90533   1.841   6.547   9.648  0.6075  0.2080 -0.7221
29645NA      NA90534   7.310   7.996   4.604  0.2991 -0.2072 -0.0416
29646NA      NA90535   7.856   0.759   0.365  0.3220 -0.2007  0.2548
29647NA      NA90536   6.905   1.005   8.426  0.0231 -0.6951 -0.3585
29648NA      NA90537   2.178   4.952   7.726  0.1148  0.1422  0.2837
29649NA      NA90538   8.027   3.694   9.004 -0.0812  0.5302 -0.5863
29650NA      NA90539   8.542   4.112   0.084 -0.1619  0.1556 -0.1112
29651NA      NA90540   1.946   4.192   5.428  0.2034 -0.0061  0.1034
29652NA      NA90541   6.076   3.572   3.121  0.0617  0.1732  0.2742
29653NA      NA90542   2.826   6.878   6.694  0.2164 -0.0169  0.3704
29654NA      NA90543   9.438   6.313   9.697 -0.1326 -0.1513 -0.1867
29655NA      NA90544   4.166   8.750   9.663 -0.1981  0.2851 -0.2502
29656NA      NA90545   3.709   8.216   4.633 -0.4745 -0.0403  0.1609
29657NA      NA90546   0.561   4.386   6.471  0.1797 -0.0803  0.0297
29658NA      NA90547   7.829   2.000   5.815  0.2408 -0.1488  0.6330
29659NA      NA90548   3.061   8.140   1.349  0.0685 -0.1354 -0.1711
29660NA      NA90549   0.488   0.992   6.382  0.2541 -0.5863 -0.6531
29661NA      NA90550   1.837   1.299   8.968  0.2211  0.3322  0.2712
29662NA      NA90551   1.324   1.460   5.018 -0.0487 -0.3394  0.7336
29663NA      NA90552   0.625   7.478   6.408 -0.3000  0.4438 -0.1143
29664NA      NA90553   3.712   2.511   2.698 -0.2640  0.3150  0.1886
29665NA      NA90554   6.307   0.932   1.589  0.2949 -0.0494 -0.0639
29666NA      NA90555   2.878   2.581   2.365  0.3947 -0.0037  0.1341
29667NA      NA90556   2.438   0.099   7.637  0.0329  0.0711 -0.0797
29668CL      CL90557   8.889   3.112   5.429 -0.5068  0.1379  0.3232
29669CL      CL90558   0.743   0.822   1.131 -0.2486 -0.1270  0.0419
29670CL      CL90559   8.310   4.047   3.957  0.0228  0.0174  0.2926
29671CL      CL90560   1.588   1.079   8.011  0.2700  0.3200  0.0501
29672CL      CL90561   5.774   6.216   2.914  0.2215 -0.1694  0.0762
29673CL      CL90562   1.725   6.994   0.686  0.6287 -0.2307 -0.2829
29674CL      CL90563   0.935   2.328   1.303  0.1244 -0.3016  0.5963
29675CL      CL90564   9.489   0.004   3.276 -0.1891 -0.2802 -0.0084
29676CL      CL90565   7.686   2.365   0.133 -0.3356 -0.0556 -0.2125
29677CL      CL90566   5.619   0.471   6.126  0.1251  0.3058  0.4047
29678CL      CL90567   9.138   2.903   2.772  0.0215  0.0692 -0.1369
29679CL      CL90568   0.826   9.364   3.819  0.2063  0.2199 -0.1278
29680CL      CL90569   9.383   9.086   9.590  0.0108 -0.5177  0.2667
29681CL      CL90570   7.151   7.869   4.701 -0.4721  0.1042 -0.4304
29682CL      CL90571   5.859   3.289   7.028  0.0878 -0.0466 -0.2407
29683CL      CL90572   3.050   7.557   1.608  0.0033  0.3446  0.3722
29684CL      CL90573   5.771   3.228   4.160 -0.0125 -0.1836  0.0475
29685CL      CL90574   1.846   8.646   8.912  0.5551  0.4238  0.3027
29686CL      CL90575   3.479   7.104   4.817  0.1619  0.4957 -0.5780
29687CL      CL90576   9.008   9.521   2.403  0.2137 -0.2815  0.2354
29688CL      CL90577   7.674   1.541   8.341  0.3681 -0.2978  0.3999
29689CL      CL90578   2.285   2.199   3.419  0.4532  0.3326  0.0564
29690CL      CL90579   2.933   7.865   8.835  0.1333  0.5053  0.2025
29691CL      CL90580   7.323   3.003   7.748  0.5256 -0.2837 -0.0155
29692CL      CL90581   1.934   1.913   1.889 -0.2160 -0.0412 -0.4251
29693CL      CL90582   1.504   8.986   1.108 -0.1583 -0.0727 -0.0667
29694CL      CL90583   5.378   0.640   3.223 -0.1498  0.2354 -0.3369
29695CL      CL90584   3.391   7.300   8.879 -0.4588  0.1021 -0.0510
29696CL      CL90585   3.969   5.706   6.099 -0.0452 -0.0437 -0.0814
29697CL      CL90586   6.586   7.803   0.220 -0.2368  0.3519 -0.1259
29698CL      CL90587   9.355   6.405   1.366 -0.0765  0.0908 -0.2149
29699CL      CL90588   1.558   2.345   5.510 -0.0610  0.4515 -0.2031
29700CL      CL90589   3.104   9.513   2.557 -0.1973  0.3649 -0.1090
29701CL      CL90590   7.736   7.383   2.801 -0.2011  0.0204  0.0770
29702CL      CL90591   0.656   1.996   4.596 -0.3689 -0.0193  0.0900
29703CL      CL90592   2.527   4.324   4.387  0.4456  0.4243 -0.1549
29704CL      CL90593   0.473   0.544   7.539 -0.3887  0.3401 -0.2938
29705CL      CL90594   7.458   3.126   2.396  0.0756 -0.0184 -0.0783
29706CL      CL90595   4.971   1.151   7.539 -0.1439  0.3055 -0.0780
29707CL      CL90596   2.155   5.865   0.863 -0.2552 -0.0709  0.0519
29708CL      CL90597   9.060   1.297   2.953 -0.2630  0.0069  0.1302
29709CL      CL90598   9.162   3.657   1.626  0.1933 -0.2322  0.0641
29710CL      CL90599   1.559   6.817   9.250  0.1921 -0.1171  0.4379
29711CL      CL90600   3.012   5.115   5.440  0.6626 -0.3675  0.4719
29712CL      CL90601   7.729   7.600   7.968 -0.0019 -0.0649  0.2328
29713CL      CL90602   1.039   8.226   7.000  0.2191 -0.5824  0.4765
29714CL      CL90603   6.528   5.297   0.522 -0.5008  0.4763 -0.0332
29715CL      CL90604   6.038   7.039   6.423  0.1794  0.0651  0.2700
29716CL      CL90605   7.845   2.265   4.181  0.1921 -0.1695  0.1739
29717CL      CL90606   2.712   6.662   3.580  0.0272  0.2940  0.0985
29718CL      CL90607   3.985   3.285   8.661 -0.0164  0.0400 -0.0707
29719CL      CL90608   9.686   8.790   0.447 -0.0741 -0.0810 -0.2922
29720CL      CL90609   7.643   2.167   1.005  0.0603 -0.2060 -0.0725
29721CL      CL90610   5.549   7.901   9.686  0.0329 -0.2075 -0.2553
29722CL      CL90611   4.398   8.729   5.030  0.2894  0.0840  0.0398
29723CL      CL90612   9.020   3.898   0.572  0.0274  0.3225 -0.3739
29724CL      CL90613   9.112   5.323   8.120  0.1379  0.1254  0.0543
29725CL      CL90614   5.008   4.223   1.474 -0.1335 -0.0070 -0.0459
29726CL      CL90615   2.909   6.483   2.263 -0.2707 -0.2170 -0.1602
29727CL      CL90616   2.172   2.934   0.117 -0.3031 -0.1998 -0.3133
29728CL      CL90617   3.340   0.101   4.102  0.0665  0.0137  0.2952
29729CL      CL90618   8.623   0.740   0.196 -0.2603 -0.0034  0.2086
29730CL      CL90619   0.377   1.137   6.210 -0.0379  0.1349 -0.1944
29731CL      CL90620   0.128   6.099   4.864  0.0579 -0.2577 -0.1813
29732CL      CL90621   3.185   1.540   4.992 -0.0930  0.1913  0.0403
29733CL      CL90622   3.904   2.616   1.643  0.1161  0.3591 -0.3381
29734CL      CL90623   6.374   0.443   0.420  0.4057 -0.2463  0.2371
29735CL      CL90624   1.541   8.068   6.553 -0.4370 -0.1259  0.4020
29736CL      CL90625   5.787   7.558   6.715  0.2996  0.4630  0.3263
29737CL      CL90626   0.428   5.778   1.774 -0.1555 -0.1411 -0.3132
29738CL      CL90627   0.303   1.159   0.179 -0.2904 -0.0979 -0.3809
29739CL      CL90628   2.843   6.137   6.781 -0.1781 -0.6401  0.0828
29740CL      CL90629   1.870   6.340   0.285 -0.4404  0.0237  0.2527
29741CL      CL90630   2.032   8.663   5.749  0.1401 -0.0308 -0.0905
29742CL      CL90631   9.406   9.222   3.262 -0.2883 -0.0439 -0.1520
29743CL      CL90632   9.043   9.482   7.385  0.1151  0.3551  0.3657
29744CL      CL90633   0.325   0.419   6.056 -0.7681  0.0185 -0.6263
29745CL      CL90634   8.148   9.323   1.005  0.0354  0.5037 -0.3264
29746CL      CL90635   7.513   6.844   6.678 -0.0414  0.0644 -0.2419
29747CL      CL90636   2.803   6.515   7.656 -0.3359  0.1178 -0.3520
29748CL      CL90637   8.084   8.727   3.564 -0.0263  0.0588  0.2461
29749CL      CL90638   0.694   9.569   9.076 -0.0244 -0.2054  0.4298
29750CL      CL90639   2.409   4.117   5.561 -0.4901  0.3055  0.0373
29751CL      CL90640   6.960   7.851   1.872 -0.2686 -0.6809  0.1631
29752CL      CL90641   0.915   2.657   8.859 -0.2643  0.3889 -0.2299
29753CL      CL90642   1.455   1.334   1.812  0.2678 -0.0458  0.0329
29754CL      CL90643   3.697   5.403   2.100  0.0655 -0.0517 -0.0840
29755CL      CL90644   7.717   7.909   3.366  0.2301 -0.4023 -0.0574
29756CL      CL90645   5.384   8.297   3.823 -0.2150  0.2304  0.0802
29757CL      CL90646   0.768   0.286   8.618 -0.1043 -0.3604 -0.0905
29758CL      CL90647   3.903   4.786   4.433 -0.1734 -0.0557 -0.4108
29759CL      CL90648   3.447   3.783   1.647  0.0760  0.2114 -0.1415
29760CL      CL90649   0.167   3.796   0.908 -0.0643  0.0320 -0.1228
29761CL      CL90650   1.210   9.474   0.782 -0.2397 -0.0011  0.0988
29762CL      CL90651   7.216   5.042   2.414 -0.2100 -0.4809  0.2591
29763CL      CL90652   6.517   6.198   7.616  0.3053  0.0499 -0.2745
29764CL      CL90653   8.433   9.103   3.733 -0.1547  0.1778  0.0421
29765CL      CL90654   6.263   9.344   1.571  0.0296  0.0184 -0.1611
29766CL      CL90655   0.841   1.615   3.467 -0.0262 -0.1402 -0.2782
29767CL      CL90656   8.266   8.290   9.281  0.1485  0.1407 -0.2186
29768CL      CL90657   9.623   2.508   6.933 -0.0409  0.1339  0.5695
29769CL      CL90658   0.406   8.859   5.092 -0.1338  0.2600  0.0660
29770CL      CL90659   9.031   9.295   2.051  0.0305  0.4837 -0.0427
29771CL      CL90660   4.952   0.383   7.244  0.1920  0.1543 -0.0734
29772CL      CL90661   7.784   2.086   2.356 -0.3827 -0.1289  0.1682
29773CL      CL90662   0.077   2.878   2.406 -0.1405  0.0463 -0.4081
29774CL      CL90663   1.829   5.307   9.697 -0.0857 -0.2922 -0.1144
29775CL      CL90664   9.255   5.280   0.704 -0.0089 -0.0938 -0.2242
29776CL      CL90665   8.195   3.866   8.999  0.2196  0.1791  0.0005
29777CL      CL90666   8.983   3.353   3.843  0.4038 -0.1469  0.0842
29778CL      CL90667   1.747   6.350   4.316  0.2792  0.3204  0.1683
29779CL      CL90668   2.203   4.439   9.189  0.4428  0.2473  0.1041
29780CL      CL90669   9.017   2.251   0.083 -0.4489 -0.4585  0.0408
29781CL      CL90670   7.218   3.774   4.473  0.0490  0.0900 -0.1642
29782CL      CL90671   1.733   7.963   3.284 -0.2276  0.1276 -0.4674
29783CL      CL90672   9.292   8.384   4.788 -0.2838  0.3022 -0.3267
29784CL      CL90673   3.686   0.406   1.069 -0.2343  0.4484  0.1701
29785CL      CL90674   8.963   9.263   4.412 -0.2402  0.1105 -0.1045
29786CL      CL90675   9.669   2.329   0.442 -0.3066  0.1398  0.1633
29787CL      CL90676   8.632   7.708   0.343  0.3273 -0.2914 -0.0221
29788CL      CL90677   2.963   5.134   0.509 -0.3213 -0.2794  0.4202
29789CL      CL90678   7.682   2.330   9.261  0.1331 -0.0541  0.1379
29790CL      CL90679   2.706   8.671   1.355 -0.0317 -0.0844  0.0186
29791CL      CL90680   2.329   0.888   0.224  0.4365  0.3056 -0.1338
29792CL      CL90681   8.390   0.849   2.096  0.2224  0.2349 -0.2346
29793CL      CL90682   2.183   1.761   9.259 -0.1099  0.3839  0.2755
29794CL      CL90683   6.126   9.180   8.724 -0.3701 -0.0822 -0.1545
29795CL      CL90684   1.549   0.755   2.922  0.1936  0.2966  0.1364
29796CL      CL90685   7.262   1.783   8.253  0.0279 -0.1399 -0.0555
29797CL      CL90686   4.437   8.554   4.513 -0.1627 -0.1490 -0.0473
29798CL      CL90687   0.715   4.164   8.631 -0.1862 -0.2538 -0.3952
29799CL      CL90688   5.401   5.629   5.579 -0.0262  0.0921  0.0473
   9.70680   9.70680   9.70680
