;
;   File l3_pamam.itp  was generated
;   By user: sairam (1000)
;   On host: sairam
;   At date: Sat. August  6 17:20:46 2023
;
;   This is a standalone topology file
;
;   Created by:
;   ParmEd:       amb2gro_top_gro.py, VERSION 3.4.1
;   Executable:   amb2gro_top_gro.py
;   Library dir:  /usr/local/gromacs/share/gromacs/top
;   Command line:
;     /home/sairam/amber20/bin/amb2gro_top_gro.py -p l3_pamam.prmtop -c l3_pamam.inpcrd -t l3_pamam.itp -g l3_pamam.gro -b l3_pamam.pdb
;

;[ defaults ]
;; nbfunc        comb-rule       gen-pairs       fudgeLJ fudgeQQ
;1               2               yes             0.5          0.83333333  
;
;[ atomtypes ]
;; name    at.num    mass    charge ptype  sigma      epsilon
;c3             6  12.010000  0.00000000  A     0.33996695      0.4577296
;h1             1   1.008000  0.00000000  A      0.2471353      0.0656888
;n3             7  14.010000  0.00000000  A     0.32499985        0.71128
;hc             1   1.008000  0.00000000  A     0.26495328      0.0656888
;c              6  12.010000  0.00000000  A     0.33996695       0.359824
;o              8  16.000000  0.00000000  A     0.29599219        0.87864
;n              7  14.010000  0.00000000  A     0.32499985        0.71128
;hn             1   1.008000  0.00000000  A     0.10690785      0.0656888
;hx             1   1.008000  0.00000000  A     0.19599772      0.0656888
;n4             7  14.010000  0.00000000  A     0.32499985        0.71128
;

[ moleculetype ]
; Name            nrexcl
g3p_pamam             3

[ atoms ]
;   nr       type  resnr residue  atom   cgnr    charge       mass  typeB    chargeB      massB
; residue    1 aaa rtp aaa q -0.0
    1         c3      1    aaa     C1      1 0.02890000  12.010000   ; qtot 0.028900
    2         h1      1    aaa     H1      2 0.08460000   1.008000   ; qtot 0.113500
    3         h1      1    aaa     H2      3 0.08460000   1.008000   ; qtot 0.198100
    4         c3      1    aaa     C2      4 0.02890000  12.010000   ; qtot 0.227000
    5         h1      1    aaa     H3      5 0.08460000   1.008000   ; qtot 0.311600
    6         h1      1    aaa     H4      6 0.08460000   1.008000   ; qtot 0.396200
    7         n3      1    aaa     N1      7 -0.65770000  14.010000   ; qtot -0.261500
    8         n3      1    aaa     N2      8 -0.65770000  14.010000   ; qtot -0.919200
    9         c3      1    aaa     C3      9 0.36940000  12.010000   ; qtot -0.549800
   10         h1      1    aaa     H5     10 0.00650000   1.008000   ; qtot -0.543300
   11         h1      1    aaa     H6     11 0.00650000   1.008000   ; qtot -0.536800
   12         c3      1    aaa     C4     12 0.36940000  12.010000   ; qtot -0.167400
   13         h1      1    aaa     H7     13 0.00650000   1.008000   ; qtot -0.160900
   14         h1      1    aaa     H8     14 0.00650000   1.008000   ; qtot -0.154400
   15         c3      1    aaa     C5     15 0.36940000  12.010000   ; qtot 0.215000
   16         h1      1    aaa     H9     16 0.00650000   1.008000   ; qtot 0.221500
   17         h1      1    aaa    H10     17 0.00650000   1.008000   ; qtot 0.228000
   18         c3      1    aaa     C6     18 0.36940000  12.010000   ; qtot 0.597400
   19         h1      1    aaa    H11     19 0.00650000   1.008000   ; qtot 0.603900
   20         h1      1    aaa    H12     20 0.00650000   1.008000   ; qtot 0.610400
   21         c3      1    aaa     C7     21 -0.54350000  12.010000   ; qtot 0.066900
   22         hc      1    aaa    H13     22 0.15890000   1.008000   ; qtot 0.225800
   23         hc      1    aaa    H14     23 0.15890000   1.008000   ; qtot 0.384700
   24         c3      1    aaa     C8     24 -0.54350000  12.010000   ; qtot -0.158800
   25         hc      1    aaa    H15     25 0.15890000   1.008000   ; qtot 0.000100
   26         hc      1    aaa    H16     26 0.15890000   1.008000   ; qtot 0.159000
   27         c3      1    aaa     C9     27 -0.54350000  12.010000   ; qtot -0.384500
   28         hc      1    aaa    H17     28 0.15890000   1.008000   ; qtot -0.225600
   29         hc      1    aaa    H18     29 0.15890000   1.008000   ; qtot -0.066700
   30         c3      1    aaa    C10     30 -0.54350000  12.010000   ; qtot -0.610200
   31         hc      1    aaa    H19     31 0.15890000   1.008000   ; qtot -0.451300
   32         hc      1    aaa    H20     32 0.15890000   1.008000   ; qtot -0.292400
   33          c      1    aaa    C11     33 0.67800000  12.010000   ; qtot 0.385600
   34          c      1    aaa    C12     34 0.67800000  12.010000   ; qtot 1.063600
   35          c      1    aaa    C13     35 0.67800000  12.010000   ; qtot 1.741600
   36          c      1    aaa    C14     36 0.67800000  12.010000   ; qtot 2.419600
   37          o      1    aaa     O1     37 -0.60490000  16.000000   ; qtot 1.814700
   38          o      1    aaa     O2     38 -0.60490000  16.000000   ; qtot 1.209800
   39          o      1    aaa     O3     39 -0.60490000  16.000000   ; qtot 0.604900
   40          o      1    aaa     O4     40 -0.60490000  16.000000   ; qtot -0.000000
; residue    2 bbb rtp bbb q -0.0
   41         c3      2    bbb     C1     41 0.44180000  12.010000   ; qtot 0.441800
   42         h1      2    bbb     H1     42 -0.03530000   1.008000   ; qtot 0.406500
   43         h1      2    bbb     H2     43 -0.03530000   1.008000   ; qtot 0.371200
   44         c3      2    bbb     C2     44 -0.28250000  12.010000   ; qtot 0.088700
   45         h1      2    bbb     H3     45 0.15710000   1.008000   ; qtot 0.245800
   46         h1      2    bbb     H4     46 0.15710000   1.008000   ; qtot 0.402900
   47         n3      2    bbb     N1     47 -0.74090000  14.010000   ; qtot -0.338000
   48         c3      2    bbb     C3     48 0.51680000  12.010000   ; qtot 0.178800
   49         h1      2    bbb     H5     49 -0.05230000   1.008000   ; qtot 0.126500
   50         h1      2    bbb     H6     50 -0.05230000   1.008000   ; qtot 0.074200
   51         c3      2    bbb     C4     51 0.51680000  12.010000   ; qtot 0.591000
   52         h1      2    bbb     H7     52 -0.05230000   1.008000   ; qtot 0.538700
   53         h1      2    bbb     H8     53 -0.05230000   1.008000   ; qtot 0.486400
   54         c3      2    bbb     C5     54 -0.60390000  12.010000   ; qtot -0.117500
   55         hc      2    bbb     H9     55 0.16730000   1.008000   ; qtot 0.049800
   56         hc      2    bbb    H10     56 0.16730000   1.008000   ; qtot 0.217100
   57         c3      2    bbb     C6     57 -0.60390000  12.010000   ; qtot -0.386800
   58         hc      2    bbb    H11     58 0.16730000   1.008000   ; qtot -0.219500
   59         hc      2    bbb    H12     59 0.16730000   1.008000   ; qtot -0.052200
   60          c      2    bbb     C7     60 0.72110000  12.010000   ; qtot 0.668900
   61          c      2    bbb     C8     61 0.72110000  12.010000   ; qtot 1.390000
   62          o      2    bbb     O1     62 -0.61950000  16.000000   ; qtot 0.770500
   63          o      2    bbb     O2     63 -0.61950000  16.000000   ; qtot 0.151000
   64          n      2    bbb     N4     64 -0.46580000  14.010000   ; qtot -0.314800
   65         hn      2    bbb    H21     65 0.31480000   1.008000   ; qtot -0.000000
; residue    3 bbb rtp bbb q -0.0
   66         c3      3    bbb     C1     66 0.44180000  12.010000   ; qtot 0.441800
   67         h1      3    bbb     H1     67 -0.03530000   1.008000   ; qtot 0.406500
   68         h1      3    bbb     H2     68 -0.03530000   1.008000   ; qtot 0.371200
   69         c3      3    bbb     C2     69 -0.28250000  12.010000   ; qtot 0.088700
   70         h1      3    bbb     H3     70 0.15710000   1.008000   ; qtot 0.245800
   71         h1      3    bbb     H4     71 0.15710000   1.008000   ; qtot 0.402900
   72         n3      3    bbb     N1     72 -0.74090000  14.010000   ; qtot -0.338000
   73         c3      3    bbb     C3     73 0.51680000  12.010000   ; qtot 0.178800
   74         h1      3    bbb     H5     74 -0.05230000   1.008000   ; qtot 0.126500
   75         h1      3    bbb     H6     75 -0.05230000   1.008000   ; qtot 0.074200
   76         c3      3    bbb     C4     76 0.51680000  12.010000   ; qtot 0.591000
   77         h1      3    bbb     H7     77 -0.05230000   1.008000   ; qtot 0.538700
   78         h1      3    bbb     H8     78 -0.05230000   1.008000   ; qtot 0.486400
   79         c3      3    bbb     C5     79 -0.60390000  12.010000   ; qtot -0.117500
   80         hc      3    bbb     H9     80 0.16730000   1.008000   ; qtot 0.049800
   81         hc      3    bbb    H10     81 0.16730000   1.008000   ; qtot 0.217100
   82         c3      3    bbb     C6     82 -0.60390000  12.010000   ; qtot -0.386800
   83         hc      3    bbb    H11     83 0.16730000   1.008000   ; qtot -0.219500
   84         hc      3    bbb    H12     84 0.16730000   1.008000   ; qtot -0.052200
   85          c      3    bbb     C7     85 0.72110000  12.010000   ; qtot 0.668900
   86          c      3    bbb     C8     86 0.72110000  12.010000   ; qtot 1.390000
   87          o      3    bbb     O1     87 -0.61950000  16.000000   ; qtot 0.770500
   88          o      3    bbb     O2     88 -0.61950000  16.000000   ; qtot 0.151000
   89          n      3    bbb     N4     89 -0.46580000  14.010000   ; qtot -0.314800
   90         hn      3    bbb    H21     90 0.31480000   1.008000   ; qtot -0.000000
; residue    4 bbb rtp bbb q -0.0
   91         c3      4    bbb     C1     91 0.44180000  12.010000   ; qtot 0.441800
   92         h1      4    bbb     H1     92 -0.03530000   1.008000   ; qtot 0.406500
   93         h1      4    bbb     H2     93 -0.03530000   1.008000   ; qtot 0.371200
   94         c3      4    bbb     C2     94 -0.28250000  12.010000   ; qtot 0.088700
   95         h1      4    bbb     H3     95 0.15710000   1.008000   ; qtot 0.245800
   96         h1      4    bbb     H4     96 0.15710000   1.008000   ; qtot 0.402900
   97         n3      4    bbb     N1     97 -0.74090000  14.010000   ; qtot -0.338000
   98         c3      4    bbb     C3     98 0.51680000  12.010000   ; qtot 0.178800
   99         h1      4    bbb     H5     99 -0.05230000   1.008000   ; qtot 0.126500
  100         h1      4    bbb     H6    100 -0.05230000   1.008000   ; qtot 0.074200
  101         c3      4    bbb     C4    101 0.51680000  12.010000   ; qtot 0.591000
  102         h1      4    bbb     H7    102 -0.05230000   1.008000   ; qtot 0.538700
  103         h1      4    bbb     H8    103 -0.05230000   1.008000   ; qtot 0.486400
  104         c3      4    bbb     C5    104 -0.60390000  12.010000   ; qtot -0.117500
  105         hc      4    bbb     H9    105 0.16730000   1.008000   ; qtot 0.049800
  106         hc      4    bbb    H10    106 0.16730000   1.008000   ; qtot 0.217100
  107         c3      4    bbb     C6    107 -0.60390000  12.010000   ; qtot -0.386800
  108         hc      4    bbb    H11    108 0.16730000   1.008000   ; qtot -0.219500
  109         hc      4    bbb    H12    109 0.16730000   1.008000   ; qtot -0.052200
  110          c      4    bbb     C7    110 0.72110000  12.010000   ; qtot 0.668900
  111          c      4    bbb     C8    111 0.72110000  12.010000   ; qtot 1.390000
  112          o      4    bbb     O1    112 -0.61950000  16.000000   ; qtot 0.770500
  113          o      4    bbb     O2    113 -0.61950000  16.000000   ; qtot 0.151000
  114          n      4    bbb     N4    114 -0.46580000  14.010000   ; qtot -0.314800
  115         hn      4    bbb    H21    115 0.31480000   1.008000   ; qtot -0.000000
; residue    5 bbb rtp bbb q -0.0
  116         c3      5    bbb     C1    116 0.44180000  12.010000   ; qtot 0.441800
  117         h1      5    bbb     H1    117 -0.03530000   1.008000   ; qtot 0.406500
  118         h1      5    bbb     H2    118 -0.03530000   1.008000   ; qtot 0.371200
  119         c3      5    bbb     C2    119 -0.28250000  12.010000   ; qtot 0.088700
  120         h1      5    bbb     H3    120 0.15710000   1.008000   ; qtot 0.245800
  121         h1      5    bbb     H4    121 0.15710000   1.008000   ; qtot 0.402900
  122         n3      5    bbb     N1    122 -0.74090000  14.010000   ; qtot -0.338000
  123         c3      5    bbb     C3    123 0.51680000  12.010000   ; qtot 0.178800
  124         h1      5    bbb     H5    124 -0.05230000   1.008000   ; qtot 0.126500
  125         h1      5    bbb     H6    125 -0.05230000   1.008000   ; qtot 0.074200
  126         c3      5    bbb     C4    126 0.51680000  12.010000   ; qtot 0.591000
  127         h1      5    bbb     H7    127 -0.05230000   1.008000   ; qtot 0.538700
  128         h1      5    bbb     H8    128 -0.05230000   1.008000   ; qtot 0.486400
  129         c3      5    bbb     C5    129 -0.60390000  12.010000   ; qtot -0.117500
  130         hc      5    bbb     H9    130 0.16730000   1.008000   ; qtot 0.049800
  131         hc      5    bbb    H10    131 0.16730000   1.008000   ; qtot 0.217100
  132         c3      5    bbb     C6    132 -0.60390000  12.010000   ; qtot -0.386800
  133         hc      5    bbb    H11    133 0.16730000   1.008000   ; qtot -0.219500
  134         hc      5    bbb    H12    134 0.16730000   1.008000   ; qtot -0.052200
  135          c      5    bbb     C7    135 0.72110000  12.010000   ; qtot 0.668900
  136          c      5    bbb     C8    136 0.72110000  12.010000   ; qtot 1.390000
  137          o      5    bbb     O1    137 -0.61950000  16.000000   ; qtot 0.770500
  138          o      5    bbb     O2    138 -0.61950000  16.000000   ; qtot 0.151000
  139          n      5    bbb     N4    139 -0.46580000  14.010000   ; qtot -0.314800
  140         hn      5    bbb    H21    140 0.31480000   1.008000   ; qtot -0.000000
; residue    6 bbb rtp bbb q -0.0
  141         c3      6    bbb     C1    141 0.44180000  12.010000   ; qtot 0.441800
  142         h1      6    bbb     H1    142 -0.03530000   1.008000   ; qtot 0.406500
  143         h1      6    bbb     H2    143 -0.03530000   1.008000   ; qtot 0.371200
  144         c3      6    bbb     C2    144 -0.28250000  12.010000   ; qtot 0.088700
  145         h1      6    bbb     H3    145 0.15710000   1.008000   ; qtot 0.245800
  146         h1      6    bbb     H4    146 0.15710000   1.008000   ; qtot 0.402900
  147         n3      6    bbb     N1    147 -0.74090000  14.010000   ; qtot -0.338000
  148         c3      6    bbb     C3    148 0.51680000  12.010000   ; qtot 0.178800
  149         h1      6    bbb     H5    149 -0.05230000   1.008000   ; qtot 0.126500
  150         h1      6    bbb     H6    150 -0.05230000   1.008000   ; qtot 0.074200
  151         c3      6    bbb     C4    151 0.51680000  12.010000   ; qtot 0.591000
  152         h1      6    bbb     H7    152 -0.05230000   1.008000   ; qtot 0.538700
  153         h1      6    bbb     H8    153 -0.05230000   1.008000   ; qtot 0.486400
  154         c3      6    bbb     C5    154 -0.60390000  12.010000   ; qtot -0.117500
  155         hc      6    bbb     H9    155 0.16730000   1.008000   ; qtot 0.049800
  156         hc      6    bbb    H10    156 0.16730000   1.008000   ; qtot 0.217100
  157         c3      6    bbb     C6    157 -0.60390000  12.010000   ; qtot -0.386800
  158         hc      6    bbb    H11    158 0.16730000   1.008000   ; qtot -0.219500
  159         hc      6    bbb    H12    159 0.16730000   1.008000   ; qtot -0.052200
  160          c      6    bbb     C7    160 0.72110000  12.010000   ; qtot 0.668900
  161          c      6    bbb     C8    161 0.72110000  12.010000   ; qtot 1.390000
  162          o      6    bbb     O1    162 -0.61950000  16.000000   ; qtot 0.770500
  163          o      6    bbb     O2    163 -0.61950000  16.000000   ; qtot 0.151000
  164          n      6    bbb     N4    164 -0.46580000  14.010000   ; qtot -0.314800
  165         hn      6    bbb    H21    165 0.31480000   1.008000   ; qtot -0.000000
; residue    7 bbb rtp bbb q -0.0
  166         c3      7    bbb     C1    166 0.44180000  12.010000   ; qtot 0.441800
  167         h1      7    bbb     H1    167 -0.03530000   1.008000   ; qtot 0.406500
  168         h1      7    bbb     H2    168 -0.03530000   1.008000   ; qtot 0.371200
  169         c3      7    bbb     C2    169 -0.28250000  12.010000   ; qtot 0.088700
  170         h1      7    bbb     H3    170 0.15710000   1.008000   ; qtot 0.245800
  171         h1      7    bbb     H4    171 0.15710000   1.008000   ; qtot 0.402900
  172         n3      7    bbb     N1    172 -0.74090000  14.010000   ; qtot -0.338000
  173         c3      7    bbb     C3    173 0.51680000  12.010000   ; qtot 0.178800
  174         h1      7    bbb     H5    174 -0.05230000   1.008000   ; qtot 0.126500
  175         h1      7    bbb     H6    175 -0.05230000   1.008000   ; qtot 0.074200
  176         c3      7    bbb     C4    176 0.51680000  12.010000   ; qtot 0.591000
  177         h1      7    bbb     H7    177 -0.05230000   1.008000   ; qtot 0.538700
  178         h1      7    bbb     H8    178 -0.05230000   1.008000   ; qtot 0.486400
  179         c3      7    bbb     C5    179 -0.60390000  12.010000   ; qtot -0.117500
  180         hc      7    bbb     H9    180 0.16730000   1.008000   ; qtot 0.049800
  181         hc      7    bbb    H10    181 0.16730000   1.008000   ; qtot 0.217100
  182         c3      7    bbb     C6    182 -0.60390000  12.010000   ; qtot -0.386800
  183         hc      7    bbb    H11    183 0.16730000   1.008000   ; qtot -0.219500
  184         hc      7    bbb    H12    184 0.16730000   1.008000   ; qtot -0.052200
  185          c      7    bbb     C7    185 0.72110000  12.010000   ; qtot 0.668900
  186          c      7    bbb     C8    186 0.72110000  12.010000   ; qtot 1.390000
  187          o      7    bbb     O1    187 -0.61950000  16.000000   ; qtot 0.770500
  188          o      7    bbb     O2    188 -0.61950000  16.000000   ; qtot 0.151000
  189          n      7    bbb     N4    189 -0.46580000  14.010000   ; qtot -0.314800
  190         hn      7    bbb    H21    190 0.31480000   1.008000   ; qtot -0.000000
; residue    8 bbb rtp bbb q -0.0
  191         c3      8    bbb     C1    191 0.44180000  12.010000   ; qtot 0.441800
  192         h1      8    bbb     H1    192 -0.03530000   1.008000   ; qtot 0.406500
  193         h1      8    bbb     H2    193 -0.03530000   1.008000   ; qtot 0.371200
  194         c3      8    bbb     C2    194 -0.28250000  12.010000   ; qtot 0.088700
  195         h1      8    bbb     H3    195 0.15710000   1.008000   ; qtot 0.245800
  196         h1      8    bbb     H4    196 0.15710000   1.008000   ; qtot 0.402900
  197         n3      8    bbb     N1    197 -0.74090000  14.010000   ; qtot -0.338000
  198         c3      8    bbb     C3    198 0.51680000  12.010000   ; qtot 0.178800
  199         h1      8    bbb     H5    199 -0.05230000   1.008000   ; qtot 0.126500
  200         h1      8    bbb     H6    200 -0.05230000   1.008000   ; qtot 0.074200
  201         c3      8    bbb     C4    201 0.51680000  12.010000   ; qtot 0.591000
  202         h1      8    bbb     H7    202 -0.05230000   1.008000   ; qtot 0.538700
  203         h1      8    bbb     H8    203 -0.05230000   1.008000   ; qtot 0.486400
  204         c3      8    bbb     C5    204 -0.60390000  12.010000   ; qtot -0.117500
  205         hc      8    bbb     H9    205 0.16730000   1.008000   ; qtot 0.049800
  206         hc      8    bbb    H10    206 0.16730000   1.008000   ; qtot 0.217100
  207         c3      8    bbb     C6    207 -0.60390000  12.010000   ; qtot -0.386800
  208         hc      8    bbb    H11    208 0.16730000   1.008000   ; qtot -0.219500
  209         hc      8    bbb    H12    209 0.16730000   1.008000   ; qtot -0.052200
  210          c      8    bbb     C7    210 0.72110000  12.010000   ; qtot 0.668900
  211          c      8    bbb     C8    211 0.72110000  12.010000   ; qtot 1.390000
  212          o      8    bbb     O1    212 -0.61950000  16.000000   ; qtot 0.770500
  213          o      8    bbb     O2    213 -0.61950000  16.000000   ; qtot 0.151000
  214          n      8    bbb     N4    214 -0.46580000  14.010000   ; qtot -0.314800
  215         hn      8    bbb    H21    215 0.31480000   1.008000   ; qtot -0.000000
; residue    9 bbb rtp bbb q -0.0
  216         c3      9    bbb     C1    216 0.44180000  12.010000   ; qtot 0.441800
  217         h1      9    bbb     H1    217 -0.03530000   1.008000   ; qtot 0.406500
  218         h1      9    bbb     H2    218 -0.03530000   1.008000   ; qtot 0.371200
  219         c3      9    bbb     C2    219 -0.28250000  12.010000   ; qtot 0.088700
  220         h1      9    bbb     H3    220 0.15710000   1.008000   ; qtot 0.245800
  221         h1      9    bbb     H4    221 0.15710000   1.008000   ; qtot 0.402900
  222         n3      9    bbb     N1    222 -0.74090000  14.010000   ; qtot -0.338000
  223         c3      9    bbb     C3    223 0.51680000  12.010000   ; qtot 0.178800
  224         h1      9    bbb     H5    224 -0.05230000   1.008000   ; qtot 0.126500
  225         h1      9    bbb     H6    225 -0.05230000   1.008000   ; qtot 0.074200
  226         c3      9    bbb     C4    226 0.51680000  12.010000   ; qtot 0.591000
  227         h1      9    bbb     H7    227 -0.05230000   1.008000   ; qtot 0.538700
  228         h1      9    bbb     H8    228 -0.05230000   1.008000   ; qtot 0.486400
  229         c3      9    bbb     C5    229 -0.60390000  12.010000   ; qtot -0.117500
  230         hc      9    bbb     H9    230 0.16730000   1.008000   ; qtot 0.049800
  231         hc      9    bbb    H10    231 0.16730000   1.008000   ; qtot 0.217100
  232         c3      9    bbb     C6    232 -0.60390000  12.010000   ; qtot -0.386800
  233         hc      9    bbb    H11    233 0.16730000   1.008000   ; qtot -0.219500
  234         hc      9    bbb    H12    234 0.16730000   1.008000   ; qtot -0.052200
  235          c      9    bbb     C7    235 0.72110000  12.010000   ; qtot 0.668900
  236          c      9    bbb     C8    236 0.72110000  12.010000   ; qtot 1.390000
  237          o      9    bbb     O1    237 -0.61950000  16.000000   ; qtot 0.770500
  238          o      9    bbb     O2    238 -0.61950000  16.000000   ; qtot 0.151000
  239          n      9    bbb     N4    239 -0.46580000  14.010000   ; qtot -0.314800
  240         hn      9    bbb    H21    240 0.31480000   1.008000   ; qtot -0.000000
; residue   10 bbb rtp bbb q -0.0
  241         c3     10    bbb     C1    241 0.44180000  12.010000   ; qtot 0.441800
  242         h1     10    bbb     H1    242 -0.03530000   1.008000   ; qtot 0.406500
  243         h1     10    bbb     H2    243 -0.03530000   1.008000   ; qtot 0.371200
  244         c3     10    bbb     C2    244 -0.28250000  12.010000   ; qtot 0.088700
  245         h1     10    bbb     H3    245 0.15710000   1.008000   ; qtot 0.245800
  246         h1     10    bbb     H4    246 0.15710000   1.008000   ; qtot 0.402900
  247         n3     10    bbb     N1    247 -0.74090000  14.010000   ; qtot -0.338000
  248         c3     10    bbb     C3    248 0.51680000  12.010000   ; qtot 0.178800
  249         h1     10    bbb     H5    249 -0.05230000   1.008000   ; qtot 0.126500
  250         h1     10    bbb     H6    250 -0.05230000   1.008000   ; qtot 0.074200
  251         c3     10    bbb     C4    251 0.51680000  12.010000   ; qtot 0.591000
  252         h1     10    bbb     H7    252 -0.05230000   1.008000   ; qtot 0.538700
  253         h1     10    bbb     H8    253 -0.05230000   1.008000   ; qtot 0.486400
  254         c3     10    bbb     C5    254 -0.60390000  12.010000   ; qtot -0.117500
  255         hc     10    bbb     H9    255 0.16730000   1.008000   ; qtot 0.049800
  256         hc     10    bbb    H10    256 0.16730000   1.008000   ; qtot 0.217100
  257         c3     10    bbb     C6    257 -0.60390000  12.010000   ; qtot -0.386800
  258         hc     10    bbb    H11    258 0.16730000   1.008000   ; qtot -0.219500
  259         hc     10    bbb    H12    259 0.16730000   1.008000   ; qtot -0.052200
  260          c     10    bbb     C7    260 0.72110000  12.010000   ; qtot 0.668900
  261          c     10    bbb     C8    261 0.72110000  12.010000   ; qtot 1.390000
  262          o     10    bbb     O1    262 -0.61950000  16.000000   ; qtot 0.770500
  263          o     10    bbb     O2    263 -0.61950000  16.000000   ; qtot 0.151000
  264          n     10    bbb     N4    264 -0.46580000  14.010000   ; qtot -0.314800
  265         hn     10    bbb    H21    265 0.31480000   1.008000   ; qtot -0.000000
; residue   11 bbb rtp bbb q -0.0
  266         c3     11    bbb     C1    266 0.44180000  12.010000   ; qtot 0.441800
  267         h1     11    bbb     H1    267 -0.03530000   1.008000   ; qtot 0.406500
  268         h1     11    bbb     H2    268 -0.03530000   1.008000   ; qtot 0.371200
  269         c3     11    bbb     C2    269 -0.28250000  12.010000   ; qtot 0.088700
  270         h1     11    bbb     H3    270 0.15710000   1.008000   ; qtot 0.245800
  271         h1     11    bbb     H4    271 0.15710000   1.008000   ; qtot 0.402900
  272         n3     11    bbb     N1    272 -0.74090000  14.010000   ; qtot -0.338000
  273         c3     11    bbb     C3    273 0.51680000  12.010000   ; qtot 0.178800
  274         h1     11    bbb     H5    274 -0.05230000   1.008000   ; qtot 0.126500
  275         h1     11    bbb     H6    275 -0.05230000   1.008000   ; qtot 0.074200
  276         c3     11    bbb     C4    276 0.51680000  12.010000   ; qtot 0.591000
  277         h1     11    bbb     H7    277 -0.05230000   1.008000   ; qtot 0.538700
  278         h1     11    bbb     H8    278 -0.05230000   1.008000   ; qtot 0.486400
  279         c3     11    bbb     C5    279 -0.60390000  12.010000   ; qtot -0.117500
  280         hc     11    bbb     H9    280 0.16730000   1.008000   ; qtot 0.049800
  281         hc     11    bbb    H10    281 0.16730000   1.008000   ; qtot 0.217100
  282         c3     11    bbb     C6    282 -0.60390000  12.010000   ; qtot -0.386800
  283         hc     11    bbb    H11    283 0.16730000   1.008000   ; qtot -0.219500
  284         hc     11    bbb    H12    284 0.16730000   1.008000   ; qtot -0.052200
  285          c     11    bbb     C7    285 0.72110000  12.010000   ; qtot 0.668900
  286          c     11    bbb     C8    286 0.72110000  12.010000   ; qtot 1.390000
  287          o     11    bbb     O1    287 -0.61950000  16.000000   ; qtot 0.770500
  288          o     11    bbb     O2    288 -0.61950000  16.000000   ; qtot 0.151000
  289          n     11    bbb     N4    289 -0.46580000  14.010000   ; qtot -0.314800
  290         hn     11    bbb    H21    290 0.31480000   1.008000   ; qtot -0.000000
; residue   12 bbb rtp bbb q -0.0
  291         c3     12    bbb     C1    291 0.44180000  12.010000   ; qtot 0.441800
  292         h1     12    bbb     H1    292 -0.03530000   1.008000   ; qtot 0.406500
  293         h1     12    bbb     H2    293 -0.03530000   1.008000   ; qtot 0.371200
  294         c3     12    bbb     C2    294 -0.28250000  12.010000   ; qtot 0.088700
  295         h1     12    bbb     H3    295 0.15710000   1.008000   ; qtot 0.245800
  296         h1     12    bbb     H4    296 0.15710000   1.008000   ; qtot 0.402900
  297         n3     12    bbb     N1    297 -0.74090000  14.010000   ; qtot -0.338000
  298         c3     12    bbb     C3    298 0.51680000  12.010000   ; qtot 0.178800
  299         h1     12    bbb     H5    299 -0.05230000   1.008000   ; qtot 0.126500
  300         h1     12    bbb     H6    300 -0.05230000   1.008000   ; qtot 0.074200
  301         c3     12    bbb     C4    301 0.51680000  12.010000   ; qtot 0.591000
  302         h1     12    bbb     H7    302 -0.05230000   1.008000   ; qtot 0.538700
  303         h1     12    bbb     H8    303 -0.05230000   1.008000   ; qtot 0.486400
  304         c3     12    bbb     C5    304 -0.60390000  12.010000   ; qtot -0.117500
  305         hc     12    bbb     H9    305 0.16730000   1.008000   ; qtot 0.049800
  306         hc     12    bbb    H10    306 0.16730000   1.008000   ; qtot 0.217100
  307         c3     12    bbb     C6    307 -0.60390000  12.010000   ; qtot -0.386800
  308         hc     12    bbb    H11    308 0.16730000   1.008000   ; qtot -0.219500
  309         hc     12    bbb    H12    309 0.16730000   1.008000   ; qtot -0.052200
  310          c     12    bbb     C7    310 0.72110000  12.010000   ; qtot 0.668900
  311          c     12    bbb     C8    311 0.72110000  12.010000   ; qtot 1.390000
  312          o     12    bbb     O1    312 -0.61950000  16.000000   ; qtot 0.770500
  313          o     12    bbb     O2    313 -0.61950000  16.000000   ; qtot 0.151000
  314          n     12    bbb     N4    314 -0.46580000  14.010000   ; qtot -0.314800
  315         hn     12    bbb    H21    315 0.31480000   1.008000   ; qtot -0.000000
; residue   13 bbb rtp bbb q -0.0
  316         c3     13    bbb     C1    316 0.44180000  12.010000   ; qtot 0.441800
  317         h1     13    bbb     H1    317 -0.03530000   1.008000   ; qtot 0.406500
  318         h1     13    bbb     H2    318 -0.03530000   1.008000   ; qtot 0.371200
  319         c3     13    bbb     C2    319 -0.28250000  12.010000   ; qtot 0.088700
  320         h1     13    bbb     H3    320 0.15710000   1.008000   ; qtot 0.245800
  321         h1     13    bbb     H4    321 0.15710000   1.008000   ; qtot 0.402900
  322         n3     13    bbb     N1    322 -0.74090000  14.010000   ; qtot -0.338000
  323         c3     13    bbb     C3    323 0.51680000  12.010000   ; qtot 0.178800
  324         h1     13    bbb     H5    324 -0.05230000   1.008000   ; qtot 0.126500
  325         h1     13    bbb     H6    325 -0.05230000   1.008000   ; qtot 0.074200
  326         c3     13    bbb     C4    326 0.51680000  12.010000   ; qtot 0.591000
  327         h1     13    bbb     H7    327 -0.05230000   1.008000   ; qtot 0.538700
  328         h1     13    bbb     H8    328 -0.05230000   1.008000   ; qtot 0.486400
  329         c3     13    bbb     C5    329 -0.60390000  12.010000   ; qtot -0.117500
  330         hc     13    bbb     H9    330 0.16730000   1.008000   ; qtot 0.049800
  331         hc     13    bbb    H10    331 0.16730000   1.008000   ; qtot 0.217100
  332         c3     13    bbb     C6    332 -0.60390000  12.010000   ; qtot -0.386800
  333         hc     13    bbb    H11    333 0.16730000   1.008000   ; qtot -0.219500
  334         hc     13    bbb    H12    334 0.16730000   1.008000   ; qtot -0.052200
  335          c     13    bbb     C7    335 0.72110000  12.010000   ; qtot 0.668900
  336          c     13    bbb     C8    336 0.72110000  12.010000   ; qtot 1.390000
  337          o     13    bbb     O1    337 -0.61950000  16.000000   ; qtot 0.770500
  338          o     13    bbb     O2    338 -0.61950000  16.000000   ; qtot 0.151000
  339          n     13    bbb     N4    339 -0.46580000  14.010000   ; qtot -0.314800
  340         hn     13    bbb    H21    340 0.31480000   1.008000   ; qtot -0.000000
; residue   14 bbb rtp bbb q -0.0
  341         c3     14    bbb     C1    341 0.44180000  12.010000   ; qtot 0.441800
  342         h1     14    bbb     H1    342 -0.03530000   1.008000   ; qtot 0.406500
  343         h1     14    bbb     H2    343 -0.03530000   1.008000   ; qtot 0.371200
  344         c3     14    bbb     C2    344 -0.28250000  12.010000   ; qtot 0.088700
  345         h1     14    bbb     H3    345 0.15710000   1.008000   ; qtot 0.245800
  346         h1     14    bbb     H4    346 0.15710000   1.008000   ; qtot 0.402900
  347         n3     14    bbb     N1    347 -0.74090000  14.010000   ; qtot -0.338000
  348         c3     14    bbb     C3    348 0.51680000  12.010000   ; qtot 0.178800
  349         h1     14    bbb     H5    349 -0.05230000   1.008000   ; qtot 0.126500
  350         h1     14    bbb     H6    350 -0.05230000   1.008000   ; qtot 0.074200
  351         c3     14    bbb     C4    351 0.51680000  12.010000   ; qtot 0.591000
  352         h1     14    bbb     H7    352 -0.05230000   1.008000   ; qtot 0.538700
  353         h1     14    bbb     H8    353 -0.05230000   1.008000   ; qtot 0.486400
  354         c3     14    bbb     C5    354 -0.60390000  12.010000   ; qtot -0.117500
  355         hc     14    bbb     H9    355 0.16730000   1.008000   ; qtot 0.049800
  356         hc     14    bbb    H10    356 0.16730000   1.008000   ; qtot 0.217100
  357         c3     14    bbb     C6    357 -0.60390000  12.010000   ; qtot -0.386800
  358         hc     14    bbb    H11    358 0.16730000   1.008000   ; qtot -0.219500
  359         hc     14    bbb    H12    359 0.16730000   1.008000   ; qtot -0.052200
  360          c     14    bbb     C7    360 0.72110000  12.010000   ; qtot 0.668900
  361          c     14    bbb     C8    361 0.72110000  12.010000   ; qtot 1.390000
  362          o     14    bbb     O1    362 -0.61950000  16.000000   ; qtot 0.770500
  363          o     14    bbb     O2    363 -0.61950000  16.000000   ; qtot 0.151000
  364          n     14    bbb     N4    364 -0.46580000  14.010000   ; qtot -0.314800
  365         hn     14    bbb    H21    365 0.31480000   1.008000   ; qtot -0.000000
; residue   15 bbb rtp bbb q -0.0
  366         c3     15    bbb     C1    366 0.44180000  12.010000   ; qtot 0.441800
  367         h1     15    bbb     H1    367 -0.03530000   1.008000   ; qtot 0.406500
  368         h1     15    bbb     H2    368 -0.03530000   1.008000   ; qtot 0.371200
  369         c3     15    bbb     C2    369 -0.28250000  12.010000   ; qtot 0.088700
  370         h1     15    bbb     H3    370 0.15710000   1.008000   ; qtot 0.245800
  371         h1     15    bbb     H4    371 0.15710000   1.008000   ; qtot 0.402900
  372         n3     15    bbb     N1    372 -0.74090000  14.010000   ; qtot -0.338000
  373         c3     15    bbb     C3    373 0.51680000  12.010000   ; qtot 0.178800
  374         h1     15    bbb     H5    374 -0.05230000   1.008000   ; qtot 0.126500
  375         h1     15    bbb     H6    375 -0.05230000   1.008000   ; qtot 0.074200
  376         c3     15    bbb     C4    376 0.51680000  12.010000   ; qtot 0.591000
  377         h1     15    bbb     H7    377 -0.05230000   1.008000   ; qtot 0.538700
  378         h1     15    bbb     H8    378 -0.05230000   1.008000   ; qtot 0.486400
  379         c3     15    bbb     C5    379 -0.60390000  12.010000   ; qtot -0.117500
  380         hc     15    bbb     H9    380 0.16730000   1.008000   ; qtot 0.049800
  381         hc     15    bbb    H10    381 0.16730000   1.008000   ; qtot 0.217100
  382         c3     15    bbb     C6    382 -0.60390000  12.010000   ; qtot -0.386800
  383         hc     15    bbb    H11    383 0.16730000   1.008000   ; qtot -0.219500
  384         hc     15    bbb    H12    384 0.16730000   1.008000   ; qtot -0.052200
  385          c     15    bbb     C7    385 0.72110000  12.010000   ; qtot 0.668900
  386          c     15    bbb     C8    386 0.72110000  12.010000   ; qtot 1.390000
  387          o     15    bbb     O1    387 -0.61950000  16.000000   ; qtot 0.770500
  388          o     15    bbb     O2    388 -0.61950000  16.000000   ; qtot 0.151000
  389          n     15    bbb     N4    389 -0.46580000  14.010000   ; qtot -0.314800
  390         hn     15    bbb    H21    390 0.31480000   1.008000   ; qtot -0.000000
; residue   16 bbb rtp bbb q -0.0
  391         c3     16    bbb     C1    391 0.44180000  12.010000   ; qtot 0.441800
  392         h1     16    bbb     H1    392 -0.03530000   1.008000   ; qtot 0.406500
  393         h1     16    bbb     H2    393 -0.03530000   1.008000   ; qtot 0.371200
  394         c3     16    bbb     C2    394 -0.28250000  12.010000   ; qtot 0.088700
  395         h1     16    bbb     H3    395 0.15710000   1.008000   ; qtot 0.245800
  396         h1     16    bbb     H4    396 0.15710000   1.008000   ; qtot 0.402900
  397         n3     16    bbb     N1    397 -0.74090000  14.010000   ; qtot -0.338000
  398         c3     16    bbb     C3    398 0.51680000  12.010000   ; qtot 0.178800
  399         h1     16    bbb     H5    399 -0.05230000   1.008000   ; qtot 0.126500
  400         h1     16    bbb     H6    400 -0.05230000   1.008000   ; qtot 0.074200
  401         c3     16    bbb     C4    401 0.51680000  12.010000   ; qtot 0.591000
  402         h1     16    bbb     H7    402 -0.05230000   1.008000   ; qtot 0.538700
  403         h1     16    bbb     H8    403 -0.05230000   1.008000   ; qtot 0.486400
  404         c3     16    bbb     C5    404 -0.60390000  12.010000   ; qtot -0.117500
  405         hc     16    bbb     H9    405 0.16730000   1.008000   ; qtot 0.049800
  406         hc     16    bbb    H10    406 0.16730000   1.008000   ; qtot 0.217100
  407         c3     16    bbb     C6    407 -0.60390000  12.010000   ; qtot -0.386800
  408         hc     16    bbb    H11    408 0.16730000   1.008000   ; qtot -0.219500
  409         hc     16    bbb    H12    409 0.16730000   1.008000   ; qtot -0.052200
  410          c     16    bbb     C7    410 0.72110000  12.010000   ; qtot 0.668900
  411          c     16    bbb     C8    411 0.72110000  12.010000   ; qtot 1.390000
  412          o     16    bbb     O1    412 -0.61950000  16.000000   ; qtot 0.770500
  413          o     16    bbb     O2    413 -0.61950000  16.000000   ; qtot 0.151000
  414          n     16    bbb     N4    414 -0.46580000  14.010000   ; qtot -0.314800
  415         hn     16    bbb    H21    415 0.31480000   1.008000   ; qtot -0.000000
; residue   17 bbb rtp bbb q -0.0
  416         c3     17    bbb     C1    416 0.44180000  12.010000   ; qtot 0.441800
  417         h1     17    bbb     H1    417 -0.03530000   1.008000   ; qtot 0.406500
  418         h1     17    bbb     H2    418 -0.03530000   1.008000   ; qtot 0.371200
  419         c3     17    bbb     C2    419 -0.28250000  12.010000   ; qtot 0.088700
  420         h1     17    bbb     H3    420 0.15710000   1.008000   ; qtot 0.245800
  421         h1     17    bbb     H4    421 0.15710000   1.008000   ; qtot 0.402900
  422         n3     17    bbb     N1    422 -0.74090000  14.010000   ; qtot -0.338000
  423         c3     17    bbb     C3    423 0.51680000  12.010000   ; qtot 0.178800
  424         h1     17    bbb     H5    424 -0.05230000   1.008000   ; qtot 0.126500
  425         h1     17    bbb     H6    425 -0.05230000   1.008000   ; qtot 0.074200
  426         c3     17    bbb     C4    426 0.51680000  12.010000   ; qtot 0.591000
  427         h1     17    bbb     H7    427 -0.05230000   1.008000   ; qtot 0.538700
  428         h1     17    bbb     H8    428 -0.05230000   1.008000   ; qtot 0.486400
  429         c3     17    bbb     C5    429 -0.60390000  12.010000   ; qtot -0.117500
  430         hc     17    bbb     H9    430 0.16730000   1.008000   ; qtot 0.049800
  431         hc     17    bbb    H10    431 0.16730000   1.008000   ; qtot 0.217100
  432         c3     17    bbb     C6    432 -0.60390000  12.010000   ; qtot -0.386800
  433         hc     17    bbb    H11    433 0.16730000   1.008000   ; qtot -0.219500
  434         hc     17    bbb    H12    434 0.16730000   1.008000   ; qtot -0.052200
  435          c     17    bbb     C7    435 0.72110000  12.010000   ; qtot 0.668900
  436          c     17    bbb     C8    436 0.72110000  12.010000   ; qtot 1.390000
  437          o     17    bbb     O1    437 -0.61950000  16.000000   ; qtot 0.770500
  438          o     17    bbb     O2    438 -0.61950000  16.000000   ; qtot 0.151000
  439          n     17    bbb     N4    439 -0.46580000  14.010000   ; qtot -0.314800
  440         hn     17    bbb    H21    440 0.31480000   1.008000   ; qtot -0.000000
; residue   18 bbb rtp bbb q -0.0
  441         c3     18    bbb     C1    441 0.44180000  12.010000   ; qtot 0.441800
  442         h1     18    bbb     H1    442 -0.03530000   1.008000   ; qtot 0.406500
  443         h1     18    bbb     H2    443 -0.03530000   1.008000   ; qtot 0.371200
  444         c3     18    bbb     C2    444 -0.28250000  12.010000   ; qtot 0.088700
  445         h1     18    bbb     H3    445 0.15710000   1.008000   ; qtot 0.245800
  446         h1     18    bbb     H4    446 0.15710000   1.008000   ; qtot 0.402900
  447         n3     18    bbb     N1    447 -0.74090000  14.010000   ; qtot -0.338000
  448         c3     18    bbb     C3    448 0.51680000  12.010000   ; qtot 0.178800
  449         h1     18    bbb     H5    449 -0.05230000   1.008000   ; qtot 0.126500
  450         h1     18    bbb     H6    450 -0.05230000   1.008000   ; qtot 0.074200
  451         c3     18    bbb     C4    451 0.51680000  12.010000   ; qtot 0.591000
  452         h1     18    bbb     H7    452 -0.05230000   1.008000   ; qtot 0.538700
  453         h1     18    bbb     H8    453 -0.05230000   1.008000   ; qtot 0.486400
  454         c3     18    bbb     C5    454 -0.60390000  12.010000   ; qtot -0.117500
  455         hc     18    bbb     H9    455 0.16730000   1.008000   ; qtot 0.049800
  456         hc     18    bbb    H10    456 0.16730000   1.008000   ; qtot 0.217100
  457         c3     18    bbb     C6    457 -0.60390000  12.010000   ; qtot -0.386800
  458         hc     18    bbb    H11    458 0.16730000   1.008000   ; qtot -0.219500
  459         hc     18    bbb    H12    459 0.16730000   1.008000   ; qtot -0.052200
  460          c     18    bbb     C7    460 0.72110000  12.010000   ; qtot 0.668900
  461          c     18    bbb     C8    461 0.72110000  12.010000   ; qtot 1.390000
  462          o     18    bbb     O1    462 -0.61950000  16.000000   ; qtot 0.770500
  463          o     18    bbb     O2    463 -0.61950000  16.000000   ; qtot 0.151000
  464          n     18    bbb     N4    464 -0.46580000  14.010000   ; qtot -0.314800
  465         hn     18    bbb    H21    465 0.31480000   1.008000   ; qtot -0.000000
; residue   19 bbb rtp bbb q -0.0
  466         c3     19    bbb     C1    466 0.44180000  12.010000   ; qtot 0.441800
  467         h1     19    bbb     H1    467 -0.03530000   1.008000   ; qtot 0.406500
  468         h1     19    bbb     H2    468 -0.03530000   1.008000   ; qtot 0.371200
  469         c3     19    bbb     C2    469 -0.28250000  12.010000   ; qtot 0.088700
  470         h1     19    bbb     H3    470 0.15710000   1.008000   ; qtot 0.245800
  471         h1     19    bbb     H4    471 0.15710000   1.008000   ; qtot 0.402900
  472         n3     19    bbb     N1    472 -0.74090000  14.010000   ; qtot -0.338000
  473         c3     19    bbb     C3    473 0.51680000  12.010000   ; qtot 0.178800
  474         h1     19    bbb     H5    474 -0.05230000   1.008000   ; qtot 0.126500
  475         h1     19    bbb     H6    475 -0.05230000   1.008000   ; qtot 0.074200
  476         c3     19    bbb     C4    476 0.51680000  12.010000   ; qtot 0.591000
  477         h1     19    bbb     H7    477 -0.05230000   1.008000   ; qtot 0.538700
  478         h1     19    bbb     H8    478 -0.05230000   1.008000   ; qtot 0.486400
  479         c3     19    bbb     C5    479 -0.60390000  12.010000   ; qtot -0.117500
  480         hc     19    bbb     H9    480 0.16730000   1.008000   ; qtot 0.049800
  481         hc     19    bbb    H10    481 0.16730000   1.008000   ; qtot 0.217100
  482         c3     19    bbb     C6    482 -0.60390000  12.010000   ; qtot -0.386800
  483         hc     19    bbb    H11    483 0.16730000   1.008000   ; qtot -0.219500
  484         hc     19    bbb    H12    484 0.16730000   1.008000   ; qtot -0.052200
  485          c     19    bbb     C7    485 0.72110000  12.010000   ; qtot 0.668900
  486          c     19    bbb     C8    486 0.72110000  12.010000   ; qtot 1.390000
  487          o     19    bbb     O1    487 -0.61950000  16.000000   ; qtot 0.770500
  488          o     19    bbb     O2    488 -0.61950000  16.000000   ; qtot 0.151000
  489          n     19    bbb     N4    489 -0.46580000  14.010000   ; qtot -0.314800
  490         hn     19    bbb    H21    490 0.31480000   1.008000   ; qtot -0.000000
; residue   20 bbb rtp bbb q -0.0
  491         c3     20    bbb     C1    491 0.44180000  12.010000   ; qtot 0.441800
  492         h1     20    bbb     H1    492 -0.03530000   1.008000   ; qtot 0.406500
  493         h1     20    bbb     H2    493 -0.03530000   1.008000   ; qtot 0.371200
  494         c3     20    bbb     C2    494 -0.28250000  12.010000   ; qtot 0.088700
  495         h1     20    bbb     H3    495 0.15710000   1.008000   ; qtot 0.245800
  496         h1     20    bbb     H4    496 0.15710000   1.008000   ; qtot 0.402900
  497         n3     20    bbb     N1    497 -0.74090000  14.010000   ; qtot -0.338000
  498         c3     20    bbb     C3    498 0.51680000  12.010000   ; qtot 0.178800
  499         h1     20    bbb     H5    499 -0.05230000   1.008000   ; qtot 0.126500
  500         h1     20    bbb     H6    500 -0.05230000   1.008000   ; qtot 0.074200
  501         c3     20    bbb     C4    501 0.51680000  12.010000   ; qtot 0.591000
  502         h1     20    bbb     H7    502 -0.05230000   1.008000   ; qtot 0.538700
  503         h1     20    bbb     H8    503 -0.05230000   1.008000   ; qtot 0.486400
  504         c3     20    bbb     C5    504 -0.60390000  12.010000   ; qtot -0.117500
  505         hc     20    bbb     H9    505 0.16730000   1.008000   ; qtot 0.049800
  506         hc     20    bbb    H10    506 0.16730000   1.008000   ; qtot 0.217100
  507         c3     20    bbb     C6    507 -0.60390000  12.010000   ; qtot -0.386800
  508         hc     20    bbb    H11    508 0.16730000   1.008000   ; qtot -0.219500
  509         hc     20    bbb    H12    509 0.16730000   1.008000   ; qtot -0.052200
  510          c     20    bbb     C7    510 0.72110000  12.010000   ; qtot 0.668900
  511          c     20    bbb     C8    511 0.72110000  12.010000   ; qtot 1.390000
  512          o     20    bbb     O1    512 -0.61950000  16.000000   ; qtot 0.770500
  513          o     20    bbb     O2    513 -0.61950000  16.000000   ; qtot 0.151000
  514          n     20    bbb     N4    514 -0.46580000  14.010000   ; qtot -0.314800
  515         hn     20    bbb    H21    515 0.31480000   1.008000   ; qtot -0.000000
; residue   21 bbb rtp bbb q -0.0
  516         c3     21    bbb     C1    516 0.44180000  12.010000   ; qtot 0.441800
  517         h1     21    bbb     H1    517 -0.03530000   1.008000   ; qtot 0.406500
  518         h1     21    bbb     H2    518 -0.03530000   1.008000   ; qtot 0.371200
  519         c3     21    bbb     C2    519 -0.28250000  12.010000   ; qtot 0.088700
  520         h1     21    bbb     H3    520 0.15710000   1.008000   ; qtot 0.245800
  521         h1     21    bbb     H4    521 0.15710000   1.008000   ; qtot 0.402900
  522         n3     21    bbb     N1    522 -0.74090000  14.010000   ; qtot -0.338000
  523         c3     21    bbb     C3    523 0.51680000  12.010000   ; qtot 0.178800
  524         h1     21    bbb     H5    524 -0.05230000   1.008000   ; qtot 0.126500
  525         h1     21    bbb     H6    525 -0.05230000   1.008000   ; qtot 0.074200
  526         c3     21    bbb     C4    526 0.51680000  12.010000   ; qtot 0.591000
  527         h1     21    bbb     H7    527 -0.05230000   1.008000   ; qtot 0.538700
  528         h1     21    bbb     H8    528 -0.05230000   1.008000   ; qtot 0.486400
  529         c3     21    bbb     C5    529 -0.60390000  12.010000   ; qtot -0.117500
  530         hc     21    bbb     H9    530 0.16730000   1.008000   ; qtot 0.049800
  531         hc     21    bbb    H10    531 0.16730000   1.008000   ; qtot 0.217100
  532         c3     21    bbb     C6    532 -0.60390000  12.010000   ; qtot -0.386800
  533         hc     21    bbb    H11    533 0.16730000   1.008000   ; qtot -0.219500
  534         hc     21    bbb    H12    534 0.16730000   1.008000   ; qtot -0.052200
  535          c     21    bbb     C7    535 0.72110000  12.010000   ; qtot 0.668900
  536          c     21    bbb     C8    536 0.72110000  12.010000   ; qtot 1.390000
  537          o     21    bbb     O1    537 -0.61950000  16.000000   ; qtot 0.770500
  538          o     21    bbb     O2    538 -0.61950000  16.000000   ; qtot 0.151000
  539          n     21    bbb     N4    539 -0.46580000  14.010000   ; qtot -0.314800
  540         hn     21    bbb    H21    540 0.31480000   1.008000   ; qtot -0.000000
; residue   22 bbb rtp bbb q -0.0
  541         c3     22    bbb     C1    541 0.44180000  12.010000   ; qtot 0.441800
  542         h1     22    bbb     H1    542 -0.03530000   1.008000   ; qtot 0.406500
  543         h1     22    bbb     H2    543 -0.03530000   1.008000   ; qtot 0.371200
  544         c3     22    bbb     C2    544 -0.28250000  12.010000   ; qtot 0.088700
  545         h1     22    bbb     H3    545 0.15710000   1.008000   ; qtot 0.245800
  546         h1     22    bbb     H4    546 0.15710000   1.008000   ; qtot 0.402900
  547         n3     22    bbb     N1    547 -0.74090000  14.010000   ; qtot -0.338000
  548         c3     22    bbb     C3    548 0.51680000  12.010000   ; qtot 0.178800
  549         h1     22    bbb     H5    549 -0.05230000   1.008000   ; qtot 0.126500
  550         h1     22    bbb     H6    550 -0.05230000   1.008000   ; qtot 0.074200
  551         c3     22    bbb     C4    551 0.51680000  12.010000   ; qtot 0.591000
  552         h1     22    bbb     H7    552 -0.05230000   1.008000   ; qtot 0.538700
  553         h1     22    bbb     H8    553 -0.05230000   1.008000   ; qtot 0.486400
  554         c3     22    bbb     C5    554 -0.60390000  12.010000   ; qtot -0.117500
  555         hc     22    bbb     H9    555 0.16730000   1.008000   ; qtot 0.049800
  556         hc     22    bbb    H10    556 0.16730000   1.008000   ; qtot 0.217100
  557         c3     22    bbb     C6    557 -0.60390000  12.010000   ; qtot -0.386800
  558         hc     22    bbb    H11    558 0.16730000   1.008000   ; qtot -0.219500
  559         hc     22    bbb    H12    559 0.16730000   1.008000   ; qtot -0.052200
  560          c     22    bbb     C7    560 0.72110000  12.010000   ; qtot 0.668900
  561          c     22    bbb     C8    561 0.72110000  12.010000   ; qtot 1.390000
  562          o     22    bbb     O1    562 -0.61950000  16.000000   ; qtot 0.770500
  563          o     22    bbb     O2    563 -0.61950000  16.000000   ; qtot 0.151000
  564          n     22    bbb     N4    564 -0.46580000  14.010000   ; qtot -0.314800
  565         hn     22    bbb    H21    565 0.31480000   1.008000   ; qtot -0.000000
; residue   23 bbb rtp bbb q -0.0
  566         c3     23    bbb     C1    566 0.44180000  12.010000   ; qtot 0.441800
  567         h1     23    bbb     H1    567 -0.03530000   1.008000   ; qtot 0.406500
  568         h1     23    bbb     H2    568 -0.03530000   1.008000   ; qtot 0.371200
  569         c3     23    bbb     C2    569 -0.28250000  12.010000   ; qtot 0.088700
  570         h1     23    bbb     H3    570 0.15710000   1.008000   ; qtot 0.245800
  571         h1     23    bbb     H4    571 0.15710000   1.008000   ; qtot 0.402900
  572         n3     23    bbb     N1    572 -0.74090000  14.010000   ; qtot -0.338000
  573         c3     23    bbb     C3    573 0.51680000  12.010000   ; qtot 0.178800
  574         h1     23    bbb     H5    574 -0.05230000   1.008000   ; qtot 0.126500
  575         h1     23    bbb     H6    575 -0.05230000   1.008000   ; qtot 0.074200
  576         c3     23    bbb     C4    576 0.51680000  12.010000   ; qtot 0.591000
  577         h1     23    bbb     H7    577 -0.05230000   1.008000   ; qtot 0.538700
  578         h1     23    bbb     H8    578 -0.05230000   1.008000   ; qtot 0.486400
  579         c3     23    bbb     C5    579 -0.60390000  12.010000   ; qtot -0.117500
  580         hc     23    bbb     H9    580 0.16730000   1.008000   ; qtot 0.049800
  581         hc     23    bbb    H10    581 0.16730000   1.008000   ; qtot 0.217100
  582         c3     23    bbb     C6    582 -0.60390000  12.010000   ; qtot -0.386800
  583         hc     23    bbb    H11    583 0.16730000   1.008000   ; qtot -0.219500
  584         hc     23    bbb    H12    584 0.16730000   1.008000   ; qtot -0.052200
  585          c     23    bbb     C7    585 0.72110000  12.010000   ; qtot 0.668900
  586          c     23    bbb     C8    586 0.72110000  12.010000   ; qtot 1.390000
  587          o     23    bbb     O1    587 -0.61950000  16.000000   ; qtot 0.770500
  588          o     23    bbb     O2    588 -0.61950000  16.000000   ; qtot 0.151000
  589          n     23    bbb     N4    589 -0.46580000  14.010000   ; qtot -0.314800
  590         hn     23    bbb    H21    590 0.31480000   1.008000   ; qtot -0.000000
; residue   24 bbb rtp bbb q -0.0
  591         c3     24    bbb     C1    591 0.44180000  12.010000   ; qtot 0.441800
  592         h1     24    bbb     H1    592 -0.03530000   1.008000   ; qtot 0.406500
  593         h1     24    bbb     H2    593 -0.03530000   1.008000   ; qtot 0.371200
  594         c3     24    bbb     C2    594 -0.28250000  12.010000   ; qtot 0.088700
  595         h1     24    bbb     H3    595 0.15710000   1.008000   ; qtot 0.245800
  596         h1     24    bbb     H4    596 0.15710000   1.008000   ; qtot 0.402900
  597         n3     24    bbb     N1    597 -0.74090000  14.010000   ; qtot -0.338000
  598         c3     24    bbb     C3    598 0.51680000  12.010000   ; qtot 0.178800
  599         h1     24    bbb     H5    599 -0.05230000   1.008000   ; qtot 0.126500
  600         h1     24    bbb     H6    600 -0.05230000   1.008000   ; qtot 0.074200
  601         c3     24    bbb     C4    601 0.51680000  12.010000   ; qtot 0.591000
  602         h1     24    bbb     H7    602 -0.05230000   1.008000   ; qtot 0.538700
  603         h1     24    bbb     H8    603 -0.05230000   1.008000   ; qtot 0.486400
  604         c3     24    bbb     C5    604 -0.60390000  12.010000   ; qtot -0.117500
  605         hc     24    bbb     H9    605 0.16730000   1.008000   ; qtot 0.049800
  606         hc     24    bbb    H10    606 0.16730000   1.008000   ; qtot 0.217100
  607         c3     24    bbb     C6    607 -0.60390000  12.010000   ; qtot -0.386800
  608         hc     24    bbb    H11    608 0.16730000   1.008000   ; qtot -0.219500
  609         hc     24    bbb    H12    609 0.16730000   1.008000   ; qtot -0.052200
  610          c     24    bbb     C7    610 0.72110000  12.010000   ; qtot 0.668900
  611          c     24    bbb     C8    611 0.72110000  12.010000   ; qtot 1.390000
  612          o     24    bbb     O1    612 -0.61950000  16.000000   ; qtot 0.770500
  613          o     24    bbb     O2    613 -0.61950000  16.000000   ; qtot 0.151000
  614          n     24    bbb     N4    614 -0.46580000  14.010000   ; qtot -0.314800
  615         hn     24    bbb    H21    615 0.31480000   1.008000   ; qtot -0.000000
; residue   25 bbb rtp bbb q -0.0
  616         c3     25    bbb     C1    616 0.44180000  12.010000   ; qtot 0.441800
  617         h1     25    bbb     H1    617 -0.03530000   1.008000   ; qtot 0.406500
  618         h1     25    bbb     H2    618 -0.03530000   1.008000   ; qtot 0.371200
  619         c3     25    bbb     C2    619 -0.28250000  12.010000   ; qtot 0.088700
  620         h1     25    bbb     H3    620 0.15710000   1.008000   ; qtot 0.245800
  621         h1     25    bbb     H4    621 0.15710000   1.008000   ; qtot 0.402900
  622         n3     25    bbb     N1    622 -0.74090000  14.010000   ; qtot -0.338000
  623         c3     25    bbb     C3    623 0.51680000  12.010000   ; qtot 0.178800
  624         h1     25    bbb     H5    624 -0.05230000   1.008000   ; qtot 0.126500
  625         h1     25    bbb     H6    625 -0.05230000   1.008000   ; qtot 0.074200
  626         c3     25    bbb     C4    626 0.51680000  12.010000   ; qtot 0.591000
  627         h1     25    bbb     H7    627 -0.05230000   1.008000   ; qtot 0.538700
  628         h1     25    bbb     H8    628 -0.05230000   1.008000   ; qtot 0.486400
  629         c3     25    bbb     C5    629 -0.60390000  12.010000   ; qtot -0.117500
  630         hc     25    bbb     H9    630 0.16730000   1.008000   ; qtot 0.049800
  631         hc     25    bbb    H10    631 0.16730000   1.008000   ; qtot 0.217100
  632         c3     25    bbb     C6    632 -0.60390000  12.010000   ; qtot -0.386800
  633         hc     25    bbb    H11    633 0.16730000   1.008000   ; qtot -0.219500
  634         hc     25    bbb    H12    634 0.16730000   1.008000   ; qtot -0.052200
  635          c     25    bbb     C7    635 0.72110000  12.010000   ; qtot 0.668900
  636          c     25    bbb     C8    636 0.72110000  12.010000   ; qtot 1.390000
  637          o     25    bbb     O1    637 -0.61950000  16.000000   ; qtot 0.770500
  638          o     25    bbb     O2    638 -0.61950000  16.000000   ; qtot 0.151000
  639          n     25    bbb     N4    639 -0.46580000  14.010000   ; qtot -0.314800
  640         hn     25    bbb    H21    640 0.31480000   1.008000   ; qtot -0.000000
; residue   26 bbb rtp bbb q -0.0
  641         c3     26    bbb     C1    641 0.44180000  12.010000   ; qtot 0.441800
  642         h1     26    bbb     H1    642 -0.03530000   1.008000   ; qtot 0.406500
  643         h1     26    bbb     H2    643 -0.03530000   1.008000   ; qtot 0.371200
  644         c3     26    bbb     C2    644 -0.28250000  12.010000   ; qtot 0.088700
  645         h1     26    bbb     H3    645 0.15710000   1.008000   ; qtot 0.245800
  646         h1     26    bbb     H4    646 0.15710000   1.008000   ; qtot 0.402900
  647         n3     26    bbb     N1    647 -0.74090000  14.010000   ; qtot -0.338000
  648         c3     26    bbb     C3    648 0.51680000  12.010000   ; qtot 0.178800
  649         h1     26    bbb     H5    649 -0.05230000   1.008000   ; qtot 0.126500
  650         h1     26    bbb     H6    650 -0.05230000   1.008000   ; qtot 0.074200
  651         c3     26    bbb     C4    651 0.51680000  12.010000   ; qtot 0.591000
  652         h1     26    bbb     H7    652 -0.05230000   1.008000   ; qtot 0.538700
  653         h1     26    bbb     H8    653 -0.05230000   1.008000   ; qtot 0.486400
  654         c3     26    bbb     C5    654 -0.60390000  12.010000   ; qtot -0.117500
  655         hc     26    bbb     H9    655 0.16730000   1.008000   ; qtot 0.049800
  656         hc     26    bbb    H10    656 0.16730000   1.008000   ; qtot 0.217100
  657         c3     26    bbb     C6    657 -0.60390000  12.010000   ; qtot -0.386800
  658         hc     26    bbb    H11    658 0.16730000   1.008000   ; qtot -0.219500
  659         hc     26    bbb    H12    659 0.16730000   1.008000   ; qtot -0.052200
  660          c     26    bbb     C7    660 0.72110000  12.010000   ; qtot 0.668900
  661          c     26    bbb     C8    661 0.72110000  12.010000   ; qtot 1.390000
  662          o     26    bbb     O1    662 -0.61950000  16.000000   ; qtot 0.770500
  663          o     26    bbb     O2    663 -0.61950000  16.000000   ; qtot 0.151000
  664          n     26    bbb     N4    664 -0.46580000  14.010000   ; qtot -0.314800
  665         hn     26    bbb    H21    665 0.31480000   1.008000   ; qtot -0.000000
; residue   27 bbb rtp bbb q -0.0
  666         c3     27    bbb     C1    666 0.44180000  12.010000   ; qtot 0.441800
  667         h1     27    bbb     H1    667 -0.03530000   1.008000   ; qtot 0.406500
  668         h1     27    bbb     H2    668 -0.03530000   1.008000   ; qtot 0.371200
  669         c3     27    bbb     C2    669 -0.28250000  12.010000   ; qtot 0.088700
  670         h1     27    bbb     H3    670 0.15710000   1.008000   ; qtot 0.245800
  671         h1     27    bbb     H4    671 0.15710000   1.008000   ; qtot 0.402900
  672         n3     27    bbb     N1    672 -0.74090000  14.010000   ; qtot -0.338000
  673         c3     27    bbb     C3    673 0.51680000  12.010000   ; qtot 0.178800
  674         h1     27    bbb     H5    674 -0.05230000   1.008000   ; qtot 0.126500
  675         h1     27    bbb     H6    675 -0.05230000   1.008000   ; qtot 0.074200
  676         c3     27    bbb     C4    676 0.51680000  12.010000   ; qtot 0.591000
  677         h1     27    bbb     H7    677 -0.05230000   1.008000   ; qtot 0.538700
  678         h1     27    bbb     H8    678 -0.05230000   1.008000   ; qtot 0.486400
  679         c3     27    bbb     C5    679 -0.60390000  12.010000   ; qtot -0.117500
  680         hc     27    bbb     H9    680 0.16730000   1.008000   ; qtot 0.049800
  681         hc     27    bbb    H10    681 0.16730000   1.008000   ; qtot 0.217100
  682         c3     27    bbb     C6    682 -0.60390000  12.010000   ; qtot -0.386800
  683         hc     27    bbb    H11    683 0.16730000   1.008000   ; qtot -0.219500
  684         hc     27    bbb    H12    684 0.16730000   1.008000   ; qtot -0.052200
  685          c     27    bbb     C7    685 0.72110000  12.010000   ; qtot 0.668900
  686          c     27    bbb     C8    686 0.72110000  12.010000   ; qtot 1.390000
  687          o     27    bbb     O1    687 -0.61950000  16.000000   ; qtot 0.770500
  688          o     27    bbb     O2    688 -0.61950000  16.000000   ; qtot 0.151000
  689          n     27    bbb     N4    689 -0.46580000  14.010000   ; qtot -0.314800
  690         hn     27    bbb    H21    690 0.31480000   1.008000   ; qtot -0.000000
; residue   28 bbb rtp bbb q -0.0
  691         c3     28    bbb     C1    691 0.44180000  12.010000   ; qtot 0.441800
  692         h1     28    bbb     H1    692 -0.03530000   1.008000   ; qtot 0.406500
  693         h1     28    bbb     H2    693 -0.03530000   1.008000   ; qtot 0.371200
  694         c3     28    bbb     C2    694 -0.28250000  12.010000   ; qtot 0.088700
  695         h1     28    bbb     H3    695 0.15710000   1.008000   ; qtot 0.245800
  696         h1     28    bbb     H4    696 0.15710000   1.008000   ; qtot 0.402900
  697         n3     28    bbb     N1    697 -0.74090000  14.010000   ; qtot -0.338000
  698         c3     28    bbb     C3    698 0.51680000  12.010000   ; qtot 0.178800
  699         h1     28    bbb     H5    699 -0.05230000   1.008000   ; qtot 0.126500
  700         h1     28    bbb     H6    700 -0.05230000   1.008000   ; qtot 0.074200
  701         c3     28    bbb     C4    701 0.51680000  12.010000   ; qtot 0.591000
  702         h1     28    bbb     H7    702 -0.05230000   1.008000   ; qtot 0.538700
  703         h1     28    bbb     H8    703 -0.05230000   1.008000   ; qtot 0.486400
  704         c3     28    bbb     C5    704 -0.60390000  12.010000   ; qtot -0.117500
  705         hc     28    bbb     H9    705 0.16730000   1.008000   ; qtot 0.049800
  706         hc     28    bbb    H10    706 0.16730000   1.008000   ; qtot 0.217100
  707         c3     28    bbb     C6    707 -0.60390000  12.010000   ; qtot -0.386800
  708         hc     28    bbb    H11    708 0.16730000   1.008000   ; qtot -0.219500
  709         hc     28    bbb    H12    709 0.16730000   1.008000   ; qtot -0.052200
  710          c     28    bbb     C7    710 0.72110000  12.010000   ; qtot 0.668900
  711          c     28    bbb     C8    711 0.72110000  12.010000   ; qtot 1.390000
  712          o     28    bbb     O1    712 -0.61950000  16.000000   ; qtot 0.770500
  713          o     28    bbb     O2    713 -0.61950000  16.000000   ; qtot 0.151000
  714          n     28    bbb     N4    714 -0.46580000  14.010000   ; qtot -0.314800
  715         hn     28    bbb    H21    715 0.31480000   1.008000   ; qtot -0.000000
; residue   29 bbb rtp bbb q -0.0
  716         c3     29    bbb     C1    716 0.44180000  12.010000   ; qtot 0.441800
  717         h1     29    bbb     H1    717 -0.03530000   1.008000   ; qtot 0.406500
  718         h1     29    bbb     H2    718 -0.03530000   1.008000   ; qtot 0.371200
  719         c3     29    bbb     C2    719 -0.28250000  12.010000   ; qtot 0.088700
  720         h1     29    bbb     H3    720 0.15710000   1.008000   ; qtot 0.245800
  721         h1     29    bbb     H4    721 0.15710000   1.008000   ; qtot 0.402900
  722         n3     29    bbb     N1    722 -0.74090000  14.010000   ; qtot -0.338000
  723         c3     29    bbb     C3    723 0.51680000  12.010000   ; qtot 0.178800
  724         h1     29    bbb     H5    724 -0.05230000   1.008000   ; qtot 0.126500
  725         h1     29    bbb     H6    725 -0.05230000   1.008000   ; qtot 0.074200
  726         c3     29    bbb     C4    726 0.51680000  12.010000   ; qtot 0.591000
  727         h1     29    bbb     H7    727 -0.05230000   1.008000   ; qtot 0.538700
  728         h1     29    bbb     H8    728 -0.05230000   1.008000   ; qtot 0.486400
  729         c3     29    bbb     C5    729 -0.60390000  12.010000   ; qtot -0.117500
  730         hc     29    bbb     H9    730 0.16730000   1.008000   ; qtot 0.049800
  731         hc     29    bbb    H10    731 0.16730000   1.008000   ; qtot 0.217100
  732         c3     29    bbb     C6    732 -0.60390000  12.010000   ; qtot -0.386800
  733         hc     29    bbb    H11    733 0.16730000   1.008000   ; qtot -0.219500
  734         hc     29    bbb    H12    734 0.16730000   1.008000   ; qtot -0.052200
  735          c     29    bbb     C7    735 0.72110000  12.010000   ; qtot 0.668900
  736          c     29    bbb     C8    736 0.72110000  12.010000   ; qtot 1.390000
  737          o     29    bbb     O1    737 -0.61950000  16.000000   ; qtot 0.770500
  738          o     29    bbb     O2    738 -0.61950000  16.000000   ; qtot 0.151000
  739          n     29    bbb     N4    739 -0.46580000  14.010000   ; qtot -0.314800
  740         hn     29    bbb    H21    740 0.31480000   1.008000   ; qtot -0.000000
; residue   30 ccc rtp ccc q 1.0
  741          n     30    ccc     N1    741 -0.26410000  14.010000   ; qtot -0.264100
  742         hn     30    ccc     H4    742 0.27630000   1.008000   ; qtot 0.012200
  743         c3     30    ccc     C3    743 -0.17900000  12.010000   ; qtot -0.166800
  744         c3     30    ccc     C4    744 0.08000000  12.010000   ; qtot -0.086800
  745         h1     30    ccc     H5    745 0.13870000   1.008000   ; qtot 0.051900
  746         h1     30    ccc     H6    746 0.13870000   1.008000   ; qtot 0.190600
  747         hx     30    ccc     H7    747 0.07790000   1.008000   ; qtot 0.268500
  748         hx     30    ccc     H8    748 0.07790000   1.008000   ; qtot 0.346400
  749         n4     30    ccc     N2    749 -0.16780000  14.010000   ; qtot 0.178600
  750         hn     30    ccc     H9    750 0.27380000   1.008000   ; qtot 0.452400
  751         hn     30    ccc    H10    751 0.27380000   1.008000   ; qtot 0.726200
  752         hn     30    ccc    H11    752 0.27380000   1.008000   ; qtot 1.000000
; residue   31 ccc rtp ccc q 1.0
  753          n     31    ccc     N1    753 -0.26410000  14.010000   ; qtot 0.735900
  754         hn     31    ccc     H4    754 0.27630000   1.008000   ; qtot 1.012200
  755         c3     31    ccc     C3    755 -0.17900000  12.010000   ; qtot 0.833200
  756         c3     31    ccc     C4    756 0.08000000  12.010000   ; qtot 0.913200
  757         h1     31    ccc     H5    757 0.13870000   1.008000   ; qtot 1.051900
  758         h1     31    ccc     H6    758 0.13870000   1.008000   ; qtot 1.190600
  759         hx     31    ccc     H7    759 0.07790000   1.008000   ; qtot 1.268500
  760         hx     31    ccc     H8    760 0.07790000   1.008000   ; qtot 1.346400
  761         n4     31    ccc     N2    761 -0.16780000  14.010000   ; qtot 1.178600
  762         hn     31    ccc     H9    762 0.27380000   1.008000   ; qtot 1.452400
  763         hn     31    ccc    H10    763 0.27380000   1.008000   ; qtot 1.726200
  764         hn     31    ccc    H11    764 0.27380000   1.008000   ; qtot 2.000000
; residue   32 ccc rtp ccc q 1.0
  765          n     32    ccc     N1    765 -0.26410000  14.010000   ; qtot 1.735900
  766         hn     32    ccc     H4    766 0.27630000   1.008000   ; qtot 2.012200
  767         c3     32    ccc     C3    767 -0.17900000  12.010000   ; qtot 1.833200
  768         c3     32    ccc     C4    768 0.08000000  12.010000   ; qtot 1.913200
  769         h1     32    ccc     H5    769 0.13870000   1.008000   ; qtot 2.051900
  770         h1     32    ccc     H6    770 0.13870000   1.008000   ; qtot 2.190600
  771         hx     32    ccc     H7    771 0.07790000   1.008000   ; qtot 2.268500
  772         hx     32    ccc     H8    772 0.07790000   1.008000   ; qtot 2.346400
  773         n4     32    ccc     N2    773 -0.16780000  14.010000   ; qtot 2.178600
  774         hn     32    ccc     H9    774 0.27380000   1.008000   ; qtot 2.452400
  775         hn     32    ccc    H10    775 0.27380000   1.008000   ; qtot 2.726200
  776         hn     32    ccc    H11    776 0.27380000   1.008000   ; qtot 3.000000
; residue   33 ccc rtp ccc q 1.0
  777          n     33    ccc     N1    777 -0.26410000  14.010000   ; qtot 2.735900
  778         hn     33    ccc     H4    778 0.27630000   1.008000   ; qtot 3.012200
  779         c3     33    ccc     C3    779 -0.17900000  12.010000   ; qtot 2.833200
  780         c3     33    ccc     C4    780 0.08000000  12.010000   ; qtot 2.913200
  781         h1     33    ccc     H5    781 0.13870000   1.008000   ; qtot 3.051900
  782         h1     33    ccc     H6    782 0.13870000   1.008000   ; qtot 3.190600
  783         hx     33    ccc     H7    783 0.07790000   1.008000   ; qtot 3.268500
  784         hx     33    ccc     H8    784 0.07790000   1.008000   ; qtot 3.346400
  785         n4     33    ccc     N2    785 -0.16780000  14.010000   ; qtot 3.178600
  786         hn     33    ccc     H9    786 0.27380000   1.008000   ; qtot 3.452400
  787         hn     33    ccc    H10    787 0.27380000   1.008000   ; qtot 3.726200
  788         hn     33    ccc    H11    788 0.27380000   1.008000   ; qtot 4.000000
; residue   34 ccc rtp ccc q 1.0
  789          n     34    ccc     N1    789 -0.26410000  14.010000   ; qtot 3.735900
  790         hn     34    ccc     H4    790 0.27630000   1.008000   ; qtot 4.012200
  791         c3     34    ccc     C3    791 -0.17900000  12.010000   ; qtot 3.833200
  792         c3     34    ccc     C4    792 0.08000000  12.010000   ; qtot 3.913200
  793         h1     34    ccc     H5    793 0.13870000   1.008000   ; qtot 4.051900
  794         h1     34    ccc     H6    794 0.13870000   1.008000   ; qtot 4.190600
  795         hx     34    ccc     H7    795 0.07790000   1.008000   ; qtot 4.268500
  796         hx     34    ccc     H8    796 0.07790000   1.008000   ; qtot 4.346400
  797         n4     34    ccc     N2    797 -0.16780000  14.010000   ; qtot 4.178600
  798         hn     34    ccc     H9    798 0.27380000   1.008000   ; qtot 4.452400
  799         hn     34    ccc    H10    799 0.27380000   1.008000   ; qtot 4.726200
  800         hn     34    ccc    H11    800 0.27380000   1.008000   ; qtot 5.000000
; residue   35 ccc rtp ccc q 1.0
  801          n     35    ccc     N1    801 -0.26410000  14.010000   ; qtot 4.735900
  802         hn     35    ccc     H4    802 0.27630000   1.008000   ; qtot 5.012200
  803         c3     35    ccc     C3    803 -0.17900000  12.010000   ; qtot 4.833200
  804         c3     35    ccc     C4    804 0.08000000  12.010000   ; qtot 4.913200
  805         h1     35    ccc     H5    805 0.13870000   1.008000   ; qtot 5.051900
  806         h1     35    ccc     H6    806 0.13870000   1.008000   ; qtot 5.190600
  807         hx     35    ccc     H7    807 0.07790000   1.008000   ; qtot 5.268500
  808         hx     35    ccc     H8    808 0.07790000   1.008000   ; qtot 5.346400
  809         n4     35    ccc     N2    809 -0.16780000  14.010000   ; qtot 5.178600
  810         hn     35    ccc     H9    810 0.27380000   1.008000   ; qtot 5.452400
  811         hn     35    ccc    H10    811 0.27380000   1.008000   ; qtot 5.726200
  812         hn     35    ccc    H11    812 0.27380000   1.008000   ; qtot 6.000000
; residue   36 ccc rtp ccc q 1.0
  813          n     36    ccc     N1    813 -0.26410000  14.010000   ; qtot 5.735900
  814         hn     36    ccc     H4    814 0.27630000   1.008000   ; qtot 6.012200
  815         c3     36    ccc     C3    815 -0.17900000  12.010000   ; qtot 5.833200
  816         c3     36    ccc     C4    816 0.08000000  12.010000   ; qtot 5.913200
  817         h1     36    ccc     H5    817 0.13870000   1.008000   ; qtot 6.051900
  818         h1     36    ccc     H6    818 0.13870000   1.008000   ; qtot 6.190600
  819         hx     36    ccc     H7    819 0.07790000   1.008000   ; qtot 6.268500
  820         hx     36    ccc     H8    820 0.07790000   1.008000   ; qtot 6.346400
  821         n4     36    ccc     N2    821 -0.16780000  14.010000   ; qtot 6.178600
  822         hn     36    ccc     H9    822 0.27380000   1.008000   ; qtot 6.452400
  823         hn     36    ccc    H10    823 0.27380000   1.008000   ; qtot 6.726200
  824         hn     36    ccc    H11    824 0.27380000   1.008000   ; qtot 7.000000
; residue   37 ccc rtp ccc q 1.0
  825          n     37    ccc     N1    825 -0.26410000  14.010000   ; qtot 6.735900
  826         hn     37    ccc     H4    826 0.27630000   1.008000   ; qtot 7.012200
  827         c3     37    ccc     C3    827 -0.17900000  12.010000   ; qtot 6.833200
  828         c3     37    ccc     C4    828 0.08000000  12.010000   ; qtot 6.913200
  829         h1     37    ccc     H5    829 0.13870000   1.008000   ; qtot 7.051900
  830         h1     37    ccc     H6    830 0.13870000   1.008000   ; qtot 7.190600
  831         hx     37    ccc     H7    831 0.07790000   1.008000   ; qtot 7.268500
  832         hx     37    ccc     H8    832 0.07790000   1.008000   ; qtot 7.346400
  833         n4     37    ccc     N2    833 -0.16780000  14.010000   ; qtot 7.178600
  834         hn     37    ccc     H9    834 0.27380000   1.008000   ; qtot 7.452400
  835         hn     37    ccc    H10    835 0.27380000   1.008000   ; qtot 7.726200
  836         hn     37    ccc    H11    836 0.27380000   1.008000   ; qtot 8.000000
; residue   38 ccc rtp ccc q 1.0
  837          n     38    ccc     N1    837 -0.26410000  14.010000   ; qtot 7.735900
  838         hn     38    ccc     H4    838 0.27630000   1.008000   ; qtot 8.012200
  839         c3     38    ccc     C3    839 -0.17900000  12.010000   ; qtot 7.833200
  840         c3     38    ccc     C4    840 0.08000000  12.010000   ; qtot 7.913200
  841         h1     38    ccc     H5    841 0.13870000   1.008000   ; qtot 8.051900
  842         h1     38    ccc     H6    842 0.13870000   1.008000   ; qtot 8.190600
  843         hx     38    ccc     H7    843 0.07790000   1.008000   ; qtot 8.268500
  844         hx     38    ccc     H8    844 0.07790000   1.008000   ; qtot 8.346400
  845         n4     38    ccc     N2    845 -0.16780000  14.010000   ; qtot 8.178600
  846         hn     38    ccc     H9    846 0.27380000   1.008000   ; qtot 8.452400
  847         hn     38    ccc    H10    847 0.27380000   1.008000   ; qtot 8.726200
  848         hn     38    ccc    H11    848 0.27380000   1.008000   ; qtot 9.000000
; residue   39 ccc rtp ccc q 1.0
  849          n     39    ccc     N1    849 -0.26410000  14.010000   ; qtot 8.735900
  850         hn     39    ccc     H4    850 0.27630000   1.008000   ; qtot 9.012200
  851         c3     39    ccc     C3    851 -0.17900000  12.010000   ; qtot 8.833200
  852         c3     39    ccc     C4    852 0.08000000  12.010000   ; qtot 8.913200
  853         h1     39    ccc     H5    853 0.13870000   1.008000   ; qtot 9.051900
  854         h1     39    ccc     H6    854 0.13870000   1.008000   ; qtot 9.190600
  855         hx     39    ccc     H7    855 0.07790000   1.008000   ; qtot 9.268500
  856         hx     39    ccc     H8    856 0.07790000   1.008000   ; qtot 9.346400
  857         n4     39    ccc     N2    857 -0.16780000  14.010000   ; qtot 9.178600
  858         hn     39    ccc     H9    858 0.27380000   1.008000   ; qtot 9.452400
  859         hn     39    ccc    H10    859 0.27380000   1.008000   ; qtot 9.726200
  860         hn     39    ccc    H11    860 0.27380000   1.008000   ; qtot 10.000000
; residue   40 ccc rtp ccc q 1.0
  861          n     40    ccc     N1    861 -0.26410000  14.010000   ; qtot 9.735900
  862         hn     40    ccc     H4    862 0.27630000   1.008000   ; qtot 10.012200
  863         c3     40    ccc     C3    863 -0.17900000  12.010000   ; qtot 9.833200
  864         c3     40    ccc     C4    864 0.08000000  12.010000   ; qtot 9.913200
  865         h1     40    ccc     H5    865 0.13870000   1.008000   ; qtot 10.051900
  866         h1     40    ccc     H6    866 0.13870000   1.008000   ; qtot 10.190600
  867         hx     40    ccc     H7    867 0.07790000   1.008000   ; qtot 10.268500
  868         hx     40    ccc     H8    868 0.07790000   1.008000   ; qtot 10.346400
  869         n4     40    ccc     N2    869 -0.16780000  14.010000   ; qtot 10.178600
  870         hn     40    ccc     H9    870 0.27380000   1.008000   ; qtot 10.452400
  871         hn     40    ccc    H10    871 0.27380000   1.008000   ; qtot 10.726200
  872         hn     40    ccc    H11    872 0.27380000   1.008000   ; qtot 11.000000
; residue   41 ccc rtp ccc q 1.0
  873          n     41    ccc     N1    873 -0.26410000  14.010000   ; qtot 10.735900
  874         hn     41    ccc     H4    874 0.27630000   1.008000   ; qtot 11.012200
  875         c3     41    ccc     C3    875 -0.17900000  12.010000   ; qtot 10.833200
  876         c3     41    ccc     C4    876 0.08000000  12.010000   ; qtot 10.913200
  877         h1     41    ccc     H5    877 0.13870000   1.008000   ; qtot 11.051900
  878         h1     41    ccc     H6    878 0.13870000   1.008000   ; qtot 11.190600
  879         hx     41    ccc     H7    879 0.07790000   1.008000   ; qtot 11.268500
  880         hx     41    ccc     H8    880 0.07790000   1.008000   ; qtot 11.346400
  881         n4     41    ccc     N2    881 -0.16780000  14.010000   ; qtot 11.178600
  882         hn     41    ccc     H9    882 0.27380000   1.008000   ; qtot 11.452400
  883         hn     41    ccc    H10    883 0.27380000   1.008000   ; qtot 11.726200
  884         hn     41    ccc    H11    884 0.27380000   1.008000   ; qtot 12.000000
; residue   42 ccc rtp ccc q 1.0
  885          n     42    ccc     N1    885 -0.26410000  14.010000   ; qtot 11.735900
  886         hn     42    ccc     H4    886 0.27630000   1.008000   ; qtot 12.012200
  887         c3     42    ccc     C3    887 -0.17900000  12.010000   ; qtot 11.833200
  888         c3     42    ccc     C4    888 0.08000000  12.010000   ; qtot 11.913200
  889         h1     42    ccc     H5    889 0.13870000   1.008000   ; qtot 12.051900
  890         h1     42    ccc     H6    890 0.13870000   1.008000   ; qtot 12.190600
  891         hx     42    ccc     H7    891 0.07790000   1.008000   ; qtot 12.268500
  892         hx     42    ccc     H8    892 0.07790000   1.008000   ; qtot 12.346400
  893         n4     42    ccc     N2    893 -0.16780000  14.010000   ; qtot 12.178600
  894         hn     42    ccc     H9    894 0.27380000   1.008000   ; qtot 12.452400
  895         hn     42    ccc    H10    895 0.27380000   1.008000   ; qtot 12.726200
  896         hn     42    ccc    H11    896 0.27380000   1.008000   ; qtot 13.000000
; residue   43 ccc rtp ccc q 1.0
  897          n     43    ccc     N1    897 -0.26410000  14.010000   ; qtot 12.735900
  898         hn     43    ccc     H4    898 0.27630000   1.008000   ; qtot 13.012200
  899         c3     43    ccc     C3    899 -0.17900000  12.010000   ; qtot 12.833200
  900         c3     43    ccc     C4    900 0.08000000  12.010000   ; qtot 12.913200
  901         h1     43    ccc     H5    901 0.13870000   1.008000   ; qtot 13.051900
  902         h1     43    ccc     H6    902 0.13870000   1.008000   ; qtot 13.190600
  903         hx     43    ccc     H7    903 0.07790000   1.008000   ; qtot 13.268500
  904         hx     43    ccc     H8    904 0.07790000   1.008000   ; qtot 13.346400
  905         n4     43    ccc     N2    905 -0.16780000  14.010000   ; qtot 13.178600
  906         hn     43    ccc     H9    906 0.27380000   1.008000   ; qtot 13.452400
  907         hn     43    ccc    H10    907 0.27380000   1.008000   ; qtot 13.726200
  908         hn     43    ccc    H11    908 0.27380000   1.008000   ; qtot 14.000000
; residue   44 ccc rtp ccc q 1.0
  909          n     44    ccc     N1    909 -0.26410000  14.010000   ; qtot 13.735900
  910         hn     44    ccc     H4    910 0.27630000   1.008000   ; qtot 14.012200
  911         c3     44    ccc     C3    911 -0.17900000  12.010000   ; qtot 13.833200
  912         c3     44    ccc     C4    912 0.08000000  12.010000   ; qtot 13.913200
  913         h1     44    ccc     H5    913 0.13870000   1.008000   ; qtot 14.051900
  914         h1     44    ccc     H6    914 0.13870000   1.008000   ; qtot 14.190600
  915         hx     44    ccc     H7    915 0.07790000   1.008000   ; qtot 14.268500
  916         hx     44    ccc     H8    916 0.07790000   1.008000   ; qtot 14.346400
  917         n4     44    ccc     N2    917 -0.16780000  14.010000   ; qtot 14.178600
  918         hn     44    ccc     H9    918 0.27380000   1.008000   ; qtot 14.452400
  919         hn     44    ccc    H10    919 0.27380000   1.008000   ; qtot 14.726200
  920         hn     44    ccc    H11    920 0.27380000   1.008000   ; qtot 15.000000
; residue   45 ccc rtp ccc q 1.0
  921          n     45    ccc     N1    921 -0.26410000  14.010000   ; qtot 14.735900
  922         hn     45    ccc     H4    922 0.27630000   1.008000   ; qtot 15.012200
  923         c3     45    ccc     C3    923 -0.17900000  12.010000   ; qtot 14.833200
  924         c3     45    ccc     C4    924 0.08000000  12.010000   ; qtot 14.913200
  925         h1     45    ccc     H5    925 0.13870000   1.008000   ; qtot 15.051900
  926         h1     45    ccc     H6    926 0.13870000   1.008000   ; qtot 15.190600
  927         hx     45    ccc     H7    927 0.07790000   1.008000   ; qtot 15.268500
  928         hx     45    ccc     H8    928 0.07790000   1.008000   ; qtot 15.346400
  929         n4     45    ccc     N2    929 -0.16780000  14.010000   ; qtot 15.178600
  930         hn     45    ccc     H9    930 0.27380000   1.008000   ; qtot 15.452400
  931         hn     45    ccc    H10    931 0.27380000   1.008000   ; qtot 15.726200
  932         hn     45    ccc    H11    932 0.27380000   1.008000   ; qtot 16.000000
; residue   46 ccc rtp ccc q 1.0
  933          n     46    ccc     N1    933 -0.26410000  14.010000   ; qtot 15.735900
  934         hn     46    ccc     H4    934 0.27630000   1.008000   ; qtot 16.012200
  935         c3     46    ccc     C3    935 -0.17900000  12.010000   ; qtot 15.833200
  936         c3     46    ccc     C4    936 0.08000000  12.010000   ; qtot 15.913200
  937         h1     46    ccc     H5    937 0.13870000   1.008000   ; qtot 16.051900
  938         h1     46    ccc     H6    938 0.13870000   1.008000   ; qtot 16.190600
  939         hx     46    ccc     H7    939 0.07790000   1.008000   ; qtot 16.268500
  940         hx     46    ccc     H8    940 0.07790000   1.008000   ; qtot 16.346400
  941         n4     46    ccc     N2    941 -0.16780000  14.010000   ; qtot 16.178600
  942         hn     46    ccc     H9    942 0.27380000   1.008000   ; qtot 16.452400
  943         hn     46    ccc    H10    943 0.27380000   1.008000   ; qtot 16.726200
  944         hn     46    ccc    H11    944 0.27380000   1.008000   ; qtot 17.000000
; residue   47 ccc rtp ccc q 1.0
  945          n     47    ccc     N1    945 -0.26410000  14.010000   ; qtot 16.735900
  946         hn     47    ccc     H4    946 0.27630000   1.008000   ; qtot 17.012200
  947         c3     47    ccc     C3    947 -0.17900000  12.010000   ; qtot 16.833200
  948         c3     47    ccc     C4    948 0.08000000  12.010000   ; qtot 16.913200
  949         h1     47    ccc     H5    949 0.13870000   1.008000   ; qtot 17.051900
  950         h1     47    ccc     H6    950 0.13870000   1.008000   ; qtot 17.190600
  951         hx     47    ccc     H7    951 0.07790000   1.008000   ; qtot 17.268500
  952         hx     47    ccc     H8    952 0.07790000   1.008000   ; qtot 17.346400
  953         n4     47    ccc     N2    953 -0.16780000  14.010000   ; qtot 17.178600
  954         hn     47    ccc     H9    954 0.27380000   1.008000   ; qtot 17.452400
  955         hn     47    ccc    H10    955 0.27380000   1.008000   ; qtot 17.726200
  956         hn     47    ccc    H11    956 0.27380000   1.008000   ; qtot 18.000000
; residue   48 ccc rtp ccc q 1.0
  957          n     48    ccc     N1    957 -0.26410000  14.010000   ; qtot 17.735900
  958         hn     48    ccc     H4    958 0.27630000   1.008000   ; qtot 18.012200
  959         c3     48    ccc     C3    959 -0.17900000  12.010000   ; qtot 17.833200
  960         c3     48    ccc     C4    960 0.08000000  12.010000   ; qtot 17.913200
  961         h1     48    ccc     H5    961 0.13870000   1.008000   ; qtot 18.051900
  962         h1     48    ccc     H6    962 0.13870000   1.008000   ; qtot 18.190600
  963         hx     48    ccc     H7    963 0.07790000   1.008000   ; qtot 18.268500
  964         hx     48    ccc     H8    964 0.07790000   1.008000   ; qtot 18.346400
  965         n4     48    ccc     N2    965 -0.16780000  14.010000   ; qtot 18.178600
  966         hn     48    ccc     H9    966 0.27380000   1.008000   ; qtot 18.452400
  967         hn     48    ccc    H10    967 0.27380000   1.008000   ; qtot 18.726200
  968         hn     48    ccc    H11    968 0.27380000   1.008000   ; qtot 19.000000
; residue   49 ccc rtp ccc q 1.0
  969          n     49    ccc     N1    969 -0.26410000  14.010000   ; qtot 18.735900
  970         hn     49    ccc     H4    970 0.27630000   1.008000   ; qtot 19.012200
  971         c3     49    ccc     C3    971 -0.17900000  12.010000   ; qtot 18.833200
  972         c3     49    ccc     C4    972 0.08000000  12.010000   ; qtot 18.913200
  973         h1     49    ccc     H5    973 0.13870000   1.008000   ; qtot 19.051900
  974         h1     49    ccc     H6    974 0.13870000   1.008000   ; qtot 19.190600
  975         hx     49    ccc     H7    975 0.07790000   1.008000   ; qtot 19.268500
  976         hx     49    ccc     H8    976 0.07790000   1.008000   ; qtot 19.346400
  977         n4     49    ccc     N2    977 -0.16780000  14.010000   ; qtot 19.178600
  978         hn     49    ccc     H9    978 0.27380000   1.008000   ; qtot 19.452400
  979         hn     49    ccc    H10    979 0.27380000   1.008000   ; qtot 19.726200
  980         hn     49    ccc    H11    980 0.27380000   1.008000   ; qtot 20.000000
; residue   50 ccc rtp ccc q 1.0
  981          n     50    ccc     N1    981 -0.26410000  14.010000   ; qtot 19.735900
  982         hn     50    ccc     H4    982 0.27630000   1.008000   ; qtot 20.012200
  983         c3     50    ccc     C3    983 -0.17900000  12.010000   ; qtot 19.833200
  984         c3     50    ccc     C4    984 0.08000000  12.010000   ; qtot 19.913200
  985         h1     50    ccc     H5    985 0.13870000   1.008000   ; qtot 20.051900
  986         h1     50    ccc     H6    986 0.13870000   1.008000   ; qtot 20.190600
  987         hx     50    ccc     H7    987 0.07790000   1.008000   ; qtot 20.268500
  988         hx     50    ccc     H8    988 0.07790000   1.008000   ; qtot 20.346400
  989         n4     50    ccc     N2    989 -0.16780000  14.010000   ; qtot 20.178600
  990         hn     50    ccc     H9    990 0.27380000   1.008000   ; qtot 20.452400
  991         hn     50    ccc    H10    991 0.27380000   1.008000   ; qtot 20.726200
  992         hn     50    ccc    H11    992 0.27380000   1.008000   ; qtot 21.000000
; residue   51 ccc rtp ccc q 1.0
  993          n     51    ccc     N1    993 -0.26410000  14.010000   ; qtot 20.735900
  994         hn     51    ccc     H4    994 0.27630000   1.008000   ; qtot 21.012200
  995         c3     51    ccc     C3    995 -0.17900000  12.010000   ; qtot 20.833200
  996         c3     51    ccc     C4    996 0.08000000  12.010000   ; qtot 20.913200
  997         h1     51    ccc     H5    997 0.13870000   1.008000   ; qtot 21.051900
  998         h1     51    ccc     H6    998 0.13870000   1.008000   ; qtot 21.190600
  999         hx     51    ccc     H7    999 0.07790000   1.008000   ; qtot 21.268500
 1000         hx     51    ccc     H8   1000 0.07790000   1.008000   ; qtot 21.346400
 1001         n4     51    ccc     N2   1001 -0.16780000  14.010000   ; qtot 21.178600
 1002         hn     51    ccc     H9   1002 0.27380000   1.008000   ; qtot 21.452400
 1003         hn     51    ccc    H10   1003 0.27380000   1.008000   ; qtot 21.726200
 1004         hn     51    ccc    H11   1004 0.27380000   1.008000   ; qtot 22.000000
; residue   52 ccc rtp ccc q 1.0
 1005          n     52    ccc     N1   1005 -0.26410000  14.010000   ; qtot 21.735900
 1006         hn     52    ccc     H4   1006 0.27630000   1.008000   ; qtot 22.012200
 1007         c3     52    ccc     C3   1007 -0.17900000  12.010000   ; qtot 21.833200
 1008         c3     52    ccc     C4   1008 0.08000000  12.010000   ; qtot 21.913200
 1009         h1     52    ccc     H5   1009 0.13870000   1.008000   ; qtot 22.051900
 1010         h1     52    ccc     H6   1010 0.13870000   1.008000   ; qtot 22.190600
 1011         hx     52    ccc     H7   1011 0.07790000   1.008000   ; qtot 22.268500
 1012         hx     52    ccc     H8   1012 0.07790000   1.008000   ; qtot 22.346400
 1013         n4     52    ccc     N2   1013 -0.16780000  14.010000   ; qtot 22.178600
 1014         hn     52    ccc     H9   1014 0.27380000   1.008000   ; qtot 22.452400
 1015         hn     52    ccc    H10   1015 0.27380000   1.008000   ; qtot 22.726200
 1016         hn     52    ccc    H11   1016 0.27380000   1.008000   ; qtot 23.000000
; residue   53 ccc rtp ccc q 1.0
 1017          n     53    ccc     N1   1017 -0.26410000  14.010000   ; qtot 22.735900
 1018         hn     53    ccc     H4   1018 0.27630000   1.008000   ; qtot 23.012200
 1019         c3     53    ccc     C3   1019 -0.17900000  12.010000   ; qtot 22.833200
 1020         c3     53    ccc     C4   1020 0.08000000  12.010000   ; qtot 22.913200
 1021         h1     53    ccc     H5   1021 0.13870000   1.008000   ; qtot 23.051900
 1022         h1     53    ccc     H6   1022 0.13870000   1.008000   ; qtot 23.190600
 1023         hx     53    ccc     H7   1023 0.07790000   1.008000   ; qtot 23.268500
 1024         hx     53    ccc     H8   1024 0.07790000   1.008000   ; qtot 23.346400
 1025         n4     53    ccc     N2   1025 -0.16780000  14.010000   ; qtot 23.178600
 1026         hn     53    ccc     H9   1026 0.27380000   1.008000   ; qtot 23.452400
 1027         hn     53    ccc    H10   1027 0.27380000   1.008000   ; qtot 23.726200
 1028         hn     53    ccc    H11   1028 0.27380000   1.008000   ; qtot 24.000000
; residue   54 ccc rtp ccc q 1.0
 1029          n     54    ccc     N1   1029 -0.26410000  14.010000   ; qtot 23.735900
 1030         hn     54    ccc     H4   1030 0.27630000   1.008000   ; qtot 24.012200
 1031         c3     54    ccc     C3   1031 -0.17900000  12.010000   ; qtot 23.833200
 1032         c3     54    ccc     C4   1032 0.08000000  12.010000   ; qtot 23.913200
 1033         h1     54    ccc     H5   1033 0.13870000   1.008000   ; qtot 24.051900
 1034         h1     54    ccc     H6   1034 0.13870000   1.008000   ; qtot 24.190600
 1035         hx     54    ccc     H7   1035 0.07790000   1.008000   ; qtot 24.268500
 1036         hx     54    ccc     H8   1036 0.07790000   1.008000   ; qtot 24.346400
 1037         n4     54    ccc     N2   1037 -0.16780000  14.010000   ; qtot 24.178600
 1038         hn     54    ccc     H9   1038 0.27380000   1.008000   ; qtot 24.452400
 1039         hn     54    ccc    H10   1039 0.27380000   1.008000   ; qtot 24.726200
 1040         hn     54    ccc    H11   1040 0.27380000   1.008000   ; qtot 25.000000
; residue   55 ccc rtp ccc q 1.0
 1041          n     55    ccc     N1   1041 -0.26410000  14.010000   ; qtot 24.735900
 1042         hn     55    ccc     H4   1042 0.27630000   1.008000   ; qtot 25.012200
 1043         c3     55    ccc     C3   1043 -0.17900000  12.010000   ; qtot 24.833200
 1044         c3     55    ccc     C4   1044 0.08000000  12.010000   ; qtot 24.913200
 1045         h1     55    ccc     H5   1045 0.13870000   1.008000   ; qtot 25.051900
 1046         h1     55    ccc     H6   1046 0.13870000   1.008000   ; qtot 25.190600
 1047         hx     55    ccc     H7   1047 0.07790000   1.008000   ; qtot 25.268500
 1048         hx     55    ccc     H8   1048 0.07790000   1.008000   ; qtot 25.346400
 1049         n4     55    ccc     N2   1049 -0.16780000  14.010000   ; qtot 25.178600
 1050         hn     55    ccc     H9   1050 0.27380000   1.008000   ; qtot 25.452400
 1051         hn     55    ccc    H10   1051 0.27380000   1.008000   ; qtot 25.726200
 1052         hn     55    ccc    H11   1052 0.27380000   1.008000   ; qtot 26.000000
; residue   56 ccc rtp ccc q 1.0
 1053          n     56    ccc     N1   1053 -0.26410000  14.010000   ; qtot 25.735900
 1054         hn     56    ccc     H4   1054 0.27630000   1.008000   ; qtot 26.012200
 1055         c3     56    ccc     C3   1055 -0.17900000  12.010000   ; qtot 25.833200
 1056         c3     56    ccc     C4   1056 0.08000000  12.010000   ; qtot 25.913200
 1057         h1     56    ccc     H5   1057 0.13870000   1.008000   ; qtot 26.051900
 1058         h1     56    ccc     H6   1058 0.13870000   1.008000   ; qtot 26.190600
 1059         hx     56    ccc     H7   1059 0.07790000   1.008000   ; qtot 26.268500
 1060         hx     56    ccc     H8   1060 0.07790000   1.008000   ; qtot 26.346400
 1061         n4     56    ccc     N2   1061 -0.16780000  14.010000   ; qtot 26.178600
 1062         hn     56    ccc     H9   1062 0.27380000   1.008000   ; qtot 26.452400
 1063         hn     56    ccc    H10   1063 0.27380000   1.008000   ; qtot 26.726200
 1064         hn     56    ccc    H11   1064 0.27380000   1.008000   ; qtot 27.000000
; residue   57 ccc rtp ccc q 1.0
 1065          n     57    ccc     N1   1065 -0.26410000  14.010000   ; qtot 26.735900
 1066         hn     57    ccc     H4   1066 0.27630000   1.008000   ; qtot 27.012200
 1067         c3     57    ccc     C3   1067 -0.17900000  12.010000   ; qtot 26.833200
 1068         c3     57    ccc     C4   1068 0.08000000  12.010000   ; qtot 26.913200
 1069         h1     57    ccc     H5   1069 0.13870000   1.008000   ; qtot 27.051900
 1070         h1     57    ccc     H6   1070 0.13870000   1.008000   ; qtot 27.190600
 1071         hx     57    ccc     H7   1071 0.07790000   1.008000   ; qtot 27.268500
 1072         hx     57    ccc     H8   1072 0.07790000   1.008000   ; qtot 27.346400
 1073         n4     57    ccc     N2   1073 -0.16780000  14.010000   ; qtot 27.178600
 1074         hn     57    ccc     H9   1074 0.27380000   1.008000   ; qtot 27.452400
 1075         hn     57    ccc    H10   1075 0.27380000   1.008000   ; qtot 27.726200
 1076         hn     57    ccc    H11   1076 0.27380000   1.008000   ; qtot 28.000000
; residue   58 ccc rtp ccc q 1.0
 1077          n     58    ccc     N1   1077 -0.26410000  14.010000   ; qtot 27.735900
 1078         hn     58    ccc     H4   1078 0.27630000   1.008000   ; qtot 28.012200
 1079         c3     58    ccc     C3   1079 -0.17900000  12.010000   ; qtot 27.833200
 1080         c3     58    ccc     C4   1080 0.08000000  12.010000   ; qtot 27.913200
 1081         h1     58    ccc     H5   1081 0.13870000   1.008000   ; qtot 28.051900
 1082         h1     58    ccc     H6   1082 0.13870000   1.008000   ; qtot 28.190600
 1083         hx     58    ccc     H7   1083 0.07790000   1.008000   ; qtot 28.268500
 1084         hx     58    ccc     H8   1084 0.07790000   1.008000   ; qtot 28.346400
 1085         n4     58    ccc     N2   1085 -0.16780000  14.010000   ; qtot 28.178600
 1086         hn     58    ccc     H9   1086 0.27380000   1.008000   ; qtot 28.452400
 1087         hn     58    ccc    H10   1087 0.27380000   1.008000   ; qtot 28.726200
 1088         hn     58    ccc    H11   1088 0.27380000   1.008000   ; qtot 29.000000
; residue   59 ccc rtp ccc q 1.0
 1089          n     59    ccc     N1   1089 -0.26410000  14.010000   ; qtot 28.735900
 1090         hn     59    ccc     H4   1090 0.27630000   1.008000   ; qtot 29.012200
 1091         c3     59    ccc     C3   1091 -0.17900000  12.010000   ; qtot 28.833200
 1092         c3     59    ccc     C4   1092 0.08000000  12.010000   ; qtot 28.913200
 1093         h1     59    ccc     H5   1093 0.13870000   1.008000   ; qtot 29.051900
 1094         h1     59    ccc     H6   1094 0.13870000   1.008000   ; qtot 29.190600
 1095         hx     59    ccc     H7   1095 0.07790000   1.008000   ; qtot 29.268500
 1096         hx     59    ccc     H8   1096 0.07790000   1.008000   ; qtot 29.346400
 1097         n4     59    ccc     N2   1097 -0.16780000  14.010000   ; qtot 29.178600
 1098         hn     59    ccc     H9   1098 0.27380000   1.008000   ; qtot 29.452400
 1099         hn     59    ccc    H10   1099 0.27380000   1.008000   ; qtot 29.726200
 1100         hn     59    ccc    H11   1100 0.27380000   1.008000   ; qtot 30.000000
; residue   60 ccc rtp ccc q 1.0
 1101          n     60    ccc     N1   1101 -0.26410000  14.010000   ; qtot 29.735900
 1102         hn     60    ccc     H4   1102 0.27630000   1.008000   ; qtot 30.012200
 1103         c3     60    ccc     C3   1103 -0.17900000  12.010000   ; qtot 29.833200
 1104         c3     60    ccc     C4   1104 0.08000000  12.010000   ; qtot 29.913200
 1105         h1     60    ccc     H5   1105 0.13870000   1.008000   ; qtot 30.051900
 1106         h1     60    ccc     H6   1106 0.13870000   1.008000   ; qtot 30.190600
 1107         hx     60    ccc     H7   1107 0.07790000   1.008000   ; qtot 30.268500
 1108         hx     60    ccc     H8   1108 0.07790000   1.008000   ; qtot 30.346400
 1109         n4     60    ccc     N2   1109 -0.16780000  14.010000   ; qtot 30.178600
 1110         hn     60    ccc     H9   1110 0.27380000   1.008000   ; qtot 30.452400
 1111         hn     60    ccc    H10   1111 0.27380000   1.008000   ; qtot 30.726200
 1112         hn     60    ccc    H11   1112 0.27380000   1.008000   ; qtot 31.000000
; residue   61 ccc rtp ccc q 1.0
 1113          n     61    ccc     N1   1113 -0.26410000  14.010000   ; qtot 30.735900
 1114         hn     61    ccc     H4   1114 0.27630000   1.008000   ; qtot 31.012200
 1115         c3     61    ccc     C3   1115 -0.17900000  12.010000   ; qtot 30.833200
 1116         c3     61    ccc     C4   1116 0.08000000  12.010000   ; qtot 30.913200
 1117         h1     61    ccc     H5   1117 0.13870000   1.008000   ; qtot 31.051900
 1118         h1     61    ccc     H6   1118 0.13870000   1.008000   ; qtot 31.190600
 1119         hx     61    ccc     H7   1119 0.07790000   1.008000   ; qtot 31.268500
 1120         hx     61    ccc     H8   1120 0.07790000   1.008000   ; qtot 31.346400
 1121         n4     61    ccc     N2   1121 -0.16780000  14.010000   ; qtot 31.178600
 1122         hn     61    ccc     H9   1122 0.27380000   1.008000   ; qtot 31.452400
 1123         hn     61    ccc    H10   1123 0.27380000   1.008000   ; qtot 31.726200
 1124         hn     61    ccc    H11   1124 0.27380000   1.008000   ; qtot 32.000000

[ bonds ]
;    ai     aj funct         c0         c1         c2         c3
      1      4     1   0.15375 251793.120000
      1      8     1   0.14647 272713.120000
      4      7     1   0.14647 272713.120000
      7     15     1   0.14647 272713.120000
      7     18     1   0.14647 272713.120000
      8      9     1   0.14647 272713.120000
      8     12     1   0.14647 272713.120000
      9     30     1   0.15375 251793.120000
     12     27     1   0.15375 251793.120000
     15     21     1   0.15375 251793.120000
     18     24     1   0.15375 251793.120000
     21     35     1   0.15241 261918.400000
     24     36     1   0.15241 261918.400000
     27     33     1   0.15241 261918.400000
     30     34     1   0.15241 261918.400000
     33     37     1   0.12183 533627.360000
     33     64     1   0.13789 357815.680000
     34     40     1   0.12183 533627.360000
     34     89     1   0.13789 357815.680000
     35     38     1   0.12183 533627.360000
     35    114     1   0.13789 357815.680000
     36     39     1   0.12183 533627.360000
     36    139     1   0.13789 357815.680000
     41     44     1   0.15375 251793.120000
     41     47     1   0.14647 272713.120000
     44     64     1   0.14619 275056.160000
     47     48     1   0.14647 272713.120000
     47     51     1   0.14647 272713.120000
     48     57     1   0.15375 251793.120000
     51     54     1   0.15375 251793.120000
     54     60     1   0.15241 261918.400000
     57     61     1   0.15241 261918.400000
     60     62     1   0.12183 533627.360000
     60    164     1   0.13789 357815.680000
     61     63     1   0.12183 533627.360000
     61    189     1   0.13789 357815.680000
     66     69     1   0.15375 251793.120000
     66     72     1   0.14647 272713.120000
     69     89     1   0.14619 275056.160000
     72     73     1   0.14647 272713.120000
     72     76     1   0.14647 272713.120000
     73     82     1   0.15375 251793.120000
     76     79     1   0.15375 251793.120000
     79     85     1   0.15241 261918.400000
     82     86     1   0.15241 261918.400000
     85     87     1   0.12183 533627.360000
     85    214     1   0.13789 357815.680000
     86     88     1   0.12183 533627.360000
     86    239     1   0.13789 357815.680000
     91     94     1   0.15375 251793.120000
     91     97     1   0.14647 272713.120000
     94    114     1   0.14619 275056.160000
     97     98     1   0.14647 272713.120000
     97    101     1   0.14647 272713.120000
     98    107     1   0.15375 251793.120000
    101    104     1   0.15375 251793.120000
    104    110     1   0.15241 261918.400000
    107    111     1   0.15241 261918.400000
    110    112     1   0.12183 533627.360000
    110    264     1   0.13789 357815.680000
    111    113     1   0.12183 533627.360000
    111    289     1   0.13789 357815.680000
    116    119     1   0.15375 251793.120000
    116    122     1   0.14647 272713.120000
    119    139     1   0.14619 275056.160000
    122    123     1   0.14647 272713.120000
    122    126     1   0.14647 272713.120000
    123    132     1   0.15375 251793.120000
    126    129     1   0.15375 251793.120000
    129    135     1   0.15241 261918.400000
    132    136     1   0.15241 261918.400000
    135    137     1   0.12183 533627.360000
    135    314     1   0.13789 357815.680000
    136    138     1   0.12183 533627.360000
    136    339     1   0.13789 357815.680000
    141    144     1   0.15375 251793.120000
    141    147     1   0.14647 272713.120000
    144    164     1   0.14619 275056.160000
    147    148     1   0.14647 272713.120000
    147    151     1   0.14647 272713.120000
    148    157     1   0.15375 251793.120000
    151    154     1   0.15375 251793.120000
    154    160     1   0.15241 261918.400000
    157    161     1   0.15241 261918.400000
    160    162     1   0.12183 533627.360000
    160    364     1   0.13789 357815.680000
    161    163     1   0.12183 533627.360000
    161    389     1   0.13789 357815.680000
    166    169     1   0.15375 251793.120000
    166    172     1   0.14647 272713.120000
    169    189     1   0.14619 275056.160000
    172    173     1   0.14647 272713.120000
    172    176     1   0.14647 272713.120000
    173    182     1   0.15375 251793.120000
    176    179     1   0.15375 251793.120000
    179    185     1   0.15241 261918.400000
    182    186     1   0.15241 261918.400000
    185    187     1   0.12183 533627.360000
    185    414     1   0.13789 357815.680000
    186    188     1   0.12183 533627.360000
    186    439     1   0.13789 357815.680000
    191    194     1   0.15375 251793.120000
    191    197     1   0.14647 272713.120000
    194    214     1   0.14619 275056.160000
    197    198     1   0.14647 272713.120000
    197    201     1   0.14647 272713.120000
    198    207     1   0.15375 251793.120000
    201    204     1   0.15375 251793.120000
    204    210     1   0.15241 261918.400000
    207    211     1   0.15241 261918.400000
    210    212     1   0.12183 533627.360000
    210    464     1   0.13789 357815.680000
    211    213     1   0.12183 533627.360000
    211    489     1   0.13789 357815.680000
    216    219     1   0.15375 251793.120000
    216    222     1   0.14647 272713.120000
    219    239     1   0.14619 275056.160000
    222    223     1   0.14647 272713.120000
    222    226     1   0.14647 272713.120000
    223    232     1   0.15375 251793.120000
    226    229     1   0.15375 251793.120000
    229    235     1   0.15241 261918.400000
    232    236     1   0.15241 261918.400000
    235    237     1   0.12183 533627.360000
    235    514     1   0.13789 357815.680000
    236    238     1   0.12183 533627.360000
    236    539     1   0.13789 357815.680000
    241    244     1   0.15375 251793.120000
    241    247     1   0.14647 272713.120000
    244    264     1   0.14619 275056.160000
    247    248     1   0.14647 272713.120000
    247    251     1   0.14647 272713.120000
    248    257     1   0.15375 251793.120000
    251    254     1   0.15375 251793.120000
    254    260     1   0.15241 261918.400000
    257    261     1   0.15241 261918.400000
    260    262     1   0.12183 533627.360000
    260    564     1   0.13789 357815.680000
    261    263     1   0.12183 533627.360000
    261    589     1   0.13789 357815.680000
    266    269     1   0.15375 251793.120000
    266    272     1   0.14647 272713.120000
    269    289     1   0.14619 275056.160000
    272    273     1   0.14647 272713.120000
    272    276     1   0.14647 272713.120000
    273    282     1   0.15375 251793.120000
    276    279     1   0.15375 251793.120000
    279    285     1   0.15241 261918.400000
    282    286     1   0.15241 261918.400000
    285    287     1   0.12183 533627.360000
    285    614     1   0.13789 357815.680000
    286    288     1   0.12183 533627.360000
    286    639     1   0.13789 357815.680000
    291    294     1   0.15375 251793.120000
    291    297     1   0.14647 272713.120000
    294    314     1   0.14619 275056.160000
    297    298     1   0.14647 272713.120000
    297    301     1   0.14647 272713.120000
    298    307     1   0.15375 251793.120000
    301    304     1   0.15375 251793.120000
    304    310     1   0.15241 261918.400000
    307    311     1   0.15241 261918.400000
    310    312     1   0.12183 533627.360000
    310    664     1   0.13789 357815.680000
    311    313     1   0.12183 533627.360000
    311    689     1   0.13789 357815.680000
    316    319     1   0.15375 251793.120000
    316    322     1   0.14647 272713.120000
    319    339     1   0.14619 275056.160000
    322    323     1   0.14647 272713.120000
    322    326     1   0.14647 272713.120000
    323    332     1   0.15375 251793.120000
    326    329     1   0.15375 251793.120000
    329    335     1   0.15241 261918.400000
    332    336     1   0.15241 261918.400000
    335    337     1   0.12183 533627.360000
    335    714     1   0.13789 357815.680000
    336    338     1   0.12183 533627.360000
    336    739     1   0.13789 357815.680000
    341    344     1   0.15375 251793.120000
    341    347     1   0.14647 272713.120000
    344    364     1   0.14619 275056.160000
    347    348     1   0.14647 272713.120000
    347    351     1   0.14647 272713.120000
    348    357     1   0.15375 251793.120000
    351    354     1   0.15375 251793.120000
    354    360     1   0.15241 261918.400000
    357    361     1   0.15241 261918.400000
    360    741     1   0.13789 357815.680000
    360    362     1   0.12183 533627.360000
    361    363     1   0.12183 533627.360000
    361    753     1   0.13789 357815.680000
    366    369     1   0.15375 251793.120000
    366    372     1   0.14647 272713.120000
    369    389     1   0.14619 275056.160000
    372    373     1   0.14647 272713.120000
    372    376     1   0.14647 272713.120000
    373    382     1   0.15375 251793.120000
    376    379     1   0.15375 251793.120000
    379    385     1   0.15241 261918.400000
    382    386     1   0.15241 261918.400000
    385    765     1   0.13789 357815.680000
    385    387     1   0.12183 533627.360000
    386    388     1   0.12183 533627.360000
    386    777     1   0.13789 357815.680000
    391    394     1   0.15375 251793.120000
    391    397     1   0.14647 272713.120000
    394    414     1   0.14619 275056.160000
    397    398     1   0.14647 272713.120000
    397    401     1   0.14647 272713.120000
    398    407     1   0.15375 251793.120000
    401    404     1   0.15375 251793.120000
    404    410     1   0.15241 261918.400000
    407    411     1   0.15241 261918.400000
    410    789     1   0.13789 357815.680000
    410    412     1   0.12183 533627.360000
    411    413     1   0.12183 533627.360000
    411    801     1   0.13789 357815.680000
    416    419     1   0.15375 251793.120000
    416    422     1   0.14647 272713.120000
    419    439     1   0.14619 275056.160000
    422    423     1   0.14647 272713.120000
    422    426     1   0.14647 272713.120000
    423    432     1   0.15375 251793.120000
    426    429     1   0.15375 251793.120000
    429    435     1   0.15241 261918.400000
    432    436     1   0.15241 261918.400000
    435    813     1   0.13789 357815.680000
    435    437     1   0.12183 533627.360000
    436    438     1   0.12183 533627.360000
    436    825     1   0.13789 357815.680000
    441    444     1   0.15375 251793.120000
    441    447     1   0.14647 272713.120000
    444    464     1   0.14619 275056.160000
    447    448     1   0.14647 272713.120000
    447    451     1   0.14647 272713.120000
    448    457     1   0.15375 251793.120000
    451    454     1   0.15375 251793.120000
    454    460     1   0.15241 261918.400000
    457    461     1   0.15241 261918.400000
    460    837     1   0.13789 357815.680000
    460    462     1   0.12183 533627.360000
    461    463     1   0.12183 533627.360000
    461    849     1   0.13789 357815.680000
    466    469     1   0.15375 251793.120000
    466    472     1   0.14647 272713.120000
    469    489     1   0.14619 275056.160000
    472    473     1   0.14647 272713.120000
    472    476     1   0.14647 272713.120000
    473    482     1   0.15375 251793.120000
    476    479     1   0.15375 251793.120000
    479    485     1   0.15241 261918.400000
    482    486     1   0.15241 261918.400000
    485    861     1   0.13789 357815.680000
    485    487     1   0.12183 533627.360000
    486    488     1   0.12183 533627.360000
    486    873     1   0.13789 357815.680000
    491    494     1   0.15375 251793.120000
    491    497     1   0.14647 272713.120000
    494    514     1   0.14619 275056.160000
    497    498     1   0.14647 272713.120000
    497    501     1   0.14647 272713.120000
    498    507     1   0.15375 251793.120000
    501    504     1   0.15375 251793.120000
    504    510     1   0.15241 261918.400000
    507    511     1   0.15241 261918.400000
    510    885     1   0.13789 357815.680000
    510    512     1   0.12183 533627.360000
    511    513     1   0.12183 533627.360000
    511    897     1   0.13789 357815.680000
    516    519     1   0.15375 251793.120000
    516    522     1   0.14647 272713.120000
    519    539     1   0.14619 275056.160000
    522    523     1   0.14647 272713.120000
    522    526     1   0.14647 272713.120000
    523    532     1   0.15375 251793.120000
    526    529     1   0.15375 251793.120000
    529    535     1   0.15241 261918.400000
    532    536     1   0.15241 261918.400000
    535    909     1   0.13789 357815.680000
    535    537     1   0.12183 533627.360000
    536    538     1   0.12183 533627.360000
    536    921     1   0.13789 357815.680000
    541    544     1   0.15375 251793.120000
    541    547     1   0.14647 272713.120000
    544    564     1   0.14619 275056.160000
    547    548     1   0.14647 272713.120000
    547    551     1   0.14647 272713.120000
    548    557     1   0.15375 251793.120000
    551    554     1   0.15375 251793.120000
    554    560     1   0.15241 261918.400000
    557    561     1   0.15241 261918.400000
    560    933     1   0.13789 357815.680000
    560    562     1   0.12183 533627.360000
    561    563     1   0.12183 533627.360000
    561    945     1   0.13789 357815.680000
    566    569     1   0.15375 251793.120000
    566    572     1   0.14647 272713.120000
    569    589     1   0.14619 275056.160000
    572    573     1   0.14647 272713.120000
    572    576     1   0.14647 272713.120000
    573    582     1   0.15375 251793.120000
    576    579     1   0.15375 251793.120000
    579    585     1   0.15241 261918.400000
    582    586     1   0.15241 261918.400000
    585    957     1   0.13789 357815.680000
    585    587     1   0.12183 533627.360000
    586    588     1   0.12183 533627.360000
    586    969     1   0.13789 357815.680000
    591    594     1   0.15375 251793.120000
    591    597     1   0.14647 272713.120000
    594    614     1   0.14619 275056.160000
    597    598     1   0.14647 272713.120000
    597    601     1   0.14647 272713.120000
    598    607     1   0.15375 251793.120000
    601    604     1   0.15375 251793.120000
    604    610     1   0.15241 261918.400000
    607    611     1   0.15241 261918.400000
    610    981     1   0.13789 357815.680000
    610    612     1   0.12183 533627.360000
    611    613     1   0.12183 533627.360000
    611    993     1   0.13789 357815.680000
    616    619     1   0.15375 251793.120000
    616    622     1   0.14647 272713.120000
    619    639     1   0.14619 275056.160000
    622    623     1   0.14647 272713.120000
    622    626     1   0.14647 272713.120000
    623    632     1   0.15375 251793.120000
    626    629     1   0.15375 251793.120000
    629    635     1   0.15241 261918.400000
    632    636     1   0.15241 261918.400000
    635   1005     1   0.13789 357815.680000
    635    637     1   0.12183 533627.360000
    636    638     1   0.12183 533627.360000
    636   1017     1   0.13789 357815.680000
    641    644     1   0.15375 251793.120000
    641    647     1   0.14647 272713.120000
    644    664     1   0.14619 275056.160000
    647    648     1   0.14647 272713.120000
    647    651     1   0.14647 272713.120000
    648    657     1   0.15375 251793.120000
    651    654     1   0.15375 251793.120000
    654    660     1   0.15241 261918.400000
    657    661     1   0.15241 261918.400000
    660   1029     1   0.13789 357815.680000
    660    662     1   0.12183 533627.360000
    661    663     1   0.12183 533627.360000
    661   1041     1   0.13789 357815.680000
    666    669     1   0.15375 251793.120000
    666    672     1   0.14647 272713.120000
    669    689     1   0.14619 275056.160000
    672    673     1   0.14647 272713.120000
    672    676     1   0.14647 272713.120000
    673    682     1   0.15375 251793.120000
    676    679     1   0.15375 251793.120000
    679    685     1   0.15241 261918.400000
    682    686     1   0.15241 261918.400000
    685   1053     1   0.13789 357815.680000
    685    687     1   0.12183 533627.360000
    686    688     1   0.12183 533627.360000
    686   1065     1   0.13789 357815.680000
    691    694     1   0.15375 251793.120000
    691    697     1   0.14647 272713.120000
    694    714     1   0.14619 275056.160000
    697    698     1   0.14647 272713.120000
    697    701     1   0.14647 272713.120000
    698    707     1   0.15375 251793.120000
    701    704     1   0.15375 251793.120000
    704    710     1   0.15241 261918.400000
    707    711     1   0.15241 261918.400000
    710   1077     1   0.13789 357815.680000
    710    712     1   0.12183 533627.360000
    711    713     1   0.12183 533627.360000
    711   1089     1   0.13789 357815.680000
    716    719     1   0.15375 251793.120000
    716    722     1   0.14647 272713.120000
    719    739     1   0.14619 275056.160000
    722    723     1   0.14647 272713.120000
    722    726     1   0.14647 272713.120000
    723    732     1   0.15375 251793.120000
    726    729     1   0.15375 251793.120000
    729    735     1   0.15241 261918.400000
    732    736     1   0.15241 261918.400000
    735   1101     1   0.13789 357815.680000
    735    737     1   0.12183 533627.360000
    736   1113     1   0.13789 357815.680000
    736    738     1   0.12183 533627.360000
    741    743     1   0.14619 275056.160000
    743    744     1   0.15375 251793.120000
    744    749     1   0.15110 237065.440000
    753    755     1   0.14619 275056.160000
    755    756     1   0.15375 251793.120000
    756    761     1   0.15110 237065.440000
    765    767     1   0.14619 275056.160000
    767    768     1   0.15375 251793.120000
    768    773     1   0.15110 237065.440000
    777    779     1   0.14619 275056.160000
    779    780     1   0.15375 251793.120000
    780    785     1   0.15110 237065.440000
    789    791     1   0.14619 275056.160000
    791    792     1   0.15375 251793.120000
    792    797     1   0.15110 237065.440000
    801    803     1   0.14619 275056.160000
    803    804     1   0.15375 251793.120000
    804    809     1   0.15110 237065.440000
    813    815     1   0.14619 275056.160000
    815    816     1   0.15375 251793.120000
    816    821     1   0.15110 237065.440000
    825    827     1   0.14619 275056.160000
    827    828     1   0.15375 251793.120000
    828    833     1   0.15110 237065.440000
    837    839     1   0.14619 275056.160000
    839    840     1   0.15375 251793.120000
    840    845     1   0.15110 237065.440000
    849    851     1   0.14619 275056.160000
    851    852     1   0.15375 251793.120000
    852    857     1   0.15110 237065.440000
    861    863     1   0.14619 275056.160000
    863    864     1   0.15375 251793.120000
    864    869     1   0.15110 237065.440000
    873    875     1   0.14619 275056.160000
    875    876     1   0.15375 251793.120000
    876    881     1   0.15110 237065.440000
    885    887     1   0.14619 275056.160000
    887    888     1   0.15375 251793.120000
    888    893     1   0.15110 237065.440000
    897    899     1   0.14619 275056.160000
    899    900     1   0.15375 251793.120000
    900    905     1   0.15110 237065.440000
    909    911     1   0.14619 275056.160000
    911    912     1   0.15375 251793.120000
    912    917     1   0.15110 237065.440000
    921    923     1   0.14619 275056.160000
    923    924     1   0.15375 251793.120000
    924    929     1   0.15110 237065.440000
    933    935     1   0.14619 275056.160000
    935    936     1   0.15375 251793.120000
    936    941     1   0.15110 237065.440000
    945    947     1   0.14619 275056.160000
    947    948     1   0.15375 251793.120000
    948    953     1   0.15110 237065.440000
    957    959     1   0.14619 275056.160000
    959    960     1   0.15375 251793.120000
    960    965     1   0.15110 237065.440000
    969    971     1   0.14619 275056.160000
    971    972     1   0.15375 251793.120000
    972    977     1   0.15110 237065.440000
    981    983     1   0.14619 275056.160000
    983    984     1   0.15375 251793.120000
    984    989     1   0.15110 237065.440000
    993    995     1   0.14619 275056.160000
    995    996     1   0.15375 251793.120000
    996   1001     1   0.15110 237065.440000
   1005   1007     1   0.14619 275056.160000
   1007   1008     1   0.15375 251793.120000
   1008   1013     1   0.15110 237065.440000
   1017   1019     1   0.14619 275056.160000
   1019   1020     1   0.15375 251793.120000
   1020   1025     1   0.15110 237065.440000
   1029   1031     1   0.14619 275056.160000
   1031   1032     1   0.15375 251793.120000
   1032   1037     1   0.15110 237065.440000
   1041   1043     1   0.14619 275056.160000
   1043   1044     1   0.15375 251793.120000
   1044   1049     1   0.15110 237065.440000
   1053   1055     1   0.14619 275056.160000
   1055   1056     1   0.15375 251793.120000
   1056   1061     1   0.15110 237065.440000
   1065   1067     1   0.14619 275056.160000
   1067   1068     1   0.15375 251793.120000
   1068   1073     1   0.15110 237065.440000
   1077   1079     1   0.14619 275056.160000
   1079   1080     1   0.15375 251793.120000
   1080   1085     1   0.15110 237065.440000
   1089   1091     1   0.14619 275056.160000
   1091   1092     1   0.15375 251793.120000
   1092   1097     1   0.15110 237065.440000
   1101   1103     1   0.14619 275056.160000
   1103   1104     1   0.15375 251793.120000
   1104   1109     1   0.15110 237065.440000
   1113   1115     1   0.14619 275056.160000
   1115   1116     1   0.15375 251793.120000
   1116   1121     1   0.15110 237065.440000
      1      2     1   0.10969 276646.080000
      1      3     1   0.10969 276646.080000
      4      5     1   0.10969 276646.080000
      4      6     1   0.10969 276646.080000
      9     10     1   0.10969 276646.080000
      9     11     1   0.10969 276646.080000
     12     13     1   0.10969 276646.080000
     12     14     1   0.10969 276646.080000
     15     16     1   0.10969 276646.080000
     15     17     1   0.10969 276646.080000
     18     19     1   0.10969 276646.080000
     18     20     1   0.10969 276646.080000
     21     22     1   0.10969 276646.080000
     21     23     1   0.10969 276646.080000
     24     25     1   0.10969 276646.080000
     24     26     1   0.10969 276646.080000
     27     28     1   0.10969 276646.080000
     27     29     1   0.10969 276646.080000
     30     31     1   0.10969 276646.080000
     30     32     1   0.10969 276646.080000
     41     42     1   0.10969 276646.080000
     41     43     1   0.10969 276646.080000
     44     45     1   0.10969 276646.080000
     44     46     1   0.10969 276646.080000
     48     49     1   0.10969 276646.080000
     48     50     1   0.10969 276646.080000
     51     52     1   0.10969 276646.080000
     51     53     1   0.10969 276646.080000
     54     55     1   0.10969 276646.080000
     54     56     1   0.10969 276646.080000
     57     58     1   0.10969 276646.080000
     57     59     1   0.10969 276646.080000
     64     65     1   0.10129 337397.760000
     66     67     1   0.10969 276646.080000
     66     68     1   0.10969 276646.080000
     69     70     1   0.10969 276646.080000
     69     71     1   0.10969 276646.080000
     73     74     1   0.10969 276646.080000
     73     75     1   0.10969 276646.080000
     76     77     1   0.10969 276646.080000
     76     78     1   0.10969 276646.080000
     79     80     1   0.10969 276646.080000
     79     81     1   0.10969 276646.080000
     82     83     1   0.10969 276646.080000
     82     84     1   0.10969 276646.080000
     89     90     1   0.10129 337397.760000
     91     92     1   0.10969 276646.080000
     91     93     1   0.10969 276646.080000
     94     95     1   0.10969 276646.080000
     94     96     1   0.10969 276646.080000
     98     99     1   0.10969 276646.080000
     98    100     1   0.10969 276646.080000
    101    102     1   0.10969 276646.080000
    101    103     1   0.10969 276646.080000
    104    105     1   0.10969 276646.080000
    104    106     1   0.10969 276646.080000
    107    108     1   0.10969 276646.080000
    107    109     1   0.10969 276646.080000
    114    115     1   0.10129 337397.760000
    116    117     1   0.10969 276646.080000
    116    118     1   0.10969 276646.080000
    119    120     1   0.10969 276646.080000
    119    121     1   0.10969 276646.080000
    123    124     1   0.10969 276646.080000
    123    125     1   0.10969 276646.080000
    126    127     1   0.10969 276646.080000
    126    128     1   0.10969 276646.080000
    129    130     1   0.10969 276646.080000
    129    131     1   0.10969 276646.080000
    132    133     1   0.10969 276646.080000
    132    134     1   0.10969 276646.080000
    139    140     1   0.10129 337397.760000
    141    142     1   0.10969 276646.080000
    141    143     1   0.10969 276646.080000
    144    145     1   0.10969 276646.080000
    144    146     1   0.10969 276646.080000
    148    149     1   0.10969 276646.080000
    148    150     1   0.10969 276646.080000
    151    152     1   0.10969 276646.080000
    151    153     1   0.10969 276646.080000
    154    155     1   0.10969 276646.080000
    154    156     1   0.10969 276646.080000
    157    158     1   0.10969 276646.080000
    157    159     1   0.10969 276646.080000
    164    165     1   0.10129 337397.760000
    166    167     1   0.10969 276646.080000
    166    168     1   0.10969 276646.080000
    169    170     1   0.10969 276646.080000
    169    171     1   0.10969 276646.080000
    173    174     1   0.10969 276646.080000
    173    175     1   0.10969 276646.080000
    176    177     1   0.10969 276646.080000
    176    178     1   0.10969 276646.080000
    179    180     1   0.10969 276646.080000
    179    181     1   0.10969 276646.080000
    182    183     1   0.10969 276646.080000
    182    184     1   0.10969 276646.080000
    189    190     1   0.10129 337397.760000
    191    192     1   0.10969 276646.080000
    191    193     1   0.10969 276646.080000
    194    195     1   0.10969 276646.080000
    194    196     1   0.10969 276646.080000
    198    199     1   0.10969 276646.080000
    198    200     1   0.10969 276646.080000
    201    202     1   0.10969 276646.080000
    201    203     1   0.10969 276646.080000
    204    205     1   0.10969 276646.080000
    204    206     1   0.10969 276646.080000
    207    208     1   0.10969 276646.080000
    207    209     1   0.10969 276646.080000
    214    215     1   0.10129 337397.760000
    216    217     1   0.10969 276646.080000
    216    218     1   0.10969 276646.080000
    219    220     1   0.10969 276646.080000
    219    221     1   0.10969 276646.080000
    223    224     1   0.10969 276646.080000
    223    225     1   0.10969 276646.080000
    226    227     1   0.10969 276646.080000
    226    228     1   0.10969 276646.080000
    229    230     1   0.10969 276646.080000
    229    231     1   0.10969 276646.080000
    232    233     1   0.10969 276646.080000
    232    234     1   0.10969 276646.080000
    239    240     1   0.10129 337397.760000
    241    242     1   0.10969 276646.080000
    241    243     1   0.10969 276646.080000
    244    245     1   0.10969 276646.080000
    244    246     1   0.10969 276646.080000
    248    249     1   0.10969 276646.080000
    248    250     1   0.10969 276646.080000
    251    252     1   0.10969 276646.080000
    251    253     1   0.10969 276646.080000
    254    255     1   0.10969 276646.080000
    254    256     1   0.10969 276646.080000
    257    258     1   0.10969 276646.080000
    257    259     1   0.10969 276646.080000
    264    265     1   0.10129 337397.760000
    266    267     1   0.10969 276646.080000
    266    268     1   0.10969 276646.080000
    269    270     1   0.10969 276646.080000
    269    271     1   0.10969 276646.080000
    273    274     1   0.10969 276646.080000
    273    275     1   0.10969 276646.080000
    276    277     1   0.10969 276646.080000
    276    278     1   0.10969 276646.080000
    279    280     1   0.10969 276646.080000
    279    281     1   0.10969 276646.080000
    282    283     1   0.10969 276646.080000
    282    284     1   0.10969 276646.080000
    289    290     1   0.10129 337397.760000
    291    292     1   0.10969 276646.080000
    291    293     1   0.10969 276646.080000
    294    295     1   0.10969 276646.080000
    294    296     1   0.10969 276646.080000
    298    299     1   0.10969 276646.080000
    298    300     1   0.10969 276646.080000
    301    302     1   0.10969 276646.080000
    301    303     1   0.10969 276646.080000
    304    305     1   0.10969 276646.080000
    304    306     1   0.10969 276646.080000
    307    308     1   0.10969 276646.080000
    307    309     1   0.10969 276646.080000
    314    315     1   0.10129 337397.760000
    316    317     1   0.10969 276646.080000
    316    318     1   0.10969 276646.080000
    319    320     1   0.10969 276646.080000
    319    321     1   0.10969 276646.080000
    323    324     1   0.10969 276646.080000
    323    325     1   0.10969 276646.080000
    326    327     1   0.10969 276646.080000
    326    328     1   0.10969 276646.080000
    329    330     1   0.10969 276646.080000
    329    331     1   0.10969 276646.080000
    332    333     1   0.10969 276646.080000
    332    334     1   0.10969 276646.080000
    339    340     1   0.10129 337397.760000
    341    342     1   0.10969 276646.080000
    341    343     1   0.10969 276646.080000
    344    345     1   0.10969 276646.080000
    344    346     1   0.10969 276646.080000
    348    349     1   0.10969 276646.080000
    348    350     1   0.10969 276646.080000
    351    352     1   0.10969 276646.080000
    351    353     1   0.10969 276646.080000
    354    355     1   0.10969 276646.080000
    354    356     1   0.10969 276646.080000
    357    358     1   0.10969 276646.080000
    357    359     1   0.10969 276646.080000
    364    365     1   0.10129 337397.760000
    366    367     1   0.10969 276646.080000
    366    368     1   0.10969 276646.080000
    369    370     1   0.10969 276646.080000
    369    371     1   0.10969 276646.080000
    373    374     1   0.10969 276646.080000
    373    375     1   0.10969 276646.080000
    376    377     1   0.10969 276646.080000
    376    378     1   0.10969 276646.080000
    379    380     1   0.10969 276646.080000
    379    381     1   0.10969 276646.080000
    382    383     1   0.10969 276646.080000
    382    384     1   0.10969 276646.080000
    389    390     1   0.10129 337397.760000
    391    392     1   0.10969 276646.080000
    391    393     1   0.10969 276646.080000
    394    395     1   0.10969 276646.080000
    394    396     1   0.10969 276646.080000
    398    399     1   0.10969 276646.080000
    398    400     1   0.10969 276646.080000
    401    402     1   0.10969 276646.080000
    401    403     1   0.10969 276646.080000
    404    405     1   0.10969 276646.080000
    404    406     1   0.10969 276646.080000
    407    408     1   0.10969 276646.080000
    407    409     1   0.10969 276646.080000
    414    415     1   0.10129 337397.760000
    416    417     1   0.10969 276646.080000
    416    418     1   0.10969 276646.080000
    419    420     1   0.10969 276646.080000
    419    421     1   0.10969 276646.080000
    423    424     1   0.10969 276646.080000
    423    425     1   0.10969 276646.080000
    426    427     1   0.10969 276646.080000
    426    428     1   0.10969 276646.080000
    429    430     1   0.10969 276646.080000
    429    431     1   0.10969 276646.080000
    432    433     1   0.10969 276646.080000
    432    434     1   0.10969 276646.080000
    439    440     1   0.10129 337397.760000
    441    442     1   0.10969 276646.080000
    441    443     1   0.10969 276646.080000
    444    445     1   0.10969 276646.080000
    444    446     1   0.10969 276646.080000
    448    449     1   0.10969 276646.080000
    448    450     1   0.10969 276646.080000
    451    452     1   0.10969 276646.080000
    451    453     1   0.10969 276646.080000
    454    455     1   0.10969 276646.080000
    454    456     1   0.10969 276646.080000
    457    458     1   0.10969 276646.080000
    457    459     1   0.10969 276646.080000
    464    465     1   0.10129 337397.760000
    466    467     1   0.10969 276646.080000
    466    468     1   0.10969 276646.080000
    469    470     1   0.10969 276646.080000
    469    471     1   0.10969 276646.080000
    473    474     1   0.10969 276646.080000
    473    475     1   0.10969 276646.080000
    476    477     1   0.10969 276646.080000
    476    478     1   0.10969 276646.080000
    479    480     1   0.10969 276646.080000
    479    481     1   0.10969 276646.080000
    482    483     1   0.10969 276646.080000
    482    484     1   0.10969 276646.080000
    489    490     1   0.10129 337397.760000
    491    492     1   0.10969 276646.080000
    491    493     1   0.10969 276646.080000
    494    495     1   0.10969 276646.080000
    494    496     1   0.10969 276646.080000
    498    499     1   0.10969 276646.080000
    498    500     1   0.10969 276646.080000
    501    502     1   0.10969 276646.080000
    501    503     1   0.10969 276646.080000
    504    505     1   0.10969 276646.080000
    504    506     1   0.10969 276646.080000
    507    508     1   0.10969 276646.080000
    507    509     1   0.10969 276646.080000
    514    515     1   0.10129 337397.760000
    516    517     1   0.10969 276646.080000
    516    518     1   0.10969 276646.080000
    519    520     1   0.10969 276646.080000
    519    521     1   0.10969 276646.080000
    523    524     1   0.10969 276646.080000
    523    525     1   0.10969 276646.080000
    526    527     1   0.10969 276646.080000
    526    528     1   0.10969 276646.080000
    529    530     1   0.10969 276646.080000
    529    531     1   0.10969 276646.080000
    532    533     1   0.10969 276646.080000
    532    534     1   0.10969 276646.080000
    539    540     1   0.10129 337397.760000
    541    542     1   0.10969 276646.080000
    541    543     1   0.10969 276646.080000
    544    545     1   0.10969 276646.080000
    544    546     1   0.10969 276646.080000
    548    549     1   0.10969 276646.080000
    548    550     1   0.10969 276646.080000
    551    552     1   0.10969 276646.080000
    551    553     1   0.10969 276646.080000
    554    555     1   0.10969 276646.080000
    554    556     1   0.10969 276646.080000
    557    558     1   0.10969 276646.080000
    557    559     1   0.10969 276646.080000
    564    565     1   0.10129 337397.760000
    566    567     1   0.10969 276646.080000
    566    568     1   0.10969 276646.080000
    569    570     1   0.10969 276646.080000
    569    571     1   0.10969 276646.080000
    573    574     1   0.10969 276646.080000
    573    575     1   0.10969 276646.080000
    576    577     1   0.10969 276646.080000
    576    578     1   0.10969 276646.080000
    579    580     1   0.10969 276646.080000
    579    581     1   0.10969 276646.080000
    582    583     1   0.10969 276646.080000
    582    584     1   0.10969 276646.080000
    589    590     1   0.10129 337397.760000
    591    592     1   0.10969 276646.080000
    591    593     1   0.10969 276646.080000
    594    595     1   0.10969 276646.080000
    594    596     1   0.10969 276646.080000
    598    599     1   0.10969 276646.080000
    598    600     1   0.10969 276646.080000
    601    602     1   0.10969 276646.080000
    601    603     1   0.10969 276646.080000
    604    605     1   0.10969 276646.080000
    604    606     1   0.10969 276646.080000
    607    608     1   0.10969 276646.080000
    607    609     1   0.10969 276646.080000
    614    615     1   0.10129 337397.760000
    616    617     1   0.10969 276646.080000
    616    618     1   0.10969 276646.080000
    619    620     1   0.10969 276646.080000
    619    621     1   0.10969 276646.080000
    623    624     1   0.10969 276646.080000
    623    625     1   0.10969 276646.080000
    626    627     1   0.10969 276646.080000
    626    628     1   0.10969 276646.080000
    629    630     1   0.10969 276646.080000
    629    631     1   0.10969 276646.080000
    632    633     1   0.10969 276646.080000
    632    634     1   0.10969 276646.080000
    639    640     1   0.10129 337397.760000
    641    642     1   0.10969 276646.080000
    641    643     1   0.10969 276646.080000
    644    645     1   0.10969 276646.080000
    644    646     1   0.10969 276646.080000
    648    649     1   0.10969 276646.080000
    648    650     1   0.10969 276646.080000
    651    652     1   0.10969 276646.080000
    651    653     1   0.10969 276646.080000
    654    655     1   0.10969 276646.080000
    654    656     1   0.10969 276646.080000
    657    658     1   0.10969 276646.080000
    657    659     1   0.10969 276646.080000
    664    665     1   0.10129 337397.760000
    666    667     1   0.10969 276646.080000
    666    668     1   0.10969 276646.080000
    669    670     1   0.10969 276646.080000
    669    671     1   0.10969 276646.080000
    673    674     1   0.10969 276646.080000
    673    675     1   0.10969 276646.080000
    676    677     1   0.10969 276646.080000
    676    678     1   0.10969 276646.080000
    679    680     1   0.10969 276646.080000
    679    681     1   0.10969 276646.080000
    682    683     1   0.10969 276646.080000
    682    684     1   0.10969 276646.080000
    689    690     1   0.10129 337397.760000
    691    692     1   0.10969 276646.080000
    691    693     1   0.10969 276646.080000
    694    695     1   0.10969 276646.080000
    694    696     1   0.10969 276646.080000
    698    699     1   0.10969 276646.080000
    698    700     1   0.10969 276646.080000
    701    702     1   0.10969 276646.080000
    701    703     1   0.10969 276646.080000
    704    705     1   0.10969 276646.080000
    704    706     1   0.10969 276646.080000
    707    708     1   0.10969 276646.080000
    707    709     1   0.10969 276646.080000
    714    715     1   0.10129 337397.760000
    716    717     1   0.10969 276646.080000
    716    718     1   0.10969 276646.080000
    719    720     1   0.10969 276646.080000
    719    721     1   0.10969 276646.080000
    723    724     1   0.10969 276646.080000
    723    725     1   0.10969 276646.080000
    726    727     1   0.10969 276646.080000
    726    728     1   0.10969 276646.080000
    729    730     1   0.10969 276646.080000
    729    731     1   0.10969 276646.080000
    732    733     1   0.10969 276646.080000
    732    734     1   0.10969 276646.080000
    739    740     1   0.10129 337397.760000
    741    742     1   0.10129 337397.760000
    743    745     1   0.10969 276646.080000
    743    746     1   0.10969 276646.080000
    744    747     1   0.10910 283424.160000
    744    748     1   0.10910 283424.160000
    749    750     1   0.10304 312293.760000
    749    751     1   0.10304 312293.760000
    749    752     1   0.10304 312293.760000
    753    754     1   0.10129 337397.760000
    755    757     1   0.10969 276646.080000
    755    758     1   0.10969 276646.080000
    756    759     1   0.10910 283424.160000
    756    760     1   0.10910 283424.160000
    761    762     1   0.10304 312293.760000
    761    763     1   0.10304 312293.760000
    761    764     1   0.10304 312293.760000
    765    766     1   0.10129 337397.760000
    767    769     1   0.10969 276646.080000
    767    770     1   0.10969 276646.080000
    768    771     1   0.10910 283424.160000
    768    772     1   0.10910 283424.160000
    773    774     1   0.10304 312293.760000
    773    775     1   0.10304 312293.760000
    773    776     1   0.10304 312293.760000
    777    778     1   0.10129 337397.760000
    779    781     1   0.10969 276646.080000
    779    782     1   0.10969 276646.080000
    780    783     1   0.10910 283424.160000
    780    784     1   0.10910 283424.160000
    785    786     1   0.10304 312293.760000
    785    787     1   0.10304 312293.760000
    785    788     1   0.10304 312293.760000
    789    790     1   0.10129 337397.760000
    791    793     1   0.10969 276646.080000
    791    794     1   0.10969 276646.080000
    792    795     1   0.10910 283424.160000
    792    796     1   0.10910 283424.160000
    797    798     1   0.10304 312293.760000
    797    799     1   0.10304 312293.760000
    797    800     1   0.10304 312293.760000
    801    802     1   0.10129 337397.760000
    803    805     1   0.10969 276646.080000
    803    806     1   0.10969 276646.080000
    804    807     1   0.10910 283424.160000
    804    808     1   0.10910 283424.160000
    809    810     1   0.10304 312293.760000
    809    811     1   0.10304 312293.760000
    809    812     1   0.10304 312293.760000
    813    814     1   0.10129 337397.760000
    815    817     1   0.10969 276646.080000
    815    818     1   0.10969 276646.080000
    816    819     1   0.10910 283424.160000
    816    820     1   0.10910 283424.160000
    821    822     1   0.10304 312293.760000
    821    823     1   0.10304 312293.760000
    821    824     1   0.10304 312293.760000
    825    826     1   0.10129 337397.760000
    827    829     1   0.10969 276646.080000
    827    830     1   0.10969 276646.080000
    828    831     1   0.10910 283424.160000
    828    832     1   0.10910 283424.160000
    833    834     1   0.10304 312293.760000
    833    835     1   0.10304 312293.760000
    833    836     1   0.10304 312293.760000
    837    838     1   0.10129 337397.760000
    839    841     1   0.10969 276646.080000
    839    842     1   0.10969 276646.080000
    840    843     1   0.10910 283424.160000
    840    844     1   0.10910 283424.160000
    845    846     1   0.10304 312293.760000
    845    847     1   0.10304 312293.760000
    845    848     1   0.10304 312293.760000
    849    850     1   0.10129 337397.760000
    851    853     1   0.10969 276646.080000
    851    854     1   0.10969 276646.080000
    852    855     1   0.10910 283424.160000
    852    856     1   0.10910 283424.160000
    857    858     1   0.10304 312293.760000
    857    859     1   0.10304 312293.760000
    857    860     1   0.10304 312293.760000
    861    862     1   0.10129 337397.760000
    863    865     1   0.10969 276646.080000
    863    866     1   0.10969 276646.080000
    864    867     1   0.10910 283424.160000
    864    868     1   0.10910 283424.160000
    869    870     1   0.10304 312293.760000
    869    871     1   0.10304 312293.760000
    869    872     1   0.10304 312293.760000
    873    874     1   0.10129 337397.760000
    875    877     1   0.10969 276646.080000
    875    878     1   0.10969 276646.080000
    876    879     1   0.10910 283424.160000
    876    880     1   0.10910 283424.160000
    881    882     1   0.10304 312293.760000
    881    883     1   0.10304 312293.760000
    881    884     1   0.10304 312293.760000
    885    886     1   0.10129 337397.760000
    887    889     1   0.10969 276646.080000
    887    890     1   0.10969 276646.080000
    888    891     1   0.10910 283424.160000
    888    892     1   0.10910 283424.160000
    893    894     1   0.10304 312293.760000
    893    895     1   0.10304 312293.760000
    893    896     1   0.10304 312293.760000
    897    898     1   0.10129 337397.760000
    899    901     1   0.10969 276646.080000
    899    902     1   0.10969 276646.080000
    900    903     1   0.10910 283424.160000
    900    904     1   0.10910 283424.160000
    905    906     1   0.10304 312293.760000
    905    907     1   0.10304 312293.760000
    905    908     1   0.10304 312293.760000
    909    910     1   0.10129 337397.760000
    911    913     1   0.10969 276646.080000
    911    914     1   0.10969 276646.080000
    912    915     1   0.10910 283424.160000
    912    916     1   0.10910 283424.160000
    917    918     1   0.10304 312293.760000
    917    919     1   0.10304 312293.760000
    917    920     1   0.10304 312293.760000
    921    922     1   0.10129 337397.760000
    923    925     1   0.10969 276646.080000
    923    926     1   0.10969 276646.080000
    924    927     1   0.10910 283424.160000
    924    928     1   0.10910 283424.160000
    929    930     1   0.10304 312293.760000
    929    931     1   0.10304 312293.760000
    929    932     1   0.10304 312293.760000
    933    934     1   0.10129 337397.760000
    935    937     1   0.10969 276646.080000
    935    938     1   0.10969 276646.080000
    936    939     1   0.10910 283424.160000
    936    940     1   0.10910 283424.160000
    941    942     1   0.10304 312293.760000
    941    943     1   0.10304 312293.760000
    941    944     1   0.10304 312293.760000
    945    946     1   0.10129 337397.760000
    947    949     1   0.10969 276646.080000
    947    950     1   0.10969 276646.080000
    948    951     1   0.10910 283424.160000
    948    952     1   0.10910 283424.160000
    953    954     1   0.10304 312293.760000
    953    955     1   0.10304 312293.760000
    953    956     1   0.10304 312293.760000
    957    958     1   0.10129 337397.760000
    959    961     1   0.10969 276646.080000
    959    962     1   0.10969 276646.080000
    960    963     1   0.10910 283424.160000
    960    964     1   0.10910 283424.160000
    965    966     1   0.10304 312293.760000
    965    967     1   0.10304 312293.760000
    965    968     1   0.10304 312293.760000
    969    970     1   0.10129 337397.760000
    971    973     1   0.10969 276646.080000
    971    974     1   0.10969 276646.080000
    972    975     1   0.10910 283424.160000
    972    976     1   0.10910 283424.160000
    977    978     1   0.10304 312293.760000
    977    979     1   0.10304 312293.760000
    977    980     1   0.10304 312293.760000
    981    982     1   0.10129 337397.760000
    983    985     1   0.10969 276646.080000
    983    986     1   0.10969 276646.080000
    984    987     1   0.10910 283424.160000
    984    988     1   0.10910 283424.160000
    989    990     1   0.10304 312293.760000
    989    991     1   0.10304 312293.760000
    989    992     1   0.10304 312293.760000
    993    994     1   0.10129 337397.760000
    995    997     1   0.10969 276646.080000
    995    998     1   0.10969 276646.080000
    996    999     1   0.10910 283424.160000
    996   1000     1   0.10910 283424.160000
   1001   1002     1   0.10304 312293.760000
   1001   1003     1   0.10304 312293.760000
   1001   1004     1   0.10304 312293.760000
   1005   1006     1   0.10129 337397.760000
   1007   1009     1   0.10969 276646.080000
   1007   1010     1   0.10969 276646.080000
   1008   1011     1   0.10910 283424.160000
   1008   1012     1   0.10910 283424.160000
   1013   1014     1   0.10304 312293.760000
   1013   1015     1   0.10304 312293.760000
   1013   1016     1   0.10304 312293.760000
   1017   1018     1   0.10129 337397.760000
   1019   1021     1   0.10969 276646.080000
   1019   1022     1   0.10969 276646.080000
   1020   1023     1   0.10910 283424.160000
   1020   1024     1   0.10910 283424.160000
   1025   1026     1   0.10304 312293.760000
   1025   1027     1   0.10304 312293.760000
   1025   1028     1   0.10304 312293.760000
   1029   1030     1   0.10129 337397.760000
   1031   1033     1   0.10969 276646.080000
   1031   1034     1   0.10969 276646.080000
   1032   1035     1   0.10910 283424.160000
   1032   1036     1   0.10910 283424.160000
   1037   1038     1   0.10304 312293.760000
   1037   1039     1   0.10304 312293.760000
   1037   1040     1   0.10304 312293.760000
   1041   1042     1   0.10129 337397.760000
   1043   1045     1   0.10969 276646.080000
   1043   1046     1   0.10969 276646.080000
   1044   1047     1   0.10910 283424.160000
   1044   1048     1   0.10910 283424.160000
   1049   1050     1   0.10304 312293.760000
   1049   1051     1   0.10304 312293.760000
   1049   1052     1   0.10304 312293.760000
   1053   1054     1   0.10129 337397.760000
   1055   1057     1   0.10969 276646.080000
   1055   1058     1   0.10969 276646.080000
   1056   1059     1   0.10910 283424.160000
   1056   1060     1   0.10910 283424.160000
   1061   1062     1   0.10304 312293.760000
   1061   1063     1   0.10304 312293.760000
   1061   1064     1   0.10304 312293.760000
   1065   1066     1   0.10129 337397.760000
   1067   1069     1   0.10969 276646.080000
   1067   1070     1   0.10969 276646.080000
   1068   1071     1   0.10910 283424.160000
   1068   1072     1   0.10910 283424.160000
   1073   1074     1   0.10304 312293.760000
   1073   1075     1   0.10304 312293.760000
   1073   1076     1   0.10304 312293.760000
   1077   1078     1   0.10129 337397.760000
   1079   1081     1   0.10969 276646.080000
   1079   1082     1   0.10969 276646.080000
   1080   1083     1   0.10910 283424.160000
   1080   1084     1   0.10910 283424.160000
   1085   1086     1   0.10304 312293.760000
   1085   1087     1   0.10304 312293.760000
   1085   1088     1   0.10304 312293.760000
   1089   1090     1   0.10129 337397.760000
   1091   1093     1   0.10969 276646.080000
   1091   1094     1   0.10969 276646.080000
   1092   1095     1   0.10910 283424.160000
   1092   1096     1   0.10910 283424.160000
   1097   1098     1   0.10304 312293.760000
   1097   1099     1   0.10304 312293.760000
   1097   1100     1   0.10304 312293.760000
   1101   1102     1   0.10129 337397.760000
   1103   1105     1   0.10969 276646.080000
   1103   1106     1   0.10969 276646.080000
   1104   1107     1   0.10910 283424.160000
   1104   1108     1   0.10910 283424.160000
   1109   1110     1   0.10304 312293.760000
   1109   1111     1   0.10304 312293.760000
   1109   1112     1   0.10304 312293.760000
   1113   1114     1   0.10129 337397.760000
   1115   1117     1   0.10969 276646.080000
   1115   1118     1   0.10969 276646.080000
   1116   1119     1   0.10910 283424.160000
   1116   1120     1   0.10910 283424.160000
   1121   1122     1   0.10304 312293.760000
   1121   1123     1   0.10304 312293.760000
   1121   1124     1   0.10304 312293.760000

[ pairs ]
;    ai     aj funct         c0         c1         c2         c3
      1     15     1
      1     18     1
      1     30     1
      1     27     1
      4      9     1
      4     12     1
      4     21     1
      4     24     1
      8      7     1
      7     35     1
      7     36     1
      8     34     1
      8     33     1
      9     27     1
      9     40     1
      9     89     1
     12     30     1
     12     37     1
     12     64     1
     15     24     1
     15     38     1
     15    114     1
     18     21     1
     18     39     1
     18    139     1
     21     94     1
     24    119     1
     27     44     1
     30     69     1
     33     41     1
     34     66     1
     35     91     1
     36    116     1
     37     44     1
     38     94     1
     39    119     1
     40     69     1
     41     57     1
     41     54     1
     44     48     1
     44     51     1
     47     64     1
     47     61     1
     47     60     1
     48     54     1
     48     63     1
     48    189     1
     51     57     1
     51     62     1
     51    164     1
     54    144     1
     57    169     1
     60    141     1
     61    166     1
     62    144     1
     63    169     1
     66     82     1
     66     79     1
     69     73     1
     69     76     1
     72     89     1
     72     86     1
     72     85     1
     73     79     1
     73     88     1
     73    239     1
     76     82     1
     76     87     1
     76    214     1
     79    194     1
     82    219     1
     85    191     1
     86    216     1
     87    194     1
     88    219     1
     91    107     1
     91    104     1
     94     98     1
     94    101     1
     97    114     1
     97    111     1
     97    110     1
     98    104     1
     98    113     1
     98    289     1
    101    107     1
    101    112     1
    101    264     1
    104    244     1
    107    269     1
    110    241     1
    111    266     1
    112    244     1
    113    269     1
    116    132     1
    116    129     1
    119    123     1
    119    126     1
    122    139     1
    122    136     1
    122    135     1
    123    129     1
    123    138     1
    123    339     1
    126    132     1
    126    137     1
    126    314     1
    129    294     1
    132    319     1
    135    291     1
    136    316     1
    137    294     1
    138    319     1
    141    157     1
    141    154     1
    144    148     1
    144    151     1
    147    164     1
    147    161     1
    147    160     1
    148    154     1
    148    163     1
    148    389     1
    151    157     1
    151    162     1
    151    364     1
    154    344     1
    157    369     1
    160    341     1
    161    366     1
    162    344     1
    163    369     1
    166    182     1
    166    179     1
    169    173     1
    169    176     1
    172    189     1
    172    186     1
    172    185     1
    173    179     1
    173    188     1
    173    439     1
    176    182     1
    176    187     1
    176    414     1
    179    394     1
    182    419     1
    185    391     1
    186    416     1
    187    394     1
    188    419     1
    191    207     1
    191    204     1
    194    198     1
    194    201     1
    197    214     1
    197    211     1
    197    210     1
    198    204     1
    198    213     1
    198    489     1
    201    207     1
    201    212     1
    201    464     1
    204    444     1
    207    469     1
    210    441     1
    211    466     1
    212    444     1
    213    469     1
    216    232     1
    216    229     1
    219    223     1
    219    226     1
    222    239     1
    222    236     1
    222    235     1
    223    229     1
    223    238     1
    223    539     1
    226    232     1
    226    237     1
    226    514     1
    229    494     1
    232    519     1
    235    491     1
    236    516     1
    237    494     1
    238    519     1
    241    257     1
    241    254     1
    244    248     1
    244    251     1
    247    264     1
    247    261     1
    247    260     1
    248    254     1
    248    263     1
    248    589     1
    251    257     1
    251    262     1
    251    564     1
    254    544     1
    257    569     1
    260    541     1
    261    566     1
    262    544     1
    263    569     1
    266    282     1
    266    279     1
    269    273     1
    269    276     1
    272    289     1
    272    286     1
    272    285     1
    273    279     1
    273    288     1
    273    639     1
    276    282     1
    276    287     1
    276    614     1
    279    594     1
    282    619     1
    285    591     1
    286    616     1
    287    594     1
    288    619     1
    291    307     1
    291    304     1
    294    298     1
    294    301     1
    297    314     1
    297    311     1
    297    310     1
    298    304     1
    298    313     1
    298    689     1
    301    307     1
    301    312     1
    301    664     1
    304    644     1
    307    669     1
    310    641     1
    311    666     1
    312    644     1
    313    669     1
    316    332     1
    316    329     1
    319    323     1
    319    326     1
    322    339     1
    322    336     1
    322    335     1
    323    329     1
    323    338     1
    323    739     1
    326    332     1
    326    337     1
    326    714     1
    329    694     1
    332    719     1
    335    691     1
    336    716     1
    337    694     1
    338    719     1
    341    357     1
    341    354     1
    344    348     1
    344    351     1
    347    364     1
    347    361     1
    347    360     1
    348    354     1
    348    363     1
    348    753     1
    351    357     1
    351    741     1
    351    362     1
    354    743     1
    357    755     1
    360    744     1
    361    756     1
    362    743     1
    363    755     1
    366    382     1
    366    379     1
    369    373     1
    369    376     1
    372    389     1
    372    386     1
    372    385     1
    373    379     1
    373    388     1
    373    777     1
    376    382     1
    376    765     1
    376    387     1
    379    767     1
    382    779     1
    385    768     1
    386    780     1
    387    767     1
    388    779     1
    391    407     1
    391    404     1
    394    398     1
    394    401     1
    397    414     1
    397    411     1
    397    410     1
    398    404     1
    398    413     1
    398    801     1
    401    407     1
    401    789     1
    401    412     1
    404    791     1
    407    803     1
    410    792     1
    411    804     1
    412    791     1
    413    803     1
    416    432     1
    416    429     1
    419    423     1
    419    426     1
    422    439     1
    422    436     1
    422    435     1
    423    429     1
    423    438     1
    423    825     1
    426    432     1
    426    813     1
    426    437     1
    429    815     1
    432    827     1
    435    816     1
    436    828     1
    437    815     1
    438    827     1
    441    457     1
    441    454     1
    444    448     1
    444    451     1
    447    464     1
    447    461     1
    447    460     1
    448    454     1
    448    463     1
    448    849     1
    451    457     1
    451    837     1
    451    462     1
    454    839     1
    457    851     1
    460    840     1
    461    852     1
    462    839     1
    463    851     1
    466    482     1
    466    479     1
    469    473     1
    469    476     1
    472    489     1
    472    486     1
    472    485     1
    473    479     1
    473    488     1
    473    873     1
    476    482     1
    476    861     1
    476    487     1
    479    863     1
    482    875     1
    485    864     1
    486    876     1
    487    863     1
    488    875     1
    491    507     1
    491    504     1
    494    498     1
    494    501     1
    497    514     1
    497    511     1
    497    510     1
    498    504     1
    498    513     1
    498    897     1
    501    507     1
    501    885     1
    501    512     1
    504    887     1
    507    899     1
    510    888     1
    511    900     1
    512    887     1
    513    899     1
    516    532     1
    516    529     1
    519    523     1
    519    526     1
    522    539     1
    522    536     1
    522    535     1
    523    529     1
    523    538     1
    523    921     1
    526    532     1
    526    909     1
    526    537     1
    529    911     1
    532    923     1
    535    912     1
    536    924     1
    537    911     1
    538    923     1
    541    557     1
    541    554     1
    544    548     1
    544    551     1
    547    564     1
    547    561     1
    547    560     1
    548    554     1
    548    563     1
    548    945     1
    551    557     1
    551    933     1
    551    562     1
    554    935     1
    557    947     1
    560    936     1
    561    948     1
    562    935     1
    563    947     1
    566    582     1
    566    579     1
    569    573     1
    569    576     1
    572    589     1
    572    586     1
    572    585     1
    573    579     1
    573    588     1
    573    969     1
    576    582     1
    576    957     1
    576    587     1
    579    959     1
    582    971     1
    585    960     1
    586    972     1
    587    959     1
    588    971     1
    591    607     1
    591    604     1
    594    598     1
    594    601     1
    597    614     1
    597    611     1
    597    610     1
    598    604     1
    598    613     1
    598    993     1
    601    607     1
    601    981     1
    601    612     1
    604    983     1
    607    995     1
    610    984     1
    611    996     1
    612    983     1
    613    995     1
    616    632     1
    616    629     1
    619    623     1
    619    626     1
    622    639     1
    622    636     1
    622    635     1
    623    629     1
    623    638     1
    623   1017     1
    626    632     1
    626   1005     1
    626    637     1
    629   1007     1
    632   1019     1
    635   1008     1
    636   1020     1
    637   1007     1
    638   1019     1
    641    657     1
    641    654     1
    644    648     1
    644    651     1
    647    664     1
    647    661     1
    647    660     1
    648    654     1
    648    663     1
    648   1041     1
    651    657     1
    651   1029     1
    651    662     1
    654   1031     1
    657   1043     1
    660   1032     1
    661   1044     1
    662   1031     1
    663   1043     1
    666    682     1
    666    679     1
    669    673     1
    669    676     1
    672    689     1
    672    686     1
    672    685     1
    673    679     1
    673    688     1
    673   1065     1
    676    682     1
    676   1053     1
    676    687     1
    679   1055     1
    682   1067     1
    685   1056     1
    686   1068     1
    687   1055     1
    688   1067     1
    691    707     1
    691    704     1
    694    698     1
    694    701     1
    697    714     1
    697    711     1
    697    710     1
    698    704     1
    698    713     1
    698   1089     1
    701    707     1
    701   1077     1
    701    712     1
    704   1079     1
    707   1091     1
    710   1080     1
    711   1092     1
    712   1079     1
    713   1091     1
    716    732     1
    716    729     1
    719    723     1
    719    726     1
    722    739     1
    722    736     1
    722    735     1
    723    729     1
    723   1113     1
    723    738     1
    726    732     1
    726   1101     1
    726    737     1
    729   1103     1
    732   1115     1
    735   1104     1
    736   1116     1
    737   1103     1
    738   1115     1
    741    749     1
    753    761     1
    765    773     1
    777    785     1
    789    797     1
    801    809     1
    813    821     1
    825    833     1
    837    845     1
    849    857     1
    861    869     1
    873    881     1
    885    893     1
    897    905     1
    909    917     1
    921    929     1
    933    941     1
    945    953     1
    957    965     1
    969    977     1
    981    989     1
    993   1001     1
   1005   1013     1
   1017   1025     1
   1029   1037     1
   1041   1049     1
   1053   1061     1
   1065   1073     1
   1077   1085     1
   1089   1097     1
   1101   1109     1
   1113   1121     1
      1     10     1
      1     11     1
      1     13     1
      1     14     1
      2      7     1
      2      5     1
      2      6     1
      2      9     1
      2     12     1
      3      7     1
      3      5     1
      3      6     1
      3      9     1
      3     12     1
      4     16     1
      4     17     1
      4     19     1
      4     20     1
      8      5     1
      5     15     1
      5     18     1
      8      6     1
      6     15     1
      6     18     1
      7     22     1
      7     23     1
      7     25     1
      7     26     1
      8     31     1
      8     32     1
      8     28     1
      8     29     1
      9     13     1
      9     14     1
     10     12     1
     10     34     1
     10     31     1
     10     32     1
     11     12     1
     11     34     1
     11     31     1
     11     32     1
     13     33     1
     13     28     1
     13     29     1
     14     33     1
     14     28     1
     14     29     1
     15     19     1
     15     20     1
     16     18     1
     16     35     1
     16     22     1
     16     23     1
     17     18     1
     17     35     1
     17     22     1
     17     23     1
     19     36     1
     19     25     1
     19     26     1
     20     36     1
     20     25     1
     20     26     1
     21    115     1
     22     38     1
     22    114     1
     23     38     1
     23    114     1
     24    140     1
     25     39     1
     25    139     1
     26     39     1
     26    139     1
     27     65     1
     28     37     1
     28     64     1
     29     37     1
     29     64     1
     30     90     1
     31     40     1
     31     89     1
     32     40     1
     32     89     1
     33     45     1
     33     46     1
     34     70     1
     34     71     1
     35     95     1
     35     96     1
     36    120     1
     36    121     1
     37     65     1
     38    115     1
     39    140     1
     40     90     1
     41     65     1
     41     49     1
     41     50     1
     41     52     1
     41     53     1
     42     64     1
     42     45     1
     42     46     1
     42     48     1
     42     51     1
     43     64     1
     43     45     1
     43     46     1
     43     48     1
     43     51     1
     45     47     1
     45     65     1
     46     47     1
     46     65     1
     47     58     1
     47     59     1
     47     55     1
     47     56     1
     48     52     1
     48     53     1
     49     51     1
     49     61     1
     49     58     1
     49     59     1
     50     51     1
     50     61     1
     50     58     1
     50     59     1
     52     60     1
     52     55     1
     52     56     1
     53     60     1
     53     55     1
     53     56     1
     54    165     1
     55     62     1
     55    164     1
     56     62     1
     56    164     1
     57    190     1
     58     63     1
     58    189     1
     59     63     1
     59    189     1
     60    145     1
     60    146     1
     61    170     1
     61    171     1
     62    165     1
     63    190     1
     66     90     1
     66     74     1
     66     75     1
     66     77     1
     66     78     1
     67     89     1
     67     70     1
     67     71     1
     67     73     1
     67     76     1
     68     89     1
     68     70     1
     68     71     1
     68     73     1
     68     76     1
     70     72     1
     70     90     1
     71     72     1
     71     90     1
     72     83     1
     72     84     1
     72     80     1
     72     81     1
     73     77     1
     73     78     1
     74     76     1
     74     86     1
     74     83     1
     74     84     1
     75     76     1
     75     86     1
     75     83     1
     75     84     1
     77     85     1
     77     80     1
     77     81     1
     78     85     1
     78     80     1
     78     81     1
     79    215     1
     80     87     1
     80    214     1
     81     87     1
     81    214     1
     82    240     1
     83     88     1
     83    239     1
     84     88     1
     84    239     1
     85    195     1
     85    196     1
     86    220     1
     86    221     1
     87    215     1
     88    240     1
     91    115     1
     91     99     1
     91    100     1
     91    102     1
     91    103     1
     92    114     1
     92     95     1
     92     96     1
     92     98     1
     92    101     1
     93    114     1
     93     95     1
     93     96     1
     93     98     1
     93    101     1
     95     97     1
     95    115     1
     96     97     1
     96    115     1
     97    108     1
     97    109     1
     97    105     1
     97    106     1
     98    102     1
     98    103     1
     99    101     1
     99    111     1
     99    108     1
     99    109     1
    100    101     1
    100    111     1
    100    108     1
    100    109     1
    102    110     1
    102    105     1
    102    106     1
    103    110     1
    103    105     1
    103    106     1
    104    265     1
    105    112     1
    105    264     1
    106    112     1
    106    264     1
    107    290     1
    108    113     1
    108    289     1
    109    113     1
    109    289     1
    110    245     1
    110    246     1
    111    270     1
    111    271     1
    112    265     1
    113    290     1
    116    140     1
    116    124     1
    116    125     1
    116    127     1
    116    128     1
    117    139     1
    117    120     1
    117    121     1
    117    123     1
    117    126     1
    118    139     1
    118    120     1
    118    121     1
    118    123     1
    118    126     1
    120    122     1
    120    140     1
    121    122     1
    121    140     1
    122    133     1
    122    134     1
    122    130     1
    122    131     1
    123    127     1
    123    128     1
    124    126     1
    124    136     1
    124    133     1
    124    134     1
    125    126     1
    125    136     1
    125    133     1
    125    134     1
    127    135     1
    127    130     1
    127    131     1
    128    135     1
    128    130     1
    128    131     1
    129    315     1
    130    137     1
    130    314     1
    131    137     1
    131    314     1
    132    340     1
    133    138     1
    133    339     1
    134    138     1
    134    339     1
    135    295     1
    135    296     1
    136    320     1
    136    321     1
    137    315     1
    138    340     1
    141    165     1
    141    149     1
    141    150     1
    141    152     1
    141    153     1
    142    164     1
    142    145     1
    142    146     1
    142    148     1
    142    151     1
    143    164     1
    143    145     1
    143    146     1
    143    148     1
    143    151     1
    145    147     1
    145    165     1
    146    147     1
    146    165     1
    147    158     1
    147    159     1
    147    155     1
    147    156     1
    148    152     1
    148    153     1
    149    151     1
    149    161     1
    149    158     1
    149    159     1
    150    151     1
    150    161     1
    150    158     1
    150    159     1
    152    160     1
    152    155     1
    152    156     1
    153    160     1
    153    155     1
    153    156     1
    154    365     1
    155    162     1
    155    364     1
    156    162     1
    156    364     1
    157    390     1
    158    163     1
    158    389     1
    159    163     1
    159    389     1
    160    345     1
    160    346     1
    161    370     1
    161    371     1
    162    365     1
    163    390     1
    166    190     1
    166    174     1
    166    175     1
    166    177     1
    166    178     1
    167    189     1
    167    170     1
    167    171     1
    167    173     1
    167    176     1
    168    189     1
    168    170     1
    168    171     1
    168    173     1
    168    176     1
    170    172     1
    170    190     1
    171    172     1
    171    190     1
    172    183     1
    172    184     1
    172    180     1
    172    181     1
    173    177     1
    173    178     1
    174    176     1
    174    186     1
    174    183     1
    174    184     1
    175    176     1
    175    186     1
    175    183     1
    175    184     1
    177    185     1
    177    180     1
    177    181     1
    178    185     1
    178    180     1
    178    181     1
    179    415     1
    180    187     1
    180    414     1
    181    187     1
    181    414     1
    182    440     1
    183    188     1
    183    439     1
    184    188     1
    184    439     1
    185    395     1
    185    396     1
    186    420     1
    186    421     1
    187    415     1
    188    440     1
    191    215     1
    191    199     1
    191    200     1
    191    202     1
    191    203     1
    192    214     1
    192    195     1
    192    196     1
    192    198     1
    192    201     1
    193    214     1
    193    195     1
    193    196     1
    193    198     1
    193    201     1
    195    197     1
    195    215     1
    196    197     1
    196    215     1
    197    208     1
    197    209     1
    197    205     1
    197    206     1
    198    202     1
    198    203     1
    199    201     1
    199    211     1
    199    208     1
    199    209     1
    200    201     1
    200    211     1
    200    208     1
    200    209     1
    202    210     1
    202    205     1
    202    206     1
    203    210     1
    203    205     1
    203    206     1
    204    465     1
    205    212     1
    205    464     1
    206    212     1
    206    464     1
    207    490     1
    208    213     1
    208    489     1
    209    213     1
    209    489     1
    210    445     1
    210    446     1
    211    470     1
    211    471     1
    212    465     1
    213    490     1
    216    240     1
    216    224     1
    216    225     1
    216    227     1
    216    228     1
    217    239     1
    217    220     1
    217    221     1
    217    223     1
    217    226     1
    218    239     1
    218    220     1
    218    221     1
    218    223     1
    218    226     1
    220    222     1
    220    240     1
    221    222     1
    221    240     1
    222    233     1
    222    234     1
    222    230     1
    222    231     1
    223    227     1
    223    228     1
    224    226     1
    224    236     1
    224    233     1
    224    234     1
    225    226     1
    225    236     1
    225    233     1
    225    234     1
    227    235     1
    227    230     1
    227    231     1
    228    235     1
    228    230     1
    228    231     1
    229    515     1
    230    237     1
    230    514     1
    231    237     1
    231    514     1
    232    540     1
    233    238     1
    233    539     1
    234    238     1
    234    539     1
    235    495     1
    235    496     1
    236    520     1
    236    521     1
    237    515     1
    238    540     1
    241    265     1
    241    249     1
    241    250     1
    241    252     1
    241    253     1
    242    264     1
    242    245     1
    242    246     1
    242    248     1
    242    251     1
    243    264     1
    243    245     1
    243    246     1
    243    248     1
    243    251     1
    245    247     1
    245    265     1
    246    247     1
    246    265     1
    247    258     1
    247    259     1
    247    255     1
    247    256     1
    248    252     1
    248    253     1
    249    251     1
    249    261     1
    249    258     1
    249    259     1
    250    251     1
    250    261     1
    250    258     1
    250    259     1
    252    260     1
    252    255     1
    252    256     1
    253    260     1
    253    255     1
    253    256     1
    254    565     1
    255    262     1
    255    564     1
    256    262     1
    256    564     1
    257    590     1
    258    263     1
    258    589     1
    259    263     1
    259    589     1
    260    545     1
    260    546     1
    261    570     1
    261    571     1
    262    565     1
    263    590     1
    266    290     1
    266    274     1
    266    275     1
    266    277     1
    266    278     1
    267    289     1
    267    270     1
    267    271     1
    267    273     1
    267    276     1
    268    289     1
    268    270     1
    268    271     1
    268    273     1
    268    276     1
    270    272     1
    270    290     1
    271    272     1
    271    290     1
    272    283     1
    272    284     1
    272    280     1
    272    281     1
    273    277     1
    273    278     1
    274    276     1
    274    286     1
    274    283     1
    274    284     1
    275    276     1
    275    286     1
    275    283     1
    275    284     1
    277    285     1
    277    280     1
    277    281     1
    278    285     1
    278    280     1
    278    281     1
    279    615     1
    280    287     1
    280    614     1
    281    287     1
    281    614     1
    282    640     1
    283    288     1
    283    639     1
    284    288     1
    284    639     1
    285    595     1
    285    596     1
    286    620     1
    286    621     1
    287    615     1
    288    640     1
    291    315     1
    291    299     1
    291    300     1
    291    302     1
    291    303     1
    292    314     1
    292    295     1
    292    296     1
    292    298     1
    292    301     1
    293    314     1
    293    295     1
    293    296     1
    293    298     1
    293    301     1
    295    297     1
    295    315     1
    296    297     1
    296    315     1
    297    308     1
    297    309     1
    297    305     1
    297    306     1
    298    302     1
    298    303     1
    299    301     1
    299    311     1
    299    308     1
    299    309     1
    300    301     1
    300    311     1
    300    308     1
    300    309     1
    302    310     1
    302    305     1
    302    306     1
    303    310     1
    303    305     1
    303    306     1
    304    665     1
    305    312     1
    305    664     1
    306    312     1
    306    664     1
    307    690     1
    308    313     1
    308    689     1
    309    313     1
    309    689     1
    310    645     1
    310    646     1
    311    670     1
    311    671     1
    312    665     1
    313    690     1
    316    340     1
    316    324     1
    316    325     1
    316    327     1
    316    328     1
    317    339     1
    317    320     1
    317    321     1
    317    323     1
    317    326     1
    318    339     1
    318    320     1
    318    321     1
    318    323     1
    318    326     1
    320    322     1
    320    340     1
    321    322     1
    321    340     1
    322    333     1
    322    334     1
    322    330     1
    322    331     1
    323    327     1
    323    328     1
    324    326     1
    324    336     1
    324    333     1
    324    334     1
    325    326     1
    325    336     1
    325    333     1
    325    334     1
    327    335     1
    327    330     1
    327    331     1
    328    335     1
    328    330     1
    328    331     1
    329    715     1
    330    337     1
    330    714     1
    331    337     1
    331    714     1
    332    740     1
    333    338     1
    333    739     1
    334    338     1
    334    739     1
    335    695     1
    335    696     1
    336    720     1
    336    721     1
    337    715     1
    338    740     1
    341    365     1
    341    349     1
    341    350     1
    341    352     1
    341    353     1
    342    364     1
    342    345     1
    342    346     1
    342    348     1
    342    351     1
    343    364     1
    343    345     1
    343    346     1
    343    348     1
    343    351     1
    345    347     1
    345    365     1
    346    347     1
    346    365     1
    347    358     1
    347    359     1
    347    355     1
    347    356     1
    348    352     1
    348    353     1
    349    351     1
    349    361     1
    349    358     1
    349    359     1
    350    351     1
    350    361     1
    350    358     1
    350    359     1
    352    360     1
    352    355     1
    352    356     1
    353    360     1
    353    355     1
    353    356     1
    354    742     1
    355    741     1
    355    362     1
    356    741     1
    356    362     1
    357    754     1
    358    363     1
    358    753     1
    359    363     1
    359    753     1
    360    745     1
    360    746     1
    361    757     1
    361    758     1
    362    742     1
    363    754     1
    366    390     1
    366    374     1
    366    375     1
    366    377     1
    366    378     1
    367    389     1
    367    370     1
    367    371     1
    367    373     1
    367    376     1
    368    389     1
    368    370     1
    368    371     1
    368    373     1
    368    376     1
    370    372     1
    370    390     1
    371    372     1
    371    390     1
    372    383     1
    372    384     1
    372    380     1
    372    381     1
    373    377     1
    373    378     1
    374    376     1
    374    386     1
    374    383     1
    374    384     1
    375    376     1
    375    386     1
    375    383     1
    375    384     1
    377    385     1
    377    380     1
    377    381     1
    378    385     1
    378    380     1
    378    381     1
    379    766     1
    380    765     1
    380    387     1
    381    765     1
    381    387     1
    382    778     1
    383    388     1
    383    777     1
    384    388     1
    384    777     1
    385    769     1
    385    770     1
    386    781     1
    386    782     1
    387    766     1
    388    778     1
    391    415     1
    391    399     1
    391    400     1
    391    402     1
    391    403     1
    392    414     1
    392    395     1
    392    396     1
    392    398     1
    392    401     1
    393    414     1
    393    395     1
    393    396     1
    393    398     1
    393    401     1
    395    397     1
    395    415     1
    396    397     1
    396    415     1
    397    408     1
    397    409     1
    397    405     1
    397    406     1
    398    402     1
    398    403     1
    399    401     1
    399    411     1
    399    408     1
    399    409     1
    400    401     1
    400    411     1
    400    408     1
    400    409     1
    402    410     1
    402    405     1
    402    406     1
    403    410     1
    403    405     1
    403    406     1
    404    790     1
    405    789     1
    405    412     1
    406    789     1
    406    412     1
    407    802     1
    408    413     1
    408    801     1
    409    413     1
    409    801     1
    410    793     1
    410    794     1
    411    805     1
    411    806     1
    412    790     1
    413    802     1
    416    440     1
    416    424     1
    416    425     1
    416    427     1
    416    428     1
    417    439     1
    417    420     1
    417    421     1
    417    423     1
    417    426     1
    418    439     1
    418    420     1
    418    421     1
    418    423     1
    418    426     1
    420    422     1
    420    440     1
    421    422     1
    421    440     1
    422    433     1
    422    434     1
    422    430     1
    422    431     1
    423    427     1
    423    428     1
    424    426     1
    424    436     1
    424    433     1
    424    434     1
    425    426     1
    425    436     1
    425    433     1
    425    434     1
    427    435     1
    427    430     1
    427    431     1
    428    435     1
    428    430     1
    428    431     1
    429    814     1
    430    813     1
    430    437     1
    431    813     1
    431    437     1
    432    826     1
    433    438     1
    433    825     1
    434    438     1
    434    825     1
    435    817     1
    435    818     1
    436    829     1
    436    830     1
    437    814     1
    438    826     1
    441    465     1
    441    449     1
    441    450     1
    441    452     1
    441    453     1
    442    464     1
    442    445     1
    442    446     1
    442    448     1
    442    451     1
    443    464     1
    443    445     1
    443    446     1
    443    448     1
    443    451     1
    445    447     1
    445    465     1
    446    447     1
    446    465     1
    447    458     1
    447    459     1
    447    455     1
    447    456     1
    448    452     1
    448    453     1
    449    451     1
    449    461     1
    449    458     1
    449    459     1
    450    451     1
    450    461     1
    450    458     1
    450    459     1
    452    460     1
    452    455     1
    452    456     1
    453    460     1
    453    455     1
    453    456     1
    454    838     1
    455    837     1
    455    462     1
    456    837     1
    456    462     1
    457    850     1
    458    463     1
    458    849     1
    459    463     1
    459    849     1
    460    841     1
    460    842     1
    461    853     1
    461    854     1
    462    838     1
    463    850     1
    466    490     1
    466    474     1
    466    475     1
    466    477     1
    466    478     1
    467    489     1
    467    470     1
    467    471     1
    467    473     1
    467    476     1
    468    489     1
    468    470     1
    468    471     1
    468    473     1
    468    476     1
    470    472     1
    470    490     1
    471    472     1
    471    490     1
    472    483     1
    472    484     1
    472    480     1
    472    481     1
    473    477     1
    473    478     1
    474    476     1
    474    486     1
    474    483     1
    474    484     1
    475    476     1
    475    486     1
    475    483     1
    475    484     1
    477    485     1
    477    480     1
    477    481     1
    478    485     1
    478    480     1
    478    481     1
    479    862     1
    480    861     1
    480    487     1
    481    861     1
    481    487     1
    482    874     1
    483    488     1
    483    873     1
    484    488     1
    484    873     1
    485    865     1
    485    866     1
    486    877     1
    486    878     1
    487    862     1
    488    874     1
    491    515     1
    491    499     1
    491    500     1
    491    502     1
    491    503     1
    492    514     1
    492    495     1
    492    496     1
    492    498     1
    492    501     1
    493    514     1
    493    495     1
    493    496     1
    493    498     1
    493    501     1
    495    497     1
    495    515     1
    496    497     1
    496    515     1
    497    508     1
    497    509     1
    497    505     1
    497    506     1
    498    502     1
    498    503     1
    499    501     1
    499    511     1
    499    508     1
    499    509     1
    500    501     1
    500    511     1
    500    508     1
    500    509     1
    502    510     1
    502    505     1
    502    506     1
    503    510     1
    503    505     1
    503    506     1
    504    886     1
    505    885     1
    505    512     1
    506    885     1
    506    512     1
    507    898     1
    508    513     1
    508    897     1
    509    513     1
    509    897     1
    510    889     1
    510    890     1
    511    901     1
    511    902     1
    512    886     1
    513    898     1
    516    540     1
    516    524     1
    516    525     1
    516    527     1
    516    528     1
    517    539     1
    517    520     1
    517    521     1
    517    523     1
    517    526     1
    518    539     1
    518    520     1
    518    521     1
    518    523     1
    518    526     1
    520    522     1
    520    540     1
    521    522     1
    521    540     1
    522    533     1
    522    534     1
    522    530     1
    522    531     1
    523    527     1
    523    528     1
    524    526     1
    524    536     1
    524    533     1
    524    534     1
    525    526     1
    525    536     1
    525    533     1
    525    534     1
    527    535     1
    527    530     1
    527    531     1
    528    535     1
    528    530     1
    528    531     1
    529    910     1
    530    909     1
    530    537     1
    531    909     1
    531    537     1
    532    922     1
    533    538     1
    533    921     1
    534    538     1
    534    921     1
    535    913     1
    535    914     1
    536    925     1
    536    926     1
    537    910     1
    538    922     1
    541    565     1
    541    549     1
    541    550     1
    541    552     1
    541    553     1
    542    564     1
    542    545     1
    542    546     1
    542    548     1
    542    551     1
    543    564     1
    543    545     1
    543    546     1
    543    548     1
    543    551     1
    545    547     1
    545    565     1
    546    547     1
    546    565     1
    547    558     1
    547    559     1
    547    555     1
    547    556     1
    548    552     1
    548    553     1
    549    551     1
    549    561     1
    549    558     1
    549    559     1
    550    551     1
    550    561     1
    550    558     1
    550    559     1
    552    560     1
    552    555     1
    552    556     1
    553    560     1
    553    555     1
    553    556     1
    554    934     1
    555    933     1
    555    562     1
    556    933     1
    556    562     1
    557    946     1
    558    563     1
    558    945     1
    559    563     1
    559    945     1
    560    937     1
    560    938     1
    561    949     1
    561    950     1
    562    934     1
    563    946     1
    566    590     1
    566    574     1
    566    575     1
    566    577     1
    566    578     1
    567    589     1
    567    570     1
    567    571     1
    567    573     1
    567    576     1
    568    589     1
    568    570     1
    568    571     1
    568    573     1
    568    576     1
    570    572     1
    570    590     1
    571    572     1
    571    590     1
    572    583     1
    572    584     1
    572    580     1
    572    581     1
    573    577     1
    573    578     1
    574    576     1
    574    586     1
    574    583     1
    574    584     1
    575    576     1
    575    586     1
    575    583     1
    575    584     1
    577    585     1
    577    580     1
    577    581     1
    578    585     1
    578    580     1
    578    581     1
    579    958     1
    580    957     1
    580    587     1
    581    957     1
    581    587     1
    582    970     1
    583    588     1
    583    969     1
    584    588     1
    584    969     1
    585    961     1
    585    962     1
    586    973     1
    586    974     1
    587    958     1
    588    970     1
    591    615     1
    591    599     1
    591    600     1
    591    602     1
    591    603     1
    592    614     1
    592    595     1
    592    596     1
    592    598     1
    592    601     1
    593    614     1
    593    595     1
    593    596     1
    593    598     1
    593    601     1
    595    597     1
    595    615     1
    596    597     1
    596    615     1
    597    608     1
    597    609     1
    597    605     1
    597    606     1
    598    602     1
    598    603     1
    599    601     1
    599    611     1
    599    608     1
    599    609     1
    600    601     1
    600    611     1
    600    608     1
    600    609     1
    602    610     1
    602    605     1
    602    606     1
    603    610     1
    603    605     1
    603    606     1
    604    982     1
    605    981     1
    605    612     1
    606    981     1
    606    612     1
    607    994     1
    608    613     1
    608    993     1
    609    613     1
    609    993     1
    610    985     1
    610    986     1
    611    997     1
    611    998     1
    612    982     1
    613    994     1
    616    640     1
    616    624     1
    616    625     1
    616    627     1
    616    628     1
    617    639     1
    617    620     1
    617    621     1
    617    623     1
    617    626     1
    618    639     1
    618    620     1
    618    621     1
    618    623     1
    618    626     1
    620    622     1
    620    640     1
    621    622     1
    621    640     1
    622    633     1
    622    634     1
    622    630     1
    622    631     1
    623    627     1
    623    628     1
    624    626     1
    624    636     1
    624    633     1
    624    634     1
    625    626     1
    625    636     1
    625    633     1
    625    634     1
    627    635     1
    627    630     1
    627    631     1
    628    635     1
    628    630     1
    628    631     1
    629   1006     1
    630   1005     1
    630    637     1
    631   1005     1
    631    637     1
    632   1018     1
    633    638     1
    633   1017     1
    634    638     1
    634   1017     1
    635   1009     1
    635   1010     1
    636   1021     1
    636   1022     1
    637   1006     1
    638   1018     1
    641    665     1
    641    649     1
    641    650     1
    641    652     1
    641    653     1
    642    664     1
    642    645     1
    642    646     1
    642    648     1
    642    651     1
    643    664     1
    643    645     1
    643    646     1
    643    648     1
    643    651     1
    645    647     1
    645    665     1
    646    647     1
    646    665     1
    647    658     1
    647    659     1
    647    655     1
    647    656     1
    648    652     1
    648    653     1
    649    651     1
    649    661     1
    649    658     1
    649    659     1
    650    651     1
    650    661     1
    650    658     1
    650    659     1
    652    660     1
    652    655     1
    652    656     1
    653    660     1
    653    655     1
    653    656     1
    654   1030     1
    655   1029     1
    655    662     1
    656   1029     1
    656    662     1
    657   1042     1
    658    663     1
    658   1041     1
    659    663     1
    659   1041     1
    660   1033     1
    660   1034     1
    661   1045     1
    661   1046     1
    662   1030     1
    663   1042     1
    666    690     1
    666    674     1
    666    675     1
    666    677     1
    666    678     1
    667    689     1
    667    670     1
    667    671     1
    667    673     1
    667    676     1
    668    689     1
    668    670     1
    668    671     1
    668    673     1
    668    676     1
    670    672     1
    670    690     1
    671    672     1
    671    690     1
    672    683     1
    672    684     1
    672    680     1
    672    681     1
    673    677     1
    673    678     1
    674    676     1
    674    686     1
    674    683     1
    674    684     1
    675    676     1
    675    686     1
    675    683     1
    675    684     1
    677    685     1
    677    680     1
    677    681     1
    678    685     1
    678    680     1
    678    681     1
    679   1054     1
    680   1053     1
    680    687     1
    681   1053     1
    681    687     1
    682   1066     1
    683    688     1
    683   1065     1
    684    688     1
    684   1065     1
    685   1057     1
    685   1058     1
    686   1069     1
    686   1070     1
    687   1054     1
    688   1066     1
    691    715     1
    691    699     1
    691    700     1
    691    702     1
    691    703     1
    692    714     1
    692    695     1
    692    696     1
    692    698     1
    692    701     1
    693    714     1
    693    695     1
    693    696     1
    693    698     1
    693    701     1
    695    697     1
    695    715     1
    696    697     1
    696    715     1
    697    708     1
    697    709     1
    697    705     1
    697    706     1
    698    702     1
    698    703     1
    699    701     1
    699    711     1
    699    708     1
    699    709     1
    700    701     1
    700    711     1
    700    708     1
    700    709     1
    702    710     1
    702    705     1
    702    706     1
    703    710     1
    703    705     1
    703    706     1
    704   1078     1
    705   1077     1
    705    712     1
    706   1077     1
    706    712     1
    707   1090     1
    708    713     1
    708   1089     1
    709    713     1
    709   1089     1
    710   1081     1
    710   1082     1
    711   1093     1
    711   1094     1
    712   1078     1
    713   1090     1
    716    740     1
    716    724     1
    716    725     1
    716    727     1
    716    728     1
    717    739     1
    717    720     1
    717    721     1
    717    723     1
    717    726     1
    718    739     1
    718    720     1
    718    721     1
    718    723     1
    718    726     1
    720    722     1
    720    740     1
    721    722     1
    721    740     1
    722    733     1
    722    734     1
    722    730     1
    722    731     1
    723    727     1
    723    728     1
    724    726     1
    724    736     1
    724    733     1
    724    734     1
    725    726     1
    725    736     1
    725    733     1
    725    734     1
    727    735     1
    727    730     1
    727    731     1
    728    735     1
    728    730     1
    728    731     1
    729   1102     1
    730   1101     1
    730    737     1
    731   1101     1
    731    737     1
    732   1114     1
    733   1113     1
    733    738     1
    734   1113     1
    734    738     1
    735   1105     1
    735   1106     1
    736   1117     1
    736   1118     1
    737   1102     1
    738   1114     1
    741    747     1
    741    748     1
    742    744     1
    742    745     1
    742    746     1
    743    750     1
    743    751     1
    743    752     1
    745    749     1
    745    747     1
    745    748     1
    746    749     1
    746    747     1
    746    748     1
    747    750     1
    747    751     1
    747    752     1
    748    750     1
    748    751     1
    748    752     1
    753    759     1
    753    760     1
    754    756     1
    754    757     1
    754    758     1
    755    762     1
    755    763     1
    755    764     1
    757    761     1
    757    759     1
    757    760     1
    758    761     1
    758    759     1
    758    760     1
    759    762     1
    759    763     1
    759    764     1
    760    762     1
    760    763     1
    760    764     1
    765    771     1
    765    772     1
    766    768     1
    766    769     1
    766    770     1
    767    774     1
    767    775     1
    767    776     1
    769    773     1
    769    771     1
    769    772     1
    770    773     1
    770    771     1
    770    772     1
    771    774     1
    771    775     1
    771    776     1
    772    774     1
    772    775     1
    772    776     1
    777    783     1
    777    784     1
    778    780     1
    778    781     1
    778    782     1
    779    786     1
    779    787     1
    779    788     1
    781    785     1
    781    783     1
    781    784     1
    782    785     1
    782    783     1
    782    784     1
    783    786     1
    783    787     1
    783    788     1
    784    786     1
    784    787     1
    784    788     1
    789    795     1
    789    796     1
    790    792     1
    790    793     1
    790    794     1
    791    798     1
    791    799     1
    791    800     1
    793    797     1
    793    795     1
    793    796     1
    794    797     1
    794    795     1
    794    796     1
    795    798     1
    795    799     1
    795    800     1
    796    798     1
    796    799     1
    796    800     1
    801    807     1
    801    808     1
    802    804     1
    802    805     1
    802    806     1
    803    810     1
    803    811     1
    803    812     1
    805    809     1
    805    807     1
    805    808     1
    806    809     1
    806    807     1
    806    808     1
    807    810     1
    807    811     1
    807    812     1
    808    810     1
    808    811     1
    808    812     1
    813    819     1
    813    820     1
    814    816     1
    814    817     1
    814    818     1
    815    822     1
    815    823     1
    815    824     1
    817    821     1
    817    819     1
    817    820     1
    818    821     1
    818    819     1
    818    820     1
    819    822     1
    819    823     1
    819    824     1
    820    822     1
    820    823     1
    820    824     1
    825    831     1
    825    832     1
    826    828     1
    826    829     1
    826    830     1
    827    834     1
    827    835     1
    827    836     1
    829    833     1
    829    831     1
    829    832     1
    830    833     1
    830    831     1
    830    832     1
    831    834     1
    831    835     1
    831    836     1
    832    834     1
    832    835     1
    832    836     1
    837    843     1
    837    844     1
    838    840     1
    838    841     1
    838    842     1
    839    846     1
    839    847     1
    839    848     1
    841    845     1
    841    843     1
    841    844     1
    842    845     1
    842    843     1
    842    844     1
    843    846     1
    843    847     1
    843    848     1
    844    846     1
    844    847     1
    844    848     1
    849    855     1
    849    856     1
    850    852     1
    850    853     1
    850    854     1
    851    858     1
    851    859     1
    851    860     1
    853    857     1
    853    855     1
    853    856     1
    854    857     1
    854    855     1
    854    856     1
    855    858     1
    855    859     1
    855    860     1
    856    858     1
    856    859     1
    856    860     1
    861    867     1
    861    868     1
    862    864     1
    862    865     1
    862    866     1
    863    870     1
    863    871     1
    863    872     1
    865    869     1
    865    867     1
    865    868     1
    866    869     1
    866    867     1
    866    868     1
    867    870     1
    867    871     1
    867    872     1
    868    870     1
    868    871     1
    868    872     1
    873    879     1
    873    880     1
    874    876     1
    874    877     1
    874    878     1
    875    882     1
    875    883     1
    875    884     1
    877    881     1
    877    879     1
    877    880     1
    878    881     1
    878    879     1
    878    880     1
    879    882     1
    879    883     1
    879    884     1
    880    882     1
    880    883     1
    880    884     1
    885    891     1
    885    892     1
    886    888     1
    886    889     1
    886    890     1
    887    894     1
    887    895     1
    887    896     1
    889    893     1
    889    891     1
    889    892     1
    890    893     1
    890    891     1
    890    892     1
    891    894     1
    891    895     1
    891    896     1
    892    894     1
    892    895     1
    892    896     1
    897    903     1
    897    904     1
    898    900     1
    898    901     1
    898    902     1
    899    906     1
    899    907     1
    899    908     1
    901    905     1
    901    903     1
    901    904     1
    902    905     1
    902    903     1
    902    904     1
    903    906     1
    903    907     1
    903    908     1
    904    906     1
    904    907     1
    904    908     1
    909    915     1
    909    916     1
    910    912     1
    910    913     1
    910    914     1
    911    918     1
    911    919     1
    911    920     1
    913    917     1
    913    915     1
    913    916     1
    914    917     1
    914    915     1
    914    916     1
    915    918     1
    915    919     1
    915    920     1
    916    918     1
    916    919     1
    916    920     1
    921    927     1
    921    928     1
    922    924     1
    922    925     1
    922    926     1
    923    930     1
    923    931     1
    923    932     1
    925    929     1
    925    927     1
    925    928     1
    926    929     1
    926    927     1
    926    928     1
    927    930     1
    927    931     1
    927    932     1
    928    930     1
    928    931     1
    928    932     1
    933    939     1
    933    940     1
    934    936     1
    934    937     1
    934    938     1
    935    942     1
    935    943     1
    935    944     1
    937    941     1
    937    939     1
    937    940     1
    938    941     1
    938    939     1
    938    940     1
    939    942     1
    939    943     1
    939    944     1
    940    942     1
    940    943     1
    940    944     1
    945    951     1
    945    952     1
    946    948     1
    946    949     1
    946    950     1
    947    954     1
    947    955     1
    947    956     1
    949    953     1
    949    951     1
    949    952     1
    950    953     1
    950    951     1
    950    952     1
    951    954     1
    951    955     1
    951    956     1
    952    954     1
    952    955     1
    952    956     1
    957    963     1
    957    964     1
    958    960     1
    958    961     1
    958    962     1
    959    966     1
    959    967     1
    959    968     1
    961    965     1
    961    963     1
    961    964     1
    962    965     1
    962    963     1
    962    964     1
    963    966     1
    963    967     1
    963    968     1
    964    966     1
    964    967     1
    964    968     1
    969    975     1
    969    976     1
    970    972     1
    970    973     1
    970    974     1
    971    978     1
    971    979     1
    971    980     1
    973    977     1
    973    975     1
    973    976     1
    974    977     1
    974    975     1
    974    976     1
    975    978     1
    975    979     1
    975    980     1
    976    978     1
    976    979     1
    976    980     1
    981    987     1
    981    988     1
    982    984     1
    982    985     1
    982    986     1
    983    990     1
    983    991     1
    983    992     1
    985    989     1
    985    987     1
    985    988     1
    986    989     1
    986    987     1
    986    988     1
    987    990     1
    987    991     1
    987    992     1
    988    990     1
    988    991     1
    988    992     1
    993    999     1
    993   1000     1
    994    996     1
    994    997     1
    994    998     1
    995   1002     1
    995   1003     1
    995   1004     1
    997   1001     1
    997    999     1
    997   1000     1
    998   1001     1
    998    999     1
    998   1000     1
    999   1002     1
    999   1003     1
    999   1004     1
   1000   1002     1
   1000   1003     1
   1000   1004     1
   1005   1011     1
   1005   1012     1
   1006   1008     1
   1006   1009     1
   1006   1010     1
   1007   1014     1
   1007   1015     1
   1007   1016     1
   1009   1013     1
   1009   1011     1
   1009   1012     1
   1010   1013     1
   1010   1011     1
   1010   1012     1
   1011   1014     1
   1011   1015     1
   1011   1016     1
   1012   1014     1
   1012   1015     1
   1012   1016     1
   1017   1023     1
   1017   1024     1
   1018   1020     1
   1018   1021     1
   1018   1022     1
   1019   1026     1
   1019   1027     1
   1019   1028     1
   1021   1025     1
   1021   1023     1
   1021   1024     1
   1022   1025     1
   1022   1023     1
   1022   1024     1
   1023   1026     1
   1023   1027     1
   1023   1028     1
   1024   1026     1
   1024   1027     1
   1024   1028     1
   1029   1035     1
   1029   1036     1
   1030   1032     1
   1030   1033     1
   1030   1034     1
   1031   1038     1
   1031   1039     1
   1031   1040     1
   1033   1037     1
   1033   1035     1
   1033   1036     1
   1034   1037     1
   1034   1035     1
   1034   1036     1
   1035   1038     1
   1035   1039     1
   1035   1040     1
   1036   1038     1
   1036   1039     1
   1036   1040     1
   1041   1047     1
   1041   1048     1
   1042   1044     1
   1042   1045     1
   1042   1046     1
   1043   1050     1
   1043   1051     1
   1043   1052     1
   1045   1049     1
   1045   1047     1
   1045   1048     1
   1046   1049     1
   1046   1047     1
   1046   1048     1
   1047   1050     1
   1047   1051     1
   1047   1052     1
   1048   1050     1
   1048   1051     1
   1048   1052     1
   1053   1059     1
   1053   1060     1
   1054   1056     1
   1054   1057     1
   1054   1058     1
   1055   1062     1
   1055   1063     1
   1055   1064     1
   1057   1061     1
   1057   1059     1
   1057   1060     1
   1058   1061     1
   1058   1059     1
   1058   1060     1
   1059   1062     1
   1059   1063     1
   1059   1064     1
   1060   1062     1
   1060   1063     1
   1060   1064     1
   1065   1071     1
   1065   1072     1
   1066   1068     1
   1066   1069     1
   1066   1070     1
   1067   1074     1
   1067   1075     1
   1067   1076     1
   1069   1073     1
   1069   1071     1
   1069   1072     1
   1070   1073     1
   1070   1071     1
   1070   1072     1
   1071   1074     1
   1071   1075     1
   1071   1076     1
   1072   1074     1
   1072   1075     1
   1072   1076     1
   1077   1083     1
   1077   1084     1
   1078   1080     1
   1078   1081     1
   1078   1082     1
   1079   1086     1
   1079   1087     1
   1079   1088     1
   1081   1085     1
   1081   1083     1
   1081   1084     1
   1082   1085     1
   1082   1083     1
   1082   1084     1
   1083   1086     1
   1083   1087     1
   1083   1088     1
   1084   1086     1
   1084   1087     1
   1084   1088     1
   1089   1095     1
   1089   1096     1
   1090   1092     1
   1090   1093     1
   1090   1094     1
   1091   1098     1
   1091   1099     1
   1091   1100     1
   1093   1097     1
   1093   1095     1
   1093   1096     1
   1094   1097     1
   1094   1095     1
   1094   1096     1
   1095   1098     1
   1095   1099     1
   1095   1100     1
   1096   1098     1
   1096   1099     1
   1096   1100     1
   1101   1107     1
   1101   1108     1
   1102   1104     1
   1102   1105     1
   1102   1106     1
   1103   1110     1
   1103   1111     1
   1103   1112     1
   1105   1109     1
   1105   1107     1
   1105   1108     1
   1106   1109     1
   1106   1107     1
   1106   1108     1
   1107   1110     1
   1107   1111     1
   1107   1112     1
   1108   1110     1
   1108   1111     1
   1108   1112     1
   1113   1119     1
   1113   1120     1
   1114   1116     1
   1114   1117     1
   1114   1118     1
   1115   1122     1
   1115   1123     1
   1115   1124     1
   1117   1121     1
   1117   1119     1
   1117   1120     1
   1118   1121     1
   1118   1119     1
   1118   1120     1
   1119   1122     1
   1119   1123     1
   1119   1124     1
   1120   1122     1
   1120   1123     1
   1120   1124     1

[ angles ]
;    ai     aj     ak funct         c0         c1         c2         c3
      1      4      7     1   111.0400475 552.288000
      1      8      9     1   112.3500484 533.878400
      1      8     12     1   112.3500484 533.878400
      4      1      8     1   111.0400475 552.288000
      4      7     15     1   112.3500484 533.878400
      4      7     18     1   112.3500484 533.878400
      7     15     21     1   111.0400475 552.288000
      7     18     24     1   111.0400475 552.288000
      8      9     30     1   111.0400475 552.288000
      8     12     27     1   111.0400475 552.288000
      9      8     12     1   112.3500484 533.878400
      9     30     34     1   111.0400475 529.694400
     12     27     33     1   111.0400475 529.694400
     15      7     18     1   112.3500484 533.878400
     15     21     35     1   111.0400475 529.694400
     18     24     36     1   111.0400475 529.694400
     21     35     38     1   123.2000528 564.003200
     21     35    114     1   115.1800491 558.982400
     24     36     39     1   123.2000528 564.003200
     24     36    139     1   115.1800491 558.982400
     27     33     37     1   123.2000528 564.003200
     27     33     64     1   115.1800491 558.982400
     30     34     40     1   123.2000528 564.003200
     30     34     89     1   115.1800491 558.982400
     33     64     44     1   120.6900519 530.531200
     34     89     69     1   120.6900519 530.531200
     35    114     94     1   120.6900519 530.531200
     36    139    119     1   120.6900519 530.531200
     37     33     64     1   123.0500530 620.905600
     38     35    114     1   123.0500530 620.905600
     39     36    139     1   123.0500530 620.905600
     40     34     89     1   123.0500530 620.905600
     41     44     64     1   111.6100477 551.451200
     41     47     48     1   112.3500484 533.878400
     41     47     51     1   112.3500484 533.878400
     44     41     47     1   111.0400475 552.288000
     47     48     57     1   111.0400475 552.288000
     47     51     54     1   111.0400475 552.288000
     48     47     51     1   112.3500484 533.878400
     48     57     61     1   111.0400475 529.694400
     51     54     60     1   111.0400475 529.694400
     54     60     62     1   123.2000528 564.003200
     54     60    164     1   115.1800491 558.982400
     57     61     63     1   123.2000528 564.003200
     57     61    189     1   115.1800491 558.982400
     60    164    144     1   120.6900519 530.531200
     61    189    169     1   120.6900519 530.531200
     62     60    164     1   123.0500530 620.905600
     63     61    189     1   123.0500530 620.905600
     66     69     89     1   111.6100477 551.451200
     66     72     73     1   112.3500484 533.878400
     66     72     76     1   112.3500484 533.878400
     69     66     72     1   111.0400475 552.288000
     72     73     82     1   111.0400475 552.288000
     72     76     79     1   111.0400475 552.288000
     73     72     76     1   112.3500484 533.878400
     73     82     86     1   111.0400475 529.694400
     76     79     85     1   111.0400475 529.694400
     79     85     87     1   123.2000528 564.003200
     79     85    214     1   115.1800491 558.982400
     82     86     88     1   123.2000528 564.003200
     82     86    239     1   115.1800491 558.982400
     85    214    194     1   120.6900519 530.531200
     86    239    219     1   120.6900519 530.531200
     87     85    214     1   123.0500530 620.905600
     88     86    239     1   123.0500530 620.905600
     91     94    114     1   111.6100477 551.451200
     91     97     98     1   112.3500484 533.878400
     91     97    101     1   112.3500484 533.878400
     94     91     97     1   111.0400475 552.288000
     97     98    107     1   111.0400475 552.288000
     97    101    104     1   111.0400475 552.288000
     98     97    101     1   112.3500484 533.878400
     98    107    111     1   111.0400475 529.694400
    101    104    110     1   111.0400475 529.694400
    104    110    112     1   123.2000528 564.003200
    104    110    264     1   115.1800491 558.982400
    107    111    113     1   123.2000528 564.003200
    107    111    289     1   115.1800491 558.982400
    110    264    244     1   120.6900519 530.531200
    111    289    269     1   120.6900519 530.531200
    112    110    264     1   123.0500530 620.905600
    113    111    289     1   123.0500530 620.905600
    116    119    139     1   111.6100477 551.451200
    116    122    123     1   112.3500484 533.878400
    116    122    126     1   112.3500484 533.878400
    119    116    122     1   111.0400475 552.288000
    122    123    132     1   111.0400475 552.288000
    122    126    129     1   111.0400475 552.288000
    123    122    126     1   112.3500484 533.878400
    123    132    136     1   111.0400475 529.694400
    126    129    135     1   111.0400475 529.694400
    129    135    137     1   123.2000528 564.003200
    129    135    314     1   115.1800491 558.982400
    132    136    138     1   123.2000528 564.003200
    132    136    339     1   115.1800491 558.982400
    135    314    294     1   120.6900519 530.531200
    136    339    319     1   120.6900519 530.531200
    137    135    314     1   123.0500530 620.905600
    138    136    339     1   123.0500530 620.905600
    141    144    164     1   111.6100477 551.451200
    141    147    148     1   112.3500484 533.878400
    141    147    151     1   112.3500484 533.878400
    144    141    147     1   111.0400475 552.288000
    147    148    157     1   111.0400475 552.288000
    147    151    154     1   111.0400475 552.288000
    148    147    151     1   112.3500484 533.878400
    148    157    161     1   111.0400475 529.694400
    151    154    160     1   111.0400475 529.694400
    154    160    162     1   123.2000528 564.003200
    154    160    364     1   115.1800491 558.982400
    157    161    163     1   123.2000528 564.003200
    157    161    389     1   115.1800491 558.982400
    160    364    344     1   120.6900519 530.531200
    161    389    369     1   120.6900519 530.531200
    162    160    364     1   123.0500530 620.905600
    163    161    389     1   123.0500530 620.905600
    166    169    189     1   111.6100477 551.451200
    166    172    173     1   112.3500484 533.878400
    166    172    176     1   112.3500484 533.878400
    169    166    172     1   111.0400475 552.288000
    172    173    182     1   111.0400475 552.288000
    172    176    179     1   111.0400475 552.288000
    173    172    176     1   112.3500484 533.878400
    173    182    186     1   111.0400475 529.694400
    176    179    185     1   111.0400475 529.694400
    179    185    187     1   123.2000528 564.003200
    179    185    414     1   115.1800491 558.982400
    182    186    188     1   123.2000528 564.003200
    182    186    439     1   115.1800491 558.982400
    185    414    394     1   120.6900519 530.531200
    186    439    419     1   120.6900519 530.531200
    187    185    414     1   123.0500530 620.905600
    188    186    439     1   123.0500530 620.905600
    191    194    214     1   111.6100477 551.451200
    191    197    198     1   112.3500484 533.878400
    191    197    201     1   112.3500484 533.878400
    194    191    197     1   111.0400475 552.288000
    197    198    207     1   111.0400475 552.288000
    197    201    204     1   111.0400475 552.288000
    198    197    201     1   112.3500484 533.878400
    198    207    211     1   111.0400475 529.694400
    201    204    210     1   111.0400475 529.694400
    204    210    212     1   123.2000528 564.003200
    204    210    464     1   115.1800491 558.982400
    207    211    213     1   123.2000528 564.003200
    207    211    489     1   115.1800491 558.982400
    210    464    444     1   120.6900519 530.531200
    211    489    469     1   120.6900519 530.531200
    212    210    464     1   123.0500530 620.905600
    213    211    489     1   123.0500530 620.905600
    216    219    239     1   111.6100477 551.451200
    216    222    223     1   112.3500484 533.878400
    216    222    226     1   112.3500484 533.878400
    219    216    222     1   111.0400475 552.288000
    222    223    232     1   111.0400475 552.288000
    222    226    229     1   111.0400475 552.288000
    223    222    226     1   112.3500484 533.878400
    223    232    236     1   111.0400475 529.694400
    226    229    235     1   111.0400475 529.694400
    229    235    237     1   123.2000528 564.003200
    229    235    514     1   115.1800491 558.982400
    232    236    238     1   123.2000528 564.003200
    232    236    539     1   115.1800491 558.982400
    235    514    494     1   120.6900519 530.531200
    236    539    519     1   120.6900519 530.531200
    237    235    514     1   123.0500530 620.905600
    238    236    539     1   123.0500530 620.905600
    241    244    264     1   111.6100477 551.451200
    241    247    248     1   112.3500484 533.878400
    241    247    251     1   112.3500484 533.878400
    244    241    247     1   111.0400475 552.288000
    247    248    257     1   111.0400475 552.288000
    247    251    254     1   111.0400475 552.288000
    248    247    251     1   112.3500484 533.878400
    248    257    261     1   111.0400475 529.694400
    251    254    260     1   111.0400475 529.694400
    254    260    262     1   123.2000528 564.003200
    254    260    564     1   115.1800491 558.982400
    257    261    263     1   123.2000528 564.003200
    257    261    589     1   115.1800491 558.982400
    260    564    544     1   120.6900519 530.531200
    261    589    569     1   120.6900519 530.531200
    262    260    564     1   123.0500530 620.905600
    263    261    589     1   123.0500530 620.905600
    266    269    289     1   111.6100477 551.451200
    266    272    273     1   112.3500484 533.878400
    266    272    276     1   112.3500484 533.878400
    269    266    272     1   111.0400475 552.288000
    272    273    282     1   111.0400475 552.288000
    272    276    279     1   111.0400475 552.288000
    273    272    276     1   112.3500484 533.878400
    273    282    286     1   111.0400475 529.694400
    276    279    285     1   111.0400475 529.694400
    279    285    287     1   123.2000528 564.003200
    279    285    614     1   115.1800491 558.982400
    282    286    288     1   123.2000528 564.003200
    282    286    639     1   115.1800491 558.982400
    285    614    594     1   120.6900519 530.531200
    286    639    619     1   120.6900519 530.531200
    287    285    614     1   123.0500530 620.905600
    288    286    639     1   123.0500530 620.905600
    291    294    314     1   111.6100477 551.451200
    291    297    298     1   112.3500484 533.878400
    291    297    301     1   112.3500484 533.878400
    294    291    297     1   111.0400475 552.288000
    297    298    307     1   111.0400475 552.288000
    297    301    304     1   111.0400475 552.288000
    298    297    301     1   112.3500484 533.878400
    298    307    311     1   111.0400475 529.694400
    301    304    310     1   111.0400475 529.694400
    304    310    312     1   123.2000528 564.003200
    304    310    664     1   115.1800491 558.982400
    307    311    313     1   123.2000528 564.003200
    307    311    689     1   115.1800491 558.982400
    310    664    644     1   120.6900519 530.531200
    311    689    669     1   120.6900519 530.531200
    312    310    664     1   123.0500530 620.905600
    313    311    689     1   123.0500530 620.905600
    316    319    339     1   111.6100477 551.451200
    316    322    323     1   112.3500484 533.878400
    316    322    326     1   112.3500484 533.878400
    319    316    322     1   111.0400475 552.288000
    322    323    332     1   111.0400475 552.288000
    322    326    329     1   111.0400475 552.288000
    323    322    326     1   112.3500484 533.878400
    323    332    336     1   111.0400475 529.694400
    326    329    335     1   111.0400475 529.694400
    329    335    337     1   123.2000528 564.003200
    329    335    714     1   115.1800491 558.982400
    332    336    338     1   123.2000528 564.003200
    332    336    739     1   115.1800491 558.982400
    335    714    694     1   120.6900519 530.531200
    336    739    719     1   120.6900519 530.531200
    337    335    714     1   123.0500530 620.905600
    338    336    739     1   123.0500530 620.905600
    341    344    364     1   111.6100477 551.451200
    341    347    348     1   112.3500484 533.878400
    341    347    351     1   112.3500484 533.878400
    344    341    347     1   111.0400475 552.288000
    347    348    357     1   111.0400475 552.288000
    347    351    354     1   111.0400475 552.288000
    348    347    351     1   112.3500484 533.878400
    348    357    361     1   111.0400475 529.694400
    351    354    360     1   111.0400475 529.694400
    354    360    741     1   115.1800491 558.982400
    354    360    362     1   123.2000528 564.003200
    357    361    363     1   123.2000528 564.003200
    357    361    753     1   115.1800491 558.982400
    360    741    743     1   120.6900519 530.531200
    361    753    755     1   120.6900519 530.531200
    362    360    741     1   123.0500530 620.905600
    363    361    753     1   123.0500530 620.905600
    366    369    389     1   111.6100477 551.451200
    366    372    373     1   112.3500484 533.878400
    366    372    376     1   112.3500484 533.878400
    369    366    372     1   111.0400475 552.288000
    372    373    382     1   111.0400475 552.288000
    372    376    379     1   111.0400475 552.288000
    373    372    376     1   112.3500484 533.878400
    373    382    386     1   111.0400475 529.694400
    376    379    385     1   111.0400475 529.694400
    379    385    765     1   115.1800491 558.982400
    379    385    387     1   123.2000528 564.003200
    382    386    388     1   123.2000528 564.003200
    382    386    777     1   115.1800491 558.982400
    385    765    767     1   120.6900519 530.531200
    386    777    779     1   120.6900519 530.531200
    387    385    765     1   123.0500530 620.905600
    388    386    777     1   123.0500530 620.905600
    391    394    414     1   111.6100477 551.451200
    391    397    398     1   112.3500484 533.878400
    391    397    401     1   112.3500484 533.878400
    394    391    397     1   111.0400475 552.288000
    397    398    407     1   111.0400475 552.288000
    397    401    404     1   111.0400475 552.288000
    398    397    401     1   112.3500484 533.878400
    398    407    411     1   111.0400475 529.694400
    401    404    410     1   111.0400475 529.694400
    404    410    789     1   115.1800491 558.982400
    404    410    412     1   123.2000528 564.003200
    407    411    413     1   123.2000528 564.003200
    407    411    801     1   115.1800491 558.982400
    410    789    791     1   120.6900519 530.531200
    411    801    803     1   120.6900519 530.531200
    412    410    789     1   123.0500530 620.905600
    413    411    801     1   123.0500530 620.905600
    416    419    439     1   111.6100477 551.451200
    416    422    423     1   112.3500484 533.878400
    416    422    426     1   112.3500484 533.878400
    419    416    422     1   111.0400475 552.288000
    422    423    432     1   111.0400475 552.288000
    422    426    429     1   111.0400475 552.288000
    423    422    426     1   112.3500484 533.878400
    423    432    436     1   111.0400475 529.694400
    426    429    435     1   111.0400475 529.694400
    429    435    813     1   115.1800491 558.982400
    429    435    437     1   123.2000528 564.003200
    432    436    438     1   123.2000528 564.003200
    432    436    825     1   115.1800491 558.982400
    435    813    815     1   120.6900519 530.531200
    436    825    827     1   120.6900519 530.531200
    437    435    813     1   123.0500530 620.905600
    438    436    825     1   123.0500530 620.905600
    441    444    464     1   111.6100477 551.451200
    441    447    448     1   112.3500484 533.878400
    441    447    451     1   112.3500484 533.878400
    444    441    447     1   111.0400475 552.288000
    447    448    457     1   111.0400475 552.288000
    447    451    454     1   111.0400475 552.288000
    448    447    451     1   112.3500484 533.878400
    448    457    461     1   111.0400475 529.694400
    451    454    460     1   111.0400475 529.694400
    454    460    837     1   115.1800491 558.982400
    454    460    462     1   123.2000528 564.003200
    457    461    463     1   123.2000528 564.003200
    457    461    849     1   115.1800491 558.982400
    460    837    839     1   120.6900519 530.531200
    461    849    851     1   120.6900519 530.531200
    462    460    837     1   123.0500530 620.905600
    463    461    849     1   123.0500530 620.905600
    466    469    489     1   111.6100477 551.451200
    466    472    473     1   112.3500484 533.878400
    466    472    476     1   112.3500484 533.878400
    469    466    472     1   111.0400475 552.288000
    472    473    482     1   111.0400475 552.288000
    472    476    479     1   111.0400475 552.288000
    473    472    476     1   112.3500484 533.878400
    473    482    486     1   111.0400475 529.694400
    476    479    485     1   111.0400475 529.694400
    479    485    861     1   115.1800491 558.982400
    479    485    487     1   123.2000528 564.003200
    482    486    488     1   123.2000528 564.003200
    482    486    873     1   115.1800491 558.982400
    485    861    863     1   120.6900519 530.531200
    486    873    875     1   120.6900519 530.531200
    487    485    861     1   123.0500530 620.905600
    488    486    873     1   123.0500530 620.905600
    491    494    514     1   111.6100477 551.451200
    491    497    498     1   112.3500484 533.878400
    491    497    501     1   112.3500484 533.878400
    494    491    497     1   111.0400475 552.288000
    497    498    507     1   111.0400475 552.288000
    497    501    504     1   111.0400475 552.288000
    498    497    501     1   112.3500484 533.878400
    498    507    511     1   111.0400475 529.694400
    501    504    510     1   111.0400475 529.694400
    504    510    885     1   115.1800491 558.982400
    504    510    512     1   123.2000528 564.003200
    507    511    513     1   123.2000528 564.003200
    507    511    897     1   115.1800491 558.982400
    510    885    887     1   120.6900519 530.531200
    511    897    899     1   120.6900519 530.531200
    512    510    885     1   123.0500530 620.905600
    513    511    897     1   123.0500530 620.905600
    516    519    539     1   111.6100477 551.451200
    516    522    523     1   112.3500484 533.878400
    516    522    526     1   112.3500484 533.878400
    519    516    522     1   111.0400475 552.288000
    522    523    532     1   111.0400475 552.288000
    522    526    529     1   111.0400475 552.288000
    523    522    526     1   112.3500484 533.878400
    523    532    536     1   111.0400475 529.694400
    526    529    535     1   111.0400475 529.694400
    529    535    909     1   115.1800491 558.982400
    529    535    537     1   123.2000528 564.003200
    532    536    538     1   123.2000528 564.003200
    532    536    921     1   115.1800491 558.982400
    535    909    911     1   120.6900519 530.531200
    536    921    923     1   120.6900519 530.531200
    537    535    909     1   123.0500530 620.905600
    538    536    921     1   123.0500530 620.905600
    541    544    564     1   111.6100477 551.451200
    541    547    548     1   112.3500484 533.878400
    541    547    551     1   112.3500484 533.878400
    544    541    547     1   111.0400475 552.288000
    547    548    557     1   111.0400475 552.288000
    547    551    554     1   111.0400475 552.288000
    548    547    551     1   112.3500484 533.878400
    548    557    561     1   111.0400475 529.694400
    551    554    560     1   111.0400475 529.694400
    554    560    933     1   115.1800491 558.982400
    554    560    562     1   123.2000528 564.003200
    557    561    563     1   123.2000528 564.003200
    557    561    945     1   115.1800491 558.982400
    560    933    935     1   120.6900519 530.531200
    561    945    947     1   120.6900519 530.531200
    562    560    933     1   123.0500530 620.905600
    563    561    945     1   123.0500530 620.905600
    566    569    589     1   111.6100477 551.451200
    566    572    573     1   112.3500484 533.878400
    566    572    576     1   112.3500484 533.878400
    569    566    572     1   111.0400475 552.288000
    572    573    582     1   111.0400475 552.288000
    572    576    579     1   111.0400475 552.288000
    573    572    576     1   112.3500484 533.878400
    573    582    586     1   111.0400475 529.694400
    576    579    585     1   111.0400475 529.694400
    579    585    957     1   115.1800491 558.982400
    579    585    587     1   123.2000528 564.003200
    582    586    588     1   123.2000528 564.003200
    582    586    969     1   115.1800491 558.982400
    585    957    959     1   120.6900519 530.531200
    586    969    971     1   120.6900519 530.531200
    587    585    957     1   123.0500530 620.905600
    588    586    969     1   123.0500530 620.905600
    591    594    614     1   111.6100477 551.451200
    591    597    598     1   112.3500484 533.878400
    591    597    601     1   112.3500484 533.878400
    594    591    597     1   111.0400475 552.288000
    597    598    607     1   111.0400475 552.288000
    597    601    604     1   111.0400475 552.288000
    598    597    601     1   112.3500484 533.878400
    598    607    611     1   111.0400475 529.694400
    601    604    610     1   111.0400475 529.694400
    604    610    981     1   115.1800491 558.982400
    604    610    612     1   123.2000528 564.003200
    607    611    613     1   123.2000528 564.003200
    607    611    993     1   115.1800491 558.982400
    610    981    983     1   120.6900519 530.531200
    611    993    995     1   120.6900519 530.531200
    612    610    981     1   123.0500530 620.905600
    613    611    993     1   123.0500530 620.905600
    616    619    639     1   111.6100477 551.451200
    616    622    623     1   112.3500484 533.878400
    616    622    626     1   112.3500484 533.878400
    619    616    622     1   111.0400475 552.288000
    622    623    632     1   111.0400475 552.288000
    622    626    629     1   111.0400475 552.288000
    623    622    626     1   112.3500484 533.878400
    623    632    636     1   111.0400475 529.694400
    626    629    635     1   111.0400475 529.694400
    629    635   1005     1   115.1800491 558.982400
    629    635    637     1   123.2000528 564.003200
    632    636    638     1   123.2000528 564.003200
    632    636   1017     1   115.1800491 558.982400
    635   1005   1007     1   120.6900519 530.531200
    636   1017   1019     1   120.6900519 530.531200
    637    635   1005     1   123.0500530 620.905600
    638    636   1017     1   123.0500530 620.905600
    641    644    664     1   111.6100477 551.451200
    641    647    648     1   112.3500484 533.878400
    641    647    651     1   112.3500484 533.878400
    644    641    647     1   111.0400475 552.288000
    647    648    657     1   111.0400475 552.288000
    647    651    654     1   111.0400475 552.288000
    648    647    651     1   112.3500484 533.878400
    648    657    661     1   111.0400475 529.694400
    651    654    660     1   111.0400475 529.694400
    654    660   1029     1   115.1800491 558.982400
    654    660    662     1   123.2000528 564.003200
    657    661    663     1   123.2000528 564.003200
    657    661   1041     1   115.1800491 558.982400
    660   1029   1031     1   120.6900519 530.531200
    661   1041   1043     1   120.6900519 530.531200
    662    660   1029     1   123.0500530 620.905600
    663    661   1041     1   123.0500530 620.905600
    666    669    689     1   111.6100477 551.451200
    666    672    673     1   112.3500484 533.878400
    666    672    676     1   112.3500484 533.878400
    669    666    672     1   111.0400475 552.288000
    672    673    682     1   111.0400475 552.288000
    672    676    679     1   111.0400475 552.288000
    673    672    676     1   112.3500484 533.878400
    673    682    686     1   111.0400475 529.694400
    676    679    685     1   111.0400475 529.694400
    679    685   1053     1   115.1800491 558.982400
    679    685    687     1   123.2000528 564.003200
    682    686    688     1   123.2000528 564.003200
    682    686   1065     1   115.1800491 558.982400
    685   1053   1055     1   120.6900519 530.531200
    686   1065   1067     1   120.6900519 530.531200
    687    685   1053     1   123.0500530 620.905600
    688    686   1065     1   123.0500530 620.905600
    691    694    714     1   111.6100477 551.451200
    691    697    698     1   112.3500484 533.878400
    691    697    701     1   112.3500484 533.878400
    694    691    697     1   111.0400475 552.288000
    697    698    707     1   111.0400475 552.288000
    697    701    704     1   111.0400475 552.288000
    698    697    701     1   112.3500484 533.878400
    698    707    711     1   111.0400475 529.694400
    701    704    710     1   111.0400475 529.694400
    704    710   1077     1   115.1800491 558.982400
    704    710    712     1   123.2000528 564.003200
    707    711    713     1   123.2000528 564.003200
    707    711   1089     1   115.1800491 558.982400
    710   1077   1079     1   120.6900519 530.531200
    711   1089   1091     1   120.6900519 530.531200
    712    710   1077     1   123.0500530 620.905600
    713    711   1089     1   123.0500530 620.905600
    716    719    739     1   111.6100477 551.451200
    716    722    723     1   112.3500484 533.878400
    716    722    726     1   112.3500484 533.878400
    719    716    722     1   111.0400475 552.288000
    722    723    732     1   111.0400475 552.288000
    722    726    729     1   111.0400475 552.288000
    723    722    726     1   112.3500484 533.878400
    723    732    736     1   111.0400475 529.694400
    726    729    735     1   111.0400475 529.694400
    729    735   1101     1   115.1800491 558.982400
    729    735    737     1   123.2000528 564.003200
    732    736   1113     1   115.1800491 558.982400
    732    736    738     1   123.2000528 564.003200
    735   1101   1103     1   120.6900519 530.531200
    736   1113   1115     1   120.6900519 530.531200
    737    735   1101     1   123.0500530 620.905600
    738    736   1113     1   123.0500530 620.905600
    741    743    744     1   111.6100477 551.451200
    743    744    749     1   114.2100488 537.225600
    753    755    756     1   111.6100477 551.451200
    755    756    761     1   114.2100488 537.225600
    765    767    768     1   111.6100477 551.451200
    767    768    773     1   114.2100488 537.225600
    777    779    780     1   111.6100477 551.451200
    779    780    785     1   114.2100488 537.225600
    789    791    792     1   111.6100477 551.451200
    791    792    797     1   114.2100488 537.225600
    801    803    804     1   111.6100477 551.451200
    803    804    809     1   114.2100488 537.225600
    813    815    816     1   111.6100477 551.451200
    815    816    821     1   114.2100488 537.225600
    825    827    828     1   111.6100477 551.451200
    827    828    833     1   114.2100488 537.225600
    837    839    840     1   111.6100477 551.451200
    839    840    845     1   114.2100488 537.225600
    849    851    852     1   111.6100477 551.451200
    851    852    857     1   114.2100488 537.225600
    861    863    864     1   111.6100477 551.451200
    863    864    869     1   114.2100488 537.225600
    873    875    876     1   111.6100477 551.451200
    875    876    881     1   114.2100488 537.225600
    885    887    888     1   111.6100477 551.451200
    887    888    893     1   114.2100488 537.225600
    897    899    900     1   111.6100477 551.451200
    899    900    905     1   114.2100488 537.225600
    909    911    912     1   111.6100477 551.451200
    911    912    917     1   114.2100488 537.225600
    921    923    924     1   111.6100477 551.451200
    923    924    929     1   114.2100488 537.225600
    933    935    936     1   111.6100477 551.451200
    935    936    941     1   114.2100488 537.225600
    945    947    948     1   111.6100477 551.451200
    947    948    953     1   114.2100488 537.225600
    957    959    960     1   111.6100477 551.451200
    959    960    965     1   114.2100488 537.225600
    969    971    972     1   111.6100477 551.451200
    971    972    977     1   114.2100488 537.225600
    981    983    984     1   111.6100477 551.451200
    983    984    989     1   114.2100488 537.225600
    993    995    996     1   111.6100477 551.451200
    995    996   1001     1   114.2100488 537.225600
   1005   1007   1008     1   111.6100477 551.451200
   1007   1008   1013     1   114.2100488 537.225600
   1017   1019   1020     1   111.6100477 551.451200
   1019   1020   1025     1   114.2100488 537.225600
   1029   1031   1032     1   111.6100477 551.451200
   1031   1032   1037     1   114.2100488 537.225600
   1041   1043   1044     1   111.6100477 551.451200
   1043   1044   1049     1   114.2100488 537.225600
   1053   1055   1056     1   111.6100477 551.451200
   1055   1056   1061     1   114.2100488 537.225600
   1065   1067   1068     1   111.6100477 551.451200
   1067   1068   1073     1   114.2100488 537.225600
   1077   1079   1080     1   111.6100477 551.451200
   1079   1080   1085     1   114.2100488 537.225600
   1089   1091   1092     1   111.6100477 551.451200
   1091   1092   1097     1   114.2100488 537.225600
   1101   1103   1104     1   111.6100477 551.451200
   1103   1104   1109     1   114.2100488 537.225600
   1113   1115   1116     1   111.6100477 551.451200
   1115   1116   1121     1   114.2100488 537.225600
      1      4      5     1   109.5600471 388.275200
      1      4      6     1   109.5600471 388.275200
      2      1      4     1   109.5600471 388.275200
      2      1      8     1   109.8800469 414.216000
      2      1      3     1   108.4600466 328.025600
      3      1      4     1   109.5600471 388.275200
      3      1      8     1   109.8800469 414.216000
      5      4      7     1   109.8800469 414.216000
      5      4      6     1   108.4600466 328.025600
      6      4      7     1   109.8800469 414.216000
      7     15     16     1   109.8800469 414.216000
      7     15     17     1   109.8800469 414.216000
      7     18     19     1   109.8800469 414.216000
      7     18     20     1   109.8800469 414.216000
      8      9     10     1   109.8800469 414.216000
      8      9     11     1   109.8800469 414.216000
      8     12     13     1   109.8800469 414.216000
      8     12     14     1   109.8800469 414.216000
      9     30     31     1   109.8000471 387.438400
      9     30     32     1   109.8000471 387.438400
     10      9     30     1   109.5600471 388.275200
     10      9     11     1   108.4600466 328.025600
     11      9     30     1   109.5600471 388.275200
     12     27     28     1   109.8000471 387.438400
     12     27     29     1   109.8000471 387.438400
     13     12     27     1   109.5600471 388.275200
     13     12     14     1   108.4600466 328.025600
     14     12     27     1   109.5600471 388.275200
     15     21     22     1   109.8000471 387.438400
     15     21     23     1   109.8000471 387.438400
     16     15     21     1   109.5600471 388.275200
     16     15     17     1   108.4600466 328.025600
     17     15     21     1   109.5600471 388.275200
     18     24     25     1   109.8000471 387.438400
     18     24     26     1   109.8000471 387.438400
     19     18     24     1   109.5600471 388.275200
     19     18     20     1   108.4600466 328.025600
     20     18     24     1   109.5600471 388.275200
     22     21     35     1   108.7700466 392.459200
     22     21     23     1   107.5800459 329.699200
     23     21     35     1   108.7700466 392.459200
     25     24     36     1   108.7700466 392.459200
     25     24     26     1   107.5800459 329.699200
     26     24     36     1   108.7700466 392.459200
     28     27     33     1   108.7700466 392.459200
     28     27     29     1   107.5800459 329.699200
     29     27     33     1   108.7700466 392.459200
     31     30     34     1   108.7700466 392.459200
     31     30     32     1   107.5800459 329.699200
     32     30     34     1   108.7700466 392.459200
     33     64     65     1   117.5500507 404.174400
     34     89     90     1   117.5500507 404.174400
     35    114    115     1   117.5500507 404.174400
     36    139    140     1   117.5500507 404.174400
     41     44     45     1   109.5600471 388.275200
     41     44     46     1   109.5600471 388.275200
     42     41     44     1   109.5600471 388.275200
     42     41     47     1   109.8800469 414.216000
     42     41     43     1   108.4600466 328.025600
     43     41     44     1   109.5600471 388.275200
     43     41     47     1   109.8800469 414.216000
     44     64     65     1   117.6800502 383.254400
     45     44     64     1   108.8800464 416.726400
     45     44     46     1   108.4600466 328.025600
     46     44     64     1   108.8800464 416.726400
     47     48     49     1   109.8800469 414.216000
     47     48     50     1   109.8800469 414.216000
     47     51     52     1   109.8800469 414.216000
     47     51     53     1   109.8800469 414.216000
     48     57     58     1   109.8000471 387.438400
     48     57     59     1   109.8000471 387.438400
     49     48     57     1   109.5600471 388.275200
     49     48     50     1   108.4600466 328.025600
     50     48     57     1   109.5600471 388.275200
     51     54     55     1   109.8000471 387.438400
     51     54     56     1   109.8000471 387.438400
     52     51     54     1   109.5600471 388.275200
     52     51     53     1   108.4600466 328.025600
     53     51     54     1   109.5600471 388.275200
     55     54     60     1   108.7700466 392.459200
     55     54     56     1   107.5800459 329.699200
     56     54     60     1   108.7700466 392.459200
     58     57     61     1   108.7700466 392.459200
     58     57     59     1   107.5800459 329.699200
     59     57     61     1   108.7700466 392.459200
     60    164    165     1   117.5500507 404.174400
     61    189    190     1   117.5500507 404.174400
     66     69     70     1   109.5600471 388.275200
     66     69     71     1   109.5600471 388.275200
     67     66     69     1   109.5600471 388.275200
     67     66     72     1   109.8800469 414.216000
     67     66     68     1   108.4600466 328.025600
     68     66     69     1   109.5600471 388.275200
     68     66     72     1   109.8800469 414.216000
     69     89     90     1   117.6800502 383.254400
     70     69     89     1   108.8800464 416.726400
     70     69     71     1   108.4600466 328.025600
     71     69     89     1   108.8800464 416.726400
     72     73     74     1   109.8800469 414.216000
     72     73     75     1   109.8800469 414.216000
     72     76     77     1   109.8800469 414.216000
     72     76     78     1   109.8800469 414.216000
     73     82     83     1   109.8000471 387.438400
     73     82     84     1   109.8000471 387.438400
     74     73     82     1   109.5600471 388.275200
     74     73     75     1   108.4600466 328.025600
     75     73     82     1   109.5600471 388.275200
     76     79     80     1   109.8000471 387.438400
     76     79     81     1   109.8000471 387.438400
     77     76     79     1   109.5600471 388.275200
     77     76     78     1   108.4600466 328.025600
     78     76     79     1   109.5600471 388.275200
     80     79     85     1   108.7700466 392.459200
     80     79     81     1   107.5800459 329.699200
     81     79     85     1   108.7700466 392.459200
     83     82     86     1   108.7700466 392.459200
     83     82     84     1   107.5800459 329.699200
     84     82     86     1   108.7700466 392.459200
     85    214    215     1   117.5500507 404.174400
     86    239    240     1   117.5500507 404.174400
     91     94     95     1   109.5600471 388.275200
     91     94     96     1   109.5600471 388.275200
     92     91     94     1   109.5600471 388.275200
     92     91     97     1   109.8800469 414.216000
     92     91     93     1   108.4600466 328.025600
     93     91     94     1   109.5600471 388.275200
     93     91     97     1   109.8800469 414.216000
     94    114    115     1   117.6800502 383.254400
     95     94    114     1   108.8800464 416.726400
     95     94     96     1   108.4600466 328.025600
     96     94    114     1   108.8800464 416.726400
     97     98     99     1   109.8800469 414.216000
     97     98    100     1   109.8800469 414.216000
     97    101    102     1   109.8800469 414.216000
     97    101    103     1   109.8800469 414.216000
     98    107    108     1   109.8000471 387.438400
     98    107    109     1   109.8000471 387.438400
     99     98    107     1   109.5600471 388.275200
     99     98    100     1   108.4600466 328.025600
    100     98    107     1   109.5600471 388.275200
    101    104    105     1   109.8000471 387.438400
    101    104    106     1   109.8000471 387.438400
    102    101    104     1   109.5600471 388.275200
    102    101    103     1   108.4600466 328.025600
    103    101    104     1   109.5600471 388.275200
    105    104    110     1   108.7700466 392.459200
    105    104    106     1   107.5800459 329.699200
    106    104    110     1   108.7700466 392.459200
    108    107    111     1   108.7700466 392.459200
    108    107    109     1   107.5800459 329.699200
    109    107    111     1   108.7700466 392.459200
    110    264    265     1   117.5500507 404.174400
    111    289    290     1   117.5500507 404.174400
    116    119    120     1   109.5600471 388.275200
    116    119    121     1   109.5600471 388.275200
    117    116    119     1   109.5600471 388.275200
    117    116    122     1   109.8800469 414.216000
    117    116    118     1   108.4600466 328.025600
    118    116    119     1   109.5600471 388.275200
    118    116    122     1   109.8800469 414.216000
    119    139    140     1   117.6800502 383.254400
    120    119    139     1   108.8800464 416.726400
    120    119    121     1   108.4600466 328.025600
    121    119    139     1   108.8800464 416.726400
    122    123    124     1   109.8800469 414.216000
    122    123    125     1   109.8800469 414.216000
    122    126    127     1   109.8800469 414.216000
    122    126    128     1   109.8800469 414.216000
    123    132    133     1   109.8000471 387.438400
    123    132    134     1   109.8000471 387.438400
    124    123    132     1   109.5600471 388.275200
    124    123    125     1   108.4600466 328.025600
    125    123    132     1   109.5600471 388.275200
    126    129    130     1   109.8000471 387.438400
    126    129    131     1   109.8000471 387.438400
    127    126    129     1   109.5600471 388.275200
    127    126    128     1   108.4600466 328.025600
    128    126    129     1   109.5600471 388.275200
    130    129    135     1   108.7700466 392.459200
    130    129    131     1   107.5800459 329.699200
    131    129    135     1   108.7700466 392.459200
    133    132    136     1   108.7700466 392.459200
    133    132    134     1   107.5800459 329.699200
    134    132    136     1   108.7700466 392.459200
    135    314    315     1   117.5500507 404.174400
    136    339    340     1   117.5500507 404.174400
    141    144    145     1   109.5600471 388.275200
    141    144    146     1   109.5600471 388.275200
    142    141    144     1   109.5600471 388.275200
    142    141    147     1   109.8800469 414.216000
    142    141    143     1   108.4600466 328.025600
    143    141    144     1   109.5600471 388.275200
    143    141    147     1   109.8800469 414.216000
    144    164    165     1   117.6800502 383.254400
    145    144    164     1   108.8800464 416.726400
    145    144    146     1   108.4600466 328.025600
    146    144    164     1   108.8800464 416.726400
    147    148    149     1   109.8800469 414.216000
    147    148    150     1   109.8800469 414.216000
    147    151    152     1   109.8800469 414.216000
    147    151    153     1   109.8800469 414.216000
    148    157    158     1   109.8000471 387.438400
    148    157    159     1   109.8000471 387.438400
    149    148    157     1   109.5600471 388.275200
    149    148    150     1   108.4600466 328.025600
    150    148    157     1   109.5600471 388.275200
    151    154    155     1   109.8000471 387.438400
    151    154    156     1   109.8000471 387.438400
    152    151    154     1   109.5600471 388.275200
    152    151    153     1   108.4600466 328.025600
    153    151    154     1   109.5600471 388.275200
    155    154    160     1   108.7700466 392.459200
    155    154    156     1   107.5800459 329.699200
    156    154    160     1   108.7700466 392.459200
    158    157    161     1   108.7700466 392.459200
    158    157    159     1   107.5800459 329.699200
    159    157    161     1   108.7700466 392.459200
    160    364    365     1   117.5500507 404.174400
    161    389    390     1   117.5500507 404.174400
    166    169    170     1   109.5600471 388.275200
    166    169    171     1   109.5600471 388.275200
    167    166    169     1   109.5600471 388.275200
    167    166    172     1   109.8800469 414.216000
    167    166    168     1   108.4600466 328.025600
    168    166    169     1   109.5600471 388.275200
    168    166    172     1   109.8800469 414.216000
    169    189    190     1   117.6800502 383.254400
    170    169    189     1   108.8800464 416.726400
    170    169    171     1   108.4600466 328.025600
    171    169    189     1   108.8800464 416.726400
    172    173    174     1   109.8800469 414.216000
    172    173    175     1   109.8800469 414.216000
    172    176    177     1   109.8800469 414.216000
    172    176    178     1   109.8800469 414.216000
    173    182    183     1   109.8000471 387.438400
    173    182    184     1   109.8000471 387.438400
    174    173    182     1   109.5600471 388.275200
    174    173    175     1   108.4600466 328.025600
    175    173    182     1   109.5600471 388.275200
    176    179    180     1   109.8000471 387.438400
    176    179    181     1   109.8000471 387.438400
    177    176    179     1   109.5600471 388.275200
    177    176    178     1   108.4600466 328.025600
    178    176    179     1   109.5600471 388.275200
    180    179    185     1   108.7700466 392.459200
    180    179    181     1   107.5800459 329.699200
    181    179    185     1   108.7700466 392.459200
    183    182    186     1   108.7700466 392.459200
    183    182    184     1   107.5800459 329.699200
    184    182    186     1   108.7700466 392.459200
    185    414    415     1   117.5500507 404.174400
    186    439    440     1   117.5500507 404.174400
    191    194    195     1   109.5600471 388.275200
    191    194    196     1   109.5600471 388.275200
    192    191    194     1   109.5600471 388.275200
    192    191    197     1   109.8800469 414.216000
    192    191    193     1   108.4600466 328.025600
    193    191    194     1   109.5600471 388.275200
    193    191    197     1   109.8800469 414.216000
    194    214    215     1   117.6800502 383.254400
    195    194    214     1   108.8800464 416.726400
    195    194    196     1   108.4600466 328.025600
    196    194    214     1   108.8800464 416.726400
    197    198    199     1   109.8800469 414.216000
    197    198    200     1   109.8800469 414.216000
    197    201    202     1   109.8800469 414.216000
    197    201    203     1   109.8800469 414.216000
    198    207    208     1   109.8000471 387.438400
    198    207    209     1   109.8000471 387.438400
    199    198    207     1   109.5600471 388.275200
    199    198    200     1   108.4600466 328.025600
    200    198    207     1   109.5600471 388.275200
    201    204    205     1   109.8000471 387.438400
    201    204    206     1   109.8000471 387.438400
    202    201    204     1   109.5600471 388.275200
    202    201    203     1   108.4600466 328.025600
    203    201    204     1   109.5600471 388.275200
    205    204    210     1   108.7700466 392.459200
    205    204    206     1   107.5800459 329.699200
    206    204    210     1   108.7700466 392.459200
    208    207    211     1   108.7700466 392.459200
    208    207    209     1   107.5800459 329.699200
    209    207    211     1   108.7700466 392.459200
    210    464    465     1   117.5500507 404.174400
    211    489    490     1   117.5500507 404.174400
    216    219    220     1   109.5600471 388.275200
    216    219    221     1   109.5600471 388.275200
    217    216    219     1   109.5600471 388.275200
    217    216    222     1   109.8800469 414.216000
    217    216    218     1   108.4600466 328.025600
    218    216    219     1   109.5600471 388.275200
    218    216    222     1   109.8800469 414.216000
    219    239    240     1   117.6800502 383.254400
    220    219    239     1   108.8800464 416.726400
    220    219    221     1   108.4600466 328.025600
    221    219    239     1   108.8800464 416.726400
    222    223    224     1   109.8800469 414.216000
    222    223    225     1   109.8800469 414.216000
    222    226    227     1   109.8800469 414.216000
    222    226    228     1   109.8800469 414.216000
    223    232    233     1   109.8000471 387.438400
    223    232    234     1   109.8000471 387.438400
    224    223    232     1   109.5600471 388.275200
    224    223    225     1   108.4600466 328.025600
    225    223    232     1   109.5600471 388.275200
    226    229    230     1   109.8000471 387.438400
    226    229    231     1   109.8000471 387.438400
    227    226    229     1   109.5600471 388.275200
    227    226    228     1   108.4600466 328.025600
    228    226    229     1   109.5600471 388.275200
    230    229    235     1   108.7700466 392.459200
    230    229    231     1   107.5800459 329.699200
    231    229    235     1   108.7700466 392.459200
    233    232    236     1   108.7700466 392.459200
    233    232    234     1   107.5800459 329.699200
    234    232    236     1   108.7700466 392.459200
    235    514    515     1   117.5500507 404.174400
    236    539    540     1   117.5500507 404.174400
    241    244    245     1   109.5600471 388.275200
    241    244    246     1   109.5600471 388.275200
    242    241    244     1   109.5600471 388.275200
    242    241    247     1   109.8800469 414.216000
    242    241    243     1   108.4600466 328.025600
    243    241    244     1   109.5600471 388.275200
    243    241    247     1   109.8800469 414.216000
    244    264    265     1   117.6800502 383.254400
    245    244    264     1   108.8800464 416.726400
    245    244    246     1   108.4600466 328.025600
    246    244    264     1   108.8800464 416.726400
    247    248    249     1   109.8800469 414.216000
    247    248    250     1   109.8800469 414.216000
    247    251    252     1   109.8800469 414.216000
    247    251    253     1   109.8800469 414.216000
    248    257    258     1   109.8000471 387.438400
    248    257    259     1   109.8000471 387.438400
    249    248    257     1   109.5600471 388.275200
    249    248    250     1   108.4600466 328.025600
    250    248    257     1   109.5600471 388.275200
    251    254    255     1   109.8000471 387.438400
    251    254    256     1   109.8000471 387.438400
    252    251    254     1   109.5600471 388.275200
    252    251    253     1   108.4600466 328.025600
    253    251    254     1   109.5600471 388.275200
    255    254    260     1   108.7700466 392.459200
    255    254    256     1   107.5800459 329.699200
    256    254    260     1   108.7700466 392.459200
    258    257    261     1   108.7700466 392.459200
    258    257    259     1   107.5800459 329.699200
    259    257    261     1   108.7700466 392.459200
    260    564    565     1   117.5500507 404.174400
    261    589    590     1   117.5500507 404.174400
    266    269    270     1   109.5600471 388.275200
    266    269    271     1   109.5600471 388.275200
    267    266    269     1   109.5600471 388.275200
    267    266    272     1   109.8800469 414.216000
    267    266    268     1   108.4600466 328.025600
    268    266    269     1   109.5600471 388.275200
    268    266    272     1   109.8800469 414.216000
    269    289    290     1   117.6800502 383.254400
    270    269    289     1   108.8800464 416.726400
    270    269    271     1   108.4600466 328.025600
    271    269    289     1   108.8800464 416.726400
    272    273    274     1   109.8800469 414.216000
    272    273    275     1   109.8800469 414.216000
    272    276    277     1   109.8800469 414.216000
    272    276    278     1   109.8800469 414.216000
    273    282    283     1   109.8000471 387.438400
    273    282    284     1   109.8000471 387.438400
    274    273    282     1   109.5600471 388.275200
    274    273    275     1   108.4600466 328.025600
    275    273    282     1   109.5600471 388.275200
    276    279    280     1   109.8000471 387.438400
    276    279    281     1   109.8000471 387.438400
    277    276    279     1   109.5600471 388.275200
    277    276    278     1   108.4600466 328.025600
    278    276    279     1   109.5600471 388.275200
    280    279    285     1   108.7700466 392.459200
    280    279    281     1   107.5800459 329.699200
    281    279    285     1   108.7700466 392.459200
    283    282    286     1   108.7700466 392.459200
    283    282    284     1   107.5800459 329.699200
    284    282    286     1   108.7700466 392.459200
    285    614    615     1   117.5500507 404.174400
    286    639    640     1   117.5500507 404.174400
    291    294    295     1   109.5600471 388.275200
    291    294    296     1   109.5600471 388.275200
    292    291    294     1   109.5600471 388.275200
    292    291    297     1   109.8800469 414.216000
    292    291    293     1   108.4600466 328.025600
    293    291    294     1   109.5600471 388.275200
    293    291    297     1   109.8800469 414.216000
    294    314    315     1   117.6800502 383.254400
    295    294    314     1   108.8800464 416.726400
    295    294    296     1   108.4600466 328.025600
    296    294    314     1   108.8800464 416.726400
    297    298    299     1   109.8800469 414.216000
    297    298    300     1   109.8800469 414.216000
    297    301    302     1   109.8800469 414.216000
    297    301    303     1   109.8800469 414.216000
    298    307    308     1   109.8000471 387.438400
    298    307    309     1   109.8000471 387.438400
    299    298    307     1   109.5600471 388.275200
    299    298    300     1   108.4600466 328.025600
    300    298    307     1   109.5600471 388.275200
    301    304    305     1   109.8000471 387.438400
    301    304    306     1   109.8000471 387.438400
    302    301    304     1   109.5600471 388.275200
    302    301    303     1   108.4600466 328.025600
    303    301    304     1   109.5600471 388.275200
    305    304    310     1   108.7700466 392.459200
    305    304    306     1   107.5800459 329.699200
    306    304    310     1   108.7700466 392.459200
    308    307    311     1   108.7700466 392.459200
    308    307    309     1   107.5800459 329.699200
    309    307    311     1   108.7700466 392.459200
    310    664    665     1   117.5500507 404.174400
    311    689    690     1   117.5500507 404.174400
    316    319    320     1   109.5600471 388.275200
    316    319    321     1   109.5600471 388.275200
    317    316    319     1   109.5600471 388.275200
    317    316    322     1   109.8800469 414.216000
    317    316    318     1   108.4600466 328.025600
    318    316    319     1   109.5600471 388.275200
    318    316    322     1   109.8800469 414.216000
    319    339    340     1   117.6800502 383.254400
    320    319    339     1   108.8800464 416.726400
    320    319    321     1   108.4600466 328.025600
    321    319    339     1   108.8800464 416.726400
    322    323    324     1   109.8800469 414.216000
    322    323    325     1   109.8800469 414.216000
    322    326    327     1   109.8800469 414.216000
    322    326    328     1   109.8800469 414.216000
    323    332    333     1   109.8000471 387.438400
    323    332    334     1   109.8000471 387.438400
    324    323    332     1   109.5600471 388.275200
    324    323    325     1   108.4600466 328.025600
    325    323    332     1   109.5600471 388.275200
    326    329    330     1   109.8000471 387.438400
    326    329    331     1   109.8000471 387.438400
    327    326    329     1   109.5600471 388.275200
    327    326    328     1   108.4600466 328.025600
    328    326    329     1   109.5600471 388.275200
    330    329    335     1   108.7700466 392.459200
    330    329    331     1   107.5800459 329.699200
    331    329    335     1   108.7700466 392.459200
    333    332    336     1   108.7700466 392.459200
    333    332    334     1   107.5800459 329.699200
    334    332    336     1   108.7700466 392.459200
    335    714    715     1   117.5500507 404.174400
    336    739    740     1   117.5500507 404.174400
    341    344    345     1   109.5600471 388.275200
    341    344    346     1   109.5600471 388.275200
    342    341    344     1   109.5600471 388.275200
    342    341    347     1   109.8800469 414.216000
    342    341    343     1   108.4600466 328.025600
    343    341    344     1   109.5600471 388.275200
    343    341    347     1   109.8800469 414.216000
    344    364    365     1   117.6800502 383.254400
    345    344    364     1   108.8800464 416.726400
    345    344    346     1   108.4600466 328.025600
    346    344    364     1   108.8800464 416.726400
    347    348    349     1   109.8800469 414.216000
    347    348    350     1   109.8800469 414.216000
    347    351    352     1   109.8800469 414.216000
    347    351    353     1   109.8800469 414.216000
    348    357    358     1   109.8000471 387.438400
    348    357    359     1   109.8000471 387.438400
    349    348    357     1   109.5600471 388.275200
    349    348    350     1   108.4600466 328.025600
    350    348    357     1   109.5600471 388.275200
    351    354    355     1   109.8000471 387.438400
    351    354    356     1   109.8000471 387.438400
    352    351    354     1   109.5600471 388.275200
    352    351    353     1   108.4600466 328.025600
    353    351    354     1   109.5600471 388.275200
    355    354    360     1   108.7700466 392.459200
    355    354    356     1   107.5800459 329.699200
    356    354    360     1   108.7700466 392.459200
    358    357    361     1   108.7700466 392.459200
    358    357    359     1   107.5800459 329.699200
    359    357    361     1   108.7700466 392.459200
    360    741    742     1   117.5500507 404.174400
    361    753    754     1   117.5500507 404.174400
    366    369    370     1   109.5600471 388.275200
    366    369    371     1   109.5600471 388.275200
    367    366    369     1   109.5600471 388.275200
    367    366    372     1   109.8800469 414.216000
    367    366    368     1   108.4600466 328.025600
    368    366    369     1   109.5600471 388.275200
    368    366    372     1   109.8800469 414.216000
    369    389    390     1   117.6800502 383.254400
    370    369    389     1   108.8800464 416.726400
    370    369    371     1   108.4600466 328.025600
    371    369    389     1   108.8800464 416.726400
    372    373    374     1   109.8800469 414.216000
    372    373    375     1   109.8800469 414.216000
    372    376    377     1   109.8800469 414.216000
    372    376    378     1   109.8800469 414.216000
    373    382    383     1   109.8000471 387.438400
    373    382    384     1   109.8000471 387.438400
    374    373    382     1   109.5600471 388.275200
    374    373    375     1   108.4600466 328.025600
    375    373    382     1   109.5600471 388.275200
    376    379    380     1   109.8000471 387.438400
    376    379    381     1   109.8000471 387.438400
    377    376    379     1   109.5600471 388.275200
    377    376    378     1   108.4600466 328.025600
    378    376    379     1   109.5600471 388.275200
    380    379    385     1   108.7700466 392.459200
    380    379    381     1   107.5800459 329.699200
    381    379    385     1   108.7700466 392.459200
    383    382    386     1   108.7700466 392.459200
    383    382    384     1   107.5800459 329.699200
    384    382    386     1   108.7700466 392.459200
    385    765    766     1   117.5500507 404.174400
    386    777    778     1   117.5500507 404.174400
    391    394    395     1   109.5600471 388.275200
    391    394    396     1   109.5600471 388.275200
    392    391    394     1   109.5600471 388.275200
    392    391    397     1   109.8800469 414.216000
    392    391    393     1   108.4600466 328.025600
    393    391    394     1   109.5600471 388.275200
    393    391    397     1   109.8800469 414.216000
    394    414    415     1   117.6800502 383.254400
    395    394    414     1   108.8800464 416.726400
    395    394    396     1   108.4600466 328.025600
    396    394    414     1   108.8800464 416.726400
    397    398    399     1   109.8800469 414.216000
    397    398    400     1   109.8800469 414.216000
    397    401    402     1   109.8800469 414.216000
    397    401    403     1   109.8800469 414.216000
    398    407    408     1   109.8000471 387.438400
    398    407    409     1   109.8000471 387.438400
    399    398    407     1   109.5600471 388.275200
    399    398    400     1   108.4600466 328.025600
    400    398    407     1   109.5600471 388.275200
    401    404    405     1   109.8000471 387.438400
    401    404    406     1   109.8000471 387.438400
    402    401    404     1   109.5600471 388.275200
    402    401    403     1   108.4600466 328.025600
    403    401    404     1   109.5600471 388.275200
    405    404    410     1   108.7700466 392.459200
    405    404    406     1   107.5800459 329.699200
    406    404    410     1   108.7700466 392.459200
    408    407    411     1   108.7700466 392.459200
    408    407    409     1   107.5800459 329.699200
    409    407    411     1   108.7700466 392.459200
    410    789    790     1   117.5500507 404.174400
    411    801    802     1   117.5500507 404.174400
    416    419    420     1   109.5600471 388.275200
    416    419    421     1   109.5600471 388.275200
    417    416    419     1   109.5600471 388.275200
    417    416    422     1   109.8800469 414.216000
    417    416    418     1   108.4600466 328.025600
    418    416    419     1   109.5600471 388.275200
    418    416    422     1   109.8800469 414.216000
    419    439    440     1   117.6800502 383.254400
    420    419    439     1   108.8800464 416.726400
    420    419    421     1   108.4600466 328.025600
    421    419    439     1   108.8800464 416.726400
    422    423    424     1   109.8800469 414.216000
    422    423    425     1   109.8800469 414.216000
    422    426    427     1   109.8800469 414.216000
    422    426    428     1   109.8800469 414.216000
    423    432    433     1   109.8000471 387.438400
    423    432    434     1   109.8000471 387.438400
    424    423    432     1   109.5600471 388.275200
    424    423    425     1   108.4600466 328.025600
    425    423    432     1   109.5600471 388.275200
    426    429    430     1   109.8000471 387.438400
    426    429    431     1   109.8000471 387.438400
    427    426    429     1   109.5600471 388.275200
    427    426    428     1   108.4600466 328.025600
    428    426    429     1   109.5600471 388.275200
    430    429    435     1   108.7700466 392.459200
    430    429    431     1   107.5800459 329.699200
    431    429    435     1   108.7700466 392.459200
    433    432    436     1   108.7700466 392.459200
    433    432    434     1   107.5800459 329.699200
    434    432    436     1   108.7700466 392.459200
    435    813    814     1   117.5500507 404.174400
    436    825    826     1   117.5500507 404.174400
    441    444    445     1   109.5600471 388.275200
    441    444    446     1   109.5600471 388.275200
    442    441    444     1   109.5600471 388.275200
    442    441    447     1   109.8800469 414.216000
    442    441    443     1   108.4600466 328.025600
    443    441    444     1   109.5600471 388.275200
    443    441    447     1   109.8800469 414.216000
    444    464    465     1   117.6800502 383.254400
    445    444    464     1   108.8800464 416.726400
    445    444    446     1   108.4600466 328.025600
    446    444    464     1   108.8800464 416.726400
    447    448    449     1   109.8800469 414.216000
    447    448    450     1   109.8800469 414.216000
    447    451    452     1   109.8800469 414.216000
    447    451    453     1   109.8800469 414.216000
    448    457    458     1   109.8000471 387.438400
    448    457    459     1   109.8000471 387.438400
    449    448    457     1   109.5600471 388.275200
    449    448    450     1   108.4600466 328.025600
    450    448    457     1   109.5600471 388.275200
    451    454    455     1   109.8000471 387.438400
    451    454    456     1   109.8000471 387.438400
    452    451    454     1   109.5600471 388.275200
    452    451    453     1   108.4600466 328.025600
    453    451    454     1   109.5600471 388.275200
    455    454    460     1   108.7700466 392.459200
    455    454    456     1   107.5800459 329.699200
    456    454    460     1   108.7700466 392.459200
    458    457    461     1   108.7700466 392.459200
    458    457    459     1   107.5800459 329.699200
    459    457    461     1   108.7700466 392.459200
    460    837    838     1   117.5500507 404.174400
    461    849    850     1   117.5500507 404.174400
    466    469    470     1   109.5600471 388.275200
    466    469    471     1   109.5600471 388.275200
    467    466    469     1   109.5600471 388.275200
    467    466    472     1   109.8800469 414.216000
    467    466    468     1   108.4600466 328.025600
    468    466    469     1   109.5600471 388.275200
    468    466    472     1   109.8800469 414.216000
    469    489    490     1   117.6800502 383.254400
    470    469    489     1   108.8800464 416.726400
    470    469    471     1   108.4600466 328.025600
    471    469    489     1   108.8800464 416.726400
    472    473    474     1   109.8800469 414.216000
    472    473    475     1   109.8800469 414.216000
    472    476    477     1   109.8800469 414.216000
    472    476    478     1   109.8800469 414.216000
    473    482    483     1   109.8000471 387.438400
    473    482    484     1   109.8000471 387.438400
    474    473    482     1   109.5600471 388.275200
    474    473    475     1   108.4600466 328.025600
    475    473    482     1   109.5600471 388.275200
    476    479    480     1   109.8000471 387.438400
    476    479    481     1   109.8000471 387.438400
    477    476    479     1   109.5600471 388.275200
    477    476    478     1   108.4600466 328.025600
    478    476    479     1   109.5600471 388.275200
    480    479    485     1   108.7700466 392.459200
    480    479    481     1   107.5800459 329.699200
    481    479    485     1   108.7700466 392.459200
    483    482    486     1   108.7700466 392.459200
    483    482    484     1   107.5800459 329.699200
    484    482    486     1   108.7700466 392.459200
    485    861    862     1   117.5500507 404.174400
    486    873    874     1   117.5500507 404.174400
    491    494    495     1   109.5600471 388.275200
    491    494    496     1   109.5600471 388.275200
    492    491    494     1   109.5600471 388.275200
    492    491    497     1   109.8800469 414.216000
    492    491    493     1   108.4600466 328.025600
    493    491    494     1   109.5600471 388.275200
    493    491    497     1   109.8800469 414.216000
    494    514    515     1   117.6800502 383.254400
    495    494    514     1   108.8800464 416.726400
    495    494    496     1   108.4600466 328.025600
    496    494    514     1   108.8800464 416.726400
    497    498    499     1   109.8800469 414.216000
    497    498    500     1   109.8800469 414.216000
    497    501    502     1   109.8800469 414.216000
    497    501    503     1   109.8800469 414.216000
    498    507    508     1   109.8000471 387.438400
    498    507    509     1   109.8000471 387.438400
    499    498    507     1   109.5600471 388.275200
    499    498    500     1   108.4600466 328.025600
    500    498    507     1   109.5600471 388.275200
    501    504    505     1   109.8000471 387.438400
    501    504    506     1   109.8000471 387.438400
    502    501    504     1   109.5600471 388.275200
    502    501    503     1   108.4600466 328.025600
    503    501    504     1   109.5600471 388.275200
    505    504    510     1   108.7700466 392.459200
    505    504    506     1   107.5800459 329.699200
    506    504    510     1   108.7700466 392.459200
    508    507    511     1   108.7700466 392.459200
    508    507    509     1   107.5800459 329.699200
    509    507    511     1   108.7700466 392.459200
    510    885    886     1   117.5500507 404.174400
    511    897    898     1   117.5500507 404.174400
    516    519    520     1   109.5600471 388.275200
    516    519    521     1   109.5600471 388.275200
    517    516    519     1   109.5600471 388.275200
    517    516    522     1   109.8800469 414.216000
    517    516    518     1   108.4600466 328.025600
    518    516    519     1   109.5600471 388.275200
    518    516    522     1   109.8800469 414.216000
    519    539    540     1   117.6800502 383.254400
    520    519    539     1   108.8800464 416.726400
    520    519    521     1   108.4600466 328.025600
    521    519    539     1   108.8800464 416.726400
    522    523    524     1   109.8800469 414.216000
    522    523    525     1   109.8800469 414.216000
    522    526    527     1   109.8800469 414.216000
    522    526    528     1   109.8800469 414.216000
    523    532    533     1   109.8000471 387.438400
    523    532    534     1   109.8000471 387.438400
    524    523    532     1   109.5600471 388.275200
    524    523    525     1   108.4600466 328.025600
    525    523    532     1   109.5600471 388.275200
    526    529    530     1   109.8000471 387.438400
    526    529    531     1   109.8000471 387.438400
    527    526    529     1   109.5600471 388.275200
    527    526    528     1   108.4600466 328.025600
    528    526    529     1   109.5600471 388.275200
    530    529    535     1   108.7700466 392.459200
    530    529    531     1   107.5800459 329.699200
    531    529    535     1   108.7700466 392.459200
    533    532    536     1   108.7700466 392.459200
    533    532    534     1   107.5800459 329.699200
    534    532    536     1   108.7700466 392.459200
    535    909    910     1   117.5500507 404.174400
    536    921    922     1   117.5500507 404.174400
    541    544    545     1   109.5600471 388.275200
    541    544    546     1   109.5600471 388.275200
    542    541    544     1   109.5600471 388.275200
    542    541    547     1   109.8800469 414.216000
    542    541    543     1   108.4600466 328.025600
    543    541    544     1   109.5600471 388.275200
    543    541    547     1   109.8800469 414.216000
    544    564    565     1   117.6800502 383.254400
    545    544    564     1   108.8800464 416.726400
    545    544    546     1   108.4600466 328.025600
    546    544    564     1   108.8800464 416.726400
    547    548    549     1   109.8800469 414.216000
    547    548    550     1   109.8800469 414.216000
    547    551    552     1   109.8800469 414.216000
    547    551    553     1   109.8800469 414.216000
    548    557    558     1   109.8000471 387.438400
    548    557    559     1   109.8000471 387.438400
    549    548    557     1   109.5600471 388.275200
    549    548    550     1   108.4600466 328.025600
    550    548    557     1   109.5600471 388.275200
    551    554    555     1   109.8000471 387.438400
    551    554    556     1   109.8000471 387.438400
    552    551    554     1   109.5600471 388.275200
    552    551    553     1   108.4600466 328.025600
    553    551    554     1   109.5600471 388.275200
    555    554    560     1   108.7700466 392.459200
    555    554    556     1   107.5800459 329.699200
    556    554    560     1   108.7700466 392.459200
    558    557    561     1   108.7700466 392.459200
    558    557    559     1   107.5800459 329.699200
    559    557    561     1   108.7700466 392.459200
    560    933    934     1   117.5500507 404.174400
    561    945    946     1   117.5500507 404.174400
    566    569    570     1   109.5600471 388.275200
    566    569    571     1   109.5600471 388.275200
    567    566    569     1   109.5600471 388.275200
    567    566    572     1   109.8800469 414.216000
    567    566    568     1   108.4600466 328.025600
    568    566    569     1   109.5600471 388.275200
    568    566    572     1   109.8800469 414.216000
    569    589    590     1   117.6800502 383.254400
    570    569    589     1   108.8800464 416.726400
    570    569    571     1   108.4600466 328.025600
    571    569    589     1   108.8800464 416.726400
    572    573    574     1   109.8800469 414.216000
    572    573    575     1   109.8800469 414.216000
    572    576    577     1   109.8800469 414.216000
    572    576    578     1   109.8800469 414.216000
    573    582    583     1   109.8000471 387.438400
    573    582    584     1   109.8000471 387.438400
    574    573    582     1   109.5600471 388.275200
    574    573    575     1   108.4600466 328.025600
    575    573    582     1   109.5600471 388.275200
    576    579    580     1   109.8000471 387.438400
    576    579    581     1   109.8000471 387.438400
    577    576    579     1   109.5600471 388.275200
    577    576    578     1   108.4600466 328.025600
    578    576    579     1   109.5600471 388.275200
    580    579    585     1   108.7700466 392.459200
    580    579    581     1   107.5800459 329.699200
    581    579    585     1   108.7700466 392.459200
    583    582    586     1   108.7700466 392.459200
    583    582    584     1   107.5800459 329.699200
    584    582    586     1   108.7700466 392.459200
    585    957    958     1   117.5500507 404.174400
    586    969    970     1   117.5500507 404.174400
    591    594    595     1   109.5600471 388.275200
    591    594    596     1   109.5600471 388.275200
    592    591    594     1   109.5600471 388.275200
    592    591    597     1   109.8800469 414.216000
    592    591    593     1   108.4600466 328.025600
    593    591    594     1   109.5600471 388.275200
    593    591    597     1   109.8800469 414.216000
    594    614    615     1   117.6800502 383.254400
    595    594    614     1   108.8800464 416.726400
    595    594    596     1   108.4600466 328.025600
    596    594    614     1   108.8800464 416.726400
    597    598    599     1   109.8800469 414.216000
    597    598    600     1   109.8800469 414.216000
    597    601    602     1   109.8800469 414.216000
    597    601    603     1   109.8800469 414.216000
    598    607    608     1   109.8000471 387.438400
    598    607    609     1   109.8000471 387.438400
    599    598    607     1   109.5600471 388.275200
    599    598    600     1   108.4600466 328.025600
    600    598    607     1   109.5600471 388.275200
    601    604    605     1   109.8000471 387.438400
    601    604    606     1   109.8000471 387.438400
    602    601    604     1   109.5600471 388.275200
    602    601    603     1   108.4600466 328.025600
    603    601    604     1   109.5600471 388.275200
    605    604    610     1   108.7700466 392.459200
    605    604    606     1   107.5800459 329.699200
    606    604    610     1   108.7700466 392.459200
    608    607    611     1   108.7700466 392.459200
    608    607    609     1   107.5800459 329.699200
    609    607    611     1   108.7700466 392.459200
    610    981    982     1   117.5500507 404.174400
    611    993    994     1   117.5500507 404.174400
    616    619    620     1   109.5600471 388.275200
    616    619    621     1   109.5600471 388.275200
    617    616    619     1   109.5600471 388.275200
    617    616    622     1   109.8800469 414.216000
    617    616    618     1   108.4600466 328.025600
    618    616    619     1   109.5600471 388.275200
    618    616    622     1   109.8800469 414.216000
    619    639    640     1   117.6800502 383.254400
    620    619    639     1   108.8800464 416.726400
    620    619    621     1   108.4600466 328.025600
    621    619    639     1   108.8800464 416.726400
    622    623    624     1   109.8800469 414.216000
    622    623    625     1   109.8800469 414.216000
    622    626    627     1   109.8800469 414.216000
    622    626    628     1   109.8800469 414.216000
    623    632    633     1   109.8000471 387.438400
    623    632    634     1   109.8000471 387.438400
    624    623    632     1   109.5600471 388.275200
    624    623    625     1   108.4600466 328.025600
    625    623    632     1   109.5600471 388.275200
    626    629    630     1   109.8000471 387.438400
    626    629    631     1   109.8000471 387.438400
    627    626    629     1   109.5600471 388.275200
    627    626    628     1   108.4600466 328.025600
    628    626    629     1   109.5600471 388.275200
    630    629    635     1   108.7700466 392.459200
    630    629    631     1   107.5800459 329.699200
    631    629    635     1   108.7700466 392.459200
    633    632    636     1   108.7700466 392.459200
    633    632    634     1   107.5800459 329.699200
    634    632    636     1   108.7700466 392.459200
    635   1005   1006     1   117.5500507 404.174400
    636   1017   1018     1   117.5500507 404.174400
    641    644    645     1   109.5600471 388.275200
    641    644    646     1   109.5600471 388.275200
    642    641    644     1   109.5600471 388.275200
    642    641    647     1   109.8800469 414.216000
    642    641    643     1   108.4600466 328.025600
    643    641    644     1   109.5600471 388.275200
    643    641    647     1   109.8800469 414.216000
    644    664    665     1   117.6800502 383.254400
    645    644    664     1   108.8800464 416.726400
    645    644    646     1   108.4600466 328.025600
    646    644    664     1   108.8800464 416.726400
    647    648    649     1   109.8800469 414.216000
    647    648    650     1   109.8800469 414.216000
    647    651    652     1   109.8800469 414.216000
    647    651    653     1   109.8800469 414.216000
    648    657    658     1   109.8000471 387.438400
    648    657    659     1   109.8000471 387.438400
    649    648    657     1   109.5600471 388.275200
    649    648    650     1   108.4600466 328.025600
    650    648    657     1   109.5600471 388.275200
    651    654    655     1   109.8000471 387.438400
    651    654    656     1   109.8000471 387.438400
    652    651    654     1   109.5600471 388.275200
    652    651    653     1   108.4600466 328.025600
    653    651    654     1   109.5600471 388.275200
    655    654    660     1   108.7700466 392.459200
    655    654    656     1   107.5800459 329.699200
    656    654    660     1   108.7700466 392.459200
    658    657    661     1   108.7700466 392.459200
    658    657    659     1   107.5800459 329.699200
    659    657    661     1   108.7700466 392.459200
    660   1029   1030     1   117.5500507 404.174400
    661   1041   1042     1   117.5500507 404.174400
    666    669    670     1   109.5600471 388.275200
    666    669    671     1   109.5600471 388.275200
    667    666    669     1   109.5600471 388.275200
    667    666    672     1   109.8800469 414.216000
    667    666    668     1   108.4600466 328.025600
    668    666    669     1   109.5600471 388.275200
    668    666    672     1   109.8800469 414.216000
    669    689    690     1   117.6800502 383.254400
    670    669    689     1   108.8800464 416.726400
    670    669    671     1   108.4600466 328.025600
    671    669    689     1   108.8800464 416.726400
    672    673    674     1   109.8800469 414.216000
    672    673    675     1   109.8800469 414.216000
    672    676    677     1   109.8800469 414.216000
    672    676    678     1   109.8800469 414.216000
    673    682    683     1   109.8000471 387.438400
    673    682    684     1   109.8000471 387.438400
    674    673    682     1   109.5600471 388.275200
    674    673    675     1   108.4600466 328.025600
    675    673    682     1   109.5600471 388.275200
    676    679    680     1   109.8000471 387.438400
    676    679    681     1   109.8000471 387.438400
    677    676    679     1   109.5600471 388.275200
    677    676    678     1   108.4600466 328.025600
    678    676    679     1   109.5600471 388.275200
    680    679    685     1   108.7700466 392.459200
    680    679    681     1   107.5800459 329.699200
    681    679    685     1   108.7700466 392.459200
    683    682    686     1   108.7700466 392.459200
    683    682    684     1   107.5800459 329.699200
    684    682    686     1   108.7700466 392.459200
    685   1053   1054     1   117.5500507 404.174400
    686   1065   1066     1   117.5500507 404.174400
    691    694    695     1   109.5600471 388.275200
    691    694    696     1   109.5600471 388.275200
    692    691    694     1   109.5600471 388.275200
    692    691    697     1   109.8800469 414.216000
    692    691    693     1   108.4600466 328.025600
    693    691    694     1   109.5600471 388.275200
    693    691    697     1   109.8800469 414.216000
    694    714    715     1   117.6800502 383.254400
    695    694    714     1   108.8800464 416.726400
    695    694    696     1   108.4600466 328.025600
    696    694    714     1   108.8800464 416.726400
    697    698    699     1   109.8800469 414.216000
    697    698    700     1   109.8800469 414.216000
    697    701    702     1   109.8800469 414.216000
    697    701    703     1   109.8800469 414.216000
    698    707    708     1   109.8000471 387.438400
    698    707    709     1   109.8000471 387.438400
    699    698    707     1   109.5600471 388.275200
    699    698    700     1   108.4600466 328.025600
    700    698    707     1   109.5600471 388.275200
    701    704    705     1   109.8000471 387.438400
    701    704    706     1   109.8000471 387.438400
    702    701    704     1   109.5600471 388.275200
    702    701    703     1   108.4600466 328.025600
    703    701    704     1   109.5600471 388.275200
    705    704    710     1   108.7700466 392.459200
    705    704    706     1   107.5800459 329.699200
    706    704    710     1   108.7700466 392.459200
    708    707    711     1   108.7700466 392.459200
    708    707    709     1   107.5800459 329.699200
    709    707    711     1   108.7700466 392.459200
    710   1077   1078     1   117.5500507 404.174400
    711   1089   1090     1   117.5500507 404.174400
    716    719    720     1   109.5600471 388.275200
    716    719    721     1   109.5600471 388.275200
    717    716    719     1   109.5600471 388.275200
    717    716    722     1   109.8800469 414.216000
    717    716    718     1   108.4600466 328.025600
    718    716    719     1   109.5600471 388.275200
    718    716    722     1   109.8800469 414.216000
    719    739    740     1   117.6800502 383.254400
    720    719    739     1   108.8800464 416.726400
    720    719    721     1   108.4600466 328.025600
    721    719    739     1   108.8800464 416.726400
    722    723    724     1   109.8800469 414.216000
    722    723    725     1   109.8800469 414.216000
    722    726    727     1   109.8800469 414.216000
    722    726    728     1   109.8800469 414.216000
    723    732    733     1   109.8000471 387.438400
    723    732    734     1   109.8000471 387.438400
    724    723    732     1   109.5600471 388.275200
    724    723    725     1   108.4600466 328.025600
    725    723    732     1   109.5600471 388.275200
    726    729    730     1   109.8000471 387.438400
    726    729    731     1   109.8000471 387.438400
    727    726    729     1   109.5600471 388.275200
    727    726    728     1   108.4600466 328.025600
    728    726    729     1   109.5600471 388.275200
    730    729    735     1   108.7700466 392.459200
    730    729    731     1   107.5800459 329.699200
    731    729    735     1   108.7700466 392.459200
    733    732    736     1   108.7700466 392.459200
    733    732    734     1   107.5800459 329.699200
    734    732    736     1   108.7700466 392.459200
    735   1101   1102     1   117.5500507 404.174400
    736   1113   1114     1   117.5500507 404.174400
    741    743    745     1   108.8800464 416.726400
    741    743    746     1   108.8800464 416.726400
    742    741    743     1   117.6800502 383.254400
    743    744    747     1   110.5600475 386.601600
    743    744    748     1   110.5600475 386.601600
    744    743    745     1   109.5600471 388.275200
    744    743    746     1   109.5600471 388.275200
    744    749    750     1   110.1100470 384.091200
    744    749    751     1   110.1100470 384.091200
    744    749    752     1   110.1100470 384.091200
    745    743    746     1   108.4600466 328.025600
    747    744    749     1   108.0100461 406.684800
    747    744    748     1   109.7500473 328.025600
    748    744    749     1   108.0100461 406.684800
    750    749    751     1   108.3000464 339.740800
    750    749    752     1   108.3000464 339.740800
    751    749    752     1   108.3000464 339.740800
    753    755    757     1   108.8800464 416.726400
    753    755    758     1   108.8800464 416.726400
    754    753    755     1   117.6800502 383.254400
    755    756    759     1   110.5600475 386.601600
    755    756    760     1   110.5600475 386.601600
    756    761    762     1   110.1100470 384.091200
    756    761    763     1   110.1100470 384.091200
    756    761    764     1   110.1100470 384.091200
    756    755    757     1   109.5600471 388.275200
    756    755    758     1   109.5600471 388.275200
    757    755    758     1   108.4600466 328.025600
    759    756    761     1   108.0100461 406.684800
    759    756    760     1   109.7500473 328.025600
    760    756    761     1   108.0100461 406.684800
    762    761    763     1   108.3000464 339.740800
    762    761    764     1   108.3000464 339.740800
    763    761    764     1   108.3000464 339.740800
    765    767    769     1   108.8800464 416.726400
    765    767    770     1   108.8800464 416.726400
    766    765    767     1   117.6800502 383.254400
    767    768    771     1   110.5600475 386.601600
    767    768    772     1   110.5600475 386.601600
    768    767    769     1   109.5600471 388.275200
    768    767    770     1   109.5600471 388.275200
    768    773    774     1   110.1100470 384.091200
    768    773    775     1   110.1100470 384.091200
    768    773    776     1   110.1100470 384.091200
    769    767    770     1   108.4600466 328.025600
    771    768    773     1   108.0100461 406.684800
    771    768    772     1   109.7500473 328.025600
    772    768    773     1   108.0100461 406.684800
    774    773    775     1   108.3000464 339.740800
    774    773    776     1   108.3000464 339.740800
    775    773    776     1   108.3000464 339.740800
    777    779    781     1   108.8800464 416.726400
    777    779    782     1   108.8800464 416.726400
    778    777    779     1   117.6800502 383.254400
    779    780    783     1   110.5600475 386.601600
    779    780    784     1   110.5600475 386.601600
    780    785    786     1   110.1100470 384.091200
    780    785    787     1   110.1100470 384.091200
    780    785    788     1   110.1100470 384.091200
    780    779    781     1   109.5600471 388.275200
    780    779    782     1   109.5600471 388.275200
    781    779    782     1   108.4600466 328.025600
    783    780    785     1   108.0100461 406.684800
    783    780    784     1   109.7500473 328.025600
    784    780    785     1   108.0100461 406.684800
    786    785    787     1   108.3000464 339.740800
    786    785    788     1   108.3000464 339.740800
    787    785    788     1   108.3000464 339.740800
    789    791    793     1   108.8800464 416.726400
    789    791    794     1   108.8800464 416.726400
    790    789    791     1   117.6800502 383.254400
    791    792    795     1   110.5600475 386.601600
    791    792    796     1   110.5600475 386.601600
    792    791    793     1   109.5600471 388.275200
    792    791    794     1   109.5600471 388.275200
    792    797    798     1   110.1100470 384.091200
    792    797    799     1   110.1100470 384.091200
    792    797    800     1   110.1100470 384.091200
    793    791    794     1   108.4600466 328.025600
    795    792    797     1   108.0100461 406.684800
    795    792    796     1   109.7500473 328.025600
    796    792    797     1   108.0100461 406.684800
    798    797    799     1   108.3000464 339.740800
    798    797    800     1   108.3000464 339.740800
    799    797    800     1   108.3000464 339.740800
    801    803    805     1   108.8800464 416.726400
    801    803    806     1   108.8800464 416.726400
    802    801    803     1   117.6800502 383.254400
    803    804    807     1   110.5600475 386.601600
    803    804    808     1   110.5600475 386.601600
    804    809    810     1   110.1100470 384.091200
    804    809    811     1   110.1100470 384.091200
    804    809    812     1   110.1100470 384.091200
    804    803    805     1   109.5600471 388.275200
    804    803    806     1   109.5600471 388.275200
    805    803    806     1   108.4600466 328.025600
    807    804    809     1   108.0100461 406.684800
    807    804    808     1   109.7500473 328.025600
    808    804    809     1   108.0100461 406.684800
    810    809    811     1   108.3000464 339.740800
    810    809    812     1   108.3000464 339.740800
    811    809    812     1   108.3000464 339.740800
    813    815    817     1   108.8800464 416.726400
    813    815    818     1   108.8800464 416.726400
    814    813    815     1   117.6800502 383.254400
    815    816    819     1   110.5600475 386.601600
    815    816    820     1   110.5600475 386.601600
    816    815    817     1   109.5600471 388.275200
    816    815    818     1   109.5600471 388.275200
    816    821    822     1   110.1100470 384.091200
    816    821    823     1   110.1100470 384.091200
    816    821    824     1   110.1100470 384.091200
    817    815    818     1   108.4600466 328.025600
    819    816    821     1   108.0100461 406.684800
    819    816    820     1   109.7500473 328.025600
    820    816    821     1   108.0100461 406.684800
    822    821    823     1   108.3000464 339.740800
    822    821    824     1   108.3000464 339.740800
    823    821    824     1   108.3000464 339.740800
    825    827    829     1   108.8800464 416.726400
    825    827    830     1   108.8800464 416.726400
    826    825    827     1   117.6800502 383.254400
    827    828    831     1   110.5600475 386.601600
    827    828    832     1   110.5600475 386.601600
    828    833    834     1   110.1100470 384.091200
    828    833    835     1   110.1100470 384.091200
    828    833    836     1   110.1100470 384.091200
    828    827    829     1   109.5600471 388.275200
    828    827    830     1   109.5600471 388.275200
    829    827    830     1   108.4600466 328.025600
    831    828    833     1   108.0100461 406.684800
    831    828    832     1   109.7500473 328.025600
    832    828    833     1   108.0100461 406.684800
    834    833    835     1   108.3000464 339.740800
    834    833    836     1   108.3000464 339.740800
    835    833    836     1   108.3000464 339.740800
    837    839    841     1   108.8800464 416.726400
    837    839    842     1   108.8800464 416.726400
    838    837    839     1   117.6800502 383.254400
    839    840    843     1   110.5600475 386.601600
    839    840    844     1   110.5600475 386.601600
    840    839    841     1   109.5600471 388.275200
    840    839    842     1   109.5600471 388.275200
    840    845    846     1   110.1100470 384.091200
    840    845    847     1   110.1100470 384.091200
    840    845    848     1   110.1100470 384.091200
    841    839    842     1   108.4600466 328.025600
    843    840    845     1   108.0100461 406.684800
    843    840    844     1   109.7500473 328.025600
    844    840    845     1   108.0100461 406.684800
    846    845    847     1   108.3000464 339.740800
    846    845    848     1   108.3000464 339.740800
    847    845    848     1   108.3000464 339.740800
    849    851    853     1   108.8800464 416.726400
    849    851    854     1   108.8800464 416.726400
    850    849    851     1   117.6800502 383.254400
    851    852    855     1   110.5600475 386.601600
    851    852    856     1   110.5600475 386.601600
    852    857    858     1   110.1100470 384.091200
    852    857    859     1   110.1100470 384.091200
    852    857    860     1   110.1100470 384.091200
    852    851    853     1   109.5600471 388.275200
    852    851    854     1   109.5600471 388.275200
    853    851    854     1   108.4600466 328.025600
    855    852    857     1   108.0100461 406.684800
    855    852    856     1   109.7500473 328.025600
    856    852    857     1   108.0100461 406.684800
    858    857    859     1   108.3000464 339.740800
    858    857    860     1   108.3000464 339.740800
    859    857    860     1   108.3000464 339.740800
    861    863    865     1   108.8800464 416.726400
    861    863    866     1   108.8800464 416.726400
    862    861    863     1   117.6800502 383.254400
    863    864    867     1   110.5600475 386.601600
    863    864    868     1   110.5600475 386.601600
    864    863    865     1   109.5600471 388.275200
    864    863    866     1   109.5600471 388.275200
    864    869    870     1   110.1100470 384.091200
    864    869    871     1   110.1100470 384.091200
    864    869    872     1   110.1100470 384.091200
    865    863    866     1   108.4600466 328.025600
    867    864    869     1   108.0100461 406.684800
    867    864    868     1   109.7500473 328.025600
    868    864    869     1   108.0100461 406.684800
    870    869    871     1   108.3000464 339.740800
    870    869    872     1   108.3000464 339.740800
    871    869    872     1   108.3000464 339.740800
    873    875    877     1   108.8800464 416.726400
    873    875    878     1   108.8800464 416.726400
    874    873    875     1   117.6800502 383.254400
    875    876    879     1   110.5600475 386.601600
    875    876    880     1   110.5600475 386.601600
    876    881    882     1   110.1100470 384.091200
    876    881    883     1   110.1100470 384.091200
    876    881    884     1   110.1100470 384.091200
    876    875    877     1   109.5600471 388.275200
    876    875    878     1   109.5600471 388.275200
    877    875    878     1   108.4600466 328.025600
    879    876    881     1   108.0100461 406.684800
    879    876    880     1   109.7500473 328.025600
    880    876    881     1   108.0100461 406.684800
    882    881    883     1   108.3000464 339.740800
    882    881    884     1   108.3000464 339.740800
    883    881    884     1   108.3000464 339.740800
    885    887    889     1   108.8800464 416.726400
    885    887    890     1   108.8800464 416.726400
    886    885    887     1   117.6800502 383.254400
    887    888    891     1   110.5600475 386.601600
    887    888    892     1   110.5600475 386.601600
    888    887    889     1   109.5600471 388.275200
    888    887    890     1   109.5600471 388.275200
    888    893    894     1   110.1100470 384.091200
    888    893    895     1   110.1100470 384.091200
    888    893    896     1   110.1100470 384.091200
    889    887    890     1   108.4600466 328.025600
    891    888    893     1   108.0100461 406.684800
    891    888    892     1   109.7500473 328.025600
    892    888    893     1   108.0100461 406.684800
    894    893    895     1   108.3000464 339.740800
    894    893    896     1   108.3000464 339.740800
    895    893    896     1   108.3000464 339.740800
    897    899    901     1   108.8800464 416.726400
    897    899    902     1   108.8800464 416.726400
    898    897    899     1   117.6800502 383.254400
    899    900    903     1   110.5600475 386.601600
    899    900    904     1   110.5600475 386.601600
    900    905    906     1   110.1100470 384.091200
    900    905    907     1   110.1100470 384.091200
    900    905    908     1   110.1100470 384.091200
    900    899    901     1   109.5600471 388.275200
    900    899    902     1   109.5600471 388.275200
    901    899    902     1   108.4600466 328.025600
    903    900    905     1   108.0100461 406.684800
    903    900    904     1   109.7500473 328.025600
    904    900    905     1   108.0100461 406.684800
    906    905    907     1   108.3000464 339.740800
    906    905    908     1   108.3000464 339.740800
    907    905    908     1   108.3000464 339.740800
    909    911    913     1   108.8800464 416.726400
    909    911    914     1   108.8800464 416.726400
    910    909    911     1   117.6800502 383.254400
    911    912    915     1   110.5600475 386.601600
    911    912    916     1   110.5600475 386.601600
    912    911    913     1   109.5600471 388.275200
    912    911    914     1   109.5600471 388.275200
    912    917    918     1   110.1100470 384.091200
    912    917    919     1   110.1100470 384.091200
    912    917    920     1   110.1100470 384.091200
    913    911    914     1   108.4600466 328.025600
    915    912    917     1   108.0100461 406.684800
    915    912    916     1   109.7500473 328.025600
    916    912    917     1   108.0100461 406.684800
    918    917    919     1   108.3000464 339.740800
    918    917    920     1   108.3000464 339.740800
    919    917    920     1   108.3000464 339.740800
    921    923    925     1   108.8800464 416.726400
    921    923    926     1   108.8800464 416.726400
    922    921    923     1   117.6800502 383.254400
    923    924    927     1   110.5600475 386.601600
    923    924    928     1   110.5600475 386.601600
    924    929    930     1   110.1100470 384.091200
    924    929    931     1   110.1100470 384.091200
    924    929    932     1   110.1100470 384.091200
    924    923    925     1   109.5600471 388.275200
    924    923    926     1   109.5600471 388.275200
    925    923    926     1   108.4600466 328.025600
    927    924    929     1   108.0100461 406.684800
    927    924    928     1   109.7500473 328.025600
    928    924    929     1   108.0100461 406.684800
    930    929    931     1   108.3000464 339.740800
    930    929    932     1   108.3000464 339.740800
    931    929    932     1   108.3000464 339.740800
    933    935    937     1   108.8800464 416.726400
    933    935    938     1   108.8800464 416.726400
    934    933    935     1   117.6800502 383.254400
    935    936    939     1   110.5600475 386.601600
    935    936    940     1   110.5600475 386.601600
    936    935    937     1   109.5600471 388.275200
    936    935    938     1   109.5600471 388.275200
    936    941    942     1   110.1100470 384.091200
    936    941    943     1   110.1100470 384.091200
    936    941    944     1   110.1100470 384.091200
    937    935    938     1   108.4600466 328.025600
    939    936    941     1   108.0100461 406.684800
    939    936    940     1   109.7500473 328.025600
    940    936    941     1   108.0100461 406.684800
    942    941    943     1   108.3000464 339.740800
    942    941    944     1   108.3000464 339.740800
    943    941    944     1   108.3000464 339.740800
    945    947    949     1   108.8800464 416.726400
    945    947    950     1   108.8800464 416.726400
    946    945    947     1   117.6800502 383.254400
    947    948    951     1   110.5600475 386.601600
    947    948    952     1   110.5600475 386.601600
    948    953    954     1   110.1100470 384.091200
    948    953    955     1   110.1100470 384.091200
    948    953    956     1   110.1100470 384.091200
    948    947    949     1   109.5600471 388.275200
    948    947    950     1   109.5600471 388.275200
    949    947    950     1   108.4600466 328.025600
    951    948    953     1   108.0100461 406.684800
    951    948    952     1   109.7500473 328.025600
    952    948    953     1   108.0100461 406.684800
    954    953    955     1   108.3000464 339.740800
    954    953    956     1   108.3000464 339.740800
    955    953    956     1   108.3000464 339.740800
    957    959    961     1   108.8800464 416.726400
    957    959    962     1   108.8800464 416.726400
    958    957    959     1   117.6800502 383.254400
    959    960    963     1   110.5600475 386.601600
    959    960    964     1   110.5600475 386.601600
    960    959    961     1   109.5600471 388.275200
    960    959    962     1   109.5600471 388.275200
    960    965    966     1   110.1100470 384.091200
    960    965    967     1   110.1100470 384.091200
    960    965    968     1   110.1100470 384.091200
    961    959    962     1   108.4600466 328.025600
    963    960    965     1   108.0100461 406.684800
    963    960    964     1   109.7500473 328.025600
    964    960    965     1   108.0100461 406.684800
    966    965    967     1   108.3000464 339.740800
    966    965    968     1   108.3000464 339.740800
    967    965    968     1   108.3000464 339.740800
    969    971    973     1   108.8800464 416.726400
    969    971    974     1   108.8800464 416.726400
    970    969    971     1   117.6800502 383.254400
    971    972    975     1   110.5600475 386.601600
    971    972    976     1   110.5600475 386.601600
    972    977    978     1   110.1100470 384.091200
    972    977    979     1   110.1100470 384.091200
    972    977    980     1   110.1100470 384.091200
    972    971    973     1   109.5600471 388.275200
    972    971    974     1   109.5600471 388.275200
    973    971    974     1   108.4600466 328.025600
    975    972    977     1   108.0100461 406.684800
    975    972    976     1   109.7500473 328.025600
    976    972    977     1   108.0100461 406.684800
    978    977    979     1   108.3000464 339.740800
    978    977    980     1   108.3000464 339.740800
    979    977    980     1   108.3000464 339.740800
    981    983    985     1   108.8800464 416.726400
    981    983    986     1   108.8800464 416.726400
    982    981    983     1   117.6800502 383.254400
    983    984    987     1   110.5600475 386.601600
    983    984    988     1   110.5600475 386.601600
    984    983    985     1   109.5600471 388.275200
    984    983    986     1   109.5600471 388.275200
    984    989    990     1   110.1100470 384.091200
    984    989    991     1   110.1100470 384.091200
    984    989    992     1   110.1100470 384.091200
    985    983    986     1   108.4600466 328.025600
    987    984    989     1   108.0100461 406.684800
    987    984    988     1   109.7500473 328.025600
    988    984    989     1   108.0100461 406.684800
    990    989    991     1   108.3000464 339.740800
    990    989    992     1   108.3000464 339.740800
    991    989    992     1   108.3000464 339.740800
    993    995    997     1   108.8800464 416.726400
    993    995    998     1   108.8800464 416.726400
    994    993    995     1   117.6800502 383.254400
    995    996    999     1   110.5600475 386.601600
    995    996   1000     1   110.5600475 386.601600
    996   1001   1002     1   110.1100470 384.091200
    996   1001   1003     1   110.1100470 384.091200
    996   1001   1004     1   110.1100470 384.091200
    996    995    997     1   109.5600471 388.275200
    996    995    998     1   109.5600471 388.275200
    997    995    998     1   108.4600466 328.025600
    999    996   1001     1   108.0100461 406.684800
    999    996   1000     1   109.7500473 328.025600
   1000    996   1001     1   108.0100461 406.684800
   1002   1001   1003     1   108.3000464 339.740800
   1002   1001   1004     1   108.3000464 339.740800
   1003   1001   1004     1   108.3000464 339.740800
   1005   1007   1009     1   108.8800464 416.726400
   1005   1007   1010     1   108.8800464 416.726400
   1006   1005   1007     1   117.6800502 383.254400
   1007   1008   1011     1   110.5600475 386.601600
   1007   1008   1012     1   110.5600475 386.601600
   1008   1007   1009     1   109.5600471 388.275200
   1008   1007   1010     1   109.5600471 388.275200
   1008   1013   1014     1   110.1100470 384.091200
   1008   1013   1015     1   110.1100470 384.091200
   1008   1013   1016     1   110.1100470 384.091200
   1009   1007   1010     1   108.4600466 328.025600
   1011   1008   1013     1   108.0100461 406.684800
   1011   1008   1012     1   109.7500473 328.025600
   1012   1008   1013     1   108.0100461 406.684800
   1014   1013   1015     1   108.3000464 339.740800
   1014   1013   1016     1   108.3000464 339.740800
   1015   1013   1016     1   108.3000464 339.740800
   1017   1019   1021     1   108.8800464 416.726400
   1017   1019   1022     1   108.8800464 416.726400
   1018   1017   1019     1   117.6800502 383.254400
   1019   1020   1023     1   110.5600475 386.601600
   1019   1020   1024     1   110.5600475 386.601600
   1020   1025   1026     1   110.1100470 384.091200
   1020   1025   1027     1   110.1100470 384.091200
   1020   1025   1028     1   110.1100470 384.091200
   1020   1019   1021     1   109.5600471 388.275200
   1020   1019   1022     1   109.5600471 388.275200
   1021   1019   1022     1   108.4600466 328.025600
   1023   1020   1025     1   108.0100461 406.684800
   1023   1020   1024     1   109.7500473 328.025600
   1024   1020   1025     1   108.0100461 406.684800
   1026   1025   1027     1   108.3000464 339.740800
   1026   1025   1028     1   108.3000464 339.740800
   1027   1025   1028     1   108.3000464 339.740800
   1029   1031   1033     1   108.8800464 416.726400
   1029   1031   1034     1   108.8800464 416.726400
   1030   1029   1031     1   117.6800502 383.254400
   1031   1032   1035     1   110.5600475 386.601600
   1031   1032   1036     1   110.5600475 386.601600
   1032   1031   1033     1   109.5600471 388.275200
   1032   1031   1034     1   109.5600471 388.275200
   1032   1037   1038     1   110.1100470 384.091200
   1032   1037   1039     1   110.1100470 384.091200
   1032   1037   1040     1   110.1100470 384.091200
   1033   1031   1034     1   108.4600466 328.025600
   1035   1032   1037     1   108.0100461 406.684800
   1035   1032   1036     1   109.7500473 328.025600
   1036   1032   1037     1   108.0100461 406.684800
   1038   1037   1039     1   108.3000464 339.740800
   1038   1037   1040     1   108.3000464 339.740800
   1039   1037   1040     1   108.3000464 339.740800
   1041   1043   1045     1   108.8800464 416.726400
   1041   1043   1046     1   108.8800464 416.726400
   1042   1041   1043     1   117.6800502 383.254400
   1043   1044   1047     1   110.5600475 386.601600
   1043   1044   1048     1   110.5600475 386.601600
   1044   1049   1050     1   110.1100470 384.091200
   1044   1049   1051     1   110.1100470 384.091200
   1044   1049   1052     1   110.1100470 384.091200
   1044   1043   1045     1   109.5600471 388.275200
   1044   1043   1046     1   109.5600471 388.275200
   1045   1043   1046     1   108.4600466 328.025600
   1047   1044   1049     1   108.0100461 406.684800
   1047   1044   1048     1   109.7500473 328.025600
   1048   1044   1049     1   108.0100461 406.684800
   1050   1049   1051     1   108.3000464 339.740800
   1050   1049   1052     1   108.3000464 339.740800
   1051   1049   1052     1   108.3000464 339.740800
   1053   1055   1057     1   108.8800464 416.726400
   1053   1055   1058     1   108.8800464 416.726400
   1054   1053   1055     1   117.6800502 383.254400
   1055   1056   1059     1   110.5600475 386.601600
   1055   1056   1060     1   110.5600475 386.601600
   1056   1055   1057     1   109.5600471 388.275200
   1056   1055   1058     1   109.5600471 388.275200
   1056   1061   1062     1   110.1100470 384.091200
   1056   1061   1063     1   110.1100470 384.091200
   1056   1061   1064     1   110.1100470 384.091200
   1057   1055   1058     1   108.4600466 328.025600
   1059   1056   1061     1   108.0100461 406.684800
   1059   1056   1060     1   109.7500473 328.025600
   1060   1056   1061     1   108.0100461 406.684800
   1062   1061   1063     1   108.3000464 339.740800
   1062   1061   1064     1   108.3000464 339.740800
   1063   1061   1064     1   108.3000464 339.740800
   1065   1067   1069     1   108.8800464 416.726400
   1065   1067   1070     1   108.8800464 416.726400
   1066   1065   1067     1   117.6800502 383.254400
   1067   1068   1071     1   110.5600475 386.601600
   1067   1068   1072     1   110.5600475 386.601600
   1068   1073   1074     1   110.1100470 384.091200
   1068   1073   1075     1   110.1100470 384.091200
   1068   1073   1076     1   110.1100470 384.091200
   1068   1067   1069     1   109.5600471 388.275200
   1068   1067   1070     1   109.5600471 388.275200
   1069   1067   1070     1   108.4600466 328.025600
   1071   1068   1073     1   108.0100461 406.684800
   1071   1068   1072     1   109.7500473 328.025600
   1072   1068   1073     1   108.0100461 406.684800
   1074   1073   1075     1   108.3000464 339.740800
   1074   1073   1076     1   108.3000464 339.740800
   1075   1073   1076     1   108.3000464 339.740800
   1077   1079   1081     1   108.8800464 416.726400
   1077   1079   1082     1   108.8800464 416.726400
   1078   1077   1079     1   117.6800502 383.254400
   1079   1080   1083     1   110.5600475 386.601600
   1079   1080   1084     1   110.5600475 386.601600
   1080   1079   1081     1   109.5600471 388.275200
   1080   1079   1082     1   109.5600471 388.275200
   1080   1085   1086     1   110.1100470 384.091200
   1080   1085   1087     1   110.1100470 384.091200
   1080   1085   1088     1   110.1100470 384.091200
   1081   1079   1082     1   108.4600466 328.025600
   1083   1080   1085     1   108.0100461 406.684800
   1083   1080   1084     1   109.7500473 328.025600
   1084   1080   1085     1   108.0100461 406.684800
   1086   1085   1087     1   108.3000464 339.740800
   1086   1085   1088     1   108.3000464 339.740800
   1087   1085   1088     1   108.3000464 339.740800
   1089   1091   1093     1   108.8800464 416.726400
   1089   1091   1094     1   108.8800464 416.726400
   1090   1089   1091     1   117.6800502 383.254400
   1091   1092   1095     1   110.5600475 386.601600
   1091   1092   1096     1   110.5600475 386.601600
   1092   1097   1098     1   110.1100470 384.091200
   1092   1097   1099     1   110.1100470 384.091200
   1092   1097   1100     1   110.1100470 384.091200
   1092   1091   1093     1   109.5600471 388.275200
   1092   1091   1094     1   109.5600471 388.275200
   1093   1091   1094     1   108.4600466 328.025600
   1095   1092   1097     1   108.0100461 406.684800
   1095   1092   1096     1   109.7500473 328.025600
   1096   1092   1097     1   108.0100461 406.684800
   1098   1097   1099     1   108.3000464 339.740800
   1098   1097   1100     1   108.3000464 339.740800
   1099   1097   1100     1   108.3000464 339.740800
   1101   1103   1105     1   108.8800464 416.726400
   1101   1103   1106     1   108.8800464 416.726400
   1102   1101   1103     1   117.6800502 383.254400
   1103   1104   1107     1   110.5600475 386.601600
   1103   1104   1108     1   110.5600475 386.601600
   1104   1103   1105     1   109.5600471 388.275200
   1104   1103   1106     1   109.5600471 388.275200
   1104   1109   1110     1   110.1100470 384.091200
   1104   1109   1111     1   110.1100470 384.091200
   1104   1109   1112     1   110.1100470 384.091200
   1105   1103   1106     1   108.4600466 328.025600
   1107   1104   1109     1   108.0100461 406.684800
   1107   1104   1108     1   109.7500473 328.025600
   1108   1104   1109     1   108.0100461 406.684800
   1110   1109   1111     1   108.3000464 339.740800
   1110   1109   1112     1   108.3000464 339.740800
   1111   1109   1112     1   108.3000464 339.740800
   1113   1115   1117     1   108.8800464 416.726400
   1113   1115   1118     1   108.8800464 416.726400
   1114   1113   1115     1   117.6800502 383.254400
   1115   1116   1119     1   110.5600475 386.601600
   1115   1116   1120     1   110.5600475 386.601600
   1116   1121   1122     1   110.1100470 384.091200
   1116   1121   1123     1   110.1100470 384.091200
   1116   1121   1124     1   110.1100470 384.091200
   1116   1115   1117     1   109.5600471 388.275200
   1116   1115   1118     1   109.5600471 388.275200
   1117   1115   1118     1   108.4600466 328.025600
   1119   1116   1121     1   108.0100461 406.684800
   1119   1116   1120     1   109.7500473 328.025600
   1120   1116   1121     1   108.0100461 406.684800
   1122   1121   1123     1   108.3000464 339.740800
   1122   1121   1124     1   108.3000464 339.740800
   1123   1121   1124     1   108.3000464 339.740800

[ dihedrals ]
;    ai     aj     ak     al funct         c0         c1         c2         c3         c4         c5
      1      4      7     15     1  180.0000771  2.0083200  2
      1      4      7     15     1  0.0000000  1.2552000  3
      1      4      7     18     1  180.0000771  2.0083200  2
      1      4      7     18     1  0.0000000  1.2552000  3
      1      8      9     30     1  180.0000771  2.0083200  2
      1      8      9     30     1  0.0000000  1.2552000  3
      1      8     12     27     1  180.0000771  2.0083200  2
      1      8     12     27     1  0.0000000  1.2552000  3
      4      1      8      9     1  180.0000771  2.0083200  2
      4      1      8      9     1  0.0000000  1.2552000  3
      4      1      8     12     1  180.0000771  2.0083200  2
      4      1      8     12     1  0.0000000  1.2552000  3
      4      7     15     21     1  180.0000771  2.0083200  2
      4      7     15     21     1  0.0000000  1.2552000  3
      4      7     18     24     1  180.0000771  2.0083200  2
      4      7     18     24     1  0.0000000  1.2552000  3
      8      1      4      7     1  0.0000000  0.6508444  3
      7     15     21     35     1  0.0000000  0.6508444  3
      7     18     24     36     1  0.0000000  0.6508444  3
      8      9     30     34     1  0.0000000  0.6508444  3
      8     12     27     33     1  0.0000000  0.6508444  3
      9      8     12     27     1  180.0000771  2.0083200  2
      9      8     12     27     1  0.0000000  1.2552000  3
      9     30     34     40     1  180.0000771  0.0000000  2
      9     30     34     89     1  0.0000000  0.2928800  2
      9     30     34     89     1  0.0000000  0.4184000  4
     12      8      9     30     1  180.0000771  2.0083200  2
     12      8      9     30     1  0.0000000  1.2552000  3
     12     27     33     37     1  180.0000771  0.0000000  2
     12     27     33     64     1  0.0000000  0.2928800  2
     12     27     33     64     1  0.0000000  0.4184000  4
     15      7     18     24     1  180.0000771  2.0083200  2
     15      7     18     24     1  0.0000000  1.2552000  3
     15     21     35     38     1  180.0000771  0.0000000  2
     15     21     35    114     1  0.0000000  0.2928800  2
     15     21     35    114     1  0.0000000  0.4184000  4
     18      7     15     21     1  180.0000771  2.0083200  2
     18      7     15     21     1  0.0000000  1.2552000  3
     18     24     36     39     1  180.0000771  0.0000000  2
     18     24     36    139     1  0.0000000  0.2928800  2
     18     24     36    139     1  0.0000000  0.4184000  4
     21     35    114     94     1  180.0000771  6.2760000  1
     21     35    114     94     1  0.0000000  0.0000000  2
     24     36    139    119     1  180.0000771  6.2760000  1
     24     36    139    119     1  0.0000000  0.0000000  2
     27     33     64     44     1  180.0000771  6.2760000  1
     27     33     64     44     1  0.0000000  0.0000000  2
     30     34     89     69     1  180.0000771  6.2760000  1
     30     34     89     69     1  0.0000000  0.0000000  2
     33     64     44     41     1  0.0000000  2.2175200  1
     33     64     44     41     1  0.0000000  0.0000000  2
     33     64     44     41     1  180.0000771  0.6276000  3
     33     64     44     41     1  180.0000771  2.0920000  4
     34     89     69     66     1  0.0000000  2.2175200  1
     34     89     69     66     1  0.0000000  0.0000000  2
     34     89     69     66     1  180.0000771  0.6276000  3
     34     89     69     66     1  180.0000771  2.0920000  4
     35    114     94     91     1  0.0000000  2.2175200  1
     35    114     94     91     1  0.0000000  0.0000000  2
     35    114     94     91     1  180.0000771  0.6276000  3
     35    114     94     91     1  180.0000771  2.0920000  4
     36    139    119    116     1  0.0000000  2.2175200  1
     36    139    119    116     1  0.0000000  0.0000000  2
     36    139    119    116     1  180.0000771  0.6276000  3
     36    139    119    116     1  180.0000771  2.0920000  4
     37     33     64     44     1  180.0000771  10.4600000  2
     38     35    114     94     1  180.0000771  10.4600000  2
     39     36    139    119     1  180.0000771  10.4600000  2
     40     34     89     69     1  180.0000771  10.4600000  2
     41     47     48     57     1  180.0000771  2.0083200  2
     41     47     48     57     1  0.0000000  1.2552000  3
     41     47     51     54     1  180.0000771  2.0083200  2
     41     47     51     54     1  0.0000000  1.2552000  3
     44     41     47     48     1  180.0000771  2.0083200  2
     44     41     47     48     1  0.0000000  1.2552000  3
     44     41     47     51     1  180.0000771  2.0083200  2
     44     41     47     51     1  0.0000000  1.2552000  3
     47     41     44     64     1  0.0000000  0.6508444  3
     47     48     57     61     1  0.0000000  0.6508444  3
     47     51     54     60     1  0.0000000  0.6508444  3
     48     47     51     54     1  180.0000771  2.0083200  2
     48     47     51     54     1  0.0000000  1.2552000  3
     48     57     61     63     1  180.0000771  0.0000000  2
     48     57     61    189     1  0.0000000  0.2928800  2
     48     57     61    189     1  0.0000000  0.4184000  4
     51     47     48     57     1  180.0000771  2.0083200  2
     51     47     48     57     1  0.0000000  1.2552000  3
     51     54     60     62     1  180.0000771  0.0000000  2
     51     54     60    164     1  0.0000000  0.2928800  2
     51     54     60    164     1  0.0000000  0.4184000  4
     54     60    164    144     1  180.0000771  6.2760000  1
     54     60    164    144     1  0.0000000  0.0000000  2
     57     61    189    169     1  180.0000771  6.2760000  1
     57     61    189    169     1  0.0000000  0.0000000  2
     60    164    144    141     1  0.0000000  2.2175200  1
     60    164    144    141     1  0.0000000  0.0000000  2
     60    164    144    141     1  180.0000771  0.6276000  3
     60    164    144    141     1  180.0000771  2.0920000  4
     61    189    169    166     1  0.0000000  2.2175200  1
     61    189    169    166     1  0.0000000  0.0000000  2
     61    189    169    166     1  180.0000771  0.6276000  3
     61    189    169    166     1  180.0000771  2.0920000  4
     62     60    164    144     1  180.0000771  10.4600000  2
     63     61    189    169     1  180.0000771  10.4600000  2
     66     72     73     82     1  180.0000771  2.0083200  2
     66     72     73     82     1  0.0000000  1.2552000  3
     66     72     76     79     1  180.0000771  2.0083200  2
     66     72     76     79     1  0.0000000  1.2552000  3
     69     66     72     73     1  180.0000771  2.0083200  2
     69     66     72     73     1  0.0000000  1.2552000  3
     69     66     72     76     1  180.0000771  2.0083200  2
     69     66     72     76     1  0.0000000  1.2552000  3
     72     66     69     89     1  0.0000000  0.6508444  3
     72     73     82     86     1  0.0000000  0.6508444  3
     72     76     79     85     1  0.0000000  0.6508444  3
     73     72     76     79     1  180.0000771  2.0083200  2
     73     72     76     79     1  0.0000000  1.2552000  3
     73     82     86     88     1  180.0000771  0.0000000  2
     73     82     86    239     1  0.0000000  0.2928800  2
     73     82     86    239     1  0.0000000  0.4184000  4
     76     72     73     82     1  180.0000771  2.0083200  2
     76     72     73     82     1  0.0000000  1.2552000  3
     76     79     85     87     1  180.0000771  0.0000000  2
     76     79     85    214     1  0.0000000  0.2928800  2
     76     79     85    214     1  0.0000000  0.4184000  4
     79     85    214    194     1  180.0000771  6.2760000  1
     79     85    214    194     1  0.0000000  0.0000000  2
     82     86    239    219     1  180.0000771  6.2760000  1
     82     86    239    219     1  0.0000000  0.0000000  2
     85    214    194    191     1  0.0000000  2.2175200  1
     85    214    194    191     1  0.0000000  0.0000000  2
     85    214    194    191     1  180.0000771  0.6276000  3
     85    214    194    191     1  180.0000771  2.0920000  4
     86    239    219    216     1  0.0000000  2.2175200  1
     86    239    219    216     1  0.0000000  0.0000000  2
     86    239    219    216     1  180.0000771  0.6276000  3
     86    239    219    216     1  180.0000771  2.0920000  4
     87     85    214    194     1  180.0000771  10.4600000  2
     88     86    239    219     1  180.0000771  10.4600000  2
     91     97     98    107     1  180.0000771  2.0083200  2
     91     97     98    107     1  0.0000000  1.2552000  3
     91     97    101    104     1  180.0000771  2.0083200  2
     91     97    101    104     1  0.0000000  1.2552000  3
     94     91     97     98     1  180.0000771  2.0083200  2
     94     91     97     98     1  0.0000000  1.2552000  3
     94     91     97    101     1  180.0000771  2.0083200  2
     94     91     97    101     1  0.0000000  1.2552000  3
     97     91     94    114     1  0.0000000  0.6508444  3
     97     98    107    111     1  0.0000000  0.6508444  3
     97    101    104    110     1  0.0000000  0.6508444  3
     98     97    101    104     1  180.0000771  2.0083200  2
     98     97    101    104     1  0.0000000  1.2552000  3
     98    107    111    113     1  180.0000771  0.0000000  2
     98    107    111    289     1  0.0000000  0.2928800  2
     98    107    111    289     1  0.0000000  0.4184000  4
    101     97     98    107     1  180.0000771  2.0083200  2
    101     97     98    107     1  0.0000000  1.2552000  3
    101    104    110    112     1  180.0000771  0.0000000  2
    101    104    110    264     1  0.0000000  0.2928800  2
    101    104    110    264     1  0.0000000  0.4184000  4
    104    110    264    244     1  180.0000771  6.2760000  1
    104    110    264    244     1  0.0000000  0.0000000  2
    107    111    289    269     1  180.0000771  6.2760000  1
    107    111    289    269     1  0.0000000  0.0000000  2
    110    264    244    241     1  0.0000000  2.2175200  1
    110    264    244    241     1  0.0000000  0.0000000  2
    110    264    244    241     1  180.0000771  0.6276000  3
    110    264    244    241     1  180.0000771  2.0920000  4
    111    289    269    266     1  0.0000000  2.2175200  1
    111    289    269    266     1  0.0000000  0.0000000  2
    111    289    269    266     1  180.0000771  0.6276000  3
    111    289    269    266     1  180.0000771  2.0920000  4
    112    110    264    244     1  180.0000771  10.4600000  2
    113    111    289    269     1  180.0000771  10.4600000  2
    116    122    123    132     1  180.0000771  2.0083200  2
    116    122    123    132     1  0.0000000  1.2552000  3
    116    122    126    129     1  180.0000771  2.0083200  2
    116    122    126    129     1  0.0000000  1.2552000  3
    119    116    122    123     1  180.0000771  2.0083200  2
    119    116    122    123     1  0.0000000  1.2552000  3
    119    116    122    126     1  180.0000771  2.0083200  2
    119    116    122    126     1  0.0000000  1.2552000  3
    122    116    119    139     1  0.0000000  0.6508444  3
    122    123    132    136     1  0.0000000  0.6508444  3
    122    126    129    135     1  0.0000000  0.6508444  3
    123    122    126    129     1  180.0000771  2.0083200  2
    123    122    126    129     1  0.0000000  1.2552000  3
    123    132    136    138     1  180.0000771  0.0000000  2
    123    132    136    339     1  0.0000000  0.2928800  2
    123    132    136    339     1  0.0000000  0.4184000  4
    126    122    123    132     1  180.0000771  2.0083200  2
    126    122    123    132     1  0.0000000  1.2552000  3
    126    129    135    137     1  180.0000771  0.0000000  2
    126    129    135    314     1  0.0000000  0.2928800  2
    126    129    135    314     1  0.0000000  0.4184000  4
    129    135    314    294     1  180.0000771  6.2760000  1
    129    135    314    294     1  0.0000000  0.0000000  2
    132    136    339    319     1  180.0000771  6.2760000  1
    132    136    339    319     1  0.0000000  0.0000000  2
    135    314    294    291     1  0.0000000  2.2175200  1
    135    314    294    291     1  0.0000000  0.0000000  2
    135    314    294    291     1  180.0000771  0.6276000  3
    135    314    294    291     1  180.0000771  2.0920000  4
    136    339    319    316     1  0.0000000  2.2175200  1
    136    339    319    316     1  0.0000000  0.0000000  2
    136    339    319    316     1  180.0000771  0.6276000  3
    136    339    319    316     1  180.0000771  2.0920000  4
    137    135    314    294     1  180.0000771  10.4600000  2
    138    136    339    319     1  180.0000771  10.4600000  2
    141    147    148    157     1  180.0000771  2.0083200  2
    141    147    148    157     1  0.0000000  1.2552000  3
    141    147    151    154     1  180.0000771  2.0083200  2
    141    147    151    154     1  0.0000000  1.2552000  3
    144    141    147    148     1  180.0000771  2.0083200  2
    144    141    147    148     1  0.0000000  1.2552000  3
    144    141    147    151     1  180.0000771  2.0083200  2
    144    141    147    151     1  0.0000000  1.2552000  3
    147    141    144    164     1  0.0000000  0.6508444  3
    147    148    157    161     1  0.0000000  0.6508444  3
    147    151    154    160     1  0.0000000  0.6508444  3
    148    147    151    154     1  180.0000771  2.0083200  2
    148    147    151    154     1  0.0000000  1.2552000  3
    148    157    161    163     1  180.0000771  0.0000000  2
    148    157    161    389     1  0.0000000  0.2928800  2
    148    157    161    389     1  0.0000000  0.4184000  4
    151    147    148    157     1  180.0000771  2.0083200  2
    151    147    148    157     1  0.0000000  1.2552000  3
    151    154    160    162     1  180.0000771  0.0000000  2
    151    154    160    364     1  0.0000000  0.2928800  2
    151    154    160    364     1  0.0000000  0.4184000  4
    154    160    364    344     1  180.0000771  6.2760000  1
    154    160    364    344     1  0.0000000  0.0000000  2
    157    161    389    369     1  180.0000771  6.2760000  1
    157    161    389    369     1  0.0000000  0.0000000  2
    160    364    344    341     1  0.0000000  2.2175200  1
    160    364    344    341     1  0.0000000  0.0000000  2
    160    364    344    341     1  180.0000771  0.6276000  3
    160    364    344    341     1  180.0000771  2.0920000  4
    161    389    369    366     1  0.0000000  2.2175200  1
    161    389    369    366     1  0.0000000  0.0000000  2
    161    389    369    366     1  180.0000771  0.6276000  3
    161    389    369    366     1  180.0000771  2.0920000  4
    162    160    364    344     1  180.0000771  10.4600000  2
    163    161    389    369     1  180.0000771  10.4600000  2
    166    172    173    182     1  180.0000771  2.0083200  2
    166    172    173    182     1  0.0000000  1.2552000  3
    166    172    176    179     1  180.0000771  2.0083200  2
    166    172    176    179     1  0.0000000  1.2552000  3
    169    166    172    173     1  180.0000771  2.0083200  2
    169    166    172    173     1  0.0000000  1.2552000  3
    169    166    172    176     1  180.0000771  2.0083200  2
    169    166    172    176     1  0.0000000  1.2552000  3
    172    166    169    189     1  0.0000000  0.6508444  3
    172    173    182    186     1  0.0000000  0.6508444  3
    172    176    179    185     1  0.0000000  0.6508444  3
    173    172    176    179     1  180.0000771  2.0083200  2
    173    172    176    179     1  0.0000000  1.2552000  3
    173    182    186    188     1  180.0000771  0.0000000  2
    173    182    186    439     1  0.0000000  0.2928800  2
    173    182    186    439     1  0.0000000  0.4184000  4
    176    172    173    182     1  180.0000771  2.0083200  2
    176    172    173    182     1  0.0000000  1.2552000  3
    176    179    185    187     1  180.0000771  0.0000000  2
    176    179    185    414     1  0.0000000  0.2928800  2
    176    179    185    414     1  0.0000000  0.4184000  4
    179    185    414    394     1  180.0000771  6.2760000  1
    179    185    414    394     1  0.0000000  0.0000000  2
    182    186    439    419     1  180.0000771  6.2760000  1
    182    186    439    419     1  0.0000000  0.0000000  2
    185    414    394    391     1  0.0000000  2.2175200  1
    185    414    394    391     1  0.0000000  0.0000000  2
    185    414    394    391     1  180.0000771  0.6276000  3
    185    414    394    391     1  180.0000771  2.0920000  4
    186    439    419    416     1  0.0000000  2.2175200  1
    186    439    419    416     1  0.0000000  0.0000000  2
    186    439    419    416     1  180.0000771  0.6276000  3
    186    439    419    416     1  180.0000771  2.0920000  4
    187    185    414    394     1  180.0000771  10.4600000  2
    188    186    439    419     1  180.0000771  10.4600000  2
    191    197    198    207     1  180.0000771  2.0083200  2
    191    197    198    207     1  0.0000000  1.2552000  3
    191    197    201    204     1  180.0000771  2.0083200  2
    191    197    201    204     1  0.0000000  1.2552000  3
    194    191    197    198     1  180.0000771  2.0083200  2
    194    191    197    198     1  0.0000000  1.2552000  3
    194    191    197    201     1  180.0000771  2.0083200  2
    194    191    197    201     1  0.0000000  1.2552000  3
    197    191    194    214     1  0.0000000  0.6508444  3
    197    198    207    211     1  0.0000000  0.6508444  3
    197    201    204    210     1  0.0000000  0.6508444  3
    198    197    201    204     1  180.0000771  2.0083200  2
    198    197    201    204     1  0.0000000  1.2552000  3
    198    207    211    213     1  180.0000771  0.0000000  2
    198    207    211    489     1  0.0000000  0.2928800  2
    198    207    211    489     1  0.0000000  0.4184000  4
    201    197    198    207     1  180.0000771  2.0083200  2
    201    197    198    207     1  0.0000000  1.2552000  3
    201    204    210    212     1  180.0000771  0.0000000  2
    201    204    210    464     1  0.0000000  0.2928800  2
    201    204    210    464     1  0.0000000  0.4184000  4
    204    210    464    444     1  180.0000771  6.2760000  1
    204    210    464    444     1  0.0000000  0.0000000  2
    207    211    489    469     1  180.0000771  6.2760000  1
    207    211    489    469     1  0.0000000  0.0000000  2
    210    464    444    441     1  0.0000000  2.2175200  1
    210    464    444    441     1  0.0000000  0.0000000  2
    210    464    444    441     1  180.0000771  0.6276000  3
    210    464    444    441     1  180.0000771  2.0920000  4
    211    489    469    466     1  0.0000000  2.2175200  1
    211    489    469    466     1  0.0000000  0.0000000  2
    211    489    469    466     1  180.0000771  0.6276000  3
    211    489    469    466     1  180.0000771  2.0920000  4
    212    210    464    444     1  180.0000771  10.4600000  2
    213    211    489    469     1  180.0000771  10.4600000  2
    216    222    223    232     1  180.0000771  2.0083200  2
    216    222    223    232     1  0.0000000  1.2552000  3
    216    222    226    229     1  180.0000771  2.0083200  2
    216    222    226    229     1  0.0000000  1.2552000  3
    219    216    222    223     1  180.0000771  2.0083200  2
    219    216    222    223     1  0.0000000  1.2552000  3
    219    216    222    226     1  180.0000771  2.0083200  2
    219    216    222    226     1  0.0000000  1.2552000  3
    222    216    219    239     1  0.0000000  0.6508444  3
    222    223    232    236     1  0.0000000  0.6508444  3
    222    226    229    235     1  0.0000000  0.6508444  3
    223    222    226    229     1  180.0000771  2.0083200  2
    223    222    226    229     1  0.0000000  1.2552000  3
    223    232    236    238     1  180.0000771  0.0000000  2
    223    232    236    539     1  0.0000000  0.2928800  2
    223    232    236    539     1  0.0000000  0.4184000  4
    226    222    223    232     1  180.0000771  2.0083200  2
    226    222    223    232     1  0.0000000  1.2552000  3
    226    229    235    237     1  180.0000771  0.0000000  2
    226    229    235    514     1  0.0000000  0.2928800  2
    226    229    235    514     1  0.0000000  0.4184000  4
    229    235    514    494     1  180.0000771  6.2760000  1
    229    235    514    494     1  0.0000000  0.0000000  2
    232    236    539    519     1  180.0000771  6.2760000  1
    232    236    539    519     1  0.0000000  0.0000000  2
    235    514    494    491     1  0.0000000  2.2175200  1
    235    514    494    491     1  0.0000000  0.0000000  2
    235    514    494    491     1  180.0000771  0.6276000  3
    235    514    494    491     1  180.0000771  2.0920000  4
    236    539    519    516     1  0.0000000  2.2175200  1
    236    539    519    516     1  0.0000000  0.0000000  2
    236    539    519    516     1  180.0000771  0.6276000  3
    236    539    519    516     1  180.0000771  2.0920000  4
    237    235    514    494     1  180.0000771  10.4600000  2
    238    236    539    519     1  180.0000771  10.4600000  2
    241    247    248    257     1  180.0000771  2.0083200  2
    241    247    248    257     1  0.0000000  1.2552000  3
    241    247    251    254     1  180.0000771  2.0083200  2
    241    247    251    254     1  0.0000000  1.2552000  3
    244    241    247    248     1  180.0000771  2.0083200  2
    244    241    247    248     1  0.0000000  1.2552000  3
    244    241    247    251     1  180.0000771  2.0083200  2
    244    241    247    251     1  0.0000000  1.2552000  3
    247    241    244    264     1  0.0000000  0.6508444  3
    247    248    257    261     1  0.0000000  0.6508444  3
    247    251    254    260     1  0.0000000  0.6508444  3
    248    247    251    254     1  180.0000771  2.0083200  2
    248    247    251    254     1  0.0000000  1.2552000  3
    248    257    261    263     1  180.0000771  0.0000000  2
    248    257    261    589     1  0.0000000  0.2928800  2
    248    257    261    589     1  0.0000000  0.4184000  4
    251    247    248    257     1  180.0000771  2.0083200  2
    251    247    248    257     1  0.0000000  1.2552000  3
    251    254    260    262     1  180.0000771  0.0000000  2
    251    254    260    564     1  0.0000000  0.2928800  2
    251    254    260    564     1  0.0000000  0.4184000  4
    254    260    564    544     1  180.0000771  6.2760000  1
    254    260    564    544     1  0.0000000  0.0000000  2
    257    261    589    569     1  180.0000771  6.2760000  1
    257    261    589    569     1  0.0000000  0.0000000  2
    260    564    544    541     1  0.0000000  2.2175200  1
    260    564    544    541     1  0.0000000  0.0000000  2
    260    564    544    541     1  180.0000771  0.6276000  3
    260    564    544    541     1  180.0000771  2.0920000  4
    261    589    569    566     1  0.0000000  2.2175200  1
    261    589    569    566     1  0.0000000  0.0000000  2
    261    589    569    566     1  180.0000771  0.6276000  3
    261    589    569    566     1  180.0000771  2.0920000  4
    262    260    564    544     1  180.0000771  10.4600000  2
    263    261    589    569     1  180.0000771  10.4600000  2
    266    272    273    282     1  180.0000771  2.0083200  2
    266    272    273    282     1  0.0000000  1.2552000  3
    266    272    276    279     1  180.0000771  2.0083200  2
    266    272    276    279     1  0.0000000  1.2552000  3
    269    266    272    273     1  180.0000771  2.0083200  2
    269    266    272    273     1  0.0000000  1.2552000  3
    269    266    272    276     1  180.0000771  2.0083200  2
    269    266    272    276     1  0.0000000  1.2552000  3
    272    266    269    289     1  0.0000000  0.6508444  3
    272    273    282    286     1  0.0000000  0.6508444  3
    272    276    279    285     1  0.0000000  0.6508444  3
    273    272    276    279     1  180.0000771  2.0083200  2
    273    272    276    279     1  0.0000000  1.2552000  3
    273    282    286    288     1  180.0000771  0.0000000  2
    273    282    286    639     1  0.0000000  0.2928800  2
    273    282    286    639     1  0.0000000  0.4184000  4
    276    272    273    282     1  180.0000771  2.0083200  2
    276    272    273    282     1  0.0000000  1.2552000  3
    276    279    285    287     1  180.0000771  0.0000000  2
    276    279    285    614     1  0.0000000  0.2928800  2
    276    279    285    614     1  0.0000000  0.4184000  4
    279    285    614    594     1  180.0000771  6.2760000  1
    279    285    614    594     1  0.0000000  0.0000000  2
    282    286    639    619     1  180.0000771  6.2760000  1
    282    286    639    619     1  0.0000000  0.0000000  2
    285    614    594    591     1  0.0000000  2.2175200  1
    285    614    594    591     1  0.0000000  0.0000000  2
    285    614    594    591     1  180.0000771  0.6276000  3
    285    614    594    591     1  180.0000771  2.0920000  4
    286    639    619    616     1  0.0000000  2.2175200  1
    286    639    619    616     1  0.0000000  0.0000000  2
    286    639    619    616     1  180.0000771  0.6276000  3
    286    639    619    616     1  180.0000771  2.0920000  4
    287    285    614    594     1  180.0000771  10.4600000  2
    288    286    639    619     1  180.0000771  10.4600000  2
    291    297    298    307     1  180.0000771  2.0083200  2
    291    297    298    307     1  0.0000000  1.2552000  3
    291    297    301    304     1  180.0000771  2.0083200  2
    291    297    301    304     1  0.0000000  1.2552000  3
    294    291    297    298     1  180.0000771  2.0083200  2
    294    291    297    298     1  0.0000000  1.2552000  3
    294    291    297    301     1  180.0000771  2.0083200  2
    294    291    297    301     1  0.0000000  1.2552000  3
    297    291    294    314     1  0.0000000  0.6508444  3
    297    298    307    311     1  0.0000000  0.6508444  3
    297    301    304    310     1  0.0000000  0.6508444  3
    298    297    301    304     1  180.0000771  2.0083200  2
    298    297    301    304     1  0.0000000  1.2552000  3
    298    307    311    313     1  180.0000771  0.0000000  2
    298    307    311    689     1  0.0000000  0.2928800  2
    298    307    311    689     1  0.0000000  0.4184000  4
    301    297    298    307     1  180.0000771  2.0083200  2
    301    297    298    307     1  0.0000000  1.2552000  3
    301    304    310    312     1  180.0000771  0.0000000  2
    301    304    310    664     1  0.0000000  0.2928800  2
    301    304    310    664     1  0.0000000  0.4184000  4
    304    310    664    644     1  180.0000771  6.2760000  1
    304    310    664    644     1  0.0000000  0.0000000  2
    307    311    689    669     1  180.0000771  6.2760000  1
    307    311    689    669     1  0.0000000  0.0000000  2
    310    664    644    641     1  0.0000000  2.2175200  1
    310    664    644    641     1  0.0000000  0.0000000  2
    310    664    644    641     1  180.0000771  0.6276000  3
    310    664    644    641     1  180.0000771  2.0920000  4
    311    689    669    666     1  0.0000000  2.2175200  1
    311    689    669    666     1  0.0000000  0.0000000  2
    311    689    669    666     1  180.0000771  0.6276000  3
    311    689    669    666     1  180.0000771  2.0920000  4
    312    310    664    644     1  180.0000771  10.4600000  2
    313    311    689    669     1  180.0000771  10.4600000  2
    316    322    323    332     1  180.0000771  2.0083200  2
    316    322    323    332     1  0.0000000  1.2552000  3
    316    322    326    329     1  180.0000771  2.0083200  2
    316    322    326    329     1  0.0000000  1.2552000  3
    319    316    322    323     1  180.0000771  2.0083200  2
    319    316    322    323     1  0.0000000  1.2552000  3
    319    316    322    326     1  180.0000771  2.0083200  2
    319    316    322    326     1  0.0000000  1.2552000  3
    322    316    319    339     1  0.0000000  0.6508444  3
    322    323    332    336     1  0.0000000  0.6508444  3
    322    326    329    335     1  0.0000000  0.6508444  3
    323    322    326    329     1  180.0000771  2.0083200  2
    323    322    326    329     1  0.0000000  1.2552000  3
    323    332    336    338     1  180.0000771  0.0000000  2
    323    332    336    739     1  0.0000000  0.2928800  2
    323    332    336    739     1  0.0000000  0.4184000  4
    326    322    323    332     1  180.0000771  2.0083200  2
    326    322    323    332     1  0.0000000  1.2552000  3
    326    329    335    337     1  180.0000771  0.0000000  2
    326    329    335    714     1  0.0000000  0.2928800  2
    326    329    335    714     1  0.0000000  0.4184000  4
    329    335    714    694     1  180.0000771  6.2760000  1
    329    335    714    694     1  0.0000000  0.0000000  2
    332    336    739    719     1  180.0000771  6.2760000  1
    332    336    739    719     1  0.0000000  0.0000000  2
    335    714    694    691     1  0.0000000  2.2175200  1
    335    714    694    691     1  0.0000000  0.0000000  2
    335    714    694    691     1  180.0000771  0.6276000  3
    335    714    694    691     1  180.0000771  2.0920000  4
    336    739    719    716     1  0.0000000  2.2175200  1
    336    739    719    716     1  0.0000000  0.0000000  2
    336    739    719    716     1  180.0000771  0.6276000  3
    336    739    719    716     1  180.0000771  2.0920000  4
    337    335    714    694     1  180.0000771  10.4600000  2
    338    336    739    719     1  180.0000771  10.4600000  2
    341    347    348    357     1  180.0000771  2.0083200  2
    341    347    348    357     1  0.0000000  1.2552000  3
    341    347    351    354     1  180.0000771  2.0083200  2
    341    347    351    354     1  0.0000000  1.2552000  3
    344    341    347    348     1  180.0000771  2.0083200  2
    344    341    347    348     1  0.0000000  1.2552000  3
    344    341    347    351     1  180.0000771  2.0083200  2
    344    341    347    351     1  0.0000000  1.2552000  3
    347    341    344    364     1  0.0000000  0.6508444  3
    347    348    357    361     1  0.0000000  0.6508444  3
    347    351    354    360     1  0.0000000  0.6508444  3
    348    347    351    354     1  180.0000771  2.0083200  2
    348    347    351    354     1  0.0000000  1.2552000  3
    348    357    361    363     1  180.0000771  0.0000000  2
    348    357    361    753     1  0.0000000  0.2928800  2
    348    357    361    753     1  0.0000000  0.4184000  4
    351    347    348    357     1  180.0000771  2.0083200  2
    351    347    348    357     1  0.0000000  1.2552000  3
    351    354    360    741     1  0.0000000  0.2928800  2
    351    354    360    741     1  0.0000000  0.4184000  4
    351    354    360    362     1  180.0000771  0.0000000  2
    354    360    741    743     1  180.0000771  6.2760000  1
    354    360    741    743     1  0.0000000  0.0000000  2
    357    361    753    755     1  180.0000771  6.2760000  1
    357    361    753    755     1  0.0000000  0.0000000  2
    360    741    743    744     1  0.0000000  2.2175200  1
    360    741    743    744     1  0.0000000  0.0000000  2
    360    741    743    744     1  180.0000771  0.6276000  3
    360    741    743    744     1  180.0000771  2.0920000  4
    361    753    755    756     1  0.0000000  2.2175200  1
    361    753    755    756     1  0.0000000  0.0000000  2
    361    753    755    756     1  180.0000771  0.6276000  3
    361    753    755    756     1  180.0000771  2.0920000  4
    362    360    741    743     1  180.0000771  10.4600000  2
    363    361    753    755     1  180.0000771  10.4600000  2
    366    372    373    382     1  180.0000771  2.0083200  2
    366    372    373    382     1  0.0000000  1.2552000  3
    366    372    376    379     1  180.0000771  2.0083200  2
    366    372    376    379     1  0.0000000  1.2552000  3
    369    366    372    373     1  180.0000771  2.0083200  2
    369    366    372    373     1  0.0000000  1.2552000  3
    369    366    372    376     1  180.0000771  2.0083200  2
    369    366    372    376     1  0.0000000  1.2552000  3
    372    366    369    389     1  0.0000000  0.6508444  3
    372    373    382    386     1  0.0000000  0.6508444  3
    372    376    379    385     1  0.0000000  0.6508444  3
    373    372    376    379     1  180.0000771  2.0083200  2
    373    372    376    379     1  0.0000000  1.2552000  3
    373    382    386    388     1  180.0000771  0.0000000  2
    373    382    386    777     1  0.0000000  0.2928800  2
    373    382    386    777     1  0.0000000  0.4184000  4
    376    372    373    382     1  180.0000771  2.0083200  2
    376    372    373    382     1  0.0000000  1.2552000  3
    376    379    385    765     1  0.0000000  0.2928800  2
    376    379    385    765     1  0.0000000  0.4184000  4
    376    379    385    387     1  180.0000771  0.0000000  2
    379    385    765    767     1  180.0000771  6.2760000  1
    379    385    765    767     1  0.0000000  0.0000000  2
    382    386    777    779     1  180.0000771  6.2760000  1
    382    386    777    779     1  0.0000000  0.0000000  2
    385    765    767    768     1  0.0000000  2.2175200  1
    385    765    767    768     1  0.0000000  0.0000000  2
    385    765    767    768     1  180.0000771  0.6276000  3
    385    765    767    768     1  180.0000771  2.0920000  4
    386    777    779    780     1  0.0000000  2.2175200  1
    386    777    779    780     1  0.0000000  0.0000000  2
    386    777    779    780     1  180.0000771  0.6276000  3
    386    777    779    780     1  180.0000771  2.0920000  4
    387    385    765    767     1  180.0000771  10.4600000  2
    388    386    777    779     1  180.0000771  10.4600000  2
    391    397    398    407     1  180.0000771  2.0083200  2
    391    397    398    407     1  0.0000000  1.2552000  3
    391    397    401    404     1  180.0000771  2.0083200  2
    391    397    401    404     1  0.0000000  1.2552000  3
    394    391    397    398     1  180.0000771  2.0083200  2
    394    391    397    398     1  0.0000000  1.2552000  3
    394    391    397    401     1  180.0000771  2.0083200  2
    394    391    397    401     1  0.0000000  1.2552000  3
    397    391    394    414     1  0.0000000  0.6508444  3
    397    398    407    411     1  0.0000000  0.6508444  3
    397    401    404    410     1  0.0000000  0.6508444  3
    398    397    401    404     1  180.0000771  2.0083200  2
    398    397    401    404     1  0.0000000  1.2552000  3
    398    407    411    413     1  180.0000771  0.0000000  2
    398    407    411    801     1  0.0000000  0.2928800  2
    398    407    411    801     1  0.0000000  0.4184000  4
    401    397    398    407     1  180.0000771  2.0083200  2
    401    397    398    407     1  0.0000000  1.2552000  3
    401    404    410    789     1  0.0000000  0.2928800  2
    401    404    410    789     1  0.0000000  0.4184000  4
    401    404    410    412     1  180.0000771  0.0000000  2
    404    410    789    791     1  180.0000771  6.2760000  1
    404    410    789    791     1  0.0000000  0.0000000  2
    407    411    801    803     1  180.0000771  6.2760000  1
    407    411    801    803     1  0.0000000  0.0000000  2
    410    789    791    792     1  0.0000000  2.2175200  1
    410    789    791    792     1  0.0000000  0.0000000  2
    410    789    791    792     1  180.0000771  0.6276000  3
    410    789    791    792     1  180.0000771  2.0920000  4
    411    801    803    804     1  0.0000000  2.2175200  1
    411    801    803    804     1  0.0000000  0.0000000  2
    411    801    803    804     1  180.0000771  0.6276000  3
    411    801    803    804     1  180.0000771  2.0920000  4
    412    410    789    791     1  180.0000771  10.4600000  2
    413    411    801    803     1  180.0000771  10.4600000  2
    416    422    423    432     1  180.0000771  2.0083200  2
    416    422    423    432     1  0.0000000  1.2552000  3
    416    422    426    429     1  180.0000771  2.0083200  2
    416    422    426    429     1  0.0000000  1.2552000  3
    419    416    422    423     1  180.0000771  2.0083200  2
    419    416    422    423     1  0.0000000  1.2552000  3
    419    416    422    426     1  180.0000771  2.0083200  2
    419    416    422    426     1  0.0000000  1.2552000  3
    422    416    419    439     1  0.0000000  0.6508444  3
    422    423    432    436     1  0.0000000  0.6508444  3
    422    426    429    435     1  0.0000000  0.6508444  3
    423    422    426    429     1  180.0000771  2.0083200  2
    423    422    426    429     1  0.0000000  1.2552000  3
    423    432    436    438     1  180.0000771  0.0000000  2
    423    432    436    825     1  0.0000000  0.2928800  2
    423    432    436    825     1  0.0000000  0.4184000  4
    426    422    423    432     1  180.0000771  2.0083200  2
    426    422    423    432     1  0.0000000  1.2552000  3
    426    429    435    813     1  0.0000000  0.2928800  2
    426    429    435    813     1  0.0000000  0.4184000  4
    426    429    435    437     1  180.0000771  0.0000000  2
    429    435    813    815     1  180.0000771  6.2760000  1
    429    435    813    815     1  0.0000000  0.0000000  2
    432    436    825    827     1  180.0000771  6.2760000  1
    432    436    825    827     1  0.0000000  0.0000000  2
    435    813    815    816     1  0.0000000  2.2175200  1
    435    813    815    816     1  0.0000000  0.0000000  2
    435    813    815    816     1  180.0000771  0.6276000  3
    435    813    815    816     1  180.0000771  2.0920000  4
    436    825    827    828     1  0.0000000  2.2175200  1
    436    825    827    828     1  0.0000000  0.0000000  2
    436    825    827    828     1  180.0000771  0.6276000  3
    436    825    827    828     1  180.0000771  2.0920000  4
    437    435    813    815     1  180.0000771  10.4600000  2
    438    436    825    827     1  180.0000771  10.4600000  2
    441    447    448    457     1  180.0000771  2.0083200  2
    441    447    448    457     1  0.0000000  1.2552000  3
    441    447    451    454     1  180.0000771  2.0083200  2
    441    447    451    454     1  0.0000000  1.2552000  3
    444    441    447    448     1  180.0000771  2.0083200  2
    444    441    447    448     1  0.0000000  1.2552000  3
    444    441    447    451     1  180.0000771  2.0083200  2
    444    441    447    451     1  0.0000000  1.2552000  3
    447    441    444    464     1  0.0000000  0.6508444  3
    447    448    457    461     1  0.0000000  0.6508444  3
    447    451    454    460     1  0.0000000  0.6508444  3
    448    447    451    454     1  180.0000771  2.0083200  2
    448    447    451    454     1  0.0000000  1.2552000  3
    448    457    461    463     1  180.0000771  0.0000000  2
    448    457    461    849     1  0.0000000  0.2928800  2
    448    457    461    849     1  0.0000000  0.4184000  4
    451    447    448    457     1  180.0000771  2.0083200  2
    451    447    448    457     1  0.0000000  1.2552000  3
    451    454    460    837     1  0.0000000  0.2928800  2
    451    454    460    837     1  0.0000000  0.4184000  4
    451    454    460    462     1  180.0000771  0.0000000  2
    454    460    837    839     1  180.0000771  6.2760000  1
    454    460    837    839     1  0.0000000  0.0000000  2
    457    461    849    851     1  180.0000771  6.2760000  1
    457    461    849    851     1  0.0000000  0.0000000  2
    460    837    839    840     1  0.0000000  2.2175200  1
    460    837    839    840     1  0.0000000  0.0000000  2
    460    837    839    840     1  180.0000771  0.6276000  3
    460    837    839    840     1  180.0000771  2.0920000  4
    461    849    851    852     1  0.0000000  2.2175200  1
    461    849    851    852     1  0.0000000  0.0000000  2
    461    849    851    852     1  180.0000771  0.6276000  3
    461    849    851    852     1  180.0000771  2.0920000  4
    462    460    837    839     1  180.0000771  10.4600000  2
    463    461    849    851     1  180.0000771  10.4600000  2
    466    472    473    482     1  180.0000771  2.0083200  2
    466    472    473    482     1  0.0000000  1.2552000  3
    466    472    476    479     1  180.0000771  2.0083200  2
    466    472    476    479     1  0.0000000  1.2552000  3
    469    466    472    473     1  180.0000771  2.0083200  2
    469    466    472    473     1  0.0000000  1.2552000  3
    469    466    472    476     1  180.0000771  2.0083200  2
    469    466    472    476     1  0.0000000  1.2552000  3
    472    466    469    489     1  0.0000000  0.6508444  3
    472    473    482    486     1  0.0000000  0.6508444  3
    472    476    479    485     1  0.0000000  0.6508444  3
    473    472    476    479     1  180.0000771  2.0083200  2
    473    472    476    479     1  0.0000000  1.2552000  3
    473    482    486    488     1  180.0000771  0.0000000  2
    473    482    486    873     1  0.0000000  0.2928800  2
    473    482    486    873     1  0.0000000  0.4184000  4
    476    472    473    482     1  180.0000771  2.0083200  2
    476    472    473    482     1  0.0000000  1.2552000  3
    476    479    485    861     1  0.0000000  0.2928800  2
    476    479    485    861     1  0.0000000  0.4184000  4
    476    479    485    487     1  180.0000771  0.0000000  2
    479    485    861    863     1  180.0000771  6.2760000  1
    479    485    861    863     1  0.0000000  0.0000000  2
    482    486    873    875     1  180.0000771  6.2760000  1
    482    486    873    875     1  0.0000000  0.0000000  2
    485    861    863    864     1  0.0000000  2.2175200  1
    485    861    863    864     1  0.0000000  0.0000000  2
    485    861    863    864     1  180.0000771  0.6276000  3
    485    861    863    864     1  180.0000771  2.0920000  4
    486    873    875    876     1  0.0000000  2.2175200  1
    486    873    875    876     1  0.0000000  0.0000000  2
    486    873    875    876     1  180.0000771  0.6276000  3
    486    873    875    876     1  180.0000771  2.0920000  4
    487    485    861    863     1  180.0000771  10.4600000  2
    488    486    873    875     1  180.0000771  10.4600000  2
    491    497    498    507     1  180.0000771  2.0083200  2
    491    497    498    507     1  0.0000000  1.2552000  3
    491    497    501    504     1  180.0000771  2.0083200  2
    491    497    501    504     1  0.0000000  1.2552000  3
    494    491    497    498     1  180.0000771  2.0083200  2
    494    491    497    498     1  0.0000000  1.2552000  3
    494    491    497    501     1  180.0000771  2.0083200  2
    494    491    497    501     1  0.0000000  1.2552000  3
    497    491    494    514     1  0.0000000  0.6508444  3
    497    498    507    511     1  0.0000000  0.6508444  3
    497    501    504    510     1  0.0000000  0.6508444  3
    498    497    501    504     1  180.0000771  2.0083200  2
    498    497    501    504     1  0.0000000  1.2552000  3
    498    507    511    513     1  180.0000771  0.0000000  2
    498    507    511    897     1  0.0000000  0.2928800  2
    498    507    511    897     1  0.0000000  0.4184000  4
    501    497    498    507     1  180.0000771  2.0083200  2
    501    497    498    507     1  0.0000000  1.2552000  3
    501    504    510    885     1  0.0000000  0.2928800  2
    501    504    510    885     1  0.0000000  0.4184000  4
    501    504    510    512     1  180.0000771  0.0000000  2
    504    510    885    887     1  180.0000771  6.2760000  1
    504    510    885    887     1  0.0000000  0.0000000  2
    507    511    897    899     1  180.0000771  6.2760000  1
    507    511    897    899     1  0.0000000  0.0000000  2
    510    885    887    888     1  0.0000000  2.2175200  1
    510    885    887    888     1  0.0000000  0.0000000  2
    510    885    887    888     1  180.0000771  0.6276000  3
    510    885    887    888     1  180.0000771  2.0920000  4
    511    897    899    900     1  0.0000000  2.2175200  1
    511    897    899    900     1  0.0000000  0.0000000  2
    511    897    899    900     1  180.0000771  0.6276000  3
    511    897    899    900     1  180.0000771  2.0920000  4
    512    510    885    887     1  180.0000771  10.4600000  2
    513    511    897    899     1  180.0000771  10.4600000  2
    516    522    523    532     1  180.0000771  2.0083200  2
    516    522    523    532     1  0.0000000  1.2552000  3
    516    522    526    529     1  180.0000771  2.0083200  2
    516    522    526    529     1  0.0000000  1.2552000  3
    519    516    522    523     1  180.0000771  2.0083200  2
    519    516    522    523     1  0.0000000  1.2552000  3
    519    516    522    526     1  180.0000771  2.0083200  2
    519    516    522    526     1  0.0000000  1.2552000  3
    522    516    519    539     1  0.0000000  0.6508444  3
    522    523    532    536     1  0.0000000  0.6508444  3
    522    526    529    535     1  0.0000000  0.6508444  3
    523    522    526    529     1  180.0000771  2.0083200  2
    523    522    526    529     1  0.0000000  1.2552000  3
    523    532    536    538     1  180.0000771  0.0000000  2
    523    532    536    921     1  0.0000000  0.2928800  2
    523    532    536    921     1  0.0000000  0.4184000  4
    526    522    523    532     1  180.0000771  2.0083200  2
    526    522    523    532     1  0.0000000  1.2552000  3
    526    529    535    909     1  0.0000000  0.2928800  2
    526    529    535    909     1  0.0000000  0.4184000  4
    526    529    535    537     1  180.0000771  0.0000000  2
    529    535    909    911     1  180.0000771  6.2760000  1
    529    535    909    911     1  0.0000000  0.0000000  2
    532    536    921    923     1  180.0000771  6.2760000  1
    532    536    921    923     1  0.0000000  0.0000000  2
    535    909    911    912     1  0.0000000  2.2175200  1
    535    909    911    912     1  0.0000000  0.0000000  2
    535    909    911    912     1  180.0000771  0.6276000  3
    535    909    911    912     1  180.0000771  2.0920000  4
    536    921    923    924     1  0.0000000  2.2175200  1
    536    921    923    924     1  0.0000000  0.0000000  2
    536    921    923    924     1  180.0000771  0.6276000  3
    536    921    923    924     1  180.0000771  2.0920000  4
    537    535    909    911     1  180.0000771  10.4600000  2
    538    536    921    923     1  180.0000771  10.4600000  2
    541    547    548    557     1  180.0000771  2.0083200  2
    541    547    548    557     1  0.0000000  1.2552000  3
    541    547    551    554     1  180.0000771  2.0083200  2
    541    547    551    554     1  0.0000000  1.2552000  3
    544    541    547    548     1  180.0000771  2.0083200  2
    544    541    547    548     1  0.0000000  1.2552000  3
    544    541    547    551     1  180.0000771  2.0083200  2
    544    541    547    551     1  0.0000000  1.2552000  3
    547    541    544    564     1  0.0000000  0.6508444  3
    547    548    557    561     1  0.0000000  0.6508444  3
    547    551    554    560     1  0.0000000  0.6508444  3
    548    547    551    554     1  180.0000771  2.0083200  2
    548    547    551    554     1  0.0000000  1.2552000  3
    548    557    561    563     1  180.0000771  0.0000000  2
    548    557    561    945     1  0.0000000  0.2928800  2
    548    557    561    945     1  0.0000000  0.4184000  4
    551    547    548    557     1  180.0000771  2.0083200  2
    551    547    548    557     1  0.0000000  1.2552000  3
    551    554    560    933     1  0.0000000  0.2928800  2
    551    554    560    933     1  0.0000000  0.4184000  4
    551    554    560    562     1  180.0000771  0.0000000  2
    554    560    933    935     1  180.0000771  6.2760000  1
    554    560    933    935     1  0.0000000  0.0000000  2
    557    561    945    947     1  180.0000771  6.2760000  1
    557    561    945    947     1  0.0000000  0.0000000  2
    560    933    935    936     1  0.0000000  2.2175200  1
    560    933    935    936     1  0.0000000  0.0000000  2
    560    933    935    936     1  180.0000771  0.6276000  3
    560    933    935    936     1  180.0000771  2.0920000  4
    561    945    947    948     1  0.0000000  2.2175200  1
    561    945    947    948     1  0.0000000  0.0000000  2
    561    945    947    948     1  180.0000771  0.6276000  3
    561    945    947    948     1  180.0000771  2.0920000  4
    562    560    933    935     1  180.0000771  10.4600000  2
    563    561    945    947     1  180.0000771  10.4600000  2
    566    572    573    582     1  180.0000771  2.0083200  2
    566    572    573    582     1  0.0000000  1.2552000  3
    566    572    576    579     1  180.0000771  2.0083200  2
    566    572    576    579     1  0.0000000  1.2552000  3
    569    566    572    573     1  180.0000771  2.0083200  2
    569    566    572    573     1  0.0000000  1.2552000  3
    569    566    572    576     1  180.0000771  2.0083200  2
    569    566    572    576     1  0.0000000  1.2552000  3
    572    566    569    589     1  0.0000000  0.6508444  3
    572    573    582    586     1  0.0000000  0.6508444  3
    572    576    579    585     1  0.0000000  0.6508444  3
    573    572    576    579     1  180.0000771  2.0083200  2
    573    572    576    579     1  0.0000000  1.2552000  3
    573    582    586    588     1  180.0000771  0.0000000  2
    573    582    586    969     1  0.0000000  0.2928800  2
    573    582    586    969     1  0.0000000  0.4184000  4
    576    572    573    582     1  180.0000771  2.0083200  2
    576    572    573    582     1  0.0000000  1.2552000  3
    576    579    585    957     1  0.0000000  0.2928800  2
    576    579    585    957     1  0.0000000  0.4184000  4
    576    579    585    587     1  180.0000771  0.0000000  2
    579    585    957    959     1  180.0000771  6.2760000  1
    579    585    957    959     1  0.0000000  0.0000000  2
    582    586    969    971     1  180.0000771  6.2760000  1
    582    586    969    971     1  0.0000000  0.0000000  2
    585    957    959    960     1  0.0000000  2.2175200  1
    585    957    959    960     1  0.0000000  0.0000000  2
    585    957    959    960     1  180.0000771  0.6276000  3
    585    957    959    960     1  180.0000771  2.0920000  4
    586    969    971    972     1  0.0000000  2.2175200  1
    586    969    971    972     1  0.0000000  0.0000000  2
    586    969    971    972     1  180.0000771  0.6276000  3
    586    969    971    972     1  180.0000771  2.0920000  4
    587    585    957    959     1  180.0000771  10.4600000  2
    588    586    969    971     1  180.0000771  10.4600000  2
    591    597    598    607     1  180.0000771  2.0083200  2
    591    597    598    607     1  0.0000000  1.2552000  3
    591    597    601    604     1  180.0000771  2.0083200  2
    591    597    601    604     1  0.0000000  1.2552000  3
    594    591    597    598     1  180.0000771  2.0083200  2
    594    591    597    598     1  0.0000000  1.2552000  3
    594    591    597    601     1  180.0000771  2.0083200  2
    594    591    597    601     1  0.0000000  1.2552000  3
    597    591    594    614     1  0.0000000  0.6508444  3
    597    598    607    611     1  0.0000000  0.6508444  3
    597    601    604    610     1  0.0000000  0.6508444  3
    598    597    601    604     1  180.0000771  2.0083200  2
    598    597    601    604     1  0.0000000  1.2552000  3
    598    607    611    613     1  180.0000771  0.0000000  2
    598    607    611    993     1  0.0000000  0.2928800  2
    598    607    611    993     1  0.0000000  0.4184000  4
    601    597    598    607     1  180.0000771  2.0083200  2
    601    597    598    607     1  0.0000000  1.2552000  3
    601    604    610    981     1  0.0000000  0.2928800  2
    601    604    610    981     1  0.0000000  0.4184000  4
    601    604    610    612     1  180.0000771  0.0000000  2
    604    610    981    983     1  180.0000771  6.2760000  1
    604    610    981    983     1  0.0000000  0.0000000  2
    607    611    993    995     1  180.0000771  6.2760000  1
    607    611    993    995     1  0.0000000  0.0000000  2
    610    981    983    984     1  0.0000000  2.2175200  1
    610    981    983    984     1  0.0000000  0.0000000  2
    610    981    983    984     1  180.0000771  0.6276000  3
    610    981    983    984     1  180.0000771  2.0920000  4
    611    993    995    996     1  0.0000000  2.2175200  1
    611    993    995    996     1  0.0000000  0.0000000  2
    611    993    995    996     1  180.0000771  0.6276000  3
    611    993    995    996     1  180.0000771  2.0920000  4
    612    610    981    983     1  180.0000771  10.4600000  2
    613    611    993    995     1  180.0000771  10.4600000  2
    616    622    623    632     1  180.0000771  2.0083200  2
    616    622    623    632     1  0.0000000  1.2552000  3
    616    622    626    629     1  180.0000771  2.0083200  2
    616    622    626    629     1  0.0000000  1.2552000  3
    619    616    622    623     1  180.0000771  2.0083200  2
    619    616    622    623     1  0.0000000  1.2552000  3
    619    616    622    626     1  180.0000771  2.0083200  2
    619    616    622    626     1  0.0000000  1.2552000  3
    622    616    619    639     1  0.0000000  0.6508444  3
    622    623    632    636     1  0.0000000  0.6508444  3
    622    626    629    635     1  0.0000000  0.6508444  3
    623    622    626    629     1  180.0000771  2.0083200  2
    623    622    626    629     1  0.0000000  1.2552000  3
    623    632    636    638     1  180.0000771  0.0000000  2
    623    632    636   1017     1  0.0000000  0.2928800  2
    623    632    636   1017     1  0.0000000  0.4184000  4
    626    622    623    632     1  180.0000771  2.0083200  2
    626    622    623    632     1  0.0000000  1.2552000  3
    626    629    635   1005     1  0.0000000  0.2928800  2
    626    629    635   1005     1  0.0000000  0.4184000  4
    626    629    635    637     1  180.0000771  0.0000000  2
    629    635   1005   1007     1  180.0000771  6.2760000  1
    629    635   1005   1007     1  0.0000000  0.0000000  2
    632    636   1017   1019     1  180.0000771  6.2760000  1
    632    636   1017   1019     1  0.0000000  0.0000000  2
    635   1005   1007   1008     1  0.0000000  2.2175200  1
    635   1005   1007   1008     1  0.0000000  0.0000000  2
    635   1005   1007   1008     1  180.0000771  0.6276000  3
    635   1005   1007   1008     1  180.0000771  2.0920000  4
    636   1017   1019   1020     1  0.0000000  2.2175200  1
    636   1017   1019   1020     1  0.0000000  0.0000000  2
    636   1017   1019   1020     1  180.0000771  0.6276000  3
    636   1017   1019   1020     1  180.0000771  2.0920000  4
    637    635   1005   1007     1  180.0000771  10.4600000  2
    638    636   1017   1019     1  180.0000771  10.4600000  2
    641    647    648    657     1  180.0000771  2.0083200  2
    641    647    648    657     1  0.0000000  1.2552000  3
    641    647    651    654     1  180.0000771  2.0083200  2
    641    647    651    654     1  0.0000000  1.2552000  3
    644    641    647    648     1  180.0000771  2.0083200  2
    644    641    647    648     1  0.0000000  1.2552000  3
    644    641    647    651     1  180.0000771  2.0083200  2
    644    641    647    651     1  0.0000000  1.2552000  3
    647    641    644    664     1  0.0000000  0.6508444  3
    647    648    657    661     1  0.0000000  0.6508444  3
    647    651    654    660     1  0.0000000  0.6508444  3
    648    647    651    654     1  180.0000771  2.0083200  2
    648    647    651    654     1  0.0000000  1.2552000  3
    648    657    661    663     1  180.0000771  0.0000000  2
    648    657    661   1041     1  0.0000000  0.2928800  2
    648    657    661   1041     1  0.0000000  0.4184000  4
    651    647    648    657     1  180.0000771  2.0083200  2
    651    647    648    657     1  0.0000000  1.2552000  3
    651    654    660   1029     1  0.0000000  0.2928800  2
    651    654    660   1029     1  0.0000000  0.4184000  4
    651    654    660    662     1  180.0000771  0.0000000  2
    654    660   1029   1031     1  180.0000771  6.2760000  1
    654    660   1029   1031     1  0.0000000  0.0000000  2
    657    661   1041   1043     1  180.0000771  6.2760000  1
    657    661   1041   1043     1  0.0000000  0.0000000  2
    660   1029   1031   1032     1  0.0000000  2.2175200  1
    660   1029   1031   1032     1  0.0000000  0.0000000  2
    660   1029   1031   1032     1  180.0000771  0.6276000  3
    660   1029   1031   1032     1  180.0000771  2.0920000  4
    661   1041   1043   1044     1  0.0000000  2.2175200  1
    661   1041   1043   1044     1  0.0000000  0.0000000  2
    661   1041   1043   1044     1  180.0000771  0.6276000  3
    661   1041   1043   1044     1  180.0000771  2.0920000  4
    662    660   1029   1031     1  180.0000771  10.4600000  2
    663    661   1041   1043     1  180.0000771  10.4600000  2
    666    672    673    682     1  180.0000771  2.0083200  2
    666    672    673    682     1  0.0000000  1.2552000  3
    666    672    676    679     1  180.0000771  2.0083200  2
    666    672    676    679     1  0.0000000  1.2552000  3
    669    666    672    673     1  180.0000771  2.0083200  2
    669    666    672    673     1  0.0000000  1.2552000  3
    669    666    672    676     1  180.0000771  2.0083200  2
    669    666    672    676     1  0.0000000  1.2552000  3
    672    666    669    689     1  0.0000000  0.6508444  3
    672    673    682    686     1  0.0000000  0.6508444  3
    672    676    679    685     1  0.0000000  0.6508444  3
    673    672    676    679     1  180.0000771  2.0083200  2
    673    672    676    679     1  0.0000000  1.2552000  3
    673    682    686    688     1  180.0000771  0.0000000  2
    673    682    686   1065     1  0.0000000  0.2928800  2
    673    682    686   1065     1  0.0000000  0.4184000  4
    676    672    673    682     1  180.0000771  2.0083200  2
    676    672    673    682     1  0.0000000  1.2552000  3
    676    679    685   1053     1  0.0000000  0.2928800  2
    676    679    685   1053     1  0.0000000  0.4184000  4
    676    679    685    687     1  180.0000771  0.0000000  2
    679    685   1053   1055     1  180.0000771  6.2760000  1
    679    685   1053   1055     1  0.0000000  0.0000000  2
    682    686   1065   1067     1  180.0000771  6.2760000  1
    682    686   1065   1067     1  0.0000000  0.0000000  2
    685   1053   1055   1056     1  0.0000000  2.2175200  1
    685   1053   1055   1056     1  0.0000000  0.0000000  2
    685   1053   1055   1056     1  180.0000771  0.6276000  3
    685   1053   1055   1056     1  180.0000771  2.0920000  4
    686   1065   1067   1068     1  0.0000000  2.2175200  1
    686   1065   1067   1068     1  0.0000000  0.0000000  2
    686   1065   1067   1068     1  180.0000771  0.6276000  3
    686   1065   1067   1068     1  180.0000771  2.0920000  4
    687    685   1053   1055     1  180.0000771  10.4600000  2
    688    686   1065   1067     1  180.0000771  10.4600000  2
    691    697    698    707     1  180.0000771  2.0083200  2
    691    697    698    707     1  0.0000000  1.2552000  3
    691    697    701    704     1  180.0000771  2.0083200  2
    691    697    701    704     1  0.0000000  1.2552000  3
    694    691    697    698     1  180.0000771  2.0083200  2
    694    691    697    698     1  0.0000000  1.2552000  3
    694    691    697    701     1  180.0000771  2.0083200  2
    694    691    697    701     1  0.0000000  1.2552000  3
    697    691    694    714     1  0.0000000  0.6508444  3
    697    698    707    711     1  0.0000000  0.6508444  3
    697    701    704    710     1  0.0000000  0.6508444  3
    698    697    701    704     1  180.0000771  2.0083200  2
    698    697    701    704     1  0.0000000  1.2552000  3
    698    707    711    713     1  180.0000771  0.0000000  2
    698    707    711   1089     1  0.0000000  0.2928800  2
    698    707    711   1089     1  0.0000000  0.4184000  4
    701    697    698    707     1  180.0000771  2.0083200  2
    701    697    698    707     1  0.0000000  1.2552000  3
    701    704    710   1077     1  0.0000000  0.2928800  2
    701    704    710   1077     1  0.0000000  0.4184000  4
    701    704    710    712     1  180.0000771  0.0000000  2
    704    710   1077   1079     1  180.0000771  6.2760000  1
    704    710   1077   1079     1  0.0000000  0.0000000  2
    707    711   1089   1091     1  180.0000771  6.2760000  1
    707    711   1089   1091     1  0.0000000  0.0000000  2
    710   1077   1079   1080     1  0.0000000  2.2175200  1
    710   1077   1079   1080     1  0.0000000  0.0000000  2
    710   1077   1079   1080     1  180.0000771  0.6276000  3
    710   1077   1079   1080     1  180.0000771  2.0920000  4
    711   1089   1091   1092     1  0.0000000  2.2175200  1
    711   1089   1091   1092     1  0.0000000  0.0000000  2
    711   1089   1091   1092     1  180.0000771  0.6276000  3
    711   1089   1091   1092     1  180.0000771  2.0920000  4
    712    710   1077   1079     1  180.0000771  10.4600000  2
    713    711   1089   1091     1  180.0000771  10.4600000  2
    716    722    723    732     1  180.0000771  2.0083200  2
    716    722    723    732     1  0.0000000  1.2552000  3
    716    722    726    729     1  180.0000771  2.0083200  2
    716    722    726    729     1  0.0000000  1.2552000  3
    719    716    722    723     1  180.0000771  2.0083200  2
    719    716    722    723     1  0.0000000  1.2552000  3
    719    716    722    726     1  180.0000771  2.0083200  2
    719    716    722    726     1  0.0000000  1.2552000  3
    722    716    719    739     1  0.0000000  0.6508444  3
    722    723    732    736     1  0.0000000  0.6508444  3
    722    726    729    735     1  0.0000000  0.6508444  3
    723    722    726    729     1  180.0000771  2.0083200  2
    723    722    726    729     1  0.0000000  1.2552000  3
    723    732    736   1113     1  0.0000000  0.2928800  2
    723    732    736   1113     1  0.0000000  0.4184000  4
    723    732    736    738     1  180.0000771  0.0000000  2
    726    722    723    732     1  180.0000771  2.0083200  2
    726    722    723    732     1  0.0000000  1.2552000  3
    726    729    735   1101     1  0.0000000  0.2928800  2
    726    729    735   1101     1  0.0000000  0.4184000  4
    726    729    735    737     1  180.0000771  0.0000000  2
    729    735   1101   1103     1  180.0000771  6.2760000  1
    729    735   1101   1103     1  0.0000000  0.0000000  2
    732    736   1113   1115     1  180.0000771  6.2760000  1
    732    736   1113   1115     1  0.0000000  0.0000000  2
    735   1101   1103   1104     1  0.0000000  2.2175200  1
    735   1101   1103   1104     1  0.0000000  0.0000000  2
    735   1101   1103   1104     1  180.0000771  0.6276000  3
    735   1101   1103   1104     1  180.0000771  2.0920000  4
    736   1113   1115   1116     1  0.0000000  2.2175200  1
    736   1113   1115   1116     1  0.0000000  0.0000000  2
    736   1113   1115   1116     1  180.0000771  0.6276000  3
    736   1113   1115   1116     1  180.0000771  2.0920000  4
    737    735   1101   1103     1  180.0000771  10.4600000  2
    738    736   1113   1115     1  180.0000771  10.4600000  2
    741    743    744    749     1  0.0000000  0.6508444  3
    753    755    756    761     1  0.0000000  0.6508444  3
    765    767    768    773     1  0.0000000  0.6508444  3
    777    779    780    785     1  0.0000000  0.6508444  3
    789    791    792    797     1  0.0000000  0.6508444  3
    801    803    804    809     1  0.0000000  0.6508444  3
    813    815    816    821     1  0.0000000  0.6508444  3
    825    827    828    833     1  0.0000000  0.6508444  3
    837    839    840    845     1  0.0000000  0.6508444  3
    849    851    852    857     1  0.0000000  0.6508444  3
    861    863    864    869     1  0.0000000  0.6508444  3
    873    875    876    881     1  0.0000000  0.6508444  3
    885    887    888    893     1  0.0000000  0.6508444  3
    897    899    900    905     1  0.0000000  0.6508444  3
    909    911    912    917     1  0.0000000  0.6508444  3
    921    923    924    929     1  0.0000000  0.6508444  3
    933    935    936    941     1  0.0000000  0.6508444  3
    945    947    948    953     1  0.0000000  0.6508444  3
    957    959    960    965     1  0.0000000  0.6508444  3
    969    971    972    977     1  0.0000000  0.6508444  3
    981    983    984    989     1  0.0000000  0.6508444  3
    993    995    996   1001     1  0.0000000  0.6508444  3
   1005   1007   1008   1013     1  0.0000000  0.6508444  3
   1017   1019   1020   1025     1  0.0000000  0.6508444  3
   1029   1031   1032   1037     1  0.0000000  0.6508444  3
   1041   1043   1044   1049     1  0.0000000  0.6508444  3
   1053   1055   1056   1061     1  0.0000000  0.6508444  3
   1065   1067   1068   1073     1  0.0000000  0.6508444  3
   1077   1079   1080   1085     1  0.0000000  0.6508444  3
   1089   1091   1092   1097     1  0.0000000  0.6508444  3
   1101   1103   1104   1109     1  0.0000000  0.6508444  3
   1113   1115   1116   1121     1  0.0000000  0.6508444  3
     27     64     33     37     4  180.0000771  43.9320000  2
     30     89     34     40     4  180.0000771  43.9320000  2
     21    114     35     38     4  180.0000771  43.9320000  2
     24    139     36     39     4  180.0000771  43.9320000  2
     54    164     60     62     4  180.0000771  43.9320000  2
     57    189     61     63     4  180.0000771  43.9320000  2
     79    214     85     87     4  180.0000771  43.9320000  2
     82    239     86     88     4  180.0000771  43.9320000  2
    104    264    110    112     4  180.0000771  43.9320000  2
    107    289    111    113     4  180.0000771  43.9320000  2
    129    314    135    137     4  180.0000771  43.9320000  2
    132    339    136    138     4  180.0000771  43.9320000  2
    154    364    160    162     4  180.0000771  43.9320000  2
    157    389    161    163     4  180.0000771  43.9320000  2
    179    414    185    187     4  180.0000771  43.9320000  2
    182    439    186    188     4  180.0000771  43.9320000  2
    204    464    210    212     4  180.0000771  43.9320000  2
    207    489    211    213     4  180.0000771  43.9320000  2
    229    514    235    237     4  180.0000771  43.9320000  2
    232    539    236    238     4  180.0000771  43.9320000  2
    254    564    260    262     4  180.0000771  43.9320000  2
    257    589    261    263     4  180.0000771  43.9320000  2
    279    614    285    287     4  180.0000771  43.9320000  2
    282    639    286    288     4  180.0000771  43.9320000  2
    304    664    310    312     4  180.0000771  43.9320000  2
    307    689    311    313     4  180.0000771  43.9320000  2
    329    714    335    337     4  180.0000771  43.9320000  2
    332    739    336    338     4  180.0000771  43.9320000  2
    354    741    360    362     4  180.0000771  43.9320000  2
    357    753    361    363     4  180.0000771  43.9320000  2
    379    765    385    387     4  180.0000771  43.9320000  2
    382    777    386    388     4  180.0000771  43.9320000  2
    404    789    410    412     4  180.0000771  43.9320000  2
    407    801    411    413     4  180.0000771  43.9320000  2
    429    813    435    437     4  180.0000771  43.9320000  2
    432    825    436    438     4  180.0000771  43.9320000  2
    454    837    460    462     4  180.0000771  43.9320000  2
    457    849    461    463     4  180.0000771  43.9320000  2
    479    861    485    487     4  180.0000771  43.9320000  2
    482    873    486    488     4  180.0000771  43.9320000  2
    504    885    510    512     4  180.0000771  43.9320000  2
    507    897    511    513     4  180.0000771  43.9320000  2
    529    909    535    537     4  180.0000771  43.9320000  2
    532    921    536    538     4  180.0000771  43.9320000  2
    554    933    560    562     4  180.0000771  43.9320000  2
    557    945    561    563     4  180.0000771  43.9320000  2
    579    957    585    587     4  180.0000771  43.9320000  2
    582    969    586    588     4  180.0000771  43.9320000  2
    604    981    610    612     4  180.0000771  43.9320000  2
    607    993    611    613     4  180.0000771  43.9320000  2
    629   1005    635    637     4  180.0000771  43.9320000  2
    632   1017    636    638     4  180.0000771  43.9320000  2
    654   1029    660    662     4  180.0000771  43.9320000  2
    657   1041    661    663     4  180.0000771  43.9320000  2
    679   1053    685    687     4  180.0000771  43.9320000  2
    682   1065    686    688     4  180.0000771  43.9320000  2
    704   1077    710    712     4  180.0000771  43.9320000  2
    707   1089    711    713     4  180.0000771  43.9320000  2
    729   1101    735    737     4  180.0000771  43.9320000  2
    732   1113    736    738     4  180.0000771  43.9320000  2
      1      8      9     10     1  0.0000000  1.2552000  3
      1      8      9     11     1  0.0000000  1.2552000  3
      1      8     12     13     1  0.0000000  1.2552000  3
      1      8     12     14     1  0.0000000  1.2552000  3
      2      1      4      7     1  0.0000000  0.6508444  3
      2      1      4      5     1  0.0000000  0.6508444  3
      2      1      4      6     1  0.0000000  0.6508444  3
      2      1      8      9     1  0.0000000  1.2552000  3
      2      1      8     12     1  0.0000000  1.2552000  3
      3      1      4      7     1  0.0000000  0.6508444  3
      3      1      4      5     1  0.0000000  0.6508444  3
      3      1      4      6     1  0.0000000  0.6508444  3
      3      1      8      9     1  0.0000000  1.2552000  3
      3      1      8     12     1  0.0000000  1.2552000  3
      4      7     15     16     1  0.0000000  1.2552000  3
      4      7     15     17     1  0.0000000  1.2552000  3
      4      7     18     19     1  0.0000000  1.2552000  3
      4      7     18     20     1  0.0000000  1.2552000  3
      8      1      4      5     1  0.0000000  0.6508444  3
      5      4      7     15     1  0.0000000  1.2552000  3
      5      4      7     18     1  0.0000000  1.2552000  3
      8      1      4      6     1  0.0000000  0.6508444  3
      6      4      7     15     1  0.0000000  1.2552000  3
      6      4      7     18     1  0.0000000  1.2552000  3
      7     15     21     22     1  0.0000000  0.6508444  3
      7     15     21     23     1  0.0000000  0.6508444  3
      7     18     24     25     1  0.0000000  0.6508444  3
      7     18     24     26     1  0.0000000  0.6508444  3
      8      9     30     31     1  0.0000000  0.6508444  3
      8      9     30     32     1  0.0000000  0.6508444  3
      8     12     27     28     1  0.0000000  0.6508444  3
      8     12     27     29     1  0.0000000  0.6508444  3
      9      8     12     13     1  0.0000000  1.2552000  3
      9      8     12     14     1  0.0000000  1.2552000  3
     10      9      8     12     1  0.0000000  1.2552000  3
     10      9     30     34     1  0.0000000  0.6508444  3
     10      9     30     31     1  0.0000000  0.6508444  3
     10      9     30     32     1  0.0000000  0.6508444  3
     11      9      8     12     1  0.0000000  1.2552000  3
     11      9     30     34     1  0.0000000  0.6508444  3
     11      9     30     31     1  0.0000000  0.6508444  3
     11      9     30     32     1  0.0000000  0.6508444  3
     13     12     27     33     1  0.0000000  0.6508444  3
     13     12     27     28     1  0.0000000  0.6508444  3
     13     12     27     29     1  0.0000000  0.6508444  3
     14     12     27     33     1  0.0000000  0.6508444  3
     14     12     27     28     1  0.0000000  0.6508444  3
     14     12     27     29     1  0.0000000  0.6508444  3
     15      7     18     19     1  0.0000000  1.2552000  3
     15      7     18     20     1  0.0000000  1.2552000  3
     16     15      7     18     1  0.0000000  1.2552000  3
     16     15     21     35     1  0.0000000  0.6508444  3
     16     15     21     22     1  0.0000000  0.6508444  3
     16     15     21     23     1  0.0000000  0.6508444  3
     17     15      7     18     1  0.0000000  1.2552000  3
     17     15     21     35     1  0.0000000  0.6508444  3
     17     15     21     22     1  0.0000000  0.6508444  3
     17     15     21     23     1  0.0000000  0.6508444  3
     19     18     24     36     1  0.0000000  0.6508444  3
     19     18     24     25     1  0.0000000  0.6508444  3
     19     18     24     26     1  0.0000000  0.6508444  3
     20     18     24     36     1  0.0000000  0.6508444  3
     20     18     24     25     1  0.0000000  0.6508444  3
     20     18     24     26     1  0.0000000  0.6508444  3
     21     35    114    115     1  180.0000771  10.4600000  2
     22     21     35     38     1  0.0000000  3.3472000  1
     22     21     35     38     1  0.0000000  0.0000000  2
     22     21     35     38     1  180.0000771  0.3347200  3
     22     21     35    114     1  180.0000771  0.0000000  2
     23     21     35     38     1  0.0000000  3.3472000  1
     23     21     35     38     1  0.0000000  0.0000000  2
     23     21     35     38     1  180.0000771  0.3347200  3
     23     21     35    114     1  180.0000771  0.0000000  2
     24     36    139    140     1  180.0000771  10.4600000  2
     25     24     36     39     1  0.0000000  3.3472000  1
     25     24     36     39     1  0.0000000  0.0000000  2
     25     24     36     39     1  180.0000771  0.3347200  3
     25     24     36    139     1  180.0000771  0.0000000  2
     26     24     36     39     1  0.0000000  3.3472000  1
     26     24     36     39     1  0.0000000  0.0000000  2
     26     24     36     39     1  180.0000771  0.3347200  3
     26     24     36    139     1  180.0000771  0.0000000  2
     27     33     64     65     1  180.0000771  10.4600000  2
     28     27     33     37     1  0.0000000  3.3472000  1
     28     27     33     37     1  0.0000000  0.0000000  2
     28     27     33     37     1  180.0000771  0.3347200  3
     28     27     33     64     1  180.0000771  0.0000000  2
     29     27     33     37     1  0.0000000  3.3472000  1
     29     27     33     37     1  0.0000000  0.0000000  2
     29     27     33     37     1  180.0000771  0.3347200  3
     29     27     33     64     1  180.0000771  0.0000000  2
     30     34     89     90     1  180.0000771  10.4600000  2
     31     30     34     40     1  0.0000000  3.3472000  1
     31     30     34     40     1  0.0000000  0.0000000  2
     31     30     34     40     1  180.0000771  0.3347200  3
     31     30     34     89     1  180.0000771  0.0000000  2
     32     30     34     40     1  0.0000000  3.3472000  1
     32     30     34     40     1  0.0000000  0.0000000  2
     32     30     34     40     1  180.0000771  0.3347200  3
     32     30     34     89     1  180.0000771  0.0000000  2
     33     64     44     45     1  0.0000000  0.0000000  2
     33     64     44     46     1  0.0000000  0.0000000  2
     34     89     69     70     1  0.0000000  0.0000000  2
     34     89     69     71     1  0.0000000  0.0000000  2
     35    114     94     95     1  0.0000000  0.0000000  2
     35    114     94     96     1  0.0000000  0.0000000  2
     36    139    119    120     1  0.0000000  0.0000000  2
     36    139    119    121     1  0.0000000  0.0000000  2
     37     33     64     65     1  0.0000000  8.3680000  1
     37     33     64     65     1  180.0000771  10.4600000  2
     38     35    114    115     1  0.0000000  8.3680000  1
     38     35    114    115     1  180.0000771  10.4600000  2
     39     36    139    140     1  0.0000000  8.3680000  1
     39     36    139    140     1  180.0000771  10.4600000  2
     40     34     89     90     1  0.0000000  8.3680000  1
     40     34     89     90     1  180.0000771  10.4600000  2
     41     44     64     65     1  0.0000000  0.0000000  2
     41     47     48     49     1  0.0000000  1.2552000  3
     41     47     48     50     1  0.0000000  1.2552000  3
     41     47     51     52     1  0.0000000  1.2552000  3
     41     47     51     53     1  0.0000000  1.2552000  3
     42     41     44     64     1  0.0000000  0.6508444  3
     42     41     44     45     1  0.0000000  0.6508444  3
     42     41     44     46     1  0.0000000  0.6508444  3
     42     41     47     48     1  0.0000000  1.2552000  3
     42     41     47     51     1  0.0000000  1.2552000  3
     43     41     44     64     1  0.0000000  0.6508444  3
     43     41     44     45     1  0.0000000  0.6508444  3
     43     41     44     46     1  0.0000000  0.6508444  3
     43     41     47     48     1  0.0000000  1.2552000  3
     43     41     47     51     1  0.0000000  1.2552000  3
     45     44     41     47     1  0.0000000  0.6508444  3
     45     44     64     65     1  0.0000000  0.0000000  2
     46     44     41     47     1  0.0000000  0.6508444  3
     46     44     64     65     1  0.0000000  0.0000000  2
     47     48     57     58     1  0.0000000  0.6508444  3
     47     48     57     59     1  0.0000000  0.6508444  3
     47     51     54     55     1  0.0000000  0.6508444  3
     47     51     54     56     1  0.0000000  0.6508444  3
     48     47     51     52     1  0.0000000  1.2552000  3
     48     47     51     53     1  0.0000000  1.2552000  3
     49     48     47     51     1  0.0000000  1.2552000  3
     49     48     57     61     1  0.0000000  0.6508444  3
     49     48     57     58     1  0.0000000  0.6508444  3
     49     48     57     59     1  0.0000000  0.6508444  3
     50     48     47     51     1  0.0000000  1.2552000  3
     50     48     57     61     1  0.0000000  0.6508444  3
     50     48     57     58     1  0.0000000  0.6508444  3
     50     48     57     59     1  0.0000000  0.6508444  3
     52     51     54     60     1  0.0000000  0.6508444  3
     52     51     54     55     1  0.0000000  0.6508444  3
     52     51     54     56     1  0.0000000  0.6508444  3
     53     51     54     60     1  0.0000000  0.6508444  3
     53     51     54     55     1  0.0000000  0.6508444  3
     53     51     54     56     1  0.0000000  0.6508444  3
     54     60    164    165     1  180.0000771  10.4600000  2
     55     54     60     62     1  0.0000000  3.3472000  1
     55     54     60     62     1  0.0000000  0.0000000  2
     55     54     60     62     1  180.0000771  0.3347200  3
     55     54     60    164     1  180.0000771  0.0000000  2
     56     54     60     62     1  0.0000000  3.3472000  1
     56     54     60     62     1  0.0000000  0.0000000  2
     56     54     60     62     1  180.0000771  0.3347200  3
     56     54     60    164     1  180.0000771  0.0000000  2
     57     61    189    190     1  180.0000771  10.4600000  2
     58     57     61     63     1  0.0000000  3.3472000  1
     58     57     61     63     1  0.0000000  0.0000000  2
     58     57     61     63     1  180.0000771  0.3347200  3
     58     57     61    189     1  180.0000771  0.0000000  2
     59     57     61     63     1  0.0000000  3.3472000  1
     59     57     61     63     1  0.0000000  0.0000000  2
     59     57     61     63     1  180.0000771  0.3347200  3
     59     57     61    189     1  180.0000771  0.0000000  2
     60    164    144    145     1  0.0000000  0.0000000  2
     60    164    144    146     1  0.0000000  0.0000000  2
     61    189    169    170     1  0.0000000  0.0000000  2
     61    189    169    171     1  0.0000000  0.0000000  2
     62     60    164    165     1  0.0000000  8.3680000  1
     62     60    164    165     1  180.0000771  10.4600000  2
     63     61    189    190     1  0.0000000  8.3680000  1
     63     61    189    190     1  180.0000771  10.4600000  2
     66     69     89     90     1  0.0000000  0.0000000  2
     66     72     73     74     1  0.0000000  1.2552000  3
     66     72     73     75     1  0.0000000  1.2552000  3
     66     72     76     77     1  0.0000000  1.2552000  3
     66     72     76     78     1  0.0000000  1.2552000  3
     67     66     69     89     1  0.0000000  0.6508444  3
     67     66     69     70     1  0.0000000  0.6508444  3
     67     66     69     71     1  0.0000000  0.6508444  3
     67     66     72     73     1  0.0000000  1.2552000  3
     67     66     72     76     1  0.0000000  1.2552000  3
     68     66     69     89     1  0.0000000  0.6508444  3
     68     66     69     70     1  0.0000000  0.6508444  3
     68     66     69     71     1  0.0000000  0.6508444  3
     68     66     72     73     1  0.0000000  1.2552000  3
     68     66     72     76     1  0.0000000  1.2552000  3
     70     69     66     72     1  0.0000000  0.6508444  3
     70     69     89     90     1  0.0000000  0.0000000  2
     71     69     66     72     1  0.0000000  0.6508444  3
     71     69     89     90     1  0.0000000  0.0000000  2
     72     73     82     83     1  0.0000000  0.6508444  3
     72     73     82     84     1  0.0000000  0.6508444  3
     72     76     79     80     1  0.0000000  0.6508444  3
     72     76     79     81     1  0.0000000  0.6508444  3
     73     72     76     77     1  0.0000000  1.2552000  3
     73     72     76     78     1  0.0000000  1.2552000  3
     74     73     72     76     1  0.0000000  1.2552000  3
     74     73     82     86     1  0.0000000  0.6508444  3
     74     73     82     83     1  0.0000000  0.6508444  3
     74     73     82     84     1  0.0000000  0.6508444  3
     75     73     72     76     1  0.0000000  1.2552000  3
     75     73     82     86     1  0.0000000  0.6508444  3
     75     73     82     83     1  0.0000000  0.6508444  3
     75     73     82     84     1  0.0000000  0.6508444  3
     77     76     79     85     1  0.0000000  0.6508444  3
     77     76     79     80     1  0.0000000  0.6508444  3
     77     76     79     81     1  0.0000000  0.6508444  3
     78     76     79     85     1  0.0000000  0.6508444  3
     78     76     79     80     1  0.0000000  0.6508444  3
     78     76     79     81     1  0.0000000  0.6508444  3
     79     85    214    215     1  180.0000771  10.4600000  2
     80     79     85     87     1  0.0000000  3.3472000  1
     80     79     85     87     1  0.0000000  0.0000000  2
     80     79     85     87     1  180.0000771  0.3347200  3
     80     79     85    214     1  180.0000771  0.0000000  2
     81     79     85     87     1  0.0000000  3.3472000  1
     81     79     85     87     1  0.0000000  0.0000000  2
     81     79     85     87     1  180.0000771  0.3347200  3
     81     79     85    214     1  180.0000771  0.0000000  2
     82     86    239    240     1  180.0000771  10.4600000  2
     83     82     86     88     1  0.0000000  3.3472000  1
     83     82     86     88     1  0.0000000  0.0000000  2
     83     82     86     88     1  180.0000771  0.3347200  3
     83     82     86    239     1  180.0000771  0.0000000  2
     84     82     86     88     1  0.0000000  3.3472000  1
     84     82     86     88     1  0.0000000  0.0000000  2
     84     82     86     88     1  180.0000771  0.3347200  3
     84     82     86    239     1  180.0000771  0.0000000  2
     85    214    194    195     1  0.0000000  0.0000000  2
     85    214    194    196     1  0.0000000  0.0000000  2
     86    239    219    220     1  0.0000000  0.0000000  2
     86    239    219    221     1  0.0000000  0.0000000  2
     87     85    214    215     1  0.0000000  8.3680000  1
     87     85    214    215     1  180.0000771  10.4600000  2
     88     86    239    240     1  0.0000000  8.3680000  1
     88     86    239    240     1  180.0000771  10.4600000  2
     91     94    114    115     1  0.0000000  0.0000000  2
     91     97     98     99     1  0.0000000  1.2552000  3
     91     97     98    100     1  0.0000000  1.2552000  3
     91     97    101    102     1  0.0000000  1.2552000  3
     91     97    101    103     1  0.0000000  1.2552000  3
     92     91     94    114     1  0.0000000  0.6508444  3
     92     91     94     95     1  0.0000000  0.6508444  3
     92     91     94     96     1  0.0000000  0.6508444  3
     92     91     97     98     1  0.0000000  1.2552000  3
     92     91     97    101     1  0.0000000  1.2552000  3
     93     91     94    114     1  0.0000000  0.6508444  3
     93     91     94     95     1  0.0000000  0.6508444  3
     93     91     94     96     1  0.0000000  0.6508444  3
     93     91     97     98     1  0.0000000  1.2552000  3
     93     91     97    101     1  0.0000000  1.2552000  3
     95     94     91     97     1  0.0000000  0.6508444  3
     95     94    114    115     1  0.0000000  0.0000000  2
     96     94     91     97     1  0.0000000  0.6508444  3
     96     94    114    115     1  0.0000000  0.0000000  2
     97     98    107    108     1  0.0000000  0.6508444  3
     97     98    107    109     1  0.0000000  0.6508444  3
     97    101    104    105     1  0.0000000  0.6508444  3
     97    101    104    106     1  0.0000000  0.6508444  3
     98     97    101    102     1  0.0000000  1.2552000  3
     98     97    101    103     1  0.0000000  1.2552000  3
     99     98     97    101     1  0.0000000  1.2552000  3
     99     98    107    111     1  0.0000000  0.6508444  3
     99     98    107    108     1  0.0000000  0.6508444  3
     99     98    107    109     1  0.0000000  0.6508444  3
    100     98     97    101     1  0.0000000  1.2552000  3
    100     98    107    111     1  0.0000000  0.6508444  3
    100     98    107    108     1  0.0000000  0.6508444  3
    100     98    107    109     1  0.0000000  0.6508444  3
    102    101    104    110     1  0.0000000  0.6508444  3
    102    101    104    105     1  0.0000000  0.6508444  3
    102    101    104    106     1  0.0000000  0.6508444  3
    103    101    104    110     1  0.0000000  0.6508444  3
    103    101    104    105     1  0.0000000  0.6508444  3
    103    101    104    106     1  0.0000000  0.6508444  3
    104    110    264    265     1  180.0000771  10.4600000  2
    105    104    110    112     1  0.0000000  3.3472000  1
    105    104    110    112     1  0.0000000  0.0000000  2
    105    104    110    112     1  180.0000771  0.3347200  3
    105    104    110    264     1  180.0000771  0.0000000  2
    106    104    110    112     1  0.0000000  3.3472000  1
    106    104    110    112     1  0.0000000  0.0000000  2
    106    104    110    112     1  180.0000771  0.3347200  3
    106    104    110    264     1  180.0000771  0.0000000  2
    107    111    289    290     1  180.0000771  10.4600000  2
    108    107    111    113     1  0.0000000  3.3472000  1
    108    107    111    113     1  0.0000000  0.0000000  2
    108    107    111    113     1  180.0000771  0.3347200  3
    108    107    111    289     1  180.0000771  0.0000000  2
    109    107    111    113     1  0.0000000  3.3472000  1
    109    107    111    113     1  0.0000000  0.0000000  2
    109    107    111    113     1  180.0000771  0.3347200  3
    109    107    111    289     1  180.0000771  0.0000000  2
    110    264    244    245     1  0.0000000  0.0000000  2
    110    264    244    246     1  0.0000000  0.0000000  2
    111    289    269    270     1  0.0000000  0.0000000  2
    111    289    269    271     1  0.0000000  0.0000000  2
    112    110    264    265     1  0.0000000  8.3680000  1
    112    110    264    265     1  180.0000771  10.4600000  2
    113    111    289    290     1  0.0000000  8.3680000  1
    113    111    289    290     1  180.0000771  10.4600000  2
    116    119    139    140     1  0.0000000  0.0000000  2
    116    122    123    124     1  0.0000000  1.2552000  3
    116    122    123    125     1  0.0000000  1.2552000  3
    116    122    126    127     1  0.0000000  1.2552000  3
    116    122    126    128     1  0.0000000  1.2552000  3
    117    116    119    139     1  0.0000000  0.6508444  3
    117    116    119    120     1  0.0000000  0.6508444  3
    117    116    119    121     1  0.0000000  0.6508444  3
    117    116    122    123     1  0.0000000  1.2552000  3
    117    116    122    126     1  0.0000000  1.2552000  3
    118    116    119    139     1  0.0000000  0.6508444  3
    118    116    119    120     1  0.0000000  0.6508444  3
    118    116    119    121     1  0.0000000  0.6508444  3
    118    116    122    123     1  0.0000000  1.2552000  3
    118    116    122    126     1  0.0000000  1.2552000  3
    120    119    116    122     1  0.0000000  0.6508444  3
    120    119    139    140     1  0.0000000  0.0000000  2
    121    119    116    122     1  0.0000000  0.6508444  3
    121    119    139    140     1  0.0000000  0.0000000  2
    122    123    132    133     1  0.0000000  0.6508444  3
    122    123    132    134     1  0.0000000  0.6508444  3
    122    126    129    130     1  0.0000000  0.6508444  3
    122    126    129    131     1  0.0000000  0.6508444  3
    123    122    126    127     1  0.0000000  1.2552000  3
    123    122    126    128     1  0.0000000  1.2552000  3
    124    123    122    126     1  0.0000000  1.2552000  3
    124    123    132    136     1  0.0000000  0.6508444  3
    124    123    132    133     1  0.0000000  0.6508444  3
    124    123    132    134     1  0.0000000  0.6508444  3
    125    123    122    126     1  0.0000000  1.2552000  3
    125    123    132    136     1  0.0000000  0.6508444  3
    125    123    132    133     1  0.0000000  0.6508444  3
    125    123    132    134     1  0.0000000  0.6508444  3
    127    126    129    135     1  0.0000000  0.6508444  3
    127    126    129    130     1  0.0000000  0.6508444  3
    127    126    129    131     1  0.0000000  0.6508444  3
    128    126    129    135     1  0.0000000  0.6508444  3
    128    126    129    130     1  0.0000000  0.6508444  3
    128    126    129    131     1  0.0000000  0.6508444  3
    129    135    314    315     1  180.0000771  10.4600000  2
    130    129    135    137     1  0.0000000  3.3472000  1
    130    129    135    137     1  0.0000000  0.0000000  2
    130    129    135    137     1  180.0000771  0.3347200  3
    130    129    135    314     1  180.0000771  0.0000000  2
    131    129    135    137     1  0.0000000  3.3472000  1
    131    129    135    137     1  0.0000000  0.0000000  2
    131    129    135    137     1  180.0000771  0.3347200  3
    131    129    135    314     1  180.0000771  0.0000000  2
    132    136    339    340     1  180.0000771  10.4600000  2
    133    132    136    138     1  0.0000000  3.3472000  1
    133    132    136    138     1  0.0000000  0.0000000  2
    133    132    136    138     1  180.0000771  0.3347200  3
    133    132    136    339     1  180.0000771  0.0000000  2
    134    132    136    138     1  0.0000000  3.3472000  1
    134    132    136    138     1  0.0000000  0.0000000  2
    134    132    136    138     1  180.0000771  0.3347200  3
    134    132    136    339     1  180.0000771  0.0000000  2
    135    314    294    295     1  0.0000000  0.0000000  2
    135    314    294    296     1  0.0000000  0.0000000  2
    136    339    319    320     1  0.0000000  0.0000000  2
    136    339    319    321     1  0.0000000  0.0000000  2
    137    135    314    315     1  0.0000000  8.3680000  1
    137    135    314    315     1  180.0000771  10.4600000  2
    138    136    339    340     1  0.0000000  8.3680000  1
    138    136    339    340     1  180.0000771  10.4600000  2
    141    144    164    165     1  0.0000000  0.0000000  2
    141    147    148    149     1  0.0000000  1.2552000  3
    141    147    148    150     1  0.0000000  1.2552000  3
    141    147    151    152     1  0.0000000  1.2552000  3
    141    147    151    153     1  0.0000000  1.2552000  3
    142    141    144    164     1  0.0000000  0.6508444  3
    142    141    144    145     1  0.0000000  0.6508444  3
    142    141    144    146     1  0.0000000  0.6508444  3
    142    141    147    148     1  0.0000000  1.2552000  3
    142    141    147    151     1  0.0000000  1.2552000  3
    143    141    144    164     1  0.0000000  0.6508444  3
    143    141    144    145     1  0.0000000  0.6508444  3
    143    141    144    146     1  0.0000000  0.6508444  3
    143    141    147    148     1  0.0000000  1.2552000  3
    143    141    147    151     1  0.0000000  1.2552000  3
    145    144    141    147     1  0.0000000  0.6508444  3
    145    144    164    165     1  0.0000000  0.0000000  2
    146    144    141    147     1  0.0000000  0.6508444  3
    146    144    164    165     1  0.0000000  0.0000000  2
    147    148    157    158     1  0.0000000  0.6508444  3
    147    148    157    159     1  0.0000000  0.6508444  3
    147    151    154    155     1  0.0000000  0.6508444  3
    147    151    154    156     1  0.0000000  0.6508444  3
    148    147    151    152     1  0.0000000  1.2552000  3
    148    147    151    153     1  0.0000000  1.2552000  3
    149    148    147    151     1  0.0000000  1.2552000  3
    149    148    157    161     1  0.0000000  0.6508444  3
    149    148    157    158     1  0.0000000  0.6508444  3
    149    148    157    159     1  0.0000000  0.6508444  3
    150    148    147    151     1  0.0000000  1.2552000  3
    150    148    157    161     1  0.0000000  0.6508444  3
    150    148    157    158     1  0.0000000  0.6508444  3
    150    148    157    159     1  0.0000000  0.6508444  3
    152    151    154    160     1  0.0000000  0.6508444  3
    152    151    154    155     1  0.0000000  0.6508444  3
    152    151    154    156     1  0.0000000  0.6508444  3
    153    151    154    160     1  0.0000000  0.6508444  3
    153    151    154    155     1  0.0000000  0.6508444  3
    153    151    154    156     1  0.0000000  0.6508444  3
    154    160    364    365     1  180.0000771  10.4600000  2
    155    154    160    162     1  0.0000000  3.3472000  1
    155    154    160    162     1  0.0000000  0.0000000  2
    155    154    160    162     1  180.0000771  0.3347200  3
    155    154    160    364     1  180.0000771  0.0000000  2
    156    154    160    162     1  0.0000000  3.3472000  1
    156    154    160    162     1  0.0000000  0.0000000  2
    156    154    160    162     1  180.0000771  0.3347200  3
    156    154    160    364     1  180.0000771  0.0000000  2
    157    161    389    390     1  180.0000771  10.4600000  2
    158    157    161    163     1  0.0000000  3.3472000  1
    158    157    161    163     1  0.0000000  0.0000000  2
    158    157    161    163     1  180.0000771  0.3347200  3
    158    157    161    389     1  180.0000771  0.0000000  2
    159    157    161    163     1  0.0000000  3.3472000  1
    159    157    161    163     1  0.0000000  0.0000000  2
    159    157    161    163     1  180.0000771  0.3347200  3
    159    157    161    389     1  180.0000771  0.0000000  2
    160    364    344    345     1  0.0000000  0.0000000  2
    160    364    344    346     1  0.0000000  0.0000000  2
    161    389    369    370     1  0.0000000  0.0000000  2
    161    389    369    371     1  0.0000000  0.0000000  2
    162    160    364    365     1  0.0000000  8.3680000  1
    162    160    364    365     1  180.0000771  10.4600000  2
    163    161    389    390     1  0.0000000  8.3680000  1
    163    161    389    390     1  180.0000771  10.4600000  2
    166    169    189    190     1  0.0000000  0.0000000  2
    166    172    173    174     1  0.0000000  1.2552000  3
    166    172    173    175     1  0.0000000  1.2552000  3
    166    172    176    177     1  0.0000000  1.2552000  3
    166    172    176    178     1  0.0000000  1.2552000  3
    167    166    169    189     1  0.0000000  0.6508444  3
    167    166    169    170     1  0.0000000  0.6508444  3
    167    166    169    171     1  0.0000000  0.6508444  3
    167    166    172    173     1  0.0000000  1.2552000  3
    167    166    172    176     1  0.0000000  1.2552000  3
    168    166    169    189     1  0.0000000  0.6508444  3
    168    166    169    170     1  0.0000000  0.6508444  3
    168    166    169    171     1  0.0000000  0.6508444  3
    168    166    172    173     1  0.0000000  1.2552000  3
    168    166    172    176     1  0.0000000  1.2552000  3
    170    169    166    172     1  0.0000000  0.6508444  3
    170    169    189    190     1  0.0000000  0.0000000  2
    171    169    166    172     1  0.0000000  0.6508444  3
    171    169    189    190     1  0.0000000  0.0000000  2
    172    173    182    183     1  0.0000000  0.6508444  3
    172    173    182    184     1  0.0000000  0.6508444  3
    172    176    179    180     1  0.0000000  0.6508444  3
    172    176    179    181     1  0.0000000  0.6508444  3
    173    172    176    177     1  0.0000000  1.2552000  3
    173    172    176    178     1  0.0000000  1.2552000  3
    174    173    172    176     1  0.0000000  1.2552000  3
    174    173    182    186     1  0.0000000  0.6508444  3
    174    173    182    183     1  0.0000000  0.6508444  3
    174    173    182    184     1  0.0000000  0.6508444  3
    175    173    172    176     1  0.0000000  1.2552000  3
    175    173    182    186     1  0.0000000  0.6508444  3
    175    173    182    183     1  0.0000000  0.6508444  3
    175    173    182    184     1  0.0000000  0.6508444  3
    177    176    179    185     1  0.0000000  0.6508444  3
    177    176    179    180     1  0.0000000  0.6508444  3
    177    176    179    181     1  0.0000000  0.6508444  3
    178    176    179    185     1  0.0000000  0.6508444  3
    178    176    179    180     1  0.0000000  0.6508444  3
    178    176    179    181     1  0.0000000  0.6508444  3
    179    185    414    415     1  180.0000771  10.4600000  2
    180    179    185    187     1  0.0000000  3.3472000  1
    180    179    185    187     1  0.0000000  0.0000000  2
    180    179    185    187     1  180.0000771  0.3347200  3
    180    179    185    414     1  180.0000771  0.0000000  2
    181    179    185    187     1  0.0000000  3.3472000  1
    181    179    185    187     1  0.0000000  0.0000000  2
    181    179    185    187     1  180.0000771  0.3347200  3
    181    179    185    414     1  180.0000771  0.0000000  2
    182    186    439    440     1  180.0000771  10.4600000  2
    183    182    186    188     1  0.0000000  3.3472000  1
    183    182    186    188     1  0.0000000  0.0000000  2
    183    182    186    188     1  180.0000771  0.3347200  3
    183    182    186    439     1  180.0000771  0.0000000  2
    184    182    186    188     1  0.0000000  3.3472000  1
    184    182    186    188     1  0.0000000  0.0000000  2
    184    182    186    188     1  180.0000771  0.3347200  3
    184    182    186    439     1  180.0000771  0.0000000  2
    185    414    394    395     1  0.0000000  0.0000000  2
    185    414    394    396     1  0.0000000  0.0000000  2
    186    439    419    420     1  0.0000000  0.0000000  2
    186    439    419    421     1  0.0000000  0.0000000  2
    187    185    414    415     1  0.0000000  8.3680000  1
    187    185    414    415     1  180.0000771  10.4600000  2
    188    186    439    440     1  0.0000000  8.3680000  1
    188    186    439    440     1  180.0000771  10.4600000  2
    191    194    214    215     1  0.0000000  0.0000000  2
    191    197    198    199     1  0.0000000  1.2552000  3
    191    197    198    200     1  0.0000000  1.2552000  3
    191    197    201    202     1  0.0000000  1.2552000  3
    191    197    201    203     1  0.0000000  1.2552000  3
    192    191    194    214     1  0.0000000  0.6508444  3
    192    191    194    195     1  0.0000000  0.6508444  3
    192    191    194    196     1  0.0000000  0.6508444  3
    192    191    197    198     1  0.0000000  1.2552000  3
    192    191    197    201     1  0.0000000  1.2552000  3
    193    191    194    214     1  0.0000000  0.6508444  3
    193    191    194    195     1  0.0000000  0.6508444  3
    193    191    194    196     1  0.0000000  0.6508444  3
    193    191    197    198     1  0.0000000  1.2552000  3
    193    191    197    201     1  0.0000000  1.2552000  3
    195    194    191    197     1  0.0000000  0.6508444  3
    195    194    214    215     1  0.0000000  0.0000000  2
    196    194    191    197     1  0.0000000  0.6508444  3
    196    194    214    215     1  0.0000000  0.0000000  2
    197    198    207    208     1  0.0000000  0.6508444  3
    197    198    207    209     1  0.0000000  0.6508444  3
    197    201    204    205     1  0.0000000  0.6508444  3
    197    201    204    206     1  0.0000000  0.6508444  3
    198    197    201    202     1  0.0000000  1.2552000  3
    198    197    201    203     1  0.0000000  1.2552000  3
    199    198    197    201     1  0.0000000  1.2552000  3
    199    198    207    211     1  0.0000000  0.6508444  3
    199    198    207    208     1  0.0000000  0.6508444  3
    199    198    207    209     1  0.0000000  0.6508444  3
    200    198    197    201     1  0.0000000  1.2552000  3
    200    198    207    211     1  0.0000000  0.6508444  3
    200    198    207    208     1  0.0000000  0.6508444  3
    200    198    207    209     1  0.0000000  0.6508444  3
    202    201    204    210     1  0.0000000  0.6508444  3
    202    201    204    205     1  0.0000000  0.6508444  3
    202    201    204    206     1  0.0000000  0.6508444  3
    203    201    204    210     1  0.0000000  0.6508444  3
    203    201    204    205     1  0.0000000  0.6508444  3
    203    201    204    206     1  0.0000000  0.6508444  3
    204    210    464    465     1  180.0000771  10.4600000  2
    205    204    210    212     1  0.0000000  3.3472000  1
    205    204    210    212     1  0.0000000  0.0000000  2
    205    204    210    212     1  180.0000771  0.3347200  3
    205    204    210    464     1  180.0000771  0.0000000  2
    206    204    210    212     1  0.0000000  3.3472000  1
    206    204    210    212     1  0.0000000  0.0000000  2
    206    204    210    212     1  180.0000771  0.3347200  3
    206    204    210    464     1  180.0000771  0.0000000  2
    207    211    489    490     1  180.0000771  10.4600000  2
    208    207    211    213     1  0.0000000  3.3472000  1
    208    207    211    213     1  0.0000000  0.0000000  2
    208    207    211    213     1  180.0000771  0.3347200  3
    208    207    211    489     1  180.0000771  0.0000000  2
    209    207    211    213     1  0.0000000  3.3472000  1
    209    207    211    213     1  0.0000000  0.0000000  2
    209    207    211    213     1  180.0000771  0.3347200  3
    209    207    211    489     1  180.0000771  0.0000000  2
    210    464    444    445     1  0.0000000  0.0000000  2
    210    464    444    446     1  0.0000000  0.0000000  2
    211    489    469    470     1  0.0000000  0.0000000  2
    211    489    469    471     1  0.0000000  0.0000000  2
    212    210    464    465     1  0.0000000  8.3680000  1
    212    210    464    465     1  180.0000771  10.4600000  2
    213    211    489    490     1  0.0000000  8.3680000  1
    213    211    489    490     1  180.0000771  10.4600000  2
    216    219    239    240     1  0.0000000  0.0000000  2
    216    222    223    224     1  0.0000000  1.2552000  3
    216    222    223    225     1  0.0000000  1.2552000  3
    216    222    226    227     1  0.0000000  1.2552000  3
    216    222    226    228     1  0.0000000  1.2552000  3
    217    216    219    239     1  0.0000000  0.6508444  3
    217    216    219    220     1  0.0000000  0.6508444  3
    217    216    219    221     1  0.0000000  0.6508444  3
    217    216    222    223     1  0.0000000  1.2552000  3
    217    216    222    226     1  0.0000000  1.2552000  3
    218    216    219    239     1  0.0000000  0.6508444  3
    218    216    219    220     1  0.0000000  0.6508444  3
    218    216    219    221     1  0.0000000  0.6508444  3
    218    216    222    223     1  0.0000000  1.2552000  3
    218    216    222    226     1  0.0000000  1.2552000  3
    220    219    216    222     1  0.0000000  0.6508444  3
    220    219    239    240     1  0.0000000  0.0000000  2
    221    219    216    222     1  0.0000000  0.6508444  3
    221    219    239    240     1  0.0000000  0.0000000  2
    222    223    232    233     1  0.0000000  0.6508444  3
    222    223    232    234     1  0.0000000  0.6508444  3
    222    226    229    230     1  0.0000000  0.6508444  3
    222    226    229    231     1  0.0000000  0.6508444  3
    223    222    226    227     1  0.0000000  1.2552000  3
    223    222    226    228     1  0.0000000  1.2552000  3
    224    223    222    226     1  0.0000000  1.2552000  3
    224    223    232    236     1  0.0000000  0.6508444  3
    224    223    232    233     1  0.0000000  0.6508444  3
    224    223    232    234     1  0.0000000  0.6508444  3
    225    223    222    226     1  0.0000000  1.2552000  3
    225    223    232    236     1  0.0000000  0.6508444  3
    225    223    232    233     1  0.0000000  0.6508444  3
    225    223    232    234     1  0.0000000  0.6508444  3
    227    226    229    235     1  0.0000000  0.6508444  3
    227    226    229    230     1  0.0000000  0.6508444  3
    227    226    229    231     1  0.0000000  0.6508444  3
    228    226    229    235     1  0.0000000  0.6508444  3
    228    226    229    230     1  0.0000000  0.6508444  3
    228    226    229    231     1  0.0000000  0.6508444  3
    229    235    514    515     1  180.0000771  10.4600000  2
    230    229    235    237     1  0.0000000  3.3472000  1
    230    229    235    237     1  0.0000000  0.0000000  2
    230    229    235    237     1  180.0000771  0.3347200  3
    230    229    235    514     1  180.0000771  0.0000000  2
    231    229    235    237     1  0.0000000  3.3472000  1
    231    229    235    237     1  0.0000000  0.0000000  2
    231    229    235    237     1  180.0000771  0.3347200  3
    231    229    235    514     1  180.0000771  0.0000000  2
    232    236    539    540     1  180.0000771  10.4600000  2
    233    232    236    238     1  0.0000000  3.3472000  1
    233    232    236    238     1  0.0000000  0.0000000  2
    233    232    236    238     1  180.0000771  0.3347200  3
    233    232    236    539     1  180.0000771  0.0000000  2
    234    232    236    238     1  0.0000000  3.3472000  1
    234    232    236    238     1  0.0000000  0.0000000  2
    234    232    236    238     1  180.0000771  0.3347200  3
    234    232    236    539     1  180.0000771  0.0000000  2
    235    514    494    495     1  0.0000000  0.0000000  2
    235    514    494    496     1  0.0000000  0.0000000  2
    236    539    519    520     1  0.0000000  0.0000000  2
    236    539    519    521     1  0.0000000  0.0000000  2
    237    235    514    515     1  0.0000000  8.3680000  1
    237    235    514    515     1  180.0000771  10.4600000  2
    238    236    539    540     1  0.0000000  8.3680000  1
    238    236    539    540     1  180.0000771  10.4600000  2
    241    244    264    265     1  0.0000000  0.0000000  2
    241    247    248    249     1  0.0000000  1.2552000  3
    241    247    248    250     1  0.0000000  1.2552000  3
    241    247    251    252     1  0.0000000  1.2552000  3
    241    247    251    253     1  0.0000000  1.2552000  3
    242    241    244    264     1  0.0000000  0.6508444  3
    242    241    244    245     1  0.0000000  0.6508444  3
    242    241    244    246     1  0.0000000  0.6508444  3
    242    241    247    248     1  0.0000000  1.2552000  3
    242    241    247    251     1  0.0000000  1.2552000  3
    243    241    244    264     1  0.0000000  0.6508444  3
    243    241    244    245     1  0.0000000  0.6508444  3
    243    241    244    246     1  0.0000000  0.6508444  3
    243    241    247    248     1  0.0000000  1.2552000  3
    243    241    247    251     1  0.0000000  1.2552000  3
    245    244    241    247     1  0.0000000  0.6508444  3
    245    244    264    265     1  0.0000000  0.0000000  2
    246    244    241    247     1  0.0000000  0.6508444  3
    246    244    264    265     1  0.0000000  0.0000000  2
    247    248    257    258     1  0.0000000  0.6508444  3
    247    248    257    259     1  0.0000000  0.6508444  3
    247    251    254    255     1  0.0000000  0.6508444  3
    247    251    254    256     1  0.0000000  0.6508444  3
    248    247    251    252     1  0.0000000  1.2552000  3
    248    247    251    253     1  0.0000000  1.2552000  3
    249    248    247    251     1  0.0000000  1.2552000  3
    249    248    257    261     1  0.0000000  0.6508444  3
    249    248    257    258     1  0.0000000  0.6508444  3
    249    248    257    259     1  0.0000000  0.6508444  3
    250    248    247    251     1  0.0000000  1.2552000  3
    250    248    257    261     1  0.0000000  0.6508444  3
    250    248    257    258     1  0.0000000  0.6508444  3
    250    248    257    259     1  0.0000000  0.6508444  3
    252    251    254    260     1  0.0000000  0.6508444  3
    252    251    254    255     1  0.0000000  0.6508444  3
    252    251    254    256     1  0.0000000  0.6508444  3
    253    251    254    260     1  0.0000000  0.6508444  3
    253    251    254    255     1  0.0000000  0.6508444  3
    253    251    254    256     1  0.0000000  0.6508444  3
    254    260    564    565     1  180.0000771  10.4600000  2
    255    254    260    262     1  0.0000000  3.3472000  1
    255    254    260    262     1  0.0000000  0.0000000  2
    255    254    260    262     1  180.0000771  0.3347200  3
    255    254    260    564     1  180.0000771  0.0000000  2
    256    254    260    262     1  0.0000000  3.3472000  1
    256    254    260    262     1  0.0000000  0.0000000  2
    256    254    260    262     1  180.0000771  0.3347200  3
    256    254    260    564     1  180.0000771  0.0000000  2
    257    261    589    590     1  180.0000771  10.4600000  2
    258    257    261    263     1  0.0000000  3.3472000  1
    258    257    261    263     1  0.0000000  0.0000000  2
    258    257    261    263     1  180.0000771  0.3347200  3
    258    257    261    589     1  180.0000771  0.0000000  2
    259    257    261    263     1  0.0000000  3.3472000  1
    259    257    261    263     1  0.0000000  0.0000000  2
    259    257    261    263     1  180.0000771  0.3347200  3
    259    257    261    589     1  180.0000771  0.0000000  2
    260    564    544    545     1  0.0000000  0.0000000  2
    260    564    544    546     1  0.0000000  0.0000000  2
    261    589    569    570     1  0.0000000  0.0000000  2
    261    589    569    571     1  0.0000000  0.0000000  2
    262    260    564    565     1  0.0000000  8.3680000  1
    262    260    564    565     1  180.0000771  10.4600000  2
    263    261    589    590     1  0.0000000  8.3680000  1
    263    261    589    590     1  180.0000771  10.4600000  2
    266    269    289    290     1  0.0000000  0.0000000  2
    266    272    273    274     1  0.0000000  1.2552000  3
    266    272    273    275     1  0.0000000  1.2552000  3
    266    272    276    277     1  0.0000000  1.2552000  3
    266    272    276    278     1  0.0000000  1.2552000  3
    267    266    269    289     1  0.0000000  0.6508444  3
    267    266    269    270     1  0.0000000  0.6508444  3
    267    266    269    271     1  0.0000000  0.6508444  3
    267    266    272    273     1  0.0000000  1.2552000  3
    267    266    272    276     1  0.0000000  1.2552000  3
    268    266    269    289     1  0.0000000  0.6508444  3
    268    266    269    270     1  0.0000000  0.6508444  3
    268    266    269    271     1  0.0000000  0.6508444  3
    268    266    272    273     1  0.0000000  1.2552000  3
    268    266    272    276     1  0.0000000  1.2552000  3
    270    269    266    272     1  0.0000000  0.6508444  3
    270    269    289    290     1  0.0000000  0.0000000  2
    271    269    266    272     1  0.0000000  0.6508444  3
    271    269    289    290     1  0.0000000  0.0000000  2
    272    273    282    283     1  0.0000000  0.6508444  3
    272    273    282    284     1  0.0000000  0.6508444  3
    272    276    279    280     1  0.0000000  0.6508444  3
    272    276    279    281     1  0.0000000  0.6508444  3
    273    272    276    277     1  0.0000000  1.2552000  3
    273    272    276    278     1  0.0000000  1.2552000  3
    274    273    272    276     1  0.0000000  1.2552000  3
    274    273    282    286     1  0.0000000  0.6508444  3
    274    273    282    283     1  0.0000000  0.6508444  3
    274    273    282    284     1  0.0000000  0.6508444  3
    275    273    272    276     1  0.0000000  1.2552000  3
    275    273    282    286     1  0.0000000  0.6508444  3
    275    273    282    283     1  0.0000000  0.6508444  3
    275    273    282    284     1  0.0000000  0.6508444  3
    277    276    279    285     1  0.0000000  0.6508444  3
    277    276    279    280     1  0.0000000  0.6508444  3
    277    276    279    281     1  0.0000000  0.6508444  3
    278    276    279    285     1  0.0000000  0.6508444  3
    278    276    279    280     1  0.0000000  0.6508444  3
    278    276    279    281     1  0.0000000  0.6508444  3
    279    285    614    615     1  180.0000771  10.4600000  2
    280    279    285    287     1  0.0000000  3.3472000  1
    280    279    285    287     1  0.0000000  0.0000000  2
    280    279    285    287     1  180.0000771  0.3347200  3
    280    279    285    614     1  180.0000771  0.0000000  2
    281    279    285    287     1  0.0000000  3.3472000  1
    281    279    285    287     1  0.0000000  0.0000000  2
    281    279    285    287     1  180.0000771  0.3347200  3
    281    279    285    614     1  180.0000771  0.0000000  2
    282    286    639    640     1  180.0000771  10.4600000  2
    283    282    286    288     1  0.0000000  3.3472000  1
    283    282    286    288     1  0.0000000  0.0000000  2
    283    282    286    288     1  180.0000771  0.3347200  3
    283    282    286    639     1  180.0000771  0.0000000  2
    284    282    286    288     1  0.0000000  3.3472000  1
    284    282    286    288     1  0.0000000  0.0000000  2
    284    282    286    288     1  180.0000771  0.3347200  3
    284    282    286    639     1  180.0000771  0.0000000  2
    285    614    594    595     1  0.0000000  0.0000000  2
    285    614    594    596     1  0.0000000  0.0000000  2
    286    639    619    620     1  0.0000000  0.0000000  2
    286    639    619    621     1  0.0000000  0.0000000  2
    287    285    614    615     1  0.0000000  8.3680000  1
    287    285    614    615     1  180.0000771  10.4600000  2
    288    286    639    640     1  0.0000000  8.3680000  1
    288    286    639    640     1  180.0000771  10.4600000  2
    291    294    314    315     1  0.0000000  0.0000000  2
    291    297    298    299     1  0.0000000  1.2552000  3
    291    297    298    300     1  0.0000000  1.2552000  3
    291    297    301    302     1  0.0000000  1.2552000  3
    291    297    301    303     1  0.0000000  1.2552000  3
    292    291    294    314     1  0.0000000  0.6508444  3
    292    291    294    295     1  0.0000000  0.6508444  3
    292    291    294    296     1  0.0000000  0.6508444  3
    292    291    297    298     1  0.0000000  1.2552000  3
    292    291    297    301     1  0.0000000  1.2552000  3
    293    291    294    314     1  0.0000000  0.6508444  3
    293    291    294    295     1  0.0000000  0.6508444  3
    293    291    294    296     1  0.0000000  0.6508444  3
    293    291    297    298     1  0.0000000  1.2552000  3
    293    291    297    301     1  0.0000000  1.2552000  3
    295    294    291    297     1  0.0000000  0.6508444  3
    295    294    314    315     1  0.0000000  0.0000000  2
    296    294    291    297     1  0.0000000  0.6508444  3
    296    294    314    315     1  0.0000000  0.0000000  2
    297    298    307    308     1  0.0000000  0.6508444  3
    297    298    307    309     1  0.0000000  0.6508444  3
    297    301    304    305     1  0.0000000  0.6508444  3
    297    301    304    306     1  0.0000000  0.6508444  3
    298    297    301    302     1  0.0000000  1.2552000  3
    298    297    301    303     1  0.0000000  1.2552000  3
    299    298    297    301     1  0.0000000  1.2552000  3
    299    298    307    311     1  0.0000000  0.6508444  3
    299    298    307    308     1  0.0000000  0.6508444  3
    299    298    307    309     1  0.0000000  0.6508444  3
    300    298    297    301     1  0.0000000  1.2552000  3
    300    298    307    311     1  0.0000000  0.6508444  3
    300    298    307    308     1  0.0000000  0.6508444  3
    300    298    307    309     1  0.0000000  0.6508444  3
    302    301    304    310     1  0.0000000  0.6508444  3
    302    301    304    305     1  0.0000000  0.6508444  3
    302    301    304    306     1  0.0000000  0.6508444  3
    303    301    304    310     1  0.0000000  0.6508444  3
    303    301    304    305     1  0.0000000  0.6508444  3
    303    301    304    306     1  0.0000000  0.6508444  3
    304    310    664    665     1  180.0000771  10.4600000  2
    305    304    310    312     1  0.0000000  3.3472000  1
    305    304    310    312     1  0.0000000  0.0000000  2
    305    304    310    312     1  180.0000771  0.3347200  3
    305    304    310    664     1  180.0000771  0.0000000  2
    306    304    310    312     1  0.0000000  3.3472000  1
    306    304    310    312     1  0.0000000  0.0000000  2
    306    304    310    312     1  180.0000771  0.3347200  3
    306    304    310    664     1  180.0000771  0.0000000  2
    307    311    689    690     1  180.0000771  10.4600000  2
    308    307    311    313     1  0.0000000  3.3472000  1
    308    307    311    313     1  0.0000000  0.0000000  2
    308    307    311    313     1  180.0000771  0.3347200  3
    308    307    311    689     1  180.0000771  0.0000000  2
    309    307    311    313     1  0.0000000  3.3472000  1
    309    307    311    313     1  0.0000000  0.0000000  2
    309    307    311    313     1  180.0000771  0.3347200  3
    309    307    311    689     1  180.0000771  0.0000000  2
    310    664    644    645     1  0.0000000  0.0000000  2
    310    664    644    646     1  0.0000000  0.0000000  2
    311    689    669    670     1  0.0000000  0.0000000  2
    311    689    669    671     1  0.0000000  0.0000000  2
    312    310    664    665     1  0.0000000  8.3680000  1
    312    310    664    665     1  180.0000771  10.4600000  2
    313    311    689    690     1  0.0000000  8.3680000  1
    313    311    689    690     1  180.0000771  10.4600000  2
    316    319    339    340     1  0.0000000  0.0000000  2
    316    322    323    324     1  0.0000000  1.2552000  3
    316    322    323    325     1  0.0000000  1.2552000  3
    316    322    326    327     1  0.0000000  1.2552000  3
    316    322    326    328     1  0.0000000  1.2552000  3
    317    316    319    339     1  0.0000000  0.6508444  3
    317    316    319    320     1  0.0000000  0.6508444  3
    317    316    319    321     1  0.0000000  0.6508444  3
    317    316    322    323     1  0.0000000  1.2552000  3
    317    316    322    326     1  0.0000000  1.2552000  3
    318    316    319    339     1  0.0000000  0.6508444  3
    318    316    319    320     1  0.0000000  0.6508444  3
    318    316    319    321     1  0.0000000  0.6508444  3
    318    316    322    323     1  0.0000000  1.2552000  3
    318    316    322    326     1  0.0000000  1.2552000  3
    320    319    316    322     1  0.0000000  0.6508444  3
    320    319    339    340     1  0.0000000  0.0000000  2
    321    319    316    322     1  0.0000000  0.6508444  3
    321    319    339    340     1  0.0000000  0.0000000  2
    322    323    332    333     1  0.0000000  0.6508444  3
    322    323    332    334     1  0.0000000  0.6508444  3
    322    326    329    330     1  0.0000000  0.6508444  3
    322    326    329    331     1  0.0000000  0.6508444  3
    323    322    326    327     1  0.0000000  1.2552000  3
    323    322    326    328     1  0.0000000  1.2552000  3
    324    323    322    326     1  0.0000000  1.2552000  3
    324    323    332    336     1  0.0000000  0.6508444  3
    324    323    332    333     1  0.0000000  0.6508444  3
    324    323    332    334     1  0.0000000  0.6508444  3
    325    323    322    326     1  0.0000000  1.2552000  3
    325    323    332    336     1  0.0000000  0.6508444  3
    325    323    332    333     1  0.0000000  0.6508444  3
    325    323    332    334     1  0.0000000  0.6508444  3
    327    326    329    335     1  0.0000000  0.6508444  3
    327    326    329    330     1  0.0000000  0.6508444  3
    327    326    329    331     1  0.0000000  0.6508444  3
    328    326    329    335     1  0.0000000  0.6508444  3
    328    326    329    330     1  0.0000000  0.6508444  3
    328    326    329    331     1  0.0000000  0.6508444  3
    329    335    714    715     1  180.0000771  10.4600000  2
    330    329    335    337     1  0.0000000  3.3472000  1
    330    329    335    337     1  0.0000000  0.0000000  2
    330    329    335    337     1  180.0000771  0.3347200  3
    330    329    335    714     1  180.0000771  0.0000000  2
    331    329    335    337     1  0.0000000  3.3472000  1
    331    329    335    337     1  0.0000000  0.0000000  2
    331    329    335    337     1  180.0000771  0.3347200  3
    331    329    335    714     1  180.0000771  0.0000000  2
    332    336    739    740     1  180.0000771  10.4600000  2
    333    332    336    338     1  0.0000000  3.3472000  1
    333    332    336    338     1  0.0000000  0.0000000  2
    333    332    336    338     1  180.0000771  0.3347200  3
    333    332    336    739     1  180.0000771  0.0000000  2
    334    332    336    338     1  0.0000000  3.3472000  1
    334    332    336    338     1  0.0000000  0.0000000  2
    334    332    336    338     1  180.0000771  0.3347200  3
    334    332    336    739     1  180.0000771  0.0000000  2
    335    714    694    695     1  0.0000000  0.0000000  2
    335    714    694    696     1  0.0000000  0.0000000  2
    336    739    719    720     1  0.0000000  0.0000000  2
    336    739    719    721     1  0.0000000  0.0000000  2
    337    335    714    715     1  0.0000000  8.3680000  1
    337    335    714    715     1  180.0000771  10.4600000  2
    338    336    739    740     1  0.0000000  8.3680000  1
    338    336    739    740     1  180.0000771  10.4600000  2
    341    344    364    365     1  0.0000000  0.0000000  2
    341    347    348    349     1  0.0000000  1.2552000  3
    341    347    348    350     1  0.0000000  1.2552000  3
    341    347    351    352     1  0.0000000  1.2552000  3
    341    347    351    353     1  0.0000000  1.2552000  3
    342    341    344    364     1  0.0000000  0.6508444  3
    342    341    344    345     1  0.0000000  0.6508444  3
    342    341    344    346     1  0.0000000  0.6508444  3
    342    341    347    348     1  0.0000000  1.2552000  3
    342    341    347    351     1  0.0000000  1.2552000  3
    343    341    344    364     1  0.0000000  0.6508444  3
    343    341    344    345     1  0.0000000  0.6508444  3
    343    341    344    346     1  0.0000000  0.6508444  3
    343    341    347    348     1  0.0000000  1.2552000  3
    343    341    347    351     1  0.0000000  1.2552000  3
    345    344    341    347     1  0.0000000  0.6508444  3
    345    344    364    365     1  0.0000000  0.0000000  2
    346    344    341    347     1  0.0000000  0.6508444  3
    346    344    364    365     1  0.0000000  0.0000000  2
    347    348    357    358     1  0.0000000  0.6508444  3
    347    348    357    359     1  0.0000000  0.6508444  3
    347    351    354    355     1  0.0000000  0.6508444  3
    347    351    354    356     1  0.0000000  0.6508444  3
    348    347    351    352     1  0.0000000  1.2552000  3
    348    347    351    353     1  0.0000000  1.2552000  3
    349    348    347    351     1  0.0000000  1.2552000  3
    349    348    357    361     1  0.0000000  0.6508444  3
    349    348    357    358     1  0.0000000  0.6508444  3
    349    348    357    359     1  0.0000000  0.6508444  3
    350    348    347    351     1  0.0000000  1.2552000  3
    350    348    357    361     1  0.0000000  0.6508444  3
    350    348    357    358     1  0.0000000  0.6508444  3
    350    348    357    359     1  0.0000000  0.6508444  3
    352    351    354    360     1  0.0000000  0.6508444  3
    352    351    354    355     1  0.0000000  0.6508444  3
    352    351    354    356     1  0.0000000  0.6508444  3
    353    351    354    360     1  0.0000000  0.6508444  3
    353    351    354    355     1  0.0000000  0.6508444  3
    353    351    354    356     1  0.0000000  0.6508444  3
    354    360    741    742     1  180.0000771  10.4600000  2
    355    354    360    741     1  180.0000771  0.0000000  2
    355    354    360    362     1  0.0000000  3.3472000  1
    355    354    360    362     1  0.0000000  0.0000000  2
    355    354    360    362     1  180.0000771  0.3347200  3
    356    354    360    741     1  180.0000771  0.0000000  2
    356    354    360    362     1  0.0000000  3.3472000  1
    356    354    360    362     1  0.0000000  0.0000000  2
    356    354    360    362     1  180.0000771  0.3347200  3
    357    361    753    754     1  180.0000771  10.4600000  2
    358    357    361    363     1  0.0000000  3.3472000  1
    358    357    361    363     1  0.0000000  0.0000000  2
    358    357    361    363     1  180.0000771  0.3347200  3
    358    357    361    753     1  180.0000771  0.0000000  2
    359    357    361    363     1  0.0000000  3.3472000  1
    359    357    361    363     1  0.0000000  0.0000000  2
    359    357    361    363     1  180.0000771  0.3347200  3
    359    357    361    753     1  180.0000771  0.0000000  2
    360    741    743    745     1  0.0000000  0.0000000  2
    360    741    743    746     1  0.0000000  0.0000000  2
    361    753    755    757     1  0.0000000  0.0000000  2
    361    753    755    758     1  0.0000000  0.0000000  2
    362    360    741    742     1  0.0000000  8.3680000  1
    362    360    741    742     1  180.0000771  10.4600000  2
    363    361    753    754     1  0.0000000  8.3680000  1
    363    361    753    754     1  180.0000771  10.4600000  2
    366    369    389    390     1  0.0000000  0.0000000  2
    366    372    373    374     1  0.0000000  1.2552000  3
    366    372    373    375     1  0.0000000  1.2552000  3
    366    372    376    377     1  0.0000000  1.2552000  3
    366    372    376    378     1  0.0000000  1.2552000  3
    367    366    369    389     1  0.0000000  0.6508444  3
    367    366    369    370     1  0.0000000  0.6508444  3
    367    366    369    371     1  0.0000000  0.6508444  3
    367    366    372    373     1  0.0000000  1.2552000  3
    367    366    372    376     1  0.0000000  1.2552000  3
    368    366    369    389     1  0.0000000  0.6508444  3
    368    366    369    370     1  0.0000000  0.6508444  3
    368    366    369    371     1  0.0000000  0.6508444  3
    368    366    372    373     1  0.0000000  1.2552000  3
    368    366    372    376     1  0.0000000  1.2552000  3
    370    369    366    372     1  0.0000000  0.6508444  3
    370    369    389    390     1  0.0000000  0.0000000  2
    371    369    366    372     1  0.0000000  0.6508444  3
    371    369    389    390     1  0.0000000  0.0000000  2
    372    373    382    383     1  0.0000000  0.6508444  3
    372    373    382    384     1  0.0000000  0.6508444  3
    372    376    379    380     1  0.0000000  0.6508444  3
    372    376    379    381     1  0.0000000  0.6508444  3
    373    372    376    377     1  0.0000000  1.2552000  3
    373    372    376    378     1  0.0000000  1.2552000  3
    374    373    372    376     1  0.0000000  1.2552000  3
    374    373    382    386     1  0.0000000  0.6508444  3
    374    373    382    383     1  0.0000000  0.6508444  3
    374    373    382    384     1  0.0000000  0.6508444  3
    375    373    372    376     1  0.0000000  1.2552000  3
    375    373    382    386     1  0.0000000  0.6508444  3
    375    373    382    383     1  0.0000000  0.6508444  3
    375    373    382    384     1  0.0000000  0.6508444  3
    377    376    379    385     1  0.0000000  0.6508444  3
    377    376    379    380     1  0.0000000  0.6508444  3
    377    376    379    381     1  0.0000000  0.6508444  3
    378    376    379    385     1  0.0000000  0.6508444  3
    378    376    379    380     1  0.0000000  0.6508444  3
    378    376    379    381     1  0.0000000  0.6508444  3
    379    385    765    766     1  180.0000771  10.4600000  2
    380    379    385    765     1  180.0000771  0.0000000  2
    380    379    385    387     1  0.0000000  3.3472000  1
    380    379    385    387     1  0.0000000  0.0000000  2
    380    379    385    387     1  180.0000771  0.3347200  3
    381    379    385    765     1  180.0000771  0.0000000  2
    381    379    385    387     1  0.0000000  3.3472000  1
    381    379    385    387     1  0.0000000  0.0000000  2
    381    379    385    387     1  180.0000771  0.3347200  3
    382    386    777    778     1  180.0000771  10.4600000  2
    383    382    386    388     1  0.0000000  3.3472000  1
    383    382    386    388     1  0.0000000  0.0000000  2
    383    382    386    388     1  180.0000771  0.3347200  3
    383    382    386    777     1  180.0000771  0.0000000  2
    384    382    386    388     1  0.0000000  3.3472000  1
    384    382    386    388     1  0.0000000  0.0000000  2
    384    382    386    388     1  180.0000771  0.3347200  3
    384    382    386    777     1  180.0000771  0.0000000  2
    385    765    767    769     1  0.0000000  0.0000000  2
    385    765    767    770     1  0.0000000  0.0000000  2
    386    777    779    781     1  0.0000000  0.0000000  2
    386    777    779    782     1  0.0000000  0.0000000  2
    387    385    765    766     1  0.0000000  8.3680000  1
    387    385    765    766     1  180.0000771  10.4600000  2
    388    386    777    778     1  0.0000000  8.3680000  1
    388    386    777    778     1  180.0000771  10.4600000  2
    391    394    414    415     1  0.0000000  0.0000000  2
    391    397    398    399     1  0.0000000  1.2552000  3
    391    397    398    400     1  0.0000000  1.2552000  3
    391    397    401    402     1  0.0000000  1.2552000  3
    391    397    401    403     1  0.0000000  1.2552000  3
    392    391    394    414     1  0.0000000  0.6508444  3
    392    391    394    395     1  0.0000000  0.6508444  3
    392    391    394    396     1  0.0000000  0.6508444  3
    392    391    397    398     1  0.0000000  1.2552000  3
    392    391    397    401     1  0.0000000  1.2552000  3
    393    391    394    414     1  0.0000000  0.6508444  3
    393    391    394    395     1  0.0000000  0.6508444  3
    393    391    394    396     1  0.0000000  0.6508444  3
    393    391    397    398     1  0.0000000  1.2552000  3
    393    391    397    401     1  0.0000000  1.2552000  3
    395    394    391    397     1  0.0000000  0.6508444  3
    395    394    414    415     1  0.0000000  0.0000000  2
    396    394    391    397     1  0.0000000  0.6508444  3
    396    394    414    415     1  0.0000000  0.0000000  2
    397    398    407    408     1  0.0000000  0.6508444  3
    397    398    407    409     1  0.0000000  0.6508444  3
    397    401    404    405     1  0.0000000  0.6508444  3
    397    401    404    406     1  0.0000000  0.6508444  3
    398    397    401    402     1  0.0000000  1.2552000  3
    398    397    401    403     1  0.0000000  1.2552000  3
    399    398    397    401     1  0.0000000  1.2552000  3
    399    398    407    411     1  0.0000000  0.6508444  3
    399    398    407    408     1  0.0000000  0.6508444  3
    399    398    407    409     1  0.0000000  0.6508444  3
    400    398    397    401     1  0.0000000  1.2552000  3
    400    398    407    411     1  0.0000000  0.6508444  3
    400    398    407    408     1  0.0000000  0.6508444  3
    400    398    407    409     1  0.0000000  0.6508444  3
    402    401    404    410     1  0.0000000  0.6508444  3
    402    401    404    405     1  0.0000000  0.6508444  3
    402    401    404    406     1  0.0000000  0.6508444  3
    403    401    404    410     1  0.0000000  0.6508444  3
    403    401    404    405     1  0.0000000  0.6508444  3
    403    401    404    406     1  0.0000000  0.6508444  3
    404    410    789    790     1  180.0000771  10.4600000  2
    405    404    410    789     1  180.0000771  0.0000000  2
    405    404    410    412     1  0.0000000  3.3472000  1
    405    404    410    412     1  0.0000000  0.0000000  2
    405    404    410    412     1  180.0000771  0.3347200  3
    406    404    410    789     1  180.0000771  0.0000000  2
    406    404    410    412     1  0.0000000  3.3472000  1
    406    404    410    412     1  0.0000000  0.0000000  2
    406    404    410    412     1  180.0000771  0.3347200  3
    407    411    801    802     1  180.0000771  10.4600000  2
    408    407    411    413     1  0.0000000  3.3472000  1
    408    407    411    413     1  0.0000000  0.0000000  2
    408    407    411    413     1  180.0000771  0.3347200  3
    408    407    411    801     1  180.0000771  0.0000000  2
    409    407    411    413     1  0.0000000  3.3472000  1
    409    407    411    413     1  0.0000000  0.0000000  2
    409    407    411    413     1  180.0000771  0.3347200  3
    409    407    411    801     1  180.0000771  0.0000000  2
    410    789    791    793     1  0.0000000  0.0000000  2
    410    789    791    794     1  0.0000000  0.0000000  2
    411    801    803    805     1  0.0000000  0.0000000  2
    411    801    803    806     1  0.0000000  0.0000000  2
    412    410    789    790     1  0.0000000  8.3680000  1
    412    410    789    790     1  180.0000771  10.4600000  2
    413    411    801    802     1  0.0000000  8.3680000  1
    413    411    801    802     1  180.0000771  10.4600000  2
    416    419    439    440     1  0.0000000  0.0000000  2
    416    422    423    424     1  0.0000000  1.2552000  3
    416    422    423    425     1  0.0000000  1.2552000  3
    416    422    426    427     1  0.0000000  1.2552000  3
    416    422    426    428     1  0.0000000  1.2552000  3
    417    416    419    439     1  0.0000000  0.6508444  3
    417    416    419    420     1  0.0000000  0.6508444  3
    417    416    419    421     1  0.0000000  0.6508444  3
    417    416    422    423     1  0.0000000  1.2552000  3
    417    416    422    426     1  0.0000000  1.2552000  3
    418    416    419    439     1  0.0000000  0.6508444  3
    418    416    419    420     1  0.0000000  0.6508444  3
    418    416    419    421     1  0.0000000  0.6508444  3
    418    416    422    423     1  0.0000000  1.2552000  3
    418    416    422    426     1  0.0000000  1.2552000  3
    420    419    416    422     1  0.0000000  0.6508444  3
    420    419    439    440     1  0.0000000  0.0000000  2
    421    419    416    422     1  0.0000000  0.6508444  3
    421    419    439    440     1  0.0000000  0.0000000  2
    422    423    432    433     1  0.0000000  0.6508444  3
    422    423    432    434     1  0.0000000  0.6508444  3
    422    426    429    430     1  0.0000000  0.6508444  3
    422    426    429    431     1  0.0000000  0.6508444  3
    423    422    426    427     1  0.0000000  1.2552000  3
    423    422    426    428     1  0.0000000  1.2552000  3
    424    423    422    426     1  0.0000000  1.2552000  3
    424    423    432    436     1  0.0000000  0.6508444  3
    424    423    432    433     1  0.0000000  0.6508444  3
    424    423    432    434     1  0.0000000  0.6508444  3
    425    423    422    426     1  0.0000000  1.2552000  3
    425    423    432    436     1  0.0000000  0.6508444  3
    425    423    432    433     1  0.0000000  0.6508444  3
    425    423    432    434     1  0.0000000  0.6508444  3
    427    426    429    435     1  0.0000000  0.6508444  3
    427    426    429    430     1  0.0000000  0.6508444  3
    427    426    429    431     1  0.0000000  0.6508444  3
    428    426    429    435     1  0.0000000  0.6508444  3
    428    426    429    430     1  0.0000000  0.6508444  3
    428    426    429    431     1  0.0000000  0.6508444  3
    429    435    813    814     1  180.0000771  10.4600000  2
    430    429    435    813     1  180.0000771  0.0000000  2
    430    429    435    437     1  0.0000000  3.3472000  1
    430    429    435    437     1  0.0000000  0.0000000  2
    430    429    435    437     1  180.0000771  0.3347200  3
    431    429    435    813     1  180.0000771  0.0000000  2
    431    429    435    437     1  0.0000000  3.3472000  1
    431    429    435    437     1  0.0000000  0.0000000  2
    431    429    435    437     1  180.0000771  0.3347200  3
    432    436    825    826     1  180.0000771  10.4600000  2
    433    432    436    438     1  0.0000000  3.3472000  1
    433    432    436    438     1  0.0000000  0.0000000  2
    433    432    436    438     1  180.0000771  0.3347200  3
    433    432    436    825     1  180.0000771  0.0000000  2
    434    432    436    438     1  0.0000000  3.3472000  1
    434    432    436    438     1  0.0000000  0.0000000  2
    434    432    436    438     1  180.0000771  0.3347200  3
    434    432    436    825     1  180.0000771  0.0000000  2
    435    813    815    817     1  0.0000000  0.0000000  2
    435    813    815    818     1  0.0000000  0.0000000  2
    436    825    827    829     1  0.0000000  0.0000000  2
    436    825    827    830     1  0.0000000  0.0000000  2
    437    435    813    814     1  0.0000000  8.3680000  1
    437    435    813    814     1  180.0000771  10.4600000  2
    438    436    825    826     1  0.0000000  8.3680000  1
    438    436    825    826     1  180.0000771  10.4600000  2
    441    444    464    465     1  0.0000000  0.0000000  2
    441    447    448    449     1  0.0000000  1.2552000  3
    441    447    448    450     1  0.0000000  1.2552000  3
    441    447    451    452     1  0.0000000  1.2552000  3
    441    447    451    453     1  0.0000000  1.2552000  3
    442    441    444    464     1  0.0000000  0.6508444  3
    442    441    444    445     1  0.0000000  0.6508444  3
    442    441    444    446     1  0.0000000  0.6508444  3
    442    441    447    448     1  0.0000000  1.2552000  3
    442    441    447    451     1  0.0000000  1.2552000  3
    443    441    444    464     1  0.0000000  0.6508444  3
    443    441    444    445     1  0.0000000  0.6508444  3
    443    441    444    446     1  0.0000000  0.6508444  3
    443    441    447    448     1  0.0000000  1.2552000  3
    443    441    447    451     1  0.0000000  1.2552000  3
    445    444    441    447     1  0.0000000  0.6508444  3
    445    444    464    465     1  0.0000000  0.0000000  2
    446    444    441    447     1  0.0000000  0.6508444  3
    446    444    464    465     1  0.0000000  0.0000000  2
    447    448    457    458     1  0.0000000  0.6508444  3
    447    448    457    459     1  0.0000000  0.6508444  3
    447    451    454    455     1  0.0000000  0.6508444  3
    447    451    454    456     1  0.0000000  0.6508444  3
    448    447    451    452     1  0.0000000  1.2552000  3
    448    447    451    453     1  0.0000000  1.2552000  3
    449    448    447    451     1  0.0000000  1.2552000  3
    449    448    457    461     1  0.0000000  0.6508444  3
    449    448    457    458     1  0.0000000  0.6508444  3
    449    448    457    459     1  0.0000000  0.6508444  3
    450    448    447    451     1  0.0000000  1.2552000  3
    450    448    457    461     1  0.0000000  0.6508444  3
    450    448    457    458     1  0.0000000  0.6508444  3
    450    448    457    459     1  0.0000000  0.6508444  3
    452    451    454    460     1  0.0000000  0.6508444  3
    452    451    454    455     1  0.0000000  0.6508444  3
    452    451    454    456     1  0.0000000  0.6508444  3
    453    451    454    460     1  0.0000000  0.6508444  3
    453    451    454    455     1  0.0000000  0.6508444  3
    453    451    454    456     1  0.0000000  0.6508444  3
    454    460    837    838     1  180.0000771  10.4600000  2
    455    454    460    837     1  180.0000771  0.0000000  2
    455    454    460    462     1  0.0000000  3.3472000  1
    455    454    460    462     1  0.0000000  0.0000000  2
    455    454    460    462     1  180.0000771  0.3347200  3
    456    454    460    837     1  180.0000771  0.0000000  2
    456    454    460    462     1  0.0000000  3.3472000  1
    456    454    460    462     1  0.0000000  0.0000000  2
    456    454    460    462     1  180.0000771  0.3347200  3
    457    461    849    850     1  180.0000771  10.4600000  2
    458    457    461    463     1  0.0000000  3.3472000  1
    458    457    461    463     1  0.0000000  0.0000000  2
    458    457    461    463     1  180.0000771  0.3347200  3
    458    457    461    849     1  180.0000771  0.0000000  2
    459    457    461    463     1  0.0000000  3.3472000  1
    459    457    461    463     1  0.0000000  0.0000000  2
    459    457    461    463     1  180.0000771  0.3347200  3
    459    457    461    849     1  180.0000771  0.0000000  2
    460    837    839    841     1  0.0000000  0.0000000  2
    460    837    839    842     1  0.0000000  0.0000000  2
    461    849    851    853     1  0.0000000  0.0000000  2
    461    849    851    854     1  0.0000000  0.0000000  2
    462    460    837    838     1  0.0000000  8.3680000  1
    462    460    837    838     1  180.0000771  10.4600000  2
    463    461    849    850     1  0.0000000  8.3680000  1
    463    461    849    850     1  180.0000771  10.4600000  2
    466    469    489    490     1  0.0000000  0.0000000  2
    466    472    473    474     1  0.0000000  1.2552000  3
    466    472    473    475     1  0.0000000  1.2552000  3
    466    472    476    477     1  0.0000000  1.2552000  3
    466    472    476    478     1  0.0000000  1.2552000  3
    467    466    469    489     1  0.0000000  0.6508444  3
    467    466    469    470     1  0.0000000  0.6508444  3
    467    466    469    471     1  0.0000000  0.6508444  3
    467    466    472    473     1  0.0000000  1.2552000  3
    467    466    472    476     1  0.0000000  1.2552000  3
    468    466    469    489     1  0.0000000  0.6508444  3
    468    466    469    470     1  0.0000000  0.6508444  3
    468    466    469    471     1  0.0000000  0.6508444  3
    468    466    472    473     1  0.0000000  1.2552000  3
    468    466    472    476     1  0.0000000  1.2552000  3
    470    469    466    472     1  0.0000000  0.6508444  3
    470    469    489    490     1  0.0000000  0.0000000  2
    471    469    466    472     1  0.0000000  0.6508444  3
    471    469    489    490     1  0.0000000  0.0000000  2
    472    473    482    483     1  0.0000000  0.6508444  3
    472    473    482    484     1  0.0000000  0.6508444  3
    472    476    479    480     1  0.0000000  0.6508444  3
    472    476    479    481     1  0.0000000  0.6508444  3
    473    472    476    477     1  0.0000000  1.2552000  3
    473    472    476    478     1  0.0000000  1.2552000  3
    474    473    472    476     1  0.0000000  1.2552000  3
    474    473    482    486     1  0.0000000  0.6508444  3
    474    473    482    483     1  0.0000000  0.6508444  3
    474    473    482    484     1  0.0000000  0.6508444  3
    475    473    472    476     1  0.0000000  1.2552000  3
    475    473    482    486     1  0.0000000  0.6508444  3
    475    473    482    483     1  0.0000000  0.6508444  3
    475    473    482    484     1  0.0000000  0.6508444  3
    477    476    479    485     1  0.0000000  0.6508444  3
    477    476    479    480     1  0.0000000  0.6508444  3
    477    476    479    481     1  0.0000000  0.6508444  3
    478    476    479    485     1  0.0000000  0.6508444  3
    478    476    479    480     1  0.0000000  0.6508444  3
    478    476    479    481     1  0.0000000  0.6508444  3
    479    485    861    862     1  180.0000771  10.4600000  2
    480    479    485    861     1  180.0000771  0.0000000  2
    480    479    485    487     1  0.0000000  3.3472000  1
    480    479    485    487     1  0.0000000  0.0000000  2
    480    479    485    487     1  180.0000771  0.3347200  3
    481    479    485    861     1  180.0000771  0.0000000  2
    481    479    485    487     1  0.0000000  3.3472000  1
    481    479    485    487     1  0.0000000  0.0000000  2
    481    479    485    487     1  180.0000771  0.3347200  3
    482    486    873    874     1  180.0000771  10.4600000  2
    483    482    486    488     1  0.0000000  3.3472000  1
    483    482    486    488     1  0.0000000  0.0000000  2
    483    482    486    488     1  180.0000771  0.3347200  3
    483    482    486    873     1  180.0000771  0.0000000  2
    484    482    486    488     1  0.0000000  3.3472000  1
    484    482    486    488     1  0.0000000  0.0000000  2
    484    482    486    488     1  180.0000771  0.3347200  3
    484    482    486    873     1  180.0000771  0.0000000  2
    485    861    863    865     1  0.0000000  0.0000000  2
    485    861    863    866     1  0.0000000  0.0000000  2
    486    873    875    877     1  0.0000000  0.0000000  2
    486    873    875    878     1  0.0000000  0.0000000  2
    487    485    861    862     1  0.0000000  8.3680000  1
    487    485    861    862     1  180.0000771  10.4600000  2
    488    486    873    874     1  0.0000000  8.3680000  1
    488    486    873    874     1  180.0000771  10.4600000  2
    491    494    514    515     1  0.0000000  0.0000000  2
    491    497    498    499     1  0.0000000  1.2552000  3
    491    497    498    500     1  0.0000000  1.2552000  3
    491    497    501    502     1  0.0000000  1.2552000  3
    491    497    501    503     1  0.0000000  1.2552000  3
    492    491    494    514     1  0.0000000  0.6508444  3
    492    491    494    495     1  0.0000000  0.6508444  3
    492    491    494    496     1  0.0000000  0.6508444  3
    492    491    497    498     1  0.0000000  1.2552000  3
    492    491    497    501     1  0.0000000  1.2552000  3
    493    491    494    514     1  0.0000000  0.6508444  3
    493    491    494    495     1  0.0000000  0.6508444  3
    493    491    494    496     1  0.0000000  0.6508444  3
    493    491    497    498     1  0.0000000  1.2552000  3
    493    491    497    501     1  0.0000000  1.2552000  3
    495    494    491    497     1  0.0000000  0.6508444  3
    495    494    514    515     1  0.0000000  0.0000000  2
    496    494    491    497     1  0.0000000  0.6508444  3
    496    494    514    515     1  0.0000000  0.0000000  2
    497    498    507    508     1  0.0000000  0.6508444  3
    497    498    507    509     1  0.0000000  0.6508444  3
    497    501    504    505     1  0.0000000  0.6508444  3
    497    501    504    506     1  0.0000000  0.6508444  3
    498    497    501    502     1  0.0000000  1.2552000  3
    498    497    501    503     1  0.0000000  1.2552000  3
    499    498    497    501     1  0.0000000  1.2552000  3
    499    498    507    511     1  0.0000000  0.6508444  3
    499    498    507    508     1  0.0000000  0.6508444  3
    499    498    507    509     1  0.0000000  0.6508444  3
    500    498    497    501     1  0.0000000  1.2552000  3
    500    498    507    511     1  0.0000000  0.6508444  3
    500    498    507    508     1  0.0000000  0.6508444  3
    500    498    507    509     1  0.0000000  0.6508444  3
    502    501    504    510     1  0.0000000  0.6508444  3
    502    501    504    505     1  0.0000000  0.6508444  3
    502    501    504    506     1  0.0000000  0.6508444  3
    503    501    504    510     1  0.0000000  0.6508444  3
    503    501    504    505     1  0.0000000  0.6508444  3
    503    501    504    506     1  0.0000000  0.6508444  3
    504    510    885    886     1  180.0000771  10.4600000  2
    505    504    510    885     1  180.0000771  0.0000000  2
    505    504    510    512     1  0.0000000  3.3472000  1
    505    504    510    512     1  0.0000000  0.0000000  2
    505    504    510    512     1  180.0000771  0.3347200  3
    506    504    510    885     1  180.0000771  0.0000000  2
    506    504    510    512     1  0.0000000  3.3472000  1
    506    504    510    512     1  0.0000000  0.0000000  2
    506    504    510    512     1  180.0000771  0.3347200  3
    507    511    897    898     1  180.0000771  10.4600000  2
    508    507    511    513     1  0.0000000  3.3472000  1
    508    507    511    513     1  0.0000000  0.0000000  2
    508    507    511    513     1  180.0000771  0.3347200  3
    508    507    511    897     1  180.0000771  0.0000000  2
    509    507    511    513     1  0.0000000  3.3472000  1
    509    507    511    513     1  0.0000000  0.0000000  2
    509    507    511    513     1  180.0000771  0.3347200  3
    509    507    511    897     1  180.0000771  0.0000000  2
    510    885    887    889     1  0.0000000  0.0000000  2
    510    885    887    890     1  0.0000000  0.0000000  2
    511    897    899    901     1  0.0000000  0.0000000  2
    511    897    899    902     1  0.0000000  0.0000000  2
    512    510    885    886     1  0.0000000  8.3680000  1
    512    510    885    886     1  180.0000771  10.4600000  2
    513    511    897    898     1  0.0000000  8.3680000  1
    513    511    897    898     1  180.0000771  10.4600000  2
    516    519    539    540     1  0.0000000  0.0000000  2
    516    522    523    524     1  0.0000000  1.2552000  3
    516    522    523    525     1  0.0000000  1.2552000  3
    516    522    526    527     1  0.0000000  1.2552000  3
    516    522    526    528     1  0.0000000  1.2552000  3
    517    516    519    539     1  0.0000000  0.6508444  3
    517    516    519    520     1  0.0000000  0.6508444  3
    517    516    519    521     1  0.0000000  0.6508444  3
    517    516    522    523     1  0.0000000  1.2552000  3
    517    516    522    526     1  0.0000000  1.2552000  3
    518    516    519    539     1  0.0000000  0.6508444  3
    518    516    519    520     1  0.0000000  0.6508444  3
    518    516    519    521     1  0.0000000  0.6508444  3
    518    516    522    523     1  0.0000000  1.2552000  3
    518    516    522    526     1  0.0000000  1.2552000  3
    520    519    516    522     1  0.0000000  0.6508444  3
    520    519    539    540     1  0.0000000  0.0000000  2
    521    519    516    522     1  0.0000000  0.6508444  3
    521    519    539    540     1  0.0000000  0.0000000  2
    522    523    532    533     1  0.0000000  0.6508444  3
    522    523    532    534     1  0.0000000  0.6508444  3
    522    526    529    530     1  0.0000000  0.6508444  3
    522    526    529    531     1  0.0000000  0.6508444  3
    523    522    526    527     1  0.0000000  1.2552000  3
    523    522    526    528     1  0.0000000  1.2552000  3
    524    523    522    526     1  0.0000000  1.2552000  3
    524    523    532    536     1  0.0000000  0.6508444  3
    524    523    532    533     1  0.0000000  0.6508444  3
    524    523    532    534     1  0.0000000  0.6508444  3
    525    523    522    526     1  0.0000000  1.2552000  3
    525    523    532    536     1  0.0000000  0.6508444  3
    525    523    532    533     1  0.0000000  0.6508444  3
    525    523    532    534     1  0.0000000  0.6508444  3
    527    526    529    535     1  0.0000000  0.6508444  3
    527    526    529    530     1  0.0000000  0.6508444  3
    527    526    529    531     1  0.0000000  0.6508444  3
    528    526    529    535     1  0.0000000  0.6508444  3
    528    526    529    530     1  0.0000000  0.6508444  3
    528    526    529    531     1  0.0000000  0.6508444  3
    529    535    909    910     1  180.0000771  10.4600000  2
    530    529    535    909     1  180.0000771  0.0000000  2
    530    529    535    537     1  0.0000000  3.3472000  1
    530    529    535    537     1  0.0000000  0.0000000  2
    530    529    535    537     1  180.0000771  0.3347200  3
    531    529    535    909     1  180.0000771  0.0000000  2
    531    529    535    537     1  0.0000000  3.3472000  1
    531    529    535    537     1  0.0000000  0.0000000  2
    531    529    535    537     1  180.0000771  0.3347200  3
    532    536    921    922     1  180.0000771  10.4600000  2
    533    532    536    538     1  0.0000000  3.3472000  1
    533    532    536    538     1  0.0000000  0.0000000  2
    533    532    536    538     1  180.0000771  0.3347200  3
    533    532    536    921     1  180.0000771  0.0000000  2
    534    532    536    538     1  0.0000000  3.3472000  1
    534    532    536    538     1  0.0000000  0.0000000  2
    534    532    536    538     1  180.0000771  0.3347200  3
    534    532    536    921     1  180.0000771  0.0000000  2
    535    909    911    913     1  0.0000000  0.0000000  2
    535    909    911    914     1  0.0000000  0.0000000  2
    536    921    923    925     1  0.0000000  0.0000000  2
    536    921    923    926     1  0.0000000  0.0000000  2
    537    535    909    910     1  0.0000000  8.3680000  1
    537    535    909    910     1  180.0000771  10.4600000  2
    538    536    921    922     1  0.0000000  8.3680000  1
    538    536    921    922     1  180.0000771  10.4600000  2
    541    544    564    565     1  0.0000000  0.0000000  2
    541    547    548    549     1  0.0000000  1.2552000  3
    541    547    548    550     1  0.0000000  1.2552000  3
    541    547    551    552     1  0.0000000  1.2552000  3
    541    547    551    553     1  0.0000000  1.2552000  3
    542    541    544    564     1  0.0000000  0.6508444  3
    542    541    544    545     1  0.0000000  0.6508444  3
    542    541    544    546     1  0.0000000  0.6508444  3
    542    541    547    548     1  0.0000000  1.2552000  3
    542    541    547    551     1  0.0000000  1.2552000  3
    543    541    544    564     1  0.0000000  0.6508444  3
    543    541    544    545     1  0.0000000  0.6508444  3
    543    541    544    546     1  0.0000000  0.6508444  3
    543    541    547    548     1  0.0000000  1.2552000  3
    543    541    547    551     1  0.0000000  1.2552000  3
    545    544    541    547     1  0.0000000  0.6508444  3
    545    544    564    565     1  0.0000000  0.0000000  2
    546    544    541    547     1  0.0000000  0.6508444  3
    546    544    564    565     1  0.0000000  0.0000000  2
    547    548    557    558     1  0.0000000  0.6508444  3
    547    548    557    559     1  0.0000000  0.6508444  3
    547    551    554    555     1  0.0000000  0.6508444  3
    547    551    554    556     1  0.0000000  0.6508444  3
    548    547    551    552     1  0.0000000  1.2552000  3
    548    547    551    553     1  0.0000000  1.2552000  3
    549    548    547    551     1  0.0000000  1.2552000  3
    549    548    557    561     1  0.0000000  0.6508444  3
    549    548    557    558     1  0.0000000  0.6508444  3
    549    548    557    559     1  0.0000000  0.6508444  3
    550    548    547    551     1  0.0000000  1.2552000  3
    550    548    557    561     1  0.0000000  0.6508444  3
    550    548    557    558     1  0.0000000  0.6508444  3
    550    548    557    559     1  0.0000000  0.6508444  3
    552    551    554    560     1  0.0000000  0.6508444  3
    552    551    554    555     1  0.0000000  0.6508444  3
    552    551    554    556     1  0.0000000  0.6508444  3
    553    551    554    560     1  0.0000000  0.6508444  3
    553    551    554    555     1  0.0000000  0.6508444  3
    553    551    554    556     1  0.0000000  0.6508444  3
    554    560    933    934     1  180.0000771  10.4600000  2
    555    554    560    933     1  180.0000771  0.0000000  2
    555    554    560    562     1  0.0000000  3.3472000  1
    555    554    560    562     1  0.0000000  0.0000000  2
    555    554    560    562     1  180.0000771  0.3347200  3
    556    554    560    933     1  180.0000771  0.0000000  2
    556    554    560    562     1  0.0000000  3.3472000  1
    556    554    560    562     1  0.0000000  0.0000000  2
    556    554    560    562     1  180.0000771  0.3347200  3
    557    561    945    946     1  180.0000771  10.4600000  2
    558    557    561    563     1  0.0000000  3.3472000  1
    558    557    561    563     1  0.0000000  0.0000000  2
    558    557    561    563     1  180.0000771  0.3347200  3
    558    557    561    945     1  180.0000771  0.0000000  2
    559    557    561    563     1  0.0000000  3.3472000  1
    559    557    561    563     1  0.0000000  0.0000000  2
    559    557    561    563     1  180.0000771  0.3347200  3
    559    557    561    945     1  180.0000771  0.0000000  2
    560    933    935    937     1  0.0000000  0.0000000  2
    560    933    935    938     1  0.0000000  0.0000000  2
    561    945    947    949     1  0.0000000  0.0000000  2
    561    945    947    950     1  0.0000000  0.0000000  2
    562    560    933    934     1  0.0000000  8.3680000  1
    562    560    933    934     1  180.0000771  10.4600000  2
    563    561    945    946     1  0.0000000  8.3680000  1
    563    561    945    946     1  180.0000771  10.4600000  2
    566    569    589    590     1  0.0000000  0.0000000  2
    566    572    573    574     1  0.0000000  1.2552000  3
    566    572    573    575     1  0.0000000  1.2552000  3
    566    572    576    577     1  0.0000000  1.2552000  3
    566    572    576    578     1  0.0000000  1.2552000  3
    567    566    569    589     1  0.0000000  0.6508444  3
    567    566    569    570     1  0.0000000  0.6508444  3
    567    566    569    571     1  0.0000000  0.6508444  3
    567    566    572    573     1  0.0000000  1.2552000  3
    567    566    572    576     1  0.0000000  1.2552000  3
    568    566    569    589     1  0.0000000  0.6508444  3
    568    566    569    570     1  0.0000000  0.6508444  3
    568    566    569    571     1  0.0000000  0.6508444  3
    568    566    572    573     1  0.0000000  1.2552000  3
    568    566    572    576     1  0.0000000  1.2552000  3
    570    569    566    572     1  0.0000000  0.6508444  3
    570    569    589    590     1  0.0000000  0.0000000  2
    571    569    566    572     1  0.0000000  0.6508444  3
    571    569    589    590     1  0.0000000  0.0000000  2
    572    573    582    583     1  0.0000000  0.6508444  3
    572    573    582    584     1  0.0000000  0.6508444  3
    572    576    579    580     1  0.0000000  0.6508444  3
    572    576    579    581     1  0.0000000  0.6508444  3
    573    572    576    577     1  0.0000000  1.2552000  3
    573    572    576    578     1  0.0000000  1.2552000  3
    574    573    572    576     1  0.0000000  1.2552000  3
    574    573    582    586     1  0.0000000  0.6508444  3
    574    573    582    583     1  0.0000000  0.6508444  3
    574    573    582    584     1  0.0000000  0.6508444  3
    575    573    572    576     1  0.0000000  1.2552000  3
    575    573    582    586     1  0.0000000  0.6508444  3
    575    573    582    583     1  0.0000000  0.6508444  3
    575    573    582    584     1  0.0000000  0.6508444  3
    577    576    579    585     1  0.0000000  0.6508444  3
    577    576    579    580     1  0.0000000  0.6508444  3
    577    576    579    581     1  0.0000000  0.6508444  3
    578    576    579    585     1  0.0000000  0.6508444  3
    578    576    579    580     1  0.0000000  0.6508444  3
    578    576    579    581     1  0.0000000  0.6508444  3
    579    585    957    958     1  180.0000771  10.4600000  2
    580    579    585    957     1  180.0000771  0.0000000  2
    580    579    585    587     1  0.0000000  3.3472000  1
    580    579    585    587     1  0.0000000  0.0000000  2
    580    579    585    587     1  180.0000771  0.3347200  3
    581    579    585    957     1  180.0000771  0.0000000  2
    581    579    585    587     1  0.0000000  3.3472000  1
    581    579    585    587     1  0.0000000  0.0000000  2
    581    579    585    587     1  180.0000771  0.3347200  3
    582    586    969    970     1  180.0000771  10.4600000  2
    583    582    586    588     1  0.0000000  3.3472000  1
    583    582    586    588     1  0.0000000  0.0000000  2
    583    582    586    588     1  180.0000771  0.3347200  3
    583    582    586    969     1  180.0000771  0.0000000  2
    584    582    586    588     1  0.0000000  3.3472000  1
    584    582    586    588     1  0.0000000  0.0000000  2
    584    582    586    588     1  180.0000771  0.3347200  3
    584    582    586    969     1  180.0000771  0.0000000  2
    585    957    959    961     1  0.0000000  0.0000000  2
    585    957    959    962     1  0.0000000  0.0000000  2
    586    969    971    973     1  0.0000000  0.0000000  2
    586    969    971    974     1  0.0000000  0.0000000  2
    587    585    957    958     1  0.0000000  8.3680000  1
    587    585    957    958     1  180.0000771  10.4600000  2
    588    586    969    970     1  0.0000000  8.3680000  1
    588    586    969    970     1  180.0000771  10.4600000  2
    591    594    614    615     1  0.0000000  0.0000000  2
    591    597    598    599     1  0.0000000  1.2552000  3
    591    597    598    600     1  0.0000000  1.2552000  3
    591    597    601    602     1  0.0000000  1.2552000  3
    591    597    601    603     1  0.0000000  1.2552000  3
    592    591    594    614     1  0.0000000  0.6508444  3
    592    591    594    595     1  0.0000000  0.6508444  3
    592    591    594    596     1  0.0000000  0.6508444  3
    592    591    597    598     1  0.0000000  1.2552000  3
    592    591    597    601     1  0.0000000  1.2552000  3
    593    591    594    614     1  0.0000000  0.6508444  3
    593    591    594    595     1  0.0000000  0.6508444  3
    593    591    594    596     1  0.0000000  0.6508444  3
    593    591    597    598     1  0.0000000  1.2552000  3
    593    591    597    601     1  0.0000000  1.2552000  3
    595    594    591    597     1  0.0000000  0.6508444  3
    595    594    614    615     1  0.0000000  0.0000000  2
    596    594    591    597     1  0.0000000  0.6508444  3
    596    594    614    615     1  0.0000000  0.0000000  2
    597    598    607    608     1  0.0000000  0.6508444  3
    597    598    607    609     1  0.0000000  0.6508444  3
    597    601    604    605     1  0.0000000  0.6508444  3
    597    601    604    606     1  0.0000000  0.6508444  3
    598    597    601    602     1  0.0000000  1.2552000  3
    598    597    601    603     1  0.0000000  1.2552000  3
    599    598    597    601     1  0.0000000  1.2552000  3
    599    598    607    611     1  0.0000000  0.6508444  3
    599    598    607    608     1  0.0000000  0.6508444  3
    599    598    607    609     1  0.0000000  0.6508444  3
    600    598    597    601     1  0.0000000  1.2552000  3
    600    598    607    611     1  0.0000000  0.6508444  3
    600    598    607    608     1  0.0000000  0.6508444  3
    600    598    607    609     1  0.0000000  0.6508444  3
    602    601    604    610     1  0.0000000  0.6508444  3
    602    601    604    605     1  0.0000000  0.6508444  3
    602    601    604    606     1  0.0000000  0.6508444  3
    603    601    604    610     1  0.0000000  0.6508444  3
    603    601    604    605     1  0.0000000  0.6508444  3
    603    601    604    606     1  0.0000000  0.6508444  3
    604    610    981    982     1  180.0000771  10.4600000  2
    605    604    610    981     1  180.0000771  0.0000000  2
    605    604    610    612     1  0.0000000  3.3472000  1
    605    604    610    612     1  0.0000000  0.0000000  2
    605    604    610    612     1  180.0000771  0.3347200  3
    606    604    610    981     1  180.0000771  0.0000000  2
    606    604    610    612     1  0.0000000  3.3472000  1
    606    604    610    612     1  0.0000000  0.0000000  2
    606    604    610    612     1  180.0000771  0.3347200  3
    607    611    993    994     1  180.0000771  10.4600000  2
    608    607    611    613     1  0.0000000  3.3472000  1
    608    607    611    613     1  0.0000000  0.0000000  2
    608    607    611    613     1  180.0000771  0.3347200  3
    608    607    611    993     1  180.0000771  0.0000000  2
    609    607    611    613     1  0.0000000  3.3472000  1
    609    607    611    613     1  0.0000000  0.0000000  2
    609    607    611    613     1  180.0000771  0.3347200  3
    609    607    611    993     1  180.0000771  0.0000000  2
    610    981    983    985     1  0.0000000  0.0000000  2
    610    981    983    986     1  0.0000000  0.0000000  2
    611    993    995    997     1  0.0000000  0.0000000  2
    611    993    995    998     1  0.0000000  0.0000000  2
    612    610    981    982     1  0.0000000  8.3680000  1
    612    610    981    982     1  180.0000771  10.4600000  2
    613    611    993    994     1  0.0000000  8.3680000  1
    613    611    993    994     1  180.0000771  10.4600000  2
    616    619    639    640     1  0.0000000  0.0000000  2
    616    622    623    624     1  0.0000000  1.2552000  3
    616    622    623    625     1  0.0000000  1.2552000  3
    616    622    626    627     1  0.0000000  1.2552000  3
    616    622    626    628     1  0.0000000  1.2552000  3
    617    616    619    639     1  0.0000000  0.6508444  3
    617    616    619    620     1  0.0000000  0.6508444  3
    617    616    619    621     1  0.0000000  0.6508444  3
    617    616    622    623     1  0.0000000  1.2552000  3
    617    616    622    626     1  0.0000000  1.2552000  3
    618    616    619    639     1  0.0000000  0.6508444  3
    618    616    619    620     1  0.0000000  0.6508444  3
    618    616    619    621     1  0.0000000  0.6508444  3
    618    616    622    623     1  0.0000000  1.2552000  3
    618    616    622    626     1  0.0000000  1.2552000  3
    620    619    616    622     1  0.0000000  0.6508444  3
    620    619    639    640     1  0.0000000  0.0000000  2
    621    619    616    622     1  0.0000000  0.6508444  3
    621    619    639    640     1  0.0000000  0.0000000  2
    622    623    632    633     1  0.0000000  0.6508444  3
    622    623    632    634     1  0.0000000  0.6508444  3
    622    626    629    630     1  0.0000000  0.6508444  3
    622    626    629    631     1  0.0000000  0.6508444  3
    623    622    626    627     1  0.0000000  1.2552000  3
    623    622    626    628     1  0.0000000  1.2552000  3
    624    623    622    626     1  0.0000000  1.2552000  3
    624    623    632    636     1  0.0000000  0.6508444  3
    624    623    632    633     1  0.0000000  0.6508444  3
    624    623    632    634     1  0.0000000  0.6508444  3
    625    623    622    626     1  0.0000000  1.2552000  3
    625    623    632    636     1  0.0000000  0.6508444  3
    625    623    632    633     1  0.0000000  0.6508444  3
    625    623    632    634     1  0.0000000  0.6508444  3
    627    626    629    635     1  0.0000000  0.6508444  3
    627    626    629    630     1  0.0000000  0.6508444  3
    627    626    629    631     1  0.0000000  0.6508444  3
    628    626    629    635     1  0.0000000  0.6508444  3
    628    626    629    630     1  0.0000000  0.6508444  3
    628    626    629    631     1  0.0000000  0.6508444  3
    629    635   1005   1006     1  180.0000771  10.4600000  2
    630    629    635   1005     1  180.0000771  0.0000000  2
    630    629    635    637     1  0.0000000  3.3472000  1
    630    629    635    637     1  0.0000000  0.0000000  2
    630    629    635    637     1  180.0000771  0.3347200  3
    631    629    635   1005     1  180.0000771  0.0000000  2
    631    629    635    637     1  0.0000000  3.3472000  1
    631    629    635    637     1  0.0000000  0.0000000  2
    631    629    635    637     1  180.0000771  0.3347200  3
    632    636   1017   1018     1  180.0000771  10.4600000  2
    633    632    636    638     1  0.0000000  3.3472000  1
    633    632    636    638     1  0.0000000  0.0000000  2
    633    632    636    638     1  180.0000771  0.3347200  3
    633    632    636   1017     1  180.0000771  0.0000000  2
    634    632    636    638     1  0.0000000  3.3472000  1
    634    632    636    638     1  0.0000000  0.0000000  2
    634    632    636    638     1  180.0000771  0.3347200  3
    634    632    636   1017     1  180.0000771  0.0000000  2
    635   1005   1007   1009     1  0.0000000  0.0000000  2
    635   1005   1007   1010     1  0.0000000  0.0000000  2
    636   1017   1019   1021     1  0.0000000  0.0000000  2
    636   1017   1019   1022     1  0.0000000  0.0000000  2
    637    635   1005   1006     1  0.0000000  8.3680000  1
    637    635   1005   1006     1  180.0000771  10.4600000  2
    638    636   1017   1018     1  0.0000000  8.3680000  1
    638    636   1017   1018     1  180.0000771  10.4600000  2
    641    644    664    665     1  0.0000000  0.0000000  2
    641    647    648    649     1  0.0000000  1.2552000  3
    641    647    648    650     1  0.0000000  1.2552000  3
    641    647    651    652     1  0.0000000  1.2552000  3
    641    647    651    653     1  0.0000000  1.2552000  3
    642    641    644    664     1  0.0000000  0.6508444  3
    642    641    644    645     1  0.0000000  0.6508444  3
    642    641    644    646     1  0.0000000  0.6508444  3
    642    641    647    648     1  0.0000000  1.2552000  3
    642    641    647    651     1  0.0000000  1.2552000  3
    643    641    644    664     1  0.0000000  0.6508444  3
    643    641    644    645     1  0.0000000  0.6508444  3
    643    641    644    646     1  0.0000000  0.6508444  3
    643    641    647    648     1  0.0000000  1.2552000  3
    643    641    647    651     1  0.0000000  1.2552000  3
    645    644    641    647     1  0.0000000  0.6508444  3
    645    644    664    665     1  0.0000000  0.0000000  2
    646    644    641    647     1  0.0000000  0.6508444  3
    646    644    664    665     1  0.0000000  0.0000000  2
    647    648    657    658     1  0.0000000  0.6508444  3
    647    648    657    659     1  0.0000000  0.6508444  3
    647    651    654    655     1  0.0000000  0.6508444  3
    647    651    654    656     1  0.0000000  0.6508444  3
    648    647    651    652     1  0.0000000  1.2552000  3
    648    647    651    653     1  0.0000000  1.2552000  3
    649    648    647    651     1  0.0000000  1.2552000  3
    649    648    657    661     1  0.0000000  0.6508444  3
    649    648    657    658     1  0.0000000  0.6508444  3
    649    648    657    659     1  0.0000000  0.6508444  3
    650    648    647    651     1  0.0000000  1.2552000  3
    650    648    657    661     1  0.0000000  0.6508444  3
    650    648    657    658     1  0.0000000  0.6508444  3
    650    648    657    659     1  0.0000000  0.6508444  3
    652    651    654    660     1  0.0000000  0.6508444  3
    652    651    654    655     1  0.0000000  0.6508444  3
    652    651    654    656     1  0.0000000  0.6508444  3
    653    651    654    660     1  0.0000000  0.6508444  3
    653    651    654    655     1  0.0000000  0.6508444  3
    653    651    654    656     1  0.0000000  0.6508444  3
    654    660   1029   1030     1  180.0000771  10.4600000  2
    655    654    660   1029     1  180.0000771  0.0000000  2
    655    654    660    662     1  0.0000000  3.3472000  1
    655    654    660    662     1  0.0000000  0.0000000  2
    655    654    660    662     1  180.0000771  0.3347200  3
    656    654    660   1029     1  180.0000771  0.0000000  2
    656    654    660    662     1  0.0000000  3.3472000  1
    656    654    660    662     1  0.0000000  0.0000000  2
    656    654    660    662     1  180.0000771  0.3347200  3
    657    661   1041   1042     1  180.0000771  10.4600000  2
    658    657    661    663     1  0.0000000  3.3472000  1
    658    657    661    663     1  0.0000000  0.0000000  2
    658    657    661    663     1  180.0000771  0.3347200  3
    658    657    661   1041     1  180.0000771  0.0000000  2
    659    657    661    663     1  0.0000000  3.3472000  1
    659    657    661    663     1  0.0000000  0.0000000  2
    659    657    661    663     1  180.0000771  0.3347200  3
    659    657    661   1041     1  180.0000771  0.0000000  2
    660   1029   1031   1033     1  0.0000000  0.0000000  2
    660   1029   1031   1034     1  0.0000000  0.0000000  2
    661   1041   1043   1045     1  0.0000000  0.0000000  2
    661   1041   1043   1046     1  0.0000000  0.0000000  2
    662    660   1029   1030     1  0.0000000  8.3680000  1
    662    660   1029   1030     1  180.0000771  10.4600000  2
    663    661   1041   1042     1  0.0000000  8.3680000  1
    663    661   1041   1042     1  180.0000771  10.4600000  2
    666    669    689    690     1  0.0000000  0.0000000  2
    666    672    673    674     1  0.0000000  1.2552000  3
    666    672    673    675     1  0.0000000  1.2552000  3
    666    672    676    677     1  0.0000000  1.2552000  3
    666    672    676    678     1  0.0000000  1.2552000  3
    667    666    669    689     1  0.0000000  0.6508444  3
    667    666    669    670     1  0.0000000  0.6508444  3
    667    666    669    671     1  0.0000000  0.6508444  3
    667    666    672    673     1  0.0000000  1.2552000  3
    667    666    672    676     1  0.0000000  1.2552000  3
    668    666    669    689     1  0.0000000  0.6508444  3
    668    666    669    670     1  0.0000000  0.6508444  3
    668    666    669    671     1  0.0000000  0.6508444  3
    668    666    672    673     1  0.0000000  1.2552000  3
    668    666    672    676     1  0.0000000  1.2552000  3
    670    669    666    672     1  0.0000000  0.6508444  3
    670    669    689    690     1  0.0000000  0.0000000  2
    671    669    666    672     1  0.0000000  0.6508444  3
    671    669    689    690     1  0.0000000  0.0000000  2
    672    673    682    683     1  0.0000000  0.6508444  3
    672    673    682    684     1  0.0000000  0.6508444  3
    672    676    679    680     1  0.0000000  0.6508444  3
    672    676    679    681     1  0.0000000  0.6508444  3
    673    672    676    677     1  0.0000000  1.2552000  3
    673    672    676    678     1  0.0000000  1.2552000  3
    674    673    672    676     1  0.0000000  1.2552000  3
    674    673    682    686     1  0.0000000  0.6508444  3
    674    673    682    683     1  0.0000000  0.6508444  3
    674    673    682    684     1  0.0000000  0.6508444  3
    675    673    672    676     1  0.0000000  1.2552000  3
    675    673    682    686     1  0.0000000  0.6508444  3
    675    673    682    683     1  0.0000000  0.6508444  3
    675    673    682    684     1  0.0000000  0.6508444  3
    677    676    679    685     1  0.0000000  0.6508444  3
    677    676    679    680     1  0.0000000  0.6508444  3
    677    676    679    681     1  0.0000000  0.6508444  3
    678    676    679    685     1  0.0000000  0.6508444  3
    678    676    679    680     1  0.0000000  0.6508444  3
    678    676    679    681     1  0.0000000  0.6508444  3
    679    685   1053   1054     1  180.0000771  10.4600000  2
    680    679    685   1053     1  180.0000771  0.0000000  2
    680    679    685    687     1  0.0000000  3.3472000  1
    680    679    685    687     1  0.0000000  0.0000000  2
    680    679    685    687     1  180.0000771  0.3347200  3
    681    679    685   1053     1  180.0000771  0.0000000  2
    681    679    685    687     1  0.0000000  3.3472000  1
    681    679    685    687     1  0.0000000  0.0000000  2
    681    679    685    687     1  180.0000771  0.3347200  3
    682    686   1065   1066     1  180.0000771  10.4600000  2
    683    682    686    688     1  0.0000000  3.3472000  1
    683    682    686    688     1  0.0000000  0.0000000  2
    683    682    686    688     1  180.0000771  0.3347200  3
    683    682    686   1065     1  180.0000771  0.0000000  2
    684    682    686    688     1  0.0000000  3.3472000  1
    684    682    686    688     1  0.0000000  0.0000000  2
    684    682    686    688     1  180.0000771  0.3347200  3
    684    682    686   1065     1  180.0000771  0.0000000  2
    685   1053   1055   1057     1  0.0000000  0.0000000  2
    685   1053   1055   1058     1  0.0000000  0.0000000  2
    686   1065   1067   1069     1  0.0000000  0.0000000  2
    686   1065   1067   1070     1  0.0000000  0.0000000  2
    687    685   1053   1054     1  0.0000000  8.3680000  1
    687    685   1053   1054     1  180.0000771  10.4600000  2
    688    686   1065   1066     1  0.0000000  8.3680000  1
    688    686   1065   1066     1  180.0000771  10.4600000  2
    691    694    714    715     1  0.0000000  0.0000000  2
    691    697    698    699     1  0.0000000  1.2552000  3
    691    697    698    700     1  0.0000000  1.2552000  3
    691    697    701    702     1  0.0000000  1.2552000  3
    691    697    701    703     1  0.0000000  1.2552000  3
    692    691    694    714     1  0.0000000  0.6508444  3
    692    691    694    695     1  0.0000000  0.6508444  3
    692    691    694    696     1  0.0000000  0.6508444  3
    692    691    697    698     1  0.0000000  1.2552000  3
    692    691    697    701     1  0.0000000  1.2552000  3
    693    691    694    714     1  0.0000000  0.6508444  3
    693    691    694    695     1  0.0000000  0.6508444  3
    693    691    694    696     1  0.0000000  0.6508444  3
    693    691    697    698     1  0.0000000  1.2552000  3
    693    691    697    701     1  0.0000000  1.2552000  3
    695    694    691    697     1  0.0000000  0.6508444  3
    695    694    714    715     1  0.0000000  0.0000000  2
    696    694    691    697     1  0.0000000  0.6508444  3
    696    694    714    715     1  0.0000000  0.0000000  2
    697    698    707    708     1  0.0000000  0.6508444  3
    697    698    707    709     1  0.0000000  0.6508444  3
    697    701    704    705     1  0.0000000  0.6508444  3
    697    701    704    706     1  0.0000000  0.6508444  3
    698    697    701    702     1  0.0000000  1.2552000  3
    698    697    701    703     1  0.0000000  1.2552000  3
    699    698    697    701     1  0.0000000  1.2552000  3
    699    698    707    711     1  0.0000000  0.6508444  3
    699    698    707    708     1  0.0000000  0.6508444  3
    699    698    707    709     1  0.0000000  0.6508444  3
    700    698    697    701     1  0.0000000  1.2552000  3
    700    698    707    711     1  0.0000000  0.6508444  3
    700    698    707    708     1  0.0000000  0.6508444  3
    700    698    707    709     1  0.0000000  0.6508444  3
    702    701    704    710     1  0.0000000  0.6508444  3
    702    701    704    705     1  0.0000000  0.6508444  3
    702    701    704    706     1  0.0000000  0.6508444  3
    703    701    704    710     1  0.0000000  0.6508444  3
    703    701    704    705     1  0.0000000  0.6508444  3
    703    701    704    706     1  0.0000000  0.6508444  3
    704    710   1077   1078     1  180.0000771  10.4600000  2
    705    704    710   1077     1  180.0000771  0.0000000  2
    705    704    710    712     1  0.0000000  3.3472000  1
    705    704    710    712     1  0.0000000  0.0000000  2
    705    704    710    712     1  180.0000771  0.3347200  3
    706    704    710   1077     1  180.0000771  0.0000000  2
    706    704    710    712     1  0.0000000  3.3472000  1
    706    704    710    712     1  0.0000000  0.0000000  2
    706    704    710    712     1  180.0000771  0.3347200  3
    707    711   1089   1090     1  180.0000771  10.4600000  2
    708    707    711    713     1  0.0000000  3.3472000  1
    708    707    711    713     1  0.0000000  0.0000000  2
    708    707    711    713     1  180.0000771  0.3347200  3
    708    707    711   1089     1  180.0000771  0.0000000  2
    709    707    711    713     1  0.0000000  3.3472000  1
    709    707    711    713     1  0.0000000  0.0000000  2
    709    707    711    713     1  180.0000771  0.3347200  3
    709    707    711   1089     1  180.0000771  0.0000000  2
    710   1077   1079   1081     1  0.0000000  0.0000000  2
    710   1077   1079   1082     1  0.0000000  0.0000000  2
    711   1089   1091   1093     1  0.0000000  0.0000000  2
    711   1089   1091   1094     1  0.0000000  0.0000000  2
    712    710   1077   1078     1  0.0000000  8.3680000  1
    712    710   1077   1078     1  180.0000771  10.4600000  2
    713    711   1089   1090     1  0.0000000  8.3680000  1
    713    711   1089   1090     1  180.0000771  10.4600000  2
    716    719    739    740     1  0.0000000  0.0000000  2
    716    722    723    724     1  0.0000000  1.2552000  3
    716    722    723    725     1  0.0000000  1.2552000  3
    716    722    726    727     1  0.0000000  1.2552000  3
    716    722    726    728     1  0.0000000  1.2552000  3
    717    716    719    739     1  0.0000000  0.6508444  3
    717    716    719    720     1  0.0000000  0.6508444  3
    717    716    719    721     1  0.0000000  0.6508444  3
    717    716    722    723     1  0.0000000  1.2552000  3
    717    716    722    726     1  0.0000000  1.2552000  3
    718    716    719    739     1  0.0000000  0.6508444  3
    718    716    719    720     1  0.0000000  0.6508444  3
    718    716    719    721     1  0.0000000  0.6508444  3
    718    716    722    723     1  0.0000000  1.2552000  3
    718    716    722    726     1  0.0000000  1.2552000  3
    720    719    716    722     1  0.0000000  0.6508444  3
    720    719    739    740     1  0.0000000  0.0000000  2
    721    719    716    722     1  0.0000000  0.6508444  3
    721    719    739    740     1  0.0000000  0.0000000  2
    722    723    732    733     1  0.0000000  0.6508444  3
    722    723    732    734     1  0.0000000  0.6508444  3
    722    726    729    730     1  0.0000000  0.6508444  3
    722    726    729    731     1  0.0000000  0.6508444  3
    723    722    726    727     1  0.0000000  1.2552000  3
    723    722    726    728     1  0.0000000  1.2552000  3
    724    723    722    726     1  0.0000000  1.2552000  3
    724    723    732    736     1  0.0000000  0.6508444  3
    724    723    732    733     1  0.0000000  0.6508444  3
    724    723    732    734     1  0.0000000  0.6508444  3
    725    723    722    726     1  0.0000000  1.2552000  3
    725    723    732    736     1  0.0000000  0.6508444  3
    725    723    732    733     1  0.0000000  0.6508444  3
    725    723    732    734     1  0.0000000  0.6508444  3
    727    726    729    735     1  0.0000000  0.6508444  3
    727    726    729    730     1  0.0000000  0.6508444  3
    727    726    729    731     1  0.0000000  0.6508444  3
    728    726    729    735     1  0.0000000  0.6508444  3
    728    726    729    730     1  0.0000000  0.6508444  3
    728    726    729    731     1  0.0000000  0.6508444  3
    729    735   1101   1102     1  180.0000771  10.4600000  2
    730    729    735   1101     1  180.0000771  0.0000000  2
    730    729    735    737     1  0.0000000  3.3472000  1
    730    729    735    737     1  0.0000000  0.0000000  2
    730    729    735    737     1  180.0000771  0.3347200  3
    731    729    735   1101     1  180.0000771  0.0000000  2
    731    729    735    737     1  0.0000000  3.3472000  1
    731    729    735    737     1  0.0000000  0.0000000  2
    731    729    735    737     1  180.0000771  0.3347200  3
    732    736   1113   1114     1  180.0000771  10.4600000  2
    733    732    736   1113     1  180.0000771  0.0000000  2
    733    732    736    738     1  0.0000000  3.3472000  1
    733    732    736    738     1  0.0000000  0.0000000  2
    733    732    736    738     1  180.0000771  0.3347200  3
    734    732    736   1113     1  180.0000771  0.0000000  2
    734    732    736    738     1  0.0000000  3.3472000  1
    734    732    736    738     1  0.0000000  0.0000000  2
    734    732    736    738     1  180.0000771  0.3347200  3
    735   1101   1103   1105     1  0.0000000  0.0000000  2
    735   1101   1103   1106     1  0.0000000  0.0000000  2
    736   1113   1115   1117     1  0.0000000  0.0000000  2
    736   1113   1115   1118     1  0.0000000  0.0000000  2
    737    735   1101   1102     1  0.0000000  8.3680000  1
    737    735   1101   1102     1  180.0000771  10.4600000  2
    738    736   1113   1114     1  0.0000000  8.3680000  1
    738    736   1113   1114     1  180.0000771  10.4600000  2
    741    743    744    747     1  0.0000000  0.6508444  3
    741    743    744    748     1  0.0000000  0.6508444  3
    742    741    743    744     1  0.0000000  0.0000000  2
    742    741    743    745     1  0.0000000  0.0000000  2
    742    741    743    746     1  0.0000000  0.0000000  2
    743    744    749    750     1  0.0000000  0.6508444  3
    743    744    749    751     1  0.0000000  0.6508444  3
    743    744    749    752     1  0.0000000  0.6508444  3
    745    743    744    749     1  0.0000000  0.6508444  3
    745    743    744    747     1  0.0000000  0.6508444  3
    745    743    744    748     1  0.0000000  0.6508444  3
    746    743    744    749     1  0.0000000  0.6508444  3
    746    743    744    747     1  0.0000000  0.6508444  3
    746    743    744    748     1  0.0000000  0.6508444  3
    747    744    749    750     1  0.0000000  0.6508444  3
    747    744    749    751     1  0.0000000  0.6508444  3
    747    744    749    752     1  0.0000000  0.6508444  3
    748    744    749    750     1  0.0000000  0.6508444  3
    748    744    749    751     1  0.0000000  0.6508444  3
    748    744    749    752     1  0.0000000  0.6508444  3
    753    755    756    759     1  0.0000000  0.6508444  3
    753    755    756    760     1  0.0000000  0.6508444  3
    754    753    755    756     1  0.0000000  0.0000000  2
    754    753    755    757     1  0.0000000  0.0000000  2
    754    753    755    758     1  0.0000000  0.0000000  2
    755    756    761    762     1  0.0000000  0.6508444  3
    755    756    761    763     1  0.0000000  0.6508444  3
    755    756    761    764     1  0.0000000  0.6508444  3
    757    755    756    761     1  0.0000000  0.6508444  3
    757    755    756    759     1  0.0000000  0.6508444  3
    757    755    756    760     1  0.0000000  0.6508444  3
    758    755    756    761     1  0.0000000  0.6508444  3
    758    755    756    759     1  0.0000000  0.6508444  3
    758    755    756    760     1  0.0000000  0.6508444  3
    759    756    761    762     1  0.0000000  0.6508444  3
    759    756    761    763     1  0.0000000  0.6508444  3
    759    756    761    764     1  0.0000000  0.6508444  3
    760    756    761    762     1  0.0000000  0.6508444  3
    760    756    761    763     1  0.0000000  0.6508444  3
    760    756    761    764     1  0.0000000  0.6508444  3
    765    767    768    771     1  0.0000000  0.6508444  3
    765    767    768    772     1  0.0000000  0.6508444  3
    766    765    767    768     1  0.0000000  0.0000000  2
    766    765    767    769     1  0.0000000  0.0000000  2
    766    765    767    770     1  0.0000000  0.0000000  2
    767    768    773    774     1  0.0000000  0.6508444  3
    767    768    773    775     1  0.0000000  0.6508444  3
    767    768    773    776     1  0.0000000  0.6508444  3
    769    767    768    773     1  0.0000000  0.6508444  3
    769    767    768    771     1  0.0000000  0.6508444  3
    769    767    768    772     1  0.0000000  0.6508444  3
    770    767    768    773     1  0.0000000  0.6508444  3
    770    767    768    771     1  0.0000000  0.6508444  3
    770    767    768    772     1  0.0000000  0.6508444  3
    771    768    773    774     1  0.0000000  0.6508444  3
    771    768    773    775     1  0.0000000  0.6508444  3
    771    768    773    776     1  0.0000000  0.6508444  3
    772    768    773    774     1  0.0000000  0.6508444  3
    772    768    773    775     1  0.0000000  0.6508444  3
    772    768    773    776     1  0.0000000  0.6508444  3
    777    779    780    783     1  0.0000000  0.6508444  3
    777    779    780    784     1  0.0000000  0.6508444  3
    778    777    779    780     1  0.0000000  0.0000000  2
    778    777    779    781     1  0.0000000  0.0000000  2
    778    777    779    782     1  0.0000000  0.0000000  2
    779    780    785    786     1  0.0000000  0.6508444  3
    779    780    785    787     1  0.0000000  0.6508444  3
    779    780    785    788     1  0.0000000  0.6508444  3
    781    779    780    785     1  0.0000000  0.6508444  3
    781    779    780    783     1  0.0000000  0.6508444  3
    781    779    780    784     1  0.0000000  0.6508444  3
    782    779    780    785     1  0.0000000  0.6508444  3
    782    779    780    783     1  0.0000000  0.6508444  3
    782    779    780    784     1  0.0000000  0.6508444  3
    783    780    785    786     1  0.0000000  0.6508444  3
    783    780    785    787     1  0.0000000  0.6508444  3
    783    780    785    788     1  0.0000000  0.6508444  3
    784    780    785    786     1  0.0000000  0.6508444  3
    784    780    785    787     1  0.0000000  0.6508444  3
    784    780    785    788     1  0.0000000  0.6508444  3
    789    791    792    795     1  0.0000000  0.6508444  3
    789    791    792    796     1  0.0000000  0.6508444  3
    790    789    791    792     1  0.0000000  0.0000000  2
    790    789    791    793     1  0.0000000  0.0000000  2
    790    789    791    794     1  0.0000000  0.0000000  2
    791    792    797    798     1  0.0000000  0.6508444  3
    791    792    797    799     1  0.0000000  0.6508444  3
    791    792    797    800     1  0.0000000  0.6508444  3
    793    791    792    797     1  0.0000000  0.6508444  3
    793    791    792    795     1  0.0000000  0.6508444  3
    793    791    792    796     1  0.0000000  0.6508444  3
    794    791    792    797     1  0.0000000  0.6508444  3
    794    791    792    795     1  0.0000000  0.6508444  3
    794    791    792    796     1  0.0000000  0.6508444  3
    795    792    797    798     1  0.0000000  0.6508444  3
    795    792    797    799     1  0.0000000  0.6508444  3
    795    792    797    800     1  0.0000000  0.6508444  3
    796    792    797    798     1  0.0000000  0.6508444  3
    796    792    797    799     1  0.0000000  0.6508444  3
    796    792    797    800     1  0.0000000  0.6508444  3
    801    803    804    807     1  0.0000000  0.6508444  3
    801    803    804    808     1  0.0000000  0.6508444  3
    802    801    803    804     1  0.0000000  0.0000000  2
    802    801    803    805     1  0.0000000  0.0000000  2
    802    801    803    806     1  0.0000000  0.0000000  2
    803    804    809    810     1  0.0000000  0.6508444  3
    803    804    809    811     1  0.0000000  0.6508444  3
    803    804    809    812     1  0.0000000  0.6508444  3
    805    803    804    809     1  0.0000000  0.6508444  3
    805    803    804    807     1  0.0000000  0.6508444  3
    805    803    804    808     1  0.0000000  0.6508444  3
    806    803    804    809     1  0.0000000  0.6508444  3
    806    803    804    807     1  0.0000000  0.6508444  3
    806    803    804    808     1  0.0000000  0.6508444  3
    807    804    809    810     1  0.0000000  0.6508444  3
    807    804    809    811     1  0.0000000  0.6508444  3
    807    804    809    812     1  0.0000000  0.6508444  3
    808    804    809    810     1  0.0000000  0.6508444  3
    808    804    809    811     1  0.0000000  0.6508444  3
    808    804    809    812     1  0.0000000  0.6508444  3
    813    815    816    819     1  0.0000000  0.6508444  3
    813    815    816    820     1  0.0000000  0.6508444  3
    814    813    815    816     1  0.0000000  0.0000000  2
    814    813    815    817     1  0.0000000  0.0000000  2
    814    813    815    818     1  0.0000000  0.0000000  2
    815    816    821    822     1  0.0000000  0.6508444  3
    815    816    821    823     1  0.0000000  0.6508444  3
    815    816    821    824     1  0.0000000  0.6508444  3
    817    815    816    821     1  0.0000000  0.6508444  3
    817    815    816    819     1  0.0000000  0.6508444  3
    817    815    816    820     1  0.0000000  0.6508444  3
    818    815    816    821     1  0.0000000  0.6508444  3
    818    815    816    819     1  0.0000000  0.6508444  3
    818    815    816    820     1  0.0000000  0.6508444  3
    819    816    821    822     1  0.0000000  0.6508444  3
    819    816    821    823     1  0.0000000  0.6508444  3
    819    816    821    824     1  0.0000000  0.6508444  3
    820    816    821    822     1  0.0000000  0.6508444  3
    820    816    821    823     1  0.0000000  0.6508444  3
    820    816    821    824     1  0.0000000  0.6508444  3
    825    827    828    831     1  0.0000000  0.6508444  3
    825    827    828    832     1  0.0000000  0.6508444  3
    826    825    827    828     1  0.0000000  0.0000000  2
    826    825    827    829     1  0.0000000  0.0000000  2
    826    825    827    830     1  0.0000000  0.0000000  2
    827    828    833    834     1  0.0000000  0.6508444  3
    827    828    833    835     1  0.0000000  0.6508444  3
    827    828    833    836     1  0.0000000  0.6508444  3
    829    827    828    833     1  0.0000000  0.6508444  3
    829    827    828    831     1  0.0000000  0.6508444  3
    829    827    828    832     1  0.0000000  0.6508444  3
    830    827    828    833     1  0.0000000  0.6508444  3
    830    827    828    831     1  0.0000000  0.6508444  3
    830    827    828    832     1  0.0000000  0.6508444  3
    831    828    833    834     1  0.0000000  0.6508444  3
    831    828    833    835     1  0.0000000  0.6508444  3
    831    828    833    836     1  0.0000000  0.6508444  3
    832    828    833    834     1  0.0000000  0.6508444  3
    832    828    833    835     1  0.0000000  0.6508444  3
    832    828    833    836     1  0.0000000  0.6508444  3
    837    839    840    843     1  0.0000000  0.6508444  3
    837    839    840    844     1  0.0000000  0.6508444  3
    838    837    839    840     1  0.0000000  0.0000000  2
    838    837    839    841     1  0.0000000  0.0000000  2
    838    837    839    842     1  0.0000000  0.0000000  2
    839    840    845    846     1  0.0000000  0.6508444  3
    839    840    845    847     1  0.0000000  0.6508444  3
    839    840    845    848     1  0.0000000  0.6508444  3
    841    839    840    845     1  0.0000000  0.6508444  3
    841    839    840    843     1  0.0000000  0.6508444  3
    841    839    840    844     1  0.0000000  0.6508444  3
    842    839    840    845     1  0.0000000  0.6508444  3
    842    839    840    843     1  0.0000000  0.6508444  3
    842    839    840    844     1  0.0000000  0.6508444  3
    843    840    845    846     1  0.0000000  0.6508444  3
    843    840    845    847     1  0.0000000  0.6508444  3
    843    840    845    848     1  0.0000000  0.6508444  3
    844    840    845    846     1  0.0000000  0.6508444  3
    844    840    845    847     1  0.0000000  0.6508444  3
    844    840    845    848     1  0.0000000  0.6508444  3
    849    851    852    855     1  0.0000000  0.6508444  3
    849    851    852    856     1  0.0000000  0.6508444  3
    850    849    851    852     1  0.0000000  0.0000000  2
    850    849    851    853     1  0.0000000  0.0000000  2
    850    849    851    854     1  0.0000000  0.0000000  2
    851    852    857    858     1  0.0000000  0.6508444  3
    851    852    857    859     1  0.0000000  0.6508444  3
    851    852    857    860     1  0.0000000  0.6508444  3
    853    851    852    857     1  0.0000000  0.6508444  3
    853    851    852    855     1  0.0000000  0.6508444  3
    853    851    852    856     1  0.0000000  0.6508444  3
    854    851    852    857     1  0.0000000  0.6508444  3
    854    851    852    855     1  0.0000000  0.6508444  3
    854    851    852    856     1  0.0000000  0.6508444  3
    855    852    857    858     1  0.0000000  0.6508444  3
    855    852    857    859     1  0.0000000  0.6508444  3
    855    852    857    860     1  0.0000000  0.6508444  3
    856    852    857    858     1  0.0000000  0.6508444  3
    856    852    857    859     1  0.0000000  0.6508444  3
    856    852    857    860     1  0.0000000  0.6508444  3
    861    863    864    867     1  0.0000000  0.6508444  3
    861    863    864    868     1  0.0000000  0.6508444  3
    862    861    863    864     1  0.0000000  0.0000000  2
    862    861    863    865     1  0.0000000  0.0000000  2
    862    861    863    866     1  0.0000000  0.0000000  2
    863    864    869    870     1  0.0000000  0.6508444  3
    863    864    869    871     1  0.0000000  0.6508444  3
    863    864    869    872     1  0.0000000  0.6508444  3
    865    863    864    869     1  0.0000000  0.6508444  3
    865    863    864    867     1  0.0000000  0.6508444  3
    865    863    864    868     1  0.0000000  0.6508444  3
    866    863    864    869     1  0.0000000  0.6508444  3
    866    863    864    867     1  0.0000000  0.6508444  3
    866    863    864    868     1  0.0000000  0.6508444  3
    867    864    869    870     1  0.0000000  0.6508444  3
    867    864    869    871     1  0.0000000  0.6508444  3
    867    864    869    872     1  0.0000000  0.6508444  3
    868    864    869    870     1  0.0000000  0.6508444  3
    868    864    869    871     1  0.0000000  0.6508444  3
    868    864    869    872     1  0.0000000  0.6508444  3
    873    875    876    879     1  0.0000000  0.6508444  3
    873    875    876    880     1  0.0000000  0.6508444  3
    874    873    875    876     1  0.0000000  0.0000000  2
    874    873    875    877     1  0.0000000  0.0000000  2
    874    873    875    878     1  0.0000000  0.0000000  2
    875    876    881    882     1  0.0000000  0.6508444  3
    875    876    881    883     1  0.0000000  0.6508444  3
    875    876    881    884     1  0.0000000  0.6508444  3
    877    875    876    881     1  0.0000000  0.6508444  3
    877    875    876    879     1  0.0000000  0.6508444  3
    877    875    876    880     1  0.0000000  0.6508444  3
    878    875    876    881     1  0.0000000  0.6508444  3
    878    875    876    879     1  0.0000000  0.6508444  3
    878    875    876    880     1  0.0000000  0.6508444  3
    879    876    881    882     1  0.0000000  0.6508444  3
    879    876    881    883     1  0.0000000  0.6508444  3
    879    876    881    884     1  0.0000000  0.6508444  3
    880    876    881    882     1  0.0000000  0.6508444  3
    880    876    881    883     1  0.0000000  0.6508444  3
    880    876    881    884     1  0.0000000  0.6508444  3
    885    887    888    891     1  0.0000000  0.6508444  3
    885    887    888    892     1  0.0000000  0.6508444  3
    886    885    887    888     1  0.0000000  0.0000000  2
    886    885    887    889     1  0.0000000  0.0000000  2
    886    885    887    890     1  0.0000000  0.0000000  2
    887    888    893    894     1  0.0000000  0.6508444  3
    887    888    893    895     1  0.0000000  0.6508444  3
    887    888    893    896     1  0.0000000  0.6508444  3
    889    887    888    893     1  0.0000000  0.6508444  3
    889    887    888    891     1  0.0000000  0.6508444  3
    889    887    888    892     1  0.0000000  0.6508444  3
    890    887    888    893     1  0.0000000  0.6508444  3
    890    887    888    891     1  0.0000000  0.6508444  3
    890    887    888    892     1  0.0000000  0.6508444  3
    891    888    893    894     1  0.0000000  0.6508444  3
    891    888    893    895     1  0.0000000  0.6508444  3
    891    888    893    896     1  0.0000000  0.6508444  3
    892    888    893    894     1  0.0000000  0.6508444  3
    892    888    893    895     1  0.0000000  0.6508444  3
    892    888    893    896     1  0.0000000  0.6508444  3
    897    899    900    903     1  0.0000000  0.6508444  3
    897    899    900    904     1  0.0000000  0.6508444  3
    898    897    899    900     1  0.0000000  0.0000000  2
    898    897    899    901     1  0.0000000  0.0000000  2
    898    897    899    902     1  0.0000000  0.0000000  2
    899    900    905    906     1  0.0000000  0.6508444  3
    899    900    905    907     1  0.0000000  0.6508444  3
    899    900    905    908     1  0.0000000  0.6508444  3
    901    899    900    905     1  0.0000000  0.6508444  3
    901    899    900    903     1  0.0000000  0.6508444  3
    901    899    900    904     1  0.0000000  0.6508444  3
    902    899    900    905     1  0.0000000  0.6508444  3
    902    899    900    903     1  0.0000000  0.6508444  3
    902    899    900    904     1  0.0000000  0.6508444  3
    903    900    905    906     1  0.0000000  0.6508444  3
    903    900    905    907     1  0.0000000  0.6508444  3
    903    900    905    908     1  0.0000000  0.6508444  3
    904    900    905    906     1  0.0000000  0.6508444  3
    904    900    905    907     1  0.0000000  0.6508444  3
    904    900    905    908     1  0.0000000  0.6508444  3
    909    911    912    915     1  0.0000000  0.6508444  3
    909    911    912    916     1  0.0000000  0.6508444  3
    910    909    911    912     1  0.0000000  0.0000000  2
    910    909    911    913     1  0.0000000  0.0000000  2
    910    909    911    914     1  0.0000000  0.0000000  2
    911    912    917    918     1  0.0000000  0.6508444  3
    911    912    917    919     1  0.0000000  0.6508444  3
    911    912    917    920     1  0.0000000  0.6508444  3
    913    911    912    917     1  0.0000000  0.6508444  3
    913    911    912    915     1  0.0000000  0.6508444  3
    913    911    912    916     1  0.0000000  0.6508444  3
    914    911    912    917     1  0.0000000  0.6508444  3
    914    911    912    915     1  0.0000000  0.6508444  3
    914    911    912    916     1  0.0000000  0.6508444  3
    915    912    917    918     1  0.0000000  0.6508444  3
    915    912    917    919     1  0.0000000  0.6508444  3
    915    912    917    920     1  0.0000000  0.6508444  3
    916    912    917    918     1  0.0000000  0.6508444  3
    916    912    917    919     1  0.0000000  0.6508444  3
    916    912    917    920     1  0.0000000  0.6508444  3
    921    923    924    927     1  0.0000000  0.6508444  3
    921    923    924    928     1  0.0000000  0.6508444  3
    922    921    923    924     1  0.0000000  0.0000000  2
    922    921    923    925     1  0.0000000  0.0000000  2
    922    921    923    926     1  0.0000000  0.0000000  2
    923    924    929    930     1  0.0000000  0.6508444  3
    923    924    929    931     1  0.0000000  0.6508444  3
    923    924    929    932     1  0.0000000  0.6508444  3
    925    923    924    929     1  0.0000000  0.6508444  3
    925    923    924    927     1  0.0000000  0.6508444  3
    925    923    924    928     1  0.0000000  0.6508444  3
    926    923    924    929     1  0.0000000  0.6508444  3
    926    923    924    927     1  0.0000000  0.6508444  3
    926    923    924    928     1  0.0000000  0.6508444  3
    927    924    929    930     1  0.0000000  0.6508444  3
    927    924    929    931     1  0.0000000  0.6508444  3
    927    924    929    932     1  0.0000000  0.6508444  3
    928    924    929    930     1  0.0000000  0.6508444  3
    928    924    929    931     1  0.0000000  0.6508444  3
    928    924    929    932     1  0.0000000  0.6508444  3
    933    935    936    939     1  0.0000000  0.6508444  3
    933    935    936    940     1  0.0000000  0.6508444  3
    934    933    935    936     1  0.0000000  0.0000000  2
    934    933    935    937     1  0.0000000  0.0000000  2
    934    933    935    938     1  0.0000000  0.0000000  2
    935    936    941    942     1  0.0000000  0.6508444  3
    935    936    941    943     1  0.0000000  0.6508444  3
    935    936    941    944     1  0.0000000  0.6508444  3
    937    935    936    941     1  0.0000000  0.6508444  3
    937    935    936    939     1  0.0000000  0.6508444  3
    937    935    936    940     1  0.0000000  0.6508444  3
    938    935    936    941     1  0.0000000  0.6508444  3
    938    935    936    939     1  0.0000000  0.6508444  3
    938    935    936    940     1  0.0000000  0.6508444  3
    939    936    941    942     1  0.0000000  0.6508444  3
    939    936    941    943     1  0.0000000  0.6508444  3
    939    936    941    944     1  0.0000000  0.6508444  3
    940    936    941    942     1  0.0000000  0.6508444  3
    940    936    941    943     1  0.0000000  0.6508444  3
    940    936    941    944     1  0.0000000  0.6508444  3
    945    947    948    951     1  0.0000000  0.6508444  3
    945    947    948    952     1  0.0000000  0.6508444  3
    946    945    947    948     1  0.0000000  0.0000000  2
    946    945    947    949     1  0.0000000  0.0000000  2
    946    945    947    950     1  0.0000000  0.0000000  2
    947    948    953    954     1  0.0000000  0.6508444  3
    947    948    953    955     1  0.0000000  0.6508444  3
    947    948    953    956     1  0.0000000  0.6508444  3
    949    947    948    953     1  0.0000000  0.6508444  3
    949    947    948    951     1  0.0000000  0.6508444  3
    949    947    948    952     1  0.0000000  0.6508444  3
    950    947    948    953     1  0.0000000  0.6508444  3
    950    947    948    951     1  0.0000000  0.6508444  3
    950    947    948    952     1  0.0000000  0.6508444  3
    951    948    953    954     1  0.0000000  0.6508444  3
    951    948    953    955     1  0.0000000  0.6508444  3
    951    948    953    956     1  0.0000000  0.6508444  3
    952    948    953    954     1  0.0000000  0.6508444  3
    952    948    953    955     1  0.0000000  0.6508444  3
    952    948    953    956     1  0.0000000  0.6508444  3
    957    959    960    963     1  0.0000000  0.6508444  3
    957    959    960    964     1  0.0000000  0.6508444  3
    958    957    959    960     1  0.0000000  0.0000000  2
    958    957    959    961     1  0.0000000  0.0000000  2
    958    957    959    962     1  0.0000000  0.0000000  2
    959    960    965    966     1  0.0000000  0.6508444  3
    959    960    965    967     1  0.0000000  0.6508444  3
    959    960    965    968     1  0.0000000  0.6508444  3
    961    959    960    965     1  0.0000000  0.6508444  3
    961    959    960    963     1  0.0000000  0.6508444  3
    961    959    960    964     1  0.0000000  0.6508444  3
    962    959    960    965     1  0.0000000  0.6508444  3
    962    959    960    963     1  0.0000000  0.6508444  3
    962    959    960    964     1  0.0000000  0.6508444  3
    963    960    965    966     1  0.0000000  0.6508444  3
    963    960    965    967     1  0.0000000  0.6508444  3
    963    960    965    968     1  0.0000000  0.6508444  3
    964    960    965    966     1  0.0000000  0.6508444  3
    964    960    965    967     1  0.0000000  0.6508444  3
    964    960    965    968     1  0.0000000  0.6508444  3
    969    971    972    975     1  0.0000000  0.6508444  3
    969    971    972    976     1  0.0000000  0.6508444  3
    970    969    971    972     1  0.0000000  0.0000000  2
    970    969    971    973     1  0.0000000  0.0000000  2
    970    969    971    974     1  0.0000000  0.0000000  2
    971    972    977    978     1  0.0000000  0.6508444  3
    971    972    977    979     1  0.0000000  0.6508444  3
    971    972    977    980     1  0.0000000  0.6508444  3
    973    971    972    977     1  0.0000000  0.6508444  3
    973    971    972    975     1  0.0000000  0.6508444  3
    973    971    972    976     1  0.0000000  0.6508444  3
    974    971    972    977     1  0.0000000  0.6508444  3
    974    971    972    975     1  0.0000000  0.6508444  3
    974    971    972    976     1  0.0000000  0.6508444  3
    975    972    977    978     1  0.0000000  0.6508444  3
    975    972    977    979     1  0.0000000  0.6508444  3
    975    972    977    980     1  0.0000000  0.6508444  3
    976    972    977    978     1  0.0000000  0.6508444  3
    976    972    977    979     1  0.0000000  0.6508444  3
    976    972    977    980     1  0.0000000  0.6508444  3
    981    983    984    987     1  0.0000000  0.6508444  3
    981    983    984    988     1  0.0000000  0.6508444  3
    982    981    983    984     1  0.0000000  0.0000000  2
    982    981    983    985     1  0.0000000  0.0000000  2
    982    981    983    986     1  0.0000000  0.0000000  2
    983    984    989    990     1  0.0000000  0.6508444  3
    983    984    989    991     1  0.0000000  0.6508444  3
    983    984    989    992     1  0.0000000  0.6508444  3
    985    983    984    989     1  0.0000000  0.6508444  3
    985    983    984    987     1  0.0000000  0.6508444  3
    985    983    984    988     1  0.0000000  0.6508444  3
    986    983    984    989     1  0.0000000  0.6508444  3
    986    983    984    987     1  0.0000000  0.6508444  3
    986    983    984    988     1  0.0000000  0.6508444  3
    987    984    989    990     1  0.0000000  0.6508444  3
    987    984    989    991     1  0.0000000  0.6508444  3
    987    984    989    992     1  0.0000000  0.6508444  3
    988    984    989    990     1  0.0000000  0.6508444  3
    988    984    989    991     1  0.0000000  0.6508444  3
    988    984    989    992     1  0.0000000  0.6508444  3
    993    995    996    999     1  0.0000000  0.6508444  3
    993    995    996   1000     1  0.0000000  0.6508444  3
    994    993    995    996     1  0.0000000  0.0000000  2
    994    993    995    997     1  0.0000000  0.0000000  2
    994    993    995    998     1  0.0000000  0.0000000  2
    995    996   1001   1002     1  0.0000000  0.6508444  3
    995    996   1001   1003     1  0.0000000  0.6508444  3
    995    996   1001   1004     1  0.0000000  0.6508444  3
    997    995    996   1001     1  0.0000000  0.6508444  3
    997    995    996    999     1  0.0000000  0.6508444  3
    997    995    996   1000     1  0.0000000  0.6508444  3
    998    995    996   1001     1  0.0000000  0.6508444  3
    998    995    996    999     1  0.0000000  0.6508444  3
    998    995    996   1000     1  0.0000000  0.6508444  3
    999    996   1001   1002     1  0.0000000  0.6508444  3
    999    996   1001   1003     1  0.0000000  0.6508444  3
    999    996   1001   1004     1  0.0000000  0.6508444  3
   1000    996   1001   1002     1  0.0000000  0.6508444  3
   1000    996   1001   1003     1  0.0000000  0.6508444  3
   1000    996   1001   1004     1  0.0000000  0.6508444  3
   1005   1007   1008   1011     1  0.0000000  0.6508444  3
   1005   1007   1008   1012     1  0.0000000  0.6508444  3
   1006   1005   1007   1008     1  0.0000000  0.0000000  2
   1006   1005   1007   1009     1  0.0000000  0.0000000  2
   1006   1005   1007   1010     1  0.0000000  0.0000000  2
   1007   1008   1013   1014     1  0.0000000  0.6508444  3
   1007   1008   1013   1015     1  0.0000000  0.6508444  3
   1007   1008   1013   1016     1  0.0000000  0.6508444  3
   1009   1007   1008   1013     1  0.0000000  0.6508444  3
   1009   1007   1008   1011     1  0.0000000  0.6508444  3
   1009   1007   1008   1012     1  0.0000000  0.6508444  3
   1010   1007   1008   1013     1  0.0000000  0.6508444  3
   1010   1007   1008   1011     1  0.0000000  0.6508444  3
   1010   1007   1008   1012     1  0.0000000  0.6508444  3
   1011   1008   1013   1014     1  0.0000000  0.6508444  3
   1011   1008   1013   1015     1  0.0000000  0.6508444  3
   1011   1008   1013   1016     1  0.0000000  0.6508444  3
   1012   1008   1013   1014     1  0.0000000  0.6508444  3
   1012   1008   1013   1015     1  0.0000000  0.6508444  3
   1012   1008   1013   1016     1  0.0000000  0.6508444  3
   1017   1019   1020   1023     1  0.0000000  0.6508444  3
   1017   1019   1020   1024     1  0.0000000  0.6508444  3
   1018   1017   1019   1020     1  0.0000000  0.0000000  2
   1018   1017   1019   1021     1  0.0000000  0.0000000  2
   1018   1017   1019   1022     1  0.0000000  0.0000000  2
   1019   1020   1025   1026     1  0.0000000  0.6508444  3
   1019   1020   1025   1027     1  0.0000000  0.6508444  3
   1019   1020   1025   1028     1  0.0000000  0.6508444  3
   1021   1019   1020   1025     1  0.0000000  0.6508444  3
   1021   1019   1020   1023     1  0.0000000  0.6508444  3
   1021   1019   1020   1024     1  0.0000000  0.6508444  3
   1022   1019   1020   1025     1  0.0000000  0.6508444  3
   1022   1019   1020   1023     1  0.0000000  0.6508444  3
   1022   1019   1020   1024     1  0.0000000  0.6508444  3
   1023   1020   1025   1026     1  0.0000000  0.6508444  3
   1023   1020   1025   1027     1  0.0000000  0.6508444  3
   1023   1020   1025   1028     1  0.0000000  0.6508444  3
   1024   1020   1025   1026     1  0.0000000  0.6508444  3
   1024   1020   1025   1027     1  0.0000000  0.6508444  3
   1024   1020   1025   1028     1  0.0000000  0.6508444  3
   1029   1031   1032   1035     1  0.0000000  0.6508444  3
   1029   1031   1032   1036     1  0.0000000  0.6508444  3
   1030   1029   1031   1032     1  0.0000000  0.0000000  2
   1030   1029   1031   1033     1  0.0000000  0.0000000  2
   1030   1029   1031   1034     1  0.0000000  0.0000000  2
   1031   1032   1037   1038     1  0.0000000  0.6508444  3
   1031   1032   1037   1039     1  0.0000000  0.6508444  3
   1031   1032   1037   1040     1  0.0000000  0.6508444  3
   1033   1031   1032   1037     1  0.0000000  0.6508444  3
   1033   1031   1032   1035     1  0.0000000  0.6508444  3
   1033   1031   1032   1036     1  0.0000000  0.6508444  3
   1034   1031   1032   1037     1  0.0000000  0.6508444  3
   1034   1031   1032   1035     1  0.0000000  0.6508444  3
   1034   1031   1032   1036     1  0.0000000  0.6508444  3
   1035   1032   1037   1038     1  0.0000000  0.6508444  3
   1035   1032   1037   1039     1  0.0000000  0.6508444  3
   1035   1032   1037   1040     1  0.0000000  0.6508444  3
   1036   1032   1037   1038     1  0.0000000  0.6508444  3
   1036   1032   1037   1039     1  0.0000000  0.6508444  3
   1036   1032   1037   1040     1  0.0000000  0.6508444  3
   1041   1043   1044   1047     1  0.0000000  0.6508444  3
   1041   1043   1044   1048     1  0.0000000  0.6508444  3
   1042   1041   1043   1044     1  0.0000000  0.0000000  2
   1042   1041   1043   1045     1  0.0000000  0.0000000  2
   1042   1041   1043   1046     1  0.0000000  0.0000000  2
   1043   1044   1049   1050     1  0.0000000  0.6508444  3
   1043   1044   1049   1051     1  0.0000000  0.6508444  3
   1043   1044   1049   1052     1  0.0000000  0.6508444  3
   1045   1043   1044   1049     1  0.0000000  0.6508444  3
   1045   1043   1044   1047     1  0.0000000  0.6508444  3
   1045   1043   1044   1048     1  0.0000000  0.6508444  3
   1046   1043   1044   1049     1  0.0000000  0.6508444  3
   1046   1043   1044   1047     1  0.0000000  0.6508444  3
   1046   1043   1044   1048     1  0.0000000  0.6508444  3
   1047   1044   1049   1050     1  0.0000000  0.6508444  3
   1047   1044   1049   1051     1  0.0000000  0.6508444  3
   1047   1044   1049   1052     1  0.0000000  0.6508444  3
   1048   1044   1049   1050     1  0.0000000  0.6508444  3
   1048   1044   1049   1051     1  0.0000000  0.6508444  3
   1048   1044   1049   1052     1  0.0000000  0.6508444  3
   1053   1055   1056   1059     1  0.0000000  0.6508444  3
   1053   1055   1056   1060     1  0.0000000  0.6508444  3
   1054   1053   1055   1056     1  0.0000000  0.0000000  2
   1054   1053   1055   1057     1  0.0000000  0.0000000  2
   1054   1053   1055   1058     1  0.0000000  0.0000000  2
   1055   1056   1061   1062     1  0.0000000  0.6508444  3
   1055   1056   1061   1063     1  0.0000000  0.6508444  3
   1055   1056   1061   1064     1  0.0000000  0.6508444  3
   1057   1055   1056   1061     1  0.0000000  0.6508444  3
   1057   1055   1056   1059     1  0.0000000  0.6508444  3
   1057   1055   1056   1060     1  0.0000000  0.6508444  3
   1058   1055   1056   1061     1  0.0000000  0.6508444  3
   1058   1055   1056   1059     1  0.0000000  0.6508444  3
   1058   1055   1056   1060     1  0.0000000  0.6508444  3
   1059   1056   1061   1062     1  0.0000000  0.6508444  3
   1059   1056   1061   1063     1  0.0000000  0.6508444  3
   1059   1056   1061   1064     1  0.0000000  0.6508444  3
   1060   1056   1061   1062     1  0.0000000  0.6508444  3
   1060   1056   1061   1063     1  0.0000000  0.6508444  3
   1060   1056   1061   1064     1  0.0000000  0.6508444  3
   1065   1067   1068   1071     1  0.0000000  0.6508444  3
   1065   1067   1068   1072     1  0.0000000  0.6508444  3
   1066   1065   1067   1068     1  0.0000000  0.0000000  2
   1066   1065   1067   1069     1  0.0000000  0.0000000  2
   1066   1065   1067   1070     1  0.0000000  0.0000000  2
   1067   1068   1073   1074     1  0.0000000  0.6508444  3
   1067   1068   1073   1075     1  0.0000000  0.6508444  3
   1067   1068   1073   1076     1  0.0000000  0.6508444  3
   1069   1067   1068   1073     1  0.0000000  0.6508444  3
   1069   1067   1068   1071     1  0.0000000  0.6508444  3
   1069   1067   1068   1072     1  0.0000000  0.6508444  3
   1070   1067   1068   1073     1  0.0000000  0.6508444  3
   1070   1067   1068   1071     1  0.0000000  0.6508444  3
   1070   1067   1068   1072     1  0.0000000  0.6508444  3
   1071   1068   1073   1074     1  0.0000000  0.6508444  3
   1071   1068   1073   1075     1  0.0000000  0.6508444  3
   1071   1068   1073   1076     1  0.0000000  0.6508444  3
   1072   1068   1073   1074     1  0.0000000  0.6508444  3
   1072   1068   1073   1075     1  0.0000000  0.6508444  3
   1072   1068   1073   1076     1  0.0000000  0.6508444  3
   1077   1079   1080   1083     1  0.0000000  0.6508444  3
   1077   1079   1080   1084     1  0.0000000  0.6508444  3
   1078   1077   1079   1080     1  0.0000000  0.0000000  2
   1078   1077   1079   1081     1  0.0000000  0.0000000  2
   1078   1077   1079   1082     1  0.0000000  0.0000000  2
   1079   1080   1085   1086     1  0.0000000  0.6508444  3
   1079   1080   1085   1087     1  0.0000000  0.6508444  3
   1079   1080   1085   1088     1  0.0000000  0.6508444  3
   1081   1079   1080   1085     1  0.0000000  0.6508444  3
   1081   1079   1080   1083     1  0.0000000  0.6508444  3
   1081   1079   1080   1084     1  0.0000000  0.6508444  3
   1082   1079   1080   1085     1  0.0000000  0.6508444  3
   1082   1079   1080   1083     1  0.0000000  0.6508444  3
   1082   1079   1080   1084     1  0.0000000  0.6508444  3
   1083   1080   1085   1086     1  0.0000000  0.6508444  3
   1083   1080   1085   1087     1  0.0000000  0.6508444  3
   1083   1080   1085   1088     1  0.0000000  0.6508444  3
   1084   1080   1085   1086     1  0.0000000  0.6508444  3
   1084   1080   1085   1087     1  0.0000000  0.6508444  3
   1084   1080   1085   1088     1  0.0000000  0.6508444  3
   1089   1091   1092   1095     1  0.0000000  0.6508444  3
   1089   1091   1092   1096     1  0.0000000  0.6508444  3
   1090   1089   1091   1092     1  0.0000000  0.0000000  2
   1090   1089   1091   1093     1  0.0000000  0.0000000  2
   1090   1089   1091   1094     1  0.0000000  0.0000000  2
   1091   1092   1097   1098     1  0.0000000  0.6508444  3
   1091   1092   1097   1099     1  0.0000000  0.6508444  3
   1091   1092   1097   1100     1  0.0000000  0.6508444  3
   1093   1091   1092   1097     1  0.0000000  0.6508444  3
   1093   1091   1092   1095     1  0.0000000  0.6508444  3
   1093   1091   1092   1096     1  0.0000000  0.6508444  3
   1094   1091   1092   1097     1  0.0000000  0.6508444  3
   1094   1091   1092   1095     1  0.0000000  0.6508444  3
   1094   1091   1092   1096     1  0.0000000  0.6508444  3
   1095   1092   1097   1098     1  0.0000000  0.6508444  3
   1095   1092   1097   1099     1  0.0000000  0.6508444  3
   1095   1092   1097   1100     1  0.0000000  0.6508444  3
   1096   1092   1097   1098     1  0.0000000  0.6508444  3
   1096   1092   1097   1099     1  0.0000000  0.6508444  3
   1096   1092   1097   1100     1  0.0000000  0.6508444  3
   1101   1103   1104   1107     1  0.0000000  0.6508444  3
   1101   1103   1104   1108     1  0.0000000  0.6508444  3
   1102   1101   1103   1104     1  0.0000000  0.0000000  2
   1102   1101   1103   1105     1  0.0000000  0.0000000  2
   1102   1101   1103   1106     1  0.0000000  0.0000000  2
   1103   1104   1109   1110     1  0.0000000  0.6508444  3
   1103   1104   1109   1111     1  0.0000000  0.6508444  3
   1103   1104   1109   1112     1  0.0000000  0.6508444  3
   1105   1103   1104   1109     1  0.0000000  0.6508444  3
   1105   1103   1104   1107     1  0.0000000  0.6508444  3
   1105   1103   1104   1108     1  0.0000000  0.6508444  3
   1106   1103   1104   1109     1  0.0000000  0.6508444  3
   1106   1103   1104   1107     1  0.0000000  0.6508444  3
   1106   1103   1104   1108     1  0.0000000  0.6508444  3
   1107   1104   1109   1110     1  0.0000000  0.6508444  3
   1107   1104   1109   1111     1  0.0000000  0.6508444  3
   1107   1104   1109   1112     1  0.0000000  0.6508444  3
   1108   1104   1109   1110     1  0.0000000  0.6508444  3
   1108   1104   1109   1111     1  0.0000000  0.6508444  3
   1108   1104   1109   1112     1  0.0000000  0.6508444  3
   1113   1115   1116   1119     1  0.0000000  0.6508444  3
   1113   1115   1116   1120     1  0.0000000  0.6508444  3
   1114   1113   1115   1116     1  0.0000000  0.0000000  2
   1114   1113   1115   1117     1  0.0000000  0.0000000  2
   1114   1113   1115   1118     1  0.0000000  0.0000000  2
   1115   1116   1121   1122     1  0.0000000  0.6508444  3
   1115   1116   1121   1123     1  0.0000000  0.6508444  3
   1115   1116   1121   1124     1  0.0000000  0.6508444  3
   1117   1115   1116   1121     1  0.0000000  0.6508444  3
   1117   1115   1116   1119     1  0.0000000  0.6508444  3
   1117   1115   1116   1120     1  0.0000000  0.6508444  3
   1118   1115   1116   1121     1  0.0000000  0.6508444  3
   1118   1115   1116   1119     1  0.0000000  0.6508444  3
   1118   1115   1116   1120     1  0.0000000  0.6508444  3
   1119   1116   1121   1122     1  0.0000000  0.6508444  3
   1119   1116   1121   1123     1  0.0000000  0.6508444  3
   1119   1116   1121   1124     1  0.0000000  0.6508444  3
   1120   1116   1121   1122     1  0.0000000  0.6508444  3
   1120   1116   1121   1123     1  0.0000000  0.6508444  3
   1120   1116   1121   1124     1  0.0000000  0.6508444  3
     33     44     64     65     4  180.0000771  4.6024000  2
     34     69     89     90     4  180.0000771  4.6024000  2
     35     94    114    115     4  180.0000771  4.6024000  2
     36    119    139    140     4  180.0000771  4.6024000  2
     60    144    164    165     4  180.0000771  4.6024000  2
     61    169    189    190     4  180.0000771  4.6024000  2
     85    194    214    215     4  180.0000771  4.6024000  2
     86    219    239    240     4  180.0000771  4.6024000  2
    110    244    264    265     4  180.0000771  4.6024000  2
    111    269    289    290     4  180.0000771  4.6024000  2
    135    294    314    315     4  180.0000771  4.6024000  2
    136    319    339    340     4  180.0000771  4.6024000  2
    160    344    364    365     4  180.0000771  4.6024000  2
    161    369    389    390     4  180.0000771  4.6024000  2
    185    394    414    415     4  180.0000771  4.6024000  2
    186    419    439    440     4  180.0000771  4.6024000  2
    210    444    464    465     4  180.0000771  4.6024000  2
    211    469    489    490     4  180.0000771  4.6024000  2
    235    494    514    515     4  180.0000771  4.6024000  2
    236    519    539    540     4  180.0000771  4.6024000  2
    260    544    564    565     4  180.0000771  4.6024000  2
    261    569    589    590     4  180.0000771  4.6024000  2
    285    594    614    615     4  180.0000771  4.6024000  2
    286    619    639    640     4  180.0000771  4.6024000  2
    310    644    664    665     4  180.0000771  4.6024000  2
    311    669    689    690     4  180.0000771  4.6024000  2
    335    694    714    715     4  180.0000771  4.6024000  2
    336    719    739    740     4  180.0000771  4.6024000  2
    360    743    741    742     4  180.0000771  4.6024000  2
    361    755    753    754     4  180.0000771  4.6024000  2
    385    767    765    766     4  180.0000771  4.6024000  2
    386    779    777    778     4  180.0000771  4.6024000  2
    410    791    789    790     4  180.0000771  4.6024000  2
    411    803    801    802     4  180.0000771  4.6024000  2
    435    815    813    814     4  180.0000771  4.6024000  2
    436    827    825    826     4  180.0000771  4.6024000  2
    460    839    837    838     4  180.0000771  4.6024000  2
    461    851    849    850     4  180.0000771  4.6024000  2
    485    863    861    862     4  180.0000771  4.6024000  2
    486    875    873    874     4  180.0000771  4.6024000  2
    510    887    885    886     4  180.0000771  4.6024000  2
    511    899    897    898     4  180.0000771  4.6024000  2
    535    911    909    910     4  180.0000771  4.6024000  2
    536    923    921    922     4  180.0000771  4.6024000  2
    560    935    933    934     4  180.0000771  4.6024000  2
    561    947    945    946     4  180.0000771  4.6024000  2
    585    959    957    958     4  180.0000771  4.6024000  2
    586    971    969    970     4  180.0000771  4.6024000  2
    610    983    981    982     4  180.0000771  4.6024000  2
    611    995    993    994     4  180.0000771  4.6024000  2
    635   1007   1005   1006     4  180.0000771  4.6024000  2
    636   1019   1017   1018     4  180.0000771  4.6024000  2
    660   1031   1029   1030     4  180.0000771  4.6024000  2
    661   1043   1041   1042     4  180.0000771  4.6024000  2
    685   1055   1053   1054     4  180.0000771  4.6024000  2
    686   1067   1065   1066     4  180.0000771  4.6024000  2
    710   1079   1077   1078     4  180.0000771  4.6024000  2
    711   1091   1089   1090     4  180.0000771  4.6024000  2
    735   1103   1101   1102     4  180.0000771  4.6024000  2
    736   1115   1113   1114     4  180.0000771  4.6024000  2

;[ system ]
;; Name
;Generic title
;
;[ molecules ]
;; Compound       #mols
;g3p_pamam              1
