G3P-PAMAM in water
40731
    1aaa     C1    1   0.087   0.826   1.069  0.0150  0.3390  0.5794
    1aaa     H1    2   0.000   0.848   1.131 -0.1274 -0.7016  0.7632
    1aaa     H2    3   0.166   0.798   1.140 -0.2731  1.9522  1.5780
    1aaa     C2    4   0.143   0.953   0.993  0.4678 -0.1413  0.8642
    1aaa     H3    5   0.237   0.925   0.944 -1.6057 -1.9924 -2.4722
    1aaa     H4    6   0.081   0.984   0.908  0.8735  1.2572  1.0556
    1aaa     N1    7   0.159   1.076   1.073  0.3088 -0.5705  0.0805
    1aaa     N2    8   0.063   0.698   0.984  0.0973  0.4677  0.3928
    1aaa     C3    9   0.188   0.652   0.924 -0.8215  0.4929 -0.1647
    1aaa     H5   10   0.244   0.731   0.872 -0.1137  0.9330  1.2095
    1aaa     H6   11   0.158   0.573   0.855 -0.1728 -0.3386  0.4951
    1aaa     C4   12  -0.055   0.719   0.895  0.2850  0.4572 -0.2004
    1aaa     H7   13  -0.134   0.771   0.951  0.0784 -0.9801  0.8978
    1aaa     H8   14  -0.016   0.787   0.818 -0.8596  0.9354 -0.3772
    1aaa     C5   15   0.028   1.134   1.116 -1.1360  0.4713 -0.2687
    1aaa     H9   16  -0.031   1.127   1.024  0.7805  2.2892 -1.7365
    1aaa    H10   17  -0.017   1.077   1.198  0.0651  1.4973  1.1776
    1aaa     C6   18   0.259   1.067   1.185  0.3815 -0.1888  0.1871
    1aaa    H11   19   0.223   0.993   1.257 -0.5196 -0.9321 -1.0169
    1aaa    H12   20   0.257   1.167   1.231  2.6525 -0.1304  0.3074
    1aaa     C7   21   0.036   1.278   1.150 -0.6930 -0.2332  0.0848
    1aaa    H13   22   0.086   1.297   1.245  2.2170  2.0721 -1.7048
    1aaa    H14   23   0.105   1.328   1.081 -0.8628 -2.0002 -1.4438
    1aaa     C8   24   0.404   1.055   1.144 -0.0715  0.5982  0.0589
    1aaa    H15   25   0.431   0.958   1.101 -1.9441 -0.0461  0.2460
    1aaa    H16   26   0.418   1.126   1.062  1.4192 -0.2293 -0.4342
    1aaa     C9   27  -0.098   0.578   0.843 -0.1357 -0.4207  1.0420
    1aaa    H17   28  -0.029   0.528   0.774 -0.4445  2.9429 -2.0181
    1aaa    H18   29  -0.103   0.516   0.934  0.9205 -0.0511  1.3592
    1aaa    C10   30   0.271   0.580   1.032  0.2915  1.0968  0.4202
    1aaa    H19   31   0.360   0.536   0.985 -0.4418  0.7683 -0.6870
    1aaa    H20   32   0.310   0.653   1.104  0.0694  1.6096  0.0192
    1aaa    C11   33  -0.232   0.582   0.775  0.0237  0.0094  0.3186
    1aaa    C12   34   0.201   0.463   1.095  0.1494  0.2997  0.0223
    1aaa    C13   35  -0.103   1.343   1.157 -0.7607  0.1610 -0.2592
    1aaa    C14   36   0.495   1.082   1.259 -0.6342 -0.2413  0.0176
    1aaa     O1   37  -0.293   0.689   0.768  0.0746  0.0477  0.3196
    1aaa     O2   38  -0.200   1.276   1.156 -0.0394  0.5534  0.0136
    1aaa     O3   39   0.487   1.179   1.331 -0.2032  0.5482 -1.2613
    1aaa     O4   40   0.158   0.464   1.211 -0.6396 -0.0474  0.0165
    2bbb     C1   41  -0.448   0.311   0.599 -0.8456  0.2653 -0.1985
    2bbb     H1   42  -0.357   0.329   0.541  0.6801  0.9555  2.2567
    2bbb     H2   43  -0.536   0.309   0.533 -0.1077  0.9447 -1.2231
    2bbb     C2   44  -0.433   0.440   0.691  0.2993  0.2819  0.3055
    2bbb     H3   45  -0.453   0.526   0.626  0.9071  0.2094  0.0203
    2bbb     H4   46  -0.514   0.441   0.765  0.1339 -0.9397  0.1675
    2bbb     N1   47  -0.426   0.189   0.670 -0.0298  0.1678 -0.6027
    2bbb     C3   48  -0.453   0.073   0.578 -0.1688  0.1524  0.0306
    2bbb     H5   49  -0.542   0.090   0.517  0.9755  1.4253 -1.3436
    2bbb     H6   50  -0.466  -0.023   0.631  1.5409  0.8708  1.9068
    2bbb     C4   51  -0.495   0.186   0.799  0.3037  0.0419  0.2330
    2bbb     H7   52  -0.468   0.272   0.863 -0.3731  0.1872  0.3318
    2bbb     H8   53  -0.604   0.184   0.789  0.0959  3.0391  0.7740
    2bbb     C5   54  -0.443   0.067   0.876 -0.1632  0.3069 -0.3311
    2bbb     H9   55  -0.516  -0.013   0.858 -0.4642  0.4442  0.2706
    2bbb    H10   56  -0.342   0.041   0.843  0.6719  1.4745  1.1714
    2bbb     C6   57  -0.323   0.040   0.498  0.0778  0.2077  0.4378
    2bbb    H11   58  -0.292   0.126   0.438  2.4529 -1.8599 -1.4895
    2bbb    H12   59  -0.244   0.010   0.568  0.8455  0.5410 -0.2814
    2bbb     C7   60  -0.441   0.092   1.024  0.5046 -0.5113  0.2875
    2bbb     C8   61  -0.353  -0.081   0.411  0.3798  0.1014  0.5272
    2bbb     O1   62  -0.542   0.073   1.088  0.1404 -0.3272  0.3425
    2bbb     O2   63  -0.466  -0.110   0.377  0.1721  0.5050 -0.0570
    2bbb     N4   64  -0.296   0.458   0.747  0.2946  0.1345  0.3095
    2bbb    H21   65  -0.241   0.377   0.776 -0.7460 -0.5381  0.4659
    3bbb     C1   66   0.373   0.248   1.203 -0.0755 -0.8073 -0.2423
    3bbb     H1   67   0.338   0.318   1.280  0.3382 -0.7676 -0.0910
    3bbb     H2   68   0.468   0.289   1.167 -1.6301  3.3172 -0.0897
    3bbb     C2   69   0.265   0.225   1.091 -0.5784 -0.5166 -0.9683
    3bbb     H3   70   0.292   0.146   1.020 -0.2418  1.3467 -3.0302
    3bbb     H4   71   0.181   0.183   1.148 -0.3234  0.4698  0.1687
    3bbb     N1   72   0.412   0.122   1.273  0.2553  0.5887  1.2204
    3bbb     C3   73   0.494   0.146   1.391 -0.1417  0.6862 -0.3401
    3bbb     H5   74   0.458   0.229   1.454 -1.0509  0.4683 -0.5545
    3bbb     H6   75   0.596   0.167   1.357  0.4487 -2.5914 -0.9105
    3bbb     C4   76   0.473   0.023   1.188 -0.1530  0.5304  0.5385
    3bbb     H7   77   0.466   0.059   1.084 -2.3106 -1.1531  0.0287
    3bbb     H8   78   0.579   0.004   1.209 -0.4091 -2.4358 -0.4092
    3bbb     C5   79   0.381  -0.096   1.197 -0.4043 -0.6709 -0.1550
    3bbb     H9   80   0.422  -0.161   1.276 -0.8710 -0.8651 -0.0655
    3bbb    H10   81   0.279  -0.069   1.230  0.0557  0.7598  0.1689
    3bbb     C6   82   0.501   0.026   1.489  0.0686  0.8135 -0.0062
    3bbb    H11   83   0.402  -0.015   1.509  1.3915 -1.8353  1.7508
    3bbb    H12   84   0.555  -0.062   1.450 -2.2450 -0.7434  0.0854
    3bbb     C7   85   0.388  -0.175   1.062 -0.1971 -0.9579 -0.2681
    3bbb     C8   86   0.560   0.066   1.619 -1.4521  0.5493 -0.3642
    3bbb     O1   87   0.476  -0.185   0.981 -0.1661 -0.1012 -0.2548
    3bbb     O2   88   0.677   0.043   1.650 -0.0700 -0.0205  0.4084
    3bbb     N4   89   0.219   0.347   1.026 -0.0076 -0.5536 -0.2220
    3bbb    H21   90   0.245   0.351   0.928  0.9852 -1.8543 -0.0482
    4bbb     C1   91  -0.219   1.705   1.137  0.1038 -0.1794 -0.4229
    4bbb     H1   92  -0.128   1.754   1.100 -0.4806  3.3522  2.2175
    4bbb     H2   93  -0.218   1.715   1.246  0.9731  0.8253 -0.5083
    4bbb     C2   94  -0.228   1.555   1.104 -0.3486  0.1992  0.8333
    4bbb     H3   95  -0.319   1.517   1.153 -1.1074  1.0780  0.1190
    4bbb     H4   96  -0.241   1.540   0.997 -0.0097 -0.9263  0.9313
    4bbb     N1   97  -0.342   1.756   1.071 -0.7066  0.3603  0.1907
    4bbb     C3   98  -0.421   1.825   1.174 -0.0137 -0.5021  0.0085
    4bbb     H5   99  -0.500   1.888   1.131 -2.1024  0.7192  4.8326
    4bbb     H6  100  -0.360   1.887   1.241 -1.4743 -0.1068  1.0430
    4bbb     C4  101  -0.304   1.841   0.958  0.1067 -0.1515 -0.0375
    4bbb     H7  102  -0.272   1.939   0.997  0.0870 -0.2514  0.2283
    4bbb     H8  103  -0.218   1.797   0.905  0.5230 -0.7163  1.0924
    4bbb     C5  104  -0.421   1.867   0.858  0.4100  0.0783 -0.1691
    4bbb     H9  105  -0.435   1.777   0.797 -1.4055  0.1135  0.1254
    4bbb    H10  106  -0.512   1.891   0.914  0.6472  1.6514 -0.4044
    4bbb     C6  107  -0.492   1.716   1.252 -0.0311 -0.4833  0.4126
    4bbb    H11  108  -0.552   1.646   1.192 -1.1858  0.1553  0.7992
    4bbb    H12  109  -0.419   1.657   1.310  3.3035  1.2410 -1.7227
    4bbb     C7  110  -0.380   1.975   0.769  0.8029 -0.2228 -0.3396
    4bbb     C8  111  -0.584   1.778   1.351 -0.0758 -0.6030  0.4364
    4bbb     O1  112  -0.316   1.953   0.667  0.2483 -0.1185 -0.5080
    4bbb     O2  113  -0.543   1.853   1.437  0.0901 -0.2170 -0.0994
    4bbb     N4  114  -0.111   1.480   1.146 -0.7375  0.1044  0.2467
    4bbb    H21  115  -0.023   1.528   1.160 -0.2109 -1.4326  2.8173
    5bbb     C1  116   0.830   1.037   1.327  0.0958 -0.0461 -0.1406
    5bbb     H1  117   0.828   1.136   1.279 -1.7181 -0.4122 -0.8996
    5bbb     H2  118   0.843   0.965   1.245 -0.4475  0.9744 -1.1536
    5bbb     C2  119   0.690   0.997   1.386  0.4067 -0.6521 -0.1215
    5bbb     H3  120   0.707   0.912   1.453 -0.7853 -0.9465 -0.1754
    5bbb     H4  121   0.659   1.077   1.455  1.0459 -0.4844 -0.0204
    5bbb     N1  122   0.948   1.029   1.423 -0.6668 -0.4924  0.1893
    5bbb     C3  123   0.966   0.891   1.474  0.3382  1.0378  0.1218
    5bbb     H5  124   0.948   0.815   1.396  2.3703 -0.7752  1.2989
    5bbb     H6  125   0.899   0.868   1.557  2.2422 -0.1671  1.4032
    5bbb     C4  126   0.949   1.123   1.541  0.4420 -0.2227  0.4885
    5bbb     H7  127   0.883   1.091   1.623  0.7217  1.1613  1.2968
    5bbb     H8  128   1.050   1.123   1.585  0.7857 -0.0242 -0.2904
    5bbb     C5  129   0.927   1.266   1.496  0.3211 -0.3110 -0.0982
    5bbb     H9  130   1.017   1.302   1.445  0.4139  0.5320  0.6341
    5bbb    H10  131   0.832   1.290   1.446  1.2214  0.8653 -1.3143
    5bbb     C6  132   1.103   0.860   1.530  0.2328 -0.6062  0.1550
    5bbb    H11  133   1.124   0.916   1.622 -2.8191  0.4194  0.3438
    5bbb    H12  134   1.107   0.757   1.568  1.7677 -0.8476 -0.5591
    5bbb     C7  135   0.915   1.340   1.631 -0.0193 -0.2951  0.8454
    5bbb     C8  136   1.215   0.872   1.429  0.8258  0.0503 -0.6224
    5bbb     O1  137   0.810   1.350   1.688  0.6202  0.3449  0.0716
    5bbb     O2  138   1.196   0.881   1.308  0.0717  0.5626  0.1242
    5bbb     N4  139   0.587   0.982   1.286 -0.5804 -0.0481  0.5537
    5bbb    H21  140   0.582   0.899   1.229  0.8055 -0.0349  0.3916
    6bbb     C1  141  -0.258   0.066   1.309 -0.4397  0.5994  0.5670
    6bbb     H1  142  -0.313  -0.025   1.282  0.2086  0.0849  0.9370
    6bbb     H2  143  -0.292   0.079   1.412  0.3466  2.7056  0.6136
    6bbb     C2  144  -0.307   0.182   1.220  0.5028  0.0644 -0.5784
    6bbb     H3  145  -0.407   0.217   1.249  0.6627  1.0560 -1.1814
    6bbb     H4  146  -0.242   0.270   1.231  0.9063 -0.2755 -0.1948
    6bbb     N1  147  -0.107   0.041   1.319 -0.5014  0.2312 -0.4522
    6bbb     C3  148  -0.083  -0.102   1.353  0.1560  0.2322  0.2767
    6bbb     H5  149  -0.131  -0.144   1.442  0.1104 -0.1438  0.0757
    6bbb     H6  150   0.025  -0.100   1.369  0.3271  2.0518 -0.7994
    6bbb     C4  151  -0.054   0.135   1.417 -0.6835 -0.6167 -0.2136
    6bbb     H7  152  -0.103   0.229   1.393 -1.1050 -0.3581  1.5263
    6bbb     H8  153  -0.071   0.115   1.523  0.8962  1.1293  0.4218
    6bbb     C5  154   0.098   0.157   1.391 -0.0777 -0.4059 -0.3506
    6bbb     H9  155   0.148   0.072   1.341 -3.2698 -0.5315 -3.7931
    6bbb    H10  156   0.098   0.242   1.322 -0.5302 -0.3188 -0.2448
    6bbb     C6  157  -0.107  -0.196   1.240  0.4476 -0.5635 -0.0138
    6bbb    H11  158  -0.214  -0.217   1.232  0.2734  0.1102  0.5272
    6bbb    H12  159  -0.064  -0.155   1.147  0.7043 -0.2558  0.2391
    6bbb     C7  160   0.167   0.203   1.514 -0.2266 -0.2457  0.6410
    6bbb     C8  161  -0.034  -0.318   1.271  0.0369 -0.0952  0.4102
    6bbb     O1  162   0.209   0.140   1.608  0.8813 -0.0226 -0.0417
    6bbb     O2  163   0.084  -0.330   1.258  0.2223  0.1698  0.0304
    6bbb     N4  164  -0.325   0.142   1.073  0.3833  0.0181 -0.5331
    6bbb    H21  165  -0.253   0.161   1.004  0.9923 -1.0541 -0.2103
    7bbb     C1  166  -0.130  -0.392   0.344 -0.6713  0.0606 -0.2958
    7bbb     H1  167  -0.084  -0.422   0.439 -1.9270 -0.4088  0.1878
    7bbb     H2  168  -0.061  -0.327   0.289 -1.0188  1.7740  1.2199
    7bbb     C2  169  -0.264  -0.304   0.351 -0.3903  0.5594 -0.4957
    7bbb     H3  170  -0.329  -0.321   0.265  1.8636 -0.0659 -2.1879
    7bbb     H4  171  -0.323  -0.342   0.435 -3.4392  1.3031 -2.1669
    7bbb     N1  172  -0.145  -0.515   0.260  0.1096 -0.3061 -0.5395
    7bbb     C3  173  -0.013  -0.566   0.212  0.5052  0.3606  0.0523
    7bbb     H5  174   0.004  -0.675   0.207  2.8033  0.7281 -2.2833
    7bbb     H6  175   0.075  -0.536   0.271  1.7362 -1.6415 -0.6413
    7bbb     C4  176  -0.206  -0.611   0.343  0.1523  0.1597  0.5148
    7bbb     H7  177  -0.130  -0.647   0.414  1.0855  0.4815 -0.2922
    7bbb     H8  178  -0.289  -0.568   0.400 -0.6991  0.3734 -0.8424
    7bbb     C5  179  -0.269  -0.718   0.257 -0.1568  0.2502  0.1862
    7bbb     H9  180  -0.364  -0.673   0.227 -0.7392 -1.3802 -0.4988
    7bbb    H10  181  -0.219  -0.745   0.163 -0.4443 -0.7369  0.3137
    7bbb     C6  182   0.009  -0.502   0.074  0.0777  0.2849 -0.6328
    7bbb    H11  183  -0.081  -0.513   0.013  0.2170 -0.7136 -0.6775
    7bbb    H12  184   0.019  -0.395   0.091 -1.7253  0.4777 -0.6534
    7bbb     C7  185  -0.288  -0.834   0.339  0.3152 -0.0228  0.1484
    7bbb     C8  186   0.128  -0.556  -0.003 -1.0311 -0.7020  0.5151
    7bbb     O1  187  -0.268  -0.836   0.459  0.1365 -0.3583 -0.8318
    7bbb     O2  188   0.225  -0.614   0.047  0.0667  0.3963  0.0626
    7bbb     N4  189  -0.248  -0.164   0.391 -0.4662  0.2113  0.7766
    7bbb    H21  190  -0.157  -0.130   0.419  0.4698 -1.7389  0.2387
    8bbb     C1  191   0.124  -0.241   0.818  0.0145 -0.1224  0.2998
    8bbb     H1  192   0.103  -0.308   0.733 -2.3834 -1.2156  1.6430
    8bbb     H2  193   0.154  -0.144   0.777 -0.5091 -1.3847 -3.4941
    8bbb     C2  194   0.242  -0.293   0.904 -0.0473 -0.8511  0.6764
    8bbb     H3  195   0.235  -0.400   0.928  0.1390 -0.9888  0.1271
    8bbb     H4  196   0.325  -0.281   0.834 -2.3989  0.0786 -2.1673
    8bbb     N1  197  -0.000  -0.228   0.900 -0.8112 -0.1047  0.0154
    8bbb     C3  198  -0.070  -0.358   0.899 -0.0746  0.0265  0.2390
    8bbb     H5  199  -0.145  -0.361   0.979 -0.6014  2.4255 -0.0972
    8bbb     H6  200   0.012  -0.430   0.910  1.6023  2.0730  1.9413
    8bbb     C4  201  -0.070  -0.112   0.851 -0.4047 -0.3007  0.0153
    8bbb     H7  202  -0.066  -0.113   0.742  0.1807 -0.5440  0.0350
    8bbb     H8  203  -0.171  -0.116   0.894 -0.0251  0.3805  1.0170
    8bbb     C5  204  -0.005   0.015   0.910 -0.2547  0.1849 -0.9680
    8bbb     H9  205  -0.037   0.043   1.011 -0.6871 -1.9105 -0.4867
    8bbb    H10  206   0.105   0.017   0.910 -0.2185  1.5851  1.4243
    8bbb     C6  207  -0.153  -0.382   0.769  0.1091 -0.7891  0.1988
    8bbb    H11  208  -0.251  -0.336   0.784 -1.4181 -3.0394 -2.1208
    8bbb    H12  209  -0.106  -0.332   0.684  1.3582 -0.8727  0.8160
    8bbb     C7  210  -0.044   0.138   0.828 -0.0625  0.1005  0.5462
    8bbb     C8  211  -0.174  -0.525   0.743  0.3230  0.0830 -0.8064
    8bbb     O1  212  -0.137   0.206   0.867 -0.0686 -0.4081  0.6840
    8bbb     O2  213  -0.091  -0.581   0.670  0.2291  0.6370 -0.4488
    8bbb     N4  214   0.262  -0.219   1.027 -0.3341  0.4878 -0.2451
    8bbb    H21  215   0.191  -0.216   1.100 -1.2293 -2.7173 -0.8345
    9bbb     C1  216   0.414   0.135   1.954 -0.3796  0.2878 -0.1883
    9bbb     H1  217   0.336   0.210   1.936  1.1796  1.9500 -0.3070
    9bbb     H2  218   0.453   0.163   2.052 -1.4010 -1.7617  0.8609
    9bbb     C2  219   0.520   0.168   1.847  0.1481 -0.5462  0.6542
    9bbb     H3  220   0.529   0.277   1.834 -0.8050 -0.4813  0.4615
    9bbb     H4  221   0.619   0.128   1.871 -1.4645 -4.2522  1.8360
    9bbb     N1  222   0.373  -0.008   1.965  0.8757 -0.6770  0.2940
    9bbb     C3  223   0.244  -0.015   2.038 -0.4059  0.0660 -0.4713
    9bbb     H5  224   0.254   0.039   2.133 -0.8253  0.0933 -0.4442
    9bbb     H6  225   0.221  -0.113   2.081 -1.0425  0.4735  0.1291
    9bbb     C4  226   0.478  -0.079   2.026  0.2599  0.0592  0.5340
    9bbb     H7  227   0.568  -0.082   1.964  1.8001 -1.1707  2.7071
    9bbb     H8  228   0.510  -0.029   2.119  1.8306  2.4671 -1.1835
    9bbb     C5  229   0.448  -0.228   2.062 -0.4861  0.4468  0.3393
    9bbb     H9  230   0.379  -0.248   2.145 -1.4246 -1.5176 -0.8542
    9bbb    H10  231   0.397  -0.284   1.984  0.6981 -1.6300  0.9752
    9bbb     C6  232   0.123   0.021   1.956  0.0509  0.0030 -0.9305
    9bbb    H11  233   0.042   0.027   2.031  1.5221 -0.5841  0.7853
    9bbb    H12  234   0.121   0.115   1.899  1.6878  0.4193 -0.3614
    9bbb     C7  235   0.583  -0.294   2.101 -0.3797  0.7967 -0.1602
    9bbb     C8  236   0.083  -0.098   1.868  0.0339 -0.1821 -0.6954
    9bbb     O1  237   0.660  -0.333   2.017  0.0329  0.0972 -0.1281
    9bbb     O2  238  -0.016  -0.170   1.891 -0.6943  0.0427  0.1498
    9bbb     N4  239   0.479   0.122   1.709 -0.1955 -0.1155  0.7696
    9bbb    H21  240   0.380   0.117   1.685  0.2219 -0.1697 -1.0473
   10bbb     C1  241  -0.406   2.364   0.794 -0.0392  0.0702 -1.2239
   10bbb     H1  242  -0.500   2.361   0.738 -0.5529  1.1853 -0.4714
   10bbb     H2  243  -0.344   2.450   0.763 -0.4716  1.5647  1.6536
   10bbb     C2  244  -0.334   2.225   0.775  0.0715  0.4559 -0.7614
   10bbb     H3  245  -0.311   2.207   0.669 -1.4389 -0.8627 -0.9076
   10bbb     H4  246  -0.243   2.227   0.836 -0.5728 -1.3701  0.3466
   10bbb     N1  247  -0.438   2.392   0.935 -0.6843 -0.4649 -0.4225
   10bbb     C3  248  -0.331   2.393   1.040 -0.1496 -0.2365  0.0061
   10bbb     H5  249  -0.293   2.495   1.053  1.0056 -0.3359 -2.2149
   10bbb     H6  250  -0.252   2.320   1.018 -0.0652 -0.2200  0.2443
   10bbb     C4  251  -0.525   2.513   0.945 -0.1274  0.0819 -0.5764
   10bbb     H7  252  -0.515   2.552   1.047  0.5040 -0.3964 -0.4513
   10bbb     H8  253  -0.498   2.591   0.873 -0.0655  1.0856  0.4912
   10bbb     C5  254  -0.672   2.475   0.916  0.0339 -0.0180 -0.6970
   10bbb     H9  255  -0.678   2.416   0.823 -0.9913 -2.6049  0.9103
   10bbb    H10  256  -0.703   2.401   0.991 -1.0552  0.7027 -0.4225
   10bbb     C6  257  -0.384   2.360   1.180 -0.1020  0.3920 -0.4437
   10bbb    H11  258  -0.314   2.369   1.263 -2.3863 -0.1211  1.6736
   10bbb    H12  259  -0.464   2.431   1.205 -0.8518  0.0350 -1.7278
   10bbb     C7  260  -0.761   2.587   0.925  0.6635 -0.3206  0.6771
   10bbb     C8  261  -0.458   2.225   1.180  0.0225 -0.2315  0.9536
   10bbb     O1  262  -0.793   2.638   0.815  0.5077 -0.1166 -0.3770
   10bbb     O2  263  -0.408   2.131   1.121  0.0477 -0.1467 -0.2905
   10bbb     N4  264  -0.402   2.101   0.825  0.0316  0.6461  0.2774
   10bbb    H21  265  -0.451   2.104   0.913 -1.4138 -2.8570 -0.2438
   11bbb     C1  266  -0.946   1.683   1.425 -0.2061 -0.4352  0.4543
   11bbb     H1  267  -1.034   1.726   1.473 -0.5163 -0.6755  0.1081
   11bbb     H2  268  -0.931   1.589   1.480 -4.1304 -1.6193 -0.1851
   11bbb     C2  269  -0.821   1.772   1.437 -0.2777  0.5581 -0.1980
   11bbb     H3  270  -0.856   1.875   1.427  1.1411  1.0417 -0.4032
   11bbb     H4  271  -0.775   1.754   1.535  0.3752 -2.2435 -0.9340
   11bbb     N1  272  -0.974   1.654   1.282  0.1894  0.6452 -0.3198
   11bbb     C3  273  -1.012   1.769   1.199  0.0702 -0.0446  0.4657
   11bbb     H5  274  -0.965   1.861   1.236  1.2563  0.7220 -2.6383
   11bbb     H6  275  -1.118   1.796   1.198 -0.3894 -1.5958 -1.7924
   11bbb     C4  276  -1.075   1.545   1.268  0.0555 -0.0730 -0.4070
   11bbb     H7  277  -1.149   1.536   1.348  0.1583 -1.8698 -0.4722
   11bbb     H8  278  -1.129   1.550   1.173 -1.7666  0.1687  0.5918
   11bbb     C5  279  -1.008   1.406   1.251  0.4954  0.1369 -0.1361
   11bbb     H9  280  -0.938   1.398   1.167 -0.9615  1.7644 -1.5844
   11bbb    H10  281  -0.949   1.381   1.340  0.8480  0.7554 -0.1910
   11bbb     C6  282  -0.961   1.740   1.059  0.3986  0.2757  0.2011
   11bbb    H11  283  -0.851   1.741   1.055  0.3807  0.7064 -0.2361
   11bbb    H12  284  -0.986   1.644   1.012  1.3126  0.3109 -0.3786
   11bbb     C7  285  -1.133   1.322   1.232 -0.4514 -0.0165  0.4749
   11bbb     C8  286  -0.991   1.854   0.966 -0.7977 -0.4299  0.1793
   11bbb     O1  287  -1.210   1.313   1.322  0.4121 -0.3093 -0.1063
   11bbb     O2  288  -1.064   1.946   0.997  0.4616 -0.0513 -0.4529
   11bbb     N4  289  -0.716   1.745   1.336  0.0390  0.4790 -0.7451
   11bbb    H21  290  -0.746   1.681   1.264 -2.1306 -0.1042  0.5870
   12bbb     C1  291   1.153   1.406   1.888 -0.7838  0.6103 -0.1996
   12bbb     H1  292   1.153   1.457   1.985  0.9262  1.1206 -0.4427
   12bbb     H2  293   1.253   1.416   1.845  1.1880 -0.4124  3.7296
   12bbb     C2  294   1.044   1.467   1.799  0.5764  0.2879 -0.0828
   12bbb     H3  295   0.951   1.490   1.853  1.0241 -1.1720  1.3860
   12bbb     H4  296   1.089   1.567   1.789  1.3126  0.2952  2.4738
   12bbb     N1  297   1.128   1.264   1.904 -0.1214 -0.1970 -0.4797
   12bbb     C3  298   1.005   1.241   1.971 -1.0374 -0.5158  0.4422
   12bbb     H5  299   0.926   1.311   1.941  0.0087 -0.0664 -1.4607
   12bbb     H6  300   1.009   1.259   2.079  1.1221 -1.8911  0.6561
   12bbb     C4  301   1.249   1.189   1.957  0.0051 -0.0047  0.7335
   12bbb     H7  302   1.306   1.231   2.041  0.4837 -2.6058  1.8264
   12bbb     H8  303   1.227   1.094   2.009 -1.1121 -0.0664  0.1688
   12bbb     C5  304   1.340   1.163   1.844 -0.2260  0.6956  0.2888
   12bbb     H9  305   1.294   1.079   1.791  1.4797 -0.5208  0.6383
   12bbb    H10  306   1.339   1.246   1.773 -0.5600  0.6763  0.2720
   12bbb     C6  307   0.964   1.092   1.932 -0.0103 -0.5391 -0.5163
   12bbb    H11  308   0.915   1.095   1.834 -1.7894 -1.0521  0.3078
   12bbb    H12  309   1.048   1.023   1.923  0.7061  0.5037 -2.2103
   12bbb     C7  310   1.472   1.115   1.881 -0.3462  0.7868  0.2799
   12bbb     C8  311   0.862   1.042   2.029  0.9788 -0.3461 -0.1866
   12bbb     O1  312   1.471   1.012   1.947 -0.1532 -0.1138 -0.1548
   12bbb     O2  313   0.769   1.115   2.066  0.2845 -0.3630  0.4607
   12bbb     N4  314   1.028   1.403   1.671  0.0311  0.3361  0.2717
   12bbb    H21  315   1.104   1.365   1.617 -1.1908 -0.8898 -0.6653
   13bbb     C1  316   1.585   0.930   1.453  0.0337  0.6917  0.4568
   13bbb     H1  317   1.673   0.881   1.410 -1.5086 -0.6138 -1.4229
   13bbb     H2  318   1.585   0.905   1.560 -1.2129  0.2485  0.3828
   13bbb     C2  319   1.465   0.864   1.396  0.2597 -0.4460  0.0839
   13bbb     H3  320   1.447   0.916   1.301 -2.0190 -1.9244 -0.3685
   13bbb     H4  321   1.475   0.765   1.351 -1.1429 -0.2908 -0.6351
   13bbb     N1  322   1.583   1.075   1.431  0.2285  0.1379  0.3118
   13bbb     C3  323   1.715   1.135   1.473  0.5613 -0.0649  0.5444
   13bbb     H5  324   1.751   1.087   1.565  0.8601 -0.5948  0.1592
   13bbb     H6  325   1.699   1.237   1.508 -0.7043 -0.3150  0.7381
   13bbb     C4  326   1.474   1.149   1.486 -0.6047  0.0114  0.0202
   13bbb     H7  327   1.388   1.084   1.504  0.3540 -1.2499  0.1514
   13bbb     H8  328   1.500   1.202   1.579  0.9695 -0.2859 -0.2237
   13bbb     C5  329   1.450   1.260   1.381  0.0927  0.8265  0.1698
   13bbb     H9  330   1.545   1.314   1.368  0.4650 -0.0225 -0.7949
   13bbb    H10  331   1.416   1.210   1.290 -0.5096  1.0026  0.2938
   13bbb     C6  332   1.804   1.117   1.357  0.5696  0.0883  0.0852
   13bbb    H11  333   1.815   1.010   1.336 -1.2369 -0.1178  0.0164
   13bbb    H12  334   1.751   1.145   1.265  1.9630 -1.8048 -1.3692
   13bbb     C7  335   1.343   1.358   1.416 -1.0435 -0.2742 -0.3182
   13bbb     C8  336   1.931   1.193   1.379 -0.0924 -0.6764 -0.2030
   13bbb     O1  337   1.261   1.335   1.504 -0.1648  0.1011  0.1044
   13bbb     O2  338   1.930   1.314   1.373  0.2187 -0.1709  0.1269
   13bbb     N4  339   1.339   0.862   1.476 -0.6867 -0.5506 -0.4343
   13bbb    H21  340   1.344   0.838   1.574 -0.4370 -0.0441 -0.3204
   14bbb     C1  341   0.402   0.479   1.586 -0.1286 -0.1668 -0.0715
   14bbb     H1  342   0.481   0.407   1.563  1.4404  0.6529  2.3315
   14bbb     H2  343   0.427   0.538   1.676 -0.1462  2.3462 -1.6108
   14bbb     C2  344   0.273   0.402   1.626 -0.2641 -0.1610  0.3061
   14bbb     H3  345   0.314   0.335   1.703 -0.4397  0.6716  1.1412
   14bbb     H4  346   0.208   0.480   1.667  2.5176  2.6117 -0.2279
   14bbb     N1  347   0.373   0.582   1.482 -0.1243 -0.3527  0.8143
   14bbb     C3  348   0.306   0.699   1.529 -0.1409 -0.1391 -0.5693
   14bbb     H5  349   0.365   0.777   1.579 -3.4416  0.6356  2.5521
   14bbb     H6  350   0.229   0.668   1.601  0.4780 -3.1714 -1.0785
   14bbb     C4  351   0.504   0.631   1.438  1.0633 -0.6346 -0.2697
   14bbb     H7  352   0.495   0.728   1.386 -0.3619 -0.3103  0.5259
   14bbb     H8  353   0.556   0.664   1.528  1.6380  0.1071 -0.8511
   14bbb     C5  354   0.570   0.533   1.347  0.6979  0.1202 -0.3277
   14bbb     H9  355   0.562   0.431   1.387 -3.9235 -0.7055 -2.6320
   14bbb    H10  356   0.516   0.535   1.251 -1.6085 -0.9213  0.8505
   14bbb     C6  357   0.223   0.754   1.421 -0.1371  0.6141  0.6140
   14bbb    H11  358   0.290   0.776   1.337 -0.6466 -0.8365 -0.2146
   14bbb    H12  359   0.157   0.676   1.381 -1.0163  1.8403 -0.4039
   14bbb     C7  360   0.709   0.574   1.324 -0.1701 -0.0085  0.2540
   14bbb     C8  361   0.142   0.872   1.472  0.6032  0.2093  0.3721
   14bbb     O1  362   0.782   0.620   1.408  0.2439  0.2764 -0.3076
   14bbb     O2  363   0.187   0.979   1.506  0.1493 -0.9216 -0.3096
   14bbb     N4  364   0.204   0.338   1.512 -0.2168  0.5384 -0.3207
   14bbb    H21  365   0.185   0.392   1.429  1.4760  0.1484 -1.0037
   15bbb     C1  366  -0.090  -0.554   1.556 -0.1659 -0.1809  0.2574
   15bbb     H1  367  -0.102  -0.451   1.591  0.9090 -0.3892  1.2842
   15bbb     H2  368   0.007  -0.587   1.597 -0.0496 -0.7236 -0.4317
   15bbb     C2  369  -0.063  -0.542   1.397  0.7292 -0.4515 -0.3825
   15bbb     H3  370   0.043  -0.562   1.377  0.8024  0.5248 -1.0512
   15bbb     H4  371  -0.126  -0.618   1.350 -1.1384 -0.5357  2.0468
   15bbb     N1  372  -0.210  -0.643   1.578  0.3907  0.1675  0.2541
   15bbb     C3  373  -0.195  -0.696   1.710 -0.3404 -0.2490 -0.3009
   15bbb     H5  374  -0.295  -0.733   1.738 -1.8675  2.7533 -1.3284
   15bbb     H6  375  -0.164  -0.614   1.774  0.0412 -1.0056  0.4993
   15bbb     C4  376  -0.329  -0.563   1.549  0.4854 -0.1126 -0.0102
   15bbb     H7  377  -0.356  -0.503   1.637 -0.8600  0.5398 -0.8340
   15bbb     H8  378  -0.308  -0.503   1.460  0.6883 -2.9853 -2.0367
   15bbb     C5  379  -0.446  -0.656   1.539  0.1629 -0.3331  0.4035
   15bbb     H9  380  -0.439  -0.723   1.452  0.3086 -1.2602  1.1123
   15bbb    H10  381  -0.465  -0.725   1.622  0.7690  0.5050  1.2652
   15bbb     C6  382  -0.080  -0.798   1.706 -0.2923  0.4308 -0.4356
   15bbb    H11  383  -0.108  -0.861   1.621  1.4445 -2.1861  0.8117
   15bbb    H12  384   0.018  -0.749   1.717 -0.1725  0.6153 -2.1201
   15bbb     C7  385  -0.574  -0.580   1.527 -0.0850 -0.0422 -0.0855
   15bbb     C8  386  -0.097  -0.899   1.817  0.3487 -0.1313  0.1944
   15bbb     O1  387  -0.605  -0.537   1.415  0.4784  0.0316 -0.1361
   15bbb     O2  388  -0.196  -0.899   1.888 -0.1453  0.0836 -0.4047
   15bbb     N4  389  -0.111  -0.409   1.336  0.4898 -0.2948 -1.0533
   15bbb    H21  390  -0.204  -0.373   1.352  0.9666  0.1221  1.1400
   16bbb     C1  391  -0.386  -1.187   0.256 -0.6649  0.0760 -0.9147
   16bbb     H1  392  -0.478  -1.148   0.209 -0.1334 -0.1006 -2.1219
   16bbb     H2  393  -0.395  -1.286   0.302  0.6980 -0.7904 -2.4141
   16bbb     C2  394  -0.346  -1.082   0.354 -0.0913  0.0773 -0.0994
   16bbb     H3  395  -0.424  -1.068   0.429  2.0358  1.5669  1.9756
   16bbb     H4  396  -0.250  -1.112   0.398 -0.2893  0.3940  0.5586
   16bbb     N1  397  -0.289  -1.193   0.149  0.5147 -0.2784 -0.0843
   16bbb     C3  398  -0.347  -1.244   0.023  0.9570 -0.4594 -0.9004
   16bbb     H5  399  -0.407  -1.332   0.051  0.8703  0.3899  1.8590
   16bbb     H6  400  -0.278  -1.283  -0.052  0.7487 -2.6090 -0.0536
   16bbb     C4  401  -0.156  -1.249   0.186 -0.0882 -0.4059  0.2419
   16bbb     H7  402  -0.114  -1.204   0.276  0.3273 -0.3466  0.0206
   16bbb     H8  403  -0.177  -1.352   0.217 -0.8378 -0.0973  0.7933
   16bbb     C5  404  -0.051  -1.226   0.073 -0.1930 -0.0813 -0.4152
   16bbb     H9  405   0.036  -1.289   0.093  0.1066  1.1327  2.6736
   16bbb    H10  406  -0.085  -1.244  -0.030 -2.6866 -0.6269  0.4284
   16bbb     C6  407  -0.428  -1.130  -0.044  0.5954 -0.0931 -0.4682
   16bbb    H11  408  -0.509  -1.089   0.017  1.5990  1.5836 -0.2139
   16bbb    H12  409  -0.358  -1.046  -0.054 -0.3659  0.8912  0.7491
   16bbb     C7  410  -0.005  -1.078   0.087 -0.1587 -0.1384 -0.0489
   16bbb     C8  411  -0.479  -1.163  -0.182 -0.9278 -0.4197  0.1483
   16bbb     O1  412  -0.074  -0.984   0.052  0.2018 -0.3293  0.1267
   16bbb     O2  413  -0.578  -1.233  -0.196  0.1441 -0.6766  0.1174
   16bbb     N4  414  -0.334  -0.949   0.276  0.8256  0.0395 -0.5597
   16bbb    H21  415  -0.325  -0.956   0.176 -0.2390  0.8602 -0.7329
   17bbb     C1  416   0.285  -0.696  -0.244 -0.6007  0.2026 -0.0237
   17bbb     H1  417   0.191  -0.752  -0.248 -0.1615 -0.6430  0.8585
   17bbb     H2  418   0.333  -0.723  -0.149  0.6601  0.5976 -0.5195
   17bbb     C2  419   0.240  -0.540  -0.227 -0.1186  0.5852 -0.0119
   17bbb     H3  420   0.332  -0.494  -0.190  0.6818 -0.8664 -0.1050
   17bbb     H4  421   0.207  -0.491  -0.319  1.1110 -1.1537 -1.4453
   17bbb     N1  422   0.375  -0.733  -0.354 -0.1751  0.1826  0.4603
   17bbb     C3  423   0.504  -0.673  -0.330  0.4847 -0.0584  0.1295
   17bbb     H5  424   0.486  -0.564  -0.330  0.9257  0.1346 -3.0911
   17bbb     H6  425   0.570  -0.690  -0.416 -1.8254  1.2036 -2.0384
   17bbb     C4  426   0.321  -0.707  -0.485 -0.3363 -0.9337  0.5605
   17bbb     H7  427   0.319  -0.599  -0.507  2.8560 -0.6688  1.0935
   17bbb     H8  428   0.397  -0.751  -0.551 -1.1013 -1.9988  0.3626
   17bbb     C5  429   0.190  -0.771  -0.529 -1.2321 -0.4311 -0.3958
   17bbb     H9  430   0.189  -0.880  -0.516  1.1572 -0.5349 -0.6495
   17bbb    H10  431   0.103  -0.728  -0.476 -0.3140 -0.3101  1.0657
   17bbb     C6  432   0.576  -0.707  -0.199  0.0392  0.1099 -0.8672
   17bbb    H11  433   0.520  -0.662  -0.116  1.6067  2.6658 -1.0885
   17bbb    H12  434   0.580  -0.816  -0.182  0.7098  0.3287  0.5213
   17bbb     C7  435   0.178  -0.749  -0.677  0.0402 -0.2113 -0.0317
   17bbb     C8  436   0.720  -0.656  -0.193  0.5241 -0.1836 -0.2362
   17bbb     O1  437   0.202  -0.836  -0.760 -0.2428  0.5119 -0.4019
   17bbb     O2  438   0.760  -0.563  -0.259  0.3004 -0.5124  0.7500
   17bbb     N4  439   0.132  -0.521  -0.130 -0.3909  0.1423 -0.4605
   17bbb    H21  440   0.048  -0.467  -0.150 -1.0885 -0.3784  0.8853
   18bbb     C1  441   0.031   0.260   0.465  0.2924 -0.1539 -0.8649
   18bbb     H1  442   0.029   0.155   0.433  1.0613 -1.9609  4.0419
   18bbb     H2  443   0.132   0.301   0.471  0.1723 -0.0067  0.5310
   18bbb     C2  444  -0.031   0.263   0.610 -0.9585 -0.0620  0.3286
   18bbb     H3  445  -0.006   0.360   0.656  1.0389  0.6817 -2.0662
   18bbb     H4  446  -0.140   0.253   0.600 -0.9675  0.2356  0.1041
   18bbb     N1  447  -0.051   0.342   0.375 -0.2157 -0.1717  0.3387
   18bbb     C3  448  -0.015   0.302   0.240  0.3067  0.5712  0.0877
   18bbb     H5  449   0.094   0.297   0.234  0.2976 -0.4451  0.5070
   18bbb     H6  450  -0.057   0.377   0.172 -0.4811  0.1673  0.1207
   18bbb     C4  451  -0.028   0.487   0.404  0.3733 -0.1088  0.4055
   18bbb     H7  452  -0.038   0.498   0.513  0.1661  0.7319  0.3017
   18bbb     H8  453   0.067   0.533   0.377  0.5150  0.9184  2.4978
   18bbb     C5  454  -0.148   0.563   0.344 -0.1789  0.0462 -0.1901
   18bbb     H9  455  -0.114   0.577   0.241 -2.2563 -1.9747 -1.2582
   18bbb    H10  456  -0.237   0.499   0.350 -0.5475  0.6763  1.3777
   18bbb     C6  457  -0.079   0.168   0.204  0.0591  0.3664  0.2498
   18bbb    H11  458  -0.024   0.091   0.258  3.6891  0.9136 -2.2655
   18bbb    H12  459  -0.187   0.172   0.225 -0.5260 -0.0949 -2.2714
   18bbb     C7  460  -0.184   0.692   0.411 -0.4089  0.0069 -0.0804
   18bbb     C8  461  -0.047   0.147   0.054  0.4510  0.3149 -0.2729
   18bbb     O1  462  -0.119   0.748   0.501 -0.9237 -0.1106 -0.0734
   18bbb     O2  463   0.066   0.133   0.002  0.4974 -0.1799 -0.2238
   18bbb     N4  464   0.022   0.162   0.708 -0.1140  0.7639 -0.1051
   18bbb    H21  465   0.096   0.099   0.680 -0.0084  1.3983 -1.3367
   19bbb     C1  466  -0.463  -0.762   0.833 -0.1629 -0.1085  0.4355
   19bbb     H1  467  -0.450  -0.755   0.941  0.2074  1.0484  0.3320
   19bbb     H2  468  -0.479  -0.866   0.803  0.4856 -0.2082  0.4077
   19bbb     C2  469  -0.322  -0.723   0.773  0.3606  0.7024  0.1548
   19bbb     H3  470  -0.254  -0.795   0.819  0.6545  0.1554 -1.0996
   19bbb     H4  471  -0.325  -0.741   0.665 -1.0197 -2.6801  0.6410
   19bbb     N1  472  -0.571  -0.682   0.773 -0.1268  0.0171  1.0216
   19bbb     C3  473  -0.593  -0.711   0.629  0.0850  0.7832  0.9279
   19bbb     H5  474  -0.615  -0.817   0.609 -1.9472  1.5418 -1.3296
   19bbb     H6  475  -0.497  -0.685   0.583 -0.0690  0.2350  0.2829
   19bbb     C4  476  -0.684  -0.705   0.863 -0.0054  0.3117  0.2999
   19bbb     H7  477  -0.777  -0.683   0.809  0.4658 -0.1252 -0.7204
   19bbb     H8  478  -0.682  -0.809   0.900 -0.0430 -0.4171 -1.6099
   19bbb     C5  479  -0.670  -0.609   0.981  0.3922  0.0073  0.0227
   19bbb     H9  480  -0.588  -0.631   1.051 -0.9189 -0.6681  1.3925
   19bbb    H10  481  -0.662  -0.510   0.935  1.3762 -0.1827 -0.2522
   19bbb     C6  482  -0.702  -0.628   0.551 -1.3039  0.7390  0.3044
   19bbb    H11  483  -0.797  -0.671   0.584 -0.5564 -1.3474 -0.1332
   19bbb    H12  484  -0.680  -0.523   0.574  0.5676  0.7279 -1.2030
   19bbb     C7  485  -0.791  -0.612   1.066  0.9965 -0.1882  0.2204
   19bbb     C8  486  -0.687  -0.656   0.406  0.0826 -0.5635 -0.3876
   19bbb     O1  487  -0.848  -0.714   1.094  0.5897  0.3054  0.2569
   19bbb     O2  488  -0.696  -0.767   0.360 -0.5093  0.5730  0.3462
   19bbb     N4  489  -0.290  -0.582   0.796  0.1762  0.2641 -0.5503
   19bbb    H21  490  -0.363  -0.520   0.827  0.5272  0.4089 -0.0082
   20bbb     C1  491   0.642  -0.510   2.385 -0.4118  0.2161  0.3718
   20bbb     H1  492   0.600  -0.458   2.472  0.4970 -0.3064  1.1463
   20bbb     H2  493   0.724  -0.573   2.422 -1.8689 -1.4022  1.0328
   20bbb     C2  494   0.702  -0.398   2.296 -0.8560 -0.2398 -0.0551
   20bbb     H3  495   0.770  -0.340   2.359  1.8193 -2.0703 -1.1256
   20bbb     H4  496   0.769  -0.450   2.227  0.4152  1.0473  0.1733
   20bbb     N1  497   0.540  -0.583   2.310  0.1699  0.0577  0.3397
   20bbb     C3  498   0.454  -0.664   2.397  0.1674  0.5434  0.3108
   20bbb     H5  499   0.519  -0.726   2.460 -0.2801  0.0327  0.2833
   20bbb     H6  500   0.385  -0.735   2.350 -1.8473  2.5441  0.0346
   20bbb     C4  501   0.584  -0.652   2.194 -0.3038  0.3613  0.3872
   20bbb     H7  502   0.686  -0.627   2.161  0.3105  0.6552  2.3704
   20bbb     H8  503   0.594  -0.757   2.224 -0.1505 -0.2158 -1.5201
   20bbb     C5  504   0.480  -0.632   2.084 -0.6132  0.2499 -0.3619
   20bbb     H9  505   0.382  -0.666   2.120 -0.7583  1.3211  0.2892
   20bbb    H10  506   0.470  -0.531   2.043  0.7939  0.1554 -0.9895
   20bbb     C6  507   0.354  -0.570   2.464 -0.2697 -0.4097 -0.2454
   20bbb    H11  508   0.410  -0.500   2.528 -0.6580 -1.1965  0.9951
   20bbb    H12  509   0.290  -0.519   2.391 -1.2384 -1.7799 -0.3948
   20bbb     C7  510   0.521  -0.721   1.982  0.4033 -0.5056 -0.4666
   20bbb     C8  511   0.262  -0.650   2.561 -0.7096  0.1343  0.0036
   20bbb     O1  512   0.507  -0.838   2.005 -0.0326  0.1132 -0.4411
   20bbb     O2  513   0.206  -0.752   2.523  0.3095 -0.4178  0.2802
   20bbb     N4  514   0.607  -0.304   2.234 -0.4518 -0.1895 -0.5521
   20bbb    H21  515   0.533  -0.267   2.292  1.1185  2.0706  0.1671
   21bbb     C1  516   0.138  -0.334   1.658  0.6234 -0.0655 -0.3661
   21bbb     H1  517   0.129  -0.372   1.556  1.0680 -0.0791 -0.4024
   21bbb     H2  518   0.046  -0.363   1.710  0.3210 -1.5707 -1.6603
   21bbb     C2  519   0.121  -0.183   1.639 -0.0234 -0.2065  0.0259
   21bbb     H3  520   0.184  -0.154   1.554  0.1823  1.7372  0.7756
   21bbb     H4  521   0.020  -0.159   1.604  0.3836  1.5798 -0.0508
   21bbb     N1  522   0.260  -0.371   1.729  0.5451  0.6250 -0.0194
   21bbb     C3  523   0.243  -0.497   1.801 -0.1929 -0.1501  0.1140
   21bbb     H5  524   0.343  -0.538   1.820 -0.6081 -0.3050  2.2950
   21bbb     H6  525   0.186  -0.569   1.740  0.0875 -0.1662 -0.1317
   21bbb     C4  526   0.368  -0.375   1.628 -1.5032  0.7517  0.1833
   21bbb     H7  527   0.395  -0.480   1.614 -0.4218  1.2748 -2.0567
   21bbb     H8  528   0.346  -0.321   1.536 -1.4016  3.0015  1.3989
   21bbb     C5  529   0.483  -0.311   1.705 -0.3003  0.5209  0.7104
   21bbb     H9  530   0.441  -0.213   1.729 -2.1686  0.0937 -0.6306
   21bbb    H10  531   0.506  -0.367   1.797 -1.6607 -0.7702  0.3077
   21bbb     C6  532   0.174  -0.479   1.933  0.7499 -0.3695 -0.3121
   21bbb    H11  533   0.238  -0.418   1.998 -0.7204  2.5011 -1.3698
   21bbb    H12  534   0.086  -0.414   1.923  0.9282  0.1630  1.2657
   21bbb     C7  535   0.610  -0.299   1.620 -0.4447 -0.6231 -0.1626
   21bbb     C8  536   0.134  -0.610   1.990 -1.0409  0.1015  0.3347
   21bbb     O1  537   0.614  -0.311   1.500  0.2950 -0.0707  0.0358
   21bbb     O2  538   0.172  -0.718   1.943  0.3443  0.0382 -0.9536
   21bbb     N4  539   0.163  -0.110   1.761  0.0223 -0.4539  0.7898
   21bbb    H21  540   0.244  -0.050   1.762 -0.0819 -0.1804 -1.3845
   22bbb     C1  541  -0.844   2.793   1.232 -0.3088 -0.0386 -0.2193
   22bbb     H1  542  -0.827   2.702   1.291  1.8499  0.7330  0.4270
   22bbb     H2  543  -0.935   2.836   1.275  0.6661  0.6024  1.2822
   22bbb     C2  544  -0.869   2.750   1.085 -0.0947 -0.9486  0.2642
   22bbb     H3  545  -0.978   2.749   1.075 -0.3648 -3.5033  2.2955
   22bbb     H4  546  -0.834   2.833   1.023  2.6932  0.2364  3.1371
   22bbb     N1  547  -0.729   2.885   1.262  0.3359  0.4218  0.4836
   22bbb     C3  548  -0.597   2.816   1.237  0.1420 -0.3601 -0.2372
   22bbb     H5  549  -0.610   2.760   1.144 -0.5498  2.1315 -1.7318
   22bbb     H6  550  -0.579   2.740   1.314 -0.0785 -1.5088 -1.3036
   22bbb     C4  551  -0.742   2.926   1.403  0.6371  0.3866  0.4175
   22bbb     H7  552  -0.777   2.845   1.469 -0.5066 -0.0490 -0.6820
   22bbb     H8  553  -0.650   2.967   1.446 -0.0231  2.6047 -0.1485
   22bbb     C5  554  -0.850   3.032   1.419  1.0540 -0.1313  0.0773
   22bbb     H9  555  -0.824   3.118   1.356  0.4426 -1.7882 -2.6168
   22bbb    H10  556  -0.949   3.001   1.382  1.6323 -1.0912 -0.7232
   22bbb     C6  557  -0.490   2.918   1.217  0.9345  0.3858  0.4128
   22bbb    H11  558  -0.535   2.988   1.147 -1.9753 -1.1481  0.5954
   22bbb    H12  559  -0.464   2.962   1.314  1.3829 -0.5361  0.7242
   22bbb     C7  560  -0.874   3.072   1.564 -0.8632  0.7080  0.4960
   22bbb     C8  561  -0.366   2.849   1.164 -0.0206  0.4859 -0.0528
   22bbb     O1  562  -0.803   3.040   1.656 -0.4381  0.1128 -0.0775
   22bbb     O2  563  -0.340   2.732   1.195  0.2362  0.3595 -0.4373
   22bbb     N4  564  -0.803   2.625   1.050 -0.0424 -0.0568  0.1831
   22bbb    H21  565  -0.760   2.567   1.121  0.2046 -0.5508 -0.3693
   23bbb     C1  566  -0.803   2.134   1.146  0.3838  0.9834  0.1344
   23bbb     H1  567  -0.840   2.035   1.117  3.4515  0.2168 -1.7156
   23bbb     H2  568  -0.768   2.173   1.050 -0.2580 -0.0178 -0.5337
   23bbb     C2  569  -0.677   2.110   1.230 -0.1899  0.8322  0.0103
   23bbb     H3  570  -0.716   2.082   1.329 -1.4362  0.9958 -0.4115
   23bbb     H4  571  -0.616   2.025   1.197 -0.1621  1.1591 -0.8095
   23bbb     N1  572  -0.903   2.222   1.212  0.0477  0.3364 -0.0442
   23bbb     C3  573  -0.980   2.149   1.313  0.0585  0.8498  0.4623
   23bbb     H5  574  -0.936   2.048   1.321 -2.6173 -0.4783 -0.4417
   23bbb     H6  575  -1.088   2.134   1.299 -0.4917  2.2900  2.7442
   23bbb     C4  576  -0.994   2.287   1.109  0.4031 -0.1757  0.7905
   23bbb     H7  577  -0.929   2.349   1.046  0.2288 -0.2818  0.5063
   23bbb     H8  578  -1.051   2.211   1.055  0.1276 -0.7955  1.9157
   23bbb     C5  579  -1.082   2.397   1.161  1.1236 -0.5610  0.1089
   23bbb     H9  580  -1.146   2.348   1.236 -0.2103  1.8726  0.6679
   23bbb    H10  581  -1.017   2.472   1.208  1.5452 -1.1318  0.4644
   23bbb     C6  582  -0.963   2.224   1.441  0.2450 -0.0273 -0.4387
   23bbb    H11  583  -0.858   2.253   1.454  0.1959  0.0969 -0.3189
   23bbb    H12  584  -1.019   2.318   1.434 -0.3679 -0.4977 -3.0955
   23bbb     C7  585  -1.170   2.469   1.060  1.2296 -0.1876  0.2076
   23bbb     C8  586  -1.001   2.143   1.562  0.0528  0.0870  0.6149
   23bbb     O1  587  -1.130   2.546   0.978 -0.1771 -0.0947 -0.7620
   23bbb     O2  588  -0.924   2.054   1.599  1.0866 -0.1403 -0.1548
   23bbb     N4  589  -0.580   2.226   1.237 -0.0788  0.1814 -0.0351
   23bbb    H21  590  -0.588   2.308   1.295 -0.4879 -0.3190  0.6261
   24bbb     C1  591  -1.288   1.249   0.917  0.8455 -0.0005 -0.0225
   24bbb     H1  592  -1.369   1.192   0.871  0.8389 -0.0932  0.1021
   24bbb     H2  593  -1.194   1.229   0.863  1.1049 -0.7453  0.6831
   24bbb     C2  594  -1.257   1.194   1.057 -0.2370 -0.5794  0.2116
   24bbb     H3  595  -1.341   1.211   1.126 -0.9931 -0.6391 -0.6864
   24bbb     H4  596  -1.239   1.086   1.046 -2.8594 -0.8020 -4.4666
   24bbb     N1  597  -1.320   1.395   0.920  0.2373  0.3226 -0.2972
   24bbb     C3  598  -1.449   1.419   0.982 -0.1026  0.5420 -0.4504
   24bbb     H5  599  -1.469   1.363   1.074 -0.2701  0.0119 -0.8073
   24bbb     H6  600  -1.525   1.397   0.906 -0.5461  0.1587  0.0977
   24bbb     C4  601  -1.306   1.450   0.783  0.0740 -0.1940  0.7589
   24bbb     H7  602  -1.302   1.359   0.722  2.3264 -0.8766  1.7994
   24bbb     H8  603  -1.387   1.518   0.753 -0.3181 -0.9900 -0.0288
   24bbb     C5  604  -1.176   1.528   0.781 -0.6068 -0.5925  0.8674
   24bbb     H9  605  -1.208   1.624   0.823 -0.9436  0.4635 -1.6181
   24bbb    H10  606  -1.100   1.484   0.845  0.6107  0.9888  0.5775
   24bbb     C6  607  -1.457   1.562   1.031 -0.2916 -0.0234 -0.7242
   24bbb    H11  608  -1.364   1.586   1.084 -1.0797  0.9231  0.2792
   24bbb    H12  609  -1.459   1.635   0.949  1.7967  1.3044  0.3282
   24bbb     C7  610  -1.125   1.538   0.634  0.8714  0.3569 -0.1107
   24bbb     C8  611  -1.573   1.573   1.128  0.3608 -0.4481 -0.1430
   24bbb     O1  612  -1.075   1.437   0.585  0.0689  0.1060 -0.6722
   24bbb     O2  613  -1.553   1.591   1.249  0.6689  0.3913 -0.1414
   24bbb     N4  614  -1.135   1.253   1.116  0.7962  0.4466  0.3002
   24bbb    H21  615  -1.047   1.251   1.067  0.5443 -0.4196 -0.1275
   25bbb     C1  616  -0.833   2.069   0.766  1.0656  0.4602 -0.3810
   25bbb     H1  617  -0.743   2.011   0.790 -0.0896 -1.5785 -0.7372
   25bbb     H2  618  -0.860   2.119   0.860  0.8583  0.5308 -0.4786
   25bbb     C2  619  -0.938   1.959   0.738 -0.2428 -0.2747  0.2925
   25bbb     H3  620  -1.039   2.002   0.735  0.8354  2.4370 -0.1129
   25bbb     H4  621  -0.910   1.911   0.643 -2.3864 -1.4378  0.1929
   25bbb     N1  622  -0.812   2.154   0.646 -0.7780  0.1021  0.2227
   25bbb     C3  623  -0.923   2.227   0.591 -0.2961  0.2233 -0.5424
   25bbb     H5  624  -0.997   2.155   0.555  0.1996  0.2862 -1.7261
   25bbb     H6  625  -0.885   2.302   0.520  2.4839 -0.6044 -0.0282
   25bbb     C4  626  -0.728   2.087   0.545  0.1967  0.2202  0.1798
   25bbb     H7  627  -0.672   2.003   0.586 -1.1330 -1.0707 -0.5654
   25bbb     H8  628  -0.797   2.056   0.466  1.7297 -1.1176 -0.6689
   25bbb     C5  629  -0.624   2.190   0.500 -0.2797 -0.3137  0.4118
   25bbb     H9  630  -0.677   2.271   0.447  3.5377  1.2065 -1.4753
   25bbb    H10  631  -0.577   2.222   0.593 -0.9219  0.9986  0.3198
   25bbb     C6  632  -0.988   2.311   0.708 -0.6512 -0.2313 -0.4298
   25bbb    H11  633  -1.058   2.246   0.763 -0.1560  1.1986  2.0239
   25bbb    H12  634  -0.917   2.350   0.781  0.7143 -0.0936 -1.7825
   25bbb     C7  635  -0.527   2.133   0.403  0.2911 -0.5933  0.5486
   25bbb     C8  636  -1.078   2.421   0.656 -0.3649 -1.0603 -0.2883
   25bbb     O1  637  -0.552   2.036   0.335 -0.0706 -0.5082 -0.3209
   25bbb     O2  638  -1.190   2.391   0.615 -0.2000 -0.4321 -0.0661
   25bbb     N4  639  -0.933   1.849   0.839  0.5825  0.3348  0.0828
   25bbb    H21  640  -0.874   1.768   0.821 -0.9538 -0.8741  0.2251
   26bbb     C1  641   1.816   1.267   1.814 -1.0415 -0.1447 -0.3793
   26bbb     H1  642   1.784   1.356   1.870  1.7094  1.0698 -0.5977
   26bbb     H2  643   1.784   1.284   1.710 -0.5807  0.6763 -0.3950
   26bbb     C2  644   1.722   1.152   1.862 -0.1832 -0.0620  0.1931
   26bbb     H3  645   1.747   1.062   1.805  0.3127 -0.1951  0.6109
   26bbb     H4  646   1.752   1.137   1.967  1.6788 -0.2598 -0.3338
   26bbb     N1  647   1.966   1.240   1.832 -0.5122  0.3340 -0.3591
   26bbb     C3  648   2.049   1.352   1.787 -0.4505  0.0062  0.1410
   26bbb     H5  649   2.008   1.376   1.688 -0.6466  1.8257  0.6306
   26bbb     H6  650   2.156   1.331   1.785  0.2476  3.0710 -0.6568
   26bbb     C4  651   2.008   1.123   1.758 -0.0349  0.1596 -0.3086
   26bbb     H7  652   1.932   1.046   1.776  0.3442  0.1151  1.1798
   26bbb     H8  653   2.003   1.139   1.649 -0.3093 -0.5845 -0.4118
   26bbb     C5  654   2.153   1.082   1.796 -0.1486  0.1919  0.1203
   26bbb     H9  655   2.230   1.151   1.757 -1.3185  0.8180 -1.1754
   26bbb    H10  656   2.155   1.079   1.905 -1.0472  2.6326  0.2633
   26bbb     C6  657   2.025   1.483   1.863  0.6543 -0.6354  0.2391
   26bbb    H11  658   1.919   1.506   1.880  0.6006  0.3586 -1.2537
   26bbb    H12  659   2.067   1.476   1.964 -2.8453 -3.1080  1.7429
   26bbb     C7  660   2.190   0.944   1.747  0.2815 -0.2338 -0.6082
   26bbb     C8  661   2.093   1.587   1.779 -0.0317 -0.6918 -0.2542
   26bbb     O1  662   2.149   0.903   1.642  0.9230 -0.0130 -0.1155
   26bbb     O2  663   2.137   1.570   1.670  0.3477 -0.0183  0.4162
   26bbb     N4  664   1.578   1.184   1.840 -0.2560 -0.1564  0.3779
   26bbb    H21  665   1.559   1.264   1.781  1.1402 -1.2302 -1.6408
   27bbb     C1  666   0.944   0.816   2.308 -0.1491 -0.2152 -0.0268
   27bbb     H1  667   1.006   0.743   2.256  2.3035  0.9966  1.0526
   27bbb     H2  668   0.903   0.773   2.400  0.5898  1.3881  1.0853
   27bbb     C2  669   0.830   0.851   2.208  0.7292 -0.7463  0.1034
   27bbb     H3  670   0.776   0.761   2.177  0.9916 -0.4963 -1.1297
   27bbb     H4  671   0.760   0.921   2.256  2.0415  1.9411 -1.6313
   27bbb     N1  672   1.027   0.936   2.332 -0.1804  0.4363 -0.2737
   27bbb     C3  673   0.944   1.024   2.425 -0.5045 -0.0344  0.3031
   27bbb     H5  674   0.965   0.992   2.528 -2.4807  0.1528  0.8023
   27bbb     H6  675   0.837   1.004   2.420 -0.5517 -0.0058  1.0892
   27bbb     C4  676   1.155   0.910   2.390 -0.2314  0.1503  0.2383
   27bbb     H7  677   1.200   0.997   2.440 -1.9741  1.5267 -0.5029
   27bbb     H8  678   1.153   0.827   2.462 -1.6360 -1.6344 -1.7482
   27bbb     C5  679   1.245   0.867   2.273  0.0497 -0.9554  0.0277
   27bbb     H9  680   1.214   0.769   2.236 -1.6147 -1.4625  2.5401
   27bbb    H10  681   1.242   0.940   2.191 -0.2116 -0.5510  0.3946
   27bbb     C6  682   0.980   1.168   2.439  0.7296 -1.3325  0.6411
   27bbb    H11  683   1.076   1.178   2.492 -0.9913  0.8678  3.7013
   27bbb    H12  684   0.989   1.205   2.336 -1.1615  0.9266  1.1787
   27bbb     C7  685   1.387   0.848   2.312 -0.2141  1.1287 -0.8265
   27bbb     C8  686   0.876   1.243   2.521  0.6329 -0.5868  0.0726
   27bbb     O1  687   1.415   0.736   2.354  0.2757  0.0231 -0.0192
   27bbb     O2  688   0.774   1.192   2.565  0.0999 -0.0944 -0.5099
   27bbb     N4  689   0.886   0.911   2.075 -0.1838  0.3944  0.0077
   27bbb    H21  690   0.966   0.867   2.030  0.3984  1.6538 -0.2146
   28bbb     C1  691   1.227   1.666   1.472 -0.1335 -0.2639  0.5154
   28bbb     H1  692   1.189   1.603   1.553 -0.1797 -0.5719  0.2562
   28bbb     H2  693   1.153   1.746   1.463  1.6078  1.2349 -1.3704
   28bbb     C2  694   1.244   1.579   1.347  0.5018 -0.6175 -0.7834
   28bbb     H3  695   1.154   1.519   1.329  0.3492 -0.7732  0.4460
   28bbb     H4  696   1.236   1.647   1.261 -2.8089  1.3661  0.8657
   28bbb     N1  697   1.357   1.724   1.500  0.1159  0.0729 -0.1004
   28bbb     C3  698   1.375   1.855   1.437 -0.4319 -0.0937  0.4761
   28bbb     H5  699   1.316   1.932   1.490 -1.2363  1.0895 -1.9719
   28bbb     H6  700   1.348   1.850   1.331  0.3862 -1.2340  0.3042
   28bbb     C4  701   1.373   1.726   1.646  0.3399 -0.3348  0.8776
   28bbb     H7  702   1.462   1.779   1.683  1.5006 -2.1592  0.8530
   28bbb     H8  703   1.285   1.778   1.685  1.2078  1.7219  0.2214
   28bbb     C5  704   1.392   1.584   1.685 -0.2518  0.3693  0.8093
   28bbb     H9  705   1.378   1.581   1.794  1.1814 -1.9907  0.9895
   28bbb    H10  706   1.327   1.506   1.644 -0.7772  0.0567  2.1920
   28bbb     C6  707   1.517   1.903   1.439 -0.0474 -0.0057 -0.0054
   28bbb    H11  708   1.553   1.896   1.543 -0.4327  1.5794  0.2534
   28bbb    H12  709   1.581   1.833   1.384 -0.4755 -1.6865  1.4980
   28bbb     C7  710   1.537   1.538   1.645 -0.1871  0.0061  0.3459
   28bbb     C8  711   1.532   2.034   1.375 -0.2249  0.2095 -0.2715
   28bbb     O1  712   1.595   1.460   1.717 -0.0081  0.2378 -0.3166
   28bbb     O2  713   1.509   2.049   1.257  0.5304  0.1534  0.4297
   28bbb     N4  714   1.344   1.472   1.344  0.4300 -0.7290  0.4648
   28bbb    H21  715   1.418   1.471   1.274  1.8755  0.5140  1.8902
   29bbb     C1  716   2.283   1.171   1.338 -0.2340 -0.3077  0.2451
   29bbb     H1  717   2.230   1.195   1.245 -0.4857  1.9186  0.9224
   29bbb     H2  718   2.312   1.065   1.333 -2.4559 -0.9642 -0.1027
   29bbb     C2  719   2.171   1.177   1.448 -0.0892 -0.9062  0.3220
   29bbb     H3  720   2.210   1.110   1.525  0.2769 -0.1501  0.8036
   29bbb     H4  721   2.156   1.280   1.482 -0.8615 -0.8180 -0.2549
   29bbb     N1  722   2.397   1.257   1.373 -0.5217 -1.1289 -0.0340
   29bbb     C3  723   2.469   1.232   1.494  0.4012 -0.5321  0.5004
   29bbb     H5  724   2.399   1.253   1.576  0.9022  0.3934  0.7012
   29bbb     H6  725   2.552   1.303   1.498 -1.0938  1.3706 -0.6082
   29bbb     C4  726   2.481   1.251   1.249 -0.4136  0.3102 -0.8109
   29bbb     H7  727   2.586   1.276   1.269 -0.4903 -0.3765  0.5601
   29bbb     H8  728   2.478   1.147   1.215 -0.7039  0.0022  0.1276
   29bbb     C5  729   2.419   1.321   1.129  0.0163  0.2901 -0.6135
   29bbb     H9  730   2.325   1.278   1.093  0.0929 -0.4131 -0.0007
   29bbb    H10  731   2.403   1.426   1.154 -1.9367 -0.3305  1.0048
   29bbb     C6  732   2.526   1.093   1.507  0.7045 -0.5292  0.2807
   29bbb    H11  733   2.455   1.011   1.490  1.4529 -0.9969 -0.6460
   29bbb    H12  734   2.607   1.067   1.439  0.6586 -0.2716  0.1268
   29bbb     C7  735   2.525   1.314   1.021 -0.1339  0.4903  0.3145
   29bbb     C8  736   2.570   1.065   1.648 -0.3974  0.5457 -0.0885
   29bbb     O1  737   2.625   1.385   1.013 -0.3000  0.5790 -0.2401
   29bbb     O2  738   2.487   1.070   1.736  0.4024 -0.1869 -0.0726
   29bbb     N4  739   2.041   1.118   1.404  0.3080  0.6009  0.1984
   29bbb    H21  740   2.020   1.019   1.399  1.8775  0.2688 -0.8621
   30ccc     N1  741   0.757   0.555   1.194 -0.4377 -0.3517 -0.3509
   30ccc     H4  742   0.691   0.509   1.133 -0.7467  1.0348 -1.1225
   30ccc     C3  743   0.884   0.617   1.153 -0.2905 -0.1876  0.0458
   30ccc     C4  744   0.939   0.559   1.025 -0.3777  0.5679  0.1544
   30ccc     H5  745   0.951   0.614   1.241 -2.9812 -1.6429  2.1907
   30ccc     H6  746   0.868   0.724   1.136 -2.1550 -0.5916 -0.9656
   30ccc     H7  747   0.851   0.547   0.962 -2.3065  0.4266  2.6911
   30ccc     H8  748   1.011   0.626   0.977  0.0376 -2.8178 -4.6338
   30ccc     N2  749   1.008   0.427   1.028  0.5429  0.3684 -0.5074
   30ccc     H9  750   0.945   0.350   1.056  2.4543 -0.9047  0.4798
   30ccc    H10  751   1.042   0.408   0.932 -2.2995  0.9527 -1.7420
   30ccc    H11  752   1.083   0.435   1.098  1.1891 -1.5718 -0.9015
   31ccc     N1  753   0.008   0.852   1.452 -0.3281 -0.1010  0.1399
   31ccc     H4  754  -0.012   0.753   1.441  0.8350 -0.1866 -1.7135
   31ccc     C3  755  -0.099   0.956   1.437  0.0739 -0.1865  0.3908
   31ccc     C4  756  -0.154   1.003   1.574 -0.2537  0.7255  0.4106
   31ccc     H5  757  -0.183   0.934   1.370  0.0172 -0.1150  0.4391
   31ccc     H6  758  -0.052   1.051   1.411  1.0723 -0.1291  2.2411
   31ccc     H7  759  -0.181   0.921   1.641 -3.0380  0.9938 -0.2584
   31ccc     H8  760  -0.078   1.067   1.618  1.4277 -0.2982 -0.8496
   31ccc     N2  761  -0.278   1.088   1.565  0.1237 -0.3033  0.6029
   31ccc     H9  762  -0.355   1.037   1.520 -1.9374  0.1267  3.3519
   31ccc    H10  763  -0.310   1.100   1.663  3.2059 -0.4665  1.7297
   31ccc    H11  764  -0.250   1.165   1.502 -0.1176 -2.0905 -1.8302
   32ccc     N1  765  -0.649  -0.573   1.640 -0.6310 -0.1106 -0.5599
   32ccc     H4  766  -0.607  -0.611   1.724  1.0871 -2.6477 -2.4271
   32ccc     C3  767  -0.783  -0.494   1.656 -0.0911 -0.0562 -0.6117
   32ccc     C4  768  -0.759  -0.371   1.741  0.1652  0.3731 -0.7691
   32ccc     H5  769  -0.861  -0.555   1.704 -0.1767  1.0910  0.7583
   32ccc     H6  770  -0.817  -0.453   1.560  2.8802  1.9011 -0.9530
   32ccc     H7  771  -0.746  -0.405   1.844 -0.6278  0.5397 -0.6087
   32ccc     H8  772  -0.665  -0.320   1.717  1.0367 -1.2894 -1.0587
   32ccc     N2  773  -0.873  -0.276   1.742  0.6934  0.6733  0.0735
   32ccc     H9  774  -0.914  -0.250   1.651 -0.2331 -0.0629  0.2627
   32ccc    H10  775  -0.950  -0.310   1.801  1.3060  1.3944  1.3125
   32ccc    H11  776  -0.844  -0.192   1.794 -2.5994  2.2143 -0.3600
   33ccc     N1  777  -0.010  -1.004   1.812  0.0657  0.0908  0.5657
   33ccc     H4  778   0.063  -1.003   1.742 -2.3174  2.1985 -2.1020
   33ccc     C3  779  -0.037  -1.139   1.873 -0.8188 -0.2464 -0.7425
   33ccc     C4  780   0.022  -1.153   2.012 -0.3747 -0.4571  0.0767
   33ccc     H5  781  -0.007  -1.221   1.807  1.3149 -0.3971  0.3280
   33ccc     H6  782  -0.143  -1.163   1.886 -0.1583 -2.0662  2.4206
   33ccc     H7  783   0.052  -1.053   2.045 -0.8726 -0.2975  0.0454
   33ccc     H8  784  -0.053  -1.197   2.078 -0.5536  0.7824  0.7335
   33ccc     N2  785   0.157  -1.227   2.021 -0.6195 -0.0966  0.4632
   33ccc     H9  786   0.213  -1.201   1.938 -1.1220 -0.6200 -0.0463
   33ccc    H10  787   0.209  -1.212   2.108  0.1800 -0.7205  0.1088
   33ccc    H11  788   0.140  -1.328   2.022  1.1292 -0.4374 -0.5977
   34ccc     N1  789   0.121  -1.058   0.137  0.7250 -0.5256  0.3740
   34ccc     H4  790   0.187  -1.134   0.146 -1.4305 -2.8115 -1.6084
   34ccc     C3  791   0.168  -0.925   0.174 -0.0597  0.0019 -0.1657
   34ccc     C4  792   0.285  -0.936   0.273 -0.4523  0.3454  0.0443
   34ccc     H5  793   0.086  -0.862   0.209 -0.7187 -0.4916 -0.8066
   34ccc     H6  794   0.210  -0.880   0.083 -0.8832 -0.1392 -0.6178
   34ccc     H7  795   0.359  -1.010   0.243 -0.2536  0.3415  0.5397
   34ccc     H8  796   0.351  -0.849   0.268 -0.4937  0.3989  0.4538
   34ccc     N2  797   0.249  -0.951   0.426 -0.5293 -0.0761  0.8719
   34ccc     H9  798   0.210  -0.858   0.448  2.1999  0.9842  1.5793
   34ccc    H10  799   0.171  -1.016   0.449 -0.7577 -0.3787 -0.6728
   34ccc    H11  800   0.335  -0.970   0.479 -1.1880 -3.0680  1.0729
   35ccc     N1  801  -0.390  -1.132  -0.284 -0.4659  0.0889 -0.0923
   35ccc     H4  802  -0.321  -1.064  -0.255  2.0867 -2.8481  1.2634
   35ccc     C3  803  -0.402  -1.180  -0.421  0.4749  0.2207 -0.8979
   35ccc     C4  804  -0.268  -1.155  -0.492  0.0771  0.3054  0.4897
   35ccc     H5  805  -0.484  -1.132  -0.475 -1.4911 -0.0473  1.6709
   35ccc     H6  806  -0.422  -1.288  -0.423 -0.8825  0.4161  0.5402
   35ccc     H7  807  -0.269  -1.054  -0.534 -2.7439 -0.1796 -0.8049
   35ccc     H8  808  -0.178  -1.172  -0.432  0.4948 -2.3685 -0.7882
   35ccc     N2  809  -0.240  -1.252  -0.602 -0.7426  0.1836  0.3104
   35ccc     H9  810  -0.330  -1.277  -0.647 -1.3655 -0.8387  2.0295
   35ccc    H10  811  -0.167  -1.227  -0.670  0.1414  0.3082  1.2843
   35ccc    H11  812  -0.212  -1.340  -0.557 -0.0556  0.7466  1.0026
   36ccc     N1  813   0.128  -0.624  -0.715 -0.2751 -0.4281  0.0113
   36ccc     H4  814   0.111  -0.557  -0.642  3.2212 -0.3536  0.9689
   36ccc     C3  815   0.103  -0.592  -0.858  0.1879  0.2418  0.7465
   36ccc     C4  816   0.000  -0.480  -0.867  0.0598 -0.5236 -0.0697
   36ccc     H5  817   0.061  -0.674  -0.917 -1.5857  1.0922  0.7493
   36ccc     H6  818   0.191  -0.556  -0.912  0.1361 -0.4634  0.1807
   36ccc     H7  819   0.044  -0.390  -0.824  1.2272 -0.6695 -0.8942
   36ccc     H8  820  -0.033  -0.460  -0.969  0.0097  0.9438  0.2087
   36ccc     N2  821  -0.125  -0.512  -0.792  0.1972 -1.0592  0.3286
   36ccc     H9  822  -0.150  -0.610  -0.812  1.4604 -0.9160 -2.4440
   36ccc    H10  823  -0.111  -0.501  -0.690  0.9269 -0.0515  0.1433
   36ccc    H11  824  -0.199  -0.452  -0.830 -1.2614 -3.6593 -1.2090
   37ccc     N1  825   0.796  -0.712  -0.092 -0.3708  0.1304  0.5261
   37ccc     H4  826   0.750  -0.779  -0.031  0.8591  0.5685  1.9979
   37ccc     C3  827   0.931  -0.664  -0.064 -0.2469  0.2889  0.1213
   37ccc     C4  828   1.042  -0.738  -0.148  0.9273 -0.1770 -0.6749
   37ccc     H5  829   0.952  -0.705   0.036 -3.1749 -1.2656  0.2437
   37ccc     H6  830   0.936  -0.556  -0.077 -2.8058  0.2720 -1.6423
   37ccc     H7  831   1.037  -0.693  -0.247 -2.8024 -0.2022 -0.6158
   37ccc     H8  832   1.137  -0.720  -0.097  0.5803  1.0461 -0.4315
   37ccc     N2  833   1.023  -0.887  -0.155 -0.5095 -0.4433 -0.5108
   37ccc     H9  834   1.093  -0.926  -0.220  0.7418  0.9423 -0.0469
   37ccc    H10  835   1.030  -0.930  -0.062  0.6297  2.1954  0.7353
   37ccc    H11  836   0.927  -0.913  -0.183 -0.7964 -0.5482  0.5247
   38ccc     N1  837  -0.302   0.747   0.373  0.1560  0.8933 -0.4552
   38ccc     H4  838  -0.345   0.697   0.296  0.1338 -0.4520  0.3851
   38ccc     C3  839  -0.372   0.856   0.442 -0.7775  0.1494  0.5000
   38ccc     C4  840  -0.473   0.796   0.533 -0.2890 -0.0157  0.1564
   38ccc     H5  841  -0.417   0.918   0.363 -0.7664 -2.8709 -2.0372
   38ccc     H6  842  -0.299   0.916   0.498 -0.0009 -0.3420  0.0287
   38ccc     H7  843  -0.529   0.721   0.477 -2.4099  0.5924  1.3588
   38ccc     H8  844  -0.411   0.753   0.612  0.4478 -2.6122 -1.6931
   38ccc     N2  845  -0.564   0.889   0.607  0.1643  0.3701  0.2581
   38ccc     H9  846  -0.610   0.826   0.674  0.8613 -1.0455 -0.5336
   38ccc    H10  847  -0.516   0.959   0.665 -0.7544 -0.7894  2.5496
   38ccc    H11  848  -0.628   0.943   0.547  1.9628  1.7047 -0.5776
   39ccc     N1  849  -0.159   0.159  -0.018 -0.1234  0.0115  0.2120
   39ccc     H4  850  -0.250   0.150   0.026  0.9299  1.5149  2.8376
   39ccc     C3  851  -0.154   0.163  -0.167 -0.1472  0.2437 -0.1500
   39ccc     C4  852  -0.216   0.033  -0.221 -0.2019 -0.7044  0.5155
   39ccc     H5  853  -0.049   0.168  -0.199  0.6740 -3.7264  1.2461
   39ccc     H6  854  -0.207   0.254  -0.197  2.0312  2.0608  1.2404
   39ccc     H7  855  -0.164  -0.046  -0.167  2.1894  2.0299  2.4586
   39ccc     H8  856  -0.322   0.023  -0.198 -0.8545  2.1056 -0.8523
   39ccc     N2  857  -0.203   0.025  -0.372  0.3861 -0.1499 -0.6094
   39ccc     H9  858  -0.101   0.035  -0.385  0.4130 -1.2964 -1.4471
   39ccc    H10  859  -0.227  -0.061  -0.423 -0.0112 -0.3238 -0.1352
   39ccc    H11  860  -0.248   0.107  -0.415  2.5000 -1.0236 -5.0044
   40ccc     N1  861  -0.825  -0.493   1.128  0.5851  0.5651  0.2367
   40ccc     H4  862  -0.772  -0.411   1.100  0.6114 -0.1003 -1.8794
   40ccc     C3  863  -0.893  -0.497   1.260  0.2651 -0.3249  0.4088
   40ccc     C4  864  -0.994  -0.372   1.269 -0.1172  0.3307  0.4976
   40ccc     H5  865  -0.811  -0.482   1.333  1.5288 -1.9209 -0.6178
   40ccc     H6  866  -0.952  -0.588   1.275  0.2631 -0.6255 -1.2774
   40ccc     H7  867  -1.022  -0.355   1.373  1.0098 -0.8118  1.0193
   40ccc     H8  868  -0.949  -0.277   1.240 -2.6390  1.5364  0.3190
   40ccc     N2  869  -1.117  -0.391   1.185  0.2810  0.0803 -0.0326
   40ccc     H9  870  -1.101  -0.399   1.083 -0.0811 -0.9389 -0.0141
   40ccc    H10  871  -1.175  -0.468   1.220  0.7913 -0.9541 -1.3878
   40ccc    H11  872  -1.177  -0.309   1.203 -0.3419 -0.0128 -1.5141
   41ccc     N1  873  -0.683  -0.535   0.337 -0.3142  0.1913  0.9466
   41ccc     H4  874  -0.691  -0.451   0.393  1.1782  0.7387  0.4167
   41ccc     C3  875  -0.657  -0.521   0.187  0.1792  0.2425 -0.8980
   41ccc     C4  876  -0.787  -0.544   0.098 -0.5522 -0.7422  0.0841
   41ccc     H5  877  -0.578  -0.594   0.163  0.2134  0.4106 -1.3138
   41ccc     H6  878  -0.615  -0.420   0.176 -0.2738  0.2289 -3.2519
   41ccc     H7  879  -0.847  -0.453   0.098  0.4097 -0.0918  0.1339
   41ccc     H8  880  -0.759  -0.549  -0.007 -0.7603 -0.1762 -0.0042
   41ccc     N2  881  -0.868  -0.663   0.127 -0.1943 -0.0113 -0.1387
   41ccc     H9  882  -0.965  -0.646   0.098 -0.0935  1.7382  0.4122
   41ccc    H10  883  -0.833  -0.755   0.099  0.2292 -0.1383  0.7461
   41ccc    H11  884  -0.870  -0.658   0.230 -1.0978  1.7577 -0.1925
   42ccc     N1  885   0.579  -0.660   1.878  0.6156 -0.2901  0.3431
   42ccc     H4  886   0.573  -0.558   1.876 -1.2089 -0.3812 -0.1868
   42ccc     C3  887   0.634  -0.728   1.761 -0.3996 -0.0658  0.1029
   42ccc     C4  888   0.676  -0.634   1.648 -0.0526 -0.3831  0.4624
   42ccc     H5  889   0.562  -0.805   1.730  0.4949 -1.1555  0.6733
   42ccc     H6  890   0.723  -0.780   1.799  0.5962  1.2885 -0.2999
   42ccc     H7  891   0.593  -0.586   1.597  1.9360  0.7575 -1.8779
   42ccc     H8  892   0.735  -0.553   1.690 -0.3111  0.4252 -0.6874
   42ccc     N2  893   0.747  -0.709   1.537 -0.1381 -0.5649 -0.1891
   42ccc     H9  894   0.806  -0.649   1.477 -1.1764 -0.5411 -1.2212
   42ccc    H10  895   0.812  -0.778   1.578  0.7954  1.1517  1.3626
   42ccc    H11  896   0.675  -0.749   1.475 -0.9259  0.8147 -0.2000
   43ccc     N1  897   0.257  -0.600   2.692 -0.2801 -0.0332  0.1360
   43ccc     H4  898   0.311  -0.519   2.720  1.7409 -0.9393 -0.9042
   43ccc     C3  899   0.207  -0.679   2.805  0.4233  0.9773  0.4598
   43ccc     C4  900   0.272  -0.623   2.929  0.3368 -0.1868 -0.1762
   43ccc     H5  901   0.245  -0.782   2.796  0.2450  1.0493 -1.7299
   43ccc     H6  902   0.098  -0.691   2.795  0.6529 -0.0778 -1.0282
   43ccc     H7  903   0.376  -0.656   2.939 -0.1494 -1.4364  1.2065
   43ccc     H8  904   0.267  -0.515   2.939  0.8019 -0.1331 -0.4555
   43ccc     N2  905   0.199  -0.671   3.053  0.2265 -0.0231  0.1497
   43ccc     H9  906   0.202  -0.772   3.073 -0.1982 -0.0665  0.0084
   43ccc    H10  907   0.261  -0.635   3.128  0.9016 -0.1663 -0.3287
   43ccc    H11  908   0.104  -0.635   3.072  0.7331  1.0149  0.8889
   44ccc     N1  909   0.717  -0.291   1.706  0.1884  0.8156 -0.0363
   44ccc     H4  910   0.704  -0.290   1.806  0.4523 -3.3715  0.2208
   44ccc     C3  911   0.859  -0.293   1.659  0.3896  0.3215  0.3253
   44ccc     C4  912   0.912  -0.149   1.669  0.4829  0.5300 -0.0347
   44ccc     H5  913   0.860  -0.336   1.558 -1.3400 -0.4330  0.6016
   44ccc     H6  914   0.931  -0.352   1.717 -1.0754 -2.6692 -0.6689
   44ccc     H7  915   0.848  -0.083   1.611 -1.1478 -0.6087  0.3879
   44ccc     H8  916   0.920  -0.117   1.773 -0.8664 -0.7859  0.5118
   44ccc     N2  917   1.050  -0.141   1.607 -0.3106 -0.3869  0.9448
   44ccc     H9  918   1.117  -0.218   1.620  0.3861 -0.2933 -1.6442
   44ccc    H10  919   1.033  -0.119   1.508  0.7031  1.5903  1.1454
   44ccc    H11  920   1.097  -0.054   1.636 -1.4344  1.0773 -1.3367
   45ccc     N1  921   0.053  -0.600   2.101 -0.0610  0.6810  0.7729
   45ccc     H4  922   0.019  -0.506   2.118  2.6743  1.9961 -0.3483
   45ccc     C3  923   0.020  -0.700   2.204 -0.5973 -0.0396  0.5147
   45ccc     C4  924  -0.078  -0.651   2.321 -0.1499  0.2704 -0.6323
   45ccc     H5  925   0.111  -0.737   2.253 -1.0210 -1.9070 -0.0377
   45ccc     H6  926  -0.040  -0.771   2.146 -0.7046  1.8165 -1.7985
   45ccc     H7  927  -0.088  -0.715   2.408  0.8430 -0.1273 -0.8062
   45ccc     H8  928  -0.045  -0.553   2.355  0.1891  0.3070 -1.0552
   45ccc     N2  929  -0.218  -0.633   2.264  0.5659  0.3761  0.0955
   45ccc     H9  930  -0.212  -0.565   2.186  0.8988  0.3020  0.0558
   45ccc    H10  931  -0.254  -0.720   2.223 -1.3482  2.3300 -2.8070
   45ccc    H11  932  -0.282  -0.598   2.337  1.8693 -0.9073  1.9372
   46ccc     N1  933  -0.975   3.164   1.588  0.0027  0.1238 -0.0592
   46ccc     H4  934  -1.035   3.174   1.507  0.0973 -2.1560 -0.4979
   46ccc     C3  935  -1.000   3.231   1.718  0.5450  0.1318 -0.5744
   46ccc     C4  936  -1.103   3.350   1.708 -0.0067  0.3599 -0.3344
   46ccc     H5  937  -0.908   3.266   1.766 -0.8005  1.5009  1.1029
   46ccc     H6  938  -1.049   3.152   1.775  0.8400 -0.2069 -0.7802
   46ccc     H7  939  -1.206   3.315   1.702 -0.1349  0.6737 -0.0268
   46ccc     H8  940  -1.101   3.418   1.794 -0.0853  0.4895 -0.4348
   46ccc     N2  941  -1.073   3.435   1.586  0.2441  0.2640 -0.1880
   46ccc     H9  942  -1.123   3.524   1.600 -0.7714 -0.5359  1.5202
   46ccc    H10  943  -0.974   3.455   1.606 -0.6249  2.4791  2.4959
   46ccc    H11  944  -1.101   3.383   1.501 -3.8114  0.2353  0.9694
   47ccc     N1  945  -0.275   2.931   1.100  0.4397  0.2285  0.4763
   47ccc     H4  946  -0.307   3.025   1.078  0.8785  1.0546  3.0553
   47ccc     C3  947  -0.142   2.882   1.052  0.3584 -0.6395  0.1595
   47ccc     C4  948  -0.025   2.932   1.141  0.3579 -0.2315  0.3398
   47ccc     H5  949  -0.121   2.943   0.964  0.5563  0.9363  1.2585
   47ccc     H6  950  -0.130   2.774   1.035 -1.0208 -0.5074 -1.9790
   47ccc     H7  951  -0.066   3.027   1.175  0.6146  1.3386 -3.3153
   47ccc     H8  952   0.000   2.879   1.233  0.1712 -0.9061  0.0100
   47ccc     N2  953   0.099   2.952   1.054  0.2272 -0.0076  0.2178
   47ccc     H9  954   0.167   3.002   1.112  0.3651 -0.2917  0.2995
   47ccc    H10  955   0.144   2.863   1.028  2.5802  0.9985  0.5800
   47ccc    H11  956   0.073   3.012   0.974  1.9641  0.3645 -0.1113
   48ccc     N1  957  -1.306   2.434   1.065 -0.2094  0.5939  0.0083
   48ccc     H4  958  -1.328   2.367   1.137  1.2009 -1.1347 -1.0748
   48ccc     C3  959  -1.411   2.525   1.022 -0.0903 -0.5238 -0.3173
   48ccc     C4  960  -1.548   2.466   1.061 -0.1345  0.3723  0.2548
   48ccc     H5  961  -1.416   2.532   0.912 -3.2095  1.2929 -0.1943
   48ccc     H6  962  -1.397   2.630   1.048  1.8622 -0.7440 -0.3526
   48ccc     H7  963  -1.562   2.366   1.020 -2.5502  0.5192  0.5828
   48ccc     H8  964  -1.565   2.448   1.167  1.8413 -3.0462  0.1525
   48ccc     N2  965  -1.665   2.539   1.014  0.1265 -0.2773  0.2216
   48ccc     H9  966  -1.753   2.488   1.034 -1.0453  1.9070  1.0288
   48ccc    H10  967  -1.666   2.631   1.061  3.5598  0.8492 -1.6107
   48ccc    H11  968  -1.652   2.560   0.914 -0.9501 -1.4663 -0.1930
   49ccc     N1  969  -1.122   2.167   1.620  0.6095  0.6465  0.8677
   49ccc     H4  970  -1.179   2.239   1.577 -1.0125 -0.7847  0.5309
   49ccc     C3  971  -1.190   2.081   1.724 -0.5394  0.1362  0.5504
   49ccc     C4  972  -1.344   2.056   1.701  0.6024 -0.4323 -0.3735
   49ccc     H5  973  -1.191   2.132   1.821 -0.1374  0.6222  0.3040
   49ccc     H6  974  -1.138   1.987   1.747  0.9774  0.6979 -0.4342
   49ccc     H7  975  -1.357   1.994   1.613 -0.4339  0.0798 -0.6013
   49ccc     H8  976  -1.390   1.998   1.781 -0.5822  1.0890  0.1126
   49ccc     N2  977  -1.436   2.169   1.688 -0.1834  0.1452 -0.2217
   49ccc     H9  978  -1.399   2.238   1.621 -0.6247  1.3917  0.7813
   49ccc    H10  979  -1.530   2.132   1.669 -0.0463 -0.8872  0.9498
   49ccc    H11  980  -1.444   2.219   1.778 -2.5009 -0.7345  0.1352
   50ccc     N1  981  -1.142   1.646   0.558 -0.0273 -0.1957 -0.7866
   50ccc     H4  982  -1.191   1.721   0.606  0.2205 -0.2605 -0.4296
   50ccc     C3  983  -1.077   1.674   0.429 -0.1441 -0.4900  1.0495
   50ccc     C4  984  -1.188   1.708   0.330  0.7608 -0.1886 -0.0677
   50ccc     H5  985  -1.013   1.592   0.395  1.1046  0.5628  0.7707
   50ccc     H6  986  -1.001   1.754   0.433 -1.1455  0.6345 -0.7947
   50ccc     H7  987  -1.260   1.778   0.370  0.4916  0.1863 -1.1695
   50ccc     H8  988  -1.151   1.740   0.232 -0.5740  2.4705  0.2130
   50ccc     N2  989  -1.275   1.593   0.284 -0.0447  0.2945  0.0367
   50ccc     H9  990  -1.307   1.541   0.367  2.7885  0.4072  1.3244
   50ccc    H10  991  -1.357   1.615   0.225 -1.1740 -1.1847  0.9629
   50ccc    H11  992  -1.213   1.535   0.225  0.1487 -0.7194  1.2083
   51ccc     N1  993  -1.704   1.554   1.072  0.2945 -0.3475 -0.2104
   51ccc     H4  994  -1.703   1.546   0.971 -0.2542 -2.3537 -0.0898
   51ccc     C3  995  -1.828   1.532   1.155  0.3787 -0.4737  0.3930
   51ccc     C4  996  -1.949   1.497   1.073 -0.1125  0.0640 -0.1571
   51ccc     H5  997  -1.843   1.623   1.215 -1.2758 -1.7333  2.0195
   51ccc     H6  998  -1.823   1.461   1.238  1.0381 -0.6852  0.1736
   51ccc     H7  999  -1.930   1.398   1.031  1.4390  0.0074  0.6032
   51ccc     H8 1000  -2.041   1.502   1.131 -0.7858 -0.8442 -1.1083
   51ccc     N2 1001  -1.974   1.591   0.959  0.2851  0.1316  0.1254
   51ccc     H9 1002  -2.060   1.556   0.915  1.0784 -1.6554 -0.0747
   51ccc    H10 1003  -1.992   1.687   0.993 -0.9712  0.4996 -1.4379
   51ccc    H11 1004  -1.895   1.589   0.892  1.2725 -0.4938  1.2762
   52ccc     N1 1005  -0.419   2.218   0.371  0.3448 -0.2017  0.2769
   52ccc     H4 1006  -0.415   2.303   0.426 -0.6984  0.1070 -0.1092
   52ccc     C3 1007  -0.344   2.217   0.245  0.2403  0.4805  0.2949
   52ccc     C4 1008  -0.310   2.358   0.187  0.1127 -0.3639 -0.2202
   52ccc     H5 1009  -0.409   2.169   0.171 -1.0546 -0.2600  1.8451
   52ccc     H6 1010  -0.256   2.153   0.251 -1.6753 -2.2211  1.5018
   52ccc     H7 1011  -0.396   2.424   0.195  1.2567  1.6780 -3.2269
   52ccc     H8 1012  -0.235   2.405   0.251 -1.0106 -0.2982  1.0935
   52ccc     N2 1013  -0.262   2.360   0.043 -0.2299  0.5904  0.1434
   52ccc     H9 1014  -0.273   2.449  -0.008  0.3680 -0.1333 -1.3012
   52ccc    H10 1015  -0.163   2.332   0.043 -0.0430  1.2254  0.9112
   52ccc    H11 1016  -0.313   2.292  -0.016  0.3962  1.1022 -1.0359
   53ccc     N1 1017  -1.033   2.550   0.660 -0.1723 -0.2434 -0.1989
   53ccc     H4 1018  -0.937   2.548   0.692 -0.4193 -1.2002  0.5459
   53ccc     C3 1019  -1.106   2.678   0.641 -0.5701  0.0963  0.6485
   53ccc     C4 1020  -1.009   2.794   0.607 -0.1060  0.0568 -0.0838
   53ccc     H5 1021  -1.171   2.698   0.728  0.2644  2.6437  0.7485
   53ccc     H6 1022  -1.169   2.664   0.553  0.5499  2.0469 -0.5377
   53ccc     H7 1023  -0.928   2.766   0.539 -0.2927 -3.7732  1.0285
   53ccc     H8 1024  -1.072   2.874   0.569  0.7233  0.1663 -1.2880
   53ccc     N2 1025  -0.941   2.846   0.733 -0.4387  0.6458 -0.2394
   53ccc     H9 1026  -0.904   2.767   0.787 -2.4899  0.4269  0.9492
   53ccc    H10 1027  -0.859   2.903   0.708 -0.0176 -0.4980 -1.6023
   53ccc    H11 1028  -1.010   2.894   0.792  0.4343  1.2626  0.2996
   54ccc     N1 1029   2.266   0.872   1.830 -0.3177  0.7081  0.2868
   54ccc     H4 1030   2.294   0.906   1.922  0.0474 -2.4871  1.5298
   54ccc     C3 1031   2.331   0.747   1.784 -0.0816 -0.2214 -0.0304
   54ccc     C4 1032   2.242   0.628   1.810 -0.0707 -0.1261 -0.1673
   54ccc     H5 1033   2.416   0.734   1.852 -1.4686  0.0713  1.8161
   54ccc     H6 1034   2.363   0.757   1.679  0.7871 -0.8156  0.1640
   54ccc     H7 1035   2.142   0.644   1.769 -0.0464 -1.9748 -1.0396
   54ccc     H8 1036   2.285   0.537   1.770 -2.0151 -1.5821  0.8606
   54ccc     N2 1037   2.221   0.610   1.959  0.2739  0.3564  0.1521
   54ccc     H9 1038   2.160   0.530   1.981  0.6393  0.2895  0.9531
   54ccc    H10 1039   2.312   0.592   2.003  0.4633 -0.3945 -0.5180
   54ccc    H11 1040   2.187   0.695   2.007  3.4655  0.2780  2.9464
   55ccc     N1 1041   2.110   1.707   1.837 -0.1369 -0.7040 -0.0632
   55ccc     H4 1042   2.092   1.694   1.936  2.8222 -0.0781  0.6739
   55ccc     C3 1043   2.176   1.829   1.787 -0.1994  0.5331 -0.1526
   55ccc     C4 1044   2.316   1.861   1.835 -0.6995  0.1153  0.1979
   55ccc     H5 1045   2.113   1.915   1.814 -1.3802  0.2310 -1.8081
   55ccc     H6 1046   2.170   1.821   1.678 -0.8054  1.4219 -0.2025
   55ccc     H7 1047   2.349   1.962   1.811 -1.3614 -0.4189 -3.5788
   55ccc     H8 1048   2.325   1.846   1.943 -2.6345 -2.1710  0.1324
   55ccc     N2 1049   2.411   1.773   1.762 -0.2104 -0.1578 -0.5474
   55ccc     H9 1050   2.510   1.782   1.788 -0.4377 -0.2183  0.3835
   55ccc    H10 1051   2.388   1.676   1.786  2.6729 -1.4134 -2.3483
   55ccc    H11 1052   2.405   1.789   1.661 -2.3349 -2.1040 -0.7937
   56ccc     N1 1053   1.464   0.957   2.300  0.1288  0.0716  0.1632
   56ccc     H4 1054   1.417   1.041   2.268  2.2914  1.3671  0.1094
   56ccc     C3 1055   1.612   0.969   2.322 -0.1679  0.0782  0.8365
   56ccc     C4 1056   1.669   1.103   2.358 -0.0524 -1.1782  0.4793
   56ccc     H5 1057   1.661   0.935   2.230 -0.3800 -0.2177  0.8317
   56ccc     H6 1058   1.647   0.902   2.402  2.6600  0.7022  0.2197
   56ccc     H7 1059   1.640   1.182   2.288  1.0609 -2.3988 -1.4676
   56ccc     H8 1060   1.625   1.135   2.452 -3.6764 -0.8621 -1.1669
   56ccc     N2 1061   1.819   1.106   2.368  0.4352 -0.5047  0.2461
   56ccc     H9 1062   1.849   1.166   2.446  0.1048 -1.5652  1.2201
   56ccc    H10 1063   1.856   1.012   2.388  0.7045 -0.1888  1.2896
   56ccc    H11 1064   1.869   1.141   2.285  1.5375 -2.0142  0.2181
   57ccc     N1 1065   0.908   1.375   2.548 -0.2144  0.0351 -0.2763
   57ccc     H4 1066   0.992   1.399   2.497 -0.2528  0.4289 -0.1549
   57ccc     C3 1067   0.842   1.463   2.647  0.0689  0.1740  0.5601
   57ccc     C4 1068   0.918   1.471   2.766  0.1845  0.1731 -0.1526
   57ccc     H5 1069   0.736   1.442   2.664  0.3920 -0.3547  2.0381
   57ccc     H6 1070   0.841   1.563   2.603  1.3296  0.4600  1.1502
   57ccc     H7 1071   0.932   1.371   2.809 -0.4857 -0.2193 -0.8297
   57ccc     H8 1072   1.017   1.509   2.740 -0.1672 -0.2364 -2.2268
   57ccc     N2 1073   0.865   1.572   2.865  0.0136 -0.1546 -0.1930
   57ccc     H9 1074   0.929   1.588   2.944  0.8472 -1.0078 -0.6939
   57ccc    H10 1075   0.846   1.662   2.817  0.9260 -0.3401 -0.9189
   57ccc    H11 1076   0.777   1.547   2.912 -0.0783  0.7771  0.1640
   58ccc     N1 1077   1.593   1.578   1.520 -0.1573  0.2650 -0.4255
   58ccc     H4 1078   1.536   1.649   1.475  0.5880  0.3586 -1.2592
   58ccc     C3 1079   1.722   1.532   1.456  0.3870  0.6320  0.3868
   58ccc     C4 1080   1.830   1.628   1.481  0.1333  0.2237 -0.2505
   58ccc     H5 1081   1.696   1.525   1.349  2.7176  1.9876 -0.3354
   58ccc     H6 1082   1.750   1.437   1.505 -2.4220 -0.7495 -0.4642
   58ccc     H7 1083   1.796   1.727   1.451  2.3946  1.1431  0.0954
   58ccc     H8 1084   1.852   1.622   1.587 -0.8599 -0.3374 -0.0576
   58ccc     N2 1085   1.946   1.589   1.403  0.3493  0.3313 -0.3204
   58ccc     H9 1086   2.025   1.654   1.418  0.2101  0.5936 -0.6773
   58ccc    H10 1087   1.973   1.496   1.437 -2.0951 -0.6810 -0.9220
   58ccc    H11 1088   1.925   1.585   1.302 -0.2624  1.0986 -0.2412
   59ccc     N1 1089   1.571   2.136   1.459 -0.3805  0.2404  0.2560
   59ccc     H4 1090   1.599   2.101   1.549 -0.8284 -0.0604  0.2837
   59ccc     C3 1091   1.592   2.277   1.414 -0.5944  0.0707 -0.5742
   59ccc     C4 1092   1.475   2.366   1.457  0.8689  0.4157  0.3346
   59ccc     H5 1093   1.614   2.271   1.306 -0.9118 -2.0065 -0.5521
   59ccc     H6 1094   1.690   2.307   1.451 -0.4008  2.0319 -2.4755
   59ccc     H7 1095   1.457   2.350   1.564  1.6014 -1.1469  0.2520
   59ccc     H8 1096   1.498   2.469   1.428 -0.7078  0.7864  0.3187
   59ccc     N2 1097   1.339   2.338   1.390  0.3217  0.1687  0.2514
   59ccc     H9 1098   1.345   2.346   1.288  0.2701 -0.9728  0.1530
   59ccc    H10 1099   1.317   2.242   1.421  1.0221  0.2664  1.0883
   59ccc    H11 1100   1.263   2.400   1.422 -1.3930 -1.3601 -0.6882
   60ccc     N1 1101   2.500   1.219   0.924  0.5439  0.5434 -0.1752
   60ccc     H4 1102   2.421   1.156   0.929  0.8025  0.2255 -0.1253
   60ccc     C3 1103   2.596   1.183   0.811 -0.1661 -0.0591  0.5408
   60ccc     C4 1104   2.561   1.059   0.732  0.3232  0.0876 -0.0108
   60ccc     H5 1105   2.692   1.177   0.863  0.1033 -0.7903 -0.0160
   60ccc     H6 1106   2.610   1.270   0.745  1.5738  0.2706  1.2908
   60ccc     H7 1107   2.564   0.979   0.806 -3.4338  0.1003  0.3395
   60ccc     H8 1108   2.455   1.059   0.706  0.0895 -0.1755  0.9228
   60ccc     N2 1109   2.642   1.021   0.604 -0.1910 -0.1253  0.1603
   60ccc     H9 1110   2.628   1.095   0.534  1.2559 -0.9728 -1.1049
   60ccc    H10 1111   2.744   1.022   0.621 -0.2623  1.3848  0.5975
   60ccc    H11 1112   2.612   0.934   0.557 -1.1485  1.2562 -1.9502
   61ccc     N1 1113   2.704   1.073   1.673  0.4086  0.5420  0.5071
   61ccc     H4 1114   2.765   1.085   1.593  0.0008 -1.6265 -0.2177
   61ccc     C3 1115   2.768   1.033   1.800 -0.7835  0.2879 -0.8603
   61ccc     C4 1116   2.927   1.024   1.788  0.7120 -0.9724  0.0689
   61ccc     H5 1117   2.733   0.934   1.833 -2.3093  1.0502 -0.1030
   61ccc     H6 1118   2.748   1.106   1.879 -0.1033  0.6535 -1.0157
   61ccc     H7 1119   2.946   0.933   1.731 -0.5967 -0.8034 -0.6908
   61ccc     H8 1120   2.956   1.107   1.723 -0.2162 -0.7363 -0.0630
   61ccc     N2 1121   3.016   1.014   1.909  0.5008  0.1398 -0.1199
   61ccc     H9 1122   3.012   1.098   1.968  0.8863  2.1410 -2.7580
   61ccc    H10 1123   2.990   0.929   1.961  2.6601  0.0839  1.0161
   61ccc    H11 1124   3.111   0.991   1.875 -0.0395 -2.3135 -0.1792
   62SOL     OW 1125   2.063   6.559   0.608  0.4554  0.1661  0.3340
   62SOL    HW1 1126   2.012   6.484   0.640  0.0528  0.1774 -0.2738
   62SOL    HW2 1127   2.115   6.523   0.536  1.6173  0.0647  1.1948
   63SOL     OW 1128   4.043   4.154   2.579 -0.8047 -0.2780 -0.7389
   63SOL    HW1 1129   3.963   4.206   2.575 -0.4961  0.2240 -0.5279
   63SOL    HW2 1130   4.053   4.133   2.672  0.0811  0.9085 -0.5409
   64SOL     OW 1131   4.228   6.898   0.761  0.6178  0.4167 -0.3195
   64SOL    HW1 1132   4.291   6.935   0.823  0.3530  0.5753 -0.1467
   64SOL    HW2 1133   4.197   6.818   0.804 -0.6628  1.2738  0.4253
   65SOL     OW 1134   7.092   4.227   4.698  0.5299  0.3677 -1.0540
   65SOL    HW1 1135   7.117   4.246   4.608  0.3157  0.7616 -1.0311
   65SOL    HW2 1136   7.170   4.245   4.749  0.1197  1.9576 -0.9359
   66SOL     OW 1137   4.550   0.108   2.848 -0.2289  0.3986  0.1932
   66SOL    HW1 1138   4.534   0.088   2.755  0.8338  0.1633  0.0495
   66SOL    HW2 1139   4.571   0.201   2.849 -1.4960  0.7039  0.3805
   67SOL     OW 1140   1.847   2.012   1.592 -0.7752 -0.2508 -0.8462
   67SOL    HW1 1141   1.932   2.016   1.548  0.4492 -0.3732  1.4009
   67SOL    HW2 1142   1.831   2.102   1.622  0.0133 -0.7665  1.2646
   68SOL     OW 1143   6.483   3.159   2.111 -0.3713  0.2621 -0.0366
   68SOL    HW1 1144   6.571   3.162   2.075 -0.8067 -1.3662 -1.3708
   68SOL    HW2 1145   6.466   3.249   2.141  1.3511  0.8321 -0.6554
   69SOL     OW 1146   5.053   0.522   4.294 -0.1694 -0.7501 -0.2206
   69SOL    HW1 1147   4.967   0.492   4.266 -0.4519 -0.0783 -0.1028
   69SOL    HW2 1148   5.092   0.560   4.215  0.4526 -2.0053 -0.5275
   70SOL     OW 1149   6.974   6.785   7.069 -0.3967 -0.1322  0.0519
   70SOL    HW1 1150   6.917   6.781   7.145  0.9239  0.5696  1.1225
   70SOL    HW2 1151   6.930   6.846   7.009 -0.7028  0.5042  0.9098
   71SOL     OW 1152   3.010   6.371   7.258  0.4493  0.1276 -0.2136
   71SOL    HW1 1153   2.921   6.395   7.283 -0.1535 -0.1001 -2.0252
   71SOL    HW2 1154   3.050   6.454   7.230  0.2501 -0.0416 -1.0053
   72SOL     OW 1155   4.706   5.875   2.707 -0.1462 -0.0938 -0.1255
   72SOL    HW1 1156   4.702   5.923   2.624 -1.7974 -0.1976 -0.1352
   72SOL    HW2 1157   4.674   5.787   2.686  0.9348 -0.6215  0.3174
   73SOL     OW 1158   2.368   7.282   2.059  0.0701 -0.3316 -0.7518
   73SOL    HW1 1159   2.462   7.278   2.075 -0.1378 -0.9041  0.4836
   73SOL    HW2 1160   2.335   7.199   2.094 -0.9042 -0.0837 -1.0607
   74SOL     OW 1161   6.766   1.764   4.312  0.0006  0.0268 -0.2327
   74SOL    HW1 1162   6.751   1.844   4.260 -0.0332  0.9576  1.1479
   74SOL    HW2 1163   6.744   1.790   4.401  2.1516 -0.8786  0.6233
   75SOL     OW 1164   1.489   6.152   2.475  0.3809  0.3632 -0.4352
   75SOL    HW1 1165   1.570   6.107   2.453 -0.3732 -0.7698 -0.9608
   75SOL    HW2 1166   1.447   6.097   2.540  0.2719  1.2198  0.2402
   76SOL     OW 1167   2.284   4.106   0.244  0.2551 -0.1636 -0.2028
   76SOL    HW1 1168   2.256   4.056   0.321  1.6295  1.1993  1.2518
   76SOL    HW2 1169   2.216   4.089   0.179 -0.8776 -1.4964  1.2431
   77SOL     OW 1170   1.072   0.138   2.616  0.0718  0.2879 -0.4716
   77SOL    HW1 1171   1.084   0.154   2.709  0.5232 -0.9674 -0.2910
   77SOL    HW2 1172   1.001   0.196   2.590  0.1629  0.8910  0.5758
   78SOL     OW 1173   1.641   3.705   0.746  0.1310  0.2017  0.3627
   78SOL    HW1 1174   1.711   3.760   0.711 -0.2636 -0.2751 -1.2761
   78SOL    HW2 1175   1.565   3.725   0.691 -0.1837 -1.5149  0.1059
   79SOL     OW 1176   2.409   5.291   0.788  0.0101  0.2338  0.1883
   79SOL    HW1 1177   2.487   5.315   0.838  0.1385 -0.6600  0.4304
   79SOL    HW2 1178   2.368   5.375   0.767 -0.1017  0.6414  1.8697
   80SOL     OW 1179   4.885   5.647   6.873 -0.0425  0.1891 -0.1873
   80SOL    HW1 1180   4.854   5.737   6.857  0.7540  0.3739 -0.7525
   80SOL    HW2 1181   4.979   5.656   6.888 -0.1831 -0.4066  1.2033
   81SOL     OW 1182   6.344   6.455   7.393 -0.0562  0.0375 -0.1933
   81SOL    HW1 1183   6.346   6.548   7.415 -2.0997  0.4624 -1.5048
   81SOL    HW2 1184   6.339   6.452   7.298 -0.2898 -1.3956 -0.1669
   82SOL     OW 1185   4.493   2.896   3.016  0.1742 -0.1514 -0.1705
   82SOL    HW1 1186   4.464   2.824   2.960 -0.1206  0.1745 -0.4445
   82SOL    HW2 1187   4.496   2.972   2.957 -0.2651  0.2228  0.2868
   83SOL     OW 1188   1.842   5.423   4.051 -0.1711 -0.5113 -0.5150
   83SOL    HW1 1189   1.910   5.374   4.004  0.4280  0.9841 -1.2679
   83SOL    HW2 1190   1.839   5.508   4.007 -2.0182 -0.2752 -0.0116
   84SOL     OW 1191   1.989   4.941   4.996  0.3167  0.1802 -0.2216
   84SOL    HW1 1192   2.048   4.981   4.932  4.6662 -1.4008  2.3715
   84SOL    HW2 1193   1.981   5.006   5.066  0.5887 -0.2889  0.2637
   85SOL     OW 1194   3.535   3.012   2.213 -0.3056 -0.5246 -0.1617
   85SOL    HW1 1195   3.540   3.064   2.133 -2.5059 -1.3890 -0.9383
   85SOL    HW2 1196   3.498   3.071   2.278  0.8654 -0.0190  0.0768
   86SOL     OW 1197   5.492   3.432   5.595  0.0588  0.0536  0.5396
   86SOL    HW1 1198   5.514   3.346   5.558  0.4659  0.3447  0.0870
   86SOL    HW2 1199   5.407   3.453   5.557 -0.3244 -0.4136  1.1222
   87SOL     OW 1200   3.242   1.852   4.793 -0.4848  1.0329  0.5470
   87SOL    HW1 1201   3.325   1.808   4.772 -1.7499 -0.8320 -0.9473
   87SOL    HW2 1202   3.213   1.812   4.874 -2.0618 -1.7927 -1.2477
   88SOL     OW 1203   3.655   0.177   5.536 -0.1742  0.2537  0.4389
   88SOL    HW1 1204   3.675   0.084   5.549 -1.0668 -0.0558 -0.2793
   88SOL    HW2 1205   3.574   0.192   5.584  0.9275  1.1453  2.1151
   89SOL     OW 1206   3.723   6.073   3.287  0.1597 -0.5660 -0.2130
   89SOL    HW1 1207   3.759   6.044   3.204  0.8002  0.7690 -0.4344
   89SOL    HW2 1208   3.790   6.051   3.352  0.5493  0.1878 -0.3497
   90SOL     OW 1209   0.133   6.718   6.252  0.1322  0.0147 -0.0637
   90SOL    HW1 1210   0.200   6.729   6.185  0.1595 -0.4486 -0.1111
   90SOL    HW2 1211   0.176   6.668   6.322  0.2524  0.9038  0.5198
   91SOL     OW 1212   6.566   5.154   2.404  0.6406 -0.0986 -0.1266
   91SOL    HW1 1213   6.609   5.117   2.482  0.6635  0.1469 -0.0215
   91SOL    HW2 1214   6.528   5.237   2.435  1.6848  0.6049 -0.6516
   92SOL     OW 1215   0.471   5.905   3.781  0.3308 -0.1017 -0.2442
   92SOL    HW1 1216   0.508   5.984   3.819 -0.5067  0.6362 -0.9140
   92SOL    HW2 1217   0.470   5.842   3.853  0.8271  0.5527  0.3518
   93SOL     OW 1218   0.461   6.517   0.782  0.2681  0.7365 -0.4362
   93SOL    HW1 1219   0.473   6.561   0.867  0.5229 -1.6843  0.8672
   93SOL    HW2 1220   0.369   6.535   0.759 -0.0471  0.7767  0.7713
   94SOL     OW 1221   5.820   6.514   6.361 -0.6250 -0.7378 -0.4511
   94SOL    HW1 1222   5.731   6.477   6.367 -0.9701  0.2405  0.9710
   94SOL    HW2 1223   5.876   6.446   6.399 -1.0646 -0.4916  0.6968
   95SOL     OW 1224   1.165   1.174   6.516  0.3167  0.1611 -0.0410
   95SOL    HW1 1225   1.116   1.155   6.595 -2.1712 -0.5159 -1.6285
   95SOL    HW2 1226   1.206   1.091   6.492  0.1920  0.0975 -0.0338
   96SOL     OW 1227   2.352   6.270   5.651 -0.1409  0.3184 -0.5873
   96SOL    HW1 1228   2.320   6.288   5.739 -1.2416  3.0462 -1.4397
   96SOL    HW2 1229   2.443   6.299   5.652  0.3718 -1.2125  0.0418
   97SOL     OW 1230   3.007   7.247   6.525 -0.5065 -0.1707 -0.4782
   97SOL    HW1 1231   3.089   7.289   6.502  1.2291 -2.5163  0.9170
   97SOL    HW2 1232   2.995   7.179   6.458  0.1327 -1.5225  0.7181
   98SOL     OW 1233   4.524   4.224   4.985 -0.3323  0.0868  0.0339
   98SOL    HW1 1234   4.613   4.208   4.951 -0.0045  0.3306  0.7752
   98SOL    HW2 1235   4.473   4.246   4.907 -0.3264 -2.4608 -0.7945
   99SOL     OW 1236   3.191   4.136   1.714 -0.1503 -0.1455  0.1645
   99SOL    HW1 1237   3.133   4.211   1.720 -0.6171 -0.4743 -0.1262
   99SOL    HW2 1238   3.263   4.165   1.659  0.3450  0.4978  1.1266
  100SOL     OW 1239   1.382   3.978   1.016 -0.6464  0.9764 -0.2086
  100SOL    HW1 1240   1.310   4.036   1.043 -0.7183  0.6593  0.3098
  100SOL    HW2 1241   1.340   3.893   1.005 -0.0944  0.3894  1.7439
  101SOL     OW 1242   6.782   1.421   3.972  0.5752  0.0793 -0.3178
  101SOL    HW1 1243   6.708   1.364   3.951 -0.9854  2.0142 -0.3751
  101SOL    HW2 1244   6.782   1.426   4.068  1.2340 -0.6122 -0.2667
  102SOL     OW 1245   5.020   4.498   6.160  0.0301 -0.3905 -0.4753
  102SOL    HW1 1246   4.976   4.479   6.243 -0.2604  0.5337 -0.4068
  102SOL    HW2 1247   5.069   4.418   6.140  0.6110 -0.3996  0.9024
  103SOL     OW 1248   0.260   3.522   1.765 -0.2212 -0.4765  0.3623
  103SOL    HW1 1249   0.287   3.610   1.793 -0.2940 -0.4576  0.3730
  103SOL    HW2 1250   0.334   3.466   1.790  0.2951 -0.2547 -0.6183
  104SOL     OW 1251   2.248   5.070   0.048  0.1661  0.1900  0.0443
  104SOL    HW1 1252   2.173   5.102   0.099 -0.0172  0.5590 -0.4390
  104SOL    HW2 1253   2.322   5.121   0.080  0.4186 -0.8946  1.2408
  105SOL     OW 1254   0.244   5.003   4.516  0.5016  0.1377 -0.0442
  105SOL    HW1 1255   0.335   5.001   4.545  0.5859 -1.5691 -0.3447
  105SOL    HW2 1256   0.239   4.939   4.445 -0.7291  0.8981 -0.6915
  106SOL     OW 1257   2.151   1.452   0.599 -0.2930  0.2823  0.1361
  106SOL    HW1 1258   2.127   1.538   0.633  1.6717  0.7232  0.5649
  106SOL    HW2 1259   2.221   1.470   0.536 -0.6343 -0.9223 -0.6164
  107SOL     OW 1260   0.896   4.271   0.227 -0.7904  0.1799  0.7427
  107SOL    HW1 1261   0.822   4.327   0.203 -2.1493 -1.8640 -0.0771
  107SOL    HW2 1262   0.970   4.309   0.179 -1.3285  2.0391  1.2780
  108SOL     OW 1263   0.813   7.424   5.743  0.2725  0.5917 -0.0125
  108SOL    HW1 1264   0.777   7.512   5.756  2.1415  1.3200  0.4333
  108SOL    HW2 1265   0.759   7.387   5.673 -1.6772  1.4094  0.9683
  109SOL     OW 1266   0.991   3.386   2.166 -0.6819  0.1840  0.2181
  109SOL    HW1 1267   1.040   3.370   2.085 -0.0433  0.6448  0.5132
  109SOL    HW2 1268   0.924   3.316   2.167 -0.7758  0.2451 -0.7587
  110SOL     OW 1269   5.609   5.024   6.653 -0.4037  0.2241 -0.0141
  110SOL    HW1 1270   5.601   5.037   6.559  0.0074 -0.7110 -0.1872
  110SOL    HW2 1271   5.703   5.032   6.671 -0.2736 -1.2344  0.0481
  111SOL     OW 1272   0.171   3.930   3.180 -0.5155  0.0568 -0.2740
  111SOL    HW1 1273   0.178   4.025   3.189  0.0868 -0.0449  0.4522
  111SOL    HW2 1274   0.113   3.917   3.105 -0.8981  0.9963 -0.1560
  112SOL     OW 1275   1.417   3.847   6.583 -0.5475 -0.5395  0.0474
  112SOL    HW1 1276   1.411   3.751   6.591 -0.6098 -0.6225 -0.8500
  112SOL    HW2 1277   1.330   3.874   6.554 -0.0099 -0.4499 -1.6333
  113SOL     OW 1278   0.635   4.040   3.582  0.1650  0.0256 -0.2317
  113SOL    HW1 1279   0.711   4.084   3.543 -0.6057  1.5103 -0.1552
  113SOL    HW2 1280   0.585   4.111   3.622 -2.2635 -0.6177 -1.9021
  114SOL     OW 1281   5.220   3.913   4.208 -0.3030 -0.3646  0.0900
  114SOL    HW1 1282   5.199   4.004   4.229 -0.0412 -0.2706 -0.0549
  114SOL    HW2 1283   5.185   3.863   4.282  2.7368  0.1609  2.0588
  115SOL     OW 1284   1.414   2.322   0.583 -0.1948  0.2543 -0.5201
  115SOL    HW1 1285   1.456   2.320   0.669  1.0763  2.4673 -1.0082
  115SOL    HW2 1286   1.396   2.230   0.563 -0.0592 -0.3586  1.8534
  116SOL     OW 1287   3.664   3.611   1.924  0.2816  0.6545 -0.1902
  116SOL    HW1 1288   3.736   3.672   1.909  0.9085 -0.5158 -2.4204
  116SOL    HW2 1289   3.692   3.558   1.999  0.5671  1.8279  0.5568
  117SOL     OW 1290   1.898   4.271   1.233  0.2053  0.3602  0.4871
  117SOL    HW1 1291   1.915   4.197   1.291 -0.1338  0.8802  1.2781
  117SOL    HW2 1292   1.816   4.249   1.189  1.1139 -0.6118 -0.7778
  118SOL     OW 1293   1.206   1.099   4.202 -0.3601  0.1634 -0.9981
  118SOL    HW1 1294   1.289   1.097   4.154 -0.4041 -0.5720 -1.0566
  118SOL    HW2 1295   1.204   1.185   4.243 -0.7906  1.2468 -3.1458
  119SOL     OW 1296   6.897   3.612   1.322 -0.3681  0.2810 -0.0154
  119SOL    HW1 1297   6.852   3.531   1.342  0.6737 -0.5481 -0.8406
  119SOL    HW2 1298   6.985   3.601   1.359  0.0154  0.7175 -0.7611
  120SOL     OW 1299   2.648   1.866   4.848  0.1068  0.0619  0.6219
  120SOL    HW1 1300   2.677   1.775   4.854 -1.7918 -0.7172 -0.9900
  120SOL    HW2 1301   2.590   1.877   4.923  2.0143  0.6982  2.0964
  121SOL     OW 1302   4.547   7.107   3.825 -0.0974  0.3305 -0.3457
  121SOL    HW1 1303   4.541   7.199   3.851 -0.6756 -0.0345  0.8839
  121SOL    HW2 1304   4.460   7.086   3.792 -0.4560 -0.1774  0.8567
  122SOL     OW 1305   5.277   0.136   1.643  0.2981 -0.0983 -0.2134
  122SOL    HW1 1306   5.208   0.155   1.580  0.9413 -0.5150 -1.0636
  122SOL    HW2 1307   5.241   0.068   1.700 -1.0317  1.6541  1.1662
  123SOL     OW 1308   5.635   1.766   5.412  0.7476 -0.1391  0.0661
  123SOL    HW1 1309   5.683   1.810   5.483 -1.7203 -0.9886  2.4534
  123SOL    HW2 1310   5.624   1.676   5.444 -0.0029 -0.6912 -1.6697
  124SOL     OW 1311   3.179   6.951   5.528 -0.3579  0.7894 -0.1200
  124SOL    HW1 1312   3.169   7.036   5.570  1.2139  0.4618  1.0479
  124SOL    HW2 1313   3.168   6.968   5.435 -0.7304  2.1509  0.1598
  125SOL     OW 1314   4.386   6.942   7.351  0.0328 -0.0808 -0.0180
  125SOL    HW1 1315   4.300   6.937   7.393  0.3291 -1.7015  0.4398
  125SOL    HW2 1316   4.388   7.030   7.312 -1.3353  0.4395  0.9985
  126SOL     OW 1317   5.451   2.920   6.770 -0.3004 -0.1004  0.4130
  126SOL    HW1 1318   5.539   2.890   6.792  0.5525  1.6416 -0.4636
  126SOL    HW2 1319   5.434   2.991   6.832 -0.1773  1.0092 -0.7698
  127SOL     OW 1320   3.445   0.806   3.874 -0.0165 -0.1294  0.0210
  127SOL    HW1 1321   3.394   0.797   3.954 -3.1940 -0.6508 -1.8649
  127SOL    HW2 1322   3.396   0.756   3.809  1.4703  1.6105 -2.6250
  128SOL     OW 1323   1.548   4.235   6.697  0.2420 -0.0985 -0.1923
  128SOL    HW1 1324   1.514   4.286   6.771  0.4171 -1.5589  0.9409
  128SOL    HW2 1325   1.578   4.301   6.634 -3.0503  1.2934 -0.5414
  129SOL     OW 1326   0.760   2.900   1.356 -0.6783  0.4569 -0.2375
  129SOL    HW1 1327   0.810   2.822   1.333 -0.8805  0.5546 -1.0284
  129SOL    HW2 1328   0.732   2.937   1.272 -1.3850  0.8576  0.1650
  130SOL     OW 1329   3.831   5.501   4.595  0.7441  0.1763 -0.0777
  130SOL    HW1 1330   3.831   5.441   4.670 -0.4618 -0.9603 -0.9381
  130SOL    HW2 1331   3.922   5.528   4.586  1.0833 -0.4724  1.1743
  131SOL     OW 1332   3.636   5.398   0.674 -0.6777  0.2022  0.4794
  131SOL    HW1 1333   3.710   5.399   0.614 -0.2709 -0.9504  0.9349
  131SOL    HW2 1334   3.615   5.491   0.687 -0.3358  0.4968 -0.8754
  132SOL     OW 1335   3.375   4.231   3.943 -0.2351  0.3617  0.1645
  132SOL    HW1 1336   3.466   4.261   3.945  0.7142 -1.9972 -1.8077
  132SOL    HW2 1337   3.375   4.152   3.997 -0.5659 -0.7551 -1.3763
  133SOL     OW 1338   3.532   0.409   2.659  0.4406 -0.0564 -0.3629
  133SOL    HW1 1339   3.519   0.433   2.567  0.4664 -0.0932 -0.3757
  133SOL    HW2 1340   3.567   0.321   2.657  0.5513 -0.0135 -0.3210
  134SOL     OW 1341   3.504   3.412   4.250 -0.2869  0.1957 -0.4740
  134SOL    HW1 1342   3.508   3.373   4.163  2.8853  0.8207 -0.7450
  134SOL    HW2 1343   3.475   3.341   4.307  1.8086 -1.5863 -1.4792
  135SOL     OW 1344   7.085   5.592   2.564  0.1233  0.2431 -0.0219
  135SOL    HW1 1345   7.035   5.654   2.513 -0.1915 -1.5169 -1.9645
  135SOL    HW2 1346   7.061   5.506   2.529  2.5256 -0.8276  0.7218
  136SOL     OW 1347   7.206   2.133   5.862  0.0354 -0.0892 -0.0253
  136SOL    HW1 1348   7.124   2.135   5.911  0.6055  1.5073  0.9551
  136SOL    HW2 1349   7.184   2.092   5.778 -1.6151 -0.2368  0.4598
  137SOL     OW 1350   2.670   3.726   3.938 -0.6823  0.2437 -0.4255
  137SOL    HW1 1351   2.670   3.709   4.033  0.1600  0.6617 -0.3396
  137SOL    HW2 1352   2.704   3.646   3.900 -0.4137  0.3094 -0.3245
  138SOL     OW 1353   0.640   0.572   6.541  0.1437 -0.0125 -0.0139
  138SOL    HW1 1354   0.550   0.578   6.510 -0.2742 -2.5013  0.5668
  138SOL    HW2 1355   0.633   0.577   6.636  0.7587  0.8482 -0.0008
  139SOL     OW 1356   1.457   1.726   5.247  0.1753 -0.0051  0.3816
  139SOL    HW1 1357   1.420   1.774   5.173  2.5867  1.4122 -0.0058
  139SOL    HW2 1358   1.532   1.679   5.209  0.2284 -0.8905  1.5453
  140SOL     OW 1359   1.844   4.343   3.919 -0.0671  0.2471 -0.5318
  140SOL    HW1 1360   1.883   4.331   3.833 -0.3973 -3.7688 -0.3057
  140SOL    HW2 1361   1.750   4.354   3.901 -0.1037 -0.3233 -0.7003
  141SOL     OW 1362   5.140   2.709   4.010 -0.1583 -0.3718  0.3011
  141SOL    HW1 1363   5.197   2.753   3.947  1.2526  0.1064  1.8502
  141SOL    HW2 1364   5.151   2.616   3.992 -1.7487 -0.2352 -1.7828
  142SOL     OW 1365   2.550   6.915   2.512 -0.3460 -0.6560  0.1836
  142SOL    HW1 1366   2.475   6.907   2.571  1.5569 -2.6362  2.5569
  142SOL    HW2 1367   2.555   6.830   2.469  0.4393 -0.4624 -0.1164
  143SOL     OW 1368   7.133   4.726   1.554 -0.5143  0.0898  0.1174
  143SOL    HW1 1369   7.041   4.704   1.537 -0.5930  1.5370 -1.5912
  143SOL    HW2 1370   7.165   4.760   1.471  1.5615 -0.2825  0.7158
  144SOL     OW 1371   2.801   2.227   5.380  0.6621 -0.0342  0.4267
  144SOL    HW1 1372   2.771   2.174   5.307  0.9868 -0.4088  0.5663
  144SOL    HW2 1373   2.726   2.230   5.440 -0.3684  1.9619 -0.8131
  145SOL     OW 1374   4.016   6.339   1.750  0.2044 -0.1772 -0.8598
  145SOL    HW1 1375   4.077   6.294   1.808 -0.0264  0.4168 -0.1379
  145SOL    HW2 1376   3.949   6.374   1.809  1.0785  2.2572 -1.2177
  146SOL     OW 1377   1.148   6.498   4.833  0.3972 -0.2387 -0.0636
  146SOL    HW1 1378   1.086   6.548   4.887 -0.6900 -0.0372 -1.4586
  146SOL    HW2 1379   1.149   6.411   4.874 -0.7102 -0.2075  0.0593
  147SOL     OW 1380   2.409   2.343   5.765  0.0092  0.2063 -1.2894
  147SOL    HW1 1381   2.452   2.306   5.842  0.5278  2.2358 -0.5427
  147SOL    HW2 1382   2.340   2.399   5.801 -1.8384 -1.2209 -2.4246
  148SOL     OW 1383   3.279   2.677   6.934 -0.2290 -0.6425  0.1971
  148SOL    HW1 1384   3.201   2.689   6.880 -0.8582 -1.3399  0.9038
  148SOL    HW2 1385   3.341   2.632   6.877 -0.6037 -0.6905 -0.1786
  149SOL     OW 1386   1.505   3.595   3.400 -0.5569 -0.1381 -0.1400
  149SOL    HW1 1387   1.432   3.553   3.353 -0.3510 -1.3282  0.5766
  149SOL    HW2 1388   1.583   3.552   3.366 -0.1842  0.9538 -0.7126
  150SOL     OW 1389   2.003   2.823   3.351 -0.2476  0.3716  0.3475
  150SOL    HW1 1390   2.087   2.868   3.337  0.0244 -0.7493 -2.1879
  150SOL    HW2 1391   1.963   2.870   3.424  1.5975  2.3775  0.1857
  151SOL     OW 1392   4.367   1.601   4.157 -0.2452 -0.2333  0.3910
  151SOL    HW1 1393   4.449   1.641   4.185  0.5703 -0.8903 -0.9383
  151SOL    HW2 1394   4.306   1.620   4.227  1.1666 -0.1204  1.6501
  152SOL     OW 1395   4.714   5.093   5.282 -0.0120  0.2214 -0.0029
  152SOL    HW1 1396   4.798   5.138   5.291  1.5355 -1.4690 -3.9977
  152SOL    HW2 1397   4.737   5.000   5.275 -2.2621 -0.3503 -0.6497
  153SOL     OW 1398   3.940   0.824   6.526 -0.6245 -0.2875  0.0267
  153SOL    HW1 1399   3.995   0.794   6.598  0.7856  0.0819 -0.8474
  153SOL    HW2 1400   4.002   0.851   6.458 -1.8375  2.0634 -0.2635
  154SOL     OW 1401   6.957   4.864   3.553  0.1444  0.2275 -0.0397
  154SOL    HW1 1402   6.891   4.839   3.617 -0.1385 -0.5874 -0.6404
  154SOL    HW2 1403   6.939   4.810   3.476  0.3079  1.3709 -0.9231
  155SOL     OW 1404   2.129   2.986   0.425  0.4723  0.3355  0.5997
  155SOL    HW1 1405   2.079   2.999   0.505  1.0988  1.5092  0.8161
  155SOL    HW2 1406   2.182   2.908   0.442 -1.5535 -1.2348  0.1898
  156SOL     OW 1407   4.387   2.268   3.033 -0.0107 -0.1326 -0.5448
  156SOL    HW1 1408   4.362   2.360   3.036  1.2694  0.2427 -1.1006
  156SOL    HW2 1409   4.377   2.237   3.123 -0.0123  0.6641 -0.2689
  157SOL     OW 1410   5.171   4.291   4.951  0.3517  0.6422 -0.4318
  157SOL    HW1 1411   5.118   4.214   4.970 -0.4007  0.9726 -1.1347
  157SOL    HW2 1412   5.191   4.328   5.037 -1.2242  0.9476 -0.1761
  158SOL     OW 1413   0.852   3.206   4.309 -0.0572 -0.2966  0.3606
  158SOL    HW1 1414   0.793   3.209   4.385  0.1111  0.8036  0.4668
  158SOL    HW2 1415   0.795   3.224   4.234  0.0492  0.2288  0.4047
  159SOL     OW 1416   3.308   4.419   1.331  0.2646 -0.7642 -0.2762
  159SOL    HW1 1417   3.387   4.464   1.303 -0.3342  0.2584 -0.3846
  159SOL    HW2 1418   3.275   4.375   1.253  0.0297 -0.1062 -0.5554
  160SOL     OW 1419   4.663   5.198   1.829 -0.5191  0.9985 -0.0137
  160SOL    HW1 1420   4.592   5.230   1.772 -1.7047  0.9614  1.3935
  160SOL    HW2 1421   4.647   5.241   1.913  0.0481 -0.4411  0.8589
  161SOL     OW 1422   5.736   4.500   1.298 -0.8781 -0.3835 -0.0461
  161SOL    HW1 1423   5.761   4.408   1.290 -1.6513 -0.5331 -0.9412
  161SOL    HW2 1424   5.648   4.504   1.259 -1.0986  0.6239  0.5189
  162SOL     OW 1425   6.097   2.024   6.966 -0.2277 -0.2650 -0.0093
  162SOL    HW1 1426   6.142   2.050   6.885  0.0604 -1.3424 -0.2111
  162SOL    HW2 1427   6.067   1.935   6.949 -1.9692  0.2270  0.3365
  163SOL     OW 1428   0.499   6.184   4.646 -0.1014 -0.4886  0.0101
  163SOL    HW1 1429   0.435   6.229   4.703  0.2599 -0.7645  0.6402
  163SOL    HW2 1430   0.452   6.107   4.615 -0.4275 -0.1448 -0.3777
  164SOL     OW 1431   0.628   7.154   2.762 -0.2936  0.4590 -0.1394
  164SOL    HW1 1432   0.683   7.180   2.837 -2.1409  0.9209  1.1230
  164SOL    HW2 1433   0.656   7.065   2.742  0.2941  0.3448  1.0639
  165SOL     OW 1434   5.085   5.323   2.325  0.5373 -0.1884  0.4653
  165SOL    HW1 1435   5.042   5.242   2.354 -2.2446  1.0012 -0.0077
  165SOL    HW2 1436   5.095   5.312   2.231  1.3288 -0.4641  0.5756
  166SOL     OW 1437   0.911   6.295   1.923  0.3783  0.0090  0.1798
  166SOL    HW1 1438   0.933   6.340   1.841 -0.2472 -0.5461 -0.3047
  166SOL    HW2 1439   0.990   6.302   1.976  0.8281  0.2852 -0.5118
  167SOL     OW 1440   3.787   5.805   6.018 -0.3073 -0.2045 -0.2863
  167SOL    HW1 1441   3.837   5.724   6.003 -0.5905 -0.5465  0.5360
  167SOL    HW2 1442   3.846   5.875   5.994  0.1729 -0.6446 -0.3986
  168SOL     OW 1443   5.853   3.337   2.983 -0.5194 -0.2166  0.3468
  168SOL    HW1 1444   5.845   3.277   3.057 -2.2843  0.2297  0.5606
  168SOL    HW2 1445   5.871   3.280   2.908  3.3891 -0.5272  1.3385
  169SOL     OW 1446   2.679   6.737   6.462 -0.3082  0.4849 -0.1162
  169SOL    HW1 1447   2.745   6.806   6.463 -0.8632  1.0242  1.0352
  169SOL    HW2 1448   2.609   6.769   6.520 -1.0393 -0.5900 -0.3670
  170SOL     OW 1449   1.133   2.440   5.176  0.1797 -0.2592  0.0899
  170SOL    HW1 1450   1.218   2.449   5.219  0.7505  3.3831 -1.4856
  170SOL    HW2 1451   1.133   2.351   5.141  3.2616 -0.4451  0.3165
  171SOL     OW 1452   6.678   6.799   5.839 -0.3370  0.7404 -0.2485
  171SOL    HW1 1453   6.717   6.797   5.927 -1.3864  1.0453  0.2274
  171SOL    HW2 1454   6.589   6.831   5.852 -1.3497 -1.5157 -1.0913
  172SOL     OW 1455   1.145   4.360   0.113 -0.1478  0.3649 -0.0582
  172SOL    HW1 1456   1.184   4.381   0.197 -1.3764  0.7961  0.4188
  172SOL    HW2 1457   1.213   4.383   0.049 -0.2160  2.7258  0.6307
  173SOL     OW 1458   4.645   7.051   0.503 -0.4873 -0.1095 -0.9920
  173SOL    HW1 1459   4.552   7.068   0.485 -0.6429  0.4884  0.2528
  173SOL    HW2 1460   4.676   7.132   0.543  0.0462 -1.0203  0.5043
  174SOL     OW 1461   3.754   1.047   6.608  0.2614  0.1718 -0.4357
  174SOL    HW1 1462   3.681   0.996   6.641  0.9612 -0.8771 -0.4501
  174SOL    HW2 1463   3.824   0.983   6.595  0.9308  1.0223 -1.1677
  175SOL     OW 1464   4.390   5.386   3.392 -0.0795 -0.8579  0.1928
  175SOL    HW1 1465   4.383   5.407   3.485 -0.0748  0.6487 -0.1163
  175SOL    HW2 1466   4.312   5.424   3.353 -0.5414 -2.2751 -0.3133
  176SOL     OW 1467   2.757   6.703   3.216  0.3486  0.0783  0.1569
  176SOL    HW1 1468   2.665   6.724   3.232  0.1917 -1.1151  0.9158
  176SOL    HW2 1469   2.798   6.706   3.302  0.8778 -0.0876 -0.0839
  177SOL     OW 1470   1.813   3.609   1.434 -0.2423  0.1141  0.3685
  177SOL    HW1 1471   1.894   3.571   1.468  0.6325  1.9035  0.3568
  177SOL    HW2 1472   1.785   3.671   1.501  0.0243  1.6833 -0.9034
  178SOL     OW 1473   7.173   3.280   3.967  0.0428  0.2067 -0.5139
  178SOL    HW1 1474   7.258   3.286   4.012 -0.3134 -1.7926  0.5570
  178SOL    HW2 1475   7.192   3.230   3.888 -0.4226 -2.1243  0.7648
  179SOL     OW 1476   5.118   2.008   7.283  0.3214 -0.3112  0.1042
  179SOL    HW1 1477   5.117   1.972   7.194  2.4718 -0.8431  0.2411
  179SOL    HW2 1478   5.130   1.931   7.339 -0.3428  0.0969  0.8312
  180SOL     OW 1479   6.956   6.442   5.983  0.0232 -0.2309  0.1301
  180SOL    HW1 1480   6.904   6.490   5.918  1.0917 -0.3500 -0.8576
  180SOL    HW2 1481   7.045   6.441   5.946  0.5650 -0.6997  1.3922
  181SOL     OW 1482   2.021   6.053   5.550  0.0485 -0.3628 -0.2553
  181SOL    HW1 1483   2.063   6.096   5.476 -0.1724 -0.7860 -0.6307
  181SOL    HW2 1484   1.991   5.969   5.515 -2.2090  0.4156 -0.3356
  182SOL     OW 1485   2.202   0.242   6.648  0.5970 -0.3914  0.4812
  182SOL    HW1 1486   2.185   0.164   6.701  1.0101  0.0319  1.2635
  182SOL    HW2 1487   2.150   0.311   6.690 -0.0396 -0.3170 -0.4080
  183SOL     OW 1488   6.932   7.125   0.708 -0.1079 -0.2808 -1.1743
  183SOL    HW1 1489   6.906   7.093   0.794  0.8360 -0.6167 -1.0016
  183SOL    HW2 1490   6.974   7.209   0.725 -0.5953  0.0134 -1.3951
  184SOL     OW 1491   1.502   6.985   4.280  0.3505 -0.0883  0.1934
  184SOL    HW1 1492   1.475   6.897   4.254  0.7180  0.0391 -0.6600
  184SOL    HW2 1493   1.578   6.970   4.337 -0.5710 -0.3777  1.3811
  185SOL     OW 1494   4.429   4.229   3.588  0.1114  0.5727  0.5231
  185SOL    HW1 1495   4.499   4.168   3.567 -0.7248  0.0868 -1.1152
  185SOL    HW2 1496   4.457   4.272   3.668  1.4214 -0.8908  0.9050
  186SOL     OW 1497   3.584   2.305   1.621 -0.1342 -0.1278  0.6631
  186SOL    HW1 1498   3.545   2.356   1.691 -0.8973 -1.2604  1.0866
  186SOL    HW2 1499   3.636   2.238   1.666  2.0147  1.0792  0.1169
  187SOL     OW 1500   4.107   4.611   3.737  0.3434 -0.3493  0.2174
  187SOL    HW1 1501   4.064   4.583   3.818  3.1272 -1.8313  1.3377
  187SOL    HW2 1502   4.131   4.529   3.693 -1.7751  0.3815 -2.6413
  188SOL     OW 1503   2.154   7.033   0.897 -0.2730 -0.1243 -0.8721
  188SOL    HW1 1504   2.111   7.118   0.906 -0.3950 -0.2291 -0.4562
  188SOL    HW2 1505   2.105   6.989   0.828 -0.4230  0.0080 -0.8500
  189SOL     OW 1506   5.291   3.431   4.369  0.4220  0.6143 -0.6819
  189SOL    HW1 1507   5.338   3.443   4.287  1.3312 -0.0091 -0.2650
  189SOL    HW2 1508   5.359   3.420   4.435 -0.1535  4.2060  0.7439
  190SOL     OW 1509   4.642   6.804   2.809  0.1528  0.0971  0.5876
  190SOL    HW1 1510   4.712   6.806   2.875  2.1402 -0.0835 -1.3935
  190SOL    HW2 1511   4.646   6.891   2.769 -0.9772  0.1746  0.6259
  191SOL     OW 1512   5.077   1.809   2.165  0.1028  0.3287 -0.1498
  191SOL    HW1 1513   5.090   1.897   2.201  0.3135  1.4492 -2.7499
  191SOL    HW2 1514   4.983   1.795   2.168 -0.0174  1.0134 -0.4696
  192SOL     OW 1515   2.036   7.229   3.838 -0.4665  0.7981 -0.7293
  192SOL    HW1 1516   2.047   7.296   3.906 -1.0136  1.5449 -1.3474
  192SOL    HW2 1517   1.941   7.222   3.827 -0.3819  1.0308 -1.7225
  193SOL     OW 1518   0.580   0.108   5.056  0.3652 -0.2413 -0.4024
  193SOL    HW1 1519   0.612   0.197   5.047 -0.9717  0.1641 -1.6885
  193SOL    HW2 1520   0.524   0.095   4.979 -0.5847 -1.6932  0.4705
  194SOL     OW 1521   2.780   5.604   7.134 -0.2214  0.1798 -0.1799
  194SOL    HW1 1522   2.826   5.628   7.214  0.7627  2.8427 -1.4201
  194SOL    HW2 1523   2.688   5.602   7.158 -0.0574  2.1958  0.7885
  195SOL     OW 1524   6.156   3.187   1.505 -0.1170  0.1567  0.8867
  195SOL    HW1 1525   6.099   3.254   1.467  0.4475  0.7006  1.0004
  195SOL    HW2 1526   6.106   3.105   1.493 -0.5996  0.5182  0.3196
  196SOL     OW 1527   1.170   4.451   2.152  0.1957  0.0828  0.3714
  196SOL    HW1 1528   1.156   4.491   2.066  0.6170 -0.4180  0.0712
  196SOL    HW2 1529   1.221   4.516   2.201  2.4924 -0.7977 -0.7241
  197SOL     OW 1530   5.178   2.133   1.554 -0.3788 -0.0866 -0.0822
  197SOL    HW1 1531   5.253   2.074   1.552 -0.3548 -0.0398 -0.8335
  197SOL    HW2 1532   5.212   2.215   1.589 -0.4283 -0.5268  1.0349
  198SOL     OW 1533   1.622   3.291   3.801 -0.1018  0.0639 -0.1312
  198SOL    HW1 1534   1.607   3.221   3.738 -2.3016 -0.3614  0.7609
  198SOL    HW2 1535   1.592   3.255   3.884  1.3467  1.1252  0.9052
  199SOL     OW 1536   3.595   0.367   6.235  0.1432  0.1177  0.3353
  199SOL    HW1 1537   3.582   0.407   6.321 -1.0689 -0.0248  0.2391
  199SOL    HW2 1538   3.597   0.273   6.253 -2.2029 -0.0385  0.0106
  200SOL     OW 1539   3.687   2.485   4.998  0.0704 -0.1084  0.4420
  200SOL    HW1 1540   3.767   2.434   4.994  1.0351  1.3649  0.2936
  200SOL    HW2 1541   3.668   2.494   5.092  0.2177 -0.2363  0.4835
  201SOL     OW 1542   3.491   0.199   1.803  0.0531  0.4626  0.2235
  201SOL    HW1 1543   3.457   0.109   1.806 -0.1127  0.5350  0.5890
  201SOL    HW2 1544   3.448   0.243   1.876  0.3250  0.7739  0.1979
  202SOL     OW 1545   4.380   4.005   5.681  0.4120  0.2460 -0.1463
  202SOL    HW1 1546   4.445   4.019   5.613  0.5971 -0.4284 -0.1122
  202SOL    HW2 1547   4.379   4.087   5.730  0.7583  0.4960 -0.5507
  203SOL     OW 1548   1.322   4.449   6.677  1.3457  0.7323 -0.2264
  203SOL    HW1 1549   1.374   4.463   6.755 -0.4502  3.2385  0.6512
  203SOL    HW2 1550   1.233   4.474   6.702  0.3964  0.1276 -2.6505
  204SOL     OW 1551   0.610   1.181   1.747 -0.1077 -0.1006 -0.5383
  204SOL    HW1 1552   0.675   1.247   1.721  1.4758 -1.6612 -0.7056
  204SOL    HW2 1553   0.598   1.195   1.841  1.4588 -0.5867 -0.2382
  205SOL     OW 1554   3.575   5.600   4.561  0.1667 -0.3840 -0.1583
  205SOL    HW1 1555   3.664   5.572   4.582 -0.1553 -0.6741  0.8645
  205SOL    HW2 1556   3.531   5.608   4.646 -1.0249 -1.0425 -0.6866
  206SOL     OW 1557   3.756   0.765   5.635  0.1304 -0.4386  0.0305
  206SOL    HW1 1558   3.847   0.744   5.612  0.4819 -0.1056  1.0275
  206SOL    HW2 1559   3.762   0.800   5.724 -0.8730  0.4907 -0.2535
  207SOL     OW 1560   3.467   0.976   5.876 -0.2244 -0.3741 -0.1753
  207SOL    HW1 1561   3.470   0.891   5.919  0.4304 -0.5417 -0.5419
  207SOL    HW2 1562   3.430   0.957   5.789 -1.6844 -0.0161  0.3378
  208SOL     OW 1563   0.907   1.699   3.384  0.7949 -0.6509  0.1921
  208SOL    HW1 1564   0.970   1.630   3.362  1.1015 -0.0135 -1.0030
  208SOL    HW2 1565   0.882   1.680   3.475  1.3758 -1.9356  0.1087
  209SOL     OW 1566   2.068   7.224   4.215  0.4760  0.1114  0.4038
  209SOL    HW1 1567   2.037   7.300   4.167 -0.0007 -1.1928 -1.4586
  209SOL    HW2 1568   2.126   7.178   4.154  0.1113 -1.4404  1.1649
  210SOL     OW 1569   1.305   1.013   5.968 -0.3319  0.2466  0.0700
  210SOL    HW1 1570   1.248   0.947   6.009 -0.4127 -0.1388 -0.6540
  210SOL    HW2 1571   1.391   0.970   5.964 -0.1961  0.4906  0.3334
  211SOL     OW 1572   6.111   2.821   5.245  0.3066 -0.1267 -0.2544
  211SOL    HW1 1573   6.096   2.901   5.296 -0.5729 -0.3639 -0.1114
  211SOL    HW2 1574   6.095   2.848   5.154  1.1205  0.1150 -0.3361
  212SOL     OW 1575   0.274   6.520   1.795 -0.2677  0.2027 -0.0819
  212SOL    HW1 1576   0.350   6.472   1.829 -0.1444 -0.2163 -0.9447
  212SOL    HW2 1577   0.267   6.596   1.853 -0.0981 -0.5209  0.9275
  213SOL     OW 1578   7.033   0.706   4.614 -0.2729 -0.4578 -0.1511
  213SOL    HW1 1579   6.991   0.736   4.533  1.2136 -0.5829 -0.9847
  213SOL    HW2 1580   7.106   0.652   4.586  2.2165  1.9949  1.1344
  214SOL     OW 1581   7.415   6.840   5.084  0.6611  0.1607  0.0068
  214SOL    HW1 1582   7.441   6.798   5.002  0.5045 -0.8705  0.4715
  214SOL    HW2 1583   7.435   6.933   5.071 -0.3589  0.1936 -1.6129
  215SOL     OW 1584   6.320   1.512   6.956  0.0275  0.5426 -0.0141
  215SOL    HW1 1585   6.322   1.505   7.051 -1.1165  0.2777  0.0105
  215SOL    HW2 1586   6.361   1.597   6.937  0.2412  0.6064  0.7104
  216SOL     OW 1587   2.345   7.087   4.415  0.0196  0.1233 -0.0182
  216SOL    HW1 1588   2.363   7.090   4.509  0.2492 -1.1898 -0.0008
  216SOL    HW2 1589   2.334   6.994   4.395  1.5097  0.2057 -1.5705
  217SOL     OW 1590   2.760   6.840   1.906 -0.0666 -0.2236  0.4974
  217SOL    HW1 1591   2.704   6.853   1.983  0.2778 -1.3580  0.9549
  217SOL    HW2 1592   2.704   6.794   1.844 -0.3421  0.6860  0.0584
  218SOL     OW 1593   0.153   6.944   5.605  0.3138 -0.1882  0.2749
  218SOL    HW1 1594   0.077   6.961   5.550  0.8778 -0.1657 -0.5096
  218SOL    HW2 1595   0.155   6.849   5.614 -0.3479 -0.1374  1.0925
  219SOL     OW 1596   6.550   5.874   6.160  0.3407 -0.1374 -0.3109
  219SOL    HW1 1597   6.532   5.830   6.243 -1.6411 -0.0758 -0.6672
  219SOL    HW2 1598   6.604   5.950   6.184 -0.5361  0.1047  0.9807
  220SOL     OW 1599   1.163   0.148   1.640  0.0064  0.3589 -0.1098
  220SOL    HW1 1600   1.081   0.182   1.676 -1.0155 -1.3994 -0.6603
  220SOL    HW2 1601   1.224   0.151   1.713 -1.6930 -2.0767  1.5630
  221SOL     OW 1602   5.461   4.356   1.972 -0.2794 -0.4744  0.4776
  221SOL    HW1 1603   5.523   4.423   1.999 -0.1816 -0.7637  0.9901
  221SOL    HW2 1604   5.376   4.388   2.001 -0.3358 -0.2012  0.0113
  222SOL     OW 1605   2.427   7.147   4.721  0.5525 -0.3419 -0.4958
  222SOL    HW1 1606   2.415   7.181   4.810 -0.3673 -0.5561 -0.5243
  222SOL    HW2 1607   2.481   7.212   4.677 -1.6882  1.4783 -0.7535
  223SOL     OW 1608   3.204   5.559   6.214  0.0232 -0.5400 -0.1968
  223SOL    HW1 1609   3.298   5.577   6.218  0.3668 -1.7370 -1.7081
  223SOL    HW2 1610   3.163   5.645   6.212  1.0420  0.0027  1.0203
  224SOL     OW 1611   7.207   7.298   4.645 -0.6214  0.3114 -0.3997
  224SOL    HW1 1612   7.150   7.357   4.694 -0.6669 -0.2838  0.2676
  224SOL    HW2 1613   7.283   7.351   4.623 -0.8133  0.7154 -0.0963
  225SOL     OW 1614   5.044   7.243   0.447  0.1845 -0.3314 -0.1933
  225SOL    HW1 1615   5.025   7.311   0.511  1.9308  1.2448 -1.2677
  225SOL    HW2 1616   4.962   7.234   0.398 -0.7628 -0.6451  1.3657
  226SOL     OW 1617   5.741   5.042   0.482 -0.1253 -0.0621  0.1120
  226SOL    HW1 1618   5.751   5.121   0.535 -0.6805  0.3662 -0.4040
  226SOL    HW2 1619   5.675   4.990   0.528  0.1843 -0.1904  0.4118
  227SOL     OW 1620   5.937   3.587   0.330 -0.7244  0.1100 -0.0035
  227SOL    HW1 1621   5.972   3.527   0.396  2.0120  0.0737 -1.3529
  227SOL    HW2 1622   5.880   3.531   0.276 -2.2166 -0.0670  1.6553
  228SOL     OW 1623   3.018   0.569   5.571  0.4154 -0.2227 -0.0821
  228SOL    HW1 1624   3.099   0.553   5.621  2.0306  1.8312 -1.8457
  228SOL    HW2 1625   2.949   0.574   5.637  2.0325 -0.1399  1.6832
  229SOL     OW 1626   4.154   6.207   5.808  0.3312 -0.4576  1.0067
  229SOL    HW1 1627   4.248   6.199   5.825  0.5046 -0.0087  0.3302
  229SOL    HW2 1628   4.136   6.300   5.819 -0.0423 -0.5512  1.1791
  230SOL     OW 1629   7.029   2.892   0.795  0.2012  0.1085 -0.1610
  230SOL    HW1 1630   7.018   2.955   0.866  2.0624  1.7761 -1.2499
  230SOL    HW2 1631   6.964   2.918   0.729  1.0705  1.0411 -0.6751
  231SOL     OW 1632   6.852   2.782   3.696 -0.3503 -0.2079  0.2517
  231SOL    HW1 1633   6.942   2.800   3.723 -0.4973  0.4487  0.3297
  231SOL    HW2 1634   6.835   2.692   3.724  0.0046 -0.0481  0.9880
  232SOL     OW 1635   0.574   0.633   3.297  0.5897 -0.5336 -0.3656
  232SOL    HW1 1636   0.501   0.636   3.235  0.0198  1.0512  0.3156
  232SOL    HW2 1637   0.638   0.696   3.263  0.1969  0.4832  0.6887
  233SOL     OW 1638   6.105   1.154   5.407  0.4536  0.3920 -0.0089
  233SOL    HW1 1639   6.065   1.221   5.463  0.6873  0.6848 -0.1816
  233SOL    HW2 1640   6.198   1.179   5.405  0.7478 -0.5744  0.8131
  234SOL     OW 1641   1.524   2.354   2.229  0.1378 -0.6951  0.2434
  234SOL    HW1 1642   1.455   2.289   2.243 -0.3352 -0.7779 -2.0843
  234SOL    HW2 1643   1.486   2.437   2.257 -0.8608 -0.7866 -0.7651
  235SOL     OW 1644   3.874   2.108   4.106  0.2153  0.5967 -0.4737
  235SOL    HW1 1645   3.846   2.191   4.145 -0.9730 -0.2177  0.4615
  235SOL    HW2 1646   3.860   2.043   4.175  0.8247 -0.4421 -1.2962
  236SOL     OW 1647   3.006   3.756   4.626  0.4769  0.0132 -0.0539
  236SOL    HW1 1648   2.919   3.780   4.594  0.4499  1.6036  1.0498
  236SOL    HW2 1649   3.047   3.840   4.647  3.2728 -0.4467 -2.8809
  237SOL     OW 1650   5.153   5.176   4.059 -0.2508  0.2901 -0.4660
  237SOL    HW1 1651   5.167   5.264   4.023 -1.1076  0.4348 -0.4718
  237SOL    HW2 1652   5.177   5.117   3.988  0.6877  0.5101 -0.3329
  238SOL     OW 1653   3.341   6.447   3.808  0.0748 -0.0048 -0.0565
  238SOL    HW1 1654   3.326   6.474   3.899 -1.0216 -1.5707  0.2528
  238SOL    HW2 1655   3.399   6.515   3.773  0.7220  0.5159  1.8717
  239SOL     OW 1656   6.144   3.392   5.141 -0.1040 -0.3369 -0.8593
  239SOL    HW1 1657   6.210   3.462   5.135  0.0077 -0.2398  0.8446
  239SOL    HW2 1658   6.062   3.434   5.115  0.0615  0.2939 -0.3995
  240SOL     OW 1659   3.648   0.546   2.863 -0.0305  0.0595  0.0257
  240SOL    HW1 1660   3.635   0.525   2.771 -1.4930  0.8322  0.0363
  240SOL    HW2 1661   3.726   0.601   2.864 -0.3503  0.5392 -0.8300
  241SOL     OW 1662   1.850   4.915   1.772 -0.2431  0.1991  0.0002
  241SOL    HW1 1663   1.869   4.983   1.707 -3.8462  1.2645 -0.1541
  241SOL    HW2 1664   1.805   4.847   1.723 -0.7558 -0.1568  0.9462
  242SOL     OW 1665   5.055   3.533   6.021 -0.4894 -0.1590 -0.3437
  242SOL    HW1 1666   5.112   3.500   6.090  1.2701 -0.0198 -1.6668
  242SOL    HW2 1667   4.974   3.483   6.030 -0.5959  0.3354  2.2227
  243SOL     OW 1668   2.011   4.057   0.613  0.3576 -0.2828 -0.7912
  243SOL    HW1 1669   1.992   4.146   0.643 -0.7996 -1.0149  0.7164
  243SOL    HW2 1670   2.019   4.005   0.693 -0.4743 -1.8369 -1.6728
  244SOL     OW 1671   5.273   2.244   5.253 -0.3485  0.3377 -0.0721
  244SOL    HW1 1672   5.360   2.234   5.290 -1.3440 -0.5173  2.2627
  244SOL    HW2 1673   5.278   2.202   5.167  1.2858 -0.5291  0.4029
  245SOL     OW 1674   3.229   1.943   0.600 -1.0856 -0.5226 -0.6263
  245SOL    HW1 1675   3.295   1.875   0.588 -0.2282  0.1661  0.1058
  245SOL    HW2 1676   3.196   1.959   0.511 -0.8873 -1.4674 -0.8865
  246SOL     OW 1677   0.561   0.950   4.057  0.1900 -1.0212  0.1411
  246SOL    HW1 1678   0.631   0.893   4.027  0.2694 -1.7734  1.6268
  246SOL    HW2 1679   0.602   1.035   4.068  0.9327 -1.4863  1.1347
  247SOL     OW 1680   4.501   2.656   0.851  0.2737 -0.1767 -0.2275
  247SOL    HW1 1681   4.511   2.571   0.895  0.8020 -0.6570 -1.2442
  247SOL    HW2 1682   4.485   2.634   0.760  1.0631  0.8225 -0.6272
  248SOL     OW 1683   6.542   6.417   3.455  0.5828 -0.2900  0.4589
  248SOL    HW1 1684   6.502   6.480   3.394  1.8529  0.8044  0.7250
  248SOL    HW2 1685   6.503   6.333   3.431 -0.7041  0.4934 -0.3048
  249SOL     OW 1686   3.077   1.892   2.135 -0.3560 -0.0449 -0.0219
  249SOL    HW1 1687   3.025   1.906   2.055 -0.4963  0.6817  0.1805
  249SOL    HW2 1688   3.013   1.865   2.200 -0.4058  0.3738  0.1043
  250SOL     OW 1689   3.642   4.579   1.534  0.0857  0.7249  1.0124
  250SOL    HW1 1690   3.731   4.599   1.506 -0.2077  2.2135  1.0558
  250SOL    HW2 1691   3.648   4.577   1.630  0.5509 -1.7355  1.0042
  251SOL     OW 1692   0.849   4.306   1.391 -0.1144  0.3303 -0.4660
  251SOL    HW1 1693   0.936   4.342   1.409  1.1805 -2.0167 -1.5292
  251SOL    HW2 1694   0.850   4.287   1.297 -2.2104  1.2286 -0.7276
  252SOL     OW 1695   4.416   2.273   1.888 -0.5428  0.4078  0.2495
  252SOL    HW1 1696   4.387   2.299   1.976  0.3423  1.5857  0.2267
  252SOL    HW2 1697   4.498   2.321   1.876  1.3431 -2.5770  0.2364
  253SOL     OW 1698   3.653   1.617   0.751  0.1873  0.0203 -0.3350
  253SOL    HW1 1699   3.597   1.620   0.828 -1.2375 -1.3215 -1.2534
  253SOL    HW2 1700   3.743   1.617   0.785 -0.3918  0.4467  1.2432
  254SOL     OW 1701   4.860   7.179   0.873  0.3316 -0.0388  0.2830
  254SOL    HW1 1702   4.901   7.214   0.952 -0.1338  0.0013  0.5092
  254SOL    HW2 1703   4.900   7.093   0.860  0.7284  0.1424  0.3118
  255SOL     OW 1704   2.845   0.851   4.248 -0.8422 -0.0527  0.1289
  255SOL    HW1 1705   2.873   0.781   4.190 -0.7672  0.4761 -0.4861
  255SOL    HW2 1706   2.800   0.914   4.191 -1.2723  0.2058  0.7325
  256SOL     OW 1707   4.335   5.850   2.995  0.5048 -0.3446 -0.2632
  256SOL    HW1 1708   4.429   5.832   3.001  0.8474  1.2943 -0.4155
  256SOL    HW2 1709   4.321   5.871   2.903 -0.3132 -1.9898 -0.5575
  257SOL     OW 1710   5.693   1.532   0.130 -0.1277  0.1581  0.4414
  257SOL    HW1 1711   5.636   1.479   0.075 -0.4047 -0.1246  0.9908
  257SOL    HW2 1712   5.662   1.622   0.117 -0.7264  0.0038  0.7545
  258SOL     OW 1713   1.608   5.246   7.330 -0.2672 -0.1048  0.3876
  258SOL    HW1 1714   1.689   5.265   7.376 -0.9656 -0.0842  1.6508
  258SOL    HW2 1715   1.546   5.312   7.361 -0.3017  1.1230 -1.9967
  259SOL     OW 1716   7.429   5.841   3.922 -1.0983  0.4032  0.0657
  259SOL    HW1 1717   7.506   5.809   3.969 -1.3571 -0.0981  0.1453
  259SOL    HW2 1718   7.383   5.896   3.986 -1.0400  0.3482  0.1547
  260SOL     OW 1719   6.934   6.763   5.029  0.4895 -0.1539  0.1092
  260SOL    HW1 1720   6.893   6.848   5.040  0.6575 -0.0072 -0.3974
  260SOL    HW2 1721   6.898   6.710   5.100  0.0255  0.1971  0.1362
  261SOL     OW 1722   2.606   2.434   5.158  0.4159 -0.1613 -0.1821
  261SOL    HW1 1723   2.539   2.375   5.194  2.0299 -1.0741  1.4880
  261SOL    HW2 1724   2.590   2.518   5.201 -0.6337  0.1012 -1.0365
  262SOL     OW 1725   2.066   0.141   4.348 -0.2727  0.0766  0.1245
  262SOL    HW1 1726   2.153   0.132   4.310  0.3514 -1.1469  1.7540
  262SOL    HW2 1727   2.019   0.062   4.321 -0.9757  0.7888 -0.8585
  263SOL     OW 1728   1.167   1.064   0.970 -0.1789 -0.4026 -0.7994
  263SOL    HW1 1729   1.086   1.103   1.002 -0.0167  0.1114 -1.0005
  263SOL    HW2 1730   1.234   1.093   1.031 -0.3156 -1.7751  0.0390
  264SOL     OW 1731   0.112   6.172   2.466  0.3059 -0.1940 -0.4072
  264SOL    HW1 1732   0.109   6.173   2.370 -0.6017  1.8831 -0.4206
  264SOL    HW2 1733   0.181   6.236   2.488  1.0270 -1.1980  0.3464
  265SOL     OW 1734   4.939   5.552   3.648  0.9148  0.3241  0.1788
  265SOL    HW1 1735   4.908   5.636   3.613  0.4622  1.0637  2.2208
  265SOL    HW2 1736   5.026   5.571   3.683  0.0948  0.4607  2.2849
  266SOL     OW 1737   1.719   0.488   5.312  0.2452 -0.1617  0.2385
  266SOL    HW1 1738   1.810   0.486   5.283 -0.0596  0.2269 -0.7690
  266SOL    HW2 1739   1.711   0.412   5.370  1.0875 -0.4571 -0.0194
  267SOL     OW 1740   6.872   6.114   2.775  0.5939  0.3844 -0.6405
  267SOL    HW1 1741   6.906   6.125   2.686 -0.0375  1.7719 -0.7378
  267SOL    HW2 1742   6.783   6.080   2.762  0.3793  0.9062 -0.5650
  268SOL     OW 1743   0.731   6.811   6.733 -0.3480 -0.3871  0.0073
  268SOL    HW1 1744   0.805   6.867   6.757  0.3443 -0.7748 -1.0957
  268SOL    HW2 1745   0.711   6.762   6.812 -1.7242  2.1632  1.3457
  269SOL     OW 1746   4.941   0.575   5.541  0.0387 -0.2332 -0.3380
  269SOL    HW1 1747   4.924   0.501   5.482 -0.9868  1.2262 -1.9614
  269SOL    HW2 1748   5.033   0.565   5.566 -0.3438 -2.6323  0.3833
  270SOL     OW 1749   2.733   4.565   0.103  0.2200 -0.4043 -0.0823
  270SOL    HW1 1750   2.681   4.617   0.164 -0.6536 -1.0361 -0.2776
  270SOL    HW2 1751   2.671   4.506   0.062  1.1489 -1.4654 -0.0206
  271SOL     OW 1752   1.216   2.802   6.093 -0.5216  0.4680 -0.2213
  271SOL    HW1 1753   1.201   2.813   5.999  3.0888 -0.1151 -1.0324
  271SOL    HW2 1754   1.233   2.709   6.104  0.8298  0.7842  0.6323
  272SOL     OW 1755   4.478   0.080   4.387 -0.1259 -0.2938  0.7245
  272SOL    HW1 1756   4.387   0.101   4.410  0.1540 -0.2438  1.8429
  272SOL    HW2 1757   4.514   0.164   4.357 -0.5702 -0.4142 -0.1801
  273SOL     OW 1758   0.066   1.347   1.988  0.0882  0.2999 -0.8382
  273SOL    HW1 1759   0.090   1.360   2.079  0.3595 -0.7687 -0.7422
  273SOL    HW2 1760   0.149   1.338   1.942 -0.0162 -2.5031 -0.6463
  274SOL     OW 1761   3.146   4.529   4.250  0.5386  0.4356 -0.2378
  274SOL    HW1 1762   3.148   4.538   4.346 -0.6169  1.1747 -0.2632
  274SOL    HW2 1763   3.213   4.464   4.231 -0.9502 -1.6822  1.2958
  275SOL     OW 1764   0.690   7.231   5.219  0.0497 -0.4976  0.1468
  275SOL    HW1 1765   0.743   7.251   5.141  1.6815 -0.2773  1.2713
  275SOL    HW2 1766   0.705   7.138   5.235  0.1037 -0.4328  0.4762
  276SOL     OW 1767   2.625   0.030   5.525  0.7223 -0.2142 -0.3177
  276SOL    HW1 1768   2.581   0.030   5.610 -0.0956 -1.8846 -0.6989
  276SOL    HW2 1769   2.716   0.053   5.545  0.2398  0.8051  0.8074
  277SOL     OW 1770   6.732   7.062   4.746 -0.4045  0.1460  0.1761
  277SOL    HW1 1771   6.775   6.982   4.777  0.5638  0.2470 -0.8033
  277SOL    HW2 1772   6.762   7.071   4.655  0.9428  2.5634  0.7702
  278SOL     OW 1773   7.365   5.489   5.377  0.1483 -0.2306  0.1298
  278SOL    HW1 1774   7.303   5.560   5.392  0.3185 -0.2308  0.8226
  278SOL    HW2 1775   7.366   5.439   5.459 -0.1850 -1.2051 -0.4325
  279SOL     OW 1776   3.730   4.979   0.255 -0.2734  0.2869 -0.4632
  279SOL    HW1 1777   3.653   4.936   0.294  0.4675 -0.4737  0.1897
  279SOL    HW2 1778   3.701   5.069   0.240 -2.3026 -0.6812 -3.0801
  280SOL     OW 1779   1.369   1.619   2.510 -0.0668  0.2319  0.4187
  280SOL    HW1 1780   1.423   1.642   2.586 -1.4308  2.0414  0.9079
  280SOL    HW2 1781   1.341   1.703   2.475 -0.7129 -0.6247 -1.1982
  281SOL     OW 1782   2.810   3.954   3.779  0.6613 -0.1289  1.0898
  281SOL    HW1 1783   2.756   4.019   3.823 -1.7560  0.6958 -2.6194
  281SOL    HW2 1784   2.749   3.888   3.747  2.3675 -1.3675  0.1551
  282SOL     OW 1785   6.106   5.090   7.160  0.0258 -0.1781  0.5800
  282SOL    HW1 1786   6.083   5.016   7.217 -1.1086  1.0382  1.7556
  282SOL    HW2 1787   6.062   5.070   7.077 -0.4656 -0.6997  0.9561
  283SOL     OW 1788   1.311   4.267   6.454  0.1592 -0.3030 -0.7181
  283SOL    HW1 1789   1.313   4.330   6.526 -1.3442  0.6966 -1.5217
  283SOL    HW2 1790   1.228   4.221   6.464  1.1397 -2.0974 -0.2567
  284SOL     OW 1791   2.435   0.283   1.788  0.0618  0.0439 -0.3353
  284SOL    HW1 1792   2.474   0.315   1.707  0.3213  0.3188 -0.1030
  284SOL    HW2 1793   2.490   0.210   1.814  2.7669  2.6386  1.9590
  285SOL     OW 1794   3.320   7.006   2.565  0.0404 -0.0441 -0.3212
  285SOL    HW1 1795   3.238   7.052   2.546  0.0767 -0.1262 -0.6967
  285SOL    HW2 1796   3.316   6.985   2.658  1.0402  2.7698  0.4796
  286SOL     OW 1797   0.905   3.703   0.687 -0.0518 -0.1651  0.0751
  286SOL    HW1 1798   0.943   3.790   0.672  0.2650 -0.4930 -1.0935
  286SOL    HW2 1799   0.883   3.671   0.600  0.7479 -1.6745  0.3892
  287SOL     OW 1800   4.981   5.051   1.134 -0.1185  0.6434  0.4806
  287SOL    HW1 1801   5.037   5.060   1.057 -2.7659  0.2430 -1.6508
  287SOL    HW2 1802   4.913   5.118   1.122 -0.7787  0.3665  2.3391
  288SOL     OW 1803   3.847   0.476   1.632 -0.2795 -0.5397 -0.1349
  288SOL    HW1 1804   3.941   0.467   1.620 -0.2667 -0.6562  0.0647
  288SOL    HW2 1805   3.835   0.493   1.725 -0.4347 -0.2528 -0.2058
  289SOL     OW 1806   3.475   3.709   6.330 -0.0906  0.4097 -0.2526
  289SOL    HW1 1807   3.547   3.688   6.270  1.2578  1.3699  0.9596
  289SOL    HW2 1808   3.405   3.739   6.273  1.2539  1.5933 -1.3764
  290SOL     OW 1809   3.677   5.816   4.443 -0.7587  0.5919 -0.2040
  290SOL    HW1 1810   3.641   5.728   4.454 -0.1295  0.1792 -1.3062
  290SOL    HW2 1811   3.673   5.855   4.531  1.4824 -1.5115  0.9413
  291SOL     OW 1812   6.881   4.697   0.686 -0.3098  0.4663 -0.1415
  291SOL    HW1 1813   6.858   4.664   0.600 -3.2773  0.0420  0.6926
  291SOL    HW2 1814   6.974   4.679   0.695  0.4663  1.8897 -3.7796
  292SOL     OW 1815   3.877   4.269   6.920  0.1913 -0.3911 -0.6867
  292SOL    HW1 1816   3.965   4.231   6.926 -0.0345 -0.6959  1.6469
  292SOL    HW2 1817   3.844   4.239   6.835  0.7853 -3.8295  0.1355
  293SOL     OW 1818   2.638   2.571   2.176  0.1407 -0.5421  0.1109
  293SOL    HW1 1819   2.554   2.590   2.134  0.8233  0.3128 -0.9308
  293SOL    HW2 1820   2.642   2.475   2.178 -0.7049 -0.5960 -0.1512
  294SOL     OW 1821   5.745   2.321   2.984 -0.5754 -0.4376  0.4353
  294SOL    HW1 1822   5.717   2.360   2.902  0.0423 -0.5810  0.1555
  294SOL    HW2 1823   5.800   2.248   2.959 -0.5011 -0.5733  0.9748
  295SOL     OW 1824   2.643   0.230   2.043 -0.1090 -0.0431  0.3666
  295SOL    HW1 1825   2.604   0.175   1.974  1.4294 -0.8205  0.0823
  295SOL    HW2 1826   2.589   0.213   2.120 -0.4639 -0.9294 -0.0634
  296SOL     OW 1827   4.799   2.080   6.559  0.2653  0.4548 -0.4110
  296SOL    HW1 1828   4.864   2.012   6.543  1.3924  1.7284 -1.6760
  296SOL    HW2 1829   4.731   2.064   6.494 -1.3445 -1.5664  1.6639
  297SOL     OW 1830   4.420   3.424   2.734  0.0691  0.1127 -0.2381
  297SOL    HW1 1831   4.472   3.368   2.676 -1.3118 -0.1110 -1.3307
  297SOL    HW2 1832   4.483   3.483   2.774  1.5311 -1.8548  0.5520
  298SOL     OW 1833   4.543   2.097   7.011  0.1244 -0.4587  0.0813
  298SOL    HW1 1834   4.469   2.036   7.013  0.3022 -0.7063 -0.4438
  298SOL    HW2 1835   4.504   2.184   7.020 -0.1543 -0.6400  0.6018
  299SOL     OW 1836   2.032   3.792   4.002  0.2352  0.3072  0.0937
  299SOL    HW1 1837   2.037   3.887   4.001 -1.4814  0.4253 -0.6574
  299SOL    HW2 1838   1.945   3.772   4.035 -0.3798 -0.9081 -2.0378
  300SOL     OW 1839   5.092   6.854   2.685  0.5112  0.2713 -0.7258
  300SOL    HW1 1840   5.145   6.901   2.621 -0.2354  0.8029 -0.9689
  300SOL    HW2 1841   5.065   6.774   2.640  0.9491  0.0884 -0.6648
  301SOL     OW 1842   1.442   0.022   0.581  0.3408 -0.0144 -0.2184
  301SOL    HW1 1843   1.509   0.064   0.526  2.1750 -0.9296  1.1729
  301SOL    HW2 1844   1.407   0.093   0.635  1.5236  0.2136  0.2845
  302SOL     OW 1845   0.497   7.150   5.997 -0.0399  0.2575  0.2799
  302SOL    HW1 1846   0.492   7.056   6.015 -2.6460 -0.0110 -1.3153
  302SOL    HW2 1847   0.458   7.192   6.073 -3.5012 -0.3626 -0.9811
  303SOL     OW 1848   2.354   6.069   5.453  0.1258  0.9749 -0.4193
  303SOL    HW1 1849   2.261   6.055   5.437  0.1620  0.4509 -0.1758
  303SOL    HW2 1850   2.360   6.162   5.476 -0.3915  0.9280 -0.0604
  304SOL     OW 1851   6.762   5.198   1.852  0.0912 -0.6602  0.5681
  304SOL    HW1 1852   6.672   5.218   1.825  0.5499 -1.5521 -1.9197
  304SOL    HW2 1853   6.771   5.104   1.838  1.1512 -0.7613  1.7423
  305SOL     OW 1854   6.036   4.517   1.977 -0.5220 -0.4736 -0.0699
  305SOL    HW1 1855   6.014   4.593   1.924  0.5458 -1.2276 -1.6605
  305SOL    HW2 1856   5.986   4.445   1.939 -2.3680 -0.4600  2.0739
  306SOL     OW 1857   0.263   5.001   7.073 -0.1041 -0.3172 -0.6746
  306SOL    HW1 1858   0.207   5.078   7.060 -1.8679 -1.5851 -0.9383
  306SOL    HW2 1859   0.345   5.024   7.029 -1.0030  0.9508 -1.7891
  307SOL     OW 1860   1.359   7.155   3.420  0.1206 -0.1646 -0.2971
  307SOL    HW1 1861   1.274   7.173   3.378 -1.2833 -0.8565  2.0494
  307SOL    HW2 1862   1.405   7.099   3.358 -1.1911  0.0788 -1.5548
  308SOL     OW 1863   3.323   1.218   5.947 -0.0842 -0.4588  0.3619
  308SOL    HW1 1864   3.259   1.194   6.014  0.6592 -1.2685  0.8039
  308SOL    HW2 1865   3.341   1.136   5.900  2.4033 -0.8606  1.8181
  309SOL     OW 1866   6.517   3.425   5.172  0.2841 -0.0624 -0.6091
  309SOL    HW1 1867   6.457   3.379   5.230 -0.8666 -0.0003 -1.7102
  309SOL    HW2 1868   6.604   3.407   5.209 -0.0246 -3.4425 -1.1708
  310SOL     OW 1869   4.760   6.316   5.279  0.0966 -0.7135 -0.1820
  310SOL    HW1 1870   4.674   6.318   5.320  0.0390 -0.8865 -0.2973
  310SOL    HW2 1871   4.745   6.344   5.189  0.5467  1.9505  0.4832
  311SOL     OW 1872   2.741   2.426   5.652  0.2038 -0.2590 -0.0295
  311SOL    HW1 1873   2.729   2.439   5.746  1.0888 -2.2299  0.3932
  311SOL    HW2 1874   2.656   2.395   5.622  0.4609 -1.5827  0.5319
  312SOL     OW 1875   1.825   2.412   6.056  0.0517  0.1330  0.7027
  312SOL    HW1 1876   1.811   2.464   5.977  0.2839 -1.5892 -0.5261
  312SOL    HW2 1877   1.763   2.448   6.120 -0.6118  1.1241 -0.4626
  313SOL     OW 1878   4.172   7.411   7.352 -0.1347  0.2325 -0.6134
  313SOL    HW1 1879   4.133   7.324   7.360 -1.5838  0.9620  0.8507
  313SOL    HW2 1880   4.207   7.413   7.263  0.8563 -2.1863 -0.3582
  314SOL     OW 1881   5.327   2.463   0.205  0.0172 -0.2237  0.1469
  314SOL    HW1 1882   5.242   2.424   0.187  0.0223 -0.6927  1.0971
  314SOL    HW2 1883   5.364   2.410   0.275  1.9270 -1.2022 -1.4989
  315SOL     OW 1884   0.133   3.083   0.217  0.0707 -0.7066 -0.3058
  315SOL    HW1 1885   0.203   3.018   0.212 -0.9493 -1.9227  0.8938
  315SOL    HW2 1886   0.080   3.057   0.291  1.2119  3.1085  2.1704
  316SOL     OW 1887   6.781   0.699   7.374 -0.1143 -0.5285  0.0568
  316SOL    HW1 1888   6.868   0.709   7.412 -0.2839 -0.3466  0.4024
  316SOL    HW2 1889   6.773   0.771   7.311  0.2420 -0.9447 -0.4725
  317SOL     OW 1890   0.223   5.224   1.762  0.2400  0.1427  0.0472
  317SOL    HW1 1891   0.289   5.289   1.788 -1.2963  1.7629  0.0964
  317SOL    HW2 1892   0.227   5.222   1.667  0.6643 -0.1082  0.0684
  318SOL     OW 1893   3.888   5.974   2.468  0.1289 -0.1952 -0.1238
  318SOL    HW1 1894   3.947   5.992   2.394 -0.4004 -1.4484 -0.8806
  318SOL    HW2 1895   3.860   6.060   2.498  0.2707  0.3352 -1.4636
  319SOL     OW 1896   7.017   5.340   1.729  0.4958 -0.0021 -0.7869
  319SOL    HW1 1897   7.060   5.255   1.736 -1.2843 -1.0038 -1.1854
  319SOL    HW2 1898   6.924   5.320   1.746 -0.0071  1.8061 -1.2708
  320SOL     OW 1899   1.431   0.042   4.024 -0.5483  0.0462  0.0116
  320SOL    HW1 1900   1.423   0.062   3.931 -0.4556 -1.7454 -0.4121
  320SOL    HW2 1901   1.413  -0.052   4.030  1.4566 -0.2950  1.5172
  321SOL     OW 1902   4.465   3.892   7.394  0.5857  0.2357  0.2157
  321SOL    HW1 1903   4.545   3.936   7.421  0.2778  1.4291 -0.7294
  321SOL    HW2 1904   4.446   3.831   7.465  0.8802  1.8380  1.7441
  322SOL     OW 1905   6.790   1.524   5.346  0.1081 -0.5900  0.4817
  322SOL    HW1 1906   6.817   1.596   5.404  1.2182 -1.3607  0.9565
  322SOL    HW2 1907   6.703   1.550   5.315 -1.3413 -0.9393  3.8390
  323SOL     OW 1908   3.323   2.974   1.123 -0.2565 -0.5445  0.0809
  323SOL    HW1 1909   3.356   2.989   1.212  1.8235 -0.6334 -0.6034
  323SOL    HW2 1910   3.310   3.062   1.087 -0.5749 -0.5022  0.3021
  324SOL     OW 1911   4.607   5.114   0.714  0.2225 -0.1075  0.6098
  324SOL    HW1 1912   4.650   5.132   0.797 -0.0991 -0.2511  0.8068
  324SOL    HW2 1913   4.568   5.027   0.725  1.7960 -0.9915 -0.3319
  325SOL     OW 1914   4.004   0.672   4.395 -0.4421 -0.1008 -0.0871
  325SOL    HW1 1915   4.016   0.584   4.431 -0.2016  0.2241  0.6378
  325SOL    HW2 1916   3.923   0.703   4.435  0.2264  0.5578  0.7967
  326SOL     OW 1917   5.608   5.400   0.281 -0.1869  0.4700 -0.7681
  326SOL    HW1 1918   5.632   5.369   0.368  0.7795 -0.6757 -1.4154
  326SOL    HW2 1919   5.535   5.345   0.255  0.9841 -0.7681 -1.5728
  327SOL     OW 1920   5.839   7.309   3.356  0.0054 -0.1112 -0.4239
  327SOL    HW1 1921   5.845   7.401   3.330 -2.9786  0.2007 -0.3886
  327SOL    HW2 1922   5.861   7.260   3.276  0.7955  0.6124 -0.6672
  328SOL     OW 1923   3.069   1.299   2.586 -0.3949 -0.3258  0.2404
  328SOL    HW1 1924   3.103   1.366   2.646 -0.7641 -0.0072  0.0972
  328SOL    HW2 1925   3.147   1.256   2.551 -0.1621 -0.1020  0.4855
  329SOL     OW 1926   3.356   4.505   6.334 -0.0415  0.6301  0.0372
  329SOL    HW1 1927   3.421   4.437   6.316 -0.2939  0.4501 -0.2109
  329SOL    HW2 1928   3.406   4.577   6.372  0.4835  0.9022 -1.1245
  330SOL     OW 1929   5.041   1.177   5.315 -0.6055 -1.0221 -0.3599
  330SOL    HW1 1930   5.098   1.100   5.310  0.1236 -0.5477  0.3006
  330SOL    HW2 1931   4.993   1.177   5.233 -0.1872 -1.8600 -0.6154
  331SOL     OW 1932   2.806   2.568   4.979 -1.0188  0.1462  0.8165
  331SOL    HW1 1933   2.785   2.498   5.041  1.7868 -1.0932  0.5405
  331SOL    HW2 1934   2.779   2.535   4.894  0.4007 -0.7467  0.6716
  332SOL     OW 1935   0.426   6.507   3.057 -0.3593  0.0650  0.4577
  332SOL    HW1 1936   0.469   6.492   2.973  0.0736 -2.6398  1.0539
  332SOL    HW2 1937   0.496   6.537   3.115 -0.0803 -0.6031  0.4746
  333SOL     OW 1938   3.578   4.522   3.857 -0.4112 -0.0500 -0.2426
  333SOL    HW1 1939   3.497   4.511   3.808 -0.2339  0.1616 -0.5850
  333SOL    HW2 1940   3.636   4.454   3.823 -1.5125 -2.4451  2.3160
  334SOL     OW 1941   3.345   2.749   3.216 -0.7515 -0.8224  0.6748
  334SOL    HW1 1942   3.437   2.732   3.198 -0.7103  1.2729 -1.5948
  334SOL    HW2 1943   3.343   2.838   3.251 -2.0426  0.0722 -1.5048
  335SOL     OW 1944   3.201   3.126   0.659  0.3668  0.5489 -0.5379
  335SOL    HW1 1945   3.153   3.097   0.582 -0.0528  0.3867 -0.2212
  335SOL    HW2 1946   3.160   3.208   0.684  0.2698  0.4256 -0.2833
  336SOL     OW 1947   4.624   1.847   7.118  0.1791  0.3273  0.1944
  336SOL    HW1 1948   4.698   1.798   7.082 -0.3080 -0.1721 -0.1357
  336SOL    HW2 1949   4.610   1.918   7.055 -0.2687 -0.1762 -0.2843
  337SOL     OW 1950   6.034   0.459   2.982  0.5062  0.2092  0.1536
  337SOL    HW1 1951   6.077   0.456   2.896  1.4788 -0.3419  0.6416
  337SOL    HW2 1952   5.993   0.373   2.990 -0.8086  0.7709 -0.3531
  338SOL     OW 1953   0.321   4.573   6.805 -0.6053  0.5950 -0.3844
  338SOL    HW1 1954   0.362   4.634   6.744 -2.8238  1.8510 -0.7328
  338SOL    HW2 1955   0.289   4.501   6.751 -0.1796  0.3612 -0.3241
  339SOL     OW 1956   7.096   3.236   6.530 -0.8088 -0.1355  0.6392
  339SOL    HW1 1957   7.034   3.206   6.597 -1.0179  0.5998  0.7848
  339SOL    HW2 1958   7.042   3.254   6.453 -0.5021 -1.4908  0.0846
  340SOL     OW 1959   3.953   2.781   2.944 -0.0247 -0.1119 -0.2054
  340SOL    HW1 1960   3.959   2.816   3.033  1.2207 -0.3488 -0.1716
  340SOL    HW2 1961   4.044   2.760   2.921 -0.1792  0.9828 -1.9622
  341SOL     OW 1962   0.820   4.891   7.415  0.0922  0.1223 -0.0147
  341SOL    HW1 1963   0.782   4.951   7.351 -1.6319 -1.4539 -0.5601
  341SOL    HW2 1964   0.911   4.918   7.422 -0.3148  1.9562 -1.2044
  342SOL     OW 1965   6.876   1.367   1.074 -0.2400  0.4649 -0.2482
  342SOL    HW1 1966   6.960   1.321   1.081 -0.5841 -0.2194 -0.5508
  342SOL    HW2 1967   6.819   1.322   1.136 -0.1471  1.4952  0.6179
  343SOL     OW 1968   5.043   2.091   5.331 -1.0558 -0.2190  0.1308
  343SOL    HW1 1969   5.107   2.161   5.320 -1.0622 -0.0379  1.1746
  343SOL    HW2 1970   4.999   2.085   5.246  1.5196 -1.5595 -1.2286
  344SOL     OW 1971   2.045   5.135   7.050  0.1206 -0.2700  0.9940
  344SOL    HW1 1972   2.071   5.092   7.131 -0.4892 -2.6341  0.0169
  344SOL    HW2 1973   2.113   5.110   6.987  1.1194  2.3300  0.9203
  345SOL     OW 1974   4.833   6.512   7.366  0.6620  0.5183  0.3248
  345SOL    HW1 1975   4.823   6.444   7.433 -0.2757 -1.0491 -1.3155
  345SOL    HW2 1976   4.927   6.512   7.346  0.5606 -1.0415 -0.3269
  346SOL     OW 1977   6.578   0.604   6.642 -0.1643 -0.0255 -0.1041
  346SOL    HW1 1978   6.490   0.613   6.679 -0.6113  1.4610 -1.4322
  346SOL    HW2 1979   6.589   0.510   6.629 -1.3913 -0.2626  0.4738
  347SOL     OW 1980   3.799   2.658   1.210  0.3593 -0.5229 -0.9266
  347SOL    HW1 1981   3.714   2.627   1.242  0.8650 -1.6180 -0.5795
  347SOL    HW2 1982   3.835   2.708   1.284  0.2110 -0.4277 -0.9173
  348SOL     OW 1983   4.515   0.827   4.260  0.0094  0.6631 -0.4832
  348SOL    HW1 1984   4.423   0.833   4.233  0.4489  2.0882 -1.8159
  348SOL    HW2 1985   4.555   0.768   4.195  0.2159  0.7879 -0.4712
  349SOL     OW 1986   4.066   5.395   5.253  0.0071 -0.1289 -0.2938
  349SOL    HW1 1987   3.989   5.451   5.258 -0.5815 -0.7755 -1.6988
  349SOL    HW2 1988   4.103   5.412   5.166  2.1515  1.0231  0.7344
  350SOL     OW 1989   6.337   7.188   1.568 -0.4327  0.0713 -0.3907
  350SOL    HW1 1990   6.288   7.241   1.506 -1.0487 -0.8315 -0.6991
  350SOL    HW2 1991   6.271   7.136   1.614  0.0880  0.0917  0.4191
  351SOL     OW 1992   5.514   2.461   2.501 -0.1425 -0.2552  0.5479
  351SOL    HW1 1993   5.453   2.395   2.536 -0.4632  0.0554  0.5764
  351SOL    HW2 1994   5.458   2.532   2.472  0.1372 -0.3861 -0.3486
  352SOL     OW 1995   0.211   3.184   1.742  0.0790 -0.1476  0.4437
  352SOL    HW1 1996   0.266   3.255   1.709  1.0058  0.6263  3.3395
  352SOL    HW2 1997   0.139   3.229   1.787 -0.3586 -1.0976  0.7223
  353SOL     OW 1998   6.242   4.028   5.626 -0.4191  0.8786  0.3045
  353SOL    HW1 1999   6.153   4.061   5.643 -0.2281  1.2774  0.5351
  353SOL    HW2 2000   6.293   4.058   5.701 -0.2416  0.0543  0.5232
  354SOL     OW 2001   2.357   4.353   0.997  0.2275  0.3995 -0.3189
  354SOL    HW1 2002   2.433   4.399   1.034  1.8784 -3.3919  1.5308
  354SOL    HW2 2003   2.367   4.363   0.902  1.0253  2.8779 -0.0366
  355SOL     OW 2004   6.676   5.281   3.096  0.3288 -0.1130 -0.1973
  355SOL    HW1 2005   6.599   5.267   3.040 -0.4603  0.9699  0.5927
  355SOL    HW2 2006   6.710   5.366   3.069  2.8540 -1.6306 -2.3422
  356SOL     OW 2007   3.231   6.487   1.060  0.1284 -0.2238 -0.5551
  356SOL    HW1 2008   3.182   6.560   1.021  0.5639 -0.0651 -0.8151
  356SOL    HW2 2009   3.176   6.410   1.043 -0.1258 -0.0206 -0.6707
  357SOL     OW 2010   2.749   3.565   5.630 -0.2474  0.2864 -0.0354
  357SOL    HW1 2011   2.670   3.515   5.610  0.0499  0.2758 -1.2455
  357SOL    HW2 2012   2.799   3.565   5.548  0.8540  0.5737  0.6152
  358SOL     OW 2013   3.584   3.549   6.924 -0.4866  0.3908 -0.2216
  358SOL    HW1 2014   3.505   3.510   6.885 -0.9822  1.0293  0.1197
  358SOL    HW2 2015   3.558   3.639   6.945 -0.6720 -0.2353  2.6834
  359SOL     OW 2016   5.674   6.918   3.980 -0.2101 -0.1807  0.3698
  359SOL    HW1 2017   5.636   6.946   4.063  1.4617 -1.4701  1.6618
  359SOL    HW2 2018   5.685   6.998   3.930 -2.4089  0.4884  0.8492
  360SOL     OW 2019   2.627   3.595   6.068 -0.1820 -0.2413  0.0283
  360SOL    HW1 2020   2.629   3.499   6.061  3.0685 -0.2703 -0.0922
  360SOL    HW2 2021   2.659   3.613   6.157  0.3474  0.7246 -0.3437
  361SOL     OW 2022   0.177   4.070   2.836  0.0108 -0.3713  0.1241
  361SOL    HW1 2023   0.253   4.018   2.810 -0.2195 -0.5100 -0.2810
  361SOL    HW2 2024   0.199   4.160   2.810  0.5472 -0.1913  1.1197
  362SOL     OW 2025   2.628   1.736   0.212 -1.1093 -0.3620  0.2499
  362SOL    HW1 2026   2.677   1.663   0.175 -1.1025 -0.6434  0.8005
  362SOL    HW2 2027   2.658   1.742   0.303 -1.6153 -0.1206  0.4082
  363SOL     OW 2028   0.683   7.010   5.715 -0.2641 -0.3561  0.2369
  363SOL    HW1 2029   0.723   7.081   5.764  0.8500  0.3156 -1.5412
  363SOL    HW2 2030   0.589   7.022   5.729 -0.1126  1.5013 -0.0308
  364SOL     OW 2031   4.298   1.360   7.016 -0.2872 -0.5533 -0.4723
  364SOL    HW1 2032   4.247   1.440   7.029  1.3393  0.3184  1.0256
  364SOL    HW2 2033   4.389   1.390   7.014  0.2494 -2.0374 -3.0109
  365SOL     OW 2034   3.663   6.309   1.871 -0.1486 -0.3722  0.2436
  365SOL    HW1 2035   3.655   6.287   1.778  1.2896 -0.5926  0.1569
  365SOL    HW2 2036   3.657   6.225   1.917 -1.0868 -0.2423  0.3903
  366SOL     OW 2037   6.366   6.248   6.191 -0.1144  0.0400 -0.1862
  366SOL    HW1 2038   6.450   6.209   6.214 -0.7707 -0.8082  0.8783
  366SOL    HW2 2039   6.331   6.191   6.123  0.4747  0.8105 -1.1598
  367SOL     OW 2040   4.899   1.333   3.337  0.5099  0.1408 -0.2604
  367SOL    HW1 2041   4.846   1.366   3.265 -0.1663 -0.5869 -0.1152
  367SOL    HW2 2042   4.866   1.244   3.352  1.4140 -0.1344  0.1879
  368SOL     OW 2043   0.042   4.685   5.314 -0.6486 -0.2388 -0.7577
  368SOL    HW1 2044   0.112   4.744   5.344 -0.1437 -1.6730  1.0334
  368SOL    HW2 2045   0.066   4.664   5.224  1.9650 -1.6374  0.1669
  369SOL     OW 2046   4.635   0.680   4.955  0.8468  0.1604  0.2836
  369SOL    HW1 2047   4.584   0.631   5.019  0.2094 -0.3420 -0.5798
  369SOL    HW2 2048   4.686   0.741   5.006  0.0089  0.0824  1.2371
  370SOL     OW 2049   2.513   3.225   4.606 -0.0743  0.0113 -0.1960
  370SOL    HW1 2050   2.465   3.291   4.656  0.2073  0.4342 -0.4870
  370SOL    HW2 2051   2.529   3.265   4.521 -0.4414 -0.6623 -0.5926
  371SOL     OW 2052   2.736   0.811   5.193  0.7113  0.3901  0.2068
  371SOL    HW1 2053   2.757   0.762   5.114 -0.0145  2.1883 -1.1692
  371SOL    HW2 2054   2.765   0.754   5.265  0.6985 -1.6346 -1.2968
  372SOL     OW 2055   5.480   0.505   0.212  0.1192  0.2714 -0.1993
  372SOL    HW1 2056   5.498   0.598   0.221  0.5017  0.1170  0.7329
  372SOL    HW2 2057   5.500   0.485   0.120  1.3735  0.8242 -0.0592
  373SOL     OW 2058   2.178   3.701   5.157  0.5772 -0.3808  0.5527
  373SOL    HW1 2059   2.122   3.756   5.103  0.8137  0.9605  1.6367
  373SOL    HW2 2060   2.117   3.640   5.199  0.4062 -1.5174 -1.2535
  374SOL     OW 2061   4.178   0.513   4.906 -0.0446  0.1276  0.0038
  374SOL    HW1 2062   4.233   0.438   4.928  0.5894  0.7801  0.7395
  374SOL    HW2 2063   4.222   0.588   4.947 -0.5891  0.9224 -0.8078
  375SOL     OW 2064   5.833   7.288   5.655 -0.0170 -0.2828 -0.0929
  375SOL    HW1 2065   5.799   7.233   5.726  1.2178  1.6706  2.1877
  375SOL    HW2 2066   5.755   7.322   5.611 -0.8233 -1.7586  0.1512
  376SOL     OW 2067   3.503   0.364   5.831  0.5951  0.6227 -0.1256
  376SOL    HW1 2068   3.553   0.431   5.878  0.2521  0.7207  0.1067
  376SOL    HW2 2069   3.501   0.289   5.891 -1.2067  1.2925  0.7436
  377SOL     OW 2070   3.095   4.528   0.001 -0.0415 -0.1919  0.4127
  377SOL    HW1 2071   3.135   4.465   0.061 -0.4576 -0.3395  0.5322
  377SOL    HW2 2072   3.157   4.601   0.000  1.5246 -1.4397 -1.3463
  378SOL     OW 2073   6.002   4.814   6.506  0.0672 -0.2939  1.0136
  378SOL    HW1 2074   6.083   4.845   6.546  0.8026 -0.8833  0.0277
  378SOL    HW2 2075   5.962   4.892   6.468 -0.0590  0.0698  1.8569
  379SOL     OW 2076   0.456   1.099   0.241  0.0366 -0.4318 -0.0514
  379SOL    HW1 2077   0.473   1.011   0.206  1.3795  0.1790 -1.0299
  379SOL    HW2 2078   0.504   1.157   0.182 -1.6951  1.0598 -0.0428
  380SOL     OW 2079   1.781   5.471   5.394 -0.5340 -0.0997 -0.2414
  380SOL    HW1 2080   1.825   5.505   5.316  1.2681 -0.8419  0.4023
  380SOL    HW2 2081   1.696   5.514   5.394  0.1377  1.3197 -1.6118
  381SOL     OW 2082   7.361   6.464   2.357  0.0774  0.0697  0.1350
  381SOL    HW1 2083   7.322   6.502   2.435  0.9209 -2.1709  1.7337
  381SOL    HW2 2084   7.294   6.405   2.322  0.4372 -0.4671  0.3448
  382SOL     OW 2085   3.854   5.180   0.910  0.0687  0.7476 -0.2462
  382SOL    HW1 2086   3.782   5.157   0.969 -0.1050  0.8809 -0.4054
  382SOL    HW2 2087   3.925   5.120   0.934 -0.9127 -1.1197 -1.7493
  383SOL     OW 2088   1.496   0.934   3.388  0.2567  0.1688  0.1400
  383SOL    HW1 2089   1.563   0.993   3.354 -0.4767  0.3789 -0.9908
  383SOL    HW2 2090   1.543   0.877   3.449  1.9100 -1.0035 -2.0575
  384SOL     OW 2091   5.370   1.750   3.383 -0.1746  0.4812  0.1969
  384SOL    HW1 2092   5.445   1.785   3.333  0.7971  1.8547  2.4702
  384SOL    HW2 2093   5.403   1.669   3.422 -0.8911 -0.5148 -1.1602
  385SOL     OW 2094   1.399   5.124   5.289  0.2449 -0.0233 -0.4603
  385SOL    HW1 2095   1.367   5.035   5.273 -1.5851  0.4239  0.4660
  385SOL    HW2 2096   1.463   5.115   5.359 -2.6686 -0.2797  2.3868
  386SOL     OW 2097   5.021   5.087   1.592 -0.3616 -0.1543 -0.0734
  386SOL    HW1 2098   4.970   5.006   1.594 -2.3657  0.9314 -2.1431
  386SOL    HW2 2099   5.077   5.082   1.670 -0.7421 -3.2627  0.1433
  387SOL     OW 2100   2.955   1.312   4.588  0.2772  0.0180  0.5997
  387SOL    HW1 2101   2.918   1.322   4.676  0.6111 -0.1923  0.7671
  387SOL    HW2 2102   2.890   1.260   4.540 -0.0287  0.3574  0.6412
  388SOL     OW 2103   2.527   0.218   4.906 -0.1486  0.4694  0.2930
  388SOL    HW1 2104   2.437   0.236   4.933 -0.9795 -1.0745 -1.2223
  388SOL    HW2 2105   2.578   0.221   4.987 -1.5608  1.3239  1.1883
  389SOL     OW 2106   5.849   1.959   4.635 -0.1755 -0.1087 -0.6069
  389SOL    HW1 2107   5.900   1.943   4.714 -0.5290 -0.3792 -0.4295
  389SOL    HW2 2108   5.761   1.977   4.668 -0.0354  1.1374 -0.8580
  390SOL     OW 2109   6.902   3.944   3.825  0.1019 -0.5573  0.8921
  390SOL    HW1 2110   6.940   3.867   3.866 -2.5233 -2.0279  0.7442
  390SOL    HW2 2111   6.848   3.984   3.893  0.2439  0.3192  0.5160
  391SOL     OW 2112   6.502   3.146   1.104  0.4577 -0.4262  0.0318
  391SOL    HW1 2113   6.407   3.140   1.103  0.4201  0.0853  0.0322
  391SOL    HW2 2114   6.532   3.063   1.068 -0.0015 -0.2947 -0.6762
  392SOL     OW 2115   1.967   4.709   6.801 -0.2613 -0.2091 -0.2852
  392SOL    HW1 2116   1.909   4.762   6.856  0.5844  0.2246  0.2190
  392SOL    HW2 2117   1.919   4.628   6.786 -1.0208  0.1620  0.0618
  393SOL     OW 2118   4.066   3.552   5.866  0.1984  0.2190 -0.5312
  393SOL    HW1 2119   4.128   3.539   5.937 -0.0072  0.5465 -0.2900
  393SOL    HW2 2120   4.033   3.464   5.847 -1.0642  0.3309  0.9791
  394SOL     OW 2121   5.268   3.847   6.904  0.8350 -0.1680 -0.3219
  394SOL    HW1 2122   5.221   3.891   6.975  1.1791  0.5322 -0.5276
  394SOL    HW2 2123   5.268   3.755   6.931 -0.5801 -0.1817 -0.2841
  395SOL     OW 2124   2.213   0.074   2.075 -0.1384 -0.6943 -0.1908
  395SOL    HW1 2125   2.137   0.035   2.119 -0.4180 -1.7310 -1.5116
  395SOL    HW2 2126   2.281   0.008   2.082  1.7249  1.2857  3.4712
  396SOL     OW 2127   2.668   1.482   3.822  0.1592  0.2983 -0.0105
  396SOL    HW1 2128   2.711   1.400   3.797 -1.4642 -0.0982 -1.7252
  396SOL    HW2 2129   2.730   1.550   3.795  0.5396 -0.2944 -0.6655
  397SOL     OW 2130   2.693   3.149   0.758 -0.4198  0.0395 -0.6583
  397SOL    HW1 2131   2.618   3.090   0.769 -0.5484  0.3835  0.3980
  397SOL    HW2 2132   2.725   3.164   0.847 -0.0517  1.1311 -0.9605
  398SOL     OW 2133   6.490   1.628   5.487  0.3051  0.2884  0.3817
  398SOL    HW1 2134   6.526   1.709   5.451 -1.4123  1.2228  0.6784
  398SOL    HW2 2135   6.405   1.618   5.445 -1.3392  0.8765  3.2793
  399SOL     OW 2136   1.202   5.916   4.228  0.0229  0.5245  0.0684
  399SOL    HW1 2137   1.231   5.826   4.214  2.3250  1.1112  0.5242
  399SOL    HW2 2138   1.273   5.969   4.192 -0.1668  2.1362  1.8960
  400SOL     OW 2139   2.510   3.480   2.171  0.5132 -0.0988 -0.4485
  400SOL    HW1 2140   2.591   3.479   2.120  1.6124 -1.9704  1.2071
  400SOL    HW2 2141   2.531   3.532   2.248  0.4299 -1.2260  0.3587
  401SOL     OW 2142   0.031   2.795   4.439 -0.3440 -0.1118 -0.2395
  401SOL    HW1 2143   0.094   2.852   4.394 -0.5033 -0.0088 -0.3365
  401SOL    HW2 2144  -0.053   2.815   4.397 -0.7360  0.9420  0.9908
  402SOL     OW 2145   3.788   0.557   6.940  0.6648  1.2122  0.1903
  402SOL    HW1 2146   3.798   0.513   6.856  1.0865 -0.7650  1.2101
  402SOL    HW2 2147   3.697   0.588   6.940 -1.1381 -3.2597  0.9152
  403SOL     OW 2148   3.076   1.309   3.373 -0.3859 -0.1236 -0.1853
  403SOL    HW1 2149   3.083   1.384   3.315  0.6368  0.8646  1.1601
  403SOL    HW2 2150   2.989   1.272   3.354  0.1060 -0.1497 -2.6410
  404SOL     OW 2151   1.156   5.643   1.319  0.0362  0.4538  0.6046
  404SOL    HW1 2152   1.203   5.709   1.369  0.4589  1.4991 -1.1130
  404SOL    HW2 2153   1.225   5.596   1.271 -0.3125 -0.8782  1.3509
  405SOL     OW 2154   1.359   5.412   5.729  0.5120 -0.2561 -0.7378
  405SOL    HW1 2155   1.407   5.392   5.809 -1.1680  2.3278  1.0804
  405SOL    HW2 2156   1.279   5.359   5.735  1.0176 -1.1241 -1.4612
  406SOL     OW 2157   4.278   2.432   3.883 -0.7090 -0.1100 -0.1983
  406SOL    HW1 2158   4.313   2.442   3.972 -0.6693  2.8017 -0.4552
  406SOL    HW2 2159   4.183   2.431   3.895 -0.6874 -1.3775 -0.0244
  407SOL     OW 2160   1.170   4.833   3.467  0.0820  0.2955  0.1432
  407SOL    HW1 2161   1.173   4.793   3.380 -2.2389 -0.4051  0.3067
  407SOL    HW2 2162   1.151   4.925   3.450 -0.1092  0.2125 -0.1045
  408SOL     OW 2163   2.713   0.111   3.731  0.3071 -0.5107  0.1425
  408SOL    HW1 2164   2.631   0.121   3.684 -0.2343 -0.8559  0.9828
  408SOL    HW2 2165   2.707   0.175   3.802  0.5804 -0.8214  0.4499
  409SOL     OW 2166   4.834   3.154   1.712 -0.2706 -0.4327 -0.1575
  409SOL    HW1 2167   4.790   3.135   1.629 -0.7162 -1.8167  0.3493
  409SOL    HW2 2168   4.925   3.166   1.689 -0.0698 -2.5605 -0.7070
  410SOL     OW 2169   2.149   2.585   4.882  0.3202 -0.7198 -0.3831
  410SOL    HW1 2170   2.139   2.549   4.794  1.2995 -2.4321  0.1437
  410SOL    HW2 2171   2.072   2.640   4.896  0.3886 -0.0371 -2.4584
  411SOL     OW 2172   4.838   4.162   4.389  0.0786  0.1049 -0.3339
  411SOL    HW1 2173   4.765   4.220   4.409  0.8197  0.9901 -0.1421
  411SOL    HW2 2174   4.889   4.159   4.469 -0.4287 -1.5821 -0.0223
  412SOL     OW 2175   6.358   2.109   6.354 -0.0089  0.5900  1.0152
  412SOL    HW1 2176   6.295   2.182   6.361 -2.0300 -0.9669  0.1504
  412SOL    HW2 2177   6.307   2.032   6.378  1.8553 -0.6662  1.0967
  413SOL     OW 2178   3.000   6.176   2.156 -0.0809  0.6324  0.0310
  413SOL    HW1 2179   3.068   6.242   2.146 -0.3351  1.0236  0.7736
  413SOL    HW2 2180   3.012   6.143   2.246 -1.3475  1.2691  0.4527
  414SOL     OW 2181   2.246   3.661   2.386 -0.2443 -0.5626  0.0145
  414SOL    HW1 2182   2.236   3.685   2.293 -1.5321 -0.3818  0.1891
  414SOL    HW2 2183   2.331   3.699   2.411  0.1618 -0.6918 -1.1104
  415SOL     OW 2184   1.507   6.864   6.037  0.1235 -0.4160 -0.1009
  415SOL    HW1 2185   1.424   6.877   6.083 -0.2175  0.3089 -0.8785
  415SOL    HW2 2186   1.521   6.770   6.039  0.5125 -0.3619  2.1295
  416SOL     OW 2187   2.439   2.227   7.336  0.0893 -0.4984  0.1362
  416SOL    HW1 2188   2.390   2.297   7.379 -1.0219 -0.7206 -0.7260
  416SOL    HW2 2189   2.373   2.176   7.290  1.2762  0.3392 -2.7069
  417SOL     OW 2190   0.637   2.209   0.757  0.6784 -0.5099 -0.2295
  417SOL    HW1 2191   0.658   2.274   0.825 -1.3917 -1.2691  1.2553
  417SOL    HW2 2192   0.628   2.261   0.677  1.0351  0.7539  0.5111
  418SOL     OW 2193   3.478   1.713   6.038  0.2689 -0.2250 -0.1244
  418SOL    HW1 2194   3.545   1.651   6.069  1.1229  0.5097 -0.4627
  418SOL    HW2 2195   3.463   1.771   6.113  1.8496  1.1411 -0.8138
  419SOL     OW 2196   2.588   1.814   3.027  0.2004 -0.0578  0.1568
  419SOL    HW1 2197   2.595   1.750   3.098  1.4892  1.1231  1.1554
  419SOL    HW2 2198   2.670   1.807   2.979 -0.5683 -0.6871 -1.1293
  420SOL     OW 2199   2.716   5.642   6.882  0.1016 -0.0125  0.0619
  420SOL    HW1 2200   2.657   5.567   6.871  1.4769 -1.2753  0.8724
  420SOL    HW2 2201   2.755   5.629   6.968  1.8833  0.5301 -0.6144
  421SOL     OW 2202   1.309   3.251   2.511 -0.2765 -0.4058 -0.0075
  421SOL    HW1 2203   1.364   3.314   2.557 -2.0167 -1.7520  4.4677
  421SOL    HW2 2204   1.229   3.299   2.489  0.0290 -0.0739 -0.3884
  422SOL     OW 2205   7.392   5.813   5.945  0.7057 -0.5132 -0.0979
  422SOL    HW1 2206   7.422   5.736   5.993  1.5834  0.4982  1.0732
  422SOL    HW2 2207   7.382   5.880   6.013  1.5945  0.8624 -1.2764
  423SOL     OW 2208   4.378   1.883   6.679  0.4636 -0.3217  0.0874
  423SOL    HW1 2209   4.452   1.908   6.735  0.1484  0.6253  0.1095
  423SOL    HW2 2210   4.301   1.892   6.736  0.2272 -0.1997 -0.2480
  424SOL     OW 2211   0.402   4.559   0.682  0.3358 -0.1328 -0.8737
  424SOL    HW1 2212   0.344   4.492   0.718 -0.5334  1.2346  0.4175
  424SOL    HW2 2213   0.343   4.623   0.642  0.9175  1.1359  0.2037
  425SOL     OW 2214   7.038   1.348   1.365  0.1951  0.3442  0.5036
  425SOL    HW1 2215   7.124   1.373   1.329  0.3780  0.7524  1.2078
  425SOL    HW2 2216   7.015   1.269   1.317 -0.4634  1.8767 -1.9207
  426SOL     OW 2217   3.608   6.153   4.853  0.0596  0.0159  0.2602
  426SOL    HW1 2218   3.592   6.197   4.770 -0.6923 -1.4819 -0.4343
  426SOL    HW2 2219   3.521   6.137   4.889  0.2915 -0.9732  0.4190
  427SOL     OW 2220   3.707   2.424   0.707  0.5207 -0.3625 -0.2155
  427SOL    HW1 2221   3.650   2.375   0.767  0.4457 -1.8587 -1.4519
  427SOL    HW2 2222   3.763   2.477   0.765  0.5418 -1.8337  1.1790
  428SOL     OW 2223   7.009   1.773   3.791  0.5355 -0.0311 -0.2826
  428SOL    HW1 2224   7.082   1.716   3.813  0.8806  0.4643 -0.1195
  428SOL    HW2 2225   6.939   1.747   3.852  0.6461 -0.3659 -0.2987
  429SOL     OW 2226   3.688   1.328   4.560  0.3366 -0.3793  0.0557
  429SOL    HW1 2227   3.734   1.408   4.534  0.8095 -0.1308  1.5490
  429SOL    HW2 2228   3.642   1.300   4.481  1.6421  0.3435 -1.0045
  430SOL     OW 2229   5.410   1.491   3.128  0.6226  0.1689  0.0596
  430SOL    HW1 2230   5.460   1.541   3.063  3.0652 -1.9507  0.1170
  430SOL    HW2 2231   5.473   1.428   3.162 -1.0985 -0.0510  3.1687
  431SOL     OW 2232   0.404   3.030   5.446 -0.6033 -0.4890  0.3323
  431SOL    HW1 2233   0.459   2.959   5.413  0.5497  0.5022  0.0495
  431SOL    HW2 2234   0.328   3.032   5.388  0.4232 -0.0778 -1.0380
  432SOL     OW 2235   5.531   7.158   7.219 -0.3719 -0.3521  0.2061
  432SOL    HW1 2236   5.622   7.180   7.196 -0.5404  1.6933  1.2589
  432SOL    HW2 2237   5.481   7.177   7.140 -0.2495  1.4840  0.5330
  433SOL     OW 2238   0.727   1.635   5.843 -0.5362  0.0228  0.1604
  433SOL    HW1 2239   0.751   1.649   5.751  1.1685 -1.0395  0.3979
  433SOL    HW2 2240   0.676   1.554   5.842  1.4468 -1.3044  0.3537
  434SOL     OW 2241   0.350   1.134   5.187  0.1290  0.1937  0.3774
  434SOL    HW1 2242   0.328   1.041   5.184  0.2070  0.1533  1.0025
  434SOL    HW2 2243   0.435   1.139   5.143 -0.2700  0.0989 -0.4293
  435SOL     OW 2244   6.312   1.862   4.028 -0.1789  0.1787  0.4398
  435SOL    HW1 2245   6.259   1.912   4.090 -1.1082  0.0490 -0.2305
  435SOL    HW2 2246   6.372   1.926   3.991 -0.9410  0.6805  0.0446
  436SOL     OW 2247   0.248   5.614   1.214  0.4029 -0.2709 -0.2388
  436SOL    HW1 2248   0.314   5.553   1.181  0.1266 -1.1429  0.7674
  436SOL    HW2 2249   0.287   5.701   1.202  1.4412 -0.7332 -0.2849
  437SOL     OW 2250   3.399   6.788   6.075  0.0320  0.6698 -0.2367
  437SOL    HW1 2251   3.399   6.694   6.056  0.3583  0.8802 -1.3541
  437SOL    HW2 2252   3.477   6.801   6.128  0.2046  0.3697 -0.4126
  438SOL     OW 2253   3.669   4.974   6.538 -0.4432  0.1240  0.0468
  438SOL    HW1 2254   3.717   5.049   6.505 -1.1833  0.2689 -0.7550
  438SOL    HW2 2255   3.735   4.906   6.551  0.1361  0.7020  0.1374
  439SOL     OW 2256   1.538   6.015   6.887 -0.3666 -0.3091 -0.4943
  439SOL    HW1 2257   1.550   6.091   6.830 -0.1948 -0.0845 -0.1641
  439SOL    HW2 2258   1.514   6.053   6.972  1.5717 -0.5044  0.1994
  440SOL     OW 2259   5.887   7.197   1.165  0.1644  0.2030  0.1450
  440SOL    HW1 2260   5.837   7.205   1.083  1.6610 -0.9912 -0.9415
  440SOL    HW2 2261   5.843   7.256   1.226 -1.8030  0.1239 -1.1190
  441SOL     OW 2262   1.550   2.805   6.354 -0.3130 -0.2084 -0.5574
  441SOL    HW1 2263   1.460   2.835   6.367 -0.0336  0.6975 -0.6145
  441SOL    HW2 2264   1.602   2.865   6.408  0.2584 -0.6846 -0.5766
  442SOL     OW 2265   1.903   2.051   4.503  0.2706 -0.2486 -0.2761
  442SOL    HW1 2266   1.826   2.005   4.537 -0.2158  0.4312 -0.4347
  442SOL    HW2 2267   1.968   2.042   4.572  0.8705 -2.8247 -1.0742
  443SOL     OW 2268   7.005   5.263   1.415  0.2147 -0.3382 -0.4161
  443SOL    HW1 2269   6.993   5.358   1.422 -0.1261 -0.3644 -0.6761
  443SOL    HW2 2270   6.919   5.226   1.432  0.4109 -0.6211 -0.0033
  444SOL     OW 2271   5.652   5.144   5.199  0.4093 -0.3083  0.1037
  444SOL    HW1 2272   5.672   5.051   5.191  0.7008 -0.1097 -2.3655
  444SOL    HW2 2273   5.573   5.156   5.146  1.9385  1.2473 -2.0194
  445SOL     OW 2274   0.550   7.119   0.301 -0.0615  0.3661 -0.3211
  445SOL    HW1 2275   0.539   7.104   0.207  0.5273 -0.6134 -0.2510
  445SOL    HW2 2276   0.627   7.067   0.325 -0.8417 -0.2911  0.9019
  446SOL     OW 2277   5.656   2.755   0.572 -0.0450 -0.6077 -0.4015
  446SOL    HW1 2278   5.716   2.747   0.498  1.3291 -3.0190  0.8621
  446SOL    HW2 2279   5.580   2.702   0.548 -0.3110 -0.1109 -0.6894
  447SOL     OW 2280   2.628   1.842   7.032  0.2728  0.0362  0.1105
  447SOL    HW1 2281   2.598   1.752   7.044 -1.1249  0.6709  1.7606
  447SOL    HW2 2282   2.723   1.838   7.044  0.0471 -0.9906  1.9754
  448SOL     OW 2283   3.511   1.109   6.919 -0.4371 -0.3808 -0.0568
  448SOL    HW1 2284   3.558   1.039   6.874  1.0209  1.5276 -1.7422
  448SOL    HW2 2285   3.500   1.078   7.009  1.6494 -2.0678 -0.3057
  449SOL     OW 2286   5.424   6.454   2.938  0.3179  0.3644 -0.0454
  449SOL    HW1 2287   5.404   6.361   2.932 -1.9023  0.7349  0.6948
  449SOL    HW2 2288   5.475   6.472   2.859  0.6183 -1.4297 -0.3055
  450SOL     OW 2289   0.617   4.170   6.078 -0.1539  0.1950  0.0714
  450SOL    HW1 2290   0.639   4.179   6.171 -0.8345  2.2679  0.0649
  450SOL    HW2 2291   0.685   4.113   6.044  1.0044  0.6271  1.5328
  451SOL     OW 2292   7.118   0.445   2.009  0.2377 -0.1689  0.2432
  451SOL    HW1 2293   7.067   0.522   2.034  0.2265  0.0382 -0.4051
  451SOL    HW2 2294   7.123   0.450   1.914  1.2251 -0.3510  0.2805
  452SOL     OW 2295   3.869   2.927   2.036 -0.2801  0.1806 -0.2676
  452SOL    HW1 2296   3.785   2.892   2.006 -0.1108  0.6417 -1.3426
  452SOL    HW2 2297   3.923   2.849   2.050 -0.4053 -0.0682 -1.0834
  453SOL     OW 2298   5.934   3.793   0.770 -0.3229 -0.2857  0.3259
  453SOL    HW1 2299   5.997   3.839   0.715  0.7255  0.8923  2.4046
  453SOL    HW2 2300   5.853   3.844   0.763  0.8811  2.2125  2.7719
  454SOL     OW 2301   7.290   7.187   2.879 -0.3946  0.0616  0.1292
  454SOL    HW1 2302   7.232   7.262   2.894 -2.3453 -1.1794 -0.8923
  454SOL    HW2 2303   7.235   7.122   2.836  1.7777 -1.1866 -0.9359
  455SOL     OW 2304   5.520   4.423   5.621  0.2063 -0.0700  0.0943
  455SOL    HW1 2305   5.503   4.329   5.613  1.7418 -0.4083  0.3721
  455SOL    HW2 2306   5.544   4.435   5.713  0.4996  0.5077 -0.0528
  456SOL     OW 2307   1.054   0.171   7.424 -0.7670 -0.1672  0.1962
  456SOL    HW1 2308   1.015   0.084   7.423  0.2022 -0.6140 -0.3536
  456SOL    HW2 2309   1.066   0.193   7.332 -0.5600  0.3351  0.3410
  457SOL     OW 2310   7.032   4.428   7.048 -0.6061 -0.2052  0.2253
  457SOL    HW1 2311   7.079   4.440   7.130  0.0356  1.0307 -0.2996
  457SOL    HW2 2312   7.096   4.385   6.990 -0.8623 -0.5340  0.1826
  458SOL     OW 2313   5.067   1.782   1.771  0.2574 -0.8757  0.0071
  458SOL    HW1 2314   5.007   1.730   1.824 -0.6755 -0.5100 -0.6588
  458SOL    HW2 2315   5.150   1.735   1.776 -0.2168 -1.6862  0.5140
  459SOL     OW 2316   2.470   3.059   6.553 -0.3894 -0.1600 -0.4019
  459SOL    HW1 2317   2.537   3.110   6.508 -1.4998 -0.5096 -2.6098
  459SOL    HW2 2318   2.391   3.114   6.547 -1.4420 -1.7444 -2.2417
  460SOL     OW 2319   1.238   6.044   5.551 -0.1810 -0.2868 -0.1735
  460SOL    HW1 2320   1.234   5.954   5.583  0.3608 -0.5286 -0.7765
  460SOL    HW2 2321   1.272   6.094   5.626  0.5905 -0.7693 -0.1911
  461SOL     OW 2322   5.192   1.446   0.406 -0.1135  0.0149  0.3130
  461SOL    HW1 2323   5.167   1.523   0.455  1.2628  0.8628 -0.2507
  461SOL    HW2 2324   5.279   1.466   0.372 -0.2464 -1.2749 -0.9104
  462SOL     OW 2325   5.605   3.407   6.284 -0.5181 -0.0546 -0.4670
  462SOL    HW1 2326   5.660   3.486   6.278 -1.0209  0.3298 -0.1324
  462SOL    HW2 2327   5.602   3.373   6.195 -1.4183  1.0888 -0.9018
  463SOL     OW 2328   7.093   2.183   5.329 -0.4260 -0.3338  0.1575
  463SOL    HW1 2329   7.019   2.244   5.321 -0.8839 -0.9433 -0.3789
  463SOL    HW2 2330   7.083   2.123   5.255  1.7888  0.8270 -1.1881
  464SOL     OW 2331   4.218   2.187   3.235 -0.7769 -0.3193  0.1399
  464SOL    HW1 2332   4.283   2.190   3.306 -2.1859  1.8808  1.4379
  464SOL    HW2 2333   4.138   2.156   3.278 -1.1603 -0.8673 -0.9479
  465SOL     OW 2334   1.708   4.415   6.239  0.8442 -0.1635 -0.3157
  465SOL    HW1 2335   1.742   4.430   6.327 -1.5552  2.0316  0.3585
  465SOL    HW2 2336   1.754   4.478   6.184  1.4286 -0.6713 -0.4252
  466SOL     OW 2337   5.828   1.191   0.710  0.0446  0.0112 -0.3135
  466SOL    HW1 2338   5.755   1.221   0.657  0.8685 -1.2531 -2.2842
  466SOL    HW2 2339   5.788   1.153   0.788 -1.4790 -1.2506 -1.6370
  467SOL     OW 2340   6.428   0.726   4.973 -0.4720  0.3559 -0.3240
  467SOL    HW1 2341   6.363   0.792   4.952 -0.4562  0.8154  0.9806
  467SOL    HW2 2342   6.512   0.768   4.953 -0.4439  0.8852  0.8232
  468SOL     OW 2343   1.899   3.258   6.671 -0.3553 -0.2874  0.7487
  468SOL    HW1 2344   1.912   3.330   6.732 -2.4629  0.4713  0.4086
  468SOL    HW2 2345   1.816   3.218   6.698 -0.2595 -1.2691 -0.3239
  469SOL     OW 2346   4.612   0.065   4.112 -0.0914  0.1042  0.3827
  469SOL    HW1 2347   4.618  -0.016   4.163  1.0122  0.5712  1.0288
  469SOL    HW2 2348   4.536   0.111   4.148  0.4323  0.2422  1.3422
  470SOL     OW 2349   2.236   7.171   3.440  0.0272  0.7169  1.0511
  470SOL    HW1 2350   2.272   7.084   3.422 -0.8806  0.3308  1.0518
  470SOL    HW2 2351   2.303   7.232   3.409  0.1334  0.0253 -0.1455
  471SOL     OW 2352   3.357   5.522   5.519 -0.2713  0.2759  0.1579
  471SOL    HW1 2353   3.366   5.598   5.462 -2.2754  0.1535 -0.3913
  471SOL    HW2 2354   3.269   5.529   5.555  0.9198  0.3554  3.3375
  472SOL     OW 2355   2.010   0.687   6.132  0.5063  0.4882 -0.1441
  472SOL    HW1 2356   2.066   0.615   6.161  0.9275  0.7042 -0.4153
  472SOL    HW2 2357   2.008   0.679   6.036 -0.0397  0.3977 -0.1273
  473SOL     OW 2358   4.863   0.375   5.375 -0.3090  0.1658  0.5025
  473SOL    HW1 2359   4.778   0.363   5.333 -1.1868  0.5928  2.1127
  473SOL    HW2 2360   4.863   0.314   5.449  0.1472  1.2600  1.4322
  474SOL     OW 2361   4.208   1.017   6.524  0.0742  0.1203  0.5784
  474SOL    HW1 2362   4.155   0.976   6.592 -0.0869  0.0731  0.4258
  474SOL    HW2 2363   4.181   0.974   6.443  0.7526 -0.3119  0.5710
  475SOL     OW 2364   3.482   3.431   6.638  0.2164 -0.5740 -0.1172
  475SOL    HW1 2365   3.456   3.381   6.561  0.3907 -2.5029  0.9860
  475SOL    HW2 2366   3.577   3.417   6.645  0.4450  0.7937 -0.3532
  476SOL     OW 2367   3.527   4.299   6.251  0.0229  0.4477 -0.2586
  476SOL    HW1 2368   3.510   4.208   6.276  0.3556  0.3116 -0.5266
  476SOL    HW2 2369   3.497   4.305   6.161 -4.3372  1.7952  1.0260
  477SOL     OW 2370   3.121   2.072   4.689 -0.1589 -0.4487  0.3950
  477SOL    HW1 2371   3.158   1.996   4.733 -0.0785  0.2828  1.6345
  477SOL    HW2 2372   3.087   2.126   4.760 -2.0812 -0.2908 -0.5819
  478SOL     OW 2373   3.456   0.495   0.289 -0.1432  0.1750  0.2850
  478SOL    HW1 2374   3.400   0.468   0.362 -0.8968 -1.1091 -0.7317
  478SOL    HW2 2375   3.400   0.553   0.237  0.1601  0.5288  0.3507
  479SOL     OW 2376   2.675   4.622   5.214 -0.0798 -0.8274 -0.6811
  479SOL    HW1 2377   2.761   4.627   5.255 -1.5923 -0.8541  2.8353
  479SOL    HW2 2378   2.662   4.709   5.176  1.4303 -0.8119 -1.2199
  480SOL     OW 2379   6.742   1.451   5.013  0.2219 -0.6504  0.0792
  480SOL    HW1 2380   6.801   1.380   4.987  0.8029 -0.2577  0.2987
  480SOL    HW2 2381   6.744   1.450   5.109  0.9488  0.2297  0.0911
  481SOL     OW 2382   0.528   7.031   6.877  0.4809  0.9327  0.6837
  481SOL    HW1 2383   0.531   6.996   6.788 -1.8739  0.2248  0.8032
  481SOL    HW2 2384   0.613   7.010   6.915  1.3254  0.7731 -1.2257
  482SOL     OW 2385   1.785   2.505   1.838 -0.3590  0.7143  0.2592
  482SOL    HW1 2386   1.754   2.467   1.920 -0.3114  1.0859  0.4555
  482SOL    HW2 2387   1.820   2.591   1.864  0.9406  0.2610  0.0683
  483SOL     OW 2388   2.773   2.282   4.446  0.2728 -0.0206  0.2095
  483SOL    HW1 2389   2.680   2.299   4.430  0.3870  3.4359  2.1036
  483SOL    HW2 2390   2.777   2.259   4.539  1.1852 -2.3591 -0.3528
  484SOL     OW 2391   5.033   0.903   4.371  0.0342  0.2118  0.5286
  484SOL    HW1 2392   4.964   0.909   4.437 -1.6990 -0.6867 -1.0789
  484SOL    HW2 2393   4.998   0.950   4.296  1.3213 -0.0126 -0.2496
  485SOL     OW 2394   1.973   5.999   4.624 -0.6904 -0.9193  0.0962
  485SOL    HW1 2395   1.982   5.944   4.702 -2.2427 -0.5340  0.5913
  485SOL    HW2 2396   1.879   6.001   4.608 -0.4336 -0.5984 -1.5258
  486SOL     OW 2397   0.031   3.148   6.499  0.3155  0.2138 -0.2073
  486SOL    HW1 2398  -0.019   3.177   6.423 -0.3114 -2.2116 -0.8204
  486SOL    HW2 2399   0.108   3.205   6.501  1.4150 -0.8548 -3.9153
  487SOL     OW 2400   4.335   3.273   5.389 -0.5017 -0.7446  0.1392
  487SOL    HW1 2401   4.407   3.329   5.360 -0.1986 -0.8766  0.6164
  487SOL    HW2 2402   4.273   3.333   5.429 -0.7949 -0.5956 -0.5409
  488SOL     OW 2403   4.217   4.148   0.027 -0.2819  0.4772 -0.6701
  488SOL    HW1 2404   4.203   4.241   0.011 -0.3161  0.1836 -2.5850
  488SOL    HW2 2405   4.259   4.116  -0.053  0.0083 -1.0963  0.0737
  489SOL     OW 2406   3.064   5.848   4.581 -0.1135  0.5515 -0.0108
  489SOL    HW1 2407   3.060   5.927   4.526  1.7272  0.6170 -0.1041
  489SOL    HW2 2408   3.021   5.780   4.529 -2.7854  1.6655  0.5314
  490SOL     OW 2409   6.978   1.286   3.521 -0.2370 -0.4680  0.2207
  490SOL    HW1 2410   6.952   1.316   3.608  0.6697 -0.0132  0.3474
  490SOL    HW2 2411   6.985   1.367   3.470 -1.3491 -0.7738 -0.4532
  491SOL     OW 2412   3.636   3.623   2.689 -0.1394 -0.1518  0.4462
  491SOL    HW1 2413   3.550   3.633   2.731 -0.7539  0.3520 -0.8854
  491SOL    HW2 2414   3.677   3.550   2.736 -1.3995 -0.5589  0.9550
  492SOL     OW 2415   5.338   0.261   6.125  0.1639  0.0038  0.4864
  492SOL    HW1 2416   5.325   0.231   6.035  0.1016 -0.8399  0.7711
  492SOL    HW2 2417   5.389   0.342   6.116  1.3983 -0.8228 -0.2497
  493SOL     OW 2418   4.650   6.110   4.305 -0.4444  0.0616  0.4998
  493SOL    HW1 2419   4.690   6.195   4.284  1.4583 -0.3078  2.3188
  493SOL    HW2 2420   4.600   6.087   4.227 -1.2867  2.9871  0.0580
  494SOL     OW 2421   2.692   2.306   0.728  0.6676  0.5713  0.0266
  494SOL    HW1 2422   2.751   2.289   0.654  0.5149 -0.3472  0.1094
  494SOL    HW2 2423   2.725   2.250   0.798 -0.3138  0.0354  0.0714
  495SOL     OW 2424   4.854   2.824   5.773 -0.0362 -0.1872  0.0456
  495SOL    HW1 2425   4.920   2.855   5.836  0.9040 -2.5309  0.3190
  495SOL    HW2 2426   4.874   2.872   5.692  0.1767  1.1940  0.8742
  496SOL     OW 2427   4.058   2.806   4.294  0.2630  0.1663 -0.4823
  496SOL    HW1 2428   4.077   2.763   4.210  0.5278 -0.4282 -0.1258
  496SOL    HW2 2429   4.042   2.897   4.271  0.3447  0.0136 -1.1809
  497SOL     OW 2430   1.637   6.416   7.102 -0.2666 -0.8748  0.0742
  497SOL    HW1 2431   1.720   6.462   7.115 -0.9871  0.9262 -1.3556
  497SOL    HW2 2432   1.636   6.350   7.171  1.0816  0.8854  1.9065
  498SOL     OW 2433   4.163   6.475   6.690  0.6009 -0.3150 -0.2218
  498SOL    HW1 2434   4.244   6.494   6.737 -0.0081 -0.0604  0.7452
  498SOL    HW2 2435   4.191   6.426   6.613  1.9317  1.8312 -1.1988
  499SOL     OW 2436   5.360   3.834   0.397 -0.0192  0.1645  0.4873
  499SOL    HW1 2437   5.351   3.857   0.489 -1.3117 -1.6673  0.8686
  499SOL    HW2 2438   5.271   3.821   0.366  0.3183  1.7571 -1.3355
  500SOL     OW 2439   5.372   7.412   5.210 -0.7588  0.2282 -0.3884
  500SOL    HW1 2440   5.323   7.369   5.140 -1.3759 -1.3786  0.9532
  500SOL    HW2 2441   5.304   7.447   5.268 -0.3611 -1.0959  0.9399
  501SOL     OW 2442   2.075   5.681   0.188 -0.1996  0.4479  0.2531
  501SOL    HW1 2443   2.169   5.667   0.199 -0.1420  1.1530  0.6908
  501SOL    HW2 2444   2.065   5.776   0.182 -0.9753  0.4395  1.1964
  502SOL     OW 2445   2.495   0.636   1.041 -0.1826  0.3405  0.6573
  502SOL    HW1 2446   2.557   0.694   0.996  2.1546 -1.5695  1.1814
  502SOL    HW2 2447   2.483   0.677   1.127  1.8642 -0.1116  1.2271
  503SOL     OW 2448   1.940   3.759   6.624 -0.0548  0.1543  0.2435
  503SOL    HW1 2449   2.033   3.770   6.643 -0.0399 -1.4849  1.2811
  503SOL    HW2 2450   1.896   3.817   6.687  0.2397  1.8026 -0.9848
  504SOL     OW 2451   6.508   2.349   4.225  0.0523  0.0693  0.2273
  504SOL    HW1 2452   6.602   2.346   4.204  0.2102 -0.3708  0.9444
  504SOL    HW2 2453   6.505   2.380   4.315 -0.2628 -3.1100  1.4419
  505SOL     OW 2454   1.516   5.506   6.756  0.6277  0.2837  0.4952
  505SOL    HW1 2455   1.523   5.591   6.800 -0.1497  1.3926 -1.4294
  505SOL    HW2 2456   1.594   5.501   6.701  1.4247 -0.9547  1.6506
  506SOL     OW 2457   1.009   7.298   5.209  0.0937  0.3305 -0.7461
  506SOL    HW1 2458   1.022   7.242   5.286  1.3045 -0.6486 -1.6188
  506SOL    HW2 2459   1.098   7.320   5.180 -0.2425 -0.8756 -2.9422
  507SOL     OW 2460   5.108   4.216   7.395  0.2077  0.9385 -0.6320
  507SOL    HW1 2461   5.163   4.259   7.330  1.6549 -0.7866 -0.6447
  507SOL    HW2 2462   5.167   4.153   7.438 -1.3875  0.1196  0.4494
  508SOL     OW 2463   3.502   5.580   6.255 -0.0437 -0.2732  0.5748
  508SOL    HW1 2464   3.489   5.515   6.187  0.6013  0.1726  0.0161
  508SOL    HW2 2465   3.581   5.551   6.301  0.7751  0.5720 -0.2475
  509SOL     OW 2466   3.619   7.405   2.557  0.1804 -0.5974 -0.6875
  509SOL    HW1 2467   3.575   7.464   2.496 -1.5535 -0.2973  0.7553
  509SOL    HW2 2468   3.578   7.320   2.541 -0.4884 -0.4598  0.1945
  510SOL     OW 2469   5.795   7.412   6.909  0.0760 -0.3616 -0.8844
  510SOL    HW1 2470   5.720   7.417   6.968 -0.2568  1.3382 -1.4094
  510SOL    HW2 2471   5.758   7.417   6.821  0.7502 -0.3089 -1.1737
  511SOL     OW 2472   6.848   6.254   4.935 -0.1172  0.1852 -0.1323
  511SOL    HW1 2473   6.779   6.295   4.987 -0.2194 -1.9435  1.5563
  511SOL    HW2 2474   6.805   6.228   4.854 -0.6826  0.9907 -0.1034
  512SOL     OW 2475   1.858   3.747   3.716  0.5626 -0.4814  0.2435
  512SOL    HW1 2476   1.879   3.821   3.773  1.6720 -0.3796 -0.2863
  512SOL    HW2 2477   1.845   3.673   3.776  0.4109 -0.0824  0.7064
  513SOL     OW 2478   1.983   4.761   4.380  0.5030 -0.1047 -0.0245
  513SOL    HW1 2479   1.990   4.670   4.350  1.2123 -0.6996  1.7813
  513SOL    HW2 2480   2.071   4.797   4.366 -0.2605  1.0009 -2.6026
  514SOL     OW 2481   6.902   1.734   5.473 -0.7146  0.6596  0.6137
  514SOL    HW1 2482   6.989   1.739   5.434 -0.5092 -1.8100  0.6473
  514SOL    HW2 2483   6.866   1.823   5.462  0.2580  0.7534 -2.9501
  515SOL     OW 2484   3.794   4.685   7.016 -0.1570  0.3981 -0.0003
  515SOL    HW1 2485   3.827   4.762   7.062 -2.5437  0.3867  1.8689
  515SOL    HW2 2486   3.803   4.707   6.923  0.6764  2.2375  0.4803
  516SOL     OW 2487   5.249   2.709   3.145 -0.4153  0.0520 -0.5768
  516SOL    HW1 2488   5.268   2.642   3.210 -1.2180  1.1276  0.8215
  516SOL    HW2 2489   5.169   2.679   3.102 -0.4292 -0.1791 -0.3879
  517SOL     OW 2490   6.602   2.245   3.698  0.0330  0.1493 -0.3508
  517SOL    HW1 2491   6.553   2.258   3.617 -0.2056 -0.8011 -0.3719
  517SOL    HW2 2492   6.552   2.178   3.745 -0.7171  1.7756  1.2988
  518SOL     OW 2493   2.918   6.419   6.261 -0.2700  0.2956  0.3990
  518SOL    HW1 2494   2.955   6.376   6.338 -0.9883 -1.0327  0.0362
  518SOL    HW2 2495   2.834   6.454   6.290  0.0962  1.0487  0.5692
  519SOL     OW 2496   5.305   7.361   0.354 -0.0300 -0.0966 -0.4860
  519SOL    HW1 2497   5.216   7.326   0.345  0.3833 -1.2549 -0.2840
  519SOL    HW2 2498   5.310   7.391   0.445  0.1918 -1.2511 -0.1053
  520SOL     OW 2499   1.910   5.535   4.865 -0.1077 -0.2976  0.4579
  520SOL    HW1 2500   1.838   5.579   4.820  0.7787 -0.9981 -1.8114
  520SOL    HW2 2501   1.983   5.597   4.860 -0.6722  0.8496  3.6502
  521SOL     OW 2502   3.499   6.300   1.408 -0.2185  0.1467 -0.1688
  521SOL    HW1 2503   3.522   6.268   1.495 -0.2937  1.7325  0.4791
  521SOL    HW2 2504   3.583   6.325   1.369 -0.2870  0.6163 -0.0320
  522SOL     OW 2505   7.190   1.184   5.291  0.6164  0.0563  0.0743
  522SOL    HW1 2506   7.134   1.115   5.326  2.4470 -2.0498 -0.9010
  522SOL    HW2 2507   7.273   1.140   5.272  2.2467  2.7680  0.3928
  523SOL     OW 2508   1.648   2.013   5.257 -0.1828 -0.3885  0.0057
  523SOL    HW1 2509   1.609   2.094   5.224 -0.7952 -1.1921 -1.3149
  523SOL    HW2 2510   1.588   1.985   5.327  0.1969  0.4316  0.6830
  524SOL     OW 2511   0.728   0.735   2.976  0.0870  0.2698 -0.3017
  524SOL    HW1 2512   0.750   0.770   3.063 -0.4745  0.4501 -0.2268
  524SOL    HW2 2513   0.635   0.753   2.966  0.1123  0.1023 -0.8793
  525SOL     OW 2514   2.005   4.411   1.574  0.6698 -0.5985 -0.0568
  525SOL    HW1 2515   2.064   4.398   1.648 -0.5115  0.2033  1.0696
  525SOL    HW2 2516   2.061   4.405   1.497  2.9911  3.5593  1.0133
  526SOL     OW 2517   3.656   2.543   2.569 -0.4967 -1.0963 -0.0781
  526SOL    HW1 2518   3.734   2.575   2.615  0.3619 -0.4643 -1.8894
  526SOL    HW2 2519   3.665   2.448   2.569  0.5594 -1.0085 -0.7039
  527SOL     OW 2520   2.439   6.539   4.532  1.0265 -0.3442 -0.2225
  527SOL    HW1 2521   2.430   6.460   4.585  1.2659  0.6597  1.4031
  527SOL    HW2 2522   2.418   6.511   4.443 -0.3535 -1.9052  0.5371
  528SOL     OW 2523   4.351   1.188   5.683  0.2515  0.8357  0.1135
  528SOL    HW1 2524   4.364   1.261   5.622  1.6320  2.6365  2.4109
  528SOL    HW2 2525   4.258   1.192   5.705  0.3462  2.0462  0.3598
  529SOL     OW 2526   0.184   2.840   5.907 -0.1927 -0.4282  0.2374
  529SOL    HW1 2527   0.177   2.819   5.813 -1.8870 -0.3196  0.3105
  529SOL    HW2 2528   0.202   2.756   5.949  0.4196 -0.5018 -0.1537
  530SOL     OW 2529   5.013   6.508   6.092  0.8114 -0.1180  0.0073
  530SOL    HW1 2530   4.925   6.473   6.083  0.1314  1.3797  0.5829
  530SOL    HW2 2531   5.042   6.477   6.178  0.1944  0.7238  0.5352
  531SOL     OW 2532   1.349   2.301   5.639  0.2401  0.1103  0.0886
  531SOL    HW1 2533   1.329   2.209   5.658 -1.0287  0.1957 -0.7416
  531SOL    HW2 2534   1.417   2.324   5.702  2.1070 -1.9965 -1.0116
  532SOL     OW 2535   0.878   6.890   6.339 -0.2293  0.1791 -0.0675
  532SOL    HW1 2536   0.948   6.902   6.274 -0.3853 -0.3165 -0.3353
  532SOL    HW2 2537   0.823   6.820   6.302 -2.0602  1.9712 -0.8948
  533SOL     OW 2538   5.332   4.220   3.613  0.2760  0.2402 -0.6395
  533SOL    HW1 2539   5.325   4.237   3.519 -0.4394 -0.5736 -0.7406
  533SOL    HW2 2540   5.242   4.221   3.645  0.3673 -1.1259 -0.2702
  534SOL     OW 2541   1.908   2.615   6.441 -0.5072  0.0180  0.2388
  534SOL    HW1 2542   1.984   2.672   6.446 -1.2002  0.8983  3.5979
  534SOL    HW2 2543   1.930   2.540   6.496  0.1029 -2.8785 -3.5165
  535SOL     OW 2544   0.429   0.865   2.613  0.0886  0.2402  0.2730
  535SOL    HW1 2545   0.341   0.897   2.591  0.3866  0.3690 -0.8047
  535SOL    HW2 2546   0.488   0.934   2.583  0.5866 -0.0395  0.5872
  536SOL     OW 2547   2.200   5.582   6.455 -0.0089 -0.0717  0.9040
  536SOL    HW1 2548   2.263   5.614   6.520  1.5185  1.0110 -1.0061
  536SOL    HW2 2549   2.239   5.501   6.421  1.9630  1.9636 -2.2312
  537SOL     OW 2550   0.923   2.768   7.189  0.3155 -0.0543 -0.0022
  537SOL    HW1 2551   0.982   2.703   7.227  0.5630  0.8077  1.1205
  537SOL    HW2 2552   0.845   2.718   7.166  0.0990 -0.6114  1.7869
  538SOL     OW 2553   5.161   7.301   0.862  0.2061 -0.6538  0.2247
  538SOL    HW1 2554   5.202   7.215   0.873  0.4908 -0.7013 -1.0810
  538SOL    HW2 2555   5.206   7.340   0.788 -0.9606  0.0042 -0.1638
  539SOL     OW 2556   0.715   2.013   4.318  0.6862 -0.5926 -0.0031
  539SOL    HW1 2557   0.623   2.033   4.300  1.4664  0.9353 -2.9013
  539SOL    HW2 2558   0.724   2.025   4.413 -1.9348 -0.0667  0.2460
  540SOL     OW 2559   4.052   5.476   2.693  1.0836 -0.6594 -0.3289
  540SOL    HW1 2560   4.055   5.383   2.714  1.2721 -0.1151  2.3427
  540SOL    HW2 2561   4.061   5.479   2.597  1.1381 -3.3501 -0.4784
  541SOL     OW 2562   2.645   1.430   3.134 -0.2495 -0.1789 -0.2457
  541SOL    HW1 2563   2.638   1.502   3.196 -0.6468  0.1998 -0.7272
  541SOL    HW2 2564   2.732   1.392   3.152 -0.7669 -0.7292  1.2264
  542SOL     OW 2565   0.372   4.021   6.879  0.5223 -0.2156 -0.7866
  542SOL    HW1 2566   0.320   3.996   6.803  1.6140 -0.2471 -1.5367
  542SOL    HW2 2567   0.443   3.958   6.882  1.5770  0.9328 -0.8985
  543SOL     OW 2568   1.259   2.036   6.525  0.0715  0.1648  0.2375
  543SOL    HW1 2569   1.282   2.113   6.474 -1.0813  0.3465 -0.0397
  543SOL    HW2 2570   1.224   2.071   6.606 -1.9920  0.0186 -0.5383
  544SOL     OW 2571   3.305   0.285   3.527 -0.1380 -0.1354 -0.0240
  544SOL    HW1 2572   3.241   0.224   3.491 -0.5466 -0.9664  1.9783
  544SOL    HW2 2573   3.327   0.342   3.454 -0.3010 -2.1932 -1.7896
  545SOL     OW 2574   0.657   5.836   4.177  0.4348 -0.0962 -0.4019
  545SOL    HW1 2575   0.736   5.865   4.131  1.4801 -1.3435  0.5263
  545SOL    HW2 2576   0.686   5.761   4.229 -1.4513 -0.8436 -0.3368
  546SOL     OW 2577   0.758   6.884   3.519  0.1627  0.3241  0.1463
  546SOL    HW1 2578   0.791   6.802   3.483 -1.0615 -0.3218  0.4347
  546SOL    HW2 2579   0.690   6.912   3.457  0.5309  1.0889  0.0797
  547SOL     OW 2580   6.153   1.951   1.345 -0.0124 -0.1444  0.4439
  547SOL    HW1 2581   6.088   1.889   1.378 -1.1397  0.9436  0.3316
  547SOL    HW2 2582   6.138   1.953   1.250  0.0143  0.3051  0.4466
  548SOL     OW 2583   7.185   4.969   3.681  0.1810  0.2578  0.1896
  548SOL    HW1 2584   7.195   4.925   3.765  1.2273 -0.9543 -0.5413
  548SOL    HW2 2585   7.117   4.919   3.636  0.5250  0.1167 -0.1774
  549SOL     OW 2586   3.595   5.187   2.709 -0.1171  0.0830 -0.1065
  549SOL    HW1 2587   3.565   5.167   2.620 -1.0510  0.4122  0.1311
  549SOL    HW2 2588   3.533   5.252   2.741  2.0184  2.3607 -0.3333
  550SOL     OW 2589   3.702   4.071   4.852  0.1566 -0.2264 -0.3505
  550SOL    HW1 2590   3.656   4.007   4.907  2.6642 -0.8416  1.1979
  550SOL    HW2 2591   3.641   4.089   4.780 -1.1240 -3.5192 -0.2727
  551SOL     OW 2592   6.068   2.949   3.614 -0.1824 -0.4382 -0.4802
  551SOL    HW1 2593   6.092   2.989   3.698  0.8854 -2.3118  0.1495
  551SOL    HW2 2594   6.092   2.857   3.623  0.1281 -0.6567 -2.9151
  552SOL     OW 2595   0.961   3.994   3.897 -0.0784  0.2337  0.9042
  552SOL    HW1 2596   0.898   3.922   3.901 -0.2970  0.4078  0.5901
  552SOL    HW2 2597   0.908   4.073   3.896 -0.0189  0.3489 -1.9576
  553SOL     OW 2598   5.679   5.065   2.247 -0.3577 -0.4882  0.1840
  553SOL    HW1 2599   5.701   5.051   2.339 -1.8401 -0.8266  0.5199
  553SOL    HW2 2600   5.668   4.977   2.211  0.5896 -0.3706 -0.4370
  554SOL     OW 2601   2.932   5.708   2.922  0.1319 -0.0703 -0.2143
  554SOL    HW1 2602   2.877   5.772   2.967  0.2592  0.3250 -0.6129
  554SOL    HW2 2603   3.020   5.743   2.929  0.1415  0.0390 -0.8404
  555SOL     OW 2604   3.138   1.319   0.544  0.0732  0.8299 -0.6217
  555SOL    HW1 2605   3.136   1.351   0.453  0.2737  0.0932 -0.8938
  555SOL    HW2 2606   3.135   1.398   0.597  1.8388  1.3678 -1.2734
  556SOL     OW 2607   1.417   2.324   3.408 -0.0254 -1.0179  0.3235
  556SOL    HW1 2608   1.342   2.302   3.464 -2.0447  2.4536 -0.6906
  556SOL    HW2 2609   1.463   2.394   3.455  0.2934 -0.4836 -0.7437
  557SOL     OW 2610   3.977   6.034   4.263 -0.0120  0.3448  0.5668
  557SOL    HW1 2611   4.011   5.978   4.333  2.1735 -1.6154 -1.7898
  557SOL    HW2 2612   3.890   6.000   4.244  0.3695 -0.7854  0.7497
  558SOL     OW 2613   6.989   0.351   4.384 -0.3071  0.3800 -0.3157
  558SOL    HW1 2614   6.938   0.348   4.303 -1.8539  1.0429  0.5926
  558SOL    HW2 2615   6.960   0.276   4.435 -0.4420  0.8044  0.2452
  559SOL     OW 2616   0.328   3.779   5.177 -0.2936  0.2614 -0.1163
  559SOL    HW1 2617   0.317   3.763   5.084  0.2337  2.4958 -0.6159
  559SOL    HW2 2618   0.422   3.768   5.192 -0.3844 -0.1509  0.1836
  560SOL     OW 2619   4.225   5.936   1.009 -0.1716 -0.6595 -0.0666
  560SOL    HW1 2620   4.243   5.916   1.100  1.6878 -1.4518 -0.5644
  560SOL    HW2 2621   4.258   6.026   0.997  0.9218 -1.0696 -0.2728
  561SOL     OW 2622   2.420   5.316   7.256 -0.1073 -0.3682  0.2808
  561SOL    HW1 2623   2.448   5.268   7.179  0.2487 -0.3442  0.3929
  561SOL    HW2 2624   2.386   5.399   7.221  0.7170 -0.0602  0.1992
  562SOL     OW 2625   1.176   2.500   1.618  0.0206 -0.2785  0.1323
  562SOL    HW1 2626   1.185   2.561   1.544 -1.4242  0.2154  0.3361
  562SOL    HW2 2627   1.113   2.542   1.676  1.4115 -0.4690  1.8681
  563SOL     OW 2628   5.247   5.481   2.889 -0.0711 -0.1773 -0.6299
  563SOL    HW1 2629   5.192   5.492   2.967 -0.1760  0.4067 -0.7832
  563SOL    HW2 2630   5.185   5.458   2.820  0.1076 -1.5143 -0.3848
  564SOL     OW 2631   0.216   2.266   7.207 -0.1944 -0.0384 -0.0478
  564SOL    HW1 2632   0.293   2.229   7.163 -1.3175 -3.3793  0.4897
  564SOL    HW2 2633   0.145   2.255   7.143 -0.9683 -0.7742  0.9198
  565SOL     OW 2634   2.749   5.303   0.730 -0.1219 -0.2265  0.3321
  565SOL    HW1 2635   2.773   5.283   0.639 -0.5114 -1.0498  0.3960
  565SOL    HW2 2636   2.658   5.331   0.725  0.2356  1.0011  0.3243
  566SOL     OW 2637   1.597   5.061   4.247 -0.2343 -0.8894  0.3146
  566SOL    HW1 2638   1.546   5.028   4.173  2.6180 -0.6664 -1.9434
  566SOL    HW2 2639   1.673   5.002   4.253  0.8306  0.5107  1.4596
  567SOL     OW 2640   7.289   0.808   1.824  0.1839  0.5701  0.7984
  567SOL    HW1 2641   7.325   0.822   1.912  0.3828  0.1121  0.7921
  567SOL    HW2 2642   7.218   0.872   1.817  0.1328  0.5751  1.3141
  568SOL     OW 2643   4.810   4.970   1.760 -0.0422  0.0364 -0.1156
  568SOL    HW1 2644   4.759   5.045   1.792  0.1630  1.1762 -2.3099
  568SOL    HW2 2645   4.755   4.895   1.779 -1.5119  1.0173 -0.3284
  569SOL     OW 2646   5.175   3.423   6.509  0.0604  0.1064 -0.0786
  569SOL    HW1 2647   5.194   3.384   6.424 -0.5163  0.0486 -0.1842
  569SOL    HW2 2648   5.253   3.473   6.531  0.2608  0.0157 -0.5829
  570SOL     OW 2649   1.027   1.843   2.866 -0.2727 -0.2893  0.1052
  570SOL    HW1 2650   1.101   1.892   2.831 -0.3607 -0.2712 -0.0604
  570SOL    HW2 2651   1.032   1.855   2.961  0.5343 -1.1453  0.1877
  571SOL     OW 2652   2.365   1.466   0.398  0.1554  0.2174 -0.1523
  571SOL    HW1 2653   2.379   1.372   0.386 -0.3927  0.2214 -0.8668
  571SOL    HW2 2654   2.375   1.503   0.310 -1.0000  0.6447 -0.1150
  572SOL     OW 2655   3.110   2.204   6.621  0.1696 -0.0588  0.3527
  572SOL    HW1 2656   3.190   2.159   6.648  0.8630  0.7335 -0.3088
  572SOL    HW2 2657   3.082   2.251   6.699  1.9420  1.9139 -0.1010
  573SOL     OW 2658   0.233   4.349   6.642  0.6423 -0.9603 -0.1939
  573SOL    HW1 2659   0.307   4.322   6.589  0.8734  3.3862 -2.5545
  573SOL    HW2 2660   0.164   4.370   6.578 -0.6942  0.2163  1.5287
  574SOL     OW 2661   4.661   2.303   0.357  0.4556  0.0779  0.1395
  574SOL    HW1 2662   4.712   2.380   0.331  0.6604 -0.1117 -0.0216
  574SOL    HW2 2663   4.570   2.332   0.350  0.5443  0.5112  0.7238
  575SOL     OW 2664   5.758   5.576   1.558  0.1282 -0.1321 -0.7862
  575SOL    HW1 2665   5.670   5.566   1.522  0.5233 -1.1085 -1.5301
  575SOL    HW2 2666   5.753   5.540   1.646 -0.4317  0.6678 -0.4806
  576SOL     OW 2667   6.744   6.203   3.055 -0.2961  0.1697 -0.3304
  576SOL    HW1 2668   6.769   6.175   2.967  0.1477 -2.5903  0.5937
  576SOL    HW2 2669   6.649   6.201   3.055 -0.4373  2.8078 -1.4580
  577SOL     OW 2670   5.963   3.645   6.400  1.2979 -0.1827  0.3408
  577SOL    HW1 2671   5.979   3.582   6.330 -0.3453 -0.1281 -0.1286
  577SOL    HW2 2672   6.008   3.725   6.373 -0.6861  0.3903 -1.5505
  578SOL     OW 2673   4.776   0.126   0.284  0.0231 -0.3869 -0.4387
  578SOL    HW1 2674   4.754   0.164   0.369 -1.4770  1.1001 -1.4188
  578SOL    HW2 2675   4.827   0.194   0.239  2.5325 -1.9069 -0.0741
  579SOL     OW 2676   3.919   5.590   3.073 -0.5041  0.9652 -0.3435
  579SOL    HW1 2677   3.901   5.553   2.986 -1.9552 -0.9201  0.6735
  579SOL    HW2 2678   3.838   5.574   3.122  0.4670  1.5272  1.5082
  580SOL     OW 2679   2.031   5.442   0.496  0.0978 -0.1692  0.8458
  580SOL    HW1 2680   2.020   5.432   0.401  2.1580 -2.1756  0.7322
  580SOL    HW2 2681   2.121   5.472   0.507  0.2154 -0.9161  2.1844
  581SOL     OW 2682   6.165   3.449   0.142 -0.4074  0.2769 -0.3210
  581SOL    HW1 2683   6.164   3.368   0.091 -3.7877 -0.4023  0.5718
  581SOL    HW2 2684   6.096   3.503   0.102  0.0670  1.6650  0.6601
  582SOL     OW 2685   0.002   6.331   7.114  0.1884  0.0198  0.0375
  582SOL    HW1 2686  -0.032   6.392   7.049 -0.5493  0.7137  1.0477
  582SOL    HW2 2687   0.097   6.347   7.115  0.3193 -0.5152 -1.3611
  583SOL     OW 2688   3.218   4.503   5.544 -0.9443  0.0372  0.0003
  583SOL    HW1 2689   3.245   4.582   5.497  1.8827 -0.6946  0.2242
  583SOL    HW2 2690   3.150   4.532   5.604 -0.3390  2.1958 -0.2927
  584SOL     OW 2691   4.639   4.333   4.447  0.1061  0.2698  0.0899
  584SOL    HW1 2692   4.545   4.337   4.431 -0.3708  2.2862  2.7038
  584SOL    HW2 2693   4.671   4.421   4.426  1.4652 -0.4178 -0.8857
  585SOL     OW 2694   6.509   4.922   4.256  0.2810  0.2522  0.0147
  585SOL    HW1 2695   6.486   5.013   4.237  0.4782  0.4994  0.9031
  585SOL    HW2 2696   6.483   4.909   4.347 -0.5901 -0.8705 -0.3729
  586SOL     OW 2697   0.473   3.205   2.030  0.9230 -0.0736 -0.2110
  586SOL    HW1 2698   0.418   3.128   2.040  0.1775  0.3890 -0.6600
  586SOL    HW2 2699   0.532   3.203   2.105 -0.7148  0.2420  1.1316
  587SOL     OW 2700   2.717   4.801   4.278 -0.6676 -0.1695 -1.0818
  587SOL    HW1 2701   2.807   4.791   4.308 -0.8466  0.6868 -0.1983
  587SOL    HW2 2702   2.675   4.718   4.299 -0.7595  0.3502  1.0242
  588SOL     OW 2703   6.203   5.812   2.058 -0.3148 -0.4453 -0.4681
  588SOL    HW1 2704   6.196   5.846   2.148  0.0179 -1.4698 -0.0371
  588SOL    HW2 2705   6.141   5.739   2.056  1.0513 -1.6365 -0.4734
  589SOL     OW 2706   5.622   0.142   5.909  0.7610  0.9276 -0.1175
  589SOL    HW1 2707   5.609   0.081   5.981 -2.0996  1.0945 -0.4014
  589SOL    HW2 2708   5.590   0.095   5.832 -1.7620  2.7654 -0.3099
  590SOL     OW 2709   6.225   3.148   1.177 -0.1534 -0.1295 -0.0074
  590SOL    HW1 2710   6.135   3.168   1.152 -0.5225 -0.3110  1.1068
  590SOL    HW2 2711   6.228   3.053   1.183  0.0483 -0.1119  0.1932
  591SOL     OW 2712   7.108   4.507   5.068 -0.9244 -0.6455 -0.1688
  591SOL    HW1 2713   7.065   4.471   4.990 -1.6883 -0.4017  0.1290
  591SOL    HW2 2714   7.185   4.452   5.080 -1.1245 -1.0672 -0.7439
  592SOL     OW 2715   2.827   6.003   0.839  0.2407 -0.3987 -0.1732
  592SOL    HW1 2716   2.830   6.098   0.831 -0.1996 -0.4580 -1.1920
  592SOL    HW2 2717   2.734   5.981   0.830  0.1670 -0.8395  1.3302
  593SOL     OW 2718   0.713   5.643   3.115  0.0197 -0.4541 -0.3398
  593SOL    HW1 2719   0.782   5.584   3.145 -0.0574 -0.5987 -0.4472
  593SOL    HW2 2720   0.760   5.711   3.066  0.3812  0.8512  1.6529
  594SOL     OW 2721   2.270   6.157   6.656  0.6450 -0.0923  0.3175
  594SOL    HW1 2722   2.318   6.100   6.595 -1.1310 -1.1220 -0.1933
  594SOL    HW2 2723   2.288   6.120   6.743 -0.4707 -1.4932 -0.0060
  595SOL     OW 2724   2.382   0.376   6.467  0.6488 -0.0049  0.1617
  595SOL    HW1 2725   2.307   0.346   6.519 -0.4952  1.6066 -0.4948
  595SOL    HW2 2726   2.422   0.445   6.520 -0.4519  1.5638 -0.9774
  596SOL     OW 2727   5.729   0.584   1.617  0.1586 -0.3611  0.5342
  596SOL    HW1 2728   5.780   0.541   1.685  0.6352 -0.6636 -0.0087
  596SOL    HW2 2729   5.793   0.608   1.550 -0.3376 -0.3180  0.0651
  597SOL     OW 2730   4.332   0.139   3.333  0.6268  0.3384  0.1350
  597SOL    HW1 2731   4.269   0.190   3.284  0.1504  0.4948  0.9005
  597SOL    HW2 2732   4.280   0.073   3.379  1.1674 -0.4671 -0.3678
  598SOL     OW 2733   6.612   0.388   3.049 -0.0832  0.0797  0.2889
  598SOL    HW1 2734   6.629   0.294   3.045  0.1575  0.0706  1.2701
  598SOL    HW2 2735   6.526   0.395   3.090 -0.3235  0.2777 -0.2385
  599SOL     OW 2736   4.035   5.981   0.387  0.6317 -0.0210 -0.5670
  599SOL    HW1 2737   3.960   5.935   0.348 -0.4782  0.2437  1.1681
  599SOL    HW2 2738   4.088   5.911   0.425  0.4637 -0.0825 -0.4475
  600SOL     OW 2739   4.361   2.987   4.538 -0.4550  0.1030  0.0342
  600SOL    HW1 2740   4.292   3.051   4.518 -0.9100 -0.1545  0.7509
  600SOL    HW2 2741   4.349   2.918   4.472 -0.6046  0.2707 -0.1169
  601SOL     OW 2742   5.922   1.674   4.685  0.1270 -0.4117  0.3026
  601SOL    HW1 2743   5.885   1.672   4.773  0.0600 -0.3719  0.2755
  601SOL    HW2 2744   6.004   1.624   4.692 -0.2719 -1.0984  0.2069
  602SOL     OW 2745   7.158   0.641   5.683 -0.2764 -0.4579  0.1638
  602SOL    HW1 2746   7.176   0.610   5.595 -0.2689 -0.0943  0.0360
  602SOL    HW2 2747   7.165   0.736   5.677  0.0848 -0.4507  0.6357
  603SOL     OW 2748   2.377   0.885   0.083 -0.3283 -0.2894 -0.3577
  603SOL    HW1 2749   2.330   0.864   0.164 -3.0863  1.7623 -1.2906
  603SOL    HW2 2750   2.469   0.870   0.104 -1.1208 -1.8647  2.4611
  604SOL     OW 2751   4.403   4.522   3.032  0.2628 -0.0827  0.0607
  604SOL    HW1 2752   4.498   4.524   3.020  0.4016 -0.5417  0.9794
  604SOL    HW2 2753   4.370   4.589   2.972  1.1204 -0.2418 -0.6075
  605SOL     OW 2754   5.526   2.029   3.609 -0.0956  0.4993  0.2828
  605SOL    HW1 2755   5.466   2.046   3.537  0.1891  2.6507  0.4969
  605SOL    HW2 2756   5.468   2.019   3.685 -0.2887  0.1642  0.0963
  606SOL     OW 2757   0.823   7.009   0.342 -1.0945 -0.1876  0.0202
  606SOL    HW1 2758   0.897   7.002   0.282 -1.6186 -0.6618 -0.5887
  606SOL    HW2 2759   0.847   6.954   0.417 -0.2521  0.7465  0.4595
  607SOL     OW 2760   6.353   4.694   5.809 -0.0830 -0.2125 -0.2006
  607SOL    HW1 2761   6.287   4.625   5.820  0.6683 -1.0780 -0.9983
  607SOL    HW2 2762   6.322   4.765   5.866 -0.3789 -1.5549  1.4063
  608SOL     OW 2763   2.480   6.998   4.979 -0.1555 -0.2174 -0.2981
  608SOL    HW1 2764   2.569   6.968   4.960  0.7224  2.5191 -0.9232
  608SOL    HW2 2765   2.427   6.959   4.909  0.8594 -0.5174 -0.9216
  609SOL     OW 2766   3.507   2.508   6.086 -0.0201  0.1257 -0.7411
  609SOL    HW1 2767   3.458   2.427   6.076 -0.5184  0.2281  0.6484
  609SOL    HW2 2768   3.440   2.577   6.084 -0.1031  0.2295  1.8166
  610SOL     OW 2769   5.943   6.170   4.212 -1.0710  0.0958  0.5631
  610SOL    HW1 2770   5.876   6.138   4.272  1.5914 -2.9100  2.3120
  610SOL    HW2 2771   5.989   6.238   4.261 -2.3436  1.6749 -0.3707
  611SOL     OW 2772   6.054   6.494   6.049  0.2737 -0.3494  0.3042
  611SOL    HW1 2773   5.987   6.562   6.050  0.7209  0.0972  0.6942
  611SOL    HW2 2774   6.033   6.441   5.972  0.0535  0.3702 -0.1465
  612SOL     OW 2775   3.997   7.284   0.987  0.9878 -0.6429 -0.5753
  612SOL    HW1 2776   4.021   7.216   0.925 -0.4912 -0.8113 -0.9989
  612SOL    HW2 2777   3.962   7.355   0.933  0.8893 -0.2579 -0.0214
  613SOL     OW 2778   3.889   7.328   2.390  0.1471  0.5280  0.3474
  613SOL    HW1 2779   3.864   7.403   2.335 -1.8116 -0.2112  0.1616
  613SOL    HW2 2780   3.853   7.349   2.476 -0.2664 -0.1200  0.3371
  614SOL     OW 2781   2.414   3.507   3.783  0.4163  0.3344 -0.1123
  614SOL    HW1 2782   2.332   3.500   3.734  1.1988 -1.8892 -1.2358
  614SOL    HW2 2783   2.421   3.424   3.830  1.2097  1.1976  1.3694
  615SOL     OW 2784   3.802   3.252   1.874 -0.1411  0.4535 -0.2664
  615SOL    HW1 2785   3.762   3.288   1.954  0.5842 -0.0895  0.3637
  615SOL    HW2 2786   3.750   3.288   1.803 -0.8736  0.8748  0.4581
  616SOL     OW 2787   2.737   2.318   6.578  0.0458  0.1506  0.4676
  616SOL    HW1 2788   2.791   2.344   6.652 -0.6746  1.7684  0.4612
  616SOL    HW2 2789   2.732   2.397   6.523 -2.7563  0.2600  0.7487
  617SOL     OW 2790   7.397   6.552   5.869 -0.3138  0.0045 -0.2462
  617SOL    HW1 2791   7.346   6.626   5.835 -1.8205 -0.4623  0.8893
  617SOL    HW2 2792   7.336   6.478   5.865  0.1438 -0.4952  1.4987
  618SOL     OW 2793   2.624   3.644   1.594 -0.2121  0.0346  0.0250
  618SOL    HW1 2794   2.700   3.616   1.543  0.9511 -0.2881  1.8618
  618SOL    HW2 2795   2.660   3.689   1.669 -1.8678  0.2325  0.7490
  619SOL     OW 2796   7.213   0.447   5.885  0.0570 -0.5601  0.3559
  619SOL    HW1 2797   7.304   0.417   5.875 -0.4698 -2.1039 -0.2342
  619SOL    HW2 2798   7.203   0.517   5.821  0.1033 -2.2781 -1.6703
  620SOL     OW 2799   3.801   2.296   0.998 -0.2919  0.6664  0.0228
  620SOL    HW1 2800   3.891   2.265   0.990  0.1191  2.1698 -2.1822
  620SOL    HW2 2801   3.807   2.391   0.987 -2.1362  0.8299 -0.0035
  621SOL     OW 2802   3.632   7.316   3.274  0.0705 -0.1062 -0.1266
  621SOL    HW1 2803   3.688   7.351   3.205  0.3663  1.8097  0.9848
  621SOL    HW2 2804   3.543   7.327   3.240  0.2677 -1.2451 -1.0640
  622SOL     OW 2805   3.468   5.689   1.716  0.2825 -0.0381 -0.2445
  622SOL    HW1 2806   3.375   5.698   1.733  0.3662  0.2461  0.0695
  622SOL    HW2 2807   3.499   5.624   1.779  0.6861  1.3713  1.0689
  623SOL     OW 2808   0.535   5.147   4.392  0.0414  0.2663  0.3710
  623SOL    HW1 2809   0.518   5.084   4.322 -0.7008 -0.4010  1.1330
  623SOL    HW2 2810   0.554   5.093   4.469 -1.1512  0.9560  1.1774
  624SOL     OW 2811   4.349   3.821   2.759  0.6297 -0.3300 -0.2323
  624SOL    HW1 2812   4.424   3.766   2.781 -0.2902 -1.6147 -0.1919
  624SOL    HW2 2813   4.276   3.759   2.748 -0.6374  0.9317  0.6423
  625SOL     OW 2814   3.026   6.635   4.662 -0.2047 -0.2815  0.6766
  625SOL    HW1 2815   3.049   6.727   4.648 -0.0782 -0.5011 -0.6819
  625SOL    HW2 2816   3.061   6.614   4.748  0.5209  0.7051  0.6335
  626SOL     OW 2817   1.488   2.660   3.312 -0.3684  0.4600 -0.1871
  626SOL    HW1 2818   1.458   2.633   3.226  1.9785  2.9955 -2.0095
  626SOL    HW2 2819   1.562   2.601   3.331 -1.5450 -0.7904  0.6643
  627SOL     OW 2820   5.444   6.435   6.611 -0.3659 -0.1516 -0.0268
  627SOL    HW1 2821   5.435   6.391   6.696  0.7094  0.6869  0.5517
  627SOL    HW2 2822   5.538   6.449   6.602 -0.5325  0.3804 -1.0557
  628SOL     OW 2823   1.166   3.698   6.899 -0.1558 -0.0412 -0.5783
  628SOL    HW1 2824   1.253   3.720   6.933  0.0782  0.5651 -1.5475
  628SOL    HW2 2825   1.183   3.651   6.818 -0.7286 -0.7524 -0.2977
  629SOL     OW 2826   1.065   6.700   6.598 -0.4295  0.1045 -0.1742
  629SOL    HW1 2827   1.050   6.773   6.659 -0.5699 -0.0110 -0.0707
  629SOL    HW2 2828   1.148   6.662   6.628 -0.9366 -0.4938  0.4913
  630SOL     OW 2829   6.213   2.738   6.284  0.5443  0.3945 -0.0291
  630SOL    HW1 2830   6.165   2.714   6.363 -0.5986  0.3463 -0.7171
  630SOL    HW2 2831   6.289   2.787   6.316  0.1925  0.2352  1.0964
  631SOL     OW 2832   2.209   1.421   5.359  0.0434 -0.0192 -0.4857
  631SOL    HW1 2833   2.295   1.380   5.371 -0.0470 -0.3186 -0.8256
  631SOL    HW2 2834   2.193   1.414   5.265 -0.6353 -0.5381 -0.3371
  632SOL     OW 2835   7.193   4.274   0.121  0.0876 -0.3258  0.1536
  632SOL    HW1 2836   7.249   4.206   0.159 -2.4763 -2.2272  0.8440
  632SOL    HW2 2837   7.110   4.229   0.105 -0.7481  1.8849 -2.4198
  633SOL     OW 2838   7.282   3.470   6.520  0.2812  0.6802 -0.3326
  633SOL    HW1 2839   7.196   3.508   6.500  0.0150  1.5579  2.1657
  633SOL    HW2 2840   7.264   3.379   6.543 -0.4826  1.4890  2.7719
  634SOL     OW 2841   5.949   6.008   0.740 -0.4917  0.6355 -0.2083
  634SOL    HW1 2842   5.941   6.051   0.825 -1.1407  1.8208 -0.8323
  634SOL    HW2 2843   5.973   6.079   0.680 -0.6719 -0.0566 -1.1286
  635SOL     OW 2844   3.482   2.355   3.714  0.3778  0.2757  0.3569
  635SOL    HW1 2845   3.433   2.273   3.719 -1.4143  1.3061  0.4562
  635SOL    HW2 2846   3.518   2.367   3.802  1.6654 -0.9621  0.0342
  636SOL     OW 2847   3.308   6.981   0.954 -0.1123 -0.0798  0.1591
  636SOL    HW1 2848   3.294   7.074   0.974  0.2915 -0.1226  0.6480
  636SOL    HW2 2849   3.374   6.981   0.886 -0.3357  0.0012 -0.0607
  637SOL     OW 2850   1.355   4.003   3.235  0.3516  0.7463 -0.0851
  637SOL    HW1 2851   1.388   3.944   3.303  0.9594  0.2432 -0.7922
  637SOL    HW2 2852   1.413   3.988   3.161 -0.9273  0.4904 -1.0850
  638SOL     OW 2853   5.995   3.778   1.276 -0.0488 -0.0921  0.0309
  638SOL    HW1 2854   6.090   3.773   1.273 -0.0074 -1.4869  1.8702
  638SOL    HW2 2855   5.967   3.776   1.184  1.6455 -0.5942 -0.4984
  639SOL     OW 2856   1.387   7.347   1.534  0.2658 -0.1588 -0.2417
  639SOL    HW1 2857   1.439   7.417   1.572  0.2619 -0.6830  0.7839
  639SOL    HW2 2858   1.407   7.270   1.588  0.5000 -1.0275 -1.5125
  640SOL     OW 2859   5.520   4.825   4.466  0.0641 -0.2791 -0.1437
  640SOL    HW1 2860   5.531   4.910   4.510 -1.8220 -0.3179  0.4816
  640SOL    HW2 2861   5.591   4.771   4.500  1.6955  1.2077 -1.0413
  641SOL     OW 2862   1.906   5.252   2.931 -0.8715 -0.3861  0.1749
  641SOL    HW1 2863   1.952   5.171   2.952 -0.5192 -0.3248 -0.3372
  641SOL    HW2 2864   1.887   5.292   3.016  3.5191  1.5489  0.5123
  642SOL     OW 2865   6.184   5.787   2.349  0.2016 -0.3536  0.5531
  642SOL    HW1 2866   6.131   5.835   2.412 -1.4991 -1.2409 -0.1192
  642SOL    HW2 2867   6.181   5.696   2.379  0.7113 -0.5395  0.0720
  643SOL     OW 2868   5.503   3.653   0.244 -0.0461 -0.6012  0.1150
  643SOL    HW1 2869   5.437   3.591   0.214  0.5174 -1.6995  1.0542
  643SOL    HW2 2870   5.453   3.723   0.286 -0.7623  0.2675 -2.0618
  644SOL     OW 2871   5.461   4.216   5.029  0.1988  0.2837 -0.0709
  644SOL    HW1 2872   5.513   4.271   5.088 -0.3131  0.3596  0.3137
  644SOL    HW2 2873   5.450   4.268   4.950  1.7757 -0.2109 -0.6699
  645SOL     OW 2874   2.303   1.064   5.208 -0.1072  0.0951  0.0199
  645SOL    HW1 2875   2.337   0.982   5.245 -1.7818 -0.3573  0.6875
  645SOL    HW2 2876   2.215   1.041   5.178  0.3317  1.0627 -2.1264
  646SOL     OW 2877   6.098   4.617   3.269 -0.7572 -0.0164 -0.1439
  646SOL    HW1 2878   6.117   4.706   3.299  1.3094 -1.5105  3.6901
  646SOL    HW2 2879   6.178   4.590   3.224 -0.3442 -0.7138  0.9705
  647SOL     OW 2880   1.012   3.010   2.994  0.1077 -0.2306  0.1432
  647SOL    HW1 2881   0.930   3.052   3.020  0.6026 -0.1614  1.7101
  647SOL    HW2 2882   0.987   2.921   2.970 -0.7472  0.4804 -1.7931
  648SOL     OW 2883   3.840   0.427   7.176 -0.2475 -0.2373 -0.1019
  648SOL    HW1 2884   3.931   0.404   7.194 -0.5404 -0.0215  1.9047
  648SOL    HW2 2885   3.844   0.476   7.094  1.4213 -0.3652 -0.1363
  649SOL     OW 2886   3.065   4.892   3.907  0.2127  0.0495 -0.1674
  649SOL    HW1 2887   3.011   4.955   3.955 -0.7473 -0.5108 -0.4741
  649SOL    HW2 2888   3.103   4.836   3.975  0.7890  0.7298  0.0810
  650SOL     OW 2889   5.178   1.992   3.089 -0.2707 -0.4282  0.2051
  650SOL    HW1 2890   5.153   1.938   3.015 -1.1998  0.3599 -0.0722
  650SOL    HW2 2891   5.272   2.008   3.077 -0.5999  0.5224 -1.3675
  651SOL     OW 2892   6.046   7.025   2.393  0.0248 -0.5451  0.3278
  651SOL    HW1 2893   5.959   7.042   2.430  0.0261 -1.7997  0.9758
  651SOL    HW2 2894   6.064   7.100   2.337 -0.9850  0.2846  1.0902
  652SOL     OW 2895   5.980   6.794   0.531 -0.1944 -0.0298  0.2013
  652SOL    HW1 2896   5.959   6.721   0.472 -2.2757 -0.3262  1.2045
  652SOL    HW2 2897   6.023   6.752   0.606 -1.6948 -0.3177  0.9315
  653SOL     OW 2898   1.114   3.759   7.319  0.2344  0.1243  0.6929
  653SOL    HW1 2899   1.165   3.702   7.376  1.1777  1.9118  1.7156
  653SOL    HW2 2900   1.110   3.843   7.365 -2.1633  0.5682 -0.1758
  654SOL     OW 2901   2.533   2.284   4.303  0.4766 -0.2588  0.3894
  654SOL    HW1 2902   2.515   2.198   4.341 -1.2232  1.2087  3.3469
  654SOL    HW2 2903   2.462   2.298   4.240  0.5491 -0.8799  0.1680
  655SOL     OW 2904   3.006   2.143   4.452  0.1618  0.1948  0.0297
  655SOL    HW1 2905   3.042   2.131   4.540  0.9223 -0.8505 -0.3934
  655SOL    HW2 2906   2.935   2.206   4.463  0.5026  0.3808  1.3216
  656SOL     OW 2907   3.253   2.662   1.560  0.6266  0.2209 -0.1843
  656SOL    HW1 2908   3.342   2.691   1.543  1.0685  0.6639  2.4784
  656SOL    HW2 2909   3.203   2.743   1.570  0.2324 -0.0157 -0.2228
  657SOL     OW 2910   6.322   6.336   1.724 -0.1775  0.2923 -0.7634
  657SOL    HW1 2911   6.399   6.389   1.705  1.4639 -0.5810  2.6194
  657SOL    HW2 2912   6.267   6.392   1.778 -0.1896 -0.1823 -0.2665
  658SOL     OW 2913   3.625   1.303   5.164 -0.1258  0.3342  0.3245
  658SOL    HW1 2914   3.714   1.310   5.129 -0.2686  0.0187 -0.1208
  658SOL    HW2 2915   3.574   1.265   5.092 -0.4760 -0.1257  0.8042
  659SOL     OW 2916   5.546   0.689   3.572 -0.2463 -0.6298 -0.1973
  659SOL    HW1 2917   5.487   0.653   3.638 -1.4769 -0.5827 -1.2299
  659SOL    HW2 2918   5.603   0.750   3.620 -0.0854 -1.7362  1.0537
  660SOL     OW 2919   6.994   6.147   4.613 -0.2657  0.6720  0.3849
  660SOL    HW1 2920   7.051   6.223   4.624  1.1366 -0.4482  1.1526
  660SOL    HW2 2921   7.054   6.073   4.604 -1.5766 -0.2741 -1.1700
  661SOL     OW 2922   1.890   6.136   1.459  0.2447  0.2328  0.2762
  661SOL    HW1 2923   1.884   6.228   1.436  0.2552 -0.0738 -0.9847
  661SOL    HW2 2924   1.803   6.100   1.441  0.2031  0.0108  0.8820
  662SOL     OW 2925   3.613   5.010   2.460  0.0849  0.2585  0.6394
  662SOL    HW1 2926   3.655   4.940   2.510  0.1929  0.4493  0.8234
  662SOL    HW2 2927   3.591   4.970   2.376  0.6164  0.1439  0.5454
  663SOL     OW 2928   0.597   1.397   5.773  0.5334  0.7588  0.1207
  663SOL    HW1 2929   0.529   1.429   5.714 -0.1140  1.8983  1.3976
  663SOL    HW2 2930   0.613   1.307   5.746 -0.6046  0.8625 -0.9861
  664SOL     OW 2931   2.891   4.979   2.084 -0.6377 -0.0200  0.1529
  664SOL    HW1 2932   2.968   4.953   2.133  0.5263  0.1104 -1.5210
  664SOL    HW2 2933   2.824   4.914   2.107  0.5554 -1.2642  0.1789
  665SOL     OW 2934   0.254   3.853   5.975  0.1551 -0.1647  0.8627
  665SOL    HW1 2935   0.273   3.943   6.003  1.1568 -0.6432  1.8089
  665SOL    HW2 2936   0.159   3.846   5.979 -0.0645  1.2961 -0.6851
  666SOL     OW 2937   0.224   3.043   6.731  0.2875 -0.2561 -0.1106
  666SOL    HW1 2938   0.231   3.047   6.635  0.7427 -0.2022 -0.0771
  666SOL    HW2 2939   0.193   2.955   6.749  0.8109 -0.4790 -0.2760
  667SOL     OW 2940   6.640   2.974   5.813 -0.2221 -0.0656  0.1175
  667SOL    HW1 2941   6.629   3.037   5.884  1.2373  1.5141 -0.9592
  667SOL    HW2 2942   6.584   2.900   5.837 -1.4836  1.3500  1.7684
  668SOL     OW 2943   5.235   7.191   2.637 -0.2980  0.2791 -0.0506
  668SOL    HW1 2944   5.180   7.188   2.715 -0.2079  2.2469  0.1453
  668SOL    HW2 2945   5.324   7.185   2.671 -0.2758 -3.7698 -0.4268
  669SOL     OW 2946   3.247   3.790   1.768  0.2450  0.3290  0.5127
  669SOL    HW1 2947   3.337   3.822   1.773 -0.0142  1.3221 -0.6785
  669SOL    HW2 2948   3.198   3.846   1.828  0.2918  0.2482  0.6273
  670SOL     OW 2949   6.815   2.762   3.253  0.0866  0.1315 -0.2377
  670SOL    HW1 2950   6.744   2.700   3.268  0.1687 -0.1935 -1.1536
  670SOL    HW2 2951   6.866   2.724   3.181  1.5034  0.0810  0.7507
  671SOL     OW 2952   1.613   5.955   5.400 -0.5129 -0.2488  0.0857
  671SOL    HW1 2953   1.606   5.981   5.491  0.2567 -0.0915  0.1086
  671SOL    HW2 2954   1.666   6.023   5.359 -1.4505  0.0717 -0.6478
  672SOL     OW 2955   6.330   5.061   0.423 -0.3577 -0.3063  0.0756
  672SOL    HW1 2956   6.401   5.105   0.471  0.9005 -1.6581 -0.4686
  672SOL    HW2 2957   6.305   5.124   0.356  0.4493  0.1478  0.1793
  673SOL     OW 2958   3.653   4.009   6.095  0.0500  0.1056  0.3578
  673SOL    HW1 2959   3.660   3.914   6.109 -0.0265 -0.0928 -0.8570
  673SOL    HW2 2960   3.727   4.046   6.143  1.3147 -0.7475 -0.8691
  674SOL     OW 2961   2.333   2.771   2.485 -0.0075 -0.2162 -0.5336
  674SOL    HW1 2962   2.415   2.821   2.484  0.3378 -0.7294  0.5213
  674SOL    HW2 2963   2.360   2.680   2.475 -0.2784 -0.5546  1.4470
  675SOL     OW 2964   1.407   1.540   3.804  0.1701  0.4987 -0.3747
  675SOL    HW1 2965   1.416   1.624   3.849 -0.2712  0.2213  0.2513
  675SOL    HW2 2966   1.491   1.496   3.817 -1.0864 -1.1694  3.5209
  676SOL     OW 2967   7.244   3.089   3.206  0.2475  0.4864  0.0182
  676SOL    HW1 2968   7.169   3.033   3.184 -0.0107  1.4615 -1.8306
  676SOL    HW2 2969   7.299   3.035   3.262 -2.3375  0.1134  2.4060
  677SOL     OW 2970   4.413   6.051   1.952  0.0057  0.4960  0.2098
  677SOL    HW1 2971   4.413   5.999   1.871  1.7406  0.5699  0.1179
  677SOL    HW2 2972   4.378   5.992   2.018 -1.1496  0.3321 -0.5197
  678SOL     OW 2973   3.239   4.461   3.912  0.0916 -0.5344  0.2093
  678SOL    HW1 2974   3.260   4.369   3.928  0.7785 -0.3996  0.0915
  678SOL    HW2 2975   3.146   4.468   3.934  0.6244 -0.6508  2.8421
  679SOL     OW 2976   4.341   4.647   2.494 -0.2579  0.0594 -0.0746
  679SOL    HW1 2977   4.338   4.731   2.449 -0.5934  0.5179  0.7946
  679SOL    HW2 2978   4.414   4.600   2.452  0.3151  1.0041 -0.1610
  680SOL     OW 2979   5.137   7.310   2.393 -0.2704 -0.5239 -0.2297
  680SOL    HW1 2980   5.194   7.301   2.316 -1.3612 -1.6692 -0.9483
  680SOL    HW2 2981   5.196   7.302   2.468  0.3898 -3.2723 -0.9227
  681SOL     OW 2982   0.988   6.131   0.550  0.3561 -0.5202  0.3526
  681SOL    HW1 2983   0.944   6.116   0.633 -0.2892 -2.4759 -0.2951
  681SOL    HW2 2984   0.919   6.164   0.492  0.7585  0.6446  0.5148
  682SOL     OW 2985   2.443   1.187   3.649 -0.2564 -0.2381 -0.1815
  682SOL    HW1 2986   2.441   1.282   3.658 -2.5387 -0.3454  1.3014
  682SOL    HW2 2987   2.492   1.171   3.568  0.0466  2.1677 -0.5450
  683SOL     OW 2988   3.526   3.276   4.541 -0.5944  0.4285 -0.1161
  683SOL    HW1 2989   3.467   3.262   4.615  0.3201  0.3959  0.6141
  683SOL    HW2 2990   3.609   3.300   4.580 -0.3811  1.5070 -1.1726
  684SOL     OW 2991   2.757   0.502   0.236 -0.3262 -0.3659 -0.3566
  684SOL    HW1 2992   2.698   0.462   0.300 -0.7655  0.2305 -0.3703
  684SOL    HW2 2993   2.809   0.564   0.287  1.6275 -2.2064 -0.0055
  685SOL     OW 2994   4.295   1.977   6.963 -0.4079 -0.5139 -0.0270
  685SOL    HW1 2995   4.210   1.979   6.919 -1.2749 -2.2742  1.4401
  685SOL    HW2 2996   4.305   1.887   6.993  0.1650  0.4702  3.1903
  686SOL     OW 2997   3.657   0.033   4.330  0.2310 -0.1136 -0.0288
  686SOL    HW1 2998   3.642   0.109   4.273 -2.3013 -0.4086  0.1491
  686SOL    HW2 2999   3.613   0.055   4.412  1.3420 -0.9091  0.8202
  687SOL     OW 3000   3.146   0.080   1.040  0.5114 -0.0167  0.0925
  687SOL    HW1 3001   3.215   0.098   1.104  0.3543  1.4329 -0.1179
  687SOL    HW2 3002   3.175   0.123   0.960 -0.0671 -0.4371 -0.3588
  688SOL     OW 3003   2.715   5.883   1.443 -0.1898  0.3949 -0.1235
  688SOL    HW1 3004   2.626   5.902   1.414 -0.1491  0.1830 -0.3877
  688SOL    HW2 3005   2.768   5.886   1.363  0.3361  2.1674  0.2290
  689SOL     OW 3006   3.384   2.599   0.321  0.3676  0.2354  0.0854
  689SOL    HW1 3007   3.370   2.508   0.292  1.2091  0.1189  0.0340
  689SOL    HW2 3008   3.405   2.591   0.414  0.4183  0.3820  0.0861
  690SOL     OW 3009   2.097   6.387   2.804 -0.1142 -0.1688 -0.3898
  690SOL    HW1 3010   2.090   6.338   2.886  0.0529  0.4059 -0.0253
  690SOL    HW2 3011   2.178   6.356   2.765 -0.5311 -0.9301 -0.6669
  691SOL     OW 3012   0.429   4.749   2.492  0.1638 -0.0031  0.5282
  691SOL    HW1 3013   0.426   4.689   2.568  0.0040 -0.2598  0.3215
  691SOL    HW2 3014   0.473   4.698   2.424 -1.5431 -0.5592 -0.2287
  692SOL     OW 3015   1.461   0.554   2.152 -0.5032  0.3043  0.2997
  692SOL    HW1 3016   1.437   0.615   2.222 -0.1811  0.1915  0.5092
  692SOL    HW2 3017   1.459   0.468   2.193  0.3477  0.2994  0.3470
  693SOL     OW 3018   2.248   2.770   7.306  0.2517  0.2668  0.5711
  693SOL    HW1 3019   2.183   2.705   7.283  0.1889  0.5945 -0.1947
  693SOL    HW2 3020   2.234   2.786   7.399  0.7848 -1.3873  0.9755
  694SOL     OW 3021   5.464   5.076   0.722  0.3055 -0.0082 -0.5143
  694SOL    HW1 3022   5.518   5.006   0.684  0.1155  0.2433 -1.2676
  694SOL    HW2 3023   5.377   5.062   0.685  0.3275  0.7814 -0.8937
  695SOL     OW 3024   4.575   5.648   2.662  0.1787 -0.0295  0.6223
  695SOL    HW1 3025   4.484   5.620   2.664 -0.1416  1.0037  1.7392
  695SOL    HW2 3026   4.611   5.618   2.746  1.4189 -2.0649 -0.5497
  696SOL     OW 3027   6.652   1.345   0.737  0.0230 -0.1129  0.3300
  696SOL    HW1 3028   6.623   1.337   0.646 -0.4745 -0.9403  0.5508
  696SOL    HW2 3029   6.666   1.439   0.749 -0.3729  0.0598 -0.4565
  697SOL     OW 3030   7.135   0.405   2.327 -0.0082  0.7556  0.0925
  697SOL    HW1 3031   7.126   0.446   2.241 -2.6135  2.0773  0.8805
  697SOL    HW2 3032   7.155   0.478   2.386 -0.5593  0.2456  0.9281
  698SOL     OW 3033   1.220   1.793   0.559 -0.2349 -0.2296 -0.3511
  698SOL    HW1 3034   1.252   1.714   0.602  0.0649  0.0313 -0.0854
  698SOL    HW2 3035   1.150   1.763   0.501  1.5015 -1.0280 -2.1319
  699SOL     OW 3036   5.136   2.404   2.852 -0.1293 -0.2003 -0.0644
  699SOL    HW1 3037   5.174   2.338   2.795 -2.8776 -0.7929 -1.3744
  699SOL    HW2 3038   5.160   2.377   2.941  1.2422 -1.2551 -0.7251
  700SOL     OW 3039   4.580   4.236   5.254 -0.0388 -0.1023 -0.3924
  700SOL    HW1 3040   4.534   4.230   5.170 -1.3629  0.3135  0.2804
  700SOL    HW2 3041   4.671   4.254   5.230 -0.4170  0.1497 -1.7276
  701SOL     OW 3042   0.457   6.660   6.192  0.1249  0.0443 -0.4080
  701SOL    HW1 3043   0.423   6.590   6.136  0.0391 -0.8880  0.7813
  701SOL    HW2 3044   0.542   6.629   6.223 -1.5766 -1.4811  3.3727
  702SOL     OW 3045   3.295   2.923   2.378 -0.1041  0.0809  0.1532
  702SOL    HW1 3046   3.233   2.992   2.402  0.4854  2.1057 -3.4487
  702SOL    HW2 3047   3.372   2.940   2.433 -0.5978  1.2545  0.5087
  703SOL     OW 3048   3.528   3.345   5.779  0.3016 -0.2998  0.0340
  703SOL    HW1 3049   3.566   3.261   5.754  0.9102 -0.5696  1.7504
  703SOL    HW2 3050   3.562   3.362   5.867  0.1338  1.7065 -0.2348
  704SOL     OW 3051   5.765   0.249   1.602 -0.1377 -0.0527  0.5989
  704SOL    HW1 3052   5.684   0.272   1.649  0.2425  0.7998  0.8465
  704SOL    HW2 3053   5.752   0.283   1.514  0.2764  0.8180  0.8651
  705SOL     OW 3054   3.910   4.299   4.011  0.3118  0.7390 -0.6571
  705SOL    HW1 3055   3.850   4.367   4.042  1.5357  1.7809 -0.4996
  705SOL    HW2 3056   3.897   4.226   4.071  0.5290  1.6376  0.5126
  706SOL     OW 3057   5.857   5.214   2.096 -0.0791 -0.1337 -0.0670
  706SOL    HW1 3058   5.874   5.158   2.020  0.2757 -0.1782  0.0406
  706SOL    HW2 3059   5.792   5.166   2.147 -0.6331  0.1001 -0.5560
  707SOL     OW 3060   2.755   4.573   4.741 -0.6760 -0.5696  0.5117
  707SOL    HW1 3061   2.806   4.502   4.702 -0.5582  0.2704 -0.9568
  707SOL    HW2 3062   2.715   4.534   4.819 -0.6122 -2.2362 -0.2429
  708SOL     OW 3063   6.177   6.877   3.752  0.0258 -0.1263  0.1218
  708SOL    HW1 3064   6.197   6.905   3.841 -1.2314 -2.2068  1.1422
  708SOL    HW2 3065   6.262   6.863   3.711  0.6194  1.3037  0.8142
  709SOL     OW 3066   0.714   5.929   6.466 -0.7315 -0.6233  0.0114
  709SOL    HW1 3067   0.692   5.836   6.456 -0.4217 -0.5633 -1.4247
  709SOL    HW2 3068   0.752   5.954   6.382  1.0581  0.3078  1.0387
  710SOL     OW 3069   1.158   2.131   1.452  0.1814  0.2522  0.4670
  710SOL    HW1 3070   1.067   2.150   1.428 -0.3275 -1.6292  0.7194
  710SOL    HW2 3071   1.151   2.079   1.533  1.2142 -2.8567 -1.2488
  711SOL     OW 3072   4.664   2.359   1.820  0.3975  0.1032 -0.0188
  711SOL    HW1 3073   4.687   2.438   1.771 -1.3616  1.2635  0.9202
  711SOL    HW2 3074   4.738   2.345   1.879  1.8586 -0.4505 -1.8927
  712SOL     OW 3075   6.868   3.187   1.603 -0.2250  1.0786 -0.1821
  712SOL    HW1 3076   6.778   3.165   1.626  0.1425 -1.0222 -0.5879
  712SOL    HW2 3077   6.916   3.105   1.612  1.5227  2.0033 -0.6546
  713SOL     OW 3078   3.181   6.276   4.805  0.1441 -0.0022 -0.0766
  713SOL    HW1 3079   3.113   6.245   4.746  0.5766  0.3113 -0.7482
  713SOL    HW2 3080   3.146   6.357   4.842  0.1367  0.1320 -0.3832
  714SOL     OW 3081   4.607   6.617   1.556  0.2576 -0.0385  0.0694
  714SOL    HW1 3082   4.536   6.624   1.492  0.8366  0.3301 -0.5401
  714SOL    HW2 3083   4.563   6.618   1.641 -0.3998  1.2032 -0.2700
  715SOL     OW 3084   0.655   3.242   4.484  0.0048 -0.2906  0.1616
  715SOL    HW1 3085   0.719   3.312   4.499 -1.1091  1.9280 -3.9865
  715SOL    HW2 3086   0.570   3.284   4.499 -0.6483 -1.1209 -1.0942
  716SOL     OW 3087   2.504   4.869   4.889 -0.7658  0.2272 -0.2145
  716SOL    HW1 3088   2.568   4.888   4.957 -0.3385  1.1166 -0.8400
  716SOL    HW2 3089   2.437   4.816   4.932  1.3218 -2.4285 -0.0207
  717SOL     OW 3090   4.668   1.046   1.885  0.3075 -0.2961  0.7210
  717SOL    HW1 3091   4.649   1.117   1.947  2.7981 -0.8584  2.2591
  717SOL    HW2 3092   4.727   1.086   1.821 -0.9756 -0.1445 -0.3971
  718SOL     OW 3093   0.194   4.567   2.905  0.1427  0.1289 -0.2732
  718SOL    HW1 3094   0.169   4.604   2.990 -2.6413 -1.7216 -0.1788
  718SOL    HW2 3095   0.156   4.625   2.840 -0.9657 -0.4680 -0.1738
  719SOL     OW 3096   6.069   0.809   1.628  0.1367  0.5284  0.0420
  719SOL    HW1 3097   6.159   0.832   1.648  0.1813  0.6960 -0.3401
  719SOL    HW2 3098   6.037   0.765   1.707  1.1387 -1.2319 -0.4739
  720SOL     OW 3099   7.391   2.855   4.963 -0.0179 -0.2293 -0.4798
  720SOL    HW1 3100   7.307   2.840   4.919 -0.1546 -0.4721 -0.1376
  720SOL    HW2 3101   7.453   2.800   4.916  0.2031  0.8592 -1.5096
  721SOL     OW 3102   5.537   1.418   1.489  0.1189 -0.5547  0.4474
  721SOL    HW1 3103   5.555   1.465   1.571  0.5820 -1.3544  0.8139
  721SOL    HW2 3104   5.519   1.328   1.516 -1.7881 -0.3918 -0.1611
  722SOL     OW 3105   2.333   5.018   6.346  0.2856 -0.6329 -0.1333
  722SOL    HW1 3106   2.315   4.925   6.361  1.8897 -1.0186 -0.4538
  722SOL    HW2 3107   2.423   5.031   6.375 -0.3183  1.1364  1.1305
  723SOL     OW 3108   3.543   6.056   1.923  0.1831  0.0497 -0.0779
  723SOL    HW1 3109   3.609   5.988   1.939 -0.2747 -0.6778 -1.1566
  723SOL    HW2 3110   3.518   6.087   2.010  2.8923  1.3041  0.3944
  724SOL     OW 3111   5.458   3.011   2.666  0.1356  0.5467 -0.5206
  724SOL    HW1 3112   5.369   3.013   2.631 -0.5218  0.6386  1.0724
  724SOL    HW2 3113   5.453   2.953   2.742  1.2410  1.2239  0.1047
  725SOL     OW 3114   3.604   2.686   6.975  0.1758 -0.1774 -0.6210
  725SOL    HW1 3115   3.541   2.744   6.932  1.3007  1.1965 -0.4746
  725SOL    HW2 3116   3.645   2.638   6.903  1.6514  1.7067 -1.1117
  726SOL     OW 3117   7.254   7.338   2.531 -0.4282 -0.5021  0.3120
  726SOL    HW1 3118   7.162   7.327   2.555 -1.9550  3.6736 -2.4780
  726SOL    HW2 3119   7.281   7.419   2.574  1.0458 -0.2338 -1.0205
  727SOL     OW 3120   6.760   1.601   6.345 -0.2254  0.3945 -0.3004
  727SOL    HW1 3121   6.691   1.578   6.407 -0.7349  0.2614 -0.9140
  727SOL    HW2 3122   6.738   1.689   6.316 -0.6780 -0.0110 -1.2199
  728SOL     OW 3123   2.061   3.408   4.226  0.0562 -0.3577  0.0852
  728SOL    HW1 3124   2.135   3.402   4.166  1.1288  0.5582  1.2361
  728SOL    HW2 3125   2.032   3.317   4.238  0.2845 -0.6166 -1.2206
  729SOL     OW 3126   1.990   7.096   7.343 -0.3740  0.6472  0.1969
  729SOL    HW1 3127   1.925   7.044   7.391 -0.0946  1.4306  1.4760
  729SOL    HW2 3128   1.948   7.116   7.259  0.0101 -2.7215 -0.9444
  730SOL     OW 3129   5.611   6.504   0.621  0.7042  0.2219  0.0022
  730SOL    HW1 3130   5.549   6.437   0.652  0.0461 -0.4304 -2.4679
  730SOL    HW2 3131   5.558   6.584   0.614  0.9681  0.4869  0.9642
  731SOL     OW 3132   1.614   6.917   2.552  0.2992 -0.2396 -0.3802
  731SOL    HW1 3133   1.554   6.898   2.479  0.0059  0.3340 -0.2938
  731SOL    HW2 3134   1.649   6.832   2.576 -1.2121 -0.7269  0.1985
  732SOL     OW 3135   6.330   6.215   5.471  0.1369  0.1748 -0.2418
  732SOL    HW1 3136   6.294   6.160   5.402 -1.1432  1.3125 -0.5392
  732SOL    HW2 3137   6.355   6.296   5.427  1.4649  0.0775  0.2763
  733SOL     OW 3138   5.482   7.182   0.985 -0.6750  0.2662 -1.2671
  733SOL    HW1 3139   5.427   7.128   0.928 -0.6573 -0.8748 -0.2476
  733SOL    HW2 3140   5.505   7.124   1.058  2.3014  0.5128 -1.8740
  734SOL     OW 3141   0.039   2.097   6.483 -0.3646 -0.1333 -0.0477
  734SOL    HW1 3142  -0.045   2.102   6.438 -0.0329  1.3942 -0.5530
  734SOL    HW2 3143   0.044   2.178   6.533  0.1245 -0.9393  1.2527
  735SOL     OW 3144   2.744   6.972   5.013  1.0019 -0.1781 -0.1957
  735SOL    HW1 3145   2.724   6.886   4.976  0.4500 -0.8399  1.5411
  735SOL    HW2 3146   2.776   7.024   4.939  0.3742 -1.5613 -1.4709
  736SOL     OW 3147   0.281   4.568   6.372 -0.4081 -0.5711  0.3878
  736SOL    HW1 3148   0.306   4.624   6.446  0.7881 -0.0459 -0.3777
  736SOL    HW2 3149   0.311   4.481   6.396  3.8938  0.2600 -1.1220
  737SOL     OW 3150   0.529   0.477   3.935 -0.3585  0.2902  0.3264
  737SOL    HW1 3151   0.477   0.399   3.916  0.1612  0.4140 -1.9515
  737SOL    HW2 3152   0.617   0.442   3.952 -0.4450  0.3031  0.8236
  738SOL     OW 3153   6.497   3.955   4.402 -0.3715 -0.2932  0.1262
  738SOL    HW1 3154   6.509   4.046   4.429 -0.5570 -0.4847  0.8844
  738SOL    HW2 3155   6.529   3.903   4.476 -0.5810 -0.8398 -0.1561
  739SOL     OW 3156   5.645   6.712   5.777  0.0032 -0.0759 -0.5955
  739SOL    HW1 3157   5.633   6.648   5.707  0.6784  1.4963 -2.2408
  739SOL    HW2 3158   5.606   6.793   5.742  1.7929  1.1680  0.1524
  740SOL     OW 3159   3.338   4.837   3.060  0.0871 -0.7756  0.1068
  740SOL    HW1 3160   3.379   4.923   3.066 -0.0522 -0.7079  0.0916
  740SOL    HW2 3161   3.251   4.849   3.099 -1.3779  0.0317 -3.0248
  741SOL     OW 3162   4.584   3.746   1.062 -0.1453 -0.1279 -0.1633
  741SOL    HW1 3163   4.639   3.809   1.108 -0.0334 -0.1132 -0.3166
  741SOL    HW2 3164   4.644   3.700   1.004 -0.7383  1.9241 -2.5824
  742SOL     OW 3165   3.071   7.150   1.730 -0.2151 -0.3633  0.2167
  742SOL    HW1 3166   3.012   7.153   1.805  0.1035  0.2431  0.4456
  742SOL    HW2 3167   3.014   7.129   1.656 -0.7482  0.3966  0.4074
  743SOL     OW 3168   1.058   6.917   6.117  0.4199 -0.2172  0.0930
  743SOL    HW1 3169   1.142   6.872   6.118  1.4984  1.6844 -0.2710
  743SOL    HW2 3170   1.024   6.904   6.029 -0.0928 -1.6661  0.4770
  744SOL     OW 3171   5.080   4.121   5.845 -0.4078  0.2698 -0.5599
  744SOL    HW1 3172   5.032   4.045   5.878 -1.0926  0.3900 -1.2538
  744SOL    HW2 3173   5.169   4.110   5.880 -0.8423 -0.1374  0.4494
  745SOL     OW 3174   1.990   3.211   5.255 -0.5819 -0.5910  0.0626
  745SOL    HW1 3175   1.986   3.119   5.229 -0.6977 -0.2465 -1.2382
  745SOL    HW2 3176   2.078   3.223   5.289 -0.1058 -0.8935 -1.0132
  746SOL     OW 3177   2.671   1.408   6.089 -0.3697  0.2649  0.1065
  746SOL    HW1 3178   2.743   1.375   6.034 -1.5955  0.2100 -1.5472
  746SOL    HW2 3179   2.608   1.444   6.026 -1.1579  1.6030  1.5987
  747SOL     OW 3180   4.150   1.904   0.418  0.8521 -0.0898  0.5850
  747SOL    HW1 3181   4.182   1.983   0.374  0.0757  0.2786  0.6578
  747SOL    HW2 3182   4.174   1.833   0.359 -1.9255  0.5445 -1.5506
  748SOL     OW 3183   0.236   6.600   4.074  0.1166  0.2172 -0.1389
  748SOL    HW1 3184   0.227   6.511   4.107  2.3326  0.3615  1.0290
  748SOL    HW2 3185   0.177   6.652   4.128  0.5154 -0.2061  0.7204
  749SOL     OW 3186   3.525   7.061   5.580 -0.4347  0.0034 -0.2032
  749SOL    HW1 3187   3.620   7.056   5.594  0.5171  0.1470 -5.0561
  749SOL    HW2 3188   3.493   6.974   5.605  1.2690 -0.6658 -0.2325
  750SOL     OW 3189   6.236   1.392   1.586 -0.3208  0.3150 -0.3766
  750SOL    HW1 3190   6.249   1.375   1.492  0.4685  1.8365 -0.5775
  750SOL    HW2 3191   6.217   1.485   1.591  0.6209  0.4595  1.0676
  751SOL     OW 3192   7.182   3.662   0.940 -0.0930 -0.1680 -0.0477
  751SOL    HW1 3193   7.180   3.664   1.035 -0.0680 -1.1880 -0.0095
  751SOL    HW2 3194   7.103   3.613   0.915 -0.0779  0.0518 -0.5499
  752SOL     OW 3195   2.930   6.618   5.233  0.0910 -0.1923  0.2620
  752SOL    HW1 3196   3.005   6.634   5.289  0.2176  2.7408 -0.5550
  752SOL    HW2 3197   2.869   6.689   5.253 -1.6817 -1.4392 -0.4016
  753SOL     OW 3198   4.607   2.061   1.754  0.8093 -0.2013 -0.3133
  753SOL    HW1 3199   4.599   2.151   1.785 -2.0192 -0.9239  1.3969
  753SOL    HW2 3200   4.656   2.015   1.823  1.1501 -0.2736 -0.5942
  754SOL     OW 3201   4.465   3.742   0.217  0.0793 -0.2882 -0.1838
  754SOL    HW1 3202   4.496   3.675   0.156 -0.1597  0.5705 -1.2927
  754SOL    HW2 3203   4.492   3.711   0.303 -0.9376 -2.3414 -0.5243
  755SOL     OW 3204   2.003   2.545   5.267 -0.6429 -0.4285 -0.4376
  755SOL    HW1 3205   1.940   2.616   5.265 -0.9151 -0.5631  1.4036
  755SOL    HW2 3206   2.080   2.579   5.223 -0.7292  1.0749  0.5091
  756SOL     OW 3207   3.086   3.601   6.290  0.0140  0.0247  0.1190
  756SOL    HW1 3208   3.027   3.663   6.333 -0.4681 -1.9681  2.5657
  756SOL    HW2 3209   3.029   3.532   6.257  0.6731  0.0143 -1.0312
  757SOL     OW 3210   2.644   6.051   3.148  0.1836  0.3215  0.0375
  757SOL    HW1 3211   2.587   6.118   3.186 -1.9767 -1.4846  0.1706
  757SOL    HW2 3212   2.584   5.992   3.101  2.2610 -0.1418 -2.2671
  758SOL     OW 3213   7.327   3.852   0.656 -0.1146  0.2755  0.3599
  758SOL    HW1 3214   7.388   3.809   0.717  0.9485  2.7957  1.2238
  758SOL    HW2 3215   7.371   3.848   0.571  0.6663  0.9100  0.7221
  759SOL     OW 3216   3.966   4.497   0.155  0.6414  0.4619 -0.1015
  759SOL    HW1 3217   3.977   4.592   0.162 -1.9270  0.8069  0.5256
  759SOL    HW2 3218   3.933   4.470   0.240 -0.8536 -0.5864 -0.9579
  760SOL     OW 3219   6.751   1.954   3.607  0.0322  0.0586  0.2032
  760SOL    HW1 3220   6.690   1.910   3.548  0.3452 -2.5579  1.6760
  760SOL    HW2 3221   6.779   2.032   3.559 -0.5500 -1.3445 -2.6409
  761SOL     OW 3222   2.560   6.003   0.065  0.6304 -0.5114 -0.0480
  761SOL    HW1 3223   2.551   6.061   0.141 -0.7015  0.4726 -0.9102
  761SOL    HW2 3224   2.617   6.051   0.005 -0.0687 -0.3005 -0.5546
  762SOL     OW 3225   3.656   4.645   4.107 -0.0806 -0.3429 -0.3630
  762SOL    HW1 3226   3.602   4.724   4.109  0.2516 -0.1141  1.8573
  762SOL    HW2 3227   3.622   4.595   4.032  0.1885  2.1902 -2.3025
  763SOL     OW 3228   4.243   0.810   4.329  0.2773 -0.0407  0.2948
  763SOL    HW1 3229   4.162   0.760   4.338 -0.3368  1.0819  1.2083
  763SOL    HW2 3230   4.287   0.800   4.413  1.2455 -0.8395 -0.2723
  764SOL     OW 3231   6.178   1.071   2.261 -0.2562 -0.2287  0.2219
  764SOL    HW1 3232   6.219   1.133   2.322  0.4995 -1.1416  0.6706
  764SOL    HW2 3233   6.249   1.049   2.199 -1.0222  0.7317 -1.0452
  765SOL     OW 3234   7.349   1.711   5.966 -0.4012 -0.3398  1.1030
  765SOL    HW1 3235   7.350   1.759   5.883  0.8651 -1.8382  0.2037
  765SOL    HW2 3236   7.273   1.653   5.959  0.6490 -1.6901  0.1896
  766SOL     OW 3237   1.171   0.141   1.374  0.0773  0.5033 -0.1671
  766SOL    HW1 3238   1.168   0.132   1.470 -1.5496  3.6622  0.1977
  766SOL    HW2 3239   1.111   0.073   1.342 -1.1845  0.9047  1.2402
  767SOL     OW 3240   4.171   1.574   4.923  0.6419  0.3093 -0.0787
  767SOL    HW1 3241   4.186   1.501   4.863  1.2345  0.4672 -0.1298
  767SOL    HW2 3242   4.088   1.553   4.967 -1.1045  1.3621 -2.6564
  768SOL     OW 3243   1.282   6.236   1.987  0.3616  0.5279  0.1451
  768SOL    HW1 3244   1.285   6.250   2.081 -0.7951  1.6533  0.0420
  768SOL    HW2 3245   1.299   6.323   1.950  0.3275  0.1921 -0.6801
  769SOL     OW 3246   3.211   5.813   2.903 -0.0822 -0.4229  0.3656
  769SOL    HW1 3247   3.261   5.745   2.858  0.3961 -0.4230  0.8923
  769SOL    HW2 3248   3.259   5.894   2.887  0.3245 -0.4840  1.2076
  770SOL     OW 3249   7.118   4.509   2.263  0.1596  0.0898 -0.0791
  770SOL    HW1 3250   7.213   4.519   2.272  0.3181 -0.5189 -0.9648
  770SOL    HW2 3251   7.101   4.418   2.284 -0.3579  0.4017  0.9204
  771SOL     OW 3252   1.152   2.596   4.507  0.0788 -0.1382 -0.0991
  771SOL    HW1 3253   1.188   2.669   4.455 -2.7849  1.7462  0.3331
  771SOL    HW2 3254   1.154   2.628   4.597  2.0889 -2.1286  0.6503
  772SOL     OW 3255   6.925   3.759   5.626  0.3498  0.1410 -0.7145
  772SOL    HW1 3256   6.848   3.702   5.625  0.4147  0.0214  0.2961
  772SOL    HW2 3257   6.890   3.847   5.611 -0.0176  0.1173 -0.0227
  773SOL     OW 3258   1.586   4.328   5.108 -0.2663 -1.1390 -0.3358
  773SOL    HW1 3259   1.495   4.357   5.102 -0.4075 -1.7139 -1.1212
  773SOL    HW2 3260   1.618   4.331   5.018  0.1306 -2.0761 -0.2399
  774SOL     OW 3261   1.982   6.263   5.360  0.3129 -0.8211  0.0363
  774SOL    HW1 3262   1.933   6.233   5.437 -0.6730 -0.0829 -0.2872
  774SOL    HW2 3263   2.049   6.322   5.396  1.2728 -2.1455  0.5203
  775SOL     OW 3264   1.338   3.001   1.257 -0.4741  0.3967  0.1858
  775SOL    HW1 3265   1.299   2.920   1.290  0.1946 -0.1191 -0.2527
  775SOL    HW2 3266   1.419   2.973   1.214  0.8890  1.5070  1.8392
  776SOL     OW 3267   0.198   4.235   5.030 -0.1136  0.3527 -0.2143
  776SOL    HW1 3268   0.248   4.297   5.083  1.0526 -1.0840  0.4174
  776SOL    HW2 3269   0.149   4.183   5.094  0.4125 -0.6298 -0.5815
  777SOL     OW 3270   0.006   0.838   5.535 -0.3382  0.0109  0.1881
  777SOL    HW1 3271  -0.013   0.840   5.441 -1.5785 -1.9764  0.3303
  777SOL    HW2 3272  -0.016   0.926   5.566 -0.2696  0.5852 -1.2867
  778SOL     OW 3273   2.954   5.730   3.756 -0.1981  0.3808 -0.0355
  778SOL    HW1 3274   2.929   5.736   3.848 -1.3065 -1.4311 -0.1714
  778SOL    HW2 3275   2.872   5.716   3.709  0.6599 -3.3941 -0.7490
  779SOL     OW 3276   3.257   0.010   2.519 -0.1667  0.0101 -0.0201
  779SOL    HW1 3277   3.208  -0.014   2.440  0.6396 -0.1589 -0.4834
  779SOL    HW2 3278   3.339  -0.039   2.512 -0.7612 -1.3082  1.7732
  780SOL     OW 3279   7.381   3.904   2.930  0.3018 -0.2336  0.5175
  780SOL    HW1 3280   7.447   3.959   2.888 -0.6723  0.1931 -0.5183
  780SOL    HW2 3281   7.362   3.948   3.013  1.2956 -0.3492  0.8108
  781SOL     OW 3282   6.519   1.865   2.715  0.1435  0.1954 -0.0588
  781SOL    HW1 3283   6.499   1.835   2.626 -1.7886 -1.7099  0.9189
  781SOL    HW2 3284   6.467   1.945   2.726 -0.4928 -0.1793 -0.2964
  782SOL     OW 3285   0.182   2.232   3.777  0.6011 -0.2613  0.3109
  782SOL    HW1 3286   0.257   2.266   3.728 -0.0675  1.4939  0.4309
  782SOL    HW2 3287   0.110   2.234   3.713  0.4512 -1.1086  0.4445
  783SOL     OW 3288   2.995   4.729   3.670  0.0714 -0.6613  0.9188
  783SOL    HW1 3289   3.049   4.775   3.606 -1.2503  0.2053  0.4002
  783SOL    HW2 3290   3.021   4.767   3.754 -0.6680  0.7448  0.5404
  784SOL     OW 3291   4.704   5.859   4.407  0.4889 -0.0981  0.0076
  784SOL    HW1 3292   4.723   5.892   4.495  0.6188 -0.0543 -0.0364
  784SOL    HW2 3293   4.671   5.935   4.359  1.8715  0.2674 -0.4324
  785SOL     OW 3294   6.837   1.476   5.750 -0.0252  0.3091 -0.4503
  785SOL    HW1 3295   6.762   1.449   5.802  0.2988 -0.1252 -0.2029
  785SOL    HW2 3296   6.816   1.446   5.661 -0.8841  1.6508 -0.7276
  786SOL     OW 3297   1.662   3.352   7.368 -0.4305 -0.0899  0.3064
  786SOL    HW1 3298   1.742   3.306   7.395  1.4578  2.0980 -1.1768
  786SOL    HW2 3299   1.693   3.431   7.324 -3.4549  0.9759 -0.1761
  787SOL     OW 3300   3.025   0.485   0.766 -0.0161  0.5293  0.2566
  787SOL    HW1 3301   3.093   0.435   0.811  0.6714 -1.2805 -2.5548
  787SOL    HW2 3302   2.946   0.433   0.777 -0.5217  1.5594  1.7309
  788SOL     OW 3303   6.755   1.871   6.957 -0.3554  0.0452  0.1466
  788SOL    HW1 3304   6.721   1.822   7.032 -0.1487 -0.1685  0.0993
  788SOL    HW2 3305   6.691   1.941   6.944  0.1655  0.7504  1.2102
  789SOL     OW 3306   1.693   2.760   4.528  0.6371  0.1385 -0.3701
  789SOL    HW1 3307   1.751   2.833   4.507  0.7093  0.2248  0.1320
  789SOL    HW2 3308   1.713   2.694   4.462  1.4739  0.0736 -0.0600
  790SOL     OW 3309   3.927   1.948   0.621 -0.3334 -0.0085 -0.1613
  790SOL    HW1 3310   4.009   1.919   0.580 -1.2031 -3.7729  0.4248
  790SOL    HW2 3311   3.859   1.926   0.558 -1.1645 -0.3366  0.8188
  791SOL     OW 3312   0.914   6.252   5.358  0.0616  0.3961 -0.0932
  791SOL    HW1 3313   0.865   6.333   5.342 -0.6822 -0.0881 -0.2427
  791SOL    HW2 3314   0.964   6.238   5.277  1.3203  1.4706  0.4423
  792SOL     OW 3315   6.691   4.716   1.652 -0.0908 -0.0846 -0.1199
  792SOL    HW1 3316   6.602   4.737   1.624  0.2105 -0.2899 -1.2643
  792SOL    HW2 3317   6.680   4.664   1.732 -0.9916 -0.1656 -0.2960
  793SOL     OW 3318   2.077   5.541   2.081  0.6109  0.3528 -0.3618
  793SOL    HW1 3319   2.027   5.540   2.163 -0.8618  0.0547 -1.2350
  793SOL    HW2 3320   2.049   5.463   2.034 -0.5896  1.8400 -2.2874
  794SOL     OW 3321   6.782   0.460   5.632 -0.3682  0.3705 -0.5537
  794SOL    HW1 3322   6.835   0.481   5.555  0.5890  1.2283  0.3041
  794SOL    HW2 3323   6.761   0.545   5.671  0.4709 -0.0819  0.9743
  795SOL     OW 3324   3.983   0.424   2.009  0.2541 -0.0359  0.2960
  795SOL    HW1 3325   4.073   0.398   1.989  1.0784  0.6308  2.7634
  795SOL    HW2 3326   3.935   0.341   2.014  1.0211 -0.5006  0.1655
  796SOL     OW 3327   5.969   4.739   1.833 -0.2590  0.2117  0.0724
  796SOL    HW1 3328   5.876   4.757   1.844 -0.5918 -0.9388 -0.6787
  796SOL    HW2 3329   5.987   4.762   1.742 -0.8219 -3.3900 -1.1036
  797SOL     OW 3330   4.601   1.102   4.633  0.0718  0.5404 -0.1383
  797SOL    HW1 3331   4.508   1.095   4.613 -0.0423  0.4186  0.4218
  797SOL    HW2 3332   4.629   1.184   4.592 -0.4513  0.9629  0.3480
  798SOL     OW 3333   4.563   7.204   6.135 -0.1778 -0.3796 -0.0587
  798SOL    HW1 3334   4.477   7.198   6.178 -0.1511 -0.2075  0.0180
  798SOL    HW2 3335   4.571   7.121   6.087 -0.3558 -0.4273 -0.0082
  799SOL     OW 3336   6.690   1.682   2.397 -0.0459  0.1470  0.0038
  799SOL    HW1 3337   6.765   1.626   2.418  0.0299  0.4898  0.6938
  799SOL    HW2 3338   6.617   1.644   2.446  0.0483  0.7458  0.6269
  800SOL     OW 3339   4.544   4.336   4.167  0.7614 -0.4689 -0.0619
  800SOL    HW1 3340   4.605   4.368   4.101  1.5734  0.8229  1.2496
  800SOL    HW2 3341   4.475   4.402   4.171 -0.0559 -1.2647 -0.6036
  801SOL     OW 3342   4.676   0.151   5.863  0.0255  0.1677 -0.2943
  801SOL    HW1 3343   4.713   0.084   5.805  0.1593 -0.2575  0.2815
  801SOL    HW2 3344   4.635   0.214   5.803 -1.4791 -1.2244 -0.7750
  802SOL     OW 3345   6.071   2.489   5.691 -0.1497  0.2800  0.0604
  802SOL    HW1 3346   6.015   2.469   5.767  0.9822 -0.4134  0.7352
  802SOL    HW2 3347   6.025   2.448   5.617  0.6361 -2.4831  0.9732
  803SOL     OW 3348   1.831   3.249   1.464  0.4304 -0.0239  0.1174
  803SOL    HW1 3349   1.856   3.214   1.549  0.5714 -1.1501 -0.3737
  803SOL    HW2 3350   1.899   3.219   1.404 -0.2417 -0.1840 -0.5885
  804SOL     OW 3351   3.227   5.637   5.920  0.1105  0.2052  0.3194
  804SOL    HW1 3352   3.172   5.714   5.939 -0.5944  0.3348 -1.9188
  804SOL    HW2 3353   3.308   5.674   5.884  0.6277 -0.0697  1.1666
  805SOL     OW 3354   5.454   6.453   6.161  0.5038  0.3416 -0.3164
  805SOL    HW1 3355   5.405   6.386   6.209  0.7772 -0.1765 -0.7435
  805SOL    HW2 3356   5.546   6.432   6.179  0.5844  1.4401  0.6633
  806SOL     OW 3357   2.280   4.375   0.368  0.1789  0.5723 -0.2812
  806SOL    HW1 3358   2.333   4.410   0.297 -0.0589 -0.2790 -0.8957
  806SOL    HW2 3359   2.251   4.289   0.337 -2.5293  1.4386 -0.4898
  807SOL     OW 3360   4.874   4.273   0.119  0.2026  0.0869 -0.9052
  807SOL    HW1 3361   4.919   4.250   0.037  1.7855  1.3808 -0.4528
  807SOL    HW2 3362   4.928   4.342   0.157 -1.8613  1.2645  0.0182
  808SOL     OW 3363   3.468   3.913   5.297 -0.3083 -0.0663 -0.2336
  808SOL    HW1 3364   3.438   3.942   5.211  1.8958  1.4769 -0.5683
  808SOL    HW2 3365   3.529   3.842   5.279  0.4593  0.5180 -0.0097
  809SOL     OW 3366   2.940   6.033   7.352 -0.6118  0.1519 -0.5567
  809SOL    HW1 3367   2.866   6.094   7.354 -0.7753 -0.0215 -1.0232
  809SOL    HW2 3368   2.982   6.049   7.268  0.6534  1.1339  0.2455
  810SOL     OW 3369   5.259   2.464   3.902 -0.1225  0.3874  0.4506
  810SOL    HW1 3370   5.318   2.493   3.832  0.8986 -0.0825  1.1037
  810SOL    HW2 3371   5.304   2.487   3.983 -0.6036 -0.4221  0.9623
  811SOL     OW 3372   5.204   5.722   4.793  0.7574  0.1233  0.1772
  811SOL    HW1 3373   5.172   5.645   4.745 -2.7457  1.3987  0.1755
  811SOL    HW2 3374   5.162   5.715   4.878 -0.7128  2.5993 -0.2583
  812SOL     OW 3375   0.938   6.847   5.898  1.0034  0.0557 -0.1760
  812SOL    HW1 3376   0.883   6.915   5.861  1.5942  0.7648  0.2114
  812SOL    HW2 3377   0.990   6.815   5.824  0.1364 -0.5782 -0.5291
  813SOL     OW 3378   3.342   2.137   3.675 -0.1245 -0.5017  0.1724
  813SOL    HW1 3379   3.292   2.174   3.603  2.3605 -1.8451 -2.4529
  813SOL    HW2 3380   3.298   2.054   3.695  1.6573 -2.4899 -3.2305
  814SOL     OW 3381   1.044   5.731   6.320 -0.3380  0.3629  0.0221
  814SOL    HW1 3382   1.031   5.790   6.247  1.6770  0.7791 -0.0326
  814SOL    HW2 3383   1.039   5.643   6.281  1.8257  0.5798 -0.8841
  815SOL     OW 3384   2.291   1.204   6.181  0.4548  0.0994  0.4625
  815SOL    HW1 3385   2.292   1.217   6.086  0.0495 -1.1647  0.2609
  815SOL    HW2 3386   2.257   1.286   6.217 -1.5986 -0.1892 -0.6603
  816SOL     OW 3387   1.437   1.146   5.223  0.3768  0.8822  0.2169
  816SOL    HW1 3388   1.381   1.200   5.167 -1.0406  0.6398  1.3527
  816SOL    HW2 3389   1.427   1.183   5.310 -1.3478 -1.6823  1.2177
  817SOL     OW 3390   4.709   3.433   4.622 -0.3425 -0.1725 -0.0060
  817SOL    HW1 3391   4.674   3.417   4.710 -0.8732  1.7047  0.1578
  817SOL    HW2 3392   4.651   3.499   4.584 -2.1580 -3.2246 -3.1045
  818SOL     OW 3393   2.797   4.018   6.503 -0.1413 -0.7170 -0.4733
  818SOL    HW1 3394   2.802   3.927   6.475 -0.3643 -0.7615 -0.3639
  818SOL    HW2 3395   2.874   4.030   6.559  0.3025 -0.6320 -1.0825
  819SOL     OW 3396   0.203   5.675   2.713  0.5617 -0.2208 -0.4599
  819SOL    HW1 3397   0.189   5.703   2.623  1.3769  0.3269 -0.4314
  819SOL    HW2 3398   0.196   5.580   2.710  0.1410 -0.1772 -1.0185
  820SOL     OW 3399   2.003   4.112   3.260  0.1062  0.1868 -0.3925
  820SOL    HW1 3400   2.096   4.107   3.283  0.0637 -1.4536 -0.4357
  820SOL    HW2 3401   1.999   4.076   3.172 -0.6009  0.0653 -0.3116
  821SOL     OW 3402   3.885   1.714   6.933  0.0349  0.4939 -0.0183
  821SOL    HW1 3403   3.937   1.779   6.980 -0.4149  0.7687  0.1029
  821SOL    HW2 3404   3.835   1.764   6.868  1.2813  0.0332 -1.3994
  822SOL     OW 3405   6.537   2.114   1.981  0.1469 -0.3603 -0.3551
  822SOL    HW1 3406   6.548   2.056   1.906 -1.7134 -0.5053 -0.5637
  822SOL    HW2 3407   6.530   2.202   1.943 -0.0778 -0.3483 -0.2852
  823SOL     OW 3408   6.404   4.830   4.001  0.0778  0.0326  0.1392
  823SOL    HW1 3409   6.477   4.854   4.058 -0.1718  1.3222 -0.0508
  823SOL    HW2 3410   6.433   4.853   3.913 -0.4931  0.4361  0.0488
  824SOL     OW 3411   5.318   7.366   0.644  0.1409 -0.0587 -0.2933
  824SOL    HW1 3412   5.373   7.288   0.633  2.0071  1.1650 -0.1524
  824SOL    HW2 3413   5.381   7.437   0.657 -1.5181  1.1207  1.9175
  825SOL     OW 3414   1.091   6.974   3.151 -0.0609  0.5144  0.2053
  825SOL    HW1 3415   1.039   6.985   3.230 -0.6920  1.0962 -0.2778
  825SOL    HW2 3416   1.034   7.005   3.080  0.5639  0.1896 -0.4527
  826SOL     OW 3417   2.635   6.302   5.658  0.0410 -0.1123 -0.0422
  826SOL    HW1 3418   2.676   6.259   5.583  0.9240  2.9337 -1.4525
  826SOL    HW2 3419   2.643   6.396   5.640 -5.0049  0.8063  1.0354
  827SOL     OW 3420   3.359   6.141   1.729  0.3190 -0.5675  0.4269
  827SOL    HW1 3421   3.388   6.062   1.684  1.8993 -0.1239  0.5924
  827SOL    HW2 3422   3.419   6.150   1.803 -1.2568 -0.4258  1.7365
  828SOL     OW 3423   3.807   1.646   5.942 -0.0821 -0.4762  0.1302
  828SOL    HW1 3424   3.887   1.595   5.944  0.7405  0.7759  0.2147
  828SOL    HW2 3425   3.818   1.711   6.012 -0.5689  0.5881 -0.7504
  829SOL     OW 3426   6.849   7.143   6.612  0.0031 -0.0017 -0.0139
  829SOL    HW1 3427   6.828   7.152   6.519 -1.4849  0.0703  0.3015
  829SOL    HW2 3428   6.771   7.103   6.651  0.1323  1.0424  1.4030
  830SOL     OW 3429   7.393   3.249   1.835  0.2071 -0.3426 -0.2818
  830SOL    HW1 3430   7.377   3.341   1.858  1.6092 -0.5361  1.7175
  830SOL    HW2 3431   7.308   3.217   1.807 -0.5755  1.2762  0.0863
  831SOL     OW 3432   2.210   2.348   1.338 -0.5818  0.1524  0.5336
  831SOL    HW1 3433   2.153   2.424   1.332  0.4495  1.2470  3.0594
  831SOL    HW2 3434   2.278   2.373   1.401  1.4943 -1.8402 -0.7190
  832SOL     OW 3435   2.332   6.444   5.945  0.2137 -0.0711  0.1718
  832SOL    HW1 3436   2.329   6.398   6.028  0.3062  1.5487  1.1258
  832SOL    HW2 3437   2.280   6.524   5.959  0.3219  0.3015 -1.2840
  833SOL     OW 3438   1.229   3.557   2.041 -0.3713  0.1459  0.1303
  833SOL    HW1 3439   1.151   3.522   2.085 -1.2288  1.2066 -0.5129
  833SOL    HW2 3440   1.227   3.517   1.954 -0.8569  1.0711 -0.2932
  834SOL     OW 3441   6.426   3.544   5.986 -0.0540 -0.6853 -0.2420
  834SOL    HW1 3442   6.411   3.451   6.003  2.7728 -1.2277 -0.1577
  834SOL    HW2 3443   6.466   3.577   6.067 -1.5620  0.8026 -0.0463
  835SOL     OW 3444   4.985   4.268   4.619 -0.0187 -0.2961  0.6549
  835SOL    HW1 3445   5.072   4.238   4.593 -0.2435 -0.0084 -0.4756
  835SOL    HW2 3446   4.995   4.362   4.634 -0.2528 -0.1466 -0.0753
  836SOL     OW 3447   4.629   2.808   0.157 -0.0373 -0.0464  0.3629
  836SOL    HW1 3448   4.712   2.790   0.200 -0.3479 -0.3936  0.8346
  836SOL    HW2 3449   4.642   2.891   0.111  0.8225 -0.5156 -0.2589
  837SOL     OW 3450   3.168   0.358   1.742  0.2529  0.2338 -0.0212
  837SOL    HW1 3451   3.074   0.360   1.724  0.1337  0.5883  0.6090
  837SOL    HW2 3452   3.189   0.265   1.751 -0.1482  0.1801  0.3838
  838SOL     OW 3453   6.468   7.159   4.814  0.0588 -0.2133  0.3904
  838SOL    HW1 3454   6.452   7.176   4.721 -1.1231  0.7849  0.7438
  838SOL    HW2 3455   6.563   7.147   4.820  0.2122  0.1505 -0.8780
  839SOL     OW 3456   3.991   1.391   6.974  0.3245  0.0607 -0.1752
  839SOL    HW1 3457   3.997   1.341   7.056  0.0247  0.7843  0.3019
  839SOL    HW2 3458   3.903   1.374   6.942  0.6148 -0.6365 -0.6317
  840SOL     OW 3459   0.656   5.263   4.994  0.0137 -0.0026 -0.3595
  840SOL    HW1 3460   0.663   5.353   4.961 -1.6879  0.4621  0.4832
  840SOL    HW2 3461   0.724   5.257   5.061 -1.3617  1.4474  1.2476
  841SOL     OW 3462   4.448   4.826   1.452 -0.4839 -0.1076  0.0233
  841SOL    HW1 3463   4.501   4.899   1.484  1.1121 -1.2844  0.2171
  841SOL    HW2 3464   4.426   4.776   1.530 -0.3172 -0.6126 -0.2472
  842SOL     OW 3465   3.012   2.750   5.988 -0.3193 -0.3086 -0.6165
  842SOL    HW1 3466   3.073   2.782   5.921 -1.5283  1.8734 -0.7487
  842SOL    HW2 3467   3.014   2.655   5.977  3.5400 -0.4472 -0.1474
  843SOL     OW 3468   4.014   3.736   0.413  0.2770  0.4573  0.2534
  843SOL    HW1 3469   4.050   3.780   0.336 -0.3365 -0.4371 -0.5682
  843SOL    HW2 3470   4.065   3.770   0.486  0.8303  1.3748 -0.5382
  844SOL     OW 3471   3.075   7.400   2.328 -0.2578 -0.1158 -0.1800
  844SOL    HW1 3472   3.090   7.476   2.272  1.4656 -0.3302 -0.0533
  844SOL    HW2 3473   2.980   7.388   2.328 -0.4965  1.5835 -0.7868
  845SOL     OW 3474   6.266   3.213   2.379  0.4411 -0.3372 -0.0283
  845SOL    HW1 3475   6.298   3.287   2.327 -1.2076  0.2708 -0.2250
  845SOL    HW2 3476   6.292   3.136   2.329  2.8277  0.0051  0.5371
  846SOL     OW 3477   0.601   3.743   5.109 -0.3200  0.1545  0.8110
  846SOL    HW1 3478   0.674   3.727   5.169 -0.0606 -1.1137  0.1897
  846SOL    HW2 3479   0.636   3.803   5.044  0.4037 -0.9876  0.1259
  847SOL     OW 3480   1.853   0.333   6.601 -0.3730 -0.4009  0.1395
  847SOL    HW1 3481   1.840   0.305   6.510  1.0367  0.6678 -0.4231
  847SOL    HW2 3482   1.945   0.359   6.605 -0.7351  0.7689  1.5402
  848SOL     OW 3483   1.249   1.666   6.349 -0.1079  0.1692 -0.2102
  848SOL    HW1 3484   1.239   1.712   6.266 -0.6475  0.8445  0.2140
  848SOL    HW2 3485   1.242   1.574   6.327 -0.1955  0.3426 -0.9230
  849SOL     OW 3486   2.028   3.675   2.591  0.2537  0.0146 -0.3143
  849SOL    HW1 3487   1.941   3.708   2.568 -0.4734 -1.4464  0.2368
  849SOL    HW2 3488   2.081   3.690   2.512 -0.8209 -0.2274 -1.1047
  850SOL     OW 3489   6.558   7.090   5.249 -0.0227  0.4085  0.1068
  850SOL    HW1 3490   6.575   7.183   5.265  0.4076  0.2772  0.4535
  850SOL    HW2 3491   6.474   7.088   5.204 -0.1308  0.9531  0.2771
  851SOL     OW 3492   2.013   6.145   2.067 -0.2092 -0.0236  0.4402
  851SOL    HW1 3493   1.957   6.208   2.022 -0.2462 -0.7714 -0.6002
  851SOL    HW2 3494   2.005   6.065   2.015  2.2267 -0.0111 -0.0766
  852SOL     OW 3495   2.038   7.145   6.369 -0.1078 -0.4810 -0.4643
  852SOL    HW1 3496   2.088   7.147   6.450  0.1132 -0.5325 -0.5986
  852SOL    HW2 3497   1.956   7.190   6.390  0.5377  0.7823 -0.6087
  853SOL     OW 3498   6.040   2.882   0.860 -0.0945 -0.5113  0.2128
  853SOL    HW1 3499   5.996   2.934   0.927  0.2317 -0.9592  0.7815
  853SOL    HW2 3500   5.978   2.813   0.837  0.7473 -1.9422  1.9627
  854SOL     OW 3501   3.884   7.186   0.178  0.1895  0.2319  0.2926
  854SOL    HW1 3502   3.880   7.274   0.214  0.5648  0.7488 -0.8829
  854SOL    HW2 3503   3.853   7.195   0.088  0.0063 -0.8758  0.2257
  855SOL     OW 3504   7.213   5.810   2.822  0.2264 -0.2117  0.0398
  855SOL    HW1 3505   7.240   5.872   2.890  0.3208 -0.3912  0.1677
  855SOL    HW2 3506   7.202   5.863   2.743  1.9460 -0.2568 -0.2781
  856SOL     OW 3507   4.424   4.639   1.663 -0.3220 -0.1678 -0.0837
  856SOL    HW1 3508   4.370   4.643   1.742  0.0466  0.0407  0.1627
  856SOL    HW2 3509   4.472   4.557   1.672 -1.3795 -0.8921 -0.8278
  857SOL     OW 3510   6.237   5.302   2.913 -0.3383  0.0617  0.3188
  857SOL    HW1 3511   6.212   5.231   2.854  1.1949  0.7281 -1.2501
  857SOL    HW2 3512   6.333   5.297   2.918 -0.3611  0.5755  2.0971
  858SOL     OW 3513   2.432   5.392   5.493 -0.3454  0.1173  0.4948
  858SOL    HW1 3514   2.359   5.393   5.432 -1.4615 -0.2755  1.7927
  858SOL    HW2 3515   2.471   5.305   5.483  2.0856  1.3568 -2.5614
  859SOL     OW 3516   2.279   5.653   6.933  0.0592 -0.4828 -0.2573
  859SOL    HW1 3517   2.252   5.741   6.905 -2.1246  0.2595  3.3645
  859SOL    HW2 3518   2.216   5.595   6.891 -0.0173 -0.0138 -0.8039
  860SOL     OW 3519   1.608   6.187   2.891  0.6228 -0.4540  0.4074
  860SOL    HW1 3520   1.541   6.179   2.959  1.1045  0.3428  0.9846
  860SOL    HW2 3521   1.625   6.280   2.884  0.3509 -0.4982 -1.0529
  861SOL     OW 3522   6.053   0.066   0.081 -0.0734  0.2800  0.0996
  861SOL    HW1 3523   5.963   0.100   0.079 -0.0998  0.2177 -2.0956
  861SOL    HW2 3524   6.072   0.054   0.174 -2.1024  0.9075  0.6454
  862SOL     OW 3525   7.235   3.691   6.852 -0.2163  0.7113  0.3061
  862SOL    HW1 3526   7.271   3.609   6.885  0.7658  2.0723  2.9313
  862SOL    HW2 3527   7.289   3.711   6.775  2.2753  0.8132  1.9464
  863SOL     OW 3528   2.673   1.813   4.002  0.6466  0.5414  0.2122
  863SOL    HW1 3529   2.753   1.832   4.051  1.7895  0.3013 -1.4743
  863SOL    HW2 3530   2.611   1.880   4.030  1.3512  0.6263  1.6895
  864SOL     OW 3531   5.456   4.061   0.890  0.3824 -0.2181 -0.1346
  864SOL    HW1 3532   5.375   4.036   0.934 -0.7042  1.2605 -1.1727
  864SOL    HW2 3533   5.481   4.145   0.929  1.5850 -0.7808  0.3577
  865SOL     OW 3534   0.234   1.032   3.267 -0.2202  0.3391 -0.1382
  865SOL    HW1 3535   0.310   0.994   3.312 -1.3784 -0.3197  1.3747
  865SOL    HW2 3536   0.190   0.957   3.227 -1.5765  0.2283  1.4113
  866SOL     OW 3537   5.056   4.368   2.868 -0.1903  0.4070  0.2750
  866SOL    HW1 3538   5.120   4.302   2.898  0.4508  0.8289 -0.1373
  866SOL    HW2 3539   5.067   4.441   2.929 -0.9614  0.1185  0.7823
  867SOL     OW 3540   4.707   5.492   3.157 -0.1607 -0.3078 -0.0338
  867SOL    HW1 3541   4.651   5.421   3.188 -1.3869  0.8510  0.5125
  867SOL    HW2 3542   4.773   5.502   3.225  0.2655 -1.1844 -0.3091
  868SOL     OW 3543   3.207   7.252   0.537 -0.1544 -0.2551  0.3092
  868SOL    HW1 3544   3.273   7.315   0.566  1.5033 -1.6954 -0.1802
  868SOL    HW2 3545   3.194   7.272   0.445 -1.8171  1.1911  0.8023
  869SOL     OW 3546   2.893   2.542   0.419  0.1369 -0.2681 -0.5416
  869SOL    HW1 3547   2.933   2.591   0.491 -1.0591 -1.0355  0.6922
  869SOL    HW2 3548   2.964   2.533   0.354  1.5538 -0.3945  0.9500
  870SOL     OW 3549   1.927   5.765   2.989  0.1537  0.3473  0.3429
  870SOL    HW1 3550   1.893   5.714   2.916 -2.0864  0.7003  1.0630
  870SOL    HW2 3551   1.941   5.853   2.954  0.6046  0.1283 -0.0308
  871SOL     OW 3552   1.251   5.673   0.925 -0.5658  0.2044 -0.0622
  871SOL    HW1 3553   1.345   5.668   0.943 -0.7754 -1.6447  0.6950
  871SOL    HW2 3554   1.237   5.765   0.902  1.4364  0.5049 -0.3171
  872SOL     OW 3555   4.572   3.954   2.582 -0.1263  0.1887 -0.0800
  872SOL    HW1 3556   4.497   3.963   2.640  0.4548  1.9796  0.4653
  872SOL    HW2 3557   4.647   3.979   2.635  0.4721  1.4890 -1.4489
  873SOL     OW 3558   4.344   1.413   1.587 -0.0186 -0.0241 -0.2669
  873SOL    HW1 3559   4.439   1.418   1.599  0.2146  0.4132 -1.9980
  873SOL    HW2 3560   4.321   1.495   1.544 -1.3207  0.2064  0.8042
  874SOL     OW 3561   6.042   3.421   1.087  0.5084  0.1780  0.3195
  874SOL    HW1 3562   6.024   3.335   1.050 -0.6185  0.1430  0.9156
  874SOL    HW2 3563   6.137   3.431   1.080  0.5319 -0.6587 -0.7222
  875SOL     OW 3564   4.308   1.886   2.778 -0.0233  0.4626  0.1337
  875SOL    HW1 3565   4.260   1.898   2.859 -0.1116 -0.4640  0.2260
  875SOL    HW2 3566   4.396   1.917   2.798 -0.6931  2.7490 -0.2183
  876SOL     OW 3567   5.889   0.595   4.803  0.4413  0.3592 -0.3853
  876SOL    HW1 3568   5.805   0.641   4.798  1.0977  1.8212  1.1191
  876SOL    HW2 3569   5.920   0.592   4.713 -0.5704  1.0583 -0.7782
  877SOL     OW 3570   4.090   3.572   0.815 -1.0538 -0.1362 -0.4050
  877SOL    HW1 3571   4.129   3.563   0.903 -0.7569 -0.2004 -0.5411
  877SOL    HW2 3572   4.150   3.631   0.769  0.3174 -2.1803 -1.4348
  878SOL     OW 3573   2.303   0.854   2.113  0.1757 -0.1454  0.3443
  878SOL    HW1 3574   2.221   0.880   2.155  0.0967 -0.6729  0.5335
  878SOL    HW2 3575   2.363   0.838   2.186  0.3918  0.0576  0.2119
  879SOL     OW 3576   5.293   2.035   3.454  0.1136  0.0006 -0.3675
  879SOL    HW1 3577   5.301   1.945   3.424 -0.8793 -0.7868  1.5725
  879SOL    HW2 3578   5.199   2.051   3.458  0.2743  1.0529 -0.4608
  880SOL     OW 3579   6.807   4.060   6.200  0.1213 -0.8507 -0.1901
  880SOL    HW1 3580   6.716   4.065   6.227  0.2295 -0.9846  0.2054
  880SOL    HW2 3581   6.828   4.149   6.170 -0.7052 -1.2682 -2.1632
  881SOL     OW 3582   1.541   0.137   1.993 -0.1619  0.2844 -0.6509
  881SOL    HW1 3583   1.512   0.088   1.916  0.7746 -0.0681 -0.7831
  881SOL    HW2 3584   1.595   0.208   1.958  0.0986  0.2448 -0.3290
  882SOL     OW 3585   2.812   5.151   5.649  0.6899 -0.3058 -0.3858
  882SOL    HW1 3586   2.889   5.205   5.666  0.4554 -0.0236 -0.2051
  882SOL    HW2 3587   2.780   5.181   5.564 -0.1978  0.7686  0.2897
  883SOL     OW 3588   6.753   5.993   4.109 -0.5666 -0.5760 -0.4038
  883SOL    HW1 3589   6.672   5.963   4.068 -2.1808  2.4620  0.3134
  883SOL    HW2 3590   6.730   6.009   4.200  1.2555 -1.0438  0.1782
  884SOL     OW 3591   3.387   7.139   4.552  0.5924 -0.0615 -0.1358
  884SOL    HW1 3592   3.338   7.066   4.514  0.3119  0.5210 -0.9268
  884SOL    HW2 3593   3.366   7.214   4.496  1.9806  0.3185 -0.1779
  885SOL     OW 3594   2.837   3.497   5.382  0.0489  0.5363  0.1041
  885SOL    HW1 3595   2.790   3.544   5.312  0.2599 -0.0403 -0.4264
  885SOL    HW2 3596   2.921   3.474   5.344 -1.2761 -3.3032 -0.8871
  886SOL     OW 3597   3.802   3.466   3.368  0.0079 -0.1607  0.2029
  886SOL    HW1 3598   3.830   3.554   3.390 -1.1273 -0.0001  1.1315
  886SOL    HW2 3599   3.798   3.420   3.452 -1.5594 -0.4132  0.0371
  887SOL     OW 3600   1.133   2.661   1.848  0.3252  0.0844 -0.2441
  887SOL    HW1 3601   1.046   2.693   1.872  1.5305  1.3236  3.0208
  887SOL    HW2 3602   1.186   2.740   1.837  1.6473 -0.6400  0.5654
  888SOL     OW 3603   6.561   2.809   4.037 -0.0543 -0.1881 -0.6171
  888SOL    HW1 3604   6.524   2.744   3.978 -0.0116 -0.0101 -0.8447
  888SOL    HW2 3605   6.515   2.797   4.120 -0.8438  0.2322 -0.9812
  889SOL     OW 3606   0.936   5.934   4.284 -0.0698 -0.2726 -0.1848
  889SOL    HW1 3607   1.031   5.933   4.277  0.0852 -0.2274  1.5173
  889SOL    HW2 3608   0.905   5.940   4.193  1.4946 -1.9146 -0.8821
  890SOL     OW 3609   3.357   0.135   5.578  0.0534 -0.2454  0.4539
  890SOL    HW1 3610   3.348   0.174   5.491 -0.0191 -1.4285 -0.0861
  890SOL    HW2 3611   3.288   0.177   5.629 -1.4110 -1.1394 -0.6835
  891SOL     OW 3612   2.235   2.605   5.151 -0.3445 -0.3445  0.5871
  891SOL    HW1 3613   2.226   2.587   5.057 -0.3399  1.0525  0.2890
  891SOL    HW2 3614   2.329   2.598   5.168  0.3760  3.6352 -0.5532
  892SOL     OW 3615   5.450   7.150   2.811  0.0178 -0.0253 -0.1925
  892SOL    HW1 3616   5.463   7.063   2.849 -1.3608 -0.0966  0.1704
  892SOL    HW2 3617   5.534   7.193   2.822  0.2506 -0.7469  1.1291
  893SOL     OW 3618   1.631   3.746   2.887  0.4850  0.0149 -0.1070
  893SOL    HW1 3619   1.682   3.802   2.829  2.5966 -2.3362 -0.6883
  893SOL    HW2 3620   1.593   3.679   2.829  0.2800 -0.7383  0.8620
  894SOL     OW 3621   7.221   2.409   5.855  0.2168 -0.2470 -0.0288
  894SOL    HW1 3622   7.219   2.426   5.761  0.1544  0.0955  0.0326
  894SOL    HW2 3623   7.222   2.314   5.862  1.3337 -0.2793 -0.3930
  895SOL     OW 3624   4.276   5.627   3.910 -0.3787 -0.4191  0.1918
  895SOL    HW1 3625   4.212   5.650   3.977 -2.3024 -0.5703 -1.4889
  895SOL    HW2 3626   4.227   5.629   3.828  2.0515  0.6499 -1.3844
  896SOL     OW 3627   0.072   4.814   6.081 -0.2896 -0.3449 -0.3401
  896SOL    HW1 3628  -0.015   4.846   6.059  0.0788  1.4268  0.5637
  896SOL    HW2 3629   0.119   4.812   5.998 -1.3519 -1.9516 -0.9405
  897SOL     OW 3630   7.220   4.660   0.363  0.3062  0.6489  0.1781
  897SOL    HW1 3631   7.167   4.627   0.290  1.5251 -0.1283 -0.3770
  897SOL    HW2 3632   7.211   4.593   0.431  0.5359  0.5472  0.1069
  898SOL     OW 3633   3.617   3.472   0.573  0.1469  0.1815  0.2544
  898SOL    HW1 3634   3.634   3.553   0.525 -1.1733 -0.2228 -0.9596
  898SOL    HW2 3635   3.690   3.466   0.635  0.5770  1.9914 -0.0059
  899SOL     OW 3636   2.758   4.248   5.930  0.1093  0.1298 -0.3561
  899SOL    HW1 3637   2.787   4.314   5.866  0.3828 -0.4147 -0.7968
  899SOL    HW2 3638   2.828   4.244   5.994 -0.1298  0.6191 -0.0528
  900SOL     OW 3639   6.198   0.413   0.156 -0.0362  0.3891  0.1625
  900SOL    HW1 3640   6.227   0.446   0.241  0.0027  1.9965 -0.4448
  900SOL    HW2 3641   6.103   0.406   0.164  0.1057 -1.0142  0.8431
  901SOL     OW 3642   2.258   4.994   2.832 -0.3956 -0.2567 -0.2491
  901SOL    HW1 3643   2.192   5.029   2.893 -1.4051 -1.1332 -0.8053
  901SOL    HW2 3644   2.265   5.061   2.764  0.1100  0.3395  0.3766
  902SOL     OW 3645   5.756   6.754   3.207 -0.1196 -0.0710 -0.0127
  902SOL    HW1 3646   5.742   6.664   3.179 -1.0598 -0.6118  2.0428
  902SOL    HW2 3647   5.670   6.795   3.199  0.4140  0.8375 -1.4594
  903SOL     OW 3648   5.420   4.350   3.866  0.5187 -0.0774 -0.4626
  903SOL    HW1 3649   5.420   4.285   3.795  0.1141  0.5670 -1.0702
  903SOL    HW2 3650   5.370   4.308   3.936  0.6241 -0.5907 -0.6849
  904SOL     OW 3651   6.497   3.982   1.813  0.4593  0.0155  0.1392
  904SOL    HW1 3652   6.519   4.056   1.756 -0.7438 -0.6318 -1.2404
  904SOL    HW2 3653   6.401   3.977   1.810  0.2629  0.4323  2.9031
  905SOL     OW 3654   5.428   4.659   4.764 -0.2867  0.0626 -0.6635
  905SOL    HW1 3655   5.515   4.695   4.749 -1.0114  1.1950 -2.5181
  905SOL    HW2 3656   5.410   4.676   4.857  1.2809  0.1704 -0.3592
  906SOL     OW 3657   2.104   3.410   1.820  0.0871  0.6046  0.5318
  906SOL    HW1 3658   2.036   3.476   1.808 -0.6125 -0.4315 -1.8965
  906SOL    HW2 3659   2.061   3.339   1.868  0.1695  0.9308  1.0966
  907SOL     OW 3660   2.358   3.727   5.412 -0.3599 -0.0798 -0.0460
  907SOL    HW1 3661   2.311   3.810   5.408 -0.7448 -0.1245  2.0884
  907SOL    HW2 3662   2.399   3.718   5.326 -2.1641  1.1928 -1.1169
  908SOL     OW 3663   5.721   1.842   3.568 -0.7649  0.1135  0.2012
  908SOL    HW1 3664   5.690   1.807   3.485 -0.2293 -0.3583  0.1973
  908SOL    HW2 3665   5.658   1.910   3.590 -0.3316  0.9720 -1.1053
  909SOL     OW 3666   1.109   7.149   3.618  0.2132 -0.5339  0.8670
  909SOL    HW1 3667   1.027   7.193   3.597  0.1108 -1.3662 -0.5822
  909SOL    HW2 3668   1.148   7.203   3.687 -0.1985  1.4834 -0.4121
  910SOL     OW 3669   0.268   4.928   3.026 -0.3423 -0.1132 -0.1563
  910SOL    HW1 3670   0.287   5.005   3.080 -1.9529 -0.6791  1.3374
  910SOL    HW2 3671   0.275   4.959   2.936  1.0341  1.2467  0.3800
  911SOL     OW 3672   4.400   1.278   5.329  0.0972 -0.2089 -0.3900
  911SOL    HW1 3673   4.319   1.234   5.355 -0.6997  0.9350 -0.8444
  911SOL    HW2 3674   4.395   1.285   5.234 -0.2881  1.6712 -0.2870
  912SOL     OW 3675   4.287   7.203   4.182 -0.0878 -0.5678 -0.3285
  912SOL    HW1 3676   4.255   7.192   4.092  0.0270  1.6158 -0.6726
  912SOL    HW2 3677   4.252   7.288   4.210  1.2539 -0.4474  1.1016
  913SOL     OW 3678   7.277   2.005   1.378  0.5809 -0.7391  0.0952
  913SOL    HW1 3679   7.222   1.931   1.406 -1.8571 -0.5364 -3.4165
  913SOL    HW2 3680   7.224   2.082   1.395  1.0872 -0.2440 -0.5180
  914SOL     OW 3681   4.878   7.098   2.562 -0.4878 -0.2006  0.4243
  914SOL    HW1 3682   4.968   7.091   2.529 -0.6696  0.6338 -0.2833
  914SOL    HW2 3683   4.887   7.147   2.644 -0.3932  0.8187 -0.1770
  915SOL     OW 3684   5.251   5.431   0.914  0.1209 -0.0209 -0.3124
  915SOL    HW1 3685   5.161   5.433   0.945 -0.8340 -1.8073 -2.7153
  915SOL    HW2 3686   5.303   5.461   0.989 -2.3512 -0.0480  1.5098
  916SOL     OW 3687   3.916   4.602   1.443 -0.0525  0.5437  0.2724
  916SOL    HW1 3688   3.938   4.685   1.400 -1.3619  0.0768 -1.4286
  916SOL    HW2 3689   3.965   4.604   1.525  3.2445  1.1829 -1.5300
  917SOL     OW 3690   6.509   7.081   3.049  0.0506 -0.0230  0.3548
  917SOL    HW1 3691   6.457   7.061   2.971 -0.6629 -0.8931  1.0295
  917SOL    HW2 3692   6.566   7.005   3.060  1.2985  0.8019 -0.2169
  918SOL     OW 3693   6.103   4.434   7.280  0.4995 -0.5385 -0.5581
  918SOL    HW1 3694   6.185   4.411   7.324  1.1759 -0.5292 -1.7832
  918SOL    HW2 3695   6.122   4.426   7.187 -0.8649 -0.4153 -0.8717
  919SOL     OW 3696   1.749   5.777   4.559  0.0582  0.6141  0.1508
  919SOL    HW1 3697   1.839   5.748   4.566 -0.2623 -0.2561  0.7889
  919SOL    HW2 3698   1.733   5.825   4.640 -0.1682  0.4539  0.2004
  920SOL     OW 3699   5.309   6.758   0.605  0.3296  0.1388 -0.1993
  920SOL    HW1 3700   5.276   6.833   0.557  1.6829  0.8556 -0.0529
  920SOL    HW2 3701   5.374   6.719   0.547 -0.1201 -0.7390 -0.1364
  921SOL     OW 3702   0.296   7.159   6.672 -0.0048  0.0942  0.4719
  921SOL    HW1 3703   0.362   7.102   6.713  0.0811 -0.9742 -1.0597
  921SOL    HW2 3704   0.347   7.231   6.634 -0.1148  1.2484  2.4216
  922SOL     OW 3705   3.418   4.433   4.258  0.5459 -0.0055 -0.1563
  922SOL    HW1 3706   3.426   4.339   4.271 -0.0170  0.0742  0.9286
  922SOL    HW2 3707   3.491   4.470   4.308  1.2517  0.1052 -1.2492
  923SOL     OW 3708   0.125   1.699   4.956  0.2320  0.3529  0.1995
  923SOL    HW1 3709   0.171   1.757   5.017  0.2345 -0.1369  0.6777
  923SOL    HW2 3710   0.037   1.691   4.993  0.1222  0.3427 -0.0618
  924SOL     OW 3711   5.585   0.259   7.174  0.2447  0.0822 -0.1176
  924SOL    HW1 3712   5.648   0.317   7.216 -0.4567  1.0425 -0.3543
  924SOL    HW2 3713   5.594   0.176   7.221  1.6032  0.2265 -0.0904
  925SOL     OW 3714   5.451   6.299   6.836  0.8812  0.4541  0.3895
  925SOL    HW1 3715   5.541   6.315   6.864  1.1187 -1.8957  1.2230
  925SOL    HW2 3716   5.399   6.363   6.886  1.9799  1.1594  0.6752
  926SOL     OW 3717   7.022   3.187   0.239 -0.1459  0.1181  0.2690
  926SOL    HW1 3718   6.989   3.277   0.233  2.1682  0.9979 -0.1230
  926SOL    HW2 3719   7.072   3.175   0.158  1.0632 -0.8824  1.1343
  927SOL     OW 3720   3.770   6.894   3.642 -0.0574 -0.5599  0.2486
  927SOL    HW1 3721   3.839   6.870   3.581 -0.9937  2.6257 -2.3334
  927SOL    HW2 3722   3.689   6.873   3.595 -0.8162  0.2297  1.1710
  928SOL     OW 3723   5.685   3.720   4.649  0.3075  0.2276 -0.4649
  928SOL    HW1 3724   5.718   3.650   4.593  2.2705  0.0294  0.8484
  928SOL    HW2 3725   5.599   3.741   4.613 -0.4158 -2.9031 -0.8738
  929SOL     OW 3726   7.018   0.731   0.097  0.2209 -0.2760 -0.0532
  929SOL    HW1 3727   7.062   0.661   0.049 -2.4094 -1.3483 -1.0834
  929SOL    HW2 3728   7.043   0.811   0.051  0.0991 -0.9786 -1.3839
  930SOL     OW 3729   6.752   2.484   3.485  0.4342  0.6735  0.2343
  930SOL    HW1 3730   6.712   2.423   3.423  0.6613  0.4466  0.3097
  930SOL    HW2 3731   6.832   2.514   3.442  0.3676  0.8496  0.2340
  931SOL     OW 3732   4.015   7.274   6.496 -0.9464  1.0118  0.3272
  931SOL    HW1 3733   4.000   7.218   6.420 -0.0827 -0.8998  1.4809
  931SOL    HW2 3734   4.107   7.300   6.489 -0.3796 -0.5100  1.4841
  932SOL     OW 3735   7.045   3.237   2.951  0.2248 -0.3871  0.0567
  932SOL    HW1 3736   6.997   3.284   3.018  0.4232  0.6210 -0.4814
  932SOL    HW2 3737   7.137   3.261   2.966  0.0670  2.5053 -2.4335
  933SOL     OW 3738   4.362   0.019   5.951  0.2659 -0.6875 -0.0891
  933SOL    HW1 3739   4.444   0.039   5.998 -0.2442  1.1568  0.1171
  933SOL    HW2 3740   4.294   0.059   6.006 -0.3881  1.2269 -2.1486
  934SOL     OW 3741   6.327   0.675   6.737  0.3543  0.4911  0.6449
  934SOL    HW1 3742   6.369   0.635   6.813  0.0936 -1.7260 -0.2989
  934SOL    HW2 3743   6.284   0.602   6.692 -0.3394  1.8951 -1.1021
  935SOL     OW 3744   3.652   4.972   7.035  0.4208  0.2957 -0.2357
  935SOL    HW1 3745   3.623   4.911   6.968 -0.8807 -0.0739  0.6236
  935SOL    HW2 3746   3.707   4.920   7.093  0.7695  0.3895 -0.4749
  936SOL     OW 3747   3.220   5.867   1.223  0.2323 -0.5985 -0.3584
  936SOL    HW1 3748   3.262   5.948   1.196 -2.9501  1.1534 -0.6070
  936SOL    HW2 3749   3.216   5.871   1.318 -0.3842 -0.1633 -0.3957
  937SOL     OW 3750   5.233   1.938   2.550  0.0865 -0.2633  0.0372
  937SOL    HW1 3751   5.267   1.858   2.511 -0.5318 -0.2705 -0.5089
  937SOL    HW2 3752   5.202   1.990   2.475 -0.2404  0.1379  0.4429
  938SOL     OW 3753   4.087   2.694   5.419 -0.5784 -0.6446  0.1916
  938SOL    HW1 3754   4.175   2.727   5.439 -0.4761 -0.7391 -0.1012
  938SOL    HW2 3755   4.101   2.624   5.356 -0.8347 -0.9365  0.4536
  939SOL     OW 3756   4.673   1.345   4.541 -0.6498 -0.6828  0.3609
  939SOL    HW1 3757   4.620   1.367   4.618  0.6916  1.1068  0.8461
  939SOL    HW2 3758   4.691   1.429   4.500  2.1877 -1.1143  0.5013
  940SOL     OW 3759   7.260   3.341   4.810  0.3622 -0.5788 -0.4580
  940SOL    HW1 3760   7.215   3.424   4.794  2.2977  0.7454  0.5289
  940SOL    HW2 3761   7.249   3.292   4.728  0.0767  1.1004 -1.4765
  941SOL     OW 3762   2.173   2.203   6.771 -0.4606  0.5353  0.3212
  941SOL    HW1 3763   2.079   2.187   6.782 -0.9787  2.1167 -1.2135
  941SOL    HW2 3764   2.178   2.293   6.739  1.4273 -0.1306 -1.4943
  942SOL     OW 3765   3.492   6.082   0.912  0.7407  0.0612  0.3184
  942SOL    HW1 3766   3.575   6.102   0.954  1.1696 -0.1439 -0.4237
  942SOL    HW2 3767   3.515   6.043   0.828 -0.0982  0.9313 -0.3470
  943SOL     OW 3768   5.683   3.059   6.563  0.2869  0.0199 -0.6433
  943SOL    HW1 3769   5.637   3.044   6.480  1.2855 -0.9598 -1.0554
  943SOL    HW2 3770   5.700   3.153   6.564 -1.0444  0.2844 -0.8245
  944SOL     OW 3771   2.828   3.830   2.175 -0.0166 -0.0233  0.3457
  944SOL    HW1 3772   2.735   3.818   2.156  0.5344 -0.5439 -2.4998
  944SOL    HW2 3773   2.848   3.918   2.144  0.8312 -0.7036 -1.1751
  945SOL     OW 3774   1.325   5.550   5.139 -0.0421  0.2315  0.0702
  945SOL    HW1 3775   1.283   5.492   5.075 -0.0259  0.6630 -0.3411
  945SOL    HW2 3776   1.402   5.502   5.169  1.2662  0.9285 -1.9663
  946SOL     OW 3777   0.416   0.172   2.454  0.0476  0.2229 -0.6946
  946SOL    HW1 3778   0.369   0.091   2.473  0.2278  0.2629 -0.0462
  946SOL    HW2 3779   0.350   0.241   2.464  0.3977  0.3480  0.9704
  947SOL     OW 3780   1.161   1.013   3.861 -0.0357  0.0641  0.1188
  947SOL    HW1 3781   1.172   0.931   3.908  0.6806  0.0315 -0.0924
  947SOL    HW2 3782   1.245   1.026   3.816  0.2368  1.4139  0.9480
  948SOL     OW 3783   3.725   2.011   3.911  0.3658 -0.0162  0.2299
  948SOL    HW1 3784   3.790   2.036   3.976 -0.4043  0.8917  0.6901
  948SOL    HW2 3785   3.679   2.093   3.891 -0.5188 -0.5953 -0.1986
  949SOL     OW 3786   0.998   2.433   2.281  0.0077 -0.4943 -0.5706
  949SOL    HW1 3787   0.910   2.471   2.281 -0.1981 -0.9657 -0.9525
  949SOL    HW2 3788   1.016   2.415   2.374  0.3073  0.9573 -0.3179
  950SOL     OW 3789   0.129   2.970   7.073  0.3130  0.9541  0.0005
  950SOL    HW1 3790   0.164   3.046   7.119  1.6987 -0.7083  1.8501
  950SOL    HW2 3791   0.034   2.977   7.084  0.5216  1.3671  1.9671
  951SOL     OW 3792   4.506   6.732   7.216 -0.2423  0.2710 -0.4152
  951SOL    HW1 3793   4.475   6.817   7.246 -0.6927  0.5488 -1.6295
  951SOL    HW2 3794   4.591   6.750   7.176 -0.2899  0.1333 -0.5778
  952SOL     OW 3795   3.361   3.927   0.070 -0.0125 -0.0027  0.0425
  952SOL    HW1 3796   3.373   3.847   0.120 -0.4161  0.3489  0.7219
  952SOL    HW2 3797   3.448   3.946   0.033 -0.1571 -1.3376 -1.0588
  953SOL     OW 3798   3.340   6.377   0.645 -0.3523 -1.0239  0.8531
  953SOL    HW1 3799   3.385   6.442   0.591 -1.2927 -1.6383 -0.7117
  953SOL    HW2 3800   3.405   6.353   0.712  0.6925  0.0496  0.2665
  954SOL     OW 3801   4.018   0.734   0.306  0.2699 -0.3566 -0.2193
  954SOL    HW1 3802   4.104   0.742   0.264  0.2828  1.7465  0.1134
  954SOL    HW2 3803   4.025   0.655   0.360  1.8376 -0.4661 -0.5276
  955SOL     OW 3804   6.774   6.994   7.018 -0.0463  0.0539  0.1132
  955SOL    HW1 3805   6.724   6.929   6.968 -0.2857  0.5755 -0.3382
  955SOL    HW2 3806   6.759   7.076   6.971 -0.4893  0.6011  1.1953
  956SOL     OW 3807   4.881   4.811   3.150 -0.2121 -0.3497  0.1777
  956SOL    HW1 3808   4.790   4.783   3.166 -1.3006  2.0226 -1.3348
  956SOL    HW2 3809   4.906   4.858   3.230 -1.2174  1.0441 -0.2962
  957SOL     OW 3810   4.428   3.247   0.229  0.1492  0.7047  0.8146
  957SOL    HW1 3811   4.380   3.301   0.166  1.8088  1.4497  0.1392
  957SOL    HW2 3812   4.422   3.158   0.194  1.4437  1.1808 -0.6740
  958SOL     OW 3813   2.034   1.822   4.227 -0.0463 -0.1420 -0.2788
  958SOL    HW1 3814   2.024   1.895   4.167  0.3176  0.7754  0.7522
  958SOL    HW2 3815   2.065   1.861   4.309 -1.3601 -1.2235  0.7945
  959SOL     OW 3816   1.005   1.387   7.086 -0.7223 -0.5683  0.3107
  959SOL    HW1 3817   0.952   1.349   7.016  0.0284 -0.7263 -0.1965
  959SOL    HW2 3818   1.069   1.442   7.039 -1.8095  1.4020  1.0139
  960SOL     OW 3819   3.832   4.147   1.806 -0.0374  0.4631  0.2726
  960SOL    HW1 3820   3.854   4.054   1.801 -1.2529  0.0594  1.5571
  960SOL    HW2 3821   3.739   4.150   1.783 -0.0238  1.3569  0.3076
  961SOL     OW 3822   6.483   5.688   3.628  0.3221 -0.1128 -0.6855
  961SOL    HW1 3823   6.425   5.667   3.701  2.2438  0.4812  1.0827
  961SOL    HW2 3824   6.569   5.656   3.655  0.6807 -2.0958 -3.7469
  962SOL     OW 3825   6.112   7.028   1.617  0.6207  0.0034 -0.3060
  962SOL    HW1 3826   6.078   6.954   1.567  2.6213 -0.1765 -1.5294
  962SOL    HW2 3827   6.063   7.104   1.584 -0.2840 -0.5405 -0.2377
  963SOL     OW 3828   3.101   0.561   5.133  0.0540  0.3396 -0.0816
  963SOL    HW1 3829   3.164   0.624   5.098  0.7375  0.4277  1.2234
  963SOL    HW2 3830   3.100   0.489   5.070  0.2826  1.0562 -0.9056
  964SOL     OW 3831   4.770   0.516   6.335  0.0432 -0.3806 -0.2257
  964SOL    HW1 3832   4.742   0.536   6.246  0.6820 -0.9860 -0.5703
  964SOL    HW2 3833   4.805   0.427   6.330 -1.6802 -1.1880  1.0238
  965SOL     OW 3834   7.144   3.297   1.286 -0.1390 -0.3821  0.0956
  965SOL    HW1 3835   7.192   3.259   1.359 -1.0031  0.8178  1.3411
  965SOL    HW2 3836   7.203   3.365   1.251  0.0563 -0.5955  0.0042
  966SOL     OW 3837   1.542   2.555   0.036  0.5748 -0.3599 -0.2220
  966SOL    HW1 3838   1.566   2.633   0.086 -0.8309 -0.0477  0.0242
  966SOL    HW2 3839   1.481   2.587  -0.031 -0.2027 -1.2617  0.0330
  967SOL     OW 3840   1.319   1.965   4.080  0.2223 -0.1235  0.0440
  967SOL    HW1 3841   1.277   2.016   4.011  1.4375  0.6596 -0.1590
  967SOL    HW2 3842   1.261   1.975   4.156 -0.3914  0.2143 -0.4592
  968SOL     OW 3843   5.989   6.357   6.517  0.2936 -0.3803 -0.2584
  968SOL    HW1 3844   6.061   6.351   6.454  1.1908  2.0923  0.3920
  968SOL    HW2 3845   6.032   6.371   6.601 -0.9332 -1.2219  0.5320
  969SOL     OW 3846   3.674   3.239   4.042 -0.0485 -0.1329 -0.2307
  969SOL    HW1 3847   3.677   3.192   4.126  0.5736  1.6458  0.8012
  969SOL    HW2 3848   3.581   3.242   4.020 -0.5084  1.3383  1.6231
  970SOL     OW 3849   1.860   4.233   4.896 -0.1374 -0.2820  0.6741
  970SOL    HW1 3850   1.818   4.318   4.909  0.7277  1.0659 -3.6560
  970SOL    HW2 3851   1.790   4.169   4.913 -1.3904  1.3727  2.0813
  971SOL     OW 3852   0.165   0.080   5.469 -0.1814  0.0589  0.0405
  971SOL    HW1 3853   0.224   0.136   5.418  0.6097 -0.6470  0.1618
  971SOL    HW2 3854   0.116   0.141   5.524 -0.2322  0.7329 -0.7369
  972SOL     OW 3855   6.155   0.428   2.683  0.2853  0.0814 -0.4713
  972SOL    HW1 3856   6.242   0.398   2.657 -0.0360  0.9975 -2.7696
  972SOL    HW2 3857   6.109   0.348   2.709  1.2638 -0.6305 -0.8699
  973SOL     OW 3858   5.100   0.528   2.619 -0.0283 -0.3255 -0.1738
  973SOL    HW1 3859   5.119   0.435   2.628  0.4820 -0.1762  0.3895
  973SOL    HW2 3860   5.124   0.566   2.704 -2.2114  0.0007  0.3736
  974SOL     OW 3861   1.714   1.556   2.690 -0.2333  0.7993 -0.3435
  974SOL    HW1 3862   1.794   1.599   2.719 -0.8003  0.9996  0.9711
  974SOL    HW2 3863   1.651   1.627   2.679  0.0471  0.7957 -2.5407
  975SOL     OW 3864   2.507   5.438   6.149 -0.0304 -0.2646 -0.5575
  975SOL    HW1 3865   2.568   5.399   6.086 -1.5427 -1.3198 -1.4205
  975SOL    HW2 3866   2.443   5.369   6.167  0.4264 -0.0795  2.3240
  976SOL     OW 3867   2.202   3.947   4.374  0.2523  0.2423  0.0097
  976SOL    HW1 3868   2.288   3.906   4.370  1.2882  2.2054  0.6809
  976SOL    HW2 3869   2.170   3.927   4.462  1.2210  1.6768  0.7208
  977SOL     OW 3870   4.121   0.873   6.308 -0.5594 -0.3363 -0.1660
  977SOL    HW1 3871   4.160   0.934   6.245 -0.1207 -0.3784  0.0635
  977SOL    HW2 3872   4.112   0.791   6.258 -0.7667 -0.2032 -0.3503
  978SOL     OW 3873   1.402   6.638   3.326  0.6472  0.1267 -0.3094
  978SOL    HW1 3874   1.310   6.660   3.308  0.4033 -0.5339  0.0574
  978SOL    HW2 3875   1.407   6.636   3.422  0.4529 -2.0351 -0.2773
  979SOL     OW 3876   3.792   3.268   0.699 -0.0713 -0.2069 -0.4434
  979SOL    HW1 3877   3.731   3.250   0.770  1.5594 -2.8997  0.4289
  979SOL    HW2 3878   3.762   3.212   0.627  1.9341 -2.6564  0.4459
  980SOL     OW 3879   2.652   0.604   2.711 -0.4556 -0.1128 -0.2609
  980SOL    HW1 3880   2.591   0.637   2.777 -0.0571 -2.1501  1.1908
  980SOL    HW2 3881   2.691   0.526   2.750  0.6350 -0.7599 -2.4731
  981SOL     OW 3882   2.341   5.434   1.149  0.2960 -0.2664 -0.1820
  981SOL    HW1 3883   2.257   5.394   1.126  0.1946  0.4320 -1.0348
  981SOL    HW2 3884   2.330   5.462   1.240 -0.2819 -0.4516 -0.1915
  982SOL     OW 3885   4.543   1.445   4.769  0.0020  0.9135  0.6511
  982SOL    HW1 3886   4.462   1.398   4.749  0.3866  0.9443 -1.1907
  982SOL    HW2 3887   4.514   1.526   4.810 -0.8519  0.5561  0.7752
  983SOL     OW 3888   2.296   3.416   4.063  0.0049  0.4741  0.4640
  983SOL    HW1 3889   2.388   3.395   4.080  1.0412  2.3550 -2.1277
  983SOL    HW2 3890   2.276   3.373   3.980  0.1160  3.7345 -1.4328
  984SOL     OW 3891   0.006   3.561   2.573 -0.6306 -0.3490  0.4062
  984SOL    HW1 3892  -0.036   3.601   2.649  1.0617  2.2316  0.1370
  984SOL    HW2 3893   0.018   3.469   2.597 -1.2375  0.1175  2.7346
  985SOL     OW 3894   1.900   3.204   3.744 -0.1848  0.7031 -0.0813
  985SOL    HW1 3895   1.871   3.114   3.731  1.1254  0.2580 -0.0712
  985SOL    HW2 3896   1.825   3.247   3.785 -0.2878 -0.7831  1.4074
  986SOL     OW 3897   0.776   5.625   6.107  0.6458 -0.5624  0.2123
  986SOL    HW1 3898   0.746   5.578   6.030  3.0730 -0.8530 -0.6492
  986SOL    HW2 3899   0.788   5.558   6.174 -2.2499 -0.2127  1.2257
  987SOL     OW 3900   1.991   6.866   0.738 -0.0276 -0.1319  0.0772
  987SOL    HW1 3901   1.915   6.838   0.788  0.6039  0.4174  1.3973
  987SOL    HW2 3902   1.975   6.833   0.650  0.3458 -4.1964  1.3111
  988SOL     OW 3903   3.264   5.112   1.755  0.6084 -0.0998 -0.0695
  988SOL    HW1 3904   3.259   5.028   1.710  0.5341  1.4156 -3.1851
  988SOL    HW2 3905   3.180   5.120   1.801  0.4667 -1.5408 -0.0299
  989SOL     OW 3906   6.783   5.450   1.197 -0.0105  0.4280 -0.0886
  989SOL    HW1 3907   6.874   5.482   1.192  0.2620 -0.4733 -1.3249
  989SOL    HW2 3908   6.734   5.511   1.142 -0.0351  0.5214  0.0368
  990SOL     OW 3909   7.363   4.083   5.909 -0.2833  1.0776 -0.1877
  990SOL    HW1 3910   7.380   4.005   5.856 -0.5108  0.3928  0.7182
  990SOL    HW2 3911   7.433   4.144   5.885  0.5354  0.1827 -0.1343
  991SOL     OW 3912   1.443   0.531   4.985 -0.3964 -0.1197 -0.8320
  991SOL    HW1 3913   1.456   0.527   5.080  2.9008 -0.7899 -1.1699
  991SOL    HW2 3914   1.364   0.480   4.969  0.0591 -1.6670  1.4022
  992SOL     OW 3915   2.342   2.043   5.070  0.7827 -0.3677  0.1893
  992SOL    HW1 3916   2.265   2.015   5.020  0.5903 -0.6440  0.6417
  992SOL    HW2 3917   2.392   1.963   5.084  1.0975 -0.2081  0.0014
  993SOL     OW 3918   5.626   5.887   7.195  0.2526 -0.4444 -0.0271
  993SOL    HW1 3919   5.688   5.815   7.201 -0.4673 -1.2494 -1.6496
  993SOL    HW2 3920   5.571   5.878   7.273 -0.6474 -2.4930 -0.8181
  994SOL     OW 3921   2.004   7.052   2.467  0.8610 -0.2912 -0.9347
  994SOL    HW1 3922   2.003   6.957   2.481  0.1488 -0.2732 -0.8660
  994SOL    HW2 3923   1.950   7.087   2.538  1.4780  0.2066 -0.6980
  995SOL     OW 3924   2.909   7.003   3.300 -0.3149 -0.2242 -0.3548
  995SOL    HW1 3925   2.830   7.053   3.320 -0.2239  0.1746 -0.9453
  995SOL    HW2 3926   2.882   6.911   3.306 -0.7736 -0.0933 -0.3554
  996SOL     OW 3927   3.896   0.765   1.576  1.0298  0.1547 -0.1454
  996SOL    HW1 3928   3.855   0.699   1.631  2.6518 -0.6821  0.1402
  996SOL    HW2 3929   3.987   0.768   1.606  1.0336  2.4877 -0.1955
  997SOL     OW 3930   1.879   7.225   6.708 -0.6008  0.2071 -0.0005
  997SOL    HW1 3931   1.874   7.281   6.785  1.4029  1.3506 -0.6167
  997SOL    HW2 3932   1.861   7.283   6.634  2.5157  0.4550 -0.7322
  998SOL     OW 3933   4.122   7.085   2.152  0.2036  0.1279  0.2043
  998SOL    HW1 3934   4.140   7.171   2.191  1.8894 -0.8017  1.5857
  998SOL    HW2 3935   4.091   7.032   2.225 -0.1426 -0.6602 -0.5019
  999SOL     OW 3936   2.448   3.425   3.012 -0.1969 -0.5150 -0.0862
  999SOL    HW1 3937   2.427   3.435   3.105  1.9731 -1.7681  0.6054
  999SOL    HW2 3938   2.461   3.331   3.001  1.4758 -0.1861 -1.2103
 1000SOL     OW 3939   1.923   4.187   1.883  0.2333  0.1114  0.8488
 1000SOL    HW1 3940   1.891   4.178   1.973  0.6683 -0.0713  0.9883
 1000SOL    HW2 3941   1.846   4.168   1.829 -0.4157  1.6862  1.1781
 1001SOL     OW 3942   1.542   2.112   7.331 -0.3440  0.2417 -0.4791
 1001SOL    HW1 3943   1.531   2.180   7.397  1.9797  0.0196  0.2237
 1001SOL    HW2 3944   1.457   2.068   7.327 -0.6886  0.5441  2.0231
 1002SOL     OW 3945   5.708   6.058   0.488 -0.3717  0.6457  0.6114
 1002SOL    HW1 3946   5.736   6.149   0.491 -0.7490  0.8297 -0.7595
 1002SOL    HW2 3947   5.703   6.037   0.394  1.4280 -1.3296  0.8783
 1003SOL     OW 3948   3.717   2.701   7.235 -0.4412 -0.3743  0.0638
 1003SOL    HW1 3949   3.700   2.715   7.141 -2.2570 -2.5270 -0.0300
 1003SOL    HW2 3950   3.633   2.719   7.277  0.2601  0.2120  1.2541
 1004SOL     OW 3951   5.786   6.042   1.421  0.0998  0.6820 -0.2427
 1004SOL    HW1 3952   5.736   5.999   1.491  2.7846  2.8146  3.3241
 1004SOL    HW2 3953   5.866   5.991   1.413  0.9559  1.9272  0.1517
 1005SOL     OW 3954   4.114   2.403   0.286 -0.1115  0.3117 -0.1017
 1005SOL    HW1 3955   4.025   2.421   0.318 -1.2153 -0.3290 -2.5617
 1005SOL    HW2 3956   4.121   2.454   0.205  1.4504 -0.2868 -0.3744
 1006SOL     OW 3957   5.927   0.432   2.232  0.2645 -0.0874  0.2152
 1006SOL    HW1 3958   5.964   0.440   2.144  0.7133  0.9781  0.4862
 1006SOL    HW2 3959   6.002   0.447   2.291 -0.4283  1.3375  0.7736
 1007SOL     OW 3960   4.256   0.694   6.067 -0.3536  0.1462  0.0295
 1007SOL    HW1 3961   4.182   0.656   6.019 -0.8333 -0.6883  1.3640
 1007SOL    HW2 3962   4.293   0.758   6.007 -1.9246  0.3052 -0.8359
 1008SOL     OW 3963   3.752   7.106   7.174 -0.6238 -0.9910 -0.6841
 1008SOL    HW1 3964   3.785   7.082   7.088  0.4966  0.8957 -0.8266
 1008SOL    HW2 3965   3.657   7.112   7.163 -0.4794 -0.6840 -1.8288
 1009SOL     OW 3966   5.598   1.608   5.806 -0.1270  0.1568  0.2631
 1009SOL    HW1 3967   5.618   1.690   5.763  2.1987 -1.9970 -3.2646
 1009SOL    HW2 3968   5.568   1.550   5.736  1.1892 -2.8618  1.9838
 1010SOL     OW 3969   3.162   2.202   1.305  0.3798 -0.1212 -0.2582
 1010SOL    HW1 3970   3.195   2.286   1.336  0.7334 -0.3140 -0.1116
 1010SOL    HW2 3971   3.211   2.184   1.225  0.5952 -0.3822 -0.0688
 1011SOL     OW 3972   2.894   0.078   1.674  0.5729 -0.5316 -0.0410
 1011SOL    HW1 3973   2.890   0.156   1.729  1.9850  1.1574 -2.1606
 1011SOL    HW2 3974   2.987   0.070   1.650 -0.0774 -0.3779 -3.1245
 1012SOL     OW 3975   1.993   0.696   5.836 -0.3423  0.5002 -0.0781
 1012SOL    HW1 3976   2.047   0.624   5.803  0.5965  1.3179 -0.3443
 1012SOL    HW2 3977   1.903   0.663   5.830 -0.0806  0.0772 -2.0406
 1013SOL     OW 3978   0.089   3.322   3.490  1.0614 -0.4239 -0.0538
 1013SOL    HW1 3979   0.067   3.387   3.557  0.0225  1.1180 -1.7817
 1013SOL    HW2 3980   0.076   3.238   3.533 -0.8203  0.4956  1.3184
 1014SOL     OW 3981   4.887   1.234   5.996  0.3257  0.2968 -0.0892
 1014SOL    HW1 3982   4.844   1.215   6.080  2.0607  1.2063  1.0526
 1014SOL    HW2 3983   4.820   1.280   5.945  0.2998  3.1084  2.2197
 1015SOL     OW 3984   2.210   4.727   1.944 -0.0122 -0.6554  0.4226
 1015SOL    HW1 3985   2.294   4.766   1.967 -0.3472  0.0948  0.3889
 1015SOL    HW2 3986   2.201   4.652   2.003 -0.3571  0.5862  2.0178
 1016SOL     OW 3987   5.113   3.261   3.706 -0.0694 -0.2224 -0.6485
 1016SOL    HW1 3988   5.108   3.310   3.788 -0.1265  1.1344 -1.4234
 1016SOL    HW2 3989   5.061   3.313   3.644  1.4225 -0.2624 -1.9970
 1017SOL     OW 3990   3.526   0.594   6.841  0.1911 -0.1580  0.1097
 1017SOL    HW1 3991   3.513   0.500   6.849 -1.2617  0.0667  0.7683
 1017SOL    HW2 3992   3.460   0.632   6.900 -1.1199  1.3141 -2.1653
 1018SOL     OW 3993   2.108   5.738   3.814  0.8235 -0.1562  0.3619
 1018SOL    HW1 3994   2.129   5.654   3.773  0.2327  0.4728 -1.3157
 1018SOL    HW2 3995   2.192   5.784   3.816  0.7890 -0.0277 -0.5945
 1019SOL     OW 3996   6.046   4.041   4.850 -0.2827 -0.1336 -0.0947
 1019SOL    HW1 3997   6.066   3.980   4.921 -1.1778 -1.4031 -0.8967
 1019SOL    HW2 3998   6.082   4.000   4.771 -0.1417  0.7962 -0.5376
 1020SOL     OW 3999   5.392   4.483   7.419 -0.6761  0.1982 -0.0557
 1020SOL    HW1 4000   5.311   4.487   7.470 -0.3702  0.6263  0.3944
 1020SOL    HW2 4001   5.403   4.572   7.385 -0.4153  0.1290 -0.1517
 1021SOL     OW 4002   1.668   2.138   5.815 -0.1106 -0.4430 -0.0478
 1021SOL    HW1 4003   1.707   2.146   5.728  3.6656 -0.0074  1.5087
 1021SOL    HW2 4004   1.615   2.058   5.810  2.6113 -2.2998 -1.9085
 1022SOL     OW 4005   1.981   1.989   5.884 -0.3712  0.5566 -0.1215
 1022SOL    HW1 4006   1.991   1.897   5.909  0.0810  0.3278 -1.1055
 1022SOL    HW2 4007   1.960   2.033   5.966 -1.3761 -0.5375  0.2497
 1023SOL     OW 4008   7.279   5.987   1.499 -0.0408  0.0322  0.3059
 1023SOL    HW1 4009   7.352   5.982   1.559 -0.1808  0.0092  0.4752
 1023SOL    HW2 4010   7.316   5.963   1.414  0.4354  1.2864  0.1356
 1024SOL     OW 4011   5.840   4.145   7.291 -0.1690  0.9695 -0.3200
 1024SOL    HW1 4012   5.923   4.140   7.244  0.2944  1.4882  0.4409
 1024SOL    HW2 4013   5.802   4.058   7.281  0.5525  0.6702 -0.4936
 1025SOL     OW 4014   1.023   2.312   1.883  0.1589 -0.9059  0.8279
 1025SOL    HW1 4015   1.081   2.334   1.956 -0.7948  0.1560  1.2974
 1025SOL    HW2 4016   1.040   2.379   1.817 -1.4067  0.2117  1.4903
 1026SOL     OW 4017   2.324   4.284   3.530 -0.7373 -0.3065  0.1097
 1026SOL    HW1 4018   2.374   4.348   3.582 -1.5676 -0.0225  0.5876
 1026SOL    HW2 4019   2.303   4.214   3.592 -1.5482 -0.0710  0.1114
 1027SOL     OW 4020   1.358   0.442   4.617  0.2608  0.1225  0.3917
 1027SOL    HW1 4021   1.272   0.443   4.659 -1.0613  0.7325 -2.1483
 1027SOL    HW2 4022   1.341   0.418   4.526  3.0733 -2.0733  0.2732
 1028SOL     OW 4023   2.577   3.341   5.468  0.3813  0.0300  0.1664
 1028SOL    HW1 4024   2.626   3.285   5.408 -0.5331 -1.8299  1.0764
 1028SOL    HW2 4025   2.508   3.380   5.414  1.9279  1.5647 -0.8068
 1029SOL     OW 4026   4.217   4.900   2.405 -0.1977  0.2336 -0.2771
 1029SOL    HW1 4027   4.203   4.927   2.496 -0.1460  1.0138 -0.4883
 1029SOL    HW2 4028   4.152   4.951   2.355 -1.1038 -1.1239 -0.5536
 1030SOL     OW 4029   4.307   7.042   3.690 -0.3587 -0.2955 -0.4787
 1030SOL    HW1 4030   4.384   6.997   3.655 -0.6385  0.0498 -1.5883
 1030SOL    HW2 4031   4.237   6.978   3.684  0.5873 -2.2933  4.7151
 1031SOL     OW 4032   6.719   3.958   6.919 -0.3079  0.9784 -0.0707
 1031SOL    HW1 4033   6.663   4.021   6.872 -2.6749 -2.1490 -1.8161
 1031SOL    HW2 4034   6.669   3.935   6.997  0.3712  0.9331  0.3614
 1032SOL     OW 4035   3.308   5.795   3.160 -0.5410  1.0458 -0.2108
 1032SOL    HW1 4036   3.242   5.748   3.211  0.3973 -0.5204 -0.3690
 1032SOL    HW2 4037   3.259   5.833   3.088 -1.2454 -0.4136 -0.5529
 1033SOL     OW 4038   5.530   6.094   2.240  0.5137 -0.0439 -0.3925
 1033SOL    HW1 4039   5.610   6.058   2.278  0.3329  0.4127  0.4434
 1033SOL    HW2 4040   5.471   6.019   2.231  0.7504 -0.2429 -0.2702
 1034SOL     OW 4041   4.178   0.560   4.119  0.1215  0.1841 -0.3279
 1034SOL    HW1 4042   4.192   0.653   4.100 -1.2320  0.3567 -0.6004
 1034SOL    HW2 4043   4.213   0.549   4.207 -0.3183  1.1187 -0.0198
 1035SOL     OW 4044   0.500   3.858   2.470  0.0827  0.0253  0.0891
 1035SOL    HW1 4045   0.536   3.799   2.536  0.2991 -0.3114 -0.3294
 1035SOL    HW2 4046   0.429   3.809   2.430 -1.1034  0.8136  1.1535
 1036SOL     OW 4047   4.217   6.805   6.310 -0.2245  0.0266  0.4327
 1036SOL    HW1 4048   4.203   6.869   6.380  0.1250  2.1545 -1.3259
 1036SOL    HW2 4049   4.137   6.809   6.258  0.1731 -0.3048 -0.2128
 1037SOL     OW 4050   5.179   0.635   4.087 -0.0007  0.5125 -0.0059
 1037SOL    HW1 4051   5.268   0.616   4.056 -0.6526  0.2865 -1.8839
 1037SOL    HW2 4052   5.163   0.725   4.060 -0.6672  0.2436 -0.5473
 1038SOL     OW 4053   6.545   3.719   6.584 -0.2204 -0.1571 -0.1946
 1038SOL    HW1 4054   6.636   3.704   6.611  0.3487  0.4641 -1.6448
 1038SOL    HW2 4055   6.493   3.668   6.646  1.0753 -0.0527  1.0476
 1039SOL     OW 4056   1.715   3.773   1.669 -0.1311  1.0066  0.0460
 1039SOL    HW1 4057   1.621   3.789   1.672 -0.3394  0.9114 -2.8205
 1039SOL    HW2 4058   1.755   3.857   1.691 -0.9910  1.8167 -1.3351
 1040SOL     OW 4059   3.315   1.352   2.893  0.1709 -0.2657  0.6378
 1040SOL    HW1 4060   3.349   1.284   2.835 -0.4118 -1.4264  1.6242
 1040SOL    HW2 4061   3.282   1.419   2.834  0.2718 -1.0727 -0.3658
 1041SOL     OW 4062   3.415   6.951   6.429  0.9941  0.6801  0.3615
 1041SOL    HW1 4063   3.430   7.039   6.393 -0.7744  1.0095  0.3482
 1041SOL    HW2 4064   3.341   6.917   6.380  0.4015 -0.0344  1.7036
 1042SOL     OW 4065   2.464   4.586   4.603 -0.2477 -0.2921 -0.3214
 1042SOL    HW1 4066   2.535   4.602   4.665 -0.4528  0.6274 -0.3131
 1042SOL    HW2 4067   2.443   4.493   4.615  0.3097 -0.3441  0.3524
 1043SOL     OW 4068   1.868   2.539   2.602  0.5006 -0.4707  0.3450
 1043SOL    HW1 4069   1.813   2.529   2.525  0.8109  0.3114  0.0108
 1043SOL    HW2 4070   1.937   2.600   2.575  0.0853  0.5616  1.4930
 1044SOL     OW 4071   6.116   0.996   6.087  0.4049 -0.2164  0.0453
 1044SOL    HW1 4072   6.085   1.070   6.139  0.4964 -0.5129  0.5219
 1044SOL    HW2 4073   6.084   1.014   5.998 -1.4942 -0.6902  0.5737
 1045SOL     OW 4074   4.961   3.010   7.294 -0.2147  0.0419  0.4312
 1045SOL    HW1 4075   4.912   2.935   7.259  0.9178 -0.0456 -1.0721
 1045SOL    HW2 4076   5.053   2.982   7.289  0.0660  0.0703  3.4749
 1046SOL     OW 4077   5.972   2.615   7.023  0.8579  0.3143  0.2224
 1046SOL    HW1 4078   5.950   2.558   7.097 -1.4623 -0.0154 -0.6210
 1046SOL    HW2 4079   5.993   2.555   6.952  0.4273  0.5290 -0.0966
 1047SOL     OW 4080   5.100   1.163   6.220  0.0173  0.3751 -0.2909
 1047SOL    HW1 4081   5.013   1.196   6.199  0.7073  2.0625 -0.6240
 1047SOL    HW2 4082   5.136   1.226   6.283  0.7274 -0.7008  0.4232
 1048SOL     OW 4083   0.400   4.314   1.227 -0.4784  0.4777 -0.4625
 1048SOL    HW1 4084   0.440   4.245   1.279 -1.2979 -1.7623 -2.5746
 1048SOL    HW2 4085   0.325   4.343   1.278 -0.9712 -1.2817 -0.1389
 1049SOL     OW 4086   3.097   5.289   5.079  0.3170  0.0791  0.4094
 1049SOL    HW1 4087   3.150   5.317   5.004  0.9483  0.5562  1.0190
 1049SOL    HW2 4088   3.014   5.261   5.041 -0.5391  3.1464 -0.2512
 1050SOL     OW 4089   3.422   6.522   4.709 -0.0402 -0.3608  0.6979
 1050SOL    HW1 4090   3.457   6.611   4.710 -0.3877 -0.2119 -0.0620
 1050SOL    HW2 4091   3.336   6.530   4.749  0.4515 -0.5931  1.8440
 1051SOL     OW 4092   5.975   2.391   4.456 -0.3568 -0.1003  0.2283
 1051SOL    HW1 4093   5.964   2.457   4.524 -0.1471 -0.3831  0.5415
 1051SOL    HW2 4094   6.070   2.387   4.442 -0.5104  1.5199 -1.6446
 1052SOL     OW 4095   3.203   3.771   3.257 -0.1717 -0.0027  0.6429
 1052SOL    HW1 4096   3.200   3.745   3.349 -2.7621 -2.2718  0.0554
 1052SOL    HW2 4097   3.252   3.853   3.256  0.1254 -0.0347  3.9983
 1053SOL     OW 4098   2.720   0.780   4.468 -0.5618 -0.3539  0.0399
 1053SOL    HW1 4099   2.655   0.727   4.421  0.0423 -1.2564  0.1918
 1053SOL    HW2 4100   2.772   0.820   4.398 -0.9005 -0.1076 -0.0749
 1054SOL     OW 4101   6.065   3.071   3.368  0.0679  0.2122 -0.3039
 1054SOL    HW1 4102   6.090   3.156   3.402 -0.0583 -0.3319  1.2247
 1054SOL    HW2 4103   6.093   3.009   3.436  1.2602 -1.1000 -1.8947
 1055SOL     OW 4104   3.708   5.459   2.386  0.1784 -0.4543 -0.5202
 1055SOL    HW1 4105   3.751   5.539   2.416 -1.9160  0.1872  1.0224
 1055SOL    HW2 4106   3.616   5.483   2.379 -0.4852 -2.6786 -0.1876
 1056SOL     OW 4107   4.932   1.708   7.422  0.0205 -0.0964  0.8902
 1056SOL    HW1 4108   4.848   1.660   7.422 -0.8764  1.3073 -1.5786
 1056SOL    HW2 4109   4.910   1.794   7.456  0.6144  0.0832  0.8264
 1057SOL     OW 4110   6.090   7.049   7.017  0.0075  0.3335  0.5567
 1057SOL    HW1 4111   6.061   7.012   7.101 -1.7001  0.6466  0.1305
 1057SOL    HW2 4112   6.053   6.991   6.951 -1.8346  2.1425 -0.0927
 1058SOL     OW 4113   2.791   0.962   6.086 -0.0293  0.4200  0.4396
 1058SOL    HW1 4114   2.836   1.027   6.139  1.3925 -1.1218  1.2101
 1058SOL    HW2 4115   2.786   0.885   6.142 -1.6779 -0.1686 -0.4420
 1059SOL     OW 4116   2.793   7.405   0.452 -0.1338 -0.0139 -0.3586
 1059SOL    HW1 4117   2.772   7.458   0.375  0.3229  4.2911  2.1604
 1059SOL    HW2 4118   2.869   7.447   0.490 -0.7042 -1.5293  2.8077
 1060SOL     OW 4119   3.874   1.013   3.395 -0.6572 -0.3338  0.3281
 1060SOL    HW1 4120   3.880   1.074   3.322  1.8523  0.6699  1.2640
 1060SOL    HW2 4121   3.950   0.957   3.386  0.1456  0.3116  2.5396
 1061SOL     OW 4122   1.423   6.153   7.102 -0.6766 -0.7286 -0.3596
 1061SOL    HW1 4123   1.392   6.228   7.051 -0.7301 -0.6706 -0.2416
 1061SOL    HW2 4124   1.434   6.187   7.190  0.3041 -0.5987 -0.5215
 1062SOL     OW 4125   5.726   3.775   4.928  0.3373  0.2275 -0.0269
 1062SOL    HW1 4126   5.714   3.748   4.837  1.2285 -1.6429  0.3622
 1062SOL    HW2 4127   5.767   3.861   4.923  0.9330 -0.1189 -1.4071
 1063SOL     OW 4128   0.531   4.950   1.299 -0.0096  0.0182 -0.3381
 1063SOL    HW1 4129   0.506   4.888   1.368  0.8717  1.3894  1.2831
 1063SOL    HW2 4130   0.462   5.017   1.302  0.2896  0.3312 -0.4537
 1064SOL     OW 4131   4.600   3.575   2.864  0.0916  0.3354  0.5946
 1064SOL    HW1 4132   4.654   3.528   2.928  0.4122  0.7079  0.6032
 1064SOL    HW2 4133   4.663   3.614   2.803 -0.1984  0.2580  0.2418
 1065SOL     OW 4134   2.722   1.253   0.213  0.2231 -0.5347  0.1686
 1065SOL    HW1 4135   2.697   1.256   0.120  0.1673  1.8485  0.1893
 1065SOL    HW2 4136   2.788   1.321   0.222 -0.5434  0.0329  2.0847
 1066SOL     OW 4137   2.909   2.002   2.950 -0.2257  0.5668  0.4440
 1066SOL    HW1 4138   2.842   2.023   2.885 -0.3807 -1.5629 -0.1674
 1066SOL    HW2 4139   2.983   1.968   2.899 -0.3033 -1.0238  1.3186
 1067SOL     OW 4140   0.425   7.253   2.419 -0.8256  0.2086 -0.1566
 1067SOL    HW1 4141   0.443   7.287   2.507 -0.3111  0.8119 -0.4883
 1067SOL    HW2 4142   0.334   7.224   2.423 -0.5094 -0.7008  0.8653
 1068SOL     OW 4143   0.729   0.044   0.269  0.2626  0.0708 -0.1898
 1068SOL    HW1 4144   0.712   0.085   0.354  1.2487  0.5115 -0.1906
 1068SOL    HW2 4145   0.814   0.002   0.279  1.1416  1.4608 -1.4188
 1069SOL     OW 4146   1.718   5.409   1.472 -0.1701  0.1370  0.2693
 1069SOL    HW1 4147   1.625   5.413   1.450 -0.0528 -0.5910 -0.4140
 1069SOL    HW2 4148   1.724   5.449   1.558 -0.8358  1.8909 -0.4670
 1070SOL     OW 4149   5.815   1.090   3.289  0.0440 -0.1870 -0.0902
 1070SOL    HW1 4150   5.856   1.176   3.288 -0.7781  0.2167 -1.0979
 1070SOL    HW2 4151   5.829   1.058   3.378  1.2591  0.5386  0.0009
 1071SOL     OW 4152   5.438   5.605   3.939  0.2348  0.5599 -0.6360
 1071SOL    HW1 4153   5.481   5.684   3.973  0.6386 -0.1217  0.5195
 1071SOL    HW2 4154   5.486   5.585   3.859  0.1648  1.4461 -0.9137
 1072SOL     OW 4155   3.556   5.839   3.026 -0.1683  0.0070  0.3179
 1072SOL    HW1 4156   3.634   5.887   3.054 -0.8499  2.2432 -1.2948
 1072SOL    HW2 4157   3.491   5.859   3.092  0.2227 -0.7879  0.9655
 1073SOL     OW 4158   3.306   6.717   5.602 -0.4296  0.1647 -0.0116
 1073SOL    HW1 4159   3.396   6.741   5.581  0.0557 -0.5063  1.2479
 1073SOL    HW2 4160   3.253   6.787   5.562  0.7043  1.1846  0.1981
 1074SOL     OW 4161   3.810   4.284   2.662 -0.0619 -0.4983  0.2905
 1074SOL    HW1 4162   3.755   4.232   2.721 -1.4010  0.0596 -0.4198
 1074SOL    HW2 4163   3.814   4.371   2.703  0.9101 -0.7189  0.6989
 1075SOL     OW 4164   2.445   1.184   1.967  0.2296  0.2320  0.1997
 1075SOL    HW1 4165   2.439   1.144   1.880 -0.1255  0.8012 -0.0406
 1075SOL    HW2 4166   2.516   1.248   1.959  0.8303 -0.3643  0.6001
 1076SOL     OW 4167   5.954   4.519   5.146  0.3658  0.0370 -0.0499
 1076SOL    HW1 4168   5.951   4.471   5.229  0.0781 -2.0571 -1.1968
 1076SOL    HW2 4169   6.043   4.553   5.141  0.2526  0.6022  1.3035
 1077SOL     OW 4170   3.546   2.229   7.196 -0.1654  0.5217 -0.1532
 1077SOL    HW1 4171   3.452   2.212   7.205 -0.0369  0.0362  0.3198
 1077SOL    HW2 4172   3.552   2.322   7.176 -0.8219  0.3047 -1.4991
 1078SOL     OW 4173   2.540   7.341   1.097 -0.0442 -0.1335  0.5082
 1078SOL    HW1 4174   2.569   7.251   1.111  0.9126  0.2337  0.9895
 1078SOL    HW2 4175   2.598   7.375   1.029  0.1749  0.3725  0.9369
 1079SOL     OW 4176   2.434   4.718   2.173 -0.5206  0.6072 -0.2934
 1079SOL    HW1 4177   2.514   4.767   2.194 -1.9285  3.2221 -0.7134
 1079SOL    HW2 4178   2.450   4.685   2.084  0.1930  0.8604 -0.2720
 1080SOL     OW 4179   2.244   5.855   1.145  0.5464  0.6032 -0.3101
 1080SOL    HW1 4180   2.290   5.781   1.105  1.0941  0.7568  0.0369
 1080SOL    HW2 4181   2.305   5.928   1.138 -0.2711  1.2118 -1.3070
 1081SOL     OW 4182   3.389   1.534   1.748 -0.0690  0.0299  0.0727
 1081SOL    HW1 4183   3.313   1.481   1.725 -0.0851 -0.3891  1.0492
 1081SOL    HW2 4184   3.464   1.480   1.726 -0.0873 -0.5471  1.3492
 1082SOL     OW 4185   6.946   0.569   5.052 -0.4290 -0.1366 -0.1674
 1082SOL    HW1 4186   7.034   0.606   5.054 -0.5355  0.0904  1.3723
 1082SOL    HW2 4187   6.900   0.622   4.986  0.5665 -0.2703 -1.0040
 1083SOL     OW 4188   1.332   1.801   6.659  0.7454  0.0151 -0.6191
 1083SOL    HW1 4189   1.321   1.863   6.587 -0.9231 -0.5961 -0.9393
 1083SOL    HW2 4190   1.425   1.804   6.679  0.8863  1.8146 -1.3410
 1084SOL     OW 4191   1.861   0.345   2.592  0.2305 -0.4906  0.1553
 1084SOL    HW1 4192   1.885   0.415   2.652 -0.7395  0.9668 -1.0897
 1084SOL    HW2 4193   1.774   0.368   2.561  0.1238 -1.9509 -0.7267
 1085SOL     OW 4194   0.624   3.005   2.460  0.0780  0.0248  0.0038
 1085SOL    HW1 4195   0.564   3.070   2.497 -1.0641 -0.4405 -0.9620
 1085SOL    HW2 4196   0.623   3.023   2.365  0.7193 -0.6119 -0.1300
 1086SOL     OW 4197   6.872   4.959   5.272 -0.0181 -0.3086  0.6543
 1086SOL    HW1 4198   6.866   4.955   5.368 -0.7655  0.9703  0.6841
 1086SOL    HW2 4199   6.954   4.915   5.252  0.1304 -0.6427  1.8846
 1087SOL     OW 4200   0.683   3.171   6.668  0.1069 -0.2794  0.4465
 1087SOL    HW1 4201   0.720   3.229   6.735 -3.8401  0.4567  2.2625
 1087SOL    HW2 4202   0.634   3.106   6.718 -1.1223 -1.0712 -1.6834
 1088SOL     OW 4203   3.766   1.850   3.382 -0.6236  0.3212  0.0382
 1088SOL    HW1 4204   3.794   1.860   3.291 -3.1109  0.8397 -0.7579
 1088SOL    HW2 4205   3.736   1.937   3.408 -0.6911 -0.0044  1.0878
 1089SOL     OW 4206   4.795   2.541   6.998  0.3064 -0.0778  0.2949
 1089SOL    HW1 4207   4.770   2.474   6.934  0.6292 -2.2739  2.3130
 1089SOL    HW2 4208   4.856   2.496   7.057  0.1301  1.8322  2.0460
 1090SOL     OW 4209   1.939   0.607   4.080 -0.3366  0.0912 -0.4922
 1090SOL    HW1 4210   1.922   0.551   4.004  0.7654 -0.8803 -0.0653
 1090SOL    HW2 4211   1.930   0.549   4.156  3.0387 -0.2259 -0.1390
 1091SOL     OW 4212   1.243   5.638   5.445  0.6862  0.0954 -0.4090
 1091SOL    HW1 4213   1.236   5.627   5.350 -0.7320 -0.2407 -0.2893
 1091SOL    HW2 4214   1.263   5.550   5.477 -2.3488 -0.6181 -0.1513
 1092SOL     OW 4215   4.440   2.495   5.050 -0.1990 -0.2274  0.2980
 1092SOL    HW1 4216   4.476   2.446   4.976 -0.9396 -1.0908  0.4841
 1092SOL    HW2 4217   4.441   2.432   5.122 -1.4375 -0.0587  0.4760
 1093SOL     OW 4218   1.343   6.265   5.221 -0.0055 -0.2398 -0.2228
 1093SOL    HW1 4219   1.329   6.291   5.313 -1.7572  0.7867 -0.7436
 1093SOL    HW2 4220   1.376   6.175   5.227  0.1262 -0.1244  1.4227
 1094SOL     OW 4221   4.079   1.866   2.644 -0.2733  0.1616 -0.0955
 1094SOL    HW1 4222   4.051   1.785   2.687 -0.6224  0.5805  0.4767
 1094SOL    HW2 4223   4.155   1.895   2.695 -0.1478  0.2021 -0.3016
 1095SOL     OW 4224   2.551   2.166   1.033  0.2526 -0.3314  0.2964
 1095SOL    HW1 4225   2.502   2.240   0.999 -2.1304 -1.2011  1.6010
 1095SOL    HW2 4226   2.624   2.205   1.080  0.8392  1.0212 -1.5963
 1096SOL     OW 4227   5.914   6.969   5.512 -0.1615 -0.7953 -0.2393
 1096SOL    HW1 4228   5.895   7.016   5.431  1.4418 -0.7133 -0.6138
 1096SOL    HW2 4229   6.010   6.962   5.513 -0.2152 -1.6854  1.1517
 1097SOL     OW 4230   6.729   4.687   0.057 -0.2434  0.2512  0.6206
 1097SOL    HW1 4231   6.792   4.727   0.117  0.9379  1.8008 -1.5041
 1097SOL    HW2 4232   6.655   4.748   0.055  0.4639  1.1002 -0.7269
 1098SOL     OW 4233   2.819   5.918   4.815  0.1332  0.5709 -0.1837
 1098SOL    HW1 4234   2.819   5.976   4.891 -0.3271  0.7674 -0.3359
 1098SOL    HW2 4235   2.782   5.970   4.744 -3.4572 -0.8672  0.4266
 1099SOL     OW 4236   4.096   6.829   7.239 -0.0959  0.4055 -0.1074
 1099SOL    HW1 4237   4.142   6.748   7.259 -0.1848  0.0649 -1.2082
 1099SOL    HW2 4238   4.016   6.801   7.194 -0.7487  1.0505  0.6089
 1100SOL     OW 4239   4.913   2.823   4.116  0.3958  0.1180 -0.3825
 1100SOL    HW1 4240   4.980   2.768   4.075  1.3969  0.4983  0.6550
 1100SOL    HW2 4241   4.927   2.910   4.078  2.7644  1.0038  2.1230
 1101SOL     OW 4242   6.210   2.650   3.588  0.3326 -0.0734  0.1222
 1101SOL    HW1 4243   6.209   2.583   3.657  0.8514 -1.0198 -0.7730
 1101SOL    HW2 4244   6.302   2.658   3.562  0.1612  0.3734 -0.3765
 1102SOL     OW 4245   4.060   3.881   2.991 -0.6417  0.0208 -0.1428
 1102SOL    HW1 4246   4.077   3.802   3.042 -0.4390  0.6984  0.8564
 1102SOL    HW2 4247   4.027   3.945   3.055  0.1423  1.0594 -0.7497
 1103SOL     OW 4248   3.216   2.000   5.412  0.1819 -0.4842 -0.6023
 1103SOL    HW1 4249   3.170   1.978   5.493  0.0477  0.0684 -0.5270
 1103SOL    HW2 4250   3.298   1.950   5.417 -0.0639 -0.8748 -0.3821
 1104SOL     OW 4251   2.553   0.767   6.978  0.1443 -0.3285 -0.1499
 1104SOL    HW1 4252   2.485   0.811   6.926  0.6296  0.6302  0.0049
 1104SOL    HW2 4253   2.508   0.737   7.057 -0.3279 -0.6807 -0.5464
 1105SOL     OW 4254   5.604   4.800   2.191  0.1882  0.9465  0.1247
 1105SOL    HW1 4255   5.605   4.728   2.127  0.4539  0.6180  0.4950
 1105SOL    HW2 4256   5.516   4.838   2.182 -0.5533 -0.4394  1.0211
 1106SOL     OW 4257   5.810   0.062   2.159  0.3351 -0.2887  0.3299
 1106SOL    HW1 4258   5.814   0.143   2.108  2.7996 -0.4195  0.1806
 1106SOL    HW2 4259   5.838   0.088   2.247 -0.6546 -0.6742  0.7749
 1107SOL     OW 4260   1.971   3.348   3.517 -0.4369 -0.0750  0.5231
 1107SOL    HW1 4261   1.938   3.298   3.592  0.1009 -1.0689  0.1168
 1107SOL    HW2 4262   1.893   3.389   3.480 -1.5112 -3.1729 -1.0156
 1108SOL     OW 4263   3.130   4.263   4.852  0.6004 -0.1491  0.6387
 1108SOL    HW1 4264   3.094   4.345   4.885 -1.6391 -0.4808 -0.7704
 1108SOL    HW2 4265   3.161   4.217   4.930 -3.0007 -0.2304  2.2068
 1109SOL     OW 4266   0.149   5.536   6.703 -0.5265 -0.6814  0.2056
 1109SOL    HW1 4267   0.114   5.620   6.674  1.4488  0.6133  1.3257
 1109SOL    HW2 4268   0.220   5.516   6.641  0.3688 -0.4483  1.1276
 1110SOL     OW 4269   7.044   5.992   3.882 -0.2171  0.2140  0.1900
 1110SOL    HW1 4270   7.093   5.922   3.839  0.6292  1.0724 -0.2879
 1110SOL    HW2 4271   6.961   5.996   3.835 -0.7832 -1.2726  1.0172
 1111SOL     OW 4272   0.125   5.654   6.293 -0.0763 -0.5231  0.2789
 1111SOL    HW1 4273   0.114   5.562   6.316 -1.7732 -0.0248  1.6483
 1111SOL    HW2 4274   0.190   5.686   6.356 -0.8909 -0.3555  1.0415
 1112SOL     OW 4275   5.645   1.309   6.303 -0.0250  0.0302 -0.2116
 1112SOL    HW1 4276   5.589   1.377   6.264 -2.6263 -0.9949  1.4798
 1112SOL    HW2 4277   5.685   1.352   6.379  1.1055  0.6059 -1.1061
 1113SOL     OW 4278   2.974   5.211   3.900 -0.3251  0.1131 -0.3032
 1113SOL    HW1 4279   3.011   5.167   3.824  2.3207  0.1321  0.8422
 1113SOL    HW2 4280   2.886   5.175   3.909 -0.7654  0.2096 -3.3688
 1114SOL     OW 4281   4.980   4.854   3.412  0.5040  0.0893 -0.2367
 1114SOL    HW1 4282   5.050   4.800   3.377  1.2824  0.7870  0.2066
 1114SOL    HW2 4283   4.961   4.817   3.498  1.0298  0.4937  0.0623
 1115SOL     OW 4284   1.089   0.897   3.024  0.2276 -0.3332 -0.7490
 1115SOL    HW1 4285   1.177   0.926   3.049 -0.3982  0.4175  0.7508
 1115SOL    HW2 4286   1.101   0.810   2.988  1.5584 -0.3778 -0.2372
 1116SOL     OW 4287   0.095   1.863   1.356  0.1206  0.5821 -0.2399
 1116SOL    HW1 4288   0.158   1.934   1.345 -0.7844  1.6827  1.3285
 1116SOL    HW2 4289   0.012   1.906   1.376 -0.3371 -0.8952  1.3526
 1117SOL     OW 4290   1.774   4.672   5.656 -0.4819 -0.0671  0.3692
 1117SOL    HW1 4291   1.831   4.693   5.581 -0.8068  2.6590  0.7607
 1117SOL    HW2 4292   1.688   4.707   5.631 -0.3996  1.6910  2.2738
 1118SOL     OW 4293   2.531   3.929   6.236 -0.4288  0.4197 -0.5193
 1118SOL    HW1 4294   2.605   3.872   6.260 -1.3422 -0.8388 -0.5688
 1118SOL    HW2 4295   2.562   3.978   6.161  1.0078  1.3044  0.6004
 1119SOL     OW 4296   6.527   5.771   0.095  0.2233 -0.6389  0.4730
 1119SOL    HW1 4297   6.448   5.815   0.126  1.5206  0.6207  2.2243
 1119SOL    HW2 4298   6.541   5.805   0.007  0.7648  2.0707  1.4845
 1120SOL     OW 4299   2.590   5.237   6.593 -0.0174 -0.1982  0.7125
 1120SOL    HW1 4300   2.667   5.279   6.555 -0.6270 -1.2204 -1.8753
 1120SOL    HW2 4301   2.618   5.147   6.612 -0.1045 -0.0848  1.3885
 1121SOL     OW 4302   7.084   3.888   3.309  0.4262  0.1316 -0.1598
 1121SOL    HW1 4303   7.015   3.894   3.375 -0.5467 -0.9141 -1.0325
 1121SOL    HW2 4304   7.129   3.805   3.329  2.0956  1.2264  0.9636
 1122SOL     OW 4305   5.057   2.407   7.103 -0.7461  0.0459 -0.6779
 1122SOL    HW1 4306   5.028   2.319   7.125 -1.5335  0.1089 -1.4052
 1122SOL    HW2 4307   5.123   2.394   7.035 -0.0740 -0.0256 -0.0253
 1123SOL     OW 4308   3.814   3.609   2.313 -0.5312 -0.1028 -0.7840
 1123SOL    HW1 4309   3.876   3.547   2.352  0.7744  1.1317 -0.8489
 1123SOL    HW2 4310   3.732   3.559   2.307  0.2642 -1.5640 -0.1013
 1124SOL     OW 4311   6.182   1.276   6.876 -0.5489  0.5639 -0.4352
 1124SOL    HW1 4312   6.189   1.366   6.906 -0.0553  0.2868  0.3012
 1124SOL    HW2 4313   6.258   1.232   6.912 -0.2931  0.0459 -1.5443
 1125SOL     OW 4314   0.384   0.263   7.340 -0.0127 -0.0087 -0.1871
 1125SOL    HW1 4315   0.406   0.350   7.374 -1.0950 -0.3407  1.5157
 1125SOL    HW2 4316   0.455   0.207   7.369  0.3907  0.1853 -0.7813
 1126SOL     OW 4317   1.802   2.234   2.601  0.0646 -0.2326  0.2646
 1126SOL    HW1 4318   1.734   2.192   2.654 -0.6905  0.1201 -0.4074
 1126SOL    HW2 4319   1.772   2.324   2.591  1.5857  0.4604  1.5528
 1127SOL     OW 4320   1.947   4.381   3.280 -0.2919 -0.4756 -0.2994
 1127SOL    HW1 4321   1.857   4.350   3.280 -0.6057  0.4062  0.4224
 1127SOL    HW2 4322   1.999   4.304   3.258 -1.1648 -1.1637  0.0124
 1128SOL     OW 4323   2.373   2.823   4.909  0.1021  0.1603  0.0852
 1128SOL    HW1 4324   2.291   2.777   4.925 -0.0131  0.8209  1.5971
 1128SOL    HW2 4325   2.439   2.754   4.901 -0.4027 -0.3330  0.1699
 1129SOL     OW 4326   2.469   5.426   4.250  0.3870 -0.0963  0.0797
 1129SOL    HW1 4327   2.559   5.455   4.232  0.5652 -1.4036 -1.4545
 1129SOL    HW2 4328   2.480   5.339   4.288 -0.2040 -0.9662 -1.6208
 1130SOL     OW 4329   4.672   5.241   6.609  0.1753 -0.4575  0.6223
 1130SOL    HW1 4330   4.580   5.238   6.583  0.1303 -1.1617  0.8343
 1130SOL    HW2 4331   4.671   5.218   6.702  0.7180 -2.4209  0.1847
 1131SOL     OW 4332   4.657   4.775   1.829 -0.3752 -0.1636  0.3739
 1131SOL    HW1 4333   4.652   4.780   1.925 -0.5054  1.9927  0.2843
 1131SOL    HW2 4334   4.569   4.745   1.803 -0.9215  0.9592  0.8542
 1132SOL     OW 4335   2.091   5.892   3.390 -0.7455 -0.6512  0.0755
 1132SOL    HW1 4336   2.044   5.953   3.333  0.2560 -0.5928 -0.6982
 1132SOL    HW2 4337   2.103   5.940   3.472 -0.5636 -0.0595 -0.2953
 1133SOL     OW 4338   1.784   5.584   1.950 -0.2633 -0.3196  0.2239
 1133SOL    HW1 4339   1.763   5.589   2.044 -1.4184 -0.2090 -0.0168
 1133SOL    HW2 4340   1.725   5.517   1.917  0.4401 -0.6563 -0.3530
 1134SOL     OW 4341   0.618   1.437   3.698  0.5107  0.5920  0.2848
 1134SOL    HW1 4342   0.545   1.490   3.666  0.3885 -1.3023 -3.0889
 1134SOL    HW2 4343   0.601   1.349   3.663  3.8705 -0.1573  0.1759
 1135SOL     OW 4344   6.290   2.247   4.700  0.0597 -0.3003  0.2479
 1135SOL    HW1 4345   6.223   2.180   4.716 -2.2256  2.1092  1.4652
 1135SOL    HW2 4346   6.277   2.311   4.770  2.3411  1.2887 -0.6745
 1136SOL     OW 4347   0.506   4.495   6.123 -0.1364 -0.3764 -0.5703
 1136SOL    HW1 4348   0.536   4.448   6.201 -0.1778 -0.7825 -0.7991
 1136SOL    HW2 4349   0.412   4.480   6.120  0.0059 -1.1633 -1.2336
 1137SOL     OW 4350   4.538   5.925   4.120  0.1097  0.1535 -0.1387
 1137SOL    HW1 4351   4.462   5.892   4.167  0.1409  0.1708 -0.0767
 1137SOL    HW2 4352   4.511   5.925   4.028 -0.2894  0.9982 -0.0393
 1138SOL     OW 4353   0.765   5.971   1.783 -0.0830 -0.0540  0.0443
 1138SOL    HW1 4354   0.671   5.973   1.801 -0.1780  1.6812 -0.5404
 1138SOL    HW2 4355   0.795   5.890   1.825 -1.5933  0.0451  1.4085
 1139SOL     OW 4356   3.433   2.659   5.074 -0.5202 -0.5118 -0.0221
 1139SOL    HW1 4357   3.523   2.648   5.103 -0.2413  1.5671  0.0423
 1139SOL    HW2 4358   3.387   2.582   5.108  0.8680 -0.7228  1.4952
 1140SOL     OW 4359   4.144   1.629   6.222  0.1201 -0.4607  0.2969
 1140SOL    HW1 4360   4.144   1.722   6.247  0.9324 -0.7052  1.3083
 1140SOL    HW2 4361   4.229   1.597   6.253 -1.2216 -2.1708  2.4703
 1141SOL     OW 4362   1.522   2.814   3.923  0.2298  0.0804  0.5768
 1141SOL    HW1 4363   1.433   2.827   3.955  0.0694 -0.8708  0.5291
 1141SOL    HW2 4364   1.538   2.720   3.932  1.0165  0.1504  0.0360
 1142SOL     OW 4365   1.310   5.571   6.135  0.1837 -0.4754  0.1404
 1142SOL    HW1 4366   1.358   5.570   6.218 -1.7033  3.7757  1.5770
 1142SOL    HW2 4367   1.227   5.529   6.154  0.5070 -1.3076 -0.2371
 1143SOL     OW 4368   6.295   6.877   4.064 -0.0130  0.2856 -0.4904
 1143SOL    HW1 4369   6.363   6.811   4.056  0.2186  0.4703 -0.0536
 1143SOL    HW2 4370   6.220   6.830   4.102  0.3982  0.4327  0.5370
 1144SOL     OW 4371   1.605   5.806   4.051  0.2858  0.1606  0.0488
 1144SOL    HW1 4372   1.677   5.801   4.113  0.7569 -0.3791 -0.5335
 1144SOL    HW2 4373   1.564   5.719   4.054  0.9006 -0.1830 -1.0853
 1145SOL     OW 4374   2.638   4.221   5.263  0.4678 -0.0291 -0.2028
 1145SOL    HW1 4375   2.557   4.244   5.219  0.4758 -0.4570 -0.4475
 1145SOL    HW2 4376   2.641   4.278   5.340  0.8668  1.3135 -1.1727
 1146SOL     OW 4377   2.664   2.176   2.129  0.2900  0.6859  0.1621
 1146SOL    HW1 4378   2.640   2.087   2.156  0.6305  0.4528 -0.2902
 1146SOL    HW2 4379   2.588   2.230   2.154  0.1884  0.3147  0.6679
 1147SOL     OW 4380   1.929   0.999   0.660  0.1491  0.3516 -0.4707
 1147SOL    HW1 4381   1.838   0.978   0.679  0.2797  0.7744  0.6725
 1147SOL    HW2 4382   1.925   1.077   0.605 -0.1511  1.2410  0.7822
 1148SOL     OW 4383   5.281   4.307   5.400 -0.3723  0.1113  0.5014
 1148SOL    HW1 4384   5.362   4.289   5.353 -0.6149  0.7364 -0.1764
 1148SOL    HW2 4385   5.262   4.225   5.446 -0.2331 -0.6127 -0.6632
 1149SOL     OW 4386   6.476   1.658   4.756 -0.1807 -0.2821  0.1469
 1149SOL    HW1 4387   6.442   1.655   4.667  1.3232 -0.2584 -0.4568
 1149SOL    HW2 4388   6.474   1.566   4.785 -0.9757 -0.2457  0.2150
 1150SOL     OW 4389   2.685   7.041   5.596  0.6120 -0.6089 -0.1383
 1150SOL    HW1 4390   2.590   7.048   5.587  0.4633 -0.5676  1.3002
 1150SOL    HW2 4391   2.720   7.100   5.528 -0.3654 -0.7743 -0.8037
 1151SOL     OW 4392   1.684   4.147   1.068 -0.4874  0.2018 -0.4312
 1151SOL    HW1 4393   1.734   4.092   1.007 -0.1234  0.6002 -0.4966
 1151SOL    HW2 4394   1.636   4.207   1.012  0.1251  0.8078 -0.3259
 1152SOL     OW 4395   5.089   3.556   0.011  0.0086  0.3965 -0.0663
 1152SOL    HW1 4396   5.008   3.536   0.058 -1.0582  0.9804 -1.5860
 1152SOL    HW2 4397   5.076   3.521  -0.077  1.0728  1.2133 -0.5806
 1153SOL     OW 4398   7.131   1.998   3.310 -0.0779 -0.1743  0.2060
 1153SOL    HW1 4399   7.161   2.038   3.229  0.3172 -0.6623  0.1034
 1153SOL    HW2 4400   7.081   2.066   3.354 -3.3088 -0.8742 -2.0485
 1154SOL     OW 4401   7.311   4.214   6.145 -0.1598  0.3475 -0.6434
 1154SOL    HW1 4402   7.361   4.134   6.131 -0.2683 -0.0839  1.1286
 1154SOL    HW2 4403   7.243   4.189   6.208 -0.5275  1.7076 -0.4678
 1155SOL     OW 4404   0.555   5.096   0.942  0.2916 -0.5547 -0.3877
 1155SOL    HW1 4405   0.650   5.099   0.944  0.3631 -2.1258  0.2492
 1155SOL    HW2 4406   0.534   5.024   0.882 -0.3940 -1.9759  1.4412
 1156SOL     OW 4407   6.398   5.801   1.612 -0.4304 -0.2803  0.5003
 1156SOL    HW1 4408   6.347   5.881   1.600  2.2567  1.4267 -0.3734
 1156SOL    HW2 4409   6.385   5.778   1.704 -4.3500 -1.2159 -0.1053
 1157SOL     OW 4410   4.424   6.985   0.929  0.6361  0.3755 -0.2175
 1157SOL    HW1 4411   4.427   7.015   1.020 -0.1102  0.0074 -0.0612
 1157SOL    HW2 4412   4.490   7.038   0.884  1.2987  0.2823  0.6135
 1158SOL     OW 4413   1.094   3.050   6.117  0.0184 -0.1561 -0.1385
 1158SOL    HW1 4414   1.085   3.057   6.022 -0.6251 -0.1200 -0.0843
 1158SOL    HW2 4415   1.152   2.976   6.131  0.3803  0.0458 -0.5690
 1159SOL     OW 4416   0.911   0.684   6.524 -0.4033  0.0964 -0.5387
 1159SOL    HW1 4417   0.965   0.609   6.499 -0.8736 -1.3573  2.4420
 1159SOL    HW2 4418   0.821   0.654   6.511 -0.5904  0.2568  0.3475
 1160SOL     OW 4419   4.377   5.864   7.036  0.5625  0.2386 -0.4478
 1160SOL    HW1 4420   4.417   5.778   7.021 -0.1934 -0.0895 -0.5984
 1160SOL    HW2 4421   4.449   5.918   7.068  0.5421 -1.0960  2.1248
 1161SOL     OW 4422   2.910   6.276   5.812  0.1828 -0.0469  0.3169
 1161SOL    HW1 4423   2.836   6.238   5.765  0.9493 -0.4394 -0.6088
 1161SOL    HW2 4424   2.984   6.218   5.792  0.7741  0.4190  1.0903
 1162SOL     OW 4425   3.994   5.082   6.195 -0.3704 -0.0070  0.2669
 1162SOL    HW1 4426   4.034   4.995   6.201 -2.2192 -0.9059  0.3406
 1162SOL    HW2 4427   3.958   5.098   6.282  1.2251  1.5356  0.6969
 1163SOL     OW 4428   5.801   6.023   5.035  0.3955 -0.1093 -0.1167
 1163SOL    HW1 4429   5.713   5.988   5.020  0.3475 -0.5170  1.0081
 1163SOL    HW2 4430   5.856   5.976   4.972 -0.1232 -0.1697 -0.5321
 1164SOL     OW 4431   2.714   4.490   1.001 -0.0513 -0.4073  0.1680
 1164SOL    HW1 4432   2.688   4.487   0.909  0.7502 -2.2967 -0.0619
 1164SOL    HW2 4433   2.761   4.573   1.010 -1.3539  0.4653 -0.7483
 1165SOL     OW 4434   5.737   6.269   0.279 -0.3592  0.0194  0.2605
 1165SOL    HW1 4435   5.703   6.192   0.233  1.0452 -0.4897  0.0010
 1165SOL    HW2 4436   5.764   6.329   0.210  1.3303 -0.5552  0.3612
 1166SOL     OW 4437   4.010   1.958   1.829  0.6218  0.3391  0.6653
 1166SOL    HW1 4438   4.013   1.907   1.910  2.0571  1.4519  1.3511
 1166SOL    HW2 4439   4.083   2.019   1.836  1.1418  0.1032 -1.7199
 1167SOL     OW 4440   2.614   1.827   1.559  0.7667 -0.2584 -0.1401
 1167SOL    HW1 4441   2.697   1.856   1.597  1.7277 -0.9413 -1.6502
 1167SOL    HW2 4442   2.598   1.889   1.487 -0.9722  0.9510  1.2027
 1168SOL     OW 4443   3.434   2.099   5.663 -0.3027 -0.5800 -0.0677
 1168SOL    HW1 4444   3.435   2.127   5.572  0.1266  0.5656  0.2650
 1168SOL    HW2 4445   3.492   2.022   5.665 -0.0656 -0.4240 -0.7023
 1169SOL     OW 4446   3.296   3.256   1.091  0.4197  0.8836 -0.0219
 1169SOL    HW1 4447   3.319   3.340   1.132 -0.1701  2.2634 -2.2925
 1169SOL    HW2 4448   3.325   3.266   1.000 -1.1254 -0.7318 -0.7543
 1170SOL     OW 4449   3.244   4.271   5.139 -0.6948  0.0713 -0.1899
 1170SOL    HW1 4450   3.313   4.284   5.205 -1.3760  0.2363  0.5110
 1170SOL    HW2 4451   3.287   4.221   5.069 -0.6502 -2.7148  1.6553
 1171SOL     OW 4452   6.693   3.083   1.947 -0.0458 -0.3136 -0.3223
 1171SOL    HW1 4453   6.720   3.081   1.855  0.0616 -2.5098 -0.2881
 1171SOL    HW2 4454   6.770   3.117   1.993  0.2746 -0.1901 -0.9393
 1172SOL     OW 4455   0.047   5.390   6.434 -0.2363  0.0894  0.6150
 1172SOL    HW1 4456  -0.025   5.421   6.488  0.3184  0.9284  0.8973
 1172SOL    HW2 4457   0.114   5.362   6.497  0.4259  1.1032  0.3999
 1173SOL     OW 4458   0.767   2.184   4.139 -0.9767 -0.1554  0.0643
 1173SOL    HW1 4459   0.822   2.237   4.197 -0.3745  0.3055 -0.9044
 1173SOL    HW2 4460   0.757   2.101   4.185 -0.6009  0.2262  0.8717
 1174SOL     OW 4461   0.450   2.991   5.030  0.7985  0.0167  0.3877
 1174SOL    HW1 4462   0.520   3.056   5.023  1.1126 -0.3567  0.0167
 1174SOL    HW2 4463   0.425   2.974   4.939  1.2077 -0.9034  0.4333
 1175SOL     OW 4464   6.198   4.619   5.099  0.0393  0.4051 -0.6272
 1175SOL    HW1 4465   6.219   4.567   5.022 -0.4562 -0.1601 -0.3813
 1175SOL    HW2 4466   6.283   4.651   5.130  0.6573 -2.2562  0.6501
 1176SOL     OW 4467   4.225   6.658   1.996 -0.1722 -0.0834 -0.2599
 1176SOL    HW1 4468   4.233   6.752   2.007 -0.7378 -0.0983  0.3311
 1176SOL    HW2 4469   4.194   6.626   2.081 -0.8814 -0.6847 -0.7309
 1177SOL     OW 4470   0.855   5.670   5.722 -0.2204 -0.2311  0.3119
 1177SOL    HW1 4471   0.849   5.733   5.794  2.2054  0.1501  0.2626
 1177SOL    HW2 4472   0.888   5.720   5.648  2.3850 -1.5710  0.4429
 1178SOL     OW 4473   5.578   0.018   1.912  0.0542  0.0379  0.6813
 1178SOL    HW1 4474   5.640   0.085   1.883  1.6190 -0.7398  2.0808
 1178SOL    HW2 4475   5.555   0.044   2.001 -0.6091 -0.4164  0.6467
 1179SOL     OW 4476   0.052   5.188   3.704  0.0368 -0.0698 -0.0220
 1179SOL    HW1 4477   0.127   5.128   3.713  0.2292  0.1354 -0.2321
 1179SOL    HW2 4478  -0.004   5.168   3.779  1.0101  0.7709  0.9570
 1180SOL     OW 4479   5.525   2.369   1.117  0.2170 -0.4139  0.0148
 1180SOL    HW1 4480   5.436   2.385   1.087  0.6455  0.4115 -0.8941
 1180SOL    HW2 4481   5.518   2.364   1.213 -0.8207 -0.5280 -0.0591
 1181SOL     OW 4482   1.711   0.613   7.285 -0.3415 -0.1722  0.1549
 1181SOL    HW1 4483   1.660   0.692   7.272 -0.7473  0.1010  2.8148
 1181SOL    HW2 4484   1.802   0.642   7.287 -0.5469  0.4388  2.1188
 1182SOL     OW 4485   2.235   2.194   5.573  0.0178 -0.1612 -0.2125
 1182SOL    HW1 4486   2.203   2.253   5.506 -0.2764  0.2696  0.2991
 1182SOL    HW2 4487   2.294   2.247   5.626 -0.1854 -0.3396  0.2029
 1183SOL     OW 4488   2.404   7.098   5.642 -0.2255  0.1358  0.4708
 1183SOL    HW1 4489   2.370   7.162   5.579  3.0050  1.0001 -0.5637
 1183SOL    HW2 4490   2.408   7.146   5.725 -0.1242  0.4977  0.2607
 1184SOL     OW 4491   4.627   1.122   4.072 -0.4918  1.0595 -0.2771
 1184SOL    HW1 4492   4.639   1.156   4.161 -2.6616  0.7523  0.1903
 1184SOL    HW2 4493   4.701   1.064   4.058 -0.9450 -0.1660  1.9780
 1185SOL     OW 4494   1.324   4.854   4.591 -0.3255 -0.2280 -0.1154
 1185SOL    HW1 4495   1.249   4.797   4.577 -0.8358 -0.3802  2.6466
 1185SOL    HW2 4496   1.287   4.943   4.586 -1.0202 -0.3009  2.1642
 1186SOL     OW 4497   0.272   0.009   7.221  0.0429 -0.6767  0.1464
 1186SOL    HW1 4498   0.354  -0.040   7.221  0.3228 -0.2096 -0.4253
 1186SOL    HW2 4499   0.279   0.067   7.297 -0.1349 -1.2404  0.6079
 1187SOL     OW 4500   2.502   0.111   3.558 -0.2858 -0.7697 -0.4159
 1187SOL    HW1 4501   2.425   0.055   3.571 -2.8803  1.8509 -2.9212
 1187SOL    HW2 4502   2.497   0.137   3.466  2.2223  1.5354 -0.0276
 1188SOL     OW 4503   3.219   5.370   5.902 -0.1900  0.4255  0.4103
 1188SOL    HW1 4504   3.273   5.338   5.974  0.3530 -1.4430 -0.7433
 1188SOL    HW2 4505   3.243   5.462   5.892  2.4934 -0.2052  0.2434
 1189SOL     OW 4506   5.667   5.318   6.599  0.3020 -0.0021 -0.0600
 1189SOL    HW1 4507   5.730   5.260   6.642  0.1602  1.5829  2.5509
 1189SOL    HW2 4508   5.586   5.267   6.594  0.5623 -0.5231  0.8745
 1190SOL     OW 4509   3.393   4.687   2.154  0.0371  0.1705 -0.3525
 1190SOL    HW1 4510   3.424   4.636   2.078 -0.0389  0.5984 -0.6731
 1190SOL    HW2 4511   3.369   4.620   2.218  1.0314 -0.1776 -0.3288
 1191SOL     OW 4512   0.507   0.687   2.235 -0.0572 -0.0296  0.0026
 1191SOL    HW1 4513   0.434   0.632   2.205  2.2169 -2.1483 -2.1172
 1191SOL    HW2 4514   0.474   0.777   2.228 -2.1129 -0.8385 -1.9535
 1192SOL     OW 4515   5.353   5.692   6.705 -0.2778  0.3725  0.0258
 1192SOL    HW1 4516   5.360   5.784   6.728 -0.2163 -0.0364  1.8415
 1192SOL    HW2 4517   5.432   5.673   6.654 -0.8272  1.5419 -1.2987
 1193SOL     OW 4518   7.051   6.264   2.977  0.0796 -0.0467 -0.2231
 1193SOL    HW1 4519   6.982   6.237   2.915 -2.6137  4.3145  0.4239
 1193SOL    HW2 4520   7.031   6.216   3.057 -1.1433 -0.2345 -0.6105
 1194SOL     OW 4521   1.185   4.586   7.195 -0.7387  0.3893 -0.1109
 1194SOL    HW1 4522   1.187   4.641   7.117  0.6185 -0.9576 -1.0896
 1194SOL    HW2 4523   1.223   4.503   7.167 -1.7372 -0.7077  1.5803
 1195SOL     OW 4524   1.546   0.299   5.716 -0.2128  0.0005  0.0422
 1195SOL    HW1 4525   1.529   0.236   5.646 -2.0781  0.7430 -0.2326
 1195SOL    HW2 4526   1.551   0.246   5.796  2.3661 -0.9055 -0.6300
 1196SOL     OW 4527   3.179   4.907   3.505 -0.3540 -0.1109 -0.3035
 1196SOL    HW1 4528   3.268   4.931   3.533 -0.6071  0.5322 -0.0175
 1196SOL    HW2 4529   3.188   4.885   3.412 -0.1266  1.3690 -0.6656
 1197SOL     OW 4530   2.585   5.999   2.111 -0.2618 -0.5781 -0.2437
 1197SOL    HW1 4531   2.522   6.033   2.048  0.3327  1.0550 -0.0164
 1197SOL    HW2 4532   2.557   6.035   2.195 -0.2522 -1.6047  0.2149
 1198SOL     OW 4533   1.542   0.292   3.020 -0.5057 -0.4960 -0.3200
 1198SOL    HW1 4534   1.620   0.242   2.994  0.3705  1.0426 -0.8542
 1198SOL    HW2 4535   1.529   0.271   3.112  0.2809 -1.1447 -0.3446
 1199SOL     OW 4536   0.634   3.824   6.459  0.1039 -0.1049 -0.6065
 1199SOL    HW1 4537   0.658   3.752   6.518  0.3467  0.2297 -0.2916
 1199SOL    HW2 4538   0.686   3.808   6.380 -0.0246 -0.4098 -0.6305
 1200SOL     OW 4539   2.699   2.408   3.926 -0.1312 -0.3672  0.0370
 1200SOL    HW1 4540   2.703   2.451   4.011  0.5055 -1.2316  0.4632
 1200SOL    HW2 4541   2.606   2.393   3.911 -0.4872  2.1504 -0.6712
 1201SOL     OW 4542   1.289   3.381   7.218 -0.1177  0.1877 -0.3329
 1201SOL    HW1 4543   1.213   3.420   7.174 -0.9321  0.5055  1.2683
 1201SOL    HW2 4544   1.252   3.333   7.292  1.0958 -1.4985 -0.7679
 1202SOL     OW 4545   0.292   3.603   0.777 -0.3089 -0.2266 -0.6518
 1202SOL    HW1 4546   0.252   3.590   0.691  0.2533 -0.0188 -0.9569
 1202SOL    HW2 4547   0.229   3.656   0.826  0.3217  1.5895 -1.7175
 1203SOL     OW 4548   2.514   2.120   1.754  0.0001  0.0687  0.3089
 1203SOL    HW1 4549   2.575   2.066   1.804  1.1587  0.0492 -1.0614
 1203SOL    HW2 4550   2.518   2.086   1.665  0.4125  2.0849 -0.5034
 1204SOL     OW 4551   4.227   4.212   0.500 -0.7462 -0.6734  0.3079
 1204SOL    HW1 4552   4.305   4.231   0.552 -1.0034 -1.2134  0.8911
 1204SOL    HW2 4553   4.156   4.257   0.545 -0.8305 -0.4215 -0.0651
 1205SOL     OW 4554   5.246   0.569   6.835 -0.0737 -0.4366 -0.0885
 1205SOL    HW1 4555   5.251   0.476   6.817 -0.7956 -0.3658 -0.6948
 1205SOL    HW2 4556   5.333   0.592   6.867  0.7880 -0.8849 -1.9903
 1206SOL     OW 4557   3.545   4.831   5.632 -0.4980 -0.0989 -0.5910
 1206SOL    HW1 4558   3.612   4.814   5.566 -1.1768  1.6817 -1.8123
 1206SOL    HW2 4559   3.536   4.748   5.679  1.8881 -0.6406 -0.9731
 1207SOL     OW 4560   3.633   5.880   0.237 -0.3448  0.3496 -0.0455
 1207SOL    HW1 4561   3.582   5.852   0.313 -1.2992 -1.3126 -1.2329
 1207SOL    HW2 4562   3.579   5.855   0.162  1.1038  0.8715 -1.3042
 1208SOL     OW 4563   6.178   7.078   5.608 -0.2963 -0.1753  0.0016
 1208SOL    HW1 4564   6.174   7.170   5.584  1.2254 -0.0162  0.2303
 1208SOL    HW2 4565   6.217   7.078   5.696  0.5857 -1.0650 -0.3684
 1209SOL     OW 4566   2.515   2.317   5.489 -0.5454 -0.0987  0.3038
 1209SOL    HW1 4567   2.490   2.290   5.400  0.3568  0.7289 -0.2289
 1209SOL    HW2 4568   2.475   2.403   5.500 -0.4166 -0.0744  0.5812
 1210SOL     OW 4569   0.114   0.853   4.607 -0.1860 -0.4356  0.6553
 1210SOL    HW1 4570   0.109   0.770   4.559 -1.6784 -0.9688  1.6420
 1210SOL    HW2 4571   0.024   0.869   4.634 -0.1088  2.0267 -0.3057
 1211SOL     OW 4572   5.417   4.432   6.215 -0.6833 -0.5805  0.2429
 1211SOL    HW1 4573   5.361   4.501   6.181  0.8044  0.8253  0.4948
 1211SOL    HW2 4574   5.430   4.455   6.307  1.2859 -0.1133 -0.1023
 1212SOL     OW 4575   7.281   2.789   2.544 -0.1509  0.1520  0.5396
 1212SOL    HW1 4576   7.332   2.853   2.494  1.2480 -1.8937 -0.8235
 1212SOL    HW2 4577   7.199   2.779   2.495 -0.4403  0.9857  0.8456
 1213SOL     OW 4578   2.508   5.101   5.477  0.2693  0.3261 -0.2630
 1213SOL    HW1 4579   2.579   5.141   5.427  1.6587 -0.8654  0.6984
 1213SOL    HW2 4580   2.524   5.007   5.471 -1.7439 -0.0301 -0.7451
 1214SOL     OW 4581   6.612   2.838   0.322 -0.1963 -0.4210  0.0017
 1214SOL    HW1 4582   6.700   2.800   0.332  0.0945  0.0473 -0.6418
 1214SOL    HW2 4583   6.622   2.929   0.351 -0.1888 -0.0540 -1.0960
 1215SOL     OW 4584   6.428   4.561   6.458  0.1149  0.3802 -0.6694
 1215SOL    HW1 4585   6.459   4.554   6.368 -0.7128  0.4423 -0.9754
 1215SOL    HW2 4586   6.415   4.471   6.486  0.1494  0.3645 -0.7037
 1216SOL     OW 4587   1.399   1.315   3.318 -0.4796  0.0381 -0.2240
 1216SOL    HW1 4588   1.410   1.384   3.384 -2.5499  0.9346 -0.7500
 1216SOL    HW2 4589   1.485   1.274   3.312  1.2201  3.3461 -0.7376
 1217SOL     OW 4590   4.751   7.094   3.619 -0.1474  0.2384  0.0250
 1217SOL    HW1 4591   4.671   7.076   3.667 -0.0446 -0.9827 -0.2065
 1217SOL    HW2 4592   4.723   7.141   3.541 -0.7945 -1.0156 -0.5344
 1218SOL     OW 4593   0.904   4.209   1.987  0.0686 -0.4456  0.2725
 1218SOL    HW1 4594   0.891   4.290   1.938 -0.7557  0.0750  1.2975
 1218SOL    HW2 4595   0.879   4.231   2.077  2.9490 -0.9408  1.2871
 1219SOL     OW 4596   5.594   6.170   6.564 -0.3931  0.5883  0.0429
 1219SOL    HW1 4597   5.539   6.219   6.625 -0.6042 -1.0421  1.2510
 1219SOL    HW2 4598   5.677   6.158   6.611 -0.8196 -1.3394  0.3937
 1220SOL     OW 4599   3.397   5.197   4.290  0.3158  0.6501 -0.1872
 1220SOL    HW1 4600   3.473   5.139   4.286  0.0854  0.0391  2.4781
 1220SOL    HW2 4601   3.428   5.273   4.341 -1.1238 -0.2323  2.1749
 1221SOL     OW 4602   3.950   5.196   2.009  0.4608  0.6975 -0.5873
 1221SOL    HW1 4603   3.856   5.210   2.005  0.4078  0.5128 -0.0150
 1221SOL    HW2 4604   3.988   5.283   2.000  0.2190  0.8436 -0.2033
 1222SOL     OW 4605   1.230   7.371   0.783 -0.2999  0.7894  0.3902
 1222SOL    HW1 4606   1.191   7.335   0.863  0.0902 -0.1559  0.1725
 1222SOL    HW2 4607   1.156   7.379   0.722 -0.0430 -2.5174 -0.5759
 1223SOL     OW 4608   7.235   5.366   1.522 -0.0353  0.4270  0.1347
 1223SOL    HW1 4609   7.151   5.327   1.498 -0.3086  0.5283  0.9216
 1223SOL    HW2 4610   7.256   5.327   1.607  0.0188  1.4747  0.6106
 1224SOL     OW 4611   1.375   6.357   2.666 -0.8100  0.2863 -0.2273
 1224SOL    HW1 4612   1.417   6.271   2.675  0.3991  0.9364  0.6769
 1224SOL    HW2 4613   1.344   6.378   2.754  0.3370  1.4550 -0.0660
 1225SOL     OW 4614   3.705   2.797   4.342 -0.3888  0.0800 -0.0275
 1225SOL    HW1 4615   3.637   2.827   4.281 -0.1416  0.0641 -0.3100
 1225SOL    HW2 4616   3.761   2.739   4.289 -1.1034 -1.2421  0.6074
 1226SOL     OW 4617   0.635   0.596   0.389  0.3038 -0.3811 -0.0112
 1226SOL    HW1 4618   0.695   0.543   0.337  0.0380  0.6966 -1.4924
 1226SOL    HW2 4619   0.623   0.547   0.470 -0.0295 -2.6431 -1.3449
 1227SOL     OW 4620   3.729   2.596   6.242  0.0125  0.0161 -0.2712
 1227SOL    HW1 4621   3.767   2.587   6.155  0.8524 -0.3372  0.1268
 1227SOL    HW2 4622   3.638   2.570   6.231  0.1437 -0.1521 -1.0153
 1228SOL     OW 4623   0.308   4.199   0.973  0.2949  0.0188 -0.2495
 1228SOL    HW1 4624   0.390   4.183   0.926  1.1412  1.4742  0.6642
 1228SOL    HW2 4625   0.334   4.240   1.055 -1.3460  0.3047  0.1750
 1229SOL     OW 4626   1.893   1.820   7.304  0.7051 -0.3408 -0.5574
 1229SOL    HW1 4627   1.983   1.786   7.303  0.7817 -0.1393 -0.7333
 1229SOL    HW2 4628   1.862   1.803   7.392  1.4264  0.9124 -0.0357
 1230SOL     OW 4629   4.960   1.143   2.413  0.4806 -0.5320 -0.0343
 1230SOL    HW1 4630   5.024   1.089   2.366  0.4985 -1.4358  1.0101
 1230SOL    HW2 4631   5.013   1.213   2.452  0.4219  0.4460 -1.6062
 1231SOL     OW 4632   0.205   3.156   7.241  0.1800 -0.0588 -0.1471
 1231SOL    HW1 4633   0.160   3.240   7.238 -0.7902 -0.5835 -1.5789
 1231SOL    HW2 4634   0.271   3.166   7.309 -2.0256  0.7772  1.9918
 1232SOL     OW 4635   0.197   4.873   0.729  0.3733 -0.2655  0.1313
 1232SOL    HW1 4636   0.253   4.831   0.794  0.0304 -0.3608  0.3703
 1232SOL    HW2 4637   0.253   4.884   0.652  0.6079 -0.7108  0.2342
 1233SOL     OW 4638   2.996   0.585   1.551  0.2030 -0.3914  0.3523
 1233SOL    HW1 4639   3.018   0.627   1.634  0.9565  2.4755 -1.1773
 1233SOL    HW2 4640   2.902   0.566   1.559 -0.1750  1.5385  1.2078
 1234SOL     OW 4641   4.670   1.502   2.084  0.4684  0.1206 -0.1148
 1234SOL    HW1 4642   4.595   1.537   2.132  0.6423  0.5499 -0.1481
 1234SOL    HW2 4643   4.730   1.471   2.152 -0.3972 -1.6475 -0.1166
 1235SOL     OW 4644   4.771   2.822   1.552  0.1302  0.0624  0.1538
 1235SOL    HW1 4645   4.710   2.895   1.553  0.2718  0.1829  0.5613
 1235SOL    HW2 4646   4.718   2.745   1.533 -0.0473  0.2476 -0.1028
 1236SOL     OW 4647   5.835   2.530   5.328  0.1500 -0.0488  0.3667
 1236SOL    HW1 4648   5.781   2.529   5.406 -0.4921  0.2983 -0.0646
 1236SOL    HW2 4649   5.783   2.577   5.263  0.8492  0.0401 -0.1452
 1237SOL     OW 4650   0.438   0.900   3.434  0.1874 -0.7999 -0.2663
 1237SOL    HW1 4651   0.509   0.959   3.409 -0.5627 -0.2409 -1.1658
 1237SOL    HW2 4652   0.421   0.921   3.526 -1.1563  1.6399 -0.9672
 1238SOL     OW 4653   3.542   1.189   4.923  0.0710 -0.1376 -0.2419
 1238SOL    HW1 4654   3.606   1.158   4.858  1.5922  0.9971  0.6380
 1238SOL    HW2 4655   3.465   1.134   4.908  0.9026 -0.9377 -1.9788
 1239SOL     OW 4656   1.804   3.908   2.741  0.1158  0.7500  0.3782
 1239SOL    HW1 4657   1.721   3.957   2.744  1.2581  2.9068 -0.8840
 1239SOL    HW2 4658   1.859   3.959   2.682  2.3601 -0.6447  1.1789
 1240SOL     OW 4659   3.875   3.147   1.398 -0.3114 -0.6756 -0.0192
 1240SOL    HW1 4660   3.902   3.145   1.490  0.6766  0.1909 -0.2667
 1240SOL    HW2 4661   3.942   3.200   1.355  0.8086 -3.2523 -1.7610
 1241SOL     OW 4662   6.558   2.275   6.291  0.6226 -0.2864 -0.2786
 1241SOL    HW1 4663   6.559   2.299   6.199 -1.2965  0.4497 -0.1584
 1241SOL    HW2 4664   6.491   2.207   6.298  0.4545 -0.0441  0.6279
 1242SOL     OW 4665   1.968   2.047   4.086  0.3094  0.3930  0.1804
 1242SOL    HW1 4666   1.919   2.107   4.142 -1.0198 -0.8641  0.4461
 1242SOL    HW2 4667   1.921   2.049   4.003  0.5398  0.0975  0.0408
 1243SOL     OW 4668   1.818   5.341   3.174  0.2032 -0.3668 -0.4840
 1243SOL    HW1 4669   1.890   5.376   3.226  2.5026 -3.2126 -1.4516
 1243SOL    HW2 4670   1.756   5.307   3.239  1.1966 -0.5330  0.4089
 1244SOL     OW 4671   2.612   2.963   3.903 -0.0317  0.0392  0.1310
 1244SOL    HW1 4672   2.534   2.970   3.848 -0.5239  1.7693  0.9993
 1244SOL    HW2 4673   2.599   2.882   3.952  0.0747 -1.1668 -1.7042
 1245SOL     OW 4674   4.765   5.066   3.321 -0.0408 -0.4831 -0.3819
 1245SOL    HW1 4675   4.788   5.138   3.381  0.1337 -0.0360 -0.9682
 1245SOL    HW2 4676   4.797   4.988   3.365  0.6171 -0.0977 -0.1540
 1246SOL     OW 4677   7.160   0.847   1.161  0.0494  0.4424 -0.2215
 1246SOL    HW1 4678   7.083   0.791   1.157  0.7634 -0.6085  0.3033
 1246SOL    HW2 4679   7.178   0.870   1.070  0.0284 -0.5938 -0.4928
 1247SOL     OW 4680   5.530   1.056   2.005  0.4684 -0.1970 -0.1163
 1247SOL    HW1 4681   5.573   1.122   1.952  0.8408  2.4456  3.1453
 1247SOL    HW2 4682   5.601   0.999   2.035  0.9146  0.8122  0.8028
 1248SOL     OW 4683   1.900   4.463   0.451  0.4126 -0.0500  0.5487
 1248SOL    HW1 4684   1.922   4.459   0.358  1.6732  0.3762  0.8144
 1248SOL    HW2 4685   1.893   4.372   0.478 -0.7085 -0.1813 -0.1156
 1249SOL     OW 4686   5.708   7.429   2.555 -0.5100  0.0444  0.4465
 1249SOL    HW1 4687   5.643   7.453   2.490 -2.9235 -0.8219  2.4053
 1249SOL    HW2 4688   5.740   7.343   2.526  1.0143  1.1216 -1.3323
 1250SOL     OW 4689   4.053   5.232   4.336 -0.4002 -0.1162  0.3913
 1250SOL    HW1 4690   4.122   5.283   4.379  0.5507 -0.6520 -0.4616
 1250SOL    HW2 4691   3.986   5.222   4.403 -1.0175  2.9299  0.4106
 1251SOL     OW 4692   4.028   4.939   6.955 -0.4600 -0.4676  0.5177
 1251SOL    HW1 4693   4.050   4.994   7.031 -0.6736 -1.2072  1.1288
 1251SOL    HW2 4694   4.079   4.859   6.968 -1.2332 -0.9948  0.3928
 1252SOL     OW 4695   2.452   1.652   2.597 -0.1767  0.1133 -0.0645
 1252SOL    HW1 4696   2.499   1.588   2.545  0.8374  0.5476  0.2897
 1252SOL    HW2 4697   2.463   1.622   2.688  1.2433  1.3523  0.2040
 1253SOL     OW 4698   0.869   3.637   0.057  1.1572  0.3487  0.2549
 1253SOL    HW1 4699   0.825   3.720   0.073 -0.4926 -0.2115 -1.1069
 1253SOL    HW2 4700   0.936   3.658  -0.008 -0.4957  0.3344 -1.5371
 1254SOL     OW 4701   0.021   1.336   0.770  0.2887 -1.0205 -0.3502
 1254SOL    HW1 4702  -0.068   1.312   0.794 -0.3838  2.0760  0.6903
 1254SOL    HW2 4703   0.011   1.409   0.709  2.0072  0.8698  1.4428
 1255SOL     OW 4704   2.842   4.813   6.393 -0.2901 -0.2404  0.3953
 1255SOL    HW1 4705   2.919   4.763   6.365 -0.9362 -1.5768  0.9067
 1255SOL    HW2 4706   2.873   4.903   6.400  0.8346 -0.4934 -0.8948
 1256SOL     OW 4707   5.470   2.108   0.732 -0.4650  0.7021 -0.3027
 1256SOL    HW1 4708   5.427   2.039   0.783  0.3310  0.7959  0.5264
 1256SOL    HW2 4709   5.421   2.112   0.651 -1.6072  0.3612  0.3487
 1257SOL     OW 4710   0.163   0.118   4.445  0.2634  0.0478  0.1583
 1257SOL    HW1 4711   0.212   0.061   4.386  0.7111 -0.2924  0.8487
 1257SOL    HW2 4712   0.228   0.148   4.509 -0.1551  0.6374  0.3143
 1258SOL     OW 4713   1.934   0.258   5.401 -0.0627  0.0640 -0.5821
 1258SOL    HW1 4714   1.981   0.314   5.339 -0.2104 -0.1189 -0.8584
 1258SOL    HW2 4715   1.849   0.243   5.361 -1.1607  2.0619  0.8311
 1259SOL     OW 4716   5.885   6.373   3.662 -0.1662  0.4308  0.1531
 1259SOL    HW1 4717   5.913   6.462   3.639 -1.4089  1.3032  1.7454
 1259SOL    HW2 4718   5.848   6.338   3.581  1.8812  0.6687 -0.9538
 1260SOL     OW 4719   1.797   1.492   5.977  0.4432 -0.0830  0.5108
 1260SOL    HW1 4720   1.798   1.493   6.073 -1.4477  0.8616  0.5749
 1260SOL    HW2 4721   1.707   1.514   5.954  0.6203 -1.2218 -1.4982
 1261SOL     OW 4722   4.451   4.072   4.048 -0.3549  0.1345 -0.5282
 1261SOL    HW1 4723   4.502   4.071   4.129  0.5012  1.0871 -1.0355
 1261SOL    HW2 4724   4.360   4.081   4.077 -0.2114 -1.0503  0.3662
 1262SOL     OW 4725   3.135   1.330   6.810 -0.0667  0.1517  0.2331
 1262SOL    HW1 4726   3.113   1.351   6.720 -0.6302  0.4836  0.4428
 1262SOL    HW2 4727   3.053   1.340   6.858  0.0371 -0.8328  0.6406
 1263SOL     OW 4728   3.055   2.926   5.007  0.1092 -0.2099 -0.2808
 1263SOL    HW1 4729   3.145   2.904   4.984  0.3467  0.1875  0.2586
 1263SOL    HW2 4730   3.004   2.900   4.930  0.3814 -2.4632  0.2278
 1264SOL     OW 4731   7.221   1.650   3.898 -0.3866 -0.0674 -0.0462
 1264SOL    HW1 4732   7.212   1.561   3.931  0.6956  0.1877  1.0060
 1264SOL    HW2 4733   7.314   1.657   3.875 -0.1936  1.1669  1.0465
 1265SOL     OW 4734   7.307   0.797   5.300 -0.1445  0.3060  0.2309
 1265SOL    HW1 4735   7.285   0.754   5.218  4.1153 -0.5131 -0.6815
 1265SOL    HW2 4736   7.266   0.743   5.368  0.1340 -1.7367 -1.1623
 1266SOL     OW 4737   6.605   0.184   4.739  0.2026 -0.1586 -0.0456
 1266SOL    HW1 4738   6.618   0.142   4.824 -1.7143  0.7550  0.7461
 1266SOL    HW2 4739   6.648   0.269   4.747  1.7584 -0.8206 -0.7407
 1267SOL     OW 4740   2.011   0.794   2.015 -0.9052  0.2014  0.0992
 1267SOL    HW1 4741   1.961   0.869   1.983 -0.3825  1.1330  1.3540
 1267SOL    HW2 4742   1.962   0.765   2.092 -0.4868 -0.0245  0.2793
 1268SOL     OW 4743   4.619   5.366   0.317  0.6249 -0.3454 -1.2353
 1268SOL    HW1 4744   4.630   5.371   0.412  2.6602 -0.4327 -1.4318
 1268SOL    HW2 4745   4.704   5.338   0.284  0.4116  1.1365 -3.2177
 1269SOL     OW 4746   2.926   7.430   5.269 -0.1032 -0.6109  0.2772
 1269SOL    HW1 4747   3.020   7.419   5.287 -0.2241 -1.1951  0.5975
 1269SOL    HW2 4748   2.916   7.522   5.247  0.4392 -0.3928  0.9022
 1270SOL     OW 4749   0.500   1.787   4.657  0.6316  0.0469  0.7223
 1270SOL    HW1 4750   0.431   1.744   4.708  0.2830  0.4560  0.5966
 1270SOL    HW2 4751   0.527   1.721   4.594  0.5838 -0.2266  0.9821
 1271SOL     OW 4752   5.543   5.916   6.631  0.0086 -0.0798  0.2972
 1271SOL    HW1 4753   5.556   5.993   6.576  2.2857 -0.5724  0.0475
 1271SOL    HW2 4754   5.520   5.950   6.717 -0.0329  0.8195 -0.0628
 1272SOL     OW 4755   4.283   6.428   6.434 -0.1220  0.0923  0.2012
 1272SOL    HW1 4756   4.324   6.512   6.458  0.8580  0.4917 -2.5063
 1272SOL    HW2 4757   4.357   6.368   6.425 -0.5725 -0.3918 -0.2899
 1273SOL     OW 4758   1.462   5.402   5.979  0.3135 -0.3463 -0.2489
 1273SOL    HW1 4759   1.394   5.431   6.039 -1.0426 -2.7095 -0.5276
 1273SOL    HW2 4760   1.536   5.460   5.997 -1.5806  2.0882  0.3420
 1274SOL     OW 4761   2.501   4.488   0.752  0.0819  0.3925  0.3072
 1274SOL    HW1 4762   2.536   4.543   0.682  1.9878  0.6992  1.4246
 1274SOL    HW2 4763   2.453   4.549   0.809  0.0828  0.4558  0.2403
 1275SOL     OW 4764   4.797   4.594   4.408 -0.7812  0.2151 -0.1353
 1275SOL    HW1 4765   4.740   4.670   4.400  1.2745  1.7661 -0.8071
 1275SOL    HW2 4766   4.885   4.628   4.397  0.2230 -2.3213 -0.7823
 1276SOL     OW 4767   4.464   0.066   2.331 -0.1061  0.0454 -0.2549
 1276SOL    HW1 4768   4.510  -0.006   2.289  0.1686 -0.1777  0.4259
 1276SOL    HW2 4769   4.409   0.103   2.262  0.1128 -0.5108 -0.7282
 1277SOL     OW 4770   6.056   5.877   1.503 -0.0376  0.0654 -0.1976
 1277SOL    HW1 4771   6.034   5.787   1.526  0.0371  0.2291  0.5269
 1277SOL    HW2 4772   6.074   5.920   1.587 -0.6877  0.9178 -0.4740
 1278SOL     OW 4773   2.119   0.231   3.964 -0.2413  1.0018  0.4067
 1278SOL    HW1 4774   2.164   0.281   4.033  1.1081 -0.4682  0.6567
 1278SOL    HW2 4775   2.184   0.222   3.894 -0.2029 -0.8789  0.6200
 1279SOL     OW 4776   6.123   3.049   6.295  0.2964 -0.1469 -0.0469
 1279SOL    HW1 4777   6.110   3.012   6.207  1.0850 -0.5965  0.0176
 1279SOL    HW2 4778   6.082   2.985   6.353 -1.7920  0.9866 -0.1648
 1280SOL     OW 4779   2.679   0.507   6.280 -0.0963  0.0998  0.3063
 1280SOL    HW1 4780   2.718   0.513   6.367 -1.7514 -1.6113  1.2366
 1280SOL    HW2 4781   2.594   0.549   6.288 -1.3514 -2.2657  0.2845
 1281SOL     OW 4782   1.023   0.862   6.706 -0.5037 -0.7012 -0.4373
 1281SOL    HW1 4783   0.978   0.814   6.636 -1.5552  1.2779 -1.2081
 1281SOL    HW2 4784   0.953   0.887   6.767  0.4887 -3.0595  1.8532
 1282SOL     OW 4785   5.920   4.816   0.646  0.0779  0.1944  0.2656
 1282SOL    HW1 4786   5.941   4.747   0.584  1.8312  0.3839  0.5951
 1282SOL    HW2 4787   5.973   4.891   0.618 -0.1709  0.7241  1.1601
 1283SOL     OW 4788   4.857   0.531   0.013 -0.0453 -0.5694  0.5166
 1283SOL    HW1 4789   4.859   0.457   0.074 -1.9146 -0.8094  0.3504
 1283SOL    HW2 4790   4.826   0.604   0.065  0.7858 -0.1448  0.4271
 1284SOL     OW 4791   6.505   7.229   0.851 -0.1714 -0.1247  0.6513
 1284SOL    HW1 4792   6.444   7.156   0.842  0.4957 -0.5287 -0.7871
 1284SOL    HW2 4793   6.478   7.291   0.783  1.5281 -0.7112 -0.6316
 1285SOL     OW 4794   1.031   3.017   7.223 -0.3093 -0.6881  0.1553
 1285SOL    HW1 4795   1.125   2.996   7.223 -0.3185 -0.7434  0.7377
 1285SOL    HW2 4796   0.988   2.931   7.227 -0.3604 -0.6300  1.3155
 1286SOL     OW 4797   6.553   4.366   4.654  0.2228 -0.2521 -0.3200
 1286SOL    HW1 4798   6.487   4.314   4.608  0.7425 -1.1023 -0.1377
 1286SOL    HW2 4799   6.544   4.341   4.746 -1.2314  1.8966  0.2002
 1287SOL     OW 4800   3.048   0.492   2.788  0.1009 -0.2915 -0.4875
 1287SOL    HW1 4801   3.064   0.571   2.736  0.0690 -0.2333 -0.4089
 1287SOL    HW2 4802   3.125   0.485   2.845 -0.2200  0.0784  0.0045
 1288SOL     OW 4803   7.301   3.413   5.508 -0.1174 -0.0041 -0.1989
 1288SOL    HW1 4804   7.210   3.386   5.493 -0.8713  1.1762  1.8417
 1288SOL    HW2 4805   7.342   3.407   5.422 -1.7040 -2.0582 -0.8916
 1289SOL     OW 4806   4.969   0.513   5.910  0.2055 -0.4482 -0.3227
 1289SOL    HW1 4807   5.035   0.559   5.859 -1.7142  1.4388 -1.2748
 1289SOL    HW2 4808   5.002   0.516   6.000  0.8625  1.5641 -0.5710
 1290SOL     OW 4809   5.164   7.423   1.219 -0.2529 -0.1756  0.6638
 1290SOL    HW1 4810   5.186   7.502   1.269 -0.5552 -0.2998  0.9958
 1290SOL    HW2 4811   5.134   7.457   1.135 -0.8606  0.0886  0.9838
 1291SOL     OW 4812   4.318   1.918   1.868  0.0055 -0.3579 -0.3579
 1291SOL    HW1 4813   4.310   1.954   1.956 -1.4819 -0.0649 -0.6003
 1291SOL    HW2 4814   4.401   1.954   1.835 -0.0326  0.5163  0.4625
 1292SOL     OW 4815   5.095   6.462   6.341  0.1545  0.0114 -0.3922
 1292SOL    HW1 4816   5.173   6.407   6.327 -0.3852 -0.9123  0.1257
 1292SOL    HW2 4817   5.130   6.547   6.366  1.0052 -0.3308 -0.3768
 1293SOL     OW 4818   6.635   5.999   1.229  0.2875 -0.0572 -0.6227
 1293SOL    HW1 4819   6.581   5.924   1.206  0.6230 -0.4072 -0.2669
 1293SOL    HW2 4820   6.643   5.996   1.324 -2.1360  2.0884 -0.2134
 1294SOL     OW 4821   4.003   2.789   5.687  0.3808  0.1258 -0.1504
 1294SOL    HW1 4822   4.052   2.868   5.668  0.0956  0.2984 -0.1752
 1294SOL    HW2 4823   4.043   2.722   5.631  1.0783  0.0859  0.3867
 1295SOL     OW 4824   1.910   4.580   0.801 -0.4859 -0.4333 -0.8059
 1295SOL    HW1 4825   1.972   4.613   0.736  0.9848 -1.6338 -0.0762
 1295SOL    HW2 4826   1.949   4.603   0.885 -0.3948 -2.2358 -0.3168
 1296SOL     OW 4827   5.102   3.267   1.396  0.1724  0.1663  0.3221
 1296SOL    HW1 4828   5.102   3.252   1.491 -0.3227  1.7162  0.5845
 1296SOL    HW2 4829   5.143   3.353   1.385 -0.4660  0.3347 -0.8117
 1297SOL     OW 4830   2.973   4.669   6.096 -0.4747 -0.0810  0.3708
 1297SOL    HW1 4831   3.009   4.627   6.018 -1.4899  0.4198 -0.3882
 1297SOL    HW2 4832   3.023   4.631   6.169 -0.5665 -1.7262 -0.3781
 1298SOL     OW 4833   3.103   3.137   4.029  0.0032 -0.2591 -0.7587
 1298SOL    HW1 4834   3.042   3.148   3.957 -0.2183  2.4382 -0.2758
 1298SOL    HW2 4835   3.074   3.057   4.073 -0.1208 -1.7296 -3.3044
 1299SOL     OW 4836   1.167   7.155   5.740 -0.1339 -0.2989 -0.7811
 1299SOL    HW1 4837   1.247   7.131   5.787  1.5919  2.3914 -2.1025
 1299SOL    HW2 4838   1.195   7.165   5.649 -1.4554  2.6480 -0.9545
 1300SOL     OW 4839   3.872   2.011   7.026  1.2299  0.0446 -0.3031
 1300SOL    HW1 4840   3.920   1.973   7.099  0.7621  0.6090  0.3101
 1300SOL    HW2 4841   3.877   2.106   7.041 -0.2020  0.1070 -0.1413
 1301SOL     OW 4842   2.321   4.720   1.208  0.2640  0.1442 -0.0681
 1301SOL    HW1 4843   2.274   4.685   1.284 -0.0427 -1.1954 -0.8386
 1301SOL    HW2 4844   2.265   4.698   1.134  0.9564  0.7066 -0.7746
 1302SOL     OW 4845   1.674   6.645   2.638 -0.1372  0.1858 -0.0828
 1302SOL    HW1 4846   1.769   6.637   2.633 -0.2591 -1.2049 -0.6016
 1302SOL    HW2 4847   1.643   6.555   2.647 -1.3277  0.7241  1.7199
 1303SOL     OW 4848   4.176   6.805   3.749 -0.1309  0.2545 -0.2363
 1303SOL    HW1 4849   4.249   6.821   3.809  0.9367  0.8271 -1.6349
 1303SOL    HW2 4850   4.113   6.756   3.802 -0.7347  3.5149  2.3752
 1304SOL     OW 4851   7.389   4.501   0.998  0.2228  0.2228  0.9627
 1304SOL    HW1 4852   7.466   4.553   1.023  0.3640 -0.4642  2.0907
 1304SOL    HW2 4853   7.314   4.550   1.032  0.2410  0.4055  0.7392
 1305SOL     OW 4854   5.836   0.789   0.901  0.1469  0.0389  0.3207
 1305SOL    HW1 4855   5.914   0.838   0.876 -0.6919  0.7810 -0.9502
 1305SOL    HW2 4856   5.868   0.701   0.921  1.2827  0.2922 -0.2935
 1306SOL     OW 4857   5.190   3.635   0.800  0.0602 -0.0154  0.2992
 1306SOL    HW1 4858   5.280   3.608   0.822 -0.2889 -1.9196 -0.4447
 1306SOL    HW2 4859   5.135   3.563   0.832 -0.9529 -0.1246 -1.5758
 1307SOL     OW 4860   6.468   5.077   1.459  0.1270  0.0657  0.7191
 1307SOL    HW1 4861   6.454   5.013   1.389  0.6856  0.1373  0.5311
 1307SOL    HW2 4862   6.387   5.127   1.463  0.7255  1.2740 -1.1401
 1308SOL     OW 4863   1.400   5.731   6.610 -0.1437  0.8185  0.3455
 1308SOL    HW1 4864   1.368   5.815   6.575  0.4056  1.4277  1.2568
 1308SOL    HW2 4865   1.450   5.755   6.688  1.1663 -0.2416 -0.1324
 1309SOL     OW 4866   1.868   6.831   3.131 -0.1382 -0.1675  0.1900
 1309SOL    HW1 4867   1.912   6.813   3.215 -0.4054  1.4318  0.6954
 1309SOL    HW2 4868   1.831   6.918   3.142 -2.0250 -0.8056 -0.8384
 1310SOL     OW 4869   6.789   4.021   5.641 -0.3745  0.2046  0.0005
 1310SOL    HW1 4870   6.823   4.111   5.650  0.0484  0.2276 -1.6527
 1310SOL    HW2 4871   6.735   4.009   5.719 -0.1205  1.7544  0.4551
 1311SOL     OW 4872   6.937   4.605   4.082 -0.1533  0.4036 -0.1590
 1311SOL    HW1 4873   6.912   4.525   4.129 -0.1548  1.4744  1.7374
 1311SOL    HW2 4874   6.995   4.651   4.142 -2.9098  3.5437  0.3308
 1312SOL     OW 4875   3.550   4.320   3.178 -0.3710  0.2377  0.0386
 1312SOL    HW1 4876   3.528   4.382   3.247  0.4524  0.6043 -0.0208
 1312SOL    HW2 4877   3.574   4.240   3.223 -3.6688 -0.8800  0.0972
 1313SOL     OW 4878   6.618   6.357   4.635 -0.4952  0.2983  0.5278
 1313SOL    HW1 4879   6.674   6.390   4.564 -1.5747 -0.8032 -0.8838
 1313SOL    HW2 4880   6.664   6.384   4.715  1.5645  0.2657 -0.5611
 1314SOL     OW 4881   4.597   5.197   4.924 -0.3986  0.2706 -0.0298
 1314SOL    HW1 4882   4.543   5.119   4.934  1.0393 -0.7514 -0.0591
 1314SOL    HW2 4883   4.563   5.258   4.990  0.0708 -1.3160  1.7687
 1315SOL     OW 4884   2.191   3.573   6.296 -1.2826  0.0454  0.0352
 1315SOL    HW1 4885   2.145   3.556   6.378  0.0347 -1.7859  0.4774
 1315SOL    HW2 4886   2.160   3.505   6.236 -0.3831 -0.2079 -0.1621
 1316SOL     OW 4887   5.761   0.766   2.497 -0.0698  0.4779  0.3528
 1316SOL    HW1 4888   5.787   0.688   2.546  1.2734  0.3913 -0.4705
 1316SOL    HW2 4889   5.824   0.833   2.522  0.8184  0.3626 -1.4134
 1317SOL     OW 4890   1.441   2.079   4.488 -0.0202 -0.4870  0.3607
 1317SOL    HW1 4891   1.518   2.045   4.533  0.9847  0.8340 -0.2978
 1317SOL    HW2 4892   1.367   2.052   4.543  0.9787 -0.9342  1.5193
 1318SOL     OW 4893   5.949   1.901   7.350 -0.0306  0.3154  0.1318
 1318SOL    HW1 4894   6.011   1.967   7.380  0.2622  0.3013 -0.4285
 1318SOL    HW2 4895   5.865   1.946   7.348  0.1928  0.7219 -0.3975
 1319SOL     OW 4896   5.572   6.332   2.572 -0.0077  0.0584  0.1336
 1319SOL    HW1 4897   5.582   6.262   2.636 -0.4004 -0.2105 -0.0938
 1319SOL    HW2 4898   5.589   6.412   2.622 -0.6624 -0.1197  0.6662
 1320SOL     OW 4899   1.980   3.017   1.270 -0.0175  0.2598 -0.2544
 1320SOL    HW1 4900   2.001   3.002   1.178  1.6148  0.6052  0.0239
 1320SOL    HW2 4901   1.892   2.981   1.282  0.2557 -0.9397 -1.6444
 1321SOL     OW 4902   1.228   5.313   6.463 -0.0736  0.2615  0.1276
 1321SOL    HW1 4903   1.214   5.365   6.543 -1.3770  0.4745 -0.2224
 1321SOL    HW2 4904   1.172   5.355   6.398  0.8090 -0.0546 -0.8482
 1322SOL     OW 4905   4.575   5.392   7.167 -0.5162  0.4548 -0.2522
 1322SOL    HW1 4906   4.605   5.364   7.253  1.3430  0.5356 -0.8473
 1322SOL    HW2 4907   4.559   5.486   7.176 -0.6790  0.3966  0.0902
 1323SOL     OW 4908   1.847   0.354   0.355  0.6334 -1.0082  0.0862
 1323SOL    HW1 4909   1.858   0.303   0.275 -0.1674 -1.7462  0.4210
 1323SOL    HW2 4910   1.850   0.289   0.425 -2.1221 -0.8980  0.4178
 1324SOL     OW 4911   1.736   1.952   2.204  0.4225  0.0921 -0.4882
 1324SOL    HW1 4912   1.721   2.018   2.136 -0.4249  2.3159  1.6968
 1324SOL    HW2 4913   1.784   1.882   2.159 -0.6459  1.1081 -3.4837
 1325SOL     OW 4914   5.292   0.436   1.519  0.1225 -0.4597 -0.1041
 1325SOL    HW1 4915   5.364   0.459   1.460 -0.5437  0.4679 -0.5903
 1325SOL    HW2 4916   5.309   0.487   1.599  0.3975 -0.8127  0.0641
 1326SOL     OW 4917   2.053   6.277   3.210  0.0416  0.5345 -0.3765
 1326SOL    HW1 4918   1.984   6.342   3.197 -0.2971 -0.0766 -1.8752
 1326SOL    HW2 4919   2.006   6.194   3.221  0.4685  0.4859  1.3982
 1327SOL     OW 4920   3.656   0.044   1.619  0.4051  0.4515 -0.1223
 1327SOL    HW1 4921   3.590   0.045   1.549  0.1687 -0.5727  0.0582
 1327SOL    HW2 4922   3.612   0.085   1.693 -0.7304 -1.7756  0.5446
 1328SOL     OW 4923   4.521   6.852   3.354 -0.0276 -0.0476  0.3782
 1328SOL    HW1 4924   4.426   6.843   3.366 -0.0556 -0.8655 -0.3002
 1328SOL    HW2 4925   4.547   6.768   3.315  0.8391  0.4996 -0.2318
 1329SOL     OW 4926   0.285   3.568   6.485  0.5053  0.1889 -0.2995
 1329SOL    HW1 4927   0.336   3.594   6.562  0.9723 -1.1257 -0.1543
 1329SOL    HW2 4928   0.257   3.651   6.446  2.8751  0.9594 -0.4729
 1330SOL     OW 4929   0.912   4.346   2.233 -0.4317 -0.1128  0.2940
 1330SOL    HW1 4930   0.895   4.409   2.304  1.2420 -1.0380  1.5810
 1330SOL    HW2 4931   0.992   4.378   2.192  0.1276 -1.0835  0.6082
 1331SOL     OW 4932   0.144   4.522   0.461  0.9203  0.2112  0.2247
 1331SOL    HW1 4933   0.224   4.554   0.418  0.6174  0.8452  0.1354
 1331SOL    HW2 4934   0.103   4.599   0.498 -0.0952  0.0291 -0.4579
 1332SOL     OW 4935   2.273   0.153   2.462  0.3729 -0.0517 -0.3684
 1332SOL    HW1 4936   2.240   0.147   2.551  2.1398 -1.4563  0.2641
 1332SOL    HW2 4937   2.253   0.068   2.423  1.5029 -0.2409 -0.5729
 1333SOL     OW 4938   0.297   2.903   3.519 -0.3156  0.0045 -0.5387
 1333SOL    HW1 4939   0.292   2.875   3.428 -0.8710 -0.4671 -0.3740
 1333SOL    HW2 4940   0.377   2.955   3.524 -0.0965 -0.2528 -1.2150
 1334SOL     OW 4941   6.135   1.590   6.640 -0.1309 -0.0398 -1.1690
 1334SOL    HW1 4942   6.086   1.533   6.699  3.3046 -2.2218 -0.1166
 1334SOL    HW2 4943   6.068   1.637   6.591 -3.2510  0.8311  3.3365
 1335SOL     OW 4944   5.785   6.245   4.826  0.3100  0.2980 -0.0878
 1335SOL    HW1 4945   5.800   6.218   4.917 -0.0682 -2.2390 -0.6857
 1335SOL    HW2 4946   5.768   6.163   4.780  1.2740  1.4229 -2.6298
 1336SOL     OW 4947   1.688   0.370   6.789  0.0009  0.7587 -0.3918
 1336SOL    HW1 4948   1.755   0.370   6.720  1.9459 -0.3215  1.3482
 1336SOL    HW2 4949   1.734   0.404   6.866 -0.6809 -2.1145  1.4575
 1337SOL     OW 4950   0.016   3.931   6.782  0.4412  0.2909  0.1859
 1337SOL    HW1 4951   0.010   3.857   6.721  1.0024  0.4235 -0.0363
 1337SOL    HW2 4952  -0.073   3.941   6.817 -0.1466  0.8983 -1.4140
 1338SOL     OW 4953   3.965   0.793   1.227 -0.2567  0.0039 -0.1963
 1338SOL    HW1 4954   3.887   0.749   1.259  0.5334 -0.6758  0.8532
 1338SOL    HW2 4955   3.969   0.771   1.134 -2.1373  1.3326 -0.6560
 1339SOL     OW 4956   7.022   3.084   5.613  0.0996 -0.2953  0.2287
 1339SOL    HW1 4957   7.025   3.038   5.696  1.0232 -0.7445 -0.0343
 1339SOL    HW2 4958   7.112   3.117   5.601  0.9525 -3.0739 -2.1170
 1340SOL     OW 4959   2.905   3.392   1.259 -0.6166  0.4305  0.3883
 1340SOL    HW1 4960   2.958   3.322   1.295  0.4947  1.3745  0.6601
 1340SOL    HW2 4961   2.968   3.461   1.236 -1.5143  0.7894 -1.1881
 1341SOL     OW 4962   1.352   0.653   3.767 -0.1512 -0.4483 -0.3291
 1341SOL    HW1 4963   1.420   0.676   3.703 -1.2544  0.8159 -1.0923
 1341SOL    HW2 4964   1.392   0.672   3.852  0.0144  1.6309 -0.8262
 1342SOL     OW 4965   3.962   0.723   3.970  0.0280 -0.6043 -0.2310
 1342SOL    HW1 4966   3.925   0.643   4.008  0.8396 -0.0457  1.8629
 1342SOL    HW2 4967   3.961   0.787   4.041  0.7945  0.8078 -1.4275
 1343SOL     OW 4968   2.259   3.135   0.901  0.1415  0.5080 -0.0064
 1343SOL    HW1 4969   2.217   3.098   0.979  0.3581 -0.9606 -0.5490
 1343SOL    HW2 4970   2.324   3.196   0.936 -0.6785  0.8860  0.9128
 1344SOL     OW 4971   4.694   1.326   4.955  0.2936 -0.0774  0.0445
 1344SOL    HW1 4972   4.613   1.279   4.975 -0.0565  0.8319  0.8870
 1344SOL    HW2 4973   4.681   1.360   4.867  0.9337 -2.2936 -0.9634
 1345SOL     OW 4974   3.891   1.294   5.087  0.5012  0.1535  0.2488
 1345SOL    HW1 4975   3.942   1.228   5.040  1.9998  3.1750 -2.8477
 1345SOL    HW2 4976   3.951   1.327   5.154 -0.4475 -1.8187  2.1945
 1346SOL     OW 4977   2.601   7.082   1.149  0.6728  0.1277  0.1483
 1346SOL    HW1 4978   2.606   7.003   1.203  0.6718 -0.4582 -0.6901
 1346SOL    HW2 4979   2.689   7.094   1.116  0.5796  0.2345 -0.0622
 1347SOL     OW 4980   4.171   3.715   4.716 -0.2252  0.1249  0.0344
 1347SOL    HW1 4981   4.237   3.682   4.776 -1.5221 -1.8852  0.4498
 1347SOL    HW2 4982   4.095   3.735   4.772 -0.0464  2.3163 -0.4350
 1348SOL     OW 4983   4.763   7.217   2.800  0.0079 -0.3346  0.0263
 1348SOL    HW1 4984   4.716   7.240   2.880  0.0760 -1.8610  0.5370
 1348SOL    HW2 4985   4.698   7.172   2.746  0.2857 -0.4333 -0.2295
 1349SOL     OW 4986   5.262   5.823   6.994 -0.1110 -0.1718 -0.0833
 1349SOL    HW1 4987   5.251   5.752   6.930  0.3964  0.8084 -1.2871
 1349SOL    HW2 4988   5.243   5.781   7.078  0.8675 -1.9151 -0.6723
 1350SOL     OW 4989   2.737   4.543   7.073 -0.6966 -0.0660 -0.1357
 1350SOL    HW1 4990   2.819   4.494   7.074 -0.7187 -0.1675 -1.3953
 1350SOL    HW2 4991   2.735   4.583   6.986 -0.1316  3.1208  1.1510
 1351SOL     OW 4992   3.144   2.728   6.330 -0.2214 -0.2402  0.2351
 1351SOL    HW1 4993   3.091   2.654   6.360 -0.0295 -1.1759 -1.5939
 1351SOL    HW2 4994   3.185   2.696   6.249  2.3526  0.7880  1.0498
 1352SOL     OW 4995   1.758   6.361   6.018 -0.3904  0.3456 -0.1381
 1352SOL    HW1 4996   1.853   6.356   6.031 -0.4140 -1.6209 -0.4077
 1352SOL    HW2 4997   1.724   6.283   6.061 -2.0998  1.8553  1.3715
 1353SOL     OW 4998   7.393   3.362   5.260 -0.0298 -0.2438 -0.5677
 1353SOL    HW1 4999   7.331   3.361   5.187 -2.1130  1.2195  1.0478
 1353SOL    HW2 5000   7.452   3.435   5.240 -2.1273  1.7887  0.2997
 1354SOL     OW 5001   7.343   4.370   4.228  0.0765  0.0855  0.2958
 1354SOL    HW1 5002   7.438   4.379   4.220  0.1856 -0.3277  1.0314
 1354SOL    HW2 5003   7.319   4.314   4.154  0.1522  1.6113 -0.9290
 1355SOL     OW 5004   6.871   3.458   6.635 -0.6187 -0.2345  0.2658
 1355SOL    HW1 5005   6.850   3.540   6.678  1.1535 -0.3419  1.4351
 1355SOL    HW2 5006   6.887   3.396   6.707  0.5286 -0.9346 -0.5626
 1356SOL     OW 5007   2.022   4.369   0.194  0.4528  0.0808 -0.1881
 1356SOL    HW1 5008   2.043   4.342   0.105 -1.0304  3.5160 -1.7616
 1356SOL    HW2 5009   2.013   4.287   0.243  0.1035 -1.9998 -3.4571
 1357SOL     OW 5010   4.372   1.784   1.643  0.5013 -0.6591  0.0807
 1357SOL    HW1 5011   4.355   1.827   1.726 -1.1152 -1.9162  0.4441
 1357SOL    HW2 5012   4.292   1.735   1.624  2.1701 -3.4823 -0.2935
 1358SOL     OW 5013   4.855   1.165   0.445 -0.0170 -0.0438  0.0575
 1358SOL    HW1 5014   4.789   1.142   0.511 -0.5987 -1.2920 -0.9247
 1358SOL    HW2 5015   4.938   1.162   0.492 -0.4005 -1.0926  0.7063
 1359SOL     OW 5016   6.669   0.435   0.790  0.0450  0.1816  0.0859
 1359SOL    HW1 5017   6.593   0.492   0.805 -0.4942  0.3684 -2.6873
 1359SOL    HW2 5018   6.631   0.347   0.780  0.2585  0.1549 -0.5392
 1360SOL     OW 5019   2.998   1.129   2.774  0.4217  0.3601  0.2902
 1360SOL    HW1 5020   2.999   1.198   2.708 -2.3645 -0.9637 -1.2930
 1360SOL    HW2 5021   3.045   1.056   2.734  1.9122  0.7412  1.2910
 1361SOL     OW 5022   1.507   4.136   4.003 -0.5132 -0.4635 -0.1956
 1361SOL    HW1 5023   1.414   4.122   4.020 -0.3723 -0.2056  0.8597
 1361SOL    HW2 5024   1.551   4.072   4.059 -0.0643 -1.5013 -1.6633
 1362SOL     OW 5025   2.075   7.384   1.302 -0.1582  0.1494 -0.3051
 1362SOL    HW1 5026   2.109   7.303   1.340  0.0427  1.1714  1.8247
 1362SOL    HW2 5027   1.982   7.367   1.288 -0.0467 -0.5543 -0.2136
 1363SOL     OW 5028   4.627   3.104   1.514  0.7190  0.1074  0.6533
 1363SOL    HW1 5029   4.560   3.146   1.568 -0.1850 -1.0275  0.4565
 1363SOL    HW2 5030   4.619   3.144   1.428 -0.8760 -1.1552  0.1645
 1364SOL     OW 5031   5.658   5.869   1.583 -0.0754 -0.8574  0.3482
 1364SOL    HW1 5032   5.654   5.783   1.541  0.4213  0.0888 -1.7565
 1364SOL    HW2 5033   5.593   5.864   1.653 -0.0885 -2.9249  0.2544
 1365SOL     OW 5034   2.420   1.889   5.901 -0.0461 -0.5432 -0.3918
 1365SOL    HW1 5035   2.337   1.930   5.877  0.3302  0.2758 -0.3191
 1365SOL    HW2 5036   2.464   1.873   5.818  1.9000  3.6211 -0.3851
 1366SOL     OW 5037   1.043   4.836   2.523 -0.3348  0.2444 -0.0205
 1366SOL    HW1 5038   0.962   4.843   2.473 -0.6323 -1.7291  0.1233
 1366SOL    HW2 5039   1.110   4.819   2.457 -0.6336 -1.7503  0.1429
 1367SOL     OW 5040   3.635   2.104   0.557  0.6004  0.1270  0.1871
 1367SOL    HW1 5041   3.570   2.131   0.623  0.8579  1.2018  0.0154
 1367SOL    HW2 5042   3.718   2.104   0.604  0.7886  0.9229 -0.1330
 1368SOL     OW 5043   2.862   7.416   4.996  0.4175  0.0182  0.0658
 1368SOL    HW1 5044   2.790   7.354   5.002  1.1270 -0.8205  0.0306
 1368SOL    HW2 5045   2.832   7.493   5.045 -0.8493  0.0372 -0.6982
 1369SOL     OW 5046   7.060   0.986   2.016  0.0310  0.1267  0.2966
 1369SOL    HW1 5047   7.131   1.038   1.979 -0.5230  2.4384  2.2267
 1369SOL    HW2 5048   6.988   0.996   1.954  0.5302  0.0700 -0.3008
 1370SOL     OW 5049   7.321   4.148   2.168  0.2408 -0.3521  0.1912
 1370SOL    HW1 5050   7.385   4.167   2.236 -0.8200 -1.5093  1.5760
 1370SOL    HW2 5051   7.237   4.176   2.205 -0.5106 -2.0335 -0.1370
 1371SOL     OW 5052   3.018   3.096   3.172 -0.1204  0.7103 -0.3189
 1371SOL    HW1 5053   2.934   3.062   3.143 -0.9224  0.6599  1.8898
 1371SOL    HW2 5054   3.000   3.186   3.198  0.5819  0.8064 -0.1385
 1372SOL     OW 5055   7.392   4.754   0.624 -0.1357  0.1463 -0.3560
 1372SOL    HW1 5056   7.467   4.791   0.670 -0.1850  0.1725 -0.2962
 1372SOL    HW2 5057   7.315   4.791   0.669 -0.1849 -0.0749 -0.2555
 1373SOL     OW 5058   0.526   1.077   2.439 -0.1252  0.3008 -0.2984
 1373SOL    HW1 5059   0.617   1.105   2.450 -0.3657  0.8421  0.3982
 1373SOL    HW2 5060   0.476   1.135   2.497 -0.6097 -1.8287  1.5581
 1374SOL     OW 5061   0.511   4.988   5.521  0.3181  0.0446 -0.2478
 1374SOL    HW1 5062   0.577   5.042   5.478  0.3467  0.4160  0.2594
 1374SOL    HW2 5063   0.550   4.901   5.526  0.0040 -0.2040 -1.6867
 1375SOL     OW 5064   2.182   1.301   7.253 -0.2585 -0.0826  0.8839
 1375SOL    HW1 5065   2.182   1.394   7.230  0.0543 -0.4882 -0.9001
 1375SOL    HW2 5066   2.110   1.292   7.316 -1.5367  1.0677 -0.3368
 1376SOL     OW 5067   6.944   2.243   2.196  0.2136 -0.3723 -0.5881
 1376SOL    HW1 5068   6.941   2.212   2.106  0.4024 -1.2871 -0.2863
 1376SOL    HW2 5069   7.004   2.184   2.240  2.2067  1.6381 -0.4445
 1377SOL     OW 5070   4.390   6.573   6.860  0.6857  0.1614  0.1225
 1377SOL    HW1 5071   4.327   6.635   6.897 -0.3706  0.0934 -1.4500
 1377SOL    HW2 5072   4.475   6.612   6.879  0.1489  0.8179  1.3500
 1378SOL     OW 5073   5.654   2.677   5.204 -1.0180  0.1825  0.5253
 1378SOL    HW1 5074   5.637   2.752   5.148  0.1349 -0.2928 -0.5133
 1378SOL    HW2 5075   5.577   2.621   5.194  0.2887 -1.2698 -2.9551
 1379SOL     OW 5076   2.841   1.135   3.332  0.2586  0.0754  0.1808
 1379SOL    HW1 5077   2.828   1.168   3.243 -1.0755 -0.8745 -0.0095
 1379SOL    HW2 5078   2.884   1.051   3.320  0.4233  0.1208  0.4513
 1380SOL     OW 5079   5.154   3.721   0.221 -0.0432 -0.1366 -0.4588
 1380SOL    HW1 5080   5.072   3.722   0.269  0.1950 -2.1816  0.0704
 1380SOL    HW2 5081   5.137   3.665   0.145  0.3191  1.0057 -1.4206
 1381SOL     OW 5082   4.584   0.836   0.758 -0.4483  0.8697 -0.7328
 1381SOL    HW1 5083   4.629   0.920   0.750  1.4766 -0.2933 -3.8506
 1381SOL    HW2 5084   4.604   0.807   0.847  2.2496  1.9769 -0.8626
 1382SOL     OW 5085   6.929   0.751   2.637 -0.2099 -0.2699  0.0834
 1382SOL    HW1 5086   6.877   0.819   2.680 -0.7329 -0.3817 -0.3623
 1382SOL    HW2 5087   6.932   0.778   2.545 -0.8212 -1.0844 -0.1911
 1383SOL     OW 5088   5.105   5.847   6.718 -0.3769  0.0617  0.0520
 1383SOL    HW1 5089   5.012   5.869   6.712 -0.2498  0.8254  0.6798
 1383SOL    HW2 5090   5.149   5.932   6.722  0.3481 -0.2973 -0.2178
 1384SOL     OW 5091   1.142   5.699   3.261  0.5862  0.4023 -0.5320
 1384SOL    HW1 5092   1.115   5.683   3.351  2.6524  0.4764  0.1713
 1384SOL    HW2 5093   1.186   5.784   3.264  0.9599  0.2583 -1.5410
 1385SOL     OW 5094   2.278   2.753   0.982  0.0750 -0.2466 -0.0220
 1385SOL    HW1 5095   2.331   2.750   0.902  0.6476 -0.1205  0.3480
 1385SOL    HW2 5096   2.218   2.678   0.974  1.1773 -1.1688  0.1564
 1386SOL     OW 5097   1.906   0.674   5.543  0.8124  0.3917 -0.1830
 1386SOL    HW1 5098   1.981   0.731   5.529  2.4805 -1.8724 -1.0324
 1386SOL    HW2 5099   1.943   0.593   5.577 -1.5338 -0.0065  1.6720
 1387SOL     OW 5100   2.534   2.121   4.577  0.7977  0.0270 -0.0820
 1387SOL    HW1 5101   2.461   2.079   4.622  0.7862  0.5363  0.3913
 1387SOL    HW2 5102   2.607   2.115   4.638  0.4400  1.9006  0.6158
 1388SOL     OW 5103   6.614   1.354   6.165  0.4380  0.6378  0.0028
 1388SOL    HW1 5104   6.699   1.392   6.190  0.8642 -0.1271 -0.2469
 1388SOL    HW2 5105   6.594   1.293   6.236  0.8048 -0.2505 -0.6426
 1389SOL     OW 5106   7.101   6.925   3.149 -0.1668 -0.1379  0.0485
 1389SOL    HW1 5107   7.110   6.995   3.214  1.8828  0.1235 -0.4460
 1389SOL    HW2 5108   7.182   6.930   3.098 -0.4473 -2.1969 -0.6781
 1390SOL     OW 5109   6.186   7.092   6.173 -0.2633 -0.2750  0.4439
 1390SOL    HW1 5110   6.178   7.098   6.268  1.5469  1.0470  0.5651
 1390SOL    HW2 5111   6.149   7.174   6.141  0.2853 -0.1573  0.1044
 1391SOL     OW 5112   5.815   6.054   4.584  0.0851 -0.3167 -0.1681
 1391SOL    HW1 5113   5.903   6.022   4.561  0.4959  1.4667 -1.2602
 1391SOL    HW2 5114   5.774   6.075   4.500 -0.6249  0.7491  0.4186
 1392SOL     OW 5115   6.188   1.907   5.134  0.1954 -0.4084  0.3196
 1392SOL    HW1 5116   6.251   1.979   5.130  1.3403 -1.3639  0.5497
 1392SOL    HW2 5117   6.195   1.864   5.048 -0.9433  0.1194 -0.0520
 1393SOL     OW 5118   4.747   0.231   6.638 -0.5355  0.3822 -0.5818
 1393SOL    HW1 5119   4.765   0.248   6.545 -0.8851 -0.2019 -0.7622
 1393SOL    HW2 5120   4.731   0.317   6.676 -0.6737  0.6017 -1.1271
 1394SOL     OW 5121   5.420   5.643   1.762  0.2455 -0.1585  0.5243
 1394SOL    HW1 5122   5.345   5.604   1.809 -0.9824  1.7932  0.2832
 1394SOL    HW2 5123   5.418   5.735   1.786  1.0404  0.4261 -1.4796
 1395SOL     OW 5124   4.812   4.246   1.220 -0.3345  0.3609 -0.1158
 1395SOL    HW1 5125   4.845   4.282   1.138 -2.7488 -1.5632 -2.0932
 1395SOL    HW2 5126   4.811   4.320   1.280  1.3391  1.8879 -1.8442
 1396SOL     OW 5127   6.747   6.089   5.849  0.4451 -0.4881  0.0190
 1396SOL    HW1 5128   6.721   6.165   5.902  0.7050  0.8962 -1.7540
 1396SOL    HW2 5129   6.684   6.021   5.873 -3.1368  1.8097 -1.9296
 1397SOL     OW 5130   7.027   1.603   6.553  0.1339  0.1504  0.0956
 1397SOL    HW1 5131   7.034   1.531   6.490  0.1211 -0.3295  0.6395
 1397SOL    HW2 5132   7.049   1.681   6.502 -1.4909 -0.0137 -0.9244
 1398SOL     OW 5133   6.049   3.149   2.546 -0.2446  0.9900  0.0295
 1398SOL    HW1 5134   6.086   3.069   2.584 -1.3385  0.6684  0.4777
 1398SOL    HW2 5135   6.111   3.174   2.478  0.1207 -0.2581 -0.1350
 1399SOL     OW 5136   4.088   2.825   7.053  0.0824 -0.1577 -0.1184
 1399SOL    HW1 5137   4.021   2.892   7.062 -0.4710 -0.6998 -0.1369
 1399SOL    HW2 5138   4.106   2.821   6.959 -2.1634 -2.1834 -0.5679
 1400SOL     OW 5139   6.663   3.646   5.591 -0.4183  0.4338 -0.1499
 1400SOL    HW1 5140   6.605   3.590   5.642  1.4392 -0.4772  1.0774
 1400SOL    HW2 5141   6.614   3.728   5.580 -1.6836 -0.0807  1.3323
 1401SOL     OW 5142   1.927   7.415   7.120  0.1216 -0.7260 -0.0220
 1401SOL    HW1 5143   1.957   7.331   7.085  2.1213  0.2674 -0.8643
 1401SOL    HW2 5144   1.996   7.476   7.097 -2.1971  1.6215 -1.2255
 1402SOL     OW 5145   2.480   0.566   6.052 -0.1049  0.1126  0.5387
 1402SOL    HW1 5146   2.464   0.631   6.120  0.0764 -1.2347  1.9260
 1402SOL    HW2 5147   2.447   0.484   6.089 -0.1112 -0.6328 -1.0568
 1403SOL     OW 5148   2.540   4.529   3.967  0.0387  0.0397 -0.6168
 1403SOL    HW1 5149   2.589   4.609   3.950 -0.0221  0.2849  0.3511
 1403SOL    HW2 5150   2.473   4.553   4.030  0.6843 -0.9849  0.5142
 1404SOL     OW 5151   5.252   0.624   0.855 -0.8977  0.2008 -0.9253
 1404SOL    HW1 5152   5.316   0.641   0.924 -0.2876 -3.8015 -0.2788
 1404SOL    HW2 5153   5.167   0.638   0.897 -0.5025  0.1550 -0.0938
 1405SOL     OW 5154   3.297   0.807   2.408  0.0001 -0.1160  0.3758
 1405SOL    HW1 5155   3.365   0.778   2.469 -0.3395  0.3020  0.9599
 1405SOL    HW2 5156   3.330   0.890   2.374  0.8144 -0.9888 -1.0386
 1406SOL     OW 5157   5.828   5.481   0.618  0.1746  0.8417  0.9281
 1406SOL    HW1 5158   5.749   5.499   0.670 -1.2538  0.5119 -1.0141
 1406SOL    HW2 5159   5.862   5.567   0.596 -1.1883  1.0778 -0.4035
 1407SOL     OW 5160   1.291   5.082   6.086  0.9682 -0.7157  0.0887
 1407SOL    HW1 5161   1.232   5.008   6.074 -0.0511  0.2851 -1.3154
 1407SOL    HW2 5162   1.303   5.088   6.181 -1.1401 -1.0087  0.4259
 1408SOL     OW 5163   2.888   4.656   3.216 -0.2349  0.0117  0.5630
 1408SOL    HW1 5164   2.792   4.661   3.214 -0.2631 -0.5048  0.1330
 1408SOL    HW2 5165   2.915   4.684   3.129  0.0396  0.6751  0.8592
 1409SOL     OW 5166   5.571   4.233   4.479  0.3790  0.2688 -0.2052
 1409SOL    HW1 5167   5.487   4.217   4.435  0.9669 -0.6969 -1.0170
 1409SOL    HW2 5168   5.572   4.171   4.552  0.8420 -0.5027 -0.8497
 1410SOL     OW 5169   6.001   7.276   3.983  0.1058 -0.2639  0.1647
 1410SOL    HW1 5170   5.924   7.229   3.952  1.2530 -2.6699  0.7457
 1410SOL    HW2 5171   5.968   7.361   4.010 -1.7765  0.0403 -2.6924
 1411SOL     OW 5172   2.961   1.319   0.909 -0.3956  0.9437 -0.6214
 1411SOL    HW1 5173   2.925   1.295   0.994 -0.5607 -1.8996 -1.3964
 1411SOL    HW2 5174   3.054   1.298   0.917 -0.4650  0.4086 -1.2312
 1412SOL     OW 5175   3.753   1.527   7.114 -0.3277  0.2417 -0.2541
 1412SOL    HW1 5176   3.822   1.566   7.061  0.3855 -1.4980 -0.6743
 1412SOL    HW2 5177   3.788   1.529   7.204  0.3838 -0.7638 -0.4826
 1413SOL     OW 5178   3.502   1.560   6.358 -0.1373 -0.7619  0.3763
 1413SOL    HW1 5179   3.474   1.651   6.372  0.9382 -0.3229 -0.2397
 1413SOL    HW2 5180   3.585   1.553   6.405  1.0472 -0.6825 -1.5993
 1414SOL     OW 5181   5.371   4.100   5.932  0.4501 -0.3373  0.0769
 1414SOL    HW1 5182   5.463   4.120   5.917  0.2202  0.2351 -0.5894
 1414SOL    HW2 5183   5.360   4.011   5.898  0.6097 -0.1620 -0.4411
 1415SOL     OW 5184   5.994   5.031   3.501  0.5022  0.0299 -0.0859
 1415SOL    HW1 5185   5.951   5.086   3.436 -1.0483  0.4545  1.2440
 1415SOL    HW2 5186   5.937   5.034   3.577  1.4119 -1.7978  0.7380
 1416SOL     OW 5187   6.289   7.073   2.566  0.2161  0.2668  0.4752
 1416SOL    HW1 5188   6.203   7.036   2.546  0.1893  0.0479  0.9695
 1416SOL    HW2 5189   6.351   7.014   2.524  0.2471 -1.2404  2.4815
 1417SOL     OW 5190   2.718   5.366   5.993  0.0676  0.4721 -0.0539
 1417SOL    HW1 5191   2.803   5.334   6.022  0.0367  0.1422 -0.3274
 1417SOL    HW2 5192   2.738   5.428   5.923  0.2080  2.0428  1.2887
 1418SOL     OW 5193   0.459   2.811   2.798 -0.1089  0.1223  0.7258
 1418SOL    HW1 5194   0.409   2.859   2.863 -0.9132 -0.2567  0.4013
 1418SOL    HW2 5195   0.395   2.788   2.730  0.5315 -0.2446  0.2301
 1419SOL     OW 5196   4.467   2.636   0.006 -0.1227  0.2113 -0.3546
 1419SOL    HW1 5197   4.515   2.682   0.074 -0.5715 -0.2164  0.2607
 1419SOL    HW2 5198   4.415   2.704  -0.038 -1.4323  0.1982  1.0943
 1420SOL     OW 5199   5.142   0.247   6.912  0.2186  0.2305  0.2554
 1420SOL    HW1 5200   5.104   0.290   6.835 -1.6670 -1.2370  0.3041
 1420SOL    HW2 5201   5.228   0.217   6.882  0.6761  2.0764 -0.4061
 1421SOL     OW 5202   0.183   6.139   3.885 -0.4266 -0.8633  0.3439
 1421SOL    HW1 5203   0.219   6.086   3.956  0.7831 -0.7568 -0.1517
 1421SOL    HW2 5204   0.235   6.115   3.808 -2.7496 -2.1660 -0.9306
 1422SOL     OW 5205   6.645   5.298   5.329  0.3251 -0.2155  0.3024
 1422SOL    HW1 5206   6.635   5.257   5.415  0.7002  0.1441  0.5219
 1422SOL    HW2 5207   6.728   5.266   5.296  1.9086  2.2341  1.5590
 1423SOL     OW 5208   0.208   2.052   4.777  0.2012  0.5731 -0.4152
 1423SOL    HW1 5209   0.166   2.134   4.804  0.9383  1.2277 -1.1869
 1423SOL    HW2 5210   0.292   2.052   4.823  0.3097  0.3700 -0.6115
 1424SOL     OW 5211   2.280   2.875   3.266  0.1538 -0.0730 -0.1530
 1424SOL    HW1 5212   2.330   2.950   3.298 -1.3292  0.3189  1.4123
 1424SOL    HW2 5213   2.232   2.908   3.191 -1.2261  0.8814  1.0947
 1425SOL     OW 5214   2.852   0.889   5.656 -0.7067 -0.4450  0.3357
 1425SOL    HW1 5215   2.853   0.802   5.696  1.2405  0.0224  1.4331
 1425SOL    HW2 5216   2.799   0.942   5.715 -1.4565 -0.7460 -0.0539
 1426SOL     OW 5217   1.713   7.052   6.036  0.7619  0.5737  0.3341
 1426SOL    HW1 5218   1.757   6.972   6.066  0.6854 -1.1492 -3.5557
 1426SOL    HW2 5219   1.620   7.033   6.045  0.7357 -0.0095 -0.9539
 1427SOL     OW 5220   6.718   2.572   5.824 -0.2890 -0.1272 -0.6000
 1427SOL    HW1 5221   6.725   2.583   5.919 -0.5199 -0.8475 -0.4971
 1427SOL    HW2 5222   6.766   2.647   5.788 -1.4262  0.9627  0.0799
 1428SOL     OW 5223   4.330   0.514   7.131 -0.2937  0.1478  0.1442
 1428SOL    HW1 5224   4.303   0.437   7.082  0.1839 -1.6578  2.5182
 1428SOL    HW2 5225   4.426   0.508   7.133 -0.2940  0.2994  1.0628
 1429SOL     OW 5226   3.101   1.681   6.974  0.0912 -0.4453  0.4073
 1429SOL    HW1 5227   3.036   1.662   6.907 -0.2655 -0.6450  0.8074
 1429SOL    HW2 5228   3.185   1.664   6.931 -0.0978  0.1862 -0.2275
 1430SOL     OW 5229   0.627   7.132   4.215  0.2207  0.0870  0.0921
 1430SOL    HW1 5230   0.711   7.118   4.259  0.6118 -0.2850 -0.7543
 1430SOL    HW2 5231   0.620   7.227   4.206  1.4070  0.0728 -1.4114
 1431SOL     OW 5232   4.977   4.161   3.967  0.6074 -0.5597 -0.3229
 1431SOL    HW1 5233   4.964   4.066   3.974  1.1329 -0.6558 -0.5905
 1431SOL    HW2 5234   4.966   4.193   4.056  2.9118 -1.2035  0.2565
 1432SOL     OW 5235   1.536   1.913   0.887 -0.0632 -0.0729 -0.5439
 1432SOL    HW1 5236   1.467   1.979   0.886  0.6941  0.8336  1.4119
 1432SOL    HW2 5237   1.615   1.962   0.863  0.3683 -0.4174  0.1490
 1433SOL     OW 5238   4.875   2.567   6.596 -0.2487  0.3020 -0.0380
 1433SOL    HW1 5239   4.851   2.531   6.511  1.4936  0.8811 -0.8154
 1433SOL    HW2 5240   4.862   2.494   6.657  0.5405 -0.8084 -1.1462
 1434SOL     OW 5241   4.637   3.682   3.914  0.0214  0.2962  0.3670
 1434SOL    HW1 5242   4.718   3.664   3.866  0.4965  2.0348  0.4446
 1434SOL    HW2 5243   4.577   3.716   3.847 -0.5660 -0.7047  0.3647
 1435SOL     OW 5244   2.986   1.957   6.681 -0.2541 -0.1796 -0.3852
 1435SOL    HW1 5245   2.999   2.045   6.646  2.0062 -0.5626 -0.6594
 1435SOL    HW2 5246   3.074   1.918   6.681 -0.7126 -1.4579  2.3538
 1436SOL     OW 5247   1.160   3.241   0.921 -0.0000  0.2877  0.1389
 1436SOL    HW1 5248   1.068   3.216   0.908 -0.1188  0.7440  0.0753
 1436SOL    HW2 5249   1.163   3.275   1.010  0.3720 -0.8738  0.5804
 1437SOL     OW 5250   2.264   5.632   0.948  0.0346  0.1239  0.4400
 1437SOL    HW1 5251   2.308   5.565   1.001 -0.2602  0.5599  1.2632
 1437SOL    HW2 5252   2.172   5.605   0.946 -0.0737  0.4702  0.7223
 1438SOL     OW 5253   4.498   4.625   0.340 -0.3015  0.1660  0.0969
 1438SOL    HW1 5254   4.552   4.684   0.394  0.1438  1.3400 -1.5389
 1438SOL    HW2 5255   4.463   4.562   0.402  2.5661 -0.3787  1.3511
 1439SOL     OW 5256   2.638   6.316   5.202  0.3701  0.3598 -0.2622
 1439SOL    HW1 5257   2.549   6.347   5.216  0.7833  1.3404  0.2280
 1439SOL    HW2 5258   2.627   6.225   5.172 -0.8630  0.9678 -1.8278
 1440SOL     OW 5259   1.221   4.243   2.388  0.1258  0.0255 -1.0373
 1440SOL    HW1 5260   1.208   4.153   2.360 -2.4619 -0.4450  1.2669
 1440SOL    HW2 5261   1.176   4.295   2.321 -0.6783 -0.6035 -0.9929
 1441SOL     OW 5262   6.590   4.883   5.466 -0.1356  0.1243  0.0850
 1441SOL    HW1 5263   6.598   4.858   5.374  0.5020  1.0762 -0.1359
 1441SOL    HW2 5264   6.678   4.869   5.502 -0.9323 -2.6035  1.2151
 1442SOL     OW 5265   0.441   2.070   6.150  0.8469  0.1456 -0.6077
 1442SOL    HW1 5266   0.480   2.047   6.066 -0.6176  1.4055 -1.6847
 1442SOL    HW2 5267   0.393   1.992   6.176 -0.3369  0.3883 -1.9584
 1443SOL     OW 5268   0.402   4.640   5.499 -0.4797  0.9174 -0.9297
 1443SOL    HW1 5269   0.356   4.716   5.464  1.0827  2.5828  0.4473
 1443SOL    HW2 5270   0.432   4.668   5.586 -0.9151 -1.7166  0.1684
 1444SOL     OW 5271   3.575   3.563   1.003  0.4097 -0.2835 -0.2777
 1444SOL    HW1 5272   3.496   3.580   0.952 -1.0898  1.0522  2.2757
 1444SOL    HW2 5273   3.562   3.475   1.040  0.4007 -0.3128 -0.3515
 1445SOL     OW 5274   4.274   2.994   2.824 -0.2029  0.1226  0.0733
 1445SOL    HW1 5275   4.215   3.056   2.780 -1.8907 -0.2229  1.6905
 1445SOL    HW2 5276   4.346   3.049   2.856  0.2438  0.6114 -1.6877
 1446SOL     OW 5277   3.345   0.260   6.088  0.1070 -0.1907  0.1021
 1446SOL    HW1 5278   3.250   0.266   6.082  0.1261 -0.2602 -0.3529
 1446SOL    HW2 5279   3.375   0.350   6.099  0.1168  0.1078 -1.9904
 1447SOL     OW 5280   5.166   6.753   0.024  0.3513 -0.0806 -0.3170
 1447SOL    HW1 5281   5.166   6.780   0.116  3.5593 -1.1674  0.1014
 1447SOL    HW2 5282   5.076   6.771  -0.005 -0.3307  1.8481  2.5186
 1448SOL     OW 5283   5.721   0.358   3.863  0.9230  0.2011  0.3122
 1448SOL    HW1 5284   5.704   0.399   3.778 -4.3182 -2.3318 -0.2794
 1448SOL    HW2 5285   5.737   0.265   3.842 -0.7852 -0.5320  1.9559
 1449SOL     OW 5286   4.573   7.114   3.342  0.0479  0.0862  0.3346
 1449SOL    HW1 5287   4.565   7.020   3.325  0.7605 -0.0178  0.5412
 1449SOL    HW2 5288   4.491   7.151   3.310 -0.2385 -0.6047  0.2456
 1450SOL     OW 5289   6.858   3.332   3.129 -0.3868 -0.3912 -0.3868
 1450SOL    HW1 5290   6.827   3.419   3.104  0.5341  0.2320  0.5607
 1450SOL    HW2 5291   6.778   3.282   3.144 -1.0275  1.2733  2.4132
 1451SOL     OW 5292   7.347   2.204   5.396 -0.0637  0.1720  0.4059
 1451SOL    HW1 5293   7.356   2.299   5.397 -1.8629  0.3909  0.1775
 1451SOL    HW2 5294   7.259   2.189   5.361  0.7434 -1.6343 -1.0426
 1452SOL     OW 5295   2.415   6.365   3.871 -0.4253  0.1628  0.2126
 1452SOL    HW1 5296   2.328   6.404   3.870  0.0051  1.2654  1.5475
 1452SOL    HW2 5297   2.471   6.432   3.911  0.7825 -1.0074  0.5781
 1453SOL     OW 5298   3.426   5.437   5.082  0.1176  0.6706 -0.4690
 1453SOL    HW1 5299   3.390   5.388   5.009  0.9611  1.2775 -1.3344
 1453SOL    HW2 5300   3.350   5.473   5.127 -0.5355 -1.5888  0.3557
 1454SOL     OW 5301   0.020   2.311   2.956  0.0989  0.2227  0.1342
 1454SOL    HW1 5302  -0.052   2.251   2.977  0.3348 -1.0540 -2.3908
 1454SOL    HW2 5303   0.088   2.290   3.021 -0.4340 -1.1421  0.2811
 1455SOL     OW 5304   4.439   2.560   2.011  0.1448  0.0657 -0.2876
 1455SOL    HW1 5305   4.452   2.634   2.071 -0.4834  1.1774 -1.4553
 1455SOL    HW2 5306   4.465   2.483   2.061 -0.2111  0.9634  1.3389
 1456SOL     OW 5307   1.754   7.252   6.218  0.2538 -0.3191 -0.0956
 1456SOL    HW1 5308   1.660   7.269   6.209 -0.3861 -1.4390  2.9712
 1456SOL    HW2 5309   1.766   7.162   6.187  0.3622 -0.1036 -0.6830
 1457SOL     OW 5310   1.998   6.577   4.831 -0.1226  0.0482 -0.2035
 1457SOL    HW1 5311   1.926   6.558   4.772 -0.1802 -0.0234 -0.1108
 1457SOL    HW2 5312   2.000   6.673   4.837  1.6208  0.2408 -2.4798
 1458SOL     OW 5313   6.723   4.427   2.328 -0.1056 -0.4139 -0.3090
 1458SOL    HW1 5314   6.754   4.376   2.403  2.5293 -0.0249 -1.0314
 1458SOL    HW2 5315   6.630   4.440   2.345  0.2202 -1.0400  2.4764
 1459SOL     OW 5316   1.257   2.816   3.349 -0.8135  0.3806 -0.2092
 1459SOL    HW1 5317   1.204   2.802   3.271 -0.5346 -0.1614 -0.3066
 1459SOL    HW2 5318   1.333   2.758   3.337 -1.6521 -1.1064  1.3145
 1460SOL     OW 5319   4.081   0.287   7.215 -0.2014 -0.2696 -0.4149
 1460SOL    HW1 5320   4.122   0.244   7.290 -0.6462 -0.4927 -0.2979
 1460SOL    HW2 5321   4.154   0.316   7.161  0.2584  2.0530  1.2888
 1461SOL     OW 5322   0.206   1.103   4.595  0.4097  0.2534  0.5772
 1461SOL    HW1 5323   0.177   1.123   4.506  0.3347 -1.0384  0.2993
 1461SOL    HW2 5324   0.183   1.011   4.608  0.9260  0.2699  1.7377
 1462SOL     OW 5325   3.292   2.016   1.527  0.9229 -0.1615  0.4096
 1462SOL    HW1 5326   3.213   2.066   1.508  0.1773 -0.9681  1.2599
 1462SOL    HW2 5327   3.260   1.929   1.552  2.1912 -1.2901 -1.6032
 1463SOL     OW 5328   2.302   4.213   4.384 -0.1914  0.2248 -0.6739
 1463SOL    HW1 5329   2.271   4.124   4.405  1.2025 -0.2826 -0.6913
 1463SOL    HW2 5330   2.390   4.201   4.351  0.1092  1.6513 -0.4715
 1464SOL     OW 5331   4.570   3.282   3.903 -0.5853 -0.2155 -0.1139
 1464SOL    HW1 5332   4.534   3.371   3.896  1.8214  0.8901  0.5693
 1464SOL    HW2 5333   4.621   3.283   3.983  0.2513 -1.9515 -0.5814
 1465SOL     OW 5334   6.655   0.132   3.071 -0.2709  0.1340 -0.0392
 1465SOL    HW1 5335   6.748   0.125   3.091 -0.5638 -0.1615  1.2991
 1465SOL    HW2 5336   6.614   0.062   3.121 -1.3317  0.9169  0.2098
 1466SOL     OW 5337   5.387   5.333   2.312 -0.4047 -0.0791  0.2622
 1466SOL    HW1 5338   5.298   5.322   2.278  0.3230 -0.3645 -1.6962
 1466SOL    HW2 5339   5.399   5.259   2.372 -0.6223 -1.6421 -1.5051
 1467SOL     OW 5340   0.740   6.924   2.661 -0.2121  0.5289 -0.2927
 1467SOL    HW1 5341   0.780   6.853   2.712 -1.4636 -0.4333 -0.6070
 1467SOL    HW2 5342   0.814   6.975   2.629  0.7831 -1.1442 -0.7766
 1468SOL     OW 5343   4.340   1.893   1.189  0.0150 -0.0838 -0.2128
 1468SOL    HW1 5344   4.261   1.893   1.136 -1.7764  0.8677  2.2779
 1468SOL    HW2 5345   4.346   1.803   1.223 -0.3799  0.0111  0.1123
 1469SOL     OW 5346   0.416   4.200   3.981 -1.0793 -0.2363 -0.6032
 1469SOL    HW1 5347   0.489   4.258   4.002 -1.7120  0.8599 -1.3386
 1469SOL    HW2 5348   0.457   4.124   3.940 -0.4133  1.5251 -3.5787
 1470SOL     OW 5349   5.165   5.507   3.867  0.4048  0.2878  0.2257
 1470SOL    HW1 5350   5.243   5.550   3.904  0.7012  0.1397 -0.2216
 1470SOL    HW2 5351   5.092   5.557   3.902  0.6954  0.3434  0.7632
 1471SOL     OW 5352   1.296   3.486   5.725 -0.5268 -0.5615 -0.4300
 1471SOL    HW1 5353   1.287   3.397   5.692 -1.8833 -0.0537 -1.5260
 1471SOL    HW2 5354   1.363   3.526   5.670  1.6953 -1.4926  1.4625
 1472SOL     OW 5355   0.350   1.756   5.712  0.7382 -0.4165  0.3597
 1472SOL    HW1 5356   0.314   1.814   5.644  0.8485  0.3026  0.8955
 1472SOL    HW2 5357   0.294   1.771   5.788 -0.4084 -2.4416 -0.0174
 1473SOL     OW 5358   4.689   1.068   2.456  0.1163  0.2273  0.6784
 1473SOL    HW1 5359   4.702   1.003   2.524 -0.2837  0.9591  1.4715
 1473SOL    HW2 5360   4.775   1.107   2.442  0.5472 -1.0474 -0.4264
 1474SOL     OW 5361   4.733   1.807   4.961 -0.6233  0.1646 -0.2904
 1474SOL    HW1 5362   4.820   1.847   4.953 -0.3370  0.5242  3.1016
 1474SOL    HW2 5363   4.751   1.718   4.990 -1.2288  0.9631  2.9958
 1475SOL     OW 5364   6.367   3.146   4.670  0.5364 -0.1773 -0.7287
 1475SOL    HW1 5365   6.391   3.193   4.750 -0.7117  2.4677 -1.7811
 1475SOL    HW2 5366   6.428   3.073   4.666 -0.9232 -1.9915  3.9174
 1476SOL     OW 5367   4.527   1.743   6.134  0.3002 -0.0908 -0.0940
 1476SOL    HW1 5368   4.544   1.724   6.042  0.1248 -1.4313  0.1268
 1476SOL    HW2 5369   4.585   1.815   6.155  0.2227  0.3411 -1.2938
 1477SOL     OW 5370   2.670   3.979   0.735  0.1926 -0.1294  0.1354
 1477SOL    HW1 5371   2.642   4.064   0.768  1.9623  0.6939 -0.3454
 1477SOL    HW2 5372   2.614   3.962   0.659 -0.0885  0.6659  0.1639
 1478SOL     OW 5373   0.668   2.012   6.949  0.5483  0.1979 -0.5059
 1478SOL    HW1 5374   0.663   2.106   6.930  0.0840  0.4506  0.7569
 1478SOL    HW2 5375   0.759   1.988   6.930  1.3906  1.4868  1.5380
 1479SOL     OW 5376   3.095   5.499   3.555  0.5565  0.3513  0.6636
 1479SOL    HW1 5377   3.141   5.552   3.621 -1.4113 -0.0651  2.4912
 1479SOL    HW2 5378   3.005   5.531   3.558  0.0399 -0.9090 -0.5744
 1480SOL     OW 5379   3.832   2.964   6.979 -0.4059 -0.3467  0.4324
 1480SOL    HW1 5380   3.804   3.038   6.925  0.3924 -0.8912 -0.7818
 1480SOL    HW2 5381   3.754   2.909   6.988 -0.4400 -0.4860 -0.5949
 1481SOL     OW 5382   1.695   0.132   7.164  0.1158  0.3850  0.6386
 1481SOL    HW1 5383   1.711   0.194   7.236  2.3245  1.8660 -0.9895
 1481SOL    HW2 5384   1.777   0.084   7.155  0.1792  0.7977 -1.3868
 1482SOL     OW 5385   6.300   0.153   0.807  0.7304  0.0952  0.1799
 1482SOL    HW1 5386   6.261   0.220   0.751 -1.6490 -1.3270  0.0098
 1482SOL    HW2 5387   6.391   0.148   0.778 -0.1907 -0.0044 -3.0765
 1483SOL     OW 5388   5.592   4.940   4.007 -0.4923  0.2244 -0.0562
 1483SOL    HW1 5389   5.672   4.948   3.955  1.2468  1.5561  2.5803
 1483SOL    HW2 5390   5.613   4.875   4.074 -1.8269  0.1862  0.3515
 1484SOL     OW 5391   3.827   3.986   3.813  0.6718  0.0606  0.6164
 1484SOL    HW1 5392   3.828   3.892   3.793  0.7088  0.0212  0.8000
 1484SOL    HW2 5393   3.773   3.994   3.891 -0.9319  0.4189 -0.4815
 1485SOL     OW 5394   0.333   1.433   0.121  0.5933  0.4328 -0.2316
 1485SOL    HW1 5395   0.365   1.347   0.095  1.3424  0.1707  1.4143
 1485SOL    HW2 5396   0.384   1.494   0.070  0.0548 -0.0753 -1.4188
 1486SOL     OW 5397   5.288   2.273   4.353  0.4837 -0.0639 -0.2963
 1486SOL    HW1 5398   5.379   2.267   4.382  0.2686 -0.7028  0.2719
 1486SOL    HW2 5399   5.240   2.306   4.429  0.6382  2.9952 -1.4189
 1487SOL     OW 5400   5.751   6.828   0.778 -0.3247  0.3194  0.2535
 1487SOL    HW1 5401   5.829   6.787   0.813 -0.8150  0.2113  1.2650
 1487SOL    HW2 5402   5.678   6.774   0.810 -0.8254  0.5269 -0.5023
 1488SOL     OW 5403   5.116   5.852   1.501 -0.0348  0.4857 -0.0069
 1488SOL    HW1 5404   5.184   5.824   1.440  1.4978 -0.5338  2.0400
 1488SOL    HW2 5405   5.040   5.799   1.478  0.5794 -0.0620 -0.8549
 1489SOL     OW 5406   5.817   3.757   2.130  0.2740  0.8298  0.1825
 1489SOL    HW1 5407   5.742   3.709   2.163  0.5160  0.4286  0.1574
 1489SOL    HW2 5408   5.800   3.849   2.152  0.0528  0.6659  0.6866
 1490SOL     OW 5409   6.417   3.966   4.004 -0.0976  0.1858  0.4909
 1490SOL    HW1 5410   6.366   3.977   3.924  1.7005  0.1298 -0.7213
 1490SOL    HW2 5411   6.363   4.004   4.073 -1.5929  0.4319 -0.7799
 1491SOL     OW 5412   2.113   1.695   0.697  0.6971 -0.2399 -0.4480
 1491SOL    HW1 5413   2.090   1.787   0.714 -2.7596 -1.0435  0.0167
 1491SOL    HW2 5414   2.155   1.665   0.777 -0.7057  0.2651  0.5170
 1492SOL     OW 5415   4.323   5.321   7.420 -0.6447 -0.0804 -0.0785
 1492SOL    HW1 5416   4.386   5.249   7.430 -0.0176  0.5058  0.2245
 1492SOL    HW2 5417   4.283   5.330   7.506 -1.6907 -0.9321 -0.4498
 1493SOL     OW 5418   0.915   3.992   2.285 -0.1065 -0.0804  0.3576
 1493SOL    HW1 5419   0.958   4.073   2.261  1.3333 -0.7694  0.5286
 1493SOL    HW2 5420   0.970   3.923   2.248 -0.9882 -1.0031  0.7039
 1494SOL     OW 5421   2.499   6.722   2.332  0.1513  0.0062  0.6013
 1494SOL    HW1 5422   2.536   6.671   2.260 -2.0882 -0.9331  0.0299
 1494SOL    HW2 5423   2.520   6.672   2.410  0.9221  0.0092  0.4000
 1495SOL     OW 5424   6.484   0.775   2.181  0.3082  0.0399  0.0561
 1495SOL    HW1 5425   6.446   0.693   2.211  0.8598 -0.4063 -0.4497
 1495SOL    HW2 5426   6.438   0.842   2.231 -1.2448 -0.4679 -0.6336
 1496SOL     OW 5427   3.843   3.964   5.312 -0.4124  0.4069 -0.0283
 1496SOL    HW1 5428   3.780   3.999   5.250 -1.7735  0.8545  1.5508
 1496SOL    HW2 5429   3.791   3.938   5.388  1.2903  0.8648  1.3609
 1497SOL     OW 5430   3.462   6.913   0.374 -0.1780 -0.2513 -0.1298
 1497SOL    HW1 5431   3.544   6.961   0.369 -0.5167  0.5123  1.1076
 1497SOL    HW2 5432   3.445   6.904   0.468 -1.7476  0.0572 -0.3515
 1498SOL     OW 5433   0.309   7.159   7.012  0.2351 -0.0815  0.3871
 1498SOL    HW1 5434   0.362   7.091   6.969  0.4400  0.5234 -0.3473
 1498SOL    HW2 5435   0.371   7.229   7.031 -0.1844  0.3913  0.0505
 1499SOL     OW 5436   2.917   0.727   4.692  0.3800 -0.3637 -0.5482
 1499SOL    HW1 5437   2.921   0.647   4.745 -0.1071 -0.3379 -0.4661
 1499SOL    HW2 5438   2.836   0.717   4.642 -1.2027  1.3430  1.4878
 1500SOL     OW 5439   5.284   6.085   1.595 -0.3174 -0.6162  0.1141
 1500SOL    HW1 5440   5.196   6.047   1.591 -0.7041  0.2936 -0.3215
 1500SOL    HW2 5441   5.298   6.122   1.508  1.5234 -2.9341 -0.6866
 1501SOL     OW 5442   4.327   3.478   2.176  0.2355  0.2423  0.0114
 1501SOL    HW1 5443   4.408   3.526   2.156 -0.9711  2.4966  0.1163
 1501SOL    HW2 5444   4.269   3.545   2.211 -1.7316 -1.2925 -0.1767
 1502SOL     OW 5445   2.856   1.807   5.455  0.0894 -0.0338  0.2753
 1502SOL    HW1 5446   2.881   1.878   5.514  0.3623 -0.0541  0.1831
 1502SOL    HW2 5447   2.938   1.763   5.432 -0.1053 -0.5575  0.5567
 1503SOL     OW 5448   2.365   0.822   0.760  0.0416 -0.3945 -0.7071
 1503SOL    HW1 5449   2.420   0.744   0.752 -0.4540 -0.6044 -2.7417
 1503SOL    HW2 5450   2.293   0.806   0.699 -1.3750  0.6161  0.6318
 1504SOL     OW 5451   5.487   5.193   0.084  0.8037 -0.2300  0.0849
 1504SOL    HW1 5452   5.574   5.202   0.044  0.4497  1.9653 -0.3370
 1504SOL    HW2 5453   5.429   5.173   0.011  0.4152  2.1567 -0.3546
 1505SOL     OW 5454   6.349   3.585   5.037  0.3311 -0.3320 -0.2471
 1505SOL    HW1 5455   6.421   3.526   5.058  0.6042 -0.3935 -1.3044
 1505SOL    HW2 5456   6.387   3.673   5.042 -0.0841 -0.2159  1.3630
 1506SOL     OW 5457   0.876   5.074   6.887 -0.1138  0.2948 -0.4585
 1506SOL    HW1 5458   0.877   5.002   6.951  0.5772 -0.9475 -1.8078
 1506SOL    HW2 5459   0.959   5.119   6.900  0.7456 -0.9313 -1.5026
 1507SOL     OW 5460   7.408   6.007   2.187 -0.9172  0.0267  0.2484
 1507SOL    HW1 5461   7.343   5.938   2.199 -1.5858 -0.3188 -3.9919
 1507SOL    HW2 5462   7.492   5.961   2.197 -1.2926 -0.4147  1.6311
 1508SOL     OW 5463   2.677   2.450   7.376 -0.3941  0.2786  0.4155
 1508SOL    HW1 5464   2.665   2.358   7.397 -0.7032  0.1324 -0.3627
 1508SOL    HW2 5465   2.721   2.450   7.290 -2.3175  0.8268 -0.6327
 1509SOL     OW 5466   2.733   4.559   2.508 -0.0632 -0.4743 -0.3692
 1509SOL    HW1 5467   2.814   4.597   2.541 -0.8663  1.3178 -0.3353
 1509SOL    HW2 5468   2.761   4.492   2.446  1.4969 -2.6921  2.4297
 1510SOL     OW 5469   5.634   2.073   4.797  0.1438 -0.5921  0.1104
 1510SOL    HW1 5470   5.563   2.033   4.847 -0.5744  1.1389  0.5671
 1510SOL    HW2 5471   5.685   2.122   4.861  0.9983 -0.7531 -0.4193
 1511SOL     OW 5472   3.368   3.085   6.621 -0.1377  0.2839  0.0521
 1511SOL    HW1 5473   3.372   3.140   6.543 -0.6161  1.2062  0.6598
 1511SOL    HW2 5474   3.308   3.014   6.598  0.0401  0.3271 -0.5475
 1512SOL     OW 5475   6.689   6.925   5.061 -0.0308  0.5924 -0.1021
 1512SOL    HW1 5476   6.615   6.875   5.026  0.2535  0.8619 -1.1322
 1512SOL    HW2 5477   6.654   6.969   5.138 -0.5539 -0.4036  0.2446
 1513SOL     OW 5478   2.172   3.029   3.614  0.2315  0.0098  0.3377
 1513SOL    HW1 5479   2.078   3.024   3.628  0.2541 -0.3142  0.3825
 1513SOL    HW2 5480   2.183   3.019   3.520  0.2263 -0.0091  0.3393
 1514SOL     OW 5481   0.812   4.247   3.844  0.2892  0.3531 -0.1251
 1514SOL    HW1 5482   0.897   4.287   3.861  0.5325 -0.7145  1.3834
 1514SOL    HW2 5483   0.797   4.261   3.750  1.3092  2.0671 -0.0673
 1515SOL     OW 5484   4.046   3.131   5.375 -0.3778  0.2651 -0.6855
 1515SOL    HW1 5485   4.023   3.199   5.438  1.2206  0.4694 -0.2697
 1515SOL    HW2 5486   4.141   3.124   5.380 -0.3706 -1.0282 -1.7412
 1516SOL     OW 5487   3.837   1.949   4.335 -0.2114  0.0441 -0.4894
 1516SOL    HW1 5488   3.876   1.983   4.416  1.9459 -0.0182 -1.4396
 1516SOL    HW2 5489   3.746   1.977   4.339  0.2191  1.3709  1.2364
 1517SOL     OW 5490   5.623   5.694   5.016  0.3819 -0.0687  0.0370
 1517SOL    HW1 5491   5.618   5.603   5.046 -0.4825 -0.7303 -1.9561
 1517SOL    HW2 5492   5.570   5.742   5.079  2.5021 -0.5112  2.3460
 1518SOL     OW 5493   1.995   3.967   0.860  0.5921  0.5475 -0.5186
 1518SOL    HW1 5494   2.040   4.029   0.917 -0.8336 -0.3012  1.6717
 1518SOL    HW2 5495   1.969   3.895   0.919 -1.6494 -0.0172 -2.0566
 1519SOL     OW 5496   6.102   1.690   4.050 -0.5371 -0.4822  1.0986
 1519SOL    HW1 5497   6.195   1.711   4.036 -0.2722 -0.9145  2.1332
 1519SOL    HW2 5498   6.071   1.758   4.110 -0.6721 -0.8173  1.4112
 1520SOL     OW 5499   0.298   5.445   2.929  0.3045  0.3863  0.0954
 1520SOL    HW1 5500   0.361   5.516   2.923  0.8497 -0.1408 -0.7275
 1520SOL    HW2 5501   0.212   5.487   2.919  0.5823  0.9919  0.2603
 1521SOL     OW 5502   1.424   6.342   6.129  0.0319  0.2955  0.2527
 1521SOL    HW1 5503   1.371   6.301   6.060 -1.0521 -1.3117  1.9394
 1521SOL    HW2 5504   1.480   6.404   6.082 -3.1455  1.9780 -1.7017
 1522SOL     OW 5505   0.655   1.655   2.253  0.0322  0.5109  0.7511
 1522SOL    HW1 5506   0.577   1.615   2.214  0.6664 -0.9994  0.9274
 1522SOL    HW2 5507   0.653   1.746   2.224 -0.8537  0.0621 -0.7286
 1523SOL     OW 5508   5.861   6.276   7.135 -0.6022 -0.1078  0.0571
 1523SOL    HW1 5509   5.786   6.217   7.135 -0.5573 -0.1775  0.7700
 1523SOL    HW2 5510   5.934   6.221   7.107 -0.8566  0.0326 -0.9282
 1524SOL     OW 5511   3.827   4.928   0.741 -0.7135  0.1572 -0.8050
 1524SOL    HW1 5512   3.847   4.984   0.665 -2.1351  1.9086  0.0375
 1524SOL    HW2 5513   3.731   4.925   0.743 -0.8076  1.7663  1.9794
 1525SOL     OW 5514   4.910   1.844   6.137 -0.1989 -0.0970  0.1402
 1525SOL    HW1 5515   4.958   1.761   6.142 -1.0152 -0.6630 -1.0727
 1525SOL    HW2 5516   4.873   1.845   6.049 -1.7485  0.7077  0.7727
 1526SOL     OW 5517   2.275   5.006   5.366 -0.4075  0.1763  0.4941
 1526SOL    HW1 5518   2.356   5.046   5.398  0.3727  0.4175 -1.6074
 1526SOL    HW2 5519   2.289   4.995   5.272 -1.6085 -2.6562  0.5389
 1527SOL     OW 5520   3.892   4.094   6.220 -0.5371  0.2355 -0.4967
 1527SOL    HW1 5521   3.871   4.043   6.298 -0.7631 -1.1055 -1.3803
 1527SOL    HW2 5522   3.939   4.170   6.252 -1.4523  0.2050  1.0197
 1528SOL     OW 5523   2.098   4.230   7.397  0.1904 -0.2038  0.0114
 1528SOL    HW1 5524   2.078   4.137   7.411  0.8866 -0.2051  1.1275
 1528SOL    HW2 5525   2.152   4.231   7.319  1.1186 -0.8872  0.6147
 1529SOL     OW 5526   6.142   1.134   6.667 -0.3938  0.2198  0.3248
 1529SOL    HW1 5527   6.182   1.062   6.716 -0.9387 -0.8008 -0.6853
 1529SOL    HW2 5528   6.147   1.209   6.726  2.0134 -0.1260  0.6388
 1530SOL     OW 5529   2.787   3.287   1.022  0.0704  0.1684  0.1798
 1530SOL    HW1 5530   2.823   3.342   1.092 -0.2728  0.2390  0.3031
 1530SOL    HW2 5531   2.723   3.342   0.979  0.7042  0.3269 -0.5796
 1531SOL     OW 5532   1.897   2.826   4.888 -0.6243 -0.5823  0.6879
 1531SOL    HW1 5533   1.877   2.894   4.824 -0.0099 -0.5035  0.5731
 1531SOL    HW2 5534   1.918   2.873   4.968 -1.3377 -0.6791  0.9356
 1532SOL     OW 5535   3.267   6.481   2.498 -0.1384 -0.2157  0.4051
 1532SOL    HW1 5536   3.311   6.533   2.431  3.2480  1.8161  3.8624
 1532SOL    HW2 5537   3.290   6.391   2.476  0.1154  0.2788 -1.6063
 1533SOL     OW 5538   5.778   7.107   5.257 -0.0643 -0.2863  0.3747
 1533SOL    HW1 5539   5.700   7.060   5.227 -0.2200  1.2800 -1.9822
 1533SOL    HW2 5540   5.749   7.198   5.265  1.7016  0.5423 -1.6669
 1534SOL     OW 5541   0.110   5.474   1.378  0.4643  0.0232 -0.4078
 1534SOL    HW1 5542   0.168   5.530   1.326  2.6838 -3.1421 -1.6720
 1534SOL    HW2 5543   0.026   5.478   1.332  0.4125  2.4680 -0.2451
 1535SOL     OW 5544   1.356   2.415   5.385  0.0448 -0.4198 -0.3369
 1535SOL    HW1 5545   1.430   2.471   5.363 -0.0472 -0.7737 -1.6310
 1535SOL    HW2 5546   1.378   2.378   5.470  1.0704 -0.0364 -0.4275
 1536SOL     OW 5547   6.078   3.879   3.599 -0.0775  0.5583 -0.1063
 1536SOL    HW1 5548   6.065   3.785   3.589 -0.1011  0.5431  0.0547
 1536SOL    HW2 5549   6.007   3.920   3.550  0.2803  0.5018 -0.6821
 1537SOL     OW 5550   3.570   3.078   3.641 -0.4484  0.3534 -0.3343
 1537SOL    HW1 5551   3.579   3.172   3.659 -1.3628  0.4942 -0.5589
 1537SOL    HW2 5552   3.660   3.047   3.631 -0.0657  0.9342  1.0889
 1538SOL     OW 5553   0.579   1.127   5.414  0.2186 -0.1433  0.9729
 1538SOL    HW1 5554   0.559   1.220   5.428  0.8366  0.0234  0.7897
 1538SOL    HW2 5555   0.594   1.121   5.319 -0.1952 -0.5062  0.9305
 1539SOL     OW 5556   6.172   5.806   5.850 -0.0020  0.6541  0.5727
 1539SOL    HW1 5557   6.143   5.885   5.804 -2.2984 -0.9470 -0.9752
 1539SOL    HW2 5558   6.267   5.809   5.846 -0.0487  1.8685 -2.1764
 1540SOL     OW 5559   4.414   3.606   0.747  0.3040  0.2185 -0.5019
 1540SOL    HW1 5560   4.450   3.566   0.826  1.1579  0.8477 -0.5615
 1540SOL    HW2 5561   4.425   3.539   0.679  0.5832  0.0888 -0.3301
 1541SOL     OW 5562   7.328   5.583   2.673  0.2135 -0.1532 -0.1812
 1541SOL    HW1 5563   7.242   5.611   2.642 -1.3797 -1.6514  2.5023
 1541SOL    HW2 5564   7.323   5.487   2.677  2.1706 -0.3129 -0.3009
 1542SOL     OW 5565   4.976   2.308   5.825  0.0474 -0.1349  0.1597
 1542SOL    HW1 5566   5.071   2.302   5.822 -0.0384 -1.7017 -0.5151
 1542SOL    HW2 5567   4.957   2.334   5.915  1.0691 -1.9528  0.9602
 1543SOL     OW 5568   1.908   3.694   2.294  0.1083 -0.1377 -0.6684
 1543SOL    HW1 5569   1.824   3.680   2.251  0.7462  1.7670 -2.7387
 1543SOL    HW2 5570   1.940   3.606   2.315 -0.8899 -1.0959 -2.9048
 1544SOL     OW 5571   2.165   0.557   1.474  0.0090  0.6172  0.2356
 1544SOL    HW1 5572   2.091   0.604   1.434 -1.3636 -1.1540  0.5839
 1544SOL    HW2 5573   2.129   0.472   1.499  1.8183  0.2358  1.7588
 1545SOL     OW 5574   2.740   3.411   2.864  0.5394 -0.5039  0.0229
 1545SOL    HW1 5575   2.701   3.324   2.870 -1.8920  0.5877  2.0338
 1545SOL    HW2 5576   2.719   3.440   2.776  0.4013 -1.5339 -0.3032
 1546SOL     OW 5577   2.883   0.671   1.154  0.0296 -0.3664 -0.0069
 1546SOL    HW1 5578   2.837   0.639   1.077 -1.8551  0.2403  0.8166
 1546SOL    HW2 5579   2.875   0.601   1.219 -0.2324 -0.0458  0.3165
 1547SOL     OW 5580   0.493   5.219   3.474 -0.2903  0.3603  0.4252
 1547SOL    HW1 5581   0.548   5.280   3.524  1.0720  0.3658 -1.0188
 1547SOL    HW2 5582   0.475   5.265   3.392 -0.4176 -0.6343 -0.1162
 1548SOL     OW 5583   2.327   2.132   1.210 -0.0348 -0.1346 -0.4822
 1548SOL    HW1 5584   2.363   2.168   1.129 -0.5853 -0.2138 -0.7712
 1548SOL    HW2 5585   2.293   2.208   1.257  0.4976 -0.0617 -0.2161
 1549SOL     OW 5586   2.222   6.401   5.428 -0.6632  0.2462 -0.3239
 1549SOL    HW1 5587   2.195   6.486   5.462  0.0693  0.2688  0.2316
 1549SOL    HW2 5588   2.263   6.358   5.503  2.1601  0.7995 -1.4511
 1550SOL     OW 5589   3.202   1.291   1.040  0.0368  0.5192  0.3381
 1550SOL    HW1 5590   3.251   1.228   0.985  1.1827 -0.9965  2.9072
 1550SOL    HW2 5591   3.270   1.339   1.087 -0.8467 -0.6090  2.9085
 1551SOL     OW 5592   0.355   7.429   2.899 -0.1585  0.3128  0.1452
 1551SOL    HW1 5593   0.269   7.401   2.866 -0.0992  0.4213 -0.1060
 1551SOL    HW2 5594   0.340   7.450   2.991 -0.3598  0.1443  0.1511
 1552SOL     OW 5595   1.018   3.025   4.962 -0.5435 -0.3045 -0.5817
 1552SOL    HW1 5596   1.076   2.984   5.026 -0.4782  1.7382  0.7522
 1552SOL    HW2 5597   1.075   3.048   4.889  0.3918  1.6115  0.6788
 1553SOL     OW 5598   6.922   1.857   2.373  0.0367 -0.5933 -0.1249
 1553SOL    HW1 5599   6.892   1.915   2.303  0.1077 -0.1005  0.2538
 1553SOL    HW2 5600   6.845   1.803   2.393 -1.1852  1.7121  1.9306
 1554SOL     OW 5601   1.004   0.053   4.284 -0.7438  0.2558  0.1745
 1554SOL    HW1 5602   0.982   0.106   4.360  0.6120  1.5771 -0.3168
 1554SOL    HW2 5603   0.980   0.106   4.209  1.6582  0.7370 -0.3422
 1555SOL     OW 5604   4.336   4.304   4.789  0.5056 -0.2488 -0.4824
 1555SOL    HW1 5605   4.266   4.362   4.819 -0.1382  0.2424 -2.7806
 1555SOL    HW2 5606   4.310   4.217   4.821  1.4135  0.5492  2.8768
 1556SOL     OW 5607   0.641   3.503   0.186  0.2354  0.3263 -0.3205
 1556SOL    HW1 5608   0.717   3.538   0.140 -0.4835 -0.5703 -2.2913
 1556SOL    HW2 5609   0.677   3.453   0.259  1.4566  1.1094 -0.3607
 1557SOL     OW 5610   1.967   0.424   4.270  0.7325  0.1010  0.5777
 1557SOL    HW1 5611   2.044   0.368   4.262  2.0253  1.6018  1.7172
 1557SOL    HW2 5612   1.934   0.407   4.359  1.6424  1.6525  1.2650
 1558SOL     OW 5613   0.572   0.770   5.110 -0.1488  0.0603  0.7121
 1558SOL    HW1 5614   0.616   0.705   5.164  1.0774  0.4140  0.1685
 1558SOL    HW2 5615   0.638   0.836   5.092 -1.1082  0.9935  0.4714
 1559SOL     OW 5616   1.416   3.911   0.727 -0.1383  0.1928 -0.0971
 1559SOL    HW1 5617   1.343   3.887   0.783  0.0217  1.3000  0.6315
 1559SOL    HW2 5618   1.487   3.933   0.787  1.3275 -2.2739 -0.7946
 1560SOL     OW 5619   5.115   4.721   5.470 -0.0523  0.1155 -0.8945
 1560SOL    HW1 5620   5.040   4.662   5.468 -0.9533  1.1600  0.6046
 1560SOL    HW2 5621   5.184   4.670   5.513  0.1950 -0.8853 -2.3709
 1561SOL     OW 5622   4.458   0.514   5.781  0.7101  0.3767  0.4028
 1561SOL    HW1 5623   4.370   0.485   5.759  1.8598 -1.4259 -2.4427
 1561SOL    HW2 5624   4.473   0.480   5.869 -0.6347 -1.4487 -0.0071
 1562SOL     OW 5625   6.699   3.519   3.661  0.0220  0.1491 -0.2234
 1562SOL    HW1 5626   6.712   3.462   3.736 -0.9463  0.9279  0.5844
 1562SOL    HW2 5627   6.653   3.595   3.697  0.5631  1.0710 -1.4008
 1563SOL     OW 5628   3.183   2.271   2.381  0.3173 -0.2107  0.2242
 1563SOL    HW1 5629   3.222   2.251   2.465  1.3404  0.4865 -0.0739
 1563SOL    HW2 5630   3.117   2.202   2.368 -0.7653  0.3898  2.1491
 1564SOL     OW 5631   2.053   1.751   2.596 -0.2904 -0.1703 -0.0343
 1564SOL    HW1 5632   2.015   1.748   2.684  0.7835  0.9399  0.4927
 1564SOL    HW2 5633   2.134   1.800   2.606 -0.4693  0.5524 -1.7649
 1565SOL     OW 5634   0.012   5.609   5.134  0.5377  0.3563 -0.1883
 1565SOL    HW1 5635   0.077   5.547   5.100  0.7068  0.3458  0.1439
 1565SOL    HW2 5636  -0.004   5.580   5.224  0.6252  0.7995 -0.0255
 1566SOL     OW 5637   0.337   0.044   3.954 -0.0996 -0.3983  0.2002
 1566SOL    HW1 5638   0.331   0.133   3.921 -1.9001 -1.2401 -2.0271
 1566SOL    HW2 5639   0.407   0.004   3.904 -1.2320 -0.9936 -0.9839
 1567SOL     OW 5640   3.613   6.269   7.418  0.2614  0.2463 -0.1165
 1567SOL    HW1 5641   3.624   6.362   7.439  2.1533  0.1266 -0.4730
 1567SOL    HW2 5642   3.693   6.244   7.372 -0.0381 -1.6605  0.2972
 1568SOL     OW 5643   6.677   0.369   0.087  0.3583 -0.0407 -0.2667
 1568SOL    HW1 5644   6.617   0.317   0.033 -0.0353 -0.7807  0.8394
 1568SOL    HW2 5645   6.761   0.362   0.042 -0.2007  0.3738 -1.4276
 1569SOL     OW 5646   5.664   6.932   6.534 -0.0350 -0.0454  0.1617
 1569SOL    HW1 5647   5.685   6.858   6.478  0.4801  0.3158 -0.1221
 1569SOL    HW2 5648   5.611   6.894   6.604 -1.1622 -0.3983 -0.8608
 1570SOL     OW 5649   1.634   3.164   4.802  0.7446 -0.4335  0.3601
 1570SOL    HW1 5650   1.558   3.116   4.835  0.6134 -0.1240  0.5145
 1570SOL    HW2 5651   1.673   3.202   4.880  1.3756 -1.0395  0.3473
 1571SOL     OW 5652   7.006   7.329   2.651 -0.1177 -0.2208  0.2575
 1571SOL    HW1 5653   6.955   7.364   2.578 -0.5097 -1.0077  0.1429
 1571SOL    HW2 5654   6.971   7.375   2.728  0.7963  1.1482 -0.1086
 1572SOL     OW 5655   7.279   5.007   2.537 -0.8765 -0.0811  0.2504
 1572SOL    HW1 5656   7.280   4.972   2.626 -1.6148 -1.6353 -0.3010
 1572SOL    HW2 5657   7.186   5.013   2.515 -0.7008 -0.1955 -0.5722
 1573SOL     OW 5658   1.534   0.723   0.122 -0.2191  0.0443 -0.0343
 1573SOL    HW1 5659   1.533   0.627   0.113 -0.6221  0.1570 -1.3928
 1573SOL    HW2 5660   1.600   0.739   0.190 -1.8740 -1.3073  2.0262
 1574SOL     OW 5661   4.398   6.699   6.478  0.0952  0.1810  0.0667
 1574SOL    HW1 5662   4.318   6.728   6.433 -0.0077  1.3554  0.9590
 1574SOL    HW2 5663   4.440   6.779   6.507  2.0671 -0.3700 -1.0999
 1575SOL     OW 5664   4.557   1.361   0.156 -0.1154  0.3195  0.0883
 1575SOL    HW1 5665   4.541   1.272   0.124 -1.4641  0.0745  1.3283
 1575SOL    HW2 5666   4.486   1.377   0.218  1.2492  1.5186  1.4102
 1576SOL     OW 5667   2.035   2.319   4.935  0.3924 -0.3303 -0.1946
 1576SOL    HW1 5668   2.128   2.294   4.939  0.2245 -0.8743  1.7165
 1576SOL    HW2 5669   2.036   2.411   4.910  1.5942  0.1424  1.3750
 1577SOL     OW 5670   1.973   2.661   2.985 -0.5744 -0.2257 -0.6230
 1577SOL    HW1 5671   1.980   2.577   2.940 -1.4605 -0.5981 -0.0845
 1577SOL    HW2 5672   2.062   2.698   2.981  0.1422 -1.7638  0.2372
 1578SOL     OW 5673   0.144   1.297   6.599  0.6529 -0.4965  0.0392
 1578SOL    HW1 5674   0.207   1.246   6.547 -0.0386 -1.4066  0.0776
 1578SOL    HW2 5675   0.162   1.388   6.575  0.7242 -0.8576 -1.3906
 1579SOL     OW 5676   0.387   1.452   4.907  0.6815 -0.2746  0.0714
 1579SOL    HW1 5677   0.321   1.497   4.854  2.2284  1.4830 -0.4773
 1579SOL    HW2 5678   0.375   1.359   4.886  0.7257  0.2708 -2.8498
 1580SOL     OW 5679   6.608   0.145   5.428 -0.4748 -0.4670 -0.1181
 1580SOL    HW1 5680   6.524   0.172   5.389  0.6121  1.0674 -1.5542
 1580SOL    HW2 5681   6.599   0.169   5.520 -2.0992 -1.6054  0.0662
 1581SOL     OW 5682   1.279   4.524   1.772  0.6804  0.2791  0.3561
 1581SOL    HW1 5683   1.226   4.574   1.834  0.6751  0.4922  0.1813
 1581SOL    HW2 5684   1.268   4.570   1.689  0.3804 -0.2238  0.1084
 1582SOL     OW 5685   0.024   4.237   5.366  0.0660 -0.3091 -0.1908
 1582SOL    HW1 5686  -0.032   4.167   5.399 -1.0490  0.1393 -1.0704
 1582SOL    HW2 5687   0.111   4.197   5.359 -0.6606 -1.8193 -1.3004
 1583SOL     OW 5688   3.614   5.800   6.338 -0.0156 -0.1605 -0.0314
 1583SOL    HW1 5689   3.570   5.741   6.278 -0.9618  1.0418 -0.5543
 1583SOL    HW2 5690   3.580   5.777   6.424  0.1200 -0.8002 -0.1449
 1584SOL     OW 5691   5.738   4.826   3.327 -0.5607  0.2215 -0.1916
 1584SOL    HW1 5692   5.716   4.919   3.334  0.0921  0.3535  0.1412
 1584SOL    HW2 5693   5.737   4.794   3.418  1.5686  0.4625 -0.0341
 1585SOL     OW 5694   4.740   0.270   4.955  0.3736 -0.3070 -0.0205
 1585SOL    HW1 5695   4.662   0.219   4.933 -0.2678 -0.4702  2.4112
 1585SOL    HW2 5696   4.808   0.205   4.968 -0.2996 -0.5997  2.4958
 1586SOL     OW 5697   0.711   1.987   0.556  0.3827  0.4277 -0.7052
 1586SOL    HW1 5698   0.621   1.958   0.572  0.1668  0.7600 -1.3291
 1586SOL    HW2 5699   0.724   2.058   0.619  0.8695 -0.8712  0.7468
 1587SOL     OW 5700   1.954   0.834   1.075 -0.4222  0.4045 -0.1277
 1587SOL    HW1 5701   2.040   0.828   1.119 -0.3223 -0.7014 -0.4396
 1587SOL    HW2 5702   1.961   0.910   1.019  0.3889  0.2937 -0.1909
 1588SOL     OW 5703   5.730   0.715   4.209 -0.0307  0.5434  0.5592
 1588SOL    HW1 5704   5.821   0.684   4.208 -0.8350 -2.0845  0.1365
 1588SOL    HW2 5705   5.679   0.639   4.182 -2.2292  2.5253 -1.3369
 1589SOL     OW 5706   1.798   7.087   2.639 -0.6575 -0.5152 -0.1792
 1589SOL    HW1 5707   1.768   7.102   2.729  0.1272 -0.8766  0.1487
 1589SOL    HW2 5708   1.737   7.023   2.604 -1.0068 -0.3273  0.0733
 1590SOL     OW 5709   2.009   5.519   2.379 -0.3054  0.4583  0.3016
 1590SOL    HW1 5710   2.096   5.487   2.401 -0.5781 -1.9760 -1.7820
 1590SOL    HW2 5711   1.949   5.449   2.406 -1.5822  1.7260  0.9378
 1591SOL     OW 5712   4.556   0.228   3.485  0.0504  0.1854  0.0188
 1591SOL    HW1 5713   4.500   0.171   3.432  0.9726 -0.7123 -0.0232
 1591SOL    HW2 5714   4.500   0.302   3.507 -1.2454 -0.8133  0.2150
 1592SOL     OW 5715   4.733   1.762   4.651 -0.0654  0.4687  0.1308
 1592SOL    HW1 5716   4.731   1.728   4.740 -1.4578  0.2195  0.0247
 1592SOL    HW2 5717   4.822   1.798   4.641  0.3094 -0.0490  1.3922
 1593SOL     OW 5718   5.539   1.321   3.618  0.5717 -0.4033  0.8525
 1593SOL    HW1 5719   5.503   1.325   3.707 -0.4432 -2.0677  0.5530
 1593SOL    HW2 5720   5.633   1.312   3.631  0.3404 -1.8607  1.8328
 1594SOL     OW 5721   6.409   1.741   6.821 -0.2885  0.1721 -0.3361
 1594SOL    HW1 5722   6.473   1.762   6.753 -1.2126  0.3774 -1.1723
 1594SOL    HW2 5723   6.324   1.746   6.776 -0.8276 -1.2879  0.4323
 1595SOL     OW 5724   4.174   3.483   2.604 -0.6090  0.8649  0.1192
 1595SOL    HW1 5725   4.261   3.457   2.633 -0.5194  1.1079  0.0728
 1595SOL    HW2 5726   4.149   3.554   2.662 -0.4570  1.3040 -0.3467
 1596SOL     OW 5727   3.113   0.272   5.492  0.5528  0.1010  0.1549
 1596SOL    HW1 5728   3.040   0.268   5.553 -0.7530  1.6985 -1.1931
 1596SOL    HW2 5729   3.165   0.347   5.520  2.1387 -1.4232  1.5118
 1597SOL     OW 5730   1.222   3.008   2.768  0.0163  0.9167 -0.4887
 1597SOL    HW1 5731   1.166   3.005   2.845 -1.3993 -1.2985 -1.4989
 1597SOL    HW2 5732   1.163   3.033   2.696  0.9415  1.3085 -1.1355
 1598SOL     OW 5733   1.669   0.932   0.732  0.0466 -0.1219 -0.1357
 1598SOL    HW1 5734   1.621   0.854   0.704  0.1071  0.3738 -1.6945
 1598SOL    HW2 5735   1.634   0.951   0.819 -0.5279 -1.4196 -0.0515
 1599SOL     OW 5736   2.150   1.031   6.578 -0.1258 -0.0937 -0.0328
 1599SOL    HW1 5737   2.122   1.114   6.617  1.0567 -0.1655  1.0396
 1599SOL    HW2 5738   2.240   1.048   6.549  0.1304 -0.9915  0.2176
 1600SOL     OW 5739   2.122   3.326   3.845  0.0546 -0.4033 -0.2627
 1600SOL    HW1 5740   2.135   3.395   3.779 -1.1495  0.5333  0.4467
 1600SOL    HW2 5741   2.072   3.259   3.799 -2.8202  1.2509  0.2310
 1601SOL     OW 5742   1.700   3.494   3.097  0.6306 -0.1580 -0.3346
 1601SOL    HW1 5743   1.637   3.449   3.041  0.0175  1.3750 -0.9301
 1601SOL    HW2 5744   1.722   3.574   3.049 -0.9687  1.9166  2.1467
 1602SOL     OW 5745   3.279   1.095   0.544 -0.2702 -0.3302 -0.2771
 1602SOL    HW1 5746   3.362   1.106   0.497 -1.2518  0.8135 -1.8652
 1602SOL    HW2 5747   3.238   1.182   0.541 -1.4864 -0.8488  0.5419
 1603SOL     OW 5748   4.290   2.797   7.264  0.8106  0.1798 -0.0450
 1603SOL    HW1 5749   4.249   2.827   7.345  0.6854 -1.9193  0.7155
 1603SOL    HW2 5750   4.218   2.795   7.200  0.3973 -0.3862  0.4269
 1604SOL     OW 5751   5.458   4.164   5.594  0.5467 -0.4371  0.4345
 1604SOL    HW1 5752   5.399   4.109   5.543  0.5356 -1.2812  1.3279
 1604SOL    HW2 5753   5.491   4.107   5.663  1.5759  0.3216  0.5969
 1605SOL     OW 5754   2.643   5.792   1.927 -0.6592  0.4385 -0.8235
 1605SOL    HW1 5755   2.633   5.845   2.006 -1.7046 -0.1441 -0.5462
 1605SOL    HW2 5756   2.633   5.854   1.855 -0.5116  0.8356 -0.5044
 1606SOL     OW 5757   4.611   5.755   3.511  0.5094  0.5464  0.4701
 1606SOL    HW1 5758   4.565   5.813   3.570  1.0202  0.1177  1.3116
 1606SOL    HW2 5759   4.608   5.799   3.426 -0.2496  1.1589  0.8066
 1607SOL     OW 5760   6.273   3.657   5.430  0.1281  0.2171  1.1590
 1607SOL    HW1 5761   6.326   3.599   5.375 -2.5786 -0.3643 -1.0603
 1607SOL    HW2 5762   6.324   3.737   5.436  0.6900  0.2447 -2.1677
 1608SOL     OW 5763   0.727   3.556   5.902  0.1210  0.3542  0.1470
 1608SOL    HW1 5764   0.772   3.512   5.829 -1.0642 -0.3049 -0.2128
 1608SOL    HW2 5765   0.640   3.574   5.868  0.1876  1.8879  0.7286
 1609SOL     OW 5766   0.742   0.812   4.250  0.2842 -0.6613  0.1635
 1609SOL    HW1 5767   0.798   0.747   4.293  0.2593 -1.1628 -0.5416
 1609SOL    HW2 5768   0.800   0.887   4.234  0.8076 -1.2319 -0.6884
 1610SOL     OW 5769   3.866   2.704   6.552 -0.1583  0.0946 -0.4648
 1610SOL    HW1 5770   3.784   2.754   6.554 -0.2533  0.1171 -2.6171
 1610SOL    HW2 5771   3.933   2.770   6.532  0.1644 -0.1514 -0.1973
 1611SOL     OW 5772   1.767   6.747   4.114  0.5767  0.7486  0.2287
 1611SOL    HW1 5773   1.681   6.781   4.139  0.8361  0.8646  0.9871
 1611SOL    HW2 5774   1.747   6.664   4.070 -0.1181  2.1801 -2.3787
 1612SOL     OW 5775   3.192   1.011   6.109  0.0018 -0.0859  0.3715
 1612SOL    HW1 5776   3.177   0.961   6.029  1.3363 -1.2987  0.8489
 1612SOL    HW2 5777   3.104   1.036   6.138 -0.5455 -0.2213 -1.0796
 1613SOL     OW 5778   5.440   3.625   3.268 -0.1211  0.6971  0.2469
 1613SOL    HW1 5779   5.437   3.541   3.313  2.0204  0.7037  0.5049
 1613SOL    HW2 5780   5.506   3.613   3.199 -1.2981  1.5545 -1.0974
 1614SOL     OW 5781   5.490   3.042   3.284 -0.5264  0.4789  0.6030
 1614SOL    HW1 5782   5.538   2.960   3.273 -1.0918 -0.3518  3.4572
 1614SOL    HW2 5783   5.554   3.111   3.265  0.2425 -0.5930 -0.8434
 1615SOL     OW 5784   2.251   4.665   5.853  0.3721  0.2328 -0.1700
 1615SOL    HW1 5785   2.300   4.612   5.789  0.5727 -1.1358  1.0751
 1615SOL    HW2 5786   2.253   4.753   5.816  0.3352 -0.5225 -2.1487
 1616SOL     OW 5787   6.152   4.277   4.288  0.1770  0.0119  0.8757
 1616SOL    HW1 5788   6.079   4.317   4.336 -0.5562  2.0500 -1.7063
 1616SOL    HW2 5789   6.176   4.342   4.221  1.1986 -2.5337 -1.4365
 1617SOL     OW 5790   4.956   0.828   6.349 -0.2111  0.3779 -0.0501
 1617SOL    HW1 5791   4.865   0.855   6.335  0.0028 -0.0025 -2.6920
 1617SOL    HW2 5792   5.001   0.853   6.268  1.8413 -0.3022  0.8174
 1618SOL     OW 5793   0.916   7.310   3.513 -0.0156  0.5396  0.2347
 1618SOL    HW1 5794   0.922   7.403   3.534 -1.0534  0.8978 -0.9335
 1618SOL    HW2 5795   0.832   7.301   3.467  1.2066 -0.4938 -1.9854
 1619SOL     OW 5796   4.323   1.236   3.057 -0.0710 -0.1745 -0.2381
 1619SOL    HW1 5797   4.379   1.229   2.979  0.4778  1.4541 -0.0177
 1619SOL    HW2 5798   4.361   1.174   3.120  0.8968  0.2120 -0.4334
 1620SOL     OW 5799   6.365   4.185   5.793 -0.4749 -0.3642 -0.2764
 1620SOL    HW1 5800   6.361   4.170   5.888 -0.5612 -1.1018 -0.3902
 1620SOL    HW2 5801   6.458   4.197   5.774 -0.2327 -2.0948 -0.3589
 1621SOL     OW 5802   5.443   1.558   6.992 -0.4653 -0.6201 -0.4203
 1621SOL    HW1 5803   5.538   1.567   6.982 -0.1590  0.9067  2.6345
 1621SOL    HW2 5804   5.427   1.464   6.991  1.1662 -0.9289 -0.3977
 1622SOL     OW 5805   2.465   3.895   3.985  0.1783 -0.0392  0.3908
 1622SOL    HW1 5806   2.410   3.837   4.038  0.7140  1.3644  2.6386
 1622SOL    HW2 5807   2.536   3.838   3.954 -1.3747 -1.4049 -0.8515
 1623SOL     OW 5808   6.091   1.954   2.489 -0.1309  0.3300 -0.2859
 1623SOL    HW1 5809   6.125   1.865   2.489 -0.0798  0.3224 -2.1955
 1623SOL    HW2 5810   6.169   2.010   2.482 -0.1987  0.5288  0.4151
 1624SOL     OW 5811   6.374   3.326   1.319  0.6127  0.5783  0.2311
 1624SOL    HW1 5812   6.395   3.384   1.246  1.1077 -0.9823 -0.9207
 1624SOL    HW2 5813   6.313   3.262   1.282  0.4605  0.0521  1.3349
 1625SOL     OW 5814   3.407   6.826   2.346  0.4135 -0.1000 -0.1638
 1625SOL    HW1 5815   3.399   6.863   2.434  0.6178  1.0398 -0.6127
 1625SOL    HW2 5816   3.494   6.854   2.316 -1.0036  2.6707 -2.1204
 1626SOL     OW 5817   0.832   4.975   5.045 -0.2947 -0.1813  0.1006
 1626SOL    HW1 5818   0.920   5.009   5.060 -0.3210 -0.5895  1.3075
 1626SOL    HW2 5819   0.811   5.001   4.956  1.2121 -0.4375 -0.3634
 1627SOL     OW 5820   6.718   5.650   0.245 -0.6585 -0.3718 -0.4480
 1627SOL    HW1 5821   6.800   5.676   0.202 -0.3254  0.7388  0.7655
 1627SOL    HW2 5822   6.650   5.694   0.194 -0.4808 -0.9892 -1.2363
 1628SOL     OW 5823   5.490   0.910   5.947  0.0019 -0.0141  0.2723
 1628SOL    HW1 5824   5.495   0.852   5.871 -1.0908 -1.3632  1.1780
 1628SOL    HW2 5825   5.574   0.897   5.993 -0.2499 -0.9319  0.4865
 1629SOL     OW 5826   3.367   5.581   0.001 -0.5931  0.3216 -0.0629
 1629SOL    HW1 5827   3.378   5.495   0.042 -2.4773  0.3202  0.5538
 1629SOL    HW2 5828   3.429   5.581  -0.072  1.6201 -0.3670  1.6997
 1630SOL     OW 5829   0.096   3.085   1.526 -0.3123  0.1034  0.0566
 1630SOL    HW1 5830   0.126   2.994   1.529  0.4435  0.3418 -0.1200
 1630SOL    HW2 5831   0.110   3.118   1.615  1.4703  0.6848 -0.4171
 1631SOL     OW 5832   2.450   0.001   1.361  0.0729  0.4143 -0.7113
 1631SOL    HW1 5833   2.488  -0.039   1.283  0.4317 -0.4201 -0.1253
 1631SOL    HW2 5834   2.519  -0.007   1.428 -0.1516  1.3005 -0.3681
 1632SOL     OW 5835   0.124   5.821   3.650  1.0296  0.4217  0.2324
 1632SOL    HW1 5836   0.134   5.726   3.640 -0.9553  0.2994 -1.3885
 1632SOL    HW2 5837   0.067   5.831   3.727 -0.8504  0.0969 -1.0591
 1633SOL     OW 5838   1.728   2.538   0.910 -0.2930 -0.4940 -0.7560
 1633SOL    HW1 5839   1.780   2.544   0.990 -0.7904 -0.6685 -0.4101
 1633SOL    HW2 5840   1.700   2.627   0.892 -0.6806 -0.5368 -0.3878
 1634SOL     OW 5841   3.923   6.586   2.519 -0.2005 -0.1108  0.3474
 1634SOL    HW1 5842   3.861   6.649   2.556 -0.0392  0.0083  0.4171
 1634SOL    HW2 5843   3.893   6.573   2.429 -0.1818  0.1324  0.3063
 1635SOL     OW 5844   2.073   2.459   6.685  0.4760 -0.3688 -0.2359
 1635SOL    HW1 5845   2.008   2.459   6.756 -0.8299  3.9683 -1.1405
 1635SOL    HW2 5846   2.141   2.519   6.714  2.1374 -1.7771 -1.0101
 1636SOL     OW 5847   1.736   1.578   0.457 -0.3461 -0.3101  0.1828
 1636SOL    HW1 5848   1.822   1.545   0.432  0.2033 -0.3490  1.9638
 1636SOL    HW2 5849   1.753   1.667   0.489 -1.3804  0.6717 -1.8162
 1637SOL     OW 5850   2.712   6.200   7.342 -0.3725 -0.3976  0.2567
 1637SOL    HW1 5851   2.716   6.293   7.365 -1.7536 -0.3888  0.5578
 1637SOL    HW2 5852   2.714   6.200   7.246  0.8665 -0.1454  0.2742
 1638SOL     OW 5853   2.046   1.930   6.706 -0.0974 -0.5667 -0.2856
 1638SOL    HW1 5854   2.092   1.974   6.777 -1.0490  1.2840 -0.7568
 1638SOL    HW2 5855   2.033   1.840   6.737  0.5181 -0.1097  1.3764
 1639SOL     OW 5856   1.808   6.717   5.902 -0.9940  0.0327  0.1537
 1639SOL    HW1 5857   1.820   6.809   5.879  0.5992 -0.2983 -0.5551
 1639SOL    HW2 5858   1.882   6.673   5.859 -0.8533 -1.3640  1.7220
 1640SOL     OW 5859   7.063   5.049   4.415  0.1286  0.5652  0.0581
 1640SOL    HW1 5860   6.969   5.065   4.416  0.3493  2.1551  1.1944
 1640SOL    HW2 5861   7.100   5.128   4.375  1.0526  0.7825  1.2666
 1641SOL     OW 5862   7.218   0.164   2.685 -0.1988 -0.1074 -0.2983
 1641SOL    HW1 5863   7.183   0.173   2.773 -0.4693 -0.2585 -0.3858
 1641SOL    HW2 5864   7.153   0.206   2.629 -1.1464 -1.8961 -0.6367
 1642SOL     OW 5865   0.802   4.151   0.881 -0.7146 -0.1207 -0.2909
 1642SOL    HW1 5866   0.864   4.080   0.864  0.0391  0.4417  0.0874
 1642SOL    HW2 5867   0.716   4.109   0.877 -0.2231 -1.3860  1.4818
 1643SOL     OW 5868   1.780   7.132   4.830 -0.0291 -0.4960  0.4703
 1643SOL    HW1 5869   1.862   7.176   4.810  1.0878 -1.9920  1.4933
 1643SOL    HW2 5870   1.729   7.139   4.750  1.7982 -1.0083 -0.8126
 1644SOL     OW 5871   4.475   5.011   3.565 -0.0181 -0.0056  0.5545
 1644SOL    HW1 5872   4.395   5.060   3.579  0.1435 -0.2965  3.0369
 1644SOL    HW2 5873   4.543   5.064   3.607  1.0658  0.0818 -1.2234
 1645SOL     OW 5874   6.306   2.986   4.030  0.1619 -0.3800 -0.3570
 1645SOL    HW1 5875   6.400   2.991   4.015  0.1423 -1.8628 -1.1771
 1645SOL    HW2 5876   6.289   2.894   4.051 -1.0537 -0.0671  0.1401
 1646SOL     OW 5877   2.494   1.108   3.205 -0.1344  0.2145  0.3022
 1646SOL    HW1 5878   2.515   1.110   3.112  0.4087 -0.9810  0.3792
 1646SOL    HW2 5879   2.450   1.192   3.222 -1.1076  0.0561 -1.2287
 1647SOL     OW 5880   3.315   2.515   2.678 -0.1121 -0.3399 -0.2757
 1647SOL    HW1 5881   3.338   2.444   2.619 -0.2900  0.7653 -1.7177
 1647SOL    HW2 5882   3.243   2.561   2.635  0.1070  0.8294  0.5245
 1648SOL     OW 5883   2.121   2.806   6.473  0.4065 -0.3544 -0.5658
 1648SOL    HW1 5884   2.179   2.737   6.506  0.8578 -0.4334 -1.4825
 1648SOL    HW2 5885   2.092   2.853   6.551  2.1088 -0.0160 -0.0973
 1649SOL     OW 5886   1.383   6.797   2.171 -0.1374 -0.2561  0.5966
 1649SOL    HW1 5887   1.416   6.827   2.256 -0.4532 -0.1277  0.6758
 1649SOL    HW2 5888   1.307   6.742   2.193 -0.5496  0.2144  0.3783
 1650SOL     OW 5889   3.897   2.348   5.057  0.1630  0.2290 -0.1220
 1650SOL    HW1 5890   3.921   2.343   5.149 -1.1354  1.2184  0.3094
 1650SOL    HW2 5891   3.976   2.376   5.012  0.6054  0.4891  0.8056
 1651SOL     OW 5892   4.245   0.270   6.081 -0.5356  0.1064  0.3149
 1651SOL    HW1 5893   4.160   0.301   6.051 -0.0429  0.8853 -0.3494
 1651SOL    HW2 5894   4.248   0.295   6.173 -1.0615 -0.0017  0.3634
 1652SOL     OW 5895   5.322   6.028   6.371  0.5405  0.4212 -0.3784
 1652SOL    HW1 5896   5.384   5.956   6.382  0.5659  0.5056  0.0469
 1652SOL    HW2 5897   5.263   5.999   6.302 -2.2306 -1.9648  2.6890
 1653SOL     OW 5898   4.925   3.590   5.464 -0.2813 -0.0203  0.4724
 1653SOL    HW1 5899   4.877   3.508   5.448  0.4996 -0.3490 -0.2821
 1653SOL    HW2 5900   4.889   3.651   5.400 -0.1961 -0.0569  0.3892
 1654SOL     OW 5901   6.919   5.087   3.891 -0.0741  0.1206 -0.1488
 1654SOL    HW1 5902   6.924   5.183   3.885 -0.6714  0.1628 -0.0871
 1654SOL    HW2 5903   6.942   5.056   3.804 -0.3355  0.3428 -0.2975
 1655SOL     OW 5904   4.635   2.393   1.203 -0.9305  0.1391 -0.4798
 1655SOL    HW1 5905   4.637   2.394   1.107  0.6455 -2.5993 -0.5907
 1655SOL    HW2 5906   4.596   2.477   1.227 -1.8522  0.7189 -3.5041
 1656SOL     OW 5907   1.574   7.136   4.587 -0.3797 -1.0738  0.1867
 1656SOL    HW1 5908   1.569   7.041   4.596 -0.2329 -1.0185  0.8786
 1656SOL    HW2 5909   1.657   7.151   4.540 -1.3402 -1.3799 -1.7153
 1657SOL     OW 5910   5.792   4.841   3.855 -0.0939 -0.0210  0.1251
 1657SOL    HW1 5911   5.877   4.836   3.899 -0.2832  1.0092  0.6528
 1657SOL    HW2 5912   5.760   4.751   3.854  1.3418 -0.5516 -0.7958
 1658SOL     OW 5913   4.133   5.421   4.948 -0.1871  0.3737 -0.6403
 1658SOL    HW1 5914   4.152   5.342   4.897 -1.0399  0.1225 -0.5877
 1658SOL    HW2 5915   4.195   5.486   4.916  2.0857 -0.9007  0.8486
 1659SOL     OW 5916   2.233   2.985   5.909  0.0402  0.2449 -0.2727
 1659SOL    HW1 5917   2.149   3.003   5.950  1.1027 -0.8027  2.5842
 1659SOL    HW2 5918   2.211   2.935   5.830 -1.9829 -2.3759  1.7769
 1660SOL     OW 5919   1.500   5.163   0.752 -0.6903 -0.1029  0.1031
 1660SOL    HW1 5920   1.524   5.133   0.664 -0.4364  1.6128 -0.4493
 1660SOL    HW2 5921   1.450   5.090   0.789 -3.7215  0.2689 -2.7071
 1661SOL     OW 5922   6.519   4.991   2.633 -0.2405  0.5945  0.0515
 1661SOL    HW1 5923   6.508   5.086   2.632  1.3954  0.8833  2.3083
 1661SOL    HW2 5924   6.460   4.960   2.701 -0.1254  0.0904 -0.0669
 1662SOL     OW 5925   0.891   3.733   4.123  0.2417 -0.1949  0.3455
 1662SOL    HW1 5926   0.980   3.765   4.136  0.0530  0.7521 -0.5109
 1662SOL    HW2 5927   0.881   3.728   4.028 -0.2608 -1.3786  0.4387
 1663SOL     OW 5928   7.359   6.990   3.650  0.4024 -0.1500  0.1354
 1663SOL    HW1 5929   7.321   7.032   3.727  0.8603 -1.8377  1.3172
 1663SOL    HW2 5930   7.453   7.007   3.657  0.3730  0.3310 -0.4828
 1664SOL     OW 5931   6.196   3.261   3.534  0.0884 -0.2836 -0.7219
 1664SOL    HW1 5932   6.176   3.295   3.621 -0.1992  0.0115 -0.9012
 1664SOL    HW2 5933   6.247   3.331   3.493  0.5587 -0.5829 -0.6533
 1665SOL     OW 5934   5.506   4.382   1.659 -0.4979 -0.6393  0.2206
 1665SOL    HW1 5935   5.593   4.410   1.685  0.0419 -1.0028 -1.1194
 1665SOL    HW2 5936   5.474   4.330   1.732  0.0580  0.2004  1.0750
 1666SOL     OW 5937   1.082   4.219   2.950 -0.2736  0.1626  0.3352
 1666SOL    HW1 5938   1.011   4.167   2.913 -1.4075  1.3256  0.8049
 1666SOL    HW2 5939   1.048   4.308   2.952  1.7669  1.0628 -0.8883
 1667SOL     OW 5940   7.137   3.113   5.297 -0.4653 -0.3983 -0.2435
 1667SOL    HW1 5941   7.122   3.198   5.337  1.2710 -0.5650  0.8371
 1667SOL    HW2 5942   7.187   3.132   5.218 -1.0171 -0.3501 -0.5904
 1668SOL     OW 5943   0.870   7.191   5.011  0.2655 -0.2335 -0.6606
 1668SOL    HW1 5944   0.931   7.185   4.937  0.2550 -1.9671 -0.5733
 1668SOL    HW2 5945   0.920   7.235   5.080  0.1281  1.8303 -1.7904
 1669SOL     OW 5946   6.868   7.353   1.738 -0.7252  0.1783  0.1502
 1669SOL    HW1 5947   6.854   7.414   1.666 -0.0358  0.4078  0.2030
 1669SOL    HW2 5948   6.930   7.398   1.795  1.7379 -1.5326 -1.0256
 1670SOL     OW 5949   2.143   5.620   5.037  0.7665  0.0705 -0.2606
 1670SOL    HW1 5950   2.200   5.547   5.014 -0.9705 -1.1577 -0.8980
 1670SOL    HW2 5951   2.115   5.656   4.953 -1.8804 -1.4358 -0.1449
 1671SOL     OW 5952   0.270   7.338   3.358  0.1877  0.4736 -0.2667
 1671SOL    HW1 5953   0.316   7.260   3.329 -1.6006 -0.2477 -1.3085
 1671SOL    HW2 5954   0.255   7.324   3.452 -0.9523 -0.9061 -0.6316
 1672SOL     OW 5955   6.199   5.235   1.422 -0.3726  0.0376 -0.1423
 1672SOL    HW1 5956   6.124   5.200   1.470  0.2813 -2.5221 -0.8422
 1672SOL    HW2 5957   6.161   5.304   1.367 -2.0188 -0.4421  0.3215
 1673SOL     OW 5958   4.351   2.764   4.366 -0.3805  0.3104 -0.0965
 1673SOL    HW1 5959   4.363   2.688   4.423  0.7053  0.5941  0.0705
 1673SOL    HW2 5960   4.270   2.745   4.318 -0.8235 -0.3572  0.8607
 1674SOL     OW 5961   2.351   7.027   3.789  0.2103 -0.8310  0.1737
 1674SOL    HW1 5962   2.311   7.022   3.702  0.1720 -0.8387  0.1912
 1674SOL    HW2 5963   2.444   7.014   3.773  0.6080  1.9502 -0.1988
 1675SOL     OW 5964   7.094   0.990   2.614  0.1864 -0.6586 -0.2065
 1675SOL    HW1 5965   7.116   0.915   2.669  0.5061 -0.6692 -0.3440
 1675SOL    HW2 5966   7.049   0.952   2.538 -2.4896 -0.4477  1.1548
 1676SOL     OW 5967   5.354   0.580   6.414  0.0255  0.0128 -0.1688
 1676SOL    HW1 5968   5.362   0.644   6.485  1.9138  0.0221 -0.3570
 1676SOL    HW2 5969   5.386   0.626   6.336  0.5789 -0.8773 -0.4791
 1677SOL     OW 5970   3.462   5.598   4.801 -0.2807  0.3125  0.2938
 1677SOL    HW1 5971   3.401   5.553   4.859  1.0637  1.0714  2.3994
 1677SOL    HW2 5972   3.415   5.677   4.775 -0.9176 -0.0596  0.2645
 1678SOL     OW 5973   0.110   0.311   2.206  0.0599  0.4092 -0.5056
 1678SOL    HW1 5974   0.103   0.307   2.301 -0.0061 -0.9570 -0.5406
 1678SOL    HW2 5975   0.046   0.247   2.174  0.7266  0.1685 -1.4236
 1679SOL     OW 5976   5.563   1.863   1.951  0.1343  0.0002 -0.3486
 1679SOL    HW1 5977   5.504   1.788   1.959 -0.0346  0.2959  2.3852
 1679SOL    HW2 5978   5.607   1.851   1.867 -1.3702 -2.0300 -0.9231
 1680SOL     OW 5979   1.717   2.285   5.520  0.3602  0.3350  0.7449
 1680SOL    HW1 5980   1.662   2.340   5.463 -0.9219  0.4182  1.9971
 1680SOL    HW2 5981   1.766   2.347   5.574  1.8782  0.2630 -0.4906
 1681SOL     OW 5982   5.052   1.497   1.993 -0.3040  0.2842  0.3038
 1681SOL    HW1 5983   5.036   1.569   2.054  0.0436 -0.0703  0.8248
 1681SOL    HW2 5984   5.117   1.442   2.037 -0.8007 -0.5182  0.0614
 1682SOL     OW 5985   0.127   0.295   2.479 -0.5452 -0.0734 -0.3454
 1682SOL    HW1 5986   0.094   0.230   2.540 -2.0303  0.4679 -0.5380
 1682SOL    HW2 5987   0.125   0.378   2.528  4.7066 -0.4678  1.2026
 1683SOL     OW 5988   4.798   3.414   5.029  0.0909  0.5909  0.4561
 1683SOL    HW1 5989   4.732   3.451   5.087 -0.1562  1.2043 -0.2079
 1683SOL    HW2 5990   4.788   3.319   5.039 -0.8778  0.6765  0.3861
 1684SOL     OW 5991   5.789   1.578   3.634  0.0529  0.0509 -0.0645
 1684SOL    HW1 5992   5.777   1.665   3.597 -1.3386  0.3750  1.0371
 1684SOL    HW2 5993   5.708   1.562   3.683  1.2257 -0.9076  1.6605
 1685SOL     OW 5994   5.541   4.038   0.299 -0.4539 -0.4534  0.3817
 1685SOL    HW1 5995   5.613   4.041   0.362 -0.0573 -1.2939 -0.0172
 1685SOL    HW2 5996   5.500   3.953   0.313 -0.2477 -0.7322 -0.6073
 1686SOL     OW 5997   1.408   3.172   4.389 -0.6382  0.4300 -0.1014
 1686SOL    HW1 5998   1.318   3.161   4.421 -0.9655 -1.5226 -1.5208
 1686SOL    HW2 5999   1.419   3.267   4.382 -1.7276  0.7910  2.3499
 1687SOL     OW 6000   6.217   5.895   3.115  0.8258 -0.3929 -0.2503
 1687SOL    HW1 6001   6.207   5.871   3.207  0.7083 -0.9184 -0.3976
 1687SOL    HW2 6002   6.212   5.812   3.068  0.5476 -0.0925 -0.7562
 1688SOL     OW 6003   6.401   7.201   0.137  0.0259  0.0252 -0.9207
 1688SOL    HW1 6004   6.429   7.242   0.219 -0.1532  1.6856 -1.6520
 1688SOL    HW2 6005   6.346   7.128   0.164  0.2840  0.3173  0.4473
 1689SOL     OW 6006   4.488   0.091   1.915 -0.5471 -0.3814 -0.1421
 1689SOL    HW1 6007   4.469   0.174   1.871 -1.7098 -1.2602 -1.3898
 1689SOL    HW2 6008   4.442   0.096   1.998 -2.5073 -0.6185 -1.1575
 1690SOL     OW 6009   2.062   5.000   0.633 -0.0988 -0.1951  0.1035
 1690SOL    HW1 6010   2.105   4.950   0.563 -0.6179  0.0294 -0.3882
 1690SOL    HW2 6011   2.014   5.069   0.587 -1.1735 -0.5847  0.6062
 1691SOL     OW 6012   5.067   1.689   2.610 -0.3327 -0.2413 -0.5456
 1691SOL    HW1 6013   4.993   1.704   2.552  0.7745 -0.3903 -2.0707
 1691SOL    HW2 6014   5.106   1.608   2.578 -1.8490 -2.5372  2.8109
 1692SOL     OW 6015   7.010   1.093   1.271  0.2783 -0.7025 -0.8804
 1692SOL    HW1 6016   6.942   1.095   1.203  2.3353 -1.1974 -3.0544
 1692SOL    HW2 6017   7.043   1.004   1.269  1.0566 -0.4504  0.1198
 1693SOL     OW 6018   5.031   0.117   6.673  0.8787  0.2759  0.3675
 1693SOL    HW1 6019   4.951   0.149   6.714  1.4052  0.6724  1.0974
 1693SOL    HW2 6020   5.073   0.196   6.637  1.2705  0.1611  0.5672
 1694SOL     OW 6021   0.988   0.152   3.288  0.1005  0.7396  0.6720
 1694SOL    HW1 6022   1.030   0.121   3.368 -1.3817  0.3649  1.3424
 1694SOL    HW2 6023   0.998   0.247   3.290  2.3368  0.5713 -0.0452
 1695SOL     OW 6024   0.968   7.058   6.515 -0.3549 -0.4465 -0.8373
 1695SOL    HW1 6025   0.993   7.011   6.594 -1.3954 -1.3031 -1.0072
 1695SOL    HW2 6026   0.928   6.992   6.458 -0.5919  0.3634 -1.6424
 1696SOL     OW 6027   7.100   3.694   2.155  0.4855  0.1741 -0.0547
 1696SOL    HW1 6028   7.189   3.659   2.161  0.3966 -0.0677 -0.1420
 1696SOL    HW2 6029   7.045   3.624   2.191  0.3321  0.3250  0.0027
 1697SOL     OW 6030   1.100   4.606   5.522  0.2703  0.2061 -0.2178
 1697SOL    HW1 6031   1.086   4.524   5.568  0.9072  0.1928 -0.0496
 1697SOL    HW2 6032   1.023   4.659   5.544 -0.3927 -0.5220 -0.7301
 1698SOL     OW 6033   0.894   7.335   2.566 -0.0055 -0.0146 -0.2389
 1698SOL    HW1 6034   0.808   7.377   2.563  0.0258  0.0087 -1.3074
 1698SOL    HW2 6035   0.955   7.408   2.558  0.1416  0.0000  0.8115
 1699SOL     OW 6036   0.375   0.304   4.506  0.3230  0.3551 -0.5307
 1699SOL    HW1 6037   0.351   0.347   4.424  1.0114  1.4536 -0.1862
 1699SOL    HW2 6038   0.322   0.348   4.572  0.5890  0.2499 -0.2451
 1700SOL     OW 6039   6.053   4.021   0.404 -0.5132  0.6953  0.2230
 1700SOL    HW1 6040   6.139   4.057   0.387  0.5919 -1.4282  0.9440
 1700SOL    HW2 6041   6.004   4.036   0.323  0.8108  1.1131 -0.5346
 1701SOL     OW 6042   1.433   5.605   6.362  0.2940 -0.1901  0.0721
 1701SOL    HW1 6043   1.514   5.556   6.359  0.1039 -0.5656  0.7903
 1701SOL    HW2 6044   1.417   5.619   6.455 -1.3939 -1.6939  0.0662
 1702SOL     OW 6045   3.114   5.138   4.158  0.3798 -0.4195 -0.0293
 1702SOL    HW1 6046   3.050   5.069   4.171  3.4976 -3.3288  1.3605
 1702SOL    HW2 6047   3.125   5.144   4.063 -1.0774 -0.6564 -0.2257
 1703SOL     OW 6048   4.037   6.116   6.225  0.1024  0.4861 -0.0059
 1703SOL    HW1 6049   4.099   6.094   6.295  0.9432 -0.1933 -0.9289
 1703SOL    HW2 6050   4.039   6.212   6.222  0.0320  0.5284  0.9100
 1704SOL     OW 6051   4.467   1.113   3.269  0.4086  0.0463 -0.1317
 1704SOL    HW1 6052   4.560   1.126   3.250  0.2447  3.4227  0.7383
 1704SOL    HW2 6053   4.457   1.018   3.277  3.6999 -0.4417 -0.4653
 1705SOL     OW 6054   4.959   0.923   4.873  0.2004 -0.3267  0.1578
 1705SOL    HW1 6055   5.041   0.907   4.919 -0.1359 -0.8808  0.5866
 1705SOL    HW2 6056   4.893   0.929   4.943 -0.3090 -1.1196 -0.2331
 1706SOL     OW 6057   1.427   5.219   2.720  0.4679  0.6426  0.4318
 1706SOL    HW1 6058   1.334   5.236   2.730  0.0942 -1.0730  0.2146
 1706SOL    HW2 6059   1.437   5.126   2.741  1.3860 -0.4224 -3.7545
 1707SOL     OW 6060   4.235   0.383   2.864  0.7215 -0.2632 -0.0272
 1707SOL    HW1 6061   4.253   0.475   2.844 -0.1090  0.0321  0.5862
 1707SOL    HW2 6062   4.142   0.371   2.844  0.8084 -0.9634 -0.0489
 1708SOL     OW 6063   2.555   4.485   6.414  0.0559  0.2775  0.0359
 1708SOL    HW1 6064   2.559   4.390   6.415 -0.6173  0.2367 -0.5050
 1708SOL    HW2 6065   2.547   4.508   6.321  3.0085  1.0057 -0.1328
 1709SOL     OW 6066   3.584   0.798   4.940 -0.1269 -0.1809  0.2581
 1709SOL    HW1 6067   3.630   0.860   4.997 -0.0154 -0.3617  0.3675
 1709SOL    HW2 6068   3.653   0.742   4.904 -0.2484 -0.3823  0.3331
 1710SOL     OW 6069   5.612   2.190   6.196  0.1648 -0.0327  0.4095
 1710SOL    HW1 6070   5.681   2.241   6.238  0.1443  0.7445 -0.4788
 1710SOL    HW2 6071   5.555   2.164   6.269  1.4730 -0.8669  1.1828
 1711SOL     OW 6072   6.444   3.936   6.452  0.0688  0.5174 -0.4090
 1711SOL    HW1 6073   6.444   3.992   6.529  0.5510  1.0071 -0.7626
 1711SOL    HW2 6074   6.451   3.847   6.487 -1.2064  0.6271  0.1792
 1712SOL     OW 6075   1.785   2.933   1.559  0.8121 -0.1710  0.0009
 1712SOL    HW1 6076   1.729   2.931   1.482  0.5285 -1.4993  0.2112
 1712SOL    HW2 6077   1.725   2.924   1.633  1.0388  1.5420  0.4308
 1713SOL     OW 6078   1.574   2.388   5.778  0.1202  0.2629  0.4704
 1713SOL    HW1 6079   1.600   2.298   5.794 -1.7126 -0.3340  0.2808
 1713SOL    HW2 6080   1.543   2.420   5.863 -1.2178  0.0066  0.0938
 1714SOL     OW 6081   6.452   4.574   1.355 -0.1827 -0.1258 -0.4539
 1714SOL    HW1 6082   6.463   4.597   1.447  2.3026  0.4944 -0.8050
 1714SOL    HW2 6083   6.372   4.618   1.328  0.3543  1.7702  0.8332
 1715SOL     OW 6084   6.874   0.013   4.017 -0.5693  0.2848  0.5055
 1715SOL    HW1 6085   6.925  -0.025   4.089  0.5882  1.4024  0.3352
 1715SOL    HW2 6086   6.918   0.097   4.000 -1.5305  0.5582 -0.7322
 1716SOL     OW 6087   2.433   4.781   7.303  0.6571 -0.3490  0.3751
 1716SOL    HW1 6088   2.426   4.801   7.396  0.4189  1.8026 -0.0390
 1716SOL    HW2 6089   2.526   4.768   7.288  0.9025  0.9427  0.6524
 1717SOL     OW 6090   0.972   5.388   5.501  0.7185 -0.2948 -0.0699
 1717SOL    HW1 6091   1.010   5.413   5.585  0.9504  1.4556 -0.6349
 1717SOL    HW2 6092   0.880   5.416   5.507  0.9333  0.5768 -0.6571
 1718SOL     OW 6093   6.965   5.274   6.530 -0.3410 -0.4375  0.4064
 1718SOL    HW1 6094   7.023   5.309   6.463  0.7994 -1.8713  0.5852
 1718SOL    HW2 6095   6.913   5.349   6.559  0.7672  0.6925 -0.4297
 1719SOL     OW 6096   3.639   4.654   3.142 -0.0868 -0.2785 -0.2648
 1719SOL    HW1 6097   3.587   4.607   3.077  0.0963 -0.2448 -0.4363
 1719SOL    HW2 6098   3.578   4.670   3.214 -0.1192 -0.8906 -0.1506
 1720SOL     OW 6099   0.818   4.488   5.336  0.2281  0.3889  0.1484
 1720SOL    HW1 6100   0.778   4.402   5.321  1.3645 -0.7360  2.7764
 1720SOL    HW2 6101   0.913   4.471   5.336  0.4492  1.3009  2.0367
 1721SOL     OW 6102   6.791   0.755   0.848 -0.5890 -0.2608  0.2062
 1721SOL    HW1 6103   6.838   0.677   0.876  0.0167  0.3813  1.0224
 1721SOL    HW2 6104   6.700   0.728   0.842 -0.2647 -1.2682 -0.4461
 1722SOL     OW 6105   7.223   3.435   4.379 -0.2759  0.0826  0.2239
 1722SOL    HW1 6106   7.248   3.517   4.336 -0.8250  0.1281 -0.0179
 1722SOL    HW2 6107   7.141   3.410   4.337 -0.5083 -0.1930  0.8302
 1723SOL     OW 6108   5.754   4.590   2.345 -0.4076  0.0837 -0.5083
 1723SOL    HW1 6109   5.801   4.672   2.360 -0.2427  0.4624 -2.7571
 1723SOL    HW2 6110   5.790   4.529   2.410  0.8103  1.2831 -0.0189
 1724SOL     OW 6111   3.700   6.770   1.176  0.0156 -0.1878 -0.3035
 1724SOL    HW1 6112   3.611   6.772   1.211 -1.0196 -1.0876 -2.6539
 1724SOL    HW2 6113   3.720   6.862   1.158 -0.3662  0.0359  0.3861
 1725SOL     OW 6114   2.545   2.083   5.674  0.6539 -0.5593  0.3544
 1725SOL    HW1 6115   2.495   2.163   5.654  0.3195 -0.7904  0.2529
 1725SOL    HW2 6116   2.588   2.102   5.757  0.2779 -0.4066  0.5191
 1726SOL     OW 6117   5.479   0.484   1.270  0.2863  0.4566  0.2949
 1726SOL    HW1 6118   5.541   0.544   1.228 -1.0466  1.3490 -0.4764
 1726SOL    HW2 6119   5.403   0.485   1.213 -0.1943 -1.1559  0.8581
 1727SOL     OW 6120   6.113   6.354   4.962  0.1444  0.1795 -0.3768
 1727SOL    HW1 6121   6.068   6.413   4.901  1.7053  0.7874 -0.9695
 1727SOL    HW2 6122   6.102   6.267   4.924 -1.0827  0.2160 -0.1571
 1728SOL     OW 6123   4.050   7.109   0.801  0.0071  0.3856 -0.0590
 1728SOL    HW1 6124   4.044   7.146   0.713 -0.4012  1.3426  0.3512
 1728SOL    HW2 6125   4.110   7.036   0.792  0.2947  0.7234 -1.0542
 1729SOL     OW 6126   2.582   4.189   4.364  0.2493  0.1600  0.0200
 1729SOL    HW1 6127   2.591   4.184   4.459  0.6804  0.4118 -0.0025
 1729SOL    HW2 6128   2.672   4.186   4.331  0.0836 -0.3694 -0.4059
 1730SOL     OW 6129   1.379   7.164   0.628  0.0013 -0.1922 -0.2349
 1730SOL    HW1 6130   1.355   7.251   0.661 -0.8829 -0.9912  1.3404
 1730SOL    HW2 6131   1.361   7.168   0.534 -0.3733  1.2031 -0.1233
 1731SOL     OW 6132   7.361   1.536   2.634 -0.0640 -0.1820 -0.1482
 1731SOL    HW1 6133   7.404   1.603   2.688 -2.3220  2.1524 -1.0010
 1731SOL    HW2 6134   7.401   1.546   2.547  0.6328 -0.9991  0.0733
 1732SOL     OW 6135   4.444   1.849   0.672 -0.2898 -0.5736  0.1474
 1732SOL    HW1 6136   4.402   1.924   0.630 -0.5280 -0.6799  0.1909
 1732SOL    HW2 6137   4.538   1.863   0.659 -0.2753  0.1972  0.9314
 1733SOL     OW 6138   6.827   7.344   1.297  0.2608 -0.5797  0.2325
 1733SOL    HW1 6139   6.838   7.409   1.227  1.9164 -0.9146  0.1446
 1733SOL    HW2 6140   6.894   7.278   1.279  2.1400  0.3096  3.1866
 1734SOL     OW 6141   7.189   0.747   2.749  0.4610  0.1658 -0.0308
 1734SOL    HW1 6142   7.267   0.711   2.792  0.9404 -0.6325 -1.5172
 1734SOL    HW2 6143   7.134   0.776   2.822  1.1026 -1.4233  1.1597
 1735SOL     OW 6144   0.984   6.637   1.672  0.4097  0.2086 -0.3106
 1735SOL    HW1 6145   1.057   6.607   1.617  0.5986  2.5068 -1.4429
 1735SOL    HW2 6146   1.026   6.669   1.752  0.4767  0.1892 -0.3374
 1736SOL     OW 6147   0.670   3.338   4.146  0.5766 -0.0158 -0.5062
 1736SOL    HW1 6148   0.697   3.423   4.181 -0.9806  0.3893 -0.2066
 1736SOL    HW2 6149   0.701   3.337   4.056 -0.4419  1.3939 -0.8936
 1737SOL     OW 6150   5.670   7.280   2.950  0.8650  0.1400 -0.6009
 1737SOL    HW1 6151   5.668   7.370   2.919  1.4081  0.4844  0.3107
 1737SOL    HW2 6152   5.625   7.282   3.034  1.8761 -0.2010 -0.0297
 1738SOL     OW 6153   4.454   4.612   4.143  0.6515 -0.3861  0.2779
 1738SOL    HW1 6154   4.453   4.630   4.237 -1.8124 -3.2957  0.9791
 1738SOL    HW2 6155   4.379   4.661   4.108 -0.6587 -2.0897  0.5788
 1739SOL     OW 6156   3.468   7.181   7.248 -0.0340  0.1870  0.1958
 1739SOL    HW1 6157   3.494   7.271   7.265 -0.6467  0.1629  1.3389
 1739SOL    HW2 6158   3.388   7.169   7.299 -1.1503 -0.3662 -1.6180
 1740SOL     OW 6159   0.093   7.374   3.594  0.3150 -0.1704  0.7561
 1740SOL    HW1 6160   0.005   7.337   3.590  0.6859 -1.0872  0.9221
 1740SOL    HW2 6161   0.132   7.334   3.671  2.0760 -2.5208 -1.2158
 1741SOL     OW 6162   2.546   1.704   5.677  0.6475  0.0494  0.2002
 1741SOL    HW1 6163   2.612   1.642   5.644  0.5891  0.8923 -1.6360
 1741SOL    HW2 6164   2.550   1.778   5.617 -0.7540  0.9131  1.1009
 1742SOL     OW 6165   0.845   2.476   3.279 -0.1220  0.0232  0.1877
 1742SOL    HW1 6166   0.862   2.565   3.310  0.1180 -0.1223  0.4823
 1742SOL    HW2 6167   0.932   2.440   3.260 -0.2141 -0.1648  0.1189
 1743SOL     OW 6168   0.673   5.913   2.826  0.2507  0.3986 -0.1434
 1743SOL    HW1 6169   0.601   5.863   2.787  0.4708 -0.5330  0.6138
 1743SOL    HW2 6170   0.632   5.960   2.899  0.2810  0.4031 -0.1293
 1744SOL     OW 6171   6.361   0.183   2.917 -0.3457 -0.1362  0.5196
 1744SOL    HW1 6172   6.285   0.239   2.903 -1.7032 -2.0387 -0.1918
 1744SOL    HW2 6173   6.387   0.200   3.008 -1.0613  1.1853  0.5008
 1745SOL     OW 6174   6.586   4.421   3.245  0.2139  0.7318 -0.2837
 1745SOL    HW1 6175   6.579   4.351   3.179 -0.1401  1.4083 -0.9795
 1745SOL    HW2 6176   6.624   4.378   3.321 -2.3174 -0.8216  0.2129
 1746SOL     OW 6177   0.906   5.543   1.364  0.7176  0.8030  0.6384
 1746SOL    HW1 6178   0.925   5.457   1.326 -0.8036  0.0471  1.4840
 1746SOL    HW2 6179   0.979   5.597   1.338  2.5008 -1.1363  1.3068
 1747SOL     OW 6180   7.389   4.266   3.016  0.6386 -0.0256 -0.5847
 1747SOL    HW1 6181   7.349   4.201   3.074  0.2657  3.1158  3.1395
 1747SOL    HW2 6182   7.483   4.252   3.025  0.5505 -0.4093 -0.2483
 1748SOL     OW 6183   5.545   3.919   6.797  0.8227 -0.0002 -0.5265
 1748SOL    HW1 6184   5.554   3.889   6.706 -0.3943 -0.8577 -0.3838
 1748SOL    HW2 6185   5.468   3.873   6.830  1.9933 -0.7056  1.3554
 1749SOL     OW 6186   4.341   6.736   1.085  0.4456  0.4197  0.2771
 1749SOL    HW1 6187   4.391   6.709   1.008  0.9152 -0.1571  0.7750
 1749SOL    HW2 6188   4.336   6.831   1.077 -0.8285  0.2696 -1.2516
 1750SOL     OW 6189   5.301   3.328   2.401 -0.4153  0.3014  0.6153
 1750SOL    HW1 6190   5.390   3.359   2.420 -0.1877  0.3607 -0.4838
 1750SOL    HW2 6191   5.276   3.278   2.479  0.0517  1.4011  1.5036
 1751SOL     OW 6192   2.061   4.166   5.222  0.5683 -0.2108  0.1934
 1751SOL    HW1 6193   2.001   4.097   5.192  1.4048 -0.5050 -0.8612
 1751SOL    HW2 6194   2.004   4.233   5.260 -0.4534 -0.3782 -0.9911
 1752SOL     OW 6195   0.296   0.529   5.868 -0.2227  1.1532  0.2438
 1752SOL    HW1 6196   0.245   0.595   5.821 -0.7414  0.6818  0.1324
 1752SOL    HW2 6197   0.346   0.484   5.800 -1.9821 -0.4287 -0.0841
 1753SOL     OW 6198   4.482   1.066   6.088 -0.4499  0.5618 -0.2144
 1753SOL    HW1 6199   4.553   1.002   6.076 -0.9764 -0.2450  0.8506
 1753SOL    HW2 6200   4.507   1.140   6.032  0.6175 -0.2061 -0.7893
 1754SOL     OW 6201   5.532   4.989   4.773  0.0530 -0.9510  0.3388
 1754SOL    HW1 6202   5.588   5.054   4.817  0.2079  0.0902 -1.3354
 1754SOL    HW2 6203   5.586   4.910   4.769  2.0758  0.4113 -2.4921
 1755SOL     OW 6204   6.334   4.939   3.098 -0.0165 -0.3897 -0.5031
 1755SOL    HW1 6205   6.276   4.903   3.165  0.5785 -1.4242 -0.5192
 1755SOL    HW2 6206   6.389   5.002   3.145 -0.2714 -0.3674 -0.2308
 1756SOL     OW 6207   3.716   5.327   1.704 -0.0170  0.3541  0.0647
 1756SOL    HW1 6208   3.625   5.354   1.687  0.6410  2.0371 -1.0467
 1756SOL    HW2 6209   3.742   5.279   1.625 -0.5256 -2.0022  1.2123
 1757SOL     OW 6210   7.083   4.379   6.040  0.6069  0.4690 -0.1799
 1757SOL    HW1 6211   7.144   4.426   6.096 -0.8652  1.6141  0.5370
 1757SOL    HW2 6212   7.117   4.390   5.951  0.5791  2.5082  0.0257
 1758SOL     OW 6213   1.448   4.419   4.514  0.5436  0.1364  0.0856
 1758SOL    HW1 6214   1.424   4.425   4.607  0.9157  1.2540  0.1261
 1758SOL    HW2 6215   1.531   4.466   4.508 -0.4384  1.8291 -1.1266
 1759SOL     OW 6216   1.023   0.727   4.279  0.2779 -0.0220 -0.3002
 1759SOL    HW1 6217   0.993   0.817   4.290 -1.4570 -0.6632  0.7582
 1759SOL    HW2 6218   1.079   0.711   4.354 -1.2618 -0.4705  0.8163
 1760SOL     OW 6219   3.794   4.801   3.508 -0.3249 -0.7474  0.5990
 1760SOL    HW1 6220   3.776   4.770   3.597  0.3704 -0.7819  0.7343
 1760SOL    HW2 6221   3.812   4.721   3.459  1.6003 -0.5918  0.9768
 1761SOL     OW 6222   2.343   0.047   7.132 -0.5131  0.5930  0.0523
 1761SOL    HW1 6223   2.420   0.056   7.076 -0.1258 -0.0863  0.4660
 1761SOL    HW2 6224   2.325  -0.047   7.132 -1.2556  0.7328  0.0814
 1762SOL     OW 6225   6.008   0.894   5.483  0.2765  0.2887  0.4041
 1762SOL    HW1 6226   6.041   0.979   5.456 -0.0755 -0.1689 -1.7042
 1762SOL    HW2 6227   5.956   0.864   5.408  1.2086 -2.2114  0.6576
 1763SOL     OW 6228   7.121   5.298   4.767 -0.2541  0.3547  0.3765
 1763SOL    HW1 6229   7.046   5.357   4.779 -1.0212 -0.6606  0.7144
 1763SOL    HW2 6230   7.082   5.212   4.752  0.8447 -0.3016  1.1366
 1764SOL     OW 6231   6.456   6.073   7.201  0.3121  0.3696 -0.5746
 1764SOL    HW1 6232   6.423   6.110   7.119  1.2059  0.7703 -0.7602
 1764SOL    HW2 6233   6.391   6.007   7.225 -0.3483  0.7720 -1.2078
 1765SOL     OW 6234   4.077   3.709   5.629 -0.2905  0.1484  0.5112
 1765SOL    HW1 6235   4.054   3.652   5.702  0.2878  0.7226  1.1499
 1765SOL    HW2 6236   4.081   3.796   5.667 -1.4827  0.6929 -0.5227
 1766SOL     OW 6237   0.131   3.256   3.823  0.2439  0.0232  0.5012
 1766SOL    HW1 6238   0.081   3.330   3.788  0.2272  0.2643  1.0302
 1766SOL    HW2 6239   0.101   3.247   3.913  0.0994 -0.7616  0.3895
 1767SOL     OW 6240   5.960   2.998   6.538 -0.2957 -0.3089 -0.1804
 1767SOL    HW1 6241   5.995   3.083   6.512  1.3071 -1.2820 -1.3602
 1767SOL    HW2 6242   5.867   3.015   6.557 -0.0254  1.6681 -0.4404
 1768SOL     OW 6243   5.312   4.736   0.769 -0.4080  0.9193 -0.3357
 1768SOL    HW1 6244   5.220   4.716   0.784 -0.3897  1.1508  0.1129
 1768SOL    HW2 6245   5.313   4.783   0.685 -0.4718 -0.7300 -1.3037
 1769SOL     OW 6246   4.622   3.939   6.150  0.3456  0.3827  0.6503
 1769SOL    HW1 6247   4.682   3.883   6.200 -0.6077  0.7312  2.2517
 1769SOL    HW2 6248   4.535   3.915   6.181 -0.1490  2.0216  0.6156
 1770SOL     OW 6249   0.073   6.635   3.781  0.0840  0.4071  0.4471
 1770SOL    HW1 6250   0.011   6.641   3.709  1.6256 -0.2625 -1.0073
 1770SOL    HW2 6251   0.148   6.686   3.753  0.8725 -0.1740  1.4144
 1771SOL     OW 6252   6.544   6.648   6.582  0.3715  0.6562 -0.0204
 1771SOL    HW1 6253   6.589   6.578   6.534  0.2949  1.9778 -2.1875
 1771SOL    HW2 6254   6.494   6.602   6.649  1.0394 -1.2766 -0.7436
 1772SOL     OW 6255   4.672   5.357   0.601 -0.8996 -0.3192  0.3314
 1772SOL    HW1 6256   4.665   5.273   0.648  1.5717 -1.8148 -1.6946
 1772SOL    HW2 6257   4.702   5.419   0.668  0.1821 -1.7913  1.2710
 1773SOL     OW 6258   4.955   4.507   0.223 -0.3567  0.4913  0.0355
 1773SOL    HW1 6259   4.964   4.530   0.316 -1.5477  1.5793 -0.0934
 1773SOL    HW2 6260   4.915   4.584   0.183  0.0592  0.0021 -1.3801
 1774SOL     OW 6261   0.598   5.545   2.284  0.3807 -0.0742 -0.4651
 1774SOL    HW1 6262   0.558   5.499   2.210  0.2857 -0.8629  0.0703
 1774SOL    HW2 6263   0.683   5.503   2.295 -0.2019 -0.9532  0.8024
 1775SOL     OW 6264   5.310   3.309   3.266  0.2129  0.0663  0.6147
 1775SOL    HW1 6265   5.387   3.277   3.221  0.2581 -1.9276  2.0001
 1775SOL    HW2 6266   5.341   3.330   3.354 -0.4945  0.9699  0.6694
 1776SOL     OW 6267   1.340   6.500   0.070  0.6445  0.0305 -0.1619
 1776SOL    HW1 6268   1.336   6.526  -0.022  1.2370  0.5425 -0.0539
 1776SOL    HW2 6269   1.249   6.500   0.099  0.1228 -2.7121 -1.4183
 1777SOL     OW 6270   3.200   6.494   5.711  0.2726  0.4398  0.0172
 1777SOL    HW1 6271   3.214   6.423   5.648  0.2904 -1.9527  2.4806
 1777SOL    HW2 6272   3.226   6.573   5.665  3.4013 -1.4995 -1.9151
 1778SOL     OW 6273   6.999   4.635   6.308 -0.6292 -0.4606 -0.6060
 1778SOL    HW1 6274   6.964   4.559   6.354  0.0742 -0.5752 -0.2634
 1778SOL    HW2 6275   7.064   4.672   6.367  0.6345 -0.8877 -1.6720
 1779SOL     OW 6276   5.621   1.799   7.029 -0.1456  0.1107 -0.0612
 1779SOL    HW1 6277   5.537   1.793   7.074  0.2835  0.4861  0.8144
 1779SOL    HW2 6278   5.631   1.892   7.010  0.1604  0.0953  0.0220
 1780SOL     OW 6279   0.449   5.704   3.011 -0.5790 -0.3635 -0.0657
 1780SOL    HW1 6280   0.535   5.706   3.053  0.1712 -2.5747 -1.3012
 1780SOL    HW2 6281   0.465   5.739   2.923 -1.1587  0.0741 -0.0037
 1781SOL     OW 6282   1.331   2.242   2.904  0.1401  0.0063 -0.2090
 1781SOL    HW1 6283   1.269   2.216   2.972  0.5494  1.9179  0.9623
 1781SOL    HW2 6284   1.408   2.272   2.951  1.4989 -1.1097 -1.6167
 1782SOL     OW 6285   5.777   0.805   5.648 -0.2940  0.1862 -0.3770
 1782SOL    HW1 6286   5.845   0.766   5.703 -0.3792  1.0944  0.3951
 1782SOL    HW2 6287   5.815   0.805   5.560  0.8987  1.0470  0.1011
 1783SOL     OW 6288   6.788   3.860   6.051  0.6820 -0.2564 -0.2299
 1783SOL    HW1 6289   6.798   3.929   6.117  0.3931 -0.9437  0.5387
 1783SOL    HW2 6290   6.718   3.891   5.994 -0.4603 -0.5697  0.9697
 1784SOL     OW 6291   0.219   3.268   6.908 -0.1651 -1.0134  0.1740
 1784SOL    HW1 6292   0.150   3.234   6.965 -0.0003 -2.0013 -0.1920
 1784SOL    HW2 6293   0.216   3.212   6.830  0.7058 -0.7354 -0.0715
 1785SOL     OW 6294   5.032   2.744   2.835 -0.0120 -0.4027  0.5695
 1785SOL    HW1 6295   4.983   2.825   2.848 -1.3722 -1.3800  1.9464
 1785SOL    HW2 6296   5.042   2.707   2.923  0.6875 -1.6561 -0.0068
 1786SOL     OW 6297   6.691   2.466   1.295 -0.3613 -0.1370 -0.0189
 1786SOL    HW1 6298   6.684   2.506   1.381 -3.5362  2.2880 -1.1788
 1786SOL    HW2 6299   6.638   2.387   1.301 -0.6779  0.0914  0.2229
 1787SOL     OW 6300   5.418   6.200   0.421 -0.2323  0.0481 -0.0867
 1787SOL    HW1 6301   5.465   6.121   0.395  0.0660  0.3714 -0.5421
 1787SOL    HW2 6302   5.449   6.219   0.509  0.0219 -0.0950 -0.1451
 1788SOL     OW 6303   2.124   4.971   3.741  0.3331  0.7758  0.0989
 1788SOL    HW1 6304   2.216   4.966   3.715  0.1695 -0.9399 -0.2518
 1788SOL    HW2 6305   2.079   4.911   3.682 -1.0769  1.7970  0.0808
 1789SOL     OW 6306   4.532   0.290   3.859  0.1828 -0.0696 -0.1868
 1789SOL    HW1 6307   4.449   0.336   3.869  0.3709  0.4132 -0.8101
 1789SOL    HW2 6308   4.556   0.301   3.767  0.5643 -0.8471 -0.1963
 1790SOL     OW 6309   3.622   3.673   7.295  0.0977 -0.3510  0.4147
 1790SOL    HW1 6310   3.659   3.722   7.222 -0.4279 -0.2161  0.2351
 1790SOL    HW2 6311   3.535   3.710   7.308 -0.3029 -1.2089  0.2919
 1791SOL     OW 6312   0.806   3.605   5.238  0.0679 -0.3283 -0.4234
 1791SOL    HW1 6313   0.785   3.521   5.277 -2.9631  0.0227 -1.1092
 1791SOL    HW2 6314   0.848   3.654   5.309  1.6526 -2.2373  0.0581
 1792SOL     OW 6315   1.048   2.769   5.836 -0.2187 -0.0728 -0.0038
 1792SOL    HW1 6316   1.013   2.721   5.910  0.3436  0.0374  0.3356
 1792SOL    HW2 6317   1.003   2.732   5.760  1.7798 -2.7342 -0.0229
 1793SOL     OW 6318   6.216   0.362   3.744  0.5850  0.2981 -0.1407
 1793SOL    HW1 6319   6.138   0.349   3.689  1.0178  0.4954 -0.8163
 1793SOL    HW2 6320   6.191   0.327   3.829  0.7737 -2.6050 -1.1506
 1794SOL     OW 6321   1.441   0.795   3.992  0.3739 -0.1976 -0.2227
 1794SOL    HW1 6322   1.347   0.780   4.004  0.2054  0.1867 -1.0371
 1794SOL    HW2 6323   1.477   0.791   4.081 -0.7712  2.0237  0.4150
 1795SOL     OW 6324   5.103   7.313   5.578 -0.7861  0.3541 -0.2098
 1795SOL    HW1 6325   5.030   7.345   5.632  1.3008 -1.1434  3.9115
 1795SOL    HW2 6326   5.169   7.382   5.584  0.0288 -0.4611  0.4530
 1796SOL     OW 6327   5.161   1.664   3.561 -0.2229 -0.2009 -0.1788
 1796SOL    HW1 6328   5.112   1.582   3.557  0.0090 -0.4251  1.0512
 1796SOL    HW2 6329   5.205   1.669   3.477 -2.4066  0.0670 -1.3810
 1797SOL     OW 6330   0.882   2.749   3.196 -0.1824 -0.1454  0.3791
 1797SOL    HW1 6331   0.877   2.789   3.283 -1.3208 -0.1253  0.3169
 1797SOL    HW2 6332   0.800   2.773   3.154  0.6681  0.5108 -1.0003
 1798SOL     OW 6333   3.154   2.817   2.740 -0.3159 -0.0456  0.8846
 1798SOL    HW1 6334   3.152   2.745   2.676 -1.1578  0.8245 -0.1017
 1798SOL    HW2 6335   3.068   2.816   2.780 -0.8744  1.3177 -0.2058
 1799SOL     OW 6336   0.221   0.625   2.151 -0.2255  0.2795 -0.2075
 1799SOL    HW1 6337   0.158   0.623   2.223  2.7984  2.5767  2.8198
 1799SOL    HW2 6338   0.182   0.687   2.088 -1.7049  0.3914  0.7610
 1800SOL     OW 6339   0.327   5.771   7.139 -0.1276 -0.1512  0.8388
 1800SOL    HW1 6340   0.366   5.714   7.073  1.1580  0.4353  1.0590
 1800SOL    HW2 6341   0.291   5.710   7.204 -1.0195 -0.7265 -0.1569
 1801SOL     OW 6342   2.291   3.991   3.822  0.2001  0.1719 -0.1504
 1801SOL    HW1 6343   2.371   3.951   3.856 -0.9162 -1.4273  0.7346
 1801SOL    HW2 6344   2.286   4.076   3.866  0.1989 -0.7212  1.6732
 1802SOL     OW 6345   2.102   6.221   7.105  0.1432  0.3361  0.2056
 1802SOL    HW1 6346   2.025   6.185   7.061 -1.0295  2.6130  0.2401
 1802SOL    HW2 6347   2.095   6.188   7.194 -1.0835  0.8405  0.3288
 1803SOL     OW 6348   6.602   5.629   1.139 -0.5197  0.2726 -0.2369
 1803SOL    HW1 6349   6.593   5.631   1.044 -0.7430  0.3235 -0.2147
 1803SOL    HW2 6350   6.537   5.691   1.171 -2.2205 -1.5355  0.0608
 1804SOL     OW 6351   0.757   2.557   7.118 -0.0277 -0.5677 -0.3224
 1804SOL    HW1 6352   0.684   2.507   7.155 -0.1717  0.3735  0.7122
 1804SOL    HW2 6353   0.833   2.501   7.130 -0.1529 -0.4888  1.0055
 1805SOL     OW 6354   4.397   0.580   6.797  0.5642  0.4196  0.1924
 1805SOL    HW1 6355   4.444   0.659   6.770  0.5301  0.3308 -0.1307
 1805SOL    HW2 6356   4.370   0.598   6.888 -0.2320  1.1539 -0.1646
 1806SOL     OW 6357   0.855   5.615   5.264 -0.1767  0.3651 -0.0677
 1806SOL    HW1 6358   0.792   5.680   5.296 -0.9121 -0.8468  1.0367
 1806SOL    HW2 6359   0.887   5.571   5.343  1.4633  0.4039 -0.6776
 1807SOL     OW 6360   5.116   2.925   4.415 -0.5021  0.2620  0.1368
 1807SOL    HW1 6361   5.044   2.867   4.391 -0.1470  0.9701 -3.0936
 1807SOL    HW2 6362   5.080   2.981   4.484 -1.9772 -1.4399  0.8027
 1808SOL     OW 6363   7.056   4.770   2.229 -0.4464  0.2582  0.2972
 1808SOL    HW1 6364   7.025   4.752   2.141 -2.1649  0.3912  0.8332
 1808SOL    HW2 6365   7.066   4.684   2.269 -0.4338  0.2191  0.2097
 1809SOL     OW 6366   0.475   0.520   3.526  0.5056 -0.1372 -0.2871
 1809SOL    HW1 6367   0.507   0.565   3.447  0.3764  0.1238 -0.1906
 1809SOL    HW2 6368   0.459   0.431   3.497 -1.0276  0.3238 -0.9510
 1810SOL     OW 6369   0.830   4.153   5.563  0.4060  0.0953  0.2946
 1810SOL    HW1 6370   0.917   4.124   5.536  0.1870  0.1987 -0.5388
 1810SOL    HW2 6371   0.832   4.149   5.659  0.3288 -2.8773  0.2748
 1811SOL     OW 6372   1.310   0.537   1.713 -0.6821  0.2405 -0.7222
 1811SOL    HW1 6373   1.343   0.487   1.787 -0.5495  1.1376 -0.1550
 1811SOL    HW2 6374   1.366   0.615   1.709 -2.1495  1.3927 -0.2515
 1812SOL     OW 6375   0.010   6.603   0.505 -0.0025  0.8560 -0.1974
 1812SOL    HW1 6376  -0.010   6.685   0.549  0.0988  0.8466 -0.1354
 1812SOL    HW2 6377  -0.076   6.566   0.485 -0.0904  0.1537  1.3013
 1813SOL     OW 6378   1.259   3.682   0.948 -0.6557  0.1871  0.1212
 1813SOL    HW1 6379   1.239   3.624   0.874  1.5828 -2.0279  1.1121
 1813SOL    HW2 6380   1.191   3.661   1.013 -0.6129 -0.4201 -0.0199
 1814SOL     OW 6381   0.207   0.838   2.869  0.7366 -0.1121 -1.3022
 1814SOL    HW1 6382   0.215   0.899   2.795 -0.7376  0.7681 -0.7806
 1814SOL    HW2 6383   0.113   0.832   2.884  1.0390  0.4243  1.0724
 1815SOL     OW 6384   1.483   3.156   1.058 -0.0878  0.4808 -0.6705
 1815SOL    HW1 6385   1.509   3.189   1.144  0.4019 -0.1827 -0.5561
 1815SOL    HW2 6386   1.395   3.121   1.072  0.4649 -0.7476 -0.1278
 1816SOL     OW 6387   5.719   6.696   2.899 -0.0485 -0.5382 -0.3233
 1816SOL    HW1 6388   5.735   6.642   2.977  1.0665  1.1197  0.6670
 1816SOL    HW2 6389   5.801   6.690   2.850 -0.0321  0.0023 -0.3592
 1817SOL     OW 6390   6.542   3.853   0.117 -0.6299 -0.4264  0.5653
 1817SOL    HW1 6391   6.608   3.868   0.185  0.3077 -0.9350 -0.2159
 1817SOL    HW2 6392   6.484   3.786   0.154 -1.1762  0.5575  1.5555
 1818SOL     OW 6393   7.080   3.362   6.151  0.3093 -0.2280  0.2412
 1818SOL    HW1 6394   7.106   3.448   6.183 -0.6577 -0.0981  0.7096
 1818SOL    HW2 6395   7.081   3.370   6.056 -1.5195  0.8541  0.2782
 1819SOL     OW 6396   4.633   5.505   3.612 -0.5152  0.0090  0.8730
 1819SOL    HW1 6397   4.729   5.502   3.605 -0.5155 -1.5201  1.0272
 1819SOL    HW2 6398   4.607   5.579   3.558  0.7571  0.4596  0.8335
 1820SOL     OW 6399   4.066   6.510   1.068  0.5391  0.2761  0.7790
 1820SOL    HW1 6400   4.093   6.455   1.141  1.8067  0.5550  0.5406
 1820SOL    HW2 6401   3.970   6.510   1.072  0.5873  0.2799  2.4292
 1821SOL     OW 6402   3.190   2.649   5.564  0.1280 -0.7920  0.1438
 1821SOL    HW1 6403   3.198   2.662   5.469  0.8016 -1.1616  0.1451
 1821SOL    HW2 6404   3.103   2.613   5.576  0.1117 -0.9253 -0.3558
 1822SOL     OW 6405   6.917   4.010   4.770 -0.1890 -0.0339  0.0351
 1822SOL    HW1 6406   6.980   4.066   4.723  0.9453 -0.3979  1.0620
 1822SOL    HW2 6407   6.878   3.956   4.702  1.7117 -0.8462 -0.4925
 1823SOL     OW 6408   6.421   0.298   2.647 -0.4028  0.2011  0.0646
 1823SOL    HW1 6409   6.478   0.375   2.642 -0.6420  0.3037 -1.2802
 1823SOL    HW2 6410   6.469   0.236   2.701  0.7275  0.5009 -0.5739
 1824SOL     OW 6411   7.411   4.021   3.861  0.2719  0.4454 -0.0710
 1824SOL    HW1 6412   7.392   3.972   3.940  1.9065 -1.4170 -0.7540
 1824SOL    HW2 6413   7.480   4.082   3.886 -0.2943  0.9634  0.2709
 1825SOL     OW 6414   4.693   3.221   3.026 -0.0586 -0.9657 -0.0270
 1825SOL    HW1 6415   4.693   3.158   3.098  1.7430 -0.4412  0.4822
 1825SOL    HW2 6416   4.785   3.237   3.008 -0.4787  0.1091 -1.4128
 1826SOL     OW 6417   5.829   1.059   6.139  0.3596 -0.4017 -0.0544
 1826SOL    HW1 6418   5.753   1.090   6.091  2.1323  1.6456 -1.7690
 1826SOL    HW2 6419   5.817   0.964   6.145 -1.8816 -0.2363 -0.9993
 1827SOL     OW 6420   1.774   1.084   6.295  0.1588 -0.7226 -0.5811
 1827SOL    HW1 6421   1.858   1.119   6.266  0.8440 -1.2956  0.5982
 1827SOL    HW2 6422   1.721   1.079   6.216  0.5750  1.4079 -1.0497
 1828SOL     OW 6423   2.179   4.109   7.004 -0.3727 -0.5612  0.3305
 1828SOL    HW1 6424   2.198   4.129   7.096 -1.8999 -0.1533  0.5783
 1828SOL    HW2 6425   2.197   4.190   6.957  1.4553 -1.0667  0.0646
 1829SOL     OW 6426   2.837   5.324   0.469 -0.0716 -0.6509  0.0852
 1829SOL    HW1 6427   2.831   5.417   0.448 -1.0660 -0.9409 -1.0105
 1829SOL    HW2 6428   2.906   5.290   0.412  0.4080 -0.5640  0.6046
 1830SOL     OW 6429   1.184   0.280   5.060 -0.1873  0.1238 -0.0831
 1830SOL    HW1 6430   1.153   0.292   4.971 -1.0108 -1.5060 -0.0497
 1830SOL    HW2 6431   1.239   0.202   5.057 -1.0347 -0.5431  1.0068
 1831SOL     OW 6432   4.000   7.429   0.469  0.2943 -0.0861 -0.3897
 1831SOL    HW1 6433   3.976   7.435   0.377  0.1381  1.7681 -0.2691
 1831SOL    HW2 6434   3.968   7.343   0.497 -0.9117 -0.0970 -1.7078
 1832SOL     OW 6435   3.176   5.494   2.323  0.2398 -0.2122 -0.4644
 1832SOL    HW1 6436   3.135   5.536   2.247 -0.1867 -0.0698 -0.1567
 1832SOL    HW2 6437   3.104   5.450   2.368  0.7880 -1.9470 -1.1913
 1833SOL     OW 6438   5.914   4.418   2.924  0.5713 -0.0347 -0.2366
 1833SOL    HW1 6439   5.832   4.449   2.964  1.0244 -0.2864  0.9053
 1833SOL    HW2 6440   5.947   4.352   2.984  1.2599 -0.4547 -1.0556
 1834SOL     OW 6441   4.352   6.203   7.191  0.3136  0.0833 -0.4622
 1834SOL    HW1 6442   4.425   6.261   7.209  0.6579 -0.4854 -0.0351
 1834SOL    HW2 6443   4.330   6.163   7.275 -1.0425  0.8832 -0.4040
 1835SOL     OW 6444   6.626   4.455   4.114  0.3952  0.7113  0.6380
 1835SOL    HW1 6445   6.618   4.482   4.206  1.0661  0.9624  0.6245
 1835SOL    HW2 6446   6.706   4.402   4.112 -0.4203 -0.5677  0.4903
 1836SOL     OW 6447   3.065   1.154   7.383 -0.1490  0.1717  0.6309
 1836SOL    HW1 6448   3.152   1.118   7.367  0.7036  1.3727  2.2527
 1836SOL    HW2 6449   3.010   1.078   7.401  0.8268 -0.5321  0.6714
 1837SOL     OW 6450   4.923   1.146   3.719 -0.6810 -0.1843 -0.6886
 1837SOL    HW1 6451   4.900   1.130   3.627 -1.4805 -1.4644 -0.2948
 1837SOL    HW2 6452   4.838   1.149   3.764 -0.5572  3.5457 -0.3790
 1838SOL     OW 6453   0.338   6.169   5.321 -0.3797  0.1157  0.4780
 1838SOL    HW1 6454   0.316   6.106   5.252 -0.8379  1.1003 -0.2933
 1838SOL    HW2 6455   0.433   6.160   5.332 -0.4686 -0.8646  0.5445
 1839SOL     OW 6456   4.583   5.192   3.771  0.6106 -0.4925 -0.3554
 1839SOL    HW1 6457   4.516   5.253   3.801  0.0158 -0.8568 -0.9062
 1839SOL    HW2 6458   4.641   5.179   3.846 -1.1818 -1.8829  0.8601
 1840SOL     OW 6459   5.662   5.958   0.907 -0.2804 -0.5059  0.1731
 1840SOL    HW1 6460   5.626   6.035   0.864 -0.6317  0.7527  2.5832
 1840SOL    HW2 6461   5.736   5.991   0.958 -0.1380 -1.8394  0.8825
 1841SOL     OW 6462   4.845   2.037   4.253  0.0160 -0.0213 -0.0954
 1841SOL    HW1 6463   4.863   2.130   4.270  1.9975 -0.3573 -0.2042
 1841SOL    HW2 6464   4.915   2.009   4.195 -1.9928 -0.9854 -2.1971
 1842SOL     OW 6465   3.013   6.394   3.462  0.4021 -0.0607 -0.1868
 1842SOL    HW1 6466   2.925   6.413   3.428 -1.1853 -2.4207  2.2341
 1842SOL    HW2 6467   3.063   6.473   3.443 -1.9909  1.1035 -2.3328
 1843SOL     OW 6468   2.845   5.544   1.638 -0.2993  0.2507  0.1703
 1843SOL    HW1 6469   2.770   5.554   1.697 -0.3506  1.5120 -0.0878
 1843SOL    HW2 6470   2.823   5.468   1.584 -0.3521 -0.7962  1.5898
 1844SOL     OW 6471   6.746   6.096   4.732 -0.1796  0.0679  0.9222
 1844SOL    HW1 6472   6.835   6.117   4.703  0.2295 -0.0910  1.9975
 1844SOL    HW2 6473   6.689   6.128   4.662  0.7274  0.1516  0.2111
 1845SOL     OW 6474   4.327   5.337   6.107  0.3712  0.0665 -0.3384
 1845SOL    HW1 6475   4.272   5.375   6.039  0.2408  0.3836 -0.0631
 1845SOL    HW2 6476   4.394   5.288   6.060  0.1987  0.1659 -0.6896
 1846SOL     OW 6477   0.602   4.472   1.170  0.3782  0.4031  0.4183
 1846SOL    HW1 6478   0.602   4.452   1.076  1.8487  0.5264  0.3668
 1846SOL    HW2 6479   0.538   4.412   1.207 -0.2517  0.3689 -0.6593
 1847SOL     OW 6480   6.583   0.709   5.666  0.2121  0.3175 -0.1310
 1847SOL    HW1 6481   6.512   0.656   5.629 -0.3851  0.3215  0.9530
 1847SOL    HW2 6482   6.544   0.795   5.680  0.4187  0.3212  0.4718
 1848SOL     OW 6483   5.708   2.686   7.042 -0.1197 -0.5569 -0.0369
 1848SOL    HW1 6484   5.673   2.597   7.039 -1.1375 -0.1880  0.4999
 1848SOL    HW2 6485   5.803   2.674   7.047 -0.0070 -1.5683 -2.7388
 1849SOL     OW 6486   2.746   6.183   0.334 -0.5901  0.1132  0.3775
 1849SOL    HW1 6487   2.810   6.251   0.354 -0.0459  0.1698 -1.3780
 1849SOL    HW2 6488   2.800   6.107   0.310 -1.1917 -0.4178  0.6862
 1850SOL     OW 6489   4.779   2.645   2.101  0.2051 -0.1390  0.4674
 1850SOL    HW1 6490   4.700   2.683   2.138  1.5613  0.3185  3.1921
 1850SOL    HW2 6491   4.832   2.621   2.177  2.3715 -1.1247 -1.2223
 1851SOL     OW 6492   4.240   6.109   5.180 -1.1839 -0.4119 -0.0384
 1851SOL    HW1 6493   4.170   6.160   5.139 -0.3092 -1.6185 -3.2674
 1851SOL    HW2 6494   4.216   6.018   5.167 -0.4464 -0.8732  1.5105
 1852SOL     OW 6495   0.480   0.999   0.827 -0.2867 -0.5358  0.0782
 1852SOL    HW1 6496   0.422   1.070   0.798 -1.2018 -1.7313 -1.1151
 1852SOL    HW2 6497   0.472   0.932   0.760  0.6311 -1.7501  1.1274
 1853SOL     OW 6498   0.680   1.138   5.710 -0.3416  0.2794  0.4198
 1853SOL    HW1 6499   0.748   1.197   5.679 -1.8237  2.4810  1.1009
 1853SOL    HW2 6500   0.716   1.098   5.789 -0.2304  2.4410  1.5524
 1854SOL     OW 6501   3.101   7.168   4.747  0.1564 -0.7667  0.0672
 1854SOL    HW1 6502   3.189   7.187   4.780 -0.4226  0.0585  1.2070
 1854SOL    HW2 6503   3.083   7.238   4.684  0.1552 -0.6906  0.1514
 1855SOL     OW 6504   1.427   3.572   4.834  0.2131 -0.7390 -0.1204
 1855SOL    HW1 6505   1.402   3.504   4.770 -1.1059 -0.4530  0.0787
 1855SOL    HW2 6506   1.519   3.551   4.854  0.1206 -1.9081 -0.7598
 1856SOL     OW 6507   2.152   1.066   4.312 -0.5453 -0.7350  0.7262
 1856SOL    HW1 6508   2.183   1.153   4.337 -0.9017 -0.2219 -0.5552
 1856SOL    HW2 6509   2.221   1.006   4.341  0.8054  0.1954 -0.4494
 1857SOL     OW 6510   7.184   2.492   2.319  0.4946  0.1096  0.0404
 1857SOL    HW1 6511   7.103   2.473   2.365  1.4432 -1.2460  1.2683
 1857SOL    HW2 6512   7.165   2.474   2.227 -0.7058  0.3021  0.2352
 1858SOL     OW 6513   0.967   1.182   6.847  0.5454 -0.9106  0.3126
 1858SOL    HW1 6514   0.946   1.111   6.908  0.8901 -0.3227  1.1393
 1858SOL    HW2 6515   1.062   1.191   6.852  0.5936 -0.9388 -0.4239
 1859SOL     OW 6516   4.037   7.154   5.879  0.1147  0.4507  0.4483
 1859SOL    HW1 6517   4.089   7.135   5.957  2.2457 -1.0533 -1.2274
 1859SOL    HW2 6518   4.029   7.070   5.834 -0.5674  1.3685 -1.2360
 1860SOL     OW 6519   7.048   4.349   6.660 -0.6083  0.2305 -0.1854
 1860SOL    HW1 6520   6.969   4.374   6.709  0.2486 -1.0037  1.9800
 1860SOL    HW2 6521   7.017   4.284   6.597 -1.1326 -2.0356  2.1837
 1861SOL     OW 6522   2.402   5.917   5.678 -0.1741 -0.0784  0.1970
 1861SOL    HW1 6523   2.326   5.951   5.725 -1.9177  0.7984 -2.9431
 1861SOL    HW2 6524   2.418   5.982   5.610  1.8407 -1.4973 -0.7672
 1862SOL     OW 6525   1.228   6.330   5.466  0.2903  0.3433  0.4217
 1862SOL    HW1 6526   1.211   6.238   5.486 -1.0938  0.4112 -0.2923
 1862SOL    HW2 6527   1.274   6.364   5.543  0.0525 -0.7362  1.0537
 1863SOL     OW 6528   7.183   6.372   4.596  0.3386 -0.1633 -0.3604
 1863SOL    HW1 6529   7.239   6.433   4.548 -0.4223  2.2575  1.6027
 1863SOL    HW2 6530   7.225   6.364   4.682 -0.3587 -1.2631 -0.1088
 1864SOL     OW 6531   6.897   6.417   6.501  0.3943 -0.2795  0.4116
 1864SOL    HW1 6532   6.953   6.468   6.442 -0.5709  0.0949 -0.2051
 1864SOL    HW2 6533   6.809   6.427   6.465 -0.0302 -1.1259  1.1764
 1865SOL     OW 6534   7.330   0.243   1.944 -0.7272 -0.1245 -0.2101
 1865SOL    HW1 6535   7.421   0.274   1.940 -0.6677 -0.2717 -0.0330
 1865SOL    HW2 6536   7.284   0.296   1.879 -1.1316  2.0202  1.7095
 1866SOL     OW 6537   0.430   2.050   4.299 -0.1668  0.3913  0.1187
 1866SOL    HW1 6538   0.420   2.005   4.215  0.3985  0.0777  0.2172
 1866SOL    HW2 6539   0.362   2.011   4.354 -0.0218  0.0258  0.0463
 1867SOL     OW 6540   4.100   6.391   7.420 -0.7129 -0.1989  0.2403
 1867SOL    HW1 6541   4.159   6.464   7.404  1.3864 -1.9275 -0.4329
 1867SOL    HW2 6542   4.033   6.400   7.353 -0.3557  0.9511  0.0119
 1868SOL     OW 6543   2.127   2.835   4.653 -0.5555  0.0767  0.0106
 1868SOL    HW1 6544   2.048   2.825   4.707 -1.2148  3.7048 -0.0638
 1868SOL    HW2 6545   2.174   2.909   4.692  1.7197 -0.5607 -1.3069
 1869SOL     OW 6546   6.561   7.355   1.141 -0.2395 -0.6103 -0.0101
 1869SOL    HW1 6547   6.550   7.438   1.094 -2.1404 -1.2029 -0.7073
 1869SOL    HW2 6548   6.533   7.375   1.231  0.1011 -0.3038  0.0304
 1870SOL     OW 6549   4.090   5.985   4.609  0.2673  0.3648  0.3036
 1870SOL    HW1 6550   4.153   6.048   4.573 -2.1516  1.6960 -1.9654
 1870SOL    HW2 6551   4.053   6.029   4.685  0.7890  0.3375  0.5788
 1871SOL     OW 6552   6.390   5.964   4.457  0.2059  0.2828  0.3243
 1871SOL    HW1 6553   6.449   5.895   4.488  1.0602  0.6340 -0.4843
 1871SOL    HW2 6554   6.304   5.922   4.454  0.3382 -0.1496  1.8055
 1872SOL     OW 6555   5.781   6.301   3.394  0.2742 -0.2739 -0.1061
 1872SOL    HW1 6556   5.728   6.331   3.320  3.8340  2.3137 -1.9647
 1872SOL    HW2 6557   5.814   6.215   3.368  0.4934  0.0733 -1.0089
 1873SOL     OW 6558   2.820   1.268   3.705 -0.0336 -0.1500  0.3022
 1873SOL    HW1 6559   2.895   1.211   3.689  0.3983  0.8001 -1.2881
 1873SOL    HW2 6560   2.799   1.305   3.619 -1.8522  0.1968  0.8446
 1874SOL     OW 6561   3.140   0.894   3.227 -0.3385 -0.3424  0.1345
 1874SOL    HW1 6562   3.073   0.945   3.181 -1.8013 -1.2094  1.2018
 1874SOL    HW2 6563   3.143   0.811   3.179 -0.2995 -0.4484  0.3209
 1875SOL     OW 6564   5.526   0.946   5.346  0.0387 -0.2720  0.8712
 1875SOL    HW1 6565   5.509   0.957   5.440 -0.0779 -1.8864  1.0682
 1875SOL    HW2 6566   5.550   0.854   5.337 -2.6297 -0.9107 -1.0530
 1876SOL     OW 6567   2.835   5.741   7.396 -0.3290  0.4592  0.6155
 1876SOL    HW1 6568   2.914   5.686   7.394 -0.8199 -0.2378 -0.2960
 1876SOL    HW2 6569   2.860   5.819   7.348 -0.1526  0.2965  0.4375
 1877SOL     OW 6570   2.083   2.091   1.430  0.7214 -0.4313  0.6629
 1877SOL    HW1 6571   2.125   2.104   1.515 -0.0666  1.7447  0.7883
 1877SOL    HW2 6572   2.101   2.171   1.381 -1.1867 -0.4580 -0.1757
 1878SOL     OW 6573   1.480   5.223   0.215  0.0494  0.5389 -0.7242
 1878SOL    HW1 6574   1.407   5.219   0.276  0.0604  0.6779 -0.7021
 1878SOL    HW2 6575   1.546   5.277   0.258  0.4622 -0.1822 -0.4348
 1879SOL     OW 6576   0.831   2.269   0.403 -0.1602 -0.4109  0.0999
 1879SOL    HW1 6577   0.767   2.243   0.336  0.4850 -0.1353 -0.6355
 1879SOL    HW2 6578   0.890   2.194   0.409 -0.0014 -0.2866  0.0905
 1880SOL     OW 6579   0.191   6.109   1.708 -0.1581 -0.2384  0.1309
 1880SOL    HW1 6580   0.192   6.202   1.685 -0.2141 -0.2189  0.2049
 1880SOL    HW2 6581   0.182   6.064   1.624  1.7208 -0.2577 -0.1047
 1881SOL     OW 6582   0.523   2.761   1.219 -0.1844 -0.3796  0.4014
 1881SOL    HW1 6583   0.595   2.706   1.190  0.7250  0.8623  0.2082
 1881SOL    HW2 6584   0.539   2.775   1.313  0.0047  0.1476  0.2937
 1882SOL     OW 6585   0.489   3.043   6.850  0.1199  0.6668  0.2319
 1882SOL    HW1 6586   0.471   2.982   6.922  0.1028 -2.0118 -1.8410
 1882SOL    HW2 6587   0.402   3.073   6.823  0.0292  0.7128  0.5718
 1883SOL     OW 6588   6.469   5.540   3.033  0.1608 -0.4145  0.2579
 1883SOL    HW1 6589   6.491   5.493   2.953  1.4637  0.1886  0.2196
 1883SOL    HW2 6590   6.539   5.606   3.041 -0.7970  0.5367  1.0692
 1884SOL     OW 6591   6.544   2.738   7.147  0.2642 -0.1472 -0.2883
 1884SOL    HW1 6592   6.464   2.713   7.100  0.5965 -1.2329 -0.3048
 1884SOL    HW2 6593   6.514   2.755   7.237 -0.1776  0.7424 -0.5901
 1885SOL     OW 6594   4.637   4.355   2.835 -0.0769 -0.6495 -0.0917
 1885SOL    HW1 6595   4.716   4.300   2.838 -1.0892 -2.1459  2.5787
 1885SOL    HW2 6596   4.570   4.298   2.799 -0.8091 -0.7732  1.3831
 1886SOL     OW 6597   4.959   1.502   6.730  0.0229 -0.7972 -0.4957
 1886SOL    HW1 6598   4.879   1.480   6.778  0.8822  0.7701  1.8004
 1886SOL    HW2 6599   4.956   1.597   6.720  2.3751 -0.4435  1.2407
 1887SOL     OW 6600   0.039   2.689   2.168 -0.1552  0.3004 -0.2700
 1887SOL    HW1 6601  -0.038   2.746   2.175 -0.5096 -0.0373 -1.2913
 1887SOL    HW2 6602   0.022   2.619   2.231 -1.4032 -0.5752 -1.5377
 1888SOL     OW 6603   0.478   4.675   5.769 -0.2883 -0.0219 -0.3712
 1888SOL    HW1 6604   0.534   4.597   5.768  0.7161  0.6738 -1.1313
 1888SOL    HW2 6605   0.484   4.707   5.859 -1.4767 -1.3197  0.2064
 1889SOL     OW 6606   2.823   1.085   2.302 -0.4584 -0.2197 -0.4375
 1889SOL    HW1 6607   2.835   1.180   2.312  2.2636 -0.5324  0.1416
 1889SOL    HW2 6608   2.880   1.061   2.229 -0.4664 -1.5054 -0.0494
 1890SOL     OW 6609   5.649   5.757   2.233  0.5302  0.5704 -0.0740
 1890SOL    HW1 6610   5.620   5.676   2.191 -1.3472  1.3414 -0.3740
 1890SOL    HW2 6611   5.571   5.813   2.233  1.7902  2.4125  0.0483
 1891SOL     OW 6612   6.392   0.787   7.073  0.0545 -0.3676 -0.1929
 1891SOL    HW1 6613   6.299   0.802   7.054 -0.0488  0.5436  0.8714
 1891SOL    HW2 6614   6.392   0.715   7.137  0.1108 -0.6805 -0.5468
 1892SOL     OW 6615   5.361   5.604   1.102 -0.2067 -0.7139 -0.0372
 1892SOL    HW1 6616   5.431   5.647   1.053  0.6606 -0.7861  1.0952
 1892SOL    HW2 6617   5.282   5.651   1.077  0.0449 -1.3451 -2.2025
 1893SOL     OW 6618   5.772   7.155   3.895  0.3801 -0.2551  0.1963
 1893SOL    HW1 6619   5.769   7.160   3.800 -3.2364 -1.9221  0.0208
 1893SOL    HW2 6620   5.692   7.199   3.924 -0.1910 -2.3689  2.1810
 1894SOL     OW 6621   5.988   7.403   3.121  0.1295  0.7101  0.3544
 1894SOL    HW1 6622   5.964   7.311   3.129 -1.5410  1.2673  4.9434
 1894SOL    HW2 6623   6.083   7.405   3.133 -0.1600 -0.4172  4.5913
 1895SOL     OW 6624   6.188   7.080   4.840 -0.5024 -0.3188 -0.6024
 1895SOL    HW1 6625   6.197   7.048   4.751 -2.1026 -0.9675 -0.5562
 1895SOL    HW2 6626   6.264   7.043   4.886  0.2576 -0.0898 -1.6359
 1896SOL     OW 6627   6.773   2.371   1.730 -0.7233 -0.1413  0.1801
 1896SOL    HW1 6628   6.845   2.325   1.774 -0.4334  1.3083  1.2841
 1896SOL    HW2 6629   6.696   2.316   1.746 -0.2341 -0.6880  0.7000
 1897SOL     OW 6630   2.431   2.420   7.111 -0.6413 -0.2906  0.2962
 1897SOL    HW1 6631   2.466   2.505   7.139 -2.4797 -0.0423  2.0333
 1897SOL    HW2 6632   2.435   2.366   7.190 -0.8991 -1.3354 -0.3995
 1898SOL     OW 6633   2.725   6.474   2.776 -0.2498  0.0912 -0.5982
 1898SOL    HW1 6634   2.697   6.413   2.844 -2.0867  1.9135  0.3718
 1898SOL    HW2 6635   2.763   6.548   2.824  1.0345  0.1963 -1.7097
 1899SOL     OW 6636   0.978   3.927   3.399 -0.8224 -0.3301 -0.3625
 1899SOL    HW1 6637   1.005   3.849   3.350  0.1131 -0.1673 -0.1325
 1899SOL    HW2 6638   0.947   3.893   3.483  0.3123 -0.4333  0.0430
 1900SOL     OW 6639   3.476   0.842   2.102  0.4570 -0.0076 -0.0992
 1900SOL    HW1 6640   3.381   0.850   2.093  0.3682  0.6016  1.1200
 1900SOL    HW2 6641   3.510   0.873   2.019 -0.3612  2.0181  0.2504
 1901SOL     OW 6642   6.333   5.153   2.207  0.0645  0.0827 -0.4284
 1901SOL    HW1 6643   6.371   5.182   2.290 -3.1616  2.1769  0.5244
 1901SOL    HW2 6644   6.311   5.061   2.221 -1.1043  0.5973  1.3846
 1902SOL     OW 6645   4.491   6.444   7.105 -0.0426 -0.2578 -0.2783
 1902SOL    HW1 6646   4.585   6.424   7.105  0.0936  0.3642 -0.5430
 1902SOL    HW2 6647   4.483   6.519   7.164 -0.6199 -1.3983  1.1465
 1903SOL     OW 6648   4.831   5.306   6.081  0.2014  0.3928 -0.0791
 1903SOL    HW1 6649   4.746   5.274   6.050  1.6731 -2.3538 -1.6375
 1903SOL    HW2 6650   4.826   5.299   6.177 -1.0627 -0.4585 -0.1834
 1904SOL     OW 6651   6.946   0.188   2.926  0.4669  0.2692  0.2892
 1904SOL    HW1 6652   6.906   0.109   2.890  0.4220  0.0821  0.7411
 1904SOL    HW2 6653   6.953   0.170   3.020  0.5704  0.7525  0.3747
 1905SOL     OW 6654   2.640   3.339   6.435  0.0729  0.2301 -0.1015
 1905SOL    HW1 6655   2.628   3.254   6.392 -1.4060 -1.1365  2.7634
 1905SOL    HW2 6656   2.571   3.395   6.398  1.0974  0.2824 -2.0515
 1906SOL     OW 6657   6.009   6.204   0.546  0.2734  0.0422  0.2872
 1906SOL    HW1 6658   5.972   6.292   0.545 -0.6635 -0.2691  2.6501
 1906SOL    HW2 6659   6.030   6.187   0.454 -1.5410  1.8788 -0.5691
 1907SOL     OW 6660   5.236   5.435   6.644 -0.0171  0.3716 -0.6540
 1907SOL    HW1 6661   5.332   5.434   6.647 -0.0188 -0.6101 -0.5319
 1907SOL    HW2 6662   5.212   5.344   6.624 -0.9076  0.7177 -1.2244
 1908SOL     OW 6663   3.132   5.296   4.561  0.7598  0.1891  0.2244
 1908SOL    HW1 6664   3.097   5.381   4.535  0.7602  0.2863  0.5358
 1908SOL    HW2 6665   3.227   5.309   4.564  0.9856 -0.4408 -1.9830
 1909SOL     OW 6666   5.352   4.955   3.309 -0.0749  0.0247  0.6051
 1909SOL    HW1 6667   5.374   4.893   3.378 -0.3020  0.6331  1.2447
 1909SOL    HW2 6668   5.357   4.904   3.228 -0.8009 -0.9702  1.1574
 1910SOL     OW 6669   1.983   1.296   7.426  0.2785 -0.0900 -0.2111
 1910SOL    HW1 6670   1.893   1.326   7.411  1.0307  1.2815 -2.3142
 1910SOL    HW2 6671   2.029   1.373   7.459  0.8435 -0.6411  0.3259
 1911SOL     OW 6672   6.038   4.046   2.286  0.5616 -0.4554 -0.2662
 1911SOL    HW1 6673   6.115   3.997   2.257 -0.2109 -0.5925 -2.2445
 1911SOL    HW2 6674   6.066   4.088   2.368  1.7084 -3.0203  0.7784
 1912SOL     OW 6675   3.658   5.776   0.963 -1.0490 -0.5078  0.5930
 1912SOL    HW1 6676   3.657   5.823   1.047  0.0237  0.5372  0.0493
 1912SOL    HW2 6677   3.724   5.707   0.976  1.6856  1.7523 -0.4115
 1913SOL     OW 6678   3.969   2.275   7.098 -0.0038 -0.0573 -0.4010
 1913SOL    HW1 6679   4.015   2.269   7.181 -1.4765 -0.5037  0.4076
 1913SOL    HW2 6680   3.940   2.366   7.093  1.0356  0.2627 -0.9796
 1914SOL     OW 6681   4.557   5.207   2.226 -0.1610  0.0581 -0.2667
 1914SOL    HW1 6682   4.580   5.149   2.299  0.5384  0.9839  0.2770
 1914SOL    HW2 6683   4.487   5.161   2.180 -0.2944 -0.7611  0.7150
 1915SOL     OW 6684   0.449   2.246   2.197 -0.0827  0.4131 -0.1327
 1915SOL    HW1 6685   0.363   2.279   2.170  0.3093  1.3550 -0.2627
 1915SOL    HW2 6686   0.438   2.224   2.289 -1.1214 -1.7757 -0.7003
 1916SOL     OW 6687   1.356   6.229   6.835  0.3043  0.0715 -0.1976
 1916SOL    HW1 6688   1.298   6.287   6.786  0.3538  1.8767  1.7142
 1916SOL    HW2 6689   1.297   6.172   6.885  0.2168  0.2324 -0.1178
 1917SOL     OW 6690   0.605   2.193   6.438 -0.2055 -0.1371  0.1168
 1917SOL    HW1 6691   0.520   2.168   6.401  1.6980 -1.6545 -3.8333
 1917SOL    HW2 6692   0.649   2.110   6.455  0.9983  0.6090  0.7704
 1918SOL     OW 6693   0.785   1.655   3.602  0.0992  0.1986 -0.6116
 1918SOL    HW1 6694   0.768   1.581   3.661  1.4716 -1.6821 -2.3959
 1918SOL    HW2 6695   0.702   1.701   3.596 -1.2122 -2.0109 -0.4205
 1919SOL     OW 6696   0.661   5.660   0.822 -0.3270 -0.0053  0.0290
 1919SOL    HW1 6697   0.603   5.632   0.893  0.0409 -0.8166  0.0269
 1919SOL    HW2 6698   0.625   5.743   0.792  1.1282  1.9651  3.1393
 1920SOL     OW 6699   0.506   5.876   3.344 -0.0494  0.4973 -0.3392
 1920SOL    HW1 6700   0.563   5.944   3.310 -0.3407  1.2172  0.5676
 1920SOL    HW2 6701   0.419   5.899   3.312 -0.6746  2.2810  2.3293
 1921SOL     OW 6702   4.185   1.107   3.641  0.0075  0.5314 -0.0640
 1921SOL    HW1 6703   4.189   1.132   3.734 -0.0641  0.6847 -0.1008
 1921SOL    HW2 6704   4.106   1.053   3.634 -0.9027  1.8449 -0.3360
 1922SOL     OW 6705   4.834   3.690   4.463  0.4940  0.2588  0.0033
 1922SOL    HW1 6706   4.839   3.596   4.482 -0.5269  0.2156  0.1105
 1922SOL    HW2 6707   4.761   3.698   4.402  1.5663  0.8112 -1.2595
 1923SOL     OW 6708   1.802   5.541   2.848  0.1647 -0.7368  0.1577
 1923SOL    HW1 6709   1.706   5.543   2.852  0.1481  2.3192  0.9079
 1923SOL    HW2 6710   1.827   5.472   2.908 -1.5593 -1.1291  0.4756
 1924SOL     OW 6711   1.502   2.954   4.271  0.3047  0.4305  0.2023
 1924SOL    HW1 6712   1.473   3.042   4.295 -0.8665 -0.1988  1.1993
 1924SOL    HW2 6713   1.439   2.896   4.311 -0.0030 -0.8390 -1.9380
 1925SOL     OW 6714   0.670   0.064   7.428 -0.1972  0.8672  0.0504
 1925SOL    HW1 6715   0.722  -0.011   7.398 -0.4445  0.4822  0.5499
 1925SOL    HW2 6716   0.676   0.060   7.523 -1.6859  0.3964  0.1602
 1926SOL     OW 6717   1.495   1.023   0.270  0.3701  0.5945  0.0477
 1926SOL    HW1 6718   1.544   1.057   0.195  0.3577  1.9014  0.5991
 1926SOL    HW2 6719   1.496   1.095   0.334 -1.9385  0.5195  0.2413
 1927SOL     OW 6720   0.053   5.060   6.591 -0.4646 -0.2050  0.4631
 1927SOL    HW1 6721   0.039   5.061   6.686 -3.2110  2.0442  0.1646
 1927SOL    HW2 6722   0.104   5.140   6.574  0.6224 -0.9563  0.0393
 1928SOL     OW 6723   5.242   1.075   1.586 -0.4250  0.3219  0.2177
 1928SOL    HW1 6724   5.149   1.072   1.611  0.1860 -0.1767  2.7024
 1928SOL    HW2 6725   5.267   0.983   1.575 -0.4383  0.4919 -1.5505
 1929SOL     OW 6726   3.219   1.308   3.871 -0.4901  0.0366 -0.2704
 1929SOL    HW1 6727   3.134   1.350   3.855 -1.1212 -0.2368  2.0712
 1929SOL    HW2 6728   3.268   1.371   3.924  0.1785 -0.4405 -0.3065
 1930SOL     OW 6729   5.855   4.575   5.753  0.0516 -0.2096  0.1368
 1930SOL    HW1 6730   5.904   4.614   5.826 -0.7209  1.0270  0.0146
 1930SOL    HW2 6731   5.920   4.567   5.683  0.9962 -2.0853  1.1264
 1931SOL     OW 6732   4.125   7.142   0.327 -0.1192  0.0345  0.3200
 1931SOL    HW1 6733   4.201   7.135   0.269 -1.1206  1.0885 -1.2040
 1931SOL    HW2 6734   4.051   7.120   0.271 -1.1375  1.2196  1.1654
 1932SOL     OW 6735   5.310   2.911   2.073 -0.1456 -0.6407 -0.1728
 1932SOL    HW1 6736   5.306   2.993   2.024 -1.4815 -1.2821 -1.1958
 1932SOL    HW2 6737   5.341   2.936   2.160 -0.2792  0.9000 -0.5469
 1933SOL     OW 6738   7.148   2.049   2.331  0.0172  0.0158  0.0703
 1933SOL    HW1 6739   7.072   1.995   2.351  1.1010 -1.6012 -0.0320
 1933SOL    HW2 6740   7.223   1.992   2.346  1.1974  1.3524 -0.5047
 1934SOL     OW 6741   0.798   0.937   0.024 -0.0627 -0.3329  0.9223
 1934SOL    HW1 6742   0.886   0.960  -0.006 -0.8332  1.0566 -0.4246
 1934SOL    HW2 6743   0.777   1.004   0.090 -1.4208  1.6320 -1.3410
 1935SOL     OW 6744   6.746   7.424   3.692 -0.2164  0.9737  0.0408
 1935SOL    HW1 6745   6.682   7.420   3.763 -0.9545 -0.3362 -0.6569
 1935SOL    HW2 6746   6.767   7.332   3.674 -0.0871  1.2748 -1.4642
 1936SOL     OW 6747   4.010   0.699   0.022 -0.3734 -0.5280 -0.7319
 1936SOL    HW1 6748   4.000   0.708   0.117  0.9842  1.8406 -0.7279
 1936SOL    HW2 6749   4.096   0.661   0.010  0.3131  1.0224 -0.9852
 1937SOL     OW 6750   3.262   1.973   7.419 -0.3180 -0.0991 -0.0712
 1937SOL    HW1 6751   3.211   1.918   7.479 -0.9868  0.2736 -0.2906
 1937SOL    HW2 6752   3.330   1.915   7.386  1.0901  0.0922  2.2860
 1938SOL     OW 6753   4.087   2.367   4.884  0.0559  0.2526 -0.4866
 1938SOL    HW1 6754   4.026   2.334   4.818  0.8349  1.1707 -1.7132
 1938SOL    HW2 6755   4.131   2.440   4.841  0.6074  0.8675  1.0673
 1939SOL     OW 6756   0.869   4.276   3.573 -0.1899 -0.0492  0.2431
 1939SOL    HW1 6757   0.951   4.322   3.552 -0.5749 -0.0014 -1.3114
 1939SOL    HW2 6758   0.855   4.218   3.499 -1.9695  0.5289  0.0740
 1940SOL     OW 6759   0.531   3.903   4.237 -0.5968  1.0648 -0.4270
 1940SOL    HW1 6760   0.573   3.989   4.239  0.5197  0.5291  0.5457
 1940SOL    HW2 6761   0.481   3.899   4.319 -0.2666  0.6209 -0.2411
 1941SOL     OW 6762   3.818   6.511   4.608 -0.0764  0.0246 -0.2757
 1941SOL    HW1 6763   3.739   6.458   4.592  1.0384 -2.1941  1.1809
 1941SOL    HW2 6764   3.830   6.508   4.703  0.7751  1.8787 -0.2908
 1942SOL     OW 6765   2.947   3.170   5.086 -0.6355 -0.5755 -0.2959
 1942SOL    HW1 6766   2.992   3.086   5.080  0.3114 -0.0613 -0.5321
 1942SOL    HW2 6767   3.017   3.235   5.090 -1.3260  0.1400  1.0579
 1943SOL     OW 6768   6.719   2.136   2.761  0.2588 -0.1181 -0.0342
 1943SOL    HW1 6769   6.755   2.050   2.784  1.9790  0.9232  1.4836
 1943SOL    HW2 6770   6.627   2.119   2.742  0.3433 -2.1669  1.0576
 1944SOL     OW 6771   4.150   2.201   2.893  0.0626  0.3410  0.0136
 1944SOL    HW1 6772   4.130   2.130   2.953 -1.0885  1.3657  0.8839
 1944SOL    HW2 6773   4.237   2.231   2.920  0.5269 -0.6454 -0.3120
 1945SOL     OW 6774   1.557   2.621   1.721 -0.0814  0.6018  0.4494
 1945SOL    HW1 6775   1.634   2.612   1.777 -1.4931 -1.1433  2.2438
 1945SOL    HW2 6776   1.498   2.551   1.749 -1.7041  0.8889 -1.9226
 1946SOL     OW 6777   3.785   5.779   3.495  0.0726 -0.4702 -0.4070
 1946SOL    HW1 6778   3.836   5.815   3.423 -0.8511 -2.3192 -2.1212
 1946SOL    HW2 6779   3.695   5.778   3.462 -0.5568 -0.4166  1.2056
 1947SOL     OW 6780   0.431   7.258   5.494  0.4014 -0.1264 -0.4706
 1947SOL    HW1 6781   0.343   7.288   5.518  0.0095 -0.3121 -1.6217
 1947SOL    HW2 6782   0.476   7.246   5.578 -0.4978  0.4763  0.1148
 1948SOL     OW 6783   2.297   0.122   5.365 -0.1403 -0.0512  0.1987
 1948SOL    HW1 6784   2.369   0.071   5.327  1.6465  2.2210  0.3625
 1948SOL    HW2 6785   2.323   0.137   5.456 -1.1539  0.2896  0.4491
 1949SOL     OW 6786   3.282   4.913   6.448  0.1558  0.3775 -0.4228
 1949SOL    HW1 6787   3.205   4.897   6.394  0.6790  0.0240 -1.0791
 1949SOL    HW2 6788   3.251   4.970   6.518 -0.6695  0.3413 -0.7490
 1950SOL     OW 6789   1.754   6.886   7.361 -0.2149  0.0057 -0.3883
 1950SOL    HW1 6790   1.711   6.802   7.381 -1.2744  0.4934 -0.5434
 1950SOL    HW2 6791   1.688   6.952   7.382  1.1724  0.9321  1.3433
 1951SOL     OW 6792   1.862   6.110   3.740 -0.5478  0.4039 -0.0253
 1951SOL    HW1 6793   1.773   6.113   3.705  0.0591  0.6290 -1.6342
 1951SOL    HW2 6794   1.914   6.163   3.680  0.9541 -0.9424 -0.0053
 1952SOL     OW 6795   1.897   3.963   1.425  0.0820  0.1523 -0.0139
 1952SOL    HW1 6796   1.932   3.937   1.510  0.4048  0.8277  0.0653
 1952SOL    HW2 6797   1.902   3.884   1.372 -0.2863 -0.3195  0.6468
 1953SOL     OW 6798   7.348   1.867   2.332  0.2452 -0.2038 -0.7995
 1953SOL    HW1 6799   7.430   1.887   2.379 -0.1603 -0.5720  0.0758
 1953SOL    HW2 6800   7.375   1.862   2.240  1.0951  0.3154 -0.5983
 1954SOL     OW 6801   3.792   1.178   5.735  0.5891  0.3488 -0.4689
 1954SOL    HW1 6802   3.731   1.115   5.772  1.4035  0.8925  1.9480
 1954SOL    HW2 6803   3.741   1.257   5.721  0.1126 -0.0840 -1.2799
 1955SOL     OW 6804   1.806   3.228   5.041 -0.2654 -0.3574 -0.0206
 1955SOL    HW1 6805   1.875   3.239   5.106 -0.2528 -0.0522 -0.0834
 1955SOL    HW2 6806   1.745   3.166   5.081 -1.4218  1.5159  1.2644
 1956SOL     OW 6807   4.068   3.613   3.609 -0.3531  0.5994 -0.3416
 1956SOL    HW1 6808   4.124   3.538   3.589  0.3886  1.0601 -0.0579
 1956SOL    HW2 6809   4.107   3.685   3.560 -1.0595  0.8041 -0.6096
 1957SOL     OW 6810   1.595   1.442   5.674  0.1103 -0.0372  0.5679
 1957SOL    HW1 6811   1.553   1.528   5.679 -2.2809 -1.0771  0.1058
 1957SOL    HW2 6812   1.633   1.439   5.586 -0.7358  0.1749  0.1828
 1958SOL     OW 6813   4.096   2.032   6.012 -0.7833  0.0543 -0.2168
 1958SOL    HW1 6814   4.141   2.069   6.088 -2.9377  0.1146  1.1034
 1958SOL    HW2 6815   4.124   1.941   6.010 -1.4402 -0.2095  1.2807
 1959SOL     OW 6816   4.535   6.684   0.463  0.4039 -0.0387  0.5545
 1959SOL    HW1 6817   4.574   6.669   0.377  0.4907  1.0106  0.3974
 1959SOL    HW2 6818   4.492   6.602   0.484  0.3975 -0.3196 -0.4924
 1960SOL     OW 6819   3.814   3.057   2.291  0.1687  0.4141  0.4170
 1960SOL    HW1 6820   3.834   2.983   2.233 -0.1858  0.5434  0.1278
 1960SOL    HW2 6821   3.727   3.086   2.264  0.7491  1.6429 -0.2058
 1961SOL     OW 6822   2.094   5.721   4.777  0.2271  0.2177 -0.1961
 1961SOL    HW1 6823   2.110   5.665   4.701 -0.1087 -0.3851  0.1717
 1961SOL    HW2 6824   2.181   5.756   4.799  0.1919  1.1448 -1.4182
 1962SOL     OW 6825   1.364   2.526   4.773 -0.4500 -0.1908  0.1935
 1962SOL    HW1 6826   1.336   2.602   4.824  1.6106  0.4489  0.4278
 1962SOL    HW2 6827   1.417   2.561   4.702 -0.8317 -1.3046 -0.6837
 1963SOL     OW 6828   4.978   4.774   1.934 -0.0040 -0.5228  0.7704
 1963SOL    HW1 6829   4.933   4.821   1.864 -0.5275 -1.9835  0.0775
 1963SOL    HW2 6830   5.061   4.747   1.895  0.2245 -0.3158  1.1081
 1964SOL     OW 6831   6.027   5.306   5.979  0.4017  0.2578  0.0684
 1964SOL    HW1 6832   6.114   5.269   5.967 -0.8274 -2.4513 -1.2340
 1964SOL    HW2 6833   6.014   5.307   6.074  1.2836 -0.7493  0.2188
 1965SOL     OW 6834   1.532   4.864   2.524  0.0960 -0.1266  0.2453
 1965SOL    HW1 6835   1.589   4.787   2.536  0.9714  0.4707 -0.0203
 1965SOL    HW2 6836   1.548   4.892   2.435  0.5852  1.0058  0.6787
 1966SOL     OW 6837   4.810   1.178   2.161 -0.3365 -0.0414  0.1502
 1966SOL    HW1 6838   4.895   1.179   2.207 -0.8027 -0.2463  1.0401
 1966SOL    HW2 6839   4.831   1.148   2.073  0.2981 -1.7609  0.8414
 1967SOL     OW 6840   1.076   3.315   5.982  0.3136 -0.3167 -0.0470
 1967SOL    HW1 6841   1.141   3.253   5.950  1.8809 -0.1588  2.5110
 1967SOL    HW2 6842   1.017   3.328   5.908  1.6154 -2.5540 -1.6207
 1968SOL     OW 6843   2.529   5.543   3.008 -0.1220 -0.0172 -0.2117
 1968SOL    HW1 6844   2.624   5.539   3.008 -0.1385 -0.4727 -0.3881
 1968SOL    HW2 6845   2.502   5.468   2.956 -0.5764  0.1678 -0.2475
 1969SOL     OW 6846   6.863   6.813   1.899 -0.1721 -0.2805  0.3200
 1969SOL    HW1 6847   6.913   6.893   1.918  1.8651 -1.9714  2.5918
 1969SOL    HW2 6848   6.907   6.744   1.949 -1.9429 -2.8444 -1.4182
 1970SOL     OW 6849   6.107   6.256   5.229  0.9097  0.5727  0.1105
 1970SOL    HW1 6850   6.151   6.175   5.203 -0.5383 -0.6421  1.2200
 1970SOL    HW2 6851   6.091   6.302   5.146 -0.1242 -1.3262 -0.8234
 1971SOL     OW 6852   5.332   3.222   5.273 -0.0720 -0.1081  0.3549
 1971SOL    HW1 6853   5.302   3.144   5.227  0.3927  0.0778 -0.2837
 1971SOL    HW2 6854   5.260   3.285   5.264  0.6831  0.5547 -1.7069
 1972SOL     OW 6855   3.897   1.653   0.876  0.0742  0.0397 -0.0511
 1972SOL    HW1 6856   3.920   1.624   0.964 -0.3364  0.3638  0.1710
 1972SOL    HW2 6857   3.980   1.672   0.834  0.2708 -0.0860  0.2810
 1973SOL     OW 6858   6.368   7.346   2.858 -0.0083  0.5215  0.7523
 1973SOL    HW1 6859   6.324   7.314   2.937  0.3172 -0.5101  0.5243
 1973SOL    HW2 6860   6.370   7.441   2.869 -0.3378  0.4193  1.7911
 1974SOL     OW 6861   6.127   6.406   1.270  0.6246  0.2446  0.0566
 1974SOL    HW1 6862   6.112   6.425   1.362  0.7729  0.1191  0.1082
 1974SOL    HW2 6863   6.065   6.461   1.223  1.3815  1.2155  0.1784
 1975SOL     OW 6864   1.739   3.264   6.096 -0.3606  0.3857  0.1175
 1975SOL    HW1 6865   1.646   3.243   6.083 -0.2547  0.8235 -1.6226
 1975SOL    HW2 6866   1.757   3.331   6.030  1.2295  0.2212  0.3655
 1976SOL     OW 6867   3.413   7.065   3.090 -0.0720  0.6308 -0.1985
 1976SOL    HW1 6868   3.506   7.065   3.069  0.4173  0.8686  1.7311
 1976SOL    HW2 6869   3.393   7.156   3.110 -0.5478  0.4838  0.0130
 1977SOL     OW 6870   1.973   4.422   2.481 -0.8264 -0.4416  0.0202
 1977SOL    HW1 6871   1.977   4.382   2.394 -2.5717  0.0538 -0.3341
 1977SOL    HW2 6872   1.887   4.398   2.515 -0.2284 -0.4947  1.5629
 1978SOL     OW 6873   2.211   4.198   2.949 -0.6068 -0.0789  0.3089
 1978SOL    HW1 6874   2.269   4.240   3.013 -0.3692  0.9088 -0.5317
 1978SOL    HW2 6875   2.270   4.143   2.896 -0.7290 -0.5142  0.6201
 1979SOL     OW 6876   0.172   6.714   4.875  0.1171  0.0069  0.5119
 1979SOL    HW1 6877   0.192   6.751   4.789  1.0275 -1.1108  0.2183
 1979SOL    HW2 6878   0.209   6.776   4.937 -1.2594  1.2463  0.1615
 1980SOL     OW 6879   2.673   6.870   3.739 -0.2802 -0.1903  0.6834
 1980SOL    HW1 6880   2.760   6.831   3.749  1.0375  1.9202 -1.4591
 1980SOL    HW2 6881   2.634   6.865   3.827  1.1494 -2.9664  1.2756
 1981SOL     OW 6882   3.056   6.988   3.904  0.1969 -0.3084  0.1696
 1981SOL    HW1 6883   3.084   7.063   3.955  0.0136  0.6707 -1.1117
 1981SOL    HW2 6884   2.981   6.952   3.951  0.4268  0.1716  0.9054
 1982SOL     OW 6885   2.524   7.247   7.052 -0.3707  0.1049  0.0482
 1982SOL    HW1 6886   2.569   7.303   7.116  0.6643 -1.6873  0.9435
 1982SOL    HW2 6887   2.576   7.254   6.972  0.4851 -0.5382  0.5377
 1983SOL     OW 6888   2.878   3.182   4.363  0.4216 -0.0470 -0.8306
 1983SOL    HW1 6889   2.892   3.108   4.422  1.8153  0.7155 -0.1573
 1983SOL    HW2 6890   2.828   3.145   4.290  0.9041 -1.6049 -0.4174
 1984SOL     OW 6891   0.160   4.428   1.328 -0.2283 -0.2619 -0.7015
 1984SOL    HW1 6892   0.171   4.521   1.348  0.0053 -0.0275 -1.8630
 1984SOL    HW2 6893   0.081   4.402   1.376  0.1572  0.3246  0.2824
 1985SOL     OW 6894   6.148   0.260   7.341 -0.1160 -0.0891  0.4352
 1985SOL    HW1 6895   6.109   0.174   7.356 -2.1737  0.8180  0.5821
 1985SOL    HW2 6896   6.145   0.303   7.426 -0.3904  0.6242  0.0735
 1986SOL     OW 6897   3.244   1.959   5.974  0.0974 -0.0359  0.0757
 1986SOL    HW1 6898   3.159   1.914   5.976 -0.4476  0.9660  1.0950
 1986SOL    HW2 6899   3.228   2.039   5.924  0.5270 -0.0066 -0.0196
 1987SOL     OW 6900   7.200   5.539   1.048 -0.2430  0.4823 -0.5097
 1987SOL    HW1 6901   7.254   5.477   1.097  0.1419 -0.7308 -2.3822
 1987SOL    HW2 6902   7.197   5.617   1.103 -0.7458 -1.1587  1.9491
 1988SOL     OW 6903   6.313   1.471   2.706 -0.1445  0.2644  0.1180
 1988SOL    HW1 6904   6.252   1.471   2.633 -1.0642  0.4008  0.8720
 1988SOL    HW2 6905   6.399   1.460   2.665 -0.8484 -2.7684 -0.8014
 1989SOL     OW 6906   0.807   7.372   7.104 -0.0854  0.3771  0.2508
 1989SOL    HW1 6907   0.847   7.381   7.191  0.2562 -1.8026  0.3794
 1989SOL    HW2 6908   0.866   7.313   7.057 -1.0682  0.3142 -0.9455
 1990SOL     OW 6909   7.056   5.883   6.530  0.1998 -0.3529  0.1181
 1990SOL    HW1 6910   7.126   5.943   6.556 -0.7477 -0.2092  2.6258
 1990SOL    HW2 6911   7.100   5.813   6.482  1.4726  1.7346 -1.9560
 1991SOL     OW 6912   6.100   1.127   2.959 -0.3111  0.1343  0.2503
 1991SOL    HW1 6913   6.031   1.179   2.919  1.5470  0.0537 -3.4716
 1991SOL    HW2 6914   6.181   1.169   2.931  1.1993 -2.3124  0.6874
 1992SOL     OW 6915   2.275   3.725   0.085 -0.0525  0.7197 -0.3172
 1992SOL    HW1 6916   2.248   3.662   0.019  3.6196 -0.4878 -0.8573
 1992SOL    HW2 6917   2.235   3.694   0.167  0.0051 -1.1332 -0.9579
 1993SOL     OW 6918   2.380   5.346   4.829 -0.0332  0.2449 -0.1216
 1993SOL    HW1 6919   2.437   5.283   4.874 -0.8076 -1.0563 -0.9108
 1993SOL    HW2 6920   2.293   5.329   4.865 -0.1539  1.3251  0.1207
 1994SOL     OW 6921   2.597   4.658   1.518 -0.3054  0.0523 -0.1140
 1994SOL    HW1 6922   2.650   4.684   1.442  0.1219 -0.0248  0.1572
 1994SOL    HW2 6923   2.652   4.595   1.565 -0.4248  0.3747  0.4580
 1995SOL     OW 6924   0.744   4.251   3.109  0.4464  0.0357  0.3824
 1995SOL    HW1 6925   0.679   4.233   3.042 -0.2866  0.0620  1.0727
 1995SOL    HW2 6926   0.811   4.303   3.064 -0.1320  0.2235 -0.2802
 1996SOL     OW 6927   2.409   3.754   4.351 -0.3525  0.1895  0.1907
 1996SOL    HW1 6928   2.363   3.750   4.266  1.3289 -0.5420 -0.7232
 1996SOL    HW2 6929   2.361   3.693   4.406 -1.9364  1.2289  0.0418
 1997SOL     OW 6930   3.644   7.421   7.007  0.5816 -0.2114 -0.3344
 1997SOL    HW1 6931   3.715   7.485   7.013 -0.3071  0.8219 -0.5206
 1997SOL    HW2 6932   3.599   7.427   7.091  3.1486 -3.9245  1.5794
 1998SOL     OW 6933   4.921   2.499   2.719  0.2908  0.4368  0.1174
 1998SOL    HW1 6934   4.922   2.591   2.743 -0.1950  0.8541 -1.3432
 1998SOL    HW2 6935   4.973   2.456   2.787  1.1199  1.8793  0.4371
 1999SOL     OW 6936   4.129   6.635   4.293  0.1798  0.0969  0.0550
 1999SOL    HW1 6937   4.046   6.666   4.258  0.1241 -0.8757 -0.7316
 1999SOL    HW2 6938   4.195   6.674   4.237  0.1083 -1.1623 -0.9517
 2000SOL     OW 6939   1.062   3.615   6.487  0.4605 -0.1739  0.1441
 2000SOL    HW1 6940   1.119   3.538   6.488  1.9178  0.8178 -1.4015
 2000SOL    HW2 6941   0.985   3.587   6.438 -0.0966 -1.3120  1.6017
 2001SOL     OW 6942   4.119   1.535   2.212 -0.0127 -0.4012  0.0211
 2001SOL    HW1 6943   4.156   1.599   2.272 -2.1965 -1.1172  2.3364
 2001SOL    HW2 6944   4.159   1.452   2.238  2.0540 -0.2418 -2.3028
 2002SOL     OW 6945   0.641   0.055   3.547 -0.6399 -0.5849 -0.0197
 2002SOL    HW1 6946   0.730   0.091   3.540 -1.3177  0.9614 -1.8074
 2002SOL    HW2 6947   0.646  -0.030   3.504  0.2727 -1.2466  1.3005
 2003SOL     OW 6948   6.130   7.381   0.869 -0.1514 -0.2688  0.2522
 2003SOL    HW1 6949   6.081   7.365   0.789  0.1243  0.1778 -0.0110
 2003SOL    HW2 6950   6.196   7.446   0.844  0.6259 -0.9144  0.5707
 2004SOL     OW 6951   0.550   5.073   6.995  0.1281  0.3501 -0.6843
 2004SOL    HW1 6952   0.597   5.145   6.954  0.6238  0.2366 -0.3234
 2004SOL    HW2 6953   0.603   5.050   7.071  0.1442 -0.6170 -0.9801
 2005SOL     OW 6954   4.207   6.299   1.556  0.2309  0.6136  0.2332
 2005SOL    HW1 6955   4.228   6.206   1.545 -0.3495  0.7223 -2.2058
 2005SOL    HW2 6956   4.125   6.299   1.605  0.4801 -0.1071  0.6822
 2006SOL     OW 6957   5.622   1.467   4.406  0.4107 -0.0022 -0.1362
 2006SOL    HW1 6958   5.703   1.516   4.393  1.2186 -0.0408  3.6138
 2006SOL    HW2 6959   5.648   1.375   4.397  0.9528 -0.0364  1.5453
 2007SOL     OW 6960   5.167   7.115   7.429 -0.2988  0.2087  0.0698
 2007SOL    HW1 6961   5.170   7.036   7.376  0.9052 -0.8612  1.6203
 2007SOL    HW2 6962   5.251   7.117   7.475 -1.0304  1.3804  1.4747
 2008SOL     OW 6963   0.164   4.303   7.059  0.0292  0.0504  0.3632
 2008SOL    HW1 6964   0.228   4.233   7.074  0.2312  0.5142  1.8582
 2008SOL    HW2 6965   0.137   4.292   6.968  0.4619 -1.6255  0.4108
 2009SOL     OW 6966   0.343   6.456   5.379 -0.6010 -0.2707 -0.3570
 2009SOL    HW1 6967   0.252   6.476   5.404 -0.9687 -0.4118 -1.5279
 2009SOL    HW2 6968   0.343   6.361   5.365 -0.0755 -0.3882  0.3630
 2010SOL     OW 6969   1.250   6.402   4.218  0.0458 -0.3971  0.7339
 2010SOL    HW1 6970   1.274   6.494   4.211 -0.9703 -0.0598  1.5410
 2010SOL    HW2 6971   1.155   6.400   4.212  0.0858 -1.4681  0.0639
 2011SOL     OW 6972   7.233   0.545   5.398  0.3261  0.2087  0.2921
 2011SOL    HW1 6973   7.163   0.545   5.332 -0.2213 -0.2454  0.8587
 2011SOL    HW2 6974   7.290   0.472   5.373  0.7586  0.7469 -0.3264
 2012SOL     OW 6975   4.220   5.034   7.165  0.2680  0.1974 -0.5700
 2012SOL    HW1 6976   4.306   5.005   7.134  0.5574  1.1450 -0.6970
 2012SOL    HW2 6977   4.223   5.129   7.157  0.0121  0.4287  1.5100
 2013SOL     OW 6978   3.083   1.079   4.000  0.6202 -0.1199  0.6743
 2013SOL    HW1 6979   3.131   1.021   3.941 -1.6336 -0.9754 -0.4073
 2013SOL    HW2 6980   3.110   1.167   3.972 -0.1533 -0.5009 -1.5061
 2014SOL     OW 6981   2.850   1.709   2.987 -0.0696 -0.7115 -0.3159
 2014SOL    HW1 6982   2.889   1.703   3.074 -0.8924  0.0195  0.1194
 2014SOL    HW2 6983   2.895   1.782   2.945 -0.8530  0.0664  0.1503
 2015SOL     OW 6984   5.669   4.342   7.381  0.6394  0.0201  0.0129
 2015SOL    HW1 6985   5.682   4.408   7.313 -0.3268 -0.5818 -0.7719
 2015SOL    HW2 6986   5.734   4.275   7.362  2.2561  1.0910  1.3470
 2016SOL     OW 6987   2.489   7.391   5.298  0.5827  0.3277 -0.2157
 2016SOL    HW1 6988   2.543   7.411   5.375  0.6464  0.1111 -0.2054
 2016SOL    HW2 6989   2.549   7.350   5.236  0.4863  0.3193 -0.3040
 2017SOL     OW 6990   1.854   0.470   6.972  0.0524 -0.1595 -0.5267
 2017SOL    HW1 6991   1.870   0.419   7.052 -1.4730 -0.4424 -0.3824
 2017SOL    HW2 6992   1.895   0.555   6.990  0.0166 -0.3309  0.4307
 2018SOL     OW 6993   3.549   6.257   5.942  0.2031 -0.0093  0.3714
 2018SOL    HW1 6994   3.503   6.174   5.926  0.8623 -0.1457 -0.9252
 2018SOL    HW2 6995   3.642   6.234   5.938  0.3940  0.8296 -0.2542
 2019SOL     OW 6996   4.571   2.929   0.803 -0.2399  0.1081  0.5706
 2019SOL    HW1 6997   4.506   2.967   0.744 -0.5202  0.1638  0.9079
 2019SOL    HW2 6998   4.544   2.838   0.813  2.5866 -1.4009 -3.2937
 2020SOL     OW 6999   2.947   5.447   3.243  0.5491  0.3841  0.6015
 2020SOL    HW1 7000   2.871   5.459   3.301 -1.2627 -1.9133 -1.1179
 2020SOL    HW2 7001   2.976   5.357   3.260  0.4105 -0.0964 -1.5283
 2021SOL     OW 7002   5.529   5.855   4.153  0.0235 -0.1480 -0.3853
 2021SOL    HW1 7003   5.540   5.788   4.221  0.3268 -0.9091 -1.1554
 2021SOL    HW2 7004   5.436   5.875   4.154  0.1650  0.5747  0.8980
 2022SOL     OW 7005   6.758   4.041   0.201  0.0856 -0.0806  0.2120
 2022SOL    HW1 7006   6.787   4.085   0.281  1.3017  0.4278 -0.4659
 2022SOL    HW2 7007   6.684   4.094   0.171  0.0964  0.1708  0.6174
 2023SOL     OW 7008   2.071   3.412   5.829 -0.8073 -0.4029  0.0096
 2023SOL    HW1 7009   2.009   3.439   5.762  0.1854 -1.0099 -1.1781
 2023SOL    HW2 7010   2.127   3.347   5.787  0.0876 -0.5179  1.2996
 2024SOL     OW 7011   3.044   4.547   2.999 -0.5986 -0.3354  0.1940
 2024SOL    HW1 7012   3.089   4.631   2.992 -1.2119  0.1945  2.0785
 2024SOL    HW2 7013   3.104   4.492   3.051 -1.4023 -0.1234  1.3844
 2025SOL     OW 7014   0.962   6.892   0.568 -0.7701  0.1068  0.5185
 2025SOL    HW1 7015   1.040   6.947   0.574 -1.2621  0.9163 -0.2533
 2025SOL    HW2 7016   0.979   6.834   0.494 -0.2115 -0.8682  1.3916
 2026SOL     OW 7017   3.482   3.703   5.772  0.0860 -0.6031  0.0371
 2026SOL    HW1 7018   3.451   3.699   5.681 -1.6448  2.6819  0.3419
 2026SOL    HW2 7019   3.402   3.714   5.824  1.1356 -1.2716  1.9002
 2027SOL     OW 7020   4.051   2.332   1.639 -0.5797  0.3806 -0.0561
 2027SOL    HW1 7021   4.092   2.253   1.604  0.8113  0.8645  0.4069
 2027SOL    HW2 7022   4.066   2.398   1.572 -0.7060  0.5322  0.0651
 2028SOL     OW 7023   6.613   3.830   7.147  0.6574 -0.6525  0.3599
 2028SOL    HW1 7024   6.596   3.905   7.204  0.2676 -0.6527  0.2472
 2028SOL    HW2 7025   6.542   3.769   7.166 -0.8504  0.3052 -1.7458
 2029SOL     OW 7026   1.964   2.409   2.319 -0.0905 -0.2717 -0.0839
 2029SOL    HW1 7027   1.984   2.476   2.384  1.8699 -1.8442  1.0656
 2029SOL    HW2 7028   1.948   2.330   2.370  0.1288 -1.2481 -1.4635
 2030SOL     OW 7029   4.234   2.485   4.386 -0.5313 -0.2843 -0.4340
 2030SOL    HW1 7030   4.323   2.457   4.406 -0.6777 -0.5198 -0.0825
 2030SOL    HW2 7031   4.185   2.468   4.467 -0.4132  2.0122  0.1856
 2031SOL     OW 7032   6.139   5.205   2.683 -0.1850 -0.1308  0.7139
 2031SOL    HW1 7033   6.206   5.254   2.635 -0.2886  1.1134  1.7804
 2031SOL    HW2 7034   6.057   5.249   2.661 -0.8149 -1.9944 -1.0380
 2032SOL     OW 7035   5.537   0.156   5.031 -0.3262  0.0291 -0.3473
 2032SOL    HW1 7036   5.574   0.243   5.043 -2.1524  0.7997 -0.0688
 2032SOL    HW2 7037   5.490   0.137   5.112  1.8623 -2.2169  0.5300
 2033SOL     OW 7038   6.879   1.023   1.519 -0.0319  0.7195  0.1686
 2033SOL    HW1 7039   6.819   1.070   1.462  0.8038 -0.6647 -1.9612
 2033SOL    HW2 7040   6.850   0.932   1.517  1.0557  0.3345  0.5469
 2034SOL     OW 7041   1.467   0.420   4.022 -0.1272  0.4342  0.2151
 2034SOL    HW1 7042   1.378   0.404   4.054  0.4064 -0.9050  1.1379
 2034SOL    HW2 7043   1.522   0.409   4.099  0.9828 -0.4039 -0.6618
 2035SOL     OW 7044   0.869   5.919   4.041  0.0081 -0.1128 -0.5870
 2035SOL    HW1 7045   0.856   6.012   4.022  0.9452  0.3619  0.9593
 2035SOL    HW2 7046   0.874   5.877   3.954 -1.1831  1.1376 -1.2983
 2036SOL     OW 7047   1.352   2.953   3.096 -0.2099  0.2590  0.0065
 2036SOL    HW1 7048   1.292   3.012   3.141 -1.7438 -0.3546 -1.0973
 2036SOL    HW2 7049   1.300   2.873   3.083  1.8867 -1.5067  1.7418
 2037SOL     OW 7050   1.868   0.874   6.447 -0.3225  0.1275  0.5705
 2037SOL    HW1 7051   1.808   0.939   6.410  0.6529  0.5284 -0.3737
 2037SOL    HW2 7052   1.955   0.909   6.428  0.2168 -0.5919  1.6427
 2038SOL     OW 7053   6.729   0.011   0.325 -0.0750 -0.4882 -0.4375
 2038SOL    HW1 7054   6.756   0.071   0.255  0.6227  0.7335  0.8189
 2038SOL    HW2 7055   6.805  -0.044   0.340  0.9856  1.3444  1.4431
 2039SOL     OW 7056   4.541   4.913   0.968  0.0055 -0.0268  0.2595
 2039SOL    HW1 7057   4.523   4.958   1.051 -1.9964 -0.6005  0.1844
 2039SOL    HW2 7058   4.621   4.863   0.986 -0.8699 -0.8768  2.2038
 2040SOL     OW 7059   2.245   2.063   7.224 -0.2348  0.1575 -0.4270
 2040SOL    HW1 7060   2.302   2.048   7.149  1.6433 -0.5128  1.0448
 2040SOL    HW2 7061   2.184   2.130   7.195  1.3824  0.9972 -2.0645
 2041SOL     OW 7062   6.102   2.723   3.349 -0.1742 -0.8700 -0.8168
 2041SOL    HW1 7063   6.131   2.694   3.435 -1.0570  0.3502 -0.0889
 2041SOL    HW2 7064   6.182   2.755   3.306 -0.2089  1.8417  0.9151
 2042SOL     OW 7065   3.950   4.423   3.133  0.4772  0.0064 -0.6331
 2042SOL    HW1 7066   4.023   4.420   3.070  0.7533 -0.3275 -0.3022
 2042SOL    HW2 7067   3.872   4.411   3.080  0.6550  0.4281 -1.0047
 2043SOL     OW 7068   5.199   2.893   7.263 -0.3707 -0.1534  0.5219
 2043SOL    HW1 7069   5.288   2.929   7.265 -0.2431 -0.4829  1.0767
 2043SOL    HW2 7070   5.212   2.799   7.251 -0.5089 -0.5739  3.1503
 2044SOL     OW 7071   1.483   3.038   6.936 -0.2398  0.2306 -0.0354
 2044SOL    HW1 7072   1.549   2.971   6.922  0.7464  0.6156  2.3142
 2044SOL    HW2 7073   1.406   3.007   6.888  1.2118 -0.8515 -1.7938
 2045SOL     OW 7074   3.646   2.178   5.941  0.4168 -0.3153 -0.3089
 2045SOL    HW1 7075   3.709   2.124   5.989 -1.1097 -0.0810  2.1016
 2045SOL    HW2 7076   3.694   2.258   5.919  0.9774 -0.1328  1.4765
 2046SOL     OW 7077   3.571   4.051   4.234 -0.1680  0.3445  0.1331
 2046SOL    HW1 7078   3.481   4.067   4.264 -0.9935 -0.7010 -1.6236
 2046SOL    HW2 7079   3.624   4.110   4.287 -1.7320  0.1357  2.0787
 2047SOL     OW 7080   7.235   0.483   1.460 -0.5826  0.4286 -0.6421
 2047SOL    HW1 7081   7.279   0.534   1.528  0.6764 -0.9005 -0.4254
 2047SOL    HW2 7082   7.267   0.520   1.378  0.3386  0.0002 -0.4857
 2048SOL     OW 7083   3.224   6.816   2.028 -0.2035  0.0730  0.1155
 2048SOL    HW1 7084   3.146   6.813   1.973  0.2062 -1.6887 -0.4474
 2048SOL    HW2 7085   3.230   6.728   2.066  0.1519  0.9066  2.1239
 2049SOL     OW 7086   2.451   0.531   0.632 -0.1020  0.0162 -0.0361
 2049SOL    HW1 7087   2.358   0.520   0.652  0.2608  2.3929  4.1906
 2049SOL    HW2 7088   2.495   0.470   0.691  1.0987 -0.8244 -1.7420
 2050SOL     OW 7089   7.078   4.943   4.088  0.3384 -0.6611  0.4319
 2050SOL    HW1 7090   7.020   4.873   4.117  1.2961 -1.2061  1.0985
 2050SOL    HW2 7091   7.034   4.980   4.012 -0.9255 -0.9768  0.9785
 2051SOL     OW 7092   1.064   5.746   1.745 -0.1177 -0.0932 -0.2124
 2051SOL    HW1 7093   1.025   5.743   1.833  1.0697  0.2029  0.3436
 2051SOL    HW2 7094   1.095   5.836   1.736  1.3186 -0.5575 -0.2161
 2052SOL     OW 7095   6.286   6.575   5.224 -0.5826 -0.0210  0.3647
 2052SOL    HW1 7096   6.235   6.575   5.143  0.1881 -1.6032 -0.1505
 2052SOL    HW2 7097   6.310   6.667   5.237 -1.3492  0.3560 -0.7920
 2053SOL     OW 7098   4.644   0.857   2.633 -0.0788 -0.0091  0.1127
 2053SOL    HW1 7099   4.628   0.850   2.727  0.9869  0.7472  0.3771
 2053SOL    HW2 7100   4.671   0.769   2.607 -0.3431 -0.2156  0.5224
 2054SOL     OW 7101   4.957   3.543   4.193 -0.0904 -0.7574 -0.4501
 2054SOL    HW1 7102   4.901   3.620   4.193  0.5149 -0.3052  0.2186
 2054SOL    HW2 7103   5.025   3.562   4.129  0.9458 -0.0554  0.8239
 2055SOL     OW 7104   1.354   2.968   5.698 -0.3040 -0.6031  0.2103
 2055SOL    HW1 7105   1.410   2.925   5.762  0.5135 -1.0570 -0.7771
 2055SOL    HW2 7106   1.346   2.904   5.627 -1.5313 -0.2838  0.0263
 2056SOL     OW 7107   6.508   7.256   0.382 -0.5116  0.4807  0.6208
 2056SOL    HW1 7108   6.546   7.172   0.408  0.4638 -0.3038 -2.8173
 2056SOL    HW2 7109   6.583   7.314   0.372 -0.8580  0.8344  0.0287
 2057SOL     OW 7110   4.952   6.039   5.752  0.6406 -0.3423 -0.0034
 2057SOL    HW1 7111   4.913   5.961   5.790  0.6124 -0.7310 -0.7985
 2057SOL    HW2 7112   5.034   6.051   5.799  1.4391 -1.8122 -0.9363
 2058SOL     OW 7113   2.459   3.454   6.291 -0.2744 -0.2025  0.4133
 2058SOL    HW1 7114   2.414   3.389   6.237  0.9715 -0.1454 -0.7172
 2058SOL    HW2 7115   2.395   3.525   6.300  0.1956  0.7791 -2.8540
 2059SOL     OW 7116   6.603   0.112   2.743 -0.4653 -0.4040 -0.1035
 2059SOL    HW1 7117   6.628   0.157   2.824 -0.1253 -0.8298  0.0311
 2059SOL    HW2 7118   6.598   0.020   2.768 -1.6168 -0.3928 -0.2663
 2060SOL     OW 7119   1.455   0.409   1.911  0.0378  0.6907  0.0522
 2060SOL    HW1 7120   1.460   0.453   1.996  2.9568 -3.0222  2.0525
 2060SOL    HW2 7121   1.545   0.407   1.880 -0.3691 -1.4841 -1.1713
 2061SOL     OW 7122   7.028   4.964   2.407  0.4267  0.7766 -0.7382
 2061SOL    HW1 7123   7.042   4.901   2.337 -0.2498  1.0150 -1.0991
 2061SOL    HW2 7124   6.956   5.019   2.375 -0.2518  0.5552  0.3650
 2062SOL     OW 7125   5.963   2.138   6.142  0.1646  0.4214 -0.0072
 2062SOL    HW1 7126   5.935   2.072   6.206  0.0587  0.7194  0.2570
 2062SOL    HW2 7127   5.939   2.221   6.182  0.7220  0.6438 -0.1303
 2063SOL     OW 7128   1.637   2.549   6.259  0.1551  0.7031  0.5452
 2063SOL    HW1 7129   1.630   2.606   6.336  3.4318 -0.3010  1.7911
 2063SOL    HW2 7130   1.620   2.461   6.293  0.7428  0.3531 -0.0410
 2064SOL     OW 7131   2.892   0.129   6.474  0.1200 -0.2757  0.2861
 2064SOL    HW1 7132   2.980   0.141   6.438 -0.2659 -0.9009 -0.8969
 2064SOL    HW2 7133   2.905   0.078   6.554  0.8587 -0.1042  0.2779
 2065SOL     OW 7134   7.129   6.251   6.536  0.2999  0.3754  0.3768
 2065SOL    HW1 7135   7.046   6.295   6.550  0.5000  0.6820  0.6203
 2065SOL    HW2 7136   7.117   6.202   6.454  0.1756  1.1355 -0.0697
 2066SOL     OW 7137   0.783   4.402   4.749  0.9372  0.3414  0.0352
 2066SOL    HW1 7138   0.841   4.382   4.823 -0.9733 -0.8568  1.2970
 2066SOL    HW2 7139   0.756   4.493   4.764  0.6959  0.1619  0.7455
 2067SOL     OW 7140   5.193   3.002   3.704  0.1431 -0.1582  0.4760
 2067SOL    HW1 7141   5.183   3.097   3.693 -0.2903 -0.2585 -0.0375
 2067SOL    HW2 7142   5.103   2.970   3.714  0.2246 -0.6079 -0.1803
 2068SOL     OW 7143   5.179   5.941   6.127  0.1622  0.4923 -0.5422
 2068SOL    HW1 7144   5.194   5.846   6.127  2.4138  0.7384  2.2107
 2068SOL    HW2 7145   5.108   5.954   6.189 -0.5444  0.5997 -1.3574
 2069SOL     OW 7146   6.132   5.989   6.277  0.2412 -0.0919 -0.2187
 2069SOL    HW1 7147   6.083   5.914   6.245 -1.7458  0.0437  2.2106
 2069SOL    HW2 7148   6.078   6.065   6.254  1.4011  0.4900 -1.1543
 2070SOL     OW 7149   0.316   0.835   5.219 -0.1445 -0.2001  1.0215
 2070SOL    HW1 7150   0.395   0.798   5.179  0.0773  0.2845  1.0061
 2070SOL    HW2 7151   0.243   0.792   5.174  0.0597  1.3408 -0.9268
 2071SOL     OW 7152   3.423   6.532   3.488 -0.1356  0.3729 -0.5210
 2071SOL    HW1 7153   3.329   6.543   3.473 -0.7270 -1.8089  1.1188
 2071SOL    HW2 7154   3.453   6.481   3.412 -0.1265  1.5641 -1.3383
 2072SOL     OW 7155   4.100   0.847   5.641 -0.1108  0.8177 -0.7376
 2072SOL    HW1 7156   4.100   0.849   5.737  0.4094  1.7358 -0.7373
 2072SOL    HW2 7157   4.191   0.866   5.617 -0.5025  1.9957 -1.4078
 2073SOL     OW 7158   4.847   6.227   2.750  0.1474 -0.0673 -0.0131
 2073SOL    HW1 7159   4.769   6.186   2.712  0.4366  0.3022 -1.0296
 2073SOL    HW2 7160   4.909   6.233   2.678  0.2115  1.9104  0.1418
 2074SOL     OW 7161   3.503   1.108   1.093 -0.9081  0.2668 -0.3644
 2074SOL    HW1 7162   3.445   1.099   1.168 -1.1695  2.7642 -0.1828
 2074SOL    HW2 7163   3.445   1.107   1.017 -0.9184  0.3738 -0.3572
 2075SOL     OW 7164   4.086   2.782   2.576 -0.1043  0.0703  0.7507
 2075SOL    HW1 7165   4.124   2.731   2.504 -1.3139 -1.0053  0.8411
 2075SOL    HW2 7166   4.134   2.865   2.575 -0.0514  0.0541 -1.2628
 2076SOL     OW 7167   0.647   5.741   6.878 -0.3031  0.4942 -0.1196
 2076SOL    HW1 7168   0.592   5.666   6.901 -0.1090  0.4750  0.2998
 2076SOL    HW2 7169   0.736   5.709   6.891 -0.2329  1.4399  2.2291
 2077SOL     OW 7170   4.765   4.615   1.631  0.0644  0.6016  0.2077
 2077SOL    HW1 7171   4.750   4.682   1.564  0.0064 -0.6638 -1.1057
 2077SOL    HW2 7172   4.754   4.660   1.714 -0.4116  2.1075 -0.6456
 2078SOL     OW 7173   2.062   4.577   4.815  0.5925 -0.1727 -0.2034
 2078SOL    HW1 7174   2.012   4.584   4.897  1.6547  1.1229  0.3780
 2078SOL    HW2 7175   2.033   4.652   4.763 -2.5510 -2.7400 -2.5512
 2079SOL     OW 7176   5.550   6.308   7.396 -0.0436  0.1629 -0.0399
 2079SOL    HW1 7177   5.635   6.312   7.352  0.9335 -0.4753  1.6967
 2079SOL    HW2 7178   5.556   6.374   7.466 -2.0374  2.0945 -1.5352
 2080SOL     OW 7179   6.697   6.388   0.376 -0.1167  0.4102 -0.1063
 2080SOL    HW1 7180   6.688   6.483   0.365 -0.7675  0.2068 -1.5768
 2080SOL    HW2 7181   6.682   6.352   0.288 -2.4932 -1.2233  0.8519
 2081SOL     OW 7182   1.284   1.638   3.239 -0.0878 -0.1137  0.6857
 2081SOL    HW1 7183   1.266   1.676   3.326 -0.3794 -0.2470  0.6842
 2081SOL    HW2 7184   1.379   1.626   3.238  0.1046  1.2384  0.4395
 2082SOL     OW 7185   4.155   3.016   5.622  0.3498  0.1523 -0.3319
 2082SOL    HW1 7186   4.248   3.008   5.645 -0.3651 -0.1214  2.7616
 2082SOL    HW2 7187   4.130   3.102   5.655 -0.8961 -0.4639  0.3480
 2083SOL     OW 7188   4.734   3.096   7.165  0.0597 -0.4850  0.6149
 2083SOL    HW1 7189   4.801   3.060   7.223  2.3141 -0.2934 -1.6815
 2083SOL    HW2 7190   4.770   3.086   7.077 -1.2117  3.1176 -0.5038
 2084SOL     OW 7191   3.075   5.693   0.218  0.4039 -1.0470  0.1321
 2084SOL    HW1 7192   3.157   5.738   0.238 -1.1349  1.6271  0.9905
 2084SOL    HW2 7193   3.089   5.655   0.131  1.5960  1.8835 -1.0753
 2085SOL     OW 7194   3.998   6.686   6.603  0.1749 -0.9090  0.4789
 2085SOL    HW1 7195   4.058   6.613   6.618  2.3089  0.4600 -0.8950
 2085SOL    HW2 7196   4.028   6.754   6.664 -1.2821 -0.8454  1.1775
 2086SOL     OW 7197   2.588   0.739   1.278 -0.3492 -0.6717  0.3286
 2086SOL    HW1 7198   2.565   0.762   1.368  0.0813  0.5227  0.1524
 2086SOL    HW2 7199   2.650   0.666   1.287  2.6920  1.8172  1.2673
 2087SOL     OW 7200   4.991   7.421   3.984  0.4219 -0.0667  0.4794
 2087SOL    HW1 7201   4.903   7.452   4.003  0.6553  1.9787 -1.3717
 2087SOL    HW2 7202   4.988   7.327   3.999 -2.6791 -0.4266 -1.6081
 2088SOL     OW 7203   6.913   4.764   3.300  0.0237 -0.3365 -0.1356
 2088SOL    HW1 7204   6.825   4.752   3.264 -0.9674  0.4229  1.9052
 2088SOL    HW2 7205   6.952   4.677   3.294 -0.6756 -0.5944 -1.4834
 2089SOL     OW 7206   2.785   5.735   6.189  0.3549 -0.4300  0.0905
 2089SOL    HW1 7207   2.714   5.734   6.125 -0.0055 -0.4230  0.4857
 2089SOL    HW2 7208   2.837   5.658   6.167  0.7892  0.1059 -0.8158
 2090SOL     OW 7209   4.545   6.730   4.779  0.1710  0.2437  1.0238
 2090SOL    HW1 7210   4.629   6.732   4.732  0.2578 -0.5540  1.1320
 2090SOL    HW2 7211   4.494   6.662   4.734 -0.1495  0.2259  1.4103
 2091SOL     OW 7212   1.194   4.750   6.985 -0.4921  0.1990  0.7028
 2091SOL    HW1 7213   1.184   4.845   6.979 -0.8442  0.0789 -1.2644
 2091SOL    HW2 7214   1.203   4.721   6.894  2.7346 -1.3417  1.3510
 2092SOL     OW 7215   3.107   4.843   3.236  0.0390 -0.2069  0.0177
 2092SOL    HW1 7216   3.094   4.915   3.175 -0.7513  0.7099  1.2216
 2092SOL    HW2 7217   3.035   4.782   3.216  0.3157 -0.3521 -0.5557
 2093SOL     OW 7218   4.150   1.584   4.372  0.2689  0.6401 -0.2489
 2093SOL    HW1 7219   4.098   1.660   4.346  2.1888  2.0334 -0.2471
 2093SOL    HW2 7220   4.149   1.587   4.468 -1.4170 -0.6538 -0.1833
 2094SOL     OW 7221   2.541   2.561   6.824 -0.3821 -0.0017  0.7080
 2094SOL    HW1 7222   2.515   2.478   6.863  0.3259 -1.8544 -2.3843
 2094SOL    HW2 7223   2.473   2.579   6.759  1.0275  0.1465 -0.7883
 2095SOL     OW 7224   6.340   6.126   0.937  0.4866 -0.4791 -0.2490
 2095SOL    HW1 7225   6.338   6.166   0.850 -0.1943  0.7941  0.3216
 2095SOL    HW2 7226   6.407   6.176   0.984 -0.1085 -0.2623  0.3676
 2096SOL     OW 7227   6.351   2.755   1.805 -0.5391 -0.0048  0.2251
 2096SOL    HW1 7228   6.288   2.827   1.803  0.4199  0.8487 -1.2473
 2096SOL    HW2 7229   6.427   2.790   1.851 -0.2099 -0.1937 -0.1674
 2097SOL     OW 7230   2.808   0.389   4.499 -0.7582 -0.2231  0.1589
 2097SOL    HW1 7231   2.715   0.370   4.495 -0.1167 -4.4911 -3.9544
 2097SOL    HW2 7232   2.833   0.408   4.408  2.6711 -1.9119  0.5548
 2098SOL     OW 7233   6.527   6.492   5.863 -0.0043 -0.7952 -0.2695
 2098SOL    HW1 7234   6.494   6.405   5.839  0.4865 -1.2318  0.6187
 2098SOL    HW2 7235   6.532   6.538   5.779 -1.3149 -1.2423 -0.6332
 2099SOL     OW 7236   1.928   2.910   2.717  0.2193 -0.1872  0.2255
 2099SOL    HW1 7237   1.876   2.922   2.797 -0.3675 -3.1029  0.3965
 2099SOL    HW2 7238   2.018   2.922   2.745 -0.0720  0.1934  1.0330
 2100SOL     OW 7239   2.970   4.407   6.539  0.3479 -0.3321 -0.9982
 2100SOL    HW1 7240   3.035   4.453   6.485 -0.0734  2.7043  0.8096
 2100SOL    HW2 7241   2.993   4.431   6.629 -2.5468 -0.0577 -0.2307
 2101SOL     OW 7242   5.883   3.886   2.804 -0.2258  0.5174  0.2108
 2101SOL    HW1 7243   5.877   3.854   2.714 -0.5089  2.2031 -0.3971
 2101SOL    HW2 7244   5.813   3.952   2.811 -1.8095 -1.2304  2.4104
 2102SOL     OW 7245   1.287   4.851   1.816 -0.5976 -0.4526  0.2600
 2102SOL    HW1 7246   1.275   4.946   1.807  2.1172 -0.0602  0.0233
 2102SOL    HW2 7247   1.321   4.823   1.731 -0.0189 -1.3799  0.7798
 2103SOL     OW 7248   6.866   6.278   2.145  0.2684 -0.4181 -0.4004
 2103SOL    HW1 7249   6.834   6.361   2.181  1.1873  0.0006 -0.5071
 2103SOL    HW2 7250   6.913   6.237   2.217 -0.3042 -0.9099 -0.3092
 2104SOL     OW 7251   5.535   1.628   0.462 -0.3170  0.3162 -0.1053
 2104SOL    HW1 7252   5.570   1.540   0.477  1.1580  0.8440 -0.2397
 2104SOL    HW2 7253   5.487   1.622   0.380  0.9358 -0.0696 -0.8388
 2105SOL     OW 7254   5.221   3.159   1.957 -0.9499 -0.2705  0.3656
 2105SOL    HW1 7255   5.236   3.225   2.025 -0.5135  1.9924 -1.8017
 2105SOL    HW2 7256   5.126   3.152   1.950 -1.0033  0.2374  0.5424
 2106SOL     OW 7257   0.214   4.474   3.554 -0.2253 -0.4873  0.1509
 2106SOL    HW1 7258   0.148   4.540   3.576  0.3601  0.2056 -0.1344
 2106SOL    HW2 7259   0.295   4.524   3.545  0.6679 -1.5064  2.0091
 2107SOL     OW 7260   2.843   0.887   2.103  0.2136  0.2445  0.4617
 2107SOL    HW1 7261   2.752   0.913   2.087  0.2215  0.1872  0.3162
 2107SOL    HW2 7262   2.836   0.799   2.140  0.2075  0.2640  0.5073
 2108SOL     OW 7263   6.847   1.107   4.612 -0.0588  0.7814  0.2984
 2108SOL    HW1 7264   6.851   1.185   4.556 -0.4435  1.0914  0.6846
 2108SOL    HW2 7265   6.797   1.043   4.561  2.1653 -0.0373 -0.9490
 2109SOL     OW 7266   0.323   0.056   0.126  0.3283 -0.3280 -0.2515
 2109SOL    HW1 7267   0.231   0.045   0.103  0.6712  1.1292 -2.6709
 2109SOL    HW2 7268   0.365  -0.025   0.098 -0.0816 -0.6234 -0.0110
 2110SOL     OW 7269   2.120   2.471   4.647  0.7577  0.0609 -0.0051
 2110SOL    HW1 7270   2.109   2.511   4.560  1.8493  3.5371  1.3090
 2110SOL    HW2 7271   2.199   2.418   4.639  1.2572  0.9124 -0.9725
 2111SOL     OW 7272   6.237   5.505   3.534 -0.2847 -0.7099  0.0449
 2111SOL    HW1 7273   6.218   5.412   3.541  0.7288 -0.8646  0.9854
 2111SOL    HW2 7274   6.329   5.513   3.561  0.0550  0.3855 -1.3197
 2112SOL     OW 7275   1.809   0.782   5.278 -0.6526  0.1573  0.7112
 2112SOL    HW1 7276   1.717   0.768   5.253 -0.9060  1.2037  1.0148
 2112SOL    HW2 7277   1.825   0.718   5.348 -1.3158  0.3309  1.0311
 2113SOL     OW 7278   0.324   3.953   6.609 -0.5384 -0.2111  0.1468
 2113SOL    HW1 7279   0.353   3.864   6.626 -2.5619 -0.7125  1.2528
 2113SOL    HW2 7280   0.261   3.946   6.538 -0.7820  0.3388  0.3002
 2114SOL     OW 7281   4.118   2.974   0.356 -0.1981 -0.5803  0.3716
 2114SOL    HW1 7282   4.180   3.046   0.374 -0.3886 -0.3900  0.2742
 2114SOL    HW2 7283   4.033   3.018   0.347 -0.2688 -0.7896  0.0323
 2115SOL     OW 7284   2.514   6.252   6.423 -0.2362  0.2513 -0.0748
 2115SOL    HW1 7285   2.492   6.166   6.458  0.7744  0.5456  1.3968
 2115SOL    HW2 7286   2.492   6.313   6.494 -1.3882  1.2909 -1.2594
 2116SOL     OW 7287   6.217   4.706   0.412  0.1178  0.4403  0.1142
 2116SOL    HW1 7288   6.265   4.663   0.482 -0.0710  1.4949  0.9136
 2116SOL    HW2 7289   6.276   4.774   0.380  0.2713 -0.1405 -0.8878
 2117SOL     OW 7290   0.695   4.881   0.222  0.3001 -0.5648 -0.5011
 2117SOL    HW1 7291   0.746   4.877   0.141  1.7785 -0.3099  0.3769
 2117SOL    HW2 7292   0.679   4.974   0.235  0.5707 -0.5536 -0.2206
 2118SOL     OW 7293   6.783   3.612   4.467  0.8778  0.1330  0.0751
 2118SOL    HW1 7294   6.846   3.624   4.396  1.8179  0.3032  0.9112
 2118SOL    HW2 7295   6.788   3.518   4.488 -1.6448 -0.5987 -2.0725
 2119SOL     OW 7296   1.840   3.029   6.361 -0.6941  0.3889 -0.3256
 2119SOL    HW1 7297   1.778   3.064   6.425  1.1021  3.7764 -0.2155
 2119SOL    HW2 7298   1.915   3.088   6.366  2.5823 -3.3923 -0.5327
 2120SOL     OW 7299   6.096   1.932   2.986  0.8100 -0.0281  0.0959
 2120SOL    HW1 7300   6.171   1.961   2.933  1.2346  1.0520  1.2345
 2120SOL    HW2 7301   6.117   1.842   3.009  0.5198 -0.5940 -1.7139
 2121SOL     OW 7302   7.197   1.204   4.777 -0.1744 -0.0811 -0.1275
 2121SOL    HW1 7303   7.284   1.244   4.783  1.3929 -3.2531  0.7456
 2121SOL    HW2 7304   7.191   1.172   4.687 -1.5187  2.1345 -0.8947
 2122SOL     OW 7305   4.291   1.942   3.055 -0.2480  0.0918 -0.0028
 2122SOL    HW1 7306   4.368   1.911   3.102  0.7980 -0.2466 -1.8825
 2122SOL    HW2 7307   4.260   2.017   3.107 -1.2049 -2.2243  3.1013
 2123SOL     OW 7308   3.329   1.633   3.190  0.3289 -0.6567 -0.1324
 2123SOL    HW1 7309   3.398   1.575   3.161 -0.3436 -1.3563 -0.3638
 2123SOL    HW2 7310   3.332   1.707   3.129  1.7544 -0.0030  0.6914
 2124SOL     OW 7311   0.622   2.903   4.239  0.2183  0.2710 -0.0103
 2124SOL    HW1 7312   0.654   2.884   4.327 -1.1827 -1.1629  0.2303
 2124SOL    HW2 7313   0.574   2.986   4.248  1.9243  1.2820  0.0760
 2125SOL     OW 7314   4.986   7.000   1.435 -0.1909  0.7928  0.0137
 2125SOL    HW1 7315   4.993   6.913   1.476 -3.3870  0.1375 -0.5951
 2125SOL    HW2 7316   5.004   6.984   1.343  0.6807  1.1067  0.1142
 2126SOL     OW 7317   4.848   0.027   3.129 -0.3193  0.0363 -0.5585
 2126SOL    HW1 7318   4.766   0.000   3.087  0.2466 -2.5133 -0.1909
 2126SOL    HW2 7319   4.904  -0.050   3.123  0.4227  0.0985  3.2910
 2127SOL     OW 7320   2.079   7.027   3.635  0.0395  0.1080 -0.3501
 2127SOL    HW1 7321   2.060   7.102   3.691  0.1184  0.2958 -0.5749
 2127SOL    HW2 7322   2.083   7.063   3.546 -1.2903 -0.3880 -0.6324
 2128SOL     OW 7323   2.570   2.104   6.639 -0.4843 -0.4822 -0.1832
 2128SOL    HW1 7324   2.620   2.087   6.719 -0.2396 -1.4153 -0.5193
 2128SOL    HW2 7325   2.600   2.190   6.610  0.8171 -0.9554 -0.2847
 2129SOL     OW 7326   1.094   3.546   7.103 -0.5408  0.3102 -0.3509
 2129SOL    HW1 7327   1.129   3.607   7.168 -0.0035 -0.2395 -0.1201
 2129SOL    HW2 7328   1.106   3.590   7.019  2.1320 -0.4766 -0.4492
 2130SOL     OW 7329   1.312   4.710   5.727  0.2017  0.1619  0.3573
 2130SOL    HW1 7330   1.300   4.711   5.822  0.1298 -1.6982  0.3983
 2130SOL    HW2 7331   1.235   4.757   5.693 -1.2758 -1.5655  1.1358
 2131SOL     OW 7332   4.434   6.098   0.085 -0.4879  0.2435  0.1268
 2131SOL    HW1 7333   4.380   6.100   0.163 -1.0022 -0.3273 -0.2091
 2131SOL    HW2 7334   4.477   6.013   0.087 -2.9517 -1.1697 -1.8106
 2132SOL     OW 7335   1.688   3.399   0.414 -0.4467  0.2780 -0.4280
 2132SOL    HW1 7336   1.719   3.370   0.500 -0.9024  0.2932 -0.2577
 2132SOL    HW2 7337   1.710   3.492   0.411 -1.4684  0.5580  0.1509
 2133SOL     OW 7338   0.913   2.188   3.129 -0.1779 -0.6444 -0.1390
 2133SOL    HW1 7339   0.843   2.150   3.076  0.2059  1.6625 -2.5120
 2133SOL    HW2 7340   0.869   2.256   3.181 -0.1579 -1.2351  0.6606
 2134SOL     OW 7341   5.041   5.761   4.372 -0.1287 -0.5321 -0.0564
 2134SOL    HW1 7342   4.989   5.699   4.424 -1.3937  0.7578  0.2622
 2134SOL    HW2 7343   4.977   5.818   4.331  1.0333  1.1134  0.3315
 2135SOL     OW 7344   1.664   0.651   2.435 -0.1659  0.8612  0.7134
 2135SOL    HW1 7345   1.658   0.556   2.431 -0.1883  0.8862  0.1550
 2135SOL    HW2 7346   1.574   0.681   2.423  0.0812  1.0079 -0.9479
 2136SOL     OW 7347   3.349   6.891   3.822  0.5370 -0.0861  0.4970
 2136SOL    HW1 7348   3.254   6.895   3.831  0.4129 -1.3232 -0.1519
 2136SOL    HW2 7349   3.366   6.926   3.734  0.6584 -0.1953  0.4776
 2137SOL     OW 7350   4.939   2.170   4.814  0.3237 -0.5337  0.2253
 2137SOL    HW1 7351   4.944   2.076   4.800 -0.2656 -0.5102 -0.1864
 2137SOL    HW2 7352   5.029   2.200   4.806  0.7656 -1.2678  1.9791
 2138SOL     OW 7353   2.944   6.890   6.448  0.1201 -0.1578  0.1530
 2138SOL    HW1 7354   2.893   6.879   6.368 -0.3216  2.1050  0.0658
 2138SOL    HW2 7355   3.034   6.902   6.418 -0.1992  1.7466 -0.1091
 2139SOL     OW 7356   3.925   7.067   3.810 -0.5827  0.6895 -0.2792
 2139SOL    HW1 7357   3.830   7.061   3.799 -0.5506 -1.2253  0.1557
 2139SOL    HW2 7358   3.960   7.026   3.731 -0.1716 -0.4108  0.4542
 2140SOL     OW 7359   0.597   4.762   0.501  0.5588 -0.1263  0.2542
 2140SOL    HW1 7360   0.657   4.753   0.575  1.7275  3.4708 -0.0245
 2140SOL    HW2 7361   0.651   4.798   0.431 -1.3706  0.6952 -0.8945
 2141SOL     OW 7362   7.323   2.472   2.696  0.2815  0.2597  0.2200
 2141SOL    HW1 7363   7.265   2.496   2.623  1.3272  0.0399 -0.7141
 2141SOL    HW2 7364   7.370   2.394   2.664  1.8099  1.0105  0.5440
 2142SOL     OW 7365   3.299   3.662   0.935 -0.3000  0.3907  0.0164
 2142SOL    HW1 7366   3.321   3.755   0.939 -1.1656  0.7465 -2.0795
 2142SOL    HW2 7367   3.227   3.657   0.872 -0.7399 -1.6383  0.5839
 2143SOL     OW 7368   4.466   2.437   4.494  0.1151  0.5418  0.0112
 2143SOL    HW1 7369   4.506   2.489   4.564  0.8521 -0.8357  0.6440
 2143SOL    HW2 7370   4.536   2.379   4.465 -0.9920 -0.8524  0.0628
 2144SOL     OW 7371   3.830   3.079   6.010  0.5538  0.3726 -0.4435
 2144SOL    HW1 7372   3.809   3.119   6.094  1.4969  0.3389 -0.1815
 2144SOL    HW2 7373   3.810   2.986   6.022  1.3752  0.2391  0.0002
 2145SOL     OW 7374   4.262   0.645   2.790  0.2318 -0.3560 -0.2495
 2145SOL    HW1 7375   4.310   0.687   2.719 -1.3325  0.2817 -0.9793
 2145SOL    HW2 7376   4.296   0.686   2.869  1.6188 -0.6843 -0.6532
 2146SOL     OW 7377   2.255   5.313   5.290  0.2803  0.0589  0.2385
 2146SOL    HW1 7378   2.232   5.241   5.231  1.1215 -0.2203  0.2351
 2146SOL    HW2 7379   2.177   5.327   5.343 -0.0530 -0.5420 -0.0853
 2147SOL     OW 7380   4.402   2.443   2.737 -0.0141  0.5268 -0.1717
 2147SOL    HW1 7381   4.442   2.357   2.743 -0.3628  0.3910  0.3076
 2147SOL    HW2 7382   4.384   2.467   2.828 -1.6613  0.2736 -0.3934
 2148SOL     OW 7383   3.567   5.407   3.823 -0.3754  0.2583  0.1058
 2148SOL    HW1 7384   3.514   5.394   3.902 -0.4221 -0.2503 -0.0106
 2148SOL    HW2 7385   3.504   5.419   3.753 -0.4285 -2.7857 -0.4841
 2149SOL     OW 7386   3.083   6.507   3.714  0.5721  0.3320  0.9365
 2149SOL    HW1 7387   3.046   6.442   3.654 -1.0038 -0.5066  2.7300
 2149SOL    HW2 7388   3.168   6.471   3.740 -0.4944 -1.3282  2.3013
 2150SOL     OW 7389   1.671   5.947   0.834 -0.6213 -0.5386 -0.5620
 2150SOL    HW1 7390   1.705   5.975   0.919 -1.3316  1.6307 -0.9135
 2150SOL    HW2 7391   1.744   5.960   0.773 -1.3113  2.1513 -0.9623
 2151SOL     OW 7392   4.914   5.083   2.357 -0.9122  0.2843 -0.0496
 2151SOL    HW1 7393   4.887   5.037   2.436 -2.0440 -0.7251 -0.9744
 2151SOL    HW2 7394   4.878   5.030   2.285  1.7652  0.0325 -1.3444
 2152SOL     OW 7395   5.622   1.254   6.899 -0.7883 -0.1565  0.0301
 2152SOL    HW1 7396   5.632   1.344   6.866 -1.8009 -0.0350 -0.0016
 2152SOL    HW2 7397   5.711   1.224   6.915 -0.3150  0.1740 -1.7637
 2153SOL     OW 7398   4.526   3.206   2.617 -0.1999 -0.0310  0.5087
 2153SOL    HW1 7399   4.472   3.212   2.538 -1.3058 -0.3309  1.2252
 2153SOL    HW2 7400   4.593   3.141   2.595  0.4261  0.9629 -0.6829
 2154SOL     OW 7401   3.707   4.412   6.433 -0.1583  0.2489  0.4014
 2154SOL    HW1 7402   3.652   4.490   6.443 -1.5414 -0.6863  0.3965
 2154SOL    HW2 7403   3.668   4.364   6.360  1.7190  0.3707 -0.7449
 2155SOL     OW 7404   1.339   3.152   6.225  0.3528 -0.6731 -0.7467
 2155SOL    HW1 7405   1.388   3.166   6.144 -0.4505 -1.4744 -1.3958
 2155SOL    HW2 7406   1.248   3.143   6.196 -0.1633  0.6297  0.4165
 2156SOL     OW 7407   3.362   0.876   0.133  0.3509  0.4839 -0.2191
 2156SOL    HW1 7408   3.337   0.939   0.066  0.6405  1.1776  0.3196
 2156SOL    HW2 7409   3.442   0.911   0.170  1.5698 -1.1505 -1.1783
 2157SOL     OW 7410   6.303   5.617   5.392 -0.2066 -0.1135 -0.1959
 2157SOL    HW1 7411   6.336   5.696   5.348  0.7497  0.9785  2.2636
 2157SOL    HW2 7412   6.349   5.545   5.349  2.1940  1.0436  0.2066
 2158SOL     OW 7413   1.414   4.785   4.891 -0.2829 -0.2555 -0.3519
 2158SOL    HW1 7414   1.472   4.767   4.817 -0.2281 -1.5666 -0.0217
 2158SOL    HW2 7415   1.343   4.837   4.854  0.9956  1.2426 -0.7916
 2159SOL     OW 7416   6.286   4.514   2.879  0.3934  0.0015 -0.3459
 2159SOL    HW1 7417   6.220   4.446   2.870  0.1820  0.0962  0.4024
 2159SOL    HW2 7418   6.314   4.533   2.789 -0.5134 -0.1217 -0.6644
 2160SOL     OW 7419   0.649   0.384   0.982 -0.3657  0.0285  0.3390
 2160SOL    HW1 7420   0.577   0.391   0.920  0.7699 -0.8658 -1.1564
 2160SOL    HW2 7421   0.689   0.299   0.962  1.5663  0.8306  0.5896
 2161SOL     OW 7422   3.049   2.465   2.245 -0.2253 -0.8819  0.1965
 2161SOL    HW1 7423   2.986   2.412   2.196 -0.8389  0.4127 -0.4741
 2161SOL    HW2 7424   3.109   2.401   2.283  0.0720 -1.9812 -1.9283
 2162SOL     OW 7425   7.082   4.214   2.359 -0.1295  0.6062  0.2817
 2162SOL    HW1 7426   7.070   4.241   2.450  1.6401 -0.3169  0.8505
 2162SOL    HW2 7427   7.052   4.123   2.357 -2.4380  1.3281 -0.6857
 2163SOL     OW 7428   2.525   5.509   5.223 -0.0522 -0.3208  0.3416
 2163SOL    HW1 7429   2.447   5.523   5.277  0.0883  2.9373 -0.0646
 2163SOL    HW2 7430   2.593   5.563   5.264  0.1683  2.0155 -2.6730
 2164SOL     OW 7431   4.061   0.324   2.540 -0.0324 -0.5925  0.0351
 2164SOL    HW1 7432   4.014   0.348   2.460 -0.0249 -0.9711 -0.0882
 2164SOL    HW2 7433   4.144   0.371   2.536 -1.1992  1.7391  1.2498
 2165SOL     OW 7434   6.812   6.738   3.495 -0.1661  0.4284  0.2005
 2165SOL    HW1 7435   6.806   6.662   3.437 -0.2946  1.3147 -0.9758
 2165SOL    HW2 7436   6.760   6.713   3.572 -1.0301 -0.3038 -0.5932
 2166SOL     OW 7437   4.251   0.990   2.094  0.2928 -0.5378 -0.1068
 2166SOL    HW1 7438   4.274   0.944   2.013 -1.0684  0.4814 -1.1225
 2166SOL    HW2 7439   4.243   0.921   2.160  0.8691 -1.4506 -0.9674
 2167SOL     OW 7440   2.463   1.932   0.501  0.3861  0.0368  0.4999
 2167SOL    HW1 7441   2.393   1.955   0.440  1.4139  0.0688 -0.6992
 2167SOL    HW2 7442   2.471   2.008   0.558  1.5377  1.3903 -1.3500
 2168SOL     OW 7443   4.270   2.164   5.017  0.0141  0.5754 -0.3456
 2168SOL    HW1 7444   4.219   2.244   5.002 -0.1535  0.2905 -1.4040
 2168SOL    HW2 7445   4.265   2.117   4.934  1.3076  0.1414 -0.1956
 2169SOL     OW 7446   6.865   2.975   5.123 -0.5340  0.7253  0.3872
 2169SOL    HW1 7447   6.934   3.032   5.157 -0.3871  0.6311  0.2497
 2169SOL    HW2 7448   6.912   2.896   5.094 -0.8079  0.2418  1.2178
 2170SOL     OW 7449   0.728   4.133   2.722  0.5048  0.2489 -0.1636
 2170SOL    HW1 7450   0.732   4.072   2.648 -1.3413  0.3787 -0.4052
 2170SOL    HW2 7451   0.785   4.093   2.788 -1.5000 -2.3836  0.1211
 2171SOL     OW 7452   0.087   6.496   3.491 -0.7191  0.7505  0.3276
 2171SOL    HW1 7453   0.063   6.438   3.419 -0.6907  2.3724 -1.0387
 2171SOL    HW2 7454   0.117   6.437   3.560  0.8570 -0.8170 -1.5724
 2172SOL     OW 7455   4.576   5.886   6.603  0.0872  0.5357  0.1852
 2172SOL    HW1 7456   4.607   5.798   6.584  0.6930  0.6449  0.6568
 2172SOL    HW2 7457   4.498   5.874   6.656  1.1531  0.2929  1.7520
 2173SOL     OW 7458   2.653   7.309   0.785  0.1753 -0.0932  0.3659
 2173SOL    HW1 7459   2.724   7.295   0.848 -0.0533 -1.0432  0.4337
 2173SOL    HW2 7460   2.679   7.387   0.736 -0.1274  1.2591  2.2738
 2174SOL     OW 7461   6.490   5.389   3.661  0.2753 -0.2484  0.5336
 2174SOL    HW1 7462   6.531   5.438   3.731  1.0398 -0.6927  0.4055
 2174SOL    HW2 7463   6.452   5.313   3.704  0.6945 -0.4914  0.4812
 2175SOL     OW 7464   3.694   6.762   4.996  0.1509  0.1836 -0.0591
 2175SOL    HW1 7465   3.780   6.722   4.982 -0.2536 -0.3776 -1.0167
 2175SOL    HW2 7466   3.683   6.822   4.922 -1.3857 -1.7116 -1.4726
 2176SOL     OW 7467   0.607   1.340   6.023  0.0045  0.3622  0.3179
 2176SOL    HW1 7468   0.695   1.371   6.044 -0.3553  2.3284 -0.8002
 2176SOL    HW2 7469   0.598   1.355   5.929 -1.1522 -0.8291  0.2117
 2177SOL     OW 7470   1.741   2.440   3.999 -0.3024  0.9858  0.1360
 2177SOL    HW1 7471   1.670   2.378   3.982 -0.0233 -0.3226  3.1161
 2177SOL    HW2 7472   1.713   2.487   4.078  1.3878  1.6686  0.3609
 2178SOL     OW 7473   5.157   6.739   6.057 -0.5178 -0.5737  0.3214
 2178SOL    HW1 7474   5.114   6.661   6.022  0.3773 -0.5159 -0.9883
 2178SOL    HW2 7475   5.251   6.719   6.050 -0.2975  0.2002  0.9562
 2179SOL     OW 7476   6.501   3.284   4.378  0.5295 -0.3212 -0.1980
 2179SOL    HW1 7477   6.449   3.312   4.303 -0.4353 -0.4378  0.3987
 2179SOL    HW2 7478   6.522   3.192   4.360  0.2826 -0.3558 -0.3131
 2180SOL     OW 7479   0.335   6.442   4.404  0.5341  0.3483 -0.0242
 2180SOL    HW1 7480   0.409   6.403   4.451  0.9491  0.6345 -0.4344
 2180SOL    HW2 7481   0.340   6.405   4.316 -0.7397 -0.8403  0.3670
 2181SOL     OW 7482   0.065   1.955   2.661 -0.0958  0.4557  0.6149
 2181SOL    HW1 7483   0.108   1.978   2.578  0.2335 -0.2407  0.5848
 2181SOL    HW2 7484  -0.018   2.004   2.659 -0.4112 -0.0750 -0.4436
 2182SOL     OW 7485   5.249   0.744   0.581 -0.3620  0.0907 -0.2931
 2182SOL    HW1 7486   5.334   0.784   0.561 -0.7970 -0.0295 -2.7452
 2182SOL    HW2 7487   5.257   0.713   0.671  2.2515 -0.0730 -0.5113
 2183SOL     OW 7488   5.402   1.294   0.849 -0.3908 -0.1855  0.2688
 2183SOL    HW1 7489   5.491   1.263   0.864 -1.4018 -3.3221  0.4300
 2183SOL    HW2 7490   5.367   1.237   0.781 -2.7039  0.0109  1.1746
 2184SOL     OW 7491   3.885   0.106   7.091  0.1580  0.2103  0.0740
 2184SOL    HW1 7492   3.937   0.073   7.017  0.1276 -1.8824  0.8985
 2184SOL    HW2 7493   3.940   0.173   7.131  0.9271  0.1383 -0.8195
 2185SOL     OW 7494   3.345   0.014   0.127 -0.0249 -0.3674  0.2955
 2185SOL    HW1 7495   3.305   0.018   0.040  0.0695 -2.1014  0.1475
 2185SOL    HW2 7496   3.435   0.044   0.114  0.0871 -0.9519 -0.2718
 2186SOL     OW 7497   5.576   3.776   0.747  0.0111  0.6640  0.1217
 2186SOL    HW1 7498   5.550   3.750   0.835 -0.3875  0.1990 -0.1305
 2186SOL    HW2 7499   5.603   3.867   0.756  3.1300 -0.2774  1.3692
 2187SOL     OW 7500   0.475   4.758   6.016 -0.0318  0.3207 -0.0487
 2187SOL    HW1 7501   0.501   4.832   6.071  2.5057 -1.3854  1.2486
 2187SOL    HW2 7502   0.480   4.682   6.074 -0.3492 -1.1714 -1.8817
 2188SOL     OW 7503   0.819   0.455   1.649 -0.0425  0.3275 -0.2797
 2188SOL    HW1 7504   0.793   0.419   1.564 -1.4377 -0.6197  0.5216
 2188SOL    HW2 7505   0.835   0.548   1.631 -3.0638  0.7999 -1.0951
 2189SOL     OW 7506   0.865   2.562   4.452 -0.1137 -0.2405  0.3401
 2189SOL    HW1 7507   0.847   2.468   4.440 -1.3466  0.0725 -0.3835
 2189SOL    HW2 7508   0.960   2.568   4.446  0.0440 -1.5376  1.0705
 2190SOL     OW 7509   6.022   2.157   5.874  0.0642 -0.2957 -0.1842
 2190SOL    HW1 7510   6.009   2.251   5.885  1.0482 -0.3227  1.6367
 2190SOL    HW2 7511   6.003   2.120   5.960 -1.1514 -1.8888 -1.1036
 2191SOL     OW 7512   6.680   0.855   4.194 -0.0741  0.6603 -0.3715
 2191SOL    HW1 7513   6.726   0.782   4.152  1.8379  0.8366  1.2713
 2191SOL    HW2 7514   6.630   0.896   4.123  0.5091 -0.9284 -1.7697
 2192SOL     OW 7515   3.266   5.519   0.490  0.4379 -0.1223  0.5020
 2192SOL    HW1 7516   3.243   5.462   0.563 -0.1965  0.2082  0.5671
 2192SOL    HW2 7517   3.227   5.604   0.513  2.0488  0.5658  0.7933
 2193SOL     OW 7518   1.338   5.850   2.155 -0.3700  0.0100 -0.3819
 2193SOL    HW1 7519   1.279   5.913   2.197 -0.4205  1.3584 -2.3905
 2193SOL    HW2 7520   1.280   5.794   2.104 -0.0700  0.1440 -0.8685
 2194SOL     OW 7521   6.397   3.034   2.651 -0.0191  0.7388  0.5139
 2194SOL    HW1 7522   6.452   3.027   2.572 -2.9593  1.0576 -1.7236
 2194SOL    HW2 7523   6.405   3.126   2.677  2.2427  0.2832  1.6898
 2195SOL     OW 7524   1.501   6.340   4.374 -0.4612  0.2741 -0.0630
 2195SOL    HW1 7525   1.422   6.333   4.320 -1.2977 -0.0940  1.1489
 2195SOL    HW2 7526   1.566   6.288   4.328 -1.2702 -0.3781 -0.5087
 2196SOL     OW 7527   2.466   3.758   6.545 -0.4162  0.1398  0.4984
 2196SOL    HW1 7528   2.376   3.727   6.551 -0.2212 -1.2079 -1.9439
 2196SOL    HW2 7529   2.458   3.849   6.515 -1.0223 -0.4047 -1.1252
 2197SOL     OW 7530   2.573   0.880   4.087  0.5569 -0.1407  0.5506
 2197SOL    HW1 7531   2.656   0.917   4.056 -0.7067  2.1545 -0.3343
 2197SOL    HW2 7532   2.512   0.896   4.016 -1.2383  0.5906  2.1695
 2198SOL     OW 7533   3.322   0.776   4.151  0.5224 -0.0807 -0.9879
 2198SOL    HW1 7534   3.266   0.833   4.205  2.7475  0.0156  1.3951
 2198SOL    HW2 7535   3.284   0.689   4.161 -1.2821  0.4829 -2.4116
 2199SOL     OW 7536   4.384   7.061   4.957 -0.1737 -0.2459 -0.2234
 2199SOL    HW1 7537   4.463   7.078   5.009  1.1005 -0.4782 -1.9895
 2199SOL    HW2 7538   4.354   6.975   4.985  0.8534 -0.6386 -0.2939
 2200SOL     OW 7539   4.090   5.575   0.437 -0.6751 -0.0331 -0.3660
 2200SOL    HW1 7540   4.094   5.670   0.454 -0.2980  0.0285 -0.7948
 2200SOL    HW2 7541   4.178   5.552   0.409  0.8399 -1.4574  4.5417
 2201SOL     OW 7542   6.884   0.068   1.509  0.3798 -0.5789  0.8011
 2201SOL    HW1 7543   6.836   0.048   1.428 -1.1705 -0.7617  1.7270
 2201SOL    HW2 7544   6.923   0.153   1.493  0.0344 -0.5825 -0.1234
 2202SOL     OW 7545   6.629   0.224   5.685 -0.3237  0.4831 -0.9281
 2202SOL    HW1 7546   6.677   0.300   5.651 -0.2095 -0.9881 -4.4926
 2202SOL    HW2 7547   6.698   0.161   5.707 -0.4823  0.3708 -0.7556
 2203SOL     OW 7548   3.049   5.710   1.533 -0.1121  0.2771 -0.1723
 2203SOL    HW1 7549   2.988   5.652   1.580 -1.4557  1.2939 -0.5936
 2203SOL    HW2 7550   3.089   5.764   1.601 -0.8303  0.6353 -0.0242
 2204SOL     OW 7551   1.553   1.428   1.131 -0.5912  0.2796  0.3318
 2204SOL    HW1 7552   1.641   1.399   1.105  0.1423  0.7633  2.1435
 2204SOL    HW2 7553   1.546   1.517   1.095 -0.6749 -0.0541 -0.5053
 2205SOL     OW 7554   2.723   3.552   7.278  0.0222 -0.0045 -0.1273
 2205SOL    HW1 7555   2.683   3.490   7.218 -2.1519  0.1802  1.0142
 2205SOL    HW2 7556   2.723   3.635   7.231  0.0507 -0.2314 -0.5299
 2206SOL     OW 7557   6.334   2.066   2.153 -0.1674  0.3236  0.5976
 2206SOL    HW1 7558   6.260   2.115   2.117  0.3787  2.3199  2.0483
 2206SOL    HW2 7559   6.410   2.097   2.104 -0.1758 -1.6016 -0.7745
 2207SOL     OW 7560   0.564   0.039   4.554  0.1392  0.3204  0.1866
 2207SOL    HW1 7561   0.481   0.086   4.544  0.4569  1.2305  1.5343
 2207SOL    HW2 7562   0.609   0.051   4.470 -0.2187  1.5966  0.1542
 2208SOL     OW 7563   2.879   0.383   6.747 -0.6016  0.5551  0.0523
 2208SOL    HW1 7564   2.857   0.390   6.840 -1.6222 -0.7675 -0.0531
 2208SOL    HW2 7565   2.866   0.290   6.727  2.1774  0.2715 -0.7993
 2209SOL     OW 7566   5.165   0.343   0.816 -0.4254  0.2752 -0.1031
 2209SOL    HW1 7567   5.196   0.428   0.785  1.8701 -0.3278  0.3594
 2209SOL    HW2 7568   5.146   0.294   0.736  0.4775  0.4582 -0.4375
 2210SOL     OW 7569   0.375   4.813   1.489  0.2176 -0.4667  0.1837
 2210SOL    HW1 7570   0.373   4.732   1.541  1.4730 -0.7039 -0.0995
 2210SOL    HW2 7571   0.340   4.880   1.548 -2.6045 -1.5009 -0.1939
 2211SOL     OW 7572   5.951   5.712   1.088 -0.4034  0.4871 -0.1843
 2211SOL    HW1 7573   6.032   5.680   1.127 -0.1460  1.0574 -0.2468
 2211SOL    HW2 7574   5.976   5.794   1.044 -1.1043  0.9098  0.1951
 2212SOL     OW 7575   2.487   2.654   5.273 -0.4352  0.1794  0.0696
 2212SOL    HW1 7576   2.559   2.714   5.291  1.7458 -1.9215 -1.0539
 2212SOL    HW2 7577   2.457   2.625   5.359  0.5682  0.5493  0.5565
 2213SOL     OW 7578   5.581   1.822   4.509 -0.0386 -0.3068  0.3803
 2213SOL    HW1 7579   5.586   1.765   4.586  0.1728 -0.9109 -0.0711
 2213SOL    HW2 7580   5.665   1.809   4.464 -0.1104  0.1338  0.1134
 2214SOL     OW 7581   4.798   6.665   1.899 -0.4057  0.7261  0.0667
 2214SOL    HW1 7582   4.727   6.603   1.914 -0.6007  0.0151 -3.0489
 2214SOL    HW2 7583   4.874   6.626   1.942 -1.0819 -0.4251  0.2470
 2215SOL     OW 7584   2.990   3.917   1.662 -0.4087  0.4433 -0.2795
 2215SOL    HW1 7585   3.080   3.950   1.670 -0.8278  1.4290  0.6756
 2215SOL    HW2 7586   2.989   3.871   1.578  1.7301 -1.9885  0.8663
 2216SOL     OW 7587   1.402   2.669   6.712  0.4542  0.1483  0.2941
 2216SOL    HW1 7588   1.405   2.759   6.678  0.7140  0.1087  0.2164
 2216SOL    HW2 7589   1.350   2.676   6.792 -1.5070 -0.0147 -0.9037
 2217SOL     OW 7590   4.131   6.807   2.916  0.4418  0.0080 -0.1587
 2217SOL    HW1 7591   4.053   6.861   2.927  0.2965  0.6553 -3.5182
 2217SOL    HW2 7592   4.203   6.871   2.907  0.7799 -0.4615 -0.8369
 2218SOL     OW 7593   5.384   6.639   3.151 -0.0229  0.0425 -0.0300
 2218SOL    HW1 7594   5.401   6.590   3.071 -0.3375  1.7608 -1.1898
 2218SOL    HW2 7595   5.289   6.651   3.152 -0.2773 -1.5544  1.6167
 2219SOL     OW 7596   6.579   1.877   1.783  0.5364 -0.0940  0.4934
 2219SOL    HW1 7597   6.545   1.929   1.711  1.6005 -0.8343 -0.5647
 2219SOL    HW2 7598   6.519   1.802   1.788  1.6998 -1.1833 -1.0990
 2220SOL     OW 7599   0.223   7.122   0.321 -0.3514 -0.1308  0.3292
 2220SOL    HW1 7600   0.281   7.059   0.365 -0.1990 -0.2261 -0.0072
 2220SOL    HW2 7601   0.263   7.136   0.236  0.1551  1.1823  0.7631
 2221SOL     OW 7602   0.869   5.013   4.209 -0.2265 -0.1553 -0.0726
 2221SOL    HW1 7603   0.936   4.988   4.145  0.8935 -0.1823  1.0879
 2221SOL    HW2 7604   0.907   5.087   4.256 -1.5402  0.6410 -0.2315
 2222SOL     OW 7605   6.893   2.378   5.388  0.0755 -0.3320 -0.4250
 2222SOL    HW1 7606   6.954   2.446   5.361 -0.5059  0.7394  0.8526
 2222SOL    HW2 7607   6.810   2.402   5.348  0.1553 -1.0323 -1.0374
 2223SOL     OW 7608   1.661   6.993   3.590 -0.1222 -0.4344 -0.4761
 2223SOL    HW1 7609   1.577   6.960   3.623  0.0088 -0.9248 -0.6234
 2223SOL    HW2 7610   1.650   6.992   3.495 -1.0859  2.4906 -0.4919
 2224SOL     OW 7611   2.116   5.333   4.963 -0.0097 -0.0104 -0.7017
 2224SOL    HW1 7612   2.054   5.366   4.898  0.5574  1.6024 -0.4803
 2224SOL    HW2 7613   2.062   5.300   5.034 -0.6199 -0.3118 -1.2914
 2225SOL     OW 7614   3.516   3.868   6.931  0.6254  0.0045  0.4145
 2225SOL    HW1 7615   3.436   3.822   6.908  0.8788  0.3664 -1.3645
 2225SOL    HW2 7616   3.532   3.928   6.858  2.0371  0.5816  1.1378
 2226SOL     OW 7617   0.445   0.428   5.661 -0.3162 -0.1164 -0.3782
 2226SOL    HW1 7618   0.499   0.498   5.624  0.1904  0.6004  1.6127
 2226SOL    HW2 7619   0.466   0.351   5.607  3.0283  0.0376  0.4406
 2227SOL     OW 7620   7.222   2.590   6.497 -0.0013  0.7847 -0.1743
 2227SOL    HW1 7621   7.229   2.684   6.484 -0.6714  1.4290  3.1312
 2227SOL    HW2 7622   7.128   2.572   6.498  0.0389  0.5170  1.2940
 2228SOL     OW 7623   1.750   3.479   3.663 -0.6666  0.4115  0.1839
 2228SOL    HW1 7624   1.689   3.433   3.721 -1.9235  2.0562  0.2282
 2228SOL    HW2 7625   1.705   3.482   3.578 -0.1576  0.6773 -0.0792
 2229SOL     OW 7626   2.600   1.481   2.869  0.1714  0.6786 -0.2298
 2229SOL    HW1 7627   2.616   1.470   2.963 -1.2808  1.2444  0.1063
 2229SOL    HW2 7628   2.542   1.409   2.846  0.1675  0.8020 -0.6113
 2230SOL     OW 7629   3.786   7.128   2.235  0.1306  0.3781  0.5206
 2230SOL    HW1 7630   3.785   7.180   2.316 -2.3155  0.2250  0.6534
 2230SOL    HW2 7631   3.698   7.137   2.200  1.5916  1.9724 -3.2130
 2231SOL     OW 7632   0.876   0.574   7.189  0.0474 -0.7070 -0.2174
 2231SOL    HW1 7633   0.964   0.572   7.227  0.9659 -2.3060 -2.2006
 2231SOL    HW2 7634   0.817   0.583   7.264  1.8959  1.5698  1.0974
 2232SOL     OW 7635   6.075   1.258   3.739 -0.0328  0.3309 -0.4320
 2232SOL    HW1 7636   6.056   1.278   3.831 -2.2581 -0.6826 -0.6162
 2232SOL    HW2 7637   6.046   1.168   3.727  0.0095  0.5193 -2.2002
 2233SOL     OW 7638   3.343   5.920   3.406  0.2419 -0.4183  0.4079
 2233SOL    HW1 7639   3.338   5.903   3.312 -1.1964  0.8561  0.2209
 2233SOL    HW2 7640   3.420   5.976   3.416 -0.7681  1.1595 -0.3244
 2234SOL     OW 7641   6.590   0.346   7.231 -0.7606  0.4352 -0.4509
 2234SOL    HW1 7642   6.525   0.334   7.301  0.6262 -1.3931  0.6102
 2234SOL    HW2 7643   6.552   0.302   7.155 -1.2181  0.2835 -0.1416
 2235SOL     OW 7644   3.986   4.729   0.827 -0.7514 -0.2394  0.4628
 2235SOL    HW1 7645   4.060   4.742   0.768  0.3279 -0.5834  1.6822
 2235SOL    HW2 7646   3.932   4.807   0.816 -1.0837 -0.7110 -1.6225
 2236SOL     OW 7647   6.201   5.913   3.391 -0.4680  0.8066 -0.0278
 2236SOL    HW1 7648   6.132   5.881   3.449  0.7717 -0.7922  0.6707
 2236SOL    HW2 7649   6.280   5.914   3.446  0.5058  0.3829 -1.3471
 2237SOL     OW 7650   2.798   5.962   2.433  0.5341  0.7551 -0.6050
 2237SOL    HW1 7651   2.718   6.010   2.414  0.3158  0.2536 -0.9656
 2237SOL    HW2 7652   2.808   5.967   2.528 -0.0323  0.6409 -0.5405
 2238SOL     OW 7653   1.678   2.958   1.312 -0.0949  0.3796  0.6162
 2238SOL    HW1 7654   1.679   3.047   1.276  1.3869 -0.3552 -1.3588
 2238SOL    HW2 7655   1.626   2.907   1.249 -1.0511 -0.1478  1.8019
 2239SOL     OW 7656   7.283   3.164   3.752  0.0870  0.4714 -0.1225
 2239SOL    HW1 7657   7.363   3.127   3.715  0.3035  1.6616 -0.9227
 2239SOL    HW2 7658   7.221   3.164   3.679 -0.5764 -0.2131  0.4247
 2240SOL     OW 7659   6.324   2.917   0.946 -0.5151  0.3023 -0.3350
 2240SOL    HW1 7660   6.297   3.007   0.927 -1.2598 -0.0615 -1.0957
 2240SOL    HW2 7661   6.245   2.876   0.982  0.0504  0.1653  0.7929
 2241SOL     OW 7662   7.309   7.104   2.384 -0.2848  0.6251 -0.0646
 2241SOL    HW1 7663   7.312   7.194   2.416  1.8921  2.2057 -4.0479
 2241SOL    HW2 7664   7.217   7.090   2.360 -0.7518  1.5542  1.0911
 2242SOL     OW 7665   4.356   2.737   3.921  0.4184  0.1264  1.0391
 2242SOL    HW1 7666   4.442   2.694   3.923  0.9245  0.6480 -2.8484
 2242SOL    HW2 7667   4.374   2.826   3.890 -1.4711  0.4670  0.7993
 2243SOL     OW 7668   5.679   4.052   1.422 -0.2863 -0.1296  0.4829
 2243SOL    HW1 7669   5.686   3.957   1.425 -0.4770 -0.1227  2.3388
 2243SOL    HW2 7670   5.765   4.083   1.453  0.9104  0.4240 -2.9071
 2244SOL     OW 7671   1.471   6.435   3.158  0.2796 -0.1037 -0.7503
 2244SOL    HW1 7672   1.443   6.377   3.229  2.8541  0.6306  1.0241
 2244SOL    HW2 7673   1.439   6.522   3.184 -0.8258 -0.1759 -1.7740
 2245SOL     OW 7674   2.485   2.171   2.471 -0.3887 -0.1703 -0.1146
 2245SOL    HW1 7675   2.551   2.102   2.479 -0.4423 -0.2513 -0.3699
 2245SOL    HW2 7676   2.420   2.150   2.537 -0.1763 -0.1116  0.1134
 2246SOL     OW 7677   0.162   4.709   4.728  0.5208 -0.2378 -0.0512
 2246SOL    HW1 7678   0.161   4.621   4.766  1.5808 -0.4352 -0.4397
 2246SOL    HW2 7679   0.192   4.696   4.638  0.1760  0.4664 -0.2764
 2247SOL     OW 7680   6.723   4.031   1.267 -0.5582 -0.0208  0.0047
 2247SOL    HW1 7681   6.662   4.074   1.208 -0.9406 -1.5682 -0.7918
 2247SOL    HW2 7682   6.667   3.985   1.330 -0.2928 -1.9054 -1.0586
 2248SOL     OW 7683   4.774   5.403   1.328  0.0816  0.9531  0.1846
 2248SOL    HW1 7684   4.707   5.408   1.395 -0.6092 -0.0641 -0.4021
 2248SOL    HW2 7685   4.855   5.387   1.376 -0.6032 -1.1873  0.7381
 2249SOL     OW 7686   1.026   5.693   6.612 -0.3467  0.1483  0.3855
 2249SOL    HW1 7687   1.017   5.715   6.519 -2.7180 -2.8386 -0.2538
 2249SOL    HW2 7688   1.081   5.615   6.613  0.4747  0.7240  1.6184
 2250SOL     OW 7689   3.732   4.500   4.525  0.1034 -0.7484  0.0151
 2250SOL    HW1 7690   3.784   4.465   4.598 -0.0931 -0.0705  0.4852
 2250SOL    HW2 7691   3.663   4.551   4.567 -2.0518 -3.0201 -0.5203
 2251SOL     OW 7692   6.856   3.142   5.995  0.2820  0.3950  0.5498
 2251SOL    HW1 7693   6.765   3.139   6.026  0.4635  0.2337  1.0690
 2251SOL    HW2 7694   6.894   3.060   6.026  0.0802 -0.4402 -1.3116
 2252SOL     OW 7695   3.532   1.898   7.352 -0.2496 -0.3356 -0.2540
 2252SOL    HW1 7696   3.587   1.965   7.393 -0.0668 -0.9177  0.4744
 2252SOL    HW2 7697   3.568   1.889   7.264  1.1133 -0.9989  0.3412
 2253SOL     OW 7698   3.180   7.154   6.123  0.2222  0.4643 -0.0145
 2253SOL    HW1 7699   3.243   7.152   6.051  0.9317  0.3505  0.5895
 2253SOL    HW2 7700   3.094   7.160   6.081  0.4386 -2.0129 -0.9444
 2254SOL     OW 7701   4.023   3.239   0.027 -0.1405  0.5013  0.2513
 2254SOL    HW1 7702   4.072   3.240   0.110  1.3555 -1.5815 -0.5273
 2254SOL    HW2 7703   4.085   3.274  -0.037  0.7128 -2.6797 -0.8485
 2255SOL     OW 7704   5.389   3.811   1.417 -0.0668 -0.0547 -0.4764
 2255SOL    HW1 7705   5.421   3.742   1.358  1.7577  0.7733 -0.5053
 2255SOL    HW2 7706   5.395   3.891   1.366 -2.2354  0.1704 -0.4571
 2256SOL     OW 7707   7.425   5.083   3.109 -0.3391 -0.1481 -0.4319
 2256SOL    HW1 7708   7.430   5.174   3.136  1.3720 -0.6086  0.9991
 2256SOL    HW2 7709   7.495   5.039   3.158 -0.6429 -2.0955 -1.6174
 2257SOL     OW 7710   1.386   1.537   7.405 -0.1677 -0.1976 -0.0104
 2257SOL    HW1 7711   1.459   1.591   7.435 -0.0637 -0.9341  1.0957
 2257SOL    HW2 7712   1.356   1.581   7.325 -0.4685  1.8227  1.1567
 2258SOL     OW 7713   5.416   2.918   0.008  0.7757  0.2587 -0.5425
 2258SOL    HW1 7714   5.412   2.825  -0.013  2.3377  0.1660 -0.5500
 2258SOL    HW2 7715   5.481   2.925   0.078  0.1185  1.2625 -0.0039
 2259SOL     OW 7716   2.448   5.252   0.102 -0.7737 -0.7028 -0.0467
 2259SOL    HW1 7717   2.440   5.270   0.008 -1.2885  0.7209  0.2472
 2259SOL    HW2 7718   2.538   5.222   0.113 -1.5063 -3.7619 -1.4118
 2260SOL     OW 7719   5.907   4.506   6.487  0.0985 -0.2343  0.7896
 2260SOL    HW1 7720   5.935   4.587   6.529 -0.0782 -0.4908  1.4114
 2260SOL    HW2 7721   5.909   4.440   6.557 -1.2652 -0.4312  0.6784
 2261SOL     OW 7722   6.016   2.790   5.694 -0.3257 -0.2745  0.6522
 2261SOL    HW1 7723   5.952   2.812   5.627 -0.0494  1.5953  0.9249
 2261SOL    HW2 7724   6.032   2.697   5.684  1.3782  0.2652 -3.3925
 2262SOL     OW 7725   2.764   6.883   2.836  0.3443 -0.3261 -0.1235
 2262SOL    HW1 7726   2.781   6.888   2.742  0.3239 -0.3228 -0.1271
 2262SOL    HW2 7727   2.674   6.914   2.846 -0.0514 -1.4030 -0.2278
 2263SOL     OW 7728   6.989   1.267   0.010  0.0325 -0.8007  0.2066
 2263SOL    HW1 7729   6.900   1.251  -0.023  0.0308 -0.1565 -0.1356
 2263SOL    HW2 7730   7.045   1.214  -0.046  0.1694  1.3098 -1.8369
 2264SOL     OW 7731   1.571   4.753   4.571  0.6237  0.6479 -0.5850
 2264SOL    HW1 7732   1.481   4.784   4.577 -0.7551 -2.9392 -0.4725
 2264SOL    HW2 7733   1.601   4.783   4.486 -0.4772  2.2918 -0.4356
 2265SOL     OW 7734   5.997   6.552   4.797  0.3078  0.3020  0.6027
 2265SOL    HW1 7735   6.067   6.583   4.740 -1.9929  1.8376 -1.6274
 2265SOL    HW2 7736   5.936   6.626   4.802 -1.3101 -1.0351  2.2287
 2266SOL     OW 7737   4.055   5.817   2.835 -1.0850 -0.4032 -0.4374
 2266SOL    HW1 7738   4.144   5.832   2.802  0.1624 -1.0091  2.3689
 2266SOL    HW2 7739   4.007   5.896   2.811  0.4084  0.2756 -1.3659
 2267SOL     OW 7740   1.011   7.313   2.850 -0.3211  0.3534 -0.0655
 2267SOL    HW1 7741   1.060   7.372   2.908  1.6221  0.3857 -1.6360
 2267SOL    HW2 7742   0.947   7.370   2.807  0.1788  0.8952 -0.0919
 2268SOL     OW 7743   6.709   3.324   6.440 -0.1341  0.4356  0.3419
 2268SOL    HW1 7744   6.637   3.302   6.499  1.5721 -2.2350  1.6263
 2268SOL    HW2 7745   6.771   3.372   6.495  0.2200  0.4429 -0.0612
 2269SOL     OW 7746   2.346   4.244   1.893  0.1624 -0.3477  0.4195
 2269SOL    HW1 7747   2.367   4.258   1.801  1.0878 -0.3761  0.6166
 2269SOL    HW2 7748   2.252   4.262   1.899  0.0472 -0.5481 -0.5655
 2270SOL     OW 7749   4.493   6.735   4.230 -0.0137 -0.1517 -0.2592
 2270SOL    HW1 7750   4.583   6.740   4.261 -1.0076 -0.5725  3.0701
 2270SOL    HW2 7751   4.449   6.809   4.271 -1.7406 -1.4726  0.3802
 2271SOL     OW 7752   5.926   0.523   3.215 -0.6774  0.5455 -0.0019
 2271SOL    HW1 7753   5.956   0.496   3.128 -1.3400  1.4327 -0.5338
 2271SOL    HW2 7754   5.886   0.609   3.200 -0.8427  0.6859  1.1788
 2272SOL     OW 7755   3.253   2.695   5.303  0.4439 -0.1040  0.6385
 2272SOL    HW1 7756   3.292   2.773   5.263  1.4335 -0.3386  1.1141
 2272SOL    HW2 7757   3.298   2.621   5.262  2.0003 -0.3438  2.6112
 2273SOL     OW 7758   0.064   1.728   2.788 -0.3969 -0.2559 -0.2488
 2273SOL    HW1 7759   0.142   1.718   2.844 -0.9298 -0.0078  0.5612
 2273SOL    HW2 7760   0.075   1.814   2.747 -0.8178  0.3251  0.8130
 2274SOL     OW 7761   5.632   2.038   6.588  0.4646 -0.5083 -0.3556
 2274SOL    HW1 7762   5.645   1.947   6.563  0.0476 -0.2136 -1.7646
 2274SOL    HW2 7763   5.626   2.037   6.684  0.9915 -1.8767 -0.3215
 2275SOL     OW 7764   1.197   3.566   3.073  0.0146  0.1607 -0.0832
 2275SOL    HW1 7765   1.117   3.519   3.095 -0.0462  0.2021 -0.2120
 2275SOL    HW2 7766   1.265   3.527   3.129  0.3273 -1.2560 -1.3754
 2276SOL     OW 7767   5.846   1.830   6.092  0.5585 -0.3328  0.3927
 2276SOL    HW1 7768   5.923   1.862   6.139  1.0789  1.2988 -1.4119
 2276SOL    HW2 7769   5.880   1.805   6.006 -0.7362 -0.9050  0.0235
 2277SOL     OW 7770   6.569   6.194   6.546 -0.0179 -0.5413 -0.3558
 2277SOL    HW1 7771   6.612   6.110   6.536  0.8779 -0.1143 -0.1590
 2277SOL    HW2 7772   6.559   6.204   6.641  1.4723  0.3503 -0.2704
 2278SOL     OW 7773   2.785   7.228   4.079 -0.1840  0.3732 -0.3748
 2278SOL    HW1 7774   2.785   7.132   4.083  2.2846  0.2741 -1.0090
 2278SOL    HW2 7775   2.747   7.249   3.994 -2.5638  0.0993  0.5590
 2279SOL     OW 7776   5.268   1.467   7.236 -0.1922 -0.2392  0.1257
 2279SOL    HW1 7777   5.204   1.472   7.165  1.2333  1.6040 -1.1470
 2279SOL    HW2 7778   5.216   1.458   7.316 -2.2058  2.8566 -0.6654
 2280SOL     OW 7779   5.825   5.579   3.678 -0.2804 -0.1515  0.0972
 2280SOL    HW1 7780   5.832   5.514   3.749  0.5599  0.3131  0.4557
 2280SOL    HW2 7781   5.766   5.646   3.712  0.7974  0.5136  0.7382
 2281SOL     OW 7782   2.891   7.366   0.909 -0.4420 -0.2027  0.5128
 2281SOL    HW1 7783   2.923   7.419   0.982 -1.5159  2.0920 -0.5907
 2281SOL    HW2 7784   2.968   7.353   0.854 -0.6049  2.7068 -0.6026
 2282SOL     OW 7785   5.607   3.315   2.166  0.8309 -0.0626  0.1903
 2282SOL    HW1 7786   5.571   3.265   2.093  0.5934  0.1038  0.1933
 2282SOL    HW2 7787   5.538   3.313   2.233  1.0838 -0.2961  0.4499
 2283SOL     OW 7788   3.799   3.656   0.828 -0.2702  0.3718  0.0816
 2283SOL    HW1 7789   3.768   3.660   0.918  0.8099 -0.1883  0.4961
 2283SOL    HW2 7790   3.876   3.598   0.831 -0.3592  0.1478 -1.2333
 2284SOL     OW 7791   0.909   4.757   1.452  0.2229  0.0384 -0.7836
 2284SOL    HW1 7792   0.832   4.738   1.399 -0.7042  2.0338 -0.2331
 2284SOL    HW2 7793   0.874   4.785   1.537  1.5555  0.7280 -0.4326
 2285SOL     OW 7794   2.067   2.696   0.659 -0.0040 -0.3855  0.7371
 2285SOL    HW1 7795   2.086   2.677   0.750 -0.0525 -2.1882  0.4160
 2285SOL    HW2 7796   2.131   2.645   0.609 -0.4294 -0.0021 -0.2368
 2286SOL     OW 7797   1.161   2.742   5.176 -0.2238 -0.2340 -0.2904
 2286SOL    HW1 7798   1.087   2.686   5.153 -1.1543  0.8363 -0.0246
 2286SOL    HW2 7799   1.183   2.787   5.095  0.1253 -0.5338 -0.3631
 2287SOL     OW 7800   5.976   1.306   5.597  0.1177  0.0578 -0.1656
 2287SOL    HW1 7801   5.881   1.313   5.582  0.3331 -0.2059 -1.8875
 2287SOL    HW2 7802   6.008   1.396   5.590  0.0065  0.1501  0.4402
 2288SOL     OW 7803   2.652   4.985   6.727  0.0680  0.4703 -0.0026
 2288SOL    HW1 7804   2.599   4.941   6.661  1.9926 -0.8887 -0.7344
 2288SOL    HW2 7805   2.611   4.962   6.811  0.7876 -2.5348 -0.3827
 2289SOL     OW 7806   5.909   1.491   0.515  0.4707 -0.1306  0.2353
 2289SOL    HW1 7807   5.828   1.442   0.529  0.1489  0.1594 -0.5843
 2289SOL    HW2 7808   5.971   1.425   0.484 -0.2827  0.1338 -1.9920
 2290SOL     OW 7809   4.589   4.879   0.180  0.1529 -0.7180 -0.4710
 2290SOL    HW1 7810   4.535   4.800   0.185  1.6569 -1.7981 -0.3344
 2290SOL    HW2 7811   4.603   4.904   0.271  1.0290 -1.3098 -0.4219
 2291SOL     OW 7812   6.306   0.825   0.825 -0.0141 -1.1401  0.2018
 2291SOL    HW1 7813   6.221   0.825   0.781 -0.3837 -0.9004  0.8862
 2291SOL    HW2 7814   6.362   0.878   0.770 -0.7136 -0.0945  0.4713
 2292SOL     OW 7815   0.057   6.320   4.323  0.3207 -0.2444  0.5146
 2292SOL    HW1 7816   0.137   6.322   4.269 -0.8019 -1.8314 -1.3451
 2292SOL    HW2 7817   0.069   6.243   4.379  0.5134  0.1120  0.9718
 2293SOL     OW 7818   1.021   4.432   3.233 -0.6004  0.2195 -0.2677
 2293SOL    HW1 7819   1.037   4.337   3.235  0.1852  0.3378 -0.4542
 2293SOL    HW2 7820   1.042   4.462   3.321 -0.8283  0.2267 -0.2149
 2294SOL     OW 7821   1.398   1.413   4.078  0.0128  0.0586  0.1545
 2294SOL    HW1 7822   1.424   1.504   4.093  0.5360 -0.4163  2.5584
 2294SOL    HW2 7823   1.465   1.378   4.019  1.1786  0.6215  1.1009
 2295SOL     OW 7824   6.850   6.852   6.378 -0.1745  0.2551 -0.9704
 2295SOL    HW1 7825   6.933   6.895   6.396 -0.2859  0.6453 -1.3898
 2295SOL    HW2 7826   6.865   6.803   6.297 -0.7756  1.5039 -1.8710
 2296SOL     OW 7827   5.603   2.924   0.209  0.1348 -0.0593  0.6225
 2296SOL    HW1 7828   5.683   2.871   0.204  1.3777  1.7909  0.0449
 2296SOL    HW2 7829   5.623   2.991   0.275 -1.4439 -0.3249  1.4087
 2297SOL     OW 7830   0.141   3.973   1.066 -0.5498 -0.3641  0.2467
 2297SOL    HW1 7831   0.179   4.061   1.062  1.7843 -1.2412  1.3569
 2297SOL    HW2 7832   0.137   3.946   0.974  1.4846 -0.1593  0.0451
 2298SOL     OW 7833   1.664   0.231   4.887  0.1743  0.3849  0.2586
 2298SOL    HW1 7834   1.605   0.270   4.822 -0.2720  0.1349  0.5060
 2298SOL    HW2 7835   1.732   0.189   4.835  0.6089  1.3892 -0.0179
 2299SOL     OW 7836   3.054   2.481   5.932  0.0882  0.7757  0.3313
 2299SOL    HW1 7837   3.080   2.448   6.018 -0.5181 -0.6262  0.0139
 2299SOL    HW2 7838   2.999   2.411   5.895 -2.9687  2.9129  0.4096
 2300SOL     OW 7839   2.515   5.483   3.714  0.2101 -1.0628 -0.2033
 2300SOL    HW1 7840   2.480   5.506   3.800  1.3416  1.7863 -0.4095
 2300SOL    HW2 7841   2.600   5.443   3.732  1.0367  0.6969  0.0546
 2301SOL     OW 7842   6.410   7.327   5.509  0.0573 -0.7846  0.0307
 2301SOL    HW1 7843   6.345   7.355   5.444  0.6354 -0.6883 -0.5171
 2301SOL    HW2 7844   6.474   7.277   5.458  1.0145  0.0739  0.3493
 2302SOL     OW 7845   3.655   3.806   1.183  0.4928  0.5926 -0.2860
 2302SOL    HW1 7846   3.696   3.724   1.156  1.7454  0.9059  0.5726
 2302SOL    HW2 7847   3.632   3.791   1.275  1.5061  1.4851  0.1221
 2303SOL     OW 7848   2.398   4.829   6.672  0.5071 -0.5432 -0.6978
 2303SOL    HW1 7849   2.350   4.767   6.728 -0.3263  0.0113 -0.7853
 2303SOL    HW2 7850   2.329   4.877   6.625  1.1847 -1.3706 -2.6326
 2304SOL     OW 7851   2.210   3.209   5.431  0.1355 -0.3643 -0.0440
 2304SOL    HW1 7852   2.284   3.221   5.372  0.4553  0.6795  0.5479
 2304SOL    HW2 7853   2.245   3.225   5.518 -1.1848  2.3278  0.0940
 2305SOL     OW 7854   6.898   3.231   2.071 -0.2790 -0.1002 -0.3091
 2305SOL    HW1 7855   6.905   3.267   1.982  1.0601  0.4305 -0.0128
 2305SOL    HW2 7856   6.988   3.233   2.105 -0.9976  1.2851  1.6715
 2306SOL     OW 7857   5.417   3.802   4.351  0.1913  0.1618  0.3476
 2306SOL    HW1 7858   5.351   3.850   4.300  1.2384 -0.4486 -1.6996
 2306SOL    HW2 7859   5.414   3.843   4.438 -1.5829  1.3657 -0.2093
 2307SOL     OW 7860   2.168   3.826   6.256  0.3754  0.0073  0.0816
 2307SOL    HW1 7861   2.229   3.831   6.182 -1.9187 -1.3272 -2.0348
 2307SOL    HW2 7862   2.181   3.738   6.292  0.7313  0.2692  0.6074
 2308SOL     OW 7863   6.401   0.591   3.727  0.0907 -0.2952  0.3599
 2308SOL    HW1 7864   6.337   0.522   3.744 -0.1413  0.3140  2.1363
 2308SOL    HW2 7865   6.386   0.616   3.636 -3.2570  0.8397  1.0837
 2309SOL     OW 7866   5.609   5.273   0.601  0.2024 -0.9296 -0.3376
 2309SOL    HW1 7867   5.608   5.347   0.661  1.1468 -1.5010  0.3951
 2309SOL    HW2 7868   5.544   5.212   0.637 -0.0989 -0.7593 -0.5796
 2310SOL     OW 7869   2.233   6.840   2.281  0.1543 -1.3734 -0.3529
 2310SOL    HW1 7870   2.174   6.838   2.356 -1.0227 -0.5380 -1.2329
 2310SOL    HW2 7871   2.321   6.834   2.319 -0.4627 -2.0469  1.0089
 2311SOL     OW 7872   1.086   1.838   3.153  0.2899 -0.1973  0.0717
 2311SOL    HW1 7873   1.032   1.871   3.225 -0.1237 -0.0905 -0.2855
 2311SOL    HW2 7874   1.055   1.749   3.139  0.8926 -0.4932  0.5287
 2312SOL     OW 7875   2.398   0.263   5.912 -0.0384 -0.1843  0.3271
 2312SOL    HW1 7876   2.420   0.174   5.885  1.4325 -0.0657  1.0138
 2312SOL    HW2 7877   2.364   0.252   6.001 -1.5265 -0.2157 -0.2206
 2313SOL     OW 7878   3.277   6.144   1.158  0.4246 -0.3986  0.4465
 2313SOL    HW1 7879   3.243   6.118   1.072  2.0653  0.5182 -0.5385
 2313SOL    HW2 7880   3.367   6.173   1.140 -0.0115  2.2198  2.0402
 2314SOL     OW 7881   4.985   7.414   5.884  0.5882  0.3279 -0.5002
 2314SOL    HW1 7882   4.915   7.406   5.819  1.1313 -0.8944 -0.9684
 2314SOL    HW2 7883   4.940   7.439   5.965 -0.6730 -2.0937 -0.3414
 2315SOL     OW 7884   2.965   5.575   6.026  0.3142 -0.2466  0.1609
 2315SOL    HW1 7885   2.909   5.583   5.948 -0.2690 -0.1097  0.5909
 2315SOL    HW2 7886   3.054   5.577   5.991  0.1165 -3.2092 -0.8435
 2316SOL     OW 7887   4.353   2.965   6.888 -0.2929  0.7300  0.0793
 2316SOL    HW1 7888   4.420   2.909   6.847 -0.3758  0.6714  0.0238
 2316SOL    HW2 7889   4.400   3.011   6.957  0.1707  1.8096 -0.9148
 2317SOL     OW 7890   4.629   1.604   4.453  0.3755 -0.1378  0.0858
 2317SOL    HW1 7891   4.658   1.664   4.521 -0.2812  0.7090 -0.3488
 2317SOL    HW2 7892   4.647   1.650   4.371 -0.1320 -0.5354 -0.2577
 2318SOL     OW 7893   4.510   2.819   3.287  0.1635  0.1449  0.7307
 2318SOL    HW1 7894   4.459   2.833   3.207 -0.9125 -1.1524  1.1455
 2318SOL    HW2 7895   4.458   2.861   3.356  0.4705  0.1978  0.9322
 2319SOL     OW 7896   6.048   2.047   5.355  0.2466  0.0988  0.2079
 2319SOL    HW1 7897   6.089   1.982   5.298 -0.1798  0.1857 -0.2060
 2319SOL    HW2 7898   6.018   2.116   5.295 -1.1625 -0.3048  0.3985
 2320SOL     OW 7899   1.623   3.137   3.574 -0.1088 -0.0274  0.2011
 2320SOL    HW1 7900   1.599   3.157   3.484  0.6092  1.1111  0.2362
 2320SOL    HW2 7901   1.652   3.046   3.572 -1.7165 -0.5535 -0.3610
 2321SOL     OW 7902   2.313   2.779   0.465  0.1661  0.5374  0.2504
 2321SOL    HW1 7903   2.391   2.829   0.486 -0.5014  1.1656  1.3552
 2321SOL    HW2 7904   2.334   2.689   0.492  0.1228  0.9149  1.6413
 2322SOL     OW 7905   4.361   5.452   0.303 -0.0394  0.3735 -0.6757
 2322SOL    HW1 7906   4.327   5.374   0.347  0.0195 -0.2339 -1.6819
 2322SOL    HW2 7907   4.454   5.435   0.294  0.3219  1.3986  0.7661
 2323SOL     OW 7908   0.606   4.604   4.351  0.2079  0.0700 -1.0388
 2323SOL    HW1 7909   0.655   4.522   4.344 -0.5780 -0.3875 -1.2890
 2323SOL    HW2 7910   0.672   4.672   4.342  1.0680 -0.5133  0.3906
 2324SOL     OW 7911   1.277   0.732   0.647  0.6421  0.1033  0.0442
 2324SOL    HW1 7912   1.184   0.748   0.633  0.3633 -1.0526  0.4139
 2324SOL    HW2 7913   1.321   0.769   0.570 -0.0240  1.4409  0.2818
 2325SOL     OW 7914   3.636   7.070   4.871  0.2983 -0.7136  0.7429
 2325SOL    HW1 7915   3.696   7.074   4.945 -0.6765  0.7758  1.4957
 2325SOL    HW2 7916   3.690   7.097   4.796  0.8645 -0.5208  1.2077
 2326SOL     OW 7917   6.310   0.999   2.677 -0.0560  0.3090  0.7750
 2326SOL    HW1 7918   6.241   0.940   2.705 -0.2038 -0.1836 -0.5323
 2326SOL    HW2 7919   6.372   1.002   2.750  0.0330 -1.6068  0.8110
 2327SOL     OW 7920   3.226   5.605   6.703 -0.1398 -0.4343  0.4617
 2327SOL    HW1 7921   3.217   5.522   6.657 -1.3917 -0.5137  0.8113
 2327SOL    HW2 7922   3.223   5.582   6.795  2.5998 -0.2998  0.6487
 2328SOL     OW 7923   2.874   0.918   0.765 -0.3021  0.2163 -0.0544
 2328SOL    HW1 7924   2.883   1.002   0.720  1.8023  0.1430  0.1151
 2328SOL    HW2 7925   2.956   0.908   0.814 -1.3896 -0.9590  1.6438
 2329SOL     OW 7926   7.278   1.120   7.305 -0.2807 -0.1136 -0.4593
 2329SOL    HW1 7927   7.271   1.118   7.210  1.0811 -0.2128 -0.5757
 2329SOL    HW2 7928   7.311   1.033   7.328  0.4484  0.2766 -0.0030
 2330SOL     OW 7929   0.904   2.617   6.766 -0.3329 -0.4106  0.2893
 2330SOL    HW1 7930   0.984   2.567   6.784 -0.6072 -1.2092 -0.6235
 2330SOL    HW2 7931   0.877   2.588   6.679 -0.2259  1.7237 -0.5163
 2331SOL     OW 7932   6.419   3.543   1.975  0.4655  0.6480  0.4459
 2331SOL    HW1 7933   6.417   3.593   2.056  0.8922 -1.5377  1.8919
 2331SOL    HW2 7934   6.507   3.506   1.971 -0.8691 -3.2038  1.6467
 2332SOL     OW 7935   5.479   0.693   1.566 -0.0282  0.4831  0.0482
 2332SOL    HW1 7936   5.562   0.646   1.563 -0.5165 -0.3829 -0.4055
 2332SOL    HW2 7937   5.503   0.786   1.567  0.9602  0.2360  0.9376
 2333SOL     OW 7938   0.109   2.623   4.886  0.6564  0.7440 -0.3972
 2333SOL    HW1 7939   0.054   2.610   4.809  1.1136 -2.1646 -0.3373
 2333SOL    HW2 7940   0.196   2.638   4.850  1.3396 -2.8406 -0.6403
 2334SOL     OW 7941   6.545   1.719   4.041 -0.1736 -0.1611  0.0391
 2334SOL    HW1 7942   6.475   1.784   4.045  0.4878  0.6556 -1.0591
 2334SOL    HW2 7943   6.547   1.692   3.949 -1.9264 -3.4405  0.8220
 2335SOL     OW 7944   6.419   0.161   3.723 -0.6156  0.0747 -0.8207
 2335SOL    HW1 7945   6.342   0.217   3.734 -1.8464 -1.9040  1.5175
 2335SOL    HW2 7946   6.465   0.168   3.807  0.2421 -0.9372 -1.1898
 2336SOL     OW 7947   5.264   4.975   4.780 -0.0452  0.0585 -0.0746
 2336SOL    HW1 7948   5.243   5.068   4.780  0.6538  0.2595  1.7984
 2336SOL    HW2 7949   5.359   4.972   4.787 -0.1478 -0.7425  1.4663
 2337SOL     OW 7950   7.133   6.309   5.333 -0.0903  0.2389  0.0905
 2337SOL    HW1 7951   7.097   6.346   5.413 -0.5742 -0.2361  0.1001
 2337SOL    HW2 7952   7.193   6.241   5.362 -0.3993 -0.0528  0.0481
 2338SOL     OW 7953   7.323   4.341   4.812 -0.4686 -0.1158 -0.0381
 2338SOL    HW1 7954   7.400   4.358   4.867 -0.7613 -0.9550  0.6562
 2338SOL    HW2 7955   7.316   4.418   4.756  1.1923 -0.2653 -0.4868
 2339SOL     OW 7956   1.134   0.258   3.775  0.1281  0.0535 -0.4847
 2339SOL    HW1 7957   1.131   0.186   3.837 -1.5869  0.6936  0.2152
 2339SOL    HW2 7958   1.227   0.283   3.773  0.2057  0.2583  2.1356
 2340SOL     OW 7959   3.369   7.380   1.849 -0.2481  0.4362  0.3209
 2340SOL    HW1 7960   3.398   7.296   1.816 -0.0477  0.7466 -0.3039
 2340SOL    HW2 7961   3.313   7.359   1.924  1.1990 -0.1957  1.2602
 2341SOL     OW 7962   3.790   0.591   1.880  0.1225 -0.3376 -0.0274
 2341SOL    HW1 7963   3.840   0.669   1.900  1.2409 -0.7772 -1.0317
 2341SOL    HW2 7964   3.839   0.519   1.920 -1.6756 -0.4476  2.2289
 2342SOL     OW 7965   2.126   3.536   4.904  0.3729 -0.3834 -0.3274
 2342SOL    HW1 7966   2.112   3.579   4.988 -1.1883  0.7621 -1.1085
 2342SOL    HW2 7967   2.098   3.602   4.839 -0.6605 -2.0393 -1.6394
 2343SOL     OW 7968   6.899   4.645   6.021 -0.5662 -0.2060  0.7468
 2343SOL    HW1 7969   6.930   4.565   5.978  2.8759  1.5409 -0.3727
 2343SOL    HW2 7970   6.956   4.655   6.097 -1.1148  1.0595  1.0255
 2344SOL     OW 7971   2.563   3.282   0.421  0.0892 -0.0999 -0.5261
 2344SOL    HW1 7972   2.590   3.335   0.496  0.6849 -2.1259  0.7721
 2344SOL    HW2 7973   2.485   3.236   0.450  0.4161 -1.0368 -1.0795
 2345SOL     OW 7974   5.219   5.701   6.446  0.4834 -0.3236  0.1538
 2345SOL    HW1 7975   5.176   5.652   6.375 -0.0872  0.8205 -0.3240
 2345SOL    HW2 7976   5.308   5.714   6.415 -0.3683  2.2415 -1.5325
 2346SOL     OW 7977   6.314   1.204   2.466  0.0525  0.6013 -0.0872
 2346SOL    HW1 7978   6.301   1.150   2.544  2.2378  2.5152  1.7451
 2346SOL    HW2 7979   6.398   1.176   2.431 -0.6490  0.1548 -1.4752
 2347SOL     OW 7980   4.810   7.367   1.512  0.1884 -0.1407 -0.2075
 2347SOL    HW1 7981   4.801   7.307   1.439 -0.2339 -0.6282  0.2370
 2347SOL    HW2 7982   4.733   7.423   1.507 -0.6931 -1.2085  0.7823
 2348SOL     OW 7983   0.794   4.930   1.650 -0.2157  0.1230 -0.5564
 2348SOL    HW1 7984   0.706   4.943   1.686 -0.3138  1.0958 -1.1113
 2348SOL    HW2 7985   0.832   5.018   1.648  0.3361 -0.1216 -1.4070
 2349SOL     OW 7986   1.456   1.072   4.424 -0.8831 -0.0451 -0.6149
 2349SOL    HW1 7987   1.387   1.006   4.423  0.6893 -1.7928 -2.9198
 2349SOL    HW2 7988   1.475   1.089   4.332  2.3409 -0.3361 -0.1189
 2350SOL     OW 7989   3.960   0.483   1.162 -0.4272  0.3250  0.2050
 2350SOL    HW1 7990   3.995   0.527   1.239 -3.0661  1.4669  0.8958
 2350SOL    HW2 7991   3.974   0.544   1.090 -0.2210  0.3860  0.2988
 2351SOL     OW 7992   2.384   5.683   2.629  0.0116 -0.1108  0.5123
 2351SOL    HW1 7993   2.359   5.626   2.556  1.4295  0.1507 -0.2133
 2351SOL    HW2 7994   2.440   5.750   2.590  2.4805 -1.0935  2.0906
 2352SOL     OW 7995   3.115   7.331   1.426 -0.0317  0.6037  1.0463
 2352SOL    HW1 7996   3.112   7.414   1.379  0.3182 -0.3419 -0.7458
 2352SOL    HW2 7997   3.120   7.355   1.518 -1.2595  2.5475  0.6503
 2353SOL     OW 7998   5.798   3.130   1.858 -0.0309 -0.3075 -0.7767
 2353SOL    HW1 7999   5.760   3.213   1.888 -1.6159 -0.7100 -1.5261
 2353SOL    HW2 8000   5.764   3.119   1.769  0.3551 -1.6307 -0.7847
 2354SOL     OW 8001   4.498   2.491   6.558  0.3018  0.5842 -0.2720
 2354SOL    HW1 8002   4.566   2.460   6.617 -0.5154  0.6542  0.7326
 2354SOL    HW2 8003   4.545   2.526   6.483  1.3111 -0.7677 -0.2889
 2355SOL     OW 8004   2.194   0.495   6.235  0.2442  0.1311  0.6622
 2355SOL    HW1 8005   2.191   0.406   6.201 -1.1244  0.3824  0.0514
 2355SOL    HW2 8006   2.231   0.486   6.322 -2.0572 -1.3891  1.5824
 2356SOL     OW 8007   4.329   7.326   0.630  0.0297 -0.0789  0.3787
 2356SOL    HW1 8008   4.314   7.233   0.611 -0.2816  0.0284  0.0992
 2356SOL    HW2 8009   4.333   7.367   0.544  1.2452  0.0050  0.4582
 2357SOL     OW 8010   2.454   0.307   0.832 -0.3307 -0.3079  0.3959
 2357SOL    HW1 8011   2.470   0.266   0.747 -0.3981  0.4868 -0.0063
 2357SOL    HW2 8012   2.369   0.272   0.860 -1.1566  0.7546 -0.6885
 2358SOL     OW 8013   4.790   2.838   3.170 -0.4516 -0.4669  0.6160
 2358SOL    HW1 8014   4.699   2.811   3.174 -0.4538 -0.4334  0.8551
 2358SOL    HW2 8015   4.788   2.933   3.185 -0.6796  0.1901 -2.7693
 2359SOL     OW 8016   2.712   2.027   3.676 -0.3774 -0.7776 -0.8899
 2359SOL    HW1 8017   2.703   2.043   3.770  1.2861 -1.5597 -0.5776
 2359SOL    HW2 8018   2.631   1.982   3.652 -0.0793 -2.1186  0.5254
 2360SOL     OW 8019   2.993   3.325   1.736 -0.0570  0.0388  0.0637
 2360SOL    HW1 8020   2.969   3.308   1.827 -0.6930 -0.2326 -0.1520
 2360SOL    HW2 8021   3.087   3.310   1.733 -0.0297  0.0590  0.6786
 2361SOL     OW 8022   6.176   0.493   5.449  0.5287 -0.3960  0.1164
 2361SOL    HW1 8023   6.252   0.528   5.401 -0.2707  0.2377 -0.7121
 2361SOL    HW2 8024   6.214   0.457   5.529  1.4904  1.9194  0.8071
 2362SOL     OW 8025   2.941   0.674   2.604 -0.4158 -0.3977  0.3803
 2362SOL    HW1 8026   2.897   0.607   2.656 -2.3839  0.5221 -0.0144
 2362SOL    HW2 8027   2.880   0.747   2.602  0.9485  0.7774 -0.6271
 2363SOL     OW 8028   1.575   4.207   0.688  0.4818  0.1425 -0.2082
 2363SOL    HW1 8029   1.602   4.280   0.632 -0.4853 -0.0685 -0.9747
 2363SOL    HW2 8030   1.499   4.170   0.644 -0.7485  0.3959  1.6153
 2364SOL     OW 8031   1.175   4.376   4.748  0.6761  0.2717  0.9683
 2364SOL    HW1 8032   1.228   4.296   4.750  0.8418  0.2834 -1.0225
 2364SOL    HW2 8033   1.165   4.400   4.840  1.8147 -1.2496  1.5385
 2365SOL     OW 8034   1.156   6.159   3.050 -0.4551 -0.2809  0.8855
 2365SOL    HW1 8035   1.131   6.232   2.994 -3.2414 -0.2156  2.0421
 2365SOL    HW2 8036   1.171   6.086   2.990  0.5788  0.7658 -0.1577
 2366SOL     OW 8037   7.321   3.442   6.880  0.1350 -0.2519  0.1178
 2366SOL    HW1 8038   7.378   3.445   6.803  0.7916  0.2113  0.6067
 2366SOL    HW2 8039   7.337   3.356   6.918  0.4129 -0.1696  0.1860
 2367SOL     OW 8040   5.820   2.043   3.912 -0.7747 -0.6449 -0.7703
 2367SOL    HW1 8041   5.863   2.127   3.898  1.5822 -1.4541  0.9438
 2367SOL    HW2 8042   5.806   2.038   4.007 -1.2533 -1.9772 -0.8803
 2368SOL     OW 8043   2.584   2.657   3.000 -0.4442 -0.3372  0.4205
 2368SOL    HW1 8044   2.493   2.658   3.028 -0.4830  0.4475  0.3023
 2368SOL    HW2 8045   2.634   2.678   3.078 -0.6102  2.8134 -0.1687
 2369SOL     OW 8046   0.706   6.085   1.010 -0.6249 -0.1865 -0.0600
 2369SOL    HW1 8047   0.611   6.079   1.013 -0.6004 -1.5701 -0.8427
 2369SOL    HW2 8048   0.735   6.040   1.089 -0.6172 -1.6656 -0.8650
 2370SOL     OW 8049   0.683   4.574   6.626 -0.4052  0.6462 -0.1110
 2370SOL    HW1 8050   0.684   4.571   6.722  0.8292  1.0432 -0.0859
 2370SOL    HW2 8051   0.595   4.605   6.604 -0.9976 -0.2784  0.8490
 2371SOL     OW 8052   2.778   0.286   0.641  0.1961 -0.3852  0.2108
 2371SOL    HW1 8053   2.849   0.246   0.590  0.3401  0.1099  0.0206
 2371SOL    HW2 8054   2.810   0.287   0.731  0.9123  0.8728 -0.0328
 2372SOL     OW 8055   4.316   7.322   3.623 -0.3810 -0.2031  0.8343
 2372SOL    HW1 8056   4.261   7.381   3.570 -2.2279 -0.9607  1.8063
 2372SOL    HW2 8057   4.262   7.244   3.634  0.6532 -0.7267  2.3971
 2373SOL     OW 8058   2.049   5.422   7.012  0.3032 -0.3169  0.0844
 2373SOL    HW1 8059   2.033   5.330   7.036  0.8216 -0.6230 -0.7062
 2373SOL    HW2 8060   2.092   5.417   6.927 -1.8019  0.7624 -1.1067
 2374SOL     OW 8061   6.313   6.835   7.018  0.2355  0.3221  0.1658
 2374SOL    HW1 8062   6.323   6.929   7.007  0.9405  0.3194  0.6934
 2374SOL    HW2 8063   6.304   6.801   6.929  2.1164  0.6609 -0.1918
 2375SOL     OW 8064   7.126   2.128   7.271  0.3396 -0.0394  0.8667
 2375SOL    HW1 8065   7.095   2.039   7.290  0.1999 -0.0709  0.4966
 2375SOL    HW2 8066   7.124   2.134   7.175 -0.0131  0.4900  0.9033
 2376SOL     OW 8067   2.453   3.240   3.849  0.7034 -0.6550 -0.5725
 2376SOL    HW1 8068   2.442   3.191   3.930  0.6795  0.2456 -0.0202
 2376SOL    HW2 8069   2.503   3.181   3.792 -0.2439 -1.7292 -0.3193
 2377SOL     OW 8070   4.412   4.576   0.609  0.3653 -0.1780 -0.6589
 2377SOL    HW1 8071   4.397   4.645   0.674 -0.2149 -0.6387 -0.2799
 2377SOL    HW2 8072   4.324   4.556   0.575  0.5831 -0.4055 -1.0994
 2378SOL     OW 8073   7.117   6.687   5.478 -0.4734 -0.0685  0.1059
 2378SOL    HW1 8074   7.145   6.676   5.387 -0.5435 -0.8785  0.1696
 2378SOL    HW2 8075   7.022   6.697   5.473 -0.5124 -0.4256  0.1093
 2379SOL     OW 8076   0.095   5.112   5.025  0.8575  0.0556 -0.1587
 2379SOL    HW1 8077   0.072   5.042   4.963  0.1747 -0.4925  0.6776
 2379SOL    HW2 8078   0.041   5.186   4.998  0.9639 -0.0095 -0.5536
 2380SOL     OW 8079   2.182   6.815   3.933  0.2114 -0.3969 -0.0924
 2380SOL    HW1 8080   2.153   6.764   3.857  0.8555  0.0529 -0.6490
 2380SOL    HW2 8081   2.214   6.897   3.897 -2.5029  1.2383  0.9382
 2381SOL     OW 8082   6.675   0.871   5.163  0.6681 -0.4297 -0.1192
 2381SOL    HW1 8083   6.763   0.897   5.138  1.4312 -2.1171  0.6331
 2381SOL    HW2 8084   6.635   0.840   5.082  1.7116 -2.0952 -0.0491
 2382SOL     OW 8085   3.589   3.025   3.079  0.2287 -0.0601 -0.4590
 2382SOL    HW1 8086   3.525   3.096   3.073 -0.5457 -0.5896  1.0151
 2382SOL    HW2 8087   3.616   3.025   3.171  1.6365 -0.4753 -0.8458
 2383SOL     OW 8088   6.149   2.603   4.331 -0.1203 -0.7875 -0.2570
 2383SOL    HW1 8089   6.067   2.604   4.380 -0.2632 -1.9230 -0.4487
 2383SOL    HW2 8090   6.207   2.544   4.380 -0.4923 -2.4869 -1.7434
 2384SOL     OW 8091   0.378   1.803   2.583  0.1597  0.3928  0.3256
 2384SOL    HW1 8092   0.379   1.759   2.668 -0.5096  0.7337  0.5172
 2384SOL    HW2 8093   0.396   1.895   2.603  1.9336  0.1769 -0.1141
 2385SOL     OW 8094   5.022   5.316   5.866  0.3227  0.2345  0.3276
 2385SOL    HW1 8095   4.980   5.265   5.936 -0.0191 -1.3015 -0.9320
 2385SOL    HW2 8096   5.104   5.270   5.848  0.8148  1.1043  0.2778
 2386SOL     OW 8097   4.465   4.282   1.441 -0.0135  0.0037 -0.0876
 2386SOL    HW1 8098   4.389   4.291   1.498  2.3465  1.1769  3.1551
 2386SOL    HW2 8099   4.535   4.251   1.498  1.4781 -3.6911 -3.4266
 2387SOL     OW 8100   7.151   3.693   1.483 -0.4587  0.4560 -0.0685
 2387SOL    HW1 8101   7.140   3.748   1.561 -1.2863  0.5628 -0.2544
 2387SOL    HW2 8102   7.145   3.603   1.516 -3.0220  0.4869 -0.2710
 2388SOL     OW 8103   1.339   2.183   4.266  0.1904  0.0591 -0.3924
 2388SOL    HW1 8104   1.374   2.149   4.348 -0.3673  0.0100 -0.1669
 2388SOL    HW2 8105   1.392   2.143   4.198  0.7691  0.2341 -0.0489
 2389SOL     OW 8106   6.720   2.070   2.445  0.1760 -0.2139 -0.6489
 2389SOL    HW1 8107   6.679   2.148   2.482 -0.7302  1.0817 -3.9692
 2389SOL    HW2 8108   6.744   2.017   2.520 -1.6487  2.0146  1.6802
 2390SOL     OW 8109   4.853   1.481   2.307  0.6698 -0.1745 -0.5547
 2390SOL    HW1 8110   4.859   1.568   2.348 -1.4551 -0.2528  0.0350
 2390SOL    HW2 8111   4.932   1.435   2.337  0.1545  0.4176  1.9666
 2391SOL     OW 8112   0.265   1.336   5.562 -0.4784  0.5574  0.3543
 2391SOL    HW1 8113   0.339   1.395   5.550  1.2746 -1.4379  0.8221
 2391SOL    HW2 8114   0.223   1.332   5.476  1.1636  0.2078 -0.4652
 2392SOL     OW 8115   3.006   5.881   5.342  0.6195 -0.0669 -0.0770
 2392SOL    HW1 8116   3.019   5.975   5.358  1.3175 -0.3068  0.8989
 2392SOL    HW2 8117   3.045   5.839   5.418 -0.1165 -1.1417 -0.2802
 2393SOL     OW 8118   2.665   5.529   1.864  0.0068  0.0843 -0.0930
 2393SOL    HW1 8119   2.650   5.623   1.877 -0.6658  0.2670 -1.9452
 2393SOL    HW2 8120   2.679   5.495   1.952 -1.3218  1.6552  0.7778
 2394SOL     OW 8121   4.984   4.712   0.764  0.4081 -0.5772  0.3026
 2394SOL    HW1 8122   4.968   4.719   0.858 -3.4404 -2.5126 -0.0044
 2394SOL    HW2 8123   4.925   4.776   0.725  0.2831 -1.3607 -0.8396
 2395SOL     OW 8124   0.926   1.387   0.572 -0.6355 -0.8672  0.1075
 2395SOL    HW1 8125   1.012   1.346   0.585  0.5609  1.7209  1.0480
 2395SOL    HW2 8126   0.892   1.345   0.493  1.3579 -2.1811 -0.1441
 2396SOL     OW 8127   6.036   6.808   1.493  0.0829 -0.2756  0.3968
 2396SOL    HW1 8128   6.046   6.760   1.575 -1.6842 -1.0720  0.2075
 2396SOL    HW2 8129   6.115   6.787   1.443  0.3851 -1.1874  1.2113
 2397SOL     OW 8130   1.915   3.542   5.656  0.1353 -0.2605 -0.2595
 2397SOL    HW1 8131   1.918   3.623   5.706  0.9331 -0.0133 -0.6863
 2397SOL    HW2 8132   1.959   3.563   5.573  0.7649 -1.2417 -0.1994
 2398SOL     OW 8133   3.535   3.766   2.490  0.2605 -0.8562  0.6053
 2398SOL    HW1 8134   3.561   3.695   2.549 -0.3771 -1.3888  0.2710
 2398SOL    HW2 8135   3.579   3.746   2.408  3.5225  1.4407  1.5784
 2399SOL     OW 8136   5.853   5.080   5.890 -0.6083  0.0714 -0.1002
 2399SOL    HW1 8137   5.808   5.114   5.812 -0.9488  0.3211  0.2019
 2399SOL    HW2 8138   5.916   5.148   5.913  0.3539 -0.5238 -0.8614
 2400SOL     OW 8139   7.209   1.378   2.079 -0.1438  0.3908 -0.1386
 2400SOL    HW1 8140   7.298   1.371   2.044  0.1312 -2.4354  0.8667
 2400SOL    HW2 8141   7.180   1.466   2.053  3.0115  1.5386 -0.2427
 2401SOL     OW 8142   5.847   6.959   4.273 -0.3179  0.4310  0.0446
 2401SOL    HW1 8143   5.876   6.889   4.331 -1.7989  0.1035  0.4487
 2401SOL    HW2 8144   5.755   6.937   4.254 -0.3387  1.4212 -1.0921
 2402SOL     OW 8145   1.581   5.272   3.023  0.2027 -0.5812 -0.7117
 2402SOL    HW1 8146   1.552   5.181   3.020  0.0387 -0.5463 -0.2858
 2402SOL    HW2 8147   1.676   5.266   3.033  0.0673 -0.7353  0.7648
 2403SOL     OW 8148   2.323   5.834   4.821 -0.1204 -0.0019  0.2427
 2403SOL    HW1 8149   2.397   5.778   4.844 -1.0928 -0.8607  1.4228
 2403SOL    HW2 8150   2.342   5.918   4.863  0.3099 -0.1191  0.2832
 2404SOL     OW 8151   5.389   3.879   4.606 -0.2547  0.2270  0.4214
 2404SOL    HW1 8152   5.415   3.968   4.630 -0.1226  0.5903 -0.9773
 2404SOL    HW2 8153   5.299   3.871   4.639  0.0349  0.5735  1.3120
 2405SOL     OW 8154   0.234   1.895   1.955 -0.0250 -0.0422 -0.0085
 2405SOL    HW1 8155   0.168   1.877   1.888  0.5429 -0.0238 -0.5838
 2405SOL    HW2 8156   0.244   1.811   2.001 -0.9407  0.1327  0.5514
 2406SOL     OW 8157   3.701   5.784   5.589  0.0762 -0.1827  0.1180
 2406SOL    HW1 8158   3.708   5.751   5.499  0.5985 -0.3806  0.2297
 2406SOL    HW2 8159   3.744   5.718   5.642  0.6611  0.4036  0.4026
 2407SOL     OW 8160   5.453   0.819   4.428  0.2938  0.0214  0.4932
 2407SOL    HW1 8161   5.504   0.740   4.445 -1.2267 -0.6247  2.3578
 2407SOL    HW2 8162   5.470   0.876   4.503  0.3860  0.9384 -0.2086
 2408SOL     OW 8163   4.912   4.954   3.979 -0.6732  0.2688  0.2639
 2408SOL    HW1 8164   4.961   4.947   4.061 -0.8008 -0.2011  0.3031
 2408SOL    HW2 8165   4.884   5.046   3.975  2.9204  1.4926 -1.2983
 2409SOL     OW 8166   1.679   4.802   3.838 -0.0397  0.2723  0.5425
 2409SOL    HW1 8167   1.698   4.766   3.751  1.2958  0.4611  0.7408
 2409SOL    HW2 8168   1.623   4.878   3.820  1.0637  0.9357 -0.2557
 2410SOL     OW 8169   2.691   6.583   6.787  0.0712 -0.0337 -0.2955
 2410SOL    HW1 8170   2.695   6.500   6.835  0.6572  0.8016  1.2053
 2410SOL    HW2 8171   2.610   6.624   6.817  0.8044  0.8185  0.5899
 2411SOL     OW 8172   2.911   6.720   1.208  0.0651  0.8903 -0.2678
 2411SOL    HW1 8173   2.950   6.769   1.135  1.0752 -0.9145 -1.0066
 2411SOL    HW2 8174   2.985   6.702   1.266 -0.4482  0.9147  0.4102
 2412SOL     OW 8175   0.670   0.346   2.086 -0.3010 -0.0591  0.2582
 2412SOL    HW1 8176   0.742   0.407   2.105 -1.0013  1.7197 -2.3043
 2412SOL    HW2 8177   0.598   0.402   2.058 -1.6432 -1.9886 -0.3637
 2413SOL     OW 8178   5.237   5.905   7.428 -0.6835  0.7313 -0.2884
 2413SOL    HW1 8179   5.157   5.958   7.423 -1.3981 -0.3165 -0.3071
 2413SOL    HW2 8180   5.211   5.820   7.391  0.5054  0.4476 -0.5013
 2414SOL     OW 8181   0.830   3.831   1.195 -0.2235 -0.7272 -0.1198
 2414SOL    HW1 8182   0.737   3.846   1.183 -0.1845 -0.4296 -0.0594
 2414SOL    HW2 8183   0.853   3.880   1.274 -0.7871 -3.9562  2.2054
 2415SOL     OW 8184   6.297   0.132   0.451  0.1180  0.2577 -0.3198
 2415SOL    HW1 8185   6.262   0.198   0.511 -0.9094 -1.1326  0.6733
 2415SOL    HW2 8186   6.225   0.114   0.391  0.2123 -0.3261 -0.2593
 2416SOL     OW 8187   0.641   0.301   4.660  0.1432  0.2981  0.0720
 2416SOL    HW1 8188   0.622   0.212   4.633 -0.4297  0.5965 -0.5178
 2416SOL    HW2 8189   0.556   0.341   4.674  0.3690  1.0294 -0.5792
 2417SOL     OW 8190   3.201   7.360   2.057 -0.4778 -0.0212  0.1351
 2417SOL    HW1 8191   3.182   7.267   2.072  2.3479 -0.6598  0.3552
 2417SOL    HW2 8192   3.115   7.401   2.048 -1.8012 -2.7623 -0.7446
 2418SOL     OW 8193   2.035   5.393   5.462 -0.1759 -0.0024  0.1859
 2418SOL    HW1 8194   1.951   5.430   5.437 -0.2613 -0.6436 -0.5370
 2418SOL    HW2 8195   2.014   5.326   5.527 -0.1200  0.5296  0.7558
 2419SOL     OW 8196   6.615   0.385   5.074  0.4270 -0.0007 -1.0272
 2419SOL    HW1 8197   6.644   0.473   5.051  2.9649 -0.5282 -0.0783
 2419SOL    HW2 8198   6.539   0.399   5.131  1.7145  1.6450  0.3626
 2420SOL     OW 8199   7.262   2.875   1.664 -0.0231 -0.4327  0.2282
 2420SOL    HW1 8200   7.248   2.780   1.659 -0.1621 -0.3498 -1.2170
 2420SOL    HW2 8201   7.340   2.884   1.719 -0.5569 -1.3149  1.1890
 2421SOL     OW 8202   1.171   4.251   6.190  0.0071  0.2810 -0.3704
 2421SOL    HW1 8203   1.162   4.326   6.132  0.0099  0.1267 -0.5735
 2421SOL    HW2 8204   1.191   4.288   6.275 -0.4463  0.5328 -0.3714
 2422SOL     OW 8205   4.545   0.044   1.471 -0.8723 -0.1157 -0.4208
 2422SOL    HW1 8206   4.488   0.096   1.529 -0.3850  0.0950 -0.1208
 2422SOL    HW2 8207   4.503   0.048   1.386  0.4365  2.9994 -1.0796
 2423SOL     OW 8208   1.978   3.513   5.178  0.3321 -0.1982 -0.1265
 2423SOL    HW1 8209   1.940   3.570   5.111  1.3805 -0.2975 -0.8351
 2423SOL    HW2 8210   1.908   3.452   5.201 -0.8838  1.4403  0.7625
 2424SOL     OW 8211   1.385   1.216   5.796  0.1017  0.0085 -0.4637
 2424SOL    HW1 8212   1.429   1.173   5.723  2.7613 -0.6059  1.3330
 2424SOL    HW2 8213   1.343   1.144   5.844 -0.5138  0.2250 -0.6780
 2425SOL     OW 8214   1.314   0.549   1.038 -0.6305  0.5452  0.0036
 2425SOL    HW1 8215   1.404   0.581   1.033 -0.5865  0.5553  0.7681
 2425SOL    HW2 8216   1.262   0.626   1.063 -1.0103  0.7801 -1.4120
 2426SOL     OW 8217   4.627   1.413   1.588  0.5143  0.1121  1.3331
 2426SOL    HW1 8218   4.662   1.327   1.614  0.0405 -0.2128  0.8979
 2426SOL    HW2 8219   4.690   1.446   1.524  0.6882  0.0821  1.4880
 2427SOL     OW 8220   6.392   0.940   2.397 -0.3081  0.4414  0.4212
 2427SOL    HW1 8221   6.384   0.900   2.484  0.2301  0.2438  0.3810
 2427SOL    HW2 8222   6.302   0.959   2.372 -0.4934  0.2116  0.8890
 2428SOL     OW 8223   5.647   5.940   2.438  0.6364  0.3285  0.4118
 2428SOL    HW1 8224   5.596   5.909   2.513  0.8396 -2.2905 -0.4053
 2428SOL    HW2 8225   5.693   5.861   2.407  1.8103  1.6790 -1.4793
 2429SOL     OW 8226   1.909   1.666   5.360  0.0939 -0.1263  0.1829
 2429SOL    HW1 8227   1.944   1.752   5.339 -1.0241  0.5702  1.0777
 2429SOL    HW2 8228   1.917   1.617   5.278  1.4006  0.5714 -0.1476
 2430SOL     OW 8229   6.725   0.358   3.980 -0.1064 -0.0955 -0.0731
 2430SOL    HW1 8230   6.810   0.319   3.997 -0.3321  0.4474  2.7778
 2430SOL    HW2 8231   6.662   0.292   4.008 -0.6513 -0.3084 -1.7063
 2431SOL     OW 8232   4.643   0.938   2.192 -0.3857  0.2954 -0.5145
 2431SOL    HW1 8233   4.611   0.868   2.135  1.7052  0.6327 -2.2197
 2431SOL    HW2 8234   4.726   0.906   2.226 -0.9398  0.6774  1.3241
 2432SOL     OW 8235   1.642   4.734   6.605  0.0053  0.3061  0.0300
 2432SOL    HW1 8236   1.638   4.774   6.692 -3.4679 -1.2487  0.7803
 2432SOL    HW2 8237   1.626   4.807   6.545  0.5603  1.0959  0.8146
 2433SOL     OW 8238   6.959   2.553   6.478 -0.1048  0.4618 -0.1938
 2433SOL    HW1 8239   6.902   2.524   6.408 -1.1177 -0.7512  1.0745
 2433SOL    HW2 8240   6.946   2.489   6.548  2.1113  0.6856  0.4964
 2434SOL     OW 8241   5.863   6.674   5.938 -0.6349 -0.6618  0.1772
 2434SOL    HW1 8242   5.784   6.688   5.887 -0.6897  0.0386  0.4326
 2434SOL    HW2 8243   5.931   6.722   5.889 -0.3254 -1.4288 -0.1505
 2435SOL     OW 8244   7.300   5.505   5.835  0.0872 -0.0381  0.1274
 2435SOL    HW1 8245   7.282   5.415   5.862 -1.6649  0.6142  1.3443
 2435SOL    HW2 8246   7.361   5.538   5.901  0.9251 -0.3856 -0.4590
 2436SOL     OW 8247   5.517   3.743   5.958  0.3380 -0.7043 -0.3724
 2436SOL    HW1 8248   5.519   3.810   5.891  0.8391 -0.0374  0.3008
 2436SOL    HW2 8249   5.433   3.757   6.003  0.7460 -0.0990  0.2009
 2437SOL     OW 8250   4.220   5.458   7.227 -0.3985 -0.4846  0.0132
 2437SOL    HW1 8251   4.221   5.552   7.244 -0.9104 -0.7662  1.7889
 2437SOL    HW2 8252   4.279   5.421   7.293 -1.0424 -1.5105  0.0355
 2438SOL     OW 8253   3.624   7.233   6.609 -0.1450 -0.0617 -0.2527
 2438SOL    HW1 8254   3.588   7.239   6.698 -1.1003  1.9786 -0.7060
 2438SOL    HW2 8255   3.585   7.308   6.563  3.6183  1.5444 -1.1941
 2439SOL     OW 8256   6.899   5.587   6.563 -0.0252  0.2145  0.0007
 2439SOL    HW1 8257   6.884   5.636   6.644 -2.4616 -1.7503  0.8836
 2439SOL    HW2 8258   6.811   5.568   6.530  0.9001  0.1474 -2.6479
 2440SOL     OW 8259   5.341   0.990   5.030 -0.0201 -0.2487  0.2793
 2440SOL    HW1 8260   5.427   0.950   5.039 -0.5011 -1.2175  0.7506
 2440SOL    HW2 8261   5.297   0.939   4.961 -0.8203 -0.9067  1.2403
 2441SOL     OW 8262   0.722   1.617   1.780  0.8532 -0.3506  0.4614
 2441SOL    HW1 8263   0.762   1.547   1.727  0.1404  0.1019 -0.7177
 2441SOL    HW2 8264   0.722   1.583   1.869  1.9938 -1.1886  0.1634
 2442SOL     OW 8265   2.654   0.905   3.653  0.2781  0.3326 -0.1385
 2442SOL    HW1 8266   2.619   0.982   3.700  0.8166  0.7143 -0.3636
 2442SOL    HW2 8267   2.581   0.877   3.597 -0.2892  0.0292  0.7171
 2443SOL     OW 8268   5.046   3.210   3.307  0.2026  0.5417  0.3172
 2443SOL    HW1 8269   5.088   3.144   3.361 -1.2502 -1.0945 -0.4683
 2443SOL    HW2 8270   5.119   3.262   3.271  1.4263 -1.0455  0.4047
 2444SOL     OW 8271   5.500   7.141   6.427  0.4665  0.8175 -0.0295
 2444SOL    HW1 8272   5.559   7.207   6.392  0.3797  0.2386 -1.3064
 2444SOL    HW2 8273   5.555   7.064   6.440  0.2663  0.6907  0.0667
 2445SOL     OW 8274   4.861   0.134   1.157 -0.5086 -0.3886 -0.5523
 2445SOL    HW1 8275   4.896   0.212   1.201  2.0013 -2.0505  0.6197
 2445SOL    HW2 8276   4.920   0.119   1.083 -1.8032 -0.4448 -1.6300
 2446SOL     OW 8277   0.809   5.944   1.252 -0.0757 -0.1801  0.0347
 2446SOL    HW1 8278   0.880   5.912   1.196  0.6173  2.3044 -0.6255
 2446SOL    HW2 8279   0.850   5.959   1.337  0.1543  0.8952 -0.2442
 2447SOL     OW 8280   4.913   2.119   5.105 -0.0206 -0.0460  0.3467
 2447SOL    HW1 8281   4.929   2.159   5.019 -0.2123 -0.8051 -0.0460
 2447SOL    HW2 8282   4.820   2.132   5.121  0.3418  1.6873  1.2676
 2448SOL     OW 8283   2.625   6.934   2.151 -0.0110 -0.1919  0.5357
 2448SOL    HW1 8284   2.629   6.967   2.241  0.3712  3.5170 -0.6795
 2448SOL    HW2 8285   2.540   6.962   2.119  0.7352  0.5282 -0.9012
 2449SOL     OW 8286   4.248   1.432   2.686  0.4556 -0.0696  0.0284
 2449SOL    HW1 8287   4.300   1.488   2.743  1.7163 -0.2915 -0.8533
 2449SOL    HW2 8288   4.287   1.443   2.599  0.3458 -1.8325 -0.2876
 2450SOL     OW 8289   3.216   1.500   2.024 -0.3325 -0.9998  0.5585
 2450SOL    HW1 8290   3.122   1.482   2.022 -0.5496 -0.4603 -3.6942
 2450SOL    HW2 8291   3.223   1.593   2.003  1.2109 -0.7208  2.0828
 2451SOL     OW 8292   5.967   3.531   4.731 -0.0716  0.6435  0.2220
 2451SOL    HW1 8293   5.910   3.577   4.793 -1.2774  0.3895 -0.6552
 2451SOL    HW2 8294   6.051   3.522   4.776 -0.9428  0.3840  1.8312
 2452SOL     OW 8295   7.392   5.757   4.748 -0.0918 -0.4667 -0.3913
 2452SOL    HW1 8296   7.310   5.731   4.706  0.0753 -1.2566 -0.2455
 2452SOL    HW2 8297   7.446   5.677   4.746  0.1053 -0.3764  0.8844
 2453SOL     OW 8298   1.105   0.515   3.844 -0.1370 -0.2075 -0.1422
 2453SOL    HW1 8299   1.192   0.548   3.821 -0.7649  1.4992 -0.1728
 2453SOL    HW2 8300   1.108   0.422   3.820  1.7340 -0.2351  0.0506
 2454SOL     OW 8301   4.241   2.532   6.673  0.1322 -0.3616  0.4305
 2454SOL    HW1 8302   4.326   2.555   6.637 -0.5463  1.1752 -0.2653
 2454SOL    HW2 8303   4.216   2.607   6.727  0.0051 -1.5575  2.1330
 2455SOL     OW 8304   1.745   5.300   1.952 -1.0156 -0.2592  0.2507
 2455SOL    HW1 8305   1.834   5.336   1.950 -0.8175 -0.7556 -1.1917
 2455SOL    HW2 8306   1.743   5.246   2.032 -0.1657  0.0999  0.5293
 2456SOL     OW 8307   1.562   1.038   5.615  0.0994  0.4851 -0.2290
 2456SOL    HW1 8308   1.616   1.031   5.694 -1.7962 -0.0313  1.0895
 2456SOL    HW2 8309   1.579   1.126   5.581 -0.0191  1.1860  1.4780
 2457SOL     OW 8310   3.437   3.239   4.945  0.3115  0.2920  0.0332
 2457SOL    HW1 8311   3.354   3.248   4.990  0.6613  1.1335  0.5216
 2457SOL    HW2 8312   3.420   3.269   4.856 -0.3333 -1.2082 -0.3881
 2458SOL     OW 8313   4.938   6.695   0.488  0.0062 -0.5934 -0.0609
 2458SOL    HW1 8314   4.955   6.784   0.457 -0.4323 -0.0536  1.1619
 2458SOL    HW2 8315   4.896   6.651   0.414 -0.4396  0.4389 -0.4383
 2459SOL     OW 8316   6.921   1.106   3.242  0.3293 -0.3915 -0.2506
 2459SOL    HW1 8317   6.975   1.091   3.164  2.0272 -1.2025  1.0256
 2459SOL    HW2 8318   6.960   1.183   3.283  0.4793 -0.9309  0.6393
 2460SOL     OW 8319   0.853   6.094   5.568  0.0108 -0.4207  0.4243
 2460SOL    HW1 8320   0.874   6.133   5.483 -0.1593  0.1789  0.6547
 2460SOL    HW2 8321   0.849   6.000   5.550  1.8299 -0.4909  0.1463
 2461SOL     OW 8322   7.005   2.195   4.363  0.2792  0.2598 -0.1859
 2461SOL    HW1 8323   6.994   2.133   4.291  1.0651 -0.8766  0.6375
 2461SOL    HW2 8324   7.098   2.216   4.364  0.0972  1.1158 -0.1711
 2462SOL     OW 8325   4.252   5.176   1.060  0.4512  0.0462  0.7011
 2462SOL    HW1 8326   4.214   5.238   0.998 -3.8845 -1.9622  0.9881
 2462SOL    HW2 8327   4.270   5.229   1.138  1.7721  1.7727 -0.6966
 2463SOL     OW 8328   3.276   2.241   4.467  0.0641 -0.9197  0.1661
 2463SOL    HW1 8329   3.200   2.188   4.442 -0.7389 -0.9631  2.4649
 2463SOL    HW2 8330   3.286   2.303   4.396 -1.7681 -1.2989 -0.4790
 2464SOL     OW 8331   4.077   6.168   4.840  0.3044 -0.1855  0.1362
 2464SOL    HW1 8332   3.990   6.164   4.880  0.2755  0.4477  0.1439
 2464SOL    HW2 8333   4.107   6.256   4.859  0.3922  0.0463 -1.0494
 2465SOL     OW 8334   1.562   4.372   2.756 -0.4052 -0.5016  0.6291
 2465SOL    HW1 8335   1.478   4.416   2.772  0.2040  0.7765  0.4607
 2465SOL    HW2 8336   1.595   4.353   2.844 -0.3545  0.0176  0.7260
 2466SOL     OW 8337   4.780   5.898   0.679  0.0161 -0.0597 -0.6412
 2466SOL    HW1 8338   4.856   5.852   0.642 -0.6290 -1.7890  0.0814
 2466SOL    HW2 8339   4.730   5.926   0.603 -0.2390 -1.7442 -1.1225
 2467SOL     OW 8340   6.549   1.211   6.407 -0.1479 -0.6412  0.3069
 2467SOL    HW1 8341   6.455   1.192   6.412  0.0906 -2.5332 -1.3777
 2467SOL    HW2 8342   6.591   1.139   6.454  0.4912  0.0999  0.8949
 2468SOL     OW 8343   4.951   4.418   5.576 -0.1405  0.3037  0.6732
 2468SOL    HW1 8344   4.978   4.329   5.556 -1.1421 -0.2014  1.4689
 2468SOL    HW2 8345   5.006   4.444   5.649 -0.1311  0.1758  0.7123
 2469SOL     OW 8346   7.095   2.059   5.611 -0.5558 -0.0393 -0.0912
 2469SOL    HW1 8347   7.011   2.103   5.604 -0.6303 -0.3089 -1.1862
 2469SOL    HW2 8348   7.142   2.084   5.531  0.4542  0.2087  0.5567
 2470SOL     OW 8349   6.647   6.411   5.044  0.2154 -0.3650 -0.2154
 2470SOL    HW1 8350   6.560   6.382   5.016 -1.0886  2.0483  1.0835
 2470SOL    HW2 8351   6.678   6.464   4.971 -0.8807  1.4806  0.5887
 2471SOL     OW 8352   3.381   2.567   4.413 -0.0467 -0.1806  0.1364
 2471SOL    HW1 8353   3.369   2.504   4.342 -0.5965 -2.7378  2.3435
 2471SOL    HW2 8354   3.469   2.550   4.445 -0.6808 -0.8729  1.6181
 2472SOL     OW 8355   2.160   2.476   5.864 -0.0689  0.1263 -0.2016
 2472SOL    HW1 8356   2.108   2.400   5.838  1.2460 -0.8064 -0.2617
 2472SOL    HW2 8357   2.127   2.500   5.951 -0.3956 -0.6306 -0.1101
 2473SOL     OW 8358   1.418   6.630   1.621  0.4873 -0.7976  0.5893
 2473SOL    HW1 8359   1.345   6.596   1.571  0.5756 -3.0429  1.8286
 2473SOL    HW2 8360   1.486   6.647   1.556 -0.1293 -1.5365 -0.2687
 2474SOL     OW 8361   5.778   1.907   5.124 -0.4548 -0.2486 -0.1577
 2474SOL    HW1 8362   5.784   1.867   5.210 -0.6678 -0.2084 -0.1237
 2474SOL    HW2 8363   5.730   1.988   5.139 -0.5001 -0.2464 -0.3154
 2475SOL     OW 8364   1.707   4.642   2.538 -0.4271  0.1707 -0.1507
 2475SOL    HW1 8365   1.739   4.612   2.623  0.9933  0.1931 -0.6493
 2475SOL    HW2 8366   1.778   4.695   2.503 -1.2086  0.6078 -1.1269
 2476SOL     OW 8367   6.948   7.280   0.017 -0.3569 -0.0962  0.1987
 2476SOL    HW1 8368   6.896   7.358  -0.001  0.0836 -0.3165 -2.4061
 2476SOL    HW2 8369   6.889   7.207  -0.003 -0.5405 -0.4879  1.9481
 2477SOL     OW 8370   3.774   6.823   2.501  0.3773 -0.7215  0.2087
 2477SOL    HW1 8371   3.736   6.817   2.413 -0.1673  1.2496  0.2552
 2477SOL    HW2 8372   3.700   6.811   2.560 -0.1814  2.3777  0.3036
 2478SOL     OW 8373   7.162   1.097   3.597  0.2286 -0.7263 -0.6252
 2478SOL    HW1 8374   7.111   1.172   3.565 -0.1093 -0.5943  0.2058
 2478SOL    HW2 8375   7.097   1.029   3.613  0.4098 -0.8340 -0.3481
 2479SOL     OW 8376   3.327   1.413   4.509  0.0089 -0.1469 -0.0471
 2479SOL    HW1 8377   3.269   1.436   4.436 -0.7819  0.1412  0.6648
 2479SOL    HW2 8378   3.274   1.356   4.565  0.5121 -0.1229  0.4645
 2480SOL     OW 8379   6.895   3.993   2.567  0.9621  0.0742 -0.4867
 2480SOL    HW1 8380   6.822   3.931   2.573 -0.6845  1.7139 -2.2559
 2480SOL    HW2 8381   6.969   3.940   2.539  0.3760 -1.5389  0.8163
 2481SOL     OW 8382   1.302   5.647   5.853 -0.1625 -0.5160 -0.5640
 2481SOL    HW1 8383   1.350   5.583   5.802 -0.1827 -0.9687 -0.0252
 2481SOL    HW2 8384   1.285   5.604   5.937  1.2860  0.7318  0.4530
 2482SOL     OW 8385   4.436   0.772   1.419 -0.5212 -0.1370  0.0383
 2482SOL    HW1 8386   4.400   0.721   1.346 -0.8902  0.6236 -0.3211
 2482SOL    HW2 8387   4.370   0.838   1.438 -0.0081  0.2806  0.4277
 2483SOL     OW 8388   4.497   2.153   6.037 -0.4860  0.7029 -0.2914
 2483SOL    HW1 8389   4.569   2.097   6.066 -1.4910  0.3940  1.7774
 2483SOL    HW2 8390   4.484   2.129   5.945 -0.5879 -2.1981  0.3700
 2484SOL     OW 8391   2.393   1.197   0.210 -0.1255  0.3462 -0.4309
 2484SOL    HW1 8392   2.417   1.137   0.281 -1.2736  0.8153  0.3974
 2484SOL    HW2 8393   2.470   1.202   0.154  1.1413  0.6668  1.2788
 2485SOL     OW 8394   6.147   3.679   5.682 -0.1746 -0.3474 -0.4518
 2485SOL    HW1 8395   6.100   3.598   5.705 -0.6697  0.0488 -0.0420
 2485SOL    HW2 8396   6.179   3.663   5.594 -1.5999 -0.4138 -0.9911
 2486SOL     OW 8397   1.463   4.105   7.213 -0.2882  0.0333  0.1364
 2486SOL    HW1 8398   1.471   4.093   7.308 -0.4738 -0.6539  0.0758
 2486SOL    HW2 8399   1.452   4.199   7.201 -0.8164  0.0725  0.8451
 2487SOL     OW 8400   0.141   1.986   6.798 -0.2319 -0.6877 -0.3636
 2487SOL    HW1 8401   0.223   1.954   6.837 -1.1396 -0.0431  2.3001
 2487SOL    HW2 8402   0.134   2.077   6.828 -1.7969 -0.6591 -0.7211
 2488SOL     OW 8403   3.427   5.095   3.185  0.0239 -0.3243  0.5779
 2488SOL    HW1 8404   3.487   5.168   3.197 -0.6990  0.1547  1.3873
 2488SOL    HW2 8405   3.457   5.028   3.247  0.6860 -0.7349 -0.1641
 2489SOL     OW 8406   2.337   6.256   5.217 -0.5936  0.3983 -0.3825
 2489SOL    HW1 8407   2.374   6.181   5.262 -0.6167  1.2984  1.2218
 2489SOL    HW2 8408   2.282   6.299   5.283 -0.7890  1.6653 -1.3264
 2490SOL     OW 8409   0.639   1.141   3.787  0.3697 -0.4097 -0.3679
 2490SOL    HW1 8410   0.701   1.100   3.847  0.4610  0.9979  0.5499
 2490SOL    HW2 8411   0.693   1.170   3.713  0.5795 -0.4177 -0.2193
 2491SOL     OW 8412   0.659   0.106   0.554 -0.1630  0.3270 -0.4960
 2491SOL    HW1 8413   0.690   0.022   0.587  0.3690  0.1771 -1.3530
 2491SOL    HW2 8414   0.577   0.086   0.509 -0.5584  0.4324  0.1654
 2492SOL     OW 8415   5.761   4.379   3.220 -0.2303  0.4175  1.0197
 2492SOL    HW1 8416   5.831   4.364   3.285  1.1612  0.0627 -0.4926
 2492SOL    HW2 8417   5.779   4.466   3.185  0.4147 -0.2733 -0.4574
 2493SOL     OW 8418   4.064   0.824   5.019  0.3086 -0.2542 -0.7067
 2493SOL    HW1 8419   4.072   0.919   5.023 -1.4726 -0.0866 -0.1897
 2493SOL    HW2 8420   4.072   0.803   4.926  1.8131  0.2476 -0.7186
 2494SOL     OW 8421   3.688   7.003   6.469  0.2355 -1.1552  0.0140
 2494SOL    HW1 8422   3.624   6.934   6.484 -0.1308 -0.6586  0.7775
 2494SOL    HW2 8423   3.650   7.081   6.510 -0.1746 -0.0441 -2.2924
 2495SOL     OW 8424   0.233   4.958   4.032 -0.6710  0.6644 -0.1447
 2495SOL    HW1 8425   0.152   4.914   4.060 -0.3479  0.9687  1.3571
 2495SOL    HW2 8426   0.204   5.047   4.009 -0.6711  1.0366  1.2046
 2496SOL     OW 8427   6.274   5.825   4.015 -0.0239  0.0641 -0.2900
 2496SOL    HW1 8428   6.211   5.890   3.987 -0.2806 -0.5022 -1.0628
 2496SOL    HW2 8429   6.355   5.847   3.969  0.4611  0.9836  0.9478
 2497SOL     OW 8430   3.185   4.940   7.234 -0.1206  0.0175 -0.2272
 2497SOL    HW1 8431   3.240   5.009   7.273 -0.9900  1.3789 -1.3201
 2497SOL    HW2 8432   3.215   4.933   7.144 -0.6490 -0.3891 -0.3745
 2498SOL     OW 8433   0.599   5.341   7.208 -0.5531  0.0982  0.2457
 2498SOL    HW1 8434   0.557   5.369   7.127 -1.9630 -1.6825  0.3037
 2498SOL    HW2 8435   0.680   5.393   7.213 -0.1774 -0.1019 -2.5252
 2499SOL     OW 8436   7.427   3.623   1.671  0.5835  0.3956 -0.1074
 2499SOL    HW1 8437   7.410   3.717   1.683  1.3996  0.4080  1.0990
 2499SOL    HW2 8438   7.516   3.610   1.703  0.1969 -0.9407  0.4890
 2500SOL     OW 8439   0.669   5.338   3.135  0.2097 -0.4282  0.1641
 2500SOL    HW1 8440   0.750   5.357   3.181  0.1826 -0.4795  0.2333
 2500SOL    HW2 8441   0.659   5.410   3.073 -0.3440  0.2522  1.0227
 2501SOL     OW 8442   1.230   5.275   4.598 -0.2691 -0.3683 -0.0417
 2501SOL    HW1 8443   1.256   5.298   4.509  0.8328 -2.4797 -0.3160
 2501SOL    HW2 8444   1.307   5.234   4.637 -1.0297 -0.3695  1.5726
 2502SOL     OW 8445   3.015   2.122   1.868  0.6338 -0.1783 -0.0569
 2502SOL    HW1 8446   3.000   2.030   1.889  2.0108 -0.1280  1.3335
 2502SOL    HW2 8447   3.015   2.126   1.773 -0.5922 -1.3960 -0.1395
 2503SOL     OW 8448   3.726   1.816   2.734  0.2029  0.2652  0.7204
 2503SOL    HW1 8449   3.651   1.759   2.751  0.0563  0.6639  1.4197
 2503SOL    HW2 8450   3.801   1.770   2.773  1.1975 -2.2518 -3.5131
 2504SOL     OW 8451   7.325   7.202   3.206 -0.1466 -0.4238  0.0708
 2504SOL    HW1 8452   7.417   7.210   3.181 -0.1167  1.8229  0.6549
 2504SOL    HW2 8453   7.277   7.213   3.124  0.0912 -0.3097 -0.0553
 2505SOL     OW 8454   7.315   4.995   6.389  0.0078  0.0918  0.0081
 2505SOL    HW1 8455   7.339   5.068   6.331  1.5973 -0.2167  0.2327
 2505SOL    HW2 8456   7.358   5.016   6.472 -1.5576  0.1106  0.8460
 2506SOL     OW 8457   4.032   5.835   3.996 -0.9106  0.1568  0.5293
 2506SOL    HW1 8458   3.957   5.890   4.017 -1.7717 -0.7810  0.0227
 2506SOL    HW2 8459   4.037   5.773   4.069  1.7442  2.5028  2.5286
 2507SOL     OW 8460   3.669   5.103   4.250  0.4332  0.7741  0.1265
 2507SOL    HW1 8461   3.700   5.028   4.301 -0.6335  0.4483  0.3221
 2507SOL    HW2 8462   3.677   5.178   4.309  0.4947  0.6372  0.2918
 2508SOL     OW 8463   2.104   1.731   5.777  0.5951  0.1300  0.1648
 2508SOL    HW1 8464   2.091   1.660   5.714 -0.0410  0.1609  0.2525
 2508SOL    HW2 8465   2.108   1.810   5.724 -3.1187  0.5727  0.2670
 2509SOL     OW 8466   4.092   1.232   3.234 -0.1055  0.7037  0.3135
 2509SOL    HW1 8467   4.102   1.317   3.277 -2.0730  1.6601 -1.0048
 2509SOL    HW2 8468   4.170   1.224   3.179  1.5994  0.2244  2.6357
 2510SOL     OW 8469   2.746   5.809   6.683  0.6057  0.0336 -0.6193
 2510SOL    HW1 8470   2.727   5.748   6.754 -0.0427  1.4923  0.5101
 2510SOL    HW2 8471   2.711   5.766   6.605  0.6888 -1.2762  0.0294
 2511SOL     OW 8472   5.143   4.364   6.731  0.4619 -0.2872 -0.4810
 2511SOL    HW1 8473   5.232   4.396   6.725  0.4952 -0.6618 -2.3798
 2511SOL    HW2 8474   5.152   4.270   6.748  0.4414 -0.4464 -1.3406
 2512SOL     OW 8475   1.573   3.252   3.288 -0.7686  1.1037 -0.1794
 2512SOL    HW1 8476   1.496   3.301   3.259 -1.0837  0.7713  0.0824
 2512SOL    HW2 8477   1.633   3.319   3.321 -0.8112  1.3958 -0.6797
 2513SOL     OW 8478   4.074   2.744   1.133 -0.5394 -0.2210 -0.1283
 2513SOL    HW1 8479   4.112   2.691   1.062 -0.6125  0.8880 -1.0321
 2513SOL    HW2 8480   3.986   2.708   1.144 -0.9210  0.2715 -1.3687
 2514SOL     OW 8481   0.784   0.926   5.002 -0.5209 -0.4583  0.0777
 2514SOL    HW1 8482   0.768   0.896   4.913 -1.8892 -0.3834  0.2701
 2514SOL    HW2 8483   0.879   0.923   5.012 -0.3645 -0.7148 -1.2879
 2515SOL     OW 8484   2.145   0.771   3.681  0.4349 -0.3856 -0.0051
 2515SOL    HW1 8485   2.140   0.804   3.771  2.9008 -0.0810  0.0970
 2515SOL    HW2 8486   2.057   0.783   3.646 -0.0844  1.3847  1.7293
 2516SOL     OW 8487   2.458   4.194   5.536  0.2913  0.3869  0.7325
 2516SOL    HW1 8488   2.417   4.201   5.622  0.8734  0.7650  0.9833
 2516SOL    HW2 8489   2.524   4.263   5.535 -0.5506  1.2331 -0.4882
 2517SOL     OW 8490   3.037   1.841   1.842 -0.3268 -0.0650 -0.2966
 2517SOL    HW1 8491   3.028   1.759   1.890 -0.4368  0.3550  0.4288
 2517SOL    HW2 8492   3.124   1.836   1.802  0.9844  0.6894  2.2281
 2518SOL     OW 8493   1.748   5.031   5.265 -0.1446 -0.1579  0.6138
 2518SOL    HW1 8494   1.801   4.961   5.301 -0.8421 -0.9234  0.1728
 2518SOL    HW2 8495   1.676   5.041   5.327 -0.2990 -0.1507  0.4333
 2519SOL     OW 8496   3.202   0.759   3.643 -0.2445 -0.1918 -0.1891
 2519SOL    HW1 8497   3.152   0.681   3.668  0.7157 -0.0732  2.3376
 2519SOL    HW2 8498   3.141   0.809   3.588 -0.9800 -2.5108 -1.6605
 2520SOL     OW 8499   0.236   2.014   4.517  0.1278  0.4961  0.1039
 2520SOL    HW1 8500   0.193   1.931   4.496 -0.2682  0.6899  0.1328
 2520SOL    HW2 8501   0.230   2.020   4.613  0.4545  0.3984  0.1306
 2521SOL     OW 8502   7.362   2.600   3.181 -0.0702 -0.2032  0.1913
 2521SOL    HW1 8503   7.280   2.637   3.213 -0.5035 -2.4280  1.8835
 2521SOL    HW2 8504   7.425   2.618   3.251  0.7480  0.8771 -0.7911
 2522SOL     OW 8505   3.150   5.609   4.745  0.5064 -0.9584  0.6940
 2522SOL    HW1 8506   3.129   5.685   4.692  0.3737 -1.8005 -0.5069
 2522SOL    HW2 8507   3.073   5.552   4.736  1.5616 -2.2862 -0.4365
 2523SOL     OW 8508   3.081   6.136   3.041 -0.2671 -0.2979  0.3767
 2523SOL    HW1 8509   3.070   6.202   2.972 -2.6947 -0.8755  0.1114
 2523SOL    HW2 8510   3.149   6.171   3.097  0.3164  1.1980 -1.1754
 2524SOL     OW 8511   7.382   3.448   1.199 -0.7158  0.3479 -0.1571
 2524SOL    HW1 8512   7.434   3.518   1.238  0.4985 -0.4262 -0.3286
 2524SOL    HW2 8513   7.386   3.465   1.105  1.5507 -1.1881 -0.4150
 2525SOL     OW 8514   4.107   0.799   6.738  0.8247 -0.2885  0.2621
 2525SOL    HW1 8515   4.176   0.738   6.764  2.1574  0.8446 -0.5192
 2525SOL    HW2 8516   4.062   0.819   6.820  2.8864  0.7032  1.2334
 2526SOL     OW 8517   0.864   4.307   0.505 -0.5086  0.2168 -0.2565
 2526SOL    HW1 8518   0.806   4.233   0.520 -0.3050  0.1244  0.0843
 2526SOL    HW2 8519   0.898   4.294   0.417  0.3295 -0.6524  0.1832
 2527SOL     OW 8520   6.461   1.272   1.949 -0.4710 -0.2738  0.1501
 2527SOL    HW1 8521   6.410   1.276   1.868  0.2012  0.1903 -0.2620
 2527SOL    HW2 8522   6.475   1.364   1.972 -1.3774 -0.4024  1.2586
 2528SOL     OW 8523   7.071   7.251   3.492  0.8015  0.2681 -0.1484
 2528SOL    HW1 8524   6.997   7.218   3.543  0.7458 -0.9151 -0.9583
 2528SOL    HW2 8525   7.142   7.258   3.555 -0.1146  1.9786  0.7699
 2529SOL     OW 8526   0.534   2.201   5.917  0.1616 -0.1541  0.9142
 2529SOL    HW1 8527   0.622   2.193   5.954 -0.1296 -0.8952  1.4530
 2529SOL    HW2 8528   0.512   2.293   5.930  1.5503  0.5048 -0.8411
 2530SOL     OW 8529   3.877   6.033   0.038  0.0851 -0.1055 -0.2729
 2530SOL    HW1 8530   3.859   5.941   0.020 -0.4880  0.2557 -1.7071
 2530SOL    HW2 8531   3.969   6.044   0.018  0.7588 -0.8328  2.1142
 2531SOL     OW 8532   2.502   3.072   5.236 -0.1026 -0.1844  0.5681
 2531SOL    HW1 8533   2.547   3.064   5.320 -0.1528  1.1074  0.7460
 2531SOL    HW2 8534   2.572   3.084   5.172 -0.1075  0.0657  0.6063
 2532SOL     OW 8535   2.856   2.494   0.932  0.1569 -0.2357 -0.1592
 2532SOL    HW1 8536   2.923   2.482   1.000  0.6313 -1.4747 -0.8094
 2532SOL    HW2 8537   2.894   2.453   0.854  1.0982  3.9572 -2.1931
 2533SOL     OW 8538   0.144   1.145   2.200  0.0160  0.1944  0.0875
 2533SOL    HW1 8539   0.208   1.215   2.214 -0.1064  0.3174  0.0387
 2533SOL    HW2 8540   0.148   1.128   2.106  2.1438 -1.8828  0.4569
 2534SOL     OW 8541   6.018   6.116   0.272 -0.0063  0.0874  0.4044
 2534SOL    HW1 8542   6.006   6.025   0.246  0.0807  0.3449 -0.6125
 2534SOL    HW2 8543   5.976   6.166   0.201 -0.6578  0.8259  1.2826
 2535SOL     OW 8544   0.718   5.168   4.034  0.1118 -0.5883  0.2469
 2535SOL    HW1 8545   0.675   5.239   4.082 -0.2556  0.1354 -1.1020
 2535SOL    HW2 8546   0.726   5.097   4.098 -0.4374  0.3001  1.3374
 2536SOL     OW 8547   1.555   5.945   1.944 -0.7862 -0.0255  0.5838
 2536SOL    HW1 8548   1.478   5.911   1.991 -0.3242 -0.5422  0.9845
 2536SOL    HW2 8549   1.623   5.951   2.011 -0.0132 -1.0834 -0.0779
 2537SOL     OW 8550   3.986   7.160   6.267 -0.9210 -0.4747 -0.9681
 2537SOL    HW1 8551   3.929   7.084   6.256  0.9267 -2.0065 -0.6411
 2537SOL    HW2 8552   4.057   7.145   6.205 -0.2709  0.7450 -0.5509
 2538SOL     OW 8553   7.122   5.330   5.611  0.8474 -0.0275 -0.2540
 2538SOL    HW1 8554   7.093   5.420   5.603  1.3439  0.4325  2.2345
 2538SOL    HW2 8555   7.218   5.336   5.616  0.8452 -0.5303  0.9562
 2539SOL     OW 8556   4.611   1.823   4.281  0.4221 -0.3344  0.1787
 2539SOL    HW1 8557   4.681   1.885   4.299 -1.4528  2.1816 -0.6871
 2539SOL    HW2 8558   4.618   1.805   4.187  0.8778 -1.3971  0.3987
 2540SOL     OW 8559   0.394   2.372   3.321 -0.0176  0.1755  0.4573
 2540SOL    HW1 8560   0.335   2.336   3.255  1.6780  1.2583 -1.7622
 2540SOL    HW2 8561   0.471   2.315   3.318 -0.2222 -0.2487  2.1471
 2541SOL     OW 8562   5.782   6.673   1.615  0.5488  0.5098 -0.3222
 2541SOL    HW1 8563   5.763   6.758   1.575 -1.9133  1.0151  1.6378
 2541SOL    HW2 8564   5.814   6.695   1.702  1.8582 -0.5973 -0.4968
 2542SOL     OW 8565   4.559   2.117   4.809  0.0872 -0.8164 -0.9852
 2542SOL    HW1 8566   4.609   2.135   4.888 -1.9651  0.8558  0.0415
 2542SOL    HW2 8567   4.529   2.027   4.819 -0.5962 -0.4621  0.4640
 2543SOL     OW 8568   3.090   4.911   1.816  0.6807 -0.9006  0.0667
 2543SOL    HW1 8569   3.034   4.834   1.809  0.2108 -0.7609  1.8542
 2543SOL    HW2 8570   3.130   4.904   1.903  0.0340  1.2350  0.6043
 2544SOL     OW 8571   3.916   6.962   1.049 -0.3859  0.7811 -0.0154
 2544SOL    HW1 8572   3.962   7.022   0.990  0.3920  0.6493  0.4463
 2544SOL    HW2 8573   3.928   6.876   1.009  0.8626  0.5751  0.7437
 2545SOL     OW 8574   0.389   5.432   4.405 -0.2329  0.0660 -0.4080
 2545SOL    HW1 8575   0.305   5.474   4.423 -0.3040 -0.1611 -0.2122
 2545SOL    HW2 8576   0.454   5.499   4.427 -0.1647 -0.9508  3.1646
 2546SOL     OW 8577   1.970   2.480   1.128  0.2099  0.0047  0.5198
 2546SOL    HW1 8578   1.884   2.508   1.160  1.4498  2.8609  1.7231
 2546SOL    HW2 8579   2.031   2.508   1.196  2.0913 -2.4597 -0.0255
 2547SOL     OW 8580   5.349   4.370   0.781 -0.2747  0.5685  0.5720
 2547SOL    HW1 8581   5.364   4.445   0.839 -1.8716 -0.4935  2.4757
 2547SOL    HW2 8582   5.257   4.377   0.756 -0.5869 -0.9637  1.1649
 2548SOL     OW 8583   6.831   4.936   1.749  0.0779 -0.2078 -0.2028
 2548SOL    HW1 8584   6.844   4.922   1.843  1.0818  2.3505  0.1338
 2548SOL    HW2 8585   6.770   4.867   1.723 -1.3922 -0.1622  2.6441
 2549SOL     OW 8586   7.381   2.291   7.108 -0.2399 -0.5464  0.0746
 2549SOL    HW1 8587   7.319   2.336   7.166 -0.0775  0.4073 -0.4683
 2549SOL    HW2 8588   7.346   2.202   7.100 -1.7235  0.0470 -0.4559
 2550SOL     OW 8589   1.666   3.488   4.463  0.0891  0.1378 -0.3336
 2550SOL    HW1 8590   1.683   3.580   4.481  1.6926 -0.0183 -0.8637
 2550SOL    HW2 8591   1.735   3.441   4.510 -1.3251 -0.8956  0.7944
 2551SOL     OW 8592   6.615   1.574   3.300  0.0526 -0.1632  0.3251
 2551SOL    HW1 8593   6.550   1.533   3.243  0.3405  0.0467 -0.1611
 2551SOL    HW2 8594   6.604   1.668   3.286  0.4129 -0.1240  0.2909
 2552SOL     OW 8595   5.362   6.678   2.214  0.1858 -0.8997 -0.6902
 2552SOL    HW1 8596   5.439   6.734   2.202 -0.2782 -0.0239  0.3382
 2552SOL    HW2 8597   5.371   6.644   2.303  0.0462 -1.8434 -1.0309
 2553SOL     OW 8598   3.623   4.940   4.453  0.3272  0.5081  0.4942
 2553SOL    HW1 8599   3.674   4.859   4.465 -2.8331 -1.7419  0.1727
 2553SOL    HW2 8600   3.600   4.967   4.542 -2.1853 -1.6406  0.6543
 2554SOL     OW 8601   0.211   1.645   4.675  0.0319 -0.2845 -0.0763
 2554SOL    HW1 8602   0.123   1.659   4.639 -0.3897 -1.7278  0.3075
 2554SOL    HW2 8603   0.198   1.650   4.770  0.5574  0.4428 -0.0365
 2555SOL     OW 8604   7.349   5.284   0.113 -0.1673 -0.0701 -0.2259
 2555SOL    HW1 8605   7.280   5.329   0.160 -3.2464 -1.7973 -2.7159
 2555SOL    HW2 8606   7.353   5.197   0.152  0.7253  0.0254 -0.0619
 2556SOL     OW 8607   6.932   4.574   3.773  0.4158  0.4611  0.6222
 2556SOL    HW1 8608   6.894   4.529   3.848 -0.2157  1.5292  0.9651
 2556SOL    HW2 8609   6.918   4.514   3.699 -1.0235  0.3803  0.9326
 2557SOL     OW 8610   0.554   3.340   2.963  0.1164  0.2336 -0.3071
 2557SOL    HW1 8611   0.587   3.272   3.021 -1.3768 -1.2023 -1.0573
 2557SOL    HW2 8612   0.625   3.403   2.956  0.8591 -0.2905  1.8951
 2558SOL     OW 8613   4.325   3.166   5.035  0.0865 -0.6450  0.3042
 2558SOL    HW1 8614   4.296   3.077   5.014  0.3874 -0.8761  0.8661
 2558SOL    HW2 8615   4.248   3.207   5.075  0.1297 -0.8380  0.5857
 2559SOL     OW 8616   3.058   2.476   4.913 -0.2139  0.1876  0.6922
 2559SOL    HW1 8617   2.967   2.499   4.934 -0.5378  1.1853 -1.5172
 2559SOL    HW2 8618   3.106   2.559   4.919  0.4414 -0.2074  1.1371
 2560SOL     OW 8619   5.824   6.855   0.095  0.1102 -0.7995 -0.0408
 2560SOL    HW1 8620   5.798   6.946   0.084 -1.1528 -1.1115  0.2723
 2560SOL    HW2 8621   5.786   6.810   0.020 -0.1700 -1.2558  0.3765
 2561SOL     OW 8622   6.108   5.817   7.004  0.1845 -0.6783  0.2264
 2561SOL    HW1 8623   6.110   5.765   6.923 -0.0188 -0.4475  0.0738
 2561SOL    HW2 8624   6.074   5.757   7.070 -0.3401 -0.6513 -0.0145
 2562SOL     OW 8625   3.219   1.085   5.288  0.7004 -0.6533 -0.2791
 2562SOL    HW1 8626   3.306   1.090   5.328  0.0929  1.5554  0.9402
 2562SOL    HW2 8627   3.183   1.173   5.297 -0.9095 -0.9626 -2.5854
 2563SOL     OW 8628   4.518   6.600   3.895 -0.3417  0.0831 -0.4957
 2563SOL    HW1 8629   4.526   6.610   3.800  0.2085  0.0305 -0.4579
 2563SOL    HW2 8630   4.579   6.530   3.918 -0.5024  0.0637 -0.1062
 2564SOL     OW 8631   7.094   5.313   7.373  0.4333 -0.2601  0.1477
 2564SOL    HW1 8632   7.068   5.302   7.281 -1.5432 -0.7463  0.7197
 2564SOL    HW2 8633   7.072   5.404   7.393  2.3370  0.3402 -0.2465
 2565SOL     OW 8634   0.370   3.269   3.500  0.2888 -0.2781  1.0224
 2565SOL    HW1 8635   0.377   3.235   3.410  0.5025  2.5166 -0.1267
 2565SOL    HW2 8636   0.279   3.300   3.506  0.2334 -0.6026  1.8284
 2566SOL     OW 8637   5.013   6.879   5.698  0.0042 -0.0056 -0.1459
 2566SOL    HW1 8638   4.958   6.816   5.745 -1.8217  0.8803 -0.9810
 2566SOL    HW2 8639   5.087   6.828   5.667 -0.1088 -1.1624  1.4039
 2567SOL     OW 8640   3.304   0.667   4.994  0.3388  0.1423 -0.2351
 2567SOL    HW1 8641   3.334   0.746   4.949  0.2512 -0.4373 -1.3426
 2567SOL    HW2 8642   3.380   0.610   4.997 -0.0737 -0.4916 -1.1812
 2568SOL     OW 8643   7.109   2.370   4.957 -0.3072 -0.1497 -0.6667
 2568SOL    HW1 8644   7.112   2.385   4.862 -1.2441 -0.6926 -0.7928
 2568SOL    HW2 8645   7.132   2.278   4.967 -0.6487 -0.2051 -0.4017
 2569SOL     OW 8646   5.960   5.373   2.897 -0.2946 -0.1167  0.0547
 2569SOL    HW1 8647   5.936   5.439   2.961 -0.3282  0.8819 -0.9566
 2569SOL    HW2 8648   6.056   5.369   2.900 -0.2738  0.2218 -0.1074
 2570SOL     OW 8649   2.376   1.949   6.994  0.1537  0.6374  0.0760
 2570SOL    HW1 8650   2.382   1.950   6.899 -0.8242 -0.3503 -0.0168
 2570SOL    HW2 8651   2.460   1.913   7.023 -0.5482 -1.6665 -0.5649
 2571SOL     OW 8652   4.123   4.124   2.876  0.1012 -0.0639  0.1732
 2571SOL    HW1 8653   4.165   4.180   2.941  0.5847  1.3679 -1.3376
 2571SOL    HW2 8654   4.139   4.035   2.908  1.3926  0.5624  1.3747
 2572SOL     OW 8655   5.391   3.356   1.831 -0.1681  0.4030 -0.2233
 2572SOL    HW1 8656   5.322   3.292   1.847 -1.4769  1.4498 -1.3701
 2572SOL    HW2 8657   5.380   3.379   1.738  0.6453  1.8407  0.0182
 2573SOL     OW 8658   2.289   4.743   6.364  0.4826  0.5788 -0.0196
 2573SOL    HW1 8659   2.295   4.678   6.435  1.2810  1.0189  0.3306
 2573SOL    HW2 8660   2.370   4.731   6.314 -0.9914 -1.2149 -2.2137
 2574SOL     OW 8661   6.144   1.309   4.989  0.3107 -0.1076 -0.0923
 2574SOL    HW1 8662   6.064   1.312   5.041  0.3767 -3.5865  0.4713
 2574SOL    HW2 8663   6.214   1.324   5.052  0.2002  1.3289 -0.2880
 2575SOL     OW 8664   3.002   1.243   2.125  0.8611  0.4905  0.0317
 2575SOL    HW1 8665   3.038   1.266   2.211  0.9786  2.1537 -0.4231
 2575SOL    HW2 8666   2.972   1.327   2.089  2.6924  0.2138 -2.4049
 2576SOL     OW 8667   4.946   5.276   3.763  0.6532  0.3315 -0.9193
 2576SOL    HW1 8668   4.940   5.359   3.714  2.3895  0.4950 -0.8932
 2576SOL    HW2 8669   5.034   5.244   3.746  1.2277  0.2126  1.8162
 2577SOL     OW 8670   0.656   2.293   3.275  0.2722  0.1230  0.2643
 2577SOL    HW1 8671   0.702   2.373   3.304  0.6192  0.3827 -0.9346
 2577SOL    HW2 8672   0.666   2.294   3.180 -0.2400 -1.0510  0.1911
 2578SOL     OW 8673   2.909   2.898   5.682  0.0915 -0.0969 -0.6025
 2578SOL    HW1 8674   2.998   2.870   5.702  0.6216  0.8738 -1.5073
 2578SOL    HW2 8675   2.896   2.977   5.736  0.2750  0.5259 -1.4476
 2579SOL     OW 8676   0.250   3.792   2.622  0.7299 -0.4679  0.0066
 2579SOL    HW1 8677   0.185   3.731   2.656  0.2380 -0.6540 -1.2205
 2579SOL    HW2 8678   0.282   3.751   2.542 -0.0429  1.1291 -1.1890
 2580SOL     OW 8679   4.428   3.145   5.623  0.0360  0.5159  0.0184
 2580SOL    HW1 8680   4.439   3.199   5.545 -0.0903 -0.6736 -0.8428
 2580SOL    HW2 8681   4.489   3.072   5.611 -0.1099  0.2245  0.9490
 2581SOL     OW 8682   3.334   4.408   4.537  0.6752  0.4651  0.2789
 2581SOL    HW1 8683   3.399   4.452   4.590  0.5677 -0.8088  1.5314
 2581SOL    HW2 8684   3.264   4.472   4.527  0.9971  0.9644  1.1178
 2582SOL     OW 8685   1.822   1.753   1.156 -0.2469  0.0087  0.1400
 2582SOL    HW1 8686   1.836   1.809   1.080  0.9685  0.4604  0.6813
 2582SOL    HW2 8687   1.757   1.690   1.127  1.2191 -0.7167 -1.7504
 2583SOL     OW 8688   6.852   5.906   5.461 -0.0949 -0.2790  0.2441
 2583SOL    HW1 8689   6.929   5.897   5.405  0.7613  1.3499  1.0892
 2583SOL    HW2 8690   6.783   5.939   5.403  0.4669  0.3292 -0.0802
 2584SOL     OW 8691   0.303   1.780   7.148  0.0454 -0.5938  0.7871
 2584SOL    HW1 8692   0.367   1.738   7.091  0.6185  0.1427  0.8669
 2584SOL    HW2 8693   0.309   1.873   7.126 -1.8463 -0.6192 -0.0359
 2585SOL     OW 8694   4.395   2.220   3.441  0.5738 -0.7357  0.1700
 2585SOL    HW1 8695   4.483   2.254   3.428  1.0405 -2.1939 -0.6950
 2585SOL    HW2 8696   4.368   2.255   3.526  2.3328 -0.9923  0.8674
 2586SOL     OW 8697   3.743   6.374   6.929 -0.8149  0.1432 -0.3898
 2586SOL    HW1 8698   3.664   6.321   6.940 -0.2263 -0.5823  0.5933
 2586SOL    HW2 8699   3.711   6.461   6.907 -2.0621  0.5363  2.4574
 2587SOL     OW 8700   5.578   6.924   2.923  0.3119  0.1760 -0.0814
 2587SOL    HW1 8701   5.634   6.846   2.915  1.1989  0.6505  1.1872
 2587SOL    HW2 8702   5.560   6.931   3.016 -1.8119  0.1237 -0.4396
 2588SOL     OW 8703   0.046   6.310   6.535  0.2007 -0.3034  0.0786
 2588SOL    HW1 8704  -0.039   6.350   6.520 -0.6657 -2.3999 -0.9232
 2588SOL    HW2 8705   0.095   6.325   6.454  1.0518  1.3852  0.8524
 2589SOL     OW 8706   1.466   4.530   6.898 -0.0882  0.2325 -0.6208
 2589SOL    HW1 8707   1.537   4.485   6.944  0.5042  0.7898 -0.9682
 2589SOL    HW2 8708   1.474   4.622   6.924  0.2225  0.5514 -1.7535
 2590SOL     OW 8709   6.653   4.550   4.378  0.2499  0.5586 -0.4387
 2590SOL    HW1 8710   6.673   4.479   4.438  1.2587 -0.1382 -1.5552
 2590SOL    HW2 8711   6.732   4.604   4.376  1.5195 -1.1461 -3.4066
 2591SOL     OW 8712   3.197   5.073   2.636  0.5851 -0.1426 -0.3011
 2591SOL    HW1 8713   3.241   5.123   2.568  2.5661  0.3092  1.2107
 2591SOL    HW2 8714   3.169   5.139   2.700 -0.7884 -0.5963 -0.4144
 2592SOL     OW 8715   4.725   3.839   4.681  0.2415  0.2235 -0.2427
 2592SOL    HW1 8716   4.710   3.934   4.673  0.5036  0.1975 -1.2791
 2592SOL    HW2 8717   4.779   3.818   4.604 -0.2428 -0.8473 -0.2958
 2593SOL     OW 8718   2.545   1.585   1.428 -0.4104  0.4043 -0.0865
 2593SOL    HW1 8719   2.586   1.598   1.343 -1.5768  1.8451 -0.4770
 2593SOL    HW2 8720   2.556   1.669   1.473 -0.4008 -0.1248  0.9225
 2594SOL     OW 8721   4.427   6.714   1.770 -0.3023  0.0429  0.4507
 2594SOL    HW1 8722   4.439   6.801   1.732 -2.2952 -0.6459 -1.9536
 2594SOL    HW2 8723   4.369   6.728   1.844 -2.3325  0.5857 -1.1659
 2595SOL     OW 8724   7.364   0.599   1.248  0.9449  0.1110  0.0420
 2595SOL    HW1 8725   7.352   0.645   1.164 -0.7184  0.6867  0.5578
 2595SOL    HW2 8726   7.447   0.553   1.238  1.4858  1.3118 -1.4010
 2596SOL     OW 8727   3.363   4.545   0.726  0.3629 -0.1690  0.5780
 2596SOL    HW1 8728   3.362   4.603   0.802  1.9453  0.6864 -0.0122
 2596SOL    HW2 8729   3.453   4.547   0.695 -0.4721  0.5836 -2.1173
 2597SOL     OW 8730   0.096   6.322   5.574 -0.0321  0.2040 -0.6488
 2597SOL    HW1 8731   0.018   6.296   5.525  0.0071 -0.0842 -0.5601
 2597SOL    HW2 8732   0.085   6.416   5.589 -0.2401  0.2137 -0.8552
 2598SOL     OW 8733   1.427   5.789   1.420  0.2613 -0.0765 -0.1596
 2598SOL    HW1 8734   1.392   5.755   1.502 -2.6843 -0.2892 -1.3770
 2598SOL    HW2 8735   1.436   5.713   1.363 -1.8488  0.5091 -1.3671
 2599SOL     OW 8736   5.321   0.985   1.032 -0.6969 -0.2489  0.2501
 2599SOL    HW1 8737   5.316   1.074   0.999 -1.0082  0.1095  1.2324
 2599SOL    HW2 8738   5.374   0.938   0.968 -0.8548  0.5447 -0.4742
 2600SOL     OW 8739   0.504   2.530   6.479 -0.4286 -0.1552 -0.0031
 2600SOL    HW1 8740   0.484   2.600   6.541 -1.5077 -0.3720 -0.0878
 2600SOL    HW2 8741   0.419   2.508   6.440 -0.3155 -2.2680  0.8241
 2601SOL     OW 8742   4.496   3.334   4.817  0.0341  0.9880  0.3435
 2601SOL    HW1 8743   4.453   3.252   4.843  0.6863  0.2357 -0.8409
 2601SOL    HW2 8744   4.452   3.402   4.868  0.2976 -0.2254  2.2856
 2602SOL     OW 8745   3.516   7.116   2.199 -0.0550  0.5082  0.7774
 2602SOL    HW1 8746   3.468   7.192   2.167  2.1342  1.2123 -1.1104
 2602SOL    HW2 8747   3.472   7.041   2.159 -0.7019  0.9721  0.5984
 2603SOL     OW 8748   1.116   6.541   1.972  0.1710  0.4186  0.7038
 2603SOL    HW1 8749   1.179   6.530   2.042  1.1352  0.0059 -0.2041
 2603SOL    HW2 8750   1.114   6.635   1.955  0.1736  0.4820  1.0594
 2604SOL     OW 8751   6.309   2.424   7.309  0.2198 -0.2438  0.3429
 2604SOL    HW1 8752   6.290   2.407   7.217  1.4242  0.0020  0.0298
 2604SOL    HW2 8753   6.312   2.338   7.350 -0.1468 -0.3639  0.1237
 2605SOL     OW 8754   0.597   6.646   3.833 -0.4372 -0.1583  0.3281
 2605SOL    HW1 8755   0.552   6.662   3.916 -1.8748  0.4631 -0.5282
 2605SOL    HW2 8756   0.679   6.694   3.840 -1.1075  0.9480  0.9106
 2606SOL     OW 8757   5.210   7.210   5.048  0.8021  0.1433 -0.0910
 2606SOL    HW1 8758   5.256   7.142   5.097 -3.1902 -1.8592  1.3332
 2606SOL    HW2 8759   5.158   7.162   4.983 -2.6754  1.5247  1.3828
 2607SOL     OW 8760   4.989   7.028   1.877  0.3970  0.1115  0.2133
 2607SOL    HW1 8761   4.973   7.122   1.874  1.0944  0.2462 -3.1233
 2607SOL    HW2 8762   4.901   6.989   1.877  0.0224  0.8298 -1.7402
 2608SOL     OW 8763   6.870   1.376   6.280 -0.1396 -0.2162 -0.0834
 2608SOL    HW1 8764   6.963   1.377   6.301 -0.3140 -0.4984  0.7521
 2608SOL    HW2 8765   6.838   1.463   6.305 -0.1642 -0.2250 -0.0841
 2609SOL     OW 8766   5.762   4.710   7.389 -0.4100  0.5307  0.7490
 2609SOL    HW1 8767   5.852   4.700   7.422 -0.0372  0.5576 -0.2070
 2609SOL    HW2 8768   5.760   4.656   7.310 -1.4632 -0.0533  1.1617
 2610SOL     OW 8769   1.338   6.862   6.239 -0.8710  0.2166  0.0175
 2610SOL    HW1 8770   1.282   6.794   6.277 -0.1082 -1.0090 -0.9782
 2610SOL    HW2 8771   1.348   6.926   6.309 -1.8816 -0.5286  0.8814
 2611SOL     OW 8772   7.173   4.555   3.590 -0.1037  0.1989  0.2018
 2611SOL    HW1 8773   7.146   4.596   3.672 -0.7229  0.1612  0.0236
 2611SOL    HW2 8774   7.111   4.483   3.578  0.1167  0.0726 -0.1946
 2612SOL     OW 8775   1.188   6.237   0.852  0.0774  0.6350  0.3893
 2612SOL    HW1 8776   1.221   6.188   0.776  1.1449  1.0340  0.5711
 2612SOL    HW2 8777   1.238   6.319   0.850 -1.1324  1.3923  0.5331
 2613SOL     OW 8778   6.607   0.774   1.223 -0.1483  0.4567  0.3431
 2613SOL    HW1 8779   6.626   0.680   1.229 -3.6630 -0.5496 -1.2080
 2613SOL    HW2 8780   6.662   0.806   1.152 -1.0407 -1.2137 -1.1716
 2614SOL     OW 8781   5.255   1.082   2.351 -0.4516  0.0949  0.1230
 2614SOL    HW1 8782   5.306   1.003   2.370 -1.4911 -0.4536  0.6760
 2614SOL    HW2 8783   5.302   1.152   2.397 -0.1237 -0.3809  0.5225
 2615SOL     OW 8784   1.755   0.215   3.253  0.3779  0.6764  0.5850
 2615SOL    HW1 8785   1.709   0.134   3.275  0.6106  0.5544  0.6274
 2615SOL    HW2 8786   1.848   0.193   3.263  0.6023  0.1755 -1.8322
 2616SOL     OW 8787   5.191   4.427   4.131  0.3551 -0.4035  0.3350
 2616SOL    HW1 8788   5.111   4.379   4.110  0.7052 -0.8203 -0.0611
 2616SOL    HW2 8789   5.161   4.509   4.170 -0.2462 -1.2452  1.7078
 2617SOL     OW 8790   1.439   0.542   5.563 -0.4378 -0.9652  0.3487
 2617SOL    HW1 8791   1.500   0.468   5.569 -0.5124 -1.0648 -0.0588
 2617SOL    HW2 8792   1.493   0.619   5.579 -0.2786 -1.0832  0.3781
 2618SOL     OW 8793   3.218   5.352   3.357 -0.0421  0.2819  0.2199
 2618SOL    HW1 8794   3.167   5.402   3.421 -1.6716 -0.8781 -0.1011
 2618SOL    HW2 8795   3.237   5.415   3.287 -0.6042  0.8749  0.5901
 2619SOL     OW 8796   2.994   4.819   4.383  0.3720 -0.2872 -0.7211
 2619SOL    HW1 8797   3.051   4.767   4.440  0.9212 -1.5705 -2.3639
 2619SOL    HW2 8798   2.976   4.898   4.433  2.4020 -0.4973  0.4570
 2620SOL     OW 8799   5.507   0.299   1.656  0.3695  0.3476 -0.1505
 2620SOL    HW1 8800   5.436   0.235   1.644 -0.5372  1.1966  0.4853
 2620SOL    HW2 8801   5.468   0.366   1.712  1.7221  0.7961  0.2704
 2621SOL     OW 8802   6.309   7.127   6.666 -0.1238 -0.6535 -0.6035
 2621SOL    HW1 8803   6.222   7.165   6.673  0.1463  0.0177 -0.7928
 2621SOL    HW2 8804   6.356   7.186   6.607  0.5888 -0.7560 -0.1575
 2622SOL     OW 8805   6.144   5.680   2.949  0.7877  0.1169  0.0573
 2622SOL    HW1 8806   6.225   5.632   2.968  2.0029  2.2454  0.5791
 2622SOL    HW2 8807   6.119   5.649   2.862  1.8146 -1.0409  0.1382
 2623SOL     OW 8808   2.007   6.721   6.839 -0.1884 -0.2945  0.9827
 2623SOL    HW1 8809   2.069   6.650   6.857 -0.4848 -1.0758 -0.7961
 2623SOL    HW2 8810   1.924   6.676   6.823 -0.0673  0.2423 -1.6512
 2624SOL     OW 8811   7.215   0.492   6.477 -1.0426 -0.5138 -0.4265
 2624SOL    HW1 8812   7.167   0.574   6.466  0.1504  0.0365 -1.9925
 2624SOL    HW2 8813   7.281   0.494   6.407 -1.3342 -3.0620 -0.8773
 2625SOL     OW 8814   5.702   3.530   6.986 -0.7071 -0.5037  0.2528
 2625SOL    HW1 8815   5.797   3.517   6.981 -0.4574  0.9482  0.8180
 2625SOL    HW2 8816   5.676   3.483   7.065 -0.7418 -2.2574 -0.7473
 2626SOL     OW 8817   5.279   7.051   0.814  0.0503 -0.2326 -0.1528
 2626SOL    HW1 8818   5.214   6.995   0.855  0.3760  0.4644  1.4046
 2626SOL    HW2 8819   5.357   6.996   0.805  0.2424 -0.1837  0.9925
 2627SOL     OW 8820   6.602   2.360   2.446 -0.3085 -0.2074 -1.1929
 2627SOL    HW1 8821   6.630   2.445   2.481 -0.3532 -0.4572 -0.5444
 2627SOL    HW2 8822   6.569   2.380   2.358 -1.6135  0.6705 -0.5367
 2628SOL     OW 8823   1.609   4.795   1.397  0.1149  0.3711  0.6749
 2628SOL    HW1 8824   1.543   4.857   1.366 -0.5179 -0.0654  1.1290
 2628SOL    HW2 8825   1.662   4.776   1.320 -0.5568  0.4032  0.1911
 2629SOL     OW 8826   2.200   5.799   2.779  0.5045  0.0870 -0.4378
 2629SOL    HW1 8827   2.268   5.757   2.727 -0.6680 -3.2139  0.4120
 2629SOL    HW2 8828   2.118   5.757   2.750 -0.3856 -0.6386  2.6885
 2630SOL     OW 8829   2.841   1.555   4.449  0.0445  0.1042 -0.1673
 2630SOL    HW1 8830   2.883   1.639   4.467  0.0318  0.0936 -0.0916
 2630SOL    HW2 8831   2.844   1.507   4.532  1.1999 -0.4707 -0.5091
 2631SOL     OW 8832   1.557   6.012   4.507 -0.5747 -0.1132  0.1962
 2631SOL    HW1 8833   1.615   5.987   4.435  0.5895  2.0326  0.2733
 2631SOL    HW2 8834   1.563   6.108   4.509 -3.0034  0.0704  1.2009
 2632SOL     OW 8835   1.544   5.511   3.143  0.5894 -0.0685  0.2564
 2632SOL    HW1 8836   1.625   5.561   3.155  0.7025  0.0610 -0.9347
 2632SOL    HW2 8837   1.574   5.428   3.104  0.0608  0.4175 -1.2341
 2633SOL     OW 8838   6.996   5.925   1.219 -0.0610  0.2571  0.3483
 2633SOL    HW1 8839   7.072   5.868   1.205 -0.0847  0.4056 -0.3922
 2633SOL    HW2 8840   6.957   5.892   1.301  1.2402  0.6906  1.1722
 2634SOL     OW 8841   0.660   1.477   4.880 -0.3163 -0.0812 -0.0585
 2634SOL    HW1 8842   0.564   1.486   4.879 -0.5169 -1.7566 -1.7462
 2634SOL    HW2 8843   0.675   1.383   4.875  1.4244  0.1938 -0.4267
 2635SOL     OW 8844   6.861   5.516   3.017 -0.1353  1.1517 -0.1249
 2635SOL    HW1 8845   6.798   5.583   2.989 -0.0694  0.4326 -2.1601
 2635SOL    HW2 8846   6.942   5.539   2.971 -0.2616 -0.6043 -1.2968
 2636SOL     OW 8847   4.220   3.082   6.056  0.0085 -0.2510 -0.2948
 2636SOL    HW1 8848   4.288   3.056   5.995  2.1781  2.3481  0.8057
 2636SOL    HW2 8849   4.172   3.151   6.011 -2.9718 -2.8967 -1.5786
 2637SOL     OW 8850   2.025   2.463   2.794  0.1241  0.4727 -0.6098
 2637SOL    HW1 8851   1.980   2.476   2.711  1.2187 -0.1402 -1.3295
 2637SOL    HW2 8852   2.116   2.489   2.776  0.9572 -1.9417 -0.3397
 2638SOL     OW 8853   4.266   1.620   1.132 -0.3403  0.1672  0.5440
 2638SOL    HW1 8854   4.265   1.527   1.107 -1.7229  0.2715  0.1222
 2638SOL    HW2 8855   4.289   1.666   1.052  1.3792  0.1604  0.9937
 2639SOL     OW 8856   4.976   4.515   6.952 -0.2490 -0.3891 -0.3898
 2639SOL    HW1 8857   5.023   4.467   6.884 -3.1559 -2.7108 -0.9583
 2639SOL    HW2 8858   4.917   4.573   6.904  1.0246  1.5324  0.2851
 2640SOL     OW 8859   4.790   5.210   1.587  0.1110 -0.4233 -0.1676
 2640SOL    HW1 8860   4.881   5.182   1.579  0.3119  0.3014 -0.4888
 2640SOL    HW2 8861   4.771   5.204   1.681  0.5206 -0.4832 -0.0864
 2641SOL     OW 8862   5.891   5.217   3.335 -0.7164  0.3206 -0.4138
 2641SOL    HW1 8863   5.876   5.306   3.366 -0.5101  0.5360 -0.9194
 2641SOL    HW2 8864   5.962   5.226   3.271 -1.6901  0.0131 -1.5638
 2642SOL     OW 8865   3.114   3.261   4.439 -0.1003 -0.3056 -0.0625
 2642SOL    HW1 8866   3.115   3.202   4.514  0.4353 -0.3917 -0.1321
 2642SOL    HW2 8867   3.033   3.239   4.393 -1.0861  0.6212  1.1591
 2643SOL     OW 8868   5.673   4.509   2.677 -0.0944  0.5844 -0.2312
 2643SOL    HW1 8869   5.761   4.544   2.681 -0.0235  0.3100  3.3909
 2643SOL    HW2 8870   5.629   4.543   2.755 -2.6304 -0.7006 -0.9729
 2644SOL     OW 8871   4.251   5.520   1.798  0.1640  0.4318 -0.1769
 2644SOL    HW1 8872   4.204   5.535   1.880  0.5877 -3.1538  0.8731
 2644SOL    HW2 8873   4.182   5.520   1.731 -0.2736  2.5926  0.1910
 2645SOL     OW 8874   0.202   6.504   1.153  0.1203  0.0696  0.4515
 2645SOL    HW1 8875   0.219   6.411   1.168 -0.6831 -0.3711 -1.1687
 2645SOL    HW2 8876   0.122   6.505   1.101  0.4076  1.6507  0.0096
 2646SOL     OW 8877   6.948   1.073   7.145  0.0690 -0.5905  0.0481
 2646SOL    HW1 8878   6.867   1.024   7.130 -0.5732  0.1883  0.8647
 2646SOL    HW2 8879   6.961   1.122   7.064 -0.2544 -0.7461 -0.1013
 2647SOL     OW 8880   1.665   1.277   3.019  0.3197  0.1289 -0.2304
 2647SOL    HW1 8881   1.682   1.242   3.107 -0.8893  0.1868  0.0475
 2647SOL    HW2 8882   1.723   1.353   3.012  0.8207 -0.1934  0.3060
 2648SOL     OW 8883   0.491   4.715   0.139 -0.3099 -0.2185  0.0616
 2648SOL    HW1 8884   0.575   4.756   0.161  0.0759 -1.1059  0.2582
 2648SOL    HW2 8885   0.426   4.779   0.168  0.2716 -0.0132  0.9559
 2649SOL     OW 8886   5.057   1.402   5.110 -0.2345 -0.1606 -0.1163
 2649SOL    HW1 8887   5.136   1.372   5.156  1.3977  0.6106 -2.2958
 2649SOL    HW2 8888   5.060   1.497   5.116 -0.5976 -0.0982 -0.8810
 2650SOL     OW 8889   7.120   5.706   6.772  0.0172  0.4068  0.4913
 2650SOL    HW1 8890   7.047   5.705   6.711 -0.0064 -0.1222  0.5268
 2650SOL    HW2 8891   7.114   5.623   6.818  2.3585 -0.9807 -1.5084
 2651SOL     OW 8892   1.351   6.049   6.002  0.4717  0.0434 -0.2404
 2651SOL    HW1 8893   1.426   6.020   5.949  0.9286  1.4627 -0.4388
 2651SOL    HW2 8894   1.341   5.982   6.069  1.5398 -0.4875 -0.5856
 2652SOL     OW 8895   5.188   0.776   1.223  0.4659 -0.1675  0.1347
 2652SOL    HW1 8896   5.198   0.796   1.316 -0.2931 -2.5330  0.8007
 2652SOL    HW2 8897   5.260   0.822   1.181  0.9065  0.8562  1.9058
 2653SOL     OW 8898   0.547   3.872   0.590  0.2767 -0.3966 -0.0077
 2653SOL    HW1 8899   0.468   3.924   0.602  1.1775  0.9295  0.4003
 2653SOL    HW2 8900   0.535   3.796   0.647  0.1529  0.8263  1.6951
 2654SOL     OW 8901   2.566   0.303   4.337 -0.5461  0.6073  0.7527
 2654SOL    HW1 8902   2.489   0.359   4.344 -0.6682  0.3301  1.7203
 2654SOL    HW2 8903   2.544   0.225   4.389 -0.2870 -0.2373 -0.3607
 2655SOL     OW 8904   2.215   0.754   0.266 -0.1159 -0.0233 -0.7400
 2655SOL    HW1 8905   2.206   0.662   0.242 -1.6037  0.3684 -1.8091
 2655SOL    HW2 8906   2.135   0.795   0.235 -0.1001  1.3962  0.9531
 2656SOL     OW 8907   0.178   3.276   0.396 -0.1446 -0.0890  0.3243
 2656SOL    HW1 8908   0.131   3.214   0.340  0.1308 -1.1772  1.2604
 2656SOL    HW2 8909   0.263   3.287   0.354  0.0604 -0.8983  0.5173
 2657SOL     OW 8910   4.623   7.274   2.224  0.1092 -0.5423  0.3435
 2657SOL    HW1 8911   4.600   7.203   2.165  0.0591 -0.9503  0.8479
 2657SOL    HW2 8912   4.708   7.305   2.194 -0.2765 -0.2155 -0.4336
 2658SOL     OW 8913   6.275   0.413   4.499 -0.8340 -0.6387  0.3909
 2658SOL    HW1 8914   6.304   0.389   4.588 -0.7355 -1.4524  0.1514
 2658SOL    HW2 8915   6.355   0.418   4.448 -0.8864 -0.1123  0.3565
 2659SOL     OW 8916   5.362   2.809   1.270  0.0444 -0.9255  0.1330
 2659SOL    HW1 8917   5.359   2.894   1.226 -1.9153 -1.1157 -0.2028
 2659SOL    HW2 8918   5.441   2.813   1.324  0.1075  1.0310 -0.0215
 2660SOL     OW 8919   4.686   4.644   6.638 -0.1621 -0.2721 -0.3853
 2660SOL    HW1 8920   4.733   4.722   6.668  0.9981 -0.5881 -1.2905
 2660SOL    HW2 8921   4.641   4.612   6.716 -1.7227  1.9878 -0.2527
 2661SOL     OW 8922   6.894   4.902   2.991 -0.0568 -0.2158  0.5413
 2661SOL    HW1 8923   6.943   4.824   3.017 -0.9668 -0.2508  2.3042
 2661SOL    HW2 8924   6.902   4.961   3.067 -0.0725  1.0685 -0.4284
 2662SOL     OW 8925   1.100   4.924   6.673 -0.2200  0.1607  0.4438
 2662SOL    HW1 8926   1.031   4.971   6.625  0.4852  1.8136  0.9926
 2662SOL    HW2 8927   1.082   4.831   6.655 -2.1569  0.5706 -0.0037
 2663SOL     OW 8928   4.931   6.668   7.067  0.0248  0.5002 -0.3208
 2663SOL    HW1 8929   4.973   6.627   7.143 -2.2882  0.6257  1.1438
 2663SOL    HW2 8930   5.003   6.707   7.018  2.0693 -2.8586 -0.3352
 2664SOL     OW 8931   3.057   5.214   2.239 -0.5404  0.1394  0.5688
 2664SOL    HW1 8932   3.025   5.294   2.281  0.7497  0.8062  0.3496
 2664SOL    HW2 8933   3.010   5.209   2.157  0.1238  1.2835  0.0987
 2665SOL     OW 8934   0.365   4.277   7.357  0.1402  0.1672 -0.2488
 2665SOL    HW1 8935   0.458   4.283   7.381  0.0730  1.0284 -0.1886
 2665SOL    HW2 8936   0.362   4.207   7.291  0.9702  0.7121 -0.8880
 2666SOL     OW 8937   3.426   0.903   7.100  0.3707  0.1125 -0.3556
 2666SOL    HW1 8938   3.513   0.881   7.066  0.2801 -1.5291  0.3750
 2666SOL    HW2 8939   3.365   0.852   7.047 -0.0020 -0.0859  0.2484
 2667SOL     OW 8940   5.829   0.308   4.871 -0.2348  0.6707 -0.1243
 2667SOL    HW1 8941   5.852   0.297   4.963 -1.9818  2.0636  0.5386
 2667SOL    HW2 8942   5.832   0.403   4.857 -2.6699  0.7179 -0.7028
 2668SOL     OW 8943   5.439   1.018   5.581  0.2359  0.0405 -0.2090
 2668SOL    HW1 8944   5.426   0.944   5.639  0.8266 -1.0004 -1.3442
 2668SOL    HW2 8945   5.378   1.085   5.612  1.9433  0.3531  2.8759
 2669SOL     OW 8946   4.022   5.175   1.725  0.2749  0.7131  0.0752
 2669SOL    HW1 8947   4.006   5.234   1.799  0.2357  1.1863 -0.3036
 2669SOL    HW2 8948   3.936   5.139   1.704  0.5275 -0.7312  1.3199
 2670SOL     OW 8949   1.603   6.053   5.641  0.2518 -0.0691 -0.3501
 2670SOL    HW1 8950   1.576   5.977   5.693 -0.5842  0.3608 -0.1479
 2670SOL    HW2 8951   1.539   6.121   5.662  2.4059  1.5758  1.4886
 2671SOL     OW 8952   1.840   6.750   3.550 -0.0601  0.6344  0.5558
 2671SOL    HW1 8953   1.793   6.697   3.485 -3.1302  0.0912  2.9838
 2671SOL    HW2 8954   1.800   6.836   3.545  2.8904  2.0740 -1.3050
 2672SOL     OW 8955   7.196   3.928   2.522 -0.4634 -0.0585 -0.6934
 2672SOL    HW1 8956   7.259   3.990   2.559  0.6969 -0.3976 -2.0117
 2672SOL    HW2 8957   7.207   3.849   2.575 -1.5628  0.6245  0.6426
 2673SOL     OW 8958   5.038   5.170   0.817  0.4057  0.1728 -0.3510
 2673SOL    HW1 8959   5.087   5.216   0.749  0.6313  1.0992  0.4187
 2673SOL    HW2 8960   5.007   5.239   0.876 -0.2096 -0.5671  0.2110
 2674SOL     OW 8961   0.659   0.449   7.084  0.3026  0.0076 -0.2579
 2674SOL    HW1 8962   0.690   0.358   7.088  1.0361  0.2928  1.7707
 2674SOL    HW2 8963   0.732   0.500   7.119 -0.4940  1.2679 -0.3836
 2675SOL     OW 8964   2.304   5.527   0.520  0.5076 -0.4708 -0.1954
 2675SOL    HW1 8965   2.365   5.499   0.452  0.5846 -2.4819  0.6275
 2675SOL    HW2 8966   2.360   5.554   0.593  0.5108  3.6188 -1.4347
 2676SOL     OW 8967   5.730   4.010   0.802  0.0571  0.0153  0.0149
 2676SOL    HW1 8968   5.749   4.038   0.713  0.5409 -1.3156 -0.3138
 2676SOL    HW2 8969   5.664   4.073   0.833  0.6828  1.1579 -0.8750
 2677SOL     OW 8970   6.151   1.519   4.832 -0.3925 -0.2483  0.0446
 2677SOL    HW1 8971   6.169   1.447   4.892 -0.9354 -0.4268 -0.0091
 2677SOL    HW2 8972   6.186   1.489   4.748  0.2800 -0.0370  0.2363
 2678SOL     OW 8973   7.110   3.412   3.750  0.1768  0.2366  0.2365
 2678SOL    HW1 8974   7.120   3.376   3.838 -0.9648 -0.3107  0.1511
 2678SOL    HW2 8975   7.124   3.506   3.761 -0.7134  0.2771  1.1432
 2679SOL     OW 8976   2.731   5.286   5.411  0.2569  0.6510 -0.0230
 2679SOL    HW1 8977   2.798   5.350   5.435  1.0746  0.4877 -1.7175
 2679SOL    HW2 8978   2.667   5.335   5.360  0.1807  0.3915 -0.1831
 2680SOL     OW 8979   4.014   4.665   4.572  0.1207  0.6606  0.2401
 2680SOL    HW1 8980   3.929   4.642   4.535  0.8230  1.4750 -2.0264
 2680SOL    HW2 8981   4.001   4.752   4.610 -0.3613  0.2445  1.0454
 2681SOL     OW 8982   5.816   3.377   3.282 -0.1600 -0.0112 -0.5687
 2681SOL    HW1 8983   5.784   3.346   3.366 -1.6107  2.3262 -0.1748
 2681SOL    HW2 8984   5.818   3.298   3.227 -0.1006 -1.4092  1.3299
 2682SOL     OW 8985   5.049   4.927   6.741 -0.4165  0.0740  0.1333
 2682SOL    HW1 8986   5.098   4.914   6.822  0.0559 -0.2034 -0.1980
 2682SOL    HW2 8987   5.055   4.843   6.695  3.5870  1.5624 -2.5605
 2683SOL     OW 8988   7.326   5.317   0.732  0.1573  0.0997  0.8293
 2683SOL    HW1 8989   7.352   5.407   0.717  2.5593 -0.2733  2.2038
 2683SOL    HW2 8990   7.375   5.291   0.811  0.0586 -2.5834  0.1042
 2684SOL     OW 8991   6.975   2.735   0.123  0.1444  0.7252 -0.2522
 2684SOL    HW1 8992   7.061   2.742   0.165  0.8352  2.4947 -1.8288
 2684SOL    HW2 8993   6.923   2.805   0.162 -1.1490 -1.2562  1.7806
 2685SOL     OW 8994   6.590   3.430   3.400  0.8341 -0.1853 -0.1378
 2685SOL    HW1 8995   6.577   3.498   3.467 -0.4584 -1.5168  1.0347
 2685SOL    HW2 8996   6.633   3.359   3.446  1.4650 -0.4793 -1.1635
 2686SOL     OW 8997   6.567   3.578   4.197 -0.4995 -0.2092 -0.1973
 2686SOL    HW1 8998   6.620   3.652   4.167 -0.1328  0.1292  1.1835
 2686SOL    HW2 8999   6.526   3.609   4.278 -0.9942 -1.2404 -0.0344
 2687SOL     OW 9000   5.793   3.978   0.530  0.4065  0.4849 -0.3291
 2687SOL    HW1 9001   5.749   3.903   0.489  0.5765 -0.4529  1.1148
 2687SOL    HW2 9002   5.883   3.974   0.498  0.5390 -0.2442  0.1094
 2688SOL     OW 9003   2.714   3.068   4.813 -0.1772  0.3130 -0.2121
 2688SOL    HW1 9004   2.726   3.150   4.860  0.2235  0.3310 -0.3419
 2688SOL    HW2 9005   2.639   3.085   4.755 -0.4297  0.4124  0.1433
 2689SOL     OW 9006   0.777   1.117   2.822 -0.0534  0.0265  0.1365
 2689SOL    HW1 9007   0.825   1.036   2.812  1.1238  0.6664  0.4459
 2689SOL    HW2 9008   0.783   1.159   2.736 -0.4396 -0.0932  0.0501
 2690SOL     OW 9009   4.315   3.377   0.016  0.2198  0.0015 -0.2203
 2690SOL    HW1 9010   4.301   3.340  -0.071  0.9946 -0.6124 -0.0972
 2690SOL    HW2 9011   4.301   3.471   0.005  0.3072 -0.0749 -1.0098
 2691SOL     OW 9012   2.395   6.441   4.270 -0.1097  0.1934 -0.6207
 2691SOL    HW1 9013   2.431   6.498   4.202 -0.2166  0.7425 -0.2300
 2691SOL    HW2 9014   2.327   6.391   4.225  2.0313 -1.9111 -1.7207
 2692SOL     OW 9015   4.447   6.106   3.132  0.1252 -0.0510  0.1671
 2692SOL    HW1 9016   4.412   6.017   3.126 -1.7784  0.6716 -0.2350
 2692SOL    HW2 9017   4.462   6.120   3.226 -0.6124 -0.4127  0.3417
 2693SOL     OW 9018   1.312   4.082   2.871  0.4040  0.2811  0.3173
 2693SOL    HW1 9019   1.285   4.083   2.779  1.1664  1.3769  0.0853
 2693SOL    HW2 9020   1.255   4.144   2.914  0.7327  0.5489  0.3708
 2694SOL     OW 9021   0.142   0.233   6.854  0.2068 -0.3379 -0.1662
 2694SOL    HW1 9022   0.150   0.299   6.923  0.8674 -0.8286  0.2329
 2694SOL    HW2 9023   0.068   0.264   6.800  0.2577  0.5154  0.2355
 2695SOL     OW 9024   6.830   7.164   3.639  0.3519 -0.1097  0.8185
 2695SOL    HW1 9025   6.886   7.092   3.669  1.2217  0.8685  1.6022
 2695SOL    HW2 9026   6.746   7.148   3.681  0.3498 -0.9792  0.5174
 2696SOL     OW 9027   4.986   3.085   2.352  0.1409  0.3609 -0.2556
 2696SOL    HW1 9028   4.978   3.181   2.356 -1.2008  0.2486  2.4515
 2696SOL    HW2 9029   5.036   3.062   2.431 -1.6788 -1.2541  0.5197
 2697SOL     OW 9030   6.732   1.513   4.232 -0.5812 -0.2419  0.0245
 2697SOL    HW1 9031   6.655   1.548   4.186 -1.1432 -0.0481  1.0761
 2697SOL    HW2 9032   6.764   1.587   4.284  0.6298 -0.1818 -0.7631
 2698SOL     OW 9033   2.414   1.836   7.272  0.1908 -0.6555 -0.2220
 2698SOL    HW1 9034   2.353   1.911   7.274  1.6092  0.5339  0.1588
 2698SOL    HW2 9035   2.360   1.762   7.245 -1.3673  0.4134 -0.1636
 2699SOL     OW 9036   6.328   0.886   1.303 -0.0998 -0.2456 -0.0995
 2699SOL    HW1 9037   6.262   0.825   1.272 -0.4199  0.2284 -0.3607
 2699SOL    HW2 9038   6.408   0.859   1.258  0.1819 -1.5615  1.1049
 2700SOL     OW 9039   7.004   0.218   2.511 -0.2334  0.0623  0.8813
 2700SOL    HW1 9040   6.910   0.201   2.515 -0.3307  0.4254  0.2711
 2700SOL    HW2 9041   7.018   0.256   2.424  0.6296 -0.9163  0.5736
 2701SOL     OW 9042   3.755   1.739   3.715  0.5314  0.2105  0.3648
 2701SOL    HW1 9043   3.784   1.723   3.805  1.0444 -1.8956 -0.1403
 2701SOL    HW2 9044   3.679   1.797   3.725  0.3628 -0.2605  2.1784
 2702SOL     OW 9045   3.649   5.193   6.829 -0.2234  0.5882 -0.1821
 2702SOL    HW1 9046   3.631   5.103   6.857  0.5742  0.5456  0.2288
 2702SOL    HW2 9047   3.573   5.218   6.777 -0.0791 -0.6206 -1.0190
 2703SOL     OW 9048   3.904   2.060   1.240 -0.0786  0.3447 -0.2539
 2703SOL    HW1 9049   3.922   2.024   1.327  1.2537  0.9378 -0.2702
 2703SOL    HW2 9050   3.809   2.074   1.240  0.1391  2.6576  2.0486
 2704SOL     OW 9051   3.737   3.669   0.419 -0.1400  0.0373  0.0655
 2704SOL    HW1 9052   3.710   3.613   0.347 -1.7577 -2.3259  2.3174
 2704SOL    HW2 9053   3.830   3.687   0.402 -0.8102  0.9733 -3.3400
 2705SOL     OW 9054   0.160   6.288   6.015  0.3255 -0.1992  0.0244
 2705SOL    HW1 9055   0.137   6.207   5.969  1.3896  0.3286 -1.4948
 2705SOL    HW2 9056   0.114   6.357   5.967  0.3438  0.2351  0.6174
 2706SOL     OW 9057   6.237   4.586   3.889  0.1550 -0.4046 -0.8645
 2706SOL    HW1 9058   6.298   4.648   3.927 -1.0546  0.6626 -0.6108
 2706SOL    HW2 9059   6.236   4.607   3.796 -0.4520  0.1416 -0.7382
 2707SOL     OW 9060   3.508   2.046   4.924  0.4992  0.0833  0.3440
 2707SOL    HW1 9061   3.602   2.062   4.924  0.6554 -0.7196 -0.8319
 2707SOL    HW2 9062   3.472   2.112   4.865  0.2142  0.8684  1.3679
 2708SOL     OW 9063   1.580   2.703   0.262 -0.2965  0.1653 -0.5073
 2708SOL    HW1 9064   1.652   2.660   0.308 -0.4903  0.6372  0.2499
 2708SOL    HW2 9065   1.504   2.649   0.283  0.0127 -1.0166 -2.2664
 2709SOL     OW 9066   1.133   3.050   0.360 -0.0788 -0.4183 -0.4588
 2709SOL    HW1 9067   1.048   3.028   0.398  0.0927 -2.4839 -1.1813
 2709SOL    HW2 9068   1.125   3.143   0.338 -2.0633 -0.5043 -0.3176
 2710SOL     OW 9069   4.183   5.813   0.541 -0.2586  0.0458 -0.1976
 2710SOL    HW1 9070   4.241   5.838   0.614 -1.0816  1.2184  0.0763
 2710SOL    HW2 9071   4.243   5.790   0.470  0.5530 -0.4432  0.6201
 2711SOL     OW 9072   6.846   7.124   4.468  0.1022  0.0808 -0.2415
 2711SOL    HW1 9073   6.913   7.140   4.401  0.4207 -0.6303 -0.0945
 2711SOL    HW2 9074   6.764   7.152   4.427  0.5595  1.5573 -0.1950
 2712SOL     OW 9075   4.872   1.343   1.852 -0.5457  0.1394 -0.7167
 2712SOL    HW1 9076   4.835   1.400   1.919 -0.2318 -0.1251 -0.3190
 2712SOL    HW2 9077   4.965   1.340   1.871 -0.6953 -1.3498 -0.0849
 2713SOL     OW 9078   0.222   7.057   3.683 -0.0166  0.4352 -0.0097
 2713SOL    HW1 9079   0.262   6.975   3.708 -2.0527  0.0873  2.4606
 2713SOL    HW2 9080   0.267   7.124   3.735  0.3453  0.6709 -0.6039
 2714SOL     OW 9081   5.230   5.402   6.185  0.3865  0.0388 -0.0009
 2714SOL    HW1 9082   5.164   5.379   6.251 -1.6825  2.0579 -1.1931
 2714SOL    HW2 9083   5.267   5.319   6.158 -0.7263 -1.0756  1.7051
 2715SOL     OW 9084   1.865   5.675   6.952 -0.2896  0.1997  0.2662
 2715SOL    HW1 9085   1.911   5.597   6.981 -1.0488 -0.3887 -0.0880
 2715SOL    HW2 9086   1.848   5.660   6.859  2.1514  2.0708 -0.6177
 2716SOL     OW 9087   1.293   5.948   4.523  0.3541  0.4766  0.3316
 2716SOL    HW1 9088   1.267   6.039   4.535  0.5870  0.6313 -0.2678
 2716SOL    HW2 9089   1.388   5.949   4.534  0.5555  0.5921 -1.1796
 2717SOL     OW 9090   3.376   3.661   5.484 -0.2537 -0.4582 -0.1500
 2717SOL    HW1 9091   3.380   3.577   5.438 -0.0575  0.9609 -2.8891
 2717SOL    HW2 9092   3.323   3.717   5.428  1.8190  2.0634  0.2105
 2718SOL     OW 9093   0.435   2.720   0.816  0.5585  0.8786 -0.1274
 2718SOL    HW1 9094   0.483   2.800   0.793 -0.3473  1.8088  1.0640
 2718SOL    HW2 9095   0.503   2.656   0.838  1.2993  1.3229 -1.0940
 2719SOL     OW 9096   4.963   2.903   3.784  0.4598 -0.1374 -0.2940
 2719SOL    HW1 9097   4.886   2.917   3.729 -0.8694  0.4867  1.6088
 2719SOL    HW2 9098   4.941   2.945   3.867  2.0224 -1.7562  1.0235
 2720SOL     OW 9099   3.968   3.965   0.073 -0.0850 -0.0768 -0.2475
 2720SOL    HW1 9100   3.900   4.031   0.084 -0.0262 -0.2748  1.6418
 2720SOL    HW2 9101   3.920   3.884   0.055 -0.4681 -0.3738  1.8335
 2721SOL     OW 9102   0.685   2.804   3.014  0.3049 -0.4110 -0.4210
 2721SOL    HW1 9103   0.674   2.740   2.943 -2.8822  1.0617 -1.4341
 2721SOL    HW2 9104   0.701   2.887   2.969 -2.5856  0.7156  0.3541
 2722SOL     OW 9105   0.757   3.203   3.667  0.1829 -0.3211 -0.2205
 2722SOL    HW1 9106   0.685   3.140   3.672  2.1288 -2.7106 -0.6734
 2722SOL    HW2 9107   0.771   3.217   3.573 -1.6837  2.7088 -0.1837
 2723SOL     OW 9108   3.737   3.463   1.231  0.1898 -0.1319 -0.4573
 2723SOL    HW1 9109   3.803   3.483   1.298  0.6841 -3.4496  0.2482
 2723SOL    HW2 9110   3.768   3.508   1.153  0.6755  2.2520  1.0080
 2724SOL     OW 9111   0.880   4.253   1.134 -0.4395 -0.4075 -0.2152
 2724SOL    HW1 9112   0.891   4.334   1.083 -1.0045 -0.0962  0.1546
 2724SOL    HW2 9113   0.837   4.193   1.074  1.2679 -0.9299 -0.9742
 2725SOL     OW 9114   5.538   4.605   0.669  0.3840  0.3483 -0.1599
 2725SOL    HW1 9115   5.516   4.588   0.577 -1.1020  0.6972  0.1082
 2725SOL    HW2 9116   5.455   4.629   0.710  1.0417  0.3116  1.2628
 2726SOL     OW 9117   3.261   4.344   7.185 -0.5656 -0.1180 -0.5493
 2726SOL    HW1 9118   3.264   4.259   7.230  1.0150 -0.8935 -2.0229
 2726SOL    HW2 9119   3.310   4.403   7.242  1.2275 -1.0386 -1.0574
 2727SOL     OW 9120   4.846   4.189   2.860 -0.2875 -0.3136 -0.0364
 2727SOL    HW1 9121   4.909   4.248   2.819  0.3873 -0.7575  0.3395
 2727SOL    HW2 9122   4.853   4.208   2.954 -3.7800  2.6770 -0.1564
 2728SOL     OW 9123   1.431   5.990   6.497 -0.2461 -0.1748 -0.3485
 2728SOL    HW1 9124   1.383   6.039   6.431  0.4819 -0.5508 -1.1715
 2728SOL    HW2 9125   1.488   6.055   6.539 -0.1391 -0.0905 -0.6263
 2729SOL     OW 9126   7.370   4.855   1.379  0.7078 -0.0773 -0.0632
 2729SOL    HW1 9127   7.279   4.860   1.350 -0.0483 -1.6623  1.7828
 2729SOL    HW2 9128   7.372   4.912   1.456  0.5583 -1.9599  1.4013
 2730SOL     OW 9129   2.268   4.795   5.018  0.3490  0.2395  0.0894
 2730SOL    HW1 9130   2.187   4.757   5.053  0.3909 -1.1526 -1.2108
 2730SOL    HW2 9131   2.266   4.886   5.045 -0.5464 -0.2969  2.0155
 2731SOL     OW 9132   0.055   6.506   3.016 -0.0280 -0.1225 -0.7263
 2731SOL    HW1 9133   0.079   6.428   2.966  0.6710  1.5568 -3.1838
 2731SOL    HW2 9134  -0.035   6.489   3.045  0.5480 -2.3350 -0.0389
 2732SOL     OW 9135   0.068   0.173   3.398  0.7308  0.2034  0.3276
 2732SOL    HW1 9136   0.098   0.083   3.415 -2.4361 -1.0937 -0.2201
 2732SOL    HW2 9137   0.100   0.193   3.310  0.0725 -1.1141 -0.2454
 2733SOL     OW 9138   3.480   1.060   3.526  0.1748 -0.5718  0.2454
 2733SOL    HW1 9139   3.471   0.970   3.497 -0.7948 -1.1835  2.2578
 2733SOL    HW2 9140   3.398   1.102   3.499  0.1272 -0.6048  0.3389
 2734SOL     OW 9141   3.116   1.688   6.477 -0.4179  0.4646  0.4967
 2734SOL    HW1 9142   3.085   1.663   6.564 -3.0567  0.5285 -0.3111
 2734SOL    HW2 9143   3.139   1.605   6.435 -1.7495  0.1109  0.4019
 2735SOL     OW 9144   2.404   4.440   5.760 -0.4706  0.3003 -0.6591
 2735SOL    HW1 9145   2.473   4.448   5.826 -1.7052  0.3321  0.6891
 2735SOL    HW2 9146   2.352   4.365   5.790 -3.2607  2.5522  0.6206
 2736SOL     OW 9147   1.785   6.095   1.760 -0.1430  0.2550 -0.0350
 2736SOL    HW1 9148   1.756   6.011   1.723  0.3204  0.4398 -0.8354
 2736SOL    HW2 9149   1.751   6.161   1.699 -1.6455  0.7738  1.2773
 2737SOL     OW 9150   3.396   0.418   7.295  0.2565  0.0320 -0.3407
 2737SOL    HW1 9151   3.302   0.418   7.314  0.2417 -0.7489 -0.3568
 2737SOL    HW2 9152   3.414   0.505   7.258 -0.1523  0.7361  1.0748
 2738SOL     OW 9153   2.121   6.129   6.135 -0.1327 -0.0938 -0.2854
 2738SOL    HW1 9154   2.157   6.056   6.085 -0.8871  0.4328 -1.6690
 2738SOL    HW2 9155   2.195   6.186   6.153  0.5787 -1.4490  1.3390
 2739SOL     OW 9156   4.314   0.780   7.177  0.3408  0.3255  0.6193
 2739SOL    HW1 9157   4.391   0.820   7.137 -0.0745 -0.4792 -1.0706
 2739SOL    HW2 9158   4.322   0.687   7.155 -1.2694  0.2804  0.1397
 2740SOL     OW 9159   3.769   3.181   7.163 -0.5167  0.4343 -0.2655
 2740SOL    HW1 9160   3.760   3.101   7.110  0.4748  0.6270 -0.7561
 2740SOL    HW2 9161   3.695   3.235   7.137 -1.3861 -0.4512  0.3121
 2741SOL     OW 9162   4.620   1.985   6.769  0.4785 -0.2375  0.4753
 2741SOL    HW1 9163   4.703   2.020   6.737  1.0349 -0.9908  1.0511
 2741SOL    HW2 9164   4.595   2.044   6.840 -0.8306  1.5238 -1.3218
 2742SOL     OW 9165   2.410   2.391   1.768  0.8343  0.1754  0.7425
 2742SOL    HW1 9166   2.465   2.318   1.742  0.0123 -0.4890  0.8158
 2742SOL    HW2 9167   2.333   2.350   1.808 -0.5574  0.9663 -0.9543
 2743SOL     OW 9168   4.991   3.295   2.728 -0.2083  0.0105  0.1238
 2743SOL    HW1 9169   5.062   3.231   2.725 -1.0876 -1.1984  2.5710
 2743SOL    HW2 9170   4.996   3.340   2.643  3.3298 -0.1193  0.1183
 2744SOL     OW 9171   5.033   3.379   4.420  0.2473  0.5991  0.1368
 2744SOL    HW1 9172   5.126   3.393   4.405  0.4624 -2.7445 -3.1833
 2744SOL    HW2 9173   4.990   3.423   4.346 -0.7428  1.1236  0.9926
 2745SOL     OW 9174   1.680   0.817   2.885  0.1099 -0.2364  0.0945
 2745SOL    HW1 9175   1.675   0.807   2.980 -1.9871  1.1650  0.1989
 2745SOL    HW2 9176   1.612   0.759   2.851  1.7418 -1.7740 -0.7050
 2746SOL     OW 9177   4.034   5.740   5.410  0.6757  0.6489  0.5006
 2746SOL    HW1 9178   4.118   5.714   5.373 -0.2749 -1.5390 -0.2967
 2746SOL    HW2 9179   3.976   5.752   5.334 -0.0899  0.7052  1.0748
 2747SOL     OW 9180   2.155   2.912   1.474 -0.2238  0.0331 -0.1100
 2747SOL    HW1 9181   2.095   2.941   1.406 -0.1329  0.3026 -0.0754
 2747SOL    HW2 9182   2.236   2.890   1.428  1.1655  3.7266  0.2174
 2748SOL     OW 9183   1.451   5.499   3.947  0.0647  0.4347 -0.1759
 2748SOL    HW1 9184   1.520   5.442   3.981  0.0056  0.6875  0.3735
 2748SOL    HW2 9185   1.450   5.482   3.852  0.2101 -0.2956 -0.0531
 2749SOL     OW 9186   6.977   3.736   2.854 -0.1835 -0.2019 -0.1133
 2749SOL    HW1 9187   6.980   3.743   2.950  1.7628  0.8374 -0.1988
 2749SOL    HW2 9188   6.925   3.657   2.837 -3.8803  1.5733  1.6576
 2750SOL     OW 9189   6.382   4.303   2.474  0.4817  0.2107  0.2342
 2750SOL    HW1 9190   6.409   4.302   2.566 -0.1079  0.0208  0.4097
 2750SOL    HW2 9191   6.443   4.364   2.432  1.0695 -0.0846  0.6491
 2751SOL     OW 9192   3.819   0.467   0.656 -0.6502 -0.4042  0.6107
 2751SOL    HW1 9193   3.750   0.470   0.588 -0.9000 -2.5922  0.6912
 2751SOL    HW2 9194   3.862   0.552   0.650 -1.7109  0.0647 -1.2037
 2752SOL     OW 9195   2.563   4.345   1.439 -1.0248  0.1218 -0.3051
 2752SOL    HW1 9196   2.556   4.274   1.375 -0.1303 -0.5456  0.3168
 2752SOL    HW2 9197   2.583   4.423   1.387 -0.6739 -0.3422 -0.8708
 2753SOL     OW 9198   6.698   1.055   3.415 -0.2468  0.2423  0.9246
 2753SOL    HW1 9199   6.783   1.046   3.372 -1.0652 -1.7612 -0.4504
 2753SOL    HW2 9200   6.661   1.135   3.379  0.0889 -0.1430 -0.3388
 2754SOL     OW 9201   4.927   2.694   4.353 -0.4597 -0.4355  0.8309
 2754SOL    HW1 9202   4.832   2.708   4.361 -0.0467  2.3370  1.5731
 2754SOL    HW2 9203   4.948   2.724   4.265 -0.3276 -1.6361  0.4371
 2755SOL     OW 9204   3.742   2.655   5.663  0.1873 -0.4183 -0.0967
 2755SOL    HW1 9205   3.768   2.598   5.591 -1.1638 -0.5821 -0.4859
 2755SOL    HW2 9206   3.822   2.703   5.687  0.8150 -0.8866 -1.2176
 2756SOL     OW 9207   3.847   0.159   3.014  0.1681 -0.2578 -0.2480
 2756SOL    HW1 9208   3.882   0.139   3.100 -0.1844 -0.4973 -0.1562
 2756SOL    HW2 9209   3.771   0.215   3.031  1.2044  1.2774 -0.5076
 2757SOL     OW 9210   1.215   1.013   0.700 -0.6512  0.2434  0.3708
 2757SOL    HW1 9211   1.184   1.035   0.788  0.7248  0.7352  0.7522
 2757SOL    HW2 9212   1.292   0.958   0.715 -0.8953 -0.3607 -0.5457
 2758SOL     OW 9213   4.672   0.358   2.768  0.0260  0.5691  0.5726
 2758SOL    HW1 9214   4.679   0.349   2.673 -0.1517  1.3240  0.4823
 2758SOL    HW2 9215   4.742   0.419   2.792 -0.2494  0.7802  0.8562
 2759SOL     OW 9216   5.165   6.207   1.296 -0.3149  0.3939  0.6318
 2759SOL    HW1 9217   5.132   6.278   1.351 -1.2336  0.0969  0.4747
 2759SOL    HW2 9218   5.101   6.200   1.225  0.6087  0.4684 -0.2413
 2760SOL     OW 9219   4.835   3.264   4.157  0.5838 -0.0389 -0.3344
 2760SOL    HW1 9220   4.866   3.354   4.156 -1.6859  0.7982 -0.3192
 2760SOL    HW2 9221   4.782   3.257   4.236  0.1360 -1.1638 -0.7088
 2761SOL     OW 9222   5.893   5.164   6.985 -0.0677 -0.0715  0.3535
 2761SOL    HW1 9223   5.893   5.161   6.890 -0.3283 -1.2131  0.3693
 2761SOL    HW2 9224   5.815   5.214   7.008 -0.7308 -0.9081 -0.0265
 2762SOL     OW 9225   5.959   0.923   2.565  0.2577  0.1980  0.1416
 2762SOL    HW1 9226   6.036   0.902   2.619  0.7679 -0.6019 -0.8556
 2762SOL    HW2 9227   5.924   1.003   2.604  2.0716  1.0592  0.1441
 2763SOL     OW 9228   1.319   5.847   4.808  0.5016  0.6820  0.0498
 2763SOL    HW1 9229   1.330   5.810   4.721  0.6249  0.1506  0.2876
 2763SOL    HW2 9230   1.227   5.874   4.811  0.6521  1.2774 -0.4590
 2764SOL     OW 9231   7.312   6.557   6.987  0.1007  0.2265 -0.3537
 2764SOL    HW1 9232   7.219   6.579   6.994  0.3120  1.0328  0.1293
 2764SOL    HW2 9233   7.333   6.570   6.895 -0.2922 -0.0733 -0.4865
 2765SOL     OW 9234   7.199   7.120   6.132  0.2932  0.1427  0.1701
 2765SOL    HW1 9235   7.277   7.121   6.187  0.9337  0.3391 -0.7258
 2765SOL    HW2 9236   7.155   7.203   6.150 -2.1286 -1.6808  3.9861
 2766SOL     OW 9237   3.285   6.665   0.808  0.0594 -0.2632  0.0687
 2766SOL    HW1 9238   3.315   6.739   0.861 -1.1118 -0.1788  0.6492
 2766SOL    HW2 9239   3.344   6.594   0.832  0.1148  0.0205  0.8181
 2767SOL     OW 9240   3.829   2.309   2.949  0.3786 -0.6301  0.1745
 2767SOL    HW1 9241   3.752   2.299   3.005  0.4933  0.4598  0.5551
 2767SOL    HW2 9242   3.892   2.357   3.003  0.6128  0.1682 -0.7734
 2768SOL     OW 9243   4.359   5.504   4.251  0.0058 -0.0780 -0.3107
 2768SOL    HW1 9244   4.443   5.544   4.274 -0.4073  1.7923 -1.8349
 2768SOL    HW2 9245   4.382   5.433   4.190  0.5883 -0.8122  0.7384
 2769SOL     OW 9246   3.861   5.057   0.479 -0.4321 -0.0514  0.4197
 2769SOL    HW1 9247   3.879   5.149   0.458  0.8576 -0.2539  0.5504
 2769SOL    HW2 9248   3.830   5.019   0.397  0.4530  0.1642 -0.0236
 2770SOL     OW 9249   3.847   5.358   4.833  0.1626 -0.0094 -0.5858
 2770SOL    HW1 9250   3.787   5.421   4.873  0.4782  0.8030 -1.3620
 2770SOL    HW2 9251   3.931   5.372   4.877  0.1840 -0.0218 -0.6218
 2771SOL     OW 9252   6.575   0.059   4.488  0.3349  0.1375 -0.7307
 2771SOL    HW1 9253   6.508  -0.009   4.493 -0.2095  0.6587 -0.8309
 2771SOL    HW2 9254   6.581   0.094   4.577  0.7077 -0.1225 -0.6498
 2772SOL     OW 9255   4.991   6.250   2.535 -0.1328 -0.0690  0.3087
 2772SOL    HW1 9256   5.051   6.183   2.502 -0.2573  0.4504 -1.0479
 2772SOL    HW2 9257   5.048   6.313   2.580  0.0400 -0.8055  1.1515
 2773SOL     OW 9258   7.359   3.286   1.451 -0.4795 -0.0496 -0.8384
 2773SOL    HW1 9259   7.419   3.335   1.394  0.2553  0.4182  0.3083
 2773SOL    HW2 9260   7.415   3.220   1.493 -0.5493  0.9341  0.8909
 2774SOL     OW 9261   2.478   5.316   2.828  0.0134  0.5945 -0.0037
 2774SOL    HW1 9262   2.517   5.297   2.742  0.3359  1.0798  0.0307
 2774SOL    HW2 9263   2.391   5.275   2.824  0.9743 -1.6257  0.3847
 2775SOL     OW 9264   0.633   4.500   3.467 -0.1710  0.5163  0.7527
 2775SOL    HW1 9265   0.585   4.419   3.487 -0.9690  0.6331 -0.5652
 2775SOL    HW2 9266   0.575   4.570   3.497  0.2139  0.6225  1.2616
 2776SOL     OW 9267   2.513   4.443   2.678  0.1057  0.1469  0.3841
 2776SOL    HW1 9268   2.461   4.384   2.624 -2.1777  1.7857  0.6623
 2776SOL    HW2 9269   2.573   4.485   2.616  1.7909 -2.3222  0.1833
 2777SOL     OW 9270   6.996   0.462   7.015  0.1484  0.3135  0.2916
 2777SOL    HW1 9271   6.936   0.535   7.028 -0.7634 -0.4686  0.5553
 2777SOL    HW2 9272   6.993   0.412   7.097  0.7945  0.0025  0.1368
 2778SOL     OW 9273   3.198   0.098   3.355  0.4609 -0.1587  0.0948
 2778SOL    HW1 9274   3.256   0.058   3.290 -1.1453  0.5986 -1.9119
 2778SOL    HW2 9275   3.179   0.028   3.416  1.6292 -1.0597 -0.5302
 2779SOL     OW 9276   2.130   4.698   3.965 -0.6144 -0.4841  0.4212
 2779SOL    HW1 9277   2.037   4.683   3.981 -0.5783 -0.6409  0.4902
 2779SOL    HW2 9278   2.146   4.661   3.878 -0.4403 -1.2189  0.7595
 2780SOL     OW 9279   6.161   7.139   3.242 -0.1610  0.3655  0.3258
 2780SOL    HW1 9280   6.235   7.102   3.290 -0.6254  0.0700  0.8272
 2780SOL    HW2 9281   6.091   7.074   3.252 -0.6274  0.8448  0.2372
 2781SOL     OW 9282   4.857   3.357   0.561  0.1040  0.4984 -0.1532
 2781SOL    HW1 9283   4.807   3.417   0.505 -1.4594 -0.9630 -0.3985
 2781SOL    HW2 9284   4.921   3.317   0.503  0.7318  1.4452 -0.1281
 2782SOL     OW 9285   6.720   1.746   0.495 -0.0906  0.2567  0.2045
 2782SOL    HW1 9286   6.813   1.760   0.478 -0.3175 -0.5902 -2.2116
 2782SOL    HW2 9287   6.676   1.781   0.417 -1.8009  0.5938  1.2699
 2783SOL     OW 9288   2.053   5.725   1.551  0.1831 -0.0483 -0.0417
 2783SOL    HW1 9289   2.084   5.816   1.558 -0.2096  0.0503  0.4435
 2783SOL    HW2 9290   1.992   5.726   1.478  0.3169  0.0381 -0.1536
 2784SOL     OW 9291   5.542   4.891   6.981 -0.4208 -0.0820 -0.4605
 2784SOL    HW1 9292   5.552   4.930   7.068 -0.3800  2.7517 -1.6147
 2784SOL    HW2 9293   5.632   4.874   6.953 -0.1202  2.2645 -1.2003
 2785SOL     OW 9294   4.109   4.319   6.188 -0.2140  0.3522 -0.1634
 2785SOL    HW1 9295   4.134   4.375   6.261  1.6581  0.7221 -1.0340
 2785SOL    HW2 9296   4.163   4.349   6.115  0.2116 -2.0067 -0.9024
 2786SOL     OW 9297   5.863   1.816   2.574  0.2717  0.0430  0.0595
 2786SOL    HW1 9298   5.950   1.856   2.562 -0.6744  1.6975 -1.7996
 2786SOL    HW2 9299   5.834   1.794   2.486 -0.8692 -1.3001  0.7372
 2787SOL     OW 9300   7.326   3.461   0.674 -0.2448 -0.5021 -0.3594
 2787SOL    HW1 9301   7.264   3.396   0.707 -0.0809  0.2156  1.4744
 2787SOL    HW2 9302   7.271   3.530   0.638 -0.5186 -0.1583  0.6854
 2788SOL     OW 9303   1.014   3.412   3.639 -0.0728  0.0816  0.4017
 2788SOL    HW1 9304   0.996   3.324   3.672  0.6174  0.0588  0.7305
 2788SOL    HW2 9305   1.090   3.442   3.689 -2.0543  2.0501  2.4831
 2789SOL     OW 9306   0.866   5.294   1.259  0.2932 -0.0731 -0.0895
 2789SOL    HW1 9307   0.814   5.217   1.240  0.6719  0.2799 -2.9742
 2789SOL    HW2 9308   0.886   5.332   1.174  0.6999  2.8500  1.1563
 2790SOL     OW 9309   7.322   0.074   4.474  0.3832  0.5733 -0.3233
 2790SOL    HW1 9310   7.344   0.136   4.405 -1.6182 -0.2108 -1.7360
 2790SOL    HW2 9311   7.399   0.017   4.480  1.3120  1.7744 -0.6021
 2791SOL     OW 9312   1.878   1.160   3.905  0.2185  0.6479  0.7203
 2791SOL    HW1 9313   1.910   1.200   3.986  1.0712  0.6480  0.3906
 2791SOL    HW2 9314   1.815   1.095   3.933  2.6922 -1.5107  1.6041
 2792SOL     OW 9315   2.478   0.698   3.130 -0.3045  0.4598 -0.1604
 2792SOL    HW1 9316   2.467   0.624   3.191  0.2438 -0.3880 -1.0607
 2792SOL    HW2 9317   2.527   0.763   3.180  2.1872 -1.1471 -0.3688
 2793SOL     OW 9318   3.300   2.441   1.400  0.0899 -0.2331  0.4636
 2793SOL    HW1 9319   3.367   2.391   1.448 -0.5929 -1.3317  0.3124
 2793SOL    HW2 9320   3.283   2.517   1.454  0.6016 -0.5634  1.1005
 2794SOL     OW 9321   4.728   6.277   0.647 -0.0873  0.0237 -0.3172
 2794SOL    HW1 9322   4.721   6.372   0.647  1.5654  0.1764  0.2279
 2794SOL    HW2 9323   4.731   6.252   0.739  1.0597 -0.3898 -0.4477
 2795SOL     OW 9324   3.770   4.818   2.560 -0.1035 -0.3215  0.3228
 2795SOL    HW1 9325   3.848   4.787   2.513 -2.0927 -2.1126 -2.0968
 2795SOL    HW2 9326   3.787   4.797   2.651  2.3931 -0.2373 -0.0503
 2796SOL     OW 9327   1.609   1.852   5.887 -0.6849  0.1381  0.0689
 2796SOL    HW1 9328   1.599   1.780   5.950 -3.5251  0.0760 -0.3256
 2796SOL    HW2 9329   1.700   1.880   5.897 -0.3678 -1.4434  2.4674
 2797SOL     OW 9330   6.859   1.361   2.204 -0.3608 -0.1225  0.3258
 2797SOL    HW1 9331   6.877   1.268   2.194  2.8248  0.4396 -0.2879
 2797SOL    HW2 9332   6.782   1.377   2.150 -0.8435 -2.3209  0.2813
 2798SOL     OW 9333   1.290   0.827   0.272 -0.0425  0.3535  0.0550
 2798SOL    HW1 9334   1.293   0.739   0.235  1.5299 -0.6646  2.3739
 2798SOL    HW2 9335   1.363   0.873   0.231 -1.1401  0.7983 -1.5024
 2799SOL     OW 9336   2.903   1.080   6.895  0.5478 -0.0100  0.3255
 2799SOL    HW1 9337   2.891   1.044   6.808  0.4743  1.4093 -0.2764
 2799SOL    HW2 9338   2.991   1.051   6.921  1.1383  0.7145 -0.8050
 2800SOL     OW 9339   0.726   0.458   4.194  0.3214  0.3118 -0.7161
 2800SOL    HW1 9340   0.643   0.505   4.191 -1.2886 -2.2925 -0.4986
 2800SOL    HW2 9341   0.766   0.485   4.276 -0.8945  0.7283 -0.2323
 2801SOL     OW 9342   4.044   0.169   1.772  0.3002  0.0187  0.9206
 2801SOL    HW1 9343   4.135   0.195   1.785 -0.0647  1.5500  0.6314
 2801SOL    HW2 9344   3.993   0.236   1.817 -0.7450  0.9200 -1.4382
 2802SOL     OW 9345   0.970   1.010   4.296 -0.4130 -0.0338  0.2567
 2802SOL    HW1 9346   1.055   1.043   4.265 -0.8752  0.2716 -0.7211
 2802SOL    HW2 9347   0.950   1.064   4.372 -0.6317  1.2321 -0.6608
 2803SOL     OW 9348   3.496   7.205   3.595  0.0389 -0.1384 -0.1164
 2803SOL    HW1 9349   3.580   7.163   3.578  0.3492  0.8539 -1.0827
 2803SOL    HW2 9350   3.512   7.299   3.583 -0.5020  0.3750  2.5065
 2804SOL     OW 9351   4.165   7.400   4.319  0.1866  0.1424 -0.2131
 2804SOL    HW1 9352   4.170   7.493   4.341  0.0189 -0.2128  1.4910
 2804SOL    HW2 9353   4.075   7.375   4.342  0.5068 -0.6382  0.2383
 2805SOL     OW 9354   2.409   0.427   3.289  0.1511  0.4587 -0.1826
 2805SOL    HW1 9355   2.328   0.477   3.300  0.7157  1.3915 -0.0870
 2805SOL    HW2 9356   2.444   0.419   3.378  0.0649 -0.1105 -0.2006
 2806SOL     OW 9357   3.891   6.739   0.743 -0.2907 -0.1792 -0.0052
 2806SOL    HW1 9358   3.879   6.795   0.667 -0.9089 -0.3279 -0.0228
 2806SOL    HW2 9359   3.802   6.712   0.767  0.0425 -1.8135 -0.4869
 2807SOL     OW 9360   7.012   1.366   0.552  0.6451  0.0601  0.1976
 2807SOL    HW1 9361   6.921   1.396   0.544  0.9414  1.0912  0.5229
 2807SOL    HW2 9362   7.063   1.447   0.560  1.5360 -0.5265  0.5620
 2808SOL     OW 9363   1.981   1.466   0.341 -0.4908  0.3397  0.2224
 2808SOL    HW1 9364   2.010   1.409   0.270 -1.6754  1.9838 -1.7137
 2808SOL    HW2 9365   2.061   1.504   0.376  0.0817  0.3466 -1.0387
 2809SOL     OW 9366   5.710   1.322   5.567  0.0770 -0.9849  0.0820
 2809SOL    HW1 9367   5.724   1.300   5.475  1.6341 -0.8315  0.2491
 2809SOL    HW2 9368   5.711   1.238   5.613 -0.1615 -1.0192  0.0267
 2810SOL     OW 9369   3.539   0.302   6.885  0.6717  0.5130  0.4842
 2810SOL    HW1 9370   3.528   0.269   6.974 -1.2983 -2.7791 -0.7823
 2810SOL    HW2 9371   3.617   0.258   6.852  0.3405  0.2876  0.0002
 2811SOL     OW 9372   4.175   2.801   6.730  0.1416 -0.1219  0.5091
 2811SOL    HW1 9373   4.139   2.870   6.674 -1.2043 -1.0935  0.1211
 2811SOL    HW2 9374   4.246   2.844   6.778 -0.5492  1.4865  0.1657
 2812SOL     OW 9375   3.628   5.432   5.255  0.6338  0.1104  0.3681
 2812SOL    HW1 9376   3.558   5.434   5.191 -0.8155  0.1802  1.8849
 2812SOL    HW2 9377   3.594   5.379   5.327  2.3951 -0.3905  0.8915
 2813SOL     OW 9378   3.304   1.271   3.155  0.0366  0.7512  0.2029
 2813SOL    HW1 9379   3.285   1.314   3.073  0.0441  2.7618  1.2049
 2813SOL    HW2 9380   3.240   1.306   3.217  0.2248 -0.4711  1.1542
 2814SOL     OW 9381   3.580   3.790   3.380  0.0443 -0.4677  0.3962
 2814SOL    HW1 9382   3.512   3.790   3.448 -0.5344 -0.1305 -0.1754
 2814SOL    HW2 9383   3.544   3.736   3.310  1.0251 -1.5853  0.7123
 2815SOL     OW 9384   5.011   5.152   5.181  0.8682 -0.2857 -0.0987
 2815SOL    HW1 9385   5.017   5.225   5.120 -0.4973 -0.2528 -0.2188
 2815SOL    HW2 9386   5.093   5.156   5.231  1.5180  0.3461 -1.1734
 2816SOL     OW 9387   3.571   4.869   2.217 -0.1980 -0.4162 -0.8490
 2816SOL    HW1 9388   3.512   4.794   2.212  1.2531 -1.8352  1.2844
 2816SOL    HW2 9389   3.659   4.830   2.218  0.6296  1.3450 -0.1915
 2817SOL     OW 9390   6.709   5.696   7.138  0.0365  0.0331  0.1555
 2817SOL    HW1 9391   6.757   5.742   7.207  0.6166 -0.6355  0.2105
 2817SOL    HW2 9392   6.617   5.711   7.160  0.2002 -0.5917  1.3890
 2818SOL     OW 9393   4.119   4.048   1.632 -0.1737 -0.7003 -0.5719
 2818SOL    HW1 9394   4.046   3.991   1.659  0.3006 -0.7547  0.6791
 2818SOL    HW2 9395   4.152   4.008   1.552 -1.9202 -0.3003 -1.5482
 2819SOL     OW 9396   1.823   5.690   3.447 -0.4816  0.0253  0.1127
 2819SOL    HW1 9397   1.843   5.762   3.506 -0.3544 -0.3024  0.4712
 2819SOL    HW2 9398   1.901   5.634   3.450  0.2638  0.8828 -1.6937
 2820SOL     OW 9399   4.569   1.865   5.190  0.5412 -0.4104 -0.1982
 2820SOL    HW1 9400   4.606   1.800   5.131  1.2892 -0.3285  0.1629
 2820SOL    HW2 9401   4.594   1.834   5.278 -0.2625 -0.3547  0.0534
 2821SOL     OW 9402   4.430   1.819   6.422 -0.1136 -0.1921  0.0435
 2821SOL    HW1 9403   4.501   1.754   6.417  0.4462  0.4753 -1.2519
 2821SOL    HW2 9404   4.440   1.857   6.509  1.3430  0.1045 -0.2183
 2822SOL     OW 9405   0.889   1.844   2.043 -0.3244 -0.0101  0.4179
 2822SOL    HW1 9406   0.947   1.882   1.978  0.8232  1.4213  2.1903
 2822SOL    HW2 9407   0.939   1.771   2.080 -0.4413  0.0190  0.6351
 2823SOL     OW 9408   0.144   0.333   7.269  0.3759  0.0015  0.0153
 2823SOL    HW1 9409   0.237   0.310   7.272 -0.0126 -2.1126 -1.4149
 2823SOL    HW2 9410   0.105   0.282   7.340 -0.2548 -2.9103 -2.1911
 2824SOL     OW 9411   4.898   6.663   5.402  0.4847 -0.2289 -0.3279
 2824SOL    HW1 9412   4.814   6.683   5.360  0.1540 -0.3357  0.2637
 2824SOL    HW2 9413   4.873   6.618   5.483  1.0444  1.1363  0.6378
 2825SOL     OW 9414   1.070   3.361   2.783 -0.5617  0.3066 -0.3062
 2825SOL    HW1 9415   1.064   3.326   2.872  0.4475  0.7693 -0.0425
 2825SOL    HW2 9416   1.021   3.299   2.730  1.4654 -1.7803  0.0830
 2826SOL     OW 9417   4.733   6.753   4.372  0.1225  0.1328 -0.6985
 2826SOL    HW1 9418   4.826   6.738   4.387  0.0399 -0.4918 -0.7827
 2826SOL    HW2 9419   4.717   6.842   4.402  0.3323 -0.4389  1.1921
 2827SOL     OW 9420   1.366   7.291   1.250 -0.7313 -0.0395 -0.2662
 2827SOL    HW1 9421   1.378   7.296   1.344 -0.2526 -1.4425 -0.2297
 2827SOL    HW2 9422   1.286   7.341   1.233  0.3685  2.1631  0.5670
 2828SOL     OW 9423   1.923   6.976   5.807  0.0766  0.2818  0.0428
 2828SOL    HW1 9424   1.935   7.063   5.847  1.0359  0.2172 -0.0813
 2828SOL    HW2 9425   2.006   6.932   5.822  0.6896  0.4429 -2.4926
 2829SOL     OW 9426   4.795   2.101   2.830  0.1111  0.5637  0.1476
 2829SOL    HW1 9427   4.854   2.132   2.899 -1.4475  1.6045  1.0707
 2829SOL    HW2 9428   4.853   2.071   2.761  1.7327  0.3696  1.5187
 2830SOL     OW 9429   6.892   3.267   3.685 -0.4822 -0.6568 -0.3597
 2830SOL    HW1 9430   6.975   3.310   3.708 -0.2413 -0.2484 -1.8687
 2830SOL    HW2 9431   6.852   3.246   3.769  1.0493 -0.6620  0.4098
 2831SOL     OW 9432   3.276   2.312   3.922  0.6080  0.5450 -0.1204
 2831SOL    HW1 9433   3.262   2.309   3.827  0.6721  1.0309 -0.1484
 2831SOL    HW2 9434   3.207   2.257   3.958  1.4899 -0.8902 -0.5316
 2832SOL     OW 9435   2.272   4.159   3.293 -0.3725 -0.2233  0.6601
 2832SOL    HW1 9436   2.290   4.206   3.374 -2.1477  1.5878  0.1011
 2832SOL    HW2 9437   2.339   4.191   3.232 -1.2078  1.2462  0.4537
 2833SOL     OW 9438   6.143   4.939   3.791  0.7226 -0.2050  0.1251
 2833SOL    HW1 9439   6.084   4.927   3.717 -0.6847 -1.1071  1.3358
 2833SOL    HW2 9440   6.225   4.898   3.763  0.0619 -0.9582 -0.7574
 2834SOL     OW 9441   0.948   6.086   5.930 -0.2613 -0.0480  0.1581
 2834SOL    HW1 9442   0.937   6.164   5.874  1.6538 -0.4427 -0.8475
 2834SOL    HW2 9443   0.912   6.014   5.878 -1.0850 -0.0080  0.6565
 2835SOL     OW 9444   2.812   6.068   6.959  0.2653 -0.3624 -0.2636
 2835SOL    HW1 9445   2.897   6.087   6.998 -0.3159 -0.8431  1.2911
 2835SOL    HW2 9446   2.784   5.987   7.001 -0.5453 -0.7231 -1.4648
 2836SOL     OW 9447   1.949   6.873   5.560  0.7720  0.5084 -0.2063
 2836SOL    HW1 9448   1.911   6.912   5.639 -0.0164  0.2214 -0.4435
 2836SOL    HW2 9449   1.878   6.823   5.521  1.1311  0.7118 -1.1469
 2837SOL     OW 9450   3.448   5.097   1.344  0.6170  0.0832  0.2072
 2837SOL    HW1 9451   3.528   5.149   1.331 -0.9848  2.0064 -3.5526
 2837SOL    HW2 9452   3.378   5.162   1.350 -1.1996 -1.5286 -1.8647
 2838SOL     OW 9453   6.193   4.183   1.660 -0.0533 -0.4317 -0.3324
 2838SOL    HW1 9454   6.284   4.190   1.632  0.1408  1.1367  0.5703
 2838SOL    HW2 9455   6.195   4.123   1.734  0.0822 -1.1546 -0.9071
 2839SOL     OW 9456   6.269   1.815   4.529 -0.4871  0.1214 -0.1172
 2839SOL    HW1 9457   6.351   1.859   4.548 -0.2686  0.7464 -2.2357
 2839SOL    HW2 9458   6.201   1.874   4.561 -0.1571  1.2798 -1.4737
 2840SOL     OW 9459   2.528   1.845   3.572 -0.4687 -0.3285  0.2510
 2840SOL    HW1 9460   2.575   1.782   3.516 -2.1562 -0.5698 -0.9525
 2840SOL    HW2 9461   2.479   1.790   3.633  0.9809 -0.0712  1.7152
 2841SOL     OW 9462   4.522   3.765   3.048  0.3485  0.2381 -0.3188
 2841SOL    HW1 9463   4.481   3.696   2.996 -1.5185  1.3245 -0.3864
 2841SOL    HW2 9464   4.455   3.833   3.054  1.4710  1.2696  1.2954
 2842SOL     OW 9465   5.221   4.493   2.253  0.2877 -0.1626 -0.1646
 2842SOL    HW1 9466   5.308   4.498   2.291  0.8577  1.1895 -1.5471
 2842SOL    HW2 9467   5.178   4.421   2.300  1.6249  0.1014  1.5518
 2843SOL     OW 9468   1.498   3.143   6.016  0.4072  0.2401  0.0892
 2843SOL    HW1 9469   1.520   3.051   6.031 -1.5803 -0.4486 -0.8190
 2843SOL    HW2 9470   1.523   3.159   5.924  1.8939  1.0238  0.5873
 2844SOL     OW 9471   3.250   3.004   3.029  0.3801  0.1355 -0.1100
 2844SOL    HW1 9472   3.174   3.033   3.079 -0.9270 -0.8624 -1.4214
 2844SOL    HW2 9473   3.311   3.078   3.033 -1.4552  1.7614 -0.6104
 2845SOL     OW 9474   5.974   0.546   5.284 -0.0861  0.1148  0.1104
 2845SOL    HW1 9475   5.933   0.470   5.243  1.0426  0.5397 -1.9639
 2845SOL    HW2 9476   6.062   0.518   5.306  0.3000  0.7579 -0.5604
 2846SOL     OW 9477   7.369   5.185   1.817  0.0938  0.2495  0.1797
 2846SOL    HW1 9478   7.464   5.196   1.819  0.1243  0.9354 -2.1429
 2846SOL    HW2 9479   7.338   5.228   1.897  1.6511  1.0665  0.3744
 2847SOL     OW 9480   5.115   0.162   0.636 -0.0067 -0.0192 -0.1747
 2847SOL    HW1 9481   5.034   0.112   0.630  0.9108 -1.4709 -1.7869
 2847SOL    HW2 9482   5.184   0.095   0.637  1.2239  1.1832 -0.8129
 2848SOL     OW 9483   0.583   2.718   1.495 -0.0751 -1.0140  0.4742
 2848SOL    HW1 9484   0.538   2.634   1.504  0.2323 -1.1337  0.8896
 2848SOL    HW2 9485   0.674   2.700   1.517  0.2302 -0.8136 -0.5622
 2849SOL     OW 9486   2.312   6.594   1.370 -0.1326  0.5650  0.2370
 2849SOL    HW1 9487   2.243   6.623   1.310 -0.1786 -0.6990 -0.3605
 2849SOL    HW2 9488   2.294   6.639   1.452 -0.6857  1.5258 -0.4024
 2850SOL     OW 9489   3.050   3.382   3.027 -0.3601  0.6480 -0.0181
 2850SOL    HW1 9490   3.066   3.359   2.935  0.4118 -0.5750  0.3916
 2850SOL    HW2 9491   3.133   3.418   3.057 -0.3204  0.1756  0.4448
 2851SOL     OW 9492   1.582   5.761   0.160 -0.2367 -0.1339  0.2422
 2851SOL    HW1 9493   1.656   5.728   0.108 -0.2829 -0.3056  0.2833
 2851SOL    HW2 9494   1.529   5.683   0.178 -0.9253  0.1199 -0.5742
 2852SOL     OW 9495   2.169   6.435   0.351 -0.1528 -0.5912  0.3278
 2852SOL    HW1 9496   2.210   6.394   0.427  1.1295  2.7673  1.6459
 2852SOL    HW2 9497   2.243   6.460   0.294 -0.8778 -0.4117 -0.5633
 2853SOL     OW 9498   5.649   0.744   7.372 -0.1103  0.4508 -0.1183
 2853SOL    HW1 9499   5.651   0.784   7.458  0.5678  0.5518 -0.1804
 2853SOL    HW2 9500   5.737   0.755   7.337  0.2028 -1.3857 -0.0059
 2854SOL     OW 9501   2.099   6.971   6.873  0.7113  0.2259  0.3516
 2854SOL    HW1 9502   2.059   6.884   6.872  0.0039  0.5055  1.8545
 2854SOL    HW2 9503   2.193   6.954   6.876  0.5517 -0.5353  2.0940
 2855SOL     OW 9504   6.005   6.741   6.553  0.6623  0.1019 -0.4151
 2855SOL    HW1 9505   6.044   6.731   6.466 -0.8621 -1.7236 -0.9392
 2855SOL    HW2 9506   5.920   6.698   6.546 -0.4037  1.7473  1.4047
 2856SOL     OW 9507   6.840   5.528   0.604 -0.1083  0.6450  0.1020
 2856SOL    HW1 9508   6.907   5.583   0.645 -1.3440  1.7930  0.6378
 2856SOL    HW2 9509   6.811   5.469   0.673  1.2647 -0.8163 -0.4897
 2857SOL     OW 9510   1.049   2.725   6.432  0.1723  0.4467  0.1367
 2857SOL    HW1 9511   1.057   2.711   6.527  0.2851  0.6293  0.1534
 2857SOL    HW2 9512   0.959   2.699   6.412  0.5064 -0.7797  0.0890
 2858SOL     OW 9513   4.016   4.071   2.100 -0.5143  0.0476  0.1293
 2858SOL    HW1 9514   4.019   4.081   2.195  0.3154  0.5141  0.0599
 2858SOL    HW2 9515   3.931   4.031   2.083 -1.0865  0.8553  0.9853
 2859SOL     OW 9516   3.225   0.574   6.426 -0.4551  0.2673 -0.3162
 2859SOL    HW1 9517   3.252   0.484   6.446 -0.9446  0.1194 -0.2949
 2859SOL    HW2 9518   3.284   0.602   6.356  0.5841  0.4114  0.6009
 2860SOL     OW 9519   3.425   4.131   0.458 -0.2994  0.3343 -0.1067
 2860SOL    HW1 9520   3.473   4.134   0.541 -1.1418  0.7225  0.3828
 2860SOL    HW2 9521   3.435   4.041   0.428 -2.1181 -0.5696  1.7384
 2861SOL     OW 9522   0.402   7.030   5.718  0.2566 -0.4056  0.1323
 2861SOL    HW1 9523   0.409   7.121   5.747 -0.6111 -0.3994  0.3399
 2861SOL    HW2 9524   0.309   7.011   5.720  0.5306 -1.8163  1.6831
 2862SOL     OW 9525   3.629   4.616   6.153  0.4356  0.2973  0.2895
 2862SOL    HW1 9526   3.655   4.592   6.064  0.9444 -1.6417  0.9094
 2862SOL    HW2 9527   3.709   4.652   6.192  0.8981 -1.0785  0.6683
 2863SOL     OW 9528   3.004   4.426   3.338  0.2129 -0.4586 -0.1588
 2863SOL    HW1 9529   2.981   4.428   3.431 -0.5261 -1.4137 -0.3063
 2863SOL    HW2 9530   2.965   4.506   3.303 -0.0462 -0.4051  0.2357
 2864SOL     OW 9531   4.052   4.604   1.691  0.1409  0.0857 -0.4022
 2864SOL    HW1 9532   4.049   4.513   1.664 -1.2712  0.0301 -0.1473
 2864SOL    HW2 9533   4.023   4.603   1.782  3.1376  0.4619  0.6366
 2865SOL     OW 9534   4.517   6.455   5.965 -0.9061  0.4155 -0.6683
 2865SOL    HW1 9535   4.426   6.426   5.972 -0.8562  0.3656 -0.1735
 2865SOL    HW2 9536   4.511   6.549   5.950 -1.0389  0.4625 -0.3349
 2866SOL     OW 9537   3.375   0.834   0.795  0.1542 -1.1190 -0.0008
 2866SOL    HW1 9538   3.470   0.820   0.797  0.6498  1.3470 -1.5260
 2866SOL    HW2 9539   3.347   0.795   0.712 -0.0545 -1.3379  0.1736
 2867SOL     OW 9540   6.461   6.997   5.611  0.2475  0.0599  0.4229
 2867SOL    HW1 9541   6.459   6.970   5.703  0.5227  1.4330  0.8560
 2867SOL    HW2 9542   6.372   7.027   5.593 -0.1629 -1.4305 -0.1726
 2868SOL     OW 9543   1.900   0.343   6.111  0.9374  0.1069  0.0024
 2868SOL    HW1 9544   1.822   0.397   6.124  1.0287  0.2603 -0.0859
 2868SOL    HW2 9545   1.959   0.398   6.061  0.9511 -0.1522 -0.2664
 2869SOL     OW 9546   3.361   1.154   2.064  0.1350 -0.2773  0.6499
 2869SOL    HW1 9547   3.442   1.172   2.112 -1.3637  1.8296  2.5770
 2869SOL    HW2 9548   3.376   1.190   1.977  0.8765  1.1963  1.3480
 2870SOL     OW 9549   7.272   0.601   4.795 -0.0344  0.2951  0.3565
 2870SOL    HW1 9550   7.283   0.545   4.718  1.8850  0.2112  0.6367
 2870SOL    HW2 9551   7.289   0.689   4.763  0.3522  0.3065  0.5856
 2871SOL     OW 9552   2.462   5.477   0.281  0.0552  0.5536  0.0882
 2871SOL    HW1 9553   2.453   5.410   0.213 -0.9904  1.5237 -0.7702
 2871SOL    HW2 9554   2.556   5.494   0.286  0.0914  1.0262 -1.7036
 2872SOL     OW 9555   5.030   5.065   3.031  0.5730  0.0818 -0.5180
 2872SOL    HW1 9556   5.066   4.979   3.049 -0.4096 -0.1393  0.5129
 2872SOL    HW2 9557   4.935   5.054   3.041  0.4059  1.2013 -0.7200
 2873SOL     OW 9558   2.146   6.092   3.599  0.1894  0.3269  0.3167
 2873SOL    HW1 9559   2.188   6.088   3.685 -0.9324 -2.1083  0.8226
 2873SOL    HW2 9560   2.198   6.156   3.550  1.3348  1.1971  2.5320
 2874SOL     OW 9561   2.471   1.792   0.777 -0.6612  0.0660  0.1418
 2874SOL    HW1 9562   2.475   1.755   0.689 -0.5750  0.3441  0.0263
 2874SOL    HW2 9563   2.448   1.884   0.763 -0.9666  0.0321  0.4297
 2875SOL     OW 9564   0.119   1.536   3.093 -0.5987 -0.2844 -0.6405
 2875SOL    HW1 9565   0.168   1.601   3.043 -1.8652  1.0934 -0.1702
 2875SOL    HW2 9566   0.184   1.469   3.115  1.0242  1.3107 -0.2924
 2876SOL     OW 9567   7.138   1.886   4.521 -0.1765 -0.0840 -0.6272
 2876SOL    HW1 9568   7.145   1.816   4.455 -1.0277 -1.0751  0.3038
 2876SOL    HW2 9569   7.215   1.875   4.576 -2.0527 -2.7526  1.7736
 2877SOL     OW 9570   0.672   6.751   3.090  0.2217  0.0252 -0.3275
 2877SOL    HW1 9571   0.683   6.699   3.170  0.4041 -0.8744 -0.9197
 2877SOL    HW2 9572   0.706   6.695   3.020 -0.3981  0.5972 -1.1052
 2878SOL     OW 9573   3.300   5.898   3.982 -0.0519  0.1007  0.0866
 2878SOL    HW1 9574   3.325   5.972   3.927 -0.9962 -0.9507 -1.8525
 2878SOL    HW2 9575   3.370   5.834   3.970 -0.9827 -0.7346 -1.1630
 2879SOL     OW 9576   5.162   5.530   2.497 -0.4303 -0.2434 -0.0581
 2879SOL    HW1 9577   5.101   5.502   2.566 -1.0478 -2.3318 -1.3766
 2879SOL    HW2 9578   5.154   5.463   2.429  0.1738  1.7270 -2.1814
 2880SOL     OW 9579   6.902   7.304   5.168  0.6601 -0.2828  0.5301
 2880SOL    HW1 9580   6.904   7.222   5.216  0.7982  0.0805  1.1609
 2880SOL    HW2 9581   6.982   7.349   5.194  1.5155 -0.7120 -1.2085
 2881SOL     OW 9582   6.523   5.056   6.011  0.2426  1.0402 -0.1571
 2881SOL    HW1 9583   6.567   5.141   6.006  1.9228  0.2930  0.7910
 2881SOL    HW2 9584   6.539   5.026   6.101 -0.4905 -0.1727 -0.4067
 2882SOL     OW 9585   0.556   3.802   6.935  0.3156 -0.1560 -0.4085
 2882SOL    HW1 9586   0.506   3.720   6.928  0.9469 -0.5751 -0.0495
 2882SOL    HW2 9587   0.639   3.777   6.975  0.2131  0.7842  0.4403
 2883SOL     OW 9588   4.539   4.933   2.369  0.4295  0.3912 -0.2615
 2883SOL    HW1 9589   4.555   4.941   2.463  0.3471 -0.5291 -0.1603
 2883SOL    HW2 9590   4.446   4.950   2.359 -0.0497 -1.7728  0.1391
 2884SOL     OW 9591   2.070   0.354   6.856  0.2822 -0.5205  0.2967
 2884SOL    HW1 9592   2.122   0.419   6.904  1.1758 -0.2958 -0.9239
 2884SOL    HW2 9593   1.981   0.389   6.857  0.5918  0.2956  0.3885
 2885SOL     OW 9594   2.380   1.289   4.031  0.1883  0.2178 -0.4536
 2885SOL    HW1 9595   2.450   1.347   4.064  0.3470 -0.1987 -0.0443
 2885SOL    HW2 9596   2.321   1.348   3.984 -0.5659  1.0133  1.3835
 2886SOL     OW 9597   4.684   4.396   3.537 -0.3312 -0.3016  0.1098
 2886SOL    HW1 9598   4.651   4.447   3.611 -0.7392  3.2283 -2.2692
 2886SOL    HW2 9599   4.611   4.391   3.476  0.6762 -0.9777 -1.0941
 2887SOL     OW 9600   2.083   1.542   0.054  0.0702 -0.1889  0.3686
 2887SOL    HW1 9601   2.084   1.578  -0.035 -1.6867  0.4364  0.5585
 2887SOL    HW2 9602   2.175   1.540   0.080  0.6698 -0.8063 -1.6114
 2888SOL     OW 9603   5.246   4.839   6.935 -0.1314 -0.0562 -0.4725
 2888SOL    HW1 9604   5.337   4.860   6.954 -0.5381  1.3263  0.0984
 2888SOL    HW2 9605   5.199   4.867   7.014 -0.8052 -2.9318  0.2511
 2889SOL     OW 9606   2.003   5.938   0.202  0.1152  0.3840  0.4093
 2889SOL    HW1 9607   1.934   5.912   0.263  0.1970  0.5246  0.5619
 2889SOL    HW2 9608   1.994   6.033   0.196 -0.2534  0.3169 -0.2283
 2890SOL     OW 9609   1.752   4.986   3.628 -0.0575 -0.0553  0.0323
 2890SOL    HW1 9610   1.754   5.078   3.602  0.7652 -0.0534  0.0710
 2890SOL    HW2 9611   1.761   4.988   3.723 -1.1117 -0.1421  0.1466
 2891SOL     OW 9612   6.355   6.861   0.638  0.2503 -0.1178 -0.2122
 2891SOL    HW1 9613   6.383   6.817   0.719 -1.1418 -2.3327 -0.8389
 2891SOL    HW2 9614   6.264   6.885   0.655  0.7725  1.9883 -0.1634
 2892SOL     OW 9615   5.765   3.124   6.983 -0.4133 -0.1562  0.3339
 2892SOL    HW1 9616   5.730   3.046   6.940 -0.8397 -0.6480  1.5354
 2892SOL    HW2 9617   5.817   3.167   6.916 -0.5381 -1.2371 -0.4798
 2893SOL     OW 9618   4.032   6.019   1.374 -0.2464  0.2487 -0.2677
 2893SOL    HW1 9619   4.030   6.068   1.292 -1.4829 -0.8364 -0.9127
 2893SOL    HW2 9620   4.027   5.928   1.348 -0.6694 -0.1179  1.0183
 2894SOL     OW 9621   2.395   0.828   3.574  0.2316  0.2421  0.6201
 2894SOL    HW1 9622   2.433   0.766   3.636 -0.5281 -1.0356 -0.1477
 2894SOL    HW2 9623   2.302   0.807   3.573  0.4756 -1.2980 -2.5279
 2895SOL     OW 9624   4.169   0.224   4.407  0.0499 -0.2675  0.0381
 2895SOL    HW1 9625   4.164   0.230   4.502  0.2825  0.1239  0.0263
 2895SOL    HW2 9626   4.077   0.228   4.378 -0.0173 -0.3463  0.2433
 2896SOL     OW 9627   6.400   2.837   6.443 -0.5074  0.5289  0.4317
 2896SOL    HW1 9628   6.458   2.828   6.518  0.2208 -1.2976 -0.2950
 2896SOL    HW2 9629   6.450   2.889   6.380 -0.7403  1.2298  0.8106
 2897SOL     OW 9630   7.156   5.409   3.141 -0.2755  0.1860  0.5127
 2897SOL    HW1 9631   7.206   5.490   3.150  0.8303 -0.1508 -1.7640
 2897SOL    HW2 9632   7.096   5.425   3.068  1.0552 -1.4583 -1.0459
 2898SOL     OW 9633   3.957   0.617   3.606 -0.3605  0.1769 -0.2543
 2898SOL    HW1 9634   4.003   0.551   3.659  1.8033  2.0937  0.3675
 2898SOL    HW2 9635   3.868   0.617   3.642 -0.5981 -2.6450 -0.5684
 2899SOL     OW 9636   6.861   3.633   3.482 -0.3645 -0.6404  0.0681
 2899SOL    HW1 9637   6.821   3.591   3.558 -0.3400 -2.3816 -0.8348
 2899SOL    HW2 9638   6.890   3.718   3.515  1.4866 -2.1028  2.6086
 2900SOL     OW 9639   2.849   3.497   1.553  1.2665  0.0405 -0.4351
 2900SOL    HW1 9640   2.894   3.445   1.620 -0.6020 -0.3275  0.6094
 2900SOL    HW2 9641   2.809   3.433   1.495 -1.0777  0.2177  0.8812
 2901SOL     OW 9642   2.895   7.071   1.513 -0.0668  0.3192 -0.0359
 2901SOL    HW1 9643   2.956   6.999   1.534  1.3653  1.2134 -0.9312
 2901SOL    HW2 9644   2.922   7.100   1.425 -2.6707 -0.1015 -1.0632
 2902SOL     OW 9645   0.042   0.617   6.901  0.7971  0.6110 -0.5432
 2902SOL    HW1 9646   0.125   0.570   6.916 -0.5182 -1.5889  0.2561
 2902SOL    HW2 9647   0.034   0.618   6.805  0.2817 -2.0532 -0.6150
 2903SOL     OW 9648   2.818   6.630   2.962  0.8816 -0.0957  0.1192
 2903SOL    HW1 9649   2.795   6.721   2.944 -2.1901 -0.7094  0.4355
 2903SOL    HW2 9650   2.808   6.622   3.057 -0.7557 -1.1586 -0.1090
 2904SOL     OW 9651   3.627   0.765   2.486  0.0497  0.2723 -1.0093
 2904SOL    HW1 9652   3.582   0.734   2.407 -0.9263 -0.7125 -0.0918
 2904SOL    HW2 9653   3.673   0.689   2.519  0.9310  0.8251 -0.9214
 2905SOL     OW 9654   0.589   7.048   0.811  0.2599  0.1535  0.1610
 2905SOL    HW1 9655   0.563   7.132   0.848 -0.6395  0.0589 -0.2365
 2905SOL    HW2 9656   0.665   7.021   0.863  0.5754  1.2182  0.2684
 2906SOL     OW 9657   6.431   0.311   4.130  0.0142  0.0678  0.0075
 2906SOL    HW1 9658   6.471   0.386   4.173  3.0113  0.8678 -3.6222
 2906SOL    HW2 9659   6.492   0.238   4.145 -0.5734 -0.4701 -0.1692
 2907SOL     OW 9660   4.799   3.561   1.000  0.5247  0.2540  0.1659
 2907SOL    HW1 9661   4.837   3.531   1.083 -0.4273  0.0918  0.5537
 2907SOL    HW2 9662   4.872   3.560   0.938  1.4678  1.2468  1.2161
 2908SOL     OW 9663   3.425   5.097   1.000 -0.4450 -0.2442  0.4693
 2908SOL    HW1 9664   3.343   5.076   1.044  0.1127 -2.0087  0.7393
 2908SOL    HW2 9665   3.470   5.157   1.060 -1.5946  0.9121  0.2222
 2909SOL     OW 9666   1.641   0.483   0.490 -0.0971 -0.5306  0.3576
 2909SOL    HW1 9667   1.721   0.459   0.444 -0.8515 -2.6306 -0.0101
 2909SOL    HW2 9668   1.575   0.491   0.420 -0.4700 -0.0384  0.7565
 2910SOL     OW 9669   3.974   2.640   2.007  0.6730  0.1557 -0.0989
 2910SOL    HW1 9670   4.059   2.650   1.966  0.2846  1.4040 -0.6566
 2910SOL    HW2 9671   3.930   2.572   1.956  0.7793  0.5871 -0.7767
 2911SOL     OW 9672   3.499   4.847   0.373  0.2040  0.1722  0.1254
 2911SOL    HW1 9673   3.439   4.873   0.443 -0.9114 -3.9392  0.9506
 2911SOL    HW2 9674   3.553   4.778   0.412  5.4465  3.2134 -0.6945
 2912SOL     OW 9675   1.799   1.484   6.263  0.5040 -0.0812  0.0587
 2912SOL    HW1 9676   1.873   1.493   6.323  1.0249 -0.2116 -0.5509
 2912SOL    HW2 9677   1.727   1.451   6.318  0.7095  0.6403  0.7839
 2913SOL     OW 9678   1.934   6.857   1.039 -0.2254 -0.3834 -0.3007
 2913SOL    HW1 9679   1.937   6.768   1.004  1.8637  0.3755 -2.2758
 2913SOL    HW2 9680   1.983   6.910   0.976  0.3113  1.8286  1.8066
 2914SOL     OW 9681   2.722   4.284   6.885  0.0003  0.1636  0.1069
 2914SOL    HW1 9682   2.804   4.333   6.890 -0.8364  1.9128 -1.7878
 2914SOL    HW2 9683   2.706   4.274   6.791 -1.4199 -1.0947  0.4519
 2915SOL     OW 9684   6.665   5.711   2.990 -0.4714  0.2238 -0.2320
 2915SOL    HW1 9685   6.728   5.759   2.936  0.2429  1.1765  1.3538
 2915SOL    HW2 9686   6.631   5.777   3.051 -1.2570 -0.7853  0.4555
 2916SOL     OW 9687   4.579   5.859   3.246 -0.9240  0.1920  0.0537
 2916SOL    HW1 9688   4.490   5.836   3.272 -1.3884  0.7501 -1.0009
 2916SOL    HW2 9689   4.586   5.830   3.155  0.8328 -2.1915  0.8294
 2917SOL     OW 9690   4.680   3.325   4.369  0.3705  0.5113  0.2951
 2917SOL    HW1 9691   4.658   3.418   4.366 -0.3972  0.3012 -1.2098
 2917SOL    HW2 9692   4.692   3.306   4.462 -3.0206  1.3142  1.0240
 2918SOL     OW 9693   0.952   4.617   3.918  0.6896 -0.2284  0.5695
 2918SOL    HW1 9694   0.953   4.641   3.826  0.5257  0.7238  0.8130
 2918SOL    HW2 9695   1.032   4.653   3.954  0.3425  0.1480  0.9807
 2919SOL     OW 9696   5.122   2.232   3.783  0.0515 -0.0178  0.0508
 2919SOL    HW1 9697   5.166   2.297   3.838 -1.4147  1.4418 -0.4270
 2919SOL    HW2 9698   5.192   2.174   3.754  1.7028  2.2488 -0.7557
 2920SOL     OW 9699   7.141   5.556   1.847  0.4085 -0.0990  0.6000
 2920SOL    HW1 9700   7.162   5.515   1.931 -0.2712  1.9392  1.8455
 2920SOL    HW2 9701   7.117   5.483   1.790  0.5794 -1.5228  2.2550
 2921SOL     OW 9702   4.633   1.759   3.793  0.0752 -0.0969 -0.1636
 2921SOL    HW1 9703   4.683   1.755   3.874  0.9865  0.0903 -0.7023
 2921SOL    HW2 9704   4.574   1.834   3.804 -0.1027 -0.3278  0.4832
 2922SOL     OW 9705   3.190   3.652   4.455  0.4648 -0.1540  0.2222
 2922SOL    HW1 9706   3.152   3.712   4.519  0.6392  1.1884 -0.8855
 2922SOL    HW2 9707   3.116   3.624   4.401  0.5372 -0.1141  0.1006
 2923SOL     OW 9708   2.861   0.749   3.535  0.0541  0.4077 -0.4959
 2923SOL    HW1 9709   2.791   0.806   3.569 -0.4708 -0.3409 -0.3059
 2923SOL    HW2 9710   2.939   0.804   3.537  0.0625  0.4147  1.8911
 2924SOL     OW 9711   4.393   6.782   1.410 -0.1309  0.4561  0.0901
 2924SOL    HW1 9712   4.405   6.863   1.360 -2.6323  1.0572  0.3015
 2924SOL    HW2 9713   4.341   6.809   1.486 -1.9616 -1.4746 -0.3849
 2925SOL     OW 9714   0.662   6.201   2.724  0.2459 -0.3373 -0.1860
 2925SOL    HW1 9715   0.680   6.124   2.778  1.4270 -0.3336 -0.5646
 2925SOL    HW2 9716   0.678   6.276   2.781 -0.7727 -0.3418  0.1407
 2926SOL     OW 9717   2.039   2.167   6.299  0.0037  0.2992  0.0077
 2926SOL    HW1 9718   2.055   2.084   6.344  1.9521  0.2383 -0.7249
 2926SOL    HW2 9719   2.018   2.141   6.209  0.7559  0.6076 -0.2578
 2927SOL     OW 9720   3.729   4.164   3.516  0.0631 -0.0190 -0.6273
 2927SOL    HW1 9721   3.637   4.190   3.520 -0.2533 -1.0415 -0.7780
 2927SOL    HW2 9722   3.756   4.155   3.608 -0.0601  0.0512 -0.5849
 2928SOL     OW 9723   3.767   6.224   2.542 -0.0819  0.5457  0.4721
 2928SOL    HW1 9724   3.861   6.234   2.531  0.0550 -0.1264  0.9759
 2928SOL    HW2 9725   3.729   6.275   2.471  0.6770  0.1719 -0.2098
 2929SOL     OW 9726   6.706   5.245   0.145 -0.7390  0.3353  0.5385
 2929SOL    HW1 9727   6.674   5.303   0.214 -1.1341  0.6922  0.0562
 2929SOL    HW2 9728   6.798   5.231   0.167 -1.2980 -1.1801  2.2909
 2930SOL     OW 9729   0.965   3.921   5.194  0.3224  0.0736 -0.0546
 2930SOL    HW1 9730   1.034   3.920   5.259 -0.2551 -0.9698  0.5760
 2930SOL    HW2 9731   0.910   3.995   5.217  0.1352 -0.2750  0.6463
 2931SOL     OW 9732   2.756   5.996   5.798  0.5583 -0.1062  0.0504
 2931SOL    HW1 9733   2.672   6.041   5.793  1.2162  1.4201  1.5358
 2931SOL    HW2 9734   2.774   5.991   5.892  2.8705  1.1012 -0.2758
 2932SOL     OW 9735   2.433   0.182   0.264 -0.0159 -0.0730  0.6124
 2932SOL    HW1 9736   2.490   0.198   0.339 -0.2123 -1.2430  1.0193
 2932SOL    HW2 9737   2.399   0.269   0.242  0.6583  0.4023  1.3655
 2933SOL     OW 9738   3.484   2.129   0.316  0.0312  0.5756 -0.4354
 2933SOL    HW1 9739   3.537   2.115   0.394  0.3607  0.0434 -0.7434
 2933SOL    HW2 9740   3.473   2.041   0.278 -0.2604  0.8026 -0.8955
 2934SOL     OW 9741   1.005   3.602   5.764  0.7138 -0.3277  0.2259
 2934SOL    HW1 9742   1.100   3.603   5.754  0.6923  0.5536 -0.0067
 2934SOL    HW2 9743   0.982   3.509   5.771  1.5043 -0.5997 -0.5617
 2935SOL     OW 9744   6.566   1.664   3.751  0.3192  0.3843  0.0078
 2935SOL    HW1 9745   6.581   1.727   3.680  0.9602  0.6683  0.3843
 2935SOL    HW2 9746   6.521   1.591   3.710  0.1383  0.8126 -0.5677
 2936SOL     OW 9747   0.170   4.852   6.422 -0.7178 -0.3211  0.2457
 2936SOL    HW1 9748   0.118   4.921   6.465 -0.8851 -1.3623  1.7918
 2936SOL    HW2 9749   0.239   4.831   6.486  0.4282 -0.3516 -0.9560
 2937SOL     OW 9750   5.906   4.853   4.527  0.2094 -0.1434 -0.6572
 2937SOL    HW1 9751   5.928   4.873   4.436  0.5217 -0.4371 -0.6454
 2937SOL    HW2 9752   5.898   4.939   4.569  1.9164 -0.0188 -0.5244
 2938SOL     OW 9753   0.520   3.540   4.941 -0.0682 -0.4821  0.2611
 2938SOL    HW1 9754   0.593   3.525   4.881 -0.4635 -0.5347 -0.2071
 2938SOL    HW2 9755   0.556   3.600   5.007  0.0577  0.4434 -0.6272
 2939SOL     OW 9756   5.045   4.084   0.392  0.1228 -0.5057 -0.4013
 2939SOL    HW1 9757   4.964   4.103   0.345 -0.8623  0.5519  1.6219
 2939SOL    HW2 9758   5.082   4.170   0.413  1.7886 -0.9635 -1.2285
 2940SOL     OW 9759   0.531   1.778   3.560 -0.1887  0.2479  0.1540
 2940SOL    HW1 9760   0.481   1.859   3.564  0.5755  0.6838  1.4010
 2940SOL    HW2 9761   0.477   1.715   3.608 -0.0329  0.4484  0.5989
 2941SOL     OW 9762   3.905   5.076   2.891  0.0129 -0.2067  0.0602
 2941SOL    HW1 9763   3.922   5.129   2.813  1.9152 -0.3192  0.3458
 2941SOL    HW2 9764   3.819   5.038   2.876 -0.0273  0.4558 -1.5934
 2942SOL     OW 9765   3.603   0.418   1.574  0.0083  0.6463 -0.0288
 2942SOL    HW1 9766   3.694   0.441   1.594 -0.2494  1.0289  0.7451
 2942SOL    HW2 9767   3.609   0.360   1.499  0.9523  0.0431  0.4946
 2943SOL     OW 9768   5.278   4.833   0.512  0.0557 -0.4836 -0.2523
 2943SOL    HW1 9769   5.322   4.899   0.459 -1.4419  1.8658  1.2884
 2943SOL    HW2 9770   5.185   4.849   0.497 -0.3636 -1.0226  1.5771
 2944SOL     OW 9771   4.201   1.459   0.094  0.3045 -0.0542 -0.0742
 2944SOL    HW1 9772   4.269   1.424   0.036  0.7595 -0.5802  0.7656
 2944SOL    HW2 9773   4.135   1.389   0.098 -0.4347  0.5575 -1.0976
 2945SOL     OW 9774   2.489   3.991   0.536  0.0574 -0.3501  0.0956
 2945SOL    HW1 9775   2.504   3.984   0.442 -0.7838 -1.3076  0.0202
 2945SOL    HW2 9776   2.469   4.084   0.550  1.3850  0.0480 -0.4657
 2946SOL     OW 9777   1.722   4.473   4.887  0.6556 -0.8313 -0.2655
 2946SOL    HW1 9778   1.714   4.543   4.951  3.9193 -1.6564  1.2342
 2946SOL    HW2 9779   1.759   4.515   4.810  0.8867 -0.6103 -0.0329
 2947SOL     OW 9780   0.917   3.436   0.304 -0.3387  0.0449  0.4917
 2947SOL    HW1 9781   0.990   3.402   0.356 -0.8319 -1.3159  0.3162
 2947SOL    HW2 9782   0.940   3.528   0.288  0.2958  0.2441  2.2696
 2948SOL     OW 9783   0.798   0.457   3.891 -0.6543 -0.2496  0.0665
 2948SOL    HW1 9784   0.891   0.444   3.911 -0.5790 -0.1518 -0.2102
 2948SOL    HW2 9785   0.782   0.549   3.911 -1.3249 -0.8384  2.5649
 2949SOL     OW 9786   3.103   3.559   7.142 -0.7266  0.2114  0.1095
 2949SOL    HW1 9787   3.075   3.639   7.187  0.4260  0.7339 -0.0809
 2949SOL    HW2 9788   3.037   3.546   7.073 -0.4974  1.4577 -0.3718
 2950SOL     OW 9789   6.978   7.090   0.996 -0.2612  0.2996  0.2493
 2950SOL    HW1 9790   6.897   7.141   0.996 -0.2716  0.2860 -0.2147
 2950SOL    HW2 9791   6.998   7.076   1.088 -2.4431 -2.3643  0.4338
 2951SOL     OW 9792   1.968   1.091   2.087 -0.3089  0.1929  0.2382
 2951SOL    HW1 9793   2.045   1.147   2.095  0.5471 -1.0492  1.1334
 2951SOL    HW2 9794   1.940   1.102   1.997  0.2186  1.5517  0.2172
 2952SOL     OW 9795   6.863   0.705   5.732 -0.0026 -0.3694 -0.8334
 2952SOL    HW1 9796   6.841   0.769   5.799  0.1845  0.3117 -1.4191
 2952SOL    HW2 9797   6.957   0.690   5.743  0.0329 -0.2380 -0.9645
 2953SOL     OW 9798   0.751   2.830   2.179  0.2698 -0.3370 -0.7194
 2953SOL    HW1 9799   0.693   2.872   2.116 -0.9042  2.0623  1.7346
 2953SOL    HW2 9800   0.814   2.898   2.202  0.4187 -0.9845  0.9129
 2954SOL     OW 9801   1.964   4.774   5.488 -0.6560 -1.0823  1.2703
 2954SOL    HW1 9802   1.942   4.867   5.480 -0.4223 -1.0183  1.3594
 2954SOL    HW2 9803   2.059   4.773   5.497 -0.5036 -1.4274 -0.2141
 2955SOL     OW 9804   6.201   3.687   7.315 -0.1884 -0.2288  0.3640
 2955SOL    HW1 9805   6.188   3.754   7.383 -2.2782 -0.7201  0.5157
 2955SOL    HW2 9806   6.116   3.642   7.309  0.5683 -1.5546 -1.1410
 2956SOL     OW 9807   2.298   1.334   6.809  0.5406 -0.0731 -0.0521
 2956SOL    HW1 9808   2.378   1.329   6.756 -0.6006  1.2389 -1.9965
 2956SOL    HW2 9809   2.227   1.312   6.749 -0.6878 -0.2735  1.4000
 2957SOL     OW 9810   4.666   1.840   5.449 -0.4179  0.3264 -0.4282
 2957SOL    HW1 9811   4.718   1.762   5.468 -1.3264 -0.4279 -0.9393
 2957SOL    HW2 9812   4.731   1.907   5.428  0.3935 -0.1966  0.3226
 2958SOL     OW 9813   6.588   6.628   5.643 -0.0514 -0.0420  0.4615
 2958SOL    HW1 9814   6.594   6.696   5.710  2.4143  1.1157 -0.8199
 2958SOL    HW2 9815   6.544   6.670   5.569  0.8287 -0.0274 -0.0698
 2959SOL     OW 9816   3.723   0.673   7.224 -0.1555 -0.2790  0.7837
 2959SOL    HW1 9817   3.644   0.647   7.271 -2.1154  0.3917 -1.9480
 2959SOL    HW2 9818   3.775   0.593   7.219 -1.3705 -1.1276  1.2576
 2960SOL     OW 9819   7.396   4.861   3.929 -0.4849 -0.0267  0.1766
 2960SOL    HW1 9820   7.388   4.825   4.018 -0.2916 -0.1647  0.1408
 2960SOL    HW2 9821   7.358   4.793   3.873  1.3305 -0.9286 -0.0425
 2961SOL     OW 9822   5.834   2.663   0.769 -0.1382 -0.7773  0.4297
 2961SOL    HW1 9823   5.772   2.702   0.708 -0.3971  0.4530  1.4165
 2961SOL    HW2 9824   5.910   2.641   0.716 -0.3701  0.2185 -0.3421
 2962SOL     OW 9825   0.341   0.270   4.933  0.2462 -0.0747  0.7486
 2962SOL    HW1 9826   0.366   0.361   4.943  0.7693 -0.0265 -0.7686
 2962SOL    HW2 9827   0.246   0.270   4.945 -0.1049  1.0797 -1.6054
 2963SOL     OW 9828   3.816   3.990   4.521  0.3068  0.1459  0.0696
 2963SOL    HW1 9829   3.889   4.040   4.559  1.3210 -0.5922 -0.8519
 2963SOL    HW2 9830   3.794   4.038   4.441  0.9318 -0.5626 -0.5413
 2964SOL     OW 9831   7.270   4.811   5.911  0.3267 -0.1018 -0.1079
 2964SOL    HW1 9832   7.298   4.837   5.823  0.9807 -0.7712 -0.1131
 2964SOL    HW2 9833   7.198   4.870   5.932  1.6532  1.5977 -0.1752
 2965SOL     OW 9834   4.599   0.324   4.352 -0.0149  0.2004 -0.1629
 2965SOL    HW1 9835   4.562   0.354   4.435  2.3099 -0.4215  1.1828
 2965SOL    HW2 9836   4.634   0.403   4.311  1.5226  0.1407  0.9402
 2966SOL     OW 9837   2.287   4.640   1.485  0.2464  0.4795 -0.8027
 2966SOL    HW1 9838   2.218   4.657   1.549  0.2805 -1.1560 -0.2840
 2966SOL    HW2 9839   2.365   4.680   1.523 -0.1418  1.2575 -0.7992
 2967SOL     OW 9840   5.472   3.863   2.334 -0.1665  0.2486 -0.1973
 2967SOL    HW1 9841   5.491   3.947   2.294 -0.0656 -0.3679 -1.4892
 2967SOL    HW2 9842   5.379   3.868   2.358 -0.4467  0.3464 -1.2574
 2968SOL     OW 9843   4.208   3.541   1.074  0.1601  0.2922  0.0937
 2968SOL    HW1 9844   4.223   3.508   1.163  1.5991  1.1474  0.2167
 2968SOL    HW2 9845   4.255   3.480   1.017 -1.9344 -1.0636 -0.2553
 2969SOL     OW 9846   4.177   3.885   4.511  0.0603  0.1301  0.2159
 2969SOL    HW1 9847   4.267   3.916   4.520  1.0174 -1.6750 -1.9663
 2969SOL    HW2 9848   4.168   3.819   4.579  1.3411 -1.4437 -1.0342
 2970SOL     OW 9849   5.080   2.382   0.078  0.0010 -0.1382 -0.6965
 2970SOL    HW1 9850   5.067   2.475   0.059  0.9026  0.2771  0.5669
 2970SOL    HW2 9851   5.000   2.356   0.125 -0.8111 -0.3473 -2.1572
 2971SOL     OW 9852   3.094   0.604   4.335 -0.3322  0.8977 -0.3507
 2971SOL    HW1 9853   3.089   0.653   4.416 -0.3022  0.7176 -0.2399
 2971SOL    HW2 9854   3.054   0.661   4.269  1.3365  1.8408 -0.6000
 2972SOL     OW 9855   1.172   5.146   1.323  0.2047  0.2086  0.4758
 2972SOL    HW1 9856   1.102   5.211   1.316 -0.4008 -0.5624 -1.1484
 2972SOL    HW2 9857   1.199   5.130   1.233  1.0445 -1.0610  0.9249
 2973SOL     OW 9858   4.275   3.517   4.541  0.0012  0.3688 -0.1000
 2973SOL    HW1 9859   4.259   3.445   4.603  0.9489 -0.3256 -0.6351
 2973SOL    HW2 9860   4.248   3.596   4.589 -0.1686 -0.2428  0.8513
 2974SOL     OW 9861   3.886   4.764   6.557  0.5757 -0.0034 -0.4647
 2974SOL    HW1 9862   3.881   4.687   6.615  0.2126  1.0667  0.9948
 2974SOL    HW2 9863   3.977   4.766   6.528  1.0014 -0.1060  0.7752
 2975SOL     OW 9864   6.917   7.081   5.320  0.0416 -0.1187 -0.0163
 2975SOL    HW1 9865   6.994   7.088   5.377  1.3800 -3.0771 -1.2326
 2975SOL    HW2 9866   6.854   7.030   5.371 -0.9276  1.7155  0.7131
 2976SOL     OW 9867   6.368   4.073   6.059 -0.6669 -0.0088  0.0524
 2976SOL    HW1 9868   6.310   4.125   6.114  0.6957 -0.1920  1.7795
 2976SOL    HW2 9869   6.317   3.996   6.036 -1.0589 -0.3098  1.7830
 2977SOL     OW 9870   2.272   6.207   2.079 -0.0772  0.6304 -0.2472
 2977SOL    HW1 9871   2.193   6.167   2.115  1.2430  0.4323  2.6953
 2977SOL    HW2 9872   2.302   6.145   2.012 -0.4877 -1.1266  1.1190
 2978SOL     OW 9873   2.684   2.695   0.605 -0.4583  0.6819  0.1685
 2978SOL    HW1 9874   2.712   2.729   0.520 -0.1262  1.6067  0.6345
 2978SOL    HW2 9875   2.753   2.722   0.666 -1.0442  0.6444  0.8591
 2979SOL     OW 9876   0.716   1.798   0.266  0.4245 -0.0366  0.2439
 2979SOL    HW1 9877   0.649   1.837   0.323  0.4160  0.5789 -0.1774
 2979SOL    HW2 9878   0.691   1.825   0.178  1.6781  0.9027  0.1479
 2980SOL     OW 9879   7.199   5.664   0.217  0.3358  0.1409  0.5639
 2980SOL    HW1 9880   7.131   5.670   0.151  0.8441  0.1508  0.0298
 2980SOL    HW2 9881   7.170   5.594   0.276  0.2407 -0.3802 -0.0933
 2981SOL     OW 9882   6.817   2.286   4.536  0.1307  0.0579  0.0175
 2981SOL    HW1 9883   6.844   2.294   4.445 -3.0109  0.8609 -0.9345
 2981SOL    HW2 9884   6.821   2.192   4.554  1.3292 -0.0549 -0.7096
 2982SOL     OW 9885   7.064   2.573   7.302  0.4164  0.2585 -0.3433
 2982SOL    HW1 9886   6.973   2.557   7.326  0.5143 -0.7201 -0.6042
 2982SOL    HW2 9887   7.060   2.607   7.213  0.4659 -3.5824 -2.0089
 2983SOL     OW 9888   6.130   2.438   2.380 -0.0716 -0.0092  0.3743
 2983SOL    HW1 9889   6.184   2.397   2.448  2.2794  0.4925 -1.0906
 2983SOL    HW2 9890   6.178   2.517   2.356 -2.4650  1.5142  0.2843
 2984SOL     OW 9891   5.805   0.323   4.566 -0.3180 -0.7594 -0.8128
 2984SOL    HW1 9892   5.860   0.384   4.516 -0.5153  1.7883  1.8161
 2984SOL    HW2 9893   5.731   0.304   4.508 -0.4803  1.9209 -1.6168
 2985SOL     OW 9894   4.826   4.095   6.017 -0.5402  0.0973  0.5663
 2985SOL    HW1 9895   4.803   4.124   5.929  0.9311 -3.7003 -1.2738
 2985SOL    HW2 9896   4.745   4.103   6.067 -2.3968 -0.8947 -2.0989
 2986SOL     OW 9897   1.735   4.724   1.157 -0.1503 -0.0598  0.1556
 2986SOL    HW1 9898   1.792   4.649   1.172  1.2603  0.6016 -1.5268
 2986SOL    HW2 9899   1.794   4.800   1.154 -0.7177  0.4505 -3.3158
 2987SOL     OW 9900   2.890   7.042   2.076  0.1325 -0.0127 -0.2966
 2987SOL    HW1 9901   2.824   7.092   2.028  0.5928  0.3651 -0.5592
 2987SOL    HW2 9902   2.841   6.983   2.132 -0.4233  0.2472 -0.5044
 2988SOL     OW 9903   2.885   5.245   4.249  0.0268  0.3734  0.4037
 2988SOL    HW1 9904   2.908   5.193   4.325 -0.0815 -0.7838 -0.3374
 2988SOL    HW2 9905   2.929   5.202   4.176 -1.9260 -0.0583 -0.5755
 2989SOL     OW 9906   3.265   5.601   0.822 -0.6206 -0.0114 -0.7787
 2989SOL    HW1 9907   3.253   5.506   0.816 -0.4912  0.0369 -2.3378
 2989SOL    HW2 9908   3.247   5.623   0.913 -1.2507 -1.4514 -0.5435
 2990SOL     OW 9909   2.179   0.464   2.879  0.2226  0.0078  0.1926
 2990SOL    HW1 9910   2.099   0.488   2.832 -0.3121 -1.3966  0.3320
 2990SOL    HW2 9911   2.223   0.401   2.821  1.6564  1.3605 -0.2444
 2991SOL     OW 9912   3.086   6.460   4.092 -0.3256 -0.1584 -0.4349
 2991SOL    HW1 9913   3.161   6.517   4.108 -0.5299 -0.0189  0.0256
 2991SOL    HW2 9914   3.013   6.520   4.079 -0.4395 -0.3045 -0.4690
 2992SOL     OW 9915   3.740   5.577   7.084  0.2583  0.3387 -0.4603
 2992SOL    HW1 9916   3.797   5.510   7.120  0.4822  1.8244  2.2528
 2992SOL    HW2 9917   3.652   5.552   7.113  0.0627  0.1824 -1.1688
 2993SOL     OW 9918   4.144   6.352   4.323  0.2403 -0.3581  0.0265
 2993SOL    HW1 9919   4.164   6.443   4.341 -0.4612 -0.4202  1.2364
 2993SOL    HW2 9920   4.140   6.311   4.410 -2.0453 -0.9593 -0.3086
 2994SOL     OW 9921   2.243   4.325   6.842  0.6225 -0.3420 -0.6905
 2994SOL    HW1 9922   2.289   4.336   6.759  1.0461  1.4536 -0.2524
 2994SOL    HW2 9923   2.311   4.333   6.909  0.0397 -0.1375 -0.1120
 2995SOL     OW 9924   1.032   1.240   3.812 -0.1279  0.1877  0.5116
 2995SOL    HW1 9925   1.082   1.159   3.823 -0.7231 -0.2791 -0.1524
 2995SOL    HW2 9926   1.093   1.300   3.768  0.6029  0.4104  1.7850
 2996SOL     OW 9927   6.473   5.918   4.902 -0.3316  0.0023 -0.3204
 2996SOL    HW1 9928   6.562   5.883   4.900  0.1263  1.1224  0.1435
 2996SOL    HW2 9929   6.469   5.971   4.981 -2.0182 -1.5537  0.7202
 2997SOL     OW 9930   2.893   5.595   0.447  0.5016 -0.0105  0.2334
 2997SOL    HW1 9931   2.842   5.598   0.366  1.5981  1.9977 -0.4585
 2997SOL    HW2 9932   2.962   5.660   0.434  0.6228  0.4961  2.8537
 2998SOL     OW 9933   4.557   4.933   5.856  0.4982 -0.4500  0.1293
 2998SOL    HW1 9934   4.637   4.974   5.823 -0.5755  0.8043 -1.0590
 2998SOL    HW2 9935   4.554   4.847   5.815  1.0309 -0.3428 -0.1361
 2999SOL     OW 9936   1.613   4.282   6.994  0.1574  0.0690  0.6470
 2999SOL    HW1 9937   1.639   4.190   6.994  0.0730  0.0223 -0.8152
 2999SOL    HW2 9938   1.695   4.330   7.009  0.5570 -0.1977 -0.5545
 3000SOL     OW 9939   2.783   7.128   0.503  0.0006 -0.1786  0.3312
 3000SOL    HW1 9940   2.799   7.216   0.471 -0.3616 -0.6234 -1.1565
 3000SOL    HW2 9941   2.723   7.140   0.577  1.0235  0.8983  1.0037
 3001SOL     OW 9942   6.816   2.455   0.130 -0.3588  0.3010 -0.0306
 3001SOL    HW1 9943   6.860   2.533   0.097  1.3194 -0.5974 -0.0066
 3001SOL    HW2 9944   6.830   2.389   0.063 -2.1980  0.1044 -0.2885
 3002SOL     OW 9945   2.300   3.014   5.082  0.4833 -0.1170 -0.3375
 3002SOL    HW1 9946   2.348   2.957   5.022  0.1075 -0.5452 -0.2398
 3002SOL    HW2 9947   2.366   3.047   5.143  0.8070  0.0407 -0.7730
 3003SOL     OW 9948   0.358   4.236   1.623 -0.7221  0.0041  0.2380
 3003SOL    HW1 9949   0.292   4.302   1.642 -1.3161 -0.6752  0.5428
 3003SOL    HW2 9950   0.408   4.228   1.704 -1.6839 -1.0935  0.7367
 3004SOL     OW 9951   2.038   6.723   4.180  0.0578 -0.0907 -0.4384
 3004SOL    HW1 9952   1.954   6.716   4.135 -0.1409 -0.8548  0.0291
 3004SOL    HW2 9953   2.091   6.780   4.124 -1.1285  1.3128 -0.1831
 3005SOL     OW 9954   0.437   3.561   3.633 -0.9258  0.1711 -0.0981
 3005SOL    HW1 9955   0.448   3.469   3.610 -1.4078 -0.1095  0.7656
 3005SOL    HW2 9956   0.522   3.601   3.615 -0.4876 -0.5939  0.2520
 3006SOL     OW 9957   2.882   1.051   1.440 -0.4490 -0.1241  0.1770
 3006SOL    HW1 9958   2.957   0.993   1.433  0.9750  1.8471 -2.0986
 3006SOL    HW2 9959   2.820   1.020   1.374 -0.2424  0.1716 -0.1565
 3007SOL     OW 9960   6.620   7.322   7.192  0.1387 -0.1288  0.1669
 3007SOL    HW1 9961   6.548   7.382   7.172  0.0680 -0.1818  0.2641
 3007SOL    HW2 9962   6.662   7.307   7.107  1.0089  1.1471  0.3390
 3008SOL     OW 9963   2.348   1.499   1.933 -0.4641 -0.1737 -0.9692
 3008SOL    HW1 9964   2.341   1.476   2.026  0.3211 -0.7508 -1.0481
 3008SOL    HW2 9965   2.432   1.463   1.905 -0.4512  0.4576 -1.7797
 3009SOL     OW 9966   0.897   0.486   5.332  0.0187  0.1639 -0.4500
 3009SOL    HW1 9967   0.984   0.465   5.299  1.3594  0.9055  2.3418
 3009SOL    HW2 9968   0.910   0.560   5.391 -1.9526 -1.4737  2.3099
 3010SOL     OW 9969   6.278   4.668   3.620  0.3986  0.1815 -0.6202
 3010SOL    HW1 9970   6.331   4.613   3.562  0.5625 -0.5352  0.1966
 3010SOL    HW2 9971   6.191   4.669   3.579  1.2875  2.4920 -2.7380
 3011SOL     OW 9972   6.576   1.271   3.911 -0.4389 -0.2459  0.6661
 3011SOL    HW1 9973   6.588   1.231   3.825 -0.8469 -1.4795  1.1665
 3011SOL    HW2 9974   6.522   1.348   3.895  1.3243  0.8404 -0.4870
 3012SOL     OW 9975   3.587   5.627   6.842 -0.2578 -0.3082  0.4120
 3012SOL    HW1 9976   3.601   5.579   6.924  1.4519 -1.1264 -0.3093
 3012SOL    HW2 9977   3.540   5.706   6.869 -0.5676 -0.9875  2.0412
 3013SOL     OW 9978   4.271   6.058   2.518 -0.1594 -0.3269 -0.4077
 3013SOL    HW1 9979   4.347   6.116   2.511  0.7332 -1.5463 -1.0617
 3013SOL    HW2 9980   4.209   6.107   2.572  0.7707  1.0182 -0.5106
 3014SOL     OW 9981   1.358   0.314   5.308  0.8052  0.6127 -0.5077
 3014SOL    HW1 9982   1.292   0.250   5.333  1.4183  0.7636  1.7312
 3014SOL    HW2 9983   1.402   0.275   5.232 -0.7716 -0.1997 -1.0560
 3015SOL     OW 9984   1.181   1.796   3.890 -0.5495 -0.3800  0.8778
 3015SOL    HW1 9985   1.137   1.880   3.878  1.3727  0.5070 -0.5938
 3015SOL    HW2 9986   1.268   1.820   3.923  0.0253 -1.7818  0.4509
 3016SOL     OW 9987   3.209   0.917   2.087 -0.1096  0.2506  0.1784
 3016SOL    HW1 9988   3.252   0.999   2.112  0.2326 -0.1785  1.0510
 3016SOL    HW2 9989   3.165   0.888   2.167  0.7815 -1.0306  0.2383
 3017SOL     OW 9990   1.701   7.395   0.077  0.1092 -0.2753  0.0810
 3017SOL    HW1 9991   1.740   7.481   0.057 -1.9127  0.4525 -1.0290
 3017SOL    HW2 9992   1.710   7.345  -0.004 -1.3076 -0.0508 -0.2343
 3018SOL     OW 9993   5.934   1.284   2.816 -0.1794 -0.0736 -0.2125
 3018SOL    HW1 9994   5.915   1.230   2.739 -2.5801 -1.8141  1.4342
 3018SOL    HW2 9995   5.849   1.323   2.839  0.7673  1.5085  0.7803
 3019SOL     OW 9996   4.638   2.535   1.568 -0.2695 -0.4025 -0.2297
 3019SOL    HW1 9997   4.635   2.585   1.649 -0.1177 -1.1962  0.2806
 3019SOL    HW2 9998   4.553   2.491   1.564 -0.8431  0.7418 -1.2421
 3020SOL     OW 9999   0.177   5.732   4.130  0.5263  0.0541 -0.0667
 3020SOL    HW110000   0.242   5.706   4.064 -0.9219 -0.7074 -1.2482
 3020SOL    HW210001   0.165   5.653   4.183  0.2233  0.0480 -0.1472
 3021SOL     OW10002   1.907   5.862   3.635 -0.0130 -0.1653 -0.0148
 3021SOL    HW110003   1.877   5.950   3.660  1.2705  0.1051  0.6250
 3021SOL    HW210004   1.981   5.844   3.693 -0.7718 -2.0277  0.4517
 3022SOL     OW10005   0.774   1.072   0.614 -0.2473 -0.0404  0.1326
 3022SOL    HW110006   0.740   1.021   0.541 -1.0172  0.1058  0.3757
 3022SOL    HW210007   0.722   1.153   0.612 -1.2428 -0.6010  1.6567
 3023SOL     OW10008   1.386   6.797   4.110  0.0465 -0.7028  0.0470
 3023SOL    HW110009   1.434   6.755   4.038  0.5871  1.4756 -0.9432
 3023SOL    HW210010   1.311   6.838   4.067  0.4449  0.7453  0.6793
 3024SOL     OW10011   5.209   1.377   3.981  0.6575  0.2573 -0.0120
 3024SOL    HW110012   5.245   1.419   4.059 -0.8943 -0.5788  1.2191
 3024SOL    HW210013   5.255   1.293   3.975  1.3004  0.6353 -0.4437
 3025SOL     OW10014   3.460   7.204   2.485 -0.1570  0.4740  0.2559
 3025SOL    HW110015   3.432   7.121   2.525 -0.3243  0.2495 -0.3095
 3025SOL    HW210016   3.463   7.185   2.391 -0.0705  1.0762  0.1329
 3026SOL     OW10017   2.359   4.469   6.085 -0.2287  0.4751 -0.7359
 3026SOL    HW110018   2.450   4.498   6.077 -0.4010  0.6724 -2.0629
 3026SOL    HW210019   2.307   4.549   6.078 -0.5332  0.3328 -0.2262
 3027SOL     OW10020   7.015   6.427   5.039  0.2959 -0.1305 -0.4514
 3027SOL    HW110021   7.101   6.395   5.066  0.7624 -0.2477 -2.0177
 3027SOL    HW210022   6.975   6.353   4.994 -1.4613 -0.7407  1.8954
 3028SOL     OW10023   5.433   4.426   2.938 -0.1071 -0.6750 -0.0787
 3028SOL    HW110024   5.365   4.493   2.932  0.3465 -0.2511 -0.5042
 3028SOL    HW210025   5.513   4.474   2.957  0.2604 -1.0785 -0.5932
 3029SOL     OW10026   1.654   5.463   6.342  0.0421 -0.1516  0.5069
 3029SOL    HW110027   1.622   5.395   6.400 -1.4226  0.6861  0.7609
 3029SOL    HW210028   1.700   5.524   6.399  2.1322 -1.3158  0.1527
 3030SOL     OW10029   0.908   6.290   1.094 -0.4856 -0.5690  0.6688
 3030SOL    HW110030   0.894   6.378   1.059 -1.4718 -0.9890 -0.0319
 3030SOL    HW210031   0.835   6.238   1.059 -0.0398 -1.6155  1.2458
 3031SOL     OW10032   6.811   5.673   6.820  0.1801  0.1666  0.4425
 3031SOL    HW110033   6.730   5.722   6.836  0.9804  0.4631  5.2722
 3031SOL    HW210034   6.790   5.583   6.844  0.8123 -0.1885 -0.2756
 3032SOL     OW10035   0.416   1.772   6.816 -0.7329 -0.2697 -0.7258
 3032SOL    HW110036   0.405   1.814   6.731 -1.7647 -0.9333 -0.9438
 3032SOL    HW210037   0.450   1.685   6.796 -1.0109 -0.4400 -0.4770
 3033SOL     OW10038   6.417   3.350   7.252 -0.2478 -0.2634  0.2835
 3033SOL    HW110039   6.344   3.305   7.209  0.1150 -0.3856 -0.2119
 3033SOL    HW210040   6.466   3.281   7.297 -1.0297 -0.0497  1.5253
 3034SOL     OW10041   6.150   4.865   3.342 -0.0149  0.4849  0.3390
 3034SOL    HW110042   6.234   4.896   3.376 -0.0019 -0.4719  1.2165
 3034SOL    HW210043   6.086   4.927   3.377  0.0827 -0.0575  1.5447
 3035SOL     OW10044   3.184   0.045   1.664 -0.1570 -0.0228 -0.2942
 3035SOL    HW110045   3.222  -0.002   1.738 -0.0435  2.0344  1.0335
 3035SOL    HW210046   3.256   0.053   1.601  0.1349 -0.5719 -0.0397
 3036SOL     OW10047   0.311   5.065   3.754 -0.6169  0.2998  0.0600
 3036SOL    HW110048   0.318   5.105   3.667 -0.6993  0.5098  0.1491
 3036SOL    HW210049   0.348   4.977   3.743  0.5984  0.7848  0.1247
 3037SOL     OW10050   3.200   3.085   0.018 -0.0692  0.1659  0.0816
 3037SOL    HW110051   3.287   3.123   0.024 -0.4194  1.4216 -1.9327
 3037SOL    HW210052   3.142   3.152   0.054 -0.1177 -1.5734  3.6556
 3038SOL     OW10053   0.409   0.630   6.397 -0.1057 -0.2798  0.3558
 3038SOL    HW110054   0.459   0.582   6.331 -0.7512 -0.5647  0.0648
 3038SOL    HW210055   0.329   0.656   6.352 -0.0773  0.4700  0.7181
 3039SOL     OW10056   1.779   5.214   0.740  0.2294  0.5783 -0.3831
 3039SOL    HW110057   1.685   5.198   0.754  0.2214  0.4276 -0.6096
 3039SOL    HW210058   1.820   5.190   0.823  0.2318 -0.6971 -0.7373
 3040SOL     OW10059   4.947   2.006   2.640  0.8365  0.3248  0.1926
 3040SOL    HW110060   5.029   1.959   2.654  1.5934  1.6191  0.2927
 3040SOL    HW210061   4.971   2.081   2.586  0.2457  2.1100  2.2467
 3041SOL     OW10062   6.784   3.350   5.824  0.6968  0.5850 -0.4786
 3041SOL    HW110063   6.787   3.421   5.888 -1.3295 -0.7777  1.3016
 3041SOL    HW210064   6.826   3.276   5.869  0.1807 -0.1186 -1.1233
 3042SOL     OW10065   5.930   3.270   6.826  0.8473 -0.3154 -0.1423
 3042SOL    HW110066   5.915   3.363   6.841  0.6304  0.2885 -3.3399
 3042SOL    HW210067   6.026   3.261   6.828  0.8811  0.0374 -0.0958
 3043SOL     OW10068   6.693   5.140   4.589  0.4039 -0.5355 -0.2819
 3043SOL    HW110069   6.627   5.146   4.658 -0.2729 -0.0685 -0.9553
 3043SOL    HW210070   6.756   5.075   4.621  0.1145 -0.3092  0.7752
 3044SOL     OW10071   0.895   3.721   4.638 -0.1508 -0.6800 -0.3403
 3044SOL    HW110072   0.987   3.694   4.637  0.4826  1.0942 -3.4195
 3044SOL    HW210073   0.888   3.781   4.712  1.6313  0.3082 -0.8942
 3045SOL     OW10074   2.546   6.212   4.755  0.2945  0.9204 -0.0915
 3045SOL    HW110075   2.611   6.263   4.803  0.0499  2.2672 -1.1351
 3045SOL    HW210076   2.597   6.153   4.700  0.5790 -0.0033  1.1264
 3046SOL     OW10077   1.368   6.594   7.235 -0.3032  0.2940 -0.1702
 3046SOL    HW110078   1.376   6.674   7.184 -0.3380  0.8227  0.6350
 3046SOL    HW210079   1.398   6.524   7.176 -0.5820  0.8535 -0.9846
 3047SOL     OW10080   1.144   6.043   2.283 -0.2436  0.3671  0.3788
 3047SOL    HW110081   1.206   6.116   2.277 -0.5371  0.6842  1.0872
 3047SOL    HW210082   1.147   6.016   2.374 -1.0735  0.3287  0.4061
 3048SOL     OW10083   4.648   3.178   3.518  0.7633  0.2329 -0.9215
 3048SOL    HW110084   4.643   3.264   3.560 -2.7528 -0.3472  0.2339
 3048SOL    HW210085   4.573   3.177   3.458  1.3770 -1.6420 -1.7109
 3049SOL     OW10086   2.131   4.751   2.751 -0.1268  0.0905 -0.2052
 3049SOL    HW110087   2.194   4.703   2.806 -1.4882 -1.9254 -0.2998
 3049SOL    HW210088   2.158   4.842   2.758 -0.3824  0.0396  4.1184
 3050SOL     OW10089   5.521   2.702   1.918  0.1889  0.0855 -0.2945
 3050SOL    HW110090   5.504   2.639   1.987  1.7976  1.2022  1.2074
 3050SOL    HW210091   5.575   2.769   1.959 -0.3964  1.8108 -2.1392
 3051SOL     OW10092   2.693   6.972   3.117 -0.0576  0.0557  0.7026
 3051SOL    HW110093   2.750   6.983   3.042  1.0764  1.5202  1.7328
 3051SOL    HW210094   2.722   6.890   3.158 -1.3112 -1.2785 -0.9074
 3052SOL     OW10095   1.060   2.660   4.179 -0.1609 -0.5475  0.0213
 3052SOL    HW110096   0.978   2.636   4.136 -0.6607  0.4299  0.3898
 3052SOL    HW210097   1.102   2.576   4.198 -0.5904 -1.0397 -1.0732
 3053SOL     OW10098   7.145   3.495   2.571  0.5573  0.0155 -0.5992
 3053SOL    HW110099   7.218   3.436   2.587  1.9681  1.5638 -1.1366
 3053SOL    HW210100   7.184   3.583   2.570 -1.6248  1.1315  1.4213
 3054SOL     OW10101   0.852   3.136   3.410 -0.8213  0.7897 -0.0508
 3054SOL    HW110102   0.943   3.110   3.397 -0.5563  0.5340  2.0122
 3054SOL    HW210103   0.812   3.125   3.324  0.8679  0.0283 -0.7940
 3055SOL     OW10104   6.905   4.355   5.357  0.1524  0.0161  0.0081
 3055SOL    HW110105   6.812   4.354   5.334 -0.3663 -1.3188  1.9750
 3055SOL    HW210106   6.947   4.306   5.286 -0.3977  1.6420 -1.5422
 3056SOL     OW10107   5.227   6.784   5.549  0.5780  0.3094 -0.1168
 3056SOL    HW110108   5.231   6.692   5.522 -1.3375 -0.3307  1.5377
 3056SOL    HW210109   5.190   6.830   5.474 -0.0594 -0.5707 -0.3494
 3057SOL     OW10110   1.053   6.575   6.976  0.0432  0.7866  0.1369
 3057SOL    HW110111   0.963   6.550   6.956  0.1217 -0.4798  1.2427
 3057SOL    HW210112   1.106   6.504   6.940  0.5707  1.2444 -0.0096
 3058SOL     OW10113   0.210   0.182   6.009 -0.3996 -0.6780 -0.0796
 3058SOL    HW110114   0.254   0.139   5.935 -0.5215 -0.3888 -0.3208
 3058SOL    HW210115   0.198   0.112   6.073  0.0757 -0.8450 -0.1651
 3059SOL     OW10116   2.482   3.881   0.232 -0.1770  0.5244 -0.2371
 3059SOL    HW110117   2.389   3.857   0.231 -0.1400  0.3202 -1.5032
 3059SOL    HW210118   2.524   3.814   0.178  0.6597  0.7794  0.0915
 3060SOL     OW10119   1.249   0.508   7.301  0.8504  0.5580 -0.7082
 3060SOL    HW110120   1.291   0.573   7.244  1.3563 -0.4625 -1.5592
 3060SOL    HW210121   1.283   0.424   7.269 -1.3707 -0.2828 -1.0286
 3061SOL     OW10122   7.202   5.756   1.206  0.0074 -0.1002 -0.2183
 3061SOL    HW110123   7.212   5.720   1.294 -0.4409 -1.6232 -0.7489
 3061SOL    HW210124   7.284   5.803   1.189 -0.2516  0.9576  1.3168
 3062SOL     OW10125   1.379   0.678   3.134  0.3815  0.1596 -0.5096
 3062SOL    HW110126   1.439   0.636   3.074 -0.4143  0.0363 -1.2311
 3062SOL    HW210127   1.361   0.764   3.095 -0.8718 -0.2868 -0.9515
 3063SOL     OW10128   7.393   4.897   0.962  0.3771  0.3347 -0.2223
 3063SOL    HW110129   7.390   4.981   1.008  1.6598  0.7808 -0.8888
 3063SOL    HW210130   7.486   4.881   0.947  0.0877 -0.6476 -1.1186
 3064SOL     OW10131   3.031   2.084   5.209  0.0366  0.1831  0.2404
 3064SOL    HW110132   3.085   2.036   5.271  1.2852  0.7049 -0.4080
 3064SOL    HW210133   2.966   2.129   5.264 -0.1583 -0.9620  0.9753
 3065SOL     OW10134   1.583   0.666   0.981 -0.3998 -0.0001 -0.7509
 3065SOL    HW110135   1.553   0.751   1.012 -0.2308  0.2978 -1.3776
 3065SOL    HW210136   1.574   0.671   0.886 -1.7229 -1.1902 -0.7160
 3066SOL     OW10137   4.143   3.421   6.095 -0.2105 -0.1202  0.3243
 3066SOL    HW110138   4.065   3.386   6.052 -0.2675  0.1973  0.1648
 3066SOL    HW210139   4.115   3.506   6.131 -0.0342 -0.1638  0.5704
 3067SOL     OW10140   0.536   0.618   2.608 -0.8776 -0.0936  0.2326
 3067SOL    HW110141   0.558   0.598   2.516 -1.3008 -0.3200  0.1756
 3067SOL    HW210142   0.499   0.706   2.605 -2.5192 -0.7437 -0.0950
 3068SOL     OW10143   5.215   6.123   2.712 -0.7924  0.2548  0.4463
 3068SOL    HW110144   5.217   6.028   2.720  1.2877  0.3329  1.6338
 3068SOL    HW210145   5.253   6.140   2.626 -1.3523  0.0275  0.1466
 3069SOL     OW10146   2.583   0.968   2.069 -0.3413  0.1636  0.0114
 3069SOL    HW110147   2.528   1.045   2.051  0.2553  0.3344 -1.2015
 3069SOL    HW210148   2.570   0.951   2.162  0.4413  2.4933  0.6357
 3070SOL     OW10149   4.676   3.081   0.144  0.2783  0.4091 -0.0120
 3070SOL    HW110150   4.722   3.148   0.195 -0.7713  0.3727  1.0175
 3070SOL    HW210151   4.636   3.129   0.071  2.0034  0.4216 -1.0038
 3071SOL     OW10152   6.049   0.174   5.837  0.2043  0.3574 -0.5025
 3071SOL    HW110153   5.988   0.248   5.837 -1.3223 -0.8400  0.4581
 3071SOL    HW210154   6.098   0.184   5.918  0.9531  1.0311 -1.0221
 3072SOL     OW10155   0.545   6.571   0.131 -0.0530  0.2774 -0.3785
 3072SOL    HW110156   0.635   6.539   0.133  0.4288  1.3720 -2.1591
 3072SOL    HW210157   0.540   6.632   0.205  0.3954 -0.3831  0.2184
 3073SOL     OW10158   3.855   6.225   0.332  0.2350 -0.2651  0.0249
 3073SOL    HW110159   3.762   6.201   0.327 -0.1984  1.5044 -1.5117
 3073SOL    HW210160   3.900   6.159   0.280 -0.5055  0.2300 -1.2998
 3074SOL     OW10161   3.012   5.202   3.289 -0.4820 -0.3983 -0.0935
 3074SOL    HW110162   3.085   5.245   3.333 -1.2630  0.0798  0.7556
 3074SOL    HW210163   3.053   5.154   3.217  0.4536  1.4454 -0.8513
 3075SOL     OW10164   3.370   3.562   4.988  0.0601 -0.4494  0.7956
 3075SOL    HW110165   3.354   3.645   4.942 -0.2564 -0.1913  1.3702
 3075SOL    HW210166   3.337   3.495   4.928  1.7358 -0.2957 -0.3819
 3076SOL     OW10167   4.725   3.476   6.205  0.4797 -0.0049 -0.2199
 3076SOL    HW110168   4.753   3.471   6.113  2.4879  0.2898  0.3263
 3076SOL    HW210169   4.674   3.396   6.218  0.7043 -0.3710 -1.4212
 3077SOL     OW10170   1.115   4.841   6.248 -0.2784  0.2048 -0.2021
 3077SOL    HW110171   1.088   4.849   6.157 -0.2249 -0.3168 -0.2699
 3077SOL    HW210172   1.069   4.911   6.294  0.3599  1.0120 -0.7688
 3078SOL     OW10173   1.592   6.287   4.623 -0.1298  0.0429  0.0574
 3078SOL    HW110174   1.520   6.322   4.675  0.7914  1.4965  0.4024
 3078SOL    HW210175   1.569   6.307   4.532 -0.4104  0.0003  0.1190
 3079SOL     OW10176   7.175   4.024   6.887 -0.1218  0.7936 -0.5583
 3079SOL    HW110177   7.094   4.025   6.939 -0.0379 -0.7198 -0.3593
 3079SOL    HW210178   7.202   4.116   6.883 -1.6512  1.2834 -0.3221
 3080SOL     OW10179   4.422   2.414   0.263  0.1074 -0.1013 -0.4092
 3080SOL    HW110180   4.328   2.419   0.281  0.1137  3.8925 -0.4838
 3080SOL    HW210181   4.430   2.436   0.170  1.0709 -2.9540 -1.0957
 3081SOL     OW10182   6.344   4.519   0.045 -0.0990 -0.9065  0.2049
 3081SOL    HW110183   6.276   4.516   0.113  1.5443 -0.2094  1.9901
 3081SOL    HW210184   6.415   4.466   0.081  0.3372 -1.5797 -1.5902
 3082SOL     OW10185   6.326   6.432   4.253 -0.3379 -0.7536 -0.1167
 3082SOL    HW110186   6.308   6.340   4.274 -1.4302 -0.6966 -0.6863
 3082SOL    HW210187   6.239   6.470   4.238  0.1360  0.2328 -0.4428
 3083SOL     OW10188   6.855   7.088   2.998  0.2790  0.4524  0.1239
 3083SOL    HW110189   6.777   7.033   2.992  1.6438 -1.5823  0.0980
 3083SOL    HW210190   6.890   7.070   3.086  0.5254  1.6514  0.2943
 3084SOL     OW10191   5.524   7.296   4.659  0.2603 -0.4373 -0.4010
 3084SOL    HW110192   5.441   7.312   4.703 -0.2252 -0.2538 -1.3764
 3084SOL    HW210193   5.589   7.336   4.718 -0.3872 -0.0524  0.0770
 3085SOL     OW10194   1.219   7.338   1.836  0.1454 -0.6368 -0.3719
 3085SOL    HW110195   1.299   7.288   1.825  0.2442 -0.2151 -1.7281
 3085SOL    HW210196   1.246   7.419   1.879  0.3164 -0.8235 -0.1265
 3086SOL     OW10197   4.807   0.643   3.467  0.1470  0.3438 -0.1039
 3086SOL    HW110198   4.785   0.553   3.492  0.6199  0.2513 -0.0096
 3086SOL    HW210199   4.830   0.685   3.549  1.0542  0.2263 -0.2947
 3087SOL     OW10200   6.752   0.783   6.659  0.1434 -0.7190 -0.3637
 3087SOL    HW110201   6.699   0.704   6.657  0.9625 -1.2950  0.0273
 3087SOL    HW210202   6.835   0.755   6.697  0.0453  0.5782  0.9070
 3088SOL     OW10203   0.412   6.763   3.264 -0.0277  0.4351 -0.0234
 3088SOL    HW110204   0.408   6.709   3.343  0.3268  0.7772  0.2349
 3088SOL    HW210205   0.482   6.724   3.212 -0.7642 -0.2519 -0.5272
 3089SOL     OW10206   5.799   2.985   7.276 -0.3658 -0.3507  0.1751
 3089SOL    HW110207   5.766   3.003   7.189  0.0812  0.4115  0.1507
 3089SOL    HW210208   5.777   2.893   7.292 -1.9904 -0.0309 -0.0441
 3090SOL     OW10209   6.903   0.237   7.167 -0.2973  0.1597  0.2816
 3090SOL    HW110210   6.920   0.183   7.090  1.8919  1.8169 -0.4960
 3090SOL    HW210211   6.812   0.265   7.157 -0.0309  0.4445 -1.8032
 3091SOL     OW10212   3.262   6.063   1.464 -0.0926 -0.4415 -0.4014
 3091SOL    HW110213   3.170   6.038   1.471 -0.1929 -0.0787 -0.3970
 3091SOL    HW210214   3.260   6.158   1.451  0.3629 -0.0562  1.8751
 3092SOL     OW10215   3.755   0.026   4.750  0.0724  0.1929 -0.0289
 3092SOL    HW110216   3.709  -0.049   4.713  0.2515 -0.4951  1.0983
 3092SOL    HW210217   3.747   0.014   4.845  0.8354  1.1444  0.1674
 3093SOL     OW10218   1.900   1.046   4.413  0.2563 -0.2502  0.0118
 3093SOL    HW110219   1.985   1.085   4.393  0.3172 -0.3745  0.0309
 3093SOL    HW210220   1.904   0.958   4.377 -0.8051  0.5826 -2.3507
 3094SOL     OW10221   5.678   4.796   1.079 -0.1382  0.1376  0.3818
 3094SOL    HW110222   5.666   4.778   0.985  1.4017  0.3634  0.1133
 3094SOL    HW210223   5.771   4.817   1.087  0.0760 -1.2992  2.1962
 3095SOL     OW10224   0.820   2.368   5.686 -0.1276  0.1427  0.1726
 3095SOL    HW110225   0.887   2.326   5.740 -1.4481 -1.1790  0.8739
 3095SOL    HW210226   0.755   2.400   5.749 -0.7905  0.2288 -0.5404
 3096SOL     OW10227   3.211   2.357   7.302 -0.2971 -0.1745 -0.0777
 3096SOL    HW110228   3.283   2.411   7.270 -1.1851  0.2852 -1.3979
 3096SOL    HW210229   3.224   2.272   7.261 -1.2463  0.3166 -1.4830
 3097SOL     OW10230   2.183   0.213   0.944 -0.3676  0.3236  0.0009
 3097SOL    HW110231   2.177   0.277   1.016 -0.9893 -0.0612  0.2989
 3097SOL    HW210232   2.212   0.132   0.986 -2.4219 -0.3819  0.1349
 3098SOL     OW10233   0.817   4.501   2.441 -0.4090  0.2081  0.6605
 3098SOL    HW110234   0.744   4.491   2.379  0.8906  0.0160 -0.8901
 3098SOL    HW210235   0.809   4.590   2.473  0.2239  1.1516 -1.6135
 3099SOL     OW10236   7.243   6.500   3.160  0.3887 -0.1551  0.2879
 3099SOL    HW110237   7.154   6.487   3.193  0.5366 -2.1127  0.0388
 3099SOL    HW210238   7.295   6.432   3.204  0.8885 -1.8787 -2.7257
 3100SOL     OW10239   4.708   3.316   2.132 -1.1190  0.5735 -0.0862
 3100SOL    HW110240   4.734   3.312   2.224 -1.2040  0.0791 -0.0806
 3100SOL    HW210241   4.635   3.254   2.125  0.2007 -0.9937 -0.9076
 3101SOL     OW10242   6.638   3.743   1.810  0.0436  0.4065 -0.8991
 3101SOL    HW110243   6.580   3.819   1.816  0.0536  0.3079  1.2860
 3101SOL    HW210244   6.681   3.739   1.896 -1.4070 -3.2358 -0.1706
 3102SOL     OW10245   1.272   4.943   1.483 -0.4667 -0.6855 -0.5398
 3102SOL    HW110246   1.258   5.026   1.438  0.0318  0.1834  0.8663
 3102SOL    HW210247   1.243   4.959   1.573  2.2165 -1.1341  0.5021
 3103SOL     OW10248   4.872   6.162   4.877 -0.6692  0.7068  0.2169
 3103SOL    HW110249   4.944   6.224   4.882 -0.1722  0.4326 -2.3312
 3103SOL    HW210250   4.862   6.130   4.966  1.7371  1.4517  0.8337
 3104SOL     OW10251   1.038   3.979   1.856  0.4293  0.5405 -0.3364
 3104SOL    HW110252   0.990   4.051   1.897 -1.5694 -0.7134 -0.3165
 3104SOL    HW210253   1.010   3.981   1.764  0.0490 -0.4215 -0.2548
 3105SOL     OW10254   6.187   3.982   6.268 -0.0833 -0.1027 -0.2811
 3105SOL    HW110255   6.106   3.931   6.269 -0.1936  0.0303  1.3340
 3105SOL    HW210256   6.247   3.932   6.324 -0.0282  1.2416  0.9296
 3106SOL     OW10257   4.590   7.163   0.802 -0.2755  0.3927  0.1886
 3106SOL    HW110258   4.541   7.229   0.849 -0.3022  0.6569 -0.2087
 3106SOL    HW210259   4.682   7.180   0.824 -0.0984  1.8115 -1.4536
 3107SOL     OW10260   0.473   1.598   2.055 -0.6396 -0.2118  0.4083
 3107SOL    HW110261   0.506   1.681   2.020 -1.5959  0.9874  2.1987
 3107SOL    HW210262   0.406   1.571   1.992 -1.9215  1.5997  0.8825
 3108SOL     OW10263   5.378   4.736   1.515  0.8251 -0.0932 -0.1348
 3108SOL    HW110264   5.398   4.825   1.486 -2.8012  0.8350 -0.2795
 3108SOL    HW210265   5.411   4.732   1.605  0.1450  1.8099  0.2471
 3109SOL     OW10266   4.261   3.463   4.275 -0.5829  0.2837  0.1905
 3109SOL    HW110267   4.277   3.492   4.365 -0.2070  2.7163 -0.5840
 3109SOL    HW210268   4.302   3.376   4.270 -0.1200  0.3331  2.1950
 3110SOL     OW10269   1.545   2.592   4.153  0.4122 -0.6779  0.8134
 3110SOL    HW110270   1.462   2.637   4.142  0.8052 -0.4891 -2.0651
 3110SOL    HW210271   1.528   2.526   4.220 -1.8917 -0.2850  0.6909
 3111SOL     OW10272   1.503   2.161   2.529  0.6812 -0.2552 -0.0253
 3111SOL    HW110273   1.445   2.145   2.454  2.1095  1.4048 -1.6048
 3111SOL    HW210274   1.472   2.244   2.566  0.5027 -0.6517  0.7383
 3112SOL     OW10275   7.065   5.906   5.305  0.2750 -0.7617  0.0402
 3112SOL    HW110276   7.015   5.912   5.224 -0.9405  0.8777  0.8589
 3112SOL    HW210277   7.148   5.950   5.286 -0.2677  0.2065 -0.1413
 3113SOL     OW10278   4.220   0.325   5.213  0.5187 -0.2221 -0.7452
 3113SOL    HW110279   4.302   0.287   5.246  0.0977 -0.8478 -0.4033
 3113SOL    HW210280   4.243   0.415   5.190  1.2378 -0.3059 -0.3880
 3114SOL     OW10281   4.287   5.603   4.783  0.3110 -0.0564  0.3422
 3114SOL    HW110282   4.377   5.571   4.791  0.0588 -0.5736  1.2789
 3114SOL    HW210283   4.295   5.685   4.734  1.1267 -0.8111 -0.8448
 3115SOL     OW10284   1.871   3.694   0.929 -0.0918 -0.3471  0.0740
 3115SOL    HW110285   1.786   3.687   0.885  0.3478  0.5731 -0.9686
 3115SOL    HW210286   1.932   3.649   0.871  0.1229 -1.1381  0.8944
 3116SOL     OW10287   5.947   5.409   0.046 -0.4557  0.0982  0.2694
 3116SOL    HW110288   5.971   5.391  -0.044  0.1871 -0.0034  0.4542
 3116SOL    HW210289   6.013   5.473   0.076 -0.6397  0.1030  0.6745
 3117SOL     OW10290   6.808   5.203   6.062  0.0342  0.1476 -0.8191
 3117SOL    HW110291   6.816   5.117   6.102  0.2222  0.4263 -0.2439
 3117SOL    HW210292   6.879   5.206   5.998  2.1461  1.0521  1.3941
 3118SOL     OW10293   4.806   0.200   4.584  0.5163 -0.2708  0.0525
 3118SOL    HW110294   4.798   0.133   4.652  0.4041 -0.2942  0.0159
 3118SOL    HW210295   4.716   0.219   4.557  0.6160 -1.1051 -0.9155
 3119SOL     OW10296   1.264   7.398   7.250 -0.8425 -0.1534 -0.0372
 3119SOL    HW110297   1.297   7.345   7.322 -0.8347 -0.7968 -0.5137
 3119SOL    HW210298   1.247   7.484   7.290  1.2583  0.1807  0.2739
 3120SOL     OW10299   4.765   0.940   5.917 -0.1764  0.7475 -0.2242
 3120SOL    HW110300   4.756   0.853   5.878  0.4407  0.6629 -0.1961
 3120SOL    HW210301   4.810   0.925   6.000 -2.5196  0.8022  1.1292
 3121SOL     OW10302   1.335   3.628   4.154  0.4551 -0.0946  0.2053
 3121SOL    HW110303   1.270   3.564   4.125  2.6965 -2.9811  1.1342
 3121SOL    HW210304   1.410   3.615   4.095  1.5052  0.6371  1.3261
 3122SOL     OW10305   7.007   3.454   0.148 -0.4359 -0.5318 -0.4494
 3122SOL    HW110306   7.050   3.449   0.063  0.5759 -1.2838  0.0867
 3122SOL    HW210307   6.924   3.498   0.130  0.9666  1.9296 -1.3617
 3123SOL     OW10308   2.380   0.369   2.213  0.1370  0.8616 -0.4785
 3123SOL    HW110309   2.389   0.310   2.288 -0.4987  2.7907  1.2081
 3123SOL    HW210310   2.293   0.349   2.177  1.2167 -1.4545 -2.0511
 3124SOL     OW10311   3.062   3.909   1.039  0.4158 -0.2909 -0.2528
 3124SOL    HW110312   3.148   3.917   1.081  0.9446 -1.4217 -1.0658
 3124SOL    HW210313   3.080   3.919   0.946 -0.5679  0.9337 -0.3334
 3125SOL     OW10314   7.200   3.237   4.567 -0.3737  0.1660 -0.2637
 3125SOL    HW110315   7.258   3.175   4.523 -1.9444  1.0802 -4.1126
 3125SOL    HW210316   7.210   3.319   4.518 -1.0432  1.9202  2.3217
 3126SOL     OW10317   6.487   3.389   2.256  0.2682 -0.0999  0.1823
 3126SOL    HW110318   6.558   3.371   2.318 -1.4822 -0.0278  2.3359
 3126SOL    HW210319   6.482   3.484   2.253  1.7844 -0.0138 -1.9177
 3127SOL     OW10320   1.732   4.297   2.556  0.1506  0.3273 -0.4845
 3127SOL    HW110321   1.667   4.259   2.497  0.0538  0.9169 -0.7590
 3127SOL    HW210322   1.681   4.339   2.625  0.2402 -2.5557  1.5040
 3128SOL     OW10323   7.177   3.510   3.499  0.4605 -0.2009 -0.3105
 3128SOL    HW110324   7.144   3.467   3.578  0.7963  1.1981  0.6320
 3128SOL    HW210325   7.160   3.447   3.428 -2.5509 -0.3207  0.3847
 3129SOL     OW10326   6.829   0.009   6.611  0.2554  0.1380 -0.1065
 3129SOL    HW110327   6.826   0.006   6.515 -2.6045  0.8759 -0.1454
 3129SOL    HW210328   6.785  -0.071   6.639 -0.2168  0.6070  0.5278
 3130SOL     OW10329   5.627   0.941   1.597 -0.3163  0.3077 -0.2463
 3130SOL    HW110330   5.678   0.906   1.524  0.0758 -2.8185  1.3717
 3130SOL    HW210331   5.693   0.960   1.664 -0.9155  0.5982  0.2649
 3131SOL     OW10332   1.910   5.188   0.509 -0.2496 -0.1377 -0.2107
 3131SOL    HW110333   1.850   5.206   0.581 -1.8821  1.1714 -1.8198
 3131SOL    HW210334   1.967   5.265   0.504 -0.4174 -0.0317 -0.5610
 3132SOL     OW10335   3.158   0.138   6.401 -0.1606  0.4011  0.4938
 3132SOL    HW110336   3.195   0.052   6.384  0.7894  1.0512 -0.9910
 3132SOL    HW210337   3.214   0.198   6.352 -2.2038  1.6184 -0.4854
 3133SOL     OW10338   6.643   0.835   4.886 -0.3769 -0.1285 -0.0334
 3133SOL    HW110339   6.724   0.792   4.857  0.2754  1.8455 -1.3255
 3133SOL    HW210340   6.641   0.917   4.838 -1.2784  1.5962  2.7153
 3134SOL     OW10341   0.651   6.210   7.050 -0.1381 -0.1024 -0.2087
 3134SOL    HW110342   0.585   6.250   6.993 -2.3448 -1.2000  1.4120
 3134SOL    HW210343   0.693   6.143   6.996 -1.7526 -0.7119 -0.7596
 3135SOL     OW10344   1.445   4.980   3.765  0.5260  0.0681 -0.1771
 3135SOL    HW110345   1.350   4.996   3.765  0.3090 -0.7429  2.1396
 3135SOL    HW210346   1.469   4.976   3.673 -1.6667  0.4747 -0.8270
 3136SOL     OW10347   2.985   6.955   7.195  0.3361 -0.2832 -0.6087
 3136SOL    HW110348   2.956   6.924   7.109 -0.5974 -1.0991 -0.0178
 3136SOL    HW210349   2.959   6.886   7.256  1.5808 -0.0331  0.2636
 3137SOL     OW10350   2.026   2.061   2.701 -0.4706 -0.1552 -0.0188
 3137SOL    HW110351   1.945   2.107   2.722 -1.6195 -1.7717 -0.7959
 3137SOL    HW210352   2.047   2.011   2.780  0.1959  0.8120  0.4396
 3138SOL     OW10353   2.342   5.083   2.509 -0.0072  0.1780  0.4362
 3138SOL    HW110354   2.386   4.998   2.503 -0.0226  0.1713  0.4172
 3138SOL    HW210355   2.411   5.144   2.531  0.4292  0.5076 -1.5960
 3139SOL     OW10356   0.223   3.451   4.670  0.3983  0.7099  0.3526
 3139SOL    HW110357   0.264   3.403   4.742  0.7383  0.5297  0.0411
 3139SOL    HW210358   0.160   3.510   4.713 -0.8330 -0.7792  0.6709
 3140SOL     OW10359   6.742   7.003   5.543 -0.1855  0.1459  0.4102
 3140SOL    HW110360   6.761   7.096   5.553 -0.7255  0.3504 -0.3158
 3140SOL    HW210361   6.649   6.995   5.564 -0.6029  0.1009 -1.2922
 3141SOL     OW10362   6.865   4.334   6.190  0.2346  0.3038 -0.0650
 3141SOL    HW110363   6.892   4.371   6.274  0.8339  0.3943 -0.2871
 3141SOL    HW210364   6.939   4.353   6.131  0.6893 -1.4757 -0.1287
 3142SOL     OW10365   0.708   4.405   0.905  0.4345  0.8874  0.1775
 3142SOL    HW110366   0.678   4.428   0.817 -1.8977  0.5395  0.8229
 3142SOL    HW210367   0.760   4.326   0.892  0.8915  1.3501 -0.9726
 3143SOL     OW10368   4.693   2.210   7.399  0.3190  0.0613 -0.4694
 3143SOL    HW110369   4.684   2.304   7.380  0.8431  0.3530  0.6856
 3143SOL    HW210370   4.627   2.193   7.467  0.0879 -0.4648 -0.8150
 3144SOL     OW10371   6.491   2.292   5.751  0.6490  0.0904 -1.1890
 3144SOL    HW110372   6.481   2.358   5.682  0.5109  2.1815  0.7166
 3144SOL    HW210373   6.415   2.305   5.807  1.4251 -0.6530  0.0650
 3145SOL     OW10374   5.321   3.889   5.561  0.5642 -0.3731  0.2303
 3145SOL    HW110375   5.226   3.879   5.570  0.7943 -0.9352  2.9440
 3145SOL    HW210376   5.334   3.913   5.470 -2.4745  3.1131  0.4948
 3146SOL     OW10377   2.819   6.933   2.566  0.9375 -0.1759 -0.3044
 3146SOL    HW110378   2.860   6.890   2.491  1.5891  1.5840 -1.0106
 3146SOL    HW210379   2.732   6.958   2.534  0.8716 -0.2308 -0.1680
 3147SOL     OW10380   6.536   6.226   2.483 -0.2778 -0.2818  0.2617
 3147SOL    HW110381   6.558   6.303   2.535 -0.9411  0.8426 -1.0808
 3147SOL    HW210382   6.444   6.236   2.462 -0.2207 -1.1188 -0.4732
 3148SOL     OW10383   4.552   3.514   2.411  0.2150  0.5393  0.2117
 3148SOL    HW110384   4.593   3.581   2.464 -0.8663  1.9273 -0.6411
 3148SOL    HW210385   4.574   3.538   2.321 -0.2863 -0.1895 -0.1165
 3149SOL     OW10386   6.314   0.647   5.212 -0.2036  0.4140  0.0676
 3149SOL    HW110387   6.325   0.640   5.117 -1.8266  0.6453 -0.1666
 3149SOL    HW210388   6.399   0.676   5.244 -0.0783  1.9880 -1.5228
 3150SOL     OW10389   7.116   2.366   4.144 -0.0189  0.1628 -0.0728
 3150SOL    HW110390   7.146   2.291   4.195 -0.4223 -1.0596 -1.5468
 3150SOL    HW210391   7.181   2.434   4.160 -1.2743  0.7127  3.8412
 3151SOL     OW10392   6.963   0.916   3.621  0.3230 -0.4831  0.4092
 3151SOL    HW110393   6.877   0.937   3.660 -1.3311 -1.7093 -2.3184
 3151SOL    HW210394   6.963   0.821   3.614  1.0217 -0.3706 -1.4746
 3152SOL     OW10395   5.219   4.553   1.995 -0.7400  0.6499  0.7217
 3152SOL    HW110396   5.161   4.477   2.004  0.6542 -0.7222 -0.9925
 3152SOL    HW210397   5.247   4.573   2.084 -0.2703 -1.6052  1.1492
 3153SOL     OW10398   5.660   5.101   3.372  0.2514  0.1915  0.2438
 3153SOL    HW110399   5.602   5.135   3.304 -0.3867  1.1050  1.2165
 3153SOL    HW210400   5.735   5.160   3.371 -0.7516  1.5876  1.7748
 3154SOL     OW10401   0.047   0.173   3.720  0.2978  0.4219 -0.2481
 3154SOL    HW110402   0.080   0.088   3.690 -0.8324 -0.4422  0.8508
 3154SOL    HW210403   0.017   0.216   3.639  1.3186 -0.0092 -0.8784
 3155SOL     OW10404   6.427   5.932   3.532  0.2479  0.0645 -0.7018
 3155SOL    HW110405   6.466   5.849   3.560  3.3450  1.0161 -1.8816
 3155SOL    HW210406   6.423   5.984   3.612  1.8912  0.0856 -0.6076
 3156SOL     OW10407   6.702   5.856   2.563 -0.2393  0.8783 -0.3432
 3156SOL    HW110408   6.649   5.863   2.642 -0.0667 -1.8380  0.1242
 3156SOL    HW210409   6.642   5.819   2.497  0.4628 -0.1677 -0.4301
 3157SOL     OW10410   1.632   5.218   3.384 -0.5419  0.4972 -0.3098
 3157SOL    HW110411   1.545   5.178   3.376 -1.2597  2.1441 -1.4230
 3157SOL    HW210412   1.648   5.222   3.478 -0.0954 -2.9253 -0.1149
 3158SOL     OW10413   6.878   5.495   1.985 -0.0375 -0.0748 -0.0933
 3158SOL    HW110414   6.860   5.405   2.014 -1.3701  0.1090 -0.2576
 3158SOL    HW210415   6.965   5.491   1.946 -0.0816 -1.3011 -0.1128
 3159SOL     OW10416   2.283   3.255   5.724  0.1222 -0.3136 -0.0952
 3159SOL    HW110417   2.249   3.180   5.772  0.5286 -0.2935  0.2304
 3159SOL    HW210418   2.377   3.239   5.717  0.1653  0.0102 -0.2971
 3160SOL     OW10419   5.276   6.725   4.648  0.4342 -0.3375  0.0982
 3160SOL    HW110420   5.242   6.705   4.561  0.1981  1.8386 -0.3596
 3160SOL    HW210421   5.199   6.747   4.700  0.7600  0.8648  0.1150
 3161SOL     OW10422   5.230   1.153   5.719 -1.0042 -0.0018  0.1830
 3161SOL    HW110423   5.209   1.229   5.664 -1.8672 -0.7474 -0.5458
 3161SOL    HW210424   5.145   1.113   5.737 -0.4548 -1.6579 -0.7247
 3162SOL     OW10425   5.458   3.992   3.814 -0.2209  0.6387 -0.4984
 3162SOL    HW110426   5.541   4.033   3.789 -0.2353  0.2926 -1.1358
 3162SOL    HW210427   5.483   3.903   3.839 -0.4046  0.5301 -0.7036
 3163SOL     OW10428   0.130   5.875   1.561 -0.2267 -0.5084 -0.0365
 3163SOL    HW110429   0.089   5.839   1.482 -1.3331 -1.4950  0.9495
 3163SOL    HW210430   0.220   5.844   1.557 -0.7263 -2.0367 -0.0639
 3164SOL     OW10431   5.881   2.609   6.485 -0.2208  0.0941  0.5582
 3164SOL    HW110432   5.823   2.669   6.532 -1.1370  0.3080 -0.8021
 3164SOL    HW210433   5.846   2.605   6.396  1.5340 -0.1840 -0.1801
 3165SOL     OW10434   2.205   5.345   4.446 -0.3154 -0.4734  0.1537
 3165SOL    HW110435   2.204   5.288   4.369  0.8745  0.4063 -0.5336
 3165SOL    HW210436   2.208   5.434   4.411  1.4968 -0.0821  1.1668
 3166SOL     OW10437   6.158   6.693   4.637 -0.6470 -0.3814 -0.4420
 3166SOL    HW110438   6.162   6.788   4.628 -1.4189 -0.2383  0.5790
 3166SOL    HW210439   6.200   6.660   4.558 -1.0381  0.8050 -1.1758
 3167SOL     OW10440   4.955   7.132   4.049  0.6259 -0.0532 -0.2209
 3167SOL    HW110441   5.022   7.064   4.042  0.3933 -0.3426  0.3661
 3167SOL    HW210442   4.893   7.099   4.113  0.6863  0.8546  0.3226
 3168SOL     OW10443   6.967   1.927   5.259  0.1107  0.0397  0.3156
 3168SOL    HW110444   6.975   1.835   5.232 -0.5038 -0.3026  1.2631
 3168SOL    HW210445   6.893   1.960   5.208  0.1781 -0.0540  0.1537
 3169SOL     OW10446   1.937   7.215   3.329  0.4667  0.2668 -0.0935
 3169SOL    HW110447   2.024   7.207   3.369  0.0881  0.6542  0.8307
 3169SOL    HW210448   1.950   7.277   3.257  0.8797  0.6322  0.2885
 3170SOL     OW10449   2.978   0.931   4.907  0.5937 -0.3602 -0.5037
 3170SOL    HW110450   2.983   0.848   4.860  0.4057 -1.0572  0.6906
 3170SOL    HW210451   3.024   0.915   4.989  1.8450  1.1584 -0.8609
 3171SOL     OW10452   0.335   4.857   0.485  0.4169 -0.2121 -0.1100
 3171SOL    HW110453   0.313   4.881   0.395 -0.7322 -0.2346  0.1532
 3171SOL    HW210454   0.429   4.837   0.482  0.1932 -1.2049 -1.5232
 3172SOL     OW10455   3.072   4.588   2.064  0.1106  0.4868 -0.1559
 3172SOL    HW110456   3.145   4.593   2.002  1.5573 -1.2935  1.2503
 3172SOL    HW210457   2.998   4.628   2.019  0.8371 -1.4868 -3.3742
 3173SOL     OW10458   2.880   0.085   5.631 -1.1051 -0.7482  0.0945
 3173SOL    HW110459   2.896   0.025   5.704  0.0406  0.2168  0.6645
 3173SOL    HW210460   2.898   0.171   5.667  1.5275 -0.3770 -1.8624
 3174SOL     OW10461   1.238   1.315   7.396  0.3089  0.0869 -0.6641
 3174SOL    HW110462   1.160   1.369   7.382 -0.6808  0.0796  3.4598
 3174SOL    HW210463   1.311   1.377   7.396 -0.4417  1.0222  0.9789
 3175SOL     OW10464   5.591   3.021   3.774  0.3314  0.0637  0.6359
 3175SOL    HW110465   5.676   3.013   3.730  0.3611  0.5756  0.5995
 3175SOL    HW210466   5.606   3.082   3.846  0.2407 -0.6539  1.2688
 3176SOL     OW10467   2.913   2.637   5.551  0.1412  0.2285  0.8907
 3176SOL    HW110468   2.880   2.717   5.592 -3.5730 -0.0280 -1.0672
 3176SOL    HW210469   2.844   2.572   5.567  1.5522 -1.6562 -0.2469
 3177SOL     OW10470   2.830   2.592   2.624 -0.0238 -0.4520 -0.3603
 3177SOL    HW110471   2.755   2.651   2.613  0.7971  0.9922  1.2673
 3177SOL    HW210472   2.798   2.506   2.597 -1.7070  0.4618 -1.4291
 3178SOL     OW10473   0.793   6.671   0.262 -0.0563  0.6031 -0.1369
 3178SOL    HW110474   0.858   6.733   0.296 -0.4045  0.6798  0.4006
 3178SOL    HW210475   0.725   6.669   0.329 -0.2134 -0.1059 -0.3139
 3179SOL     OW10476   0.365   0.511   6.641  0.2548 -0.5746 -0.0779
 3179SOL    HW110477   0.341   0.598   6.609 -3.2037 -0.7202  1.6732
 3179SOL    HW210478   0.441   0.526   6.697  0.5077  1.0810 -0.8086
 3180SOL     OW10479   7.384   3.755   6.066  0.4148  0.0523  0.1083
 3180SOL    HW110480   7.328   3.699   6.119  0.7629 -0.0524  0.3722
 3180SOL    HW210481   7.349   3.748   5.978 -0.0817  0.1124  0.2958
 3181SOL     OW10482   6.904   2.359   1.497 -0.1078  0.3510  0.4822
 3181SOL    HW110483   6.840   2.358   1.568 -0.5103  0.6716  0.1312
 3181SOL    HW210484   6.913   2.452   1.474 -0.2152  0.2278 -0.0892
 3182SOL     OW10485   3.537   5.622   0.749 -0.0673 -0.1503  0.0318
 3182SOL    HW110486   3.568   5.688   0.811  0.2332 -0.7093  0.4908
 3182SOL    HW210487   3.443   5.640   0.741 -0.5028 -1.1669  2.0639
 3183SOL     OW10488   5.915   0.149   1.019 -0.2317  0.2961 -0.2715
 3183SOL    HW110489   5.933   0.208   0.946 -0.6277  0.3750 -0.3123
 3183SOL    HW210490   5.999   0.111   1.042  0.1382  1.3564  0.1646
 3184SOL     OW10491   3.575   7.402   5.227 -0.1459  0.9277 -0.4498
 3184SOL    HW110492   3.566   7.319   5.275  0.0905  0.7653 -0.6838
 3184SOL    HW210493   3.514   7.394   5.154 -1.7370  1.8375  0.7073
 3185SOL     OW10494   3.935   1.452   7.361 -0.0287  0.5252  0.0246
 3185SOL    HW110495   3.915   1.412   7.446 -0.2848  0.7054  0.0493
 3185SOL    HW210496   3.978   1.382   7.312  1.4558  0.8329  0.8108
 3186SOL     OW10497   2.152   6.532   1.722 -0.1415  0.0339 -0.5999
 3186SOL    HW110498   2.086   6.465   1.739  0.1701  0.2277  1.7366
 3186SOL    HW210499   2.236   6.485   1.725  0.1068  0.5156  1.4537
 3187SOL     OW10500   2.245   6.296   0.095  0.2035 -0.1990  0.2086
 3187SOL    HW110501   2.255   6.251   0.011  2.7431  0.9145 -0.1770
 3187SOL    HW210502   2.332   6.329   0.115 -0.9139  1.9988  1.9191
 3188SOL     OW10503   4.447   1.730   5.554  0.5910 -0.3801 -0.3766
 3188SOL    HW110504   4.465   1.748   5.647 -1.0321  1.0440 -0.2925
 3188SOL    HW210505   4.523   1.767   5.509  0.2412  1.1796  0.2474
 3189SOL     OW10506   6.365   6.549   0.392 -0.1281  0.1176 -0.6986
 3189SOL    HW110507   6.320   6.476   0.349 -0.8199  0.6365 -0.8732
 3189SOL    HW210508   6.386   6.516   0.479 -0.9803 -0.0933 -0.5647
 3190SOL     OW10509   6.594   5.696   0.509 -0.2316 -0.6723  0.1759
 3190SOL    HW110510   6.628   5.672   0.423 -2.6818  0.1224 -1.0929
 3190SOL    HW210511   6.672   5.718   0.560  1.2924 -1.1302 -1.8185
 3191SOL     OW10512   3.014   3.979   6.007 -0.1886 -0.9670 -0.0686
 3191SOL    HW110513   2.931   3.934   6.019  1.0279 -2.7521  2.6548
 3191SOL    HW210514   3.071   3.914   5.965  0.4438 -0.5685  0.1509
 3192SOL     OW10515   6.557   0.965   6.830  0.4221  0.3203 -0.3970
 3192SOL    HW110516   6.587   1.009   6.751  0.5670 -0.5300 -0.8258
 3192SOL    HW210517   6.612   0.886   6.835 -1.0205 -0.7284 -0.6220
 3193SOL     OW10518   6.837   2.147   3.137  0.2294 -0.1374 -0.3009
 3193SOL    HW110519   6.889   2.215   3.094 -0.6420 -0.0641 -1.2569
 3193SOL    HW210520   6.852   2.069   3.084 -1.0357  0.0106 -0.9029
 3194SOL     OW10521   1.142   3.443   4.098  0.1527 -0.1095 -0.4273
 3194SOL    HW110522   1.168   3.352   4.085 -1.5768 -0.9069  1.1429
 3194SOL    HW210523   1.138   3.480   4.010  0.1499 -1.7843 -1.1638
 3195SOL     OW10524   7.257   2.815   4.252  0.0997  0.0874 -0.2152
 3195SOL    HW110525   7.306   2.863   4.185  0.7096  0.4888  0.4946
 3195SOL    HW210526   7.170   2.802   4.214  0.2627  0.7945 -0.8540
 3196SOL     OW10527   0.138   2.066   2.142 -0.5306  0.6273 -0.3279
 3196SOL    HW110528   0.174   1.994   2.090 -2.7326 -0.6361 -0.2707
 3196SOL    HW210529   0.098   2.125   2.078  0.6620  1.4772 -0.3234
 3197SOL     OW10530   5.249   2.537   3.362  0.4594 -0.0459  0.0236
 3197SOL    HW110531   5.306   2.550   3.437 -0.1003  1.3203  0.2354
 3197SOL    HW210532   5.176   2.486   3.396 -0.0886  1.0776  0.5672
 3198SOL     OW10533   1.474   5.971   7.302  0.2322  0.2227  0.0939
 3198SOL    HW110534   1.516   6.036   7.358  0.0255 -1.2269  2.0568
 3198SOL    HW210535   1.434   6.022   7.232  2.5103  1.9259 -0.1040
 3199SOL     OW10536   5.334   4.297   7.212 -0.2219 -0.6178  0.2143
 3199SOL    HW110537   5.355   4.341   7.294  0.1182 -0.8826  0.2687
 3199SOL    HW210538   5.321   4.368   7.149  0.3197 -0.4404  0.3028
 3200SOL     OW10539   1.326   3.527   6.714 -0.1901  0.0551  0.6654
 3200SOL    HW110540   1.347   3.448   6.764  1.4688  1.9156  3.1619
 3200SOL    HW210541   1.295   3.495   6.629 -0.1066 -3.2397  1.7618
 3201SOL     OW10542   5.422   2.325   4.680  0.2829  0.1361  0.0112
 3201SOL    HW110543   5.448   2.411   4.646 -1.6536  0.8400  0.2278
 3201SOL    HW210544   5.433   2.265   4.606  0.3230  0.8277 -0.5488
 3202SOL     OW10545   7.141   3.457   7.355  0.5018 -0.0616 -0.2612
 3202SOL    HW110546   7.113   3.547   7.372  0.6655 -0.1262  0.3667
 3202SOL    HW210547   7.153   3.454   7.260  1.5046  0.8818 -0.1909
 3203SOL     OW10548   4.734   4.907   6.737  0.3954 -0.3722  0.4237
 3203SOL    HW110549   4.821   4.933   6.769  0.6880  1.2549 -1.5008
 3203SOL    HW210550   4.678   4.982   6.757 -0.1976 -0.7705  0.2514
 3204SOL     OW10551   2.418   0.237   7.363 -0.7869 -0.0334  0.0361
 3204SOL    HW110552   2.454   0.204   7.445 -1.4339 -0.7639  0.0396
 3204SOL    HW210553   2.396   0.158   7.313 -2.0447  0.3776 -0.0970
 3205SOL     OW10554   7.404   0.429   3.526 -0.2906 -0.1939  0.1142
 3205SOL    HW110555   7.451   0.356   3.485 -0.4523 -0.4634  0.4039
 3205SOL    HW210556   7.320   0.392   3.552  0.4901 -0.5403  2.3704
 3206SOL     OW10557   1.524   4.915   3.018  0.0881 -0.0173 -0.4203
 3206SOL    HW110558   1.453   4.917   2.955  0.3652  0.7503 -0.7248
 3206SOL    HW210559   1.591   4.861   2.978 -0.9753 -2.2325  0.6208
 3207SOL     OW10560   4.979   1.048   4.160 -0.5580  0.0634 -0.0432
 3207SOL    HW110561   5.005   1.057   4.068  0.2227  1.6587  0.3004
 3207SOL    HW210562   4.921   1.122   4.176 -0.0189  0.2919  0.9490
 3208SOL     OW10563   4.656   5.982   2.225  0.6499 -1.1110 -0.1126
 3208SOL    HW110564   4.648   6.047   2.155  0.4731 -0.5470  0.4263
 3208SOL    HW210565   4.672   5.899   2.179  0.4918 -0.7546 -0.8201
 3209SOL     OW10566   2.939   0.242   1.150  0.2310 -0.2090 -0.4892
 3209SOL    HW110567   3.026   0.237   1.109  0.2488 -1.9990 -0.2970
 3209SOL    HW210568   2.952   0.206   1.238 -0.6640 -0.2941 -0.3824
 3210SOL     OW10569   0.074   3.116   2.034 -0.3221  0.0188 -0.0117
 3210SOL    HW110570   0.031   3.149   1.955  0.5237 -0.1816 -0.5714
 3210SOL    HW210571   0.135   3.186   2.059  3.0531 -1.7448 -2.4122
 3211SOL     OW10572   6.134   1.647   3.755  0.2969 -1.1927  0.2969
 3211SOL    HW110573   6.059   1.706   3.757  1.5102  0.5338 -1.3759
 3211SOL    HW210574   6.140   1.613   3.844 -1.2820  0.1314  0.9666
 3212SOL     OW10575   5.803   3.509   1.563  0.4096 -0.1836 -0.3396
 3212SOL    HW110576   5.741   3.549   1.625  1.6001 -1.6195  1.8870
 3212SOL    HW210577   5.870   3.469   1.617 -0.2052 -4.5099 -2.3315
 3213SOL     OW10578   2.122   5.232   4.208  0.0901 -0.4090 -0.7553
 3213SOL    HW110579   2.104   5.258   4.118 -1.7168  1.4115  0.0259
 3213SOL    HW210580   2.038   5.202   4.241 -0.2142  2.2234  1.2377
 3214SOL     OW10581   1.297   0.364   4.371 -0.1517 -0.3530  0.1374
 3214SOL    HW110582   1.295   0.427   4.299  3.6290  0.9074  0.9079
 3214SOL    HW210583   1.330   0.284   4.333 -0.5427 -0.4704  0.0369
 3215SOL     OW10584   4.885   5.496   4.546 -0.1371  0.4056 -0.1137
 3215SOL    HW110585   4.828   5.556   4.594 -0.6382  0.2549 -0.5138
 3215SOL    HW210586   4.826   5.429   4.511  0.4698 -0.6855  0.8474
 3216SOL     OW10587   1.306   5.859   6.202 -0.6601 -0.7401 -0.1484
 3216SOL    HW110588   1.309   5.782   6.145 -1.1225 -0.0255 -1.1769
 3216SOL    HW210589   1.319   5.824   6.290 -0.5921 -1.9583 -0.6174
 3217SOL     OW10590   6.105   2.352   0.213  0.3857 -0.7519  0.0730
 3217SOL    HW110591   6.049   2.297   0.266 -1.6175  0.4960 -0.6397
 3217SOL    HW210592   6.116   2.432   0.265  1.0559 -0.7559 -0.0492
 3218SOL     OW10593   2.776   4.807   3.457  0.8183  0.3903  0.4209
 3218SOL    HW110594   2.779   4.893   3.417  0.7920 -0.0741 -0.6143
 3218SOL    HW210595   2.861   4.768   3.438  1.4716  0.7792  2.3109
 3219SOL     OW10596   2.722   0.317   6.098 -0.0871 -0.4937  0.1532
 3219SOL    HW110597   2.711   0.357   6.012  2.2112  0.1686  0.0987
 3219SOL    HW210598   2.718   0.391   6.159  0.6899 -0.6255  0.3726
 3220SOL     OW10599   1.016   7.332   5.560  0.1635  0.4447 -0.0348
 3220SOL    HW110600   0.932   7.341   5.605 -0.1013  1.2174 -0.6582
 3220SOL    HW210601   1.002   7.263   5.496  0.6436 -0.9002  1.2681
 3221SOL     OW10602   1.533   4.024   2.693  0.1016 -0.3956 -0.0160
 3221SOL    HW110603   1.479   4.071   2.757  1.2069 -0.0867  0.7426
 3221SOL    HW210604   1.527   4.076   2.613 -1.3644 -0.8261 -0.1996
 3222SOL     OW10605   1.521   1.810   4.802  0.3026 -0.1575 -0.2096
 3222SOL    HW110606   1.472   1.823   4.883  1.5141 -0.6115  0.6181
 3222SOL    HW210607   1.466   1.751   4.750  0.5232 -1.7288  1.2573
 3223SOL     OW10608   1.575   1.649   3.249 -0.3423  0.1069  0.5307
 3223SOL    HW110609   1.655   1.696   3.271  0.3100 -1.1648  0.9684
 3223SOL    HW210610   1.568   1.581   3.316 -1.2370 -0.4362 -0.0972
 3224SOL     OW10611   1.893   0.145   3.551 -0.6291  0.4389  0.8607
 3224SOL    HW110612   1.818   0.088   3.532 -1.3993  1.1680  1.6460
 3224SOL    HW210613   1.949   0.092   3.607 -0.0193 -0.4819 -0.5491
 3225SOL     OW10614   2.263   6.669   6.089 -0.4547 -0.8249  0.0461
 3225SOL    HW110615   2.194   6.647   6.152  0.0028  0.3732  1.0133
 3225SOL    HW210616   2.340   6.685   6.143 -0.1882  0.7857 -0.7679
 3226SOL     OW10617   4.666   0.380   5.683 -0.4934 -0.1517 -0.0679
 3226SOL    HW110618   4.709   0.451   5.730 -1.1702 -0.1185  0.5266
 3226SOL    HW210619   4.573   0.406   5.681 -0.7959 -1.1382  0.4043
 3227SOL     OW10620   1.358   2.594   0.848 -0.3828 -0.2967 -0.1067
 3227SOL    HW110621   1.288   2.625   0.904 -0.8491  0.1493 -0.9160
 3227SOL    HW210622   1.328   2.509   0.816 -1.4309  0.6665 -1.8867
 3228SOL     OW10623   3.027   5.400   2.597 -0.7076 -0.1320  0.4150
 3228SOL    HW110624   3.059   5.490   2.593 -3.0308  0.7851  0.8158
 3228SOL    HW210625   3.072   5.362   2.673 -0.8207  1.1950  1.1788
 3229SOL     OW10626   1.211   6.846   0.082 -0.3433 -0.0793  0.0976
 3229SOL    HW110627   1.299   6.884   0.088  0.0973 -1.2574  1.9883
 3229SOL    HW210628   1.152   6.921   0.084  0.5955  0.7285 -1.2178
 3230SOL     OW10629   3.900   6.844   1.991  0.0401  0.0898 -0.6696
 3230SOL    HW110630   3.820   6.893   1.972  0.2994  0.0595 -1.9521
 3230SOL    HW210631   3.889   6.762   1.943  0.3928 -0.3596  0.0069
 3231SOL     OW10632   3.823   4.060   1.182 -0.0980  0.6976 -0.1102
 3231SOL    HW110633   3.779   3.984   1.219  1.2465 -1.3611 -2.4426
 3231SOL    HW210634   3.897   4.075   1.240 -1.2400  1.2899  1.2497
 3232SOL     OW10635   2.243   1.926   4.371  0.1585  0.6938  0.0612
 3232SOL    HW110636   2.232   1.850   4.429  2.1233  1.3805  1.4286
 3232SOL    HW210637   2.302   1.895   4.302  1.4736  1.0922  0.9652
 3233SOL     OW10638   3.252   4.240   6.357 -0.2098 -0.3978 -0.3800
 3233SOL    HW110639   3.292   4.178   6.295 -0.6260 -0.7416 -0.3029
 3233SOL    HW210640   3.240   4.320   6.305  0.3441 -0.3661 -0.4738
 3234SOL     OW10641   6.704   6.121   1.017  0.8889 -0.1677  0.2948
 3234SOL    HW110642   6.746   6.052   0.965 -1.4298 -0.8942 -0.7525
 3234SOL    HW210643   6.681   6.078   1.099  0.5720 -0.2980  0.1402
 3235SOL     OW10644   5.357   6.756   7.260 -1.1954 -0.3022  0.3351
 3235SOL    HW110645   5.296   6.794   7.197 -0.8845 -0.2532  0.0631
 3235SOL    HW210646   5.317   6.773   7.346 -2.4338 -1.7495  0.0985
 3236SOL     OW10647   1.612   5.613   6.041  0.3419 -0.5923 -0.0594
 3236SOL    HW110648   1.630   5.634   6.133 -2.3302 -1.3502  0.7136
 3236SOL    HW210649   1.591   5.697   6.001 -1.1229 -0.5689  0.7134
 3237SOL     OW10650   5.834   6.766   4.678 -0.2305 -0.0492  0.4327
 3237SOL    HW110651   5.741   6.744   4.684 -0.7623 -0.3516 -4.6891
 3237SOL    HW210652   5.836   6.862   4.669 -0.3359 -0.2116 -1.6330
 3238SOL     OW10653   4.398   6.459   3.442 -0.4372 -0.3627  0.6287
 3238SOL    HW110654   4.323   6.510   3.474 -0.4692  0.9285 -1.3759
 3238SOL    HW210655   4.375   6.437   3.352 -0.0662 -3.3237  1.1569
 3239SOL     OW10656   5.401   3.212   1.495 -0.0288 -0.1669 -0.0428
 3239SOL    HW110657   5.434   3.302   1.485  0.4672 -0.2445  0.7413
 3239SOL    HW210658   5.354   3.194   1.414 -1.5501  1.3790  0.4291
 3240SOL     OW10659   2.692   6.738   1.548 -0.6269 -0.2244 -0.0169
 3240SOL    HW110660   2.629   6.739   1.621 -0.2831 -0.2711  0.2807
 3240SOL    HW210661   2.777   6.754   1.589 -0.4685  0.0590 -0.4479
 3241SOL     OW10662   2.650   1.245   6.601  0.5234  0.3009 -0.1733
 3241SOL    HW110663   2.617   1.156   6.583 -0.4247  0.4791  0.6219
 3241SOL    HW210664   2.693   1.271   6.520 -0.7215 -0.2142 -1.0321
 3242SOL     OW10665   7.109   3.444   7.088  0.3397  0.0772 -0.0702
 3242SOL    HW110666   7.159   3.411   7.013  1.1987  0.4664  0.3156
 3242SOL    HW210667   7.034   3.386   7.094 -0.2669  0.6301 -1.8261
 3243SOL     OW10668   6.890   0.510   3.141 -0.0655  0.0371  0.1160
 3243SOL    HW110669   6.836   0.453   3.196 -0.3952  0.0584 -0.1812
 3243SOL    HW210670   6.868   0.484   3.052  0.1081  0.3310 -0.0128
 3244SOL     OW10671   3.647   4.074   3.267 -0.5944  0.6511  0.0287
 3244SOL    HW110672   3.694   4.101   3.346  0.2551 -0.2456 -0.1598
 3244SOL    HW210673   3.639   3.979   3.274 -0.3755  0.5438 -1.0359
 3245SOL     OW10674   0.923   0.214   1.711  0.0552  0.2818  0.2585
 3245SOL    HW110675   0.856   0.165   1.664 -0.5273 -1.1017  2.3983
 3245SOL    HW210676   0.893   0.305   1.707 -0.7758 -0.0132 -0.6756
 3246SOL     OW10677   3.852   4.339   7.173  0.4690 -0.1327 -0.0410
 3246SOL    HW110678   3.863   4.333   7.078  0.6148 -0.1960 -0.0202
 3246SOL    HW210679   3.777   4.283   7.193 -0.3785  0.8796 -0.2784
 3247SOL     OW10680   0.149   4.178   3.985  0.0238  0.1037  0.2579
 3247SOL    HW110681   0.136   4.226   4.066  0.6365  0.0312  0.4046
 3247SOL    HW210682   0.244   4.171   3.976 -0.0480 -0.6370 -0.0166
 3248SOL     OW10683   5.361   0.153   4.760 -0.5539 -0.5356 -0.1760
 3248SOL    HW110684   5.438   0.183   4.712 -1.1128  0.2672 -0.6090
 3248SOL    HW210685   5.369   0.194   4.846 -0.2695 -0.8178 -0.0683
 3249SOL     OW10686   3.884   0.602   2.207 -0.2859 -0.1149 -0.4917
 3249SOL    HW110687   3.956   0.646   2.253  1.3958 -1.6893 -1.4491
 3249SOL    HW210688   3.922   0.577   2.122 -2.5354  0.5315 -1.7748
 3250SOL     OW10689   0.533   3.197   2.675  0.7870 -0.0330  0.4848
 3250SOL    HW110690   0.486   3.177   2.756  2.5731 -0.6460  1.4516
 3250SOL    HW210691   0.543   3.292   2.676 -2.4358  0.4533 -1.0039
 3251SOL     OW10692   1.137   6.768   1.850 -0.5116  0.1194  0.2699
 3251SOL    HW110693   1.209   6.818   1.889 -1.0919  0.0154  1.5019
 3251SOL    HW210694   1.059   6.822   1.865 -0.8221 -0.1446 -0.3418
 3252SOL     OW10695   5.027   0.443   6.172 -0.0237 -0.1158 -0.2776
 3252SOL    HW110696   5.094   0.416   6.235 -1.2927  0.8091  1.5661
 3252SOL    HW210697   4.970   0.366   6.165  0.3146 -0.3435 -0.6014
 3253SOL     OW10698   3.408   3.225   4.025  0.2859  0.0050  0.6550
 3253SOL    HW110699   3.346   3.291   3.993 -1.1140 -2.3805 -2.0501
 3253SOL    HW210700   3.365   3.187   4.101 -0.8704 -0.5128 -0.2236
 3254SOL     OW10701   4.281   0.480   2.533 -0.1683 -0.4516  0.3793
 3254SOL    HW110702   4.368   0.498   2.499  0.8813 -1.7727  2.1942
 3254SOL    HW210703   4.280   0.520   2.620 -1.0945 -1.1208  0.6948
 3255SOL     OW10704   3.173   4.649   4.809 -0.2078  0.5274  0.5637
 3255SOL    HW110705   3.096   4.594   4.823 -0.3857  0.3907 -0.8397
 3255SOL    HW210706   3.234   4.623   4.879 -0.7879 -0.5392  0.6865
 3256SOL     OW10707   2.610   4.868   5.401  0.0564 -0.0617 -0.1349
 3256SOL    HW110708   2.647   4.780   5.399  1.8598  0.6509  0.0252
 3256SOL    HW210709   2.616   4.898   5.310 -2.8822 -0.9442 -0.7390
 3257SOL     OW10710   6.331   4.561   1.803 -0.6035  0.2350  0.4285
 3257SOL    HW110711   6.351   4.644   1.760 -0.7110  0.3213  0.5440
 3257SOL    HW210712   6.250   4.531   1.761 -0.0751 -0.2731 -0.2623
 3258SOL     OW10713   1.706   0.653   4.945  0.3519 -0.4939 -0.3701
 3258SOL    HW110714   1.613   0.637   4.963  0.4866 -0.8438  0.0160
 3258SOL    HW210715   1.708   0.674   4.852 -0.4056  1.6769  0.0409
 3259SOL     OW10716   3.435   4.212   3.560 -0.0871 -0.4247 -0.2521
 3259SOL    HW110717   3.359   4.217   3.501 -1.7309  2.6726  1.8321
 3259SOL    HW210718   3.414   4.140   3.620 -2.5591  1.5525  1.5047
 3260SOL     OW10719   5.582   1.299   3.928 -0.3347 -0.3952  0.2019
 3260SOL    HW110720   5.492   1.278   3.951 -0.2025 -1.0785  0.1192
 3260SOL    HW210721   5.587   1.395   3.934 -1.3806 -0.2405 -0.9083
 3261SOL     OW10722   4.435   7.033   5.924  0.3378  0.2113 -0.1944
 3261SOL    HW110723   4.518   7.032   5.876  0.1380  1.2272 -0.6002
 3261SOL    HW210724   4.368   7.040   5.855 -0.0352  0.2738  0.1708
 3262SOL     OW10725   7.126   5.955   2.401  0.3312  0.5968  0.1581
 3262SOL    HW110726   7.196   5.928   2.461  1.3906  0.1811 -1.1919
 3262SOL    HW210727   7.085   5.872   2.374 -1.0711  0.8725  1.3487
 3263SOL     OW10728   0.790   2.767   0.849 -0.4362  0.1583  0.1686
 3263SOL    HW110729   0.858   2.791   0.912  0.3866 -0.8009 -0.3359
 3263SOL    HW210730   0.739   2.847   0.837  1.1874  1.1711 -0.1973
 3264SOL     OW10731   1.067   1.035   0.013 -0.6122  0.5358  0.4792
 3264SOL    HW110732   1.154   1.040  -0.028  0.1433 -1.5077  1.6761
 3264SOL    HW210733   1.072   1.097   0.085 -0.0275  0.2125  0.7237
 3265SOL     OW10734   6.893   6.812   6.672 -0.7652 -0.1461  0.2672
 3265SOL    HW110735   6.848   6.856   6.600  0.6355  1.2012  0.1413
 3265SOL    HW210736   6.827   6.802   6.740 -1.2513  1.9715  0.1834
 3266SOL     OW10737   0.726   4.761   4.060  0.3045 -0.2462 -0.2087
 3266SOL    HW110738   0.800   4.728   4.009  1.2819  1.1925  0.2126
 3266SOL    HW210739   0.758   4.762   4.150 -0.5045 -0.3564  0.0837
 3267SOL     OW10740   0.722   3.481   1.836 -0.3067 -0.3545  0.0348
 3267SOL    HW110741   0.771   3.406   1.870  0.1875 -0.6233 -1.2424
 3267SOL    HW210742   0.669   3.510   1.911 -1.8900 -3.0730  0.1073
 3268SOL     OW10743   5.016   6.153   5.516 -0.2750 -0.2913 -0.1722
 3268SOL    HW110744   4.987   6.110   5.596 -0.1788 -1.4147 -0.7246
 3268SOL    HW210745   5.111   6.136   5.512 -0.0104  0.9857  0.1959
 3269SOL     OW10746   3.697   7.070   3.033 -0.0395  0.1277 -0.2378
 3269SOL    HW110747   3.721   7.162   3.034  0.2373  0.0832 -1.1525
 3269SOL    HW210748   3.759   7.028   3.093  0.3417  0.4235 -0.4211
 3270SOL     OW10749   3.700   1.211   3.811 -0.3546  0.2809  0.2309
 3270SOL    HW110750   3.699   1.124   3.771 -0.5903  0.1129  0.6004
 3270SOL    HW210751   3.616   1.250   3.784 -0.4547  0.2173  0.4450
 3271SOL     OW10752   5.783   3.072   4.137  0.2666  0.8243 -0.0232
 3271SOL    HW110753   5.695   3.107   4.153  0.5582  1.3137  0.6012
 3271SOL    HW210754   5.794   3.077   4.042 -0.8559 -0.4504 -0.2474
 3272SOL     OW10755   5.115   1.208   0.543  0.0675 -0.6134 -0.0657
 3272SOL    HW110756   5.203   1.177   0.562  0.8416  0.7473 -1.2301
 3272SOL    HW210757   5.126   1.302   0.526 -1.6976 -0.2972  0.3207
 3273SOL     OW10758   4.688   5.181   7.049  0.6038  0.3445  0.0874
 3273SOL    HW110759   4.756   5.239   7.014  1.1056  0.0891  0.6318
 3273SOL    HW210760   4.633   5.238   7.102 -0.2615  0.7715 -1.2217
 3274SOL     OW10761   0.911   1.794   1.689 -0.0875  0.6840  0.1096
 3274SOL    HW110762   0.983   1.768   1.747  0.5186  1.6259 -0.2069
 3274SOL    HW210763   0.839   1.736   1.714  1.3260 -1.6630 -0.9222
 3275SOL     OW10764   4.744   2.131   0.874 -0.1449 -0.1346 -0.0200
 3275SOL    HW110765   4.724   2.043   0.904 -0.7941  0.2744  0.7709
 3275SOL    HW210766   4.760   2.121   0.780  0.6000 -1.2133  0.2031
 3276SOL     OW10767   3.655   5.707   3.729  0.3192  0.3596 -0.3773
 3276SOL    HW110768   3.650   5.611   3.727  1.2250  0.3145 -0.9809
 3276SOL    HW210769   3.718   5.729   3.660  1.4466  1.2798  0.8994
 3277SOL     OW10770   4.728   5.557   0.114 -0.0017 -0.4361  0.3921
 3277SOL    HW110771   4.799   5.536   0.175  1.1484  1.6291 -0.1342
 3277SOL    HW210772   4.695   5.641   0.143 -0.1025  0.1256 -1.2151
 3278SOL     OW10773   7.280   1.435   3.016 -0.0055 -0.4875 -0.1768
 3278SOL    HW110774   7.365   1.480   3.018 -0.2872  0.1386 -1.3779
 3278SOL    HW210775   7.258   1.422   3.108  0.4091  1.2565  0.2071
 3279SOL     OW10776   2.869   5.194   3.560  0.4140 -0.0926 -0.1029
 3279SOL    HW110777   2.885   5.178   3.467  0.5527 -1.1087  0.0817
 3279SOL    HW210778   2.910   5.119   3.605 -1.4099 -0.7057  0.6360
 3280SOL     OW10779   6.284   4.201   7.339 -0.4727 -0.1523  0.7270
 3280SOL    HW110780   6.213   4.138   7.348  0.3726 -1.3249 -0.3796
 3280SOL    HW210781   6.324   4.205   7.426 -1.3743 -0.0981  1.1464
 3281SOL     OW10782   5.641   2.916   2.493  0.0990 -0.2986 -0.0050
 3281SOL    HW110783   5.569   2.950   2.547 -0.2340 -1.3293  0.2267
 3281SOL    HW210784   5.702   2.878   2.555 -0.1553 -1.2504 -0.3221
 3282SOL     OW10785   4.981   6.744   6.735  0.1111  0.3358 -0.4365
 3282SOL    HW110786   5.014   6.739   6.645  0.5206 -4.9804 -0.3315
 3282SOL    HW210787   5.061   6.746   6.789 -0.0151 -0.1121 -0.2257
 3283SOL     OW10788   4.600   4.834   0.463 -0.3533  0.4979  0.3666
 3283SOL    HW110789   4.511   4.868   0.457  0.3932  2.4401 -0.6697
 3283SOL    HW210790   4.631   4.862   0.549 -0.3992  0.7271  0.3086
 3284SOL     OW10791   3.058   4.397   1.465 -0.2175  0.1533  0.0631
 3284SOL    HW110792   2.997   4.323   1.470 -1.1388  0.9685  1.8153
 3284SOL    HW210793   3.142   4.358   1.442 -0.6470 -1.4778  1.1046
 3285SOL     OW10794   6.479   1.663   4.455 -0.1600 -0.3717 -0.7334
 3285SOL    HW110795   6.413   1.733   4.449  1.4192  1.2378 -0.1930
 3285SOL    HW210796   6.563   1.709   4.449  0.9464 -2.4441 -2.3851
 3286SOL     OW10797   2.826   2.513   6.838 -0.3511 -0.1074  0.0481
 3286SOL    HW110798   2.793   2.589   6.790  0.9336  0.7201  0.4312
 3286SOL    HW210799   2.755   2.490   6.898 -0.6505  0.9747  0.1374
 3287SOL     OW10800   6.565   6.980   6.214 -0.4606  0.1249 -0.0854
 3287SOL    HW110801   6.588   6.957   6.304  1.4590 -2.7283 -1.1486
 3287SOL    HW210802   6.490   6.924   6.193 -1.0100  0.9004 -0.2283
 3288SOL     OW10803   2.639   7.408   4.775 -0.1459  0.3075  0.0636
 3288SOL    HW110804   2.715   7.372   4.729  0.4580 -1.9879  2.6292
 3288SOL    HW210805   2.675   7.473   4.835 -0.4032  0.3112  0.2168
 3289SOL     OW10806   0.576   1.803   1.126  0.4474 -0.2698  0.3580
 3289SOL    HW110807   0.577   1.774   1.218  1.6217 -0.2794  0.3563
 3289SOL    HW210808   0.483   1.814   1.106 -0.0719 -3.3717  0.5787
 3290SOL     OW10809   6.723   3.750   3.269 -0.0377  0.0549  0.1708
 3290SOL    HW110810   6.754   3.723   3.355  1.2758  0.4791 -0.1398
 3290SOL    HW210811   6.652   3.689   3.248  1.2822 -1.6707  0.4795
 3291SOL     OW10812   6.145   4.218   5.204 -0.4678 -0.0744 -0.3737
 3291SOL    HW110813   6.182   4.272   5.135 -1.0641  2.2670  1.0287
 3291SOL    HW210814   6.082   4.275   5.248 -1.0017 -1.8735  1.3338
 3292SOL     OW10815   4.708   2.944   2.669  0.1500  0.4039  0.2466
 3292SOL    HW110816   4.752   2.907   2.592 -2.2114  0.0250 -1.0187
 3292SOL    HW210817   4.780   2.971   2.727  2.0598  1.3348 -2.3527
 3293SOL     OW10818   5.862   2.132   2.530 -0.3802 -0.4007  0.0188
 3293SOL    HW110819   5.826   2.050   2.563  0.4187 -1.6884 -2.1208
 3293SOL    HW210820   5.920   2.106   2.459 -0.6861  2.0623 -1.2449
 3294SOL     OW10821   5.870   3.739   6.660 -1.1093  0.1680  0.5575
 3294SOL    HW110822   5.887   3.692   6.578 -4.1757 -0.8749  0.4030
 3294SOL    HW210823   5.886   3.831   6.638  1.3070 -0.3557 -0.2031
 3295SOL     OW10824   5.279   5.000   5.581 -0.0937  0.2270  0.5819
 3295SOL    HW110825   5.314   4.920   5.541 -0.6898 -0.3417  1.1738
 3295SOL    HW210826   5.288   4.986   5.675  2.3491  2.0170  0.7307
 3296SOL     OW10827   3.535   0.022   7.279 -0.0906 -0.5439 -0.5719
 3296SOL    HW110828   3.540   0.117   7.265 -0.9893 -0.6035 -1.3709
 3296SOL    HW210829   3.620  -0.001   7.315 -0.4742  0.8484  1.3845
 3297SOL     OW10830   7.422   0.551   7.388 -0.1672  0.1841  0.1481
 3297SOL    HW110831   7.491   0.617   7.380  0.6282 -0.4615  1.2740
 3297SOL    HW210832   7.464   0.470   7.359  0.0043 -0.4624  2.0263
 3298SOL     OW10833   6.229   1.269   7.309  0.0608 -0.6285 -0.4130
 3298SOL    HW110834   6.201   1.248   7.221  0.7515 -1.3863 -0.4642
 3298SOL    HW210835   6.199   1.359   7.323  0.4769 -0.2832 -1.6430
 3299SOL     OW10836   1.063   1.657   3.680 -0.0970  0.2125 -0.3932
 3299SOL    HW110837   1.094   1.698   3.761 -0.4605  0.9579 -0.6236
 3299SOL    HW210838   0.968   1.652   3.691 -0.3013  1.4825 -1.2707
 3300SOL     OW10839   0.114   6.758   3.439 -0.1454 -0.0619  0.3819
 3300SOL    HW110840   0.029   6.775   3.478  0.4004  1.1736  1.0783
 3300SOL    HW210841   0.132   6.666   3.461 -1.0569 -0.1868  0.6583
 3301SOL     OW10842   0.442   5.478   6.516  0.2691 -0.2472 -0.2712
 3301SOL    HW110843   0.521   5.514   6.556 -0.0162 -0.8511  0.8606
 3301SOL    HW210844   0.405   5.551   6.466  1.6118 -0.0024 -0.9575
 3302SOL     OW10845   0.143   5.220   1.490  0.0871 -0.7710  0.6165
 3302SOL    HW110846   0.126   5.305   1.449 -0.8603 -1.1820  0.1310
 3302SOL    HW210847   0.058   5.176   1.489  0.5573 -1.7028  0.9242
 3303SOL     OW10848   5.407   2.627   5.029 -0.3809  0.2060  0.6119
 3303SOL    HW110849   5.424   2.707   4.979  0.2404 -0.0761  0.3672
 3303SOL    HW210850   5.335   2.585   4.982 -0.5180  0.4701  0.5786
 3304SOL     OW10851   2.850   1.899   1.653  0.1126 -0.0135  0.2550
 3304SOL    HW110852   2.886   1.888   1.741  1.2258  1.3043  0.0053
 3304SOL    HW210853   2.927   1.907   1.597 -0.5501  1.3811 -0.5117
 3305SOL     OW10854   6.041   0.170   2.820 -0.2694  0.4951 -0.5956
 3305SOL    HW110855   6.074   0.092   2.864 -2.9022 -0.1877  0.3536
 3305SOL    HW210856   5.979   0.137   2.755 -1.6450  1.7682  0.0160
 3306SOL     OW10857   5.546   4.727   4.200 -0.8365 -0.1980  0.0563
 3306SOL    HW110858   5.538   4.641   4.241 -0.4084  0.3571  1.3832
 3306SOL    HW210859   5.543   4.788   4.273  0.5297  0.8259 -0.6862
 3307SOL     OW10860   0.691   0.810   7.225  0.1835 -0.0665  0.1983
 3307SOL    HW110861   0.670   0.722   7.255  0.3131 -0.3932 -0.6424
 3307SOL    HW210862   0.740   0.849   7.297  3.1116 -1.8627 -0.6710
 3308SOL     OW10863   2.870   3.876   4.903 -0.4941  0.1650 -0.0993
 3308SOL    HW110864   2.866   3.849   4.995  0.9650 -0.1936 -0.1085
 3308SOL    HW210865   2.810   3.817   4.858  0.9029 -1.6251  0.2281
 3309SOL     OW10866   5.886   7.016   6.282 -0.1681 -0.2932 -0.4621
 3309SOL    HW110867   5.869   6.922   6.279  1.3512 -0.5789 -1.4035
 3309SOL    HW210868   5.864   7.047   6.194 -0.5714  0.2147 -0.1864
 3310SOL     OW10869   7.380   4.633   6.308 -0.1525  0.1922 -0.0382
 3310SOL    HW110870   7.339   4.580   6.239  0.7299 -1.2173  0.4918
 3310SOL    HW210871   7.307   4.682   6.346 -1.0410 -0.8034 -0.4070
 3311SOL     OW10872   7.303   1.127   6.278 -0.4225 -0.0496  0.5801
 3311SOL    HW110873   7.290   1.106   6.185 -0.1258  0.7844  0.3387
 3311SOL    HW210874   7.302   1.223   6.281  0.4632 -0.0537  1.3126
 3312SOL     OW10875   6.766   5.770   3.847 -0.3738  0.1858 -0.1265
 3312SOL    HW110876   6.738   5.735   3.932  0.1373 -0.6691 -0.2987
 3312SOL    HW210877   6.794   5.693   3.797  1.0950  0.8580 -0.4027
 3313SOL     OW10878   6.825   1.217   2.792  0.0647 -0.2185 -0.3507
 3313SOL    HW110879   6.875   1.270   2.729 -1.4434  0.9220 -0.6434
 3313SOL    HW210880   6.811   1.277   2.866  0.3958 -1.0138  0.3681
 3314SOL     OW10881   0.151   2.828   1.604 -0.2511  0.2292  0.0790
 3314SOL    HW110882   0.167   2.778   1.524 -0.5937  2.2608 -1.3322
 3314SOL    HW210883   0.140   2.762   1.672  2.2438 -1.5469 -1.0973
 3315SOL     OW10884   2.968   3.097   1.592  0.6961  0.1484  0.1636
 3315SOL    HW110885   2.990   3.036   1.662  1.8295 -0.5558 -0.7662
 3315SOL    HW210886   2.985   3.183   1.629  2.1019 -0.2503  0.5094
 3316SOL     OW10887   4.003   2.451   5.968 -0.1464  0.2225  0.3712
 3316SOL    HW110888   4.014   2.544   5.950 -0.1862  0.1819  0.1298
 3316SOL    HW210889   3.910   2.434   5.950 -0.4800  0.4404  1.8144
 3317SOL     OW10890   7.097   6.596   2.091  0.4293 -0.2946 -0.1297
 3317SOL    HW110891   7.128   6.559   2.009  1.0929 -1.4723  0.6297
 3317SOL    HW210892   7.015   6.550   2.109  1.3702 -1.6192  0.9314
 3318SOL     OW10893   0.605   2.248   1.364  0.1221 -0.1735  0.5733
 3318SOL    HW110894   0.555   2.242   1.282 -0.2913  3.0406  0.4863
 3318SOL    HW210895   0.562   2.317   1.414  2.7474  0.7287  1.7663
 3319SOL     OW10896   2.966   1.461   7.110  0.6099  0.3515 -0.3921
 3319SOL    HW110897   2.908   1.426   7.042 -1.9465  0.9657  1.3060
 3319SOL    HW210898   2.961   1.556   7.099 -0.2488  0.4869  0.8793
 3320SOL     OW10899   2.837   3.487   0.076  0.2466 -0.1466  0.1051
 3320SOL    HW110900   2.804   3.519  -0.008  0.1536  0.9672  0.5503
 3320SOL    HW210901   2.758   3.464   0.125  0.3279 -1.6615 -0.4161
 3321SOL     OW10902   5.522   7.221   3.926 -0.0538  0.1458  0.7498
 3321SOL    HW110903   5.509   7.290   3.861 -0.3538  2.0777  2.7357
 3321SOL    HW210904   5.434   7.201   3.957  0.0562 -1.0049  0.3755
 3322SOL     OW10905   1.409   1.046   3.648 -0.2580  0.1315 -0.1429
 3322SOL    HW110906   1.414   1.015   3.558 -0.0824 -1.1915  0.3065
 3322SOL    HW210907   1.491   1.093   3.661  1.2758 -2.4666  0.2972
 3323SOL     OW10908   3.142   5.829   4.198  0.0349 -0.0244 -0.3723
 3323SOL    HW110909   3.111   5.766   4.133 -1.1537 -0.0526  0.1872
 3323SOL    HW210910   3.180   5.900   4.147 -1.4737  0.2637 -1.1624
 3324SOL     OW10911   3.571   4.876   1.777  0.0446 -0.4331  0.1624
 3324SOL    HW110912   3.512   4.889   1.703 -1.5119  1.6506  1.6827
 3324SOL    HW210913   3.623   4.799   1.752 -1.0927 -0.4199 -2.6201
 3325SOL     OW10914   6.671   4.419   6.014 -0.7926  0.2570  0.2343
 3325SOL    HW110915   6.626   4.497   6.048 -0.2668  0.1870  1.1245
 3325SOL    HW210916   6.741   4.402   6.077  0.6029  0.4457 -1.2072
 3326SOL     OW10917   5.924   0.644   6.667 -0.1515 -0.4867 -0.5549
 3326SOL    HW110918   5.998   0.583   6.669 -0.5346 -0.9641 -0.8581
 3326SOL    HW210919   5.920   0.672   6.576  0.0136 -0.0146 -0.4195
 3327SOL     OW10920   2.515   3.768   3.683 -1.0036  0.1266  0.1369
 3327SOL    HW110921   2.424   3.795   3.682 -1.1284 -0.2011  1.1906
 3327SOL    HW210922   2.518   3.694   3.744 -0.2050 -0.4945 -0.6251
 3328SOL     OW10923   5.186   2.583   2.138 -0.3445  0.3662 -0.1237
 3328SOL    HW110924   5.182   2.592   2.043 -1.1952  0.6327 -0.0762
 3328SOL    HW210925   5.165   2.670   2.172 -0.1372  0.2521  0.3083
 3329SOL     OW10926   0.993   1.953   5.364  0.1336 -0.1368  0.1634
 3329SOL    HW110927   0.906   1.993   5.363 -0.1753 -0.8016 -0.2082
 3329SOL    HW210928   1.053   2.026   5.377 -0.3803  0.5327 -1.0267
 3330SOL     OW10929   0.256   4.113   4.351  0.3982  0.1087 -0.2398
 3330SOL    HW110930   0.253   4.019   4.368  0.2675 -0.1061 -1.3728
 3330SOL    HW210931   0.349   4.132   4.339  0.4756  0.2328  0.4853
 3331SOL     OW10932   5.025   7.195   1.113 -0.1477 -0.0920 -0.0038
 3331SOL    HW110933   5.025   7.102   1.136 -0.5930  0.2396  1.4335
 3331SOL    HW210934   5.113   7.226   1.136 -0.4874  0.1640  1.0349
 3332SOL     OW10935   6.797   3.803   0.033  0.0582  0.8477 -0.2410
 3332SOL    HW110936   6.799   3.808   0.129  0.9173 -1.3092 -0.0984
 3332SOL    HW210937   6.704   3.795   0.012 -0.0108 -2.0975  0.7313
 3333SOL     OW10938   2.699   4.752   2.304  1.0669 -0.6116 -0.3980
 3333SOL    HW110939   2.747   4.709   2.233  1.1398 -1.7913  0.3265
 3333SOL    HW210940   2.707   4.691   2.378 -0.3586 -0.1661  0.1540
 3334SOL     OW10941   4.992   4.134   5.580 -0.1947 -0.1396 -0.0149
 3334SOL    HW110942   5.030   4.145   5.666  1.2220  0.4183 -0.6829
 3334SOL    HW210943   4.995   4.040   5.564  0.9235 -0.1075 -0.0467
 3335SOL     OW10944   3.050   5.724   5.109 -0.3783  0.5337 -0.7982
 3335SOL    HW110945   3.041   5.799   5.168  1.9601  0.0972  0.2574
 3335SOL    HW210946   3.101   5.758   5.036  0.5961  0.0384 -0.3658
 3336SOL     OW10947   1.915   0.076   2.676 -0.0442 -0.4036 -0.6189
 3336SOL    HW110948   1.905   0.019   2.600  2.1404 -0.5898 -0.8140
 3336SOL    HW210949   1.901   0.164   2.642 -1.3122 -0.6371 -0.7492
 3337SOL     OW10950   1.390   2.032   0.576  0.1794 -0.2586 -0.1571
 3337SOL    HW110951   1.368   2.073   0.660 -1.3948  0.4055 -0.8497
 3337SOL    HW210952   1.323   1.965   0.564  1.9567 -2.2160  0.3348
 3338SOL     OW10953   6.109   3.370   3.765  0.0509  0.4641 -0.2395
 3338SOL    HW110954   6.088   3.314   3.840  0.2978 -0.2428 -0.6863
 3338SOL    HW210955   6.147   3.449   3.805 -0.3569  0.3472  0.4037
 3339SOL     OW10956   6.133   2.029   0.325  0.1881 -0.2494  0.6760
 3339SOL    HW110957   6.077   1.972   0.273 -0.6223  1.5855 -0.5390
 3339SOL    HW210958   6.073   2.073   0.385  0.3741  1.3070 -0.2399
 3340SOL     OW10959   5.698   5.246   3.785  0.1821 -0.2205 -0.1108
 3340SOL    HW110960   5.783   5.283   3.808 -0.5364  1.0835  0.5523
 3340SOL    HW210961   5.718   5.159   3.750  1.7630 -0.0006  0.1925
 3341SOL     OW10962   2.684   3.790   7.088 -0.7481 -0.0666 -0.0114
 3341SOL    HW110963   2.648   3.771   7.001 -0.8825  1.0759 -0.2300
 3341SOL    HW210964   2.659   3.881   7.104  1.7399  0.6694  0.0018
 3342SOL     OW10965   3.202   0.998   4.255  0.3143  0.4934  0.2652
 3342SOL    HW110966   3.182   1.004   4.162 -0.8033 -2.7754  0.1514
 3342SOL    HW210967   3.154   1.069   4.296 -1.4138  0.3442 -1.4049
 3343SOL     OW10968   1.135   1.109   5.546 -0.4617 -0.2323  0.4145
 3343SOL    HW110969   1.065   1.084   5.486 -0.2456  0.4840 -0.1471
 3343SOL    HW210970   1.155   1.200   5.523 -0.4980  0.1181  1.6957
 3344SOL     OW10971   0.051   5.498   7.405 -0.5403 -0.7295  0.6612
 3344SOL    HW110972   0.018   5.435   7.470 -0.3380 -1.1677  0.3468
 3344SOL    HW210973  -0.028   5.529   7.360 -0.6606 -0.5938  0.9604
 3345SOL     OW10974   0.320   6.410   5.730 -0.5173  0.0915  0.3479
 3345SOL    HW110975   0.239   6.362   5.719  1.2576 -2.9424 -0.7284
 3345SOL    HW210976   0.385   6.360   5.680  1.6977  3.3424 -0.4022
 3346SOL     OW10977   6.996   7.084   1.938  0.4485 -0.0632  0.0818
 3346SOL    HW110978   7.050   7.138   1.881 -1.8458  0.9206 -1.2793
 3346SOL    HW210979   6.955   7.146   1.998 -0.1461 -0.6143  0.2585
 3347SOL     OW10980   0.561   6.073   7.254 -0.4444 -0.4668 -0.2667
 3347SOL    HW110981   0.496   6.057   7.186 -0.6744  1.1059 -0.4514
 3347SOL    HW210982   0.606   6.153   7.225 -0.3345  0.0496  1.2657
 3348SOL     OW10983   6.202   1.513   4.480  0.2023 -0.1515 -0.5628
 3348SOL    HW110984   6.212   1.469   4.396 -0.5621 -0.5494 -0.4567
 3348SOL    HW210985   6.272   1.579   4.481  1.2473 -1.2225 -0.7995
 3349SOL     OW10986   5.918   4.292   4.789 -0.1885  0.3014 -0.0961
 3349SOL    HW110987   5.872   4.291   4.706 -0.5430 -1.2538  0.0740
 3349SOL    HW210988   5.948   4.202   4.800 -0.2124  0.4556  1.4786
 3350SOL     OW10989   6.362   6.641   4.462  0.3617  0.0306 -0.2777
 3350SOL    HW110990   6.341   6.601   4.377  1.1975  1.3446 -1.1410
 3350SOL    HW210991   6.397   6.727   4.440 -1.7358  1.4520  1.5168
 3351SOL     OW10992   0.213   2.977   4.304 -0.5517  0.1378 -0.5265
 3351SOL    HW110993   0.299   2.956   4.342 -0.0724  1.4517 -0.8061
 3351SOL    HW210994   0.232   2.993   4.212 -1.4477 -1.4640 -1.0218
 3352SOL     OW10995   0.796   6.080   4.699  0.2406 -0.1202  0.1960
 3352SOL    HW110996   0.876   6.102   4.652  0.3793  0.9414  0.8917
 3352SOL    HW210997   0.726   6.110   4.642  0.2868 -1.4953 -0.6416
 3353SOL     OW10998   4.706   1.311   5.293  0.3224  0.4715 -0.0734
 3353SOL    HW110999   4.765   1.243   5.260  0.1342  0.1912  0.1665
 3353SOL    HW211000   4.623   1.295   5.250  1.0861  2.5041 -2.5318
 3354SOL     OW11001   3.067   0.634   5.971  0.2762 -0.2260  0.7174
 3354SOL    HW111002   3.157   0.612   5.996  0.5955  1.4094  1.1452
 3354SOL    HW211003   3.020   0.638   6.054  0.1204  0.1727  0.6141
 3355SOL     OW11004   6.034   3.391   1.370  0.0516  0.5477  0.2822
 3355SOL    HW111005   5.945   3.381   1.405 -0.2809  0.1920 -0.6206
 3355SOL    HW211006   6.021   3.404   1.276  1.0202 -1.1533 -0.1257
 3356SOL     OW11007   6.824   5.300   2.353  0.6901  0.1125  0.0572
 3356SOL    HW111008   6.751   5.255   2.313  1.0337  0.1186 -0.5848
 3356SOL    HW211009   6.794   5.391   2.362  0.1734 -0.1311  0.9262
 3357SOL     OW11010   1.872   5.741   6.294  0.2835 -0.2436  0.4221
 3357SOL    HW111011   1.817   5.814   6.263 -0.2775 -0.0720  1.7576
 3357SOL    HW211012   1.920   5.778   6.368  1.0444 -0.8558  0.2452
 3358SOL     OW11013   6.121   2.034   4.766  0.0468  0.2492  0.5596
 3358SOL    HW111014   6.149   1.957   4.816  1.0914  0.3080  0.0852
 3358SOL    HW211015   6.066   2.083   4.826  0.2910 -0.3004  1.2422
 3359SOL     OW11016   5.257   5.145   5.322  0.0182  0.3096 -0.3638
 3359SOL    HW111017   5.274   5.070   5.380 -4.5924  0.0915  1.1320
 3359SOL    HW211018   5.282   5.221   5.374 -2.9628  0.0462  1.7636
 3360SOL     OW11019   4.645   4.874   3.979  0.8152  0.2113 -0.4839
 3360SOL    HW111020   4.590   4.881   4.057  0.9321 -1.3402 -0.2351
 3360SOL    HW211021   4.708   4.946   3.988 -0.3633  1.2294 -0.1418
 3361SOL     OW11022   4.470   1.955   3.303 -0.2899  0.6783  0.1310
 3361SOL    HW111023   4.487   2.029   3.361 -0.3772 -1.0421  2.4964
 3361SOL    HW211024   4.388   1.917   3.336  0.7946 -1.6451  0.2988
 3362SOL     OW11025   5.906   0.360   4.062  0.3191  0.7304 -0.0321
 3362SOL    HW111026   5.905   0.433   4.123 -1.6619  0.8557 -0.1372
 3362SOL    HW211027   5.846   0.385   3.993  1.0729 -0.2090 -1.0737
 3363SOL     OW11028   0.127   0.796   7.145 -0.1906 -0.1723 -0.2494
 3363SOL    HW111029   0.090   0.731   7.084 -0.1172 -0.0595 -0.4162
 3363SOL    HW211030   0.173   0.858   7.088 -1.0587  0.5546 -0.1867
 3364SOL     OW11031   6.300   7.354   4.059  0.3325 -0.6417  0.6585
 3364SOL    HW111032   6.373   7.347   3.998 -0.0099 -0.4073  0.2197
 3364SOL    HW211033   6.227   7.311   4.015  0.1611 -0.7383  1.0287
 3365SOL     OW11034   4.384   1.728   6.944  0.0340  0.4331 -0.6099
 3365SOL    HW111035   4.297   1.698   6.970  0.2644 -0.1994 -0.5586
 3365SOL    HW211036   4.444   1.682   7.002  0.4587  0.1726 -1.2473
 3366SOL     OW11037   5.685   0.833   3.777  0.2197  0.2063  0.1487
 3366SOL    HW111038   5.661   0.879   3.858 -1.7807 -2.4885  1.2221
 3366SOL    HW211039   5.766   0.788   3.799 -0.4881 -0.7859  0.8462
 3367SOL     OW11040   0.765   2.132   6.025  0.6639  0.1284  0.9093
 3367SOL    HW111041   0.766   2.173   6.111  1.3636  2.2436 -0.0482
 3367SOL    HW211042   0.845   2.161   5.983  1.3228 -2.4425  0.1803
 3368SOL     OW11043   3.544   3.896   4.493  0.4093  1.0536  0.1067
 3368SOL    HW111044   3.594   3.828   4.538  0.6287  0.7961 -0.5193
 3368SOL    HW211045   3.561   3.881   4.400 -3.0965 -0.9068 -0.3908
 3369SOL     OW11046   6.105   0.838   5.161 -0.2149 -0.0889  0.1609
 3369SOL    HW111047   6.155   0.769   5.204  0.0870 -0.7040 -1.1264
 3369SOL    HW211048   6.167   0.911   5.153  0.1688 -0.4732 -0.4704
 3370SOL     OW11049   3.703   2.235   2.472  0.1023 -0.1387  0.0851
 3370SOL    HW111050   3.746   2.149   2.472  1.5256  0.4565 -2.4429
 3370SOL    HW211051   3.747   2.284   2.541  1.9220 -0.3236 -0.8748
 3371SOL     OW11052   5.519   2.201   5.329 -0.4540 -0.2233  0.1993
 3371SOL    HW111053   5.610   2.198   5.359 -0.6102  0.5752  0.7532
 3371SOL    HW211054   5.482   2.118   5.359 -0.5153  0.3978  1.9666
 3372SOL     OW11055   1.802   7.383   5.956  0.0276  0.3650  0.5696
 3372SOL    HW111056   1.877   7.329   5.934 -0.8695 -1.0296  0.7745
 3372SOL    HW211057   1.770   7.348   6.039 -1.1923  0.5086  0.1954
 3373SOL     OW11058   6.368   6.837   3.146  0.6210  0.5599 -0.2822
 3373SOL    HW111059   6.377   6.899   3.219 -3.5049 -0.8853  1.7962
 3373SOL    HW211060   6.377   6.751   3.187 -1.8682 -0.2977 -1.3414
 3374SOL     OW11061   3.019   4.585   2.604  0.4613  0.4256 -0.0529
 3374SOL    HW111062   3.061   4.665   2.637  1.5681 -0.9670  2.1758
 3374SOL    HW211063   3.036   4.587   2.509  2.7173  1.5768  0.2978
 3375SOL     OW11064   7.385   1.056   3.462  0.7187 -0.8830  0.4026
 3375SOL    HW111065   7.469   1.036   3.504  0.7776  0.5517  1.0298
 3375SOL    HW211066   7.326   1.076   3.535 -0.1810 -1.8449 -0.0335
 3376SOL     OW11067   4.730   6.259   3.246  0.2713  0.1114  0.7871
 3376SOL    HW111068   4.639   6.267   3.216  0.0174 -1.6667  0.9397
 3376SOL    HW211069   4.781   6.252   3.166  0.1304 -0.0902  0.7140
 3377SOL     OW11070   2.996   5.200   1.973 -0.1147 -0.2083 -0.1226
 3377SOL    HW111071   2.923   5.243   1.929 -0.0074 -1.1248 -1.2607
 3377SOL    HW211072   2.961   5.116   2.003 -0.0619  0.2228  1.1606
 3378SOL     OW11073   1.192   6.909   3.889  0.0838  0.5667  0.5297
 3378SOL    HW111074   1.172   7.000   3.909 -1.0743  0.8057 -1.4850
 3378SOL    HW211075   1.236   6.912   3.804 -2.3337 -0.8760 -0.8671
 3379SOL     OW11076   1.259   3.698   2.391  0.4301 -0.5047  0.2523
 3379SOL    HW111077   1.219   3.691   2.478  0.2980 -1.8267  0.1012
 3379SOL    HW211078   1.351   3.716   2.409  0.0791  1.0411  0.6237
 3380SOL     OW11079   6.819   3.482   7.237  0.3480  0.1368  0.6121
 3380SOL    HW111080   6.793   3.480   7.329 -1.7267  0.8890  0.1139
 3380SOL    HW211081   6.901   3.531   7.236 -0.3149  1.3374  1.9416
 3381SOL     OW11082   7.056   5.251   4.127  0.4240 -0.2484  0.6097
 3381SOL    HW111083   7.048   5.300   4.209  0.5781 -0.2037  0.5990
 3381SOL    HW211084   7.059   5.160   4.154 -0.3072 -0.2780  0.5996
 3382SOL     OW11085   4.604   5.641   6.465  0.1019  0.2171  0.1864
 3382SOL    HW111086   4.666   5.679   6.403 -1.6598  1.8304 -0.6937
 3382SOL    HW211087   4.539   5.597   6.410  0.2644 -1.1777  1.0693
 3383SOL     OW11088   1.335   2.482   1.918 -0.3154  0.0864 -0.4896
 3383SOL    HW111089   1.269   2.544   1.887  0.3400  0.2781 -1.5175
 3383SOL    HW211090   1.284   2.416   1.965 -1.4305 -0.4782 -2.3843
 3384SOL     OW11091   5.660   2.692   7.353  0.0471  0.2833 -0.2414
 3384SOL    HW111092   5.717   2.623   7.319  0.2260 -0.3832  1.3284
 3384SOL    HW211093   5.589   2.644   7.397 -1.7464  1.0862 -2.0700
 3385SOL     OW11094   5.091   1.012   3.139  0.5883  0.1502 -0.1848
 3385SOL    HW111095   5.080   1.055   3.054 -2.0351 -0.1262 -0.0595
 3385SOL    HW211096   5.053   0.926   3.127 -0.8391  0.5014  1.5594
 3386SOL     OW11097   0.104   3.404   7.281 -0.0985  0.3588 -0.2334
 3386SOL    HW111098   0.072   3.478   7.229 -1.1834 -0.4954 -0.8369
 3386SOL    HW211099   0.069   3.421   7.369  0.3060  0.9408 -0.1767
 3387SOL     OW11100   0.464   2.440   5.489 -0.4813  0.3140  0.9900
 3387SOL    HW111101   0.406   2.428   5.413 -0.3869  0.0539  0.9581
 3387SOL    HW211102   0.509   2.523   5.471  1.9171 -1.2554 -0.8454
 3388SOL     OW11103   1.890   6.030   3.242 -0.2720 -0.1322  1.0337
 3388SOL    HW111104   1.868   5.988   3.159  1.6323 -0.2667  0.5496
 3388SOL    HW211105   1.809   6.027   3.293 -1.6570  0.4442 -1.0089
 3389SOL     OW11106   4.780   6.002   3.352  0.1003  0.4263  0.4519
 3389SOL    HW111107   4.759   6.095   3.344 -1.3921  0.2211  1.4693
 3389SOL    HW211108   4.701   5.957   3.322  0.9368 -0.5495 -0.3821
 3390SOL     OW11109   6.458   6.139   5.099 -0.0628  0.1156 -0.2210
 3390SOL    HW111110   6.417   6.204   5.042  0.2495  0.8845  0.4242
 3390SOL    HW211111   6.469   6.183   5.183  0.8589 -0.5104  0.0046
 3391SOL     OW11112   2.347   0.403   4.436 -0.2179  0.1365  0.7851
 3391SOL    HW111113   2.346   0.310   4.459  0.1550 -0.2852 -0.8114
 3391SOL    HW211114   2.328   0.448   4.519 -2.0535 -1.4005  1.2808
 3392SOL     OW11115   4.766   1.605   1.120  0.3867  0.0978 -0.0349
 3392SOL    HW111116   4.788   1.572   1.207  2.5620 -1.2803 -1.0179
 3392SOL    HW211117   4.767   1.700   1.129  0.5209 -0.0162  1.4226
 3393SOL     OW11118   5.596   6.463   4.941 -0.1756 -0.4914 -0.0825
 3393SOL    HW111119   5.619   6.395   4.877  0.8660 -1.2289  1.0268
 3393SOL    HW211120   5.515   6.432   4.981 -3.0097  1.7469 -3.4763
 3394SOL     OW11121   2.227   5.134   6.829  0.3935 -0.2848 -0.2913
 3394SOL    HW111122   2.212   5.082   6.750 -1.0991 -0.5179  0.1133
 3394SOL    HW211123   2.230   5.225   6.798  0.2471 -0.4053 -0.6626
 3395SOL     OW11124   1.750   6.531   4.709  0.3194 -0.3470  0.6193
 3395SOL    HW111125   1.685   6.583   4.757 -1.8152 -0.1464 -2.2895
 3395SOL    HW211126   1.702   6.456   4.675  1.7161 -0.4580 -1.2475
 3396SOL     OW11127   4.235   0.997   0.200  0.3104 -0.2866 -0.1327
 3396SOL    HW111128   4.242   0.908   0.233  1.7853 -0.1176  0.0841
 3396SOL    HW211129   4.297   1.000   0.126 -1.4660 -0.1054 -1.7046
 3397SOL     OW11130   0.963   2.001   6.345 -0.0252 -0.0883 -0.0413
 3397SOL    HW111131   0.991   1.928   6.400 -3.0422  0.6110  2.7636
 3397SOL    HW211132   0.935   1.960   6.263  2.0480 -1.5288 -0.0977
 3398SOL     OW11133   0.162   4.709   1.356  0.3030 -0.0414  0.1851
 3398SOL    HW111134   0.073   4.743   1.356  0.3787  0.2112 -1.1879
 3398SOL    HW211135   0.216   4.783   1.384  0.1345 -0.0872  0.6499
 3399SOL     OW11136   3.175   4.331   0.190  0.5696 -0.1319  0.6272
 3399SOL    HW111137   3.090   4.344   0.231  0.3277  3.3459 -0.6173
 3399SOL    HW211138   3.179   4.237   0.171 -3.3362 -0.3405  0.0443
 3400SOL     OW11139   5.744   3.150   6.132 -0.3813  0.3041 -0.0850
 3400SOL    HW111140   5.785   3.074   6.174 -0.6033 -0.2468 -0.8453
 3400SOL    HW211141   5.818   3.201   6.098 -0.2713 -0.7282 -1.5215
 3401SOL     OW11142   4.585   7.281   4.301 -0.1843 -0.3120 -0.1454
 3401SOL    HW111143   4.525   7.210   4.279 -1.1409  1.2289 -3.0468
 3401SOL    HW211144   4.530   7.346   4.344  0.4560 -0.7725  1.4533
 3402SOL     OW11145   2.491   5.668   1.677  0.2139  1.0371 -0.3080
 3402SOL    HW111146   2.551   5.613   1.728  0.0314  0.3153 -0.8511
 3402SOL    HW211147   2.536   5.752   1.669  0.2421  1.1757  1.0480
 3403SOL     OW11148   4.516   1.564   0.629 -0.1730  0.0329 -0.0968
 3403SOL    HW111149   4.442   1.527   0.676  0.4269  0.1650  0.9652
 3403SOL    HW211150   4.499   1.659   0.628  0.4405  0.1573  0.9603
 3404SOL     OW11151   5.217   3.963   0.119  0.2946 -0.4227 -0.6528
 3404SOL    HW111152   5.241   3.990   0.207  1.1237 -2.3342 -0.2331
 3404SOL    HW211153   5.174   3.878   0.131 -0.9250 -0.0382 -1.9735
 3405SOL     OW11154   6.712   7.322   5.384  0.0906 -0.0742  0.2667
 3405SOL    HW111155   6.787   7.333   5.326  0.3224 -0.3225  0.5158
 3405SOL    HW211156   6.687   7.411   5.408 -0.8463  0.1150 -1.2647
 3406SOL     OW11157   5.286   4.791   1.046 -0.2894  0.1636 -0.2150
 3406SOL    HW111158   5.326   4.811   0.962 -0.5082  2.3383  0.1518
 3406SOL    HW211159   5.340   4.836   1.110 -0.5440 -0.8672  0.7582
 3407SOL     OW11160   7.209   4.431   3.135  0.1080  0.4911  0.1112
 3407SOL    HW111161   7.251   4.373   3.071  0.6437  1.7526 -0.7177
 3407SOL    HW211162   7.240   4.400   3.220  2.1258  0.8803 -0.4291
 3408SOL     OW11163   6.825   6.020   3.725  0.0685  0.2385  0.3082
 3408SOL    HW111164   6.757   5.987   3.784  0.7653  0.8261  1.4981
 3408SOL    HW211165   6.832   5.955   3.656 -1.6203  0.1269  0.2183
 3409SOL     OW11166   2.999   6.498   2.633  0.0401 -0.0352  0.3146
 3409SOL    HW111167   2.947   6.443   2.574  1.6903 -1.3645  0.0352
 3409SOL    HW211168   3.087   6.498   2.594  0.2527  2.3257  0.6517
 3410SOL     OW11169   3.748   2.383   3.844  0.2413 -0.2991  0.4788
 3410SOL    HW111170   3.676   2.338   3.890 -0.6274 -0.9408 -1.4285
 3410SOL    HW211171   3.710   2.466   3.816  0.5771 -0.1738  0.3933
 3411SOL     OW11172   1.804   1.069   2.922 -0.3009 -0.1333 -0.3258
 3411SOL    HW111173   1.750   1.129   2.974 -0.0420 -2.2278  2.6316
 3411SOL    HW211174   1.752   0.989   2.917  0.8732 -0.8865 -0.9222
 3412SOL     OW11175   2.710   6.848   0.542  0.2477  0.0982  0.0566
 3412SOL    HW111176   2.726   6.939   0.514  0.3397  1.1273  3.0694
 3412SOL    HW211177   2.617   6.845   0.561 -0.4265 -1.4384 -2.8770
 3413SOL     OW11178   2.950   6.805   6.029 -0.0668 -0.3614  0.3278
 3413SOL    HW111179   2.979   6.722   5.993 -0.0094  0.1179 -0.7540
 3413SOL    HW211180   3.030   6.855   6.045 -0.1117 -0.4309  0.8061
 3414SOL     OW11181   2.886   3.918   5.180 -0.0205  0.0623  0.6773
 3414SOL    HW111182   2.968   3.956   5.148 -0.8064  0.4806 -0.9911
 3414SOL    HW211183   2.859   3.975   5.251 -0.0638  1.3623 -0.3406
 3415SOL     OW11184   0.007   3.956   7.112  0.1905 -0.0503 -0.4946
 3415SOL    HW111185   0.026   3.919   7.026 -0.2533  1.0714 -1.1000
 3415SOL    HW211186  -0.064   3.902   7.146  0.2594 -0.4028 -0.9052
 3416SOL     OW11187   2.033   6.265   6.559  0.1406 -0.4723  0.1383
 3416SOL    HW111188   2.111   6.245   6.611  0.5176  1.3348  0.3579
 3416SOL    HW211189   2.011   6.183   6.515  3.1541 -0.6763 -1.2303
 3417SOL     OW11190   5.431   1.678   6.030  0.1964 -0.0686  0.1496
 3417SOL    HW111191   5.469   1.637   5.952 -1.7860 -1.2243 -0.2987
 3417SOL    HW211192   5.414   1.768   6.004 -0.4766 -0.4503 -0.8288
 3418SOL     OW11193   6.699   7.269   4.301  0.0227 -0.4875  0.1431
 3418SOL    HW111194   6.603   7.264   4.301 -0.0877  1.1119  0.5803
 3418SOL    HW211195   6.718   7.361   4.319  1.6601 -0.9642  1.0130
 3419SOL     OW11196   6.964   3.222   0.614 -0.3954  0.1933 -0.3636
 3419SOL    HW111197   6.923   3.308   0.601 -2.2696 -0.4987  0.5866
 3419SOL    HW211198   6.896   3.169   0.655  1.2416 -1.2865  0.5871
 3420SOL     OW11199   4.293   4.911   5.194 -0.3515  0.4845  0.2184
 3420SOL    HW111200   4.325   4.844   5.255 -1.6169  0.7016  1.1456
 3420SOL    HW211201   4.274   4.986   5.250 -0.8325  0.9375 -0.5543
 3421SOL     OW11202   3.085   6.376   6.521  0.1813  0.2076 -0.1056
 3421SOL    HW111203   3.161   6.379   6.580  0.1762  0.6802 -0.1254
 3421SOL    HW211204   3.121   6.347   6.437  0.1723 -0.5725  0.1501
 3422SOL     OW11205   6.310   0.578   1.389  0.4573  0.1348 -0.0754
 3422SOL    HW111206   6.352   0.495   1.410  2.4184  1.0080 -0.3179
 3422SOL    HW211207   6.285   0.571   1.297  2.9336  0.6670 -0.8557
 3423SOL     OW11208   2.157   0.829   3.299 -0.6542  0.2459 -0.3517
 3423SOL    HW111209   2.154   0.925   3.297  0.9963  0.3184 -0.6800
 3423SOL    HW211210   2.153   0.803   3.207  1.8050  0.1837 -0.5209
 3424SOL     OW11211   4.555   3.567   4.361 -0.0794  0.5638 -0.3960
 3424SOL    HW111212   4.497   3.523   4.423  1.4651 -1.0317 -0.0018
 3424SOL    HW211213   4.505   3.643   4.331 -1.0312  1.2477  2.5645
 3425SOL     OW11214   0.964   2.802   2.588  0.5315  0.0318 -0.0607
 3425SOL    HW111215   0.869   2.799   2.582  0.3961  2.4416 -0.3553
 3425SOL    HW211216   0.982   2.800   2.682  0.3080 -1.6135 -0.0235
 3426SOL     OW11217   2.460   3.547   1.897 -0.1923 -0.8266 -0.1107
 3426SOL    HW111218   2.502   3.487   1.836  0.0843 -2.3418  1.4969
 3426SOL    HW211219   2.482   3.513   1.984  0.6572  2.0398  0.9503
 3427SOL     OW11220   3.413   2.851   3.531 -0.4129  0.1489  0.0094
 3427SOL    HW111221   3.346   2.792   3.565  0.6958 -0.6502  0.9045
 3427SOL    HW211222   3.394   2.936   3.571  0.1974 -0.5117  1.8122
 3428SOL     OW11223   3.484   2.068   2.471 -0.3726 -0.4620 -0.2150
 3428SOL    HW111224   3.518   1.982   2.446  0.3422 -0.3867  0.4581
 3428SOL    HW211225   3.560   2.126   2.467 -0.8676  0.1697 -0.7561
 3429SOL     OW11226   0.168   1.259   1.517 -0.6367 -0.0002 -0.1484
 3429SOL    HW111227   0.181   1.164   1.524  2.2317  0.1070 -2.0405
 3429SOL    HW211228   0.252   1.297   1.544 -1.1713  1.8931 -0.9689
 3430SOL     OW11229   3.561   2.606   3.853 -0.4676  0.1187 -0.3493
 3430SOL    HW111230   3.554   2.619   3.758  1.4497 -1.7952 -0.8580
 3430SOL    HW211231   3.642   2.651   3.877 -1.1119  0.8724  0.4734
 3431SOL     OW11232   6.747   2.519   7.073 -0.4026 -0.1180 -0.4752
 3431SOL    HW111233   6.704   2.477   7.147 -2.7113 -1.8465 -2.6161
 3431SOL    HW211234   6.716   2.609   7.075  2.2036  0.8881  2.4257
 3432SOL     OW11235   6.467   6.394   5.276 -0.1762 -0.3311 -0.1414
 3432SOL    HW111236   6.524   6.427   5.207  0.0116  1.1244  0.6624
 3432SOL    HW211237   6.388   6.448   5.270 -0.0480  0.0101  0.9301
 3433SOL     OW11238   5.067   6.915   1.190 -0.1166 -0.2274  0.0771
 3433SOL    HW111239   5.138   6.861   1.225  0.8698  0.5178 -0.7034
 3433SOL    HW211240   5.050   6.878   1.103 -0.7577 -0.4582  0.2959
 3434SOL     OW11241   5.979   7.246   1.776 -0.3642 -0.3587 -0.3060
 3434SOL    HW111242   5.885   7.262   1.791 -0.0854  1.2990 -0.1507
 3434SOL    HW211243   5.988   7.246   1.681 -0.2124  1.7840 -0.3428
 3435SOL     OW11244   2.414   6.073   0.598  0.7886  0.2508  0.1563
 3435SOL    HW111245   2.352   6.070   0.524  1.7847 -1.0126 -0.6779
 3435SOL    HW211246   2.359   6.057   0.675 -0.0178 -0.2933 -0.5090
 3436SOL     OW11247   3.232   4.185   6.599 -0.0914 -0.9630 -0.0664
 3436SOL    HW111248   3.200   4.265   6.642 -0.0579 -1.8354  1.6903
 3436SOL    HW211249   3.243   4.210   6.508  0.3052  1.1575  0.4950
 3437SOL     OW11250   5.016   6.610   2.865  0.1234  1.1122 -0.2318
 3437SOL    HW111251   5.038   6.690   2.817  1.4303  1.5216  1.0075
 3437SOL    HW211252   5.063   6.541   2.818  0.0284  1.2538 -0.5407
 3438SOL     OW11253   0.200   6.559   0.766 -0.3653 -0.7386  0.1540
 3438SOL    HW111254   0.111   6.529   0.785  0.1701 -0.5068  3.7138
 3438SOL    HW211255   0.193   6.655   0.767 -0.0048 -0.7094  1.1515
 3439SOL     OW11256   3.285   3.754   6.859  0.6839  0.3537  0.1568
 3439SOL    HW111257   3.215   3.811   6.892 -1.3993 -2.6965  1.4850
 3439SOL    HW211258   3.251   3.720   6.776  1.8511  0.9118 -0.5685
 3440SOL     OW11259   0.406   3.327   4.489  0.0866 -0.2674  0.5110
 3440SOL    HW111260   0.357   3.330   4.407  2.3393 -0.4793 -0.9521
 3440SOL    HW211261   0.355   3.380   4.550 -0.9186  1.1811 -1.4659
 3441SOL     OW11262   2.022   3.742   4.716  0.4847  0.3372 -0.1638
 3441SOL    HW111263   2.069   3.813   4.672 -0.3355  0.6773 -0.5187
 3441SOL    HW211264   1.989   3.688   4.644  2.4644 -1.3651  0.1041
 3442SOL     OW11265   3.964   5.909   3.360 -0.2138  0.3222  0.3340
 3442SOL    HW111266   4.045   5.923   3.409 -0.4465  1.3345  0.4626
 3442SOL    HW211267   3.993   5.884   3.273  0.2534  0.9420  0.3032
 3443SOL     OW11268   5.527   5.204   4.025 -0.2957 -0.2077  0.1772
 3443SOL    HW111269   5.536   5.109   4.018 -1.0411 -0.2806  0.1063
 3443SOL    HW211270   5.567   5.239   3.945  1.9076 -0.3115  1.1554
 3444SOL     OW11271   0.970   1.762   2.607  0.2234 -0.0863 -0.6669
 3444SOL    HW111272   1.014   1.791   2.687 -0.4657 -0.3834 -0.1703
 3444SOL    HW211273   0.881   1.796   2.615  0.0517 -0.4156 -1.1474
 3445SOL     OW11274   5.874   3.123   3.203  0.0423  0.2074 -0.5154
 3445SOL    HW111275   5.941   3.142   3.269 -0.2977 -0.9611  0.1826
 3445SOL    HW211276   5.862   3.028   3.206  0.2881  0.0527 -2.5399
 3446SOL     OW11277   3.794   6.519   1.122 -0.0059 -0.1488 -0.6493
 3446SOL    HW111278   3.754   6.605   1.116 -1.1960 -0.6128  0.1657
 3446SOL    HW211279   3.770   6.487   1.209  0.8116 -1.1131 -0.7502
 3447SOL     OW11280   2.535   0.687   4.275 -0.0666  0.5387  0.8353
 3447SOL    HW111281   2.531   0.748   4.202  1.2014  1.0449  1.1639
 3447SOL    HW211282   2.558   0.603   4.235 -1.7949  0.2372  0.3851
 3448SOL     OW11283   0.194   2.375   5.715 -0.2237 -0.0642  0.3314
 3448SOL    HW111284   0.278   2.404   5.751 -0.4059  0.3772  0.4082
 3448SOL    HW211285   0.156   2.454   5.676 -0.7279 -0.1997  0.5381
 3449SOL     OW11286   5.533   4.546   1.126  0.1375  0.0001 -0.0388
 3449SOL    HW111287   5.472   4.590   1.184 -0.2310 -0.6765  0.0905
 3449SOL    HW211288   5.576   4.617   1.079 -1.0769  0.4700 -0.4719
 3450SOL     OW11289   2.749   5.173   1.204 -0.3057  0.0476  0.0479
 3450SOL    HW111290   2.834   5.216   1.211 -0.0176 -0.5015 -0.0541
 3450SOL    HW211291   2.757   5.115   1.129 -1.0891  0.6990 -0.5548
 3451SOL     OW11292   2.346   2.667   5.840 -0.7730  0.4222  0.8269
 3451SOL    HW111293   2.430   2.626   5.822 -1.5196 -1.1107  0.6955
 3451SOL    HW211294   2.286   2.594   5.854 -1.9906  1.4883  1.3799
 3452SOL     OW11295   2.864   2.257   0.461 -0.1162  0.4720  0.0251
 3452SOL    HW111296   2.845   2.333   0.406 -2.0310  0.6681  0.8927
 3452SOL    HW211297   2.800   2.191   0.435  2.0777 -1.2349 -1.3349
 3453SOL     OW11298   6.257   4.763   6.999  0.0735 -0.1788  0.0837
 3453SOL    HW111299   6.348   4.786   7.014  0.4295 -1.0982 -0.5587
 3453SOL    HW211300   6.261   4.689   6.937 -1.1059 -0.0233 -0.2027
 3454SOL     OW11301   4.330   0.582   2.168 -0.4827  0.1639  0.4079
 3454SOL    HW111302   4.304   0.497   2.132 -0.7152  0.1300  0.6520
 3454SOL    HW211303   4.412   0.564   2.214 -0.1806  0.2084 -0.0981
 3455SOL     OW11304   2.078   5.303   3.953  0.2577  0.0185 -0.2298
 3455SOL    HW111305   2.045   5.220   3.918 -0.6113 -1.0000  2.7136
 3455SOL    HW211306   2.164   5.314   3.913  0.5218 -2.4784 -0.4797
 3456SOL     OW11307   2.448   5.867   3.036 -0.2492 -0.5995 -0.1344
 3456SOL    HW111308   2.399   5.861   3.118  0.4137  1.8240  0.5288
 3456SOL    HW211309   2.461   5.776   3.008 -0.3027 -1.5082  2.5482
 3457SOL     OW11310   3.240   5.087   5.729 -0.0587  0.0137  0.4850
 3457SOL    HW111311   3.163   5.052   5.683 -0.3144  2.9766 -1.6721
 3457SOL    HW211312   3.204   5.148   5.793  0.4019  1.4937 -0.6064
 3458SOL     OW11313   1.332   2.555   2.268 -0.3274 -0.1278  0.4658
 3458SOL    HW111314   1.276   2.598   2.333 -1.3316 -0.3800 -0.2167
 3458SOL    HW211315   1.272   2.524   2.201  0.6201 -0.5697 -0.2015
 3459SOL     OW11316   1.848   7.205   4.570 -0.4183  0.2360  0.3103
 3459SOL    HW111317   1.919   7.142   4.563 -0.6470 -0.0667  0.7047
 3459SOL    HW211318   1.869   7.272   4.504  0.7061  0.6180  1.0128
 3460SOL     OW11319   1.779   7.215   3.703  0.2797 -0.4723  0.2681
 3460SOL    HW111320   1.744   7.131   3.674  1.1438 -1.4858  2.0092
 3460SOL    HW211321   1.743   7.227   3.791  1.8907 -0.1041  0.9130
 3461SOL     OW11322   1.679   5.948   6.021 -0.1138  0.3709 -0.2364
 3461SOL    HW111323   1.740   5.980   6.087  0.2038 -0.0347 -0.3328
 3461SOL    HW211324   1.727   5.956   5.938 -0.3391  0.4336 -0.3615
 3462SOL     OW11325   2.048   3.367   4.562  0.1015  0.4812  0.1325
 3462SOL    HW111326   2.023   3.453   4.529  1.3757  0.3428 -1.3524
 3462SOL    HW211327   1.980   3.344   4.625 -2.2270  1.0519 -2.0132
 3463SOL     OW11328   0.990   1.456   2.253  0.0774 -0.2117 -0.4605
 3463SOL    HW111329   0.929   1.468   2.181  1.6054 -0.0390 -1.7780
 3463SOL    HW211330   1.035   1.540   2.260 -2.0087  0.8612  2.7043
 3464SOL     OW11331   4.977   4.416   1.747 -0.1051  0.5445 -0.0799
 3464SOL    HW111332   5.003   4.385   1.834  0.7565  0.5780 -0.3102
 3464SOL    HW211333   4.987   4.511   1.752  0.0040  0.5410 -0.2325
 3465SOL     OW11334   4.885   1.209   1.267 -0.1482  0.0460  0.0455
 3465SOL    HW111335   4.968   1.228   1.311 -1.2409  0.9298  1.8469
 3465SOL    HW211336   4.866   1.287   1.216  0.7832 -0.7155 -1.5464
 3466SOL     OW11337   5.992   6.603   3.584  0.4452 -0.5332  0.2898
 3466SOL    HW111338   6.084   6.616   3.562 -0.1283  0.1106 -2.0231
 3466SOL    HW211339   5.959   6.692   3.603 -0.5305 -0.0873 -2.8582
 3467SOL     OW11340   6.316   4.735   7.315 -0.0211 -0.1294 -0.2081
 3467SOL    HW111341   6.356   4.712   7.231 -0.3053 -2.4286  0.2064
 3467SOL    HW211342   6.336   4.660   7.372 -0.3331  1.1073  1.6062
 3468SOL     OW11343   1.024   1.727   2.333  0.1139 -0.2133 -0.5961
 3468SOL    HW111344   1.096   1.791   2.336  0.8843 -0.9361 -2.0992
 3468SOL    HW211345   0.995   1.719   2.423  0.9691  1.1743 -0.1588
 3469SOL     OW11346   4.800   7.007   4.861 -0.7449 -0.1664 -0.6677
 3469SOL    HW111347   4.731   7.050   4.912 -0.4398  2.4371 -2.2771
 3469SOL    HW211348   4.811   6.922   4.903 -0.8705  1.5482  3.2388
 3470SOL     OW11349   3.536   5.341   3.038 -0.1386 -0.4746 -0.1813
 3470SOL    HW111350   3.613   5.346   2.981 -0.3844 -0.3361 -0.5129
 3470SOL    HW211351   3.462   5.344   2.977 -0.4099 -0.1417  0.1615
 3471SOL     OW11352   7.222   2.119   2.719  0.4153  0.1712  0.0492
 3471SOL    HW111353   7.235   2.137   2.812 -0.2052 -1.4185  0.4799
 3471SOL    HW211354   7.130   2.139   2.703  0.5029  0.3777 -0.2079
 3472SOL     OW11355   3.404   4.857   2.666 -0.2513 -0.0553 -0.1284
 3472SOL    HW111356   3.371   4.944   2.642 -2.0822 -0.6369  0.1414
 3472SOL    HW211357   3.375   4.800   2.594 -1.4176 -0.9014  0.9779
 3473SOL     OW11358   0.831   2.339   2.517  0.3951  0.1772  0.1143
 3473SOL    HW111359   0.813   2.380   2.601 -0.5623 -0.3311  0.1700
 3473SOL    HW211360   0.926   2.344   2.508  0.4719  0.6038  1.0290
 3474SOL     OW11361   3.016   6.676   0.269  0.2719  0.8335  0.4617
 3474SOL    HW111362   3.024   6.763   0.232  1.0452 -0.4014 -2.5264
 3474SOL    HW211363   3.102   6.636   0.256 -0.7169 -1.1329 -0.3671
 3475SOL     OW11364   5.712   6.567   4.208  0.3591  0.4586  0.3379
 3475SOL    HW111365   5.628   6.522   4.203 -0.3956  1.6235  1.7401
 3475SOL    HW211366   5.739   6.579   4.117 -2.6486  3.0686 -0.3698
 3476SOL     OW11367   7.176   0.749   7.135  0.0297 -0.0202 -0.3777
 3476SOL    HW111368   7.085   0.777   7.126  0.2626  0.8729 -0.0647
 3476SOL    HW211369   7.186   0.680   7.069 -1.2032 -1.0054  0.4261
 3477SOL     OW11370   4.249   4.356   2.224  0.2854 -0.2720  0.4139
 3477SOL    HW111371   4.274   4.320   2.309 -0.5163 -0.7744  0.4510
 3477SOL    HW211372   4.294   4.301   2.160 -1.3561 -1.7240  0.4566
 3478SOL     OW11373   4.453   6.476   5.009 -0.0941 -0.4015 -0.8958
 3478SOL    HW111374   4.435   6.563   5.044  0.5383 -0.8962  0.7400
 3478SOL    HW211375   4.367   6.445   4.979 -1.0022 -0.5279  1.6340
 3479SOL     OW11376   4.845   0.299   3.272  0.3360  0.4444 -0.0177
 3479SOL    HW111377   4.837   0.269   3.363 -0.5569  1.4413  0.2541
 3479SOL    HW211378   4.852   0.219   3.221 -0.3740 -0.1788  0.8264
 3480SOL     OW11379   6.585   0.386   0.353 -0.2842  0.4237  0.2659
 3480SOL    HW111380   6.582   0.303   0.399  0.0254  0.0258 -0.4152
 3480SOL    HW211381   6.634   0.368   0.272  1.6229  1.7126  1.0423
 3481SOL     OW11382   1.665   6.261   3.283  0.2192 -0.2167 -0.2901
 3481SOL    HW111383   1.594   6.295   3.228  0.3699  1.3952  0.4727
 3481SOL    HW211384   1.633   6.174   3.311 -1.5098  0.4974  0.1025
 3482SOL     OW11385   5.456   2.127   4.054 -0.3701 -0.0507 -0.3256
 3482SOL    HW111386   5.421   2.065   4.118  0.2986 -0.4110 -0.2982
 3482SOL    HW211387   5.508   2.189   4.106  2.2528 -1.7732 -0.6903
 3483SOL     OW11388   3.191   1.607   1.243 -0.1916 -0.0476  0.2330
 3483SOL    HW111389   3.100   1.591   1.270 -0.4167  1.4985  0.4687
 3483SOL    HW211390   3.197   1.702   1.232  1.3359 -0.1461 -0.0475
 3484SOL     OW11391   5.730   7.422   1.258  0.2863 -0.0050  0.3956
 3484SOL    HW111392   5.763   7.468   1.335  1.7257 -0.5245  0.1212
 3484SOL    HW211393   5.741   7.484   1.186 -0.8818  0.4110  0.5547
 3485SOL     OW11394   3.010   3.966   0.011  0.5508  0.0647  0.5953
 3485SOL    HW111395   3.047   3.881   0.034 -0.6148 -0.7556 -0.4563
 3485SOL    HW211396   2.954   3.989   0.086  1.5684  0.3565  1.2814
 3486SOL     OW11397   1.262   3.045   5.377  0.1876 -0.4421  0.2194
 3486SOL    HW111398   1.307   2.963   5.396  0.3232 -0.7745 -1.4306
 3486SOL    HW211399   1.187   3.020   5.324  0.3039  0.5072 -0.4108
 3487SOL     OW11400   4.136   4.422   6.773 -0.0572  0.2926  0.2952
 3487SOL    HW111401   4.179   4.336   6.775 -0.0441  0.0653 -2.9663
 3487SOL    HW211402   4.176   4.471   6.844  4.0147 -0.6664 -1.0824
 3488SOL     OW11403   4.224   3.773   2.224  0.3382  0.1255 -0.3817
 3488SOL    HW111404   4.180   3.852   2.257  0.9845 -0.2389  1.4577
 3488SOL    HW211405   4.156   3.726   2.177 -0.6261  0.7316  0.3592
 3489SOL     OW11406   6.531   0.776   0.612  0.0949 -0.7274  0.4920
 3489SOL    HW111407   6.573   0.698   0.577  0.3144 -0.2310 -0.3837
 3489SOL    HW211408   6.476   0.808   0.540  2.0958  1.4636 -0.1822
 3490SOL     OW11409   6.706   6.490   2.968  0.0449 -0.6244 -0.1305
 3490SOL    HW111410   6.729   6.402   2.999  0.5146  0.2329  2.2225
 3490SOL    HW211411   6.790   6.535   2.960 -0.1497 -0.5303 -1.8947
 3491SOL     OW11412   6.935   6.903   4.074 -0.2178  0.4963 -0.3514
 3491SOL    HW111413   6.956   6.852   4.152  0.7564  0.4639 -0.6196
 3491SOL    HW211414   6.994   6.870   4.006 -0.1157  1.4337 -0.7454
 3492SOL     OW11415   5.645   1.087   0.349 -0.3418  0.1808  0.1523
 3492SOL    HW111416   5.604   1.012   0.393  2.9781 -1.3073  1.0313
 3492SOL    HW211417   5.631   1.161   0.409 -0.0556 -0.7173  1.3515
 3493SOL     OW11418   0.387   3.180   0.028 -0.5398 -0.1558 -0.5321
 3493SOL    HW111419   0.395   3.093   0.066  0.2991  0.1487  0.0267
 3493SOL    HW211420   0.384   3.239   0.104  1.2835  0.4728 -0.9162
 3494SOL     OW11421   4.266   7.236   1.079 -0.1418 -0.4567  0.1453
 3494SOL    HW111422   4.179   7.268   1.055 -0.4736 -2.1568 -1.1496
 3494SOL    HW211423   4.319   7.252   1.001  0.8082  0.8063  1.0204
 3495SOL     OW11424   0.102   7.321   5.251 -0.6995 -0.1441  0.6363
 3495SOL    HW111425   0.012   7.355   5.256 -0.7973 -0.3989  0.6635
 3495SOL    HW211426   0.149   7.367   5.320 -1.1680 -1.0643  1.6107
 3496SOL     OW11427   6.855   2.400   2.878  0.0621 -0.3522 -0.0087
 3496SOL    HW111428   6.929   2.348   2.909  0.0569 -0.0041  0.6104
 3496SOL    HW211429   6.793   2.336   2.844 -0.2879 -0.8383  1.4696
 3497SOL     OW11430   2.601   3.694   0.077  0.8054  0.4195 -0.1807
 3497SOL    HW111431   2.587   3.601   0.092 -1.1683  0.7444  0.2323
 3497SOL    HW211432   2.608   3.702  -0.019  0.6547 -0.1140 -0.2386
 3498SOL     OW11433   2.258   0.477   7.007 -0.4900 -0.3450  0.3827
 3498SOL    HW111434   2.340   0.429   6.994  0.4674  1.4333 -0.5693
 3498SOL    HW211435   2.269   0.519   7.092 -1.3169 -1.7357  1.2053
 3499SOL     OW11436   6.723   3.792   2.587 -0.2029 -0.3252 -0.3337
 3499SOL    HW111437   6.630   3.784   2.564 -0.2720 -0.8800  0.1254
 3499SOL    HW211438   6.727   3.767   2.679  0.2112  0.9943  0.0147
 3500SOL     OW11439   1.679   0.218   5.339  0.7570 -0.3008  0.6498
 3500SOL    HW111440   1.620   0.177   5.403  0.5350 -1.1241 -0.0693
 3500SOL    HW211441   1.631   0.214   5.256  0.5966  1.7110  0.5992
 3501SOL     OW11442   0.528   6.002   2.554  0.2453  0.6758  0.3087
 3501SOL    HW111443   0.580   6.071   2.596 -0.7435  2.1277 -0.7482
 3501SOL    HW211444   0.479   5.962   2.625  1.6431  0.3171  1.0962
 3502SOL     OW11445   0.138   0.394   6.452 -0.2666 -0.5173  0.3888
 3502SOL    HW111446   0.226   0.373   6.420  0.3672  0.6353  1.2734
 3502SOL    HW211447   0.144   0.486   6.480 -2.1768  0.0797 -0.9235
 3503SOL     OW11448   0.407   5.415   0.530  0.4617 -0.0564 -0.1108
 3503SOL    HW111449   0.365   5.334   0.559 -1.2035  0.3967 -1.1636
 3503SOL    HW211450   0.358   5.485   0.573  1.8558  0.4384  0.7491
 3504SOL     OW11451   5.612   3.458   0.878  0.9231 -0.1185  0.1840
 3504SOL    HW111452   5.663   3.384   0.845  1.4120  0.6118 -0.7515
 3504SOL    HW211453   5.671   3.502   0.939  0.7756 -0.2691  0.4370
 3505SOL     OW11454   5.477   2.869   4.938  0.1399  0.0947 -0.3124
 3505SOL    HW111455   5.482   2.835   4.849 -0.2729 -1.0487  0.0889
 3505SOL    HW211456   5.535   2.945   4.938 -0.4772  0.6007 -1.7713
 3506SOL     OW11457   1.867   6.574   1.571  0.8077  0.1204 -0.6784
 3506SOL    HW111458   1.919   6.495   1.583  0.7517  0.0694 -0.7737
 3506SOL    HW211459   1.906   6.618   1.495  0.0133 -0.4847 -1.4506
 3507SOL     OW11460   2.258   1.029   0.894  0.7536 -0.7489 -0.0664
 3507SOL    HW111461   2.236   0.973   0.968 -0.8021 -1.8760 -1.3182
 3507SOL    HW211462   2.298   0.970   0.830 -0.4188 -0.3659 -1.1943
 3508SOL     OW11463   5.194   1.875   5.982 -0.2937 -0.5031 -0.2543
 3508SOL    HW111464   5.191   1.904   6.073 -1.2532  0.0614 -0.4477
 3508SOL    HW211465   5.142   1.794   5.980 -1.2074  0.0651 -0.4760
 3509SOL     OW11466   2.580   5.233   1.621  0.3853  0.2030 -0.2795
 3509SOL    HW111467   2.663   5.262   1.581  0.6075 -2.8642 -2.3926
 3509SOL    HW211468   2.513   5.259   1.558 -0.0512  0.8104  0.4197
 3510SOL     OW11469   0.866   3.725   3.047 -0.2032 -0.0088 -0.0643
 3510SOL    HW111470   0.960   3.733   3.031 -0.1125 -0.4971  0.1920
 3510SOL    HW211471   0.840   3.809   3.084  0.8198 -0.9941  3.1961
 3511SOL     OW11472   7.322   1.494   1.827  0.1385 -0.1056 -0.9756
 3511SOL    HW111473   7.353   1.404   1.823 -1.9999 -0.9820  0.2629
 3511SOL    HW211474   7.389   1.541   1.876  1.6161 -0.8426 -2.2424
 3512SOL     OW11475   4.520   0.335   6.046  0.1087  0.3542 -0.3554
 3512SOL    HW111476   4.429   0.309   6.030  0.4611 -0.7246 -0.7287
 3512SOL    HW211477   4.565   0.252   6.064  1.2396  0.7474 -1.2879
 3513SOL     OW11478   0.180   3.774   6.353  0.0784  0.6393  0.3364
 3513SOL    HW111479   0.111   3.837   6.373  0.4741  1.0787  0.3691
 3513SOL    HW211480   0.220   3.808   6.272 -0.5071 -0.2626 -0.3392
 3514SOL     OW11481   5.758   7.067   6.893  0.5228 -0.1756  0.0304
 3514SOL    HW111482   5.665   7.066   6.870  0.1384 -0.6421  1.5230
 3514SOL    HW211483   5.802   7.085   6.810 -0.8037 -1.4140 -1.0132
 3515SOL     OW11484   6.575   5.199   0.508  0.0027  0.4930 -0.4465
 3515SOL    HW111485   6.602   5.198   0.600  3.9734 -0.1530 -1.4388
 3515SOL    HW211486   6.636   5.259   0.465 -0.9130 -0.1819 -2.8689
 3516SOL     OW11487   6.371   0.303   5.334  0.4595  0.6845  0.4477
 3516SOL    HW111488   6.347   0.304   5.241  0.7338  0.1850  0.3732
 3516SOL    HW211489   6.422   0.383   5.346  1.1685  0.3137 -0.0318
 3517SOL     OW11490   6.953   0.781   6.963 -0.3050  0.3477 -0.0073
 3517SOL    HW111491   6.933   0.874   6.953 -1.1898  0.1072 -0.5857
 3517SOL    HW211492   6.868   0.737   6.960  0.1773 -0.5726 -0.7612
 3518SOL     OW11493   0.942   0.906   2.809  0.2379  0.4170  0.2941
 3518SOL    HW111494   0.979   0.885   2.895  0.1993 -1.0919 -0.0240
 3518SOL    HW211495   0.879   0.835   2.793 -1.8906  2.2234  0.2603
 3519SOL     OW11496   6.554   4.554   3.690  0.1419  0.0589 -0.6303
 3519SOL    HW111497   6.542   4.483   3.753 -0.0242 -0.4824 -1.2674
 3519SOL    HW211498   6.502   4.528   3.614  2.2906 -0.5186 -1.9981
 3520SOL     OW11499   5.378   3.253   5.963  0.2688  0.3426 -0.3106
 3520SOL    HW111500   5.350   3.221   5.878  1.3393  1.1708 -1.0051
 3520SOL    HW211501   5.415   3.177   6.007 -1.5938 -0.4300  0.0387
 3521SOL     OW11502   2.290   4.494   4.397  0.1233  0.5442  0.2478
 3521SOL    HW111503   2.325   4.532   4.478 -1.9188  0.3697  1.2573
 3521SOL    HW211504   2.296   4.399   4.411  0.2785  0.5085 -0.0512
 3522SOL     OW11505   3.788   4.329   5.209  0.1654  0.7539 -0.0491
 3522SOL    HW111506   3.760   4.240   5.186 -0.2665  1.2569 -1.5977
 3522SOL    HW211507   3.850   4.317   5.281  0.3774 -0.8304 -0.4661
 3523SOL     OW11508   3.196   0.018   3.938 -0.1228  0.5413  0.2904
 3523SOL    HW111509   3.217  -0.069   3.905 -3.8062 -0.0155 -1.0354
 3523SOL    HW211510   3.247   0.078   3.883  0.1647 -0.6923 -0.8320
 3524SOL     OW11511   2.752   4.760   5.949  0.5518  0.1047 -0.6842
 3524SOL    HW111512   2.840   4.746   5.983  0.0167 -0.3734  0.5596
 3524SOL    HW211513   2.711   4.820   6.011  0.2154  0.9004 -1.6418
 3525SOL     OW11514   5.002   2.130   1.338  0.2070  0.4776 -0.1949
 3525SOL    HW111515   5.055   2.149   1.416 -0.1176  0.6767 -0.0173
 3525SOL    HW211516   4.913   2.157   1.363  0.0018  0.0372 -0.4479
 3526SOL     OW11517   5.875   1.169   6.881 -0.3902 -0.3343 -0.1137
 3526SOL    HW111518   5.948   1.166   6.819 -0.5792  0.7680 -0.4124
 3526SOL    HW211519   5.852   1.078   6.894  1.7256 -0.8033  0.8092
 3527SOL     OW11520   0.226   5.405   2.621  0.5718  0.4946  0.3503
 3527SOL    HW111521   0.249   5.358   2.701  1.9505  0.5239 -0.0102
 3527SOL    HW211522   0.221   5.337   2.554  1.1212  0.6699  0.1239
 3528SOL     OW11523   0.770   2.893   5.203  0.4772  0.3656  0.0542
 3528SOL    HW111524   0.779   2.808   5.246  0.5483  0.5635  0.4332
 3528SOL    HW211525   0.723   2.874   5.122 -1.6206  0.2949  1.2317
 3529SOL     OW11526   3.119   4.268   2.260 -0.7440 -0.2769 -0.1127
 3529SOL    HW111527   3.189   4.204   2.271  1.3371  1.6219 -1.3057
 3529SOL    HW211528   3.097   4.263   2.167  0.1735  1.3234 -0.4660
 3530SOL     OW11529   1.416   4.780   0.742  0.1078 -0.0451 -0.2770
 3530SOL    HW111530   1.386   4.751   0.828  0.6209  1.1066  0.3259
 3530SOL    HW211531   1.454   4.702   0.702  0.3580 -0.4820  0.7714
 3531SOL     OW11532   4.791   5.083   5.759  0.0529 -0.2113 -0.2975
 3531SOL    HW111533   4.782   5.175   5.733 -0.8306 -0.2859 -0.2703
 3531SOL    HW211534   4.832   5.041   5.683  0.4091  0.1857 -0.3334
 3532SOL     OW11535   3.343   2.257   6.285  0.3181 -0.3178  0.9380
 3532SOL    HW111536   3.317   2.173   6.325  1.4089 -0.8458  0.5861
 3532SOL    HW211537   3.362   2.234   6.194  0.9168  0.2546  0.9172
 3533SOL     OW11538   6.781   4.169   2.189 -0.6356 -0.2591 -0.4235
 3533SOL    HW111539   6.748   4.092   2.234 -0.1604 -0.5364 -0.5382
 3533SOL    HW211540   6.752   4.243   2.242 -0.4001 -0.5606  0.1343
 3534SOL     OW11541   1.170   6.031   7.243  0.0498 -0.0630  0.2882
 3534SOL    HW111542   1.217   5.956   7.278  0.4454  0.1384  0.1977
 3534SOL    HW211543   1.122   5.997   7.167 -1.1124 -0.5803  1.2324
 3535SOL     OW11544   5.559   2.015   0.206 -0.1695 -0.3051 -0.1797
 3535SOL    HW111545   5.601   1.972   0.281 -1.6885 -1.4327  0.0828
 3535SOL    HW211546   5.491   2.070   0.245 -0.8427 -0.7526 -0.6888
 3536SOL     OW11547   0.380   4.061   0.645  0.3408 -0.0467 -0.0202
 3536SOL    HW111548   0.398   4.137   0.590  0.8562 -1.3929 -1.8015
 3536SOL    HW211549   0.285   4.056   0.650  0.2686 -0.2977 -1.4132
 3537SOL     OW11550   4.773   1.668   6.521  0.2545  0.4470 -0.3308
 3537SOL    HW111551   4.722   1.669   6.602  0.1508  0.8979 -0.3987
 3537SOL    HW211552   4.717   1.620   6.459  0.2789  0.2144 -0.1761
 3538SOL     OW11553   5.160   2.488   1.641  0.2108 -0.1854 -0.2197
 3538SOL    HW111554   5.225   2.418   1.644 -0.2209 -0.5933 -0.3504
 3538SOL    HW211555   5.076   2.443   1.643 -0.1011  0.1947 -2.2551
 3539SOL     OW11556   5.597   6.125   5.372  0.4724 -0.3770 -0.6309
 3539SOL    HW111557   5.675   6.122   5.318  0.6300 -1.4681 -0.3543
 3539SOL    HW211558   5.533   6.072   5.325  0.3349 -0.6166 -0.1777
 3540SOL     OW11559   1.442   1.298   6.681 -0.0368 -0.0690  0.3719
 3540SOL    HW111560   1.432   1.393   6.685  1.5884  0.2155 -0.8898
 3540SOL    HW211561   1.368   1.268   6.628  0.3941  0.7227 -0.7082
 3541SOL     OW11562   6.339   3.830   3.459 -0.0942  0.1805  0.2093
 3541SOL    HW111563   6.283   3.857   3.531  1.0319 -0.3102  1.2929
 3541SOL    HW211564   6.280   3.786   3.398 -1.0577  0.5908  0.8273
 3542SOL     OW11565   6.260   2.568   6.715  0.3154  0.1949  0.1265
 3542SOL    HW111566   6.285   2.529   6.631  1.6733  0.0206  0.5911
 3542SOL    HW211567   6.164   2.563   6.715  0.3553 -1.6822 -0.5264
 3543SOL     OW11568   6.908   1.541   7.282  0.0125 -0.0597  0.0285
 3543SOL    HW111569   6.989   1.533   7.231  0.6977  2.4298  0.6057
 3543SOL    HW211570   6.918   1.478   7.353  1.1816 -0.1894 -0.2266
 3544SOL     OW11571   6.898   1.331   4.464  0.5160  0.5797 -0.0738
 3544SOL    HW111572   6.919   1.407   4.517 -1.2106  0.9492  0.1370
 3544SOL    HW211573   6.879   1.366   4.378  0.5268  0.2925 -0.1939
 3545SOL     OW11574   0.948   6.326   4.602  0.1730 -0.0002 -0.1457
 3545SOL    HW111575   0.960   6.420   4.617 -0.7628  0.0973  0.0842
 3545SOL    HW211576   0.861   6.320   4.562  1.0039 -0.6101 -1.9336
 3546SOL     OW11577   5.492   4.661   0.359  0.2595  0.5485  0.5220
 3546SOL    HW111578   5.584   4.679   0.338  0.5356  2.6586  2.9189
 3546SOL    HW211579   5.444   4.735   0.323 -0.4651 -0.3214 -0.3377
 3547SOL     OW11580   0.928   1.366   0.895 -0.3150 -0.7036 -0.5404
 3547SOL    HW111581   0.905   1.274   0.895 -0.7484 -0.5964 -0.1597
 3547SOL    HW211582   1.008   1.371   0.948 -0.2513 -0.8635 -0.6195
 3548SOL     OW11583   3.974   1.620   3.620 -0.2987  0.5159  0.3188
 3548SOL    HW111584   3.898   1.667   3.654  0.1684  1.1191  0.5485
 3548SOL    HW211585   3.987   1.548   3.682 -0.6623  0.4228  0.2916
 3549SOL     OW11586   7.128   0.036   1.842 -0.4896  0.5785  0.0127
 3549SOL    HW111587   7.065   0.085   1.896  0.1633 -0.1660  1.5225
 3549SOL    HW211588   7.211   0.083   1.853 -0.5287  0.9207 -1.0782
 3550SOL     OW11589   0.687   2.145   4.890 -0.0176  0.0088 -0.0293
 3550SOL    HW111590   0.659   2.217   4.946 -1.3058  0.1411 -0.8065
 3550SOL    HW211591   0.707   2.186   4.806  0.2445 -0.4115 -0.1761
 3551SOL     OW11592   3.900   2.449   6.448  0.5009  0.2636  0.3160
 3551SOL    HW111593   3.859   2.524   6.492 -1.2151 -0.3338 -0.2018
 3551SOL    HW211594   3.905   2.476   6.356 -2.3066 -1.0503 -0.3367
 3552SOL     OW11595   6.453   2.017   4.564  0.0198 -0.5209  0.2329
 3552SOL    HW111596   6.434   2.048   4.475 -1.1957  0.5599  0.8474
 3552SOL    HW211597   6.426   2.089   4.621  1.6079 -0.8342  1.4579
 3553SOL     OW11598   0.652   3.641   4.212 -0.4397 -0.1912 -0.3064
 3553SOL    HW111599   0.741   3.669   4.194 -0.7775 -0.2098 -2.1808
 3553SOL    HW211600   0.606   3.721   4.240  0.5137 -0.4867  2.3469
 3554SOL     OW11601   4.753   2.009   2.423 -0.3183 -0.2381  0.2199
 3554SOL    HW111602   4.693   2.065   2.374 -0.8026 -0.9653 -0.0303
 3554SOL    HW211603   4.725   2.017   2.514 -0.4281 -0.1219  0.1750
 3555SOL     OW11604   7.329   6.550   2.624 -0.0681 -0.2276  0.2174
 3555SOL    HW111605   7.409   6.498   2.634  0.7773  1.2926  2.1443
 3555SOL    HW211606   7.301   6.568   2.714 -1.6164  0.7165 -0.4192
 3556SOL     OW11607   0.584   5.342   4.201  0.0869  0.8200 -0.9800
 3556SOL    HW111608   0.575   5.287   4.278  0.9655 -0.1453 -1.5314
 3556SOL    HW211609   0.512   5.316   4.143  0.3146  0.4719 -1.1073
 3557SOL     OW11610   1.986   5.765   7.204  0.6754 -0.0490 -0.1824
 3557SOL    HW111611   1.999   5.673   7.183  0.5081  0.4113 -2.4980
 3557SOL    HW211612   1.908   5.791   7.155 -0.4996  0.8904  1.9889
 3558SOL     OW11613   4.848   4.654   3.970 -0.2833  0.1660 -0.7436
 3558SOL    HW111614   4.769   4.614   3.933 -0.5607  0.6318 -0.6617
 3558SOL    HW211615   4.821   4.743   3.995 -0.0853 -0.1086  0.5261
 3559SOL     OW11616   1.026   5.033   4.543  0.0342 -0.1043 -0.3367
 3559SOL    HW111617   1.090   5.031   4.473 -1.3440 -1.5416 -1.6354
 3559SOL    HW211618   0.994   5.123   4.545  1.3924  0.3989 -0.2689
 3560SOL     OW11619   3.474   7.427   6.504 -0.3907 -0.1582  0.0635
 3560SOL    HW111620   3.458   7.473   6.422 -0.1668 -0.9924 -0.4628
 3560SOL    HW211621   3.444   7.488   6.572  0.9821  1.2414 -0.5209
 3561SOL     OW11622   6.702   1.902   6.525  0.1390 -0.1467  0.2054
 3561SOL    HW111623   6.661   1.892   6.439  1.2026  0.4339 -0.4002
 3561SOL    HW211624   6.733   1.815   6.547  2.1287  0.1063 -1.2350
 3562SOL     OW11625   6.446   7.072   3.998  0.2080 -0.0866  0.2014
 3562SOL    HW111626   6.380   7.007   4.023 -0.2173  0.2489 -0.0447
 3562SOL    HW211627   6.528   7.035   4.029 -0.1218 -0.3986  0.7325
 3563SOL     OW11628   4.253   0.283   5.687  0.8320 -0.2539  0.4483
 3563SOL    HW111629   4.270   0.254   5.598 -0.6986  2.6498 -0.9356
 3563SOL    HW211630   4.202   0.212   5.726  0.6683 -1.1702 -1.3208
 3564SOL     OW11631   6.444   6.548   6.261 -0.0518  0.1730  0.2102
 3564SOL    HW111632   6.419   6.457   6.249  1.9211 -0.3565 -0.3052
 3564SOL    HW211633   6.363   6.597   6.250 -1.2282 -1.5299  0.9296
 3565SOL     OW11634   4.851   4.930   7.148  0.1836  0.5704 -0.3176
 3565SOL    HW111635   4.796   4.858   7.117 -2.3230  1.6466  1.3123
 3565SOL    HW211636   4.816   5.008   7.104  2.5109  0.9536 -1.6551
 3566SOL     OW11637   2.195   6.163   4.164  0.2271  0.1005  0.1040
 3566SOL    HW111638   2.185   6.236   4.102 -0.0009  0.1026  0.1429
 3566SOL    HW211639   2.110   6.119   4.162  0.6524 -0.7249 -0.6244
 3567SOL     OW11640   4.131   3.316   5.127 -0.0424  0.6600 -0.1436
 3567SOL    HW111641   4.037   3.331   5.137 -0.1299  0.6937 -0.9019
 3567SOL    HW211642   4.172   3.380   5.185 -0.4879  0.9397 -0.1317
 3568SOL     OW11643   5.035   0.186   2.469  0.7239 -0.2774  0.2970
 3568SOL    HW111644   5.083   0.212   2.547  0.4520 -0.7405  0.6254
 3568SOL    HW211645   4.985   0.109   2.496 -0.1667  0.1615 -0.0483
 3569SOL     OW11646   1.150   5.560   4.731 -0.4087  0.2774  0.0361
 3569SOL    HW111647   1.209   5.596   4.664 -2.0514  0.9537 -1.1246
 3569SOL    HW211648   1.156   5.465   4.720 -0.5512  0.3791 -1.0069
 3570SOL     OW11649   2.365   1.706   6.681 -0.4899  0.1258  0.0575
 3570SOL    HW111650   2.338   1.797   6.673  0.7450  0.6885  1.7904
 3570SOL    HW211651   2.313   1.672   6.754 -0.5278 -0.4084 -0.2088
 3571SOL     OW11652   2.245   4.916   1.649  0.0098 -0.4538 -0.0421
 3571SOL    HW111653   2.172   4.866   1.684  0.0912 -1.0317 -0.6776
 3571SOL    HW211654   2.212   5.006   1.642 -1.3754 -1.0561 -2.2777
 3572SOL     OW11655   1.306   1.314   0.753  0.0787  0.1983  0.2381
 3572SOL    HW111656   1.263   1.373   0.691  1.8172  0.6108 -0.6609
 3572SOL    HW211657   1.370   1.266   0.700  0.4391 -0.6708  1.4180
 3573SOL     OW11658   0.835   0.527   4.423 -0.2007 -0.5611  0.0662
 3573SOL    HW111659   0.895   0.601   4.411 -0.5498 -0.4014 -0.7719
 3573SOL    HW211660   0.892   0.453   4.446  0.4857 -0.7397 -2.0212
 3574SOL     OW11661   2.933   3.786   5.697  0.2623  0.2825  0.2089
 3574SOL    HW111662   2.860   3.726   5.684  0.5422  0.2228 -1.2102
 3574SOL    HW211663   3.010   3.737   5.670  0.6928  0.7442  0.5693
 3575SOL     OW11664   3.651   4.384   5.542  0.3962 -0.3132  0.6142
 3575SOL    HW111665   3.720   4.427   5.492  0.2978 -1.2632 -0.3650
 3575SOL    HW211666   3.698   4.327   5.603  0.4984 -1.8423 -0.8420
 3576SOL     OW11667   4.880   1.596   5.972 -0.1988  0.2062 -0.1714
 3576SOL    HW111668   4.911   1.658   5.906 -1.3200  3.0624  1.7573
 3576SOL    HW211669   4.823   1.536   5.923  1.9725 -0.2468 -2.3565
 3577SOL     OW11670   5.302   2.664   4.728 -0.3703  0.1591 -0.2760
 3577SOL    HW111671   5.272   2.720   4.657 -1.4850  0.7637  0.6526
 3577SOL    HW211672   5.225   2.648   4.782 -0.0002 -1.9221 -0.2430
 3578SOL     OW11673   7.402   1.680   4.576  0.1491  0.1206 -0.4187
 3578SOL    HW111674   7.434   1.687   4.486 -0.4704  1.2355 -0.5735
 3578SOL    HW211675   7.312   1.651   4.567 -0.1141  0.8501 -0.1984
 3579SOL     OW11676   4.536   3.708   3.612  0.2318 -0.9056  0.2461
 3579SOL    HW111677   4.462   3.764   3.590  1.3092  1.0738  1.3022
 3579SOL    HW211678   4.569   3.677   3.528  0.2385  0.9589 -0.4779
 3580SOL     OW11679   3.945   1.280   5.997 -0.1250 -0.2889 -0.1324
 3580SOL    HW111680   3.851   1.266   5.982 -0.4521  1.1368  0.3998
 3580SOL    HW211681   3.986   1.249   5.916 -1.0380 -1.0648 -0.3218
 3581SOL     OW11682   5.157   6.505   1.360  0.0755 -0.0683  0.6002
 3581SOL    HW111683   5.193   6.498   1.449 -1.3448  2.4123  1.4717
 3581SOL    HW211684   5.196   6.585   1.325 -0.1923 -0.4647 -0.6457
 3582SOL     OW11685   3.366   2.459   1.826 -0.2319 -0.0440 -0.2759
 3582SOL    HW111686   3.334   2.375   1.860 -0.4309  0.4639  0.8341
 3582SOL    HW211687   3.322   2.469   1.742  1.3444 -2.0151 -1.4294
 3583SOL     OW11688   0.212   3.944   2.174  0.3466 -0.1715  1.2103
 3583SOL    HW111689   0.196   3.991   2.256  2.6378 -1.1014  2.2840
 3583SOL    HW211690   0.296   3.979   2.143  0.6492 -1.4573  0.5136
 3584SOL     OW11691   2.906   3.188   2.302 -0.2042 -0.4730 -0.0896
 3584SOL    HW111692   2.953   3.172   2.383 -0.4718 -1.3933 -0.1028
 3584SOL    HW211693   2.870   3.102   2.278 -1.7208  0.1592 -0.1752
 3585SOL     OW11694   3.884   4.794   0.081 -0.1854 -0.2702 -0.3338
 3585SOL    HW111695   3.834   4.856   0.134  0.1307 -1.1381  1.0319
 3585SOL    HW211696   3.969   4.836   0.070 -0.8401  0.7854 -1.8689
 3586SOL     OW11697   2.440   3.049   2.500 -0.2019  0.0032 -0.3463
 3586SOL    HW111698   2.466   3.094   2.420 -2.5906 -0.3758 -1.3968
 3586SOL    HW211699   2.420   3.120   2.562  0.4022  0.3031 -0.4858
 3587SOL     OW11700   6.958   3.835   4.328  0.2975  0.1528  0.0500
 3587SOL    HW111701   7.045   3.872   4.343  0.3771  0.3494 -0.8181
 3587SOL    HW211702   6.936   3.862   4.239 -0.1909 -0.8237 -0.1373
 3588SOL     OW11703   4.446   1.809   2.149 -0.2153 -0.2744 -0.2233
 3588SOL    HW111704   4.367   1.863   2.140  0.8429  1.0265 -2.5065
 3588SOL    HW211705   4.421   1.723   2.115 -1.3524 -0.7177  1.5966
 3589SOL     OW11706   5.146   1.475   0.044  0.1996 -0.7705  0.0525
 3589SOL    HW111707   5.077   1.517   0.095 -0.7988 -0.9873 -1.0832
 3589SOL    HW211708   5.123   1.382   0.046  0.4140 -0.8321 -0.4051
 3590SOL     OW11709   7.235   3.761   4.529 -0.6781 -0.4722  0.5060
 3590SOL    HW111710   7.278   3.731   4.449 -2.2878 -1.0692 -0.1927
 3590SOL    HW211711   7.220   3.854   4.514 -1.1051 -0.6103  0.0159
 3591SOL     OW11712   5.242   0.808   1.485 -0.0000 -0.1569  0.0148
 3591SOL    HW111713   5.314   0.745   1.478  0.0881  0.0286 -0.8877
 3591SOL    HW211714   5.204   0.792   1.571 -0.0108 -1.4920 -0.2224
 3592SOL     OW11715   6.136   4.605   5.530  0.1801  0.6073 -0.0631
 3592SOL    HW111716   6.227   4.584   5.507  0.9208  2.1362  1.2236
 3592SOL    HW211717   6.134   4.701   5.530 -1.3439  0.5871  0.3027
 3593SOL     OW11718   4.829   2.706   0.351  0.6635 -0.2464  0.0172
 3593SOL    HW111719   4.787   2.768   0.410  0.1451 -1.0945  0.5558
 3593SOL    HW211720   4.890   2.759   0.300  0.0420  0.7473  0.2810
 3594SOL     OW11721   0.995   1.480   4.353  0.4741 -0.3162 -0.0440
 3594SOL    HW111722   0.944   1.427   4.414  0.0660 -0.7789 -0.7855
 3594SOL    HW211723   0.948   1.563   4.348 -0.3044 -0.7970 -0.8474
 3595SOL     OW11724   1.773   4.023   3.388 -0.2058  0.0082 -0.0562
 3595SOL    HW111725   1.851   4.047   3.339  0.4191  0.5306  1.1597
 3595SOL    HW211726   1.786   4.060   3.475 -1.3346 -0.7881  0.4855
 3596SOL     OW11727   1.433   0.593   5.248  0.6309  1.0924 -0.2643
 3596SOL    HW111728   1.522   0.558   5.239  1.1195  2.2563 -0.1703
 3596SOL    HW211729   1.446   0.687   5.261 -0.6347  1.3351 -0.6521
 3597SOL     OW11730   2.791   3.081   3.439 -0.1040 -0.5053  0.0120
 3597SOL    HW111731   2.880   3.108   3.419 -0.0829 -0.8341 -0.3647
 3597SOL    HW211732   2.752   3.061   3.353 -0.2086 -1.3645  0.2483
 3598SOL     OW11733   5.840   5.457   0.983 -0.5818  0.1442  0.4173
 3598SOL    HW111734   5.890   5.537   1.000  0.5162 -0.2585 -0.6992
 3598SOL    HW211735   5.772   5.456   1.050 -0.1421  1.6102  0.9285
 3599SOL     OW11736   2.322   1.093   2.889 -0.3531 -0.0498  0.3613
 3599SOL    HW111737   2.382   1.167   2.880  0.6320 -0.8475  0.2254
 3599SOL    HW211738   2.378   1.016   2.889 -1.3622 -0.8087  0.5030
 3600SOL     OW11739   6.461   6.121   3.334 -0.0296  0.3095 -0.2314
 3600SOL    HW111740   6.485   6.058   3.401 -0.7024 -0.3838 -0.6209
 3600SOL    HW211741   6.366   6.128   3.340 -0.1555 -0.1413 -1.4241
 3601SOL     OW11742   0.974   3.628   3.386  0.4837  0.1683  0.7007
 3601SOL    HW111743   0.921   3.569   3.333 -0.1105  0.2163  1.2352
 3601SOL    HW211744   0.988   3.581   3.468  1.1420  0.2193  0.6227
 3602SOL     OW11745   0.596   6.323   5.656 -0.1724 -0.0146  0.0110
 3602SOL    HW111746   0.575   6.328   5.562  1.5009 -1.1754 -0.4559
 3602SOL    HW211747   0.666   6.387   5.668 -0.1717 -0.0910  0.4261
 3603SOL     OW11748   2.801   3.815   6.020  0.3973 -0.0319 -0.4590
 3603SOL    HW111749   2.760   3.860   5.946 -1.4550 -2.4688 -1.0599
 3603SOL    HW211750   2.740   3.745   6.043  0.8273  0.6636  3.5329
 3604SOL     OW11751   2.294   2.203   2.938 -0.4415 -0.1394  0.1777
 3604SOL    HW111752   2.331   2.281   2.979  0.5301 -0.7005  0.4087
 3604SOL    HW211753   2.238   2.165   3.005 -0.2464 -0.1043  0.3618
 3605SOL     OW11754   7.208   4.974   4.631  0.0760 -0.7062 -0.1608
 3605SOL    HW111755   7.133   4.976   4.572 -0.8718 -0.3355  1.0077
 3605SOL    HW211756   7.222   5.065   4.655 -0.1272 -0.9255  0.8559
 3606SOL     OW11757   6.277   3.734   1.241 -0.5268  0.1429 -0.0360
 3606SOL    HW111758   6.356   3.680   1.235 -0.7718 -0.3858  1.2157
 3606SOL    HW211759   6.291   3.804   1.177  1.4133  0.6275  0.8469
 3607SOL     OW11760   4.980   3.441   0.824  0.6282 -0.1145  0.1918
 3607SOL    HW111761   4.960   3.361   0.874  1.7724 -0.0185  0.8315
 3607SOL    HW211762   4.931   3.431   0.742  0.8864 -1.5533  0.1912
 3608SOL     OW11763   6.508   0.482   4.792  0.2976  0.4521  0.2636
 3608SOL    HW111764   6.461   0.399   4.802 -0.7975  0.8177 -1.3002
 3608SOL    HW211765   6.479   0.535   4.866 -0.4976  0.0886  0.2314
 3609SOL     OW11766   3.457   5.910   5.050  0.0372 -0.0666 -0.4237
 3609SOL    HW111767   3.412   5.991   5.029  1.1215  0.9458  1.0143
 3609SOL    HW211768   3.430   5.849   4.980 -1.2778  1.3098 -1.1735
 3610SOL     OW11769   6.803   2.155   3.438  0.3741 -0.0138  0.2161
 3610SOL    HW111770   6.773   2.238   3.476 -0.1593  0.0083 -0.2359
 3610SOL    HW211771   6.787   2.165   3.344 -2.5945 -1.7362  0.4006
 3611SOL     OW11772   1.951   3.786   0.529 -0.8074  0.3271 -0.3177
 3611SOL    HW111773   1.993   3.757   0.449 -1.2491  1.0230 -0.8176
 3611SOL    HW211774   1.976   3.878   0.537 -1.0987  0.3724  0.1239
 3612SOL     OW11775   6.493   4.229   1.521  0.1093  0.2587 -0.3317
 3612SOL    HW111776   6.438   4.271   1.455 -1.7901 -1.4758  0.0394
 3612SOL    HW211777   6.582   4.241   1.489 -0.6065  1.3775 -2.0620
 3613SOL     OW11778   1.526   3.049   2.613  0.2636 -0.0934 -0.1889
 3613SOL    HW111779   1.491   3.137   2.606  2.0803  0.7230  0.2224
 3613SOL    HW211780   1.450   2.991   2.610 -0.9242  1.4606 -0.8899
 3614SOL     OW11781   0.368   2.962   1.816  0.0817 -0.6283  0.0667
 3614SOL    HW111782   0.288   2.920   1.848 -0.4576 -0.8415 -1.4850
 3614SOL    HW211783   0.341   3.050   1.792  0.1208 -0.9433 -1.1866
 3615SOL     OW11784   6.474   4.502   5.465 -0.1142  0.1493  0.6095
 3615SOL    HW111785   6.396   4.452   5.489 -0.6417  0.9770  0.6462
 3615SOL    HW211786   6.521   4.516   5.547  0.2879 -0.6763  0.5361
 3616SOL     OW11787   6.606   3.880   3.537 -0.0681 -0.6002  0.1236
 3616SOL    HW111788   6.535   3.855   3.478 -0.2908  0.9709 -0.3157
 3616SOL    HW211789   6.570   3.868   3.625 -0.7541 -0.1629 -0.0917
 3617SOL     OW11790   4.175   1.083   5.316  0.1086 -0.0909  0.2280
 3617SOL    HW111791   4.105   1.135   5.354 -0.4026 -1.1805  0.8179
 3617SOL    HW211792   4.193   1.015   5.381  0.4647 -0.9099 -0.6940
 3618SOL     OW11793   1.251   5.686   4.496 -0.3182  0.5680  0.1946
 3618SOL    HW111794   1.322   5.644   4.448 -0.0911 -1.7389  2.3204
 3618SOL    HW211795   1.272   5.780   4.493  2.2126  0.0647 -0.1791
 3619SOL     OW11796   3.003   1.856   5.948 -0.5788  0.2359  0.2755
 3619SOL    HW111797   2.918   1.869   5.905 -0.4962 -0.7611 -0.2182
 3619SOL    HW211798   3.015   1.761   5.949  0.8384  0.3861 -0.2697
 3620SOL     OW11799   2.970   2.406   0.698 -0.6399  0.0880  0.3521
 3620SOL    HW111800   2.948   2.374   0.611  0.3999  0.5010 -0.0784
 3620SOL    HW211801   3.061   2.435   0.691 -1.1490  1.9721  1.0543
 3621SOL     OW11802   6.832   6.337   2.498 -0.1640 -0.4513  0.1719
 3621SOL    HW111803   6.918   6.303   2.523 -1.2303 -1.7578  2.4748
 3621SOL    HW211804   6.786   6.262   2.463 -1.6500 -0.9142  2.8048
 3622SOL     OW11805   4.015   3.227   6.529 -0.0666  0.8206  0.3370
 3622SOL    HW111806   4.006   3.310   6.481  1.7226  1.9361  1.7713
 3622SOL    HW211807   4.091   3.241   6.585  0.8868 -2.1879 -0.0568
 3623SOL     OW11808   3.346   6.023   2.861 -0.2118 -0.1372  0.3731
 3623SOL    HW111809   3.367   6.031   2.954 -0.1016  1.3453  0.2542
 3623SOL    HW211810   3.385   6.101   2.821 -0.0164 -0.8908 -0.9687
 3624SOL     OW11811   2.414   2.541   0.223  0.6498 -0.1792 -0.2944
 3624SOL    HW111812   2.426   2.636   0.225 -0.0227 -0.0900  1.0680
 3624SOL    HW211813   2.463   2.508   0.299  0.0449 -0.7970 -0.1565
 3625SOL     OW11814   2.495   3.195   2.242 -1.0231  0.0285 -0.4449
 3625SOL    HW111815   2.566   3.166   2.186 -0.4890 -1.4589  0.9188
 3625SOL    HW211816   2.495   3.291   2.235  0.4434 -0.0176 -1.2359
 3626SOL     OW11817   7.041   0.687   5.949  1.3174 -0.3879  0.5993
 3626SOL    HW111818   7.102   0.754   5.919  0.4688 -0.7192 -2.1760
 3626SOL    HW211819   7.078   0.605   5.917 -0.8783 -0.5199 -2.0450
 3627SOL     OW11820   5.083   5.765   7.242  0.2394  0.0105  0.1647
 3627SOL    HW111821   5.019   5.836   7.240 -0.3311 -0.4586  0.9939
 3627SOL    HW211822   5.032   5.685   7.227  0.9424 -0.1981 -1.2213
 3628SOL     OW11823   3.363   2.328   0.921  0.2513  0.4560  0.4606
 3628SOL    HW111824   3.324   2.395   0.864  0.9920  0.6868  0.2098
 3628SOL    HW211825   3.390   2.377   1.000  5.0906  1.5603 -1.5219
 3629SOL     OW11826   4.344   5.102   6.253 -0.5733 -0.6659 -0.5238
 3629SOL    HW111827   4.375   5.126   6.341  1.3679 -1.6721 -0.8958
 3629SOL    HW211828   4.367   5.178   6.199  0.3479 -0.9784 -0.5896
 3630SOL     OW11829   3.305   4.905   6.997  0.1599  0.7648 -1.1837
 3630SOL    HW111830   3.351   4.835   7.042  0.1252  0.3901 -1.7295
 3630SOL    HW211831   3.371   4.947   6.941 -0.0948  0.3846 -1.7783
 3631SOL     OW11832   5.951   5.872   5.678  0.2631  0.0196 -0.6413
 3631SOL    HW111833   5.990   5.958   5.695 -1.0309  0.2274  1.6846
 3631SOL    HW211834   5.992   5.814   5.741  0.5168 -0.9201 -1.6411
 3632SOL     OW11835   6.702   5.059   0.999 -1.1112  0.5322  0.2994
 3632SOL    HW111836   6.660   4.976   1.021 -0.9259  0.6389  1.0810
 3632SOL    HW211837   6.632   5.123   1.004 -0.8373  0.7647  1.9421
 3633SOL     OW11838   4.492   3.037   6.563  0.2764  0.0571  0.1137
 3633SOL    HW111839   4.414   3.010   6.515  0.1194  0.6413  0.0411
 3633SOL    HW211840   4.500   2.972   6.633 -0.4157  0.1324  0.2701
 3634SOL     OW11841   5.642   4.987   5.605 -0.0854  0.3157  0.2281
 3634SOL    HW111842   5.670   4.948   5.523 -0.8035 -0.4723  0.3478
 3634SOL    HW211843   5.667   5.079   5.597  2.9076 -0.3825  0.5226
 3635SOL     OW11844   5.118   3.223   1.666 -0.2612 -0.6142 -0.1666
 3635SOL    HW111845   5.150   3.313   1.677  1.2289 -1.0686 -0.5377
 3635SOL    HW211846   5.150   3.177   1.744 -0.2559 -1.0118 -0.4027
 3636SOL     OW11847   4.211   5.180   3.168  0.1138  0.0170 -0.1971
 3636SOL    HW111848   4.298   5.214   3.189 -0.4249  0.3801  1.6149
 3636SOL    HW211849   4.210   5.091   3.203 -0.2402  0.0163 -0.2015
 3637SOL     OW11850   4.880   1.726   7.059  0.4546  0.4128  0.1489
 3637SOL    HW111851   4.960   1.773   7.081  0.4694  1.0143 -1.0758
 3637SOL    HW211852   4.883   1.647   7.112  1.1188  1.1330  1.2192
 3638SOL     OW11853   3.007   4.611   2.329  0.1999 -0.2099  0.6892
 3638SOL    HW111854   2.980   4.703   2.330 -1.1655 -0.5851  0.6821
 3638SOL    HW211855   3.061   4.602   2.251 -2.7443 -0.1933 -1.5448
 3639SOL     OW11856   0.400   3.374   6.202  0.2471 -0.2499  0.0996
 3639SOL    HW111857   0.392   3.350   6.295  1.3454  1.0749  0.5787
 3639SOL    HW211858   0.481   3.424   6.198 -0.6639  1.1853 -1.2698
 3640SOL     OW11859   6.091   5.652   7.209  0.6457  0.3778  0.2461
 3640SOL    HW111860   6.139   5.648   7.291  0.7301 -1.0251  0.1421
 3640SOL    HW211861   6.103   5.566   7.169 -0.8208  0.4566 -0.4304
 3641SOL     OW11862   4.716   4.381   7.388  0.7973  0.4676  0.0308
 3641SOL    HW111863   4.760   4.362   7.471  0.5731  0.3881  0.1322
 3641SOL    HW211864   4.779   4.433   7.339  0.6002  1.2911  0.6144
 3642SOL     OW11865   1.049   6.378   6.140  0.1892 -0.3602  0.2112
 3642SOL    HW111866   0.968   6.404   6.096  0.1548 -0.0590  0.4462
 3642SOL    HW211867   1.108   6.352   6.069  0.4850  1.0880 -0.1094
 3643SOL     OW11868   7.141   6.421   0.674 -0.3857 -0.0330 -0.1158
 3643SOL    HW111869   7.190   6.348   0.636  0.4846  0.3670  0.2189
 3643SOL    HW211870   7.135   6.485   0.603 -1.8377 -0.7180 -0.6663
 3644SOL     OW11871   6.098   1.264   4.557 -0.3457  0.4149 -0.3092
 3644SOL    HW111872   6.124   1.354   4.539 -0.7319  1.3780  3.2713
 3644SOL    HW211873   6.176   1.212   4.539  0.2418  1.5908 -1.2915
 3645SOL     OW11874   1.474   7.284   6.099 -0.5879  0.5100  0.0906
 3645SOL    HW111875   1.380   7.281   6.116 -0.4596  1.8282  1.2491
 3645SOL    HW211876   1.481   7.297   6.004 -1.6554  2.3256  0.2108
 3646SOL     OW11877   3.133   6.918   0.475  0.1488 -0.4294 -0.5979
 3646SOL    HW111878   3.060   6.922   0.413 -1.1763 -0.6071  0.8534
 3646SOL    HW211879   3.166   7.007   0.481 -2.0776  0.3745  1.0476
 3647SOL     OW11880   5.929   0.057   1.461 -0.1901  0.1497 -0.2757
 3647SOL    HW111881   5.943   0.149   1.439  0.0158  0.4064  0.8839
 3647SOL    HW211882   5.888   0.058   1.547 -0.3775 -0.8400 -0.3343
 3648SOL     OW11883   4.147   2.423   1.207  0.3827  0.2238  0.4368
 3648SOL    HW111884   4.190   2.342   1.234  2.4835  0.8788 -0.7784
 3648SOL    HW211885   4.108   2.401   1.122  0.4512  0.3244  0.3799
 3649SOL     OW11886   0.958   2.846   1.070 -0.3387 -0.5493 -0.5007
 3649SOL    HW111887   0.881   2.811   1.115 -0.8724  0.5338 -0.5364
 3649SOL    HW211888   0.993   2.911   1.131 -1.0117  0.8707 -1.5881
 3650SOL     OW11889   4.585   5.201   5.994  0.3158 -0.0313  0.0550
 3650SOL    HW111890   4.656   5.189   5.931  2.3817 -0.9472  2.4118
 3650SOL    HW211891   4.539   5.117   5.997 -0.8423  0.5042 -1.3282
 3651SOL     OW11892   5.287   3.801   6.421  0.6476 -0.2484 -0.4836
 3651SOL    HW111893   5.372   3.845   6.416  1.0472 -0.9230  0.1904
 3651SOL    HW211894   5.275   3.762   6.334  0.0777  1.5304 -1.2456
 3652SOL     OW11895   5.329   1.247   5.076  0.1848 -0.0030 -0.2660
 3652SOL    HW111896   5.339   1.154   5.054  0.4493 -0.1986  0.6417
 3652SOL    HW211897   5.397   1.263   5.141  0.3583  0.9176 -0.6600
 3653SOL     OW11898   5.245   7.060   1.924 -0.3137 -0.0829 -0.3095
 3653SOL    HW111899   5.217   7.111   2.001  1.0238 -1.4970  1.1795
 3653SOL    HW211900   5.165   7.017   1.894 -0.9141  0.7039  0.1175
 3654SOL     OW11901   6.788   1.448   1.510 -0.5499 -0.4446  0.1731
 3654SOL    HW111902   6.755   1.359   1.504 -2.2126  0.0830  0.9396
 3654SOL    HW211903   6.859   1.452   1.445  0.1905 -2.5616  0.7729
 3655SOL     OW11904   6.146   2.603   0.316 -0.7336  0.9585 -0.1662
 3655SOL    HW111905   6.218   2.657   0.283 -0.1334  0.1595 -0.2185
 3655SOL    HW211906   6.103   2.657   0.382  0.1412  1.3266  0.1222
 3656SOL     OW11907   1.854   2.857   6.998  0.4044 -0.2795 -0.8201
 3656SOL    HW111908   1.801   2.796   6.947 -0.6641  0.1509 -0.2598
 3656SOL    HW211909   1.790   2.916   7.038  1.2895  0.0269  0.1736
 3657SOL     OW11910   5.422   5.955   3.711 -0.0343  0.0111  0.4051
 3657SOL    HW111911   5.405   5.935   3.619  0.1072  1.0482  0.1420
 3657SOL    HW211912   5.391   6.045   3.723 -0.1364 -0.1404  1.3961
 3658SOL     OW11913   1.314   1.513   0.568 -0.0720 -0.0087  0.2959
 3658SOL    HW111914   1.337   1.501   0.476  0.1068 -1.5754  0.5225
 3658SOL    HW211915   1.398   1.520   0.614 -0.1281 -0.6134  0.5003
 3659SOL     OW11916   4.715   7.179   1.905 -0.2078 -0.2326  0.2784
 3659SOL    HW111917   4.703   7.085   1.895 -1.9284  0.1104 -1.4055
 3659SOL    HW211918   4.628   7.216   1.897  0.3296  1.4948  1.6279
 3660SOL     OW11919   7.262   4.435   2.855  0.3847 -0.6392  0.1264
 3660SOL    HW111920   7.329   4.426   2.922  0.2087 -0.6103  0.3061
 3660SOL    HW211921   7.197   4.368   2.876  0.3945 -0.7205 -0.0934
 3661SOL     OW11922   6.490   1.697   7.413  0.4880  0.2844  0.3153
 3661SOL    HW111923   6.398   1.724   7.414  0.7844  1.3644  1.6264
 3661SOL    HW211924   6.502   1.656   7.327 -0.9425  1.0961 -0.3181
 3662SOL     OW11925   7.018   0.964   7.385  0.0157 -0.7022 -0.3218
 3662SOL    HW111926   6.964   0.997   7.314 -0.3944 -2.2321 -0.7727
 3662SOL    HW211927   7.106   0.994   7.364 -0.7347  2.8654  1.0682
 3663SOL     OW11928   3.088   4.861   1.068 -0.0332 -0.4021 -0.3508
 3663SOL    HW111929   3.160   4.832   1.011 -1.1859  0.5521 -2.3761
 3663SOL    HW211930   3.106   4.954   1.083  0.6530 -0.7824  1.5586
 3664SOL     OW11931   2.088   0.747   3.057 -0.2589 -0.3505  0.0666
 3664SOL    HW111932   2.006   0.701   3.076 -0.4505 -0.3755 -0.7745
 3664SOL    HW211933   2.087   0.759   2.962  0.3859  0.2753  0.1325
 3665SOL     OW11934   2.134   6.800   5.887 -0.0483  0.0046 -0.1912
 3665SOL    HW111935   2.175   6.838   5.810  0.4359  2.7393  1.2831
 3665SOL    HW211936   2.206   6.788   5.950 -0.9374  1.7024  1.2381
 3666SOL     OW11937   0.457   6.253   0.708 -0.2054  0.0141  0.2710
 3666SOL    HW111938   0.456   6.346   0.728 -0.5381  0.1632 -0.4003
 3666SOL    HW211939   0.422   6.211   0.787 -2.2225  0.6434 -0.2413
 3667SOL     OW11940   5.897   0.217   0.506 -0.2466  0.3582  0.3073
 3667SOL    HW111941   5.964   0.274   0.469  0.9383 -0.8962  0.4809
 3667SOL    HW211942   5.817   0.271   0.504  0.2481  1.1407 -1.9001
 3668SOL     OW11943   6.093   0.075   5.074  0.6040  0.2381  0.0668
 3668SOL    HW111944   6.043   0.013   5.022  0.8217 -0.7575  1.0100
 3668SOL    HW211945   6.182   0.071   5.039  0.5865  0.1177  0.0381
 3669SOL     OW11946   0.748   2.903   5.857  0.1273  0.2879 -0.1156
 3669SOL    HW111947   0.753   2.900   5.953 -0.5478 -0.3490 -0.0883
 3669SOL    HW211948   0.802   2.829   5.829  0.2283  0.4022 -0.2200
 3670SOL     OW11949   5.575   2.354   4.898 -0.0873 -0.2040 -0.5214
 3670SOL    HW111950   5.533   2.425   4.946  0.7048  0.1387 -0.3260
 3670SOL    HW211951   5.517   2.339   4.823 -0.9422 -0.2461  0.1316
 3671SOL     OW11952   4.050   0.261   0.162  0.0859 -0.1486  0.1409
 3671SOL    HW111953   4.107   0.278   0.237 -0.3630  1.2968  0.1833
 3671SOL    HW211954   3.976   0.321   0.174  0.2807  0.5206 -1.7538
 3672SOL     OW11955   5.265   5.111   6.676 -0.8186 -0.3242 -0.3872
 3672SOL    HW111956   5.338   5.112   6.737 -2.2203  0.6178  1.3785
 3672SOL    HW211957   5.192   5.074   6.726 -2.3908  1.8196 -0.9393
 3673SOL     OW11958   0.271   3.975   4.925  0.4324 -0.5505  0.3409
 3673SOL    HW111959   0.238   4.054   4.969 -1.2693 -0.1298 -1.5498
 3673SOL    HW211960   0.193   3.933   4.889  1.5554 -1.9244 -0.5998
 3674SOL     OW11961   5.290   0.784   4.851 -0.3812 -0.1817  0.3176
 3674SOL    HW111962   5.350   0.729   4.800 -0.4660 -0.6229  0.6885
 3674SOL    HW211963   5.214   0.729   4.867 -0.2481 -0.1468  1.1413
 3675SOL     OW11964   6.301   2.674   5.681 -0.2034 -0.1198 -0.7955
 3675SOL    HW111965   6.296   2.583   5.710  1.7622 -0.2796 -0.8217
 3675SOL    HW211966   6.272   2.672   5.590 -0.1174 -0.7337 -0.8107
 3676SOL     OW11967   4.570   5.084   6.840 -0.7350  0.3480 -0.0145
 3676SOL    HW111968   4.623   5.116   6.913  1.1592  0.1095 -1.2074
 3676SOL    HW211969   4.494   5.043   6.881  0.5735 -0.3404  1.8723
 3677SOL     OW11970   3.092   5.865   5.968  0.1178  0.6899 -0.2580
 3677SOL    HW111971   3.008   5.908   5.987 -0.2369  0.2757 -0.8451
 3677SOL    HW211972   3.156   5.915   6.018 -0.5783  0.5553  0.8345
 3678SOL     OW11973   4.148   4.556   0.522  0.5495  0.2521 -0.2097
 3678SOL    HW111974   4.154   4.639   0.570  2.9260 -1.3224  2.5141
 3678SOL    HW211975   4.055   4.539   0.517 -0.0318  3.0678 -0.9114
 3679SOL     OW11976   4.708   2.043   6.169  0.4444  0.3186  0.3674
 3679SOL    HW111977   4.680   2.056   6.260 -2.0515 -1.1736 -0.0888
 3679SOL    HW211978   4.783   1.983   6.176  2.4553  2.7763  1.5283
 3680SOL     OW11979   2.677   0.292   5.131  0.4017  0.5388 -0.0729
 3680SOL    HW111980   2.768   0.291   5.163 -0.2527 -1.6033  1.9902
 3680SOL    HW211981   2.625   0.317   5.208 -0.9687 -1.1997 -0.3666
 3681SOL     OW11982   2.349   6.364   0.547  0.1904 -0.2753  0.4323
 3681SOL    HW111983   2.350   6.269   0.556  0.1690 -0.3093  0.0873
 3681SOL    HW211984   2.397   6.396   0.624 -2.6689 -0.3995  2.3863
 3682SOL     OW11985   3.953   3.456   1.394  0.8529  0.0233  0.3014
 3682SOL    HW111986   3.969   3.464   1.488  2.1180 -0.9465  0.1951
 3682SOL    HW211987   4.040   3.440   1.357  0.2544 -0.4629 -0.9269
 3683SOL     OW11988   2.997   6.672   1.976 -0.4886 -0.7579  0.4307
 3683SOL    HW111989   3.001   6.622   1.894 -1.1595 -0.0942 -0.0198
 3683SOL    HW211990   2.924   6.733   1.963  1.2437  1.3916  0.4003
 3684SOL     OW11991   5.667   3.751   6.344 -0.2292 -0.0579 -0.0381
 3684SOL    HW111992   5.716   3.709   6.274 -0.4278 -2.0237  0.9460
 3684SOL    HW211993   5.588   3.698   6.354 -0.4040  0.4222  1.3952
 3685SOL     OW11994   4.643   5.911   7.225 -0.5884 -0.1763  0.2370
 3685SOL    HW111995   4.648   5.824   7.186  0.7620  0.0236 -0.0751
 3685SOL    HW211996   4.623   5.895   7.317 -2.1370 -0.7191 -0.1597
 3686SOL     OW11997   1.322   3.295   1.469  0.0738  0.1928  0.2563
 3686SOL    HW111998   1.304   3.300   1.376 -1.5433 -0.1245  0.5286
 3686SOL    HW211999   1.333   3.385   1.497 -0.9884  0.4073  0.0276
 3687SOL     OW12000   4.270   6.591   7.235  0.0258  0.0706 -0.0922
 3687SOL    HW112001   4.355   6.630   7.257  0.1194 -0.2026  0.0402
 3687SOL    HW212002   4.290   6.529   7.164 -0.3300  1.1984 -1.2085
 3688SOL     OW12003   0.944   0.446   3.294 -0.1237 -0.2312 -0.0503
 3688SOL    HW112004   1.034   0.452   3.262  0.0478  2.0325  0.6804
 3688SOL    HW212005   0.933   0.523   3.350 -2.6812 -0.1444 -0.5535
 3689SOL     OW12006   0.373   4.420   2.048  0.0693  0.2723 -0.5610
 3689SOL    HW112007   0.421   4.493   2.087  1.2806 -0.0374 -1.4208
 3689SOL    HW212008   0.345   4.452   1.963  0.7877 -0.3155 -1.0300
 3690SOL     OW12009   4.861   0.191   5.578  0.9048 -0.2524  1.2418
 3690SOL    HW112010   4.791   0.241   5.621  1.1547  0.4975  0.7933
 3690SOL    HW212011   4.828   0.101   5.575  0.5015 -0.1425  2.1792
 3691SOL     OW12012   6.855   6.801   4.780 -0.5123  0.1599  0.2018
 3691SOL    HW112013   6.868   6.762   4.866 -4.3018  2.7563  2.2786
 3691SOL    HW212014   6.940   6.794   4.737  2.0641  0.0116  4.7060
 3692SOL     OW12015   1.670   1.171   6.522  0.1282 -0.0587 -0.4931
 3692SOL    HW112016   1.603   1.229   6.487 -1.2926 -1.6183 -0.4755
 3692SOL    HW212017   1.716   1.138   6.445 -0.5538 -0.6330 -0.6602
 3693SOL     OW12018   3.922   6.597   2.211  0.0722  0.1285 -0.2594
 3693SOL    HW112019   3.891   6.679   2.173  1.0962  0.8086  0.3234
 3693SOL    HW212020   3.999   6.621   2.261  1.7219 -1.5244 -1.8508
 3694SOL     OW12021   2.628   0.516   2.456 -0.5445  0.1888 -0.2498
 3694SOL    HW112022   2.612   0.589   2.396  0.2384 -0.7104 -1.6231
 3694SOL    HW212023   2.635   0.556   2.542 -1.5332  1.5528 -0.7782
 3695SOL     OW12024   1.371   7.149   7.092  0.1668 -0.2316  0.8140
 3695SOL    HW112025   1.416   7.227   7.060  2.9985 -1.6282  1.1312
 3695SOL    HW212026   1.306   7.184   7.154  0.6741  1.9178  0.2429
 3696SOL     OW12027   3.453   1.729   4.367  0.1210 -0.1013  0.0143
 3696SOL    HW112028   3.364   1.720   4.334  0.1253  1.1081 -0.3695
 3696SOL    HW212029   3.443   1.777   4.449  0.4625  0.4949 -0.2922
 3697SOL     OW12030   5.681   4.121   3.719 -0.2785  0.2023 -0.1264
 3697SOL    HW112031   5.700   4.212   3.741  0.9259 -0.3695  1.4086
 3697SOL    HW212032   5.740   4.101   3.646 -0.2437  0.5367 -0.1898
 3698SOL     OW12033   0.016   1.191   2.414 -0.0646  0.3603  0.5353
 3698SOL    HW112034  -0.069   1.224   2.383  0.4444  0.6769 -0.5778
 3698SOL    HW212035   0.059   1.158   2.335  1.5623  1.8227  0.7382
 3699SOL     OW12036   1.057   4.540   6.735  0.2209  0.1289  0.0381
 3699SOL    HW112037   0.972   4.522   6.773  0.0589 -2.7463 -1.4306
 3699SOL    HW212038   1.037   4.586   6.653  0.0176 -0.7900 -0.4439
 3700SOL     OW12039   4.571   0.748   1.995  0.6427  0.1179 -0.2860
 3700SOL    HW112040   4.584   0.654   2.008  0.7197  0.2212  0.4308
 3700SOL    HW212041   4.499   0.754   1.933  0.8659 -0.4146 -0.6131
 3701SOL     OW12042   0.357   3.464   2.787 -0.2058 -0.1029  0.1679
 3701SOL    HW112043   0.430   3.442   2.845  0.8325  0.1671 -0.9917
 3701SOL    HW212044   0.289   3.497   2.846 -0.6420 -3.2680  1.6671
 3702SOL     OW12045   3.598   1.258   3.132 -0.1687  0.0469  0.0222
 3702SOL    HW112046   3.615   1.339   3.083  1.3418 -0.9887 -1.2645
 3702SOL    HW212047   3.504   1.242   3.119 -0.4106  1.3548 -0.0282
 3703SOL     OW12048   6.794   0.904   0.179 -0.1233  0.5968 -0.1064
 3703SOL    HW112049   6.758   0.817   0.200  0.6363  0.4525  0.6517
 3703SOL    HW212050   6.831   0.894   0.092 -2.0435  0.7973 -1.0003
 3704SOL     OW12051   3.252   0.096   4.678  0.3676  0.0746 -0.2502
 3704SOL    HW112052   3.223   0.174   4.631 -1.6378 -0.8802 -0.7438
 3704SOL    HW212053   3.194   0.090   4.754  1.0085 -0.4941  0.2027
 3705SOL     OW12054   6.747   2.791   1.752 -0.0044  0.0929  0.3267
 3705SOL    HW112055   6.746   2.881   1.718  0.2969  0.4825  1.3049
 3705SOL    HW212056   6.693   2.794   1.830  1.0996 -0.2443  1.1340
 3706SOL     OW12057   6.925   2.938   0.308  0.5546  0.7685  0.1363
 3706SOL    HW112058   6.974   3.020   0.304  2.0790 -0.0966  0.1777
 3706SOL    HW212059   6.836   2.964   0.330  0.8125  2.4686 -0.6476
 3707SOL     OW12060   4.738   2.351   6.686  0.3490  0.0447  0.6708
 3707SOL    HW112061   4.721   2.275   6.630  1.4558  0.1265  0.2089
 3707SOL    HW212062   4.740   2.315   6.775  0.1399 -0.3390  0.5253
 3708SOL     OW12063   2.776   4.948   0.899  0.1739  0.2861 -0.0837
 3708SOL    HW112064   2.769   4.950   0.804  2.3599  2.5755 -0.2947
 3708SOL    HW212065   2.686   4.957   0.930 -1.1121 -3.9794 -1.7455
 3709SOL     OW12066   6.218   4.736   4.198  0.1035  0.2747  0.0882
 3709SOL    HW112067   6.285   4.774   4.142  1.3844  1.4733  2.2847
 3709SOL    HW212068   6.266   4.682   4.260 -1.1976 -0.6026  0.3799
 3710SOL     OW12069   4.896   2.239   6.311  0.2654 -0.2739 -0.2264
 3710SOL    HW112070   4.879   2.331   6.332  0.7934 -0.2827  0.2661
 3710SOL    HW212071   4.839   2.221   6.236 -0.6918  0.1367  0.3768
 3711SOL     OW12072   3.786   7.410   1.312 -0.7390 -0.2192  0.1291
 3711SOL    HW112073   3.836   7.337   1.273  2.2989  2.7120 -2.0895
 3711SOL    HW212074   3.834   7.431   1.392  0.3066  1.1570 -0.8153
 3712SOL     OW12075   6.031   0.589   1.201 -0.0423 -0.1983 -0.2803
 3712SOL    HW112076   6.104   0.648   1.185  0.9159 -1.0104  0.9000
 3712SOL    HW212077   5.987   0.582   1.116  0.2122  1.6313 -0.6101
 3713SOL     OW12078   5.021   6.429   4.102 -0.2748  1.0028  0.4970
 3713SOL    HW112079   5.061   6.500   4.051  2.4995 -0.4280  0.5286
 3713SOL    HW212080   5.056   6.349   4.063 -0.9483 -0.2507  2.3768
 3714SOL     OW12081   6.682   6.883   3.043 -0.2334 -0.1527  0.4468
 3714SOL    HW112082   6.603   6.836   3.015 -1.3829  1.1664  1.3949
 3714SOL    HW212083   6.753   6.822   3.024 -1.3646 -1.0055 -1.3172
 3715SOL     OW12084   3.970   1.686   1.193  0.4314  0.0338 -0.5123
 3715SOL    HW112085   4.032   1.750   1.157 -0.4010  0.6000 -0.9799
 3715SOL    HW212086   3.900   1.739   1.231  0.5727 -0.5894  0.6415
 3716SOL     OW12087   7.296   6.168   0.612 -0.0849  0.5591 -0.2391
 3716SOL    HW112088   7.305   6.081   0.649  1.9222  1.4452  1.5260
 3716SOL    HW212089   7.362   6.172   0.543 -0.8191  0.4036 -0.9715
 3717SOL     OW12090   2.907   6.982   0.746  0.0946  0.0439 -0.3293
 3717SOL    HW112091   2.908   6.983   0.651 -0.1741  1.1839 -0.3313
 3717SOL    HW212092   2.905   6.889   0.769  0.7958 -0.2477 -1.4160
 3718SOL     OW12093   3.414   2.994   5.771  0.5723 -0.1451 -0.0280
 3718SOL    HW112094   3.454   2.908   5.785  0.1306 -0.2453  0.6278
 3718SOL    HW212095   3.488   3.052   5.751  0.8799 -0.6533 -0.3768
 3719SOL     OW12096   5.042   0.758   3.753 -0.4962 -0.0940 -0.1656
 3719SOL    HW112097   5.108   0.769   3.685  0.2142 -0.6970  0.4147
 3719SOL    HW212098   4.971   0.818   3.728  0.5521  1.0604 -0.4462
 3720SOL     OW12099   4.298   5.889   6.760  0.2700 -0.3764 -0.5029
 3720SOL    HW112100   4.301   5.982   6.738  0.2340 -0.1199  0.5191
 3720SOL    HW212101   4.307   5.887   6.856  0.3942 -1.4289 -0.5289
 3721SOL     OW12102   7.315   6.146   6.105  0.1336 -0.3181  0.3420
 3721SOL    HW112103   7.336   6.135   6.013 -0.8608 -3.3865  0.3896
 3721SOL    HW212104   7.396   6.124   6.151  0.6953  1.4269  0.2603
 3722SOL     OW12105   3.964   0.094   2.743 -0.2238 -0.0232  0.3465
 3722SOL    HW112106   3.938   0.002   2.732 -0.7996  0.0613  0.9316
 3722SOL    HW212107   4.040   0.104   2.686  0.3469 -1.0776  0.8763
 3723SOL     OW12108   3.800   5.710   2.471  0.1370  0.6943  0.2156
 3723SOL    HW112109   3.876   5.671   2.515  0.2800  1.3216  0.5285
 3723SOL    HW212110   3.820   5.804   2.466  0.5306  0.5618 -1.9425
 3724SOL     OW12111   0.057   7.368   4.720 -0.3971 -0.0097  0.6450
 3724SOL    HW112112   0.042   7.398   4.810  0.9545 -0.2011  0.9541
 3724SOL    HW212113   0.151   7.380   4.706 -0.8252  1.5434 -1.3196
 3725SOL     OW12114   7.149   2.570   3.943  0.2086 -0.3120  0.5044
 3725SOL    HW112115   7.226   2.565   3.999  0.3900  1.1334  0.4276
 3725SOL    HW212116   7.093   2.498   3.971  1.0235 -0.5943  1.4300
 3726SOL     OW12117   0.583   6.560   6.628 -0.4837  0.8481 -0.0206
 3726SOL    HW112118   0.575   6.519   6.542 -1.5789 -1.7569  1.1913
 3726SOL    HW212119   0.674   6.543   6.654 -0.4755  0.6013 -0.2057
 3727SOL     OW12120   2.092   3.125   4.218  0.5318 -0.0982  0.8135
 3727SOL    HW112121   2.138   3.126   4.302  2.0782  0.3337 -0.0046
 3727SOL    HW212122   2.162   3.124   4.152 -0.6417  0.1716 -0.4805
 3728SOL     OW12123   2.938   2.374   3.433  0.6339  0.0459 -0.4353
 3728SOL    HW112124   2.872   2.304   3.440  1.9824 -1.5135 -2.2436
 3728SOL    HW212125   2.990   2.365   3.513  0.0420 -0.1668 -0.0603
 3729SOL     OW12126   6.110   6.447   1.558  0.5283 -0.0756 -0.4369
 3729SOL    HW112127   6.124   6.532   1.600 -0.1202 -0.0303 -0.3073
 3729SOL    HW212128   6.161   6.386   1.611  1.1819  0.2646 -0.6640
 3730SOL     OW12129   1.415   6.434   4.752 -0.0883  0.9021 -0.1301
 3730SOL    HW112130   1.332   6.461   4.791  0.2651  0.6578  0.8168
 3730SOL    HW212131   1.465   6.514   4.744  0.2457  0.8194  0.9418
 3731SOL     OW12132   1.350   5.066   6.366  0.3287 -0.1715  0.0695
 3731SOL    HW112133   1.346   5.160   6.384  3.0821  0.0014  0.2149
 3731SOL    HW212134   1.274   5.030   6.412  0.1219  1.7932  1.4099
 3732SOL     OW12135   2.555   6.047   6.765 -0.1741  0.0662  0.0759
 3732SOL    HW112136   2.545   6.139   6.789 -0.1671  0.4518 -1.3121
 3732SOL    HW212137   2.621   6.013   6.826  0.1249  1.0873  0.3376
 3733SOL     OW12138   2.932   0.284   5.247 -0.2427 -0.0841 -0.2422
 3733SOL    HW112139   3.007   0.334   5.214 -0.8213  0.8080 -0.2568
 3733SOL    HW212140   2.946   0.281   5.342  0.4327 -0.9974 -0.3489
 3734SOL     OW12141   4.331   4.718   5.845 -0.2975 -0.7201  0.4410
 3734SOL    HW112142   4.408   4.661   5.839 -0.6683 -1.0923 -1.1894
 3734SOL    HW212143   4.292   4.696   5.930  2.8114  1.4046  2.6679
 3735SOL     OW12144   5.437   5.326   5.482 -1.0348  0.0396 -0.5837
 3735SOL    HW112145   5.497   5.252   5.486 -0.9746  0.1237  0.3450
 3735SOL    HW212146   5.431   5.357   5.573  0.0583  2.0588 -1.1340
 3736SOL     OW12147   0.032   2.322   6.659 -0.4662  0.2517  0.4497
 3736SOL    HW112148   0.045   2.417   6.654 -1.0410  0.2854 -1.0048
 3736SOL    HW212149  -0.051   2.311   6.706  0.1391  0.4172  1.5669
 3737SOL     OW12150   1.666   7.268   3.022  0.2090 -0.3459  0.4618
 3737SOL    HW112151   1.754   7.305   3.030  0.7866 -1.9685  2.4916
 3737SOL    HW212152   1.632   7.305   2.941  2.9848 -0.1302 -0.7301
 3738SOL     OW12153   6.115   1.321   0.149  0.6881  0.0515 -0.1633
 3738SOL    HW112154   6.157   1.283   0.072 -0.0459  1.3437 -1.2474
 3738SOL    HW212155   6.032   1.274   0.156  0.1143  0.8756 -1.0584
 3739SOL     OW12156   4.250   5.214   0.531  0.5444 -0.2412 -0.4395
 3739SOL    HW112157   4.166   5.240   0.568  0.1578 -0.4188 -1.1686
 3739SOL    HW212158   4.311   5.283   0.559  0.4941 -0.8462  1.2815
 3740SOL     OW12159   3.528   3.844   1.775 -0.0560 -0.3183 -0.0737
 3740SOL    HW112160   3.605   3.866   1.723 -0.0905 -1.1326 -0.4722
 3740SOL    HW212161   3.541   3.753   1.802 -0.2578 -0.0557  0.9650
 3741SOL     OW12162   0.259   4.868   0.204  0.1966 -0.2137  0.1070
 3741SOL    HW112163   0.185   4.816   0.234  0.0614 -0.2104 -0.2205
 3741SOL    HW212164   0.224   4.922   0.133  0.9949 -1.7516 -1.5310
 3742SOL     OW12165   1.488   0.923   6.585  0.4965  0.5565  0.1444
 3742SOL    HW112166   1.539   0.997   6.553 -0.1629  0.8219 -0.3286
 3742SOL    HW212167   1.414   0.917   6.525  2.0677 -2.4188 -1.7332
 3743SOL     OW12168   2.281   1.668   0.941 -0.4649 -0.2814  0.4227
 3743SOL    HW112169   2.344   1.721   0.892 -1.2221  1.4898  1.2476
 3743SOL    HW212170   2.272   1.714   1.025 -1.9888 -1.1083  0.7548
 3744SOL     OW12171   3.861   4.506   6.744  0.2881 -0.1990 -0.5705
 3744SOL    HW112172   3.941   4.495   6.796  1.0456 -1.5449 -1.9566
 3744SOL    HW212173   3.846   4.420   6.705 -1.9813 -0.0362 -0.1899
 3745SOL     OW12174   3.404   5.497   3.661  0.3998 -0.2729  0.5178
 3745SOL    HW112175   3.359   5.541   3.732  2.0641 -1.4149  2.4199
 3745SOL    HW212176   3.389   5.551   3.584 -0.2225  1.8517  2.0652
 3746SOL     OW12177   1.429   1.680   0.787 -0.0372  0.0971 -0.1479
 3746SOL    HW112178   1.462   1.767   0.808 -0.1184  0.0270  0.2884
 3746SOL    HW212179   1.507   1.627   0.772  0.0663 -0.0918  0.9677
 3747SOL     OW12180   1.578   0.464   4.758 -0.5039 -0.1932  0.2854
 3747SOL    HW112181   1.495   0.452   4.711 -0.5673 -1.0492  0.5967
 3747SOL    HW212182   1.552   0.490   4.847 -0.4459 -0.5639  0.4124
 3748SOL     OW12183   4.026   3.752   7.189 -0.4625  0.3787 -0.1756
 3748SOL    HW112184   3.976   3.761   7.270 -2.5107 -1.4898 -1.1303
 3748SOL    HW212185   3.960   3.752   7.119  0.6616 -2.9729 -1.4686
 3749SOL     OW12186   6.727   7.303   5.654  0.2743  0.5317 -0.1626
 3749SOL    HW112187   6.692   7.307   5.565  0.9263 -3.5809 -0.7923
 3749SOL    HW212188   6.649   7.293   5.710  0.0019 -1.1961 -0.7929
 3750SOL     OW12189   6.227   6.153   4.377 -0.0001 -0.1434  0.2963
 3750SOL    HW112190   6.296   6.101   4.417  0.0004  0.9246  1.7789
 3750SOL    HW212191   6.149   6.135   4.429 -0.2225  0.6184  0.2410
 3751SOL     OW12192   0.175   5.771   2.419 -0.4229 -0.1380 -0.2686
 3751SOL    HW112193   0.125   5.712   2.362  0.1090 -0.4228 -0.4402
 3751SOL    HW212194   0.215   5.833   2.359 -1.1442  0.5349 -0.0751
 3752SOL     OW12195   0.678   4.785   2.069  0.5703 -0.0133 -0.0944
 3752SOL    HW112196   0.644   4.727   2.136  0.6182  0.4210  0.3104
 3752SOL    HW212197   0.602   4.837   2.042  0.8563  0.8305  0.6814
 3753SOL     OW12198   6.560   0.900   3.582 -0.2513 -0.2195  0.2110
 3753SOL    HW112199   6.601   0.964   3.524 -1.1145 -0.0356 -0.2131
 3753SOL    HW212200   6.474   0.938   3.603 -1.5603 -2.0040 -1.5080
 3754SOL     OW12201   5.199   4.025   1.007 -0.2428 -0.1286 -0.0333
 3754SOL    HW112202   5.121   4.015   0.953 -0.7923  2.7398  0.1052
 3754SOL    HW212203   5.181   4.101   1.063  2.2972  0.0978  0.6052
 3755SOL     OW12204   0.326   5.877   1.187  0.0206  0.1002  0.0965
 3755SOL    HW112205   0.343   5.936   1.113 -0.2186  0.5213  0.3768
 3755SOL    HW212206   0.397   5.895   1.248 -0.5972  0.8162  0.6216
 3756SOL     OW12207   0.184   1.325   5.295 -0.0038  0.5680  0.6697
 3756SOL    HW112208   0.221   1.245   5.259  1.6535  1.0482  1.2388
 3756SOL    HW212209   0.232   1.396   5.253 -2.2514  1.3759 -0.7250
 3757SOL     OW12210   5.819   2.172   4.380 -0.1054 -0.0619  0.2123
 3757SOL    HW112211   5.733   2.169   4.422 -1.5840  0.3673 -2.5492
 3757SOL    HW212212   5.857   2.255   4.410 -2.0838  1.3455 -0.9400
 3758SOL     OW12213   5.943   1.785   1.429  0.1531  0.4941  0.3116
 3758SOL    HW112214   5.914   1.718   1.367  2.1999 -0.5402  0.4072
 3758SOL    HW212215   5.872   1.790   1.493 -0.8195 -0.3003 -0.6568
 3759SOL     OW12216   4.712   4.584   5.291 -0.1273  0.0853  0.1822
 3759SOL    HW112217   4.792   4.634   5.311 -1.4583  1.5865  2.1934
 3759SOL    HW212218   4.656   4.647   5.244 -1.0912 -0.0837  1.0593
 3760SOL     OW12219   3.469   4.642   2.919  0.4475  0.1740 -0.1604
 3760SOL    HW112220   3.408   4.689   2.975 -2.5098 -2.4211 -0.9121
 3760SOL    HW212221   3.417   4.617   2.842  2.8645 -1.0270 -1.5235
 3761SOL     OW12222   5.297   6.631   2.646  0.7770  0.0292 -0.0932
 3761SOL    HW112223   5.254   6.709   2.680  0.4921 -0.1104 -0.1258
 3761SOL    HW212224   5.250   6.612   2.565  1.6564  0.5429 -0.7375
 3762SOL     OW12225   2.853   4.299   7.366  0.0040 -0.6120  0.0065
 3762SOL    HW112226   2.842   4.211   7.402 -0.6358 -1.1012 -1.3260
 3762SOL    HW212227   2.913   4.342   7.427  0.8003 -2.1553  0.3750
 3763SOL     OW12228   7.428   1.836   6.201 -0.1037  0.5593  0.3841
 3763SOL    HW112229   7.406   1.926   6.177 -0.0858  0.6337  0.6461
 3763SOL    HW212230   7.400   1.784   6.126 -0.7444  0.7087  0.5109
 3764SOL     OW12231   2.776   0.436   1.248  0.2198  0.0564 -0.3181
 3764SOL    HW112232   2.695   0.394   1.218  0.5032 -0.3883 -0.4833
 3764SOL    HW212233   2.846   0.380   1.212  0.5878 -1.3637  2.3512
 3765SOL     OW12234   3.319   1.687   0.474 -0.1418  0.2934  0.0955
 3765SOL    HW112235   3.391   1.629   0.498 -0.1951  0.5115  0.7874
 3765SOL    HW212236   3.246   1.659   0.530 -0.4941  0.3032 -0.3540
 3766SOL     OW12237   3.447   5.261   6.092 -0.7906 -0.6517 -0.1118
 3766SOL    HW112238   3.444   5.170   6.060 -1.3644 -0.3313 -1.0276
 3766SOL    HW212239   3.528   5.296   6.055 -0.7225 -0.7027 -0.0112
 3767SOL     OW12240   2.057   0.783   2.778  0.2465 -0.3810  0.4698
 3767SOL    HW112241   2.079   0.726   2.704 -0.5369 -1.4507  1.0225
 3767SOL    HW212242   2.026   0.864   2.738 -0.1879 -0.9513 -0.3845
 3768SOL     OW12243   2.203   7.081   2.155 -0.3041  0.3085  0.1221
 3768SOL    HW112244   2.109   7.093   2.145 -0.4439  1.5129  2.2524
 3768SOL    HW212245   2.212   7.006   2.214  0.0108  0.7258  0.6234
 3769SOL     OW12246   1.353   4.131   6.037 -0.5094 -0.3331 -0.2264
 3769SOL    HW112247   1.281   4.149   6.098 -0.9562  1.2312 -1.1366
 3769SOL    HW212248   1.431   4.126   6.092 -1.1780 -1.1601  0.6876
 3770SOL     OW12249   5.087   5.200   6.980 -0.2086  0.1405 -0.4014
 3770SOL    HW112250   5.093   5.183   6.886  0.6051  2.1508 -0.7487
 3770SOL    HW212251   5.145   5.135   7.019  1.1430  0.6293 -1.4848
 3771SOL     OW12252   3.259   3.404   5.754  0.1086  0.1250 -0.2822
 3771SOL    HW112253   3.246   3.394   5.849  1.7779 -0.2553 -0.0625
 3771SOL    HW212254   3.354   3.400   5.743 -0.0056  1.2621 -1.8670
 3772SOL     OW12255   3.801   4.542   0.920  0.3118  0.2652  0.4726
 3772SOL    HW112256   3.755   4.612   0.965  0.7713  1.5963 -1.0554
 3772SOL    HW212257   3.877   4.584   0.880  0.9997 -1.2378  0.1026
 3773SOL     OW12258   3.157   4.625   4.541  0.0122  0.2765 -0.0799
 3773SOL    HW112259   3.206   4.651   4.619  1.0745 -0.5866 -0.4245
 3773SOL    HW212260   3.083   4.574   4.575  1.1676 -1.1996  0.3691
 3774SOL     OW12261   3.228   3.698   3.820 -0.6090 -0.2470  0.2484
 3774SOL    HW112262   3.162   3.649   3.771  0.2165 -1.3201  0.1543
 3774SOL    HW212263   3.204   3.790   3.808 -0.3512 -0.4212 -2.4070
 3775SOL     OW12264   3.517   4.093   0.740 -0.4637 -0.3899  0.2594
 3775SOL    HW112265   3.566   4.128   0.814 -0.3558 -1.0832  0.5244
 3775SOL    HW212266   3.574   4.026   0.702 -0.1832  0.5082 -0.9471
 3776SOL     OW12267   5.606   1.128   7.267  0.0396 -0.2282 -0.1978
 3776SOL    HW112268   5.513   1.150   7.265  0.2889  1.0134  0.5843
 3776SOL    HW212269   5.621   1.082   7.184 -1.6265 -2.1072  0.4526
 3777SOL     OW12270   1.413   3.556   3.652 -0.6813 -0.0235  0.0535
 3777SOL    HW112271   1.478   3.606   3.702 -1.0742 -0.7978  1.3940
 3777SOL    HW212272   1.429   3.580   3.561  0.6924  0.7162  0.4594
 3778SOL     OW12273   4.019   4.064   3.185 -0.3562 -0.2908  0.2544
 3778SOL    HW112274   3.958   4.133   3.156 -0.6470 -0.5914  0.1428
 3778SOL    HW212275   4.032   4.082   3.278  1.0419  1.0345 -0.1521
 3779SOL     OW12276   6.752   6.431   1.549  0.0716  0.1216 -0.0112
 3779SOL    HW112277   6.839   6.434   1.588  0.3148 -0.0802 -0.5306
 3779SOL    HW212278   6.767   6.412   1.457 -0.5679 -0.8500  0.0657
 3780SOL     OW12279   5.119   2.398   4.155  0.3374 -0.3640 -0.5163
 3780SOL    HW112280   5.177   2.341   4.205  0.1277 -0.1230  0.0096
 3780SOL    HW212281   5.143   2.487   4.182 -1.2290 -0.3002  0.8110
 3781SOL     OW12282   6.217   1.798   7.414 -0.2487 -0.7508  0.7151
 3781SOL    HW112283   6.192   1.859   7.483  1.6528  1.5643 -0.5020
 3781SOL    HW212284   6.196   1.844   7.333  0.9638 -1.8291 -0.2458
 3782SOL     OW12285   6.308   6.051   1.719  0.0917 -0.0136 -0.4820
 3782SOL    HW112286   6.331   6.141   1.741  0.0370  0.0522 -0.6874
 3782SOL    HW212287   6.241   6.027   1.784  0.7174 -0.2012  0.1019
 3783SOL     OW12288   4.027   4.539   3.982  0.2659  0.0387 -0.1475
 3783SOL    HW112289   4.005   4.447   3.976  0.6953 -0.4239  3.2130
 3783SOL    HW212290   4.123   4.540   3.992  0.1258  0.6207  1.5471
 3784SOL     OW12291   3.269   3.424   2.199 -0.4281 -0.2952 -0.2739
 3784SOL    HW112292   3.257   3.431   2.294  2.0720  0.4887  0.0603
 3784SOL    HW212293   3.210   3.490   2.162 -0.3673  0.4116  0.8500
 3785SOL     OW12294   3.164   5.149   1.106 -0.0508 -0.4125  0.1208
 3785SOL    HW112295   3.142   5.186   1.191 -1.2239 -2.0785  0.5866
 3785SOL    HW212296   3.095   5.182   1.047 -0.1016 -0.4664  0.1502
 3786SOL     OW12297   3.340   4.217   2.554 -0.1557 -0.3719 -0.1281
 3786SOL    HW112298   3.282   4.148   2.520 -0.0866 -0.3331 -0.3272
 3786SOL    HW212299   3.426   4.175   2.559 -0.0543 -0.2141 -0.5299
 3787SOL     OW12300   3.234   6.873   7.108  0.0361  0.2646 -0.9571
 3787SOL    HW112301   3.216   6.873   7.015 -1.4932 -0.6157 -0.6811
 3787SOL    HW212302   3.157   6.913   7.148  0.5330  0.3416 -0.0349
 3788SOL     OW12303   6.164   0.739   6.152  0.1766 -0.1769  0.5034
 3788SOL    HW112304   6.144   0.746   6.246 -1.6610 -0.6521  0.1991
 3788SOL    HW212305   6.168   0.830   6.122 -0.0667 -0.0350  0.8895
 3789SOL     OW12306   5.685   2.544   5.577  0.2548  0.0646 -0.0464
 3789SOL    HW112307   5.719   2.493   5.651  1.0097  0.0286 -0.4077
 3789SOL    HW212308   5.590   2.536   5.584  0.2910  0.6886  1.3540
 3790SOL     OW12309   0.628   1.911   6.449  0.4010  0.5611  0.5285
 3790SOL    HW112310   0.670   1.887   6.532 -0.0329  0.2922  0.6798
 3790SOL    HW212311   0.534   1.911   6.470  0.3724  2.8970  0.6685
 3791SOL     OW12312   5.766   1.332   4.952  0.2602  0.2537  0.5558
 3791SOL    HW112313   5.696   1.324   4.887 -0.4226 -1.6038  1.4315
 3791SOL    HW212314   5.842   1.292   4.910  0.9162  2.4448 -0.4699
 3792SOL     OW12315   2.980   7.325   3.115 -0.1207  0.0363  0.2994
 3792SOL    HW112316   2.986   7.391   3.184  1.8959  0.0525  0.1602
 3792SOL    HW212317   3.070   7.294   3.103 -0.7307 -1.3822 -0.9598
 3793SOL     OW12318   4.049   5.129   5.885  0.5805 -0.1361 -0.1619
 3793SOL    HW112319   4.125   5.104   5.938  0.8021  0.7236 -0.0560
 3793SOL    HW212320   4.087   5.177   5.811  0.1924 -0.3949 -0.5314
 3794SOL     OW12321   6.264   5.596   4.463  0.0054  0.4889 -0.0126
 3794SOL    HW112322   6.170   5.590   4.482 -0.1256 -1.9564 -1.0995
 3794SOL    HW212323   6.269   5.588   4.368  1.3745 -0.0928  0.0946
 3795SOL     OW12324   2.697   2.135   3.937 -0.2297  0.1229  0.3603
 3795SOL    HW112325   2.702   2.231   3.930 -2.0609  0.2451  0.2536
 3795SOL    HW212326   2.739   2.115   4.020  0.3168  1.0056  0.3131
 3796SOL     OW12327   0.658   5.219   5.399  0.2732  0.4825  0.2993
 3796SOL    HW112328   0.713   5.248   5.326 -0.3095  0.5061 -0.1386
 3796SOL    HW212329   0.678   5.281   5.470 -0.0177  1.1836 -0.2205
 3797SOL     OW12330   7.323   2.587   1.195  0.2479 -0.2028  0.3325
 3797SOL    HW112331   7.352   2.559   1.281  0.2401  1.3650  0.8869
 3797SOL    HW212332   7.242   2.635   1.212 -0.3551 -0.8215 -0.6882
 3798SOL     OW12333   6.682   3.444   2.726  0.2499  0.3852 -0.1952
 3798SOL    HW112334   6.771   3.440   2.762  0.1371  1.9178  0.3501
 3798SOL    HW212335   6.661   3.538   2.726 -1.6808 -0.0022  0.4690
 3799SOL     OW12336   3.698   5.575   4.922 -0.2968  0.9095 -0.6364
 3799SOL    HW112337   3.678   5.595   5.013  1.6937  0.8855 -0.1457
 3799SOL    HW212338   3.613   5.579   4.877 -1.1599  1.9852  0.9981
 3800SOL     OW12339   2.418   6.601   6.912  0.1011  0.5308 -0.9086
 3800SOL    HW112340   2.348   6.536   6.923  0.7314  0.1648  1.5309
 3800SOL    HW212341   2.381   6.666   6.852 -1.6961 -0.5022 -1.0072
 3801SOL     OW12342   6.844   7.371   2.904 -0.0586  0.5826  0.0158
 3801SOL    HW112343   6.771   7.335   2.853  0.4444 -1.0359  0.3991
 3801SOL    HW212344   6.863   7.305   2.969  1.9499  0.8392 -0.2486
 3802SOL     OW12345   1.167   3.460   6.200 -1.1491  0.5553  1.0096
 3802SOL    HW112346   1.097   3.525   6.196 -0.5793  1.1394  0.2252
 3802SOL    HW212347   1.156   3.407   6.122  1.3913  2.9328 -1.1886
 3803SOL     OW12348   1.377   6.472   1.122  0.3502 -0.4606  0.1135
 3803SOL    HW112349   1.374   6.541   1.056  0.8088 -1.0258 -0.5088
 3803SOL    HW212350   1.297   6.483   1.172  0.3046  0.3722 -0.1318
 3804SOL     OW12351   1.818   0.936   5.811  0.0078  1.0248 -0.6358
 3804SOL    HW112352   1.858   0.861   5.856 -1.3379 -0.2366 -1.4651
 3804SOL    HW212353   1.837   1.010   5.868  1.6868  0.1421  0.0474
 3805SOL     OW12354   1.123   6.820   5.386 -0.1244 -0.5230 -0.2700
 3805SOL    HW112355   1.188   6.877   5.344 -0.9165 -1.2338 -2.6150
 3805SOL    HW212356   1.114   6.747   5.325 -3.0129 -0.5231  0.0508
 3806SOL     OW12357   0.435   4.555   0.386  0.3051  0.0119  0.2112
 3806SOL    HW112358   0.468   4.626   0.441  1.0335 -0.2157  0.0763
 3806SOL    HW212359   0.457   4.581   0.296  0.4120 -0.2984  0.1457
 3807SOL     OW12360   2.888   2.096   0.951  0.3713 -0.4672  0.7144
 3807SOL    HW112361   2.978   2.108   0.921  0.4986 -2.0996  0.3851
 3807SOL    HW212362   2.869   2.004   0.936 -2.0302  0.2228 -1.0712
 3808SOL     OW12363   6.033   4.837   4.001 -0.0514  0.1040  0.8126
 3808SOL    HW112364   6.084   4.766   4.039  0.8811 -0.6352 -1.6329
 3808SOL    HW212365   6.093   4.878   3.938 -1.5301  1.1578  0.0392
 3809SOL     OW12366   3.685   0.861   1.421  0.2353 -0.1835  0.4688
 3809SOL    HW112367   3.741   0.830   1.492  0.2882  0.5863  0.7767
 3809SOL    HW212368   3.742   0.919   1.370  0.2001 -0.7305 -0.2132
 3810SOL     OW12369   2.782   7.253   1.767  0.3050 -0.9896 -0.0087
 3810SOL    HW112370   2.796   7.333   1.717 -0.1636 -1.0919 -0.3128
 3810SOL    HW212371   2.756   7.188   1.702  0.5879 -1.3647  0.2477
 3811SOL     OW12372   0.923   6.310   7.000 -0.0180  0.2631 -0.1895
 3811SOL    HW112373   0.958   6.226   6.970  0.7493  0.3201  0.5198
 3811SOL    HW212374   0.859   6.287   7.068  2.2048  0.3144  2.0285
 3812SOL     OW12375   3.732   2.707   4.811 -0.0827  0.2647 -0.1178
 3812SOL    HW112376   3.714   2.633   4.870  0.6159 -0.7804 -1.1648
 3812SOL    HW212377   3.827   2.713   4.807 -0.1120  2.2680  1.1689
 3813SOL     OW12378   4.644   6.846   3.937  0.4435 -0.5400 -0.4137
 3813SOL    HW112379   4.571   6.785   3.947  0.3834 -0.2766  0.9088
 3813SOL    HW212380   4.615   6.906   3.868  0.2072 -1.5529 -1.2144
 3814SOL     OW12381   2.935   7.402   1.970 -0.4637  0.4713  0.3106
 3814SOL    HW112382   2.849   7.444   1.974 -1.6807 -1.8616  0.3019
 3814SOL    HW212383   2.930   7.342   1.896  0.5840 -0.9113  1.2941
 3815SOL     OW12384   0.410   6.362   5.037  0.8350  0.0878 -0.1658
 3815SOL    HW112385   0.362   6.406   5.108  1.7555 -0.4770  0.8224
 3815SOL    HW212386   0.343   6.310   4.992  0.0039  1.3686 -0.4909
 3816SOL     OW12387   2.829   2.681   7.163  0.2366  0.4171 -0.1524
 3816SOL    HW112388   2.908   2.627   7.160 -0.7754 -1.2591  1.3428
 3816SOL    HW212389   2.855   2.763   7.120  2.5119 -0.3859 -0.4772
 3817SOL     OW12390   6.589   5.546   1.722  0.6290 -0.6137  0.3982
 3817SOL    HW112391   6.654   5.560   1.654 -1.1745  1.0636 -1.1115
 3817SOL    HW212392   6.540   5.469   1.693  0.0795 -0.1053 -0.0354
 3818SOL     OW12393   0.751   0.730   0.790 -0.0858 -0.0804 -0.1044
 3818SOL    HW112394   0.745   0.642   0.753 -0.7035 -0.8010  1.6273
 3818SOL    HW212395   0.818   0.773   0.736  0.6791 -1.7982 -0.6200
 3819SOL     OW12396   5.700   3.059   5.748 -0.2866 -0.6432  0.0172
 3819SOL    HW112397   5.729   2.994   5.812  1.6674 -1.1988 -1.3377
 3819SOL    HW212398   5.610   3.033   5.727 -0.6641 -0.9564  1.8576
 3820SOL     OW12399   5.772   3.563   5.788 -0.5214 -0.1412 -0.2191
 3820SOL    HW112400   5.704   3.517   5.836 -1.6733 -0.4588 -2.0552
 3820SOL    HW212401   5.834   3.494   5.763 -1.3492 -0.4688 -1.4785
 3821SOL     OW12402   2.228   6.750   6.650 -0.4406  0.3290  0.4992
 3821SOL    HW112403   2.139   6.776   6.677 -0.8258 -0.8517  0.4256
 3821SOL    HW212404   2.237   6.660   6.681  0.9565  0.6129  0.9928
 3822SOL     OW12405   1.391   0.748   6.284 -0.9705  0.3856 -0.5582
 3822SOL    HW112406   1.472   0.701   6.301 -0.6938  0.3207 -1.9555
 3822SOL    HW212407   1.325   0.679   6.273 -1.0609  0.4137 -0.2077
 3823SOL     OW12408   7.151   5.479   6.881 -0.1355 -0.4258  0.6719
 3823SOL    HW112409   7.203   5.486   6.961 -0.7071 -1.2024  1.1222
 3823SOL    HW212410   7.117   5.390   6.881 -0.9929 -0.1224  0.0867
 3824SOL     OW12411   0.023   3.439   4.959  0.3511 -0.3685 -0.5068
 3824SOL    HW112412   0.017   3.515   4.902  1.5906 -1.3620 -2.0794
 3824SOL    HW212413  -0.052   3.384   4.936 -0.9430  0.6101  1.1175
 3825SOL     OW12414   5.262   6.747   1.226 -0.4809 -0.2596 -0.0690
 3825SOL    HW112415   5.283   6.692   1.151  0.9302  2.5770 -1.9081
 3825SOL    HW212416   5.346   6.768   1.265 -0.9026  1.0843  0.1757
 3826SOL     OW12417   5.350   5.427   4.120  0.7064  0.9616 -0.0459
 3826SOL    HW112418   5.375   5.507   4.074 -1.7181  0.6243 -2.2314
 3826SOL    HW212419   5.396   5.357   4.075 -0.4162  0.7923 -0.9992
 3827SOL     OW12420   2.787   6.321   3.777 -0.5699  0.3481 -0.5879
 3827SOL    HW112421   2.751   6.261   3.711  0.6041 -0.3966 -0.5797
 3827SOL    HW212422   2.747   6.293   3.859 -0.0777 -0.4108 -0.5951
 3828SOL     OW12423   5.963   5.262   0.300 -0.2737 -0.3272  0.4507
 3828SOL    HW112424   6.052   5.226   0.301  0.5969  1.3658 -2.7565
 3828SOL    HW212425   5.962   5.324   0.374  2.4396  2.0082 -1.2519
 3829SOL     OW12426   1.046   0.950   0.401 -0.1529  0.2192  0.2808
 3829SOL    HW112427   1.126   0.910   0.365  0.4309  1.7700 -0.2104
 3829SOL    HW212428   1.048   1.040   0.370 -1.2099  0.7674  1.7044
 3830SOL     OW12429   5.078   4.938   4.567 -0.5009 -0.1461 -0.0073
 3830SOL    HW112430   5.119   4.990   4.498  1.7301 -0.7855  0.7165
 3830SOL    HW212431   5.147   4.930   4.633 -0.7597 -3.8345 -0.0053
 3831SOL     OW12432   2.142   2.937   1.772  0.1563  0.2622  0.5594
 3831SOL    HW112433   2.140   2.902   1.683  0.0634 -0.2662  0.7658
 3831SOL    HW212434   2.234   2.931   1.798  0.3403  1.2495  0.1803
 3832SOL     OW12435   4.845   3.971   3.331 -0.2810  0.5097 -0.4206
 3832SOL    HW112436   4.753   3.946   3.324 -0.2720  0.6993 -1.3313
 3832SOL    HW212437   4.893   3.894   3.301 -0.2085  0.9912 -1.6227
 3833SOL     OW12438   0.774   5.055   4.780 -0.0579 -0.2627  0.3501
 3833SOL    HW112439   0.849   5.113   4.768 -0.1198 -0.3120 -0.3368
 3833SOL    HW212440   0.722   5.066   4.700  0.5864 -2.2223 -0.4019
 3834SOL     OW12441   1.427   2.322   4.958  0.8124 -0.5485 -0.2586
 3834SOL    HW112442   1.507   2.368   4.983 -0.3478  0.6658  1.4687
 3834SOL    HW212443   1.390   2.375   4.888  1.0342 -0.5939 -0.4133
 3835SOL     OW12444   6.114   2.096   0.680  0.1250  0.0543  0.4978
 3835SOL    HW112445   6.022   2.113   0.703 -0.0587 -0.8342  0.4768
 3835SOL    HW212446   6.141   2.172   0.630 -0.2347  0.8826  1.5321
 3836SOL     OW12447   1.074   1.075   5.816 -0.4679  0.3849  0.0440
 3836SOL    HW112448   1.154   1.069   5.868 -0.5818  1.3490  0.3419
 3836SOL    HW212449   1.100   1.118   5.735 -0.6289  0.4603  0.0308
 3837SOL     OW12450   0.152   2.728   0.880  0.1260  0.3181 -0.2775
 3837SOL    HW112451   0.240   2.721   0.842 -0.6343 -0.1251 -2.0786
 3837SOL    HW212452   0.138   2.644   0.925 -0.2042 -0.5898 -1.9739
 3838SOL     OW12453   5.340   1.024   6.183  0.3725  0.2304 -0.0695
 3838SOL    HW112454   5.247   1.042   6.196  0.0891 -0.3074 -1.1810
 3838SOL    HW212455   5.355   1.044   6.091  1.3571  0.2837  0.0943
 3839SOL     OW12456   0.493   5.225   1.624 -0.3083 -0.5792  0.1209
 3839SOL    HW112457   0.439   5.289   1.672 -0.2092 -2.0753  2.3769
 3839SOL    HW212458   0.519   5.271   1.544 -1.6831  1.5642  0.8098
 3840SOL     OW12459   0.714   1.328   4.322 -0.5794 -0.1400  0.5147
 3840SOL    HW112460   0.687   1.291   4.238 -0.2698 -1.8539  1.1271
 3840SOL    HW212461   0.776   1.264   4.357 -0.3421  0.7808  1.8447
 3841SOL     OW12462   0.168   6.828   4.256  0.3315 -0.2453 -0.0820
 3841SOL    HW112463   0.168   6.801   4.348  0.1318 -1.2440 -0.3580
 3841SOL    HW212464   0.260   6.819   4.228  1.1040  3.2425  0.8587
 3842SOL     OW12465   2.767   3.747   3.605 -0.0832  0.0129  0.1239
 3842SOL    HW112466   2.783   3.661   3.642  1.3091  1.9968  4.9412
 3842SOL    HW212467   2.672   3.759   3.613  0.1103  0.1717  2.9942
 3843SOL     OW12468   2.110   2.547   0.902  0.2236 -0.7422  0.0707
 3843SOL    HW112469   2.045   2.523   0.968  0.4105 -1.6305 -0.0544
 3843SOL    HW212470   2.106   2.477   0.838  0.3566 -0.1071 -0.6397
 3844SOL     OW12471   4.339   4.771   0.886  0.0102 -0.4962 -0.1484
 3844SOL    HW112472   4.418   4.820   0.910 -0.3416  0.4517 -0.8759
 3844SOL    HW212473   4.300   4.747   0.970 -0.1754  1.0914  0.2674
 3845SOL     OW12474   0.335   1.325   1.907 -0.0264  0.2925  0.0938
 3845SOL    HW112475   0.345   1.380   1.829  0.2182  2.0971  1.3375
 3845SOL    HW212476   0.417   1.277   1.914 -0.2746 -0.3402 -1.0541
 3846SOL     OW12477   3.540   1.316   1.350  0.0588  0.3230  0.5697
 3846SOL    HW112478   3.501   1.356   1.428  0.6424  0.2670  0.8991
 3846SOL    HW212479   3.490   1.352   1.277 -2.0009 -1.3057  1.0717
 3847SOL     OW12480   2.898   3.032   0.598  0.7066  0.5020  0.2763
 3847SOL    HW112481   2.840   3.079   0.659 -0.1028 -0.5693  0.3642
 3847SOL    HW212482   2.881   3.072   0.513 -0.2173  0.1702  0.2935
 3848SOL     OW12483   3.869   0.045   0.161  0.1428  0.1138 -0.7682
 3848SOL    HW112484   3.947   0.100   0.158 -0.2509  0.6386 -1.4548
 3848SOL    HW212485   3.853   0.019   0.071 -0.2880 -0.2679 -0.5902
 3849SOL     OW12486   5.888   2.565   2.734 -0.1116  0.2680 -0.5267
 3849SOL    HW112487   5.809   2.526   2.771 -0.5536  0.2935 -1.4282
 3849SOL    HW212488   5.904   2.516   2.654 -1.0908  2.3395 -2.0899
 3850SOL     OW12489   0.310   2.959   6.477  0.3522  0.1305  0.7782
 3850SOL    HW112490   0.373   3.029   6.488 -1.6314  2.1063  0.3567
 3850SOL    HW212491   0.321   2.930   6.386 -0.3326  1.5750  0.1924
 3851SOL     OW12492   5.221   7.188   3.242 -0.2548 -0.4509 -0.1842
 3851SOL    HW112493   5.301   7.239   3.230 -0.4712  0.1799  0.9249
 3851SOL    HW212494   5.193   7.208   3.331 -2.6162  0.6798 -1.1249
 3852SOL     OW12495   0.938   6.683   2.288  0.0173 -0.8600 -0.2093
 3852SOL    HW112496   0.881   6.642   2.353 -0.5051 -0.3353 -0.3275
 3852SOL    HW212497   1.021   6.636   2.296 -0.2404 -1.2267  0.3930
 3853SOL     OW12498   2.135   2.410   6.204  0.3395  0.4874  0.1683
 3853SOL    HW112499   2.067   2.355   6.242 -0.1720  1.2949  0.4584
 3853SOL    HW212500   2.090   2.491   6.181  0.8410  0.3751 -1.2874
 3854SOL     OW12501   5.443   3.652   7.314  0.3166  0.4578  0.4116
 3854SOL    HW112502   5.500   3.593   7.265  0.3917  0.0259  1.0142
 3854SOL    HW212503   5.393   3.596   7.372 -0.8874  0.8098 -0.2391
 3855SOL     OW12504   1.516   2.925   0.087  0.3500 -0.1076  0.4077
 3855SOL    HW112505   1.471   2.845   0.114  0.1032 -0.5123 -1.0760
 3855SOL    HW212506   1.586   2.936   0.151  0.9124 -1.9917  0.1997
 3856SOL     OW12507   0.294   0.501   4.305  0.3018 -0.4397 -0.4303
 3856SOL    HW112508   0.368   0.553   4.273  0.0061 -0.2552 -0.8294
 3856SOL    HW212509   0.253   0.466   4.226 -0.9468  0.7116 -0.3315
 3857SOL     OW12510   4.712   2.274   3.579  0.4009  0.5353 -0.4683
 3857SOL    HW112511   4.778   2.223   3.533  0.2127  0.1141 -0.2732
 3857SOL    HW212512   4.736   2.266   3.671 -0.9112 -1.0605 -0.2296
 3858SOL     OW12513   5.674   1.158   4.511 -0.2421 -0.1157  0.0511
 3858SOL    HW112514   5.650   1.200   4.594 -0.1349  2.3405 -1.0705
 3858SOL    HW212515   5.593   1.157   4.461  0.2855  1.0502 -0.8572
 3859SOL     OW12516   1.007   5.025   2.014 -0.5774 -0.4767  0.3048
 3859SOL    HW112517   1.057   5.092   1.966  0.4641 -1.7997 -0.5424
 3859SOL    HW212518   1.072   4.981   2.068 -1.2889 -0.6799  1.0076
 3860SOL     OW12519   7.283   5.430   6.634 -0.1057 -0.2697  0.7086
 3860SOL    HW112520   7.350   5.367   6.660 -1.6884 -2.3274  0.0811
 3860SOL    HW212521   7.232   5.445   6.714 -1.3445 -1.9472  0.2899
 3861SOL     OW12522   4.108   1.801   5.128  0.9829  0.0975  0.3754
 3861SOL    HW112523   4.052   1.749   5.070  1.7081 -0.5969  0.2758
 3861SOL    HW212524   4.075   1.890   5.119  0.7044 -0.0882 -0.6569
 3862SOL     OW12525   2.088   0.242   5.620 -0.4831 -0.0375 -0.0372
 3862SOL    HW112526   2.038   0.245   5.702 -0.9527 -1.2716 -0.2576
 3862SOL    HW212527   2.022   0.245   5.551 -0.0958  0.8536 -0.3828
 3863SOL     OW12528   0.375   3.879   4.462  0.8741 -0.0824  0.1335
 3863SOL    HW112529   0.380   3.964   4.507  0.7106  0.3893 -0.7119
 3863SOL    HW212530   0.445   3.827   4.501  1.7545  0.8548 -0.1530
 3864SOL     OW12531   6.591   2.072   5.630  0.4475 -0.3162  0.3883
 3864SOL    HW112532   6.551   2.130   5.695  1.7359 -0.1610  1.0858
 3864SOL    HW212533   6.520   2.050   5.571 -0.3092  1.1710  0.6843
 3865SOL     OW12534   0.320   3.039   3.887  0.2269  0.4538 -0.6368
 3865SOL    HW112535   0.258   3.111   3.893 -1.1591 -0.5730 -1.7512
 3865SOL    HW212536   0.268   2.961   3.906  1.3765 -0.3733 -0.7579
 3866SOL     OW12537   5.242   3.806   3.648 -0.0085  0.4578  0.1476
 3866SOL    HW112538   5.182   3.878   3.669 -0.4252  0.2935 -0.4578
 3866SOL    HW212539   5.199   3.759   3.577 -0.0040 -0.7431  0.9296
 3867SOL     OW12540   0.380   4.691   5.082  0.8275  0.3845  0.2716
 3867SOL    HW112541   0.339   4.776   5.099  0.6228  0.2779  0.3040
 3867SOL    HW212542   0.424   4.703   4.997  0.3577  0.3601  0.0216
 3868SOL     OW12543   6.294   5.262   6.008 -0.7509 -0.0215  0.8086
 3868SOL    HW112544   6.300   5.332   6.073  0.4387  1.4475 -0.7984
 3868SOL    HW212545   6.378   5.216   6.015  0.6368  1.9531 -1.5534
 3869SOL     OW12546   1.797   1.911   2.958  0.3947  0.0490  0.4569
 3869SOL    HW112547   1.817   1.841   2.896  0.1038  0.0708  0.3350
 3869SOL    HW212548   1.705   1.932   2.941  0.6487  0.8987  0.0533
 3870SOL     OW12549   3.466   5.774   0.452 -0.3975 -0.2750  0.1194
 3870SOL    HW112550   3.485   5.691   0.495 -3.4315 -0.2117  1.8860
 3870SOL    HW212551   3.391   5.755   0.395 -0.6724  1.0728 -0.0147
 3871SOL     OW12552   1.651   1.660   5.077 -0.1633 -0.1368 -0.2276
 3871SOL    HW112553   1.682   1.746   5.051  1.9342 -0.5512  0.6365
 3871SOL    HW212554   1.715   1.599   5.040 -1.9879 -1.4430 -1.4413
 3872SOL     OW12555   0.133   7.319   2.833  0.2023 -0.2288  0.5819
 3872SOL    HW112556   0.075   7.247   2.858 -0.6532  0.5893  1.0061
 3872SOL    HW212557   0.079   7.377   2.780  1.4176 -0.8674 -1.4914
 3873SOL     OW12558   0.413   3.787   0.005  0.3944 -0.5606  0.3144
 3873SOL    HW112559   0.349   3.829  -0.052  0.2414  0.8578  1.4670
 3873SOL    HW212560   0.365   3.717   0.048 -1.1507  1.8343  2.8338
 3874SOL     OW12561   0.507   1.088   2.009  0.6088 -0.0679 -0.2327
 3874SOL    HW112562   0.469   1.051   2.089 -0.9490  0.7793 -0.5164
 3874SOL    HW212563   0.599   1.101   2.029  0.6121 -1.5116  0.7982
 3875SOL     OW12564   3.399   0.415   4.219 -0.2211  0.0979  0.5089
 3875SOL    HW112565   3.392   0.467   4.299 -3.0582 -0.5723  0.7997
 3875SOL    HW212566   3.325   0.354   4.223 -0.5038  0.0620 -2.6283
 3876SOL     OW12567   3.002   0.118   0.557  0.1561 -0.1612  0.1651
 3876SOL    HW112568   3.049   0.193   0.519 -1.8940  1.1158 -0.0324
 3876SOL    HW212569   3.053   0.094   0.634  2.8322 -0.9192 -1.6769
 3877SOL     OW12570   2.360   0.992   7.074  0.1782  0.0894  0.2743
 3877SOL    HW112571   2.298   0.987   7.147 -1.4830  0.5497 -1.0303
 3877SOL    HW212572   2.343   0.913   7.022  0.1643  0.5812 -0.4853
 3878SOL     OW12573   0.841   1.608   4.724  0.5976  0.1241  0.3664
 3878SOL    HW112574   0.808   1.697   4.712 -0.2649 -0.4730 -2.2686
 3878SOL    HW212575   0.779   1.567   4.785 -0.1755  0.7538  0.0244
 3879SOL     OW12576   3.453   5.983   5.690 -0.3180  0.1640 -0.1122
 3879SOL    HW112577   3.529   6.040   5.682 -0.1521 -0.0055  0.2205
 3879SOL    HW212578   3.465   5.939   5.775  0.0277 -1.0407 -0.7641
 3880SOL     OW12579   5.365   6.743   4.143  0.4833 -0.1056  0.2279
 3880SOL    HW112580   5.327   6.771   4.060  0.9628  0.2987  0.1350
 3880SOL    HW212581   5.399   6.655   4.125 -1.3583 -0.9390  0.6268
 3881SOL     OW12582   7.168   4.700   3.828 -0.3011 -0.0946 -0.4370
 3881SOL    HW112583   7.216   4.647   3.892 -0.3052  0.7789  0.3191
 3881SOL    HW212584   7.080   4.662   3.826 -0.3856  0.0493  0.3056
 3882SOL     OW12585   1.924   4.787   0.177  0.3393 -0.2063 -0.1194
 3882SOL    HW112586   1.964   4.716   0.126  0.1749 -0.7712  0.5319
 3882SOL    HW212587   1.838   4.755   0.201  0.6819 -0.2466  1.1316
 3883SOL     OW12588   3.397   4.677   7.157 -0.6407 -0.3206 -0.3078
 3883SOL    HW112589   3.356   4.664   7.242 -0.7826 -0.6628 -0.4250
 3883SOL    HW212590   3.488   4.651   7.169 -0.0622  1.8663  0.3437
 3884SOL     OW12591   7.229   2.715   0.764 -0.1379  0.3474  0.5981
 3884SOL    HW112592   7.152   2.770   0.772  0.2811  1.0564 -0.1251
 3884SOL    HW212593   7.282   2.756   0.696  0.1293 -1.0224 -0.0618
 3885SOL     OW12594   0.392   4.074   4.656  0.3816 -0.3183  0.0341
 3885SOL    HW112595   0.330   4.068   4.729 -0.5391 -2.4490 -0.8367
 3885SOL    HW212596   0.478   4.080   4.698 -0.2347  0.2921  1.2699
 3886SOL     OW12597   5.048   6.742   4.820  0.6599 -0.3063 -0.0376
 3886SOL    HW112598   4.967   6.740   4.769  0.0142  0.4443  0.9095
 3886SOL    HW212599   5.029   6.689   4.897  0.6980  0.6684  0.6721
 3887SOL     OW12600   2.357   7.322   3.684 -0.5899  0.6199  0.0654
 3887SOL    HW112601   2.385   7.321   3.776  0.6690  0.5119 -0.2980
 3887SOL    HW212602   2.402   7.246   3.645 -1.8420  0.1093 -0.4441
 3888SOL     OW12603   0.634   2.814   3.734  0.3404 -0.0556  0.2404
 3888SOL    HW112604   0.588   2.878   3.680  0.8438  0.8485  0.8464
 3888SOL    HW212605   0.632   2.851   3.822  0.9602 -0.6989  0.5381
 3889SOL     OW12606   4.792   2.870   2.404  0.0540  0.1415  0.0559
 3889SOL    HW112607   4.833   2.946   2.362 -1.3921  0.3423 -1.0892
 3889SOL    HW212608   4.839   2.795   2.369  0.0495  0.4089 -0.5469
 3890SOL     OW12609   1.106   4.518   6.190  0.2477  0.4578 -0.1936
 3890SOL    HW112610   1.175   4.550   6.247  0.3088  1.5672 -0.8539
 3890SOL    HW212611   1.133   4.545   6.102 -0.2760 -0.4373 -0.6467
 3891SOL     OW12612   6.490   4.402   0.367  0.6751  0.2039  0.4238
 3891SOL    HW112613   6.511   4.496   0.367  0.1533  0.3254 -0.2835
 3891SOL    HW212614   6.515   4.372   0.280 -2.4172  0.4465 -0.6655
 3892SOL     OW12615   0.221   1.910   0.713 -0.2639  0.6182 -0.0965
 3892SOL    HW112616   0.228   2.003   0.734  1.4239  0.0239  2.4260
 3892SOL    HW212617   0.140   1.881   0.755  0.8675  0.3527  2.0299
 3893SOL     OW12618   3.949   0.239   6.414 -0.1022 -0.3381 -0.2821
 3893SOL    HW112619   3.995   0.231   6.498  1.5087 -0.8868 -1.1681
 3893SOL    HW212620   3.873   0.182   6.423  0.5424 -1.1092  0.5044
 3894SOL     OW12621   4.739   2.597   5.882 -0.5507  0.2283  0.2190
 3894SOL    HW112622   4.699   2.635   5.960 -1.7398  1.2157 -0.8342
 3894SOL    HW212623   4.782   2.670   5.840  0.5570 -0.4102  0.2037
 3895SOL     OW12624   5.852   3.773   1.039  0.4990  0.0170  0.0136
 3895SOL    HW112625   5.883   3.774   0.948 -1.1332 -0.3719 -0.5903
 3895SOL    HW212626   5.816   3.685   1.051 -0.3693  0.4401  0.6471
 3896SOL     OW12627   1.645   4.928   6.372  0.6795 -0.1930  0.1799
 3896SOL    HW112628   1.582   4.990   6.407  0.1813 -0.6834  0.1740
 3896SOL    HW212629   1.610   4.904   6.286 -0.1769 -1.9204  0.9512
 3897SOL     OW12630   1.586   1.885   7.094 -0.1832 -0.4575 -0.2100
 3897SOL    HW112631   1.548   1.935   7.167 -2.2690 -0.6394 -1.1039
 3897SOL    HW212632   1.675   1.920   7.085 -0.5507  0.9399  1.1594
 3898SOL     OW12633   3.484   0.361   1.339 -0.4745 -0.7232 -0.0191
 3898SOL    HW112634   3.577   0.357   1.319 -0.7820 -0.9278 -1.5446
 3898SOL    HW212635   3.461   0.453   1.326 -0.5223 -0.7063  0.1824
 3899SOL     OW12636   5.544   7.039   1.301  0.1418 -0.3142  0.1262
 3899SOL    HW112637   5.477   6.987   1.346  0.0613 -0.9717 -0.7393
 3899SOL    HW212638   5.501   7.122   1.281 -0.2552 -0.5441  0.0256
 3900SOL     OW12639   3.128   3.586   2.513  0.2175 -1.0547 -0.2278
 3900SOL    HW112640   3.170   3.666   2.546  1.1930 -1.9963  0.9443
 3900SOL    HW212641   3.058   3.617   2.456  0.9089  0.6232 -0.2251
 3901SOL     OW12642   5.949   5.039   0.091  0.5743  0.6836  0.5893
 3901SOL    HW112643   6.043   5.031   0.073  0.4610 -1.8484  0.7723
 3901SOL    HW212644   5.927   4.961   0.142 -2.2230 -0.6109 -2.2034
 3902SOL     OW12645   1.126   4.025   6.755 -0.4510 -0.7947  0.8107
 3902SOL    HW112646   1.115   3.945   6.704 -2.4770  0.4769 -0.8911
 3902SOL    HW212647   1.151   4.092   6.691  0.9024  0.0524  2.1450
 3903SOL     OW12648   2.298   3.898   6.031 -0.8628  0.3386  0.3451
 3903SOL    HW112649   2.367   3.947   6.075  1.0160 -2.0549  0.2670
 3903SOL    HW212650   2.246   3.965   5.985  1.8186  2.2238 -0.1535
 3904SOL     OW12651   4.211   5.807   1.251 -0.3123  0.0022  0.2918
 3904SOL    HW112652   4.279   5.769   1.306 -0.3475  0.2786  0.5297
 3904SOL    HW212653   4.161   5.732   1.219  1.0770 -0.3371 -1.2017
 3905SOL     OW12654   6.043   5.256   5.343  0.1686 -0.4633 -0.1352
 3905SOL    HW112655   6.006   5.296   5.263 -0.9520 -1.2323 -0.0323
 3905SOL    HW212656   6.080   5.330   5.392 -2.9499  0.7451  0.6577
 3906SOL     OW12657   4.676   4.873   4.472  0.1307 -0.4847 -0.1319
 3906SOL    HW112658   4.716   4.917   4.547 -2.1724  0.2815  0.7688
 3906SOL    HW212659   4.686   4.934   4.399  1.4294 -0.7516 -0.1924
 3907SOL     OW12660   4.088   3.646   3.111  0.3914  0.7418 -0.8769
 3907SOL    HW112661   4.128   3.563   3.086  0.1414  1.1279 -2.6842
 3907SOL    HW212662   3.994   3.634   3.092  0.2817  1.2675 -0.6782
 3908SOL     OW12663   4.138   6.021   7.057 -0.2206 -0.2304  0.1549
 3908SOL    HW112664   4.213   5.963   7.049  0.1167  0.4047 -1.9616
 3908SOL    HW212665   4.175   6.103   7.090  0.0381  0.0711 -0.8513
 3909SOL     OW12666   5.718   1.928   0.720 -0.0705  0.4145  0.0895
 3909SOL    HW112667   5.684   2.007   0.679  1.8475  0.0782 -2.3717
 3909SOL    HW212668   5.660   1.858   0.691 -0.9751  0.6864  1.1736
 3910SOL     OW12669   0.766   0.915   5.546  0.3216 -0.4398  0.0840
 3910SOL    HW112670   0.822   0.909   5.469  0.9257  0.1900  0.4608
 3910SOL    HW212671   0.820   0.958   5.612 -0.7326  0.5831  0.3243
 3911SOL     OW12672   2.868   2.151   1.226  0.7732  0.2498 -0.2593
 3911SOL    HW112673   2.835   2.240   1.216 -0.0080  0.1641  1.2235
 3911SOL    HW212674   2.881   2.120   1.137  0.0547  1.4866 -0.8191
 3912SOL     OW12675   3.955   1.651   2.784 -0.1720  0.2681 -0.2045
 3912SOL    HW112676   3.990   1.642   2.872  1.6545  2.4174 -0.6023
 3912SOL    HW212677   3.967   1.565   2.744  0.5627 -0.2670  1.1042
 3913SOL     OW12678   3.176   5.342   0.779  0.4556 -0.1493  0.0854
 3913SOL    HW112679   3.254   5.287   0.768 -0.3005 -1.0740 -0.7464
 3913SOL    HW212680   3.106   5.281   0.799 -0.2176  0.6132  0.1236
 3914SOL     OW12681   4.818   6.197   2.010  0.4327  0.2774  0.0405
 3914SOL    HW112682   4.882   6.268   2.007  1.4028 -0.5866 -2.4922
 3914SOL    HW212683   4.869   6.121   2.039  0.1128 -0.0065 -0.1395
 3915SOL     OW12684   1.020   6.955   3.430  0.1412  0.0980  0.2408
 3915SOL    HW112685   1.055   7.007   3.502 -1.3258  0.3177  0.8291
 3915SOL    HW212686   0.928   6.980   3.425  0.0331 -0.5118 -1.1959
 3916SOL     OW12687   6.534   1.019   4.729 -0.5502  0.3357 -0.3798
 3916SOL    HW112688   6.526   1.086   4.661  1.6020  0.0153 -1.0306
 3916SOL    HW212689   6.503   0.939   4.688  0.1090  0.2788 -0.7803
 3917SOL     OW12690   0.418   6.631   3.514  0.0990  0.3308 -0.6458
 3917SOL    HW112691   0.392   6.542   3.492  0.1974  0.6444 -2.1286
 3917SOL    HW212692   0.510   6.624   3.539 -0.8052 -0.5371  3.0995
 3918SOL     OW12693   0.948   1.655   1.120  0.6829 -0.1632 -0.5076
 3918SOL    HW112694   1.035   1.661   1.081  0.9340  0.8033  0.1675
 3918SOL    HW212695   0.890   1.696   1.056  1.0483  1.1326 -0.0398
 3919SOL     OW12696   2.707   2.631   0.129 -0.1958 -0.7633 -0.8438
 3919SOL    HW112697   2.627   2.680   0.111  0.7237  0.3498 -2.0712
 3919SOL    HW212698   2.697   2.549   0.080 -1.0136 -1.0926 -0.1463
 3920SOL     OW12699   0.236   3.665   3.786  0.2582  0.6873  0.2466
 3920SOL    HW112700   0.259   3.758   3.782  2.0063  0.3411  1.2283
 3920SOL    HW212701   0.286   3.625   3.714 -0.5276  0.4951 -0.2059
 3921SOL     OW12702   5.595   5.686   4.379 -0.5345 -0.1815  0.1459
 3921SOL    HW112703   5.595   5.591   4.379  1.1726 -0.2183  0.6701
 3921SOL    HW212704   5.593   5.710   4.472 -1.0572  0.2921  0.0137
 3922SOL     OW12705   6.786   7.155   0.458 -0.2070  0.4254 -0.0000
 3922SOL    HW112706   6.834   7.138   0.539 -0.9566  1.2115  0.6264
 3922SOL    HW212707   6.840   7.218   0.410  0.7053 -0.7601 -0.5705
 3923SOL     OW12708   4.188   6.062   6.452 -0.1927  0.1112  0.3154
 3923SOL    HW112709   4.190   6.075   6.547 -1.2424  3.0835  0.0356
 3923SOL    HW212710   4.276   6.083   6.423  0.9174 -3.3430  0.7649
 3924SOL     OW12711   0.093   0.621   4.472 -0.0748  0.0188 -0.4644
 3924SOL    HW112712   0.028   0.553   4.483 -0.1311  0.2986  1.2941
 3924SOL    HW212713   0.158   0.584   4.411 -0.9000 -0.9681 -0.7590
 3925SOL     OW12714   1.133   5.291   1.923  0.3496  0.7352 -0.5260
 3925SOL    HW112715   1.069   5.360   1.936  1.1858  1.2200  1.2389
 3925SOL    HW212716   1.189   5.295   2.000  1.5856 -0.6640 -1.3042
 3926SOL     OW12717   6.342   1.090   3.596 -0.6860 -0.4465 -0.3675
 3926SOL    HW112718   6.279   1.129   3.657 -0.3898 -0.6952  0.1078
 3926SOL    HW212719   6.404   1.160   3.577 -1.0695 -0.2201 -0.7860
 3927SOL     OW12720   0.910   0.493   2.194  0.0997  0.0721  0.5514
 3927SOL    HW112721   0.975   0.443   2.244 -0.1122  0.4749  1.2416
 3927SOL    HW212722   0.953   0.511   2.110  0.6188 -0.2604  0.7388
 3928SOL     OW12723   5.197   2.512   6.207 -0.3484 -0.3422  0.0451
 3928SOL    HW112724   5.277   2.557   6.180 -0.9019  1.1329  0.7240
 3928SOL    HW212725   5.217   2.419   6.198  2.2210 -0.1201  2.2354
 3929SOL     OW12726   7.365   7.102   4.395 -0.5753  0.2034  0.0069
 3929SOL    HW112727   7.324   7.030   4.443  0.9482  0.1622  1.3330
 3929SOL    HW212728   7.445   7.120   4.443  0.0237  1.5342 -1.4093
 3930SOL     OW12729   7.081   3.113   2.272 -0.8622  0.1847 -0.5590
 3930SOL    HW112730   7.101   3.026   2.239 -1.4817  0.2120 -1.0140
 3930SOL    HW212731   7.166   3.149   2.297 -0.5924 -0.5048 -0.4752
 3931SOL     OW12732   5.366   0.314   4.289 -0.2969  0.6701  0.3733
 3931SOL    HW112733   5.291   0.372   4.274 -0.4388 -0.2406 -3.5702
 3931SOL    HW212734   5.329   0.237   4.331 -1.1389  1.1061  0.4499
 3932SOL     OW12735   1.924   0.772   7.058  0.1477  0.7636  0.2391
 3932SOL    HW112736   1.868   0.849   7.061 -0.2850  0.5393 -1.2823
 3932SOL    HW212737   1.991   0.793   6.992 -0.5193 -0.4808 -0.8798
 3933SOL     OW12738   5.415   2.032   2.976  1.0392 -0.6215 -0.6525
 3933SOL    HW112739   5.370   2.063   2.898  0.2179  1.4835  0.5806
 3933SOL    HW212740   5.505   2.015   2.947  0.9116  0.7031 -1.9275
 3934SOL     OW12741   3.948   0.372   2.870  0.1082 -0.0070 -0.0978
 3934SOL    HW112742   3.911   0.292   2.908 -1.1423  0.6499  0.1270
 3934SOL    HW212743   3.932   0.363   2.776 -0.4474  0.1692 -0.0262
 3935SOL     OW12744   5.065   3.823   5.590 -0.0309  0.1914  0.2880
 3935SOL    HW112745   5.017   3.764   5.531  0.1980 -2.1288  2.2636
 3935SOL    HW212746   5.009   3.830   5.667 -0.1227  2.8073  0.0729
 3936SOL     OW12747   4.623   7.340   3.024 -0.1047  0.6629 -0.1719
 3936SOL    HW112748   4.597   7.407   2.961 -1.2023 -0.9362 -1.4847
 3936SOL    HW212749   4.549   7.280   3.029  0.7780 -0.3970  1.0548
 3937SOL     OW12750   2.608   5.608   4.648 -0.4122 -0.2008 -0.1029
 3937SOL    HW112751   2.571   5.643   4.568 -0.8769 -0.5298 -0.0325
 3937SOL    HW212752   2.588   5.514   4.645 -0.1788 -0.2649  0.2562
 3938SOL     OW12753   2.905   7.105   7.404 -0.1505 -0.1304 -0.2178
 3938SOL    HW112754   2.929   7.083   7.313 -0.3267 -1.2625 -0.0071
 3938SOL    HW212755   2.834   7.045   7.425  1.6728 -1.8330  1.5736
 3939SOL     OW12756   1.610   5.997   1.389 -0.0991  0.0289 -0.3500
 3939SOL    HW112757   1.532   5.942   1.384 -0.1789  0.2208 -1.8749
 3939SOL    HW212758   1.586   6.067   1.449 -0.1963 -1.2448  1.1531
 3940SOL     OW12759   4.104   3.865   6.279 -0.0987 -0.2290  0.2177
 3940SOL    HW112760   4.031   3.905   6.327 -1.5320 -1.5328 -0.7431
 3940SOL    HW212761   4.122   3.926   6.207 -1.1530 -0.4750 -0.2834
 3941SOL     OW12762   1.001   6.171   3.344 -0.2497 -0.8577  0.5848
 3941SOL    HW112763   1.088   6.144   3.372  0.3952 -0.5815 -1.0458
 3941SOL    HW212764   0.995   6.263   3.369  0.5131 -0.4752 -0.6003
 3942SOL     OW12765   0.160   4.707   1.090  0.6204 -0.1519 -0.0145
 3942SOL    HW112766   0.175   4.802   1.088  0.2704 -0.0960 -0.0383
 3942SOL    HW212767   0.157   4.685   1.183 -0.0769 -0.0121 -0.0002
 3943SOL     OW12768   4.311   6.153   4.178  0.1061  0.2055 -0.3658
 3943SOL    HW112769   4.282   6.241   4.205 -0.4925  0.4331 -1.6462
 3943SOL    HW212770   4.335   6.163   4.086 -1.1012 -1.2019 -0.8820
 3944SOL     OW12771   0.767   6.465   7.145  0.1709  0.4839 -0.6007
 3944SOL    HW112772   0.763   6.513   7.062 -0.5458 -2.1925 -2.2222
 3944SOL    HW212773   0.706   6.392   7.134  1.3478 -0.9590  1.6333
 3945SOL     OW12774   0.046   2.729   5.197  0.3209  0.0133  0.1444
 3945SOL    HW112775  -0.032   2.762   5.241 -0.1144 -1.2550  0.3740
 3945SOL    HW212776   0.028   2.740   5.103 -1.2677 -2.5413  0.0546
 3946SOL     OW12777   1.058   5.406   7.203 -0.3419  0.1685  0.8224
 3946SOL    HW112778   1.108   5.365   7.274  1.6779 -1.6807 -1.4791
 3946SOL    HW212779   1.110   5.483   7.178 -0.8511  0.6023  1.0839
 3947SOL     OW12780   5.157   1.636   6.124  0.0013 -0.6640 -0.3216
 3947SOL    HW112781   5.111   1.552   6.122  0.7097 -1.1085  0.9559
 3947SOL    HW212782   5.240   1.619   6.079 -0.4058 -0.2772 -1.2421
 3948SOL     OW12783   5.486   4.073   2.100 -0.6737 -0.0124  0.4429
 3948SOL    HW112784   5.475   4.164   2.073 -1.1213  0.5495  2.4243
 3948SOL    HW212785   5.573   4.070   2.139 -0.4650 -0.5710 -0.0420
 3949SOL     OW12786   5.696   1.031   1.231 -0.1971 -0.0375 -0.3351
 3949SOL    HW112787   5.780   1.076   1.235 -0.6801  0.8169  1.0196
 3949SOL    HW212788   5.707   0.954   1.287 -0.1370 -0.2432 -0.6298
 3950SOL     OW12789   2.730   7.273   6.550 -0.3248 -0.2887  0.1786
 3950SOL    HW112790   2.823   7.251   6.551 -0.7131 -2.0792  0.0774
 3950SOL    HW212791   2.710   7.291   6.458 -0.1544 -0.1845  0.1609
 3951SOL     OW12792   5.709   0.661   2.246 -0.2354  0.5315  0.0423
 3951SOL    HW112793   5.713   0.695   2.335 -0.1594  1.1819 -0.2093
 3951SOL    HW212794   5.780   0.597   2.242  0.3663  1.1860  0.1635
 3952SOL     OW12795   3.296   7.078   3.503 -0.0129  0.0840 -0.1449
 3952SOL    HW112796   3.380   7.115   3.530 -0.0812  0.5602 -0.5640
 3952SOL    HW212797   3.237   7.153   3.501  0.1566  0.2174 -2.2386
 3953SOL     OW12798   2.592   6.005   2.783 -0.1628  0.9409 -0.5717
 3953SOL    HW112799   2.531   5.971   2.849  0.2365 -0.3375 -0.8302
 3953SOL    HW212800   2.535   6.040   2.715 -0.5862  1.3224 -0.0377
 3954SOL     OW12801   4.916   1.561   5.421  0.0718  0.4293  0.0411
 3954SOL    HW112802   5.008   1.576   5.401 -0.2162  0.3250 -1.4775
 3954SOL    HW212803   4.909   1.466   5.432  0.4298  0.5773  1.8260
 3955SOL     OW12804   2.121   6.731   4.569 -0.0258 -0.1380 -0.3379
 3955SOL    HW112805   2.169   6.770   4.643  0.5156 -0.7734 -0.3403
 3955SOL    HW212806   2.112   6.639   4.593  0.9519 -0.5467 -1.4628
 3956SOL     OW12807   3.714   3.891   0.657  0.1226 -0.4243  0.3241
 3956SOL    HW112808   3.755   3.819   0.706 -0.3014 -1.0237 -0.1769
 3956SOL    HW212809   3.645   3.848   0.606  1.4377 -0.0755 -1.9017
 3957SOL     OW12810   2.016   1.085   5.948  0.3853  0.0125 -0.3267
 3957SOL    HW112811   2.030   1.166   5.898  0.7698 -0.2985 -0.7319
 3957SOL    HW212812   2.056   1.016   5.894  0.7225 -0.3460  0.3667
 3958SOL     OW12813   6.560   6.693   1.878  0.1890 -0.3744 -0.0487
 3958SOL    HW112814   6.596   6.617   1.925 -0.7958 -1.1467 -0.5067
 3958SOL    HW212815   6.596   6.769   1.924  2.5006 -1.0852 -0.5632
 3959SOL     OW12816   2.410   3.341   1.373 -0.2333 -0.0214  0.2544
 3959SOL    HW112817   2.380   3.265   1.423  1.1627 -0.5215  0.3689
 3959SOL    HW212818   2.432   3.406   1.439  0.2924 -0.1753  0.2295
 3960SOL     OW12819   5.337   3.499   0.092  0.1832 -0.3576 -0.1268
 3960SOL    HW112820   5.248   3.522   0.063  0.5227  1.5779  0.2494
 3960SOL    HW212821   5.329   3.408   0.122 -1.4439 -0.5435 -0.9722
 3961SOL     OW12822   5.447   5.144   3.577 -0.6911  0.5095 -0.1453
 3961SOL    HW112823   5.460   5.087   3.652 -1.9250 -1.2598 -1.1986
 3961SOL    HW212824   5.489   5.099   3.504 -0.0219  1.9029 -0.6637
 3962SOL     OW12825   1.447   4.667   3.953 -0.3965  0.1570  0.2671
 3962SOL    HW112826   1.522   4.710   3.912  0.1007  0.0975  1.0838
 3962SOL    HW212827   1.484   4.587   3.992 -1.0984 -0.4485 -0.2785
 3963SOL     OW12828   1.766   2.328   2.100  0.3930  0.2858  0.5135
 3963SOL    HW112829   1.827   2.363   2.165 -1.0474  0.7217  1.6921
 3963SOL    HW212830   1.681   2.328   2.144 -0.3796 -0.8267 -0.8822
 3964SOL     OW12831   1.920   5.094   3.873  0.1731  0.3951  0.4089
 3964SOL    HW112832   1.975   5.028   3.829  0.8196  0.1595  1.5465
 3964SOL    HW212833   1.892   5.051   3.954  0.9625  1.6622  1.3792
 3965SOL     OW12834   6.423   0.262   0.021  0.5438 -0.2006 -0.3516
 3965SOL    HW112835   6.390   0.177  -0.009 -0.1566  0.2134 -0.7932
 3965SOL    HW212836   6.357   0.294   0.082  0.1747  0.5708 -1.1288
 3966SOL     OW12837   6.094   7.349   5.571 -0.1228  0.3406 -0.1291
 3966SOL    HW112838   6.011   7.317   5.606 -0.4089  1.2412  0.0345
 3966SOL    HW212839   6.072   7.434   5.532  1.0568  1.4476  1.5091
 3967SOL     OW12840   0.629   5.202   6.406 -0.2744 -0.6358  0.1004
 3967SOL    HW112841   0.644   5.272   6.469 -0.4563 -0.7921  0.3186
 3967SOL    HW212842   0.561   5.147   6.446 -1.1615 -0.1463 -0.6975
 3968SOL     OW12843   3.381   1.511   5.637 -0.0066 -0.8524  0.1097
 3968SOL    HW112844   3.433   1.538   5.561  0.2956 -3.9214 -0.9439
 3968SOL    HW212845   3.371   1.590   5.689  1.4025  0.9714 -2.1845
 3969SOL     OW12846   2.383   1.670   2.897  0.7022  0.0019 -0.0600
 3969SOL    HW112847   2.456   1.720   2.933  1.1996 -0.1475 -0.8334
 3969SOL    HW212848   2.415   1.579   2.897 -0.5068 -0.4941  2.1491
 3970SOL     OW12849   3.150   0.421   7.392  0.2695 -0.1627  0.0706
 3970SOL    HW112850   3.118   0.362   7.459  0.9449  0.7396  1.2379
 3970SOL    HW212851   3.090   0.496   7.395 -0.8287 -0.9188 -1.6772
 3971SOL     OW12852   6.000   4.843   1.560  0.4432 -0.0624 -0.0396
 3971SOL    HW112853   5.909   4.844   1.532  0.8935  1.2777 -1.6406
 3971SOL    HW212854   6.043   4.784   1.499  0.5147 -1.4527  1.3087
 3972SOL     OW12855   2.578   2.649   6.051 -0.4962  0.4296  0.2846
 3972SOL    HW112856   2.502   2.687   6.096 -0.6764  0.5907 -0.1535
 3972SOL    HW212857   2.605   2.715   5.988  0.2580  0.5349  0.7113
 3973SOL     OW12858   1.518   5.465   2.838  0.3622  0.5592  0.1799
 3973SOL    HW112859   1.543   5.413   2.914  2.2051  1.9688  0.6025
 3973SOL    HW212860   1.512   5.402   2.766  2.2580 -0.2922  0.7358
 3974SOL     OW12861   2.368   5.704   5.401 -0.1324 -0.6564 -0.3235
 3974SOL    HW112862   2.428   5.671   5.469  1.9696  2.4792 -0.4471
 3974SOL    HW212863   2.300   5.751   5.449  0.4812  0.2294 -0.2998
 3975SOL     OW12864   4.270   5.567   6.451  0.0630  0.1641  0.0791
 3975SOL    HW112865   4.252   5.546   6.542 -0.9943  0.0869 -0.1274
 3975SOL    HW212866   4.211   5.640   6.431  1.9070  1.7507  0.0842
 3976SOL     OW12867   4.269   4.751   7.089 -0.5788  0.0657  0.4011
 3976SOL    HW112868   4.329   4.825   7.084  0.2672 -0.6629 -1.0917
 3976SOL    HW212869   4.276   4.720   7.179  0.3073  0.7864  0.5938
 3977SOL     OW12870   5.579   1.923   3.925  0.0827 -0.2878 -0.4276
 3977SOL    HW112871   5.549   2.002   3.969 -1.2063 -1.2560  0.5112
 3977SOL    HW212872   5.671   1.941   3.903  1.0947  0.0505  3.3364
 3978SOL     OW12873   2.160   2.798   3.907 -0.8286  1.0005 -0.0110
 3978SOL    HW112874   2.222   2.867   3.884  0.1016  0.0877 -0.3198
 3978SOL    HW212875   2.205   2.717   3.883 -1.2158  0.1773  1.8836
 3979SOL     OW12876   1.054   6.389   6.442 -0.3796  0.0781  0.5895
 3979SOL    HW112877   1.044   6.296   6.461  1.6155 -0.4653 -0.6871
 3979SOL    HW212878   1.021   6.399   6.353  0.6825  0.2710  0.1964
 3980SOL     OW12879   1.796   5.670   6.673  0.4720  0.2803 -0.1381
 3980SOL    HW112880   1.814   5.592   6.621 -1.7989 -0.7563  0.5481
 3980SOL    HW212881   1.865   5.732   6.647  2.1637 -1.8098 -0.9016
 3981SOL     OW12882   1.346   0.677   7.055 -1.0454 -0.1976  0.6236
 3981SOL    HW112883   1.392   0.730   7.120 -1.2435 -1.9869  2.2783
 3981SOL    HW212884   1.339   0.735   6.979 -0.1689  1.7104  1.9118
 3982SOL     OW12885   5.974   3.194   0.483  0.0079  0.2257 -0.1756
 3982SOL    HW112886   6.000   3.200   0.575  1.9363  0.6792 -0.7112
 3982SOL    HW212887   6.037   3.248   0.436 -0.1835 -0.9776 -1.9173
 3983SOL     OW12888   5.675   2.390   6.014  0.3630 -0.6219 -0.3025
 3983SOL    HW112889   5.637   2.327   6.074 -3.3807  0.8654 -0.8248
 3983SOL    HW212890   5.717   2.456   6.070 -2.0360  0.1258  0.7411
 3984SOL     OW12891   2.609   2.473   0.390  0.2566 -0.1003 -0.3708
 3984SOL    HW112892   2.670   2.495   0.462  0.4253 -0.2167 -0.4771
 3984SOL    HW212893   2.659   2.493   0.311 -0.4503  1.4535 -0.4541
 3985SOL     OW12894   6.674   0.701   6.944  0.0218  0.5055  0.0561
 3985SOL    HW112895   6.689   0.607   6.950  0.1521  0.3496 -2.0607
 3985SOL    HW212896   6.582   0.712   6.968 -0.6004 -0.4619 -1.7701
 3986SOL     OW12897   2.392   1.674   3.758 -0.0805 -0.1944 -0.2493
 3986SOL    HW112898   2.332   1.608   3.793  0.6493 -1.5095 -1.3730
 3986SOL    HW212899   2.467   1.672   3.819  0.7533 -1.7821 -1.2328
 3987SOL     OW12900   6.786   1.397   0.213 -0.2850 -0.4674  0.2353
 3987SOL    HW112901   6.813   1.329   0.152 -0.9896  0.5707 -1.2967
 3987SOL    HW212902   6.867   1.444   0.234 -0.4744  1.8248 -3.3247
 3988SOL     OW12903   3.706   5.415   2.826  0.6750 -0.5349  0.0438
 3988SOL    HW112904   3.723   5.348   2.759  0.5587 -0.7188  0.1975
 3988SOL    HW212905   3.768   5.485   2.805 -1.4666  0.8409 -2.2289
 3989SOL     OW12906   4.087   5.454   5.531  0.3572 -0.4151 -0.6175
 3989SOL    HW112907   4.073   5.377   5.476 -2.0803  0.2443 -1.0399
 3989SOL    HW212908   4.060   5.528   5.475  0.3530  0.5175  0.5833
 3990SOL     OW12909   5.951   4.064   1.530 -0.0870 -0.1637  0.5527
 3990SOL    HW112910   5.989   3.979   1.507  0.4335  0.5465 -1.5202
 3990SOL    HW212911   6.021   4.110   1.576  1.0367  0.4593 -1.6358
 3991SOL     OW12912   0.385   2.109   2.599 -0.6800 -0.6673 -0.4963
 3991SOL    HW112913   0.468   2.144   2.630  0.0134 -2.2427 -0.5010
 3991SOL    HW212914   0.328   2.110   2.676 -1.0157  1.2868 -0.6993
 3992SOL     OW12915   1.764   2.266   1.705 -0.2137  0.3528  0.1649
 3992SOL    HW112916   1.694   2.260   1.770  0.3706 -0.2077  0.7682
 3992SOL    HW212917   1.813   2.344   1.729  0.0379  0.1122  0.4410
 3993SOL     OW12918   5.053   4.402   5.848  0.0443 -0.5745 -0.0196
 3993SOL    HW112919   5.062   4.307   5.840  1.3959 -0.3277 -1.9169
 3993SOL    HW212920   5.136   4.431   5.885  1.4515  0.2214 -3.4566
 3994SOL     OW12921   3.593   6.798   5.481 -0.2134  0.8357  0.5561
 3994SOL    HW112922   3.616   6.808   5.389 -1.3931  0.9031  0.2431
 3994SOL    HW212923   3.674   6.770   5.524  0.4684  1.2742 -0.4124
 3995SOL     OW12924   6.259   0.943   4.924  0.2064 -0.2449 -0.2192
 3995SOL    HW112925   6.295   1.013   4.869  1.0241  0.1467  0.7826
 3995SOL    HW212926   6.241   0.985   5.008 -1.0978 -0.8176 -0.1832
 3996SOL     OW12927   5.367   4.339   4.774  0.7873 -0.0077 -0.3622
 3996SOL    HW112928   5.297   4.320   4.836  1.1614 -0.0048  0.0637
 3996SOL    HW212929   5.363   4.434   4.762  0.3531 -0.0750 -0.7804
 3997SOL     OW12930   6.606   7.051   6.711 -0.0631 -0.1985 -0.6910
 3997SOL    HW112931   6.587   6.987   6.642 -0.7322 -1.6424  0.7634
 3997SOL    HW212932   6.525   7.056   6.762  0.9897 -0.6815  1.1337
 3998SOL     OW12933   3.022   5.297   6.671 -0.4303 -0.2853 -0.3049
 3998SOL    HW112934   2.987   5.313   6.583  1.4257 -0.4491 -1.1193
 3998SOL    HW212935   3.108   5.258   6.656 -0.2289 -0.6700  1.6034
 3999SOL     OW12936   3.921   1.629   5.006 -0.4200  0.3393  0.1375
 3999SOL    HW112937   3.881   1.643   5.092 -0.8826 -1.1773  0.1831
 3999SOL    HW212938   3.855   1.660   4.943 -0.5791  0.3040  0.2866
 4000SOL     OW12939   2.150   5.446   6.758  0.2615 -0.8464  0.1903
 4000SOL    HW112940   2.084   5.465   6.691  0.4380  2.0145  0.6833
 4000SOL    HW212941   2.229   5.426   6.709 -0.2734 -1.4987 -0.4211
 4001SOL     OW12942   3.292   4.691   2.468  0.3257  0.3064 -0.3016
 4001SOL    HW112943   3.250   4.759   2.416  0.4504  0.7758  0.2003
 4001SOL    HW212944   3.292   4.614   2.411 -1.3783  0.2349 -0.2282
 4002SOL     OW12945   5.002   0.903   6.076 -0.3138 -0.1769 -0.0844
 4002SOL    HW112946   5.031   0.985   6.036 -1.4354 -0.0817 -0.7512
 4002SOL    HW212947   5.072   0.840   6.055  1.1806  0.8556  1.5079
 4003SOL     OW12948   0.444   6.847   5.492 -0.7437 -0.0827  0.0419
 4003SOL    HW112949   0.421   6.919   5.551 -0.7359  0.3637 -0.4943
 4003SOL    HW212950   0.360   6.819   5.456 -0.5756  1.0177 -1.3041
 4004SOL     OW12951   5.084   1.029   3.903 -0.4177 -0.5487  0.1717
 4004SOL    HW112952   5.037   1.042   3.820  0.8882 -0.2165 -0.5467
 4004SOL    HW212953   5.095   0.934   3.910  0.2329 -0.5321 -0.4964
 4005SOL     OW12954   0.742   3.565   2.122 -0.3117 -0.4068  0.2662
 4005SOL    HW112955   0.768   3.477   2.149 -0.2144 -0.8009 -1.0473
 4005SOL    HW212956   0.821   3.617   2.132 -0.0242 -0.7586 -0.1649
 4006SOL     OW12957   6.971   4.788   4.844 -0.0672 -0.2380 -0.2335
 4006SOL    HW112958   6.916   4.730   4.897 -0.4683  0.7690  0.4686
 4006SOL    HW212959   7.040   4.818   4.903  0.1345  0.0182 -0.5918
 4007SOL     OW12960   4.599   0.405   3.232  0.1910  0.0687 -0.6785
 4007SOL    HW112961   4.540   0.330   3.230  1.0362 -0.5998 -1.7893
 4007SOL    HW212962   4.682   0.370   3.261  0.0892  1.0034  0.8597
 4008SOL     OW12963   1.667   2.280   0.317  0.6268 -0.0734 -0.0710
 4008SOL    HW112964   1.657   2.193   0.356 -1.4573 -0.6323 -1.6254
 4008SOL    HW212965   1.731   2.268   0.247 -0.0813 -0.5439 -0.6604
 4009SOL     OW12966   0.196   2.412   0.990 -0.0357  0.3394 -0.4842
 4009SOL    HW112967   0.107   2.439   0.965 -0.3422 -1.4343 -1.4845
 4009SOL    HW212968   0.188   2.384   1.081 -0.4274  0.5316 -0.4584
 4010SOL     OW12969   5.564   6.351   3.616  0.2971  0.5289 -0.3795
 4010SOL    HW112970   5.636   6.288   3.615  1.8210  2.1841  0.1182
 4010SOL    HW212971   5.562   6.385   3.526  0.7023  1.0737 -0.1875
 4011SOL     OW12972   1.724   5.833   1.761  0.6419  0.2015  0.2043
 4011SOL    HW112973   1.744   5.748   1.799 -1.8240 -0.1525  0.9087
 4011SOL    HW212974   1.669   5.877   1.826 -0.5771  1.1136 -1.3402
 4012SOL     OW12975   2.535   4.153   6.049 -0.1937  0.4374 -0.3816
 4012SOL    HW112976   2.456   4.177   6.001 -0.8179 -1.6070 -0.4796
 4012SOL    HW212977   2.602   4.213   6.017 -1.0418  0.3846 -2.4357
 4013SOL     OW12978   3.116   3.651   0.155 -0.1940  0.1799 -0.2892
 4013SOL    HW112979   3.025   3.679   0.154  0.3140  2.0771  1.1406
 4013SOL    HW212980   3.141   3.651   0.248  1.2814 -0.1836 -0.6487
 4014SOL     OW12981   7.016   2.955   1.571 -0.0875 -0.0486 -0.1405
 4014SOL    HW112982   7.037   2.864   1.591 -1.3138 -0.7836 -1.9595
 4014SOL    HW212983   7.087   2.983   1.513 -0.0417 -0.0568 -0.0883
 4015SOL     OW12984   1.814   1.327   0.732  0.6233  0.1633 -0.4211
 4015SOL    HW112985   1.882   1.330   0.665  1.0507 -1.3069 -0.0944
 4015SOL    HW212986   1.853   1.277   0.804 -0.2917  0.5583  0.3707
 4016SOL     OW12987   2.635   6.255   2.902  0.4291  0.6531  0.4190
 4016SOL    HW112988   2.646   6.225   2.992 -0.6420 -0.8402  0.1000
 4016SOL    HW212989   2.653   6.178   2.849  0.7679  1.4394 -0.6381
 4017SOL     OW12990   2.871   1.211   5.363 -0.9349  0.4141  0.1941
 4017SOL    HW112991   2.922   1.225   5.444 -0.7914 -0.1968  0.2158
 4017SOL    HW212992   2.791   1.168   5.393 -1.2985  1.0280  0.1137
 4018SOL     OW12993   3.526   0.785   4.640 -0.2552 -0.0910 -0.3171
 4018SOL    HW112994   3.527   0.776   4.735 -2.7147  0.4835 -0.1825
 4018SOL    HW212995   3.453   0.844   4.621 -1.7528 -2.4640 -2.6959
 4019SOL     OW12996   6.249   2.734   4.788  0.4777 -0.1148 -0.3056
 4019SOL    HW112997   6.159   2.761   4.802  0.3766 -0.2256 -0.7174
 4019SOL    HW212998   6.302   2.806   4.824  0.2242 -0.0005 -0.1640
 4020SOL     OW12999   6.555   2.179   4.965  0.2412 -0.2010  0.6556
 4020SOL    HW113000   6.639   2.179   5.011  0.1295  0.7732  0.8781
 4020SOL    HW213001   6.567   2.115   4.895  2.5684  2.6040 -1.8000
 4021SOL     OW13002   1.347   3.006   4.655  0.1516 -0.4651 -0.2494
 4021SOL    HW113003   1.389   2.947   4.592 -1.1362 -0.7272 -0.8981
 4021SOL    HW213004   1.341   2.954   4.735  0.4769 -0.6625 -0.3515
 4022SOL     OW13005   4.883   0.932   4.586 -0.3409 -0.0094 -0.0342
 4022SOL    HW113006   4.911   1.005   4.642 -0.2096  1.0113 -1.3812
 4022SOL    HW213007   4.890   0.855   4.642  0.3570  0.8887  1.1696
 4023SOL     OW13008   2.351   5.354   1.455 -0.4254 -0.2810  0.1398
 4023SOL    HW113009   2.338   5.418   1.525  0.2187 -0.3302  0.3096
 4023SOL    HW213010   2.266   5.348   1.412 -0.5125  0.6423  0.1619
 4024SOL     OW13011   7.277   2.288   6.211  0.3564  0.5508  0.0017
 4024SOL    HW113012   7.335   2.239   6.154  2.2189  1.5014  1.0014
 4024SOL    HW213013   7.252   2.226   6.279 -1.2879 -0.3704 -1.3613
 4025SOL     OW13014   3.342   3.357   0.821  0.6488 -0.2602  0.5139
 4025SOL    HW113015   3.355   3.383   0.729 -0.4277 -2.1446 -0.2253
 4025SOL    HW213016   3.248   3.363   0.834  0.6780 -1.0981  1.1419
 4026SOL     OW13017   2.567   5.744   0.028 -0.0961 -0.5919  0.0584
 4026SOL    HW113018   2.564   5.840   0.027 -2.2562 -0.5123  2.7524
 4026SOL    HW213019   2.655   5.723   0.060  0.1793  0.5010  0.0644
 4027SOL     OW13020   3.977   5.105   7.244 -0.3688 -0.3691  0.1477
 4027SOL    HW113021   4.067   5.076   7.233 -0.5288 -0.9625  0.3373
 4027SOL    HW213022   3.981   5.175   7.309  0.0935  0.4286 -0.7227
 4028SOL     OW13023   2.771   0.602   5.010  0.3648 -0.0263 -0.0767
 4028SOL    HW113024   2.813   0.525   5.047 -1.5701 -0.4263  1.4658
 4028SOL    HW213025   2.699   0.567   4.957  0.3841  0.6989 -0.6051
 4029SOL     OW13026   5.258   2.861   0.763 -0.5633 -0.0384 -0.3255
 4029SOL    HW113027   5.267   2.882   0.670 -1.6164 -2.3856 -1.0223
 4029SOL    HW213028   5.194   2.790   0.766  2.1556 -2.6161  1.8318
 4030SOL     OW13029   1.219   2.142   6.252 -0.0856  0.3494 -0.9666
 4030SOL    HW113030   1.267   2.069   6.214 -1.1307 -1.2515  0.5950
 4030SOL    HW213031   1.143   2.101   6.294 -1.1390  2.4352 -0.6983
 4031SOL     OW13032   2.704   2.027   6.857 -0.2796 -0.7912  0.2368
 4031SOL    HW113033   2.651   1.958   6.895 -0.0139 -0.9260  0.3622
 4031SOL    HW213034   2.788   1.986   6.838  0.1961 -0.2841  1.1647
 4032SOL     OW13035   2.339   0.140   3.208  0.4330 -0.1093  0.1606
 4032SOL    HW113036   2.339   0.228   3.247  1.0472 -0.4361  0.9332
 4032SOL    HW213037   2.431   0.125   3.184  0.8542 -1.5059  2.3507
 4033SOL     OW13038   6.325   2.398   7.021  0.0741 -0.0674 -0.4406
 4033SOL    HW113039   6.241   2.353   7.026  0.3806 -0.5252  1.3117
 4033SOL    HW213040   6.370   2.356   6.947 -1.3400  0.4544 -1.6596
 4034SOL     OW13041   3.994   7.200   7.328 -0.1692 -0.0265 -0.0203
 4034SOL    HW113042   4.061   7.157   7.274  0.6631  0.1972  0.8036
 4034SOL    HW213043   3.912   7.183   7.283  0.6375  1.4438 -2.1841
 4035SOL     OW13044   5.675   3.392   1.880  0.5174  0.1244 -0.0599
 4035SOL    HW113045   5.582   3.398   1.903  0.6189  0.8318  0.1749
 4035SOL    HW213046   5.676   3.332   1.805 -0.2718  1.0570 -0.8469
 4036SOL     OW13047   5.593   5.486   6.385 -0.0069 -0.3699  0.1435
 4036SOL    HW113048   5.633   5.405   6.416  0.4132 -0.2734 -0.1501
 4036SOL    HW213049   5.540   5.517   6.460  1.9811  0.5388  1.2472
 4037SOL     OW13050   7.235   1.809   5.547  0.0862 -0.2214 -0.1480
 4037SOL    HW113051   7.320   1.829   5.587  2.5360 -0.9522 -4.3428
 4037SOL    HW213052   7.181   1.885   5.566  2.8573  1.9174 -0.1348
 4038SOL     OW13053   1.092   2.402   4.015  0.4833 -0.3777  0.0914
 4038SOL    HW113054   1.147   2.380   3.940 -0.1600 -1.2126 -0.1482
 4038SOL    HW213055   1.004   2.411   3.979 -0.1351 -2.3999  0.9586
 4039SOL     OW13056   2.184   4.235   6.163  0.0126  0.4993 -0.5334
 4039SOL    HW113057   2.202   4.217   6.255  1.6902  0.0049 -0.9208
 4039SOL    HW213058   2.224   4.321   6.147  0.3867  0.2542 -0.9573
 4040SOL     OW13059   0.259   1.889   0.079  0.0749 -0.3464  0.0372
 4040SOL    HW113060   0.268   1.897   0.174  0.4599  0.1256 -0.0384
 4040SOL    HW213061   0.273   1.796   0.062  0.6099 -0.3340  0.3796
 4041SOL     OW13062   5.894   6.515   2.094 -0.3666  0.7390 -0.0105
 4041SOL    HW113063   5.868   6.604   2.072 -1.9890  0.5340  0.8956
 4041SOL    HW213064   5.811   6.468   2.107  0.4216 -1.0799 -1.1278
 4042SOL     OW13065   4.285   7.145   7.182  0.1623  0.1037  0.2773
 4042SOL    HW113066   4.341   7.099   7.119  0.9685  0.6166  0.5988
 4042SOL    HW213067   4.283   7.236   7.150 -0.6465  0.0578  0.1708
 4043SOL     OW13068   5.505   6.548   0.071  0.0356 -0.3818  0.5435
 4043SOL    HW113069   5.525   6.642   0.079 -0.9832  0.1188 -1.9287
 4043SOL    HW213070   5.450   6.529   0.147  0.6600  0.8903  1.3517
 4044SOL     OW13071   5.424   0.407   6.609  0.5660  0.1308  0.3189
 4044SOL    HW113072   5.416   0.324   6.562 -1.5989  0.0025  0.7741
 4044SOL    HW213073   5.428   0.473   6.540 -0.1359 -0.2226 -0.0805
 4045SOL     OW13074   0.861   6.909   1.887 -0.4185  0.5922 -0.0097
 4045SOL    HW113075   0.898   6.979   1.940 -1.1490  0.2888  0.9223
 4045SOL    HW213076   0.829   6.845   1.950 -0.2262 -0.3431 -0.8372
 4046SOL     OW13077   6.052   7.245   7.301  0.5631 -0.6190  0.0280
 4046SOL    HW113078   6.082   7.280   7.217 -0.9980  0.2620 -0.1947
 4046SOL    HW213079   6.043   7.321   7.357 -2.4677 -0.5941 -0.3358
 4047SOL     OW13080   7.201   0.983   4.981  0.2290  0.1014  0.1165
 4047SOL    HW113081   7.204   1.053   4.916  1.1741 -0.2624 -0.2480
 4047SOL    HW213082   7.267   1.008   5.046 -1.1284  0.7787  1.2908
 4048SOL     OW13083   7.311   4.883   2.288 -0.9338 -0.1932  0.0282
 4048SOL    HW113084   7.311   4.915   2.378 -1.0974 -0.3435  0.0821
 4048SOL    HW213085   7.234   4.827   2.282 -1.6512  0.8264 -0.5634
 4049SOL     OW13086   6.839   5.616   0.927  0.1007 -0.0573  0.1541
 4049SOL    HW113087   6.763   5.627   0.870  0.6726 -0.9762 -0.8359
 4049SOL    HW213088   6.857   5.522   0.924  0.6409  0.0011  1.2161
 4050SOL     OW13089   4.548   1.253   2.884 -0.0754  0.0274  0.4931
 4050SOL    HW113090   4.575   1.293   2.801 -2.2810  1.8676  0.5521
 4050SOL    HW213091   4.583   1.311   2.951  0.7424 -0.8391  0.8449
 4051SOL     OW13092   1.205   5.176   5.758 -0.0984  0.3000 -0.0454
 4051SOL    HW113093   1.263   5.100   5.754 -0.2354  0.2409 -1.3265
 4051SOL    HW213094   1.214   5.208   5.847  0.4353 -0.8500  0.3362
 4052SOL     OW13095   7.402   2.095   6.062  0.1481  0.4598 -0.5241
 4052SOL    HW113096   7.486   2.091   6.016 -0.2716 -0.4586 -1.2385
 4052SOL    HW213097   7.340   2.124   5.995 -0.2444  0.3603 -0.2044
 4053SOL     OW13098   7.061   6.163   1.991  0.4293  0.4201 -0.4029
 4053SOL    HW113099   7.018   6.149   1.907  0.1233  2.1344 -0.5613
 4053SOL    HW213100   6.993   6.203   2.046  0.5789 -0.8132  0.7283
 4054SOL     OW13101   1.221   4.235   5.829  0.1136  0.4576 -0.5120
 4054SOL    HW113102   1.280   4.288   5.775  1.0138 -0.3847 -0.3985
 4054SOL    HW213103   1.275   4.208   5.903 -1.0177  1.3191  0.6614
 4055SOL     OW13104   1.839   0.425   5.012 -0.3943 -0.0184  0.2492
 4055SOL    HW113105   1.773   0.372   4.967  1.1520 -0.5321 -1.5647
 4055SOL    HW213106   1.800   0.513   5.015 -3.1897 -1.1309  3.7082
 4056SOL     OW13107   1.435   4.553   5.061 -0.1044 -0.3770  0.3196
 4056SOL    HW113108   1.415   4.578   5.152 -1.8636 -0.6792  0.0566
 4056SOL    HW213109   1.417   4.633   5.011  0.8586 -0.2134  0.2050
 4057SOL     OW13110   2.442   7.009   1.889  0.6378  1.1663  0.3597
 4057SOL    HW113111   2.467   7.080   1.831  0.8925  0.6363 -0.1928
 4057SOL    HW213112   2.347   7.019   1.900  0.1145 -0.2254 -2.2551
 4058SOL     OW13113   5.567   2.336   4.222 -0.2975 -0.3182 -0.3393
 4058SOL    HW113114   5.631   2.402   4.196  0.8318 -2.0045 -2.1450
 4058SOL    HW213115   5.482   2.380   4.213  0.4814  1.4357  0.4476
 4059SOL     OW13116   7.161   1.700   3.186  0.4010 -0.2858 -0.1411
 4059SOL    HW113117   7.161   1.788   3.225 -0.3381  0.5171 -1.8433
 4059SOL    HW213118   7.214   1.709   3.106 -3.8167  0.0955 -3.2265
 4060SOL     OW13119   3.613   0.456   6.543  0.3724 -0.0315 -0.5416
 4060SOL    HW113120   3.648   0.448   6.631 -0.6340  2.9095  0.2538
 4060SOL    HW213121   3.681   0.505   6.495 -0.4158  1.2338 -0.4173
 4061SOL     OW13122   0.972   3.139   2.668 -0.0569 -0.0940 -0.3020
 4061SOL    HW113123   0.905   3.157   2.602  0.3735  1.5308 -0.3381
 4061SOL    HW213124   0.938   3.064   2.717 -2.1877  1.0454  0.0650
 4062SOL     OW13125   0.003   2.681   7.105 -0.0982  0.6463 -0.0053
 4062SOL    HW113126  -0.084   2.703   7.137 -0.3721 -0.4409  0.0458
 4062SOL    HW213127   0.040   2.764   7.075 -1.3234  1.0406 -0.4502
 4063SOL     OW13128   6.412   0.297   3.181  0.3892  0.5545 -0.4743
 4063SOL    HW113129   6.327   0.304   3.225  0.2722 -1.3389 -0.2932
 4063SOL    HW213130   6.470   0.258   3.246  0.8584 -0.0365 -1.2200
 4064SOL     OW13131   0.512   4.354   4.786  0.5639 -0.3771  0.0299
 4064SOL    HW113132   0.533   4.393   4.871 -1.2657  1.4368 -0.2651
 4064SOL    HW213133   0.594   4.357   4.737  1.3662 -0.4027  1.3430
 4065SOL     OW13134   1.688   3.442   6.337  0.3540 -0.1209  0.0078
 4065SOL    HW113135   1.761   3.478   6.286 -1.5241  1.2567 -1.8794
 4065SOL    HW213136   1.663   3.363   6.289 -0.2269  0.1350 -0.1114
 4066SOL     OW13137   7.352   6.662   4.029 -0.1818  0.1458 -0.1112
 4066SOL    HW113138   7.421   6.634   3.969  2.2840  1.8046  1.7579
 4066SOL    HW213139   7.335   6.585   4.083 -0.5492 -0.5550 -1.1699
 4067SOL     OW13140   4.857   2.230   0.179 -0.0825  0.0531  0.2011
 4067SOL    HW113141   4.814   2.218   0.264  1.8364 -0.8886  1.0964
 4067SOL    HW213142   4.798   2.188   0.116 -0.4706 -1.2215  1.3686
 4068SOL     OW13143   2.351   3.110   0.461  0.0672 -0.0068 -0.5092
 4068SOL    HW113144   2.415   3.044   0.487 -1.8145 -1.5979  0.2872
 4068SOL    HW213145   2.268   3.063   0.456 -1.4280  2.3492  0.4360
 4069SOL     OW13146   1.721   4.461   1.636  0.1424  0.4174 -0.1601
 4069SOL    HW113147   1.704   4.447   1.730 -1.6197  0.2836 -0.4640
 4069SOL    HW213148   1.815   4.448   1.627  0.2424 -0.3245  1.4730
 4070SOL     OW13149   1.191   6.987   5.190  0.1434  0.2763 -0.0199
 4070SOL    HW113150   1.098   6.978   5.209 -0.0543  1.0767 -0.5790
 4070SOL    HW213151   1.201   6.955   5.100  1.3750 -5.2769  1.6624
 4071SOL     OW13152   6.840   6.558   5.214 -0.1857 -0.4469 -0.2514
 4071SOL    HW113153   6.884   6.491   5.163  1.5508  0.1536  0.3844
 4071SOL    HW213154   6.748   6.553   5.187  0.2174 -1.8996 -1.4555
 4072SOL     OW13155   3.998   0.899   4.181  0.1617  0.8702  0.2618
 4072SOL    HW113156   4.086   0.913   4.214 -0.3780  2.9256  0.9748
 4072SOL    HW213157   3.955   0.846   4.249  1.7595 -3.4394 -1.7205
 4073SOL     OW13158   7.411   1.960   3.792  0.1404 -0.1113 -0.8009
 4073SOL    HW113159   7.490   1.922   3.752  2.2803  2.5277  0.5713
 4073SOL    HW213160   7.353   1.979   3.718  1.4251 -0.7438 -2.0164
 4074SOL     OW13161   6.849   1.743   3.065 -0.3045 -0.4060  0.5440
 4074SOL    HW113162   6.882   1.730   3.154 -1.0061 -1.9932  0.6048
 4074SOL    HW213163   6.905   1.812   3.029  1.9937 -1.7799  1.2313
 4075SOL     OW13164   7.261   6.235   3.630 -1.2907 -0.0953  0.2061
 4075SOL    HW113165   7.285   6.274   3.546 -2.4721  0.5407  0.1494
 4075SOL    HW213166   7.246   6.143   3.610  2.2397 -0.8788  0.4750
 4076SOL     OW13167   3.792   0.389   4.440  0.0667  0.2380  0.0195
 4076SOL    HW113168   3.841   0.345   4.509  1.9829  0.9760 -0.8176
 4076SOL    HW213169   3.814   0.341   4.360 -0.4676  0.6785 -0.4006
 4077SOL     OW13170   3.951   0.884   1.938 -0.2978  0.0866  0.4529
 4077SOL    HW113171   4.037   0.842   1.937 -0.3856 -0.0961  0.5615
 4077SOL    HW213172   3.970   0.977   1.923 -0.2359 -0.1975 -1.4248
 4078SOL     OW13173   1.985   4.162   0.335  0.2523  0.0885 -0.8603
 4078SOL    HW113174   1.911   4.104   0.317 -0.2538  0.7533 -1.0103
 4078SOL    HW213175   2.010   4.143   0.426 -0.9060  0.6899 -0.3898
 4079SOL     OW13176   5.709   2.456   1.891  0.1159  0.2987  0.1014
 4079SOL    HW113177   5.647   2.384   1.889 -0.0301  0.3929 -2.0252
 4079SOL    HW213178   5.658   2.531   1.923 -1.0223  0.4278 -1.8205
 4080SOL     OW13179   4.419   5.190   6.517  0.2848  0.3417  0.4472
 4080SOL    HW113180   4.383   5.200   6.605 -1.0347 -0.6267  0.0512
 4080SOL    HW213181   4.452   5.100   6.514 -0.9469 -0.1122 -0.4525
 4081SOL     OW13182   3.671   4.409   2.944 -0.5123  0.2616  0.5547
 4081SOL    HW113183   3.600   4.470   2.923  0.3816  1.6538  1.4481
 4081SOL    HW213184   3.646   4.371   3.029 -1.6205 -1.5296 -0.5105
 4082SOL     OW13185   6.372   5.008   7.163 -0.0359  0.4204  0.1281
 4082SOL    HW113186   6.312   5.074   7.198 -0.9201 -0.0962 -0.3669
 4082SOL    HW213187   6.408   4.965   7.241 -1.3074 -0.1247  0.4492
 4083SOL     OW13188   4.898   4.164   1.653  0.0874  0.2221 -0.4233
 4083SOL    HW113189   4.944   4.239   1.690 -1.0633  0.1419  1.3109
 4083SOL    HW213190   4.954   4.089   1.675  0.1717  0.3517 -0.1889
 4084SOL     OW13191   3.461   3.511   3.912 -0.1287  0.3149 -0.4171
 4084SOL    HW113192   3.371   3.495   3.882 -0.4783 -0.3185  0.8823
 4084SOL    HW213193   3.457   3.595   3.956  0.2626  0.9844 -1.6222
 4085SOL     OW13194   6.636   6.464   2.629  0.3326 -0.1140  0.1672
 4085SOL    HW113195   6.714   6.422   2.594  0.7520  0.9876 -0.2657
 4085SOL    HW213196   6.667   6.514   2.705  0.0656  0.3693 -0.0320
 4086SOL     OW13197   3.733   5.721   4.003 -0.4517 -0.8537  0.0683
 4086SOL    HW113198   3.791   5.644   3.998  1.9899  0.9278 -1.1235
 4086SOL    HW213199   3.702   5.734   3.914 -1.0500 -0.5825  0.3098
 4087SOL     OW13200   4.521   5.201   3.251  0.3015 -1.2178 -0.5750
 4087SOL    HW113201   4.479   5.261   3.312 -2.1094 -1.1276 -2.1432
 4087SOL    HW213202   4.598   5.167   3.297  0.1369  0.9051  1.3887
 4088SOL     OW13203   1.650   4.844   6.839  0.2496 -0.2759  0.4100
 4088SOL    HW113204   1.594   4.799   6.902 -0.3155  0.4470  0.4340
 4088SOL    HW213205   1.697   4.910   6.890 -0.2397  0.3392  0.0767
 4089SOL     OW13206   6.448   6.783   3.704  0.1335  0.2341  0.3823
 4089SOL    HW113207   6.466   6.759   3.795 -1.4941  0.7663  0.8823
 4089SOL    HW213208   6.529   6.762   3.657  1.2917  0.6978  2.0859
 4090SOL     OW13209   2.106   6.029   2.784  0.3503 -0.4893  0.0090
 4090SOL    HW113210   2.149   5.944   2.796 -0.4958 -0.9657 -0.2575
 4090SOL    HW213211   2.158   6.090   2.837  1.3930 -1.0284 -0.3799
 4091SOL     OW13212   3.221   6.141   5.625 -0.1129  0.7248 -0.0973
 4091SOL    HW113213   3.268   6.170   5.547  0.0554 -1.7446 -1.0136
 4091SOL    HW213214   3.288   6.097   5.678 -0.8758 -0.7066 -0.2751
 4092SOL     OW13215   2.464   5.888   1.330 -0.2859  0.0774  0.3474
 4092SOL    HW113216   2.487   5.918   1.242  1.3438  1.1485  1.0958
 4092SOL    HW213217   2.440   5.796   1.319 -1.4042  0.5321 -1.3910
 4093SOL     OW13218   6.947   2.161   5.974 -0.2961  0.4743 -0.3832
 4093SOL    HW113219   6.921   2.126   6.059 -0.3722  3.2627  0.8638
 4093SOL    HW213220   6.895   2.112   5.910 -1.9442 -0.1578  1.3553
 4094SOL     OW13221   2.993   2.064   3.695  0.7669 -0.5646  0.4570
 4094SOL    HW113222   3.023   2.029   3.611 -0.7532 -1.7017  0.3394
 4094SOL    HW213223   2.897   2.060   3.689  0.6302 -0.9797  2.3601
 4095SOL     OW13224   1.867   5.291   2.396 -0.6674 -0.3841 -0.3424
 4095SOL    HW113225   1.812   5.219   2.364  0.0044 -0.3881 -1.5414
 4095SOL    HW213226   1.865   5.281   2.492 -1.2617 -1.4907 -0.4474
 4096SOL     OW13227   6.336   3.684   4.671  0.3904 -0.0455 -0.8158
 4096SOL    HW113228   6.397   3.630   4.620 -1.2596 -1.9600 -0.9199
 4096SOL    HW213229   6.280   3.620   4.716  0.8336  1.5633  2.2980
 4097SOL     OW13230   3.794   0.870   0.059  0.4862 -0.0722  0.0493
 4097SOL    HW113231   3.732   0.894  -0.009 -0.5886 -1.8047  0.3524
 4097SOL    HW213232   3.855   0.809   0.016  2.5430  2.1920 -0.4506
 4098SOL     OW13233   5.227   7.307   5.839  0.0590  0.2436  0.2049
 4098SOL    HW113234   5.141   7.330   5.873 -0.9389 -1.6351 -0.8903
 4098SOL    HW213235   5.259   7.238   5.898  0.6746  0.6819  0.3979
 4099SOL     OW13236   4.375   0.203   3.029  0.1947  0.3254 -0.2365
 4099SOL    HW113237   4.435   0.149   2.977 -3.1456 -2.0452 -2.0527
 4099SOL    HW213238   4.344   0.270   2.968  0.2700  0.8931  0.3510
 4100SOL     OW13239   4.309   0.442   3.861 -0.3870 -0.6509 -0.2165
 4100SOL    HW113240   4.235   0.431   3.801 -0.6854  1.7405 -0.3808
 4100SOL    HW213241   4.276   0.500   3.929  1.3549  0.6198 -0.3874
 4101SOL     OW13242   3.094   0.254   4.533 -0.5742 -0.3887 -0.3924
 4101SOL    HW113243   3.128   0.294   4.453 -1.0136 -0.6514 -0.7152
 4101SOL    HW213244   3.012   0.301   4.550 -0.5289 -0.3974 -0.1484
 4102SOL     OW13245   1.778   4.598   4.648  0.2366  0.7363 -0.2475
 4102SOL    HW113246   1.841   4.610   4.577 -0.2031  2.8050 -0.3674
 4102SOL    HW213247   1.715   4.669   4.635 -0.9533 -0.0419  1.0745
 4103SOL     OW13248   5.071   6.369   4.947  0.4904  0.0442 -0.6045
 4103SOL    HW113249   5.152   6.411   4.919 -0.8386  1.5343 -2.4290
 4103SOL    HW213250   5.020   6.440   4.986 -0.4107 -0.6220 -0.5393
 4104SOL     OW13251   5.851   4.600   4.187  0.4337  0.0515  0.0314
 4104SOL    HW113252   5.768   4.571   4.150  0.9962 -0.6816 -0.6988
 4104SOL    HW213253   5.914   4.591   4.115  0.9461  1.6497  0.2296
 4105SOL     OW13254   6.534   1.325   4.562 -0.0001 -0.0629  0.1733
 4105SOL    HW113255   6.524   1.374   4.644  1.2089 -1.0202  0.9299
 4105SOL    HW213256   6.620   1.351   4.529 -0.2490 -0.0972 -0.5212
 4106SOL     OW13257   1.308   3.478   2.815  0.0558 -0.0575  0.5034
 4106SOL    HW113258   1.249   3.409   2.781 -0.4056  1.8334 -3.1044
 4106SOL    HW213259   1.260   3.516   2.888 -2.0471 -0.3670 -0.6150
 4107SOL     OW13260   6.703   6.512   6.345  0.6578  0.8344  0.1053
 4107SOL    HW113261   6.612   6.516   6.318  1.0766 -0.7906 -1.8427
 4107SOL    HW213262   6.748   6.576   6.289  0.8431  0.9091  0.3381
 4108SOL     OW13263   0.719   3.434   3.214 -0.2238  0.1353 -0.2819
 4108SOL    HW113264   0.782   3.432   3.143  1.4224 -0.5345  1.1325
 4108SOL    HW213265   0.714   3.344   3.245 -1.6714  0.2257 -0.1620
 4109SOL     OW13266   6.385   2.095   4.332  0.1296 -0.4250  0.2191
 4109SOL    HW113267   6.421   2.174   4.292 -0.4004  0.5009  1.5063
 4109SOL    HW213268   6.312   2.071   4.275 -0.7833  1.0294  0.7271
 4110SOL     OW13269   5.800   4.552   6.774 -0.0152  0.5038  0.4375
 4110SOL    HW113270   5.852   4.556   6.855 -0.2621  0.4811  0.6010
 4110SOL    HW213271   5.791   4.459   6.756  1.2226  0.5334 -0.3985
 4111SOL     OW13272   6.808   5.073   6.656 -0.6258  0.0296 -0.6207
 4111SOL    HW113273   6.881   5.107   6.604 -0.5922  0.0177 -0.5814
 4111SOL    HW213274   6.839   5.077   6.747 -1.2426  1.4436 -0.4537
 4112SOL     OW13275   0.669   5.957   0.178  0.2525 -0.4765  0.8035
 4112SOL    HW113276   0.636   5.927   0.263  0.1332  0.7567  1.2127
 4112SOL    HW213277   0.753   5.914   0.169 -0.9616 -2.8870  0.2069
 4113SOL     OW13278   5.149   5.771   1.050 -0.0862 -0.1065  0.9584
 4113SOL    HW113279   5.059   5.792   1.073 -0.1660  0.7466 -0.0928
 4113SOL    HW213280   5.201   5.838   1.096 -0.0045 -0.3857  1.2795
 4114SOL     OW13281   1.980   1.636   6.474 -0.2583  0.4783 -0.0737
 4114SOL    HW113282   2.054   1.587   6.439 -0.9662  0.1359 -1.1457
 4114SOL    HW213283   1.973   1.608   6.565  1.4638  1.1832  0.3087
 4115SOL     OW13284   3.576   3.458   2.301  0.1799 -0.4121 -0.3721
 4115SOL    HW113285   3.487   3.487   2.279  0.3896 -0.6112 -1.5407
 4115SOL    HW213286   3.564   3.375   2.347 -0.2792  0.0836  0.4349
 4116SOL     OW13287   6.871   5.953   1.699 -0.5490  0.0165 -0.9124
 4116SOL    HW113288   6.893   5.922   1.787  0.7172  3.1625  0.0307
 4116SOL    HW213289   6.942   5.920   1.643 -0.0971 -0.1100 -0.2704
 4117SOL     OW13290   1.860   6.517   5.400 -0.0311  0.1321 -0.0349
 4117SOL    HW113291   1.922   6.576   5.442  1.9888 -1.2673 -0.9035
 4117SOL    HW213292   1.881   6.431   5.436 -0.7327 -0.5475 -1.1875
 4118SOL     OW13293   0.441   1.672   3.314 -0.0230 -0.2819  0.6569
 4118SOL    HW113294   0.406   1.756   3.286  2.1933 -0.3036 -2.7226
 4118SOL    HW213295   0.489   1.691   3.395 -1.3112  1.1992  1.1165
 4119SOL     OW13296   7.129   2.504   6.121 -0.2224  0.0194 -0.0999
 4119SOL    HW113297   7.181   2.445   6.175  0.8891 -1.3407 -2.5259
 4119SOL    HW213298   7.142   2.474   6.031 -3.1198  1.2785 -1.0830
 4120SOL     OW13299   5.547   2.193   1.918 -0.3034  0.5839 -0.2440
 4120SOL    HW113300   5.604   2.213   1.993 -0.3021 -0.2063 -0.0303
 4120SOL    HW213301   5.477   2.140   1.955 -1.7024  2.2693 -0.3225
 4121SOL     OW13302   0.249   2.088   1.305  0.0450  0.3120 -0.3916
 4121SOL    HW113303   0.195   2.166   1.293  0.5959  0.7331 -0.1720
 4121SOL    HW213304   0.322   2.100   1.244  0.3712  0.1970 -0.0304
 4122SOL     OW13305   2.761   7.321   7.358  0.7542 -0.3180 -0.7055
 4122SOL    HW113306   2.749   7.368   7.440  1.2155  0.2153 -0.9420
 4122SOL    HW213307   2.815   7.245   7.381  1.4725  0.2088 -0.6436
 4123SOL     OW13308   1.915   4.927   1.463  0.0167  0.1168 -0.2624
 4123SOL    HW113309   1.931   4.851   1.518  1.5718  0.4024 -0.2881
 4123SOL    HW213310   1.999   4.944   1.420 -1.1025 -0.0633 -2.7033
 4124SOL     OW13311   3.038   4.867   0.225 -0.2980 -0.3043 -0.2305
 4124SOL    HW113312   3.127   4.898   0.245 -0.9653  1.2238  0.5761
 4124SOL    HW213313   3.028   4.881   0.131  0.0086  0.3851 -0.1665
 4125SOL     OW13314   0.211   0.531   5.488  0.1340  0.0561  0.1777
 4125SOL    HW113315   0.300   0.539   5.522  0.2437 -1.1921  0.2304
 4125SOL    HW213316   0.156   0.563   5.558  0.5405  1.2172 -0.0030
 4126SOL     OW13317   3.159   0.903   2.693 -0.1083  0.4768 -0.5886
 4126SOL    HW113318   3.183   0.858   2.612  1.9833 -1.4419  0.9872
 4126SOL    HW213319   3.239   0.903   2.745 -1.3726  1.7486  1.4758
 4127SOL     OW13320   5.788   1.552   2.577 -0.3568 -0.0007 -0.2800
 4127SOL    HW113321   5.880   1.527   2.578  0.2729  2.0308  2.0659
 4127SOL    HW213322   5.787   1.642   2.610 -3.3825 -0.9711  2.9143
 4128SOL     OW13323   3.676   6.071   5.335 -0.4713 -0.0297  0.4433
 4128SOL    HW113324   3.642   6.151   5.374  0.1190  0.0645  0.7864
 4128SOL    HW213325   3.771   6.079   5.344 -0.4339 -1.3792  1.7488
 4129SOL     OW13326   3.053   3.295   0.119  0.3988  0.4379  0.5776
 4129SOL    HW113327   2.976   3.341   0.152 -2.2281 -0.1452 -3.9039
 4129SOL    HW213328   3.109   3.364   0.084  0.0808  0.6605  0.4994
 4130SOL     OW13329   3.590   4.001   7.393  0.2729  0.0987  0.5246
 4130SOL    HW113330   3.625   3.979   7.307 -0.4792 -0.4030  0.3369
 4130SOL    HW213331   3.653   4.064   7.430  0.1143  1.0248 -0.7502
 4131SOL     OW13332   3.004   3.454   2.732  0.4549 -0.3654  0.4147
 4131SOL    HW113333   3.072   3.513   2.700  1.5211 -1.0770  1.2747
 4131SOL    HW213334   2.923   3.503   2.723  0.9934  0.3075 -1.1585
 4132SOL     OW13335   4.226   3.440   1.915  0.4024 -0.4447  0.0132
 4132SOL    HW113336   4.234   3.532   1.888 -2.4508 -0.3954 -1.0626
 4132SOL    HW213337   4.228   3.443   2.011  1.1338  0.6438 -0.0229
 4133SOL     OW13338   6.796   2.377   4.235 -0.3161 -0.2768 -0.0529
 4133SOL    HW113339   6.827   2.464   4.209  1.0922 -0.6773  0.2228
 4133SOL    HW213340   6.875   2.330   4.262 -0.9616 -1.8520 -0.7637
 4134SOL     OW13341   3.207   5.550   6.975  0.3441 -0.1381  0.2019
 4134SOL    HW113342   3.146   5.497   7.024  1.2662 -0.8688  0.5944
 4134SOL    HW213343   3.186   5.641   6.998 -0.6763 -0.3713  0.1926
 4135SOL     OW13344   5.336   2.003   5.548  0.3752 -0.2348 -0.1009
 4135SOL    HW113345   5.305   2.093   5.539 -1.0413 -0.3884  2.2780
 4135SOL    HW213346   5.411   2.009   5.608  3.7269 -0.1691 -3.9062
 4136SOL     OW13347   5.864   5.865   7.419  0.1008  0.8926 -0.0101
 4136SOL    HW113348   5.835   5.794   7.362 -0.6117  0.9967  0.2053
 4136SOL    HW213349   5.923   5.917   7.365  1.0886 -0.1814  0.0156
 4137SOL     OW13350   6.591   1.569   7.119  0.1415 -0.1822 -0.2228
 4137SOL    HW113351   6.558   1.479   7.123  0.4143 -0.2444  2.4149
 4137SOL    HW213352   6.679   1.564   7.156 -0.0240  1.2324  0.4187
 4138SOL     OW13353   0.746   5.261   5.931 -0.1541 -0.1930  0.0358
 4138SOL    HW113354   0.743   5.298   6.019  2.2707  0.3955 -0.0519
 4138SOL    HW213355   0.715   5.332   5.874  0.4814  0.2518  0.2341
 4139SOL     OW13356   0.929   3.091   1.523 -0.3246  0.3918  0.0417
 4139SOL    HW113357   0.962   3.041   1.449  0.1646  0.7876 -0.0123
 4139SOL    HW213358   0.834   3.092   1.511 -0.1245  2.8234 -2.1569
 4140SOL     OW13359   0.541   7.015   6.390 -0.0128  0.0029 -0.1924
 4140SOL    HW113360   0.496   6.979   6.467  0.3528 -0.2598 -0.1037
 4140SOL    HW213361   0.633   6.997   6.405  0.0585 -0.0730 -0.7083
 4141SOL     OW13362   5.763   0.919   6.890 -0.1479  0.4955 -0.9876
 4141SOL    HW113363   5.831   0.852   6.889  1.1638  1.7993 -2.2478
 4141SOL    HW213364   5.696   0.883   6.949  1.9517 -0.4623  0.9706
 4142SOL     OW13365   2.051   5.746   4.364  0.1293 -0.3258 -0.2971
 4142SOL    HW113366   2.050   5.757   4.269  2.1502 -0.5332 -0.3804
 4142SOL    HW213367   2.117   5.808   4.395  0.0423 -0.8031  0.8971
 4143SOL     OW13368   5.294   3.826   1.151 -0.0727  0.0168  0.6083
 4143SOL    HW113369   5.267   3.905   1.104  0.5219  1.2110  2.1785
 4143SOL    HW213370   5.213   3.791   1.187 -0.1715  0.7966  1.1807
 4144SOL     OW13371   1.103   4.917   5.981 -0.8884 -0.5522  0.1128
 4144SOL    HW113372   1.015   4.952   5.988 -0.5353  0.4271 -0.1646
 4144SOL    HW213373   1.118   4.907   5.887 -0.2329  0.5889  0.0686
 4145SOL     OW13374   4.596   2.390   6.199 -0.2196  0.5327  0.3475
 4145SOL    HW113375   4.504   2.410   6.181  0.3660  2.3056 -0.9727
 4145SOL    HW213376   4.608   2.301   6.166 -0.8589  1.2717 -2.1102
 4146SOL     OW13377   3.708   4.259   4.385 -0.2346 -0.1934  0.0068
 4146SOL    HW113378   3.724   4.352   4.397 -0.9899 -0.2516  1.8501
 4146SOL    HW213379   3.661   4.233   4.464 -0.6921 -1.9875 -0.8117
 4147SOL     OW13380   4.914   3.188   0.938 -0.8531 -0.0169  0.1951
 4147SOL    HW113381   4.959   3.143   1.009 -1.3403 -0.3998  0.2681
 4147SOL    HW213382   4.896   3.119   0.874 -1.1577  0.1697  0.0772
 4148SOL     OW13383   4.770   6.400   3.506 -0.2278  0.4491 -0.2805
 4148SOL    HW113384   4.793   6.333   3.570 -3.8656 -1.2821 -0.5516
 4148SOL    HW213385   4.770   6.355   3.422  2.6316  2.2476 -1.3882
 4149SOL     OW13386   1.326   4.354   7.085 -0.6356 -0.4321 -0.4397
 4149SOL    HW113387   1.316   4.259   7.081 -0.7002 -0.4264 -0.4044
 4149SOL    HW213388   1.387   4.374   7.013  0.5355 -0.6562  0.4677
 4150SOL     OW13389   3.272   4.204   1.081 -0.1490 -0.5388 -0.4213
 4150SOL    HW113390   3.275   4.213   0.985  1.1287  2.0767 -0.2453
 4150SOL    HW213391   3.206   4.269   1.108  0.0956 -0.6705  0.5085
 4151SOL     OW13392   5.352   3.662   2.103 -0.0412 -0.1114  0.5016
 4151SOL    HW113393   5.397   3.684   2.184 -1.6531 -0.4032  1.5079
 4151SOL    HW213394   5.414   3.607   2.055  1.9843  2.1661  0.2925
 4152SOL     OW13395   3.753   0.807   0.318 -0.2979 -0.6211  0.4910
 4152SOL    HW113396   3.845   0.786   0.333 -0.3368 -0.3818  1.1096
 4152SOL    HW213397   3.745   0.818   0.223  0.3983 -0.2479  0.4746
 4153SOL     OW13398   4.459   6.744   5.982 -1.2143 -0.2690  0.2406
 4153SOL    HW113399   4.471   6.837   6.003 -0.6701 -0.8674  2.9017
 4153SOL    HW213400   4.365   6.730   5.987 -1.3616  0.2380 -0.8135
 4154SOL     OW13401   1.913   2.098   2.392  0.3088  0.1833  0.2981
 4154SOL    HW113402   1.850   2.136   2.453  1.8733  0.6556  1.6999
 4154SOL    HW213403   1.859   2.059   2.323 -1.4501  2.1590  0.4575
 4155SOL     OW13404   4.488   2.122   0.130  0.0631 -0.3262  0.0995
 4155SOL    HW113405   4.514   2.038   0.168 -2.3272 -0.4515  1.6428
 4155SOL    HW213406   4.409   2.147   0.177  0.4391  2.6188 -0.6116
 4156SOL     OW13407   1.178   6.603   2.698 -0.0164  0.5850 -0.0574
 4156SOL    HW113408   1.130   6.539   2.646  0.5395 -0.5743  0.8005
 4156SOL    HW213409   1.262   6.613   2.655  0.1556  0.2057  0.1866
 4157SOL     OW13410   0.027   1.144   4.029  0.2947  0.4006  0.2576
 4157SOL    HW113411   0.009   1.053   4.054  0.7541  0.7015  1.8235
 4157SOL    HW213412  -0.060   1.181   4.013  0.0704 -0.1853  0.0783
 4158SOL     OW13413   4.062   3.623   3.908 -0.2948  0.1264  0.5094
 4158SOL    HW113414   4.061   3.627   3.812  0.1133  3.1143  0.5399
 4158SOL    HW213415   3.970   3.608   3.932 -0.4203 -0.5255 -0.3217
 4159SOL     OW13416   1.659   1.482   3.715 -0.4794  0.0296 -0.2070
 4159SOL    HW113417   1.744   1.440   3.718 -0.2084  0.5517 -0.4179
 4159SOL    HW213418   1.677   1.572   3.688 -1.1850 -0.0995 -1.1754
 4160SOL     OW13419   0.584   0.821   6.975 -0.2946  0.4937  0.7910
 4160SOL    HW113420   0.493   0.852   6.978 -0.3083  0.4469  0.8917
 4160SOL    HW213421   0.610   0.815   7.067 -0.6415 -0.7907  0.8206
 4161SOL     OW13422   5.557   6.845   3.614  0.3193  0.0419 -0.3638
 4161SOL    HW113423   5.595   6.827   3.699 -2.5119 -3.7939  0.3803
 4161SOL    HW213424   5.602   6.786   3.554 -0.5268 -0.3750 -0.6097
 4162SOL     OW13425   1.609   4.359   0.908  0.6659  0.0665 -0.0467
 4162SOL    HW113426   1.609   4.300   0.833 -0.5932  0.9031 -0.7228
 4162SOL    HW213427   1.613   4.447   0.871  1.4307  0.4674  0.9202
 4163SOL     OW13428   6.082   0.171   4.644 -0.2476  0.3179 -0.0762
 4163SOL    HW113429   6.077   0.195   4.551 -0.7586 -1.7629 -0.6412
 4163SOL    HW213430   5.999   0.201   4.681  0.3604  2.0494 -0.0150
 4164SOL     OW13431   1.292   0.197   0.921  0.2609 -0.6062  0.6674
 4164SOL    HW113432   1.210   0.148   0.924  0.1824 -0.4613  0.8376
 4164SOL    HW213433   1.288   0.245   0.838  0.5729 -1.2958  0.2368
 4165SOL     OW13434   1.491   1.666   6.051 -0.2339  0.3662 -0.0768
 4165SOL    HW113435   1.507   1.602   6.120 -0.9333  1.2358  0.9305
 4165SOL    HW213436   1.414   1.714   6.080  0.7745  2.2507 -0.3420
 4166SOL     OW13437   2.578   5.208   2.552 -0.3228  0.2808  0.3629
 4166SOL    HW113438   2.627   5.132   2.517 -0.8254  0.1267 -0.0272
 4166SOL    HW213439   2.646   5.272   2.572 -0.0004  0.4508 -1.0994
 4167SOL     OW13440   1.062   0.814   7.056 -0.0866  0.3661  0.1408
 4167SOL    HW113441   1.056   0.769   7.141  1.5685  0.1873  0.1929
 4167SOL    HW213442   1.079   0.744   6.993  0.0696  0.6478 -0.1339
 4168SOL     OW13443   3.345   0.866   5.670 -0.4770 -0.3637 -0.5660
 4168SOL    HW113444   3.418   0.841   5.614 -0.2400  1.4337 -1.1144
 4168SOL    HW213445   3.267   0.844   5.620 -0.2781 -0.0597 -1.0102
 4169SOL     OW13446   6.176   3.076   3.833 -0.6112 -0.0100  0.1164
 4169SOL    HW113447   6.232   3.039   3.901 -1.4039 -0.4523  0.5432
 4169SOL    HW213448   6.233   3.136   3.785  0.1490 -0.2395  0.7118
 4170SOL     OW13449   5.408   6.468   0.300  0.3925  0.0665 -0.1627
 4170SOL    HW113450   5.321   6.477   0.340  0.8170  0.6888  0.6563
 4170SOL    HW213451   5.439   6.383   0.330  1.6545  1.4250  2.8811
 4171SOL     OW13452   4.932   2.881   0.166  0.0916  0.5170  0.5163
 4171SOL    HW113453   5.021   2.917   0.165  0.6255 -0.7082  0.6842
 4171SOL    HW213454   4.875   2.957   0.170  1.0889  1.3899 -0.8098
 4172SOL     OW13455   2.935   6.985   0.309  0.2360 -0.3450  0.2734
 4172SOL    HW113456   2.888   7.061   0.344  3.0249  2.3881 -1.4617
 4172SOL    HW213457   2.881   6.955   0.236 -1.1370 -0.4287  1.2739
 4173SOL     OW13458   3.938   1.517   3.285  0.4428 -0.3522  0.1936
 4173SOL    HW113459   4.023   1.556   3.304 -0.0530  0.9154 -0.0483
 4173SOL    HW213460   3.890   1.522   3.369 -0.4960  1.9721 -0.3762
 4174SOL     OW13461   3.033   6.119   5.438  0.6319  0.2779 -0.2542
 4174SOL    HW113462   3.097   6.143   5.505 -0.0249 -1.3617  1.0281
 4174SOL    HW213463   2.949   6.147   5.474  0.3073 -0.3546 -0.4918
 4175SOL     OW13464   6.370   6.134   0.391 -0.0136  0.3585  0.2296
 4175SOL    HW113465   6.458   6.133   0.351  0.7325 -1.0903  1.7788
 4175SOL    HW213466   6.334   6.047   0.371 -0.3220  0.2595  1.1738
 4176SOL     OW13467   3.810   0.010   3.936  0.2059 -0.9960  0.0848
 4176SOL    HW113468   3.717   0.022   3.956  0.1010  1.1594 -1.3482
 4176SOL    HW213469   3.811  -0.029   3.848  0.6360 -0.1316 -0.3034
 4177SOL     OW13470   3.485   5.027   7.368 -0.0581 -0.4240 -0.2569
 4177SOL    HW113471   3.419   5.017   7.437 -0.7211  0.0033 -0.8130
 4177SOL    HW213472   3.534   4.945   7.370 -0.7993 -0.8708 -0.0182
 4178SOL     OW13473   1.549   2.740   2.561 -0.0295 -0.1225  0.5470
 4178SOL    HW113474   1.467   2.721   2.604 -0.7514  1.1440 -0.1930
 4178SOL    HW213475   1.597   2.795   2.624  0.0751 -0.5100  0.8074
 4179SOL     OW13476   0.097   0.296   5.047  0.0468  0.1918 -0.4204
 4179SOL    HW113477   0.017   0.348   5.048  0.2787  0.6010 -1.6888
 4179SOL    HW213478   0.144   0.324   5.125 -0.8508  0.2467  0.1117
 4180SOL     OW13479   6.486   6.942   2.390  0.2121 -0.1290 -0.0105
 4180SOL    HW113480   6.535   6.915   2.468 -1.2618  3.5950  2.4838
 4180SOL    HW213481   6.549   6.991   2.338  0.5053 -0.1587  0.3128
 4181SOL     OW13482   4.152   7.119   3.350  0.2326 -0.5185 -0.1963
 4181SOL    HW113483   4.115   7.140   3.265  2.4072  0.5889 -0.9358
 4181SOL    HW213484   4.234   7.167   3.353  0.8323 -1.5598  2.0131
 4182SOL     OW13485   0.386   4.808   4.830  0.0166  0.3336  0.2245
 4182SOL    HW113486   0.390   4.903   4.832 -1.4406  0.5333  4.5695
 4182SOL    HW213487   0.305   4.788   4.783  1.5589  0.9413 -2.9546
 4183SOL     OW13488   4.240   2.037   4.777  0.0769  0.2027 -0.1121
 4183SOL    HW113489   4.152   1.998   4.772  0.7052 -1.1863 -0.7127
 4183SOL    HW213490   4.296   1.965   4.806  1.2000  0.8048 -0.7707
 4184SOL     OW13491   5.149   4.243   1.584 -0.4718 -0.0585  0.4451
 4184SOL    HW113492   5.237   4.270   1.554 -0.6764 -1.4719 -1.7071
 4184SOL    HW213493   5.110   4.323   1.619  1.2574  0.8685  0.3866
 4185SOL     OW13494   7.061   0.727   6.447 -0.6359 -0.2579 -0.2380
 4185SOL    HW113495   7.046   0.718   6.542 -1.5849 -0.0197 -0.3485
 4185SOL    HW213496   7.049   0.821   6.431  1.1797 -0.0185 -0.3455
 4186SOL     OW13497   1.826   7.336   6.464 -0.2015  0.0283  0.2812
 4186SOL    HW113498   1.843   7.429   6.449  1.6884 -0.1154  1.2360
 4186SOL    HW213499   1.788   7.305   6.382  2.1883  0.9682 -1.2826
 4187SOL     OW13500   6.974   0.346   1.483 -0.6193 -0.0374  0.0472
 4187SOL    HW113501   6.911   0.364   1.413 -2.5791  0.4913  1.8732
 4187SOL    HW213502   7.053   0.394   1.456 -1.5214  0.6800 -1.4705
 4188SOL     OW13503   2.558   2.815   6.402 -0.1618 -0.1533 -0.3472
 4188SOL    HW113504   2.511   2.836   6.321 -0.7914  0.3030  0.1293
 4188SOL    HW213505   2.543   2.890   6.459  0.9794 -0.0940 -0.0939
 4189SOL     OW13506   6.151   1.897   5.842  0.7197 -0.3529 -0.2158
 4189SOL    HW113507   6.124   1.988   5.831 -0.0633 -0.6049 -0.4966
 4189SOL    HW213508   6.227   1.901   5.899  0.4080  0.4430  0.1593
 4190SOL     OW13509   6.397   7.284   6.460 -0.1511 -0.1122 -0.1496
 4190SOL    HW113510   6.336   7.315   6.393  1.4119  0.2510 -1.4689
 4190SOL    HW213511   6.475   7.260   6.411  0.6012 -1.0150  1.4507
 4191SOL     OW13512   2.957   2.818   2.420  0.3547 -0.1446  0.5657
 4191SOL    HW113513   3.031   2.767   2.454  0.5013 -0.1192  0.2864
 4191SOL    HW213514   2.944   2.785   2.331  1.3216  1.2252 -0.1179
 4192SOL     OW13515   2.812   6.147   6.270 -0.2236  0.1923 -0.3562
 4192SOL    HW113516   2.719   6.161   6.285  0.0365  0.0210  1.6592
 4192SOL    HW213517   2.849   6.235   6.264 -0.5580  0.2620 -1.6244
 4193SOL     OW13518   6.861   0.669   4.809  0.6596 -0.6652 -0.2263
 4193SOL    HW113519   6.926   0.700   4.746  0.4387 -1.1838 -0.7201
 4193SOL    HW213520   6.822   0.592   4.767 -0.8296  0.0778 -0.2988
 4194SOL     OW13521   0.536   1.792   5.963  0.0955  0.0824 -0.3822
 4194SOL    HW113522   0.625   1.771   5.937 -0.3974 -1.8555 -0.6891
 4194SOL    HW213523   0.482   1.758   5.891 -0.9882 -0.6810  0.7552
 4195SOL     OW13524   4.691   6.659   0.207  0.6142  0.1236 -0.3838
 4195SOL    HW113525   4.759   6.605   0.246  0.8845 -1.1337 -2.4183
 4195SOL    HW213526   4.738   6.714   0.143 -0.0761  0.3682 -0.6926
 4196SOL     OW13527   2.947   0.679   0.336  0.1568 -0.1177 -0.4806
 4196SOL    HW113528   2.969   0.661   0.427  2.4570  0.0971 -0.9500
 4196SOL    HW213529   2.990   0.762   0.317 -0.8577  0.1753 -1.5896
 4197SOL     OW13530   3.693   2.830   5.950  0.4084  0.1533 -0.3675
 4197SOL    HW113531   3.669   2.757   5.892  0.5281 -0.6315  0.5529
 4197SOL    HW213532   3.611   2.855   5.992  0.1542  1.2912 -1.4735
 4198SOL     OW13533   4.213   3.600   7.043 -0.0184  0.0185  0.4424
 4198SOL    HW113534   4.268   3.671   7.009 -0.4168  0.7104  1.2081
 4198SOL    HW213535   4.162   3.641   7.113 -1.3599 -0.6736 -0.1087
 4199SOL     OW13536   4.163   2.302   2.375  0.1061  0.1071 -0.0523
 4199SOL    HW113537   4.200   2.314   2.463 -2.7620 -1.3121  1.5076
 4199SOL    HW213538   4.109   2.380   2.361 -0.0752 -0.0430 -0.1901
 4200SOL     OW13539   2.339   1.898   2.292 -0.4308  1.0912 -0.1339
 4200SOL    HW113540   2.306   1.881   2.380  0.3501 -0.7845 -0.1712
 4200SOL    HW213541   2.270   1.867   2.234  0.2625 -0.4459 -0.1817
 4201SOL     OW13542   2.872   0.624   5.792  0.8740 -0.2161  0.2272
 4201SOL    HW113543   2.799   0.667   5.836 -0.5045 -0.5404 -1.6042
 4201SOL    HW213544   2.938   0.612   5.860  0.3263  2.5266  1.3609
 4202SOL     OW13545   6.939   2.399   2.442 -0.2525  0.4682  0.3425
 4202SOL    HW113546   6.883   2.367   2.372  0.0071  0.4010  0.1629
 4202SOL    HW213547   6.938   2.329   2.508 -0.4060  0.4831  0.3562
 4203SOL     OW13548   6.252   4.279   0.478  0.4814  0.3606  0.5878
 4203SOL    HW113549   6.333   4.327   0.458 -0.8235  1.7514 -1.8489
 4203SOL    HW213550   6.281   4.205   0.532  3.5847  0.0563 -1.2429
 4204SOL     OW13551   1.127   6.572   5.228 -0.6296  0.0143  0.3693
 4204SOL    HW113552   1.041   6.556   5.190 -0.7824 -1.5918  1.3048
 4204SOL    HW213553   1.136   6.506   5.296  0.7388  1.1098  1.3167
 4205SOL     OW13554   5.879   5.157   6.702  0.1377  0.2698  0.0832
 4205SOL    HW113555   5.947   5.217   6.730  1.1401 -0.6865 -0.2382
 4205SOL    HW213556   5.921   5.101   6.636 -1.2134  0.2664 -0.8300
 4206SOL     OW13557   4.123   1.667   3.400  0.0464  0.7641  0.5341
 4206SOL    HW113558   4.122   1.761   3.382 -1.2946  0.2644 -2.8319
 4206SOL    HW213559   4.072   1.657   3.480 -0.6333  2.8371  0.4147
 4207SOL     OW13560   7.264   5.657   4.468  0.0728 -0.1619  0.2206
 4207SOL    HW113561   7.294   5.570   4.495 -2.0379 -0.7790  0.7787
 4207SOL    HW213562   7.236   5.646   4.377  0.7078  0.2024 -0.0287
 4208SOL     OW13563   2.963   4.217   6.115  0.7617  0.9436 -0.5749
 4208SOL    HW113564   2.957   4.193   6.208  2.0092  2.3202 -0.1114
 4208SOL    HW213565   2.954   4.133   6.069 -4.1311  0.5683  0.5038
 4209SOL     OW13566   6.277   7.390   6.231  0.6521  0.1518  0.1736
 4209SOL    HW113567   6.365   7.421   6.208  0.6143 -0.1904 -0.4722
 4209SOL    HW213568   6.219   7.441   6.175  0.5808 -0.9496 -0.8090
 4210SOL     OW13569   0.665   6.357   4.464  0.0651  0.0595 -0.2375
 4210SOL    HW113570   0.602   6.311   4.518  0.7763  0.5889  1.0794
 4210SOL    HW213571   0.677   6.301   4.387 -0.8259 -0.7926  0.2288
 4211SOL     OW13572   5.194   6.499   2.387 -0.0697 -0.0786 -0.1475
 4211SOL    HW113573   5.155   6.511   2.300  2.2756  1.1366 -1.1223
 4211SOL    HW213574   5.278   6.457   2.369  0.2135 -0.3302  1.6154
 4212SOL     OW13575   6.351   1.043   2.071  0.1396  0.0409  0.1844
 4212SOL    HW113576   6.401   0.983   2.016 -0.1416  0.0915 -0.1321
 4212SOL    HW213577   6.385   1.130   2.050 -1.2060  0.2650 -1.3014
 4213SOL     OW13578   4.661   3.828   2.001  0.4065 -0.0795 -0.4492
 4213SOL    HW113579   4.738   3.858   1.953  1.4401 -0.6756  0.7685
 4213SOL    HW213580   4.693   3.811   2.090 -0.9030 -1.3029 -0.1630
 4214SOL     OW13581   0.697   6.208   2.089 -0.3691 -0.0435 -0.1902
 4214SOL    HW113582   0.736   6.197   2.175 -0.0924  1.3646 -0.0980
 4214SOL    HW213583   0.772   6.222   2.031 -0.5809 -0.4159 -0.5554
 4215SOL     OW13584   3.489   7.374   1.342 -0.0627 -0.1035  0.2043
 4215SOL    HW113585   3.441   7.455   1.325  0.8210  0.3642 -0.1500
 4215SOL    HW213586   3.581   7.402   1.348  0.1909 -1.0004  0.6361
 4216SOL     OW13587   4.040   4.115   4.651 -0.2128 -0.1282 -0.3576
 4216SOL    HW113588   4.110   4.077   4.598 -1.3769  0.7936 -2.7060
 4216SOL    HW213589   4.038   4.062   4.731  2.4400 -0.8094 -0.6606
 4217SOL     OW13590   0.574   3.910   3.938 -0.2331 -0.0775  0.1506
 4217SOL    HW113591   0.632   3.843   3.901 -0.7098 -0.4876  0.1354
 4217SOL    HW213592   0.552   3.878   4.025 -1.2638 -0.4438 -0.2328
 4218SOL     OW13593   2.534   3.123   7.043  0.4837  0.2395 -0.5247
 4218SOL    HW113594   2.575   3.080   6.968  2.6908 -0.3059  0.9087
 4218SOL    HW213595   2.511   3.051   7.103 -1.1977  0.6672 -0.5956
 4219SOL     OW13596   5.649   5.683   5.996  0.0843  0.4132  0.4996
 4219SOL    HW113597   5.655   5.609   6.057  1.3730  0.1232  0.0584
 4219SOL    HW213598   5.561   5.677   5.960 -0.4027  0.0753  1.6873
 4220SOL     OW13599   7.307   0.864   5.843 -0.4849  0.9647 -0.2428
 4220SOL    HW113600   7.265   0.913   5.914 -0.0595  0.2791  0.4996
 4220SOL    HW213601   7.267   0.898   5.764 -0.9193  1.8044  0.3224
 4221SOL     OW13602   0.026   4.425   6.475  0.2509  0.4836 -0.0666
 4221SOL    HW113603  -0.007   4.496   6.420  0.7492  0.1090 -0.8649
 4221SOL    HW213604  -0.031   4.426   6.552 -1.2300  0.2425 -1.1220
 4222SOL     OW13605   2.909   1.938   0.108 -0.1605  0.1713 -0.8140
 4222SOL    HW113606   2.846   1.888   0.056  0.7298 -1.1996 -0.6586
 4222SOL    HW213607   2.928   2.016   0.056 -0.5346 -0.3551 -1.7700
 4223SOL     OW13608   1.833   0.218   6.360 -0.1256  0.1660  0.0255
 4223SOL    HW113609   1.841   0.266   6.278  0.2145 -0.4033 -0.2829
 4223SOL    HW213610   1.753   0.166   6.349  0.4031 -0.6091 -0.3344
 4224SOL     OW13611   0.291   1.378   0.385  0.4268  0.2078  0.6984
 4224SOL    HW113612   0.261   1.289   0.367  1.7168 -0.3543  1.2272
 4224SOL    HW213613   0.300   1.418   0.299  0.3171 -0.3309  0.4301
 4225SOL     OW13614   0.327   5.796   5.900  0.0063 -0.4416  0.4826
 4225SOL    HW113615   0.396   5.764   5.841 -0.4303 -1.7142  0.6341
 4225SOL    HW213616   0.349   5.758   5.985 -1.0871 -1.2161  0.4483
 4226SOL     OW13617   5.949   1.615   6.400  0.0120  0.2097 -0.4914
 4226SOL    HW113618   5.995   1.568   6.330 -0.7376  0.2482 -1.0239
 4226SOL    HW213619   5.950   1.707   6.372  1.2375  0.4969  0.4155
 4227SOL     OW13620   5.383   3.938   5.061 -0.2088  0.1599  0.2949
 4227SOL    HW113621   5.437   3.870   5.100  0.1937  0.4776  0.2897
 4227SOL    HW213622   5.435   4.018   5.067 -0.1003  0.2118 -0.9576
 4228SOL     OW13623   1.563   3.445   2.460  0.6312  0.7436  0.0745
 4228SOL    HW113624   1.525   3.459   2.373  1.1626 -0.1841 -0.3226
 4228SOL    HW213625   1.656   3.431   2.444  0.6526  0.0543  0.7379
 4229SOL     OW13626   5.859   1.391   7.061  0.0429 -0.7919 -0.2417
 4229SOL    HW113627   5.859   1.317   7.000 -0.9379 -1.4214  0.4864
 4229SOL    HW213628   5.829   1.353   7.144 -1.4192  0.5948 -0.0827
 4230SOL     OW13629   3.727   1.391   0.584  0.4206  0.1802  0.0830
 4230SOL    HW113630   3.666   1.440   0.639  0.5766  0.1475  0.2863
 4230SOL    HW213631   3.690   1.303   0.580 -0.1639  0.4565 -0.7521
 4231SOL     OW13632   4.849   4.594   2.102 -0.5256 -0.0801  0.3411
 4231SOL    HW113633   4.788   4.540   2.051  0.0947 -1.2209  0.7597
 4231SOL    HW213634   4.894   4.647   2.037 -0.1307 -1.1277 -0.2585
 4232SOL     OW13635   6.486   2.742   6.709 -0.0102 -0.3334  0.6890
 4232SOL    HW113636   6.418   2.684   6.675 -0.3993  0.6351 -0.2529
 4232SOL    HW213637   6.563   2.686   6.720  0.4330 -0.6102 -2.6821
 4233SOL     OW13638   1.176   1.182   3.542  0.3722 -0.4499  0.3866
 4233SOL    HW113639   1.246   1.122   3.564 -0.1914 -0.6988  1.5914
 4233SOL    HW213640   1.198   1.263   3.587  0.8421  0.0970 -0.7774
 4234SOL     OW13641   5.900   3.352   4.204  0.3694  0.4749  0.4320
 4234SOL    HW113642   5.970   3.288   4.211  0.0355  0.1164  0.4913
 4234SOL    HW213643   5.821   3.301   4.191 -0.1044  0.7966  1.8514
 4235SOL     OW13644   5.654   4.846   0.661  0.0578 -0.3972 -0.1699
 4235SOL    HW113645   5.615   4.761   0.639  0.8880 -0.8465  0.0665
 4235SOL    HW213646   5.748   4.832   0.654  0.1867  0.6586 -0.6499
 4236SOL     OW13647   5.898   3.580   5.065  0.0852  0.0718  0.9816
 4236SOL    HW113648   5.860   3.667   5.058  0.1054  0.1235  1.5021
 4236SOL    HW213649   5.848   3.537   5.134  1.0541  0.1956  1.7773
 4237SOL     OW13650   3.724   6.514   3.802  0.4461  0.0508 -0.3919
 4237SOL    HW113651   3.653   6.575   3.780  0.9939  1.1498  0.7427
 4237SOL    HW213652   3.692   6.467   3.879  0.7282  0.1971 -0.1807
 4238SOL     OW13653   5.058   4.257   2.285  0.0149  0.0007  0.5602
 4238SOL    HW113654   5.113   4.193   2.239 -0.5800 -0.4973  0.5340
 4238SOL    HW213655   5.039   4.216   2.370 -0.5632  0.0344  0.4516
 4239SOL     OW13656   3.779   2.444   7.337 -0.5094 -0.0087  0.0110
 4239SOL    HW113657   3.735   2.463   7.420  2.0970 -0.7464  1.6632
 4239SOL    HW213658   3.743   2.509   7.276 -1.6599  1.3330  1.9799
 4240SOL     OW13659   3.509   6.359   3.247 -0.1334 -0.1106  0.1599
 4240SOL    HW113660   3.602   6.340   3.260  0.0492  0.8284  0.3093
 4240SOL    HW213661   3.509   6.441   3.197 -0.8820 -0.3855 -0.3063
 4241SOL     OW13662   1.226   7.197   6.678  0.3341 -0.2341  0.5688
 4241SOL    HW113663   1.287   7.270   6.669 -3.4625  3.3121  0.2808
 4241SOL    HW213664   1.155   7.233   6.732 -3.1339 -2.7506 -1.9098
 4242SOL     OW13665   4.089   5.606   2.231  0.7888  0.8666  0.0869
 4242SOL    HW113666   4.142   5.643   2.302  1.1927  1.2776 -0.4171
 4242SOL    HW213667   4.125   5.645   2.151  1.4692 -0.8728 -0.5163
 4243SOL     OW13668   5.811   0.909   0.472 -0.4892  0.1314 -0.0911
 4243SOL    HW113669   5.732   0.891   0.524 -1.1423 -1.6052 -1.5567
 4243SOL    HW213670   5.782   0.971   0.405 -0.2245  0.6158  0.2380
 4244SOL     OW13671   5.262   3.854   5.894  0.2079  0.4129  0.3398
 4244SOL    HW113672   5.188   3.837   5.952  0.2092  2.4229  1.0189
 4244SOL    HW213673   5.233   3.823   5.808 -1.8774  2.0831  0.3646
 4245SOL     OW13674   3.487   0.483   5.057 -0.1425  0.2362 -0.2669
 4245SOL    HW113675   3.452   0.468   5.145  2.8356  1.6340  1.3152
 4245SOL    HW213676   3.559   0.420   5.048  0.3672  0.9197 -1.1831
 4246SOL     OW13677   0.158   4.238   5.867 -0.4519 -0.6212  0.0292
 4246SOL    HW113678   0.219   4.212   5.937 -0.0369 -1.3099 -0.5688
 4246SOL    HW213679   0.215   4.270   5.797 -0.9231  1.2850  0.4686
 4247SOL     OW13680   2.839   2.180   2.739  0.5852  0.2915  0.0116
 4247SOL    HW113681   2.846   2.214   2.650 -0.4886 -0.4806 -0.3891
 4247SOL    HW213682   2.747   2.154   2.748  0.7353  0.1108  1.2566
 4248SOL     OW13683   3.814   0.782   2.759 -0.1976 -0.6465 -0.6603
 4248SOL    HW113684   3.754   0.820   2.695  1.9120 -0.5443 -2.6997
 4248SOL    HW213685   3.856   0.857   2.801 -0.6883 -0.7305  0.0086
 4249SOL     OW13686   0.196   5.189   6.121 -0.2187  0.3648 -0.4851
 4249SOL    HW113687   0.234   5.271   6.090  0.2553  0.0917 -0.6383
 4249SOL    HW213688   0.266   5.125   6.111 -0.9512 -0.3049 -1.4473
 4250SOL     OW13689   2.288   7.036   2.774  0.2356 -0.1271  0.5118
 4250SOL    HW113690   2.310   7.128   2.756 -0.0498  0.1165  1.3830
 4250SOL    HW213691   2.366   7.000   2.815 -0.3067  0.2627  1.9600
 4251SOL     OW13692   2.981   2.629   4.613  0.5196  0.4726  0.2749
 4251SOL    HW113693   3.024   2.543   4.618  0.8558  0.4339 -2.1021
 4251SOL    HW213694   3.052   2.689   4.589 -0.3739  0.6729 -2.1171
 4252SOL     OW13695   1.863   4.830   3.140 -0.1307  0.2243 -0.2645
 4252SOL    HW113696   1.828   4.890   3.206 -2.3774 -1.7242  0.4628
 4252SOL    HW213697   1.849   4.743   3.177 -1.2693 -0.9578 -3.1454
 4253SOL     OW13698   7.392   0.895   4.089  0.6140  0.0304 -0.3531
 4253SOL    HW113699   7.339   0.868   4.164  0.8415 -0.3585 -0.3318
 4253SOL    HW213700   7.439   0.816   4.062  0.5328  0.1653 -0.9095
 4254SOL     OW13701   1.549   0.080   5.544  0.0752  0.3736  0.3357
 4254SOL    HW113702   1.609   0.005   5.535  1.0676  0.9152  2.0230
 4254SOL    HW213703   1.462   0.041   5.548  0.5286 -0.6426  0.5777
 4255SOL     OW13704   4.315   0.916   3.042  0.7104  0.3375  0.5921
 4255SOL    HW113705   4.223   0.890   3.031  0.7457 -0.2342  1.4867
 4255SOL    HW213706   4.333   0.899   3.135  1.6740  0.6117  0.4642
 4256SOL     OW13707   1.100   3.587   2.600 -0.1570  0.2186 -0.2335
 4256SOL    HW113708   1.091   3.544   2.685 -0.1208  0.5041 -0.0856
 4256SOL    HW213709   1.109   3.515   2.538 -1.3698 -0.0212 -0.1393
 4257SOL     OW13710   3.601   4.322   0.311 -0.3558 -0.0189  0.1273
 4257SOL    HW113711   3.547   4.401   0.302  0.7076  0.6253 -0.8093
 4257SOL    HW213712   3.546   4.262   0.362 -2.0868  0.4747 -1.0615
 4258SOL     OW13713   5.750   3.070   0.388 -0.3066  0.0529 -1.1927
 4258SOL    HW113714   5.677   3.112   0.434  1.1322  0.6981  0.6609
 4258SOL    HW213715   5.827   3.118   0.419  1.0610 -1.6805 -1.7850
 4259SOL     OW13716   4.121   5.280   7.020  0.4811 -0.6676 -0.3309
 4259SOL    HW113717   4.026   5.295   7.021  0.7465  1.2707 -0.5109
 4259SOL    HW213718   4.155   5.337   7.089  1.7382  0.5704 -1.9086
 4260SOL     OW13719   0.597   2.716   0.195  0.1515 -0.1689  0.0961
 4260SOL    HW113720   0.664   2.726   0.263 -0.3282 -0.4020  0.6073
 4260SOL    HW213721   0.549   2.637   0.220 -0.7628  0.3872  0.1215
 4261SOL     OW13722   0.745   4.050   0.493 -0.8218 -0.2059 -0.2933
 4261SOL    HW113723   0.678   3.984   0.509 -0.9778  0.0875  0.2722
 4261SOL    HW213724   0.728   4.079   0.403 -2.7034  1.2508  0.4657
 4262SOL     OW13725   1.335   0.448   3.298  0.4964  0.0970 -0.1540
 4262SOL    HW113726   1.303   0.476   3.384 -1.0074 -0.9096 -0.3435
 4262SOL    HW213727   1.335   0.528   3.245  1.4641  0.7307  0.7637
 4263SOL     OW13728   0.098   2.217   4.425 -0.5528 -0.1180  0.3758
 4263SOL    HW113729   0.135   2.136   4.458  0.9618  0.8091  1.0502
 4263SOL    HW213730   0.151   2.238   4.348 -2.8623 -1.2883 -1.6583
 4264SOL     OW13731   0.434   4.835   3.282 -0.5521  0.3420  0.3030
 4264SOL    HW113732   0.470   4.807   3.198 -0.8460 -0.7031  0.5140
 4264SOL    HW213733   0.352   4.878   3.261  0.6393  2.5161 -0.1652
 4265SOL     OW13734   2.029   4.348   2.777  0.0891 -0.2292 -0.1786
 4265SOL    HW113735   2.044   4.348   2.683  0.9403  0.0769 -0.0535
 4265SOL    HW213736   2.080   4.273   2.810  1.5107  0.8907  0.2712
 4266SOL     OW13737   1.167   0.049   3.500 -0.1851 -0.2251  0.6164
 4266SOL    HW113738   1.262   0.044   3.498 -0.1999 -0.3097 -0.4200
 4266SOL    HW213739   1.144   0.044   3.593  0.6657 -2.7792  0.7502
 4267SOL     OW13740   6.267   2.648   2.270 -0.1796  0.1598  0.2365
 4267SOL    HW113741   6.220   2.715   2.221  2.1156  1.1357 -0.7618
 4267SOL    HW213742   6.328   2.697   2.325  0.4656 -1.0855  0.6674
 4268SOL     OW13743   1.109   6.648   4.029  0.0526 -0.2081  0.6503
 4268SOL    HW113744   1.066   6.661   4.114 -1.2270 -2.0712  0.3573
 4268SOL    HW213745   1.141   6.734   4.005  1.2445  0.2460  3.4209
 4269SOL     OW13746   6.006   2.941   5.936 -0.0023 -0.7081  0.0419
 4269SOL    HW113747   6.096   2.926   5.965  0.4678  1.2339 -0.2097
 4269SOL    HW213748   6.002   2.904   5.848  0.6135 -0.6888  0.0029
 4270SOL     OW13749   7.426   2.525   1.764 -0.0862  0.0803  0.1718
 4270SOL    HW113750   7.481   2.452   1.791  3.5902  2.0361 -1.2714
 4270SOL    HW213751   7.383   2.496   1.684 -0.7722 -1.3101  1.0157
 4271SOL     OW13752   5.432   3.201   6.648  0.4051 -0.2933  0.1387
 4271SOL    HW113753   5.459   3.283   6.690  1.3135 -0.2318 -0.5542
 4271SOL    HW213754   5.504   3.140   6.663 -0.0308 -0.8083  0.1830
 4272SOL     OW13755   6.711   0.364   6.434  0.2522 -0.3312 -0.8266
 4272SOL    HW113756   6.782   0.410   6.480  0.5524 -1.5446 -0.0246
 4272SOL    HW213757   6.639   0.364   6.496 -0.8308  1.7113 -1.9835
 4273SOL     OW13758   1.387   6.869   4.656 -0.6712  0.2742  0.3419
 4273SOL    HW113759   1.376   6.825   4.573  0.6742  1.8556 -0.7475
 4273SOL    HW213760   1.443   6.811   4.707  0.7615  0.5053 -0.9151
 4274SOL     OW13761   5.441   6.134   4.921  0.2143  0.4340  0.2244
 4274SOL    HW113762   5.365   6.096   4.877  1.3190 -0.4100 -1.0508
 4274SOL    HW213763   5.516   6.091   4.879  1.4108  1.7468  0.9576
 4275SOL     OW13764   1.329   3.101   7.181  0.1941  0.4843 -0.2570
 4275SOL    HW113765   1.425   3.106   7.188  0.2643 -0.1449 -0.6856
 4275SOL    HW213766   1.302   3.190   7.159  0.7145  0.5800 -0.5210
 4276SOL     OW13767   5.656   6.380   2.176  1.1977 -0.7138 -0.3986
 4276SOL    HW113768   5.704   6.326   2.239  0.4926  0.9112  1.6719
 4276SOL    HW213769   5.604   6.318   2.125  0.7677 -2.0369  1.5521
 4277SOL     OW13770   3.255   1.349   6.290 -0.1368  0.1717  0.4256
 4277SOL    HW113771   3.293   1.402   6.220 -0.0739 -1.5835 -0.9502
 4277SOL    HW213772   3.172   1.317   6.255  0.1447 -1.1793  0.9093
 4278SOL     OW13773   2.218   6.475   6.389  0.0952 -0.1363  0.5754
 4278SOL    HW113774   2.165   6.409   6.433  0.5310 -1.7576 -1.1777
 4278SOL    HW213775   2.154   6.533   6.348 -0.3590 -1.0946 -0.1231
 4279SOL     OW13776   2.175   5.232   1.682  0.2479  0.0016 -0.2791
 4279SOL    HW113777   2.196   5.326   1.677  0.2796  0.0137  0.0652
 4279SOL    HW213778   2.093   5.224   1.633 -0.1945  0.3514  0.3672
 4280SOL     OW13779   0.243   7.021   3.403  0.4572  0.8462 -0.6582
 4280SOL    HW113780   0.231   7.051   3.493  0.2042  1.0959 -0.7734
 4280SOL    HW213781   0.219   6.928   3.406 -0.8011  1.1517 -0.7180
 4281SOL     OW13782   0.201   1.785   5.936 -0.1792 -0.1477  0.0777
 4281SOL    HW113783   0.123   1.731   5.950  0.8270 -1.7405 -0.2461
 4281SOL    HW213784   0.272   1.736   5.978  0.9787  0.3001 -1.3002
 4282SOL     OW13785   2.377   4.532   4.940 -0.1802  0.6264  0.0650
 4282SOL    HW113786   2.342   4.618   4.965 -0.1738  0.1156  1.9318
 4282SOL    HW213787   2.304   4.490   4.894 -1.5754  0.2077  2.4831
 4283SOL     OW13788   3.104   0.476   3.679 -0.0919  0.5812 -0.0621
 4283SOL    HW113789   3.159   0.403   3.653  0.6812  1.6831 -1.7072
 4283SOL    HW213790   3.016   0.451   3.652 -0.6177 -1.3333  2.8769
 4284SOL     OW13791   3.116   2.038   6.985  0.3036  0.4338 -0.2885
 4284SOL    HW113792   3.089   2.119   6.942  0.1317 -0.5782 -2.1861
 4284SOL    HW213793   3.170   1.993   6.920 -2.4253 -2.5860 -0.6764
 4285SOL     OW13794   6.343   0.647   3.467 -0.0946 -0.1859  0.8179
 4285SOL    HW113795   6.282   0.707   3.510 -0.4771  0.0508 -0.0414
 4285SOL    HW213796   6.297   0.618   3.388  0.4017 -0.9931  0.8086
 4286SOL     OW13797   7.115   6.215   4.000  0.0416  0.5002 -0.0658
 4286SOL    HW113798   7.200   6.230   3.959  0.0135  2.1758  0.4050
 4286SOL    HW213799   7.079   6.138   3.955  0.8913  1.0347 -1.7213
 4287SOL     OW13800   0.159   5.444   4.853  0.0956  0.5122 -0.5810
 4287SOL    HW113801   0.180   5.373   4.792 -1.1776 -0.5619  0.1703
 4287SOL    HW213802   0.100   5.404   4.917  1.6096  1.5353  1.5597
 4288SOL     OW13803   2.581   5.547   5.636  0.0440  0.5802  0.1863
 4288SOL    HW113804   2.517   5.589   5.693 -0.0332 -1.8226  2.0277
 4288SOL    HW213805   2.531   5.480   5.589  0.7621  0.1468  0.0216
 4289SOL     OW13806   5.976   2.715   1.269 -0.2333  0.5431  0.0508
 4289SOL    HW113807   5.904   2.693   1.328 -0.0997  0.9226  0.3543
 4289SOL    HW213808   5.937   2.773   1.204 -0.9062 -1.5224 -1.5111
 4290SOL     OW13809   0.898   6.625   3.363  0.0274  0.0143  0.8002
 4290SOL    HW113810   0.888   6.540   3.320 -1.7851  1.5231 -2.0668
 4290SOL    HW213811   0.990   6.648   3.349  0.2601 -0.9611  0.6004
 4291SOL     OW13812   1.220   3.033   2.394  0.0815  0.4806 -0.1936
 4291SOL    HW113813   1.247   3.118   2.430  0.3725 -0.1551  1.1253
 4291SOL    HW213814   1.301   2.982   2.392 -0.1404  0.1463 -0.7668
 4292SOL     OW13815   6.394   6.101   4.155 -0.0642  0.4425  0.3782
 4292SOL    HW113816   6.337   6.119   4.230  0.7286 -0.9792  1.3587
 4292SOL    HW213817   6.341   6.124   4.078 -0.3465  3.5453  1.3376
 4293SOL     OW13818   5.302   5.361   0.409 -0.3822 -0.1425  0.1543
 4293SOL    HW113819   5.348   5.439   0.442 -1.7202  1.8228 -2.2352
 4293SOL    HW213820   5.232   5.346   0.472  0.2964  0.1707  0.9999
 4294SOL     OW13821   3.400   5.868   4.775 -0.0026  0.1936 -0.4381
 4294SOL    HW113822   3.393   5.858   4.680 -1.9300  1.3043 -0.4687
 4294SOL    HW213823   3.309   5.873   4.805  0.5904  0.5164  1.3841
 4295SOL     OW13824   1.327   6.257   2.275 -0.2773 -0.7286  0.1095
 4295SOL    HW113825   1.379   6.333   2.249 -0.6331 -1.0914 -1.8388
 4295SOL    HW213826   1.385   6.205   2.330  0.5783  0.0697 -0.0177
 4296SOL     OW13827   2.211   2.950   2.731  0.4217 -0.1881 -0.4466
 4296SOL    HW113828   2.247   2.942   2.643 -1.9802 -2.3579 -1.3782
 4296SOL    HW213829   2.273   2.904   2.787  0.2645 -1.9455 -1.6426
 4297SOL     OW13830   0.453   6.373   3.423 -0.0017 -0.3295  0.1066
 4297SOL    HW113831   0.533   6.329   3.395 -0.0473  1.8795 -4.2363
 4297SOL    HW213832   0.386   6.304   3.420  1.2029 -1.6420  1.4391
 4298SOL     OW13833   1.918   4.149   4.464 -0.3267  0.2224 -0.1746
 4298SOL    HW113834   1.936   4.240   4.441  0.8800  0.6716  2.2470
 4298SOL    HW213835   2.000   4.103   4.444 -0.0486  0.1952  0.9492
 4299SOL     OW13836   6.900   1.228   4.860 -0.4357 -0.5164 -0.5937
 4299SOL    HW113837   6.991   1.248   4.837 -0.5709  0.8771 -0.0331
 4299SOL    HW213838   6.867   1.177   4.786  0.2650  0.5568 -1.6883
 4300SOL     OW13839   2.838   2.769   0.858  0.0400  0.2935  0.1056
 4300SOL    HW113840   2.846   2.676   0.883 -0.0397  0.6148  1.3856
 4300SOL    HW213841   2.922   2.789   0.816  0.1350 -0.3098 -0.0047
 4301SOL     OW13842   5.452   3.366   3.880 -0.0418  0.4926 -0.1101
 4301SOL    HW113843   5.531   3.344   3.831  0.1769 -1.0830  0.9052
 4301SOL    HW213844   5.430   3.455   3.851  1.8212  0.7790 -0.7541
 4302SOL     OW13845   6.587   6.440   0.791  0.9491  0.5657  0.6597
 4302SOL    HW113846   6.575   6.406   0.880 -0.3260  0.8586  0.6134
 4302SOL    HW213847   6.628   6.367   0.743 -1.7412 -1.0268  0.5480
 4303SOL     OW13848   0.004   5.240   0.998  0.3869  0.5981 -0.3107
 4303SOL    HW113849   0.004   5.311   1.062  0.0572 -2.0060  2.8381
 4303SOL    HW213850   0.091   5.201   1.006 -0.6954 -1.7621  1.1325
 4304SOL     OW13851   4.799   0.856   6.704 -0.4025 -0.0735  0.1759
 4304SOL    HW113852   4.845   0.820   6.780 -0.9867 -1.4014 -0.0566
 4304SOL    HW213853   4.868   0.869   6.638 -0.0325  0.1645  0.6094
 4305SOL     OW13854   1.145   5.439   1.043  0.1980 -0.4863  0.2060
 4305SOL    HW113855   1.187   5.446   1.129  4.5751 -0.0481 -1.6901
 4305SOL    HW213856   1.167   5.521   0.999 -1.0363 -1.1288 -1.7228
 4306SOL     OW13857   1.864   1.880   7.035 -0.2132 -0.4912  0.4045
 4306SOL    HW113858   1.875   1.854   7.126  0.7315 -0.5775  0.2732
 4306SOL    HW213859   1.951   1.870   6.996 -0.9592 -2.1945 -0.9599
 4307SOL     OW13860   6.276   4.711   1.112  0.2093  0.8154 -0.2888
 4307SOL    HW113861   6.280   4.765   1.034  1.2658  0.4844 -0.4693
 4307SOL    HW213862   6.305   4.624   1.084 -0.9071  0.2740  0.1233
 4308SOL     OW13863   6.165   1.936   3.449 -0.0924  0.0715 -0.0364
 4308SOL    HW113864   6.081   1.971   3.419 -0.3403  0.4293  1.0172
 4308SOL    HW213865   6.173   1.851   3.406 -1.8558 -0.7840  1.2136
 4309SOL     OW13866   4.041   5.014   1.003  0.4328  0.0366 -0.1133
 4309SOL    HW113867   4.124   5.060   1.018  0.4110  0.8096 -2.0201
 4309SOL    HW213868   4.055   4.927   1.041  1.6658  0.5479  0.6802
 4310SOL     OW13869   0.669   4.255   5.352 -0.4207 -0.0978  0.4261
 4310SOL    HW113870   0.689   4.222   5.440 -0.0609  0.1726  0.4492
 4310SOL    HW213871   0.573   4.253   5.347 -0.4186 -0.8129  0.5506
 4311SOL     OW13872   3.410   2.487   1.129 -0.0974  0.0321  0.2342
 4311SOL    HW113873   3.363   2.441   1.198 -0.9387 -1.4756 -1.2556
 4311SOL    HW213874   3.425   2.574   1.164 -0.6271 -0.6217  2.2346
 4312SOL     OW13875   1.597   2.601   5.615  0.0077 -0.0836 -0.0745
 4312SOL    HW113876   1.532   2.659   5.654  0.9383  0.3867  0.8069
 4312SOL    HW213877   1.586   2.517   5.660  0.1391  0.0533  0.2136
 4313SOL     OW13878   1.833   4.096   2.116 -0.1861  0.0010 -0.5867
 4313SOL    HW113879   1.776   4.054   2.180 -0.5095  1.0171 -0.1875
 4313SOL    HW213880   1.886   4.025   2.080  1.0276 -0.4177  1.8455
 4314SOL     OW13881   4.049   5.320   1.248  0.4884  0.3090 -0.1718
 4314SOL    HW113882   4.016   5.285   1.166  1.0717 -0.6400 -0.0255
 4314SOL    HW213883   3.985   5.292   1.314  0.1740  0.8186 -0.2546
 4315SOL     OW13884   5.451   2.895   5.704 -0.1316 -0.5140 -0.4783
 4315SOL    HW113885   5.386   2.945   5.656  0.5375 -0.8459 -1.8201
 4315SOL    HW213886   5.406   2.863   5.782 -1.4089 -0.3035 -1.1086
 4316SOL     OW13887   6.934   4.385   3.582  0.0090 -0.1020  0.1665
 4316SOL    HW113888   6.946   4.297   3.618  2.0414 -0.2641 -0.7746
 4316SOL    HW213889   6.874   4.373   3.509  1.8265 -1.1332 -1.2423
 4317SOL     OW13890   6.797   6.281   4.410  0.3087  0.4457  0.2536
 4317SOL    HW113891   6.776   6.341   4.339  1.7877  1.5232  0.6771
 4317SOL    HW213892   6.876   6.236   4.381 -0.4145 -0.8442  0.2284
 4318SOL     OW13893   4.911   7.386   2.257 -0.3062 -0.1874 -1.0042
 4318SOL    HW113894   4.980   7.358   2.317 -0.3219 -0.7452 -1.2461
 4318SOL    HW213895   4.880   7.469   2.295 -0.2818 -0.5030 -0.2633
 4319SOL     OW13896   7.378   5.354   5.607 -0.2556 -0.1469 -0.2465
 4319SOL    HW113897   7.406   5.409   5.680  2.4410  0.0899 -1.3239
 4319SOL    HW213898   7.430   5.275   5.615  1.6169  0.6678 -2.8737
 4320SOL     OW13899   5.086   0.695   5.034  0.0743 -0.1658 -0.2592
 4320SOL    HW113900   5.017   0.629   5.030  1.3689 -1.5167 -2.3030
 4320SOL    HW213901   5.141   0.669   5.108 -0.1239 -0.6355 -0.2761
 4321SOL     OW13902   0.042   6.795   1.053 -0.1527 -0.0946  0.4663
 4321SOL    HW113903   0.123   6.816   1.099 -0.2675 -0.6676  0.9352
 4321SOL    HW213904  -0.015   6.757   1.120 -0.5294 -0.4073 -0.0231
 4322SOL     OW13905   1.679   4.116   1.790 -0.7225 -0.0674 -0.1666
 4322SOL    HW113906   1.623   4.059   1.737  0.0305  0.1259 -1.1933
 4322SOL    HW213907   1.640   4.112   1.877 -2.0294 -0.3417 -0.7332
 4323SOL     OW13908   4.075   3.296   0.734 -0.7007  0.0323  0.2623
 4323SOL    HW113909   3.983   3.316   0.721 -0.1303  1.2480 -3.1909
 4323SOL    HW213910   4.113   3.378   0.768 -0.7052 -0.0746  0.5256
 4324SOL     OW13911   7.355   4.505   7.152  0.3827  0.5637 -0.4123
 4324SOL    HW113912   7.410   4.501   7.230  0.4966  1.8208 -0.3990
 4324SOL    HW213913   7.391   4.439   7.093  2.0382  1.4677 -0.4657
 4325SOL     OW13914   7.307   6.755   6.327 -0.1380 -0.0802 -0.1968
 4325SOL    HW113915   7.400   6.747   6.304  0.3879 -1.2204  2.0659
 4325SOL    HW213916   7.261   6.702   6.262  0.9054 -0.4558 -0.6515
 4326SOL     OW13917   1.112   2.469   6.693 -0.3154 -0.0977 -0.9364
 4326SOL    HW113918   1.066   2.401   6.741  0.1870  0.6052  0.5878
 4326SOL    HW213919   1.128   2.431   6.607 -0.8015 -1.5649 -0.3995
 4327SOL     OW13920   6.006   7.228   1.494  0.4325 -0.0393  0.2654
 4327SOL    HW113921   5.952   7.306   1.481  2.0294  0.8483 -1.6328
 4327SOL    HW213922   5.963   7.160   1.442 -0.7765 -0.3868  1.6521
 4328SOL     OW13923   0.746   0.264   6.364  0.2123  0.0877 -0.9010
 4328SOL    HW113924   0.804   0.322   6.314  0.4821 -1.4081 -2.4079
 4328SOL    HW213925   0.801   0.188   6.384  0.1291  0.6527  1.7964
 4329SOL     OW13926   3.462   3.461   6.047 -0.1463  0.5884 -0.2745
 4329SOL    HW113927   3.534   3.429   6.101  0.2818 -1.0223 -1.7115
 4329SOL    HW213928   3.444   3.549   6.080  2.4309  1.0023  0.1880
 4330SOL     OW13929   3.714   1.225   1.590  0.0267  0.4729 -0.0053
 4330SOL    HW113930   3.793   1.176   1.572 -0.0855  1.0640 -2.3712
 4330SOL    HW213931   3.652   1.197   1.523 -1.6096  0.4154  1.4656
 4331SOL     OW13932   5.110   0.762   5.771  0.5273  0.0637 -1.2082
 4331SOL    HW113933   5.142   0.783   5.683  1.9746 -0.4605 -0.8337
 4331SOL    HW213934   5.103   0.847   5.815  0.9448  0.2321 -1.4619
 4332SOL     OW13935   2.078   3.964   5.830 -0.5719  0.0027 -0.5787
 4332SOL    HW113936   2.007   3.913   5.870 -0.8933  0.3819 -0.6596
 4332SOL    HW213937   2.035   4.017   5.763  0.0240 -0.9863 -1.7999
 4333SOL     OW13938   1.794   3.974   5.064  0.0712  0.8023 -0.5557
 4333SOL    HW113939   1.731   3.998   4.996  0.0205  1.9144 -0.1305
 4333SOL    HW213940   1.874   3.951   5.016 -0.7453 -1.0467 -1.1292
 4334SOL     OW13941   5.563   6.636   0.932 -0.6344 -0.1925 -0.2384
 4334SOL    HW113942   5.485   6.595   0.969  0.3263  0.6588  3.1492
 4334SOL    HW213943   5.635   6.602   0.985  1.3464 -0.7094 -3.0424
 4335SOL     OW13944   6.428   4.788   1.549  1.0005 -0.0687  0.5255
 4335SOL    HW113945   6.367   4.853   1.583  0.6575 -0.0602 -0.0855
 4335SOL    HW213946   6.450   4.819   1.461  2.7834  0.5266  1.1343
 4336SOL     OW13947   5.075   2.498   1.321  0.3570  0.0902 -0.0587
 4336SOL    HW113948   4.995   2.450   1.301  1.2667 -1.7765  0.5974
 4336SOL    HW213949   5.065   2.523   1.413  0.4698 -0.0306 -0.0135
 4337SOL     OW13950   4.090   1.038   0.900  0.0967  0.5033 -0.4597
 4337SOL    HW113951   4.117   1.081   0.820 -0.9505  1.1413 -0.4813
 4337SOL    HW213952   4.006   1.078   0.923 -0.8108 -1.3255 -0.3518
 4338SOL     OW13953   2.314   3.271   6.170 -0.3393 -0.2542  0.1483
 4338SOL    HW113954   2.278   3.230   6.248  1.6526  0.6196  1.5967
 4338SOL    HW213955   2.370   3.204   6.131  1.1534  0.3001  1.2715
 4339SOL     OW13956   3.360   4.522   1.584 -0.5558 -0.0784  0.1761
 4339SOL    HW113957   3.325   4.491   1.500 -0.9068 -0.5929  0.5089
 4339SOL    HW213958   3.430   4.582   1.559 -0.0926 -0.8687 -0.4928
 4340SOL     OW13959   1.862   0.664   3.562  0.0116 -0.3345  0.1804
 4340SOL    HW113960   1.820   0.657   3.648  1.0161  0.5681  0.7794
 4340SOL    HW213961   1.898   0.578   3.545  0.6150 -0.2698  1.1076
 4341SOL     OW13962   3.463   1.710   1.948  0.4909 -0.4256  0.3352
 4341SOL    HW113963   3.527   1.762   1.899 -0.6766  1.2614  0.5096
 4341SOL    HW213964   3.430   1.646   1.884 -0.8103  1.5625 -1.1209
 4342SOL     OW13965   7.381   6.882   5.416 -0.6873  0.0740 -0.2418
 4342SOL    HW113966   7.379   6.826   5.339  0.0313  0.5611 -0.6303
 4342SOL    HW213967   7.299   6.932   5.412 -1.1806 -0.7095 -0.0613
 4343SOL     OW13968   6.257   1.536   1.919  0.2104 -0.2258 -0.4864
 4343SOL    HW113969   6.258   1.516   2.013 -0.8254 -1.8423 -0.7699
 4343SOL    HW213970   6.193   1.475   1.882 -0.3178  1.2043 -2.0845
 4344SOL     OW13971   0.411   0.278   0.260  0.3415  0.0531  0.4731
 4344SOL    HW113972   0.397   0.359   0.212  2.9279 -0.0370 -0.6143
 4344SOL    HW213973   0.383   0.209   0.199  2.3608  0.0013 -0.4799
 4345SOL     OW13974   4.846   1.588   0.601 -0.1425  0.6014 -0.1140
 4345SOL    HW113975   4.799   1.546   0.529  0.7501  0.3023 -0.5365
 4345SOL    HW213976   4.802   1.672   0.613 -0.4355  0.5617 -0.8645
 4346SOL     OW13977   1.415   1.674   2.958  0.0861  0.6772  0.3048
 4346SOL    HW113978   1.396   1.721   3.040 -1.0258  0.6148  0.0957
 4346SOL    HW213979   1.340   1.616   2.946  1.1687 -0.7713  0.2610
 4347SOL     OW13980   5.719   5.470   7.014 -0.6091  0.1395  0.0075
 4347SOL    HW113981   5.657   5.414   7.061 -1.6102  1.3836  0.2458
 4347SOL    HW213982   5.670   5.501   6.937  0.3916 -0.4039 -0.8719
 4348SOL     OW13983   2.626   2.819   2.348  0.3410 -0.6738  0.6988
 4348SOL    HW113984   2.656   2.731   2.327 -0.5470 -0.8306 -0.0287
 4348SOL    HW213985   2.542   2.827   2.301  0.5322  0.6431  0.5368
 4349SOL     OW13986   3.135   1.565   0.672  0.0561 -0.0992  0.1700
 4349SOL    HW113987   3.134   1.536   0.763  0.2354  0.9288  0.5204
 4349SOL    HW213988   3.074   1.638   0.670  0.4811  0.2514 -0.3991
 4350SOL     OW13989   4.933   5.589   6.610  0.5491  0.5867 -0.1113
 4350SOL    HW113990   4.870   5.598   6.539 -0.2054  0.1277  0.4816
 4350SOL    HW213991   4.884   5.611   6.689  1.2793  0.7396  0.3153
 4351SOL     OW13992   2.688   5.223   7.064 -0.1702 -0.1321 -0.2531
 4351SOL    HW113993   2.761   5.250   7.009 -1.4461  0.8253 -1.5670
 4351SOL    HW213994   2.729   5.191   7.144  1.6509  0.9909 -0.6680
 4352SOL     OW13995   5.448   1.140   1.243 -0.1118  0.2689 -0.2347
 4352SOL    HW113996   5.528   1.094   1.269  1.5416  2.5516 -1.0240
 4352SOL    HW213997   5.422   1.098   1.161  1.1036  0.4155 -0.7132
 4353SOL     OW13998   5.967   4.580   2.649 -0.3811  0.1296  0.1114
 4353SOL    HW113999   5.943   4.487   2.654 -0.9471 -0.1316 -3.9667
 4353SOL    HW214000   6.061   4.581   2.668 -0.4369 -1.2242  0.5983
 4354SOL     OW14001   3.642   0.953   1.892  0.1116 -0.2857  0.3132
 4354SOL    HW114002   3.727   0.918   1.917  1.0586  1.0143 -0.9619
 4354SOL    HW214003   3.653   1.048   1.894 -0.5410 -0.0730 -2.2723
 4355SOL     OW14004   2.501   0.379   6.949 -0.0999 -0.0156  0.5196
 4355SOL    HW114005   2.513   0.284   6.945 -0.7743 -0.2053  2.1099
 4355SOL    HW214006   2.571   0.410   7.005 -0.9025  0.1679  1.4586
 4356SOL     OW14007   0.160   1.582   6.567 -0.1856  0.4000  0.6163
 4356SOL    HW114008   0.155   1.672   6.533  0.5241  0.7514  1.4131
 4356SOL    HW214009   0.247   1.551   6.541 -0.7761 -0.4114 -0.4702
 4357SOL     OW14010   1.603   0.658   1.729 -0.9205  0.0748  0.4942
 4357SOL    HW114011   1.686   0.672   1.775  0.5043  0.1768 -1.9453
 4357SOL    HW214012   1.550   0.735   1.751  0.4890  1.1171  0.3780
 4358SOL     OW14013   0.677   2.015   4.602 -0.1581  0.3929 -0.5284
 4358SOL    HW114014   0.700   2.086   4.661  2.0174 -0.3719 -0.3436
 4358SOL    HW214015   0.608   1.967   4.647  0.5418  0.6000  0.8039
 4359SOL     OW14016   3.755   4.296   2.044  0.6400  0.1436 -0.1574
 4359SOL    HW114017   3.837   4.254   2.018  0.2681 -1.3219  0.9028
 4359SOL    HW214018   3.694   4.275   1.973  0.8235  0.0634 -0.2937
 4360SOL     OW14019   3.112   3.320   3.622  0.4006  0.2925  0.2095
 4360SOL    HW114020   3.088   3.323   3.715 -3.6175  1.7906 -0.6838
 4360SOL    HW214021   3.120   3.412   3.597  0.8872 -0.0736 -1.0632
 4361SOL     OW14022   2.035   6.781   2.470 -0.2566  0.0413  0.2445
 4361SOL    HW114023   1.966   6.754   2.409  0.7276 -2.3868  0.0737
 4361SOL    HW214024   2.006   6.747   2.555  0.6345 -0.9098  0.1887
 4362SOL     OW14025   6.668   5.099   4.011  0.2647  0.0083  0.3332
 4362SOL    HW114026   6.762   5.097   3.993  0.1998 -4.2677 -0.6702
 4362SOL    HW214027   6.659   5.058   4.097 -0.6952 -2.0130 -0.6562
 4363SOL     OW14028   1.950   7.375   1.911  0.2398  0.3815 -0.1323
 4363SOL    HW114029   2.032   7.410   1.875 -0.8885  1.2987 -1.9290
 4363SOL    HW214030   1.897   7.452   1.928 -1.3355 -0.3014 -1.7338
 4364SOL     OW14031   2.672   1.566   2.181 -0.2113  0.0368 -0.6829
 4364SOL    HW114032   2.753   1.610   2.156 -0.2827 -0.0096 -1.0017
 4364SOL    HW214033   2.619   1.566   2.101 -1.0565  1.2016 -0.1581
 4365SOL     OW14034   0.624   3.694   2.655  0.6847  0.0309  0.5994
 4365SOL    HW114035   0.711   3.718   2.623 -0.2926  1.8929 -0.8914
 4365SOL    HW214036   0.618   3.735   2.742  0.1431  2.9349 -0.6938
 4366SOL     OW14037   4.313   2.174   1.250 -0.1196 -0.2835 -0.0609
 4366SOL    HW114038   4.390   2.173   1.306 -1.5983 -1.2029  2.1006
 4366SOL    HW214039   4.318   2.092   1.201 -0.1096 -0.7361  0.6797
 4367SOL     OW14040   0.399   6.430   6.053  0.1434  0.5350 -0.7598
 4367SOL    HW114041   0.463   6.389   5.995 -1.2451 -0.9094 -1.3582
 4367SOL    HW214042   0.324   6.370   6.052  0.1601  0.2374  2.8338
 4368SOL     OW14043   1.089   1.605   3.028  0.0556  0.3588  0.1195
 4368SOL    HW114044   1.142   1.559   2.964  0.3761  1.3605 -0.3531
 4368SOL    HW214045   1.137   1.596   3.110  0.3957  0.3179 -0.0811
 4369SOL     OW14046   4.141   1.416   1.774 -0.5523 -0.3243  0.4856
 4369SOL    HW114047   4.212   1.388   1.717 -0.1910 -0.6172  1.0727
 4369SOL    HW214048   4.138   1.511   1.765  0.2901 -0.2494  0.8821
 4370SOL     OW14049   2.336   3.863   4.922 -0.3637 -0.6008 -0.0261
 4370SOL    HW114050   2.409   3.915   4.958 -1.1714  0.1090  0.6377
 4370SOL    HW214051   2.379   3.789   4.878  0.7922  0.2428 -0.3850
 4371SOL     OW14052   3.002   2.745   0.571  0.1985 -0.0090  0.2022
 4371SOL    HW114053   2.991   2.836   0.598  0.3584  0.4111 -1.0837
 4371SOL    HW214054   3.079   2.745   0.516  1.9423 -1.4677  2.4410
 4372SOL     OW14055   3.015   1.594   5.932  0.4861  0.2658  0.3760
 4372SOL    HW114056   2.981   1.516   5.889  0.4258  0.1976  0.5450
 4372SOL    HW214057   3.096   1.565   5.974  0.1749  0.1512  0.9155
 4373SOL     OW14058   6.904   5.225   3.545  0.3722 -0.3888  0.5885
 4373SOL    HW114059   6.974   5.253   3.604  0.5281 -0.2281  0.3282
 4373SOL    HW214060   6.949   5.171   3.479  0.2358 -0.3696  0.4796
 4374SOL     OW14061   7.384   2.267   3.625 -0.0018  0.7901  0.3380
 4374SOL    HW114062   7.306   2.243   3.675  0.5418 -0.0971  0.8045
 4374SOL    HW214063   7.363   2.245   3.535 -0.1623  0.2008  0.5135
 4375SOL     OW14064   0.471   0.264   6.095  0.3033  0.2123  0.2825
 4375SOL    HW114065   0.499   0.344   6.139 -0.6766 -0.3533  2.0402
 4375SOL    HW214066   0.380   0.282   6.068  1.7292  1.6993 -4.5254
 4376SOL     OW14067   5.404   2.048   2.102 -0.4700  0.7437  0.4435
 4376SOL    HW114068   5.475   1.990   2.074 -1.4399 -0.2952  0.0583
 4376SOL    HW214069   5.413   2.051   2.197 -0.2348  0.1703  0.4507
 4377SOL     OW14070   2.009   0.282   1.450  0.2242 -0.3913 -0.4617
 4377SOL    HW114071   2.080   0.218   1.452  1.5565  1.0313 -0.9611
 4377SOL    HW214072   2.022   0.330   1.369 -0.6957  0.5856 -0.0510
 4378SOL     OW14073   0.271   5.437   3.801 -0.0676 -0.4706 -0.3063
 4378SOL    HW114074   0.191   5.452   3.750 -1.3228  1.2720  1.9752
 4378SOL    HW214075   0.333   5.501   3.768 -0.9218  0.7499  0.3595
 4379SOL     OW14076   2.763   5.587   1.192 -0.0578 -0.4637 -0.4347
 4379SOL    HW114077   2.830   5.557   1.130 -0.5155 -0.2866 -1.0171
 4379SOL    HW214078   2.805   5.660   1.238 -0.3137  0.5374 -1.7476
 4380SOL     OW14079   2.069   2.753   2.201  0.0869 -0.7253  0.1248
 4380SOL    HW114080   2.155   2.775   2.164  0.0129  0.9667  0.8666
 4380SOL    HW214081   2.016   2.830   2.185 -1.3443 -1.7723 -0.3590
 4381SOL     OW14082   1.208   5.127   3.813  0.0812  0.2373 -0.5182
 4381SOL    HW114083   1.161   5.197   3.767  0.1822  0.4998 -0.2235
 4381SOL    HW214084   1.144   5.094   3.877  0.2726  0.5486 -0.1640
 4382SOL     OW14085   2.888   6.241   6.646 -0.2784 -0.3000  0.6831
 4382SOL    HW114086   2.817   6.305   6.656 -1.5319 -1.0736 -2.2287
 4382SOL    HW214087   2.957   6.289   6.598 -0.1041 -0.4041  0.8284
 4383SOL     OW14088   4.660   6.307   1.677 -0.1768 -0.0472  0.0427
 4383SOL    HW114089   4.693   6.391   1.647  1.7549 -0.6169  0.4236
 4383SOL    HW214090   4.569   6.324   1.701 -0.5676  1.3387 -2.1796
 4384SOL     OW14091   2.901   0.631   5.338 -0.0686  0.2934  0.0708
 4384SOL    HW114092   2.957   0.621   5.261 -1.1645  0.8980 -0.8335
 4384SOL    HW214093   2.962   0.634   5.411  1.3571  3.4101 -1.0405
 4385SOL     OW14094   1.015   1.740   5.182 -0.2760  0.0974  0.1925
 4385SOL    HW114095   0.984   1.787   5.260  0.9109  0.4658  0.4612
 4385SOL    HW214096   0.992   1.798   5.109 -0.8788  0.0152  0.3098
 4386SOL     OW14097   2.420   7.328   4.918  0.1390 -0.0258  0.3027
 4386SOL    HW114098   2.459   7.383   4.850  0.9909  1.0149  1.5887
 4386SOL    HW214099   2.486   7.324   4.987 -0.1350 -2.2209  0.4992
 4387SOL     OW14100   1.122   7.247   4.215 -0.3397 -0.7698 -0.2567
 4387SOL    HW114101   1.179   7.230   4.290  1.0492  2.6077 -0.4232
 4387SOL    HW214102   1.088   7.335   4.230 -2.9078 -1.3635 -1.9009
 4388SOL     OW14103   6.940   4.075   7.028 -0.0655 -0.0836  0.1806
 4388SOL    HW114104   6.900   4.105   7.109  0.1290 -0.7363  0.5279
 4388SOL    HW214105   6.871   4.028   6.982  0.8619 -3.6280  2.0270
 4389SOL     OW14106   5.314   1.170   7.217  0.1633 -0.0099 -0.3625
 4389SOL    HW114107   5.229   1.193   7.254  0.6258  1.9454 -0.4359
 4389SOL    HW214108   5.295   1.093   7.162 -0.9301 -1.6161  2.0571
 4390SOL     OW14109   3.918   0.435   5.269  0.2679 -0.1061  0.2903
 4390SOL    HW114110   3.826   0.455   5.255  0.2985  0.9578  1.5025
 4390SOL    HW214111   3.926   0.420   5.363  0.9721 -2.2215 -0.0300
 4391SOL     OW14112   6.866   6.032   6.370  0.7756 -0.4087  0.3033
 4391SOL    HW114113   6.941   6.081   6.337  0.3196  0.6344  0.7523
 4391SOL    HW214114   6.904   5.955   6.412  1.8032  1.1250  2.3778
 4392SOL     OW14115   4.829   6.039   0.170 -0.3272  0.0392  0.1452
 4392SOL    HW114116   4.752   5.983   0.156 -0.0786 -0.5437  1.0211
 4392SOL    HW214117   4.854   6.023   0.261  0.2405  0.9808  0.1664
 4393SOL     OW14118   5.030   7.302   6.518 -0.0071 -0.0683  0.7029
 4393SOL    HW114119   5.072   7.238   6.576 -0.1193 -0.1680  0.6740
 4393SOL    HW214120   5.056   7.387   6.553  0.6169 -0.1292  0.3970
 4394SOL     OW14121   4.756   7.416   3.727  0.2394 -0.0185  0.4043
 4394SOL    HW114122   4.692   7.415   3.655  0.2801 -2.0481  0.3620
 4394SOL    HW214123   4.732   7.342   3.782  0.3419  1.3543  2.4290
 4395SOL     OW14124   1.029   6.770   5.646  0.1579  0.0263 -0.0916
 4395SOL    HW114125   1.052   6.764   5.553 -2.5230  1.1868 -0.9430
 4395SOL    HW214126   0.941   6.732   5.651  0.4055 -0.3655  2.0732
 4396SOL     OW14127   3.361   5.325   0.077  0.0249  0.8410 -0.0262
 4396SOL    HW114128   3.451   5.314   0.048  0.2116 -1.0877  1.0827
 4396SOL    HW214129   3.308   5.288   0.007  0.0420  2.1663 -0.7729
 4397SOL     OW14130   7.058   6.469   3.347 -0.9068 -0.2733 -0.2535
 4397SOL    HW114131   6.969   6.506   3.345 -1.5965 -1.8484  0.1360
 4397SOL    HW214132   7.091   6.493   3.434 -0.6048  1.0482 -0.7124
 4398SOL     OW14133   5.232   2.367   3.123  0.3588  0.2892 -0.1443
 4398SOL    HW114134   5.229   2.422   3.201 -1.6501 -1.3491  1.0432
 4398SOL    HW214135   5.285   2.292   3.149 -0.2712 -0.2404 -0.3502
 4399SOL     OW14136   3.911   0.097   1.533 -0.3371  0.0564  0.1177
 4399SOL    HW114137   3.822   0.074   1.558 -0.0424 -1.3515 -0.0726
 4399SOL    HW214138   3.959   0.099   1.615 -0.3813  0.0780  0.1432
 4400SOL     OW14139   2.118   3.778   2.815  0.3323  0.0926  0.2263
 4400SOL    HW114140   2.062   3.746   2.744  0.8990 -0.9629  0.2361
 4400SOL    HW214141   2.162   3.700   2.848 -0.5598  0.4185  2.3186
 4401SOL     OW14142   3.548   1.440   4.782  0.2942 -0.7027  0.3000
 4401SOL    HW114143   3.566   1.392   4.701  2.7594 -0.0406  0.3616
 4401SOL    HW214144   3.572   1.379   4.852  0.4672 -0.4472  0.4654
 4402SOL     OW14145   2.293   7.226   5.433 -0.5281  0.1452 -0.0602
 4402SOL    HW114146   2.320   7.309   5.392 -1.3099  0.6329  0.3779
 4402SOL    HW214147   2.298   7.162   5.363 -0.3288  0.6559 -0.5213
 4403SOL     OW14148   1.410   3.115   4.972  0.3531  0.0529  0.5977
 4403SOL    HW114149   1.331   3.153   5.011 -1.4656 -1.3750 -1.4513
 4403SOL    HW214150   1.384   3.026   4.947  1.9754  0.1795 -1.9041
 4404SOL     OW14151   5.466   4.973   1.129  0.0224  0.3356 -0.2659
 4404SOL    HW114152   5.447   5.045   1.069 -0.4469  0.8216  0.4461
 4404SOL    HW214153   5.561   4.960   1.123  0.3706  2.1154  0.8033
 4405SOL     OW14154   5.030   7.139   6.105 -0.0027 -0.2047  0.5056
 4405SOL    HW114155   5.056   7.137   6.013 -1.1839  1.3237  0.0964
 4405SOL    HW214156   5.078   7.215   6.141  0.2531 -0.6387  1.0942
 4406SOL     OW14157   5.821   0.823   6.443 -0.5754 -0.3184 -0.2700
 4406SOL    HW114158   5.913   0.827   6.417 -0.1247 -0.7971  1.1660
 4406SOL    HW214159   5.806   0.902   6.494 -1.2736  0.2822 -1.3551
 4407SOL     OW14160   6.532   2.795   2.699  0.0178  0.2088 -0.4309
 4407SOL    HW114161   6.475   2.869   2.720  0.0166 -0.0548  0.5269
 4407SOL    HW214162   6.604   2.800   2.761 -0.4996 -1.1572  0.3251
 4408SOL     OW14163   5.062   1.168   1.987  0.0281  0.0649 -0.2186
 4408SOL    HW114164   5.153   1.196   1.992 -0.4328  1.4938  0.5274
 4408SOL    HW214165   5.058   1.091   2.044  0.7889 -0.1166 -0.3970
 4409SOL     OW14166   5.183   4.330   0.455 -0.1218 -0.0393 -0.2204
 4409SOL    HW114167   5.172   4.417   0.493  2.6028 -0.2327  1.2601
 4409SOL    HW214168   5.278   4.314   0.458 -0.4671 -2.7752 -1.0891
 4410SOL     OW14169   1.458   6.358   3.566  0.3208  0.3133 -0.3424
 4410SOL    HW114170   1.426   6.343   3.477  0.0435  0.9335 -0.3581
 4410SOL    HW214171   1.452   6.273   3.609  1.0338 -0.1330 -1.0927
 4411SOL     OW14172   3.642   2.508   0.154 -0.2149 -0.2029 -0.0453
 4411SOL    HW114173   3.570   2.570   0.147  0.5826  0.7243 -0.3481
 4411SOL    HW214174   3.695   2.541   0.226 -0.4712 -1.2938  0.6645
 4412SOL     OW14175   0.218   6.769   5.362 -0.1975 -0.7605 -0.3472
 4412SOL    HW114176   0.173   6.852   5.351 -0.5721 -0.8762  0.2719
 4412SOL    HW214177   0.161   6.705   5.319  0.0110 -0.7275 -0.6806
 4413SOL     OW14178   3.092   1.362   6.538 -0.0470  0.2766  0.0757
 4413SOL    HW114179   3.009   1.360   6.490 -0.2576 -0.6733  0.4585
 4413SOL    HW214180   3.158   1.338   6.472 -0.3028 -0.7438  0.1708
 4414SOL     OW14181   2.052   5.318   4.685  0.0568 -0.4230  0.3346
 4414SOL    HW114182   1.990   5.384   4.652 -0.2194 -0.9262 -0.1616
 4414SOL    HW214183   2.121   5.317   4.619 -0.4975 -1.4342 -0.2511
 4415SOL     OW14184   6.337   1.375   3.762 -0.0735 -0.3008 -0.0204
 4415SOL    HW114185   6.347   1.379   3.857 -2.1863  0.4564  0.2369
 4415SOL    HW214186   6.248   1.340   3.749  0.6524 -1.6659 -1.7553
 4416SOL     OW14187   5.468   6.880   0.804 -0.0249 -0.2512  0.0144
 4416SOL    HW114188   5.486   6.799   0.853  1.1793 -0.1342 -0.2111
 4416SOL    HW214189   5.471   6.853   0.712  1.2613  0.2106 -0.0878
 4417SOL     OW14190   1.727   6.639   4.402 -0.0862  0.2793  0.3131
 4417SOL    HW114191   1.803   6.595   4.441  0.8945  3.2679  2.0743
 4417SOL    HW214192   1.755   6.658   4.312 -0.4262 -2.2125 -0.4010
 4418SOL     OW14193   0.450   7.359   0.389 -0.3785  0.2506  0.3255
 4418SOL    HW114194   0.474   7.273   0.353  1.3369  0.5485  0.6713
 4418SOL    HW214195   0.434   7.413   0.311  1.2380  0.3260  0.0133
 4419SOL     OW14196   1.619   5.497   0.076 -0.0772 -0.5442 -0.3162
 4419SOL    HW114197   1.641   5.461   0.162  0.8014 -1.3566 -0.8542
 4419SOL    HW214198   1.704   5.517   0.036 -0.5030  0.6160 -0.6768
 4420SOL     OW14199   4.303   5.648   5.442 -0.1815 -0.5661 -0.5180
 4420SOL    HW114200   4.314   5.722   5.501 -2.5849  1.0264 -1.8755
 4420SOL    HW214201   4.340   5.573   5.489  0.7265  1.1486  1.6644
 4421SOL     OW14202   2.569   2.688   2.748  0.0687  0.5094 -0.0244
 4421SOL    HW114203   2.490   2.638   2.731  1.1660 -1.4938  0.4542
 4421SOL    HW214204   2.582   2.683   2.843  2.3199 -1.8370 -0.3417
 4422SOL     OW14205   0.307   6.180   0.265 -0.4207  0.0016 -0.4706
 4422SOL    HW114206   0.355   6.132   0.198 -0.0045 -1.5435  0.8932
 4422SOL    HW214207   0.374   6.208   0.327 -0.7132  2.0057 -0.9788
 4423SOL     OW14208   0.236   6.396   3.763  0.0952  0.1380  0.5670
 4423SOL    HW114209   0.180   6.323   3.791 -0.9664  0.9161  0.5055
 4423SOL    HW214210   0.194   6.474   3.800  0.4872  0.8492 -0.4609
 4424SOL     OW14211   5.215   1.902   6.504  0.1508 -0.0070  0.4370
 4424SOL    HW114212   5.221   1.998   6.505 -1.5551  0.1273  1.3511
 4424SOL    HW214213   5.122   1.884   6.494  0.5681 -1.6159 -0.9954
 4425SOL     OW14214   3.669   7.076   2.764 -0.6640  0.3427  0.0437
 4425SOL    HW114215   3.681   7.040   2.852 -1.5965 -1.0053 -0.3343
 4425SOL    HW214216   3.649   6.999   2.710  0.1303  1.1165 -1.3955
 4426SOL     OW14217   2.503   4.935   0.960 -0.1017  0.1895  0.5539
 4426SOL    HW114218   2.485   4.933   0.866 -0.1868 -0.5823  0.5766
 4426SOL    HW214219   2.434   4.991   0.997 -1.7028 -1.6288  0.4713
 4427SOL     OW14220   3.361   6.978   6.700 -0.1460 -0.4425  0.2014
 4427SOL    HW114221   3.356   6.944   6.610 -0.1926 -2.5053  0.9349
 4427SOL    HW214222   3.348   7.073   6.690 -0.4121 -0.6410 -1.9307
 4428SOL     OW14223   6.936   6.210   1.171 -0.4590  0.3822  0.0981
 4428SOL    HW114224   6.859   6.199   1.115  0.6530 -0.6020 -1.3203
 4428SOL    HW214225   6.972   6.122   1.178  0.8471  0.9188  0.2869
 4429SOL     OW14226   0.114   5.067   2.575 -0.1913 -0.5409 -0.4183
 4429SOL    HW114227   0.165   5.031   2.503 -2.1706 -1.0444 -1.6704
 4429SOL    HW214228   0.023   5.055   2.547 -1.0216  2.7682  0.4193
 4430SOL     OW14229   4.868   3.744   3.574  0.4491 -0.0043  0.2539
 4430SOL    HW114230   4.846   3.751   3.481 -4.1351  0.6905  1.1342
 4430SOL    HW214231   4.906   3.829   3.596 -0.7132  0.7490 -0.5419
 4431SOL     OW14232   0.392   5.216   2.828 -0.0281  0.0116 -0.1743
 4431SOL    HW114233   0.373   5.304   2.861  0.3646 -0.5466  1.6609
 4431SOL    HW214234   0.310   5.168   2.841  0.1692 -0.2487  0.1268
 4432SOL     OW14235   6.274   4.041   0.244  0.4561 -0.3381  0.1743
 4432SOL    HW114236   6.324   3.960   0.230  0.5609 -0.2780  0.2016
 4432SOL    HW214237   6.340   4.109   0.251  0.3966 -0.3292  0.6923
 4433SOL     OW14238   6.364   1.108   6.107 -0.6576  0.3783  0.0339
 4433SOL    HW114239   6.311   1.029   6.119 -0.4919  0.1914 -0.4745
 4433SOL    HW214240   6.330   1.169   6.173 -0.3765 -0.3214  0.8398
 4434SOL     OW14241   6.270   2.417   5.173  0.7869  0.4943 -0.5302
 4434SOL    HW114242   6.351   2.463   5.194 -0.2836  1.7026  1.2623
 4434SOL    HW214243   6.201   2.471   5.211 -0.7654 -1.1497 -0.8667
 4435SOL     OW14244   0.402   6.022   0.064 -0.0338  0.1035 -0.0931
 4435SOL    HW114245   0.475   5.982   0.110 -1.1094  1.3142  2.8960
 4435SOL    HW214246   0.435   6.036  -0.025  2.8878 -0.5936  0.7636
 4436SOL     OW14247   0.287   5.587   7.339  0.1909  0.2353 -0.1185
 4436SOL    HW114248   0.201   5.558   7.368 -0.7582  1.9849 -1.0274
 4436SOL    HW214249   0.347   5.517   7.367 -1.5008 -1.0239  0.5089
 4437SOL     OW14250   0.528   0.828   5.759 -0.2702 -0.7189  0.1760
 4437SOL    HW114251   0.488   0.870   5.835 -1.3621 -1.6777  0.1687
 4437SOL    HW214252   0.482   0.745   5.751  1.9216 -2.0238  0.3021
 4438SOL     OW14253   5.641   0.284   1.985 -0.1557 -0.3867  0.4535
 4438SOL    HW114254   5.554   0.280   2.025 -0.0862  0.3886  0.7008
 4438SOL    HW214255   5.666   0.376   1.991  0.7247 -0.6165  0.4624
 4439SOL     OW14256   1.690   0.972   6.959 -0.1679 -0.3614  0.3921
 4439SOL    HW114257   1.707   1.000   6.869  0.7361 -1.4105  0.2222
 4439SOL    HW214258   1.666   0.880   6.951 -1.3883 -0.1321  1.1114
 4440SOL     OW14259   2.752   2.081   0.283  0.0907  0.5420  0.5830
 4440SOL    HW114260   2.676   2.114   0.235  0.0092  0.1434  0.4337
 4440SOL    HW214261   2.800   2.029   0.219 -0.1797 -0.2487  1.0113
 4441SOL     OW14262   5.717   0.776   6.088 -0.1342 -0.1256  0.1976
 4441SOL    HW114263   5.724   0.698   6.142 -0.0977  1.1621  2.1517
 4441SOL    HW214264   5.786   0.767   6.023  1.1284 -0.8408  1.5884
 4442SOL     OW14265   3.455   3.276   0.107 -0.2771  0.0616  0.1296
 4442SOL    HW114266   3.403   3.350   0.075 -0.3041  0.6818  1.5675
 4442SOL    HW214267   3.470   3.223   0.029  1.0364  2.3261 -1.2845
 4443SOL     OW14268   1.902   6.327   4.095 -0.2416  0.0066  0.0509
 4443SOL    HW114269   1.851   6.379   4.032  1.1304  0.8628 -0.3807
 4443SOL    HW214270   1.892   6.373   4.178 -1.5106 -0.7627  0.3661
 4444SOL     OW14271   5.231   4.274   6.088  0.1693  0.6262  0.4398
 4444SOL    HW114272   5.297   4.320   6.140  0.8999  1.4234 -1.0970
 4444SOL    HW214273   5.274   4.192   6.062 -0.1662  0.2624  1.0219
 4445SOL     OW14274   6.322   2.804   7.398 -0.1274  0.0681 -0.3208
 4445SOL    HW114275   6.260   2.731   7.389 -0.2839  0.1873 -0.2141
 4445SOL    HW214276   6.341   2.809   7.491  0.2852 -0.1637 -0.3872
 4446SOL     OW14277   1.413   7.365   6.589 -0.5570 -0.0233  0.3054
 4446SOL    HW114278   1.439   7.457   6.600 -0.1782  0.0272 -0.8261
 4446SOL    HW214279   1.495   7.320   6.571 -0.7479 -0.5892  0.8424
 4447SOL     OW14280   3.502   3.397   1.387  0.2168 -0.7091  0.0367
 4447SOL    HW114281   3.578   3.396   1.328  0.3409  0.1632  0.1702
 4447SOL    HW214282   3.436   3.447   1.340  1.0398  1.9641  1.4504
 4448SOL     OW14283   7.168   6.586   4.860 -0.1851  0.3164 -0.4233
 4448SOL    HW114284   7.140   6.667   4.818 -0.6706  1.2010  1.4835
 4448SOL    HW214285   7.087   6.536   4.873  0.1102 -0.5124 -1.5911
 4449SOL     OW14286   1.260   1.895   2.464 -0.1154 -0.2853 -0.2379
 4449SOL    HW114287   1.228   1.934   2.545  2.4099  0.8046  0.3323
 4449SOL    HW214288   1.280   1.970   2.408  2.7591 -0.6989  0.0532
 4450SOL     OW14289   4.133   1.415   0.381 -0.7969 -0.6493  0.2856
 4450SOL    HW114290   4.102   1.434   0.293 -2.4365 -2.5409  0.3766
 4450SOL    HW214291   4.227   1.398   0.371 -1.4658 -4.1389 -1.7989
 4451SOL     OW14292   3.358   1.294   2.515 -0.4349 -0.2615 -0.0787
 4451SOL    HW114293   3.405   1.353   2.456 -0.2401 -0.6683 -0.3317
 4451SOL    HW214294   3.417   1.284   2.590 -1.0376  0.9266  0.5943
 4452SOL     OW14295   1.540   6.237   5.028  0.1236 -0.2206 -0.2722
 4452SOL    HW114296   1.484   6.278   5.094 -2.5340 -1.0914 -1.8184
 4452SOL    HW214297   1.479   6.214   4.957  2.6498 -0.3063 -2.5537
 4453SOL     OW14298   3.801   0.885   5.883  0.1630  0.3444 -0.0351
 4453SOL    HW114299   3.883   0.933   5.898 -0.5979  1.6185  0.2323
 4453SOL    HW214300   3.792   0.828   5.959  0.3490  0.8821  0.3948
 4454SOL     OW14301   3.651   3.720   1.430  0.3439 -0.0398  0.8599
 4454SOL    HW114302   3.718   3.697   1.494  0.2615 -0.1968  0.8913
 4454SOL    HW214303   3.591   3.645   1.431  0.0216  0.2128  1.0285
 4455SOL     OW14304   5.893   6.617   1.233 -0.0056 -0.1182  0.8248
 4455SOL    HW114305   5.851   6.552   1.290 -1.3134  0.0771  0.1152
 4455SOL    HW214306   5.907   6.693   1.289 -2.4437  0.5485  0.6499
 4456SOL     OW14307   3.304   4.134   4.300 -0.0034 -0.2480  0.4124
 4456SOL    HW114308   3.246   4.162   4.371  0.1340 -0.4195  0.5926
 4456SOL    HW214309   3.270   4.048   4.274 -0.8989  0.4030 -0.6599
 4457SOL     OW14310   2.644   1.222   7.386  0.2478  0.0697 -0.2722
 4457SOL    HW114311   2.685   1.191   7.305 -0.1698 -0.9609 -0.1070
 4457SOL    HW214312   2.561   1.261   7.357 -0.2637 -0.9948 -0.2852
 4458SOL     OW14313   6.036   1.658   5.189 -0.6876 -0.0418 -0.0042
 4458SOL    HW114314   6.080   1.736   5.157  0.0516 -0.9561 -1.3046
 4458SOL    HW214315   5.950   1.689   5.218  0.3758  1.5875  1.5753
 4459SOL     OW14316   5.263   6.976   5.903  0.1722 -0.6346  0.2949
 4459SOL    HW114317   5.244   6.954   5.811  0.0743 -0.7837  0.3498
 4459SOL    HW214318   5.278   6.891   5.945  0.2513 -0.5642  0.4093
 4460SOL     OW14319   5.350   3.188   7.428  0.1572 -0.1224  0.2390
 4460SOL    HW114320   5.264   3.196   7.388  0.6212  1.0929 -0.6059
 4460SOL    HW214321   5.362   3.094   7.442 -1.0252 -0.3602 -0.2358
 4461SOL     OW14322   5.410   2.960   1.620  0.0860 -0.5381  0.0425
 4461SOL    HW114323   5.389   3.040   1.572  1.7908  1.2926  2.1234
 4461SOL    HW214324   5.327   2.935   1.662 -0.2469  0.7537  0.1910
 4462SOL     OW14325   3.361   0.186   3.772 -0.5126  0.5339  0.3624
 4462SOL    HW114326   3.361   0.246   3.697 -1.1288  1.7842  1.3356
 4462SOL    HW214327   3.374   0.243   3.848 -0.0129 -0.7053  1.2325
 4463SOL     OW14328   3.457   4.383   4.833  0.0540 -0.1785  0.3678
 4463SOL    HW114329   3.465   4.457   4.893  0.3658  0.3891 -0.3563
 4463SOL    HW214330   3.461   4.305   4.890  2.6457  0.2527  0.9345
 4464SOL     OW14331   5.316   2.094   1.116 -0.1413  0.0125 -0.6781
 4464SOL    HW114332   5.302   2.000   1.124 -2.5197  0.4968  2.7229
 4464SOL    HW214333   5.249   2.124   1.054 -0.1000 -0.3415 -0.8979
 4465SOL     OW14334   2.698   2.270   4.979 -0.0085  0.0642 -0.7309
 4465SOL    HW114335   2.731   2.206   5.042 -0.5890  0.1091 -0.3734
 4465SOL    HW214336   2.663   2.341   5.033  1.3994  1.0977 -1.1257
 4466SOL     OW14337   3.951   0.166   3.291 -0.2610 -0.2635 -0.0495
 4466SOL    HW114338   4.024   0.225   3.279  1.7330 -2.7568 -1.0003
 4466SOL    HW214339   3.896   0.209   3.357  2.2398  1.5165  1.0113
 4467SOL     OW14340   0.599   0.099   3.230 -0.2139  0.1344 -0.0386
 4467SOL    HW114341   0.677   0.087   3.176  0.4122 -0.7457  1.0128
 4467SOL    HW214342   0.603   0.191   3.257 -0.4412  0.5420 -1.2941
 4468SOL     OW14343   0.326   2.904   0.221 -0.2228 -0.4381 -0.4426
 4468SOL    HW114344   0.348   2.895   0.314  0.5395 -1.8871 -0.7400
 4468SOL    HW214345   0.391   2.850   0.176 -0.9120 -0.1719 -1.7793
 4469SOL     OW14346   6.857   0.530   0.962  0.3012 -0.3100  0.0242
 4469SOL    HW114347   6.803   0.481   0.901 -0.2272 -1.1990  1.1669
 4469SOL    HW214348   6.855   0.479   1.043 -0.3655  1.6333  1.3038
 4470SOL     OW14349   0.969   5.171   2.923 -0.4784 -0.0999 -0.5515
 4470SOL    HW114350   0.924   5.243   2.880 -0.8860  0.8109  1.2882
 4470SOL    HW214351   0.900   5.108   2.944 -0.2532 -0.6359 -1.3729
 4471SOL     OW14352   4.360   3.749   5.529 -0.4224 -0.4767 -0.5079
 4471SOL    HW114353   4.366   3.807   5.453 -1.3007  0.0368 -0.2023
 4471SOL    HW214354   4.341   3.808   5.602  2.1190 -0.7408  0.4487
 4472SOL     OW14355   0.828   3.529   1.300 -0.2726  0.1514 -0.1964
 4472SOL    HW114356   0.751   3.486   1.337 -0.7516  1.1817  0.0550
 4472SOL    HW214357   0.864   3.582   1.371  0.6184 -0.2431 -0.3410
 4473SOL     OW14358   1.220   6.110   0.160  0.2616 -0.0828 -0.1103
 4473SOL    HW114359   1.286   6.041   0.161 -1.2859 -1.6215  1.0692
 4473SOL    HW214360   1.245   6.168   0.233  0.6154 -0.3232 -0.0370
 4474SOL     OW14361   5.090   5.387   3.391 -0.5138 -0.1164 -0.1295
 4474SOL    HW114362   5.151   5.413   3.460 -1.3765  0.2634  0.5190
 4474SOL    HW214363   5.089   5.292   3.395 -0.8182 -0.0937  0.6366
 4475SOL     OW14364   5.181   3.482   5.233 -0.0407 -0.6569 -0.2035
 4475SOL    HW114365   5.138   3.535   5.165  0.9007  0.7979  0.3091
 4475SOL    HW214366   5.257   3.533   5.259 -0.1619 -1.3702  1.6828
 4476SOL     OW14367   4.914   5.428   0.352 -0.0472  0.0095 -0.0617
 4476SOL    HW114368   4.842   5.437   0.415 -0.0441  1.3918 -0.2079
 4476SOL    HW214369   4.976   5.496   0.378  1.2988 -1.2490  0.1437
 4477SOL     OW14370   2.980   6.773   6.694 -0.2084  0.2418 -0.2211
 4477SOL    HW114371   2.902   6.807   6.736  0.0494  1.5945 -0.7872
 4477SOL    HW214372   2.973   6.801   6.603 -0.5790 -2.3143 -1.0603
 4478SOL     OW14373   5.220   5.456   5.294 -1.0615  0.2884  0.1979
 4478SOL    HW114374   5.249   5.407   5.372 -2.8473 -0.6236  0.3293
 4478SOL    HW214375   5.255   5.544   5.307 -0.9733  0.0458  1.8406
 4479SOL     OW14376   6.969   5.240   2.085 -0.1245  0.5579  0.0855
 4479SOL    HW114377   7.041   5.179   2.096 -1.0439 -0.3510  1.3063
 4479SOL    HW214378   6.908   5.195   2.026  0.7097  1.7322 -1.7665
 4480SOL     OW14379   2.826   0.315   3.898 -0.2684  0.5833 -0.1748
 4480SOL    HW114380   2.834   0.375   3.824 -1.3613  0.7761 -0.1643
 4480SOL    HW214381   2.751   0.348   3.948 -0.2232 -0.1708  0.4205
 4481SOL     OW14382   0.780   2.370   5.382  0.3162 -0.1647  0.4242
 4481SOL    HW114383   0.798   2.357   5.475  0.6374 -0.5140  0.3214
 4481SOL    HW214384   0.767   2.281   5.348 -0.8108  0.0287  0.3254
 4482SOL     OW14385   0.318   2.471   4.767 -0.1754  0.2199 -0.5913
 4482SOL    HW114386   0.402   2.469   4.814 -0.3074  3.0494 -0.0617
 4482SOL    HW214387   0.337   2.428   4.684  1.2675 -0.9100  0.2698
 4483SOL     OW14388   3.404   2.275   6.010 -0.1108  0.1398 -0.0715
 4483SOL    HW114389   3.488   2.236   5.985 -0.9655 -0.5912 -1.9547
 4483SOL    HW214390   3.342   2.242   5.946 -1.9009  0.5406  1.3791
 4484SOL     OW14391   7.225   4.305   6.889 -0.2502 -0.2334  0.0060
 4484SOL    HW114392   7.318   4.304   6.867  0.2365  1.1234  1.8700
 4484SOL    HW214393   7.183   4.344   6.812  0.8308  0.0878 -0.4388
 4485SOL     OW14394   6.064   5.993   3.971  0.0619  0.4305  0.8487
 4485SOL    HW114395   6.001   5.982   4.043 -0.0683 -0.4877  0.6147
 4485SOL    HW214396   6.103   6.079   3.986 -1.0751  0.9131  1.1382
 4486SOL     OW14397   2.561   2.315   2.882  0.1084 -0.3732 -0.0345
 4486SOL    HW114398   2.593   2.226   2.870 -0.0878 -0.3354 -0.9462
 4486SOL    HW214399   2.602   2.365   2.810  1.6154  0.6664  1.4656
 4487SOL     OW14400   3.062   6.898   4.963  0.0349  0.6562  0.3564
 4487SOL    HW114401   3.031   6.909   4.873  0.9392  0.1550 -0.0338
 4487SOL    HW214402   3.059   6.986   5.000 -1.3325  0.7074  0.1808
 4488SOL     OW14403   2.463   4.284   3.125 -0.1035  0.3196 -0.0527
 4488SOL    HW114404   2.542   4.279   3.070  0.6446  1.3921  0.8754
 4488SOL    HW214405   2.439   4.377   3.123 -1.4100 -0.0121 -0.3849
 4489SOL     OW14406   1.754   0.415   4.484  0.4846  0.4892 -0.3330
 4489SOL    HW114407   1.818   0.467   4.531 -0.0476  1.1531 -0.3380
 4489SOL    HW214408   1.703   0.372   4.552  0.4882  0.5062 -0.3198
 4490SOL     OW14409   7.193   6.146   5.128  0.5193 -0.9055  0.5210
 4490SOL    HW114410   7.271   6.181   5.085 -0.0341 -1.8611 -1.3676
 4490SOL    HW214411   7.159   6.219   5.179  1.1628  0.3654 -0.7873
 4491SOL     OW14412   6.263   7.346   3.123  0.1113 -0.5262 -0.1023
 4491SOL    HW114413   6.238   7.261   3.159  1.5546  0.0335  2.5014
 4491SOL    HW214414   6.357   7.352   3.140  0.1196  1.4059 -0.6525
 4492SOL     OW14415   3.851   7.099   5.045  0.3029  0.2321 -0.8985
 4492SOL    HW114416   3.937   7.125   5.011  1.5369 -1.6419  0.5552
 4492SOL    HW214417   3.863   7.099   5.140 -1.7220  1.1309 -0.6007
 4493SOL     OW14418   2.462   5.595   0.741 -0.6283 -0.2410 -0.8784
 4493SOL    HW114419   2.548   5.632   0.723 -0.8900  0.5736 -0.4681
 4493SOL    HW214420   2.432   5.641   0.820 -1.2055 -0.9103 -0.6988
 4494SOL     OW14421   1.379   3.347   5.245  0.3979 -0.3053  0.0824
 4494SOL    HW114422   1.352   3.438   5.252  2.5967  0.4035  0.2152
 4494SOL    HW214423   1.329   3.312   5.172 -1.1677  0.7148  0.6202
 4495SOL     OW14424   2.290   0.090   4.201 -0.4013  0.0069 -0.2429
 4495SOL    HW114425   2.274   0.104   4.108  0.4331  0.9086 -0.2650
 4495SOL    HW214426   2.385   0.090   4.210 -0.3912 -2.3166  0.2996
 4496SOL     OW14427   5.246   1.796   2.808  0.7412  0.1178  0.1431
 4496SOL    HW114428   5.171   1.744   2.781 -0.5438  1.3737  1.0960
 4496SOL    HW214429   5.276   1.839   2.728  0.1226 -0.0158 -0.1675
 4497SOL     OW14430   3.137   3.050   0.416  0.4861 -0.2757 -0.1591
 4497SOL    HW114431   3.092   3.091   0.342  0.2155  0.5507  0.4449
 4497SOL    HW214432   3.157   2.962   0.386  0.7963  0.1907 -1.3905
 4498SOL     OW14433   7.004   6.009   4.941  0.4033  0.0801 -0.1395
 4498SOL    HW114434   6.940   6.080   4.935 -0.1342 -0.4134 -0.3767
 4498SOL    HW214435   7.073   6.043   4.998  0.1266  0.7699 -0.2123
 4499SOL     OW14436   3.015   1.725   7.232  0.8066  0.1680  0.3354
 4499SOL    HW114437   3.059   1.704   7.150  0.6585 -1.7116  0.6802
 4499SOL    HW214438   2.958   1.799   7.211  0.6671 -0.3750 -1.2952
 4500SOL     OW14439   4.488   4.562   2.206 -0.4172  0.2201  0.8530
 4500SOL    HW114440   4.420   4.499   2.230 -1.8194  1.3206 -0.0456
 4500SOL    HW214441   4.546   4.513   2.148 -0.9624 -0.4989  0.8907
 4501SOL     OW14442   1.312   1.432   6.197 -0.2802  0.3792  0.1815
 4501SOL    HW114443   1.337   1.339   6.204 -0.7947  0.2047 -0.2158
 4501SOL    HW214444   1.267   1.438   6.112  1.6274  1.4431 -0.8156
 4502SOL     OW14445   7.351   0.617   3.305  0.1764 -0.1130  0.4854
 4502SOL    HW114446   7.366   0.582   3.393  1.2362  0.1642  0.4252
 4502SOL    HW214447   7.352   0.540   3.248 -0.5981 -0.3041  0.7077
 4503SOL     OW14448   4.895   2.161   1.908 -0.0392  0.2042 -0.3691
 4503SOL    HW114449   4.886   2.130   1.817 -0.3603  1.2771 -0.7222
 4503SOL    HW214450   4.989   2.175   1.919  0.0129 -0.0288 -0.5059
 4504SOL     OW14451   7.001   6.931   3.673 -0.3780 -0.4008 -0.5470
 4504SOL    HW114452   7.011   6.874   3.597  0.7631  0.0457 -0.7466
 4504SOL    HW214453   7.078   6.913   3.727  1.2577  2.4952 -1.6868
 4505SOL     OW14454   6.159   3.767   6.698  0.4733  0.4155 -0.1359
 4505SOL    HW114455   6.192   3.827   6.764  1.7515  1.0108 -1.2793
 4505SOL    HW214456   6.110   3.823   6.637  0.8019  0.1523 -0.6478
 4506SOL     OW14457   1.243   5.625   7.156 -0.2021  0.5040  0.0771
 4506SOL    HW114458   1.187   5.702   7.143  0.2135  0.6751 -0.7223
 4506SOL    HW214459   1.315   5.656   7.211 -0.4199  0.5004  0.3677
 4507SOL     OW14460   5.440   5.515   7.326 -0.0956  0.1921 -0.0234
 4507SOL    HW114461   5.504   5.557   7.384  0.5250 -0.6661 -0.0747
 4507SOL    HW214462   5.483   5.435   7.297 -0.4738  0.5190 -1.5432
 4508SOL     OW14463   0.379   2.381   0.669 -0.1489  1.2021 -0.2886
 4508SOL    HW114464   0.426   2.371   0.752  0.1567  1.9951 -0.3525
 4508SOL    HW214465   0.449   2.386   0.604 -0.3867  0.6859 -0.5841
 4509SOL     OW14466   3.943   0.980   3.673 -0.4449 -0.4714  0.4777
 4509SOL    HW114467   3.860   0.960   3.716 -1.7077  0.0181 -1.6014
 4509SOL    HW214468   3.918   1.015   3.587  1.9246 -0.8036 -0.4209
 4510SOL     OW14469   5.398   5.373   4.471  0.0858  0.1289 -0.7516
 4510SOL    HW114470   5.421   5.287   4.507 -0.0799  0.5441  0.3730
 4510SOL    HW214471   5.309   5.362   4.440 -0.5330  0.3093  0.8609
 4511SOL     OW14472   1.530   0.834   4.752 -0.0072  0.2419  0.5316
 4511SOL    HW114473   1.577   0.895   4.809  2.2850 -0.5371 -0.4049
 4511SOL    HW214474   1.581   0.833   4.671 -1.5390 -0.8723 -0.4740
 4512SOL     OW14475   5.772   2.369   5.760 -0.7013 -0.5622  0.2040
 4512SOL    HW114476   5.763   2.274   5.771  0.5488 -0.7093  0.0912
 4512SOL    HW214477   5.772   2.404   5.849  1.3920 -0.9481  0.4021
 4513SOL     OW14478   5.155   4.149   4.269 -0.5271  0.3813 -0.0310
 4513SOL    HW114479   5.228   4.194   4.312 -1.8261  0.8849  1.7496
 4513SOL    HW214480   5.082   4.210   4.275 -1.9634 -1.3423  1.1877
 4514SOL     OW14481   7.214   4.771   6.482 -0.5441  0.1548 -0.1217
 4514SOL    HW114482   7.246   4.854   6.449  0.7427  0.2513  1.2765
 4514SOL    HW214483   7.266   4.754   6.560 -1.6944 -1.3136  0.3815
 4515SOL     OW14484   3.482   5.891   6.899 -0.2063 -0.1931  0.1298
 4515SOL    HW114485   3.543   5.951   6.857 -0.3705  1.8049  2.5064
 4515SOL    HW214486   3.398   5.908   6.856  0.3864 -1.3065 -1.5732
 4516SOL     OW14487   1.127   3.358   0.446 -0.3770 -0.3740 -0.8306
 4516SOL    HW114488   1.203   3.406   0.416 -0.1249 -0.4031 -0.2369
 4516SOL    HW214489   1.153   3.319   0.529 -0.3524 -2.0490 -1.5646
 4517SOL     OW14490   0.823   7.345   2.187 -0.1290  0.2363 -0.0223
 4517SOL    HW114491   0.798   7.305   2.270 -0.2948 -0.3849 -0.3597
 4517SOL    HW214492   0.778   7.429   2.185  0.3812  0.5406  0.7937
 4518SOL     OW14493   4.513   4.211   6.348 -0.1624 -0.2309 -0.2588
 4518SOL    HW114494   4.583   4.276   6.355  1.8064 -2.3231  0.5734
 4518SOL    HW214495   4.503   4.196   6.254 -1.1996  1.7635 -0.5133
 4519SOL     OW14496   0.740   6.290   1.670 -0.1654  0.4320  0.7227
 4519SOL    HW114497   0.671   6.262   1.611  1.5954 -2.1923 -0.2828
 4519SOL    HW214498   0.729   6.236   1.748  2.2983 -2.3303 -0.5992
 4520SOL     OW14499   0.244   4.334   2.775 -0.0482 -0.0215  0.0638
 4520SOL    HW114500   0.303   4.363   2.706 -0.9869 -0.5359 -0.9808
 4520SOL    HW214501   0.235   4.410   2.832  0.5745  0.4849 -0.4976
 4521SOL     OW14502   4.942   0.372   1.287  0.0196 -0.5420 -0.0757
 4521SOL    HW114503   4.851   0.396   1.268 -0.2066 -1.1817  0.1723
 4521SOL    HW214504   4.994   0.432   1.235 -0.5449  0.0007 -0.0246
 4522SOL     OW14505   7.169   0.106   3.830 -0.2500  0.0783 -0.2430
 4522SOL    HW114506   7.159   0.194   3.864  0.1756  0.5643 -1.3069
 4522SOL    HW214507   7.210   0.056   3.901  0.5721  1.0337 -0.0176
 4523SOL     OW14508   5.137   6.405   2.739 -0.4078  0.1495 -0.2054
 4523SOL    HW114509   5.191   6.326   2.739 -0.2169  0.2135  1.8725
 4523SOL    HW214510   5.192   6.471   2.697  0.0934 -0.4263 -0.4683
 4524SOL     OW14511   3.041   7.198   4.137 -0.7381 -0.2949  0.1897
 4524SOL    HW114512   3.032   7.123   4.194  0.3511 -1.4964 -1.1292
 4524SOL    HW214513   2.953   7.214   4.103 -0.9894 -0.9283  0.5377
 4525SOL     OW14514   3.969   5.112   6.741 -0.2066  0.2516  0.4617
 4525SOL    HW114515   3.890   5.155   6.772 -0.9620 -0.1622 -0.8047
 4525SOL    HW214516   3.977   5.034   6.796 -1.2829 -0.2481 -0.0596
 4526SOL     OW14517   1.122   4.607   1.540  0.7089  0.2939  0.1515
 4526SOL    HW114518   1.056   4.675   1.526 -1.1173 -1.3276  0.6636
 4526SOL    HW214519   1.177   4.612   1.461 -2.2468 -0.7563 -2.1444
 4527SOL     OW14520   2.382   7.006   5.261 -0.5071  0.9635  0.0379
 4527SOL    HW114521   2.451   6.997   5.195 -0.2219  1.0997  0.3195
 4527SOL    HW214522   2.386   6.924   5.311 -0.0050  1.3143  0.5780
 4528SOL     OW14523   6.390   4.173   1.253  0.8459 -0.2690 -0.7393
 4528SOL    HW114524   6.326   4.167   1.182  0.3353  0.1122 -0.3260
 4528SOL    HW214525   6.475   4.174   1.209  0.5051  0.9789 -1.4231
 4529SOL     OW14526   4.314   7.141   0.107 -0.0322  0.2262 -0.4220
 4529SOL    HW114527   4.376   7.194   0.057  0.7728  0.3340  0.6397
 4529SOL    HW214528   4.367   7.070   0.143 -0.7932 -0.4198 -0.5578
 4530SOL     OW14529   5.520   5.959   1.314  0.3129  0.2802 -1.2535
 4530SOL    HW114530   5.554   6.038   1.358 -0.4143  1.1415 -2.1998
 4530SOL    HW214531   5.596   5.923   1.268  0.6965  0.3058 -0.6554
 4531SOL     OW14532   2.559   2.668   3.982  0.3910  0.2293 -0.5633
 4531SOL    HW114533   2.509   2.633   3.908 -1.2936 -0.0416  0.6352
 4531SOL    HW214534   2.593   2.590   4.026  0.7985  0.3504 -0.6673
 4532SOL     OW14535   5.767   6.484   3.057 -0.5138  0.2319  0.2626
 4532SOL    HW114536   5.731   6.423   3.122  1.4240 -0.7845  0.4693
 4532SOL    HW214537   5.822   6.429   3.001  2.1448  1.8622  1.0780
 4533SOL     OW14538   6.839   1.889   2.692  0.3131  0.3261  0.5209
 4533SOL    HW114539   6.814   1.804   2.729 -2.2939  0.0836 -1.5689
 4533SOL    HW214540   6.914   1.870   2.636 -1.0905 -0.9251 -1.0093
 4534SOL     OW14541   5.474   0.916   2.474  0.0717 -0.1823 -0.2847
 4534SOL    HW114542   5.468   0.886   2.384  1.8934  0.6781 -0.7376
 4534SOL    HW214543   5.564   0.894   2.501  0.1472  1.1717  0.7058
 4535SOL     OW14544   4.343   2.481   6.136  0.0809  0.1244 -0.1816
 4535SOL    HW114545   4.406   2.550   6.161  1.0847 -0.6345 -0.5574
 4535SOL    HW214546   4.258   2.523   6.144  0.6201  1.1337  0.5190
 4536SOL     OW14547   3.294   0.908   4.525 -0.2791 -0.4027 -0.6580
 4536SOL    HW114548   3.224   0.942   4.581  0.2172  0.6329 -0.6538
 4536SOL    HW214549   3.276   0.944   4.439  0.4952  0.2685 -0.5569
 4537SOL     OW14550   0.331   4.994   5.142  0.4181 -0.4605  0.0398
 4537SOL    HW114551   0.243   5.032   5.135  0.3166 -0.6741  0.1340
 4537SOL    HW214552   0.377   5.025   5.064  0.8848  1.2540  0.9243
 4538SOL     OW14553   2.155   2.498   3.818 -0.3273  1.0062  0.6214
 4538SOL    HW114554   2.245   2.464   3.823 -0.1493  1.4922  0.7897
 4538SOL    HW214555   2.101   2.431   3.858 -0.4064 -0.5998 -1.9169
 4539SOL     OW14556   4.865   2.211   0.603  0.3807 -0.1512  0.3367
 4539SOL    HW114557   4.839   2.300   0.578  3.1720  1.0547  1.2861
 4539SOL    HW214558   4.928   2.224   0.675 -1.5241 -3.0750  2.7713
 4540SOL     OW14559   4.719   6.399   5.011  0.0640  0.4715 -0.2935
 4540SOL    HW114560   4.716   6.321   4.956  0.8045  1.6074 -2.0258
 4540SOL    HW214561   4.628   6.429   5.014  0.0357  0.4940 -1.0900
 4541SOL     OW14562   3.211   3.718   5.230  0.2423  0.1901  0.1901
 4541SOL    HW114563   3.271   3.708   5.157 -1.3675 -0.6948 -1.0775
 4541SOL    HW214564   3.169   3.803   5.215 -0.5820 -0.2925 -0.3404
 4542SOL     OW14565   2.423   4.156   4.883 -0.1530 -0.2021  1.3297
 4542SOL    HW114566   2.370   4.176   4.961 -0.8907  0.6669  0.6170
 4542SOL    HW214567   2.491   4.223   4.883 -2.0701  1.8968 -0.5335
 4543SOL     OW14568   3.212   5.222   7.243 -0.3218  0.1142 -0.1018
 4543SOL    HW114569   3.167   5.224   7.158 -1.4994 -1.0198  0.4544
 4543SOL    HW214570   3.158   5.276   7.300  0.9911  1.6735 -0.2779
 4544SOL     OW14571   0.297   2.903   6.206 -0.2047  0.3070 -0.1727
 4544SOL    HW114572   0.225   2.840   6.202 -2.3512  2.5950  0.2478
 4544SOL    HW214573   0.331   2.906   6.116  0.8069 -2.2585  0.0389
 4545SOL     OW14574   5.913   3.945   6.299  0.1656  0.3092  0.4602
 4545SOL    HW114575   5.830   3.901   6.317 -0.1309  1.6365  2.6930
 4545SOL    HW214576   5.892   4.006   6.229 -0.6646  0.4031  0.7757
 4546SOL     OW14577   0.537   4.581   4.040  0.3026  0.7743 -0.3789
 4546SOL    HW114578   0.604   4.650   4.035  0.7945  0.3260 -0.0655
 4546SOL    HW214579   0.525   4.553   3.950  0.2412  1.1360 -0.4852
 4547SOL     OW14580   1.043   5.867   4.850 -0.2338  0.4250  0.0332
 4547SOL    HW114581   1.038   5.777   4.883  0.7897  0.2259 -0.3230
 4547SOL    HW214582   0.993   5.865   4.768  0.5453 -0.0529 -0.4427
 4548SOL     OW14583   3.679   6.814   2.231  0.4880 -0.1150 -0.3468
 4548SOL    HW114584   3.645   6.747   2.172 -0.0096  0.7793 -1.0793
 4548SOL    HW214585   3.693   6.891   2.176  0.1047  0.7059  0.6738
 4549SOL     OW14586   3.882   0.119   6.122  0.4100  0.2546 -0.0878
 4549SOL    HW114587   3.843   0.121   6.035  2.7139  1.0033 -1.1617
 4549SOL    HW214588   3.901   0.210   6.142 -0.3080  0.1215  1.3372
 4550SOL     OW14589   2.138   7.242   6.119 -0.5502 -0.4560  0.3069
 4550SOL    HW114590   2.089   7.324   6.127  1.2756  0.6004  1.3319
 4550SOL    HW214591   2.099   7.184   6.183 -1.2930 -0.1021  0.1889
 4551SOL     OW14592   5.971   4.058   3.172  0.2629 -0.0976 -0.1624
 4551SOL    HW114593   5.995   4.145   3.138 -0.8891  1.4053  2.5776
 4551SOL    HW214594   5.884   4.042   3.136 -0.5411  1.0432  1.1621
 4552SOL     OW14595   6.201   5.412   0.844  0.0679 -0.4957  0.2121
 4552SOL    HW114596   6.164   5.342   0.791  2.8095 -1.4628 -0.6158
 4552SOL    HW214597   6.253   5.464   0.782  0.5918  0.3791  1.3536
 4553SOL     OW14598   1.249   6.073   0.583 -0.6114  0.0871  0.2560
 4553SOL    HW114599   1.157   6.079   0.557 -0.5500 -0.3240 -0.0580
 4553SOL    HW214600   1.285   6.160   0.562 -0.8079  0.0882 -0.0810
 4554SOL     OW14601   2.934   3.231   1.987 -0.3742 -0.5284 -0.1473
 4554SOL    HW114602   2.968   3.149   1.952 -0.1366  0.1251 -1.5332
 4554SOL    HW214603   2.965   3.234   2.077  2.6939 -0.3048 -1.1040
 4555SOL     OW14604   4.712   6.541   1.009 -0.5787 -0.3802 -0.1151
 4555SOL    HW114605   4.661   6.613   0.974 -0.4546  0.2920  1.0440
 4555SOL    HW214606   4.659   6.505   1.080  0.1390 -0.2648  0.5001
 4556SOL     OW14607   6.346   2.322   3.576 -0.5078 -0.1004 -0.3260
 4556SOL    HW114608   6.392   2.405   3.572 -0.7782  0.0327 -0.7821
 4556SOL    HW214609   6.348   2.289   3.486 -0.3716 -0.5992 -0.1402
 4557SOL     OW14610   4.712   6.982   5.971 -0.0693  0.0446 -0.6822
 4557SOL    HW114611   4.763   6.942   6.041 -1.0689  0.4772  0.3235
 4557SOL    HW214612   4.773   7.040   5.927  0.3448  0.5069  0.4630
 4558SOL     OW14613   6.562   1.137   5.197 -0.4071  0.3799  0.3460
 4558SOL    HW114614   6.578   1.046   5.221  0.8537  0.0456 -1.5010
 4558SOL    HW214615   6.647   1.179   5.205 -0.7589  1.1463  0.1605
 4559SOL     OW14616   4.973   0.250   1.793  0.0393 -0.1749  0.1736
 4559SOL    HW114617   4.991   0.257   1.699  0.6039 -1.9354  0.1100
 4559SOL    HW214618   4.902   0.186   1.799 -0.4136  0.3805  0.9338
 4560SOL     OW14619   1.165   0.782   1.070 -0.2312 -0.4167 -0.1329
 4560SOL    HW114620   1.156   0.869   1.030  0.2683 -0.1127  0.3859
 4560SOL    HW214621   1.185   0.801   1.162 -0.3151 -1.0899  0.0280
 4561SOL     OW14622   5.361   3.163   1.169  0.3745 -0.4535 -0.2778
 4561SOL    HW114623   5.330   3.103   1.101  1.3800  0.2939 -1.4274
 4561SOL    HW214624   5.348   3.250   1.132 -0.4898  0.0487  1.1200
 4562SOL     OW14625   4.022   2.063   5.520  0.1126  0.5695 -0.0168
 4562SOL    HW114626   4.113   2.039   5.538  0.7646  1.7120 -1.5725
 4562SOL    HW214627   3.978   2.057   5.606  1.7416  0.4662  0.8470
 4563SOL     OW14628   0.383   1.599   3.704 -0.1131 -0.9042 -0.0781
 4563SOL    HW114629   0.309   1.556   3.661 -0.3304 -2.2509  1.5457
 4563SOL    HW214630   0.369   1.585   3.797  0.7220  1.3077  0.4333
 4564SOL     OW14631   1.163   0.509   5.213  0.3516  0.8497  0.0040
 4564SOL    HW114632   1.118   0.552   5.141  0.5309  1.4114  0.2280
 4564SOL    HW214633   1.186   0.423   5.178 -0.2834  0.8083 -0.3362
 4565SOL     OW14634   0.527   6.737   5.080 -0.1628 -0.0198  0.1322
 4565SOL    HW114635   0.572   6.670   5.029 -0.2780 -0.2151  0.2844
 4565SOL    HW214636   0.540   6.711   5.171  1.3065  1.1342  0.2869
 4566SOL     OW14637   4.057   5.039   2.256 -0.2469  0.0962 -0.0877
 4566SOL    HW114638   3.985   5.089   2.295  0.0104  0.9952 -0.7202
 4566SOL    HW214639   4.059   5.068   2.165  0.5574 -0.3373 -0.2180
 4567SOL     OW14640   4.796   5.767   1.832  0.2766  0.2833  0.2347
 4567SOL    HW114641   4.885   5.737   1.811 -0.1868 -1.0956  0.1016
 4567SOL    HW214642   4.795   5.859   1.809  1.2648 -0.0192 -1.1372
 4568SOL     OW14643   1.896   6.789   2.026  0.0924 -0.1962  0.4729
 4568SOL    HW114644   1.833   6.849   1.986  1.0222  1.1466  0.9216
 4568SOL    HW214645   1.977   6.805   1.977  0.2585 -1.4069  0.3370
 4569SOL     OW14646   2.449   0.718   7.243  0.2697  0.2239 -0.6254
 4569SOL    HW114647   2.427   0.798   7.291  0.4552  0.3854 -0.8077
 4569SOL    HW214648   2.378   0.658   7.265  0.3057  0.3245 -0.2224
 4570SOL     OW14649   0.909   6.436   4.258 -0.6463  0.2612 -0.0438
 4570SOL    HW114650   0.841   6.502   4.242 -0.5625  0.1770 -0.7868
 4570SOL    HW214651   0.863   6.352   4.252 -0.1072  0.0925 -2.8023
 4571SOL     OW14652   3.101   2.603   4.152  0.1437 -0.1559  0.2986
 4571SOL    HW114653   3.059   2.620   4.068  0.7593  1.0039  0.2025
 4571SOL    HW214654   3.029   2.607   4.216 -0.1261  0.3184 -0.0284
 4572SOL     OW14655   4.860   4.229   6.899  0.6183 -0.0549 -0.1847
 4572SOL    HW114656   4.880   4.136   6.894 -1.6542 -0.8173  2.6202
 4572SOL    HW214657   4.946   4.272   6.889  2.0429 -2.5177  0.6282
 4573SOL     OW14658   3.837   1.269   6.358 -0.5615 -0.2507 -0.2932
 4573SOL    HW114659   3.787   1.190   6.379 -2.5299  0.8413 -0.5430
 4573SOL    HW214660   3.904   1.274   6.426 -0.4163 -2.0965 -0.2546
 4574SOL     OW14661   6.568   6.654   2.278 -0.0897  0.0152 -0.1491
 4574SOL    HW114662   6.496   6.620   2.332  1.3118 -1.2347  1.0450
 4574SOL    HW214663   6.592   6.580   2.222  0.9715  0.0408  0.2544
 4575SOL     OW14664   4.671   4.713   7.022  0.0371 -0.3708 -0.8007
 4575SOL    HW114665   4.649   4.638   6.967  0.0811 -0.2167 -1.0295
 4575SOL    HW214666   4.679   4.676   7.110 -0.3369 -0.5656 -0.8466
 4576SOL     OW14667   3.646   6.206   1.626  0.2303  0.3609 -0.0911
 4576SOL    HW114668   3.602   6.123   1.643 -0.8239  0.4282 -2.1565
 4576SOL    HW214669   3.738   6.184   1.619  0.4899  0.0104  3.0294
 4577SOL     OW14670   3.519   2.751   5.740  0.2512  0.3853  0.3313
 4577SOL    HW114671   3.446   2.690   5.744  2.2572 -2.1464  2.2014
 4577SOL    HW214672   3.590   2.701   5.699  1.8276  1.6490  1.3777
 4578SOL     OW14673   5.288   6.481   4.837  0.0993  0.5372  0.5936
 4578SOL    HW114674   5.326   6.557   4.794 -0.2824 -0.7440 -2.2385
 4578SOL    HW214675   5.321   6.406   4.787 -2.0783 -0.9457  1.2331
 4579SOL     OW14676   0.520   6.497   0.509  0.0902  0.0233  0.4268
 4579SOL    HW114677   0.615   6.493   0.502  0.0717  0.8298 -0.5129
 4579SOL    HW214678   0.504   6.535   0.596  0.6406  0.4676  0.3400
 4580SOL     OW14679   1.075   6.105   6.485 -0.8929  0.3503  0.1110
 4580SOL    HW114680   1.161   6.089   6.446 -0.5553  0.6106  0.7434
 4580SOL    HW214681   1.015   6.104   6.410 -0.5874 -1.5343 -0.1738
 4581SOL     OW14682   0.858   5.766   1.940 -0.1811  0.2375 -0.3670
 4581SOL    HW114683   0.854   5.818   2.020 -0.6932  0.3254 -0.4429
 4581SOL    HW214684   0.881   5.678   1.970  0.7319  0.5060 -0.2444
 4582SOL     OW14685   2.001   5.524   0.998  1.1393 -0.2587  0.6924
 4582SOL    HW114686   1.961   5.483   1.074 -0.8408  2.3919  1.2100
 4582SOL    HW214687   1.945   5.497   0.924 -0.0805  1.2915  1.0119
 4583SOL     OW14688   6.271   6.340   2.491  0.2110 -0.2644  0.2921
 4583SOL    HW114689   6.180   6.346   2.461 -0.7383 -0.4542  2.9062
 4583SOL    HW214690   6.308   6.426   2.472 -1.3957  0.7966  1.6784
 4584SOL     OW14691   7.113   1.800   6.294  0.2488 -0.5423 -0.4118
 4584SOL    HW114692   7.125   1.709   6.267  0.9356 -0.6398  0.1746
 4584SOL    HW214693   7.197   1.824   6.334 -0.9806 -0.7639  2.5619
 4585SOL     OW14694   4.249   1.991   2.116  0.0835 -0.2775 -0.3724
 4585SOL    HW114695   4.248   2.072   2.064 -2.0286 -0.7847 -1.2386
 4585SOL    HW214696   4.192   2.010   2.190  3.0470  0.4291  1.9134
 4586SOL     OW14697   6.562   0.133   0.501 -0.0578  0.2039 -0.5637
 4586SOL    HW114698   6.609   0.075   0.441  0.8328 -0.9217  1.1481
 4586SOL    HW214699   6.472   0.133   0.468  0.8150  1.5569 -3.2723
 4587SOL     OW14700   4.897   4.001   6.563 -0.5177  0.1299  0.0819
 4587SOL    HW114701   4.920   3.913   6.533  0.1571  0.1486  0.5267
 4587SOL    HW214702   4.801   4.004   6.555 -0.6740 -1.0492  1.1375
 4588SOL     OW14703   2.463   4.189   1.208 -0.8248  0.7289  0.0316
 4588SOL    HW114704   2.425   4.102   1.214 -0.4353  0.4747 -1.0540
 4588SOL    HW214705   2.416   4.232   1.137 -0.0296  0.8873 -0.4165
 4589SOL     OW14706   2.074   2.079   3.065 -0.5892  0.6118  0.6007
 4589SOL    HW114707   2.065   2.052   3.156 -0.5840  1.1748  0.7708
 4589SOL    HW214708   2.078   1.997   3.016 -1.9395  0.3003  0.9642
 4590SOL     OW14709   0.388   2.773   4.440 -0.7777  0.5943  0.3475
 4590SOL    HW114710   0.480   2.748   4.450 -0.8299  0.2923  0.0881
 4590SOL    HW214711   0.379   2.853   4.491 -0.1413  1.1553 -0.3821
 4591SOL     OW14712   1.444   1.288   5.459 -0.3266  0.2990  0.1648
 4591SOL    HW114713   1.536   1.301   5.435  0.2216 -0.6367  1.6337
 4591SOL    HW214714   1.425   1.360   5.521 -0.4026  0.1528  0.3134
 4592SOL     OW14715   4.134   4.129   1.219 -0.1252  0.9195 -0.1338
 4592SOL    HW114716   4.115   4.223   1.225  0.1498  0.9346  0.7071
 4592SOL    HW214717   4.189   4.120   1.142  0.5236  1.5764  0.2422
 4593SOL     OW14718   2.842   2.873   6.177 -0.2048 -0.5434 -0.3731
 4593SOL    HW114719   2.875   2.783   6.167  2.1039  0.1431  0.4602
 4593SOL    HW214720   2.920   2.927   6.183 -1.5420  1.6004 -1.1218
 4594SOL     OW14721   7.088   4.049   1.537  0.0341  0.8320  0.0606
 4594SOL    HW114722   7.110   4.111   1.607  0.3367 -0.6245  1.3192
 4594SOL    HW214723   7.091   3.963   1.580  0.9326 -0.1778 -1.9082
 4595SOL     OW14724   1.824   5.249   2.653 -0.1680  0.2072  0.2197
 4595SOL    HW114725   1.792   5.159   2.656  0.0928  0.1469  1.4425
 4595SOL    HW214726   1.843   5.272   2.744  1.9514  0.7144 -0.2832
 4596SOL     OW14727   1.066   6.400   0.099 -0.6064  0.0202  0.5624
 4596SOL    HW114728   1.072   6.459   0.175 -0.5897  1.2651 -0.3750
 4596SOL    HW214729   1.114   6.322   0.126  1.4384  1.3478  1.0227
 4597SOL     OW14730   3.407   5.091   2.203  0.0562 -0.2922  0.5774
 4597SOL    HW114731   3.455   5.021   2.248  1.3480  0.1834 -0.0021
 4597SOL    HW214732   3.453   5.101   2.119 -0.7513  0.5455  0.2259
 4598SOL     OW14733   1.600   3.087   7.306  0.4367  0.5384 -0.3109
 4598SOL    HW114734   1.627   3.173   7.340 -0.1613  0.7162 -0.2580
 4598SOL    HW214735   1.559   3.044   7.382 -0.3789  0.7049 -0.6408
 4599SOL     OW14736   4.853   2.711   4.919  0.6225  0.0310  0.5645
 4599SOL    HW114737   4.767   2.718   4.960  0.9124 -0.0308  1.1808
 4599SOL    HW214738   4.834   2.678   4.831 -0.0904  1.2036  0.2641
 4600SOL     OW14739   6.002   4.978   3.041 -0.0406 -0.4977  0.1666
 4600SOL    HW114740   6.020   4.895   2.997 -0.4650 -1.4123  1.6580
 4600SOL    HW214741   6.085   5.026   3.037  0.3108 -1.1267 -0.3832
 4601SOL     OW14742   1.085   1.471   3.374  0.7056  0.1167 -0.3583
 4601SOL    HW114743   1.165   1.499   3.330  0.2309  0.0357 -1.2949
 4601SOL    HW214744   1.115   1.438   3.459  1.4534  1.9296  0.1349
 4602SOL     OW14745   4.618   1.857   3.111 -0.3039 -0.0071  0.1180
 4602SOL    HW114746   4.582   1.893   3.192  0.7890 -0.4227  0.8168
 4602SOL    HW214747   4.647   1.769   3.135 -0.4428 -0.3229 -0.8617
 4603SOL     OW14748   4.113   2.323   6.581  0.0018 -0.0901 -0.0106
 4603SOL    HW114749   4.026   2.355   6.558 -1.2718 -1.0927  2.9434
 4603SOL    HW214750   4.156   2.398   6.622  0.4361  0.3118 -1.1743
 4604SOL     OW14751   4.477   3.080   1.045  0.5449  0.0992  0.1224
 4604SOL    HW114752   4.566   3.114   1.059  0.9159 -0.1473 -1.3946
 4604SOL    HW214753   4.482   3.038   0.959 -1.2289  0.7020 -0.2981
 4605SOL     OW14754   2.606   0.396   1.036  0.6172 -0.1692 -0.0825
 4605SOL    HW114755   2.545   0.349   0.980  1.7151 -1.5658 -0.1573
 4605SOL    HW214756   2.570   0.485   1.041 -0.1656 -0.3299 -1.9747
 4606SOL     OW14757   6.976   5.397   0.949 -0.2628  0.0059  0.1974
 4606SOL    HW114758   7.050   5.447   0.984  0.3994 -1.4778  0.9792
 4606SOL    HW214759   7.010   5.308   0.937 -2.0167 -0.7982  0.9100
 4607SOL     OW14760   3.704   3.364   6.211  0.2800 -0.2976  0.1607
 4607SOL    HW114761   3.734   3.315   6.288  1.0979  0.4263  0.3244
 4607SOL    HW214762   3.768   3.344   6.143  1.6005  1.7655  0.6953
 4608SOL     OW14763   3.985   2.693   7.295 -0.5296  0.0283  0.0557
 4608SOL    HW114764   3.895   2.691   7.263 -0.5418 -0.7667  0.1232
 4608SOL    HW214765   4.037   2.712   7.217 -0.6826 -0.4557 -0.1744
 4609SOL     OW14766   4.173   1.345   4.210 -0.0155 -0.2328  0.4826
 4609SOL    HW114767   4.199   1.380   4.124 -1.8518 -2.3146 -1.0454
 4609SOL    HW214768   4.188   1.418   4.271  1.0888  1.4282 -1.6186
 4610SOL     OW14769   6.590   6.653   6.061  0.5336  0.0275  0.2248
 4610SOL    HW114770   6.578   6.609   5.978  0.9049 -0.9461  0.6754
 4610SOL    HW214771   6.517   6.623   6.115  1.6820 -1.3613  1.0682
 4611SOL     OW14772   2.897   4.194   1.537  0.8604  0.4466  0.4907
 4611SOL    HW114773   2.941   4.113   1.560  1.3059  0.6461  0.3409
 4611SOL    HW214774   2.813   4.166   1.499 -0.0159  0.1068  2.5247
 4612SOL     OW14775   0.326   2.581   3.489  0.5021 -0.9186  0.8592
 4612SOL    HW114776   0.358   2.502   3.445  1.8324  0.0288  0.0713
 4612SOL    HW214777   0.385   2.592   3.564 -0.1762 -1.1010  1.4315
 4613SOL     OW14778   6.539   5.002   0.126 -0.3900 -0.6640 -0.0578
 4613SOL    HW114779   6.571   5.091   0.141  1.0331 -1.2641  0.7675
 4613SOL    HW214780   6.557   4.985   0.033  0.4067 -0.4822  0.0572
 4614SOL     OW14781   4.372   0.852   3.304  0.4532 -0.2162  0.6924
 4614SOL    HW114782   4.353   0.843   3.397  1.1790 -0.4151  0.8273
 4614SOL    HW214783   4.462   0.821   3.295  0.2271 -0.6668 -0.1534
 4615SOL     OW14784   6.337   6.960   1.786 -0.2944  0.1121  0.5523
 4615SOL    HW114785   6.326   6.882   1.840 -0.4394  0.6888  1.3746
 4615SOL    HW214786   6.258   6.963   1.732 -0.3506 -0.2309  0.6099
 4616SOL     OW14787   3.978   3.435   6.388  0.0046  0.0323 -0.0711
 4616SOL    HW114788   3.925   3.498   6.438  1.5526 -1.1137  3.3327
 4616SOL    HW214789   4.056   3.484   6.362  0.2901  0.0767  0.8214
 4617SOL     OW14790   3.493   4.821   1.232 -0.3150 -0.0000 -0.3609
 4617SOL    HW114791   3.435   4.894   1.255 -0.7945 -1.0651  2.1044
 4617SOL    HW214792   3.577   4.845   1.271  0.0145  0.0141 -1.0664
 4618SOL     OW14793   1.035   5.485   3.447 -0.8316 -0.0613  0.6579
 4618SOL    HW114794   1.106   5.510   3.506 -0.3941  0.5884 -0.1228
 4618SOL    HW214795   0.989   5.415   3.493  0.8824 -1.1551  0.7935
 4619SOL     OW14796   4.882   6.902   3.433  0.1976  0.1879 -0.3050
 4619SOL    HW114797   4.813   6.838   3.418  0.1419 -0.0850  1.0155
 4619SOL    HW214798   4.849   6.957   3.505 -0.0088  2.0747 -1.7605
 4620SOL     OW14799   0.208   6.676   4.487  0.6762 -0.0171 -0.4252
 4620SOL    HW114800   0.244   6.731   4.556  0.9144  0.4258 -0.8966
 4620SOL    HW214801   0.273   6.607   4.473  1.1932  0.5821 -1.0350
 4621SOL     OW14802   4.249   2.337   5.858  0.0726 -0.1373 -0.2058
 4621SOL    HW114803   4.295   2.325   5.941  0.3356  0.8627 -0.1980
 4621SOL    HW214804   4.172   2.389   5.881 -1.1860 -1.9309 -0.1891
 4622SOL     OW14805   5.228   6.340   7.174 -0.1417 -0.4281  0.5623
 4622SOL    HW114806   5.272   6.286   7.108  1.4345 -0.1009  1.2841
 4622SOL    HW214807   5.275   6.321   7.255 -1.1556  0.1979  1.3262
 4623SOL     OW14808   4.611   7.341   0.558 -0.0026  0.2597  0.0183
 4623SOL    HW114809   4.568   7.398   0.494 -0.3765  1.1764  1.0512
 4623SOL    HW214810   4.539   7.303   0.608  0.3111  1.3044  1.3432
 4624SOL     OW14811   3.035   1.014   4.633 -0.2160 -0.3565 -0.3503
 4624SOL    HW114812   3.007   1.016   4.725 -0.3384  0.7710 -0.4039
 4624SOL    HW214813   2.956   1.035   4.584  0.0534 -0.0989 -0.6703
 4625SOL     OW14814   7.013   5.680   7.107 -0.3830 -0.0616  0.1848
 4625SOL    HW114815   7.098   5.641   7.087  0.1662  0.6212  1.0885
 4625SOL    HW214816   6.979   5.627   7.179 -0.0106  0.5888  0.8560
 4626SOL     OW14817   1.273   5.975   3.267 -0.2303  0.0848 -0.0792
 4626SOL    HW114818   1.312   5.897   3.229 -2.5845 -1.5620  0.6270
 4626SOL    HW214819   1.311   5.980   3.355  0.3868  0.1019 -0.3431
 4627SOL     OW14820   6.979   2.852   5.415  0.4786  0.0918 -0.2793
 4627SOL    HW114821   6.919   2.855   5.490  1.5940 -1.0824  0.7098
 4627SOL    HW214822   7.032   2.931   5.424  0.2667  0.2196 -0.1321
 4628SOL     OW14823   6.226   0.665   7.262  0.1437  0.0566 -0.2630
 4628SOL    HW114824   6.202   0.756   7.248  0.3144  0.0482 -0.6530
 4628SOL    HW214825   6.231   0.654   7.357  0.0525  0.4338 -0.2161
 4629SOL     OW14826   3.473   5.669   5.764 -0.1071  0.4248  0.5606
 4629SOL    HW114827   3.512   5.738   5.709  0.3417  0.9887  1.5518
 4629SOL    HW214828   3.456   5.597   5.704  1.2746  0.6643 -0.1574
 4630SOL     OW14829   6.800   2.553   4.864 -0.2522  0.1350 -0.5797
 4630SOL    HW114830   6.845   2.553   4.779  0.5351 -1.7914 -0.2265
 4630SOL    HW214831   6.714   2.516   4.845 -1.0559  2.1084 -0.9426
 4631SOL     OW14832   5.923   1.763   0.500  0.2853 -0.0121  0.7314
 4631SOL    HW114833   5.921   1.668   0.514  0.9550  0.0850  1.5923
 4631SOL    HW214834   5.968   1.797   0.577  0.8133  0.9360  0.0238
 4632SOL     OW14835   3.748   1.782   1.608  0.0201 -0.7417 -0.6066
 4632SOL    HW114836   3.800   1.709   1.639 -0.8147 -1.7811 -1.5577
 4632SOL    HW214837   3.692   1.745   1.540 -0.1472  0.8621 -1.4126
 4633SOL     OW14838   2.688   5.620   2.318 -0.0514 -0.3179  0.8206
 4633SOL    HW114839   2.704   5.714   2.314 -2.0128  0.0209  0.1437
 4633SOL    HW214840   2.594   5.612   2.332 -0.0478 -2.1785  0.0711
 4634SOL     OW14841   3.927   5.946   0.827  0.1510  0.0125 -0.6277
 4634SOL    HW114842   3.852   5.888   0.833  0.9035 -0.8509  1.3615
 4634SOL    HW214843   3.996   5.902   0.878  2.0480  0.7329 -2.4263
 4635SOL     OW14844   7.012   6.204   4.283 -0.1054  0.0509  0.1979
 4635SOL    HW114845   7.079   6.164   4.338  0.7165  2.0594  0.7346
 4635SOL    HW214846   7.053   6.211   4.196 -0.2601 -0.2770  0.0966
 4636SOL     OW14847   1.621   0.439   0.022  0.0258 -0.2282  0.3077
 4636SOL    HW114848   1.682   0.367   0.038 -0.0609 -0.3054  0.2920
 4636SOL    HW214849   1.663   0.492  -0.046  1.8299  1.7606  2.7887
 4637SOL     OW14850   4.325   4.582   5.019  0.3443 -0.1421 -0.4607
 4637SOL    HW114851   4.296   4.526   5.091 -0.1368  0.6126 -0.0598
 4637SOL    HW214852   4.274   4.552   4.943 -1.4369  1.0975  0.2094
 4638SOL     OW14853   5.564   0.869   0.837  0.3528 -0.6484  0.1655
 4638SOL    HW114854   5.553   0.867   0.742 -0.5941 -3.1097  0.2509
 4638SOL    HW214855   5.651   0.832   0.852  0.1158 -1.1704  0.2750
 4639SOL     OW14856   6.129   4.939   4.344 -0.5231 -0.2782 -0.0348
 4639SOL    HW114857   6.170   4.866   4.297 -0.0924  0.4606 -0.8283
 4639SOL    HW214858   6.195   4.966   4.408 -0.1953  0.1898 -0.5605
 4640SOL     OW14859   5.058   4.875   5.208 -0.0665  0.3768 -0.0765
 4640SOL    HW114860   4.993   4.841   5.270 -0.2668 -1.5854 -1.3047
 4640SOL    HW214861   5.035   4.968   5.199 -1.0643  0.3338  1.4759
 4641SOL     OW14862   1.505   1.995   3.186 -0.1646  0.5353  0.3432
 4641SOL    HW114863   1.410   1.989   3.201  0.1552 -0.8650  2.1646
 4641SOL    HW214864   1.514   2.056   3.113 -2.4908  0.4305 -0.1037
 4642SOL     OW14865   5.400   4.741   5.472 -1.0031  0.5906  0.2926
 4642SOL    HW114866   5.395   4.660   5.522  0.7255 -0.6551 -1.3682
 4642SOL    HW214867   5.493   4.766   5.477 -0.0564 -1.0645 -4.1725
 4643SOL     OW14868   6.031   6.605   3.075 -0.1974 -0.2810 -0.0773
 4643SOL    HW114869   5.940   6.581   3.096 -0.0196  0.1074  1.2505
 4643SOL    HW214870   6.030   6.700   3.069 -0.3638 -0.3949 -2.6501
 4644SOL     OW14871   2.869   1.376   4.247  0.0850 -0.2060  0.0228
 4644SOL    HW114872   2.789   1.334   4.214 -0.3528  1.0432 -0.5935
 4644SOL    HW214873   2.840   1.427   4.323  0.2328  0.4337 -0.3382
 4645SOL     OW14874   3.941   6.724   4.896  0.4000  0.6419 -0.3511
 4645SOL    HW114875   4.000   6.651   4.916  0.0068  0.3209 -0.3559
 4645SOL    HW214876   3.970   6.756   4.811  0.3868  0.3044 -0.4816
 4646SOL     OW14877   4.267   6.676   4.032 -0.0449  0.6074 -0.4788
 4646SOL    HW114878   4.312   6.715   4.107 -1.4243  0.7625  0.3032
 4646SOL    HW214879   4.332   6.618   3.993  1.1780  1.6367 -0.0547
 4647SOL     OW14880   5.046   3.838   6.138 -0.2333 -0.3133 -0.1555
 4647SOL    HW114881   5.055   3.924   6.178  2.8085 -0.4066 -0.3678
 4647SOL    HW214882   4.995   3.787   6.201  0.7230  0.7690  1.5767
 4648SOL     OW14883   4.063   4.883   1.620  0.3166 -0.1524  0.0469
 4648SOL    HW114884   4.056   4.811   1.684 -1.3053 -1.0228 -1.0361
 4648SOL    HW214885   3.982   4.933   1.632  1.0909  1.0877  0.2632
 4649SOL     OW14886   7.132   4.223   5.187  0.3480  0.1247 -0.1409
 4649SOL    HW114887   7.134   4.157   5.117  2.6532  0.5288 -0.5543
 4649SOL    HW214888   7.107   4.174   5.265 -1.2680 -0.5425 -1.0369
 4650SOL     OW14889   1.273   2.313   6.027  0.9436 -0.3843  0.0002
 4650SOL    HW114890   1.254   2.256   5.952  0.5810  0.8785 -0.8928
 4650SOL    HW214891   1.245   2.261   6.103 -3.4489  0.1149 -1.0160
 4651SOL     OW14892   3.163   0.385   6.731 -0.3203  0.5734 -0.3981
 4651SOL    HW114893   3.072   0.365   6.712 -0.3077 -3.6847  2.6043
 4651SOL    HW214894   3.212   0.351   6.656 -1.0365 -1.0088 -0.1820
 4652SOL     OW14895   6.030   6.557   0.012 -0.0082 -0.2044 -0.5079
 4652SOL    HW114896   6.119   6.541  -0.018 -0.9336 -1.4953 -2.8163
 4652SOL    HW214897   5.991   6.610  -0.057 -1.1795 -0.0575  0.2435
 4653SOL     OW14898   2.112   1.022   4.050  0.1976 -0.5815 -0.5151
 4653SOL    HW114899   2.115   1.033   4.145 -2.7234 -1.3607 -0.2545
 4653SOL    HW214900   2.142   1.106   4.015  0.2966  0.0840  1.0940
 4654SOL     OW14901   2.724   6.481   1.877 -0.5052  0.4224  0.4531
 4654SOL    HW114902   2.805   6.451   1.835 -0.7448 -0.1396  0.3862
 4654SOL    HW214903   2.654   6.445   1.822 -0.8787 -1.8177  2.2693
 4655SOL     OW14904   5.251   2.995   0.983  0.5149  0.2183 -0.1043
 4655SOL    HW114905   5.159   2.981   1.006  0.1572 -0.0699 -1.6559
 4655SOL    HW214906   5.263   2.947   0.902  2.1862 -0.1645  0.3486
 4656SOL     OW14907   2.788   6.945   6.200 -0.0195  0.0399 -0.3432
 4656SOL    HW114908   2.734   6.982   6.130  1.8879 -0.8277 -2.3970
 4656SOL    HW214909   2.844   6.881   6.156  2.6363  0.8185  1.6357
 4657SOL     OW14910   1.655   3.425   5.284 -0.3875  0.1949  0.0689
 4657SOL    HW114911   1.580   3.371   5.260  1.5889 -1.8113 -2.0828
 4657SOL    HW214912   1.707   3.369   5.341 -0.5764  1.6797  1.7943
 4658SOL     OW14913   3.056   0.237   4.006 -0.3611  0.6839  0.2588
 4658SOL    HW114914   2.973   0.251   3.962 -1.5086  0.4035  2.2336
 4658SOL    HW214915   3.075   0.144   3.992 -1.4537  0.2524  1.5281
 4659SOL     OW14916   0.600   3.967   1.217 -0.1060 -0.4921  0.3477
 4659SOL    HW114917   0.585   4.016   1.297 -0.6089  0.8229 -0.5250
 4659SOL    HW214918   0.603   4.033   1.148 -0.2120 -1.6318 -0.7915
 4660SOL     OW14919   0.996   3.697   2.254  0.3662  0.0084  0.1320
 4660SOL    HW114920   1.083   3.702   2.293 -0.0316  2.8516  0.9130
 4660SOL    HW214921   1.011   3.705   2.160  0.9960 -0.2520  0.2083
 4661SOL     OW14922   6.007   1.460   6.157  0.0212 -0.5253  0.1210
 4661SOL    HW114923   6.001   1.378   6.206 -0.6583 -0.8668 -0.5052
 4661SOL    HW214924   5.929   1.460   6.100  0.6783 -0.0515 -0.8128
 4662SOL     OW14925   0.435   0.938   6.719  0.0514  0.0378  0.1669
 4662SOL    HW114926   0.521   0.950   6.761 -0.6398 -0.2411  1.7383
 4662SOL    HW214927   0.456   0.918   6.628  1.6125  1.1549  0.2328
 4663SOL     OW14928   3.813   2.733   3.887 -0.1556 -0.1767 -0.0645
 4663SOL    HW114929   3.835   2.827   3.891 -0.5717 -0.0938  0.4502
 4663SOL    HW214930   3.845   2.698   3.970  2.8302 -1.1512 -1.4776
 4664SOL     OW14931   5.876   4.307   1.890 -0.0758  0.2543  0.2295
 4664SOL    HW114932   5.834   4.363   1.824 -0.3034  0.7632  0.7984
 4664SOL    HW214933   5.862   4.218   1.858  0.2790  0.5098 -0.6835
 4665SOL     OW14934   4.164   0.319   3.221 -0.4190 -0.0293  1.0310
 4665SOL    HW114935   4.224   0.393   3.218  1.4244 -1.4956  0.3285
 4665SOL    HW214936   4.164   0.284   3.132 -1.1217 -0.9829  1.3884
 4666SOL     OW14937   5.476   7.353   0.132  0.1175 -0.7032  0.4734
 4666SOL    HW114938   5.565   7.343   0.166  0.1757  0.2031  0.6279
 4666SOL    HW214939   5.422   7.363   0.211  0.0563 -0.0207  0.3504
 4667SOL     OW14940   1.950   4.073   2.535  0.4692  0.6221 -0.0168
 4667SOL    HW114941   1.886   4.144   2.530 -2.0128 -1.4248  0.3852
 4667SOL    HW214942   1.951   4.036   2.447  0.8106  0.3924  0.0835
 4668SOL     OW14943   0.032   3.796   5.134 -0.2523 -0.0773 -0.3142
 4668SOL    HW114944   0.066   3.821   5.219 -0.8844 -2.0835  0.5782
 4668SOL    HW214945   0.110   3.772   5.083 -0.0591 -1.4546  0.6069
 4669SOL     OW14946   6.631   3.481   3.115 -0.4997  0.7985 -0.1293
 4669SOL    HW114947   6.549   3.445   3.081  0.3843 -1.1831 -0.2933
 4669SOL    HW214948   6.630   3.461   3.208  0.4685 -0.7001 -0.4035
 4670SOL     OW14949   6.143   5.557   6.407 -0.1481  0.3022  0.0052
 4670SOL    HW114950   6.187   5.601   6.334 -0.2479  0.2617 -0.0804
 4670SOL    HW214951   6.144   5.622   6.478 -1.5289  0.9874 -0.5563
 4671SOL     OW14952   6.299   5.387   6.268 -0.3156 -0.3200 -0.0225
 4671SOL    HW114953   6.369   5.452   6.274  1.3152 -2.0880  2.2939
 4671SOL    HW214954   6.226   5.425   6.316  0.4415  0.0321  0.8730
 4672SOL     OW14955   2.520   0.268   2.552 -0.2539  0.1560  0.3444
 4672SOL    HW114956   2.429   0.245   2.534 -0.3485  1.8285 -1.7321
 4672SOL    HW214957   2.531   0.356   2.515  1.5789  1.0534  2.7482
 4673SOL     OW14958   2.892   4.398   5.745  0.3143 -0.5340 -0.4075
 4673SOL    HW114959   2.912   4.481   5.701 -2.3297  0.3608 -0.0769
 4673SOL    HW214960   2.903   4.331   5.677 -1.8497  0.6212 -1.9944
 4674SOL     OW14961   7.062   3.360   5.405  0.3646  0.0147  0.1144
 4674SOL    HW114962   6.976   3.352   5.446 -0.0985  0.3385 -0.7595
 4674SOL    HW214963   7.046   3.412   5.326  0.4554 -3.7478 -2.6571
 4675SOL     OW14964   5.286   5.646   2.019 -0.6184 -0.1380  0.2749
 4675SOL    HW114965   5.373   5.636   2.060 -0.7963  0.6360  0.8546
 4675SOL    HW214966   5.258   5.734   2.044 -0.6196  0.4795 -1.7755
 4676SOL     OW14967   3.384   0.256   3.126 -0.0514 -0.0777 -0.2889
 4676SOL    HW114968   3.454   0.265   3.061 -0.0446 -0.2340 -0.3048
 4676SOL    HW214969   3.369   0.161   3.132 -0.1726 -0.0530 -0.1909
 4677SOL     OW14970   6.011   2.874   6.782  0.0923  0.1176  0.1327
 4677SOL    HW114971   5.994   2.904   6.693  0.0668 -1.5059 -0.4570
 4677SOL    HW214972   6.054   2.789   6.770 -1.2901 -0.8433  1.6571
 4678SOL     OW14973   3.140   6.392   0.218  0.1323 -0.2376  0.2034
 4678SOL    HW114974   3.181   6.359   0.138 -1.6078 -0.5660 -0.5974
 4678SOL    HW214975   3.199   6.460   0.249  0.2845  0.7109 -2.0164
 4679SOL     OW14976   6.144   5.219   3.840  0.0304 -0.0656 -0.4316
 4679SOL    HW114977   6.158   5.252   3.751  0.0016  0.2985 -0.3041
 4679SOL    HW214978   6.138   5.124   3.830  1.1144 -0.1198 -0.6844
 4680SOL     OW14979   6.940   2.899   6.994 -0.0783 -0.5107 -0.3645
 4680SOL    HW114980   6.965   2.807   6.996 -1.3899 -0.8958  1.3329
 4680SOL    HW214981   6.864   2.904   7.052  0.4052  1.7693  0.1848
 4681SOL     OW14982   2.440   3.578   1.238  0.4841 -0.0675  0.3418
 4681SOL    HW114983   2.438   3.492   1.280  0.8719 -1.1977 -1.7838
 4681SOL    HW214984   2.527   3.583   1.198  0.5530  1.4499  0.6319
 4682SOL     OW14985   2.485   0.648   3.753  0.2708  0.0537  0.2104
 4682SOL    HW114986   2.568   0.685   3.783 -0.9374  1.8666  1.5175
 4682SOL    HW214987   2.454   0.595   3.826 -0.1599  0.1419  0.0980
 4683SOL     OW14988   1.186   4.717   7.429 -0.2717  0.3097  0.5032
 4683SOL    HW114989   1.199   4.689   7.338  1.5556  1.1556  0.4557
 4683SOL    HW214990   1.148   4.804   7.423  0.6018  0.6992  0.5204
 4684SOL     OW14991   3.628   3.940   3.990 -0.1383  0.0431 -0.7587
 4684SOL    HW114992   3.613   4.001   4.061  2.6327 -0.7749  0.6768
 4684SOL    HW214993   3.583   3.860   4.017 -0.6863  0.3023 -0.8835
 4685SOL     OW14994   6.219   7.402   1.364  0.1343 -0.0914 -0.0013
 4685SOL    HW114995   6.207   7.398   1.269  0.1527 -1.2104  0.0302
 4685SOL    HW214996   6.137   7.368   1.400 -0.1094  0.8906  0.4122
 4686SOL     OW14997   6.158   0.456   6.180 -0.2925  0.2054 -0.2560
 4686SOL    HW114998   6.247   0.468   6.212  0.3903  0.4189 -2.0983
 4686SOL    HW214999   6.121   0.544   6.178  0.3561  0.4873 -1.8199
 4687SOL     OW15000   0.676   6.813   4.437 -0.3954 -0.1366  0.1476
 4687SOL    HW115001   0.621   6.877   4.391 -0.8305 -1.8587 -1.8946
 4687SOL    HW215002   0.619   6.776   4.504 -1.6400 -1.4182 -1.5045
 4688SOL     OW15003   0.804   7.230   3.847 -0.1390  0.2601  0.1704
 4688SOL    HW115004   0.896   7.207   3.862 -0.0620  0.1832 -0.3723
 4688SOL    HW215005   0.766   7.151   3.808  0.0185  0.8738 -1.3079
 4689SOL     OW15006   1.211   1.185   0.477 -0.6406  0.1498 -0.2236
 4689SOL    HW115007   1.186   1.126   0.547  0.4505  1.3555  1.2508
 4689SOL    HW215008   1.302   1.209   0.496 -0.2581  0.4322 -2.1180
 4690SOL     OW15009   1.151   4.200   4.369 -0.4298 -0.4555 -0.3593
 4690SOL    HW115010   1.101   4.226   4.292 -1.2640 -3.1475 -0.8537
 4690SOL    HW215011   1.240   4.186   4.336  0.1337  1.9731  0.0047
 4691SOL     OW15012   1.814   7.327   2.471  0.4507 -0.5246  0.1389
 4691SOL    HW115013   1.722   7.337   2.449  0.3834  1.9831  1.2318
 4691SOL    HW215014   1.815   7.259   2.539 -0.6003 -0.4591  0.2385
 4692SOL     OW15015   5.297   6.483   6.924 -0.2697 -0.2013 -0.0096
 4692SOL    HW115016   5.254   6.477   7.009  0.3553  0.4480  0.3678
 4692SOL    HW215017   5.286   6.575   6.898 -0.4585 -0.3934 -0.6376
 4693SOL     OW15018   3.490   0.061   4.552  0.1301 -0.2871  0.4953
 4693SOL    HW115019   3.554   0.094   4.614 -0.1347  0.1517  0.5421
 4693SOL    HW215020   3.408   0.054   4.602 -1.1192  3.7801 -0.6276
 4694SOL     OW15021   4.866   4.882   2.587  0.5120 -0.4718  0.2447
 4694SOL    HW115022   4.835   4.800   2.548  1.3983 -0.0802 -1.3814
 4694SOL    HW215023   4.948   4.858   2.631  1.1908 -0.3404 -0.9106
 4695SOL     OW15024   6.222   3.454   2.602 -0.0538 -0.1425  0.5337
 4695SOL    HW115025   6.199   3.368   2.567  1.5217  0.0166 -0.9752
 4695SOL    HW215026   6.241   3.437   2.695 -1.4615 -1.0746  0.6885
 4696SOL     OW15027   2.028   4.363   4.376 -0.3144 -0.1935  0.6070
 4696SOL    HW115028   1.990   4.415   4.305  1.6596  1.4325  0.6707
 4696SOL    HW215029   2.121   4.360   4.357  0.1670 -0.3606  2.7438
 4697SOL     OW15030   5.690   5.280   5.707  0.0695  0.0953 -0.0888
 4697SOL    HW115031   5.712   5.255   5.618  2.0211 -0.7456  0.5682
 4697SOL    HW215032   5.713   5.373   5.712  0.8053 -0.0735 -0.2284
 4698SOL     OW15033   2.783   1.502   0.815 -0.2838 -0.4359  0.0206
 4698SOL    HW115034   2.864   1.456   0.838 -0.7119 -1.0439  0.3753
 4698SOL    HW215035   2.717   1.463   0.873 -0.4046  1.7042  1.4538
 4699SOL     OW15036   2.218   2.153   2.270 -0.1531 -0.1084  0.3431
 4699SOL    HW115037   2.278   2.080   2.285  0.2670 -0.4976 -2.6496
 4699SOL    HW215038   2.147   2.116   2.217 -1.4795  1.0400  1.2485
 4700SOL     OW15039   2.483   1.399   5.360 -0.3866  0.2288  0.2159
 4700SOL    HW115040   2.579   1.408   5.358 -0.4409  0.7180 -0.5265
 4700SOL    HW215041   2.451   1.489   5.349 -0.9379 -0.1301 -1.2986
 4701SOL     OW15042   5.600   0.931   5.073  0.2673  0.1101  0.1002
 4701SOL    HW115043   5.611   0.919   5.168 -2.5507  0.4468  0.5638
 4701SOL    HW215044   5.671   0.991   5.049  1.8702 -1.0065  1.6807
 4702SOL     OW15045   0.867   0.790   4.746 -0.5734 -0.2483  0.4169
 4702SOL    HW115046   0.817   0.717   4.783 -0.8897 -1.0741 -1.4610
 4702SOL    HW215047   0.806   0.832   4.685  0.6581 -0.6803 -1.2063
 4703SOL     OW15048   6.618   4.639   2.627 -0.8682  0.0482  0.0756
 4703SOL    HW115049   6.681   4.706   2.601 -2.3290  1.4692  0.0947
 4703SOL    HW215050   6.548   4.644   2.562 -2.1611  0.2261  1.4235
 4704SOL     OW15051   6.027   6.564   0.345  0.2467 -0.2381  0.4080
 4704SOL    HW115052   6.073   6.513   0.277 -2.9826 -1.9658 -0.6894
 4704SOL    HW215053   5.987   6.497   0.401 -1.4847  1.1075  0.8567
 4705SOL     OW15054   6.264   6.949   2.054  0.1801 -0.3141  0.2757
 4705SOL    HW115055   6.176   6.985   2.040 -0.4283 -1.6467  0.4889
 4705SOL    HW215056   6.256   6.897   2.134  1.5958  0.8363  1.2082
 4706SOL     OW15057   0.669   2.804   6.798 -0.0380 -0.2483  0.1978
 4706SOL    HW115058   0.670   2.896   6.824 -2.9869 -0.4227  1.2735
 4706SOL    HW215059   0.760   2.775   6.810  1.2745  2.7571 -1.3607
 4707SOL     OW15060   2.290   5.931   6.066  0.6558  0.2759 -0.5123
 4707SOL    HW115061   2.312   5.839   6.056 -1.0550 -0.0170 -2.0141
 4707SOL    HW215062   2.368   5.978   6.035  1.3324 -0.6510 -0.2434
 4708SOL     OW15063   2.360   6.123   7.330 -0.3386  0.7043 -1.0456
 4708SOL    HW115064   2.415   6.085   7.399  1.3269  0.9381 -2.1985
 4708SOL    HW215065   2.280   6.070   7.331 -0.4382  0.7787  1.1216
 4709SOL     OW15066   5.147   3.427   3.928  0.4435  0.5450  0.1538
 4709SOL    HW115067   5.189   3.513   3.926 -1.2825  1.4349 -1.5808
 4709SOL    HW215068   5.203   3.375   3.985  2.5492  2.2935 -0.1490
 4710SOL     OW15069   4.266   5.233   6.762 -0.3599  0.0837  0.2033
 4710SOL    HW115070   4.183   5.205   6.802 -1.5900  3.3749  0.2490
 4710SOL    HW215071   4.294   5.307   6.815  1.2459  0.6768 -1.3955
 4711SOL     OW15072   3.491   4.834   4.130  0.9312  0.5207 -0.9754
 4711SOL    HW115073   3.402   4.801   4.138  2.0123 -2.8423 -1.2856
 4711SOL    HW215074   3.499   4.899   4.199 -1.2898 -0.2317  0.0725
 4712SOL     OW15075   7.418   3.014   5.584 -0.5406  0.0731  0.2889
 4712SOL    HW115076   7.363   2.989   5.657 -1.7600  0.1015 -0.5941
 4712SOL    HW215077   7.451   3.101   5.608 -0.1495 -0.3204  1.2136
 4713SOL     OW15078   2.542   2.380   3.496  0.2308 -0.8651 -0.2099
 4713SOL    HW115079   2.591   2.304   3.466  0.6266 -1.7558  2.4534
 4713SOL    HW215080   2.607   2.450   3.500  0.0189 -0.5090 -1.9526
 4714SOL     OW15081   2.840   0.808   6.937  0.5832 -0.0419  0.2360
 4714SOL    HW115082   2.749   0.782   6.925  0.5285  0.2265  0.0770
 4714SOL    HW215083   2.841   0.902   6.925  1.1247 -0.2207 -1.3005
 4715SOL     OW15084   5.822   4.306   4.543  0.3056  0.4789  0.0667
 4715SOL    HW115085   5.739   4.283   4.500  0.1267 -0.4618  0.8752
 4715SOL    HW215086   5.873   4.348   4.475 -0.9370  1.3210 -0.3826
 4716SOL     OW15087   6.839   1.830   3.350 -0.3367 -0.3215  0.5421
 4716SOL    HW115088   6.751   1.804   3.376 -0.2011 -0.8876  0.4527
 4716SOL    HW215089   6.870   1.884   3.423 -1.2078  0.9273  0.0136
 4717SOL     OW15090   1.528   6.925   3.337  0.1686 -0.3030 -0.7722
 4717SOL    HW115091   1.502   6.846   3.289 -1.9944  1.1765 -2.1799
 4717SOL    HW215092   1.592   6.968   3.280  2.7489 -1.7895  0.7831
 4718SOL     OW15093   3.414   3.427   5.222  0.3564  0.4757 -0.3825
 4718SOL    HW115094   3.484   3.367   5.195 -1.6438 -1.2186 -2.1656
 4718SOL    HW215095   3.386   3.469   5.141 -0.1727  1.7601  0.4352
 4719SOL     OW15096   1.737   0.455   1.023 -0.8467 -0.4624 -0.0558
 4719SOL    HW115097   1.698   0.541   1.040  2.0376  0.8075  0.8663
 4719SOL    HW215098   1.694   0.424   0.943 -2.5486  1.4644  0.0374
 4720SOL     OW15099   1.532   4.770   5.578 -0.3251 -0.1846 -0.1601
 4720SOL    HW115100   1.457   4.747   5.632 -0.9986 -1.3402 -1.5495
 4720SOL    HW215101   1.522   4.718   5.498  0.9457  1.0490 -1.1714
 4721SOL     OW15102   1.324   3.358   3.287  0.1630  0.0498 -0.0846
 4721SOL    HW115103   1.313   3.294   3.216  2.1249  0.0891 -0.5042
 4721SOL    HW215104   1.274   3.323   3.360  1.4965 -2.2113 -0.1789
 4722SOL     OW15105   2.893   2.513   1.351  0.2975  0.5884 -0.6202
 4722SOL    HW115106   2.958   2.522   1.420  1.1872  0.6145 -1.4382
 4722SOL    HW215107   2.943   2.488   1.273 -0.8879 -1.2651 -0.8555
 4723SOL     OW15108   3.349   0.851   2.881  0.5332 -0.3903  0.3177
 4723SOL    HW115109   3.356   0.767   2.926 -0.2304  0.2272  1.6440
 4723SOL    HW215110   3.387   0.915   2.942  0.2288  0.3596 -0.2557
 4724SOL     OW15111   5.696   3.111   4.704 -0.8532  0.0192  0.3117
 4724SOL    HW115112   5.619   3.164   4.725  0.2376  0.9393  2.1805
 4724SOL    HW215113   5.740   3.160   4.635 -1.9214 -0.5568 -0.8374
 4725SOL     OW15114   3.005   0.738   6.448 -0.3869 -0.6950  0.2801
 4725SOL    HW115115   3.048   0.823   6.450 -0.5306 -0.6289  0.5635
 4725SOL    HW215116   3.077   0.675   6.440 -0.3139 -0.5215 -0.4548
 4726SOL     OW15117   3.827   6.102   2.018  0.5198 -0.2976  0.3926
 4726SOL    HW115118   3.855   6.192   2.034  0.4911 -0.4187  1.1606
 4726SOL    HW215119   3.856   6.053   2.095  0.2079 -0.8714  0.1571
 4727SOL     OW15120   0.210   4.747   5.808  0.1967 -0.0617  0.3628
 4727SOL    HW115121   0.305   4.735   5.801  0.0871 -1.3421  0.7965
 4727SOL    HW215122   0.175   4.658   5.814 -1.1490  0.3116 -1.0688
 4728SOL     OW15123   2.533   0.299   3.908  0.4520  0.2187  0.3214
 4728SOL    HW115124   2.474   0.273   3.837 -0.6488  0.7883  0.9987
 4728SOL    HW215125   2.498   0.383   3.938 -0.8617 -1.2465  3.3639
 4729SOL     OW15126   2.113   4.369   4.639 -0.1872  0.2105 -0.2294
 4729SOL    HW115127   2.086   4.384   4.548  0.2302  0.1302 -0.3677
 4729SOL    HW215128   2.103   4.454   4.681 -0.3858  0.2474 -0.3474
 4730SOL     OW15129   0.474   4.957   4.215 -0.2075 -0.7376 -0.3692
 4730SOL    HW115130   0.394   4.964   4.164 -0.2056  1.2619 -0.1540
 4730SOL    HW215131   0.520   4.881   4.177 -0.7253  0.0053 -2.5946
 4731SOL     OW15132   6.658   7.393   1.880 -0.2287 -0.0441 -0.1473
 4731SOL    HW115133   6.741   7.345   1.867  0.2003  0.2558  1.2197
 4731SOL    HW215134   6.680   7.484   1.863  0.0406  0.1865  1.2419
 4732SOL     OW15135   6.915   2.282   7.342 -0.1569 -0.2884 -0.0253
 4732SOL    HW115136   6.835   2.279   7.290  2.0335  1.3236 -3.8721
 4732SOL    HW215137   6.964   2.205   7.314  0.4691 -0.2318  0.8822
 4733SOL     OW15138   0.816   6.304   4.943 -0.0831  0.2773  0.1902
 4733SOL    HW115139   0.796   6.217   4.976 -0.2669 -0.0050 -0.6493
 4733SOL    HW215140   0.865   6.289   4.862 -0.6444  0.9501 -0.2867
 4734SOL     OW15141   5.690   1.660   7.240  0.0966 -0.0292  0.2363
 4734SOL    HW115142   5.685   1.688   7.148  1.3667  1.5602  0.5860
 4734SOL    HW215143   5.631   1.586   7.246 -1.7975  1.2447 -1.3438
 4735SOL     OW15144   5.540   2.458   3.160 -0.2180  0.3224  0.2103
 4735SOL    HW115145   5.594   2.394   3.114 -2.2490 -1.1794 -0.2663
 4735SOL    HW215146   5.499   2.407   3.231 -1.0723  1.3614  0.4862
 4736SOL     OW15147   0.267   1.324   7.218  0.7250 -0.5328  0.0783
 4736SOL    HW115148   0.354   1.326   7.179  2.2276  3.0855  3.0309
 4736SOL    HW215149   0.273   1.258   7.288  1.0993 -0.2852  0.2793
 4737SOL     OW15150   5.961   0.707   3.430  0.3025  0.4582 -0.0381
 4737SOL    HW115151   5.974   0.801   3.443  0.4035  0.3274  0.8927
 4737SOL    HW215152   6.025   0.683   3.363 -0.4428  1.2364 -1.0500
 4738SOL     OW15153   7.297   2.115   1.131  0.0995 -0.2716 -0.7580
 4738SOL    HW115154   7.203   2.129   1.122  0.1572 -0.7136 -2.1992
 4738SOL    HW215155   7.306   2.063   1.211 -0.8612 -0.1461 -0.5577
 4739SOL     OW15156   4.438   6.197   5.808  0.5358 -0.0340 -0.3226
 4739SOL    HW115157   4.501   6.189   5.737 -0.0249 -2.1980 -0.6670
 4739SOL    HW215158   4.490   6.217   5.886  1.6292 -1.2848 -0.6919
 4740SOL     OW15159   0.316   5.144   1.308 -0.5583  0.1097  0.3324
 4740SOL    HW115160   0.248   5.158   1.374  0.4820  0.3525  1.3674
 4740SOL    HW215161   0.359   5.228   1.298  0.1800 -0.2561  0.3416
 4741SOL     OW15162   5.930   2.333   2.225 -0.6155 -0.2937 -0.1577
 4741SOL    HW115163   5.859   2.396   2.240 -1.3713 -1.1677 -0.0309
 4741SOL    HW215164   6.008   2.377   2.261 -1.4391 -0.1428  1.5319
 4742SOL     OW15165   6.095   4.061   7.137  0.0050 -0.4320  0.2677
 4742SOL    HW115166   6.051   4.035   7.056 -0.0948 -1.0535  0.5115
 4742SOL    HW215167   6.188   4.053   7.118 -0.0287 -1.5455  0.5083
 4743SOL     OW15168   3.333   2.922   1.687  0.0324  0.1065  0.8280
 4743SOL    HW115169   3.324   3.013   1.716 -0.3906  1.1512 -2.2805
 4743SOL    HW215170   3.397   2.925   1.616 -2.8670 -1.2363 -2.1032
 4744SOL     OW15171   7.277   2.970   3.999  0.0427 -0.0167  0.4594
 4744SOL    HW115172   7.202   3.029   3.992  0.1258 -0.0923 -1.4238
 4744SOL    HW215173   7.298   2.946   3.909  0.9056 -1.8077  1.0869
 4745SOL     OW15174   0.093   2.726   2.779 -0.0679 -0.2501  0.3600
 4745SOL    HW115175   0.142   2.680   2.847 -1.1546 -1.1440  0.5833
 4745SOL    HW215176   0.082   2.661   2.710 -0.2549  0.1777 -0.0168
 4746SOL     OW15177   2.557   3.240   4.338  0.1188 -0.1996 -0.1259
 4746SOL    HW115178   2.587   3.254   4.248  0.8481 -1.4641 -0.1051
 4746SOL    HW215179   2.511   3.156   4.335 -1.3757  0.5671  0.3497
 4747SOL     OW15180   0.833   3.150   5.109  0.4085  0.1102 -0.7451
 4747SOL    HW115181   0.813   3.068   5.153  0.8049 -0.5061 -1.6886
 4747SOL    HW215182   0.896   3.126   5.041  1.7379  1.4355 -0.0483
 4748SOL     OW15183   3.141   1.262   1.811 -0.6571 -0.1392  0.0214
 4748SOL    HW115184   3.161   1.324   1.881 -3.3889 -1.1694  1.9308
 4748SOL    HW215185   3.120   1.316   1.735 -1.8435  1.2634  1.2837
 4749SOL     OW15186   1.650   2.243   2.859  0.1646 -0.2323  0.5308
 4749SOL    HW115187   1.643   2.336   2.836 -0.5827 -0.2847  0.5375
 4749SOL    HW215188   1.735   2.236   2.903  0.0684  0.5194  0.8533
 4750SOL     OW15189   6.789   0.205   5.205  0.0546 -0.1073  0.1689
 4750SOL    HW115190   6.745   0.182   5.287 -0.0533 -0.2766  0.0627
 4750SOL    HW215191   6.732   0.271   5.165  1.0033  1.3200  1.0895
 4751SOL     OW15192   6.353   3.544   3.012 -0.2432 -0.2006  0.1014
 4751SOL    HW115193   6.340   3.488   3.089 -1.1711  0.7470  0.6747
 4751SOL    HW215194   6.266   3.549   2.972 -0.1785  0.8233  0.0755
 4752SOL     OW15195   0.282   1.813   0.342 -0.4105  0.5244 -0.2152
 4752SOL    HW115196   0.210   1.750   0.339 -0.3799  0.5059 -0.5627
 4752SOL    HW215197   0.280   1.847   0.432 -1.4825  1.2363 -0.4828
 4753SOL     OW15198   1.176   2.056   5.948 -0.2770  0.0843 -0.1315
 4753SOL    HW115199   1.229   2.028   5.874  0.3942 -0.0839  0.3974
 4753SOL    HW215200   1.195   1.992   6.017 -0.9071  0.2192  0.1797
 4754SOL     OW15201   6.381   1.032   5.451  0.4817 -0.2672  0.5908
 4754SOL    HW115202   6.471   1.064   5.460 -0.1625  1.7681  0.1226
 4754SOL    HW215203   6.344   1.040   5.539  0.2216  0.6464  0.4075
 4755SOL     OW15204   4.788   3.312   6.435  0.0366  0.1415 -0.3333
 4755SOL    HW115205   4.806   3.376   6.366 -1.1422  1.7996  0.8394
 4755SOL    HW215206   4.703   3.276   6.413 -0.4327  0.8175  0.3315
 4756SOL     OW15207   4.051   4.009   0.798  0.0649 -0.1174  0.3455
 4756SOL    HW115208   4.119   4.034   0.860 -0.7035  1.1281  0.7250
 4756SOL    HW215209   3.970   4.010   0.849 -0.5415  0.6210 -0.5799
 4757SOL     OW15210   0.721   4.084   6.317  0.1963 -0.7644  0.2503
 4757SOL    HW115211   0.673   4.083   6.400  1.0089  0.4750  0.7722
 4757SOL    HW215212   0.739   3.992   6.299 -1.8848 -1.2223  0.2960
 4758SOL     OW15213   2.524   7.341   0.473  0.2608  0.2322 -0.0655
 4758SOL    HW115214   2.511   7.257   0.517  0.0399  0.1912 -0.2089
 4758SOL    HW215215   2.619   7.348   0.463  0.2288 -0.6554 -1.2879
 4759SOL     OW15216   2.790   3.784   1.753 -0.3191  0.3083  0.2763
 4759SOL    HW115217   2.724   3.845   1.784 -0.3329  1.1733 -1.3082
 4759SOL    HW215218   2.867   3.839   1.736  0.4899 -0.5188  1.1379
 4760SOL     OW15219   1.453   0.053   3.761  0.3698  0.5146 -0.5383
 4760SOL    HW115220   1.482   0.020   3.676  1.2963  0.6090 -0.2700
 4760SOL    HW215221   1.452   0.148   3.751 -0.7658  0.4787 -0.8288
 4761SOL     OW15222   4.646   5.511   3.889  0.3519  0.5898 -0.9918
 4761SOL    HW115223   4.565   5.464   3.909 -0.2152  1.6908 -0.5907
 4761SOL    HW215224   4.641   5.528   3.794 -1.5138  3.4243 -0.5253
 4762SOL     OW15225   3.315   6.128   6.525  0.9010 -0.1453  0.4558
 4762SOL    HW115226   3.255   6.130   6.450 -0.0848 -0.4049  1.2263
 4762SOL    HW215227   3.381   6.194   6.504  1.6239 -1.3889 -1.4421
 4763SOL     OW15228   3.607   5.814   5.265 -0.2842  0.7916 -0.0354
 4763SOL    HW115229   3.563   5.831   5.182 -2.3140  1.9705  1.1828
 4763SOL    HW215230   3.633   5.901   5.297  2.2304  0.1925 -0.2955
 4764SOL     OW15231   2.128   5.842   0.515 -0.2621  0.3043 -0.1230
 4764SOL    HW115232   2.149   5.915   0.457 -0.9366  0.7292  0.1565
 4764SOL    HW215233   2.160   5.765   0.468  0.7075  0.7919 -0.2964
 4765SOL     OW15234   0.311   2.054   2.857  0.5408  0.3352 -0.1071
 4765SOL    HW115235   0.310   1.959   2.844 -1.4729 -0.0172  1.9099
 4765SOL    HW215236   0.339   2.064   2.948 -0.9993  1.5371  0.2662
 4766SOL     OW15237   4.619   4.989   2.643  0.2314 -0.0410 -0.3845
 4766SOL    HW115238   4.712   4.985   2.618  0.2349 -0.1810 -0.3518
 4766SOL    HW215239   4.616   4.947   2.729  0.5294  2.1415  0.7659
 4767SOL     OW15240   0.971   6.010   2.853  0.2458  0.0198 -0.4065
 4767SOL    HW115241   0.951   5.943   2.787  2.4974 -1.5817  0.3588
 4767SOL    HW215242   0.940   5.972   2.935  0.2982  0.5443 -0.1431
 4768SOL     OW15243   5.475   2.862   2.888 -0.7997  0.6459 -0.0587
 4768SOL    HW115244   5.407   2.892   2.948 -0.6617 -0.2534  0.5653
 4768SOL    HW215245   5.485   2.769   2.907  0.1762  0.6325 -0.5631
 4769SOL     OW15246   4.309   4.670   6.842 -0.3771  0.9113  0.0633
 4769SOL    HW115247   4.293   4.691   6.934 -2.0571  0.3453 -0.0681
 4769SOL    HW215248   4.289   4.751   6.795 -0.2050  0.9943  0.1325
 4770SOL     OW15249   1.133   2.405   5.761  0.7678 -1.0872  0.1380
 4770SOL    HW115250   1.147   2.500   5.766 -1.4997 -0.7058  0.0365
 4770SOL    HW215251   1.202   2.375   5.702  0.6446  0.7169 -1.0170
 4771SOL     OW15252   5.454   7.248   4.266  0.5551  0.0556  0.2178
 4771SOL    HW115253   5.388   7.228   4.200 -0.3019 -0.3509  1.1784
 4771SOL    HW215254   5.404   7.271   4.344  1.5375  2.2389  0.2734
 4772SOL     OW15255   0.677   1.332   2.947 -0.2734 -0.5838  0.0473
 4772SOL    HW115256   0.663   1.314   3.040 -0.0446 -1.5452 -0.0990
 4772SOL    HW215257   0.711   1.250   2.911 -2.9698 -1.1582 -1.4552
 4773SOL     OW15258   6.665   0.929   4.475  0.2930 -0.5057 -0.1348
 4773SOL    HW115259   6.636   0.927   4.384  0.0140 -0.9136 -0.0391
 4773SOL    HW215260   6.586   0.907   4.525 -0.5299  3.0405  0.4429
 4774SOL     OW15261   1.813   6.616   1.285  0.3854  0.6692 -0.1241
 4774SOL    HW115262   1.759   6.541   1.261 -1.2316  1.8258 -0.2651
 4774SOL    HW215263   1.885   6.616   1.221  1.3323 -1.6313  0.8396
 4775SOL     OW15264   3.576   7.112   5.304  0.1849  0.3247  0.1198
 4775SOL    HW115265   3.610   7.024   5.288 -0.6586 -0.0373  0.2573
 4775SOL    HW215266   3.550   7.112   5.396 -0.4341  0.4992 -0.0477
 4776SOL     OW15267   4.164   1.272   2.369  0.1297  0.6111 -0.2441
 4776SOL    HW115268   4.255   1.243   2.376  0.3360  0.9454 -1.4048
 4776SOL    HW215269   4.112   1.197   2.400  0.6858 -0.6583 -2.1770
 4777SOL     OW15270   2.861   2.903   7.027 -0.5341 -0.4288  0.3196
 4777SOL    HW115271   2.836   2.972   7.089 -1.6121  0.1318 -0.6958
 4777SOL    HW215272   2.850   2.944   6.941  2.3295 -0.6979 -0.2619
 4778SOL     OW15273   6.584   3.171   6.008 -0.0152 -0.1412 -0.1808
 4778SOL    HW115274   6.618   3.233   6.074 -0.2083  0.8083 -0.9485
 4778SOL    HW215275   6.521   3.223   5.958  0.9761 -0.5086 -1.8661
 4779SOL     OW15276   6.671   3.457   1.996  0.4583 -0.1365 -0.3648
 4779SOL    HW115277   6.725   3.406   1.936  1.5417  0.6011 -0.0306
 4779SOL    HW215278   6.728   3.527   2.027  0.0680 -0.7034  1.8039
 4780SOL     OW15279   7.121   3.171   7.416  0.0456 -0.2422  0.3377
 4780SOL    HW115280   7.200   3.134   7.375 -0.1733 -0.8711  0.4723
 4780SOL    HW215281   7.114   3.259   7.379  0.7679 -0.2065  0.2625
 4781SOL     OW15282   2.359   2.784   4.142 -0.4816  0.3640 -0.1979
 4781SOL    HW115283   2.432   2.738   4.100 -0.5812  0.9375 -1.0364
 4781SOL    HW215284   2.286   2.774   4.081 -0.7535  0.8553  0.0383
 4782SOL     OW15285   3.833   2.441   4.450 -0.4822 -0.0569 -0.3511
 4782SOL    HW115286   3.794   2.511   4.502  1.2448 -0.0335  1.0284
 4782SOL    HW215287   3.849   2.371   4.512  0.1708 -0.6691 -1.1803
 4783SOL     OW15288   1.318   4.172   1.614  0.5445 -0.0146  0.2858
 4783SOL    HW115289   1.392   4.225   1.583 -0.3186  1.7417  1.0705
 4783SOL    HW215290   1.240   4.224   1.591 -0.2202  0.9539  4.3563
 4784SOL     OW15291   7.226   1.232   3.917 -0.3468  0.1708 -0.2778
 4784SOL    HW115292   7.194   1.179   3.843 -1.6603  0.8690 -0.2479
 4784SOL    HW215293   7.167   1.210   3.989 -0.3781  1.0258 -0.0283
 4785SOL     OW15294   4.541   5.687   1.720  0.0942  0.3434  0.2693
 4785SOL    HW115295   4.579   5.617   1.667  0.2768  1.7341 -1.5687
 4785SOL    HW215296   4.617   5.734   1.755  0.0294  0.7633 -0.1350
 4786SOL     OW15297   0.528   1.320   7.071 -0.0661  0.2654 -0.2049
 4786SOL    HW115298   0.610   1.271   7.073 -0.9619 -1.3016  0.1771
 4786SOL    HW215299   0.555   1.412   7.074  1.6682 -0.1934 -0.4448
 4787SOL     OW15300   4.294   4.730   2.874 -0.4187  0.5164 -0.4901
 4787SOL    HW115301   4.268   4.693   2.789  1.0271  1.3876 -1.3519
 4787SOL    HW215302   4.215   4.774   2.906 -0.6074  1.4070 -2.0760
 4788SOL     OW15303   6.543   6.716   2.897  0.5716 -0.3193  0.3548
 4788SOL    HW115304   6.452   6.685   2.897  0.8604 -1.2847 -1.2383
 4788SOL    HW215305   6.593   6.644   2.936  0.7420 -0.0557  0.6309
 4789SOL     OW15306   1.566   3.754   3.745 -0.2143  0.4669  0.1947
 4789SOL    HW115307   1.639   3.803   3.708 -1.8754  1.0130 -2.7401
 4789SOL    HW215308   1.489   3.809   3.728 -1.5230 -0.8197  1.5968
 4790SOL     OW15309   5.208   0.821   2.817  0.7400 -0.1642 -0.4148
 4790SOL    HW115310   5.249   0.900   2.782  2.4362 -0.3466  1.0422
 4790SOL    HW215311   5.117   0.826   2.786  0.2873  3.2535  0.9783
 4791SOL     OW15312   5.481   5.787   6.389 -0.0001  1.1102 -0.1428
 4791SOL    HW115313   5.507   5.793   6.480 -2.4751 -2.2081  1.0082
 4791SOL    HW215314   5.547   5.731   6.349  0.6634  1.9269 -0.2014
 4792SOL     OW15315   7.266   3.508   1.844  0.1236  0.2957  0.0730
 4792SOL    HW115316   7.181   3.504   1.799  1.0080 -1.1661 -1.6286
 4792SOL    HW215317   7.323   3.554   1.782  1.3281 -1.5751 -0.2851
 4793SOL     OW15318   3.200   0.064   5.846  1.1216  0.3574  0.1888
 4793SOL    HW115319   3.116   0.042   5.885  1.6445  1.2039  1.8620
 4793SOL    HW215320   3.252  -0.016   5.855  1.4496  0.7281  1.8779
 4794SOL     OW15321   4.015   3.669   2.102 -0.4006 -0.3181 -0.5724
 4794SOL    HW115322   3.981   3.713   2.024 -2.8998  0.7519  1.0285
 4794SOL    HW215323   3.938   3.644   2.152  1.0688  1.1617  2.7369
 4795SOL     OW15324   0.321   2.520   6.027 -0.2588  0.1619  0.2158
 4795SOL    HW115325   0.362   2.504   5.942 -1.3673 -0.7733 -0.1673
 4795SOL    HW215326   0.307   2.433   6.064  0.3688  0.5640  1.4516
 4796SOL     OW15327   5.736   7.120   0.908 -0.6011  0.2036  0.1901
 4796SOL    HW115328   5.656   7.166   0.933 -0.3139  0.5440  0.4966
 4796SOL    HW215329   5.706   7.038   0.870 -1.2146  1.1961 -1.6320
 4797SOL     OW15330   4.490   2.783   6.775 -0.9064  0.0918  0.4159
 4797SOL    HW115331   4.584   2.772   6.770 -0.7474  1.4896 -0.0703
 4797SOL    HW215332   4.455   2.694   6.783  0.4722 -0.3953  1.1945
 4798SOL     OW15333   5.831   2.803   0.365  0.3940  0.1019  0.5658
 4798SOL    HW115334   5.792   2.883   0.401  0.4925 -0.0315  0.9838
 4798SOL    HW215335   5.924   2.824   0.356  0.2490  0.3756 -0.3027
 4799SOL     OW15336   6.889   5.775   1.918  0.4693  0.4365  0.2349
 4799SOL    HW115337   6.873   5.802   2.008  2.6743  1.6259  0.3446
 4799SOL    HW215338   6.897   5.679   1.923 -0.2815  0.4071  1.1250
 4800SOL     OW15339   5.020   2.604   4.588  0.0238  0.1466  0.1401
 4800SOL    HW115340   4.936   2.600   4.634  0.0354 -0.5950  0.1199
 4800SOL    HW215341   4.997   2.627   4.498 -0.3438 -1.6540 -0.2663
 4801SOL     OW15342   5.210   1.758   3.868  0.2544  0.0673  0.6080
 4801SOL    HW115343   5.275   1.688   3.878 -2.0330 -2.2765  0.0935
 4801SOL    HW215344   5.195   1.763   3.774 -0.6482  0.1880  0.7488
 4802SOL     OW15345   1.886   6.067   2.632  0.3209  0.4135  0.2236
 4802SOL    HW115346   1.911   6.087   2.542  0.8085 -0.4216  0.1658
 4802SOL    HW215347   1.968   6.052   2.678  0.0369 -0.2571  0.5395
 4803SOL     OW15348   3.434   4.624   5.803  0.3956  0.5640 -0.1582
 4803SOL    HW115349   3.431   4.548   5.745 -0.0873  0.1867  0.3652
 4803SOL    HW215350   3.357   4.676   5.779  0.4218  0.6169 -0.1289
 4804SOL     OW15351   1.219   3.385   1.203 -0.0978 -0.6560 -0.3495
 4804SOL    HW115352   1.162   3.448   1.158 -0.0197  0.7074  1.3397
 4804SOL    HW215353   1.308   3.415   1.182 -0.0254  1.4034  2.3730
 4805SOL     OW15354   6.292   4.277   6.444 -0.3198 -0.5169 -0.2600
 4805SOL    HW115355   6.281   4.190   6.481 -1.3567  0.2964  1.4679
 4805SOL    HW215356   6.269   4.268   6.352  1.4422 -2.4265 -0.5912
 4806SOL     OW15357   5.653   0.046   5.515 -0.0258 -0.6627  0.0732
 4806SOL    HW115358   5.725   0.075   5.572  0.6665 -0.3714 -0.9127
 4806SOL    HW215359   5.577   0.042   5.572  0.3553  0.9083  0.7399
 4807SOL     OW15360   2.366   5.691   6.669  0.4731 -0.3540  0.3556
 4807SOL    HW115361   2.376   5.660   6.759 -0.3716  0.4110  0.7372
 4807SOL    HW215362   2.325   5.777   6.678  0.3664 -0.2690 -0.7621
 4808SOL     OW15363   3.824   1.566   5.449  0.0396  0.2069  0.5181
 4808SOL    HW115364   3.789   1.647   5.486  1.2671  2.0345 -1.9754
 4808SOL    HW215365   3.893   1.540   5.509  1.0005  2.2224  0.3878
 4809SOL     OW15366   3.762   0.141   6.751 -0.0746 -0.6037  0.7485
 4809SOL    HW115367   3.779   0.052   6.784  0.6047 -0.5476  0.5600
 4809SOL    HW215368   3.768   0.132   6.656 -0.5599 -0.4670  0.7051
 4810SOL     OW15369   1.112   4.824   3.753  0.1155 -0.3125  0.0409
 4810SOL    HW115370   1.133   4.731   3.756 -1.1894 -0.6471 -0.7158
 4810SOL    HW215371   1.116   4.847   3.660 -3.4973 -0.6120 -0.3247
 4811SOL     OW15372   4.292   4.016   3.788  0.4155  0.4118 -0.3309
 4811SOL    HW115373   4.312   3.928   3.820 -1.0899  0.4867  0.8584
 4811SOL    HW215374   4.352   4.073   3.836 -0.4865  0.3087  0.9633
 4812SOL     OW15375   2.167   3.300   0.675 -0.1373  0.2757 -0.0625
 4812SOL    HW115376   2.189   3.262   0.760  1.6966  0.3216 -0.4784
 4812SOL    HW215377   2.119   3.231   0.629 -1.7847  0.4973  1.2265
 4813SOL     OW15378   3.444   6.204   2.149 -0.1013  0.1641 -0.1429
 4813SOL    HW115379   3.407   6.292   2.146  0.3561  0.3951  0.6906
 4813SOL    HW215380   3.369   6.147   2.168 -0.1429  0.5672  0.9549
 4814SOL     OW15381   1.575   4.540   2.097  0.1379 -0.4107  0.2032
 4814SOL    HW115382   1.523   4.612   2.061 -0.3738 -1.0578 -0.3777
 4814SOL    HW215383   1.664   4.559   2.068  0.2551  0.7121  1.2111
 4815SOL     OW15384   2.059   3.519   1.510  0.1165  0.1796  0.0881
 4815SOL    HW115385   2.094   3.485   1.592 -0.6392 -0.9733 -0.0555
 4815SOL    HW215386   2.106   3.602   1.497  1.6804 -0.5738  0.6616
 4816SOL     OW15387   4.843   2.532   3.600  0.1859 -0.0531  0.5388
 4816SOL    HW115388   4.811   2.452   3.557  0.3817 -0.8181  1.7674
 4816SOL    HW215389   4.933   2.541   3.569 -0.2269  0.4271 -0.5895
 4817SOL     OW15390   4.574   4.675   5.051  0.5302  0.3178  0.4588
 4817SOL    HW115391   4.484   4.648   5.034  0.6883 -0.5397  0.9311
 4817SOL    HW215392   4.623   4.644   4.975  0.6819 -0.6057  0.9204
 4818SOL     OW15393   2.033   6.195   0.234 -0.4596 -0.5715  0.6838
 4818SOL    HW115394   2.100   6.226   0.174 -0.8736 -1.8005 -0.4701
 4818SOL    HW215395   1.966   6.264   0.234  0.5130  0.4115  1.4336
 4819SOL     OW15396   6.008   0.595   0.618  0.1590 -0.2784  0.3183
 4819SOL    HW115397   5.957   0.557   0.691 -1.0225 -0.9986 -0.8394
 4819SOL    HW215398   6.088   0.543   0.615  0.1249 -0.3764  0.9718
 4820SOL     OW15399   3.692   0.322   5.039 -0.1348 -0.1903 -0.5220
 4820SOL    HW115400   3.704   0.280   5.125 -1.2546  0.8363  0.1516
 4820SOL    HW215401   3.780   0.352   5.016 -0.1166  1.2988  1.2273
 4821SOL     OW15402   6.084   0.477   4.967 -0.4445 -0.2590 -0.3741
 4821SOL    HW115403   6.014   0.456   5.028 -0.7458 -1.2092 -1.0295
 4821SOL    HW215404   6.050   0.552   4.917 -1.2855 -1.1331 -1.1425
 4822SOL     OW15405   1.683   4.545   3.124  0.0455  0.2840 -0.9110
 4822SOL    HW115406   1.682   4.478   3.192 -1.9398  0.4103 -0.7594
 4822SOL    HW215407   1.687   4.496   3.041  2.2387  0.1269 -0.7779
 4823SOL     OW15408   6.209   3.680   1.826  0.0227  0.3196  0.1083
 4823SOL    HW115409   6.275   3.634   1.878 -0.0582 -0.9048 -0.8216
 4823SOL    HW215410   6.259   3.722   1.755 -0.1248 -0.1072 -0.2523
 4824SOL     OW15411   2.920   2.502   3.778 -0.2766 -0.0322  0.0726
 4824SOL    HW115412   2.841   2.460   3.812  0.0232  0.1719  1.0526
 4824SOL    HW215413   2.919   2.590   3.816 -0.5863  0.6612 -1.4831
 4825SOL     OW15414   7.209   4.775   7.387  0.2895  0.3884  0.0478
 4825SOL    HW115415   7.304   4.766   7.399  0.2075 -0.2771  0.1936
 4825SOL    HW215416   7.176   4.686   7.383 -0.3716  0.6155  0.2790
 4826SOL     OW15417   6.957   0.519   3.799  0.0745  0.6099  0.0700
 4826SOL    HW115418   6.956   0.443   3.741  0.8973  0.8696 -0.2989
 4826SOL    HW215419   6.889   0.577   3.764 -1.4430 -0.4782  1.1034
 4827SOL     OW15420   5.629   3.893   2.998  0.4610 -0.5385  0.6437
 4827SOL    HW115421   5.662   3.950   2.928  0.4357 -0.0837  0.9943
 4827SOL    HW215422   5.660   3.935   3.078 -1.3743  0.1893  1.0235
 4828SOL     OW15423   3.768   2.855   6.321 -0.2148  0.0601  0.4547
 4828SOL    HW115424   3.764   2.763   6.295 -3.6245  0.7761 -2.2090
 4828SOL    HW215425   3.690   2.869   6.374 -1.2461  1.9067 -1.3966
 4829SOL     OW15426   6.180   0.424   7.122  0.4872  0.4294  0.6000
 4829SOL    HW115427   6.151   0.367   7.193 -2.6752  1.4277  0.2552
 4829SOL    HW215428   6.204   0.506   7.166  0.4172  0.3983  0.6977
 4830SOL     OW15429   5.279   3.174   5.675  0.1271  0.0830  0.1919
 4830SOL    HW115430   5.278   3.116   5.599 -0.2177  0.1223  0.1619
 4830SOL    HW215431   5.250   3.258   5.640 -0.9774 -0.1322  0.5383
 4831SOL     OW15432   0.997   3.911   7.090 -0.1600  0.5153 -0.3039
 4831SOL    HW115433   1.044   3.860   7.157  1.2820  0.6784 -1.1604
 4831SOL    HW215434   0.914   3.864   7.079  0.4939 -0.7683  0.0313
 4832SOL     OW15435   5.802   1.129   2.648  0.3225 -0.0279 -0.6234
 4832SOL    HW115436   5.746   1.169   2.582 -0.8021 -1.9023 -0.8796
 4832SOL    HW215437   5.741   1.088   2.710  1.3836 -0.6597  0.0445
 4833SOL     OW15438   1.513   3.809   2.516 -0.0647 -0.3960 -0.1030
 4833SOL    HW115439   1.526   3.882   2.576  1.9003 -1.0828  0.3748
 4833SOL    HW215440   1.557   3.735   2.557  1.6303 -0.8283 -2.4900
 4834SOL     OW15441   2.553   0.111   4.109  0.4210 -0.3493 -0.3486
 4834SOL    HW115442   2.580   0.187   4.057 -0.4265  0.2216  0.0439
 4834SOL    HW215443   2.631   0.087   4.158  0.3070  1.1737  0.6333
 4835SOL     OW15444   0.973   2.054   2.262  0.4300 -0.0980  0.3948
 4835SOL    HW115445   0.977   1.973   2.211  1.8437  0.1797  0.0323
 4835SOL    HW215446   1.064   2.077   2.279  0.1673  2.3318 -0.9830
 4836SOL     OW15447   3.760   2.451   3.316  0.4571 -0.5458 -0.3405
 4836SOL    HW115448   3.762   2.401   3.398  0.6883  0.3621  0.2277
 4836SOL    HW215449   3.840   2.503   3.318 -0.4620  0.9386 -0.1926
 4837SOL     OW15450   4.202   2.171   1.493 -0.3703 -0.0866  0.7243
 4837SOL    HW115451   4.252   2.097   1.525 -1.0246  0.0183  2.0762
 4837SOL    HW215452   4.230   2.183   1.403  0.1901 -1.5808  0.6859
 4838SOL     OW15453   4.839   1.838   1.208  0.4694  0.0123 -0.3487
 4838SOL    HW115454   4.774   1.902   1.179 -0.3174 -0.9825 -0.8091
 4838SOL    HW215455   4.831   1.836   1.303 -0.4246 -0.3625 -0.4288
 4839SOL     OW15456   7.401   0.061   4.965  0.3375  0.7520 -0.6630
 4839SOL    HW115457   7.332   0.061   5.031  0.6336 -2.4707 -0.2038
 4839SOL    HW215458   7.473   0.108   5.006 -0.2447  0.7139  0.4493
 4840SOL     OW15459   2.479   2.990   0.827 -0.3804  0.5338 -0.1265
 4840SOL    HW115460   2.528   2.959   0.904 -0.2659  0.5616 -0.1872
 4840SOL    HW215461   2.391   3.009   0.860 -0.4659  0.0966 -0.0957
 4841SOL     OW15462   0.709   3.640   6.652 -0.7149 -0.3162 -0.7754
 4841SOL    HW115463   0.746   3.567   6.603 -0.9605 -1.2151  0.3409
 4841SOL    HW215464   0.771   3.653   6.725 -2.3092 -1.5852  0.9017
 4842SOL     OW15465   5.806   1.677   2.827 -0.4799 -0.7997  0.1728
 4842SOL    HW115466   5.892   1.644   2.851 -0.0900 -1.7145 -2.2904
 4842SOL    HW215467   5.823   1.745   2.762 -1.6181 -1.8747 -1.3095
 4843SOL     OW15468   2.161   1.453   5.090 -0.1762  0.0411  0.4936
 4843SOL    HW115469   2.173   1.379   5.031  0.3671  0.9920 -0.6498
 4843SOL    HW215470   2.211   1.524   5.049 -1.7754  1.4206  0.8149
 4844SOL     OW15471   3.114   4.734   0.690  0.0806 -0.2772 -0.3043
 4844SOL    HW115472   3.087   4.672   0.622 -1.3155 -0.7610  0.6424
 4844SOL    HW215473   3.036   4.788   0.704  0.4796  0.0614  0.6367
 4845SOL     OW15474   5.186   1.776   7.411 -0.4658  0.7241 -0.1660
 4845SOL    HW115475   5.110   1.722   7.432 -0.8372  1.4192  0.3274
 4845SOL    HW215476   5.257   1.740   7.464 -0.0062 -0.9323 -1.7899
 4846SOL     OW15477   1.916   1.526   7.041  0.3028 -0.2805 -0.0094
 4846SOL    HW115478   1.988   1.553   7.098  0.9630 -1.2153 -0.3892
 4846SOL    HW215479   1.913   1.431   7.047  0.8952 -0.4887 -2.1179
 4847SOL     OW15480   5.832   4.625   3.156 -0.0202  0.1130  0.3548
 4847SOL    HW115481   5.794   4.702   3.199 -0.3101  0.5640 -0.6698
 4847SOL    HW215482   5.926   4.639   3.161 -0.0863  0.9177 -0.4786
 4848SOL     OW15483   7.138   1.388   6.380  0.1652 -0.0655 -0.3490
 4848SOL    HW115484   7.181   1.380   6.295  0.4294  2.3227 -0.5219
 4848SOL    HW215485   7.205   1.429   6.436 -0.7368  0.4755  0.3584
 4849SOL     OW15486   1.658   3.703   5.347  1.0854  0.3756  0.3398
 4849SOL    HW115487   1.596   3.741   5.286  1.7263  1.2392  0.2116
 4849SOL    HW215488   1.661   3.610   5.323 -0.3429  0.2598  0.5353
 4850SOL     OW15489   4.570   3.905   1.760  0.4964 -0.2859  0.3342
 4850SOL    HW115490   4.476   3.907   1.776  0.1813 -0.6072 -1.3156
 4850SOL    HW215491   4.609   3.888   1.846 -1.0915 -2.5218  0.6940
 4851SOL     OW15492   2.111   3.869   5.449 -0.6398  0.2573 -0.4603
 4851SOL    HW115493   2.121   3.962   5.428 -0.8042  0.5744  0.7879
 4851SOL    HW215494   2.063   3.833   5.374  0.1390  0.9937 -1.3400
 4852SOL     OW15495   4.972   4.098   5.041 -0.1751  0.3765 -0.0407
 4852SOL    HW115496   4.931   4.101   5.127  1.0151 -0.7261  0.5989
 4852SOL    HW215497   5.037   4.029   5.048  0.5172  0.8287 -1.5802
 4853SOL     OW15498   5.712   4.157   3.069 -0.0862 -0.5191 -0.4124
 4853SOL    HW115499   5.700   4.228   3.132 -0.5415 -1.8724  1.0820
 4853SOL    HW215500   5.647   4.173   3.001 -1.0284 -0.1878  0.5489
 4854SOL     OW15501   1.255   4.114   4.097  0.4420  0.6122  0.4781
 4854SOL    HW115502   1.298   4.167   4.164 -1.2533  1.7940  0.6774
 4854SOL    HW215503   1.176   4.081   4.138  1.9302 -3.2129  0.7753
 4855SOL     OW15504   4.928   0.761   0.929  0.2670 -0.0708  0.7904
 4855SOL    HW115505   4.844   0.715   0.929  0.9919 -1.4624  1.5599
 4855SOL    HW215506   4.916   0.834   0.989 -0.0089 -1.0403  1.9436
 4856SOL     OW15507   4.575   1.580   6.330 -0.4091 -0.3082  0.4019
 4856SOL    HW115508   4.566   1.635   6.253  0.4509 -0.7848 -0.0454
 4856SOL    HW215509   4.488   1.543   6.343 -0.1550 -1.6391 -1.4144
 4857SOL     OW15510   2.631   3.729   6.761 -0.0996 -0.1987  0.4649
 4857SOL    HW115511   2.569   3.792   6.798 -1.5009 -1.4036  0.2699
 4857SOL    HW215512   2.594   3.707   6.675  0.9275 -0.4996  0.0845
 4858SOL     OW15513   3.282   3.803   4.913  0.3687 -0.1368  0.1111
 4858SOL    HW115514   3.340   3.867   4.955  1.6968 -0.9309 -0.4448
 4858SOL    HW215515   3.297   3.814   4.819 -0.7297 -0.0675 -0.0727
 4859SOL     OW15516   1.714   5.979   2.181 -0.1394  0.0711 -0.2454
 4859SOL    HW115517   1.715   6.074   2.198  0.5916  0.3532 -1.7564
 4859SOL    HW215518   1.806   5.953   2.184 -0.3285 -0.5861  0.0336
 4860SOL     OW15519   6.850   6.160   3.332  0.1347  0.0098 -0.1440
 4860SOL    HW115520   6.799   6.167   3.251  2.8723  1.8680 -1.8761
 4860SOL    HW215521   6.802   6.213   3.395 -0.2654  1.4964 -1.6301
 4861SOL     OW15522   7.194   4.038   3.508 -0.3510 -0.0051  0.2851
 4861SOL    HW115523   7.267   3.982   3.535 -1.0027 -1.2189 -0.3822
 4861SOL    HW215524   7.149   3.987   3.440 -2.4793  0.2004  1.4485
 4862SOL     OW15525   5.548   6.714   6.993  0.5180  0.1941  0.0371
 4862SOL    HW115526   5.554   6.623   7.022  0.2990 -0.5429 -2.0586
 4862SOL    HW215527   5.460   6.742   7.018  0.4311 -0.3174  0.3207
 4863SOL     OW15528   3.892   4.769   4.085  0.1019 -0.1659  0.3244
 4863SOL    HW115529   3.965   4.715   4.055  1.0526  0.0133  2.1735
 4863SOL    HW215530   3.819   4.707   4.097 -0.4077 -0.2070 -2.4174
 4864SOL     OW15531   0.023   3.370   5.908 -0.3386  0.0762 -0.0885
 4864SOL    HW115532   0.108   3.333   5.935 -0.6155 -1.8259 -1.6016
 4864SOL    HW215533  -0.036   3.348   5.980  0.0382 -0.3342  0.1072
 4865SOL     OW15534   3.237   5.287   1.471  0.1333  0.6538  0.2555
 4865SOL    HW115535   3.278   5.315   1.553  1.2137 -0.1054 -0.0102
 4865SOL    HW215536   3.178   5.216   1.496  1.4470 -0.4762  0.2208
 4866SOL     OW15537   5.110   5.439   1.830 -0.1126 -0.1158 -0.2142
 4866SOL    HW115538   5.120   5.534   1.826  0.3812 -0.1487  0.1227
 4866SOL    HW215539   5.016   5.426   1.846 -0.0929  0.3308  0.3059
 4867SOL     OW15540   0.743   4.904   2.668 -0.1046 -0.3224 -0.4426
 4867SOL    HW115541   0.779   4.953   2.742 -0.0781 -1.5769  0.4214
 4867SOL    HW215542   0.650   4.894   2.688 -0.0348 -0.9493 -0.3913
 4868SOL     OW15543   7.294   5.978   1.886 -0.0842 -0.0757 -0.0772
 4868SOL    HW115544   7.275   5.904   1.829  0.9955 -0.9533  0.6718
 4868SOL    HW215545   7.223   5.978   1.951 -0.1720 -0.3475 -0.1737
 4869SOL     OW15546   0.396   0.742   3.992  0.6784  0.6606  0.3406
 4869SOL    HW115547   0.455   0.811   3.963  1.3049 -0.7952 -2.1743
 4869SOL    HW215548   0.439   0.661   3.964 -2.3281 -0.4957 -1.3844
 4870SOL     OW15549   2.636   0.887   0.161 -0.0564  0.0009  0.0386
 4870SOL    HW115550   2.656   0.910   0.251 -0.1152  1.1536 -0.2295
 4870SOL    HW215551   2.708   0.923   0.110 -0.9084  0.9130 -0.5481
 4871SOL     OW15552   1.525   5.680   1.151 -0.2693  0.0160 -0.4633
 4871SOL    HW115553   1.538   5.664   1.057  1.1934  2.4751 -0.7462
 4871SOL    HW215554   1.533   5.774   1.161 -1.1966 -0.1072  2.0532
 4872SOL     OW15555   1.736   4.008   0.824  0.0531  0.1212 -0.6284
 4872SOL    HW115556   1.831   4.000   0.813  0.0407 -2.5381  0.3883
 4872SOL    HW215557   1.711   4.078   0.764  2.4923  0.0719 -1.8592
 4873SOL     OW15558   4.454   3.291   6.682 -0.0348 -0.3117  0.7837
 4873SOL    HW115559   4.488   3.215   6.635 -0.2619  1.2182 -2.0653
 4873SOL    HW215560   4.519   3.309   6.750  1.6971 -1.1472 -0.5753
 4874SOL     OW15561   5.590   6.714   3.844 -0.1771  0.1342 -0.0510
 4874SOL    HW115562   5.649   6.651   3.887  0.0582 -0.8810 -1.7691
 4874SOL    HW215563   5.612   6.798   3.883  0.1792 -0.6976  1.6244
 4875SOL     OW15564   0.110   1.268   6.993  0.6278 -0.5035  0.0172
 4875SOL    HW115565   0.177   1.273   6.924  0.1231 -1.5632 -0.5863
 4875SOL    HW215566   0.152   1.307   7.070  0.6500  2.2014 -1.2594
 4876SOL     OW15567   3.873   6.425   3.520  0.6797  0.1472 -0.0189
 4876SOL    HW115568   3.927   6.365   3.573 -0.8666 -1.2968  0.0331
 4876SOL    HW215569   3.841   6.490   3.583 -0.8812 -1.3693  0.8540
 4877SOL     OW15570   3.770   4.186   0.074  0.2395 -0.5633  0.5445
 4877SOL    HW115571   3.797   4.257   0.017 -0.7156 -0.5859  0.0459
 4877SOL    HW215572   3.746   4.228   0.157  1.0653 -0.4723  0.7463
 4878SOL     OW15573   1.282   2.096   4.888 -0.6019  0.2344  0.4552
 4878SOL    HW115574   1.337   2.167   4.924 -1.9461  1.6296 -0.1287
 4878SOL    HW215575   1.307   2.091   4.796 -0.0914 -0.4909  0.6239
 4879SOL     OW15576   1.250   4.931   0.575  0.2620  0.4319  0.0271
 4879SOL    HW115577   1.317   4.882   0.621 -0.9958 -0.7155  0.7162
 4879SOL    HW215578   1.175   4.871   0.572 -0.6758  1.6080 -0.8502
 4880SOL     OW15579   0.265   2.666   4.195 -0.5985 -0.3907 -0.2824
 4880SOL    HW115580   0.296   2.703   4.277 -1.5540 -0.6640  0.2183
 4880SOL    HW215581   0.229   2.741   4.147  1.5294  0.0870 -1.2452
 4881SOL     OW15582   5.802   5.664   7.206 -0.3165 -0.9658 -0.5141
 4881SOL    HW115583   5.897   5.657   7.206 -0.1786  0.4456 -1.5672
 4881SOL    HW215584   5.773   5.604   7.137 -0.2839 -2.1070  0.4401
 4882SOL     OW15585   6.007   2.292   5.182  0.6739 -0.5851  0.2688
 4882SOL    HW115586   5.958   2.311   5.102  1.4793 -1.8467 -0.5613
 4882SOL    HW215587   6.092   2.334   5.168  0.5412 -0.1206  0.8284
 4883SOL     OW15588   5.069   5.387   5.076  0.1122 -0.1726  0.1059
 4883SOL    HW115589   5.120   5.423   5.149 -1.0085 -0.4401  1.0639
 4883SOL    HW215590   5.120   5.408   4.998  0.0429  2.5676  0.6928
 4884SOL     OW15591   3.848   6.528   6.242  0.1840  0.2118  0.1407
 4884SOL    HW115592   3.927   6.475   6.247 -0.7195 -1.0971  1.1090
 4884SOL    HW215593   3.776   6.465   6.246 -0.9213  1.4542  0.6062
 4885SOL     OW15594   1.700   4.788   4.348  0.5926  0.6519 -0.0068
 4885SOL    HW115595   1.794   4.776   4.333  0.1547 -0.2655 -2.3580
 4885SOL    HW215596   1.658   4.722   4.293 -1.4904  2.4060 -0.6458
 4886SOL     OW15597   2.950   6.586   5.865  0.2666 -0.1250 -0.1561
 4886SOL    HW115598   3.015   6.608   5.798  1.2818  0.6528  1.0523
 4886SOL    HW215599   2.939   6.491   5.857  0.8763 -0.1409 -0.9647
 4887SOL     OW15600   4.729   6.591   2.530 -0.1215  0.9412  0.4902
 4887SOL    HW115601   4.732   6.684   2.504 -1.3976  1.2144  1.2532
 4887SOL    HW215602   4.675   6.590   2.609 -0.6802 -0.5428  0.1091
 4888SOL     OW15603   3.061   6.034   4.379 -0.0591  0.0338  0.0393
 4888SOL    HW115604   3.103   6.115   4.348 -0.6510  1.0348  1.7198
 4888SOL    HW215605   3.052   5.980   4.300 -0.5518  2.0078 -1.3384
 4889SOL     OW15606   0.241   3.534   0.064  0.0884 -0.2282 -0.1685
 4889SOL    HW115607   0.237   3.505  -0.027  0.5998  2.8664 -1.2883
 4889SOL    HW215608   0.150   3.533   0.093 -0.0857 -1.1968 -0.6985
 4890SOL     OW15609   3.046   5.042   3.688  0.5562 -0.5548 -0.0419
 4890SOL    HW115610   3.061   4.986   3.765 -0.1122 -1.0292 -0.2455
 4890SOL    HW215611   3.093   4.999   3.617  0.5526 -0.5228 -0.0638
 4891SOL     OW15612   5.534   1.425   7.314  0.0966  0.4580 -0.2395
 4891SOL    HW115613   5.447   1.450   7.283 -0.5685 -0.1762  1.0425
 4891SOL    HW215614   5.523   1.336   7.348  0.7076  1.1615  1.9694
 4892SOL     OW15615   2.316   4.148   5.113 -0.0189 -0.2929 -0.0995
 4892SOL    HW115616   2.223   4.128   5.123 -0.1235 -0.2034 -0.8393
 4892SOL    HW215617   2.324   4.240   5.135 -0.1059 -0.3019 -0.0329
 4893SOL     OW15618   6.783   2.078   6.716  0.6744 -0.0574 -0.4233
 4893SOL    HW115619   6.765   2.022   6.641  1.2712 -2.3489  1.0585
 4893SOL    HW215620   6.843   2.028   6.771 -0.0931  1.3059  1.8303
 4894SOL     OW15621   6.210   6.021   5.658 -0.0980 -0.0528 -0.4520
 4894SOL    HW115622   6.182   6.112   5.663 -0.9658 -0.3669  1.1819
 4894SOL    HW215623   6.231   6.007   5.566  0.1471  1.8140 -0.7172
 4895SOL     OW15624   6.070   7.310   4.540 -0.3575 -0.4011 -0.4594
 4895SOL    HW115625   6.096   7.286   4.451 -1.9883 -2.0364 -0.5514
 4895SOL    HW215626   5.986   7.355   4.529  0.1058  0.6336  0.1546
 4896SOL     OW15627   2.123   0.584   0.725 -0.2107 -0.3050  0.0838
 4896SOL    HW115628   2.039   0.614   0.761 -0.4595 -2.5831  1.6290
 4896SOL    HW215629   2.126   0.623   0.637 -3.1606 -0.5517 -0.2492
 4897SOL     OW15630   4.377   3.060   0.638  0.3313 -0.4634 -0.0655
 4897SOL    HW115631   4.310   3.063   0.707  1.3365 -0.2679  0.9347
 4897SOL    HW215632   4.342   3.117   0.569 -0.0574  0.5161  0.9001
 4898SOL     OW15633   0.659   1.895   4.030 -0.5715 -0.0049 -0.1811
 4898SOL    HW115634   0.663   1.801   4.047  0.7359  0.3311  1.6878
 4898SOL    HW215635   0.750   1.920   4.013 -0.9344  0.8981 -0.8757
 4899SOL     OW15636   3.091   4.466   0.818  0.3299  0.0966  0.4829
 4899SOL    HW115637   3.161   4.406   0.792  0.6224  0.8937 -0.6508
 4899SOL    HW215638   3.133   4.552   0.819 -0.6338  0.5909 -0.2574
 4900SOL     OW15639   5.533   1.532   5.544 -0.5831 -0.1441  1.0798
 4900SOL    HW115640   5.469   1.480   5.495 -0.7512  0.7374  0.3438
 4900SOL    HW215641   5.607   1.472   5.556 -0.0600 -0.0588 -1.2744
 4901SOL     OW15642   2.556   3.335   6.832  0.1053 -0.4157  0.4829
 4901SOL    HW115643   2.466   3.320   6.861 -0.3902  1.2810 -0.0220
 4901SOL    HW215644   2.550   3.413   6.776  1.8391 -0.4674  0.1664
 4902SOL     OW15645   6.238   1.792   4.878  0.0180  0.6848 -0.0096
 4902SOL    HW115646   6.331   1.779   4.858 -0.0859 -0.6587  0.3161
 4902SOL    HW215647   6.197   1.708   4.857 -0.9594  0.9442  0.8073
 4903SOL     OW15648   5.437   4.690   1.827 -0.5062 -0.3158 -0.4609
 4903SOL    HW115649   5.403   4.780   1.829 -1.4443 -0.6611 -0.6336
 4903SOL    HW215650   5.373   4.639   1.877 -0.1435 -0.9470 -0.6369
 4904SOL     OW15651   6.576   0.162   0.758  0.1327  0.2441 -0.1949
 4904SOL    HW115652   6.612   0.085   0.803  0.4047  2.0471  2.9486
 4904SOL    HW215653   6.575   0.137   0.666  2.3584 -2.6875  0.4128
 4905SOL     OW15654   1.520   7.418   0.895  0.4162  0.7687 -0.6180
 4905SOL    HW115655   1.461   7.367   0.840  1.0525 -0.6384 -0.0478
 4905SOL    HW215656   1.470   7.496   0.919 -1.3851 -0.5978  0.2406
 4906SOL     OW15657   0.225   1.918   5.063  0.4070 -0.1348 -0.3052
 4906SOL    HW115658   0.153   1.981   5.058 -0.2770 -0.9400 -1.1570
 4906SOL    HW215659   0.299   1.963   5.023  0.3476  0.6522  0.4394
 4907SOL     OW15660   2.401   3.012   4.370  0.3028  0.6632 -0.0839
 4907SOL    HW115661   2.329   3.018   4.431  0.7775  1.2120  0.4321
 4907SOL    HW215662   2.411   2.918   4.354  0.7916  0.4300  1.4389
 4908SOL     OW15663   4.713   1.355   6.828  0.0846  0.1254 -0.0132
 4908SOL    HW115664   4.695   1.261   6.822  1.1053 -0.0888  0.2011
 4908SOL    HW215665   4.664   1.384   6.905  0.4003 -0.3922  0.3892
 4909SOL     OW15666   1.093   0.763   1.863 -0.4905 -0.7304 -0.6806
 4909SOL    HW115667   1.004   0.776   1.833 -0.7738 -1.9851 -0.4663
 4909SOL    HW215668   1.094   0.672   1.895  0.5500 -0.3656  0.3838
 4910SOL     OW15669   2.013   0.189   5.033  0.2268  0.1796  0.5136
 4910SOL    HW115670   1.949   0.250   4.996 -0.9688 -0.2981  1.7153
 4910SOL    HW215671   2.069   0.244   5.089  0.0297  0.4006  0.4975
 4911SOL     OW15672   0.829   4.620   3.339  0.5711 -0.4865  0.3221
 4911SOL    HW115673   0.880   4.550   3.297 -0.3915 -0.7587 -0.4244
 4911SOL    HW215674   0.766   4.575   3.394  0.4711 -0.1841  0.4594
 4912SOL     OW15675   3.075   5.094   0.563  0.3678 -0.3051  0.2279
 4912SOL    HW115676   3.113   5.148   0.633 -0.6907 -1.2789  1.6113
 4912SOL    HW215677   3.140   5.098   0.492  1.9859 -0.1279  1.6406
 4913SOL     OW15678   0.985   2.252   7.075 -0.3054  0.0017 -0.4165
 4913SOL    HW115679   0.998   2.160   7.055  1.8235  0.5519 -1.9425
 4913SOL    HW215680   0.975   2.295   6.990 -0.9097  1.2388  0.2384
 4914SOL     OW15681   0.664   6.220   1.290  0.2614  0.1067 -0.0406
 4914SOL    HW115682   0.646   6.312   1.271 -1.7559 -0.3259 -0.4124
 4914SOL    HW215683   0.759   6.215   1.297  0.4534  2.0578 -0.7992
 4915SOL     OW15684   1.053   0.776   3.660  0.3462 -0.1172  0.0360
 4915SOL    HW115685   1.103   0.788   3.740 -0.2876  1.2696  0.2543
 4915SOL    HW215686   1.113   0.801   3.590  0.5241 -0.1679  0.1712
 4916SOL     OW15687   0.273   0.867   7.371 -0.3302  0.4170 -0.1348
 4916SOL    HW115688   0.220   0.816   7.311  0.8140  0.0105 -0.8337
 4916SOL    HW215689   0.334   0.803   7.409 -0.2043  0.9028  0.4973
 4917SOL     OW15690   5.177   1.455   1.701 -0.3517  0.1538 -0.0218
 4917SOL    HW115691   5.227   1.533   1.674 -0.2582  0.3911  0.8134
 4917SOL    HW215692   5.162   1.467   1.795 -0.0429 -0.9962  0.1972
 4918SOL     OW15693   3.346   6.579   0.261  0.7274  0.1135 -0.6695
 4918SOL    HW115694   3.384   6.662   0.235  2.1384 -0.4276 -0.4173
 4918SOL    HW215695   3.391   6.555   0.342 -1.5459  0.3634  0.7635
 4919SOL     OW15696   6.434   4.873   3.716  0.0458  0.7767  0.1971
 4919SOL    HW115697   6.529   4.866   3.707 -0.0941  0.5491 -1.1848
 4919SOL    HW215698   6.400   4.797   3.671 -0.8882  2.2200 -1.6458
 4920SOL     OW15699   2.946   1.734   3.301  0.0868  0.2777 -0.4215
 4920SOL    HW115700   2.858   1.712   3.334 -0.1748 -0.6662 -1.6913
 4920SOL    HW215701   2.982   1.792   3.368 -1.0449 -0.2731  0.7109
 4921SOL     OW15702   0.315   1.873   3.171 -0.1432 -0.1434  0.2457
 4921SOL    HW115703   0.309   1.815   3.095 -2.1720  0.7278 -0.3355
 4921SOL    HW215704   0.226   1.880   3.204  0.6550 -0.3596  2.6652
 4922SOL     OW15705   3.244   5.959   6.776 -0.3745  0.4158  0.0693
 4922SOL    HW115706   3.310   5.986   6.712 -0.5952  2.5540  0.6463
 4922SOL    HW215707   3.168   5.935   6.724  0.5880 -1.4250 -0.5765
 4923SOL     OW15708   1.707   0.205   1.186 -0.4323 -0.0971 -0.0881
 4923SOL    HW115709   1.711   0.293   1.223  0.4599  0.2338 -0.9436
 4923SOL    HW215710   1.619   0.199   1.148 -0.4103  0.5168 -0.2399
 4924SOL     OW15711   4.375   5.224   1.403 -0.9776 -0.3363  0.1092
 4924SOL    HW115712   4.297   5.169   1.397 -1.3288  0.1775 -0.1554
 4924SOL    HW215713   4.342   5.310   1.427 -0.1633 -0.8894  3.7428
 4925SOL     OW15714   2.311   2.528   2.798  0.0796  0.5640  0.3489
 4925SOL    HW115715   2.306   2.548   2.891 -0.9502 -0.7276  0.6013
 4925SOL    HW215716   2.361   2.446   2.793 -1.9323 -0.7120  0.0227
 4926SOL     OW15717   5.751   3.471   0.132 -0.5542  0.3862  0.1968
 4926SOL    HW115718   5.706   3.438   0.054 -0.7587 -0.7539  0.7766
 4926SOL    HW215719   5.683   3.476   0.199  0.0032 -0.5697  0.8534
 4927SOL     OW15720   2.569   5.149   5.869  0.5985 -0.0869  0.1969
 4927SOL    HW115721   2.609   5.131   5.784  1.4039 -0.0575  0.5557
 4927SOL    HW215722   2.623   5.218   5.907  0.9915 -0.9254  1.2279
 4928SOL     OW15723   7.219   1.174   4.304  0.3486 -0.1740  0.6549
 4928SOL    HW115724   7.166   1.226   4.244  1.1749  1.4305  1.2596
 4928SOL    HW215725   7.185   1.085   4.295  0.3896 -0.0183 -2.1373
 4929SOL     OW15726   4.212   2.613   4.925 -0.4147 -0.1350  0.4007
 4929SOL    HW115727   4.167   2.677   4.979 -1.0950 -0.3584  0.1142
 4929SOL    HW215728   4.276   2.572   4.984  1.3678  2.0793  0.1150
 4930SOL     OW15729   0.451   3.553   3.174 -0.5620  0.3296  0.5903
 4930SOL    HW115730   0.528   3.496   3.179 -0.7216  0.1728  1.5088
 4930SOL    HW215731   0.378   3.492   3.160 -0.7020  0.3173  1.3198
 4931SOL     OW15732   4.324   0.297   4.937 -0.0980 -0.0333 -0.3565
 4931SOL    HW115733   4.254   0.274   4.998 -0.2580  1.5089  0.1007
 4931SOL    HW215734   4.404   0.265   4.979 -0.3576 -0.2176  0.0037
 4932SOL     OW15735   1.605   1.360   7.103 -0.3021 -0.0569 -0.2401
 4932SOL    HW115736   1.667   1.317   7.044  0.7754  0.8852  0.1626
 4932SOL    HW215737   1.606   1.452   7.077  0.1680  0.3779  1.1868
 4933SOL     OW15738   0.695   4.757   5.412 -0.7169 -0.8375  0.0414
 4933SOL    HW115739   0.675   4.794   5.326  1.4160  1.7722  0.5233
 4933SOL    HW215740   0.715   4.665   5.395  0.2217 -0.2651 -2.3608
 4934SOL     OW15741   2.518   1.550   7.314  0.1995  0.3469  0.5202
 4934SOL    HW115742   2.504   1.480   7.250  1.3524 -1.1594  1.8642
 4934SOL    HW215743   2.549   1.624   7.262 -0.1173 -0.4188 -0.8047
 4935SOL     OW15744   5.388   2.813   6.379  0.0147 -0.2243  0.5216
 4935SOL    HW115745   5.437   2.732   6.389  0.2624 -0.4683 -1.9556
 4935SOL    HW215746   5.452   2.876   6.345 -1.1231 -0.4191 -2.3170
 4936SOL     OW15747   3.273   1.993   6.723 -0.1749  0.5874 -0.3618
 4936SOL    HW115748   3.361   2.019   6.749 -0.3249  0.1468  0.6373
 4936SOL    HW215749   3.284   1.949   6.639  0.3690  1.7788 -0.9328
 4937SOL     OW15750   1.716   7.296   5.449 -0.3108 -0.0898  0.1140
 4937SOL    HW115751   1.747   7.289   5.359  0.7828 -0.0142  0.4725
 4937SOL    HW215752   1.778   7.245   5.500  0.2603  1.4871  1.0734
 4938SOL     OW15753   0.591   1.564   4.395  0.3980 -0.5604 -0.3843
 4938SOL    HW115754   0.507   1.542   4.434 -0.0691 -0.3265 -1.2269
 4938SOL    HW215755   0.631   1.480   4.373  0.2142 -0.6606 -0.3325
 4939SOL     OW15756   2.025   4.726   5.169  0.2837  0.2283  0.2834
 4939SOL    HW115757   1.959   4.727   5.238  1.6691  0.5815  1.6681
 4939SOL    HW215758   2.004   4.801   5.114 -0.1909  0.6110  0.9739
 4940SOL     OW15759   3.764   0.622   6.405 -0.2806 -0.0986 -0.1713
 4940SOL    HW115760   3.843   0.665   6.439 -0.9704  1.8175 -0.8662
 4940SOL    HW215761   3.775   0.623   6.310 -0.7926 -0.5434 -0.2385
 4941SOL     OW15762   1.644   6.966   6.341  0.1948 -0.2346 -0.0204
 4941SOL    HW115763   1.583   6.913   6.289  1.6817 -0.0459 -2.0548
 4941SOL    HW215764   1.731   6.937   6.313  1.0701  0.4998  1.7828
 4942SOL     OW15765   1.966   1.226   2.733 -0.3561  0.1765 -0.1204
 4942SOL    HW115766   1.891   1.183   2.774  0.2981 -1.7785 -0.8303
 4942SOL    HW215767   2.028   1.155   2.717  1.0508  1.5125 -0.8624
 4943SOL     OW15768   2.757   1.837   5.815  0.3061 -0.0018 -0.4619
 4943SOL    HW115769   2.761   1.910   5.753 -0.2764 -1.2886 -2.0972
 4943SOL    HW215770   2.702   1.772   5.772  0.1486 -1.0984  1.2972
 4944SOL     OW15771   6.099   3.720   7.015  0.5621 -0.2727  0.2530
 4944SOL    HW115772   6.157   3.785   6.976 -0.2142 -0.2232 -0.8357
 4944SOL    HW215773   6.106   3.736   7.109  1.2321  0.6426  0.0608
 4945SOL     OW15774   0.471   3.501   0.540  0.3569  0.3237 -0.2464
 4945SOL    HW115775   0.430   3.559   0.477  0.1802  0.6105  0.1266
 4945SOL    HW215776   0.417   3.508   0.619 -0.9217 -1.9750 -0.8302
 4946SOL     OW15777   2.919   6.741   3.776 -0.6568  0.0158  1.1494
 4946SOL    HW115778   2.971   6.661   3.767 -2.0624 -0.9690  1.4454
 4946SOL    HW215779   2.971   6.809   3.734 -0.4203 -1.4981 -1.1353
 4947SOL     OW15780   0.541   5.964   2.292  0.1604  0.5543 -0.0161
 4947SOL    HW115781   0.568   5.874   2.274 -1.0317  0.5445 -2.1525
 4947SOL    HW215782   0.521   5.965   2.385  1.0259 -1.1584  0.2259
 4948SOL     OW15783   3.062   0.832   1.398  0.2049  0.4587  0.2102
 4948SOL    HW115784   3.150   0.804   1.423 -0.2799 -0.6730  0.7408
 4948SOL    HW215785   3.005   0.764   1.433 -0.8938  1.2303 -0.0391
 4949SOL     OW15786   2.355   2.920   3.770 -0.3340  0.3464  0.3192
 4949SOL    HW115787   2.287   2.972   3.727  0.8458  0.5111 -1.4335
 4949SOL    HW215788   2.370   2.847   3.711  1.5729  0.7456  0.2610
 4950SOL     OW15789   2.656   6.272   1.728  0.2666  0.1241 -0.3353
 4950SOL    HW115790   2.674   6.336   1.660  0.4801 -1.0020 -1.3625
 4950SOL    HW215791   2.742   6.250   1.764  0.4467 -1.2209 -1.5213
 4951SOL     OW15792   5.937   4.002   6.913 -1.2076  0.4618 -0.0701
 4951SOL    HW115793   5.959   3.977   6.823 -2.0622  0.8094 -0.3799
 4951SOL    HW215794   5.865   3.944   6.937 -0.3453 -0.3091  0.7587
 4952SOL     OW15795   2.063   6.615   5.534  0.1181 -0.2057 -0.7947
 4952SOL    HW115796   2.043   6.593   5.625 -1.2221 -0.7758 -1.1945
 4952SOL    HW215797   2.093   6.706   5.537  1.2544 -0.5925  0.3380
 4953SOL     OW15798   0.221   4.708   4.462  0.4591 -0.4321 -0.1402
 4953SOL    HW115799   0.144   4.748   4.421  2.0970  2.6356 -0.5336
 4953SOL    HW215800   0.259   4.654   4.393 -0.2502 -0.3893 -0.5761
 4954SOL     OW15801   2.947   4.600   5.558  0.7540  0.4908 -0.3705
 4954SOL    HW115802   2.955   4.624   5.466 -2.5438  0.2804 -0.8103
 4954SOL    HW215803   2.924   4.681   5.603 -1.2677 -0.0319 -0.3789
 4955SOL     OW15804   4.034   5.923   2.215 -0.2689  0.2329  0.3529
 4955SOL    HW115805   4.110   5.980   2.202 -1.1508  1.2731 -0.4435
 4955SOL    HW215806   4.052   5.847   2.159  1.8898 -1.3777  2.9725
 4956SOL     OW15807   4.225   0.529   0.015  0.0124  0.0479 -0.7689
 4956SOL    HW115808   4.210   0.437   0.035 -0.4784  0.4671  0.9026
 4956SOL    HW215809   4.257   0.529  -0.076  0.0621 -1.7528 -0.7774
 4957SOL     OW15810   6.368   2.930   4.963 -0.1652 -0.4151 -0.0923
 4957SOL    HW115811   6.455   2.897   4.985 -0.7532 -1.3814  0.8435
 4957SOL    HW215812   6.355   3.003   5.024 -0.5233 -1.0928  0.6534
 4958SOL     OW15813   5.218   0.746   0.001 -0.2469  0.3652 -0.8043
 4958SOL    HW115814   5.256   0.823   0.043 -1.1498  1.1962 -1.4249
 4958SOL    HW215815   5.259   0.743  -0.086 -0.9323  0.7661 -1.1578
 4959SOL     OW15816   4.002   2.149   5.797  0.1797  0.4534  0.5892
 4959SOL    HW115817   4.048   2.096   5.862 -0.4031  0.1313  0.7482
 4959SOL    HW215818   4.039   2.237   5.806  1.3766  0.0094  0.1049
 4960SOL     OW15819   7.427   1.160   3.226  0.3572  0.3380 -0.0121
 4960SOL    HW115820   7.519   1.140   3.209  0.6282  1.7112 -0.2123
 4960SOL    HW215821   7.409   1.118   3.310  0.5207 -1.8381 -0.9841
 4961SOL     OW15822   0.986   4.816   4.689 -0.3936  0.2614  0.5855
 4961SOL    HW115823   0.986   4.899   4.642 -1.3019  0.0797  0.2426
 4961SOL    HW215824   0.912   4.821   4.748 -2.3927 -1.4250 -1.5649
 4962SOL     OW15825   4.517   6.162   2.872  0.3373  0.4812 -0.6961
 4962SOL    HW115826   4.476   6.140   2.956 -0.9947 -4.2139 -2.2670
 4962SOL    HW215827   4.610   6.175   2.894 -0.0378 -0.1263  1.5607
 4963SOL     OW15828   2.658   4.062   1.842  0.0043  0.0566 -0.5581
 4963SOL    HW115829   2.608   4.077   1.922  0.9637 -0.9374  0.2502
 4963SOL    HW215830   2.593   4.031   1.778 -0.7204  0.6115 -0.1031
 4964SOL     OW15831   2.235   3.957   0.464 -0.7471  0.0400  0.4730
 4964SOL    HW115832   2.187   4.014   0.525 -1.1419  0.8409 -0.5495
 4964SOL    HW215833   2.323   3.951   0.501 -1.5416 -1.3400  2.3123
 4965SOL     OW15834   4.568   6.586   3.609  0.1220 -0.0846 -0.1581
 4965SOL    HW115835   4.655   6.546   3.604 -0.9827 -2.5953 -1.5453
 4965SOL    HW215836   4.515   6.533   3.549 -2.8696  0.0198  2.1823
 4966SOL     OW15837   4.276   0.279   0.853  0.2680 -0.1005 -0.3451
 4966SOL    HW115838   4.216   0.266   0.926  0.2388  1.9417  0.0628
 4966SOL    HW215839   4.237   0.230   0.780 -1.1734  0.0700  0.2820
 4967SOL     OW15840   1.926   3.732   7.296  0.1594 -0.0074 -0.0132
 4967SOL    HW115841   1.865   3.764   7.363  0.5284  0.1518  0.2528
 4967SOL    HW215842   1.957   3.811   7.251  2.5732  0.2908  1.9279
 4968SOL     OW15843   3.833   4.866   5.055  0.2350  0.0121 -0.3767
 4968SOL    HW115844   3.925   4.846   5.076  0.3561  0.3168 -0.6187
 4968SOL    HW215845   3.837   4.945   5.001 -0.3817  2.4581  2.8476
 4969SOL     OW15846   1.426   3.385   0.096 -0.2784  0.3881 -0.0766
 4969SOL    HW115847   1.399   3.294   0.108  0.8647  0.0977  0.4427
 4969SOL    HW215848   1.507   3.379   0.045  1.2475  0.9251  2.1828
 4970SOL     OW15849   5.918   1.145   4.373 -0.0777 -0.0712  0.1655
 4970SOL    HW115850   5.828   1.146   4.405 -0.0766  0.5506  0.1633
 4970SOL    HW215851   5.965   1.201   4.435 -0.0198  0.9473 -0.7580
 4971SOL     OW15852   1.509   2.532   6.013 -0.1490 -0.2845 -0.4109
 4971SOL    HW115853   1.557   2.569   6.088 -0.0620  1.6651 -1.3746
 4971SOL    HW215854   1.421   2.516   6.046  0.5442 -1.9412  0.8008
 4972SOL     OW15855   1.731   7.240   1.839 -0.8102  1.0838 -0.0081
 4972SOL    HW115856   1.737   7.241   1.744  0.0309  0.5169  0.0318
 4972SOL    HW215857   1.819   7.264   1.869 -0.6843 -0.1029  0.6186
 4973SOL     OW15858   3.761   5.791   1.681  0.0801 -0.0322 -0.0774
 4973SOL    HW115859   3.669   5.781   1.705 -0.0592 -0.2653 -0.6950
 4973SOL    HW215860   3.772   5.885   1.666 -0.5151 -0.2039 -1.7677
 4974SOL     OW15861   1.453   3.204   3.008  0.2861  0.6893 -0.2806
 4974SOL    HW115862   1.416   3.142   2.946  1.6640  1.4896 -1.9797
 4974SOL    HW215863   1.515   3.152   3.060  0.5877  0.4017 -0.9196
 4975SOL     OW15864   5.232   2.038   1.918  0.0962 -0.5783  0.3396
 4975SOL    HW115865   5.296   2.032   1.990 -0.3501  0.5303  0.8586
 4975SOL    HW215866   5.194   1.950   1.912  2.4775 -1.6167 -0.7787
 4976SOL     OW15867   7.081   2.748   0.383 -0.3098  0.5298 -0.2653
 4976SOL    HW115868   7.008   2.805   0.359 -3.3085 -1.7971  2.3615
 4976SOL    HW215869   7.145   2.805   0.425 -1.8005  2.3496 -0.3733
 4977SOL     OW15870   6.786   2.282   6.911 -0.3582  0.3182 -0.6586
 4977SOL    HW115871   6.758   2.210   6.855  1.4109 -0.8025 -0.1674
 4977SOL    HW215872   6.732   2.273   6.990  0.2161 -0.8059 -0.3879
 4978SOL     OW15873   0.227   4.929   2.342 -0.2796 -0.3734  0.2333
 4978SOL    HW115874   0.227   4.843   2.300  1.7241 -1.0704  1.5275
 4978SOL    HW215875   0.320   4.950   2.354 -0.6275  2.6715 -1.3569
 4979SOL     OW15876   4.930   3.594   1.770  0.1979 -0.4715 -0.0061
 4979SOL    HW115877   5.012   3.550   1.746 -1.0270 -2.2937 -1.1576
 4979SOL    HW215878   4.884   3.530   1.824 -0.7110  0.2894  0.1388
 4980SOL     OW15879   2.458   3.260   1.074 -0.6183  0.3603 -0.0365
 4980SOL    HW115880   2.390   3.251   1.141  1.0062  2.3493  2.0380
 4980SOL    HW215881   2.524   3.195   1.099 -0.1612  0.8730  0.0904
 4981SOL     OW15882   5.714   6.681   3.489  0.0888 -0.1427  0.6234
 4981SOL    HW115883   5.790   6.683   3.548 -0.9405 -1.6146  2.0833
 4981SOL    HW215884   5.745   6.722   3.408  2.1772  0.0401  1.4623
 4982SOL     OW15885   4.338   1.047   1.356  0.6673 -0.2110 -0.0198
 4982SOL    HW115886   4.433   1.054   1.359  0.6286  1.5137 -1.4153
 4982SOL    HW215887   4.318   1.026   1.264 -0.3428  0.5859 -0.0010
 4983SOL     OW15888   5.309   6.195   7.399  0.1805  0.0048 -0.3506
 4983SOL    HW115889   5.399   6.224   7.414 -0.0709  0.4881  0.2778
 4983SOL    HW215890   5.318   6.102   7.377  0.8643  0.1590 -0.7530
 4984SOL     OW15891   2.685   5.891   3.933 -0.0456  0.1077 -0.4895
 4984SOL    HW115892   2.651   5.860   3.849 -0.9852  1.3397 -0.5935
 4984SOL    HW215893   2.613   5.940   3.971  0.1093 -1.0372  1.4001
 4985SOL     OW15894   4.723   6.682   6.767  0.1891  0.5717  0.0633
 4985SOL    HW115895   4.704   6.713   6.678  1.0732  1.2462  0.1005
 4985SOL    HW215896   4.814   6.706   6.782  0.5903 -1.1556  0.4968
 4986SOL     OW15897   4.894   3.474   2.891  0.0138  0.2173 -0.1560
 4986SOL    HW115898   4.892   3.431   2.977  1.3027  1.7224  0.6854
 4986SOL    HW215899   4.923   3.405   2.831 -0.0876 -0.6468  0.7490
 4987SOL     OW15900   0.054   0.380   5.911 -0.2347 -0.5375  0.4097
 4987SOL    HW115901   0.129   0.437   5.897 -2.1693  2.5134  1.5646
 4987SOL    HW215902   0.093   0.296   5.937  2.7422  0.7489  0.5546
 4988SOL     OW15903   6.039   4.634   0.052 -0.4754 -0.0539  0.2669
 4988SOL    HW115904   6.060   4.597   0.138  0.5477  0.2381  0.1603
 4988SOL    HW215905   6.051   4.561  -0.009 -0.3583 -0.0474  0.2808
 4989SOL     OW15906   6.574   1.854   3.008  0.2525  0.0695 -0.1135
 4989SOL    HW115907   6.666   1.825   3.008  0.2762  0.1384  0.4100
 4989SOL    HW215908   6.541   1.829   2.922  0.3765 -1.1980  0.1830
 4990SOL     OW15909   3.095   1.840   3.520 -0.5307 -0.0357 -0.3042
 4990SOL    HW115910   3.088   1.803   3.608 -2.6716  1.1707  0.1140
 4990SOL    HW215911   3.173   1.799   3.482  0.1667 -0.9450  1.9642
 4991SOL     OW15912   1.969   4.309   0.705 -0.4317  0.6300  0.1491
 4991SOL    HW115913   2.057   4.332   0.677 -0.3880  0.1472 -0.1234
 4991SOL    HW215914   1.936   4.388   0.749  0.0917  0.8471  0.1571
 4992SOL     OW15915   3.658   3.198   1.229 -0.3990  0.4216 -0.1563
 4992SOL    HW115916   3.685   3.284   1.197  1.3889 -0.6144 -1.6453
 4992SOL    HW215917   3.731   3.167   1.282  0.6253 -1.5450 -2.4967
 4993SOL     OW15918   2.993   6.185   4.588 -0.2164 -0.2256 -0.0375
 4993SOL    HW115919   3.009   6.116   4.523 -0.9578 -1.8753  1.4368
 4993SOL    HW215920   2.962   6.259   4.536  0.3387 -1.0763 -1.6685
 4994SOL     OW15921   6.227   6.729   6.773 -0.3308 -0.3977 -0.3453
 4994SOL    HW115922   6.267   6.642   6.779  1.2027  0.2310 -0.8534
 4994SOL    HW215923   6.246   6.758   6.684 -1.1933  0.3001 -0.3136
 4995SOL     OW15924   1.211   4.441   0.357 -0.0764 -0.1481 -0.4974
 4995SOL    HW115925   1.149   4.512   0.339  0.2061  0.7889  1.8106
 4995SOL    HW215926   1.279   4.482   0.412  1.9305 -1.4503 -1.8737
 4996SOL     OW15927   3.382   5.354   4.572 -0.1657  0.3368  0.2935
 4996SOL    HW115928   3.422   5.300   4.641 -0.3082  2.3237  2.0260
 4996SOL    HW215929   3.441   5.429   4.563  0.6584 -0.5408 -2.8915
 4997SOL     OW15930   6.891   4.673   1.485 -0.1363 -0.0402  0.1270
 4997SOL    HW115931   6.822   4.684   1.550 -1.0733 -0.6668 -0.7163
 4997SOL    HW215932   6.846   4.636   1.409  0.7322  1.5310 -1.2226
 4998SOL     OW15933   0.001   6.921   4.079 -0.1018  0.1517 -0.1761
 4998SOL    HW115934  -0.024   6.833   4.052 -1.4612 -0.1339  1.7828
 4998SOL    HW215935   0.056   6.908   4.156  1.2012  0.9907 -0.9336
 4999SOL     OW15936   2.439   3.080   1.940  0.2294  0.0247  0.2609
 4999SOL    HW115937   2.410   3.147   1.877  1.0972 -0.2619 -0.4646
 4999SOL    HW215938   2.523   3.113   1.972 -0.0383 -0.0108  1.0052
 5000SOL     OW15939   1.245   5.624   2.318 -0.0627 -0.3644  0.0704
 5000SOL    HW115940   1.303   5.689   2.278 -3.5512  4.4977  1.9474
 5000SOL    HW215941   1.292   5.593   2.395  1.4267  0.5487 -0.4336
 5001SOL     OW15942   7.086   5.654   0.795  0.4348 -0.2658 -0.3015
 5001SOL    HW115943   7.133   5.596   0.856  0.5283 -0.9478 -1.0020
 5001SOL    HW215944   7.002   5.671   0.838  0.8100 -0.0790  0.3812
 5002SOL     OW15945   0.032   3.748   0.873 -0.4132 -0.0204 -0.0613
 5002SOL    HW115946   0.086   3.709   0.942 -0.0483 -0.8319 -0.7774
 5002SOL    HW215947  -0.054   3.708   0.884 -0.1018 -0.8806 -0.6481
 5003SOL     OW15948   6.263   0.695   3.024 -0.3571  0.1483  0.0315
 5003SOL    HW115949   6.286   0.724   2.935  0.2168 -1.0447 -0.2202
 5003SOL    HW215950   6.227   0.774   3.065 -1.4268  0.5265 -1.5239
 5004SOL     OW15951   0.668   4.361   6.335  0.0975 -0.7749 -0.1353
 5004SOL    HW115952   0.724   4.438   6.327 -0.8551 -0.2039 -1.8818
 5004SOL    HW215953   0.726   4.287   6.319  1.0187 -0.4386  1.5246
 5005SOL     OW15954   4.748   0.665   0.289  0.3455  0.9717 -0.3607
 5005SOL    HW115955   4.778   0.709   0.368  0.0259  1.4348 -0.4927
 5005SOL    HW215956   4.669   0.619   0.315  0.1532  1.2505 -0.4411
 5006SOL     OW15957   1.619   3.079   5.149  0.3293 -0.0246 -0.0250
 5006SOL    HW115958   1.626   3.002   5.091  2.1805 -0.5943  0.8829
 5006SOL    HW215959   1.532   3.114   5.131 -0.2421 -1.8415 -1.0870
 5007SOL     OW15960   1.398   3.902   1.303  0.9049  0.0181 -0.2634
 5007SOL    HW115961   1.305   3.886   1.289  1.3160 -0.9452 -2.4294
 5007SOL    HW215962   1.432   3.819   1.336  1.1409  0.0251 -0.4759
 5008SOL     OW15963   5.967   0.523   0.940  0.5474  0.7557 -0.1724
 5008SOL    HW115964   5.943   0.434   0.917  0.0533  0.5179  1.1230
 5008SOL    HW215965   6.062   0.520   0.954  0.5104  0.3971  0.0108
 5009SOL     OW15966   4.782   4.225   0.596 -0.0002  0.1005 -0.2831
 5009SOL    HW115967   4.813   4.160   0.533  0.4302  1.4234 -1.4932
 5009SOL    HW215968   4.736   4.290   0.543 -0.7496  0.6006  0.9407
 5010SOL     OW15969   4.766   7.145   7.235  0.1072 -0.4076  0.1759
 5010SOL    HW115970   4.731   7.081   7.297 -0.2494  0.7655  1.2190
 5010SOL    HW215971   4.695   7.209   7.223 -0.0402 -0.8858 -1.8881
 5011SOL     OW15972   4.763   3.626   7.301 -0.0865  0.9325 -0.3687
 5011SOL    HW115973   4.801   3.546   7.264 -0.9546  2.1187 -4.2784
 5011SOL    HW215974   4.821   3.696   7.273 -0.2614  1.9165  1.5594
 5012SOL     OW15975   6.469   3.679   6.907 -0.0832  0.0295 -0.3996
 5012SOL    HW115976   6.558   3.645   6.893  0.0149 -0.1696  0.6428
 5012SOL    HW215977   6.437   3.631   6.983 -0.1424  1.8990  0.8145
 5013SOL     OW15978   2.642   4.321   2.901  0.3283  0.3725 -0.1099
 5013SOL    HW115979   2.594   4.355   2.826 -1.1945 -0.8589  0.2569
 5013SOL    HW215980   2.691   4.396   2.934 -0.4165  1.3815 -1.2244
 5014SOL     OW15981   5.610   2.753   3.248 -0.0814 -0.0401 -0.1930
 5014SOL    HW115982   5.695   2.783   3.280 -0.2948  0.3581  0.0053
 5014SOL    HW215983   5.623   2.660   3.229  0.2948 -0.0688  0.1949
 5015SOL     OW15984   1.587   2.830   5.028  0.0464 -0.2919  0.7991
 5015SOL    HW115985   1.496   2.824   4.999  0.1833 -1.9699  0.6247
 5015SOL    HW215986   1.634   2.770   4.970  1.0193 -0.5696  1.8489
 5016SOL     OW15987   2.756   4.162   3.470 -0.0890  0.0263 -0.3717
 5016SOL    HW115988   2.758   4.239   3.528  1.4603 -0.1858 -0.1019
 5016SOL    HW215989   2.762   4.087   3.529  1.0892 -0.2064 -0.7700
 5017SOL     OW15990   1.513   4.640   2.341  0.0816 -0.3480 -0.2146
 5017SOL    HW115991   1.552   4.608   2.259  1.7246  3.8744 -1.3568
 5017SOL    HW215992   1.584   4.632   2.406  0.2576  0.2133 -0.3295
 5018SOL     OW15993   6.866   2.771   6.712 -0.5545  0.4586 -0.1336
 5018SOL    HW115994   6.896   2.800   6.798 -1.6292  0.1350  0.3624
 5018SOL    HW215995   6.934   2.711   6.682  1.0660  2.3958 -0.6062
 5019SOL     OW15996   0.910   7.176   1.997 -0.0447 -0.6705 -0.1512
 5019SOL    HW115997   0.816   7.156   2.001  0.5515 -3.8136  1.5886
 5019SOL    HW215998   0.921   7.248   2.059 -1.4678  1.0383 -1.7464
 5020SOL     OW15999   6.335   3.380   3.331 -0.2915 -0.5959 -0.0393
 5020SOL    HW116000   6.426   3.402   3.348 -0.6365  0.7874  0.1146
 5020SOL    HW216001   6.335   3.285   3.318  1.4286 -0.3955 -1.8409
 5021SOL     OW16002   3.795   4.258   6.652  0.0929 -0.1100  0.7474
 5021SOL    HW116003   3.870   4.212   6.615  1.2351  1.7467  0.6153
 5021SOL    HW216004   3.739   4.278   6.577  1.3711  1.7908  0.2113
 5022SOL     OW16005   0.149   0.686   5.049  0.8501  0.2843 -0.4024
 5022SOL    HW116006   0.145   0.745   4.973 -0.8513 -0.0909 -0.6625
 5022SOL    HW216007   0.191   0.607   5.015 -1.0137 -0.3685 -1.3841
 5023SOL     OW16008   5.085   2.464   5.214 -0.0221  0.0868 -0.2737
 5023SOL    HW116009   5.133   2.473   5.132 -0.5668  0.1271 -0.5918
 5023SOL    HW216010   5.125   2.388   5.256  1.1706  0.8674  0.0644
 5024SOL     OW16011   6.007   2.541   0.568 -0.2245 -0.5454  0.1103
 5024SOL    HW116012   5.944   2.505   0.506  0.4843  0.9494 -1.5294
 5024SOL    HW216013   6.081   2.479   0.565 -0.4950 -0.8694  0.0334
 5025SOL     OW16014   1.578   2.928   0.617  0.3632 -0.5033  0.1005
 5025SOL    HW116015   1.662   2.884   0.600 -0.5834 -2.1990 -0.4229
 5025SOL    HW216016   1.564   2.983   0.540  2.5319  2.4772  1.6420
 5026SOL     OW16017   7.279   1.078   0.663 -0.1457 -0.3193  0.3816
 5026SOL    HW116018   7.366   1.050   0.634 -0.3259 -0.1558 -0.3492
 5026SOL    HW216019   7.235   1.108   0.583  0.3619  2.9883  1.2044
 5027SOL     OW16020   3.505   6.633   7.127 -0.0166  0.8159  0.2615
 5027SOL    HW116021   3.425   6.682   7.105 -0.1437  0.6722  0.4018
 5027SOL    HW216022   3.551   6.624   7.043 -2.1497 -2.7594 -0.7446
 5028SOL     OW16023   0.025   1.563   6.873 -0.1651 -0.2988 -0.1546
 5028SOL    HW116024   0.085   1.571   6.799 -0.9792 -0.2492 -0.8131
 5028SOL    HW216025   0.014   1.469   6.884  2.5109 -0.5006  2.0208
 5029SOL     OW16026   4.637   1.712   1.695 -0.0986 -0.0656  0.2456
 5029SOL    HW116027   4.630   1.617   1.683  0.1308  0.1125 -1.6501
 5029SOL    HW216028   4.552   1.746   1.668 -0.0247  0.3127  0.4825
 5030SOL     OW16029   4.029   4.131   6.593 -0.0207  0.1596 -0.3578
 5030SOL    HW116030   4.059   4.080   6.668  0.4564 -0.0853 -0.7129
 5030SOL    HW216031   4.099   4.122   6.528 -0.9096 -0.5291 -1.2561
 5031SOL     OW16032   5.403   4.295   4.245  0.0693 -0.2994 -0.4331
 5031SOL    HW116033   5.327   4.351   4.231 -0.8545 -1.4295 -0.1382
 5031SOL    HW216034   5.398   4.230   4.175  1.4726  0.3301 -1.1496
 5032SOL     OW16035   4.710   2.961   1.940  0.5801 -0.0413 -0.1485
 5032SOL    HW116036   4.643   2.927   2.000 -0.1304 -1.7429 -1.8370
 5032SOL    HW216037   4.661   2.997   1.867  1.4745  0.6744 -0.4131
 5033SOL     OW16038   5.555   3.649   1.591  0.4944 -0.0843 -0.5321
 5033SOL    HW116039   5.485   3.713   1.581 -0.4468 -0.9133  0.3999
 5033SOL    HW216040   5.589   3.665   1.679  0.6866 -0.4337 -0.5411
 5034SOL     OW16041   4.840   5.454   1.887 -0.0472 -0.2674 -0.7267
 5034SOL    HW116042   4.850   5.517   1.958  1.5537 -0.9361 -0.3001
 5034SOL    HW216043   4.749   5.425   1.891 -0.1094  0.0915  0.7210
 5035SOL     OW16044   1.233   2.341   1.115 -0.7115  0.2399  0.3716
 5035SOL    HW116045   1.222   2.249   1.137 -0.0830 -0.2290 -1.1317
 5035SOL    HW216046   1.213   2.346   1.021  0.3571  1.4198  0.1771
 5036SOL     OW16047   2.292   1.582   6.932 -0.2531 -0.3072 -0.4753
 5036SOL    HW116048   2.247   1.590   7.017 -0.2022 -0.3153 -0.4473
 5036SOL    HW216049   2.281   1.491   6.907  0.8582 -0.6329  0.1550
 5037SOL     OW16050   1.856   2.331   4.529 -0.0187 -0.0856  0.3351
 5037SOL    HW116051   1.871   2.236   4.528 -1.7689 -0.4111  0.9083
 5037SOL    HW216052   1.933   2.367   4.574  1.6581 -0.9897 -1.6399
 5038SOL     OW16053   4.917   7.133   5.854 -0.2198 -0.2077 -0.0054
 5038SOL    HW116054   4.921   7.202   5.788  3.3301  0.5933  0.8162
 5038SOL    HW216055   4.968   7.061   5.816 -1.8429 -1.4774  0.1432
 5039SOL     OW16056   1.580   5.030   5.480  0.4117  0.3273  0.3052
 5039SOL    HW116057   1.607   5.077   5.559 -3.4166  1.1855  1.2805
 5039SOL    HW216058   1.551   4.944   5.511  4.4673 -1.8358 -1.1053
 5040SOL     OW16059   4.579   7.127   1.153 -0.1198 -0.1317 -0.1061
 5040SOL    HW116060   4.647   7.181   1.193  1.8682 -1.0857 -1.9763
 5040SOL    HW216061   4.498   7.157   1.193  1.3548  1.1005  2.2233
 5041SOL     OW16062   2.619   1.982   1.315  0.2330 -0.3970 -0.2397
 5041SOL    HW116063   2.588   1.975   1.225 -0.5278 -0.0657 -0.0074
 5041SOL    HW216064   2.707   2.019   1.307 -0.4240  1.1218 -0.7704
 5042SOL     OW16065   5.296   0.209   0.192 -0.3899  0.4737 -0.3131
 5042SOL    HW116066   5.305   0.118   0.217  1.7172 -0.0572 -2.6257
 5042SOL    HW216067   5.228   0.209   0.125 -1.7583  0.9689  1.0110
 5043SOL     OW16068   1.992   5.829   4.118 -0.6221 -0.4329 -0.7182
 5043SOL    HW116069   1.958   5.775   4.046  0.1153 -1.7902 -0.0841
 5043SOL    HW216070   1.982   5.919   4.087 -2.6413 -0.8654 -1.4876
 5044SOL     OW16071   7.411   3.219   0.587  0.0817 -0.2513  0.2305
 5044SOL    HW116072   7.368   3.304   0.598  0.4022 -0.2752  1.8892
 5044SOL    HW216073   7.487   3.237   0.532  0.8457  0.7984  1.5859
 5045SOL     OW16074   2.734   4.229   0.374 -0.3076 -0.2049  0.2150
 5045SOL    HW116075   2.795   4.198   0.441 -0.1780 -0.8961 -0.2227
 5045SOL    HW216076   2.650   4.190   0.399 -0.6326  0.8834  0.9174
 5046SOL     OW16077   3.315   3.851   3.516 -0.4450  0.0652  0.2946
 5046SOL    HW116078   3.350   3.901   3.590 -0.3899  0.2074  0.1725
 5046SOL    HW216079   3.329   3.908   3.440  0.1885 -0.4018  0.0606
 5047SOL     OW16080   6.127   4.349   1.267  0.1876  0.1434  0.1012
 5047SOL    HW116081   6.209   4.301   1.253 -0.7175 -1.3116 -0.4961
 5047SOL    HW216082   6.059   4.292   1.230 -1.1929  0.9215  1.2927
 5048SOL     OW16083   0.681   2.531   4.243 -0.3968  0.3204  0.3269
 5048SOL    HW116084   0.684   2.594   4.315 -2.0405  0.3607  0.4004
 5048SOL    HW216085   0.734   2.571   4.174  1.5872  0.0775  1.6320
 5049SOL     OW16086   0.451   5.761   2.745 -0.7847 -0.2095  0.0800
 5049SOL    HW116087   0.490   5.711   2.674 -1.6266  0.2873 -0.7448
 5049SOL    HW216088   0.360   5.733   2.748 -0.7748 -0.2030  0.9510
 5050SOL     OW16089   6.779   4.046   3.255 -0.3043 -0.2233  0.5107
 5050SOL    HW116090   6.744   3.958   3.241  1.9788 -1.2181  0.6637
 5050SOL    HW216091   6.847   4.055   3.188  2.3358 -0.2700  3.0007
 5051SOL     OW16092   3.301   3.403   7.026  0.0802 -0.0303 -0.1213
 5051SOL    HW116093   3.274   3.397   6.934  1.1588  0.8710 -0.5165
 5051SOL    HW216094   3.254   3.479   7.060  0.8798  0.5993 -0.3837
 5052SOL     OW16095   3.000   3.790   3.483  0.4183 -0.4382 -0.6418
 5052SOL    HW116096   2.986   3.821   3.394  1.3904  1.8136 -0.0899
 5052SOL    HW216097   2.914   3.793   3.524  0.4505  1.8271 -0.6018
 5053SOL     OW16098   4.091   0.785   3.033 -0.2781  0.7649 -0.5073
 5053SOL    HW116099   4.054   0.698   3.017 -1.0942  1.2274 -1.2022
 5053SOL    HW216100   4.024   0.846   3.004 -0.3012  1.6660  1.2908
 5054SOL     OW16101   4.247   5.816   5.155 -0.5266 -0.1405 -0.9785
 5054SOL    HW116102   4.181   5.771   5.101  0.0151 -1.6657 -0.4118
 5054SOL    HW216103   4.261   5.758   5.229 -2.1760  2.4521  1.5815
 5055SOL     OW16104   0.180   5.840   0.024 -0.3364  0.1016 -0.2831
 5055SOL    HW116105   0.256   5.897   0.036  0.0015 -0.5510  0.7742
 5055SOL    HW216106   0.215   5.761  -0.017 -0.8585  0.7374 -2.0762
 5056SOL     OW16107   4.970   0.572   3.203  0.5344 -0.1213 -0.3391
 5056SOL    HW116108   4.942   0.482   3.218  3.1061 -1.5633 -3.1400
 5056SOL    HW216109   4.989   0.606   3.291 -0.0446 -2.4513  0.7652
 5057SOL     OW16110   3.375   3.178   4.339 -0.0663 -0.4692 -0.0191
 5057SOL    HW116111   3.284   3.203   4.360 -0.6756 -2.0619 -0.6202
 5057SOL    HW216112   3.426   3.213   4.412 -0.7940  2.4417 -0.7351
 5058SOL     OW16113   0.606   6.545   3.276  0.1532  0.4372  0.1303
 5058SOL    HW116114   0.568   6.513   3.358 -0.6409 -0.3214 -0.5251
 5058SOL    HW216115   0.693   6.505   3.274  0.6110  1.3147  1.1049
 5059SOL     OW16116   6.400   2.306   6.792 -0.1543  0.4508  0.0794
 5059SOL    HW116117   6.384   2.399   6.779 -0.4841  0.1716 -1.7981
 5059SOL    HW216118   6.463   2.282   6.724 -1.8182 -1.1271 -1.0189
 5060SOL     OW16119   4.479   3.027   7.118 -0.2307  0.2487  0.5364
 5060SOL    HW116120   4.447   2.981   7.196  1.8650 -0.7820  0.8564
 5060SOL    HW216121   4.568   3.052   7.141 -0.0603  1.1975 -1.0422
 5061SOL     OW16122   0.341   4.121   6.042  0.0743  1.1543  0.0386
 5061SOL    HW116123   0.304   4.129   6.130  0.0998 -0.1848  0.1929
 5061SOL    HW216124   0.436   4.125   6.055  0.1251 -0.1134  0.2338
 5062SOL     OW16125   2.377   7.187   5.932  0.3050  0.1267  0.0502
 5062SOL    HW116126   2.440   7.136   5.983 -0.3537 -1.0621 -0.2869
 5062SOL    HW216127   2.302   7.196   5.991  0.0946 -0.0229 -0.1946
 5063SOL     OW16128   4.023   6.021   1.832 -0.1980 -0.2140  0.0160
 5063SOL    HW116129   3.952   6.050   1.889 -0.3131 -0.2180 -0.1280
 5063SOL    HW216130   4.096   6.079   1.855 -0.4311  0.2011 -0.2851
 5064SOL     OW16131   4.588   0.847   4.529  0.3905  0.2592  0.1162
 5064SOL    HW116132   4.612   0.931   4.568  1.6587 -0.0308  0.0045
 5064SOL    HW216133   4.564   0.868   4.439  1.8987  0.3586 -0.2780
 5065SOL     OW16134   2.757   5.469   3.464  0.5028  0.2139 -0.1068
 5065SOL    HW116135   2.727   5.456   3.554 -2.5908  2.7461 -0.5634
 5065SOL    HW216136   2.699   5.413   3.411  1.9664 -0.8796 -0.6144
 5066SOL     OW16137   3.361   5.362   2.800 -0.0727  0.1201 -0.1422
 5066SOL    HW116138   3.391   5.440   2.753  0.3821 -0.8626 -1.5569
 5066SOL    HW216139   3.272   5.384   2.829  0.1093  1.2145 -0.3829
 5067SOL     OW16140   6.249   6.454   5.677 -0.1083  0.1513  0.4682
 5067SOL    HW116141   6.310   6.380   5.668 -0.3305 -0.1056  1.0566
 5067SOL    HW216142   6.219   6.470   5.587  0.3590 -0.1139  0.2554
 5068SOL     OW16143   4.345   6.450   2.420 -0.2757 -0.0199  0.1391
 5068SOL    HW116144   4.363   6.449   2.514 -1.5877 -4.0138  0.5469
 5068SOL    HW216145   4.431   6.452   2.379  0.6821 -3.3083  1.6596
 5069SOL     OW16146   2.543   0.102   6.948  0.0287  0.4597 -0.2888
 5069SOL    HW116147   2.608   0.080   7.015 -1.0395 -0.0321  0.6102
 5069SOL    HW216148   2.587   0.085   6.865  0.8088 -0.5323  0.3136
 5070SOL     OW16149   3.884   5.583   5.713  0.0584 -0.1397  0.1256
 5070SOL    HW116150   3.962   5.547   5.670 -0.9852 -1.3585 -0.8326
 5070SOL    HW216151   3.903   5.577   5.806  1.5922  0.7344 -0.0910
 5071SOL     OW16152   5.214   0.978   4.668 -0.1206 -0.0470 -0.0545
 5071SOL    HW116153   5.162   0.913   4.621  0.9823 -1.7983  1.0130
 5071SOL    HW216154   5.261   0.927   4.735  1.3707  1.7399  0.3436
 5072SOL     OW16155   5.060   1.947   5.585 -0.3757 -0.2360 -0.1431
 5072SOL    HW116156   5.066   1.974   5.494 -0.1615 -1.4528 -0.5168
 5072SOL    HW216157   5.150   1.928   5.610 -0.7397 -4.2608 -1.1453
 5073SOL     OW16158   3.490   2.933   6.838  0.2947 -0.3857  0.7919
 5073SOL    HW116159   3.474   3.024   6.860 -0.1038 -0.4818  0.9070
 5073SOL    HW216160   3.424   2.912   6.772  0.5001 -0.5397  0.6332
 5074SOL     OW16161   1.880   4.323   6.542 -0.3409  0.5548 -0.2584
 5074SOL    HW116162   1.844   4.412   6.547 -0.7152  0.3632  0.6668
 5074SOL    HW216163   1.942   4.319   6.615  2.0643  1.0688 -2.1403
 5075SOL     OW16164   2.983   0.664   7.095 -0.3084  0.3031  0.3946
 5075SOL    HW116165   3.050   0.616   7.047 -0.6662  1.1062 -0.9750
 5075SOL    HW216166   2.938   0.716   7.028 -1.0519  1.2261  1.5620
 5076SOL     OW16167   4.078   3.179   2.039 -1.0290  0.0717  0.6544
 5076SOL    HW116168   4.103   3.251   1.980 -0.0214 -0.8886 -0.1271
 5076SOL    HW216169   3.994   3.149   2.005 -0.6820 -0.1606 -0.0221
 5077SOL     OW16170   3.112   3.991   5.075  0.0106  0.1167 -0.9042
 5077SOL    HW116171   3.162   3.944   5.007 -0.3713 -0.9056 -0.4989
 5077SOL    HW216172   3.174   4.055   5.109  1.2301 -1.3942 -0.1333
 5078SOL     OW16173   5.266   2.315   5.864 -0.0930 -0.4428  0.7154
 5078SOL    HW116174   5.257   2.322   5.959  2.1043 -0.8049  0.9905
 5078SOL    HW216175   5.295   2.225   5.849 -0.4262 -0.3916 -0.3154
 5079SOL     OW16176   2.416   4.332   6.630  0.4256  0.0717 -0.0609
 5079SOL    HW116177   2.403   4.417   6.588  2.9166  0.1667 -0.8248
 5079SOL    HW216178   2.511   4.319   6.628  0.1004 -3.1346 -0.8424
 5080SOL     OW16179   6.404   1.348   3.505 -0.1072 -0.4704 -0.0808
 5080SOL    HW116180   6.493   1.382   3.515 -0.4322  0.5420 -0.5129
 5080SOL    HW216181   6.362   1.367   3.589  0.0199 -0.7791  0.0560
 5081SOL     OW16182   2.099   7.151   0.284  0.0070 -0.1680 -0.4611
 5081SOL    HW116183   2.151   7.074   0.261  0.7437 -0.4240  1.8122
 5081SOL    HW216184   2.159   7.224   0.272  0.0852 -0.2024 -0.2847
 5082SOL     OW16185   1.886   3.805   0.240  0.1939  0.3842  0.5753
 5082SOL    HW116186   1.812   3.745   0.228  0.8006  0.0310 -2.2246
 5082SOL    HW216187   1.846   3.892   0.240 -0.3888  0.1245  0.9811
 5083SOL     OW16188   6.709   3.347   6.168 -0.7763  0.0039  0.2718
 5083SOL    HW116189   6.782   3.406   6.190  0.5930 -1.4384 -0.1787
 5083SOL    HW216190   6.669   3.326   6.252 -0.0729  0.0930  0.6369
 5084SOL     OW16191   6.753   0.813   6.270 -0.4993 -0.2329  0.1457
 5084SOL    HW116192   6.815   0.799   6.341 -1.4890 -1.5093  0.8021
 5084SOL    HW216193   6.673   0.769   6.299 -1.4374  0.6137 -1.0555
 5085SOL     OW16194   1.633   3.123   2.210 -0.2343 -0.0841 -0.1001
 5085SOL    HW116195   1.688   3.180   2.262  1.0923  0.5415 -2.0711
 5085SOL    HW216196   1.601   3.057   2.272  1.7577  0.2267  1.3652
 5086SOL     OW16197   5.960   4.089   5.485  0.1359  0.1923  0.0433
 5086SOL    HW116198   5.976   4.008   5.534 -2.0328 -1.3675 -1.5898
 5086SOL    HW216199   5.984   4.067   5.395  0.4410  1.7216 -0.2686
 5087SOL     OW16200   1.031   2.272   2.892  0.0325 -0.1639  1.0730
 5087SOL    HW116201   0.992   2.233   2.970  0.4680 -2.1996  0.3310
 5087SOL    HW216202   0.957   2.289   2.834 -0.0233 -2.0257  0.5273
 5088SOL     OW16203   5.517   5.868   0.039  0.4075 -0.6270 -0.1983
 5088SOL    HW116204   5.531   5.790   0.091  0.1912 -0.3508  0.2845
 5088SOL    HW216205   5.423   5.868   0.020  0.0706  0.4142  1.2899
 5089SOL     OW16206   2.567   5.658   1.011  0.4790 -0.2659  0.1053
 5089SOL    HW116207   2.544   5.573   0.974  1.5865  0.4221 -2.3686
 5089SOL    HW216208   2.646   5.641   1.063  1.0429 -0.6615 -0.8597
 5090SOL     OW16209   7.397   4.062   1.467  0.5007 -0.3642  0.0248
 5090SOL    HW116210   7.344   4.130   1.424  2.8312  1.8790  0.4485
 5090SOL    HW216211   7.381   4.075   1.560  0.3154 -1.0207  0.0927
 5091SOL     OW16212   1.005   5.116   5.587 -0.2485 -0.9620 -0.0546
 5091SOL    HW116213   1.066   5.137   5.658 -2.5513  0.6133  1.5950
 5091SOL    HW216214   1.007   5.193   5.530 -3.0282  0.6781  1.8418
 5092SOL     OW16215   4.632   7.014   0.231  0.4373  0.0613 -0.7696
 5092SOL    HW116216   4.650   7.022   0.325  1.0639 -0.3160 -0.8510
 5092SOL    HW216217   4.543   6.980   0.227 -0.0920  1.3238 -0.3411
 5093SOL     OW16218   4.572   2.756   7.211  0.3245  0.1566 -0.2085
 5093SOL    HW116219   4.487   2.800   7.215  0.2533  0.1768 -1.5845
 5093SOL    HW216220   4.558   2.682   7.153  1.2217  0.0875 -0.3486
 5094SOL     OW16221   2.777   5.369   3.751 -0.5227 -0.1945  0.0352
 5094SOL    HW116222   2.812   5.319   3.825  2.1116  1.4475  0.0158
 5094SOL    HW216223   2.810   5.323   3.674  0.6049  0.6444 -0.0033
 5095SOL     OW16224   0.318   0.719   3.203 -0.1077 -0.5869  0.1601
 5095SOL    HW116225   0.326   0.750   3.293 -1.0346 -0.0101  0.0561
 5095SOL    HW216226   0.224   0.724   3.184  0.1695  0.0880 -1.1182
 5096SOL     OW16227   0.875   3.707   6.869  0.3347  0.9846  0.4982
 5096SOL    HW116228   0.970   3.697   6.876  0.5222  2.7537  0.9672
 5096SOL    HW216229   0.863   3.794   6.830 -1.0960  0.8671  0.6342
 5097SOL     OW16230   4.278   6.920   5.690  0.0628  0.4923 -0.7690
 5097SOL    HW116231   4.285   6.834   5.648  0.5706 -0.5332  1.3281
 5097SOL    HW216232   4.326   6.978   5.631 -0.9857 -0.4425 -2.6657
 5098SOL     OW16233   1.100   6.335   3.624  0.2178 -0.5461 -0.3043
 5098SOL    HW116234   1.169   6.363   3.684 -1.9060 -0.1683  2.1773
 5098SOL    HW216235   1.110   6.241   3.617 -0.2766 -0.8194  1.8759
 5099SOL     OW16236   5.972   4.805   6.196 -0.1520 -0.1172 -0.0137
 5099SOL    HW116237   6.038   4.860   6.237  1.5838 -0.8076 -1.7327
 5099SOL    HW216238   5.986   4.718   6.233 -0.5877 -0.1277  0.1340
 5100SOL     OW16239   3.266   7.153   7.424  0.2033  0.9539 -0.1637
 5100SOL    HW116240   3.300   7.064   7.438  0.7560  1.0770 -0.6732
 5100SOL    HW216241   3.255   7.188   7.512 -0.7964  0.1006  0.0685
 5101SOL     OW16242   1.029   5.856   1.090 -0.6036 -0.2448  0.4686
 5101SOL    HW116243   1.113   5.901   1.095 -1.0290  0.4991  0.9714
 5101SOL    HW216244   1.045   5.783   1.029  1.2048 -1.8874  2.7370
 5102SOL     OW16245   6.577   4.565   5.693 -0.4436  0.4205  0.2961
 5102SOL    HW116246   6.554   4.474   5.712  0.7731  0.5034  2.5480
 5102SOL    HW216247   6.498   4.615   5.713 -0.9771 -0.0725 -0.5210
 5103SOL     OW16248   3.796   3.238   3.197  0.0604 -0.4732 -0.4460
 5103SOL    HW116249   3.791   3.323   3.242  2.2974 -0.2834 -0.4269
 5103SOL    HW216250   3.751   3.177   3.256  1.7468  0.0243  1.4843
 5104SOL     OW16251   4.090   7.410   5.769  0.2024  0.0791 -0.1703
 5104SOL    HW116252   4.057   7.340   5.825  0.4846 -0.6324 -0.8681
 5104SOL    HW216253   4.180   7.423   5.797  0.5851 -0.8018 -0.9286
 5105SOL     OW16254   0.866   3.007   3.965  0.1720 -0.2567  0.1090
 5105SOL    HW116255   0.770   3.005   3.961  0.1918  0.3192 -0.9985
 5105SOL    HW216256   0.888   3.100   3.952  0.9225 -0.5721 -0.9219
 5106SOL     OW16257   3.825   3.930   6.396  0.3787 -0.5522 -0.5505
 5106SOL    HW116258   3.834   3.834   6.394 -2.4846 -0.9014 -0.2929
 5106SOL    HW216259   3.779   3.948   6.478 -0.7944  0.8246 -1.4613
 5107SOL     OW16260   1.876   0.212   5.838 -0.0076 -0.3609  0.5319
 5107SOL    HW116261   1.905   0.160   5.913 -1.4603 -2.0758 -0.0312
 5107SOL    HW216262   1.826   0.150   5.784 -0.3069  1.2127 -1.0701
 5108SOL     OW16263   3.230   7.301   4.318  0.8446  0.6184 -0.2276
 5108SOL    HW116264   3.320   7.301   4.285  0.9545 -1.4179 -0.0142
 5108SOL    HW216265   3.178   7.265   4.247  0.2967  1.0572 -0.0586
 5109SOL     OW16266   1.094   1.521   4.632 -0.0744  0.0553 -0.3738
 5109SOL    HW116267   1.004   1.542   4.657  0.2852  1.5575 -0.2573
 5109SOL    HW216268   1.085   1.476   4.547 -1.0849 -2.4489  0.9619
 5110SOL     OW16269   4.295   7.034   2.561 -0.3159 -0.2982  0.1599
 5110SOL    HW116270   4.257   7.107   2.513  1.1621 -0.4104 -1.2620
 5110SOL    HW216271   4.296   6.962   2.498 -1.1225 -1.3824  1.3255
 5111SOL     OW16272   0.698   2.298   0.150  0.5918 -0.1298  0.3247
 5111SOL    HW116273   0.763   2.355   0.107 -0.2348  1.6374  1.3195
 5111SOL    HW216274   0.652   2.256   0.078  0.7409  1.0336 -0.4762
 5112SOL     OW16275   3.594   0.278   7.146  0.3552 -0.6135  0.7866
 5112SOL    HW116276   3.544   0.305   7.224  0.4120  0.6990  0.4041
 5112SOL    HW216277   3.676   0.327   7.152  0.0766  0.0662 -0.4283
 5113SOL     OW16278   4.228   1.052   6.135 -0.1709 -0.2056  0.2704
 5113SOL    HW116279   4.322   1.041   6.122 -0.4591 -0.9044 -1.6440
 5113SOL    HW216280   4.217   1.144   6.157  0.6822  1.0052 -3.5333
 5114SOL     OW16281   6.759   6.670   7.226 -0.6488 -0.1407 -0.1636
 5114SOL    HW116282   6.689   6.735   7.219  0.1415  0.6872 -0.5824
 5114SOL    HW216283   6.716   6.587   7.205 -1.9254  0.0498  1.4506
 5115SOL     OW16284   0.859   3.105   6.460  0.7334  0.4769  0.2200
 5115SOL    HW116285   0.877   3.149   6.377 -1.8257 -1.0410 -1.2536
 5115SOL    HW216286   0.794   3.160   6.504  1.0725  0.5721  0.6150
 5116SOL     OW16287   1.190   2.101   3.897 -0.3247 -0.1423  0.3759
 5116SOL    HW116288   1.130   2.106   3.823  0.6105  1.4983 -0.3104
 5116SOL    HW216289   1.275   2.124   3.861  0.1241  0.9150  1.9910
 5117SOL     OW16290   2.214   0.108   6.377 -0.0421 -0.0016 -0.3391
 5117SOL    HW116291   2.181   0.172   6.440  0.0376  0.6289 -0.9268
 5117SOL    HW216292   2.276   0.055   6.428 -0.3351  0.1912  0.2291
 5118SOL     OW16293   7.061   3.944   2.281  0.3699  0.0825 -0.1641
 5118SOL    HW116294   7.112   3.922   2.359 -1.0522 -1.4815  0.3896
 5118SOL    HW216295   7.083   3.875   2.218 -0.0201  0.1854 -0.4136
 5119SOL     OW16296   3.856   0.861   5.340  0.0853  1.0694 -0.5091
 5119SOL    HW116297   3.927   0.798   5.356 -0.7866  0.6480  2.3265
 5119SOL    HW216298   3.871   0.930   5.404 -1.6922  1.2885 -0.2836
 5120SOL     OW16299   0.767   6.492   5.322 -0.3352 -0.1219 -0.1948
 5120SOL    HW116300   0.807   6.524   5.241 -1.0563 -1.6333 -1.1973
 5120SOL    HW216301   0.682   6.535   5.326  0.2944  1.0865  0.5596
 5121SOL     OW16302   2.344   4.864   4.636 -0.2716  0.1749 -0.2570
 5121SOL    HW116303   2.397   4.857   4.557  1.2401 -0.4557  0.7619
 5121SOL    HW216304   2.398   4.825   4.705 -2.7831 -2.2089  0.5418
 5122SOL     OW16305   3.698   1.650   4.859 -0.5085 -0.3010 -0.0033
 5122SOL    HW116306   3.738   1.642   4.773  1.1334 -1.5204  0.8290
 5122SOL    HW216307   3.671   1.561   4.882  0.3502 -0.2530  1.3101
 5123SOL     OW16308   3.870   6.586   5.438 -0.2032  0.4522 -0.4790
 5123SOL    HW116309   3.813   6.524   5.393  1.1733 -0.8055 -0.5595
 5123SOL    HW216310   3.941   6.602   5.376  1.4140 -0.8337  0.9503
 5124SOL     OW16311   2.694   3.623   3.041  0.4792 -0.1236  0.4834
 5124SOL    HW116312   2.610   3.581   3.023  0.1171 -0.4608  2.6681
 5124SOL    HW216313   2.670   3.711   3.071  0.9059 -0.2238  1.1215
 5125SOL     OW16314   6.383   0.278   1.082 -0.4692 -0.3266 -0.2973
 5125SOL    HW116315   6.347   0.199   1.042 -2.0274  0.2942 -0.1767
 5125SOL    HW216316   6.456   0.246   1.135 -0.1210 -1.4896 -1.4261
 5126SOL     OW16317   3.289   1.137   6.535  0.2109  0.1635  0.3204
 5126SOL    HW116318   3.312   1.052   6.573  2.0406  0.6040  0.3319
 5126SOL    HW216319   3.227   1.176   6.597 -1.6150 -1.6213 -0.2963
 5127SOL     OW16320   5.210   6.484   0.824  0.0086 -0.3657 -0.4741
 5127SOL    HW116321   5.210   6.460   0.732 -0.0259 -0.5068 -0.4380
 5127SOL    HW216322   5.121   6.515   0.841  0.6699  2.1415 -1.1184
 5128SOL     OW16323   3.323   0.760   6.913 -0.3332  0.0336  0.2374
 5128SOL    HW116324   3.321   0.775   6.819 -1.3160 -1.3043  0.0254
 5128SOL    HW216325   3.298   0.668   6.924  1.4459 -0.3449  1.7060
 5129SOL     OW16326   2.609   2.020   2.805  0.5355  0.7107 -0.2925
 5129SOL    HW116327   2.579   1.959   2.872 -0.6951 -0.0500 -1.5053
 5129SOL    HW216328   2.627   1.966   2.729  2.1451  1.5341 -0.5466
 5130SOL     OW16329   2.648   2.947   6.771  0.4754  0.2379  0.1099
 5130SOL    HW116330   2.589   2.964   6.698 -1.9338 -0.2443  1.8491
 5130SOL    HW216331   2.674   2.855   6.759 -0.1565  0.0659  0.0260
 5131SOL     OW16332   7.155   2.037   6.698  0.0122  0.7844  0.1949
 5131SOL    HW116333   7.240   1.994   6.706 -0.4625  0.0178  1.5380
 5131SOL    HW216334   7.102   2.000   6.769 -1.2531  1.6959 -0.2171
 5132SOL     OW16335   5.918   6.706   0.981 -0.0061 -0.8591 -0.1994
 5132SOL    HW116336   5.913   6.632   0.921 -0.6292 -2.4447  1.7315
 5132SOL    HW216337   5.913   6.668   1.068  1.2245  1.3350  0.9240
 5133SOL     OW16338   4.024   4.835   1.306 -0.1462  0.4269 -0.4135
 5133SOL    HW116339   4.063   4.907   1.355 -0.0864  1.2240 -1.5849
 5133SOL    HW216340   4.098   4.783   1.276 -0.0584  0.9693 -1.1747
 5134SOL     OW16341   4.966   0.402   5.121 -0.4752 -0.2850  0.4122
 5134SOL    HW116342   5.040   0.343   5.139  0.7630  0.9272 -0.4754
 5134SOL    HW216343   4.910   0.394   5.198  1.7088  0.4334  2.2036
 5135SOL     OW16344   0.469   1.534   0.597  0.0104 -0.2602 -0.1329
 5135SOL    HW116345   0.413   1.489   0.535  2.2217 -0.4373 -2.1612
 5135SOL    HW216346   0.548   1.480   0.603  1.1634  1.3718  0.3354
 5136SOL     OW16347   0.135   7.346   6.425  1.3353 -0.2069  0.1495
 5136SOL    HW116348   0.120   7.297   6.506 -0.7595 -1.1972 -0.7692
 5136SOL    HW216349   0.105   7.435   6.445 -1.9553 -1.0951 -0.2801
 5137SOL     OW16350   0.746   4.485   0.101  0.1529 -0.5050 -0.6085
 5137SOL    HW116351   0.698   4.412   0.063  0.2996 -1.4922  0.9787
 5137SOL    HW216352   0.681   4.555   0.109 -0.8969 -1.5656  0.8049
 5138SOL     OW16353   1.853   0.877   3.301 -0.0032 -0.3877  0.6484
 5138SOL    HW116354   1.923   0.855   3.362  2.1882  0.7764 -1.2708
 5138SOL    HW216355   1.818   0.961   3.333  0.2627 -0.4089  0.9959
 5139SOL     OW16356   4.600   6.158   5.565  0.5695 -0.7465 -0.3037
 5139SOL    HW116357   4.640   6.075   5.540 -2.8371 -2.2207 -1.5661
 5139SOL    HW216358   4.534   6.174   5.498  0.0700  2.2395  0.7334
 5140SOL     OW16359   5.343   6.311   6.346 -0.1265  0.0384  0.4968
 5140SOL    HW116360   5.363   6.328   6.438  3.1828 -1.1505  0.1069
 5140SOL    HW216361   5.309   6.221   6.345  0.7162 -0.2842  0.4732
 5141SOL     OW16362   6.793   0.767   1.467  0.1300 -0.2616 -0.4368
 5141SOL    HW116363   6.787   0.671   1.473 -0.5541 -0.2002 -0.0966
 5141SOL    HW216364   6.702   0.796   1.460  0.2887  0.4145  0.2373
 5142SOL     OW16365   5.482   0.320   2.954 -0.1158 -0.3310  0.0598
 5142SOL    HW116366   5.488   0.229   2.927 -0.2730 -0.5243  0.6577
 5142SOL    HW216367   5.555   0.363   2.910 -0.4495 -0.5976 -0.7777
 5143SOL     OW16368   1.820   2.588   0.360 -0.4118  0.3230 -0.0510
 5143SOL    HW116369   1.897   2.608   0.307  0.7961  0.2214  1.5800
 5143SOL    HW216370   1.823   2.494   0.373 -0.5151  0.3838  0.4424
 5144SOL     OW16371   7.221   6.243   2.261 -0.5105 -0.3011  0.0504
 5144SOL    HW116372   7.203   6.232   2.167 -1.2557 -2.0250  0.3589
 5144SOL    HW216373   7.245   6.155   2.291 -2.6304 -0.3021  1.9501
 5145SOL     OW16374   3.834   2.050   3.638  0.9998  0.2515  0.0841
 5145SOL    HW116375   3.837   1.955   3.630 -0.3488  0.3075 -1.8001
 5145SOL    HW216376   3.836   2.066   3.732 -1.1330 -1.7779  0.5755
 5146SOL     OW16377   1.957   5.791   2.334 -0.1083  0.4533  0.0142
 5146SOL    HW116378   1.920   5.801   2.246  0.2309  0.5588 -0.1205
 5146SOL    HW216379   1.975   5.698   2.342 -1.4811  0.2068  0.5305
 5147SOL     OW16380   0.009   2.114   0.417  0.5947 -0.3783  0.3929
 5147SOL    HW116381   0.079   2.081   0.474 -0.0650 -1.3174  0.6675
 5147SOL    HW216382   0.055   2.167   0.352  1.3117  1.2966  2.1720
 5148SOL     OW16383   1.595   2.662   1.462 -0.4682 -0.1168 -0.3585
 5148SOL    HW116384   1.575   2.633   1.551 -0.6296 -0.8048 -0.6141
 5148SOL    HW216385   1.515   2.706   1.433 -0.2114  0.6319  0.0401
 5149SOL     OW16386   4.196   5.670   6.125  0.5714  0.3188  0.1530
 5149SOL    HW116387   4.196   5.755   6.168 -0.1609  0.3774  0.0443
 5149SOL    HW216388   4.182   5.607   6.197 -0.5742  0.4117  0.0342
 5150SOL     OW16389   6.591   5.365   6.025  0.1829 -0.5473  0.4985
 5150SOL    HW116390   6.672   5.346   5.977 -0.1891 -0.9908  0.0330
 5150SOL    HW216391   6.593   5.460   6.038 -0.2072 -0.2478 -1.3449
 5151SOL     OW16392   4.658   2.821   3.998  0.8157  0.1181 -0.3393
 5151SOL    HW116393   4.712   2.767   3.940 -0.0121 -1.7282  0.5223
 5151SOL    HW216394   4.712   2.833   4.076 -0.0214 -2.0247  0.6679
 5152SOL     OW16395   1.706   0.082   4.095  0.3386  0.0828  0.1595
 5152SOL    HW116396   1.613   0.061   4.087  0.1609  0.6841  0.5480
 5152SOL    HW216397   1.708   0.165   4.144  1.1346 -0.9806  2.0515
 5153SOL     OW16398   5.661   5.832   3.811 -0.8710  0.3848 -0.0120
 5153SOL    HW116399   5.576   5.865   3.780 -0.6687 -0.2085 -1.2654
 5153SOL    HW216400   5.725   5.876   3.755 -0.6695 -3.3505 -3.0943
 5154SOL     OW16401   2.736   0.727   3.833 -0.3370 -0.5070 -0.0287
 5154SOL    HW116402   2.785   0.758   3.909 -0.0316 -0.4526 -0.2458
 5154SOL    HW216403   2.722   0.806   3.780 -0.9437 -0.4654  0.1903
 5155SOL     OW16404   3.870   2.677   2.721 -0.2745 -0.0951  0.1792
 5155SOL    HW116405   3.928   2.721   2.658  1.4211 -1.4119  0.7379
 5155SOL    HW216406   3.892   2.718   2.805 -3.3553  2.5040 -0.0618
 5156SOL     OW16407   7.290   3.249   6.267 -0.1520 -0.4882  0.3931
 5156SOL    HW116408   7.205   3.279   6.236 -0.3393  0.9561  2.1180
 5156SOL    HW216409   7.351   3.318   6.241 -0.1315  0.1987  2.1705
 5157SOL     OW16410   5.670   1.548   5.140 -0.2689  0.0201  0.0699
 5157SOL    HW116411   5.694   1.535   5.232 -1.2672  2.0952  0.6811
 5157SOL    HW216412   5.677   1.461   5.101  0.7812 -0.7966  1.9549
 5158SOL     OW16413   6.681   0.825   3.801 -0.0087 -0.4130 -0.0292
 5158SOL    HW116414   6.631   0.857   3.725 -1.1245  0.2986  0.9718
 5158SOL    HW216415   6.619   0.767   3.846  0.3759 -0.1884  0.7837
 5159SOL     OW16416   7.049   6.127   5.935  0.6190  0.8859 -0.3389
 5159SOL    HW116417   6.965   6.142   5.891  0.9330  1.9185 -0.6123
 5159SOL    HW216418   7.029   6.131   6.028 -0.2592 -2.3857 -0.2538
 5160SOL     OW16419   0.792   2.337   3.875 -0.7339  0.0212 -0.0934
 5160SOL    HW116420   0.706   2.374   3.857 -1.0301 -0.5022  0.2118
 5160SOL    HW216421   0.777   2.275   3.946 -0.5731 -1.9505 -1.6974
 5161SOL     OW16422   1.225   6.234   4.624  0.0299  0.0097  0.4035
 5161SOL    HW116423   1.283   6.308   4.642 -0.2861 -0.1578  2.3516
 5161SOL    HW216424   1.140   6.274   4.604  0.0170  0.1913  0.8127
 5162SOL     OW16425   6.158   4.915   2.576  0.5608 -0.2525 -0.4894
 5162SOL    HW116426   6.149   5.008   2.599 -0.4067 -0.0604 -1.5423
 5162SOL    HW216427   6.220   4.880   2.640 -0.6290  0.6615  1.2429
 5163SOL     OW16428   5.675   2.765   2.256  0.3612  0.1798 -0.4737
 5163SOL    HW116429   5.716   2.817   2.187  0.1328  0.2053 -0.5884
 5163SOL    HW216430   5.669   2.824   2.330  1.7130 -0.1903 -0.0372
 5164SOL     OW16431   3.896   1.395   3.051 -0.6340 -0.0636  0.6750
 5164SOL    HW116432   3.928   1.433   3.132 -0.8311  0.1225  0.6654
 5164SOL    HW216433   3.975   1.366   3.005 -0.5598 -0.8555  1.2676
 5165SOL     OW16434   4.360   6.296   3.933 -0.6055  0.2919 -0.0726
 5165SOL    HW116435   4.274   6.333   3.915 -0.0416  1.6165 -0.1754
 5165SOL    HW216436   4.405   6.363   3.984  0.2273 -0.5472  0.3239
 5166SOL     OW16437   2.677   3.033   3.177 -0.3369  0.0033  0.3138
 5166SOL    HW116438   2.736   3.024   3.102 -0.8689 -0.9064 -0.0151
 5166SOL    HW216439   2.597   3.070   3.141 -0.8011 -0.9708  0.3089
 5167SOL     OW16440   1.953   5.037   5.962 -0.3190 -0.2265  0.4753
 5167SOL    HW116441   1.917   5.112   6.009  1.2034  2.2263 -1.9813
 5167SOL    HW216442   1.886   5.016   5.896  0.7129  1.4556 -1.2041
 5168SOL     OW16443   5.222   4.062   2.180 -0.2849 -0.1160 -0.1829
 5168SOL    HW116444   5.312   4.061   2.150  0.0741 -1.1282  0.8637
 5168SOL    HW216445   5.219   3.997   2.250 -2.1215 -1.0390 -1.0497
 5169SOL     OW16446   6.854   0.534   5.350  0.2166  0.4702 -0.0894
 5169SOL    HW116447   6.894   0.525   5.263  0.8883  1.5376  0.0893
 5169SOL    HW216448   6.762   0.514   5.337  0.4141  0.0882 -0.9436
 5170SOL     OW16449   3.394   0.181   1.524  0.2523 -0.1009 -0.1490
 5170SOL    HW116450   3.447   0.234   1.465 -0.2615 -0.9209 -1.3751
 5170SOL    HW216451   3.434   0.194   1.610  1.1577  0.9254 -0.6986
 5171SOL     OW16452   0.767   0.218   6.975  0.1368 -0.3429 -0.4608
 5171SOL    HW116453   0.832   0.164   7.020  1.6707  0.1000 -2.0536
 5171SOL    HW216454   0.688   0.163   6.971  0.9248 -1.5369  0.0350
 5172SOL     OW16455   2.130   4.406   6.424 -0.0886 -0.2872  0.3323
 5172SOL    HW116456   2.095   4.482   6.378  1.8562 -0.0558 -0.8897
 5172SOL    HW216457   2.053   4.356   6.451 -1.3449  0.7960 -1.1147
 5173SOL     OW16458   1.027   3.324   3.070 -0.0997 -0.3284  0.4133
 5173SOL    HW116459   1.077   3.260   3.119 -0.6690 -0.6056  0.6435
 5173SOL    HW216460   0.936   3.294   3.076 -0.7329  1.7234  2.4964
 5174SOL     OW16461   3.883   2.006   2.912 -0.4678  0.6132  0.0247
 5174SOL    HW116462   3.820   2.003   2.840  0.4637  0.2159 -0.7936
 5174SOL    HW216463   3.886   2.099   2.937 -1.2405  0.6595 -0.0328
 5175SOL     OW16464   1.761   7.374   1.308  0.2182 -0.0495 -0.5526
 5175SOL    HW116465   1.708   7.326   1.244 -0.6193  0.0349  0.0612
 5175SOL    HW216466   1.766   7.462   1.272  1.9324 -0.6031 -1.7876
 5176SOL     OW16467   0.031   3.944   4.784  0.1824  0.7523 -0.0108
 5176SOL    HW116468   0.009   3.982   4.699 -2.0997  0.2548  0.2870
 5176SOL    HW216469  -0.053   3.934   4.829  1.0470 -1.3007  1.3264
 5177SOL     OW16470   0.038   4.657   3.640 -0.2546 -0.4118 -0.1319
 5177SOL    HW116471   0.058   4.750   3.631 -0.2354 -0.2769  1.1625
 5177SOL    HW216472  -0.052   4.648   3.607 -0.5411  0.2072  0.4626
 5178SOL     OW16473   1.853   4.845   2.460 -0.6429 -0.3589 -0.1942
 5178SOL    HW116474   1.941   4.883   2.461  0.3581 -2.5263  0.3126
 5178SOL    HW216475   1.803   4.900   2.520 -0.3895  2.4273 -2.3676
 5179SOL     OW16476   6.681   6.782   6.896 -0.1604 -0.5079  1.1653
 5179SOL    HW116477   6.636   6.735   6.826  2.3462 -0.2553 -0.7777
 5179SOL    HW216478   6.672   6.726   6.973 -2.4634 -1.1144  0.5191
 5180SOL     OW16479   4.628   7.107   5.080  0.7572  0.3480 -0.1494
 5180SOL    HW116480   4.646   7.200   5.071  0.5667  0.4677  0.6397
 5180SOL    HW216481   4.622   7.093   5.175  1.1001 -0.5247 -0.2512
 5181SOL     OW16482   0.000   2.445   5.361  0.1648 -0.1354 -0.3501
 5181SOL    HW116483   0.085   2.463   5.402 -0.3308 -1.6892  1.5413
 5181SOL    HW216484  -0.055   2.519   5.386  0.3863 -0.1721  0.2801
 5182SOL     OW16485   1.120   5.166   1.026 -0.5961  0.5428  0.3629
 5182SOL    HW116486   1.102   5.258   1.008  1.0131  0.6572 -0.8689
 5182SOL    HW216487   1.037   5.122   1.007 -1.9638  1.8673  2.7396
 5183SOL     OW16488   7.372   0.631   2.946 -0.0865  0.1616 -0.3021
 5183SOL    HW116489   7.442   0.608   3.007 -0.6758 -0.1776  0.2663
 5183SOL    HW216490   7.366   0.727   2.951  0.5004  0.2127 -0.5483
 5184SOL     OW16491   1.617   2.996   3.214  0.3168 -0.5088 -0.3773
 5184SOL    HW116492   1.537   2.956   3.180 -0.1624  0.7304 -0.7273
 5184SOL    HW216493   1.595   3.088   3.228  1.3579 -0.3794  0.5708
 5185SOL     OW16494   0.168   6.434   2.268 -0.8593 -0.2261 -0.2007
 5185SOL    HW116495   0.081   6.424   2.305 -0.8395 -1.5321 -0.4718
 5185SOL    HW216496   0.212   6.497   2.325 -0.1886 -3.5024  3.2813
 5186SOL     OW16497   0.723   1.605   0.869 -0.6258  0.0372  0.0178
 5186SOL    HW116498   0.744   1.697   0.885 -0.2651  0.0975 -0.7786
 5186SOL    HW216499   0.629   1.598   0.889 -0.5423  0.4582  0.5778
 5187SOL     OW16500   5.817   3.690   3.528  0.4462 -0.6018  0.5801
 5187SOL    HW116501   5.863   3.607   3.533  2.1595  0.3608  1.8497
 5187SOL    HW216502   5.766   3.695   3.609 -0.7182 -0.9629 -0.1018
 5188SOL     OW16503   0.157   4.769   6.919  0.0375  0.3938 -0.4254
 5188SOL    HW116504   0.231   4.709   6.907 -0.3741 -0.3692  0.6149
 5188SOL    HW216505   0.196   4.856   6.921  1.0022 -0.0309  0.6849
 5189SOL     OW16506   6.253   3.424   6.917  0.0818  0.1952  0.2690
 5189SOL    HW116507   6.348   3.409   6.918  0.0819  0.1993  0.4557
 5189SOL    HW216508   6.224   3.394   7.004 -0.0056  0.7374  0.4288
 5190SOL     OW16509   5.473   5.563   0.498 -0.2005 -0.4327 -0.2941
 5190SOL    HW116510   5.543   5.522   0.447  0.5461 -1.7110  1.6511
 5190SOL    HW216511   5.519   5.615   0.564 -1.1516  1.4587 -1.0546
 5191SOL     OW16512   5.552   5.444   3.714 -0.1698  0.4150 -0.0421
 5191SOL    HW116513   5.585   5.476   3.631  1.5905  0.6969  0.7188
 5191SOL    HW216514   5.603   5.365   3.731 -0.6648  0.2359  0.6594
 5192SOL     OW16515   1.574   6.165   0.303 -0.2371  0.4557 -0.3763
 5192SOL    HW116516   1.558   6.259   0.316  1.0291  0.6348  0.0240
 5192SOL    HW216517   1.598   6.133   0.390 -0.5991 -0.2387 -0.5269
 5193SOL     OW16518   5.500   6.939   1.913  0.2744 -0.1111  0.0540
 5193SOL    HW116519   5.421   6.992   1.917  0.4967  0.3740 -1.6045
 5193SOL    HW216520   5.529   6.933   2.005 -1.2775  0.2657  0.6040
 5194SOL     OW16521   0.853   4.072   6.855 -0.0768 -0.2154  1.0881
 5194SOL    HW116522   0.880   4.103   6.768  0.6005  1.0849  1.7296
 5194SOL    HW216523   0.761   4.097   6.862  0.0444  0.2798  0.9907
 5195SOL     OW16524   5.095   3.561   4.641  0.1769  0.1070  0.3407
 5195SOL    HW116525   5.163   3.520   4.588  0.9668 -0.6711  1.8970
 5195SOL    HW216526   5.020   3.503   4.634  0.2362  0.0742 -0.0191
 5196SOL     OW16527   7.106   6.795   5.918 -0.3383 -0.2439  0.7277
 5196SOL    HW116528   7.168   6.856   5.877  0.6222 -2.5510 -1.4658
 5196SOL    HW216529   7.042   6.776   5.849 -2.1253  0.1870  2.1925
 5197SOL     OW16530   5.195   0.267   2.671 -0.1528 -0.2498 -0.0347
 5197SOL    HW116531   5.250   0.189   2.670  2.1677  1.2675  0.0171
 5197SOL    HW216532   5.212   0.307   2.757 -0.1297  1.0416 -0.6120
 5198SOL     OW16533   5.072   2.366   3.548 -0.5452 -0.0521 -0.4609
 5198SOL    HW116534   5.028   2.293   3.503 -0.3180 -0.8697  0.6191
 5198SOL    HW216535   5.086   2.335   3.637 -0.0974  1.1822 -0.0786
 5199SOL     OW16536   4.175   6.478   5.698 -0.4607  0.4615 -0.2313
 5199SOL    HW116537   4.175   6.420   5.622  1.5963  1.2878 -0.9278
 5199SOL    HW216538   4.193   6.565   5.662 -0.4306  1.0367  1.0989
 5200SOL     OW16539   0.667   0.177   2.340 -0.7985  0.1765 -0.0737
 5200SOL    HW116540   0.580   0.172   2.382 -1.6791 -1.4125 -1.9222
 5200SOL    HW216541   0.657   0.243   2.272 -0.3251  0.4958  0.1629
 5201SOL     OW16542   4.213   3.805   0.158 -0.5660 -0.2093  0.3232
 5201SOL    HW116543   4.298   3.785   0.199 -0.7707 -0.2260  0.7418
 5201SOL    HW216544   4.209   3.745   0.084 -0.1885 -0.1776  0.2720
 5202SOL     OW16545   0.055   5.187   3.433 -0.4968 -0.1369 -0.1155
 5202SOL    HW116546  -0.030   5.205   3.392 -0.2622  0.3976 -0.3749
 5202SOL    HW216547   0.045   5.218   3.523 -1.6211 -2.9608  0.8418
 5203SOL     OW16548   3.047   6.912   4.641 -0.8585 -0.0631 -0.2572
 5203SOL    HW116549   2.959   6.941   4.618 -0.6122  1.5575  0.6927
 5203SOL    HW216550   3.103   6.987   4.623  0.6918 -1.6767 -2.6928
 5204SOL     OW16551   5.223   0.566   5.573 -0.4808 -0.0572  0.3189
 5204SOL    HW116552   5.248   0.632   5.638  1.1010  0.0613 -0.3707
 5204SOL    HW216553   5.269   0.487   5.600  1.0055  0.2502 -1.1799
 5205SOL     OW16554   0.827   1.873   6.143  0.1122 -0.3192 -0.1094
 5205SOL    HW116555   0.748   1.869   6.197 -0.4927  1.7170 -0.7313
 5205SOL    HW216556   0.806   1.938   6.076  2.3855  0.4429 -0.1744
 5206SOL     OW16557   2.923   4.370   4.608 -0.4579 -0.0208 -0.4863
 5206SOL    HW116558   2.898   4.317   4.532  0.2543  0.8398 -1.3429
 5206SOL    HW216559   2.982   4.314   4.658 -2.2166 -1.2159  0.3482
 5207SOL     OW16560   4.800   1.338   6.542  0.0835 -0.4866  0.3263
 5207SOL    HW116561   4.773   1.258   6.587 -0.8837 -0.9166 -0.9513
 5207SOL    HW216562   4.883   1.362   6.582 -0.7964 -0.7556  2.4105
 5208SOL     OW16563   4.363   5.593   1.486 -0.4252 -0.5913  0.2642
 5208SOL    HW116564   4.382   5.629   1.573  0.5217 -2.5966  0.9635
 5208SOL    HW216565   4.268   5.594   1.479 -0.4605  1.6371  0.3572
 5209SOL     OW16566   3.208   3.397   5.497 -0.2242 -0.4198  0.0457
 5209SOL    HW116567   3.208   3.415   5.591 -1.4906  2.0732 -0.3537
 5209SOL    HW216568   3.215   3.302   5.492  0.0002 -0.6365  2.6474
 5210SOL     OW16569   2.511   4.119   2.051 -0.0705  0.1240  0.2853
 5210SOL    HW116570   2.437   4.150   1.998 -0.6059  0.7828  1.3709
 5210SOL    HW216571   2.555   4.199   2.080  0.7502 -0.2520  0.1026
 5211SOL     OW16572   6.115   7.168   0.417  0.5358  0.3987 -0.2210
 5211SOL    HW116573   6.166   7.117   0.354  0.0382 -1.1388  0.5505
 5211SOL    HW216574   6.139   7.131   0.502 -0.6601  0.7185  0.2823
 5212SOL     OW16575   0.931   3.981   1.410 -0.2722  0.4016  0.1943
 5212SOL    HW116576   0.890   4.067   1.411 -1.0145  0.0525  0.2887
 5212SOL    HW216577   0.912   3.944   1.496  0.3891  0.2987  0.2988
 5213SOL     OW16578   0.971   0.150   6.705  0.0753  0.5248 -0.6530
 5213SOL    HW116579   0.878   0.163   6.684 -0.2337 -0.7754 -0.1375
 5213SOL    HW216580   0.987   0.210   6.779 -0.1279  1.3364 -1.2474
 5214SOL     OW16581   3.684   1.114   0.552  0.7318  0.0485 -0.6279
 5214SOL    HW116582   3.776   1.093   0.541  0.8566  0.0153  0.3830
 5214SOL    HW216583   3.640   1.029   0.556  1.0331 -0.0394  1.8025
 5215SOL     OW16584   4.513   6.672   0.885  0.2343 -0.0870 -0.6600
 5215SOL    HW116585   4.556   6.733   0.826 -2.3463  0.6780 -1.8912
 5215SOL    HW216586   4.466   6.612   0.828  0.0500 -1.1897  0.5916
 5216SOL     OW16587   6.742   4.272   3.414 -0.0467  0.2547  0.0226
 5216SOL    HW116588   6.757   4.200   3.353  0.0613  0.6072 -0.3782
 5216SOL    HW216589   6.709   4.231   3.493 -0.3009 -0.2034 -0.3174
 5217SOL     OW16590   4.040   3.403   4.739  0.3912  0.7897 -0.1167
 5217SOL    HW116591   4.020   3.451   4.820  0.6978  1.0506 -0.1949
 5217SOL    HW216592   4.059   3.314   4.769 -2.2159  0.1379 -0.1523
 5218SOL     OW16593   4.710   1.101   0.666  0.6422  0.0045  0.1717
 5218SOL    HW116594   4.687   1.176   0.722  0.8813  0.3387 -0.1717
 5218SOL    HW216595   4.799   1.077   0.693  0.9947  0.5501 -0.4637
 5219SOL     OW16596   4.473   6.701   2.159 -0.4982  0.5349 -0.2175
 5219SOL    HW116597   4.511   6.628   2.207 -2.2979  0.8793  1.9286
 5219SOL    HW216598   4.470   6.671   2.068 -0.6556 -1.8571  0.4996
 5220SOL     OW16599   5.219   2.962   0.509  0.3574  0.6608  0.0177
 5220SOL    HW116600   5.137   2.953   0.459 -0.2201 -1.9143  1.2484
 5220SOL    HW216601   5.211   3.046   0.554 -0.3749  1.7017 -1.9182
 5221SOL     OW16602   3.018   2.689   3.348  0.8120  0.1140  0.5572
 5221SOL    HW116603   3.042   2.782   3.342 -0.9263  0.4918 -1.8312
 5221SOL    HW216604   3.102   2.644   3.363  1.5223  2.0932  3.3653
 5222SOL     OW16605   0.720   1.880   3.255 -0.0889 -0.2048 -0.3535
 5222SOL    HW116606   0.741   1.830   3.334 -1.4173  1.2271  0.9783
 5222SOL    HW216607   0.665   1.821   3.203  0.8490 -1.1803 -0.2758
 5223SOL     OW16608   6.248   1.947   7.190 -0.0059 -0.6640  0.2183
 5223SOL    HW116609   6.320   1.897   7.151  1.1108 -0.1187  1.5025
 5223SOL    HW216610   6.192   1.970   7.116  1.1450 -1.0819 -0.8160
 5224SOL     OW16611   1.069   0.464   6.440 -0.3773  0.0287  0.0004
 5224SOL    HW116612   1.094   0.374   6.462  0.7246  0.1232 -0.7751
 5224SOL    HW216613   1.005   0.454   6.370 -0.1618 -0.1510 -0.1724
 5225SOL     OW16614   2.615   3.310   4.063  0.6198  0.2305 -0.0544
 5225SOL    HW116615   2.699   3.267   4.075  1.0572  1.1556  0.3541
 5225SOL    HW216616   2.586   3.284   3.975  0.7653 -1.0145  0.2506
 5226SOL     OW16617   2.592   1.450   4.079 -0.0794  0.0472 -0.6532
 5226SOL    HW116618   2.623   1.489   3.998  1.0803 -0.2896 -0.3856
 5226SOL    HW216619   2.629   1.506   4.148  0.5625 -0.7896 -0.3035
 5227SOL     OW16620   0.210   1.571   2.534  0.0660  0.4855  0.4428
 5227SOL    HW116621   0.264   1.645   2.507 -1.2532  0.9028 -1.2282
 5227SOL    HW216622   0.230   1.560   2.627  3.1441  0.4446 -0.1220
 5228SOL     OW16623   4.610   1.551   2.856  0.0566 -0.7696  0.3547
 5228SOL    HW116624   4.692   1.601   2.849 -0.0797 -0.4008  1.2496
 5228SOL    HW216625   4.589   1.526   2.766 -0.3255  1.5245 -0.2482
 5229SOL     OW16626   6.363   3.400   5.700 -0.2654 -0.8858  0.3394
 5229SOL    HW116627   6.384   3.452   5.778 -0.2799 -0.2453 -0.0766
 5229SOL    HW216628   6.440   3.345   5.688 -0.4574 -1.3332  1.0773
 5230SOL     OW16629   0.706   4.513   1.510 -0.6362 -0.3052 -0.5471
 5230SOL    HW116630   0.742   4.443   1.456  2.5049  0.3754  0.4777
 5230SOL    HW216631   0.707   4.591   1.454  0.1282 -0.1545 -0.3307
 5231SOL     OW16632   4.746   7.269   4.604  0.6103 -0.1989  0.0199
 5231SOL    HW116633   4.674   7.206   4.614  0.1295  0.3479  0.0180
 5231SOL    HW216634   4.787   7.245   4.520 -0.7088  0.6139 -0.8974
 5232SOL     OW16635   7.027   0.486   2.679  0.1730  0.6209 -0.3994
 5232SOL    HW116636   7.077   0.529   2.609 -0.6869 -0.1168 -1.5004
 5232SOL    HW216637   7.018   0.395   2.649  0.7003  0.0095  1.1941
 5233SOL     OW16638   7.166   5.604   5.006  0.5023 -0.2502 -0.1808
 5233SOL    HW116639   7.161   5.509   4.993  0.2770  0.0357 -2.6454
 5233SOL    HW216640   7.256   5.619   5.037  1.5818 -1.0664 -2.6417
 5234SOL     OW16641   5.693   0.606   6.335  0.5266  0.1743  0.1961
 5234SOL    HW116642   5.733   0.688   6.365 -1.2978  0.7111  1.3357
 5234SOL    HW216643   5.702   0.547   6.409  1.9734 -0.7590 -0.6767
 5235SOL     OW16644   7.353   5.128   6.825 -0.4397 -0.2394  0.3613
 5235SOL    HW116645   7.365   5.122   6.920 -0.9930  0.1528  0.4609
 5235SOL    HW216646   7.278   5.186   6.814 -1.8492 -2.0846 -0.2362
 5236SOL     OW16647   1.852   7.129   0.414  0.6225 -0.1203  0.2161
 5236SOL    HW116648   1.916   7.113   0.345 -0.8020  1.2582 -1.4822
 5236SOL    HW216649   1.894   7.194   0.471  0.6597  1.0110 -1.0558
 5237SOL     OW16650   2.296   6.739   1.589 -0.4021  0.0757 -0.3007
 5237SOL    HW116651   2.367   6.698   1.639  0.5087  0.9417 -0.8552
 5237SOL    HW216652   2.216   6.705   1.629  0.3098  0.0111  1.1171
 5238SOL     OW16653   7.265   6.963   2.632 -0.3501 -0.3139 -0.3150
 5238SOL    HW116654   7.319   6.996   2.560  1.7507  1.1119  1.7926
 5238SOL    HW216655   7.183   7.013   2.624  0.4712  1.0062 -0.7673
 5239SOL     OW16656   2.751   1.097   2.705 -0.2686 -0.0327  0.6502
 5239SOL    HW116657   2.836   1.127   2.736 -0.4240  2.3677 -0.9761
 5239SOL    HW216658   2.771   1.042   2.629 -0.1629  1.2461 -0.2675
 5240SOL     OW16659   0.952   6.852   1.364  0.4595 -0.0272  0.1472
 5240SOL    HW116660   0.921   6.797   1.293  2.7532 -1.2905  0.0390
 5240SOL    HW216661   0.985   6.931   1.320  2.4198 -1.0507 -0.3464
 5241SOL     OW16662   5.678   1.328   2.935 -0.0840 -0.0709 -0.0513
 5241SOL    HW116663   5.650   1.263   3.000  0.8488 -1.0759 -0.6238
 5241SOL    HW216664   5.617   1.316   2.862  0.1917 -0.4289 -0.2256
 5242SOL     OW16665   2.101   3.250   2.081  0.3322 -0.1374  0.1885
 5242SOL    HW116666   2.084   3.212   2.168 -0.9237 -1.6569 -0.6705
 5242SOL    HW216667   2.152   3.328   2.099  0.2421 -0.5016  2.2986
 5243SOL     OW16668   2.481   1.474   5.004 -0.0350  0.1245  0.2854
 5243SOL    HW116669   2.501   1.484   5.098 -0.1661  0.2858  0.2967
 5243SOL    HW216670   2.470   1.380   4.992 -0.5144  0.1416  0.5361
 5244SOL     OW16671   0.222   3.314   2.133 -0.0300 -0.3399 -0.3239
 5244SOL    HW116672   0.315   3.296   2.145 -0.3099 -1.0166  1.0983
 5244SOL    HW216673   0.219   3.400   2.091  1.2065  0.7530  1.6827
 5245SOL     OW16674   4.972   3.122   1.983 -0.3745 -0.2695  0.3293
 5245SOL    HW116675   4.900   3.080   1.937 -0.6215 -0.9337  1.2972
 5245SOL    HW216676   4.933   3.157   2.063  0.1775  0.2738  0.3725
 5246SOL     OW16677   5.053   2.011   4.073  0.7905  0.1815 -0.0528
 5246SOL    HW116678   5.002   2.022   3.993  1.4520  0.5841 -0.4271
 5246SOL    HW216679   5.080   1.919   4.073  0.0460 -0.0411  0.1644
 5247SOL     OW16680   5.342   1.180   3.516  0.5063  0.4235  0.8262
 5247SOL    HW116681   5.270   1.244   3.522  0.5874  0.4585  1.5530
 5247SOL    HW216682   5.417   1.226   3.554  1.1450  0.7030 -0.7266
 5248SOL     OW16683   5.675   1.611   6.852  0.9858 -0.0677 -0.6204
 5248SOL    HW116684   5.665   1.683   6.914  0.9681 -0.7055  0.1163
 5248SOL    HW216685   5.616   1.634   6.780 -1.5971 -0.9818  1.0919
 5249SOL     OW16686   1.426   0.202   1.180 -0.2872 -0.2977 -0.1043
 5249SOL    HW116687   1.367   0.138   1.220  0.1164 -0.1970  0.6534
 5249SOL    HW216688   1.382   0.226   1.098 -1.8181  0.5375  0.9214
 5250SOL     OW16689   5.889   0.307   3.353  0.1353  0.4458 -0.2933
 5250SOL    HW116690   5.917   0.394   3.325 -1.8536  1.2182 -0.0318
 5250SOL    HW216691   5.800   0.298   3.319 -0.5328 -0.5640  1.5950
 5251SOL     OW16692   0.474   3.119   4.230  0.5443 -0.3363  0.1808
 5251SOL    HW116693   0.401   3.170   4.264 -0.4761 -1.2270 -0.5977
 5251SOL    HW216694   0.532   3.183   4.190 -0.0296  0.3401  0.4115
 5252SOL     OW16695   1.823   6.025   2.897 -0.1582  0.2313  0.5776
 5252SOL    HW116696   1.750   6.075   2.935  0.1609 -0.0966  1.6568
 5252SOL    HW216697   1.817   6.042   2.803 -1.2360  0.7263  0.7180
 5253SOL     OW16698   3.422   4.055   1.287 -0.0527  0.3081  0.6588
 5253SOL    HW116699   3.500   4.108   1.304 -0.4058  1.1904 -0.3890
 5253SOL    HW216700   3.391   4.085   1.202 -0.1878 -1.6895 -0.0477
 5254SOL     OW16701   5.778   5.500   2.041 -0.5339 -0.0525 -0.3230
 5254SOL    HW116702   5.830   5.577   2.063 -2.0516  0.5415  1.3601
 5254SOL    HW216703   5.829   5.427   2.076  0.3335  0.2682 -0.8770
 5255SOL     OW16704   7.380   2.277   2.518  0.3351 -0.1743  0.0675
 5255SOL    HW116705   7.456   2.220   2.535 -0.9051 -2.0923 -0.4420
 5255SOL    HW216706   7.310   2.238   2.570 -0.7485  0.4720 -0.8777
 5256SOL     OW16707   7.316   4.036   3.181 -0.0252 -0.0124  0.1729
 5256SOL    HW116708   7.357   4.080   3.255 -1.6167  0.8792  0.5700
 5256SOL    HW216709   7.241   3.989   3.218  0.6917 -1.7845 -0.4929
 5257SOL     OW16710   4.057   0.841   3.294 -0.2540 -0.0776 -0.2541
 5257SOL    HW116711   4.151   0.825   3.305 -0.3483  0.1194  0.9641
 5257SOL    HW216712   4.043   0.835   3.199  1.1702  0.9455 -0.5706
 5258SOL     OW16713   6.417   1.471   6.023 -0.2167 -0.6247 -0.0384
 5258SOL    HW116714   6.440   1.521   5.944 -0.1742 -0.9620 -0.2407
 5258SOL    HW216715   6.501   1.441   6.057 -0.3705 -2.6503 -1.2954
 5259SOL     OW16716   5.283   7.174   4.063 -0.1773  0.1075  0.5143
 5259SOL    HW116717   5.269   7.124   3.982  0.7450 -0.3903  0.6421
 5259SOL    HW216718   5.221   7.136   4.126  0.9722 -1.3954  0.8043
 5260SOL     OW16719   1.235   0.527   6.189 -0.6531  0.6436  0.4294
 5260SOL    HW116720   1.191   0.452   6.149  1.4494  0.0228 -0.9023
 5260SOL    HW216721   1.280   0.490   6.265 -1.0028  0.9275  0.7798
 5261SOL     OW16722   2.112   7.326   5.634  0.2277 -0.1250  0.9263
 5261SOL    HW116723   2.166   7.293   5.562  1.1490  0.8897  1.1332
 5261SOL    HW216724   2.085   7.413   5.606  0.7508  0.3528  1.8798
 5262SOL     OW16725   3.801   4.998   1.615  0.3942  0.2990 -0.0487
 5262SOL    HW116726   3.789   5.072   1.554 -0.6916 -0.8539 -1.2946
 5262SOL    HW216727   3.720   4.996   1.666  0.5779  0.1831  0.2403
 5263SOL     OW16728   3.757   0.594   4.839 -0.0989  0.3882 -0.0143
 5263SOL    HW116729   3.820   0.613   4.770 -0.2232 -1.9209 -0.8728
 5263SOL    HW216730   3.776   0.503   4.865 -0.5638  0.9186  2.4757
 5264SOL     OW16731   5.216   3.814   3.291  0.0963 -0.1304  0.7202
 5264SOL    HW116732   5.260   3.896   3.315  1.2563  0.2547 -2.1967
 5264SOL    HW216733   5.287   3.750   3.284 -0.1583 -0.2915 -0.9852
 5265SOL     OW16734   6.675   2.411   3.932 -0.0151 -0.1300 -0.0356
 5265SOL    HW116735   6.652   2.373   3.847 -0.4250 -0.9999  0.4577
 5265SOL    HW216736   6.752   2.363   3.960 -0.0688 -0.0629  0.2300
 5266SOL     OW16737   1.245   0.494   0.798 -0.4976  0.0153 -0.2026
 5266SOL    HW116738   1.276   0.514   0.887 -0.7307  0.7588 -0.2813
 5266SOL    HW216739   1.263   0.574   0.748 -1.9812  0.2633 -0.3879
 5267SOL     OW16740   0.828   6.143   0.768 -0.1507  0.3543  0.8260
 5267SOL    HW116741   0.786   6.107   0.846  0.0992  1.8532  1.7008
 5267SOL    HW216742   0.870   6.223   0.799 -0.6251  1.3577 -0.9979
 5268SOL     OW16743   1.363   3.278   6.822 -0.2309 -0.5665  0.0034
 5268SOL    HW116744   1.405   3.230   6.894  0.8007  0.5546  0.1895
 5268SOL    HW216745   1.347   3.211   6.755  5.6879 -0.7028 -1.8861
 5269SOL     OW16746   1.517   0.645   6.544 -0.4166 -0.8676 -0.3688
 5269SOL    HW116747   1.506   0.728   6.591  0.0106 -1.1855  0.3022
 5269SOL    HW216748   1.444   0.591   6.574 -0.8280 -0.6659 -0.9796
 5270SOL     OW16749   3.198   6.181   5.223 -0.1958 -0.7088  0.4032
 5270SOL    HW116750   3.124   6.231   5.189 -0.8717 -1.3373  0.8941
 5270SOL    HW216751   3.159   6.098   5.253  0.4862 -0.5182  1.9054
 5271SOL     OW16752   5.611   2.419   7.020  0.3273 -0.6055  0.1599
 5271SOL    HW116753   5.544   2.404   7.086 -0.3169  1.4332  0.0359
 5271SOL    HW216754   5.612   2.339   6.967 -0.4013 -1.5463  1.5237
 5272SOL     OW16755   1.175   6.650   6.342  0.6560  0.2582  0.0359
 5272SOL    HW116756   1.189   6.565   6.383  0.4247  0.7492  1.1574
 5272SOL    HW216757   1.128   6.701   6.408  2.8151  2.0235  0.3120
 5273SOL     OW16758   5.611   2.732   3.867  0.2467 -0.2711  0.1073
 5273SOL    HW116759   5.524   2.763   3.844  0.1825 -0.8528 -0.4311
 5273SOL    HW216760   5.671   2.799   3.833  0.0748 -0.4257 -0.4956
 5274SOL     OW16761   5.577   1.576   2.211  0.1072 -0.7993  0.0063
 5274SOL    HW116762   5.561   1.562   2.117 -1.2784  0.0849  0.0904
 5274SOL    HW216763   5.593   1.488   2.246  1.8668 -1.0323 -1.2470
 5275SOL     OW16764   1.753   2.243   3.176 -0.2560  0.0594  0.4597
 5275SOL    HW116765   1.810   2.253   3.100 -0.5233  1.1469  0.3915
 5275SOL    HW216766   1.775   2.157   3.211  1.8449  0.6976  0.7841
 5276SOL     OW16767   1.919   0.693   1.765  0.5884 -0.1088  0.4283
 5276SOL    HW116768   1.897   0.732   1.850  0.7225 -0.9645  0.8588
 5276SOL    HW216769   1.940   0.602   1.785  0.8360 -0.2592 -0.4969
 5277SOL     OW16770   6.755   3.223   3.958 -0.4215 -0.2713 -0.4772
 5277SOL    HW116771   6.685   3.235   4.022  0.1309  1.7035 -0.1924
 5277SOL    HW216772   6.752   3.130   3.936 -2.3718 -0.4412  0.3824
 5278SOL     OW16773   1.261   3.192   4.059  0.1381 -0.3229  0.2052
 5278SOL    HW116774   1.354   3.171   4.049 -0.1274 -0.6949 -2.0305
 5278SOL    HW216775   1.226   3.119   4.110  1.3518  0.7511  2.7394
 5279SOL     OW16776   5.529   1.532   6.630  0.5125  0.0633  0.5552
 5279SOL    HW116777   5.618   1.502   6.613  0.7370  0.1276  1.5739
 5279SOL    HW216778   5.484   1.456   6.667 -0.2988 -0.4173 -1.2818
 5280SOL     OW16779   2.523   7.165   6.745 -0.2234  0.1370  0.2385
 5280SOL    HW116780   2.505   7.258   6.763 -0.5006  0.3629 -1.1033
 5280SOL    HW216781   2.572   7.166   6.663  0.9897 -0.8405  0.9081
 5281SOL     OW16782   0.607   2.457   1.786 -0.3142  0.4161  0.1489
 5281SOL    HW116783   0.660   2.475   1.708  0.4201  0.1267  0.5672
 5281SOL    HW216784   0.671   2.444   1.856 -0.9159 -0.6059  0.5341
 5282SOL     OW16785   1.886   6.433   2.436  0.1312 -0.6915  0.2353
 5282SOL    HW116786   1.942   6.471   2.504  0.4632 -1.1253  0.2077
 5282SOL    HW216787   1.903   6.485   2.358 -1.3506  0.7802  0.8269
 5283SOL     OW16788   6.611   3.485   4.765  0.4239 -0.2052  0.0958
 5283SOL    HW116789   6.691   3.445   4.732  0.4622 -2.2999  2.4510
 5283SOL    HW216790   6.640   3.569   4.802  1.0725  0.1861 -1.2548
 5284SOL     OW16791   3.584   0.380   0.100  0.6037 -0.0205 -0.3793
 5284SOL    HW116792   3.513   0.349   0.045  0.0167  1.2710 -0.3894
 5284SOL    HW216793   3.543   0.443   0.159  1.6238  0.3096  0.0009
 5285SOL     OW16794   2.075   5.391   1.343  0.1925  0.3511  0.0795
 5285SOL    HW116795   2.006   5.326   1.351  1.6090 -1.0230  2.0636
 5285SOL    HW216796   2.029   5.475   1.342 -1.5267 -0.5520  0.3201
 5286SOL     OW16797   6.335   4.507   3.150 -0.4279 -0.2295  0.1125
 5286SOL    HW116798   6.423   4.479   3.175 -0.9186 -0.0550  2.1825
 5286SOL    HW216799   6.338   4.512   3.054  1.6898 -0.5875  0.1135
 5287SOL     OW16800   2.670   6.328   6.881 -0.6476 -0.1872 -0.0042
 5287SOL    HW116801   2.729   6.257   6.906  0.8689  0.9976 -0.0683
 5287SOL    HW216802   2.618   6.343   6.960 -2.2096 -2.4470 -0.5065
 5288SOL     OW16803   2.227   6.247   1.583 -0.6670 -0.4715  0.4528
 5288SOL    HW116804   2.274   6.325   1.612 -1.3954  1.5110 -3.1294
 5288SOL    HW216805   2.284   6.208   1.516 -2.3043 -0.2968 -1.1070
 5289SOL     OW16806   0.168   3.908   1.391  0.2285 -1.3001  0.0744
 5289SOL    HW116807   0.165   3.935   1.299  0.9823 -0.5914  0.2447
 5289SOL    HW216808   0.094   3.954   1.431  1.1386  0.0815  0.2359
 5290SOL     OW16809   6.166   3.617   1.450 -0.5779  0.1357  0.0559
 5290SOL    HW116810   6.213   3.653   1.374 -0.4008 -0.4146 -0.0967
 5290SOL    HW216811   6.112   3.547   1.414 -2.4903  1.5303  0.0138
 5291SOL     OW16812   6.512   2.923   4.668 -0.2067 -0.2266 -0.6563
 5291SOL    HW116813   6.592   2.973   4.652  0.4428 -1.3156 -0.8830
 5291SOL    HW216814   6.521   2.895   4.759 -1.6126  1.8717  0.2153
 5292SOL     OW16815   1.405   1.994   6.113  0.2206 -0.1981  0.1120
 5292SOL    HW116816   1.433   1.980   6.022  0.7476  2.9244 -0.3051
 5292SOL    HW216817   1.486   2.016   6.160 -0.3616  0.4342  0.8360
 5293SOL     OW16818   3.068   2.044   0.395  0.4250 -0.2561  0.1170
 5293SOL    HW116819   3.108   2.099   0.328 -0.4711 -0.5751 -0.7099
 5293SOL    HW216820   2.980   2.079   0.406  1.3086  1.3431  2.9587
 5294SOL     OW16821   0.472   5.720   4.015  0.4516 -0.1461 -0.5851
 5294SOL    HW116822   0.535   5.771   4.066 -1.5636 -0.0268  1.9788
 5294SOL    HW216823   0.480   5.631   4.050  0.8349 -0.6807 -1.9496
 5295SOL     OW16824   6.130   0.745   6.433 -0.0308  0.2697 -0.3090
 5295SOL    HW116825   6.110   0.665   6.483 -1.4555  1.9520  1.9906
 5295SOL    HW216826   6.223   0.761   6.450  0.0141 -0.3356  0.0488
 5296SOL     OW16827   0.569   2.598   6.935 -0.2208 -0.0274 -0.1307
 5296SOL    HW116828   0.640   2.604   6.999 -0.5092 -0.4447  0.2339
 5296SOL    HW216829   0.571   2.682   6.890 -0.0796  0.3151  0.4995
 5297SOL     OW16830   5.012   4.836   4.331  0.0601 -0.4130 -0.6441
 5297SOL    HW116831   5.041   4.845   4.422  0.9509  0.3294 -0.9858
 5297SOL    HW216832   4.980   4.922   4.306  0.5606 -0.3973 -1.2746
 5298SOL     OW16833   5.687   4.767   4.677 -0.2596  0.0080  0.5093
 5298SOL    HW116834   5.761   4.800   4.625  0.8063 -0.1798  1.8516
 5298SOL    HW216835   5.720   4.686   4.716 -0.9991  0.1997  1.5553
 5299SOL     OW16836   6.192   4.514   6.006  0.4951  0.8927  0.5903
 5299SOL    HW116837   6.269   4.553   6.047  1.1742  0.8842 -0.6531
 5299SOL    HW216838   6.118   4.549   6.057  1.1499  2.8471  0.3092
 5300SOL     OW16839   1.236   1.458   2.860 -0.3819  0.6971 -0.1597
 5300SOL    HW116840   1.248   1.444   2.766  0.2647 -0.9426  0.1443
 5300SOL    HW216841   1.276   1.382   2.901 -1.1409  1.1238  1.4359
 5301SOL     OW16842   7.026   1.278   4.117  0.3949  0.0733  0.1085
 5301SOL    HW116843   6.943   1.232   4.132  0.0135  0.7852  0.2257
 5301SOL    HW216844   7.000   1.362   4.079  1.1188 -0.0421 -0.6514
 5302SOL     OW16845   6.383   7.407   4.969 -0.0859  0.0035 -0.8424
 5302SOL    HW116846   6.370   7.440   4.880 -1.1046  2.5426  0.1456
 5302SOL    HW216847   6.474   7.428   4.990 -0.0773  0.1389 -1.0116
 5303SOL     OW16848   1.490   5.203   2.400  0.0476  0.0644  0.5286
 5303SOL    HW116849   1.405   5.217   2.359 -0.8545 -1.2991  1.8377
 5303SOL    HW216850   1.480   5.237   2.489  0.3321 -1.5816  1.2168
 5304SOL     OW16851   7.427   3.029   5.987  0.5410 -0.4884 -0.3082
 5304SOL    HW116852   7.477   3.087   6.045  0.1517 -0.4125 -0.0450
 5304SOL    HW216853   7.493   2.973   5.947  0.9228  0.1229 -0.5537
 5305SOL     OW16854   2.955   5.060   4.540 -0.5602 -0.0587  0.1396
 5305SOL    HW116855   3.015   5.134   4.533 -0.8749  0.5103  2.4807
 5305SOL    HW216856   2.875   5.098   4.577 -0.9695 -1.4335  0.7179
 5306SOL     OW16857   6.191   2.297   3.037 -0.4465 -0.6759  0.1014
 5306SOL    HW116858   6.145   2.236   3.096 -0.3221 -0.7528  0.1204
 5306SOL    HW216859   6.126   2.364   3.017 -0.4460 -0.5711  0.4413
 5307SOL     OW16860   0.651   2.720   5.465  0.0300  0.1585 -0.2609
 5307SOL    HW116861   0.584   2.745   5.401  0.0958  1.0494 -0.0038
 5307SOL    HW216862   0.722   2.684   5.412 -0.2546  0.1257 -0.6236
 5308SOL     OW16863   6.478   0.365   1.383  0.1356 -0.0790 -0.2860
 5308SOL    HW116864   6.571   0.374   1.362  0.1994  0.5549  0.2418
 5308SOL    HW216865   6.463   0.271   1.382  0.8697 -0.2096 -0.0274
 5309SOL     OW16866   0.373   3.505   4.103 -0.1125 -0.4094 -0.1010
 5309SOL    HW116867   0.416   3.469   4.025  0.6799  2.6174 -1.2172
 5309SOL    HW216868   0.443   3.549   4.151 -1.3666  1.9980 -0.3363
 5310SOL     OW16869   1.348   0.818   6.784 -0.8090  0.2526 -0.1819
 5310SOL    HW116870   1.265   0.866   6.785  0.4293  2.5578 -0.2004
 5310SOL    HW216871   1.396   0.854   6.710 -0.0551 -1.5642 -0.6251
 5311SOL     OW16872   7.300   5.979   6.584 -0.2996 -0.2915  0.3061
 5311SOL    HW116873   7.363   6.009   6.518 -1.4537  1.0921 -0.2405
 5311SOL    HW216874   7.333   5.895   6.613  0.6437 -0.6029 -1.5207
 5312SOL     OW16875   2.479   6.859   6.577  0.4926 -0.5116 -0.1466
 5312SOL    HW116876   2.403   6.813   6.613 -0.0995  0.7342  0.2208
 5312SOL    HW216877   2.443   6.937   6.535  1.5117 -0.2352 -0.5427
 5313SOL     OW16878   0.915   3.739   0.371 -0.4706 -0.1513 -0.3018
 5313SOL    HW116879   0.826   3.752   0.338 -1.0948  1.2222  1.7249
 5313SOL    HW216880   0.957   3.825   0.362 -0.0482 -0.2399  0.6569
 5314SOL     OW16881   1.023   4.396   4.492  0.0239  0.0813  0.3214
 5314SOL    HW116882   1.065   4.325   4.445  0.4243  0.7195 -0.3020
 5314SOL    HW216883   1.070   4.401   4.576 -1.1478 -1.5165  1.1299
 5315SOL     OW16884   2.553   4.693   6.217 -0.2179 -0.6955  0.0428
 5315SOL    HW116885   2.629   4.706   6.274 -1.0405 -1.1299  1.2842
 5315SOL    HW216886   2.559   4.764   6.153  0.8054 -0.2587  0.5943
 5316SOL     OW16887   3.041   5.924   2.024  0.1518  0.0488 -0.1073
 5316SOL    HW116888   3.032   6.011   2.063 -0.5614 -1.4836  3.5434
 5316SOL    HW216889   3.133   5.902   2.036  0.0537 -0.2003  0.2022
 5317SOL     OW16890   6.550   6.832   5.397  0.3839 -0.1734  0.4753
 5317SOL    HW116891   6.596   6.895   5.343  0.5585 -1.2577 -0.6719
 5317SOL    HW216892   6.463   6.870   5.409  0.5420  0.3688 -0.0478
 5318SOL     OW16893   6.955   4.918   7.146  0.1917 -0.5550  0.3901
 5318SOL    HW116894   6.917   4.830   7.143 -1.0794 -0.0001 -1.3925
 5318SOL    HW216895   7.017   4.919   7.073 -2.6502  1.1520 -2.2477
 5319SOL     OW16896   0.575   6.126   3.871  0.1990 -0.1405  0.2595
 5319SOL    HW116897   0.545   6.186   3.803  0.5486 -0.7295 -0.4310
 5319SOL    HW216898   0.668   6.148   3.883  0.6125 -1.2453 -0.7743
 5320SOL     OW16899   1.630   6.409   5.792  0.2312 -0.1045  0.0830
 5320SOL    HW116900   1.669   6.417   5.879 -1.1500 -1.3400  0.8726
 5320SOL    HW216901   1.699   6.372   5.738  1.0733  0.5602  0.6712
 5321SOL     OW16902   0.738   2.296   6.234  0.1387  0.2638  0.0780
 5321SOL    HW116903   0.671   2.362   6.251  1.4579  1.5668  0.4270
 5321SOL    HW216904   0.731   2.235   6.308 -0.2977  0.6933  0.3964
 5322SOL     OW16905   2.465   1.323   4.454 -0.1388  0.2889  0.4998
 5322SOL    HW116906   2.373   1.343   4.435  0.6730  2.4483 -1.6051
 5322SOL    HW216907   2.490   1.260   4.386 -0.1004 -0.4796  1.2146
 5323SOL     OW16908   5.948   1.202   4.783  0.3481 -0.1239 -0.1542
 5323SOL    HW116909   6.020   1.224   4.842 -0.4132  2.6437 -0.1035
 5323SOL    HW216910   5.976   1.235   4.698 -0.7097  0.7409 -0.1875
 5324SOL     OW16911   0.914   5.268   3.878 -0.0573 -0.2615  0.2618
 5324SOL    HW116912   0.941   5.330   3.945 -2.6731  1.5222 -0.2339
 5324SOL    HW216913   0.839   5.223   3.915 -1.8577  1.0919 -1.5418
 5325SOL     OW16914   2.784   5.390   6.475 -0.2130  0.5936  0.1007
 5325SOL    HW116915   2.709   5.447   6.458  1.1947  2.3978 -0.2990
 5325SOL    HW216916   2.856   5.430   6.426  1.4689 -0.0366  1.9484
 5326SOL     OW16917   5.407   6.318   1.225 -0.0892  0.1566  0.3208
 5326SOL    HW116918   5.467   6.339   1.296  1.2595 -0.4412 -0.6008
 5326SOL    HW216919   5.329   6.283   1.269  0.1513  1.0870  1.5457
 5327SOL     OW16920   3.008   5.162   7.025  0.7587  0.1316 -0.5660
 5327SOL    HW116921   2.942   5.175   6.958 -0.1246 -0.8584  0.0658
 5327SOL    HW216922   2.989   5.075   7.061  2.7636 -0.4319 -0.7439
 5328SOL     OW16923   4.292   1.112   6.926 -0.8167  0.3462 -0.5724
 5328SOL    HW116924   4.218   1.070   6.969 -1.5748  1.3950 -0.8170
 5328SOL    HW216925   4.296   1.200   6.964  0.2575  0.3402 -0.6236
 5329SOL     OW16926   4.819   7.235   0.285 -0.1149 -0.2701  0.0185
 5329SOL    HW116927   4.796   7.326   0.267  0.9585 -0.2256 -1.2158
 5329SOL    HW216928   4.749   7.184   0.244  0.0250 -0.0344 -0.5215
 5330SOL     OW16929   6.404   3.937   2.841  0.6282 -0.2283  0.7182
 5330SOL    HW116930   6.385   3.871   2.907 -2.8834 -0.1489 -0.0120
 5330SOL    HW216931   6.319   3.958   2.802  2.0743  2.1366 -1.5593
 5331SOL     OW16932   6.003   1.793   2.028  0.1818 -0.0772 -0.0500
 5331SOL    HW116933   5.977   1.878   2.064  2.4640 -0.0392  1.7482
 5331SOL    HW216934   6.057   1.815   1.952  3.1288  0.3576  1.9950
 5332SOL     OW16935   5.356   6.525   1.066  0.3599  0.0908 -0.6452
 5332SOL    HW116936   5.373   6.447   1.117  0.1751  0.5222  0.0876
 5332SOL    HW216937   5.293   6.498   1.000 -2.4997  0.4004  1.7805
 5333SOL     OW16938   0.502   3.078   3.684 -0.2693  0.1020 -0.3825
 5333SOL    HW116939   0.458   3.139   3.624  0.9543 -0.0757 -1.5114
 5333SOL    HW216940   0.436   3.058   3.750 -1.8068  0.0353 -1.8598
 5334SOL     OW16941   3.894   6.040   2.761  0.7611  0.2801 -0.3293
 5334SOL    HW116942   3.864   6.130   2.752 -0.4360 -0.1585 -0.9973
 5334SOL    HW216943   3.874   5.999   2.677 -0.6322 -1.1285  0.6283
 5335SOL     OW16944   1.431   6.104   4.804  0.4491 -0.3453 -0.0998
 5335SOL    HW116945   1.391   6.133   4.722  0.3090 -1.4142 -0.4366
 5335SOL    HW216946   1.390   6.019   4.821  0.1623  0.0491  1.3105
 5336SOL     OW16947   6.554   1.417   1.679  0.1080  0.2797  0.1907
 5336SOL    HW116948   6.637   1.433   1.634  0.6020  0.4612  1.1226
 5336SOL    HW216949   6.524   1.332   1.647  1.6012 -0.6755  1.1800
 5337SOL     OW16950   0.843   5.161   3.269 -0.3415 -0.3812 -0.3399
 5337SOL    HW116951   0.785   5.151   3.194 -0.2506  2.1540 -0.8354
 5337SOL    HW216952   0.889   5.243   3.253  0.2225 -0.1351  2.1509
 5338SOL     OW16953   3.823   4.729   2.204  0.1240 -0.4063 -0.1840
 5338SOL    HW116954   3.833   4.665   2.274 -0.8048  0.8574  1.1752
 5338SOL    HW216955   3.907   4.775   2.202 -0.1397  0.1418  0.7404
 5339SOL     OW16956   6.560   4.155   3.154 -0.1522 -0.8126 -0.4488
 5339SOL    HW116957   6.638   4.122   3.198 -1.0197 -1.6056  0.5271
 5339SOL    HW216958   6.584   4.157   3.061 -0.3897 -5.4444 -0.8452
 5340SOL     OW16959   3.426   2.523   2.102 -0.1864 -0.1262 -0.1832
 5340SOL    HW116960   3.415   2.434   2.134 -0.1996 -0.5725 -1.4017
 5340SOL    HW216961   3.407   2.518   2.009  0.3046  1.0541 -0.3632
 5341SOL     OW16962   5.551   6.941   4.225  0.0952  0.0381 -0.2282
 5341SOL    HW116963   5.488   6.870   4.210 -0.4170  0.5312 -0.4620
 5341SOL    HW216964   5.496   7.019   4.237  0.6698  0.5369 -0.7768
 5342SOL     OW16965   3.176   5.401   3.981  0.4324 -0.1717  0.2819
 5342SOL    HW116966   3.249   5.339   3.974  0.5408 -0.0217  0.0811
 5342SOL    HW216967   3.099   5.350   3.957  0.7442  0.2408 -1.7768
 5343SOL     OW16968   2.449   1.601   4.536  0.0984  0.1888 -0.6942
 5343SOL    HW116969   2.523   1.659   4.518  0.7505 -0.4440 -0.1274
 5343SOL    HW216970   2.480   1.514   4.512 -0.4255 -0.1007 -0.3454
 5344SOL     OW16971   3.045   0.932   3.497 -0.4946 -0.4127 -0.6179
 5344SOL    HW116972   3.095   0.926   3.415  1.9124 -1.1732  0.8231
 5344SOL    HW216973   3.050   1.024   3.521 -2.7083  0.1970 -2.0997
 5345SOL     OW16974   5.649   2.222   0.934 -0.4454 -0.0772 -0.4116
 5345SOL    HW116975   5.606   2.277   0.999 -0.0873 -0.5561  0.2409
 5345SOL    HW216976   5.579   2.198   0.874 -1.0604 -0.6790  0.5208
 5346SOL     OW16977   7.154   1.047   2.282  0.0340  0.1047 -0.1872
 5346SOL    HW116978   7.172   1.139   2.301  0.9689  0.0210 -0.6126
 5346SOL    HW216979   7.105   1.049   2.199 -0.3149  0.2328  0.0179
 5347SOL     OW16980   1.006   2.961   2.006  0.1425  0.4387  0.0646
 5347SOL    HW116981   1.101   2.952   2.019  0.4276  0.8094 -1.5818
 5347SOL    HW216982   0.973   2.989   2.092  1.3553 -0.7320  0.9529
 5348SOL     OW16983   7.192   4.702   0.971 -0.4441 -0.2338  0.5651
 5348SOL    HW116984   7.126   4.769   0.988  0.0562  0.0496  1.4823
 5348SOL    HW216985   7.276   4.748   0.974 -0.0814 -0.8906  1.3347
 5349SOL     OW16986   4.341   1.446   3.798 -0.3534 -0.5234 -0.1950
 5349SOL    HW116987   4.292   1.364   3.811 -0.7532 -0.6477 -2.1048
 5349SOL    HW216988   4.279   1.515   3.819 -1.4741 -0.6811 -2.6102
 5350SOL     OW16989   6.109   0.158   6.119  0.1168  0.0388  0.2375
 5350SOL    HW116990   6.055   0.154   6.199 -1.9306  1.9590 -0.9290
 5350SOL    HW216991   6.159   0.239   6.128 -0.7599  0.7126 -0.7551
 5351SOL     OW16992   2.597   3.926   5.054 -0.7574 -0.1532 -0.7610
 5351SOL    HW116993   2.685   3.955   5.077 -0.9014  0.1373 -0.5686
 5351SOL    HW216994   2.557   4.003   5.013 -1.2236 -0.0017 -0.0348
 5352SOL     OW16995   0.356   3.001   4.590  0.4518 -0.7965 -0.4020
 5352SOL    HW116996   0.303   2.981   4.667 -1.8859  1.2945 -1.3176
 5352SOL    HW216997   0.391   3.088   4.606  1.8260 -1.2584 -0.7739
 5353SOL     OW16998   1.721   7.018   2.894 -0.4298 -0.4870 -0.1456
 5353SOL    HW116999   1.652   6.953   2.903  0.1180 -0.8554  1.9803
 5353SOL    HW217000   1.690   7.093   2.945  0.0879 -0.0718 -0.4305
 5354SOL     OW17001   2.054   4.425   5.581 -0.0232 -0.3424 -0.5474
 5354SOL    HW117002   2.141   4.452   5.552 -0.7644  0.4297 -2.1583
 5354SOL    HW217003   2.003   4.416   5.501 -1.2104 -1.6477  0.3077
 5355SOL     OW17004   6.912   3.048   6.654 -0.0696 -0.1419 -0.0446
 5355SOL    HW117005   6.933   2.956   6.664 -0.3579 -0.1791  0.2579
 5355SOL    HW217006   6.832   3.048   6.602  0.0706 -0.0524 -0.2596
 5356SOL     OW17007   6.801   4.743   4.591 -0.0021  0.1115 -0.4201
 5356SOL    HW117008   6.881   4.696   4.615 -0.5873 -1.0797 -0.6967
 5356SOL    HW217009   6.772   4.785   4.672  1.3290  1.2331 -0.5063
 5357SOL     OW17010   6.942   1.425   3.002  0.3915 -0.3114 -0.3690
 5357SOL    HW117011   6.936   1.477   3.082 -1.3686 -0.1374 -0.5823
 5357SOL    HW217012   6.992   1.481   2.942 -1.2442  1.0759 -0.5122
 5358SOL     OW17013   1.139   0.193   6.456 -0.0772  0.0066 -0.1336
 5358SOL    HW117014   1.099   0.137   6.523  0.8293  0.5250  0.8814
 5358SOL    HW217015   1.175   0.132   6.392  2.1783 -0.7084  1.6833
 5359SOL     OW17016   6.800   3.034   0.020  0.1671  0.1329 -0.2933
 5359SOL    HW117017   6.824   2.998  -0.065 -1.3031  0.0893 -0.7201
 5359SOL    HW217018   6.882   3.065   0.057  0.9547 -0.5887 -1.3721
 5360SOL     OW17019   5.104   2.067   2.278 -0.0971  0.1765 -0.2389
 5360SOL    HW117020   5.010   2.082   2.262 -0.1270  0.5049  0.2404
 5360SOL    HW217021   5.144   2.153   2.264  0.2670 -0.1441 -1.3392
 5361SOL     OW17022   3.294   0.812   6.622 -0.0386  0.1578 -0.5003
 5361SOL    HW117023   3.229   0.749   6.592  0.3539 -0.9866  0.9155
 5361SOL    HW217024   3.368   0.801   6.563  0.9263 -2.4103  1.0220
 5362SOL     OW17025   4.911   1.792   6.774 -0.0728  0.9789 -0.3953
 5362SOL    HW117026   4.930   1.806   6.866  2.2329  2.9852 -1.0596
 5362SOL    HW217027   4.815   1.791   6.769 -0.2545  1.6699  1.9029
 5363SOL     OW17028   3.087   5.371   0.299  0.1490  0.2730  0.4373
 5363SOL    HW117029   3.163   5.328   0.338 -0.0377 -1.5289 -1.0730
 5363SOL    HW217030   3.104   5.465   0.312  2.3351 -0.0920  0.6406
 5364SOL     OW17031   3.871   1.782   3.972 -0.0845  0.1479  0.3278
 5364SOL    HW117032   3.802   1.846   3.955 -0.9754 -0.9528 -0.2826
 5364SOL    HW217033   3.952   1.834   3.970 -0.5751  0.9576 -2.2576
 5365SOL     OW17034   7.283   5.421   2.378 -0.2040 -0.6331 -0.7043
 5365SOL    HW117035   7.324   5.439   2.463  0.0974  1.5183 -1.2501
 5365SOL    HW217036   7.199   5.382   2.400 -0.9384  1.5490  0.7041
 5366SOL     OW17037   4.308   2.816   6.449 -0.5335  0.0648  0.9887
 5366SOL    HW117038   4.265   2.799   6.532 -0.7821  2.2254  1.3496
 5366SOL    HW217039   4.245   2.868   6.399  0.2125  0.1035  0.0503
 5367SOL     OW17040   7.180   0.634   2.490 -0.3951 -0.1240 -0.1534
 5367SOL    HW117041   7.174   0.664   2.581  2.0738  1.4994 -0.4326
 5367SOL    HW217042   7.123   0.693   2.441 -1.2404 -0.6026  0.2314
 5368SOL     OW17043   4.410   7.349   0.890  0.4414 -0.4339  0.2868
 5368SOL    HW117044   4.365   7.352   0.805  1.8525  1.3201 -0.4695
 5368SOL    HW217045   4.448   7.436   0.900  2.4776 -1.3837  1.5173
 5369SOL     OW17046   2.024   6.550   5.810 -0.2100  0.4073 -0.4277
 5369SOL    HW117047   2.071   6.626   5.845 -0.2001  0.4144 -0.4554
 5369SOL    HW217048   2.019   6.489   5.883  1.8465 -0.5543 -0.9832
 5370SOL     OW17049   4.639   4.801   0.732 -0.0871 -0.1031 -0.2739
 5370SOL    HW117050   4.713   4.861   0.747  0.4897 -0.3322 -1.9486
 5370SOL    HW217051   4.593   4.799   0.815  1.8974 -0.0811  0.9014
 5371SOL     OW17052   2.889   1.878   6.431 -0.1556 -0.7999 -0.4330
 5371SOL    HW117053   2.912   1.889   6.523 -1.4197 -2.0105  0.0686
 5371SOL    HW217054   2.937   1.799   6.404  0.1364 -0.5029 -0.7834
 5372SOL     OW17055   5.711   3.113   5.099  0.8012  0.5180 -0.7979
 5372SOL    HW117056   5.779   3.151   5.042  0.9807  1.5913  0.0821
 5372SOL    HW217057   5.640   3.177   5.098  0.9587  0.7450  0.4489
 5373SOL     OW17058   4.993   6.766   4.429 -0.1769 -0.1341  0.4071
 5373SOL    HW117059   5.037   6.851   4.427 -1.8532  0.8786  2.4688
 5373SOL    HW217060   5.056   6.705   4.392  1.3833  1.8678 -0.4161
 5374SOL     OW17061   6.167   5.308   2.066 -0.4010  0.0325 -0.1438
 5374SOL    HW117062   6.229   5.278   2.133  1.5990 -1.0839 -2.3565
 5374SOL    HW217063   6.118   5.230   2.043 -2.0260  0.7026  0.8847
 5375SOL     OW17064   6.878   5.023   1.223 -0.1349 -0.7387 -0.1017
 5375SOL    HW117065   6.829   5.047   1.301  1.0168 -1.1949  0.7760
 5375SOL    HW217066   6.824   5.054   1.150 -0.4873  1.0970  0.8947
 5376SOL     OW17067   2.244   6.909   0.207  0.2229  0.1742 -0.1804
 5376SOL    HW117068   2.298   6.838   0.242  1.4969  0.5143 -1.3670
 5376SOL    HW217069   2.303   6.958   0.150 -0.6220  2.2341  0.6344
 5377SOL     OW17070   0.202   3.896   7.265  0.3665  0.3645 -0.0671
 5377SOL    HW117071   0.153   3.837   7.323 -1.1374 -1.2440 -2.7840
 5377SOL    HW217072   0.134   3.944   7.218  1.4828  0.6497 -1.4427
 5378SOL     OW17073   0.356   1.542   1.408  0.9258  0.1481 -0.7011
 5378SOL    HW117074   0.350   1.447   1.422  0.8681  0.2379 -0.0761
 5378SOL    HW217075   0.270   1.566   1.373  0.8808 -0.0069 -0.7001
 5379SOL     OW17076   0.743   6.193   0.013 -0.0833  0.4831  0.5997
 5379SOL    HW117077   0.699   6.108   0.016  0.1075  0.2161 -2.0501
 5379SOL    HW217078   0.835   6.173   0.028 -0.2586  0.5009  1.8236
 5380SOL     OW17079   1.905   5.227   5.117 -0.1866 -0.2169  0.2805
 5380SOL    HW117080   1.907   5.199   5.208  0.8985 -0.4223  0.2031
 5380SOL    HW217081   1.813   5.217   5.091 -0.1288 -2.3113  0.6835
 5381SOL     OW17082   6.588   5.797   6.886 -0.0969  0.3150  0.6306
 5381SOL    HW117083   6.624   5.828   6.969  1.0678  1.3559 -0.2195
 5381SOL    HW217084   6.533   5.869   6.856 -2.0539 -0.8122  1.3696
 5382SOL     OW17085   7.101   3.122   3.508 -0.2736 -0.1447 -0.0031
 5382SOL    HW117086   7.125   3.183   3.439  0.6116 -0.6547 -0.1674
 5382SOL    HW217087   7.017   3.155   3.542  0.3546  1.3479  0.1633
 5383SOL     OW17088   2.245   2.207   0.949 -0.1144  0.1669 -0.2773
 5383SOL    HW117089   2.290   2.284   0.984  0.4048  0.2153 -1.0424
 5383SOL    HW217090   2.194   2.240   0.875 -2.2677  0.3068  1.1763
 5384SOL     OW17091   6.660   0.970   2.073  0.2401 -0.1742 -0.0091
 5384SOL    HW117092   6.613   0.894   2.108  2.0868 -2.0642 -1.3382
 5384SOL    HW217093   6.626   0.981   1.985 -0.6163  1.1411  0.4587
 5385SOL     OW17094   2.864   3.110   7.196  0.6865 -0.0716 -0.4412
 5385SOL    HW117095   2.914   3.191   7.210 -0.0062  0.1324  0.9643
 5385SOL    HW217096   2.801   3.108   7.268  0.8172 -1.9725 -0.3494
 5386SOL     OW17097   0.933   5.985   6.686  0.5035  0.1452 -0.2014
 5386SOL    HW117098   0.984   6.044   6.629  2.4357 -0.9080  0.3751
 5386SOL    HW217099   0.958   5.897   6.658 -0.6534 -0.4060  0.4398
 5387SOL     OW17100   5.726   0.626   1.179  0.3730 -0.5237 -0.0440
 5387SOL    HW117101   5.754   0.631   1.270  0.1155 -1.8376  0.1245
 5387SOL    HW217102   5.777   0.555   1.142 -0.8931 -1.2762 -0.4076
 5388SOL     OW17103   2.329   2.124   2.698 -0.2068  0.2778  0.4454
 5388SOL    HW117104   2.246   2.170   2.687 -1.1257 -1.6527 -1.1629
 5388SOL    HW217105   2.349   2.133   2.791 -1.3390  2.1798  0.5562
 5389SOL     OW17106   3.487   5.947   1.605  0.1290 -0.4048  0.2533
 5389SOL    HW117107   3.457   5.865   1.644 -2.0271  0.4475  0.5575
 5389SOL    HW217108   3.445   5.950   1.519 -0.4191  0.6830  0.5323
 5390SOL     OW17109   2.717   3.267   1.455 -0.4481  0.2783  0.5195
 5390SOL    HW117110   2.718   3.269   1.359 -0.2777  0.5209  0.5250
 5390SOL    HW217111   2.757   3.184   1.477 -4.3966 -1.9010  0.3269
 5391SOL     OW17112   7.302   1.141   6.987  0.0978  0.0339 -0.1350
 5391SOL    HW117113   7.385   1.187   7.001 -0.0203  0.2002  0.0239
 5391SOL    HW217114   7.295   1.132   6.892 -0.2360  1.0021 -0.2073
 5392SOL     OW17115   7.300   3.113   6.716  0.4078  0.0306 -0.3321
 5392SOL    HW117116   7.351   3.108   6.635 -0.7769  0.7022 -1.1407
 5392SOL    HW217117   7.219   3.156   6.691 -0.8977 -1.6718  0.7676
 5393SOL     OW17118   5.942   2.663   4.506 -0.2187 -0.0432 -0.3528
 5393SOL    HW117119   5.942   2.754   4.476 -0.9540 -0.2268 -0.9256
 5393SOL    HW217120   5.862   2.655   4.559 -0.3992 -0.4699 -0.6819
 5394SOL     OW17121   6.078   6.418   4.087 -0.1592 -0.2743  0.1603
 5394SOL    HW117122   6.073   6.511   4.066  1.8092  0.4387  2.4232
 5394SOL    HW217123   6.029   6.409   4.169  1.4827 -0.7576  1.1268
 5395SOL     OW17124   4.333   1.460   6.333  0.0192 -0.5392  0.1330
 5395SOL    HW117125   4.270   1.411   6.280  0.1340 -0.9096  0.3303
 5395SOL    HW217126   4.338   1.411   6.416 -2.0519  1.4266  1.5172
 5396SOL     OW17127   6.717   5.158   0.729 -0.0066  0.2054 -0.5002
 5396SOL    HW117128   6.793   5.146   0.672  0.4878  0.5991  0.0675
 5396SOL    HW217129   6.741   5.114   0.811 -1.7118 -2.6045 -1.3937
 5397SOL     OW17130   0.042   4.728   2.657  0.1209  0.4732  0.0727
 5397SOL    HW117131  -0.048   4.695   2.660  0.2122  0.2354  0.2165
 5397SOL    HW217132   0.063   4.730   2.564  0.8013 -1.7771  0.1202
 5398SOL     OW17133   4.999   2.854   3.359  0.1744  0.1451  0.4535
 5398SOL    HW117134   4.935   2.868   3.291 -1.5407 -1.3486  1.6561
 5398SOL    HW217135   5.084   2.866   3.316 -0.7942 -1.5025 -2.1536
 5399SOL     OW17136   7.201   2.650   1.879  0.1167  0.8234 -0.1039
 5399SOL    HW117137   7.286   2.616   1.851  0.0805 -1.0217  1.8215
 5399SOL    HW217138   7.138   2.585   1.848 -0.5737  1.8650 -0.9713
 5400SOL     OW17139   0.396   0.597   7.171 -0.3431  0.3546 -0.6334
 5400SOL    HW117140   0.460   0.539   7.131 -1.8939 -2.5114  0.7554
 5400SOL    HW217141   0.414   0.591   7.265 -3.1331 -1.3384 -0.1089
 5401SOL     OW17142   3.721   2.105   7.365  0.0937  0.1105  0.1289
 5401SOL    HW117143   3.675   2.144   7.291  1.6188  1.9001  0.0518
 5401SOL    HW217144   3.703   2.164   7.438  1.1457  0.0863  0.4132
 5402SOL     OW17145   3.587   4.632   2.444 -0.2172  0.1458  0.5515
 5402SOL    HW117146   3.528   4.587   2.505 -0.7674 -0.1640 -0.1983
 5402SOL    HW217147   3.627   4.701   2.497 -1.8105  0.8467  0.9150
 5403SOL     OW17148   7.168   7.104   5.109 -0.0836 -0.0438  0.6708
 5403SOL    HW117149   7.089   7.095   5.162 -1.0447  0.0017 -0.7070
 5403SOL    HW217150   7.181   7.199   5.100 -1.4855  0.0180 -1.3448
 5404SOL     OW17151   6.343   4.012   5.301  0.0481 -0.8069 -0.3078
 5404SOL    HW117152   6.280   4.084   5.295 -0.8824 -1.5339  0.3899
 5404SOL    HW217153   6.406   4.041   5.367 -0.1486 -0.5084 -0.2485
 5405SOL     OW17154   1.436   6.064   3.071 -0.2526 -0.6157 -0.2379
 5405SOL    HW117155   1.351   6.060   3.116  0.1790  0.6642  0.7424
 5405SOL    HW217156   1.493   6.007   3.122 -0.1348 -0.2890 -0.0030
 5406SOL     OW17157   3.185   1.678   3.801  0.2331 -0.3885 -0.4667
 5406SOL    HW117158   3.126   1.603   3.810 -0.1953 -0.1832 -1.4202
 5406SOL    HW217159   3.258   1.646   3.748 -0.4960  0.1416 -1.8360
 5407SOL     OW17160   2.252   2.685   6.804 -0.0030 -0.0373  0.0950
 5407SOL    HW117161   2.228   2.775   6.830  0.8527 -0.0115  0.8448
 5407SOL    HW217162   2.287   2.695   6.716 -1.1672  0.1579 -0.3703
 5408SOL     OW17163   1.936   5.517   4.514 -0.2147  0.3072 -0.0376
 5408SOL    HW117164   1.852   5.508   4.470 -0.4265 -0.0959  0.4385
 5408SOL    HW217165   1.995   5.551   4.446 -0.5165 -0.3672 -0.6604
 5409SOL     OW17166   2.961   6.701   0.875  0.2478  0.2754  0.1124
 5409SOL    HW117167   2.881   6.648   0.881  1.1591 -1.0993  0.4524
 5409SOL    HW217168   2.990   6.690   0.784  1.1374 -0.9146  0.5090
 5410SOL     OW17169   1.362   1.624   4.706 -0.3983 -0.5922  0.3284
 5410SOL    HW117170   1.280   1.600   4.664 -0.7442 -0.7715  1.0899
 5410SOL    HW217171   1.410   1.541   4.715 -1.1523 -0.9004  2.0137
 5411SOL     OW17172   2.821   3.753   2.690 -0.1198 -0.2789 -0.1901
 5411SOL    HW117173   2.728   3.736   2.703 -0.4842  2.0904  0.7270
 5411SOL    HW217174   2.834   3.745   2.595 -2.0034  2.3974 -0.7807
 5412SOL     OW17175   0.841   3.119   0.394 -0.0108  0.0696  0.0405
 5412SOL    HW117176   0.820   3.209   0.419  1.4620 -0.1848  2.4677
 5412SOL    HW217177   0.763   3.088   0.348 -0.3940  2.6770 -1.2890
 5413SOL     OW17178   0.468   3.173   3.263 -0.0171 -0.8303 -0.2417
 5413SOL    HW117179   0.552   3.161   3.219 -0.1768 -1.7038 -0.3400
 5413SOL    HW217180   0.418   3.094   3.239 -0.6029 -0.6558  0.3889
 5414SOL     OW17181   5.736   2.364   0.511  1.0586  0.2299 -0.0429
 5414SOL    HW117182   5.654   2.322   0.485  1.6925 -0.6692 -0.6745
 5414SOL    HW217183   5.758   2.422   0.438  1.6845 -0.5999 -0.5441
 5415SOL     OW17184   6.144   2.908   7.045 -0.3154  0.3678  0.0124
 5415SOL    HW117185   6.196   2.829   7.062 -0.7015  0.4928  2.0710
 5415SOL    HW217186   6.076   2.880   6.984 -0.2894 -0.8425  0.5066
 5416SOL     OW17187   0.401   2.406   1.587 -0.8810  0.8917 -0.3537
 5416SOL    HW117188   0.448   2.412   1.671 -1.2307  0.9269 -0.1589
 5416SOL    HW217189   0.321   2.357   1.608  1.1511 -3.5008 -1.5376
 5417SOL     OW17190   0.236   5.531   0.924 -0.2983  0.2988 -0.2095
 5417SOL    HW117191   0.180   5.555   0.998 -1.3560 -0.7567 -0.6438
 5417SOL    HW217192   0.224   5.437   0.914  2.0795 -0.0976  0.0861
 5418SOL     OW17193   6.120   0.506   1.990 -0.0732 -0.2023 -0.3631
 5418SOL    HW117194   6.142   0.599   1.984 -0.4112 -0.0262  0.8139
 5418SOL    HW217195   6.056   0.492   1.920 -1.0274  0.7741  0.2700
 5419SOL     OW17196   1.342   4.255   5.309 -0.2328  0.3020 -0.3794
 5419SOL    HW117197   1.344   4.159   5.306 -0.7808  0.2631  0.3029
 5419SOL    HW217198   1.415   4.278   5.366 -0.7790  0.2315  0.3635
 5420SOL     OW17199   1.904   7.169   5.566 -0.4869 -0.0500  0.2919
 5420SOL    HW117200   1.948   7.085   5.576  0.7566  0.4921 -0.4628
 5420SOL    HW217201   1.961   7.232   5.609 -1.6444  0.3742  1.2824
 5421SOL     OW17202   5.686   3.276   1.173  0.2607 -0.1279  0.1358
 5421SOL    HW117203   5.759   3.232   1.131  2.4332  1.0099  2.3941
 5421SOL    HW217204   5.636   3.206   1.214  0.4845 -0.8851 -0.8493
 5422SOL     OW17205   4.556   2.612   3.617  0.0526 -0.0131 -0.2280
 5422SOL    HW117206   4.542   2.521   3.643 -2.1229 -0.1039 -1.5036
 5422SOL    HW217207   4.650   2.617   3.598  0.5399 -1.5191  1.4432
 5423SOL     OW17208   4.367   1.561   2.065  0.1663  0.6392 -0.2523
 5423SOL    HW117209   4.396   1.518   1.985 -0.3009  0.3984 -0.2978
 5423SOL    HW217210   4.302   1.501   2.102  1.4322  0.0267  1.0793
 5424SOL     OW17211   3.456   0.666   6.311 -0.3113 -0.2900 -0.4106
 5424SOL    HW117212   3.524   0.636   6.371 -1.0330  2.7335  2.2060
 5424SOL    HW217213   3.497   0.735   6.259 -1.0071  0.7800  0.4099
 5425SOL     OW17214   3.551   6.083   2.618 -0.2343 -0.2178  0.0348
 5425SOL    HW117215   3.626   6.135   2.591 -0.0694 -0.8785 -0.8067
 5425SOL    HW217216   3.583   5.993   2.622 -0.8870 -0.4625 -0.0204
 5426SOL     OW17217   0.446   3.686   6.695  0.4753 -0.1118 -0.8185
 5426SOL    HW117218   0.409   3.633   6.766 -1.0559  1.3614 -0.4684
 5426SOL    HW217219   0.538   3.659   6.691  0.5739 -0.3820  1.6061
 5427SOL     OW17220   4.031   1.324   0.843 -0.7403  0.2577  0.7298
 5427SOL    HW117221   4.048   1.392   0.908 -3.6146 -0.0940  1.9980
 5427SOL    HW217222   4.014   1.372   0.762  2.1094  0.7306  0.3051
 5428SOL     OW17223   6.158   2.249   2.015 -0.2946 -0.0115 -0.4080
 5428SOL    HW117224   6.226   2.288   2.070  0.3639 -1.0627 -0.4615
 5428SOL    HW217225   6.087   2.314   2.015 -0.3724 -0.0164  1.7701
 5429SOL     OW17226   1.435   4.630   3.523  0.0367 -0.7193 -0.0757
 5429SOL    HW117227   1.401   4.627   3.433 -1.0943 -0.4912  0.3313
 5429SOL    HW217228   1.399   4.711   3.560 -0.0283 -1.1313  0.7815
 5430SOL     OW17229   6.668   0.945   2.465  1.0273  0.6375  0.0783
 5430SOL    HW117230   6.586   0.896   2.468  1.3586  0.0467 -0.4148
 5430SOL    HW217231   6.687   0.965   2.557  0.4684  0.5606  0.2167
 5431SOL     OW17232   4.675   5.232   4.651 -0.2238  0.2177 -0.0781
 5431SOL    HW117233   4.729   5.155   4.633 -0.8242 -0.0151 -0.9341
 5431SOL    HW217234   4.648   5.222   4.742 -1.2025 -1.1554 -0.4924
 5432SOL     OW17235   5.110   4.405   3.211 -0.1248 -0.4194  0.8338
 5432SOL    HW117236   5.017   4.389   3.200  0.3307 -1.8658 -1.6098
 5432SOL    HW217237   5.143   4.328   3.257  0.1146 -0.7392  0.1414
 5433SOL     OW17238   5.304   0.327   3.232 -0.1478  0.2329  0.6236
 5433SOL    HW117239   5.331   0.258   3.293 -0.8065  0.8318  1.6226
 5433SOL    HW217240   5.258   0.391   3.287  0.9440  1.7580 -0.1822
 5434SOL     OW17241   4.150   4.435   2.900  0.0975 -0.5198 -0.0175
 5434SOL    HW117242   4.217   4.381   2.858 -0.2374 -2.5331  1.8726
 5434SOL    HW217243   4.131   4.504   2.835  2.0625 -1.4154 -1.6641
 5435SOL     OW17244   0.160   2.565   6.614  0.0970  0.1828  0.1919
 5435SOL    HW117245   0.250   2.596   6.603  0.9002 -1.3029  2.0087
 5435SOL    HW217246   0.116   2.590   6.533  2.7704 -1.2574 -1.8541
 5436SOL     OW17247   2.415   2.508   2.465 -0.2731  0.0785 -0.0671
 5436SOL    HW117248   2.404   2.459   2.383 -2.0178 -0.1299  0.2360
 5436SOL    HW217249   2.346   2.473   2.522 -0.1982  1.4252  0.8823
 5437SOL     OW17250   2.422   3.807   1.888 -0.0674 -0.3659 -0.1848
 5437SOL    HW117251   2.446   3.715   1.883 -0.9279 -0.5932 -0.1687
 5437SOL    HW217252   2.427   3.838   1.797  2.7536  0.2496  0.0943
 5438SOL     OW17253   1.278   5.580   1.614 -0.4793 -0.2605 -0.5400
 5438SOL    HW117254   1.189   5.614   1.627  0.1993  1.4401 -0.0845
 5438SOL    HW217255   1.327   5.613   1.689  0.5686 -1.0684 -0.8588
 5439SOL     OW17256   6.825   5.853   0.655  0.1372  0.3814 -0.0326
 5439SOL    HW117257   6.766   5.915   0.611 -0.8248  0.2656  1.0538
 5439SOL    HW217258   6.853   5.898   0.734  0.8999  0.1235 -0.1499
 5440SOL     OW17259   2.161   2.429   2.101  0.0972 -0.4355 -0.5453
 5440SOL    HW117260   2.127   2.506   2.056 -2.1190 -1.2029 -0.3142
 5440SOL    HW217261   2.096   2.411   2.169 -0.2227 -3.3142 -1.4967
 5441SOL     OW17262   4.722   1.849   0.915  0.3842 -0.0969 -0.5002
 5441SOL    HW117263   4.660   1.806   0.856 -0.7384 -1.9818  1.9135
 5441SOL    HW217264   4.779   1.778   0.946 -0.3843  0.3637  2.2237
 5442SOL     OW17265   0.597   0.212   4.332  0.6261  0.3904  0.0452
 5442SOL    HW117266   0.647   0.282   4.290  0.8357  0.1667 -0.0800
 5442SOL    HW217267   0.579   0.244   4.420  1.8165  0.0849  0.4184
 5443SOL     OW17268   1.503   0.573   5.969  0.0287 -0.2617 -0.0800
 5443SOL    HW117269   1.593   0.559   5.998  0.0972 -0.1301 -0.2292
 5443SOL    HW217270   1.455   0.497   6.002  0.1652 -0.2610  0.1228
 5444SOL     OW17271   2.694   2.575   6.425 -0.2532 -0.3605  0.0231
 5444SOL    HW117272   2.756   2.574   6.352 -1.3350 -1.1319 -0.9079
 5444SOL    HW217273   2.626   2.636   6.398 -0.6911 -0.6896  0.3622
 5445SOL     OW17274   5.710   5.137   4.254 -0.0555 -0.1775 -0.2956
 5445SOL    HW117275   5.649   5.164   4.186 -1.0089 -0.5180  0.4008
 5445SOL    HW217276   5.717   5.042   4.243 -0.0101 -0.1987 -0.0811
 5446SOL     OW17277   5.372   5.172   6.122  0.4022 -0.7858 -0.6874
 5446SOL    HW117278   5.456   5.194   6.082 -0.0999 -1.5526 -2.2722
 5446SOL    HW217279   5.376   5.077   6.136 -0.3902 -0.9192 -1.2904
 5447SOL     OW17280   6.272   4.299   5.512  0.0062  0.2586 -0.1808
 5447SOL    HW117281   6.212   4.266   5.444 -0.3546 -0.5943  0.5179
 5447SOL    HW217282   6.332   4.226   5.527 -0.2172  0.2486  0.7387
 5448SOL     OW17283   3.437   6.502   5.963  0.1437 -0.1387 -0.1175
 5448SOL    HW117284   3.502   6.437   5.935  0.2527  0.5741 -1.5631
 5448SOL    HW217285   3.365   6.450   5.998  1.6303 -0.9516  1.9655
 5449SOL     OW17286   0.667   0.752   6.122  0.0782  0.5856  0.3918
 5449SOL    HW117287   0.576   0.726   6.114  0.3379  0.0885 -1.3980
 5449SOL    HW217288   0.704   0.737   6.035  2.2862 -0.8296  1.4863
 5450SOL     OW17289   2.737   1.519   0.056 -0.1645 -0.5093  0.1979
 5450SOL    HW117290   2.820   1.493   0.016  0.6875  2.7848 -0.5194
 5450SOL    HW217291   2.673   1.510  -0.014  0.0750 -0.7641  0.0092
 5451SOL     OW17292   4.181   7.114   1.759  0.2509  0.0040 -0.6295
 5451SOL    HW117293   4.088   7.126   1.778  0.5588  0.8425  0.4246
 5451SOL    HW217294   4.211   7.200   1.730  0.7957 -0.1479 -0.5348
 5452SOL     OW17295   6.716   3.708   0.298  0.9088  0.0248 -0.0812
 5452SOL    HW117296   6.795   3.756   0.321 -0.0552  0.6828  2.0883
 5452SOL    HW217297   6.650   3.737   0.362 -0.8542 -1.1373 -1.2642
 5453SOL     OW17298   1.863   4.718   4.071  0.5423 -0.1901 -0.2275
 5453SOL    HW117299   1.788   4.738   4.015 -1.2412 -1.6740  1.4508
 5453SOL    HW217300   1.897   4.803   4.097  1.8159  0.5542 -3.9011
 5454SOL     OW17301   5.950   1.399   5.144  0.5670 -0.1638 -0.1985
 5454SOL    HW117302   5.972   1.491   5.153  1.8432 -0.4629 -0.1396
 5454SOL    HW217303   5.879   1.397   5.080 -0.5395  0.9703  0.9267
 5455SOL     OW17304   0.765   3.784   3.603 -0.0506  0.1705 -0.1186
 5455SOL    HW117305   0.717   3.867   3.603 -1.0166 -0.2797  2.7206
 5455SOL    HW217306   0.728   3.734   3.531  0.3511  2.0385 -1.7097
 5456SOL     OW17307   2.752   3.661   5.187 -0.1475 -0.0129 -0.1490
 5456SOL    HW117308   2.663   3.695   5.199  0.5283  1.3092  1.4504
 5456SOL    HW217309   2.808   3.738   5.197  1.2250 -0.9383 -0.5187
 5457SOL     OW17310   4.708   0.299   0.763  0.0892 -0.6659  0.3887
 5457SOL    HW117311   4.795   0.288   0.800  1.0840 -0.1171 -1.6637
 5457SOL    HW217312   4.655   0.232   0.806  1.6303 -1.3217  1.3265
 5458SOL     OW17313   6.818   0.439   4.656 -0.4187  0.2170 -0.3006
 5458SOL    HW117314   6.870   0.394   4.723 -1.4143 -1.2636 -0.5020
 5458SOL    HW217315   6.846   0.400   4.573  0.4637  1.7135 -0.7538
 5459SOL     OW17316   6.009   4.324   0.577  0.2011  0.2187 -0.1748
 5459SOL    HW117317   5.984   4.289   0.663 -2.3103 -0.7767 -1.2045
 5459SOL    HW217318   6.089   4.276   0.555 -0.1982 -0.9683  0.7802
 5460SOL     OW17319   4.517   4.065   1.088  0.0791 -0.4481  0.5247
 5460SOL    HW117320   4.512   4.157   1.064 -1.8469 -0.7465 -0.4629
 5460SOL    HW217321   4.609   4.042   1.080  0.3725  1.0336 -0.6474
 5461SOL     OW17322   3.915   6.205   7.117  0.8414  0.1110  0.1051
 5461SOL    HW117323   3.954   6.261   7.184  0.3251 -0.5008  0.9545
 5461SOL    HW217324   3.878   6.265   7.053 -1.8283  0.9358  2.1814
 5462SOL     OW17325   5.881   0.425   0.207 -0.0261  0.4962 -0.2732
 5462SOL    HW117326   5.871   0.430   0.112 -2.4792  0.2510 -0.1122
 5462SOL    HW217327   5.876   0.516   0.237  0.2701  0.5346 -0.3367
 5463SOL     OW17328   1.605   3.190   1.757  0.6942  1.0339 -0.2343
 5463SOL    HW117329   1.551   3.224   1.686 -1.2712  1.9369  1.5600
 5463SOL    HW217330   1.593   3.095   1.752  0.7746  1.0720 -1.2513
 5464SOL     OW17331   2.689   4.877   4.673  0.6595  0.2351 -0.4123
 5464SOL    HW117332   2.724   4.788   4.665 -0.0028 -0.0317 -0.3902
 5464SOL    HW217333   2.620   4.870   4.740  0.4186  0.7100 -0.6042
 5465SOL     OW17334   3.352   6.517   5.191  0.4601  0.7297  0.3881
 5465SOL    HW117335   3.439   6.489   5.162 -0.1292  0.3298 -1.0646
 5465SOL    HW217336   3.317   6.569   5.119 -1.4122 -1.0280 -0.0851
 5466SOL     OW17337   7.115   4.078   6.291 -0.2817 -0.3890 -0.1149
 5466SOL    HW117338   7.096   4.102   6.382 -2.0901  1.3628 -0.8964
 5466SOL    HW217339   7.033   4.040   6.259  0.3642 -1.0596 -1.0235
 5467SOL     OW17340   5.204   0.361   6.348 -0.6948  0.1029  0.2540
 5467SOL    HW117341   5.258   0.434   6.379 -2.5331  1.7529 -0.1839
 5467SOL    HW217342   5.261   0.312   6.290  0.7270  0.9903  0.8471
 5468SOL     OW17343   2.050   6.682   3.326 -0.5678  0.0118  0.2439
 5468SOL    HW117344   2.044   6.610   3.264 -0.1540  0.1164  0.0783
 5468SOL    HW217345   2.027   6.644   3.410  1.2486 -0.7128  0.4549
 5469SOL     OW17346   4.147   0.141   0.674  0.6473  0.4870 -0.3437
 5469SOL    HW117347   4.069   0.131   0.728  2.0474 -0.3310  1.6779
 5469SOL    HW217348   4.125   0.098   0.592 -1.3062  1.0707 -0.1714
 5470SOL     OW17349   5.851   1.053   1.740 -0.5542  0.3534 -0.1256
 5470SOL    HW117350   5.904   1.113   1.688 -0.9512 -1.1250 -2.3903
 5470SOL    HW217351   5.913   0.986   1.770 -0.7101 -0.0466 -0.6851
 5471SOL     OW17352   1.577   7.361   2.762  0.4116  0.2666 -0.3787
 5471SOL    HW117353   1.563   7.378   2.669 -0.5172 -1.8545 -0.7057
 5471SOL    HW217354   1.489   7.345   2.796  0.8109  0.3136  0.7103
 5472SOL     OW17355   4.013   2.411   4.234 -0.1467  0.1087 -0.7507
 5472SOL    HW117356   4.101   2.418   4.268 -0.2119  2.7352 -0.9596
 5472SOL    HW217357   3.956   2.414   4.311 -0.1408  1.5923 -0.7897
 5473SOL     OW17358   3.582   6.149   0.240  0.6627 -0.5310 -0.5609
 5473SOL    HW117359   3.576   6.054   0.231 -0.5198 -0.5157 -0.0382
 5473SOL    HW217360   3.600   6.181   0.151 -1.2922 -1.0774 -1.1924
 5474SOL     OW17361   3.610   4.646   6.729 -0.2465  0.5672 -0.1551
 5474SOL    HW117362   3.699   4.609   6.724  0.0085  0.9819  0.9871
 5474SOL    HW217363   3.552   4.571   6.724  0.2124  0.1820  0.2538
 5475SOL     OW17364   2.826   3.774   0.242  0.2427 -0.9177 -0.3126
 5475SOL    HW117365   2.819   3.853   0.295  1.7799 -1.3259  0.5514
 5475SOL    HW217366   2.735   3.751   0.221 -0.2170  1.3324 -1.0187
 5476SOL     OW17367   3.773   4.399   4.959 -0.1569 -0.1412 -0.2315
 5476SOL    HW117368   3.726   4.316   4.947 -1.3724  0.5665 -0.4971
 5476SOL    HW217369   3.786   4.406   5.053 -0.0804 -0.6087 -0.2052
 5477SOL     OW17370   2.964   4.200   0.561 -0.3643 -0.2305  0.0075
 5477SOL    HW117371   2.920   4.277   0.595  0.0012 -0.6442  1.4775
 5477SOL    HW217372   3.054   4.228   0.547  0.0711 -0.6608  1.6863
 5478SOL     OW17373   1.330   6.264   3.299  0.2259 -0.0615 -0.1658
 5478SOL    HW117374   1.295   6.184   3.260  0.0608 -0.0118 -0.1178
 5478SOL    HW217375   1.271   6.334   3.269  0.8477  0.1685 -0.8915
 5479SOL     OW17376   4.035   0.694   5.268 -0.2839 -0.3763  0.2279
 5479SOL    HW117377   4.038   0.727   5.178  0.0464  0.7136  0.6259
 5479SOL    HW217378   3.989   0.610   5.261  1.4038 -1.2547 -1.2417
 5480SOL     OW17379   3.777   5.476   0.959  0.5175  0.0689  0.1776
 5480SOL    HW117380   3.779   5.396   0.908  0.6253  0.2938 -0.1764
 5480SOL    HW217381   3.684   5.492   0.976  0.4978 -0.1400  0.2645
 5481SOL     OW17382   4.990   2.952   4.921 -0.1300 -0.0720  0.6317
 5481SOL    HW117383   4.920   3.006   4.884 -1.4813 -1.3072  1.2819
 5481SOL    HW217384   4.960   2.862   4.908  1.2155 -0.6258  1.1956
 5482SOL     OW17385   4.278   0.832   2.314 -0.1507 -0.3484 -0.2049
 5482SOL    HW117386   4.193   0.850   2.353 -0.1378  0.9944 -0.7373
 5482SOL    HW217387   4.280   0.737   2.301 -0.7450 -0.6537  1.6612
 5483SOL     OW17388   4.326   4.710   5.425  0.6768 -0.6131  0.0645
 5483SOL    HW117389   4.244   4.673   5.394  0.6583  0.1523 -0.8415
 5483SOL    HW217390   4.301   4.763   5.502  0.2857 -0.2148 -0.3339
 5484SOL     OW17391   5.570   6.220   1.726  0.8610 -0.0941  0.4317
 5484SOL    HW117392   5.505   6.173   1.779 -0.3547 -0.7649 -1.5077
 5484SOL    HW217393   5.651   6.171   1.739 -0.1488 -2.2531 -0.7710
 5485SOL     OW17394   2.976   1.561   2.280  0.1651 -0.4031  0.5938
 5485SOL    HW117395   2.911   1.629   2.297 -0.4183 -0.4180 -1.3797
 5485SOL    HW217396   2.957   1.531   2.191  1.0579 -2.4322  1.0275
 5486SOL     OW17397   6.733   3.299   0.328  0.1721 -0.6611  0.5693
 5486SOL    HW117398   6.766   3.355   0.258 -1.8447 -1.0659 -0.8182
 5486SOL    HW217399   6.751   3.347   0.409 -0.9189  1.7622 -0.5181
 5487SOL     OW17400   7.349   2.598   4.131  0.0276 -0.1950  0.3172
 5487SOL    HW117401   7.442   2.612   4.116  0.2341  0.1550  1.8360
 5487SOL    HW217402   7.327   2.655   4.205 -0.9472 -1.7683  1.2843
 5488SOL     OW17403   0.816   6.469   6.024 -0.7960  0.0414 -0.4737
 5488SOL    HW117404   0.750   6.403   6.000 -0.1387 -0.4406 -1.0040
 5488SOL    HW217405   0.815   6.531   5.951 -0.1877 -0.3452 -0.8202
 5489SOL     OW17406   0.087   2.413   3.955 -0.2440  0.4697  0.1436
 5489SOL    HW117407   0.123   2.334   3.916  0.8286  0.6206  0.7940
 5489SOL    HW217408   0.010   2.433   3.902 -1.7608 -2.1456  1.1464
 5490SOL     OW17409   4.808   7.311   6.095  0.2121  0.4351 -0.0860
 5490SOL    HW117410   4.871   7.240   6.083  1.6769  1.9894 -2.8456
 5490SOL    HW217411   4.724   7.267   6.104  1.1887 -1.6760 -0.5230
 5491SOL     OW17412   0.218   4.543   6.087 -0.3681  0.7486 -0.1981
 5491SOL    HW117413   0.166   4.537   6.008 -1.2615  1.7745  0.2888
 5491SOL    HW217414   0.190   4.469   6.141  0.2736  0.0225 -0.8285
 5492SOL     OW17415   1.363   5.419   7.383  0.0007 -0.1167  0.6343
 5492SOL    HW117416   1.410   5.495   7.349 -1.4582  0.3023 -0.5666
 5492SOL    HW217417   1.341   5.441   7.473  3.4849 -1.0192  1.8549
 5493SOL     OW17418   0.927   5.929   2.133  0.0891 -0.2909 -0.0968
 5493SOL    HW117419   0.902   6.008   2.180  1.1860  0.2662 -0.4289
 5493SOL    HW217420   1.012   5.905   2.170 -0.7124 -1.9594  0.7857
 5494SOL     OW17421   2.888   1.639   1.508  0.2514  0.1377 -0.0796
 5494SOL    HW117422   2.927   1.686   1.434 -1.2014  0.1277 -0.8787
 5494SOL    HW217423   2.832   1.703   1.551  1.2690  0.2117  1.1931
 5495SOL     OW17424   0.227   2.128   1.648 -0.4391 -0.4958  0.1680
 5495SOL    HW117425   0.255   2.052   1.597 -0.5905  0.3073 -1.1920
 5495SOL    HW217426   0.273   2.120   1.731  0.9385 -1.1618 -0.6100
 5496SOL     OW17427   5.037   3.054   6.894  0.0344 -0.2379  0.3860
 5496SOL    HW117428   5.060   2.961   6.902  0.0800 -0.2317  0.3211
 5496SOL    HW217429   5.077   3.082   6.812 -1.1950 -0.5232 -0.3269
 5497SOL     OW17430   2.916   1.509   2.795 -0.0169 -0.0830 -0.7788
 5497SOL    HW117431   2.895   1.569   2.867 -0.2439 -0.5644 -0.4373
 5497SOL    HW217432   2.832   1.493   2.752  0.3310  1.2639 -1.9957
 5498SOL     OW17433   2.510   6.759   1.775  0.8775  0.3685 -0.0050
 5498SOL    HW117434   2.510   6.717   1.860 -0.0462 -1.3143 -0.7925
 5498SOL    HW217435   2.466   6.843   1.789  0.9629  0.2255  1.1946
 5499SOL     OW17436   2.721   0.423   4.152 -0.1561  0.0547 -0.3359
 5499SOL    HW117437   2.663   0.356   4.190 -0.2971  0.1752 -0.3372
 5499SOL    HW217438   2.809   0.398   4.181 -0.4994  1.6403  2.3352
 5500SOL     OW17439   5.985   4.699   3.551  0.0561 -0.0887  0.2052
 5500SOL    HW117440   5.893   4.692   3.576 -0.0964 -1.2907 -0.5622
 5500SOL    HW217441   5.993   4.639   3.476  1.4276  0.1133  0.1709
 5501SOL     OW17442   4.331   5.730   0.319 -0.0236  0.0887 -0.5544
 5501SOL    HW117443   4.412   5.768   0.284 -0.7402 -0.4366 -2.9431
 5501SOL    HW217444   4.330   5.640   0.285 -0.1380 -0.9986  2.0217
 5502SOL     OW17445   5.703   0.155   5.259 -0.1374  0.8700  0.4290
 5502SOL    HW117446   5.684   0.102   5.337  1.0713  1.5859  1.2437
 5502SOL    HW217447   5.646   0.118   5.191 -0.1782 -0.7103  1.2572
 5503SOL     OW17448   7.169   3.845   1.693  0.5860  0.2440 -0.1263
 5503SOL    HW117449   7.254   3.884   1.713  0.0425  2.6033 -1.9103
 5503SOL    HW217450   7.120   3.850   1.775  1.3722  1.1488  0.3079
 5504SOL     OW17451   3.574   0.041   3.547  0.1381  0.0779  0.2601
 5504SOL    HW117452   3.508   0.109   3.564  0.4892  0.4303  0.2176
 5504SOL    HW217453   3.594   0.051   3.454  0.9630  0.6196  0.4800
 5505SOL     OW17454   3.186   1.065   6.927 -0.6449 -0.6385 -0.5216
 5505SOL    HW117455   3.161   1.150   6.891 -1.3705  0.0447  1.4792
 5505SOL    HW217456   3.281   1.063   6.918 -0.7375 -0.1781 -1.7536
 5506SOL     OW17457   4.905   3.441   3.553 -0.3826  0.1649 -0.2102
 5506SOL    HW117458   4.841   3.412   3.617  1.2028  1.8584  2.3215
 5506SOL    HW217459   4.901   3.537   3.557  0.7209  0.2996 -1.6540
 5507SOL     OW17460   1.538   5.283   6.530  0.0303 -0.3463 -0.2799
 5507SOL    HW117461   1.546   5.213   6.595 -0.8008 -1.3277 -1.1876
 5507SOL    HW217462   1.462   5.334   6.560 -0.7717 -1.1928 -0.8055
 5508SOL     OW17463   4.354   7.108   6.888 -0.2683 -0.0164  0.2648
 5508SOL    HW117464   4.355   7.113   6.792 -2.6987  0.1577  0.1744
 5508SOL    HW217465   4.310   7.189   6.915 -1.2017 -0.8757  1.3970
 5509SOL     OW17466   3.014   3.115   0.974  0.0125 -0.6584  0.9462
 5509SOL    HW117467   3.055   3.168   1.042  0.2178  1.4402 -0.7368
 5509SOL    HW217468   2.945   3.170   0.938 -1.6382 -2.5962  0.9539
 5510SOL     OW17469   2.021   4.149   5.633 -0.2366  0.1433  0.0216
 5510SOL    HW117470   2.100   4.125   5.585  0.2064  1.8992 -0.2090
 5510SOL    HW217471   2.027   4.244   5.644 -0.0471 -0.1714  4.0794
 5511SOL     OW17472   1.031   3.229   1.728  0.0832  0.6398  0.1804
 5511SOL    HW117473   0.954   3.240   1.784 -1.4373  1.9240 -2.0369
 5511SOL    HW217474   0.999   3.181   1.652  2.0120 -0.7596  0.1641
 5512SOL     OW17475   2.821   3.015   2.924  0.0522 -0.1944 -0.0018
 5512SOL    HW117476   2.862   3.089   2.879 -0.1642  0.1931  0.4273
 5512SOL    HW217477   2.748   2.989   2.868 -1.7893  1.8892  1.2540
 5513SOL     OW17478   0.775   5.069   2.446 -0.3375 -0.0380 -0.6471
 5513SOL    HW117479   0.782   5.010   2.521 -0.5368 -0.7234 -1.1529
 5513SOL    HW217480   0.808   5.018   2.372  0.0431  0.6942 -0.9990
 5514SOL     OW17481   0.681   2.279   3.008 -0.0597  0.0579  0.5197
 5514SOL    HW117482   0.609   2.342   3.009  1.0127  1.3294  0.6535
 5514SOL    HW217483   0.645   2.202   2.965 -0.6742  1.6691 -2.0600
 5515SOL     OW17484   5.029   4.206   6.455  0.5679  0.1040 -0.3773
 5515SOL    HW117485   4.983   4.143   6.510  2.7308 -1.9096 -0.7010
 5515SOL    HW217486   5.038   4.162   6.370  1.4804  1.1456 -0.8587
 5516SOL     OW17487   4.224   4.147   6.383  0.1549  0.5482  0.2434
 5516SOL    HW117488   4.312   4.184   6.382  0.8649 -1.0670  0.7335
 5516SOL    HW217489   4.191   4.162   6.294  0.5753  1.9130  0.2967
 5517SOL     OW17490   6.558   0.500   5.364  0.2454  1.0313 -0.6620
 5517SOL    HW117491   6.539   0.593   5.378 -1.3291  0.6750 -0.2173
 5517SOL    HW217492   6.547   0.460   5.450  0.5136  0.3707 -0.9324
 5518SOL     OW17493   6.440   3.621   7.176 -0.3086 -0.4122 -0.6424
 5518SOL    HW117494   6.354   3.639   7.213 -0.1730  0.4060 -0.6977
 5518SOL    HW217495   6.460   3.532   7.204 -2.0730 -1.4334 -2.3371
 5519SOL     OW17496   4.704   4.699   7.301 -0.4385 -0.1586  0.2484
 5519SOL    HW117497   4.633   4.647   7.338 -1.2507 -0.6568 -1.8617
 5519SOL    HW217498   4.764   4.714   7.374 -0.0852 -4.1341  0.9767
 5520SOL     OW17499   2.018   3.405   1.244  0.1898  0.3199  0.2428
 5520SOL    HW117500   2.006   3.428   1.336  1.2772  0.8331  0.2677
 5520SOL    HW217501   2.106   3.435   1.223  0.1302 -0.2219 -0.8406
 5521SOL     OW17502   3.906   2.833   0.079  0.0845 -0.5455 -0.2351
 5521SOL    HW117503   3.854   2.902   0.040 -0.3656 -0.9823 -0.4209
 5521SOL    HW217504   3.928   2.775   0.006  1.1263 -0.1855 -0.2207
 5522SOL     OW17505   5.384   4.067   3.153 -0.1236  0.3973 -0.1701
 5522SOL    HW117506   5.477   4.062   3.172  0.3565  1.6747 -1.8866
 5522SOL    HW217507   5.367   3.992   3.095  0.1031  0.7823 -0.7451
 5523SOL     OW17508   6.539   0.215   6.990 -0.2962 -0.1072 -0.4566
 5523SOL    HW117509   6.541   0.198   6.896 -0.8196  1.6343 -0.8325
 5523SOL    HW217510   6.481   0.148   7.026  1.8142 -2.3388 -0.9484
 5524SOL     OW17511   3.319   3.507   6.401 -0.2788  0.3719  0.0706
 5524SOL    HW117512   3.378   3.581   6.388 -1.1340  0.8849 -1.1178
 5524SOL    HW217513   3.233   3.539   6.373 -0.8229 -0.8214  0.2907
 5525SOL     OW17514   3.051   2.147   1.577 -0.1417  0.1122 -0.0014
 5525SOL    HW117515   2.990   2.110   1.513 -1.2277  0.8924  0.5654
 5525SOL    HW217516   3.098   2.215   1.529  0.1290 -0.3337 -0.3766
 5526SOL     OW17517   2.780   3.960   1.058 -0.0958  0.0308 -0.2904
 5526SOL    HW117518   2.741   3.905   0.990 -0.3293 -0.2748  0.0865
 5526SOL    HW217519   2.874   3.953   1.042 -0.1724  0.6761 -1.1303
 5527SOL     OW17520   7.248   2.861   2.809 -0.4421  0.2444  0.2584
 5527SOL    HW117521   7.260   2.833   2.718 -0.3317 -1.2064  0.6880
 5527SOL    HW217522   7.253   2.780   2.860 -0.9913  0.9651  1.5179
 5528SOL     OW17523   6.807   6.319   5.659  0.6971 -0.0297 -0.1998
 5528SOL    HW117524   6.812   6.242   5.716  1.8351 -0.6935 -1.1392
 5528SOL    HW217525   6.714   6.328   5.638  0.5041 -0.9477  0.2058
 5529SOL     OW17526   6.998   2.979   2.843  0.2353 -0.1180 -0.1512
 5529SOL    HW117527   7.009   3.071   2.868  0.1674 -0.0873 -0.2350
 5529SOL    HW217528   7.087   2.943   2.847 -0.1002 -0.9415  3.3823
 5530SOL     OW17529   5.232   2.129   4.997  0.5654  0.8440 -0.5824
 5530SOL    HW117530   5.322   2.096   4.989  0.2936 -0.0621  0.0092
 5530SOL    HW217531   5.178   2.050   5.000 -0.3883  1.3916 -2.2527
 5531SOL     OW17532   5.660   4.619   2.951  0.0702  0.2333 -0.3834
 5531SOL    HW117533   5.733   4.631   3.012  0.5941  0.1976 -0.9944
 5531SOL    HW217534   5.664   4.696   2.894  0.0859 -0.1344 -0.8814
 5532SOL     OW17535   3.135   3.123   6.956 -0.5370 -0.4631 -0.0342
 5532SOL    HW117536   3.051   3.101   6.995 -1.2244  1.8349 -0.0497
 5532SOL    HW217537   3.193   3.139   7.031 -0.7112 -0.0329  0.0123
 5533SOL     OW17538   0.028   5.843   3.352  0.1833 -0.2720  0.1323
 5533SOL    HW117539   0.108   5.821   3.303  0.1409 -1.9159  0.7365
 5533SOL    HW217540   0.056   5.845   3.444  0.0201  1.6417  0.1874
 5534SOL     OW17541   6.851   1.816   0.170  0.6406  0.0809  0.6534
 5534SOL    HW117542   6.891   1.883   0.225  0.1498 -0.1912  1.3676
 5534SOL    HW217543   6.758   1.839   0.170  0.3337 -1.0609  1.6083
 5535SOL     OW17544   6.690   3.244   7.172  0.2247  0.1906 -0.8897
 5535SOL    HW117545   6.748   3.320   7.174  1.1686 -0.5234 -0.2967
 5535SOL    HW217546   6.643   3.247   7.255  0.9419 -0.3766 -0.4556
 5536SOL     OW17547   7.004   0.344   6.044  0.1312  0.0549 -1.1744
 5536SOL    HW117548   7.001   0.400   6.122 -1.4662  1.2387 -2.0256
 5536SOL    HW217549   7.073   0.381   5.990  0.9628 -0.5199 -0.5371
 5537SOL     OW17550   6.624   6.933   3.353 -0.6281 -0.3736  0.2740
 5537SOL    HW117551   6.679   6.855   3.360 -0.6249 -0.5589 -1.4731
 5537SOL    HW217552   6.641   6.967   3.265 -0.6962  1.5647  0.9539
 5538SOL     OW17553   7.062   3.977   1.002 -0.7336  0.1645  0.2366
 5538SOL    HW117554   6.999   3.914   1.037 -1.4270  1.1011  0.7239
 5538SOL    HW217555   7.140   3.965   1.056 -0.5911 -0.7807 -0.1606
 5539SOL     OW17556   6.733   6.091   7.011 -0.6260  0.2014 -0.1749
 5539SOL    HW117557   6.790   6.016   6.998 -1.1158 -0.4532  1.2356
 5539SOL    HW217558   6.759   6.127   7.096 -2.3466 -0.1870  0.5604
 5540SOL     OW17559   2.249   7.405   0.323 -0.0059  0.0953  1.1053
 5540SOL    HW117560   2.300   7.456   0.260 -0.3982  0.0015  0.7082
 5540SOL    HW217561   2.313   7.375   0.387  0.1886  1.4210  1.5767
 5541SOL     OW17562   1.903   4.069   7.128 -0.1848 -0.2901  0.0153
 5541SOL    HW117563   1.825   4.037   7.083 -0.7918  1.5693 -0.3326
 5541SOL    HW217564   1.970   4.072   7.059 -0.1324 -0.7493  0.0431
 5542SOL     OW17565   0.744   7.174   6.667 -0.5589 -0.2794  0.1597
 5542SOL    HW117566   0.749   7.130   6.752 -3.3350 -0.3803  0.3665
 5542SOL    HW217567   0.800   7.122   6.610 -0.6780 -1.7638  1.3324
 5543SOL     OW17568   4.310   5.296   4.684  0.2981 -0.4196 -0.3458
 5543SOL    HW117569   4.250   5.313   4.612 -1.4613 -0.3246  1.0666
 5543SOL    HW217570   4.377   5.363   4.676 -0.2577  0.0239 -1.4634
 5544SOL     OW17571   4.385   7.146   6.637  0.4203 -0.1991 -0.3164
 5544SOL    HW117572   4.365   7.237   6.612 -0.7818 -0.7051 -1.2976
 5544SOL    HW217573   4.481   7.144   6.646  0.5938  0.8401 -1.6413
 5545SOL     OW17574   1.520   3.573   2.702  0.2808  0.1700 -0.3765
 5545SOL    HW117575   1.431   3.553   2.731  0.5916 -0.2786  0.2689
 5545SOL    HW217576   1.531   3.522   2.622  0.4377 -0.8568  0.2879
 5546SOL     OW17577   4.428   3.954   4.571  0.1068 -0.6772  0.0250
 5546SOL    HW117578   4.482   4.023   4.608 -0.4308 -0.4564  0.4013
 5546SOL    HW217579   4.463   3.941   4.482 -0.5734  0.9527 -0.5126
 5547SOL     OW17580   5.992   0.393   1.721  0.8710 -0.3444 -0.6777
 5547SOL    HW117581   5.921   0.338   1.688  0.8204  0.7389 -2.5365
 5547SOL    HW217582   6.064   0.377   1.659  1.5085  0.2269 -0.0972
 5548SOL     OW17583   4.635   3.808   1.359 -0.0109  0.0704  0.1609
 5548SOL    HW117584   4.545   3.839   1.364 -0.3443 -0.3993 -1.8745
 5548SOL    HW217585   4.673   3.829   1.444 -2.2343 -0.3508  1.3283
 5549SOL     OW17586   3.069   1.166   3.682  0.5487  0.2181  0.3004
 5549SOL    HW117587   3.107   1.226   3.618  1.0914 -0.0612  0.3585
 5549SOL    HW217588   3.141   1.146   3.742 -0.1447  1.1146  1.4845
 5550SOL     OW17589   6.086   1.836   5.553 -0.1352  0.5487  0.7389
 5550SOL    HW117590   6.091   1.892   5.630  0.4337 -0.0214  1.1240
 5550SOL    HW217591   6.106   1.895   5.480 -2.1332  1.4347  0.8240
 5551SOL     OW17592   3.323   2.817   2.142 -0.4208 -0.2099 -0.7276
 5551SOL    HW117593   3.343   2.729   2.173 -0.2419  0.1956  0.3668
 5551SOL    HW217594   3.313   2.869   2.222  0.0689  0.8929 -1.3513
 5552SOL     OW17595   4.770   0.307   0.497  0.4757  0.4862 -0.2082
 5552SOL    HW117596   4.708   0.361   0.448  0.3129  0.0091 -0.5361
 5552SOL    HW217597   4.748   0.323   0.589 -1.3537 -1.0527 -0.3255
 5553SOL     OW17598   7.288   2.352   0.527  0.0382  0.0406 -0.0053
 5553SOL    HW117599   7.319   2.266   0.501 -0.1268 -0.3689  1.1211
 5553SOL    HW217600   7.367   2.401   0.550  0.2162  0.5142 -1.5338
 5554SOL     OW17601   1.662   2.191   3.610 -0.1847  0.1454  0.4757
 5554SOL    HW117602   1.754   2.208   3.588 -0.2712  1.1705  0.8359
 5554SOL    HW217603   1.614   2.253   3.555 -0.9090 -2.4242 -2.0520
 5555SOL     OW17604   5.353   1.111   0.636  0.2169  0.0171  0.5245
 5555SOL    HW117605   5.420   1.167   0.596  0.6604  0.4143  1.7376
 5555SOL    HW217606   5.393   1.024   0.641 -0.4592 -0.4307 -1.3334
 5556SOL     OW17607   5.449   1.770   0.678 -0.6024  0.1162  0.9145
 5556SOL    HW117608   5.361   1.806   0.669 -0.3205  0.5047 -0.5491
 5556SOL    HW217609   5.462   1.718   0.598  2.1630  3.7895 -1.3827
 5557SOL     OW17610   4.315   3.929   3.169 -0.2006 -0.1445 -0.2063
 5557SOL    HW117611   4.260   4.004   3.146 -1.9723 -1.0513  0.8959
 5557SOL    HW217612   4.254   3.864   3.205  1.0899 -2.6017 -2.1539
 5558SOL     OW17613   5.444   6.392   4.633  0.0577  0.6330  0.0948
 5558SOL    HW117614   5.419   6.354   4.549  0.1083  1.7920 -0.4741
 5558SOL    HW217615   5.539   6.378   4.639 -0.4713 -3.4357  2.0823
 5559SOL     OW17616   0.817   2.648   4.045 -1.1546 -0.6515  0.2653
 5559SOL    HW117617   0.774   2.733   4.046 -1.4914 -0.8222  1.1417
 5559SOL    HW217618   0.863   2.645   3.961 -1.1595  0.3765  0.2174
 5560SOL     OW17619   3.249   4.562   0.451  0.6812  0.1252 -0.2167
 5560SOL    HW117620   3.155   4.574   0.459  0.3596 -2.5862  1.2165
 5560SOL    HW217621   3.283   4.577   0.540  1.8214  2.0777 -0.9077
 5561SOL     OW17622   5.426   5.933   1.778  0.1312 -0.1570  0.3775
 5561SOL    HW117623   5.357   5.959   1.839 -0.9269 -1.1685 -0.3336
 5561SOL    HW217624   5.403   5.977   1.696  0.0326 -0.8939  0.0002
 5562SOL     OW17625   6.383   5.300   5.579 -0.1842 -0.3713 -0.5540
 5562SOL    HW117626   6.396   5.209   5.605  0.3271 -0.1319  0.0505
 5562SOL    HW217627   6.344   5.295   5.492 -2.0705 -1.2095  0.2843
 5563SOL     OW17628   4.440   5.262   1.704 -0.4624  0.3068 -0.2846
 5563SOL    HW117629   4.361   5.313   1.720 -0.9030 -0.8699  1.4270
 5563SOL    HW217630   4.409   5.173   1.687  0.3008  0.4994 -3.2308
 5564SOL     OW17631   6.623   5.940   1.528 -0.0756 -0.4060  0.0251
 5564SOL    HW117632   6.579   5.873   1.580  1.0829 -1.3438 -0.1688
 5564SOL    HW217633   6.688   5.976   1.587  0.2434 -0.4305 -0.3093
 5565SOL     OW17634   0.278   5.859   3.210 -0.7872  0.3325 -0.4273
 5565SOL    HW117635   0.338   5.805   3.158  0.0620 -0.8487  1.6629
 5565SOL    HW217636   0.259   5.934   3.154  3.8309  1.5900 -0.7486
 5566SOL     OW17637   1.959   7.188   2.115 -0.7556 -0.7966  0.0291
 5566SOL    HW117638   1.976   7.265   2.168 -1.2004 -0.3976 -0.4005
 5566SOL    HW217639   1.948   7.221   2.026  0.5985 -1.5282 -0.4376
 5567SOL     OW17640   3.975   4.346   1.651 -0.1153  0.0993  0.0167
 5567SOL    HW117641   3.943   4.289   1.721  1.5906 -0.2484  0.5713
 5567SOL    HW217642   3.931   4.315   1.572 -1.6292  0.1205  0.8345
 5568SOL     OW17643   2.422   2.868   1.776 -0.1361 -0.5871 -0.5268
 5568SOL    HW117644   2.500   2.813   1.783  0.4761  0.4729  2.2160
 5568SOL    HW217645   2.453   2.956   1.797 -1.7646  0.1921 -1.2165
 5569SOL     OW17646   3.231   4.259   3.399 -0.0300 -0.3555 -0.7461
 5569SOL    HW117647   3.163   4.207   3.442 -0.2316 -1.7791 -2.6862
 5569SOL    HW217648   3.183   4.327   3.352  0.1741  0.9852  0.8662
 5570SOL     OW17649   2.376   2.456   6.314  1.0113 -0.3472 -0.1518
 5570SOL    HW117650   2.431   2.380   6.295  0.2374 -0.8836 -0.2995
 5570SOL    HW217651   2.299   2.445   6.259 -0.9406 -1.5178  2.5551
 5571SOL     OW17652   4.952   7.295   1.956 -0.1765 -0.6875  0.3525
 5571SOL    HW117653   4.860   7.271   1.971  0.1640 -1.2108  1.7674
 5571SOL    HW217654   4.977   7.343   2.035  0.8997 -0.9685  0.1969
 5572SOL     OW17655   4.532   2.735   2.801 -0.4237  0.6263  0.0192
 5572SOL    HW117656   4.523   2.656   2.748  0.5398  0.4365  0.1280
 5572SOL    HW217657   4.603   2.784   2.760  0.3931  0.4387  1.1564
 5573SOL     OW17658   7.147   0.912   5.626  0.3172  0.1315  0.4727
 5573SOL    HW117659   7.107   0.997   5.642  0.4288  0.1562  0.6256
 5573SOL    HW217660   7.082   0.863   5.576 -0.0801  0.0186  1.0857
 5574SOL     OW17661   4.392   6.414   0.368 -0.5773 -0.0854 -0.2573
 5574SOL    HW117662   4.418   6.452   0.284 -0.9618  4.0122  1.2261
 5574SOL    HW217663   4.298   6.397   0.358 -0.2724 -1.3309 -1.1684
 5575SOL     OW17664   1.167   0.031   3.021  0.5248  0.3858  0.1685
 5575SOL    HW117665   1.178   0.122   3.048  0.4565  0.8282 -1.1880
 5575SOL    HW217666   1.110  -0.008   3.087  0.7194  1.2758  0.8714
 5576SOL     OW17667   5.940   0.725   1.867  0.3692  0.0599  0.1627
 5576SOL    HW117668   5.859   0.769   1.891 -0.2958 -0.6457 -0.7284
 5576SOL    HW217669   6.001   0.747   1.937 -0.4402  1.0124  0.5839
 5577SOL     OW17670   1.743   4.317   2.977  0.1737  0.3122 -0.3302
 5577SOL    HW117671   1.833   4.342   2.959  0.4884 -0.4296  0.2077
 5577SOL    HW217672   1.749   4.235   3.024 -0.6259  1.7844  2.5775
 5578SOL     OW17673   6.968   1.956   2.950 -0.1131  0.3449 -0.4633
 5578SOL    HW117674   6.984   1.896   2.877  1.0610 -0.5077  0.4463
 5578SOL    HW217675   7.055   1.988   2.973 -0.4203  0.3657  0.7439
 5579SOL     OW17676   5.288   1.707   4.870  0.2741 -0.2866 -0.0339
 5579SOL    HW117677   5.232   1.731   4.797 -0.8408  0.2604  0.9749
 5579SOL    HW217678   5.299   1.612   4.863 -0.7484 -0.3917 -0.2687
 5580SOL     OW17679   5.122   1.866   5.032  0.3919 -0.2847  0.3667
 5580SOL    HW117680   5.192   1.804   5.013  1.2549  0.7420  0.1208
 5580SOL    HW217681   5.118   1.869   5.127  1.0314  0.0344  0.3854
 5581SOL     OW17682   0.037   4.695   2.063  0.0122  0.1439  0.0367
 5581SOL    HW117683   0.069   4.717   1.975  1.8029  0.6908  0.7883
 5581SOL    HW217684   0.116   4.691   2.117 -1.0445 -0.3482  1.6001
 5582SOL     OW17685   5.848   1.983   4.183  0.6615 -0.5322  0.1219
 5582SOL    HW117686   5.846   2.045   4.256 -2.0202 -1.6430  1.1666
 5582SOL    HW217687   5.836   1.897   4.225 -1.5979 -1.1545 -1.5911
 5583SOL     OW17688   5.346   3.828   2.981 -0.0885  0.3887  0.1316
 5583SOL    HW117689   5.302   3.750   2.949 -1.1027 -0.3968  3.0837
 5583SOL    HW217690   5.434   3.799   3.006 -0.2613  0.3113  0.6651
 5584SOL     OW17691   6.819   4.308   3.888 -0.5943  1.0981  0.6799
 5584SOL    HW117692   6.841   4.250   3.962  1.1665  1.2714  0.3384
 5584SOL    HW217693   6.763   4.255   3.832  1.6709 -0.6779 -0.0622
 5585SOL     OW17694   2.106   2.676   6.088 -0.3376 -0.1047  0.6750
 5585SOL    HW117695   2.028   2.722   6.120 -1.1699 -1.5892  0.8755
 5585SOL    HW217696   2.136   2.729   6.014 -0.4205  1.5091  1.7592
 5586SOL     OW17697   1.132   4.667   1.959  0.2615 -0.1444 -0.3485
 5586SOL    HW117698   1.184   4.742   1.931 -0.5069  0.3800 -0.4116
 5586SOL    HW217699   1.042   4.689   1.933  0.1417 -1.4848 -1.1792
 5587SOL     OW17700   2.659   4.474   3.431 -0.3622 -0.2811  0.5562
 5587SOL    HW117701   2.740   4.523   3.414 -1.4143  1.4090  0.1250
 5587SOL    HW217702   2.590   4.529   3.394 -1.9098 -0.7189  2.5970
 5588SOL     OW17703   5.429   7.089   3.606  0.7193  0.5377  0.4319
 5588SOL    HW117704   5.503   7.141   3.573  0.7205 -0.3781 -1.0739
 5588SOL    HW217705   5.460   6.998   3.601 -0.0004  0.2381  1.1790
 5589SOL     OW17706   6.121   6.686   1.729 -0.1548 -0.3972  0.1273
 5589SOL    HW117707   6.195   6.668   1.787  1.5262 -0.7751 -1.9732
 5589SOL    HW217708   6.048   6.705   1.787  2.0624  2.1045  2.3964
 5590SOL     OW17709   1.069   5.215   0.717 -0.0460  0.4911 -0.0253
 5590SOL    HW117710   1.046   5.285   0.656  1.0761  1.0251  0.1463
 5590SOL    HW217711   1.069   5.136   0.664 -1.4648  0.5772 -0.1973
 5591SOL     OW17712   6.274   2.625   3.023 -0.1230  0.1843 -1.0519
 5591SOL    HW117713   6.288   2.691   3.090 -0.1867 -1.8805  1.1179
 5591SOL    HW217714   6.186   2.592   3.039  0.2366 -1.0496 -1.4620
 5592SOL     OW17715   3.794   4.707   3.761 -0.1271 -0.1764 -0.3051
 5592SOL    HW117716   3.723   4.654   3.799  0.2820  0.5774  1.6675
 5592SOL    HW217717   3.867   4.646   3.751  0.2508 -0.1377  1.6922
 5593SOL     OW17718   0.606   1.197   4.827 -0.0717  0.0610  0.0797
 5593SOL    HW117719   0.535   1.168   4.770 -0.7111  0.3438  0.7057
 5593SOL    HW217720   0.686   1.168   4.784 -0.6100 -1.1117 -0.1662
 5594SOL     OW17721   6.753   2.009   5.847 -0.1320 -0.0195 -0.0716
 5594SOL    HW117722   6.771   1.916   5.831  1.6521  0.1816  0.5463
 5594SOL    HW217723   6.719   2.041   5.763 -1.6280 -1.3851 -0.0477
 5595SOL     OW17724   5.833   2.747   3.419 -0.2086 -0.0035  0.3928
 5595SOL    HW117725   5.837   2.653   3.431 -1.0230  0.0374  1.1133
 5595SOL    HW217726   5.919   2.771   3.385  1.0166 -0.6495  2.7823
 5596SOL     OW17727   3.120   5.939   3.649  0.2727 -0.4242 -0.0295
 5596SOL    HW117728   3.101   5.997   3.723  1.3308 -0.1893  0.0730
 5596SOL    HW217729   3.058   5.868   3.657 -0.5498  0.3116  0.2861
 5597SOL     OW17730   5.172   5.153   3.645  0.5816 -1.0863 -0.3972
 5597SOL    HW117731   5.267   5.146   3.632  0.5961 -0.7927 -0.4427
 5597SOL    HW217732   5.135   5.143   3.558  0.6610  0.5192 -0.6440
 5598SOL     OW17733   6.775   1.137   5.756 -0.6090 -0.1617  0.8323
 5598SOL    HW117734   6.742   1.202   5.817  0.3009  1.0147  0.1365
 5598SOL    HW217735   6.790   1.059   5.808  1.1895  1.1301  2.3927
 5599SOL     OW17736   6.780   6.493   6.806 -0.1630 -0.8694  0.5114
 5599SOL    HW117737   6.687   6.469   6.806 -0.6482  0.8003  2.5472
 5599SOL    HW217738   6.807   6.481   6.715 -2.4173 -1.2400 -0.1738
 5600SOL     OW17739   3.501   3.702   3.128 -0.2034  0.7411 -0.3303
 5600SOL    HW117740   3.437   3.691   3.058 -0.1584  0.1342 -0.2732
 5600SOL    HW217741   3.559   3.771   3.097  0.1807  0.0540 -1.1567
 5601SOL     OW17742   4.702   3.549   5.703  0.1089  0.2289 -0.2727
 5601SOL    HW117743   4.658   3.486   5.647  0.1799 -0.1395  0.0822
 5601SOL    HW217744   4.664   3.633   5.679  1.4795  0.3729 -2.2372
 5602SOL     OW17745   3.688   3.923   7.142  0.0026 -0.1266 -0.5442
 5602SOL    HW117746   3.605   3.922   7.094 -1.0469 -1.5664  1.1676
 5602SOL    HW217747   3.742   3.856   7.098 -1.1687 -1.8700  0.5342
 5603SOL     OW17748   4.061   6.395   0.275 -0.7815  0.1557  0.1205
 5603SOL    HW117749   4.063   6.389   0.179  1.5501 -0.7637  0.1765
 5603SOL    HW217750   3.979   6.352   0.299 -2.2945  1.9448 -1.5025
 5604SOL     OW17751   6.261   4.278   3.493  0.1944 -0.5161  0.0114
 5604SOL    HW117752   6.317   4.237   3.559 -0.2108 -0.3135  0.4825
 5604SOL    HW217753   6.280   4.228   3.413  2.0464  0.3956 -0.1815
 5605SOL     OW17754   5.445   4.746   6.387 -0.1862 -0.7219 -0.2215
 5605SOL    HW117755   5.536   4.718   6.396  0.8353  1.7864 -1.6235
 5605SOL    HW217756   5.403   4.718   6.468  1.9464 -1.5042  0.6896
 5606SOL     OW17757   3.151   4.024   1.969 -0.7885 -0.3800  0.1997
 5606SOL    HW117758   3.165   4.076   1.890  0.5427 -1.5080 -0.3469
 5606SOL    HW217759   3.058   4.037   1.990 -1.0912  0.2130 -1.3581
 5607SOL     OW17760   6.297   6.767   0.013 -0.1685  0.0022 -0.0026
 5607SOL    HW117761   6.278   6.852  -0.027  0.4850  0.1473 -0.0158
 5607SOL    HW217762   6.231   6.757   0.082  0.0057  0.7091  0.2697
 5608SOL     OW17763   3.657   0.502   5.993 -0.0187  0.1066  0.3595
 5608SOL    HW117764   3.742   0.535   6.022  0.0399 -1.0177  1.5253
 5608SOL    HW217765   3.617   0.465   6.071 -0.8296 -0.9770 -0.5403
 5609SOL     OW17766   2.373   5.009   0.353  0.0887  0.1319  0.5043
 5609SOL    HW117767   2.435   5.082   0.358 -0.3442  0.4237  2.0933
 5609SOL    HW217768   2.426   4.934   0.325  1.1732  0.3719  1.8297
 5610SOL     OW17769   5.967   2.933   2.344 -0.2505  0.2624  0.3234
 5610SOL    HW117770   5.926   3.019   2.335 -1.6847 -0.5371 -1.5497
 5610SOL    HW217771   5.944   2.904   2.432 -1.0265  1.1808  0.4388
 5611SOL     OW17772   0.607   1.806   2.007  0.4157 -0.5163 -0.2778
 5611SOL    HW117773   0.701   1.823   2.009  0.2759  0.2154  0.3838
 5611SOL    HW217774   0.576   1.851   1.928  0.7036 -1.2510 -0.8194
 5612SOL     OW17775   3.239   4.637   1.844  0.5998  0.4735  0.6297
 5612SOL    HW117776   3.312   4.685   1.883  1.7391  0.2507 -1.1233
 5612SOL    HW217777   3.274   4.603   1.762 -1.7731  1.1852 -0.7726
 5613SOL     OW17778   3.207   6.104   0.909  0.2965 -0.1953 -0.8164
 5613SOL    HW117779   3.185   6.037   0.844  2.6094 -2.9501  1.0344
 5613SOL    HW217780   3.300   6.121   0.895  1.3109 -2.0635  2.6005
 5614SOL     OW17781   3.451   2.787   4.839  0.3010 -0.0066 -0.1273
 5614SOL    HW117782   3.457   2.782   4.934 -0.0658  0.2688 -0.0901
 5614SOL    HW217783   3.542   2.783   4.809  0.5849  2.0221  0.3401
 5615SOL     OW17784   2.604   1.971   3.275 -0.4678 -0.0687 -0.0699
 5615SOL    HW117785   2.551   1.946   3.199 -1.7335  0.9198  0.4503
 5615SOL    HW217786   2.624   1.888   3.318 -0.2002 -0.5920 -1.1623
 5616SOL     OW17787   3.164   5.583   5.662  0.4328 -0.5622 -0.4615
 5616SOL    HW117788   3.164   5.673   5.629  0.9805 -0.2871  0.2648
 5616SOL    HW217789   3.196   5.590   5.752  1.3807 -1.5851 -0.6958
 5617SOL     OW17790   1.275   0.199   1.893 -0.1033 -0.4041  0.1230
 5617SOL    HW117791   1.335   0.273   1.898 -0.0862 -0.3655 -0.5989
 5617SOL    HW217792   1.246   0.185   1.983  1.1414 -0.5493  0.5192
 5618SOL     OW17793   6.523   0.968   1.507 -0.0668  0.1270 -0.1203
 5618SOL    HW117794   6.540   0.884   1.550 -0.6180  0.3873  0.6369
 5618SOL    HW217795   6.444   0.952   1.454 -0.9152  0.4787  0.9980
 5619SOL     OW17796   4.320   7.352   1.711 -0.0308 -0.1215  0.2378
 5619SOL    HW117797   4.345   7.444   1.701 -1.2584  0.1414 -0.5834
 5619SOL    HW217798   4.374   7.321   1.784 -1.0831  1.8311  1.9806
 5620SOL     OW17799   6.391   6.358   4.924 -0.2271  0.1258 -0.0600
 5620SOL    HW117800   6.299   6.371   4.947 -0.2328  0.3661 -0.2119
 5620SOL    HW217801   6.399   6.396   4.837  0.5071  2.1385  0.8065
 5621SOL     OW17802   1.580   0.145   0.336  0.5348 -0.1665  0.2426
 5621SOL    HW117803   1.626   0.083   0.279 -0.1432 -1.7613  1.3904
 5621SOL    HW217804   1.608   0.231   0.304  1.4787 -1.0363 -1.4035
 5622SOL     OW17805   2.095   1.975   0.725 -0.3086  0.0864  0.0777
 5622SOL    HW117806   2.144   2.033   0.666 -1.1180 -0.3966 -1.0918
 5622SOL    HW217807   2.010   2.018   0.737 -0.3902 -0.1514  0.3758
 5623SOL     OW17808   3.282   4.000   5.473 -0.1076 -0.2755  0.6301
 5623SOL    HW117809   3.326   4.067   5.526  1.3620 -0.7258  0.0308
 5623SOL    HW217810   3.341   3.986   5.399 -1.1602 -1.1055 -0.0719
 5624SOL     OW17811   6.475   6.248   5.701 -0.7393 -0.2171  0.6557
 5624SOL    HW117812   6.453   6.239   5.608 -0.7119 -0.3364  0.6607
 5624SOL    HW217813   6.472   6.159   5.735  0.8452 -0.3992  0.4079
 5625SOL     OW17814   3.507   2.818   0.148  0.1078 -0.0849  0.0716
 5625SOL    HW117815   3.544   2.899   0.183  1.7426 -0.8654  0.2683
 5625SOL    HW217816   3.443   2.790   0.213 -0.0572  0.7507  0.2779
 5626SOL     OW17817   5.977   2.746   1.920 -0.3936  0.0408  0.1904
 5626SOL    HW117818   5.915   2.797   1.972 -0.3172 -0.2249  0.5468
 5626SOL    HW217819   6.063   2.765   1.958 -0.3171 -0.0190  0.0497
 5627SOL     OW17820   0.064   5.565   3.691  0.0102 -0.3536 -0.1271
 5627SOL    HW117821  -0.018   5.526   3.719 -0.4522 -0.4451 -1.5418
 5627SOL    HW217822   0.067   5.551   3.596  0.3781  2.0157 -0.5256
 5628SOL     OW17823   4.790   5.821   5.152  0.3219 -0.1433  0.6912
 5628SOL    HW117824   4.786   5.830   5.247  0.2359  0.2555  0.6521
 5628SOL    HW217825   4.745   5.899   5.119  0.0819 -0.4338  0.3269
 5629SOL     OW17826   0.924   2.227   4.562  0.4864  0.0607 -0.1617
 5629SOL    HW117827   0.851   2.217   4.501 -0.2824  0.2066  0.7143
 5629SOL    HW217828   1.000   2.243   4.506 -0.2807  0.6486 -1.0649
 5630SOL     OW17829   0.580   3.760   4.570  0.0719 -0.4483 -0.0791
 5630SOL    HW117830   0.624   3.826   4.624 -0.2294 -0.8447  0.6688
 5630SOL    HW217831   0.625   3.678   4.591 -2.0265 -1.1856  1.9809
 5631SOL     OW17832   6.380   5.979   6.833 -0.6574 -0.5523  0.0611
 5631SOL    HW117833   6.408   6.068   6.854 -0.5550 -0.7632  0.8458
 5631SOL    HW217834   6.316   5.990   6.762  0.5091  0.0203 -0.9443
 5632SOL     OW17835   1.362   4.393   3.099  0.0573  0.5167 -0.3257
 5632SOL    HW117836   1.438   4.451   3.100 -0.5866  1.3758  0.1111
 5632SOL    HW217837   1.324   4.405   3.012 -0.1649  0.8794 -0.1811
 5633SOL     OW17838   5.229   7.296   6.957  0.3376  0.2584 -0.1586
 5633SOL    HW117839   5.191   7.212   6.932 -1.4217  0.6260  1.0925
 5633SOL    HW217840   5.160   7.360   6.937 -0.5315  0.7646  3.7811
 5634SOL     OW17841   6.921   0.971   5.063 -0.6427 -0.2055  0.2705
 5634SOL    HW117842   6.887   1.008   4.982 -0.6708  1.3381  0.9468
 5634SOL    HW217843   7.016   0.965   5.050 -0.8450 -2.0621 -0.6576
 5635SOL     OW17844   3.807   7.044   5.619  0.2862 -0.0942  0.0242
 5635SOL    HW117845   3.847   7.006   5.541 -0.8889 -0.6232 -0.3440
 5635SOL    HW217846   3.849   6.999   5.693 -0.2363 -1.2704 -0.3739
 5636SOL     OW17847   7.302   2.637   5.674  0.3563  0.6345 -0.1267
 5636SOL    HW117848   7.216   2.597   5.659  1.0910 -1.9069  1.8008
 5636SOL    HW217849   7.296   2.673   5.763  1.4168  0.0201  0.2038
 5637SOL     OW17850   0.696   6.021   6.840  0.0091  0.2847 -0.3041
 5637SOL    HW117851   0.671   5.930   6.857 -0.7533  0.4757 -0.3682
 5637SOL    HW217852   0.772   6.014   6.782  0.0607 -0.3140 -0.1705
 5638SOL     OW17853   5.959   0.595   1.464 -0.6002 -0.2418 -0.0285
 5638SOL    HW117854   5.988   0.588   1.373 -1.3440 -0.2404 -0.2738
 5638SOL    HW217855   6.037   0.622   1.513 -0.4288  0.7395 -0.8176
 5639SOL     OW17856   4.666   7.363   5.118  0.0113 -0.0713 -0.0781
 5639SOL    HW117857   4.742   7.397   5.071  0.3034 -0.6815 -0.0549
 5639SOL    HW217858   4.695   7.355   5.209  0.0616 -0.7075 -0.1447
 5640SOL     OW17859   2.062   3.960   2.317 -0.4926  0.0962  0.4093
 5640SOL    HW117860   2.023   3.873   2.311 -0.3039 -0.0535  1.2147
 5640SOL    HW217861   2.142   3.953   2.265 -0.8933  0.0337 -0.2038
 5641SOL     OW17862   6.437   1.291   5.581  0.6210  0.0170 -0.1181
 5641SOL    HW117863   6.442   1.381   5.550 -0.0374  0.0502 -0.1467
 5641SOL    HW217864   6.503   1.244   5.530 -1.0921 -0.1503 -2.3607
 5642SOL     OW17865   4.292   1.803   5.848 -0.2526  0.1021 -0.6599
 5642SOL    HW117866   4.375   1.796   5.896 -1.5825 -0.0893  1.7925
 5642SOL    HW217867   4.285   1.896   5.827  0.6759  0.0878 -1.0639
 5643SOL     OW17868   6.460   1.166   4.918 -0.1803  0.1040  0.2519
 5643SOL    HW117869   6.489   1.156   5.009  0.1705 -2.1190 -0.0589
 5643SOL    HW217870   6.499   1.092   4.872 -1.8871  0.1381 -1.3448
 5644SOL     OW17871   4.436   1.585   3.595 -0.0520  0.0631  0.1665
 5644SOL    HW117872   4.384   1.665   3.599 -0.1415 -0.0166  3.6453
 5644SOL    HW217873   4.399   1.529   3.664  0.9031 -2.4330 -1.2144
 5645SOL     OW17874   2.920   3.691   4.111  0.4226  0.6133 -0.2415
 5645SOL    HW117875   2.896   3.656   4.197 -0.4512 -2.3399 -1.5325
 5645SOL    HW217876   2.867   3.770   4.101 -0.2719  0.4182  1.4912
 5646SOL     OW17877   2.708   4.757   3.986 -0.2182  0.1869 -0.2986
 5646SOL    HW117878   2.702   4.781   4.078  0.4533  0.6716 -0.3715
 5646SOL    HW217879   2.793   4.712   3.979 -0.9678 -1.2856 -0.3745
 5647SOL     OW17880   4.379   2.452   1.598  0.3863 -0.3304  0.0925
 5647SOL    HW117881   4.308   2.388   1.601 -0.6662  0.7843 -0.3288
 5647SOL    HW217882   4.336   2.536   1.581  1.8201  0.3452 -0.4367
 5648SOL     OW17883   7.238   1.337   3.281 -0.3075 -0.1637  0.3149
 5648SOL    HW117884   7.240   1.344   3.377 -0.1039 -0.6062  0.3481
 5648SOL    HW217885   7.302   1.268   3.262  1.0706  1.2306 -0.2626
 5649SOL     OW17886   5.397   0.527   1.823 -0.7903 -0.0253 -0.2973
 5649SOL    HW117887   5.481   0.540   1.868 -1.1169 -1.4625  0.8118
 5649SOL    HW217888   5.382   0.609   1.776 -0.0889  1.3365  1.6984
 5650SOL     OW17889   2.613   1.137   6.006  0.2192  0.0739  0.3383
 5650SOL    HW117890   2.618   1.200   6.078  1.4320 -1.1481  1.3931
 5650SOL    HW217891   2.674   1.068   6.031  0.5749 -0.4729 -1.8180
 5651SOL     OW17892   2.108   5.082   4.527 -0.7405 -0.5463 -0.0058
 5651SOL    HW117893   2.188   5.030   4.519 -0.7216 -0.4834 -0.2351
 5651SOL    HW217894   2.137   5.173   4.530 -0.7132 -0.5775  1.2985
 5652SOL     OW17895   3.890   5.258   3.340  0.0943 -0.4238 -0.2011
 5652SOL    HW117896   3.937   5.181   3.372 -1.7420 -1.0117  1.2451
 5652SOL    HW217897   3.914   5.263   3.247  2.3635 -1.1036  0.2771
 5653SOL     OW17898   3.628   2.097   1.155  0.2681  0.2724  0.3748
 5653SOL    HW117899   3.612   2.133   1.241  0.9482 -0.5073  0.8526
 5653SOL    HW217900   3.658   2.171   1.102  0.0211  0.7176  0.8563
 5654SOL     OW17901   0.019   2.721   0.617  0.4755  0.4478  0.5634
 5654SOL    HW117902   0.038   2.632   0.588 -0.0477  0.0887  1.2870
 5654SOL    HW217903   0.075   2.734   0.693  0.1216  0.5129  0.8187
 5655SOL     OW17904   6.011   6.393   4.355 -0.2666 -0.9441 -0.1099
 5655SOL    HW117905   6.051   6.356   4.434  1.0257  0.2746 -0.1630
 5655SOL    HW217906   5.981   6.480   4.382 -0.2891 -0.7310 -0.8202
 5656SOL     OW17907   5.163   4.589   0.569 -0.5711  0.0569 -0.0198
 5656SOL    HW117908   5.217   4.664   0.542 -0.2182 -0.2472 -0.1698
 5656SOL    HW217909   5.088   4.628   0.614  0.6008  0.4393  1.6874
 5657SOL     OW17910   1.507   0.474   0.252  0.1143 -0.0180  0.3523
 5657SOL    HW117911   1.413   0.455   0.242  0.9172 -4.6676 -0.5552
 5657SOL    HW217912   1.545   0.453   0.167  2.4073 -2.7312  1.8636
 5658SOL     OW17913   7.296   3.286   2.306 -0.2388 -0.3150 -0.3157
 5658SOL    HW117914   7.378   3.278   2.355 -0.9636  1.3507  1.3326
 5658SOL    HW217915   7.310   3.361   2.248 -0.7832  0.4319  0.4852
 5659SOL     OW17916   3.027   3.066   6.204 -0.2499 -0.0938  0.2394
 5659SOL    HW117917   3.034   3.077   6.298 -0.7550  0.1883  0.2476
 5659SOL    HW217918   3.114   3.090   6.170 -0.0432 -0.2819  0.6357
 5660SOL     OW17919   5.742   3.761   0.375  0.3696  0.3520  0.1326
 5660SOL    HW117920   5.692   3.731   0.299  0.0745 -0.9842  0.8280
 5660SOL    HW217921   5.826   3.716   0.367  0.3493  0.2361  0.5771
 5661SOL     OW17922   6.070   7.077   4.162  0.6682  0.3169  0.2239
 5661SOL    HW117923   5.997   7.023   4.193  0.9711 -0.2907 -0.0944
 5661SOL    HW217924   6.040   7.113   4.079  1.3803 -1.4138 -0.8387
 5662SOL     OW17925   5.601   4.069   4.150 -0.0659 -0.5098  0.1089
 5662SOL    HW117926   5.585   4.027   4.234 -1.1444  0.3921  0.3701
 5662SOL    HW217927   5.632   4.156   4.172  1.4658 -0.8723 -0.4375
 5663SOL     OW17928   2.232   5.887   2.392  0.1522  0.4015  0.5227
 5663SOL    HW117929   2.263   5.830   2.322  0.0460  1.2223 -0.2190
 5663SOL    HW217930   2.137   5.876   2.392  0.2156 -0.1966  1.0831
 5664SOL     OW17931   2.779   5.347   1.458 -0.4026 -0.7844 -0.5201
 5664SOL    HW117932   2.749   5.390   1.378 -0.3423  0.3993  0.0782
 5664SOL    HW217933   2.849   5.288   1.430 -1.7640 -1.9321 -1.6236
 5665SOL     OW17934   5.167   2.686   1.136  0.1823  0.2364  0.2789
 5665SOL    HW117935   5.246   2.716   1.180  0.1675  0.0129  0.4578
 5665SOL    HW217936   5.135   2.613   1.189  0.4596 -0.3896 -0.3909
 5666SOL     OW17937   1.098   0.154   2.151 -0.1212 -0.6604  0.3478
 5666SOL    HW117938   1.018   0.152   2.098 -1.2868  2.0153  1.7845
 5666SOL    HW217939   1.097   0.071   2.199 -1.1639 -1.3614 -0.8115
 5667SOL     OW17940   6.520   4.172   5.466 -0.0007  0.4438  0.3253
 5667SOL    HW117941   6.570   4.176   5.384  1.3210 -0.9205  1.0100
 5667SOL    HW217942   6.573   4.219   5.529  0.0765 -0.3676  0.8881
 5668SOL     OW17943   4.963   2.398   6.073  0.0438  0.4643 -0.2368
 5668SOL    HW117944   5.053   2.400   6.104  0.2483  0.6576 -0.8268
 5668SOL    HW217945   4.921   2.473   6.114 -0.0517 -0.0438  0.6227
 5669SOL     OW17946   2.371   1.336   3.320  0.1330  0.8378 -0.4020
 5669SOL    HW117947   2.410   1.354   3.406  0.0463 -0.0953 -0.1598
 5669SOL    HW217948   2.297   1.398   3.315 -1.4024 -0.7228  1.2856
 5670SOL     OW17949   6.583   3.182   7.411  0.1165 -0.2761  0.1022
 5670SOL    HW117950   6.647   3.118   7.444  0.9291  1.1638  1.4802
 5670SOL    HW217951   6.541   3.216   7.490 -1.3207 -0.0917 -0.6957
 5671SOL     OW17952   1.758   2.837   5.545 -0.9613 -0.2491  0.1151
 5671SOL    HW117953   1.724   2.747   5.551  0.7168 -1.0308 -1.2519
 5671SOL    HW217954   1.686   2.887   5.505 -1.7903 -1.0411  0.5640
 5672SOL     OW17955   6.690   5.495   7.412  0.2571  1.3212  0.1246
 5672SOL    HW117956   6.615   5.550   7.435  0.2462  0.7388  1.5774
 5672SOL    HW217957   6.681   5.417   7.468 -0.6560 -1.0142 -3.0148
 5673SOL     OW17958   0.197   2.160   0.818 -0.1578 -0.5586  0.5102
 5673SOL    HW117959   0.160   2.109   0.889 -1.2161 -0.2268  0.2182
 5673SOL    HW217960   0.191   2.251   0.848 -0.1188 -0.4578  0.2217
 5674SOL     OW17961   0.627   4.993   3.410 -0.1848  0.2920  0.3383
 5674SOL    HW117962   0.582   5.077   3.420 -1.3928 -0.2176 -0.4595
 5674SOL    HW217963   0.570   4.943   3.352  0.2488 -1.2701  1.1979
 5675SOL     OW17964   0.197   5.408   5.202  0.6275 -0.2885  0.2112
 5675SOL    HW117965   0.225   5.428   5.291  0.8299 -0.8812  0.2846
 5675SOL    HW217966   0.265   5.351   5.167  0.9760  0.5923 -0.6173
 5676SOL     OW17967   5.942   3.778   4.400  0.6184  0.0041 -0.5507
 5676SOL    HW117968   5.875   3.839   4.430  0.2609 -0.4906 -0.3235
 5676SOL    HW217969   5.924   3.697   4.449  1.9745  0.1544  0.2568
 5677SOL     OW17970   4.803   6.857   2.442  0.0941 -0.5036  0.1448
 5677SOL    HW117971   4.814   6.890   2.353  1.5641 -0.1899  0.4159
 5677SOL    HW217972   4.808   6.934   2.498  0.4541 -0.8353  0.5808
 5678SOL     OW17973   1.440   1.870   0.176 -0.2022 -0.5135  0.0582
 5678SOL    HW117974   1.351   1.895   0.152  0.2487  0.4430 -0.7118
 5678SOL    HW217975   1.496   1.916   0.112  0.9189  0.1767  1.4710
 5679SOL     OW17976   2.850   4.423   0.680 -0.1220 -0.2082 -0.1155
 5679SOL    HW117977   2.855   4.501   0.625 -0.4942  0.2866  0.5370
 5679SOL    HW217978   2.927   4.428   0.736  1.1431 -1.5524 -1.6346
 5680SOL     OW17979   0.240   3.229   6.009  0.0233  0.0091  0.4005
 5680SOL    HW117980   0.274   3.282   6.082  1.3637  3.3013 -2.3731
 5680SOL    HW217981   0.313   3.171   5.986  0.0614 -0.1087  0.8001
 5681SOL     OW17982   4.500   2.359   7.120  0.3910  0.0801 -0.0415
 5681SOL    HW117983   4.554   2.376   7.197  1.5871 -0.7358 -0.6688
 5681SOL    HW217984   4.416   2.328   7.156  0.4258  1.0664  0.9370
 5682SOL     OW17985   5.479   3.411   4.577 -0.0002 -0.3471  0.2739
 5682SOL    HW117986   5.466   3.360   4.658 -1.2999  0.4715  0.6031
 5682SOL    HW217987   5.489   3.501   4.607 -0.2133 -0.0709 -0.4698
 5683SOL     OW17988   4.454   2.586   1.272  0.2992 -0.2934  0.3393
 5683SOL    HW117989   4.442   2.681   1.270  0.8830 -0.2021 -2.6733
 5683SOL    HW217990   4.366   2.550   1.261  0.1254 -0.1333  1.1234
 5684SOL     OW17991   4.533   5.633   5.850 -0.2295 -0.2427 -0.4016
 5684SOL    HW117992   4.558   5.646   5.942 -0.0021 -1.2461 -0.3095
 5684SOL    HW217993   4.476   5.708   5.830  0.7137  0.6593  0.1775
 5685SOL     OW17994   1.452   6.040   2.714 -0.2302 -0.3327  0.6346
 5685SOL    HW117995   1.500   6.074   2.789  0.9678 -0.4263 -0.0524
 5685SOL    HW217996   1.468   5.946   2.716 -0.1592 -0.3309  0.2496
 5686SOL     OW17997   6.707   0.188   2.487  0.3092 -0.1361 -0.3868
 5686SOL    HW117998   6.648   0.167   2.559  0.1044 -1.5720 -0.9410
 5686SOL    HW217999   6.710   0.284   2.485 -1.9955 -0.0115 -0.3443
 5687SOL     OW18000   7.255   3.741   4.949 -0.1070  0.5036 -0.4621
 5687SOL    HW118001   7.333   3.719   5.001 -0.1765  0.1031 -0.5250
 5687SOL    HW218002   7.238   3.833   4.969 -0.6949  0.1148  0.9620
 5688SOL     OW18003   5.172   2.231   6.429  0.0983 -0.5023 -0.4519
 5688SOL    HW118004   5.087   2.225   6.385  0.0978 -2.3899 -0.2557
 5688SOL    HW218005   5.180   2.324   6.451 -1.4200 -0.0947 -1.4234
 5689SOL     OW18006   3.431   4.547   3.361 -0.4577 -0.1729  0.6125
 5689SOL    HW118007   3.340   4.571   3.349 -0.3672  0.3499  0.9183
 5689SOL    HW218008   3.446   4.553   3.455  0.2961  1.3199  0.4352
 5690SOL     OW18009   5.544   6.903   2.184  0.2765 -0.2132  0.8759
 5690SOL    HW118010   5.633   6.892   2.218  0.3758  0.1647  0.7434
 5690SOL    HW218011   5.500   6.956   2.249 -0.2537 -1.4863  1.6017
 5691SOL     OW18012   5.551   3.628   2.686  0.3833 -0.2046  0.3760
 5691SOL    HW118013   5.519   3.553   2.736  0.2135 -0.8229 -0.6318
 5691SOL    HW218014   5.643   3.637   2.713 -0.2460  0.8340  2.3838
 5692SOL     OW18015   7.261   0.169   2.209  0.2655 -0.4079 -0.3916
 5692SOL    HW118016   7.261   0.193   2.116  1.7831 -1.9065 -0.8384
 5692SOL    HW218017   7.227   0.246   2.254 -1.3324  0.0431 -2.2502
 5693SOL     OW18018   3.272   3.755   2.996 -0.2778  0.3455 -0.8749
 5693SOL    HW118019   3.248   3.842   2.965 -2.4024 -0.3679 -1.4274
 5693SOL    HW218020   3.242   3.753   3.087  1.0763  0.6456 -0.4056
 5694SOL     OW18021   2.316   3.466   3.376 -0.2353  0.2726 -0.3293
 5694SOL    HW118022   2.228   3.475   3.339 -0.4446 -0.5435 -0.0570
 5694SOL    HW218023   2.306   3.403   3.447  0.7053 -0.4873 -0.8318
 5695SOL     OW18024   6.577   5.658   0.858  0.3458 -0.1995 -0.0337
 5695SOL    HW118025   6.514   5.723   0.828  0.1406  0.6851  2.1142
 5695SOL    HW218026   6.540   5.574   0.830 -0.9377  0.4148 -0.2437
 5696SOL     OW18027   6.345   1.650   6.477  0.2651  0.6889  0.3661
 5696SOL    HW118028   6.426   1.599   6.487  0.1394  0.7151  1.6680
 5696SOL    HW218029   6.286   1.615   6.545 -0.7327  0.8469 -0.3873
 5697SOL     OW18030   5.267   5.614   5.541 -0.1442  0.0259 -0.1768
 5697SOL    HW118031   5.341   5.631   5.484 -0.8189 -0.7979 -1.3293
 5697SOL    HW218032   5.303   5.564   5.614  0.4221 -0.4602 -0.7813
 5698SOL     OW18033   3.622   6.412   4.024  0.6263  0.2861  0.1114
 5698SOL    HW118034   3.530   6.424   4.047  0.0221  1.2596 -2.4911
 5698SOL    HW218035   3.643   6.324   4.055 -1.3721 -0.2208  0.1805
 5699SOL     OW18036   0.296   5.170   5.553 -0.4387 -0.1223  0.3489
 5699SOL    HW118037   0.353   5.098   5.529  1.3460  1.2013  0.3605
 5699SOL    HW218038   0.242   5.136   5.624  1.7009 -0.9140  1.6903
 5700SOL     OW18039   5.851   4.197   5.776 -0.2420 -0.1303 -0.4105
 5700SOL    HW118040   5.879   4.106   5.770 -0.4015 -0.2547  0.5328
 5700SOL    HW218041   5.929   4.248   5.751 -0.3915 -0.5235 -1.7310
 5701SOL     OW18042   6.746   4.026   0.513 -0.5713  0.1792 -0.2035
 5701SOL    HW118043   6.768   4.110   0.473 -0.4466  0.4763  0.4689
 5701SOL    HW218044   6.825   3.972   0.502 -0.5746  0.2227 -0.4406
 5702SOL     OW18045   1.489   2.319   3.159 -0.0289  0.0432 -0.0964
 5702SOL    HW118046   1.455   2.321   3.248  0.7610 -0.1847  0.2178
 5702SOL    HW218047   1.579   2.286   3.168  1.1581  2.8162 -0.5973
 5703SOL     OW18048   4.020   3.235   3.445 -0.6746  0.1411  0.3895
 5703SOL    HW118049   3.980   3.301   3.389 -0.5912  0.6392  0.9072
 5703SOL    HW218050   4.100   3.277   3.477  0.3113 -0.8519 -0.6683
 5704SOL     OW18051   4.784   3.353   2.387  0.4190 -0.3750 -0.6776
 5704SOL    HW118052   4.846   3.413   2.430  0.2952 -0.5430 -0.2594
 5704SOL    HW218053   4.704   3.361   2.439  0.1129 -0.2167 -1.1716
 5705SOL     OW18054   6.984   6.483   4.274  0.2737 -0.0361 -0.6481
 5705SOL    HW118055   7.010   6.393   4.296 -1.1558 -0.5656 -1.0152
 5705SOL    HW218056   7.025   6.498   4.188  1.7545  0.2386  0.0692
 5706SOL     OW18057   4.648   7.192   6.722  0.3885 -0.3358  0.6077
 5706SOL    HW118058   4.665   7.130   6.793  3.2327  0.9164  1.1418
 5706SOL    HW218059   4.647   7.278   6.764 -3.2106  0.1829 -0.1577
 5707SOL     OW18060   2.248   3.333   0.337  0.0112  0.2442 -0.1800
 5707SOL    HW118061   2.236   3.245   0.371 -1.3170  0.0890 -0.9700
 5707SOL    HW218062   2.260   3.388   0.414 -1.2012 -0.3496  0.4561
 5708SOL     OW18063   2.757   0.465   1.541  0.7474 -0.3901 -0.0019
 5708SOL    HW118064   2.778   0.449   1.449  1.0709 -0.2251  0.0424
 5708SOL    HW218065   2.665   0.440   1.549  0.2893  0.9471 -0.7141
 5709SOL     OW18066   0.169   7.216   5.686 -0.0049 -0.2951 -0.2048
 5709SOL    HW118067   0.081   7.246   5.708 -0.2010 -0.6637 -0.4705
 5709SOL    HW218068   0.155   7.131   5.645  0.4629 -0.2639 -0.4288
 5710SOL     OW18069   6.558   0.381   1.955 -0.0732 -0.2945 -0.0820
 5710SOL    HW118070   6.583   0.432   2.032  0.1957  0.4062 -0.6158
 5710SOL    HW218071   6.488   0.323   1.986 -2.1404  2.0797  0.0680
 5711SOL     OW18072   4.441   6.595   0.168  0.1237  0.2013 -0.0516
 5711SOL    HW118073   4.440   6.538   0.091 -0.9679  2.3414 -1.7396
 5711SOL    HW218074   4.533   6.623   0.175  0.2003  0.1581 -0.7395
 5712SOL     OW18075   3.346   6.129   4.964 -0.4118  0.2035  0.5175
 5712SOL    HW118076   3.314   6.179   5.039 -1.6386  1.0629 -0.5404
 5712SOL    HW218077   3.275   6.134   4.900  0.8769  0.0913 -0.9704
 5713SOL     OW18078   2.186   3.805   1.482 -0.2743  0.5901 -0.0686
 5713SOL    HW118079   2.129   3.827   1.556  0.0985  1.9810 -0.1703
 5713SOL    HW218080   2.265   3.857   1.495  0.1656  0.1853 -0.9830
 5714SOL     OW18081   4.788   3.383   1.867  0.2532 -0.2930 -0.0480
 5714SOL    HW118082   4.781   3.358   1.959 -1.2722 -3.1467 -0.7977
 5714SOL    HW218083   4.811   3.302   1.822 -1.0025  0.5357 -2.3798
 5715SOL     OW18084   0.936   5.028   1.418 -0.5008  0.0241 -0.4618
 5715SOL    HW118085   0.942   4.934   1.436 -2.5348 -0.3120 -1.2287
 5715SOL    HW218086   1.026   5.057   1.409  0.1723 -1.8532 -0.1664
 5716SOL     OW18087   4.379   4.299   2.702 -0.6524  0.0142  0.2245
 5716SOL    HW118088   4.384   4.214   2.745 -0.5036 -0.1244 -0.0639
 5716SOL    HW218089   4.360   4.279   2.610  0.1751  0.2608 -0.0029
 5717SOL     OW18090   0.452   2.858   3.189  0.2905  0.8818 -0.2146
 5717SOL    HW118091   0.436   2.879   3.096  2.2387 -1.0466 -1.0689
 5717SOL    HW218092   0.547   2.851   3.196  0.0922 -1.5833  1.2601
 5718SOL     OW18093   0.714   0.606   0.000 -0.1673  0.1232 -0.4689
 5718SOL    HW118094   0.630   0.561   0.007  0.0680 -0.1283  1.0964
 5718SOL    HW218095   0.777   0.543   0.035  0.5781  0.5555 -1.0241
 5719SOL     OW18096   6.569   0.598   3.937 -0.4687  0.4900  0.1906
 5719SOL    HW118097   6.628   0.524   3.952 -1.0342  0.1247  0.6768
 5719SOL    HW218098   6.520   0.574   3.858 -0.4349  0.4792  0.1731
 5720SOL     OW18099   5.633   6.616   4.455 -0.3958  0.8272  0.0046
 5720SOL    HW118100   5.665   6.596   4.367 -0.4077  0.0765  0.1569
 5720SOL    HW218101   5.683   6.557   4.512 -2.7102 -1.1366  0.1476
 5721SOL     OW18102   5.283   6.208   3.745 -0.6236 -0.1644 -0.1891
 5721SOL    HW118103   5.218   6.222   3.677 -0.1079 -0.3435 -0.7279
 5721SOL    HW218104   5.333   6.289   3.748 -0.3132 -0.3469 -0.3875
 5722SOL     OW18105   0.715   4.665   4.835  0.3856  0.0200 -0.2663
 5722SOL    HW118106   0.675   4.666   4.921 -0.6633 -0.8146 -0.7270
 5722SOL    HW218107   0.645   4.690   4.775  1.3683  1.6551 -0.7956
 5723SOL     OW18108   6.353   3.208   6.275  0.6463  0.3812  0.5344
 5723SOL    HW118109   6.372   3.239   6.364 -0.1826 -2.1488  1.6846
 5723SOL    HW218110   6.261   3.184   6.278  1.1391 -1.8414 -0.2962
 5724SOL     OW18111   7.057   4.273   2.898 -0.4562 -0.1118 -0.6119
 5724SOL    HW118112   6.991   4.306   2.960  0.4833 -0.8710  0.8368
 5724SOL    HW218113   7.077   4.185   2.928  0.1989 -0.4268 -1.8920
 5725SOL     OW18114   3.071   6.923   3.650 -0.3504 -0.6439 -0.0904
 5725SOL    HW118115   3.064   6.971   3.732 -2.1535  1.2480 -1.2549
 5725SOL    HW218116   3.137   6.970   3.599 -1.1711 -0.1583 -0.7304
 5726SOL     OW18117   0.200   2.583   3.011  0.4727 -0.4061  0.3115
 5726SOL    HW118118   0.127   2.522   3.013  0.6701 -0.7106 -0.9434
 5726SOL    HW218119   0.208   2.615   3.101 -0.2903 -1.4393  0.7582
 5727SOL     OW18120   4.204   2.240   6.194  0.4595 -0.1319  0.4584
 5727SOL    HW118121   4.261   2.304   6.152 -0.9506  1.9454  1.5472
 5727SOL    HW218122   4.229   2.241   6.286 -1.3041  0.8657  0.9679
 5728SOL     OW18123   5.275   2.253   2.477 -0.2873 -0.0534 -0.4117
 5728SOL    HW118124   5.199   2.251   2.535 -0.2218 -0.1249 -0.3283
 5728SOL    HW218125   5.242   2.291   2.395 -0.4060 -0.0596 -0.3665
 5729SOL     OW18126   2.265   3.545   2.866 -0.0572  0.1354 -0.0458
 5729SOL    HW118127   2.213   3.465   2.856  1.6994 -1.0768  0.2171
 5729SOL    HW218128   2.341   3.519   2.917  0.2988  2.1216  0.5337
 5730SOL     OW18129   4.007   2.126   3.467  0.4780  0.5144  0.5885
 5730SOL    HW118130   3.964   2.208   3.442  0.9433  0.6302  0.1585
 5730SOL    HW218131   3.949   2.088   3.534  0.2652  1.1945  0.7975
 5731SOL     OW18132   3.007   3.328   7.253  0.0081  0.2427 -0.0161
 5731SOL    HW118133   2.978   3.368   7.334 -0.9363  1.6345 -1.0063
 5731SOL    HW218134   3.063   3.393   7.212  1.0665 -0.7272 -0.1712
 5732SOL     OW18135   4.186   4.575   1.220 -0.4970 -0.0179 -0.1381
 5732SOL    HW118136   4.232   4.658   1.205 -2.7940  1.5125  0.7343
 5732SOL    HW218137   4.207   4.553   1.311  0.8839 -0.9806 -0.6479
 5733SOL     OW18138   6.274   3.153   5.128  1.0363  0.1343 -0.1997
 5733SOL    HW118139   6.240   3.238   5.102  0.5831 -0.3646 -1.2677
 5733SOL    HW218140   6.291   3.162   5.222 -0.1370  1.0150 -0.0537
 5734SOL     OW18141   3.055   2.771   3.928  0.1008  0.0659 -0.0817
 5734SOL    HW118142   3.147   2.746   3.915  0.8728  2.5787  0.0294
 5734SOL    HW218143   3.046   2.854   3.882 -1.9782  0.1655  0.4158
 5735SOL     OW18144   6.864   4.428   0.958 -0.4492  0.4360 -0.0546
 5735SOL    HW118145   6.909   4.344   0.948 -1.4585 -0.1256 -0.0707
 5735SOL    HW218146   6.872   4.470   0.872 -0.2332  0.2026 -0.1500
 5736SOL     OW18147   3.421   3.909   0.972  0.4196 -0.1013 -0.0285
 5736SOL    HW118148   3.454   3.961   0.899  0.9570 -0.1048  0.2075
 5736SOL    HW218149   3.499   3.866   1.008  0.0716 -0.5933  0.1553
 5737SOL     OW18150   0.922   1.876   4.595 -0.7619  0.1983 -0.0518
 5737SOL    HW118151   0.839   1.923   4.595  0.2635  2.1408 -1.0579
 5737SOL    HW218152   0.911   1.807   4.531 -1.1254  1.4470 -1.3896
 5738SOL     OW18153   5.202   0.044   2.018  0.0956  0.3454 -0.0097
 5738SOL    HW118154   5.142   0.116   2.037 -2.6114 -1.9113  0.8587
 5738SOL    HW218155   5.215   0.048   1.923 -0.2664  1.7617 -0.0179
 5739SOL     OW18156   0.024   2.997   2.443 -0.1895  0.9607 -0.4444
 5739SOL    HW118157   0.100   2.967   2.492 -0.4241 -0.3708 -0.8502
 5739SOL    HW218158   0.043   3.089   2.422 -0.0207  1.5198  1.9443
 5740SOL     OW18159   1.360   4.538   2.842  0.5391  0.4023 -0.4200
 5740SOL    HW118160   1.398   4.616   2.882  0.1976 -0.1097  0.9626
 5740SOL    HW218161   1.267   4.560   2.829  0.5664  0.4321 -0.5631
 5741SOL     OW18162   3.107   0.880   5.864  0.0720  0.1640  0.4259
 5741SOL    HW118163   3.151   0.869   5.780 -0.0293  1.2733  0.2146
 5741SOL    HW218164   3.073   0.793   5.885  1.4868 -0.4787  0.1129
 5742SOL     OW18165   1.122   2.167   5.091  0.0486  0.4232 -0.0833
 5742SOL    HW118166   1.183   2.117   5.036  0.7928  0.5488  0.6197
 5742SOL    HW218167   1.046   2.109   5.100  0.8361 -0.5342  0.5953
 5743SOL     OW18168   5.992   7.016   1.953 -0.2976 -0.6565  0.8541
 5743SOL    HW118169   5.992   7.067   1.871 -0.5870 -0.8106  0.7590
 5743SOL    HW218170   5.930   7.062   2.010 -0.5089 -0.8663  0.7918
 5744SOL     OW18171   2.538   3.879   5.603  0.6496  0.1992 -0.2095
 5744SOL    HW118172   2.574   3.946   5.661 -0.3227  0.7327 -0.2015
 5744SOL    HW218173   2.539   3.919   5.516  0.6906 -0.0269 -0.3146
 5745SOL     OW18174   4.916   2.183   7.191 -0.6732  0.0041  0.7558
 5745SOL    HW118175   4.971   2.106   7.207 -2.5751 -2.2708 -2.5307
 5745SOL    HW218176   4.835   2.165   7.241 -0.9493  0.0678  0.3356
 5746SOL     OW18177   4.749   4.137   0.341 -0.2804  0.4164  0.3434
 5746SOL    HW118178   4.657   4.126   0.316  0.1126 -0.5317 -0.7649
 5746SOL    HW218179   4.790   4.177   0.264  0.6443 -1.1376 -0.0223
 5747SOL     OW18180   4.513   5.616   5.236  0.2060 -0.2787 -0.1370
 5747SOL    HW118181   4.446   5.634   5.302 -0.3702  0.3858 -0.8872
 5747SOL    HW218182   4.595   5.616   5.285 -0.1766  0.5569  0.5272
 5748SOL     OW18183   5.225   6.951   2.477 -0.4721  0.5917  0.0864
 5748SOL    HW118184   5.231   7.045   2.494 -0.2331  0.6378 -0.2326
 5748SOL    HW218185   5.310   6.929   2.438 -1.2826  0.6654 -1.8596
 5749SOL     OW18186   0.992   5.391   0.237 -0.5575  0.2290  0.3874
 5749SOL    HW118187   0.924   5.363   0.175 -0.6988  0.1242  0.5881
 5749SOL    HW218188   1.016   5.479   0.208  0.7180 -0.5245 -0.9544
 5750SOL     OW18189   2.998   4.451   7.150 -0.3972 -0.1390  0.3780
 5750SOL    HW118190   3.004   4.485   7.239  1.3372 -0.0378  0.2591
 5750SOL    HW218191   3.084   4.413   7.133  0.3488  2.2998 -2.2037
 5751SOL     OW18192   4.210   6.161   6.757  0.2377 -0.1567  0.0537
 5751SOL    HW118193   4.272   6.205   6.815  1.6931  1.6224 -2.6382
 5751SOL    HW218194   4.126   6.170   6.801  1.3778  0.2782  2.2699
 5752SOL     OW18195   2.352   5.832   3.719  0.6471  0.4344 -0.1264
 5752SOL    HW118196   2.355   5.919   3.680  0.0130  1.2852  1.6340
 5752SOL    HW218197   2.373   5.773   3.646 -2.2338  1.7601 -2.2067
 5753SOL     OW18198   0.288   2.357   5.222 -0.2573 -0.0135  1.1961
 5753SOL    HW118199   0.251   2.374   5.136 -0.0798  0.2286  1.1684
 5753SOL    HW218200   0.240   2.280   5.254  0.7516 -1.0694  0.2302
 5754SOL     OW18201   1.906   4.275   6.048  0.2203  0.3293  0.0892
 5754SOL    HW118202   1.958   4.301   5.972  0.8541 -0.9751  0.0624
 5754SOL    HW218203   1.970   4.249   6.114 -0.3236  1.4296  1.1022
 5755SOL     OW18204   1.677   2.174   6.589  0.2718  0.2486  0.3693
 5755SOL    HW118205   1.712   2.086   6.580  0.7783  0.5558 -0.8723
 5755SOL    HW218206   1.751   2.232   6.572 -0.8492  0.9208 -3.1315
 5756SOL     OW18207   0.776   2.010   5.748 -0.0371  0.7525 -0.1476
 5756SOL    HW118208   0.686   1.980   5.754 -0.4163  1.8182 -0.2974
 5756SOL    HW218209   0.787   2.068   5.824  0.3791  0.9834 -0.3762
 5757SOL     OW18210   6.281   3.011   7.256  0.0422 -0.2089  0.6102
 5757SOL    HW118211   6.317   2.935   7.301  2.0208  0.0270 -0.4626
 5757SOL    HW218212   6.227   2.974   7.186  2.6976 -0.8063 -1.2935
 5758SOL     OW18213   3.553   0.612   0.701  0.6649 -0.5028  0.0701
 5758SOL    HW118214   3.591   0.693   0.736 -0.1227 -0.2654  0.3907
 5758SOL    HW218215   3.566   0.618   0.606 -1.0936  0.9205 -0.1231
 5759SOL     OW18216   3.652   6.538   0.027  0.3361 -0.0449 -0.2164
 5759SOL    HW118217   3.574   6.587   0.002 -0.1472  0.1595  1.5267
 5759SOL    HW218218   3.722   6.603   0.030  0.3710 -0.0475 -0.8195
 5760SOL     OW18219   0.876   6.362   1.437 -0.5773  0.4877 -0.0317
 5760SOL    HW118220   0.967   6.335   1.448 -0.2303  1.8358  0.5979
 5760SOL    HW218221   0.838   6.354   1.524 -0.6481  1.3613  0.0217
 5761SOL     OW18222   2.293   0.763   6.893 -0.2380  0.4819 -0.5487
 5761SOL    HW118223   2.295   0.668   6.876  0.4868  0.4981 -0.5484
 5761SOL    HW218224   2.219   0.794   6.841  0.5680  0.1729 -1.9355
 5762SOL     OW18225   6.936   2.939   4.709 -0.4289  0.4856  0.3281
 5762SOL    HW118226   6.968   2.994   4.780  0.1310 -0.4389  0.8037
 5762SOL    HW218227   6.849   2.975   4.689 -0.7511  0.5493  1.7160
 5763SOL     OW18228   2.777   4.387   1.248  0.3552 -0.4373 -0.0623
 5763SOL    HW118229   2.747   4.405   1.159  1.4542 -0.0382 -0.3740
 5763SOL    HW218230   2.789   4.293   1.250 -0.3401 -0.5353 -0.1071
 5764SOL     OW18231   6.505   1.293   0.412  0.1459 -0.4342  0.1464
 5764SOL    HW118232   6.466   1.361   0.357  1.3097  0.8399  0.8060
 5764SOL    HW218233   6.472   1.311   0.500  1.8201  0.4276  0.6423
 5765SOL     OW18234   0.279   4.839   1.737 -0.1072 -0.1637 -0.5049
 5765SOL    HW118235   0.294   4.753   1.776 -0.3114  0.3140  0.6955
 5765SOL    HW218236   0.193   4.865   1.771  0.1796  0.7260 -0.4526
 5766SOL     OW18237   4.915   6.654   5.871  0.2968  0.7628  0.4700
 5766SOL    HW118238   4.838   6.685   5.920  1.9825  2.7978  2.0664
 5766SOL    HW218239   4.951   6.584   5.925 -0.1647  0.0933 -0.0703
 5767SOL     OW18240   1.741   1.387   7.337  0.0221 -0.3289 -0.3568
 5767SOL    HW118241   1.696   1.360   7.257  0.0383  0.0044 -0.4769
 5767SOL    HW218242   1.700   1.470   7.361  1.0403  0.3309 -0.8447
 5768SOL     OW18243   4.446   4.571   3.542 -0.5673 -0.8101 -0.6021
 5768SOL    HW118244   4.350   4.567   3.547 -0.6574  1.1836  0.7912
 5768SOL    HW218245   4.469   4.512   3.471 -2.9189 -0.4929 -1.7301
 5769SOL     OW18246   1.657   4.041   4.866 -0.4302  0.0492 -0.2296
 5769SOL    HW118247   1.689   4.041   4.776  1.9850 -1.4235  0.5270
 5769SOL    HW218248   1.574   3.993   4.863  0.1739 -0.9783 -1.5340
 5770SOL     OW18249   6.343   5.592   1.444  0.0334 -0.1621 -0.4017
 5770SOL    HW118250   6.370   5.504   1.470  2.3082  0.3400 -0.8106
 5770SOL    HW218251   6.357   5.646   1.521  0.2013  0.1062 -0.6149
 5771SOL     OW18252   6.041   3.943   4.222 -0.0348 -0.1913  0.4455
 5771SOL    HW118253   6.127   3.984   4.231  0.4817 -1.2346  0.4279
 5771SOL    HW218254   6.037   3.880   4.294  0.2917 -1.9550 -0.9680
 5772SOL     OW18255   5.948   3.307   5.346  0.1492  0.6096  0.2364
 5772SOL    HW118256   5.932   3.278   5.435 -0.3638  2.1391  0.6751
 5772SOL    HW218257   6.036   3.344   5.348 -0.4744  2.1945  0.5840
 5773SOL     OW18258   4.180   5.529   2.939 -0.2746 -0.0037  0.4883
 5773SOL    HW118259   4.091   5.501   2.919  0.0353 -0.6219 -0.0764
 5773SOL    HW218260   4.172   5.622   2.962 -0.7856  0.5580 -1.7393
 5774SOL     OW18261   2.815   7.363   4.547 -0.1150  0.3992  0.2421
 5774SOL    HW118262   2.791   7.389   4.459  0.3915  0.3790  0.0911
 5774SOL    HW218263   2.911   7.369   4.549 -0.0664 -0.2733  0.5746
 5775SOL     OW18264   4.580   4.435   1.241 -0.3168  0.2338  0.6340
 5775SOL    HW118265   4.622   4.376   1.178  1.5479  1.4006  0.7075
 5775SOL    HW218266   4.550   4.377   1.312 -0.1713 -0.7996 -0.1198
 5776SOL     OW18267   3.164   5.089   3.081 -0.0956 -0.5477 -0.0618
 5776SOL    HW118268   3.147   5.122   2.993 -2.8135  3.5776  1.7283
 5776SOL    HW218269   3.255   5.114   3.099 -0.7922  2.5888 -0.3230
 5777SOL     OW18270   6.332   1.264   2.907  0.3184  0.0890  0.1791
 5777SOL    HW118271   6.367   1.311   2.983 -0.2410  0.7236  0.0597
 5777SOL    HW218272   6.327   1.331   2.839 -0.1033 -0.2416 -0.1165
 5778SOL     OW18273   5.090   2.729   3.599 -0.5266 -0.3812  0.7635
 5778SOL    HW118274   5.043   2.784   3.537 -1.6829 -1.3699  0.7238
 5778SOL    HW218275   5.089   2.778   3.681  0.6116  0.7291  0.1423
 5779SOL     OW18276   4.163   4.001   6.793 -0.3188  0.3327 -0.2273
 5779SOL    HW118277   4.138   3.910   6.806 -0.9771  0.6241  0.5873
 5779SOL    HW218278   4.251   4.008   6.831 -0.0635 -0.0726 -0.7383
 5780SOL     OW18279   1.036   0.310   4.439  0.6485  0.1003 -0.0852
 5780SOL    HW118280   1.122   0.321   4.399  1.0814  1.5096  1.1696
 5780SOL    HW218281   1.053   0.307   4.533 -0.5273 -1.3125  0.1239
 5781SOL     OW18282   2.423   6.622   2.783  0.8443  0.7524  0.0161
 5781SOL    HW118283   2.494   6.594   2.725 -0.5310 -0.7597 -1.0286
 5781SOL    HW218284   2.376   6.689   2.734  0.4299  0.3751 -0.1123
 5782SOL     OW18285   0.841   0.926   6.928  0.4005  0.0940  0.0036
 5782SOL    HW118286   0.758   0.880   6.941 -0.5319  1.6603 -0.0315
 5782SOL    HW218287   0.898   0.892   6.997 -0.4332 -0.6640  0.3482
 5783SOL     OW18288   2.630   3.390   7.091  0.0692  0.0076 -0.5304
 5783SOL    HW118289   2.623   3.304   7.134 -3.1813  1.0388  1.3708
 5783SOL    HW218290   2.611   3.372   6.999 -1.7407 -1.2651  0.0245
 5784SOL     OW18291   2.141   3.034   2.386 -0.7881  0.4705 -0.3374
 5784SOL    HW118292   2.185   2.970   2.442  0.9004  1.7522 -0.1321
 5784SOL    HW218293   2.166   3.011   2.297 -0.4569  0.6290 -0.2873
 5785SOL     OW18294   1.591   2.172   1.040 -0.4337  0.1893 -0.1170
 5785SOL    HW118295   1.677   2.182   1.080 -0.6934  0.5693  0.3638
 5785SOL    HW218296   1.541   2.119   1.103 -0.7716  0.5909 -0.0386
 5786SOL     OW18297   6.975   2.656   2.958 -0.3735  0.1033 -0.3824
 5786SOL    HW118298   7.065   2.624   2.955 -0.6991 -1.0406  0.7826
 5786SOL    HW218299   6.923   2.583   2.926 -1.0806 -0.3052  1.5532
 5787SOL     OW18300   0.631   3.772   6.101 -0.1587 -0.5056 -0.5899
 5787SOL    HW118301   0.540   3.777   6.073 -1.1816  0.8610  2.5852
 5787SOL    HW218302   0.673   3.847   6.059 -0.8544 -0.2672 -0.8740
 5788SOL     OW18303   0.798   2.853   4.898  0.3254  0.3552 -0.0281
 5788SOL    HW118304   0.873   2.900   4.934  1.2260 -2.3342  1.8879
 5788SOL    HW218305   0.781   2.895   4.813  3.4670  1.5687 -0.1617
 5789SOL     OW18306   6.215   6.231   3.953  0.3943  0.7145 -0.3371
 5789SOL    HW118307   6.227   6.293   3.880 -1.3515  1.2091 -0.2769
 5789SOL    HW218308   6.168   6.283   4.019  1.8753  0.2470  1.1232
 5790SOL     OW18309   6.170   7.373   5.842  0.6730  0.1201 -0.1669
 5790SOL    HW118310   6.213   7.371   5.756  1.0538 -0.2721  0.0285
 5790SOL    HW218311   6.110   7.447   5.837 -1.4384 -1.5518 -1.8187
 5791SOL     OW18312   3.080   5.609   4.402 -0.3390 -0.6724 -0.6347
 5791SOL    HW118313   3.113   5.528   4.361  1.5904 -1.2120  1.7403
 5791SOL    HW218314   3.109   5.679   4.343 -0.0420 -1.5532 -1.5721
 5792SOL     OW18315   2.191   1.373   2.661  0.5245  0.4133 -0.4913
 5792SOL    HW118316   2.119   1.310   2.665  1.0964 -0.1968  0.8537
 5792SOL    HW218317   2.257   1.337   2.720  1.0542  2.0314 -0.0442
 5793SOL     OW18318   1.905   3.838   6.126  0.2271  0.1728 -0.3416
 5793SOL    HW118319   1.914   3.868   6.216 -0.9471 -2.7120  0.8343
 5793SOL    HW218320   1.990   3.800   6.104 -0.3277 -1.7733  0.6774
 5794SOL     OW18321   4.887   3.897   1.858  0.0591  0.6316  0.0346
 5794SOL    HW118322   4.942   3.824   1.829 -0.2804 -0.3336  1.6756
 5794SOL    HW218323   4.946   3.971   1.867  0.6842  0.1755 -0.2818
 5795SOL     OW18324   0.513   2.353   3.863  0.0051 -0.2689  0.4970
 5795SOL    HW118325   0.447   2.398   3.916 -3.0011 -1.5482 -1.8875
 5795SOL    HW218326   0.524   2.268   3.907  3.6677  1.4341  3.4423
 5796SOL     OW18327   1.557   1.406   6.364  0.9258 -0.4719 -0.2237
 5796SOL    HW118328   1.498   1.464   6.411 -0.2997 -1.3326 -0.6476
 5796SOL    HW218329   1.501   1.362   6.300  1.9004 -1.8129 -0.1901
 5797SOL     OW18330   5.693   4.848   5.384  0.2165 -0.1629 -0.9535
 5797SOL    HW118331   5.695   4.753   5.394 -0.8702 -0.2669 -1.5866
 5797SOL    HW218332   5.696   4.862   5.289  1.7329  0.4934 -0.8338
 5798SOL     OW18333   5.966   2.284   5.509 -0.2868  0.0386 -0.0033
 5798SOL    HW118334   5.915   2.314   5.434  0.2917 -2.1628 -1.4031
 5798SOL    HW218335   6.045   2.246   5.470 -0.5921 -2.4595  1.5625
 5799SOL     OW18336   7.262   5.670   3.220  0.3048 -0.1637 -0.8042
 5799SOL    HW118337   7.181   5.720   3.231  1.5286  1.3433  2.5463
 5799SOL    HW218338   7.331   5.736   3.221  1.8446 -1.6970  1.2262
 5800SOL     OW18339   2.480   3.704   5.164  0.0917 -0.3086 -0.2373
 5800SOL    HW118340   2.516   3.781   5.121  0.0366  0.4030  0.9467
 5800SOL    HW218341   2.394   3.691   5.123 -0.1262  0.5776 -0.0791
 5801SOL     OW18342   1.524   0.950   0.987 -0.3016 -0.2352  0.3470
 5801SOL    HW118343   1.465   1.023   0.970  0.3067 -0.0708 -1.1555
 5801SOL    HW218344   1.573   0.977   1.065  0.9547  1.6631 -1.0202
 5802SOL     OW18345   6.730   1.982   2.189 -0.3150  0.3012  0.7089
 5802SOL    HW118346   6.727   2.020   2.277 -2.5720  2.3231 -0.1494
 5802SOL    HW218347   6.665   2.031   2.139  0.8466 -0.8219 -2.1074
 5803SOL     OW18348   2.089   1.155   3.025 -0.1816 -0.7223 -0.2401
 5803SOL    HW118349   2.152   1.097   2.982  0.1020 -1.1343  0.7044
 5803SOL    HW218350   2.007   1.140   2.980 -0.0677 -1.7316 -0.1327
 5804SOL     OW18351   4.774   3.358   5.347 -0.0834  0.5088 -0.4268
 5804SOL    HW118352   4.688   3.371   5.306  0.2676  1.7509 -0.8051
 5804SOL    HW218353   4.792   3.265   5.335 -0.2923  0.6806 -2.5368
 5805SOL     OW18354   4.718   0.677   2.435  0.0471  0.1157 -0.0374
 5805SOL    HW118355   4.707   0.699   2.342  1.2454  0.1004 -0.2112
 5805SOL    HW218356   4.808   0.642   2.440 -0.5037 -1.2598  0.8746
 5806SOL     OW18357   1.757   3.466   3.352 -0.0771  0.1343 -0.0693
 5806SOL    HW118358   1.813   3.541   3.376 -0.8800  0.9435 -0.6747
 5806SOL    HW218359   1.757   3.465   3.257  2.0569 -2.2911 -0.1391
 5807SOL     OW18360   4.283   3.598   5.175  0.1194 -0.0727  0.0712
 5807SOL    HW118361   4.219   3.664   5.202 -1.1213 -1.8688  1.8143
 5807SOL    HW218362   4.268   3.589   5.081 -0.5620  1.2133  0.0258
 5808SOL     OW18363   3.838   4.604   3.314 -0.5929 -0.0260 -0.1877
 5808SOL    HW118364   3.764   4.646   3.270  0.0987  0.0331 -1.3311
 5808SOL    HW218365   3.860   4.530   3.257  1.4428  1.0751 -0.8966
 5809SOL     OW18366   6.473   2.425   3.091 -0.0693  0.3481  0.1100
 5809SOL    HW118367   6.396   2.480   3.075 -0.7008 -0.7449 -0.7580
 5809SOL    HW218368   6.494   2.389   3.005  0.4340 -0.6241  0.6348
 5810SOL     OW18369   1.549   6.418   3.828  0.3934  0.1642  0.4611
 5810SOL    HW118370   1.486   6.377   3.887  0.2253  0.6767  0.6467
 5810SOL    HW218371   1.540   6.370   3.746  1.9956 -1.8574  1.3590
 5811SOL     OW18372   3.335   4.648   0.987  0.6331  0.7610 -0.2631
 5811SOL    HW118373   3.291   4.567   1.013  1.3409  0.4714  0.0604
 5811SOL    HW218374   3.401   4.662   1.055  0.5528  1.5816 -0.3450
 5812SOL     OW18375   0.660   3.111   0.189 -0.4526 -0.1013  0.3124
 5812SOL    HW118376   0.630   3.041   0.130 -1.5416  0.7147 -0.1363
 5812SOL    HW218377   0.580   3.138   0.234 -0.4243  2.0634 -0.8207
 5813SOL     OW18378   4.781   5.188   3.967 -0.1198  0.0380  0.7250
 5813SOL    HW118379   4.762   5.256   4.032  1.5653  1.0296  0.2545
 5813SOL    HW218380   4.829   5.234   3.898 -0.6845 -1.2556 -0.5789
 5814SOL     OW18381   1.064   1.808   6.506 -0.2618  0.0331 -0.1206
 5814SOL    HW118382   1.115   1.865   6.563 -0.2682 -0.2016  0.1254
 5814SOL    HW218383   1.128   1.750   6.465 -0.1119  1.0465 -1.3584
 5815SOL     OW18384   7.127   4.581   0.714  0.1470  0.2022  0.1407
 5815SOL    HW118385   7.170   4.618   0.792 -0.0201 -0.5926  0.6266
 5815SOL    HW218386   7.195   4.527   0.673  0.3447  0.9069 -0.4795
 5816SOL     OW18387   1.177   5.339   5.988 -0.5039 -0.0791  0.3818
 5816SOL    HW118388   1.231   5.267   6.021 -1.1246 -0.5457  0.3886
 5816SOL    HW218389   1.123   5.366   6.062 -0.5814  0.1079  0.2608
 5817SOL     OW18390   4.112   4.404   1.991  0.2920  0.1120 -0.3227
 5817SOL    HW118391   4.138   4.322   1.948  0.9285  0.3346 -0.3671
 5817SOL    HW218392   4.155   4.400   2.077 -0.7333 -0.1964  0.1993
 5818SOL     OW18393   7.429   1.550   7.242 -0.2368  0.1115  0.1887
 5818SOL    HW118394   7.480   1.516   7.316 -0.6719  1.9702  1.4222
 5818SOL    HW218395   7.449   1.490   7.170  0.9548 -1.2230  1.5450
 5819SOL     OW18396   1.568   0.675   0.686  0.2460 -0.3387 -0.2199
 5819SOL    HW118397   1.623   0.605   0.651  0.6094  0.3703 -1.0821
 5819SOL    HW218398   1.482   0.660   0.648  0.1779 -0.6443  0.0487
 5820SOL     OW18399   2.409   1.174   4.712 -0.0316 -0.3308 -0.0418
 5820SOL    HW118400   2.493   1.164   4.757  0.5963 -1.6386 -1.4024
 5820SOL    HW218401   2.429   1.227   4.635 -0.3622 -0.9358 -0.5534
 5821SOL     OW18402   7.278   2.151   4.334  0.1391  0.5566 -0.3350
 5821SOL    HW118403   7.358   2.191   4.368  0.1792  0.2282 -0.0377
 5821SOL    HW218404   7.282   2.060   4.364 -0.7300  0.7407  0.3623
 5822SOL     OW18405   0.045   4.753   0.331  0.3781  0.4344 -0.3610
 5822SOL    HW118406   0.077   4.770   0.420  0.0686 -1.4069  0.1278
 5822SOL    HW218407  -0.046   4.726   0.343  0.3294  0.1889 -1.2547
 5823SOL     OW18408   2.640   3.159   3.642  0.7178  0.7080 -1.2135
 5823SOL    HW118409   2.672   3.212   3.570  2.0174  0.0012 -1.1901
 5823SOL    HW218410   2.676   3.072   3.625  1.4539  0.6336  0.5061
 5824SOL     OW18411   1.433   6.995   2.906 -0.5043 -0.0651 -0.1497
 5824SOL    HW118412   1.422   7.046   2.825 -1.2722 -0.0911 -0.0648
 5824SOL    HW218413   1.390   7.047   2.973  0.3549  0.0764  0.3016
 5825SOL     OW18414   6.541   2.405   4.511 -0.0308 -0.8588 -0.8945
 5825SOL    HW118415   6.530   2.428   4.603  0.8153 -0.2350 -0.9289
 5825SOL    HW218416   6.630   2.369   4.506  0.5701  0.6153 -1.7117
 5826SOL     OW18417   3.435   4.098   3.024 -0.4952 -0.0147 -0.6376
 5826SOL    HW118418   3.370   4.120   2.957 -2.1776  0.6582  1.1270
 5826SOL    HW218419   3.468   4.183   3.053 -0.0090 -0.2890 -0.3822
 5827SOL     OW18420   6.189   6.200   3.128  0.4191  0.2412 -0.3500
 5827SOL    HW118421   6.226   6.118   3.096 -0.4573  0.5674 -2.3257
 5827SOL    HW218422   6.097   6.181   3.143  0.7874  0.1011  2.1413
 5828SOL     OW18423   3.873   2.457   1.816  0.5234 -0.3209 -0.2310
 5828SOL    HW118424   3.891   2.397   1.744  2.6537 -0.7932  0.6382
 5828SOL    HW218425   3.780   2.477   1.807 -0.2645 -3.5778 -0.6799
 5829SOL     OW18426   5.240   0.316   0.461 -0.2325 -0.1004  0.1911
 5829SOL    HW118427   5.184   0.265   0.519  0.0303  2.1266  2.5867
 5829SOL    HW218428   5.329   0.294   0.489 -0.0524  0.0755 -0.2386
 5830SOL     OW18429   1.796   3.203   4.186  0.3476 -0.0892  0.5009
 5830SOL    HW118430   1.882   3.173   4.158  0.4798  1.8548 -1.4074
 5830SOL    HW218431   1.804   3.298   4.191 -1.5076  0.0823  0.9315
 5831SOL     OW18432   6.054   5.525   5.455  0.0672 -0.4246 -0.5663
 5831SOL    HW118433   6.138   5.563   5.430 -0.6933  1.1243 -0.8588
 5831SOL    HW218434   6.062   5.507   5.548  0.3552  0.7576 -0.3512
 5832SOL     OW18435   4.100   0.616   2.377  0.3018  0.3604  0.2283
 5832SOL    HW118436   4.054   0.617   2.460 -0.8128  0.1328 -0.3632
 5832SOL    HW218437   4.181   0.569   2.395  0.7181  1.4966  1.4868
 5833SOL     OW18438   3.969   5.264   3.089  0.0032  0.6450  0.2954
 5833SOL    HW118439   4.062   5.279   3.104  0.0016 -0.4142  1.5652
 5833SOL    HW218440   3.966   5.190   3.028 -0.0202  0.8711  0.0172
 5834SOL     OW18441   6.319   2.678   7.007 -0.0102 -0.1959 -1.2398
 5834SOL    HW118442   6.302   2.587   7.028  1.4254 -0.3985 -0.8715
 5834SOL    HW218443   6.326   2.680   6.911 -5.3175  0.5195 -1.9403
 5835SOL     OW18444   4.256   5.612   6.717 -0.8693  0.1218  0.4476
 5835SOL    HW118445   4.301   5.570   6.790  0.2351 -1.4765 -1.0662
 5835SOL    HW218446   4.278   5.705   6.725  1.2169 -0.3641  0.7841
 5836SOL     OW18447   7.211   4.345   4.468  0.2871 -0.0112 -0.2685
 5836SOL    HW118448   7.298   4.351   4.506  1.1170  0.3755 -2.1261
 5836SOL    HW218449   7.225   4.349   4.374 -1.9042  2.7169 -0.6146
 5837SOL     OW18450   3.518   2.753   1.501 -0.2917  0.0881  0.1563
 5837SOL    HW118451   3.602   2.773   1.541  0.2106 -0.6793 -0.4711
 5837SOL    HW218452   3.525   2.661   1.475 -2.3512 -0.8646  2.5838
 5838SOL     OW18453   6.157   6.677   5.840 -0.4004  0.5264  0.7367
 5838SOL    HW118454   6.140   6.627   5.920  0.7604  0.8775  1.2171
 5838SOL    HW218455   6.158   6.612   5.770 -0.9088  0.1520  1.0735
 5839SOL     OW18456   5.484   4.513   2.404  0.1833 -0.4340 -0.0635
 5839SOL    HW118457   5.467   4.522   2.497 -0.9559  0.8237 -0.3583
 5839SOL    HW218458   5.562   4.565   2.388 -0.3801  0.4414 -0.0137
 5840SOL     OW18459   6.465   4.899   0.818 -0.6194  0.0695 -0.5802
 5840SOL    HW118460   6.395   4.910   0.882 -0.7531 -1.2282 -0.4837
 5840SOL    HW218461   6.466   4.982   0.770 -1.9561  0.2581 -0.3252
 5841SOL     OW18462   4.259   5.035   1.740  0.1783  0.2230 -0.7313
 5841SOL    HW118463   4.192   5.102   1.731 -0.1533  0.3234  1.7791
 5841SOL    HW218464   4.219   4.956   1.705 -0.5893  0.6777 -0.8941
 5842SOL     OW18465   2.152   3.094   4.503 -0.3290  0.1214  0.4445
 5842SOL    HW118466   2.172   3.085   4.596  1.8452  2.7194  0.3647
 5842SOL    HW218467   2.125   3.185   4.493  0.7822  0.2891 -1.6206
 5843SOL     OW18468   1.255   4.677   2.378 -0.0771  0.3318  0.1908
 5843SOL    HW118469   1.347   4.658   2.363 -0.3253 -0.7067 -0.1170
 5843SOL    HW218470   1.225   4.608   2.438 -0.7836  0.2808 -0.2021
 5844SOL     OW18471   1.506   5.662   4.386  0.3842 -0.7953 -0.0380
 5844SOL    HW118472   1.536   5.752   4.370 -0.6300 -0.6897 -1.5740
 5844SOL    HW218473   1.571   5.607   4.343 -0.2475 -0.6739 -1.1804
 5845SOL     OW18474   4.039   2.423   5.615 -0.1177  0.0249 -0.0170
 5845SOL    HW118475   4.089   2.491   5.661  0.6724 -0.0522 -0.7321
 5845SOL    HW218476   4.089   2.408   5.535 -0.7589 -0.7861 -0.2682
 5846SOL     OW18477   2.567   3.921   2.812  0.6598  0.3225  0.1854
 5846SOL    HW118478   2.557   3.835   2.773  1.8007 -0.3769  1.3638
 5846SOL    HW218479   2.482   3.939   2.853  1.1188 -1.3480  2.0138
 5847SOL     OW18480   3.295   6.717   2.686 -0.8752 -0.1703 -0.1103
 5847SOL    HW118481   3.289   6.643   2.625 -0.3060  0.4488 -0.9399
 5847SOL    HW218482   3.207   6.725   2.723 -0.8036 -1.6158  0.4248
 5848SOL     OW18483   6.959   2.733   6.183 -0.0804 -0.0783  0.6200
 5848SOL    HW118484   6.961   2.698   6.272  1.8046  1.5150  1.2766
 5848SOL    HW218485   7.039   2.700   6.142 -0.9262 -0.7835 -0.5008
 5849SOL     OW18486   6.249   4.871   5.509  0.3513  0.1171 -0.4677
 5849SOL    HW118487   6.319   4.846   5.448  0.4609  0.3195 -0.4253
 5849SOL    HW218488   6.295   4.907   5.585  0.2398 -0.6900 -0.0092
 5850SOL     OW18489   1.316   3.190   6.499 -0.1186 -0.1515 -0.1110
 5850SOL    HW118490   1.361   3.143   6.429 -0.6546 -0.8868  0.0293
 5850SOL    HW218491   1.324   3.282   6.474  2.0509 -0.1772  0.2709
 5851SOL     OW18492   0.857   6.580   1.256 -0.4013 -0.3822  0.4309
 5851SOL    HW118493   0.845   6.501   1.309 -1.7139 -0.8917 -0.5885
 5851SOL    HW218494   0.812   6.561   1.174  1.7764  0.2899 -1.0025
 5852SOL     OW18495   6.512   3.652   6.324 -0.0878  0.0900 -0.2887
 5852SOL    HW118496   6.470   3.570   6.349  1.1967 -0.7609 -0.8070
 5852SOL    HW218497   6.531   3.696   6.407 -0.7222 -0.1685 -0.0037
 5853SOL     OW18498   1.911   7.133   1.116  0.2210  0.2396 -0.5139
 5853SOL    HW118499   1.970   7.111   1.188  0.7644  1.6430 -0.4883
 5853SOL    HW218500   1.969   7.155   1.043 -0.3056  0.0021 -1.0136
 5854SOL     OW18501   7.111   7.165   5.812 -0.4820  0.0681 -0.2308
 5854SOL    HW118502   7.059   7.217   5.751  1.4290  1.5056 -0.7125
 5854SOL    HW218503   7.060   7.166   5.893 -0.4413  3.0084 -0.1240
 5855SOL     OW18504   2.110   6.444   4.592  0.0837 -0.1169  0.0902
 5855SOL    HW118505   2.074   6.377   4.650  2.1547 -0.5337  0.9980
 5855SOL    HW218506   2.199   6.413   4.572 -0.3104  0.3248 -2.8502
 5856SOL     OW18507   5.285   2.270   1.797 -0.1760 -0.8516  0.2002
 5856SOL    HW118508   5.262   2.193   1.849  2.3798 -1.9058 -0.0931
 5856SOL    HW218509   5.373   2.294   1.826 -0.7086  1.7443 -0.0415
 5857SOL     OW18510   3.526   5.499   1.403 -0.2167 -0.3055  0.7778
 5857SOL    HW118511   3.594   5.437   1.430  0.0492  0.1294  1.1214
 5857SOL    HW218512   3.455   5.486   1.466 -1.5907 -2.6040 -1.0807
 5858SOL     OW18513   6.117   0.579   5.801 -0.1822 -0.4739 -0.1615
 5858SOL    HW118514   6.153   0.648   5.744 -0.4348 -1.3216 -1.3759
 5858SOL    HW218515   6.194   0.540   5.842  0.0390 -0.1701 -0.2784
 5859SOL     OW18516   3.385   5.590   4.299 -0.3027 -0.3430 -0.3901
 5859SOL    HW118517   3.392   5.585   4.394 -0.9307 -1.0862 -0.3695
 5859SOL    HW218518   3.310   5.534   4.277 -0.0880 -0.2877 -1.3306
 5860SOL     OW18519   1.775   6.111   7.308  0.4478 -0.1315 -0.3539
 5860SOL    HW118520   1.792   6.065   7.226  1.3445 -2.1065  0.8600
 5860SOL    HW218521   1.768   6.041   7.373 -2.5977  1.1983  0.9294
 5861SOL     OW18522   3.521   6.788   0.632  0.1743 -0.1067 -0.1300
 5861SOL    HW118523   3.497   6.861   0.689 -1.0051  0.2402 -1.0357
 5861SOL    HW218524   3.582   6.736   0.685  0.6121  1.2301  0.7273
 5862SOL     OW18525   2.702   4.658   6.597 -0.2047  0.4881 -0.3251
 5862SOL    HW118526   2.642   4.588   6.570  0.2617  0.1726 -0.5740
 5862SOL    HW218527   2.739   4.690   6.515 -2.0393  2.5581 -0.4190
 5863SOL     OW18528   3.806   3.431   5.786  0.1815  0.2880 -0.4977
 5863SOL    HW118529   3.767   3.429   5.699 -0.2877  1.7082 -0.3456
 5863SOL    HW218530   3.801   3.523   5.813 -1.0675 -0.3286  1.6470
 5864SOL     OW18531   7.248   6.894   6.929 -0.3051 -0.3763  0.0896
 5864SOL    HW118532   7.179   6.829   6.944 -0.5150 -0.1056  0.3153
 5864SOL    HW218533   7.275   6.921   7.017  0.0287 -0.4164  0.0026
 5865SOL     OW18534   7.366   5.984   4.132 -0.2115  0.0595  0.3272
 5865SOL    HW118535   7.387   5.935   4.211 -0.6536 -0.3365  0.2072
 5865SOL    HW218536   7.280   6.022   4.149  0.3138  1.1860  0.5929
 5866SOL     OW18537   6.257   5.911   0.195  0.7626  1.0217 -0.5242
 5866SOL    HW118538   6.182   5.969   0.204 -1.5777 -1.5831 -1.4819
 5866SOL    HW218539   6.265   5.868   0.280 -2.5565 -2.5925 -1.7408
 5867SOL     OW18540   3.805   7.142   1.527  0.3512  0.6516  0.5452
 5867SOL    HW118541   3.823   7.168   1.437  0.9553 -2.9858 -0.5051
 5867SOL    HW218542   3.890   7.119   1.563 -0.0127  1.1470  1.7916
 5868SOL     OW18543   5.258   6.015   4.733  0.0655 -0.0617 -0.5984
 5868SOL    HW118544   5.245   5.927   4.768  0.7243  0.8715  2.2282
 5868SOL    HW218545   5.194   6.022   4.662  0.3710 -2.9671 -1.2838
 5869SOL     OW18546   3.289   2.512   2.942 -0.3849 -0.3297 -0.9995
 5869SOL    HW118547   3.272   2.525   2.849 -1.1681 -0.2959 -0.8577
 5869SOL    HW218548   3.251   2.589   2.984  0.0847 -0.2791 -0.6629
 5870SOL     OW18549   2.724   4.266   6.624  0.0748 -0.3276 -0.3465
 5870SOL    HW118550   2.799   4.323   6.603 -0.2819  0.3271  0.1066
 5870SOL    HW218551   2.733   4.192   6.564  1.8647 -0.9533  0.5977
 5871SOL     OW18552   6.006   6.271   0.010  0.1861  0.2812 -0.3912
 5871SOL    HW118553   5.968   6.344   0.058  0.5874  0.2763 -0.0622
 5871SOL    HW218554   6.029   6.308  -0.075  1.4588  0.8467  0.1746
 5872SOL     OW18555   2.100   4.171   4.814 -0.5028  0.3683 -0.3215
 5872SOL    HW118556   2.112   4.245   4.754  0.2555  0.0409 -0.5835
 5872SOL    HW218557   2.013   4.185   4.852 -0.3842  1.3749 -0.3912
 5873SOL     OW18558   7.047   2.360   3.083  0.5050 -0.6466 -0.2636
 5873SOL    HW118559   7.085   2.436   3.039  1.7675 -1.0027  0.1524
 5873SOL    HW218560   7.111   2.290   3.070 -0.8578 -1.8015 -1.0672
 5874SOL     OW18561   3.751   2.835   1.663 -0.3979 -0.7015  0.3016
 5874SOL    HW118562   3.689   2.836   1.736  2.0641  0.5828  2.5387
 5874SOL    HW218563   3.834   2.808   1.702  1.2458  0.9457 -1.8030
 5875SOL     OW18564   5.915   2.309   6.817  0.1507  0.0262  0.3991
 5875SOL    HW118565   5.844   2.245   6.806  0.4089 -0.6738  2.4963
 5875SOL    HW218566   5.995   2.256   6.820  0.6041  0.6658 -0.0696
 5876SOL     OW18567   0.859   0.412   2.965 -0.2553  0.1454  0.1977
 5876SOL    HW118568   0.822   0.451   2.885  0.8047  1.5230  0.3446
 5876SOL    HW218569   0.837   0.475   3.034  0.3069 -0.1985  0.6945
 5877SOL     OW18570   0.974   2.489   6.253  0.8299 -0.5162  0.5310
 5877SOL    HW118571   0.915   2.416   6.235  1.0634 -0.5655 -0.0325
 5877SOL    HW218572   0.968   2.501   6.348  1.5241 -1.8943  0.7770
 5878SOL     OW18573   3.076   5.952   3.343 -0.5612 -0.6009 -0.1302
 5878SOL    HW118574   3.065   5.877   3.284  0.7886 -0.9699  0.0649
 5878SOL    HW218575   3.159   5.936   3.388 -1.0786  0.1636  1.1697
 5879SOL     OW18576   6.987   1.659   5.155 -0.3505 -0.4247  0.3393
 5879SOL    HW118577   6.927   1.608   5.209  1.2450 -1.2230  1.4411
 5879SOL    HW218578   7.048   1.594   5.120  1.4829  0.6362  1.4455
 5880SOL     OW18579   1.223   7.101   2.166 -0.4708  0.0663 -0.3736
 5880SOL    HW118580   1.156   7.050   2.212 -2.2791  1.9508 -0.7284
 5880SOL    HW218581   1.210   7.079   2.073 -1.4169  1.2244 -0.5531
 5881SOL     OW18582   6.631   5.267   6.973 -0.3830  0.1452  0.7547
 5881SOL    HW118583   6.539   5.285   6.992 -0.4504  0.2232  0.3590
 5881SOL    HW218584   6.678   5.304   7.048 -0.6517  0.3847  0.8071
 5882SOL     OW18585   7.019   0.121   6.173  0.0739  0.3217 -0.0412
 5882SOL    HW118586   6.927   0.096   6.170  0.2895 -0.4664 -0.3508
 5882SOL    HW218587   7.021   0.209   6.135 -0.7718  1.0928  1.5850
 5883SOL     OW18588   1.178   2.324   0.137  0.4903  0.1245  0.0962
 5883SOL    HW118589   1.269   2.321   0.106  0.9140 -1.4157  1.3297
 5883SOL    HW218590   1.130   2.270   0.075  0.9285 -1.1434  0.8091
 5884SOL     OW18591   4.194   1.115   4.345 -0.5638  0.3040 -0.8914
 5884SOL    HW118592   4.223   1.194   4.299 -1.3949  2.3874  1.9077
 5884SOL    HW218593   4.098   1.119   4.341 -0.7164  1.0913  1.6522
 5885SOL     OW18594   0.125   4.477   5.466 -0.8398  0.7736  0.1636
 5885SOL    HW118595   0.071   4.416   5.417  0.1797  0.7002 -0.9262
 5885SOL    HW218596   0.132   4.554   5.409  3.0283 -0.5136 -1.4760
 5886SOL     OW18597   5.103   6.491   4.357 -0.2094  0.7042  0.8172
 5886SOL    HW118598   5.064   6.449   4.280  0.1630  0.4364  0.7725
 5886SOL    HW218599   5.046   6.466   4.430 -1.0434  1.6302  0.5167
 5887SOL     OW18600   1.010   4.658   0.278  0.4443  0.0939 -0.2322
 5887SOL    HW118601   0.922   4.680   0.247  0.4979 -0.2264 -0.6182
 5887SOL    HW218602   1.066   4.669   0.201  0.6911 -0.0235 -0.0698
 5888SOL     OW18603   6.977   1.595   0.287 -0.5927  0.0697 -0.0290
 5888SOL    HW118604   6.989   1.645   0.368 -0.0192  1.1190 -0.7464
 5888SOL    HW218605   6.927   1.653   0.230 -0.9288 -0.6349 -0.4675
 5889SOL     OW18606   5.242   1.455   2.182  0.2429  0.1002  0.1423
 5889SOL    HW118607   5.293   1.376   2.167  0.2209  0.2607 -0.8926
 5889SOL    HW218608   5.183   1.432   2.254 -0.3461 -1.1271 -0.6763
 5890SOL     OW18609   6.539   5.887   3.202 -0.5783 -0.3835 -0.5154
 5890SOL    HW118610   6.500   5.819   3.257 -0.5007  0.6159  0.8129
 5890SOL    HW218611   6.483   5.964   3.216  1.3871  0.8772  0.8799
 5891SOL     OW18612   0.627   0.905   1.707  0.8651 -0.0032  0.1563
 5891SOL    HW118613   0.646   0.993   1.741  1.2809  0.2398 -0.6709
 5891SOL    HW218614   0.539   0.886   1.738  0.7777  0.7039  0.3641
 5892SOL     OW18615   0.259   1.007   6.991  0.6437 -0.0110 -0.6107
 5892SOL    HW118616   0.275   1.073   6.923  1.0670  1.6469  1.0241
 5892SOL    HW218617   0.283   1.051   7.073  1.9835 -2.5520  0.4637
 5893SOL     OW18618   1.466   1.815   3.904  0.4159  0.5797  0.6767
 5893SOL    HW118619   1.501   1.869   3.833 -0.8367  0.4232 -0.1082
 5893SOL    HW218620   1.437   1.879   3.970  1.3030  0.7426  0.9108
 5894SOL     OW18621   2.653   4.533   4.331 -0.7156  0.1121 -0.1465
 5894SOL    HW118622   2.709   4.459   4.309 -1.5071 -0.9441  1.2947
 5894SOL    HW218623   2.623   4.516   4.420 -2.3703  1.2495 -0.4322
 5895SOL     OW18624   2.299   3.893   6.828  0.3063 -0.4436 -0.4049
 5895SOL    HW118625   2.369   3.948   6.862  0.9010 -0.6017 -1.3337
 5895SOL    HW218626   2.265   3.942   6.753 -1.1200 -0.0009  0.4964
 5896SOL     OW18627   3.023   2.852   3.623  0.2902  0.5324 -0.4013
 5896SOL    HW118628   3.091   2.789   3.645 -0.6620 -0.6456 -0.7157
 5896SOL    HW218629   3.052   2.891   3.540  1.8999  2.0638  0.8056
 5897SOL     OW18630   3.270   6.411   5.436 -0.1040 -0.0945  0.4271
 5897SOL    HW118631   3.215   6.344   5.397  1.1343 -1.2592  0.5893
 5897SOL    HW218632   3.322   6.445   5.363  1.5901 -1.6597  0.8332
 5898SOL     OW18633   6.032   3.203   6.006 -0.4697  0.1925 -0.4991
 5898SOL    HW118634   6.039   3.108   5.993 -1.4121  0.1120 -0.4469
 5898SOL    HW218635   5.974   3.233   5.936 -2.4232  0.3156  1.0771
 5899SOL     OW18636   7.337   4.950   2.838  0.1515  0.5969  0.5258
 5899SOL    HW118637   7.346   4.859   2.812  0.6678  0.9002 -0.3986
 5899SOL    HW218638   7.349   4.949   2.933 -0.2536 -0.3418  0.5708
 5900SOL     OW18639   5.148   7.177   4.656 -0.5309  0.0298 -0.0214
 5900SOL    HW118640   5.226   7.160   4.603  0.1391 -0.2327  1.0046
 5900SOL    HW218641   5.151   7.109   4.724 -0.0457  1.7302  1.7619
 5901SOL     OW18642   5.830   5.449   4.558 -0.3310 -0.3609  0.1924
 5901SOL    HW118643   5.810   5.355   4.550 -0.1595 -0.4692  0.9718
 5901SOL    HW218644   5.820   5.483   4.469  1.0749 -1.4162 -0.4157
 5902SOL     OW18645   4.390   0.543   0.885  0.2943 -0.2336 -0.1179
 5902SOL    HW118646   4.352   0.456   0.870  0.2355 -0.3909  0.8519
 5902SOL    HW218647   4.464   0.548   0.825  1.4222 -1.6949  1.0662
 5903SOL     OW18648   3.212   2.219   5.815 -0.2018 -0.5144 -0.3872
 5903SOL    HW118649   3.137   2.243   5.761 -0.2042  0.8158  0.1660
 5903SOL    HW218650   3.273   2.177   5.754 -0.2095  0.9375 -1.4357
 5904SOL     OW18651   2.817   5.127   2.846 -0.4194 -0.0263  0.0043
 5904SOL    HW118652   2.743   5.150   2.790  1.2289  0.0417 -2.3437
 5904SOL    HW218653   2.780   5.078   2.918 -2.7214 -0.0257 -1.1078
 5905SOL     OW18654   3.722   2.473   5.929  0.7446  0.2288  0.3899
 5905SOL    HW118655   3.646   2.480   5.987 -0.0984 -1.0551 -0.5035
 5905SOL    HW218656   3.687   2.487   5.841  1.0411 -2.5117 -0.2738
 5906SOL     OW18657   1.718   5.755   3.171 -0.4580 -0.3609 -0.0320
 5906SOL    HW118658   1.765   5.728   3.249  0.5444 -0.4061 -0.6355
 5906SOL    HW218659   1.785   5.762   3.103 -0.9837  1.6439 -0.4116
 5907SOL     OW18660   0.202   4.214   3.669 -0.4226 -0.0666 -0.2635
 5907SOL    HW118661   0.167   4.204   3.758 -0.2692 -0.6475 -0.2591
 5907SOL    HW218662   0.178   4.303   3.643  0.0749  0.3286  0.5940
 5908SOL     OW18663   5.838   6.415   1.813  0.4642  0.3619 -0.2144
 5908SOL    HW118664   5.748   6.437   1.790 -0.0116 -0.1197  1.0994
 5908SOL    HW218665   5.851   6.455   1.900  0.6757 -1.6103  0.7152
 5909SOL     OW18666   5.570   4.090   4.721 -0.3230 -0.4863  0.2635
 5909SOL    HW118667   5.583   4.180   4.752  0.3881 -0.7662  0.8051
 5909SOL    HW218668   5.610   4.035   4.789 -0.4325 -1.1978 -0.2348
 5910SOL     OW18669   0.353   3.930   0.198  0.5316 -0.6468  0.1061
 5910SOL    HW118670   0.295   3.998   0.164 -0.5824 -1.4282  0.3567
 5910SOL    HW218671   0.395   3.893   0.121  0.7957  0.0051 -0.0725
 5911SOL     OW18672   1.278   2.928   1.926  0.5158 -0.3557 -0.1215
 5911SOL    HW118673   1.255   2.973   1.844  1.3180  0.6307  0.1724
 5911SOL    HW218674   1.366   2.894   1.910  0.9063  0.3323  0.5109
 5912SOL     OW18675   4.646   1.383   3.128  0.3502  0.2116  0.5170
 5912SOL    HW118676   4.592   1.351   3.200 -0.1594 -0.4773 -0.1578
 5912SOL    HW218677   4.644   1.478   3.137  1.0067  0.1188  1.9142
 5913SOL     OW18678   5.641   7.322   4.979 -0.3948  0.1871 -0.4314
 5913SOL    HW118679   5.585   7.399   4.996  1.0051  1.1660 -0.1015
 5913SOL    HW218680   5.712   7.356   4.924  0.4830 -0.7792  0.0815
 5914SOL     OW18681   2.135   4.182   0.950 -0.0241 -0.3623 -0.2499
 5914SOL    HW118682   2.197   4.238   0.998  0.3972 -1.1129  0.0984
 5914SOL    HW218683   2.086   4.243   0.895  0.2214  0.3916  0.3384
 5915SOL     OW18684   6.660   2.553   1.563  0.0242  0.5881  0.7076
 5915SOL    HW118685   6.673   2.629   1.619  0.4401  0.6422  0.5402
 5915SOL    HW218686   6.662   2.478   1.624  0.8006  0.6210  0.7327
 5916SOL     OW18687   3.686   5.879   0.648 -0.1080 -0.8032  0.4659
 5916SOL    HW118688   3.772   5.844   0.626 -0.3186  0.2806 -2.5539
 5916SOL    HW218689   3.626   5.806   0.632 -0.0365 -0.6466 -0.5624
 5917SOL     OW18690   4.634   5.785   0.864 -0.1133 -0.4083 -0.3173
 5917SOL    HW118691   4.600   5.840   0.934  0.6865 -0.5738  0.2202
 5917SOL    HW218692   4.658   5.846   0.794 -0.1868 -0.1710 -0.1333
 5918SOL     OW18693   4.976   7.114   3.785 -0.3669 -1.0571 -0.1373
 5918SOL    HW118694   4.897   7.091   3.736 -1.2240 -1.0905  1.2038
 5918SOL    HW218695   4.948   7.116   3.877  0.7106  0.8844  0.2218
 5919SOL     OW18696   3.753   5.433   6.670  0.3112 -0.9602  0.2828
 5919SOL    HW118697   3.683   5.375   6.700  0.6454 -0.5353  1.9835
 5919SOL    HW218698   3.754   5.504   6.733  1.2600 -0.1483 -0.6098
 5920SOL     OW18699   0.472   4.312   3.606  0.1777 -0.6539  0.7922
 5920SOL    HW118700   0.486   4.378   3.673  0.8760 -0.4232  0.4299
 5920SOL    HW218701   0.400   4.259   3.639 -0.1805  0.0937  1.2338
 5921SOL     OW18702   5.858   0.453   5.840  0.2608  0.6063 -0.0730
 5921SOL    HW118703   5.764   0.471   5.830 -0.0439 -0.8209  0.0381
 5921SOL    HW218704   5.894   0.465   5.752 -0.2878 -0.2532 -0.4246
 5922SOL     OW18705   4.484   4.942   4.993 -0.0469  0.7116 -0.2588
 5922SOL    HW118706   4.558   4.907   5.042  0.0773  0.4419 -0.6365
 5922SOL    HW218707   4.410   4.935   5.054 -0.1590 -0.8005 -0.5118
 5923SOL     OW18708   3.229   6.261   7.393 -0.8696 -0.4042  0.4679
 5923SOL    HW118709   3.157   6.317   7.364 -0.7702 -0.2808  0.4617
 5923SOL    HW218710   3.306   6.295   7.348 -1.1388 -1.8210 -1.1924
 5924SOL     OW18711   1.548   3.199   4.058  0.3158  0.1160 -0.0274
 5924SOL    HW118712   1.613   3.128   4.059  0.1659 -0.0231 -0.1104
 5924SOL    HW218713   1.566   3.249   4.137  1.3229  0.8063 -0.6731
 5925SOL     OW18714   5.969   2.451   1.908  0.6229  0.1262  0.5826
 5925SOL    HW118715   5.971   2.547   1.915  0.8302  0.1007  0.8681
 5925SOL    HW218716   5.876   2.429   1.912  0.5740  0.3145  0.5135
 5926SOL     OW18717   2.643   2.395   2.621  0.5980  0.7730 -0.1404
 5926SOL    HW118718   2.569   2.445   2.588  0.3805 -0.9183 -2.4342
 5926SOL    HW218719   2.622   2.304   2.601  1.8261 -0.1079  2.1795
 5927SOL     OW18720   2.572   2.649   7.099 -0.5831  0.1398 -0.0642
 5927SOL    HW118721   2.575   2.649   7.003 -1.1755 -1.0502 -0.1101
 5927SOL    HW218722   2.663   2.659   7.126 -0.3729  0.1802 -0.7611
 5928SOL     OW18723   4.188   6.377   2.155  0.2156  0.0878  0.0411
 5928SOL    HW118724   4.225   6.318   2.221 -0.2099  0.7330  0.8713
 5928SOL    HW218725   4.168   6.457   2.203 -1.7467 -0.0404 -0.4777
 5929SOL     OW18726   3.812   4.047   2.836  0.2908  0.2690  0.0996
 5929SOL    HW118727   3.902   4.077   2.845  0.7522 -0.7074 -1.0478
 5929SOL    HW218728   3.819   3.962   2.793 -1.1700  0.1037  0.1413
 5930SOL     OW18729   4.606   3.568   2.160 -0.5680  0.2214 -0.0820
 5930SOL    HW118730   4.655   3.639   2.119 -0.2056  0.6289  1.0229
 5930SOL    HW218731   4.653   3.488   2.133  1.8076  0.6759  2.2421
 5931SOL     OW18732   4.373   3.306   2.434  0.2095  0.7475 -0.4190
 5931SOL    HW118733   4.428   3.383   2.441 -2.2059  2.4807  0.8217
 5931SOL    HW218734   4.287   3.334   2.466 -1.4337 -1.7887 -2.1726
 5932SOL     OW18735   4.378   4.273   5.694  0.3365  0.4147  0.5853
 5932SOL    HW118736   4.338   4.302   5.612 -2.1471 -0.8609  1.2383
 5932SOL    HW218737   4.425   4.349   5.727 -0.6933  1.7064 -0.8128
 5933SOL     OW18738   4.349   5.049   2.055 -0.3075 -0.1945 -0.2626
 5933SOL    HW118739   4.321   5.071   1.966  0.2894  0.4662 -0.2930
 5933SOL    HW218740   4.292   4.976   2.080 -1.6034  0.6706 -0.5709
 5934SOL     OW18741   3.808   6.208   5.842  0.2534 -0.4277  0.2601
 5934SOL    HW118742   3.782   6.155   5.766  0.4096 -1.3143  0.8134
 5934SOL    HW218743   3.904   6.208   5.839  0.2511  0.2856 -0.0389
 5935SOL     OW18744   3.871   6.968   3.282  0.3010  0.2637 -0.0936
 5935SOL    HW118745   3.921   6.887   3.268 -0.9619 -0.6440  0.3760
 5935SOL    HW218746   3.936   7.038   3.280  1.3800 -0.7243 -0.9072
 5936SOL     OW18747   3.043   1.227   0.224 -0.9221 -0.2071 -0.1707
 5936SOL    HW118748   3.061   1.238   0.131 -1.3843 -0.9079 -0.3443
 5936SOL    HW218749   2.984   1.299   0.246 -0.8749 -0.0897 -0.4308
 5937SOL     OW18750   5.813   3.024   3.545  0.2365 -0.3508  0.1015
 5937SOL    HW118751   5.792   2.939   3.506  1.5939  0.0609 -1.6644
 5937SOL    HW218752   5.907   3.019   3.562  0.1490  0.4697  0.8985
 5938SOL     OW18753   4.316   7.071   0.548 -0.2468 -0.1159 -0.3836
 5938SOL    HW118754   4.246   7.054   0.485 -2.8716  1.2504  1.9713
 5938SOL    HW218755   4.303   7.006   0.617  1.6403 -0.6243 -0.4391
 5939SOL     OW18756   2.119   1.862   2.902 -0.3612  0.0840  0.4153
 5939SOL    HW118757   2.064   1.785   2.918  0.2082 -0.8526 -1.7896
 5939SOL    HW218758   2.207   1.826   2.887 -0.1998  1.0973 -1.2461
 5940SOL     OW18759   6.769   0.770   3.203 -0.2114 -0.1280 -0.2779
 5940SOL    HW118760   6.781   0.779   3.297 -0.6697  2.8749 -0.4010
 5940SOL    HW218761   6.844   0.718   3.174  1.9267  1.7714  1.3776
 5941SOL     OW18762   5.204   2.770   5.559  0.4782 -0.0499  0.4232
 5941SOL    HW118763   5.272   2.751   5.494  0.0853 -0.0450  0.0068
 5941SOL    HW218764   5.218   2.706   5.629  0.5888 -0.3785  0.0985
 5942SOL     OW18765   1.980   1.570   6.748 -0.3398  0.2002  0.2780
 5942SOL    HW118766   2.000   1.581   6.841  0.6686 -1.0744  0.2543
 5942SOL    HW218767   1.894   1.529   6.746 -1.3881  2.2620  0.5358
 5943SOL     OW18768   0.224   7.384   4.210 -0.1015 -0.0001 -0.5871
 5943SOL    HW118769   0.283   7.404   4.137  1.6509 -0.0755  0.7421
 5943SOL    HW218770   0.138   7.372   4.169  0.9605 -0.8255 -2.7124
 5944SOL     OW18771   2.844   7.187   6.278  0.2428  0.0272  0.0516
 5944SOL    HW118772   2.870   7.101   6.245 -0.5334  0.1924 -1.0347
 5944SOL    HW218773   2.749   7.188   6.271  0.3266  1.7284 -2.0234
 5945SOL     OW18774   4.220   5.437   4.467 -0.2351 -0.4123  0.1574
 5945SOL    HW118775   4.275   5.451   4.391  1.9381  0.5718  1.7903
 5945SOL    HW218776   4.212   5.523   4.508 -0.9453 -0.9926  1.3041
 5946SOL     OW18777   0.645   7.398   4.216 -0.1905 -0.1263  0.2026
 5946SOL    HW118778   0.687   7.430   4.136  1.4361 -1.1576  0.6065
 5946SOL    HW218779   0.614   7.478   4.259 -1.1236  0.4443 -1.4415
 5947SOL     OW18780   1.185   3.837   3.899  0.1257  0.3784  0.1384
 5947SOL    HW118781   1.110   3.891   3.874 -1.4934 -1.5232  0.6976
 5947SOL    HW218782   1.174   3.820   3.992  1.2423  0.0215  0.2281
 5948SOL     OW18783   6.927   3.403   4.749  0.2692 -0.4043 -0.1601
 5948SOL    HW118784   6.991   3.460   4.706 -0.1450 -0.2026 -0.5233
 5948SOL    HW218785   6.890   3.351   4.678  0.3920 -0.8756  0.1218
 5949SOL     OW18786   4.110   4.739   0.332  0.5305 -0.6498 -0.1847
 5949SOL    HW118787   4.041   4.778   0.386  1.7262 -1.5216  2.1100
 5949SOL    HW218788   4.138   4.662   0.381  1.9183 -1.3319 -1.9407
 5950SOL     OW18789   6.689   4.997   5.767  0.0131  0.7048 -0.2225
 5950SOL    HW118790   6.705   4.905   5.748  0.4776  0.5698  0.7325
 5950SOL    HW218791   6.669   4.999   5.861 -3.6160  1.1436 -0.8507
 5951SOL     OW18792   1.809   0.326   1.640 -0.0890  0.4824 -0.3113
 5951SOL    HW118793   1.864   0.285   1.574  0.9441  1.8073 -0.3089
 5951SOL    HW218794   1.758   0.392   1.592 -1.1344 -0.2192 -0.1854
 5952SOL     OW18795   6.997   2.918   4.443  0.3782 -0.0061 -0.0558
 5952SOL    HW118796   7.078   2.872   4.460 -0.6015 -1.1991  1.6742
 5952SOL    HW218797   6.960   2.935   4.530 -1.3391  0.2634 -0.7930
 5953SOL     OW18798   2.494   2.847   0.209  0.0033 -0.1011 -0.2456
 5953SOL    HW118799   2.538   2.870   0.291  2.4502 -1.7291 -0.9698
 5953SOL    HW218800   2.523   2.914   0.147  1.8821 -1.3322 -0.7942
 5954SOL     OW18801   6.117   2.864   0.425 -0.7412 -0.0812  0.2809
 5954SOL    HW118802   6.143   2.870   0.517  1.5687 -1.1507 -0.2270
 5954SOL    HW218803   6.161   2.938   0.383  0.6426 -1.2416 -0.4065
 5955SOL     OW18804   3.215   5.879   1.684 -0.3283 -0.0373  0.6947
 5955SOL    HW118805   3.248   5.919   1.765 -1.0182  2.2649 -0.0863
 5955SOL    HW218806   3.134   5.925   1.666 -0.7743 -1.2956 -0.7463
 5956SOL     OW18807   5.863   3.363   2.570 -0.1575 -0.2881  0.4286
 5956SOL    HW118808   5.780   3.318   2.582 -0.5775 -0.1003 -1.5126
 5956SOL    HW218809   5.929   3.300   2.598 -0.9163 -0.4042  2.0897
 5957SOL     OW18810   2.050   3.022   6.662  0.0117 -0.1924 -0.1537
 5957SOL    HW118811   2.020   2.980   6.742  0.8599  0.2791  0.4341
 5957SOL    HW218812   1.984   3.088   6.643 -1.1742 -1.5337 -0.9172
 5958SOL     OW18813   4.738   6.434   3.917  0.2754  0.3316  0.6295
 5958SOL    HW118814   4.739   6.416   4.011  1.4492  1.0494  0.7773
 5958SOL    HW218815   4.792   6.512   3.906 -0.6726  0.8673 -0.5396
 5959SOL     OW18816   0.350   7.079   2.773 -0.2967  0.0950  0.5353
 5959SOL    HW118817   0.313   7.166   2.761 -2.2939 -0.5743  1.4280
 5959SOL    HW218818   0.444   7.094   2.785 -0.6600  2.1611  1.1061
 5960SOL     OW18819   5.904   6.763   3.969 -0.1500  0.0886  0.3109
 5960SOL    HW118820   5.891   6.774   3.875  0.5367 -0.1766  0.1805
 5960SOL    HW218821   5.848   6.830   4.009 -0.6847  0.0015 -0.2714
 5961SOL     OW18822   5.009   2.304   2.566 -0.2754 -0.3895 -0.9217
 5961SOL    HW118823   4.952   2.366   2.612 -2.2543 -2.2681 -0.6706
 5961SOL    HW218824   5.028   2.346   2.482  1.7827  2.2469  0.7046
 5962SOL     OW18825   1.872   0.109   0.981  0.5729  0.4044 -0.0927
 5962SOL    HW118826   1.822   0.143   1.055 -0.0541  1.3476 -0.9293
 5962SOL    HW218827   1.944   0.172   0.970 -0.1589  1.0801 -1.1712
 5963SOL     OW18828   0.766   0.114   5.272  0.2718 -0.2584  0.5241
 5963SOL    HW118829   0.858   0.095   5.251  0.5925  0.4726  1.2032
 5963SOL    HW218830   0.719   0.093   5.191  1.3023  1.2301 -0.5290
 5964SOL     OW18831   2.847   7.129   1.046 -0.3879  0.4487 -0.3782
 5964SOL    HW118832   2.886   7.077   0.976  0.4263 -1.0069  1.0664
 5964SOL    HW218833   2.866   7.220   1.022  0.6671 -0.0512 -1.5740
 5965SOL     OW18834   6.614   2.415   2.190 -0.4400 -0.8405  0.2161
 5965SOL    HW118835   6.638   2.507   2.177 -1.9007 -0.2869  1.0901
 5965SOL    HW218836   6.688   2.366   2.157  0.1708  0.6447 -0.7576
 5966SOL     OW18837   7.069   1.551   2.268 -0.6641  0.0161  0.4093
 5966SOL    HW118838   7.003   1.504   2.217 -1.6880 -0.2165  1.8863
 5966SOL    HW218839   7.026   1.569   2.352  1.0200  0.2189  1.2641
 5967SOL     OW18840   4.134   1.410   6.730  0.6442 -0.7176  0.3719
 5967SOL    HW118841   4.219   1.367   6.738  1.4752  0.6236 -0.7469
 5967SOL    HW218842   4.099   1.410   6.819  1.4967 -1.8962  0.7343
 5968SOL     OW18843   6.150   1.660   3.065  0.4925  0.1156  0.0907
 5968SOL    HW118844   6.240   1.662   3.035  0.7479 -1.1271  0.7213
 5968SOL    HW218845   6.104   1.606   3.000  0.3684  0.0647  0.2203
 5969SOL     OW18846   2.433   5.650   3.488  0.4622  0.2190  0.5413
 5969SOL    HW118847   2.442   5.561   3.525 -0.7852 -0.7344 -1.2935
 5969SOL    HW218848   2.435   5.637   3.394 -1.6515  1.8849  0.1826
 5970SOL     OW18849   4.793   5.347   2.318 -0.3153 -0.1352 -0.0623
 5970SOL    HW118850   4.771   5.268   2.270  0.3354 -0.8523  0.7796
 5970SOL    HW218851   4.846   5.316   2.392 -0.4265  1.0372  0.5295
 5971SOL     OW18852   3.092   7.222   5.551  0.1049 -0.1102 -0.0721
 5971SOL    HW118853   3.130   7.256   5.470 -0.5439  0.2803 -0.2154
 5971SOL    HW218854   3.146   7.260   5.620  0.4081 -0.1180 -0.3015
 5972SOL     OW18855   1.628   3.615   2.210  0.1669 -0.1324 -0.4567
 5972SOL    HW118856   1.540   3.576   2.216 -0.2286  0.7711 -0.3043
 5972SOL    HW218857   1.683   3.543   2.178 -0.5096 -0.8772  0.0102
 5973SOL     OW18858   5.050   6.145   1.782  0.0939  0.3262  0.0258
 5973SOL    HW118859   4.960   6.136   1.750  0.5094  0.0871 -1.1210
 5973SOL    HW218860   5.066   6.064   1.831 -0.2600  0.3001  0.1020
 5974SOL     OW18861   6.285   3.108   5.426  0.4409 -0.3317 -0.4932
 5974SOL    HW118862   6.377   3.086   5.411  1.1042  1.0892  1.2192
 5974SOL    HW218863   6.257   3.050   5.496 -0.5931 -2.0725 -2.2370
 5975SOL     OW18864   3.453   0.787   5.216 -0.3149 -0.5706 -0.2738
 5975SOL    HW118865   3.390   0.717   5.199 -2.1023  1.2935 -1.9320
 5975SOL    HW218866   3.478   0.818   5.129  1.8629 -0.3112  0.3912
 5976SOL     OW18867   3.974   5.758   1.469  0.0925  0.1706 -0.3066
 5976SOL    HW118868   4.004   5.683   1.417 -1.5595 -1.6110  1.1448
 5976SOL    HW218869   3.884   5.736   1.493  0.1560  1.7938  1.6788
 5977SOL     OW18870   2.968   6.779   1.564  0.3580 -0.6115 -0.1521
 5977SOL    HW118871   3.047   6.801   1.615  0.6168 -0.4320 -0.6296
 5977SOL    HW218872   3.001   6.732   1.488  0.1828  1.0877 -1.3281
 5978SOL     OW18873   7.250   4.825   4.969  0.1950 -0.5672  0.0231
 5978SOL    HW118874   7.281   4.903   4.923 -0.3266 -0.6911 -0.5624
 5978SOL    HW218875   7.328   4.770   4.978  0.3207 -0.5177 -0.6879
 5979SOL     OW18876   0.510   0.677   4.233  0.5182 -0.0354 -0.5080
 5979SOL    HW118877   0.583   0.735   4.216 -1.3309  2.4677 -0.4909
 5979SOL    HW218878   0.446   0.699   4.165  0.4226 -3.4746 -1.7239
 5980SOL     OW18879   5.881   0.898   1.418  0.1685 -0.0094 -0.4029
 5980SOL    HW118880   5.928   0.839   1.477  0.3028 -1.3333 -1.7692
 5980SOL    HW218881   5.949   0.957   1.384  0.5089 -0.7074 -0.9462
 5981SOL     OW18882   4.183   7.068   6.094  0.0038 -0.3331  0.0923
 5981SOL    HW118883   4.262   7.104   6.134 -0.4495  0.2842  0.4560
 5981SOL    HW218884   4.210   6.984   6.058  1.1647  0.4945 -1.0282
 5982SOL     OW18885   1.828   4.884   0.501 -0.2109  0.6575 -0.3669
 5982SOL    HW118886   1.896   4.832   0.544 -1.1000 -1.0746 -0.9939
 5982SOL    HW218887   1.763   4.900   0.570 -0.8563 -0.7427 -0.6168
 5983SOL     OW18888   3.999   5.601   5.955 -0.4056 -0.8439 -0.1580
 5983SOL    HW118889   4.077   5.644   5.989 -3.0653  2.3092  2.6663
 5983SOL    HW218890   3.996   5.517   6.001  1.0350 -0.8037  0.0492
 5984SOL     OW18891   5.426   5.116   5.066 -0.0563 -0.1107  0.2079
 5984SOL    HW118892   5.405   5.023   5.057  0.3750 -0.2859  0.9131
 5984SOL    HW218893   5.349   5.154   5.109 -0.6629  0.0663 -0.9973
 5985SOL     OW18894   2.386   2.062   3.710  0.5067 -0.8055 -0.1054
 5985SOL    HW118895   2.389   1.975   3.672 -0.9895 -0.3624 -1.3225
 5985SOL    HW218896   2.301   2.097   3.684  1.4215  1.3543 -0.4145
 5986SOL     OW18897   2.845   1.395   4.818 -0.0338  0.5635  0.3520
 5986SOL    HW118898   2.825   1.407   4.911  1.5190  0.5902  0.7081
 5986SOL    HW218899   2.873   1.482   4.788  1.2471  0.1683  0.3435
 5987SOL     OW18900   0.939   7.070   2.529  0.1143 -0.0287  0.3339
 5987SOL    HW118901   0.905   7.160   2.525 -0.1592 -0.1810 -2.2805
 5987SOL    HW218902   1.024   7.078   2.573  0.4716  1.6492 -0.5869
 5988SOL     OW18903   4.923   4.118   7.238  0.7571  0.5373  0.0684
 5988SOL    HW118904   4.996   4.145   7.294  1.1934  1.5137 -0.9357
 5988SOL    HW218905   4.958   4.047   7.184  0.5886  0.1813  0.4177
 5989SOL     OW18906   2.420   7.324   3.307  0.5391  0.1774  0.1305
 5989SOL    HW118907   2.462   7.279   3.235 -0.3563 -2.1863  0.9874
 5989SOL    HW218908   2.404   7.413   3.275 -0.0281 -0.8456 -2.6401
 5990SOL     OW18909   2.629   0.496   1.863 -0.2925 -0.0714  0.1262
 5990SOL    HW118910   2.579   0.417   1.842 -0.5795 -0.5042  2.2135
 5990SOL    HW218911   2.598   0.521   1.950 -1.4679  3.3634 -1.1172
 5991SOL     OW18912   7.310   1.768   6.475 -0.1342  0.2402  0.0821
 5991SOL    HW118913   7.322   1.785   6.568 -0.3224 -0.3995  0.2320
 5991SOL    HW218914   7.398   1.762   6.440  0.0060 -1.7459  0.6593
 5992SOL     OW18915   5.066   6.852   5.350 -0.2011  0.2975  0.7554
 5992SOL    HW118916   5.000   6.900   5.299 -0.6049 -1.3485 -0.3359
 5992SOL    HW218917   5.018   6.779   5.389  0.6111  0.1652  1.5382
 5993SOL     OW18918   7.205   0.173   3.062  0.0500 -0.0365  0.6981
 5993SOL    HW118919   7.206   0.214   3.149 -1.5254  1.0446  0.2598
 5993SOL    HW218920   7.194   0.246   3.002 -0.7914 -0.9176 -0.2661
 5994SOL     OW18921   1.159   1.749   1.932 -0.3360 -0.1793  0.3780
 5994SOL    HW118922   1.196   1.728   2.017 -1.8407  2.0543  1.7067
 5994SOL    HW218923   1.176   1.843   1.920 -1.4741 -0.1072 -1.0759
 5995SOL     OW18924   4.947   6.954   0.434  0.5618 -0.0899  0.3530
 5995SOL    HW118925   4.968   6.987   0.347  1.4124  1.2045  1.0184
 5995SOL    HW218926   4.869   7.003   0.460 -0.1183 -0.9859  0.0554
 5996SOL     OW18927   6.233   3.109   2.089 -0.3007 -0.3802  0.2254
 5996SOL    HW118928   6.176   3.181   2.115 -0.1031  0.4644 -1.5340
 5996SOL    HW218929   6.321   3.144   2.097 -0.2490  0.5120 -2.9248
 5997SOL     OW18930   3.822   1.777   6.237 -0.3129  0.1437  0.0416
 5997SOL    HW118931   3.831   1.682   6.244  3.4137  0.3300 -0.0355
 5997SOL    HW218932   3.873   1.811   6.310 -0.2064  2.0890 -0.8756
 5998SOL     OW18933   0.093   0.386   2.765  0.5608  0.3565 -0.1372
 5998SOL    HW118934   0.170   0.443   2.762  0.5308  0.3947 -0.1888
 5998SOL    HW218935   0.037   0.424   2.832  0.2439  0.7665 -0.6362
 5999SOL     OW18936   4.324   4.915   6.708 -0.4245  0.0411  0.2849
 5999SOL    HW118937   4.283   5.001   6.705  0.9983  0.7533  0.2905
 5999SOL    HW218938   4.398   4.921   6.648  0.3015 -0.8294  1.0478
 6000SOL     OW18939   4.935   3.077   4.000  0.1017 -0.1851  0.6471
 6000SOL    HW118940   5.021   3.117   3.989  0.8241 -1.4635  1.4394
 6000SOL    HW218941   4.891   3.133   4.065  0.7772 -0.1740  1.1044
 6001SOL     OW18942   5.328   6.913   6.737 -0.6546  0.0762 -0.1806
 6001SOL    HW118943   5.293   6.891   6.823  0.2411 -0.5161  0.0529
 6001SOL    HW218944   5.361   6.830   6.703  2.2736  0.8281  0.4599
 6002SOL     OW18945   3.421   1.603   3.659  0.0363  0.3353  0.1356
 6002SOL    HW118946   3.408   1.644   3.574  0.2506 -0.3200 -0.2187
 6002SOL    HW218947   3.471   1.524   3.641  1.2215  0.8471  1.0172
 6003SOL     OW18948   4.918   0.826   2.824  0.0596 -0.8103 -0.4079
 6003SOL    HW118949   4.886   0.908   2.787  0.7726 -0.1410  0.4178
 6003SOL    HW218950   4.912   0.839   2.919  0.2126 -1.7037 -0.2670
 6004SOL     OW18951   3.843   6.429   4.881 -0.0934  1.1068 -0.1561
 6004SOL    HW118952   3.830   6.343   4.920 -2.6089  1.7998  0.7381
 6004SOL    HW218953   3.935   6.448   4.895  0.0042 -0.4628  1.7435
 6005SOL     OW18954   2.738   4.466   1.909  0.1369 -0.5502  0.3680
 6005SOL    HW118955   2.715   4.450   1.817 -2.2501 -1.3747  1.0283
 6005SOL    HW218956   2.822   4.422   1.920  1.7889  1.7616 -2.0056
 6006SOL     OW18957   5.549   7.051   1.637  0.2250  0.3397 -0.0964
 6006SOL    HW118958   5.555   7.015   1.725 -0.2818  1.0693  0.2381
 6006SOL    HW218959   5.508   7.136   1.648  1.7168  1.2069 -0.8286
 6007SOL     OW18960   4.277   3.259   6.324 -0.2985 -0.0235  0.1414
 6007SOL    HW118961   4.223   3.295   6.254  1.0017  2.0691  0.1371
 6007SOL    HW218962   4.235   3.176   6.347 -3.2609  1.2884 -0.1349
 6008SOL     OW18963   0.898   1.875   1.417  0.1563 -0.2088 -0.2060
 6008SOL    HW118964   0.885   1.794   1.369  0.5867 -0.3665 -0.0575
 6008SOL    HW218965   0.906   1.848   1.508 -0.4328  0.0681 -0.0666
 6009SOL     OW18966   3.548   1.372   3.471  0.0129 -0.2479 -0.2089
 6009SOL    HW118967   3.587   1.295   3.431  0.3690  0.6503 -1.6954
 6009SOL    HW218968   3.607   1.444   3.447 -1.3628  0.7998 -0.5905
 6010SOL     OW18969   1.561   7.156   7.341 -0.5896  0.5917 -0.3779
 6010SOL    HW118970   1.556   7.129   7.432 -0.4271  0.5578 -0.3794
 6010SOL    HW218971   1.471   7.178   7.317 -0.4237  2.0565  0.2243
 6011SOL     OW18972   4.352   2.717   5.919 -0.5312 -0.3396  0.9010
 6011SOL    HW118973   4.362   2.664   5.840 -0.0424  1.1473 -0.0716
 6011SOL    HW218974   4.312   2.657   5.983 -3.1295 -0.9798 -1.1332
 6012SOL     OW18975   5.467   1.177   6.618  0.7982  0.8898  0.4998
 6012SOL    HW118976   5.520   1.141   6.690 -0.7382 -0.8368  0.8460
 6012SOL    HW218977   5.506   1.141   6.539  0.2136 -0.3666  0.7542
 6013SOL     OW18978   3.935   2.552   7.012  0.1898 -0.0408  0.3224
 6013SOL    HW118979   3.868   2.573   6.947  0.6954 -1.4952 -0.7201
 6013SOL    HW218980   4.005   2.510   6.962  0.6170 -1.1939  1.7947
 6014SOL     OW18981   1.750   5.829   2.542  0.0834  0.4411 -0.6579
 6014SOL    HW118982   1.802   5.870   2.473  0.1321  2.1180  0.3237
 6014SOL    HW218983   1.793   5.855   2.623 -1.1640  0.2200  0.0937
 6015SOL     OW18984   6.002   5.462   4.305  0.4379 -0.5245  0.6146
 6015SOL    HW118985   5.923   5.491   4.258  0.4803  0.1719  0.9595
 6015SOL    HW218986   6.033   5.387   4.255 -0.2964 -0.6427  0.3212
 6016SOL     OW18987   4.078   6.753   3.192 -0.1933  0.2813  0.4501
 6016SOL    HW118988   4.128   6.746   3.110  1.6885  1.2587  1.4689
 6016SOL    HW218989   4.054   6.663   3.213  0.7553 -0.1643 -0.3093
 6017SOL     OW18990   1.172   1.392   1.000 -0.4671 -0.6871  0.3602
 6017SOL    HW118991   1.215   1.341   0.932 -0.6704  0.9988 -1.1148
 6017SOL    HW218992   1.195   1.347   1.081  0.1939 -2.4943 -0.7492
 6018SOL     OW18993   0.715   0.105   2.623 -0.1218  0.8213  0.0153
 6018SOL    HW118994   0.734   0.146   2.539 -1.8962  1.2424 -0.2218
 6018SOL    HW218995   0.620   0.092   2.623  0.2422 -2.9481  0.2568
 6019SOL     OW18996   5.474   6.574   3.413  0.2034 -0.0292  0.0074
 6019SOL    HW118997   5.461   6.630   3.337  2.4864  1.1252  0.3868
 6019SOL    HW218998   5.562   6.596   3.444 -0.6168 -0.5364  2.9309
 6020SOL     OW18999   4.320   2.836   1.439 -0.2393 -0.0020 -0.5583
 6020SOL    HW119000   4.239   2.815   1.392 -0.5391  0.1264 -0.1101
 6020SOL    HW219001   4.383   2.859   1.371 -0.6500  0.1287 -0.8944
 6021SOL     OW19002   4.601   5.066   1.452 -0.0659 -0.1676 -0.3733
 6021SOL    HW119003   4.532   5.132   1.450  0.4346  0.3846  0.1447
 6021SOL    HW219004   4.674   5.110   1.496  0.6694 -0.6880 -1.0617
 6022SOL     OW19005   6.262   2.494   1.760  0.6003  0.0809 -0.5112
 6022SOL    HW119006   6.173   2.499   1.796  0.8165 -0.9114  0.1872
 6022SOL    HW219007   6.292   2.585   1.758  0.1198  0.2815  0.6857
 6023SOL     OW19008   3.964   5.077   6.468 -0.1905  0.5619 -0.1856
 6023SOL    HW119009   3.969   5.108   6.558  0.3383 -0.3656  0.1168
 6023SOL    HW219010   4.031   5.009   6.462 -0.6245  0.1967 -1.1104
 6024SOL     OW19011   2.014   3.989   3.012 -0.1372  0.0099  0.1083
 6024SOL    HW119012   2.031   3.920   2.948 -0.2865 -0.3034  0.3999
 6024SOL    HW219013   2.073   4.060   2.987  1.0322 -0.7441  0.6128
 6025SOL     OW19014   4.208   6.205   1.906 -0.1873  0.5861  0.5010
 6025SOL    HW119015   4.286   6.152   1.919  0.6182  0.8483 -2.5355
 6025SOL    HW219016   4.223   6.283   1.960  0.7831 -0.1536  1.3398
 6026SOL     OW19017   2.983   5.526   6.351  0.5938 -0.0210  0.3028
 6026SOL    HW119018   2.992   5.602   6.409 -0.4698  0.5605 -0.2517
 6026SOL    HW219019   3.055   5.534   6.289  2.7384 -1.5323  2.4404
 6027SOL     OW19020   2.577   0.047   6.155 -0.2716 -0.1213 -0.2246
 6027SOL    HW119021   2.594   0.063   6.247 -1.5696 -1.3408  0.2515
 6027SOL    HW219022   2.618   0.122   6.110  0.4032  0.4681  1.3082
 6028SOL     OW19023   4.330   2.082   5.813  0.3516 -0.0458 -0.8192
 6028SOL    HW119024   4.315   2.082   5.718  2.7454  0.3747 -1.2490
 6028SOL    HW219025   4.301   2.169   5.841 -0.9064 -0.3722 -1.0341
 6029SOL     OW19026   6.146   5.256   3.518  0.0612  0.0515  0.2595
 6029SOL    HW119027   6.155   5.256   3.423 -0.1103  0.6426  0.2338
 6029SOL    HW219028   6.122   5.166   3.541  0.4318 -0.1718 -0.2194
 6030SOL     OW19029   6.549   3.709   3.807 -0.4775  0.3346 -0.3130
 6030SOL    HW119030   6.549   3.759   3.889  1.8156  2.1905 -1.3178
 6030SOL    HW219031   6.456   3.696   3.788 -1.1798  2.7055  0.9671
 6031SOL     OW19032   0.954   6.564   3.673  0.3699 -0.4113 -0.7097
 6031SOL    HW119033   0.981   6.473   3.662  0.8264 -0.3137 -0.4177
 6031SOL    HW219034   1.034   6.615   3.660  0.2807 -0.1004 -0.0677
 6032SOL     OW19035   2.101   0.392   2.100 -0.9116 -0.1782 -0.4671
 6032SOL    HW119036   2.058   0.322   2.052 -0.2767 -0.9105  0.0158
 6032SOL    HW219037   2.082   0.373   2.192 -1.8403  1.0239 -0.3726
 6033SOL     OW19038   0.225   3.422   1.490  0.2538 -0.4304  0.4078
 6033SOL    HW119039   0.247   3.438   1.582 -0.3551 -1.8882  0.8437
 6033SOL    HW219040   0.168   3.494   1.466 -0.5086 -0.6265  1.5474
 6034SOL     OW19041   3.269   3.889   2.651 -0.0036  0.1821  0.5215
 6034SOL    HW119042   3.197   3.903   2.590 -0.3689 -1.0096  0.6515
 6034SOL    HW219043   3.294   3.976   2.680 -0.2501  0.7246 -0.8381
 6035SOL     OW19044   5.970   4.632   7.004 -0.0476  0.4070 -0.2322
 6035SOL    HW119045   6.026   4.709   6.993 -0.4528  0.7883  0.3292
 6035SOL    HW219046   6.030   4.558   7.010  0.3219  0.2984 -3.4260
 6036SOL     OW19047   1.851   4.388   7.036  0.3168  0.9590 -0.2981
 6036SOL    HW119048   1.845   4.483   7.026  0.2528  1.2769  2.1657
 6036SOL    HW219049   1.860   4.374   7.130 -0.8988 -1.5564 -0.4721
 6037SOL     OW19050   4.025   4.935   5.413  0.1696  0.0214 -0.1074
 6037SOL    HW119051   4.037   4.931   5.508 -0.6263 -0.6388 -0.0288
 6037SOL    HW219052   4.053   5.024   5.389 -0.6947  0.5935  0.9061
 6038SOL     OW19053   0.975   3.009   2.257  0.2224  0.1342  0.2930
 6038SOL    HW119054   0.920   3.086   2.262 -0.7516 -0.5106 -0.2151
 6038SOL    HW219055   1.032   3.015   2.335  0.6755  1.7120 -0.1190
 6039SOL     OW19056   4.835   5.448   4.117  0.2218  0.1624 -0.0593
 6039SOL    HW119057   4.925   5.475   4.134 -0.2668  1.6669  0.2706
 6039SOL    HW219058   4.795   5.524   4.075 -0.4284 -1.1190 -1.9062
 6040SOL     OW19059   5.329   2.450   1.361  0.1547  0.0017 -0.6925
 6040SOL    HW119060   5.349   2.357   1.357 -1.8839 -0.6406  1.9184
 6040SOL    HW219061   5.235   2.456   1.343 -0.6691  0.9853  3.1567
 6041SOL     OW19062   0.526   6.437   2.223 -0.4882 -0.2434  0.1455
 6041SOL    HW119063   0.619   6.432   2.199 -0.6870 -1.3722 -0.4221
 6041SOL    HW219064   0.487   6.491   2.154 -0.4843 -0.8297 -0.3150
 6042SOL     OW19065   4.784   0.621   4.434  0.3253  0.2410 -0.3483
 6042SOL    HW119066   4.731   0.688   4.477  0.2923  0.6606 -1.0322
 6042SOL    HW219067   4.763   0.630   4.341 -0.6335 -1.5422 -0.3582
 6043SOL     OW19068   2.227   7.261   7.427  0.1670  0.6212 -0.0883
 6043SOL    HW119069   2.171   7.214   7.366  0.2998 -0.2322  0.4294
 6043SOL    HW219070   2.197   7.351   7.423 -0.5867  0.3552 -0.5461
 6044SOL     OW19071   4.576   3.233   6.254 -0.2981  0.0963 -0.4187
 6044SOL    HW119072   4.483   3.248   6.273 -0.9514 -1.5536 -2.0162
 6044SOL    HW219073   4.576   3.169   6.183  2.0440  1.8902 -2.1885
 6045SOL     OW19074   6.737   4.863   2.474 -0.6996 -0.2899  0.3529
 6045SOL    HW119075   6.823   4.853   2.516 -0.3607 -1.4509 -0.5796
 6045SOL    HW219076   6.679   4.888   2.546  0.4232  0.6410  0.9831
 6046SOL     OW19077   4.076   3.964   2.383  0.0308  0.3820 -0.3255
 6046SOL    HW119078   4.061   4.032   2.448  2.1280  0.3679  0.2361
 6046SOL    HW219079   3.996   3.912   2.383 -0.6601  1.4061  0.9898
 6047SOL     OW19080   2.372   5.595   3.244  0.0437 -0.6407 -0.7812
 6047SOL    HW119081   2.282   5.586   3.212 -0.1241 -0.2480 -0.4228
 6047SOL    HW219082   2.426   5.582   3.166 -0.3841  0.8099 -1.3473
 6048SOL     OW19083   5.642   7.376   6.266  0.2504  0.3470  0.0406
 6048SOL    HW119084   5.613   7.344   6.181 -0.1053  0.4275  0.1275
 6048SOL    HW219085   5.692   7.455   6.246  0.0757  0.4264 -0.0886
 6049SOL     OW19086   2.696   0.269   0.015  0.5569 -0.5133  0.0575
 6049SOL    HW119087   2.716   0.347   0.066  0.7014 -0.1626 -0.5259
 6049SOL    HW219088   2.659   0.302  -0.067  1.0427 -1.0435 -0.3853
 6050SOL     OW19089   3.651   0.867   0.798  0.0136  0.0230  0.1021
 6050SOL    HW119090   3.654   0.908   0.712  0.5030 -0.3760 -0.0757
 6050SOL    HW219091   3.725   0.907   0.845  0.7292 -0.9191 -0.1982
 6051SOL     OW19092   1.041   3.613   1.130 -0.4543  0.0613  0.0310
 6051SOL    HW119093   1.055   3.698   1.171 -1.6989  0.4646 -0.3244
 6051SOL    HW219094   0.960   3.581   1.169 -0.6440 -0.4066 -0.7170
 6052SOL     OW19095   5.786   2.528   0.309  0.1280  0.3011  0.3099
 6052SOL    HW119096   5.766   2.509   0.217  0.7850 -0.1233  0.2479
 6052SOL    HW219097   5.809   2.621   0.310  0.1746  0.2920  0.0383
 6053SOL     OW19098   2.623   5.049   1.395  0.0670  0.5392 -0.9256
 6053SOL    HW119099   2.601   5.100   1.473 -0.4441 -1.9590  0.6800
 6053SOL    HW219100   2.692   5.100   1.352 -0.2013  2.4118  0.6792
 6054SOL     OW19101   1.297   5.210   2.189 -0.3933  0.3163  0.5882
 6054SOL    HW119102   1.348   5.240   2.113  0.5767  0.3224  1.2302
 6054SOL    HW219103   1.303   5.114   2.186 -0.1134  0.3252  0.8124
 6055SOL     OW19104   4.573   1.203   3.568  0.2524  0.3954  0.5835
 6055SOL    HW119105   4.575   1.261   3.644 -0.3525 -0.2512  1.1167
 6055SOL    HW219106   4.488   1.220   3.527  0.0125 -0.1921  0.8228
 6056SOL     OW19107   3.685   5.321   4.407 -0.6280 -0.3424 -0.1560
 6056SOL    HW119108   3.664   5.386   4.340 -1.5553  0.2767  0.6881
 6056SOL    HW219109   3.706   5.373   4.485 -0.2645 -1.0432  0.2219
 6057SOL     OW19110   5.197   1.650   6.928  0.0199  0.3140 -0.2003
 6057SOL    HW119111   5.199   1.692   6.842  0.7078  1.0264  0.1479
 6057SOL    HW219112   5.285   1.616   6.940  0.2176  1.0756  0.6209
 6058SOL     OW19113   0.889   1.937   4.985 -0.2995 -0.2033 -0.3967
 6058SOL    HW119114   0.825   1.868   5.000 -1.3130  0.6630 -0.5834
 6058SOL    HW219115   0.836   2.016   4.973  0.8210  0.5922 -0.2603
 6059SOL     OW19116   2.410   4.396   5.236 -0.1545 -0.4860  0.0369
 6059SOL    HW119117   2.361   4.430   5.311 -0.7295  0.8691 -0.9049
 6059SOL    HW219118   2.463   4.469   5.206 -0.8752 -0.5802 -1.6204
 6060SOL     OW19119   6.002   2.436   6.025 -0.5443 -0.4180 -0.0544
 6060SOL    HW119120   5.949   2.500   6.071 -1.0181 -0.7922 -0.0790
 6060SOL    HW219121   6.092   2.468   6.036 -0.6691 -0.3572  0.8905
 6061SOL     OW19122   1.643   1.642   6.994  0.1350 -0.1043 -0.2372
 6061SOL    HW119123   1.731   1.609   7.007 -0.0689 -1.2223 -1.4702
 6061SOL    HW219124   1.648   1.735   7.017  2.1537  0.3758 -2.3164
 6062SOL     OW19125   6.999   0.662   6.703  0.3638  0.2994  0.0462
 6062SOL    HW119126   6.951   0.581   6.688 -0.8694  1.0200 -0.0463
 6062SOL    HW219127   6.997   0.674   6.798 -0.5138  0.8239 -0.0275
 6063SOL     OW19128   3.824   1.018   1.241 -0.5606 -0.2224 -0.1976
 6063SOL    HW119129   3.793   1.036   1.153 -2.0466 -1.7688 -0.0356
 6063SOL    HW219130   3.888   0.948   1.230  1.2150  1.3101 -0.2603
 6064SOL     OW19131   2.722   1.149   7.120  0.2330  0.3356 -0.1512
 6064SOL    HW119132   2.652   1.185   7.066 -0.5299  1.6328  1.5806
 6064SOL    HW219133   2.802   1.165   7.070 -0.5293  0.4455 -1.3768
 6065SOL     OW19134   4.239   0.350   0.324  0.0255  0.2387 -0.0666
 6065SOL    HW119135   4.199   0.434   0.345  0.4901  0.1841  1.1695
 6065SOL    HW219136   4.299   0.334   0.397  1.7276 -0.0302 -1.4604
 6066SOL     OW19137   2.971   3.614   1.073  0.0263 -0.4750 -0.4647
 6066SOL    HW119138   3.001   3.705   1.069 -1.5581  0.0728 -0.6339
 6066SOL    HW219139   3.035   3.565   1.023  1.7945  0.2748  0.9511
 6067SOL     OW19140   1.531   3.689   0.995  0.4325  0.2884  0.5349
 6067SOL    HW119141   1.437   3.678   0.983  0.2986  0.0398  1.7597
 6067SOL    HW219142   1.566   3.686   0.906 -0.6184 -0.4539  0.1214
 6068SOL     OW19143   2.249   7.072   3.146  0.2432  0.3961  0.5956
 6068SOL    HW119144   2.221   7.009   3.213  0.2851 -0.0143  0.2344
 6068SOL    HW219145   2.169   7.093   3.098  0.3894 -0.0745  0.1442
 6069SOL     OW19146   3.396   6.110   5.396  0.1971 -0.0418 -0.1117
 6069SOL    HW119147   3.343   6.110   5.316 -0.2275 -0.2989  0.1641
 6069SOL    HW219148   3.475   6.060   5.372 -0.2858 -0.8142 -0.1482
 6070SOL     OW19149   5.122   1.709   4.640 -0.0618  0.1578 -0.5700
 6070SOL    HW119150   5.177   1.738   4.567  1.6133 -2.9074 -0.7173
 6070SOL    HW219151   5.087   1.625   4.610 -0.7436 -0.3510  1.5173
 6071SOL     OW19152   6.690   2.924   6.536  0.7197  0.6241 -0.2066
 6071SOL    HW119153   6.734   2.863   6.596 -0.5369 -0.7422 -0.6192
 6071SOL    HW219154   6.728   2.904   6.450 -1.0599 -1.0304 -0.6826
 6072SOL     OW19155   3.766   3.322   4.675  0.0070 -0.2264  0.0720
 6072SOL    HW119156   3.860   3.342   4.668 -0.3481  1.1343 -1.5794
 6072SOL    HW219157   3.731   3.394   4.728 -0.0894 -0.8106  0.8058
 6073SOL     OW19158   2.165   1.205   5.688  0.1133  0.2691 -0.1071
 6073SOL    HW119159   2.203   1.184   5.774  0.7308 -0.1997 -0.4915
 6073SOL    HW219160   2.097   1.270   5.708  0.2073  0.1204  0.7449
 6074SOL     OW19161   7.281   6.485   6.455 -0.3538 -0.1980 -0.4925
 6074SOL    HW119162   7.217   6.424   6.419 -0.9619 -0.3056  0.6904
 6074SOL    HW219163   7.291   6.553   6.388  0.0556 -1.3825 -1.6688
 6075SOL     OW19164   0.433   3.290   7.101  0.4237  0.0484  0.4036
 6075SOL    HW119165   0.387   3.241   7.034  0.8745  0.5173 -0.2686
 6075SOL    HW219166   0.378   3.283   7.179  0.4623 -1.4834  0.3254
 6076SOL     OW19167   5.063   0.114   3.268 -0.4008  0.0132 -0.1715
 6076SOL    HW119168   5.026   0.089   3.353 -0.1055  1.5258  0.4358
 6076SOL    HW219169   4.997   0.086   3.205 -1.0053 -0.3974  0.6162
 6077SOL     OW19170   7.110   1.400   5.589  0.6531  0.1580  0.0469
 6077SOL    HW119171   7.188   1.378   5.538  1.1695 -0.3933  1.0372
 6077SOL    HW219172   7.108   1.496   5.590  0.6897  0.1784 -0.9030
 6078SOL     OW19173   5.308   2.791   5.228  0.4351 -0.5778 -0.0624
 6078SOL    HW119174   5.376   2.792   5.296  0.5822 -0.1859 -0.2102
 6078SOL    HW219175   5.333   2.719   5.170  0.4860 -0.7109  0.1252
 6079SOL     OW19176   0.288   3.681   4.902 -0.0050 -0.0482 -0.6258
 6079SOL    HW119177   0.299   3.715   4.813  0.3907 -0.3647 -0.6981
 6079SOL    HW219178   0.369   3.635   4.921 -0.0514  0.0911 -0.0633
 6080SOL     OW19179   2.181   5.949   6.402 -0.0578  0.4189  0.3518
 6080SOL    HW119180   2.197   5.948   6.308 -1.3782  1.8947  0.0752
 6080SOL    HW219181   2.268   5.957   6.441  0.6371 -1.6006 -0.6386
 6081SOL     OW19182   3.379   6.523   2.877  1.1184  0.2484  0.5267
 6081SOL    HW119183   3.370   6.601   2.822 -2.0713  0.2248  0.8386
 6081SOL    HW219184   3.430   6.462   2.822 -1.3222  0.4701 -2.2485
 6082SOL     OW19185   0.085   7.034   6.874  0.2009  0.4660 -0.0093
 6082SOL    HW119186   0.028   7.073   6.940 -0.5946 -1.0759  0.2362
 6082SOL    HW219187   0.124   7.110   6.829 -0.3032  1.5358  1.2881
 6083SOL     OW19188   2.356   4.617   4.138  0.0631 -0.2259 -0.2590
 6083SOL    HW119189   2.323   4.586   4.223  0.2755 -0.4641 -0.2633
 6083SOL    HW219190   2.279   4.654   4.095  0.2665  1.5498  0.7616
 6084SOL     OW19191   2.097   1.388   6.367  0.1614 -0.0621 -0.2601
 6084SOL    HW119192   2.059   1.320   6.311 -2.4354 -0.5155  1.8320
 6084SOL    HW219193   2.155   1.438   6.309 -0.4986 -1.9247 -2.6965
 6085SOL     OW19194   6.613   6.468   7.141  0.5637 -0.1553 -0.5721
 6085SOL    HW119195   6.540   6.493   7.084  0.7019  0.4837 -0.4679
 6085SOL    HW219196   6.639   6.381   7.110  0.1813 -0.1075 -1.0287
 6086SOL     OW19197   1.180   3.669   0.497 -0.4811  0.1096  0.0094
 6086SOL    HW119198   1.096   3.667   0.452  0.0079 -0.1127 -0.9290
 6086SOL    HW219199   1.245   3.676   0.426  0.2967  0.0729  0.7002
 6087SOL     OW19200   0.874   1.034   3.921  0.0641  0.1808  0.2038
 6087SOL    HW119201   0.914   1.021   4.006  0.7017 -0.9088 -0.2366
 6087SOL    HW219202   0.931   1.095   3.875 -1.5942  2.7952  1.3850
 6088SOL     OW19203   0.646   1.325   2.207 -0.4254  0.0577 -0.4468
 6088SOL    HW119204   0.602   1.351   2.287  3.4482  1.5541  1.4468
 6088SOL    HW219205   0.671   1.234   2.221  1.5891  0.7509  0.8559
 6089SOL     OW19206   5.873   3.081   2.827 -0.1254  0.7916  0.3817
 6089SOL    HW119207   5.855   3.044   2.740  0.3035  1.0238  0.1942
 6089SOL    HW219208   5.787   3.082   2.870  0.0276 -1.6354  0.8785
 6090SOL     OW19209   0.957   2.022   0.443  0.1817  0.5145  0.1815
 6090SOL    HW119210   1.028   1.957   0.437 -0.4474 -0.2900  1.1708
 6090SOL    HW219211   0.877   1.970   0.451 -0.5249  1.4157 -0.7528
 6091SOL     OW19212   1.430   0.327   3.766 -0.0776  0.3167  0.2865
 6091SOL    HW119213   1.457   0.364   3.851 -1.2698 -0.6364  1.1066
 6091SOL    HW219214   1.435   0.401   3.705  0.5816  1.0715  1.2226
 6092SOL     OW19215   1.892   5.737   5.737 -0.1220  0.2470  0.6062
 6092SOL    HW119216   1.957   5.741   5.666 -0.2900  0.3509  0.4553
 6092SOL    HW219217   1.881   5.829   5.764 -2.8593  0.7780 -1.8167
 6093SOL     OW19218   0.743   6.577   6.917 -0.5523  0.0242  0.2132
 6093SOL    HW119219   0.659   6.534   6.933 -0.0307 -1.2880 -0.4343
 6093SOL    HW219220   0.778   6.534   6.839  0.2958  1.2083 -0.0931
 6094SOL     OW19221   1.797   1.197   6.984 -0.0458 -0.3371  0.0766
 6094SOL    HW119222   1.771   1.106   6.998  0.2627 -0.3302  0.7507
 6094SOL    HW219223   1.892   1.197   6.997  0.0176  0.0040 -0.3595
 6095SOL     OW19224   3.630   5.241   0.235  0.4508 -0.3867 -0.4231
 6095SOL    HW119225   3.629   5.270   0.144  0.3042  0.2156 -0.2349
 6095SOL    HW219226   3.538   5.239   0.261  0.5566  1.0500  0.1951
 6096SOL     OW19227   5.086   3.815   7.126 -0.3526  0.0433 -0.6891
 6096SOL    HW119228   5.100   3.720   7.125  0.0670  0.1014 -2.3918
 6096SOL    HW219229   5.139   3.845   7.200 -1.7890 -1.2030  0.9226
 6097SOL     OW19230   2.871   0.632   2.200  0.1763 -0.0393  0.7094
 6097SOL    HW119231   2.820   0.551   2.192 -1.2543  0.6755  1.9342
 6097SOL    HW219232   2.930   0.616   2.274  1.6098 -0.7770 -0.5501
 6098SOL     OW19233   4.689   6.892   1.880 -0.0424 -0.0072  0.1312
 6098SOL    HW119234   4.718   6.801   1.877 -0.3945 -0.0915 -1.5096
 6098SOL    HW219235   4.634   6.902   1.802 -0.3299  1.5007  0.5074
 6099SOL     OW19236   6.240   3.509   6.650 -0.2542  0.1920 -0.2523
 6099SOL    HW119237   6.210   3.599   6.659 -2.1915 -0.4132 -0.1908
 6099SOL    HW219238   6.256   3.480   6.739  3.6207  1.4067 -0.3808
 6100SOL     OW19239   3.154   5.415   2.987  0.8291 -0.3833  0.5877
 6100SOL    HW119240   3.088   5.484   2.995  0.2311 -1.0006  1.1078
 6100SOL    HW219241   3.227   5.445   3.040  2.3021  1.7668 -2.3772
 6101SOL     OW19242   2.654   1.843   1.915 -0.4197  0.2465 -0.3377
 6101SOL    HW119243   2.635   1.883   2.000 -0.3515  1.7961 -1.0075
 6101SOL    HW219244   2.723   1.780   1.933 -0.0060  0.9585  0.6794
 6102SOL     OW19245   1.876   0.171   2.105 -0.5165 -0.2305 -0.3724
 6102SOL    HW119246   1.934   0.097   2.126  0.5077  0.0134 -2.1223
 6102SOL    HW219247   1.798   0.155   2.157 -0.4449 -2.7148 -0.8732
 6103SOL     OW19248   6.107   4.944   6.890 -0.3712 -0.3090 -0.3707
 6103SOL    HW119249   6.134   4.956   6.800  0.1626  2.1463  0.0593
 6103SOL    HW219250   6.168   4.878   6.925  1.6272  1.1511 -0.9216
 6104SOL     OW19251   2.635   4.069   2.596 -0.1020 -0.1600 -0.0771
 6104SOL    HW119252   2.621   4.029   2.681 -1.0928  1.8153  0.7668
 6104SOL    HW219253   2.551   4.058   2.550 -0.0874  0.1463 -0.1801
 6105SOL     OW19254   6.188   5.597   0.146 -0.2183 -0.0169  0.0541
 6105SOL    HW119255   6.263   5.585   0.088 -0.5848 -2.5027 -0.0042
 6105SOL    HW219256   6.219   5.570   0.232 -0.8876 -0.6507  0.1118
 6106SOL     OW19257   3.770   4.352   3.738  0.2989  0.6379  0.5483
 6106SOL    HW119258   3.824   4.319   3.809 -0.3978 -1.6176  0.1367
 6106SOL    HW219259   3.832   4.377   3.669  0.9156  1.5603  1.4224
 6107SOL     OW19260   1.245   0.504   0.135 -0.1448  0.4989 -0.0399
 6107SOL    HW119261   1.220   0.596   0.130  0.4076  0.5972 -2.6025
 6107SOL    HW219262   1.246   0.475   0.043  0.6476 -1.7946  0.6296
 6108SOL     OW19263   5.492   7.062   0.090  0.2944  0.0978  0.5004
 6108SOL    HW119264   5.472   7.073  -0.003  0.2973  0.5400  0.5501
 6108SOL    HW219265   5.550   7.135   0.111  2.1171 -1.2454  0.3320
 6109SOL     OW19266   0.308   5.211   0.917  0.0440 -0.9748  0.1787
 6109SOL    HW119267   0.400   5.186   0.907 -0.2860 -2.4965  0.7816
 6109SOL    HW219268   0.272   5.206   0.829  0.8083  0.9399 -0.3096
 6110SOL     OW19269   2.144   1.094   3.283 -0.6738  0.5951  1.1708
 6110SOL    HW119270   2.234   1.127   3.279 -1.0426  1.9439  2.8323
 6110SOL    HW219271   2.107   1.115   3.197  0.3589  0.7120  0.7370
 6111SOL     OW19272   0.488   2.152   1.117  0.3262 -0.0135  0.1813
 6111SOL    HW119273   0.506   2.060   1.098 -1.2721 -0.5878  1.2303
 6111SOL    HW219274   0.517   2.199   1.038 -1.7301 -1.7510 -1.7689
 6112SOL     OW19275   6.929   1.405   3.746  0.3166  0.4338  0.2347
 6112SOL    HW119276   6.882   1.403   3.829  2.7863 -0.2594  1.7071
 6112SOL    HW219277   6.925   1.496   3.718  0.3103  0.8795  1.6335
 6113SOL     OW19278   1.708   4.702   0.327 -0.4842  0.2358 -0.2293
 6113SOL    HW119279   1.740   4.782   0.369 -1.1384 -0.5116  1.8247
 6113SOL    HW219280   1.631   4.729   0.277 -0.1851  1.0193 -0.2759
 6114SOL     OW19281   5.039   3.722   1.333  0.0770  0.5627  0.4436
 6114SOL    HW119282   5.001   3.808   1.316 -1.8032  0.3084  2.8991
 6114SOL    HW219283   4.965   3.662   1.331  1.2692 -0.9511 -0.5551
 6115SOL     OW19284   1.022   5.439   5.756 -0.4472  0.6278  0.0664
 6115SOL    HW119285   0.973   5.521   5.770 -2.4955 -0.6934  1.1047
 6115SOL    HW219286   1.070   5.425   5.837  0.6591  1.2559 -0.4660
 6116SOL     OW19287   6.239   6.838   2.713  0.4394  0.4096  0.0723
 6116SOL    HW119288   6.272   6.751   2.735  0.0660  0.2636  0.0714
 6116SOL    HW219289   6.143   6.828   2.714  0.3651  1.0377  0.9965
 6117SOL     OW19290   1.058   1.807   4.835  0.2762  0.4491 -0.1832
 6117SOL    HW119291   0.992   1.861   4.878 -1.2809 -1.1809 -0.4462
 6117SOL    HW219292   1.025   1.794   4.746  1.6028  0.6516 -0.7333
 6118SOL     OW19293   0.319   3.667   2.375 -0.3863  0.2318  0.4146
 6118SOL    HW119294   0.292   3.655   2.284 -1.7304  0.8666  0.7008
 6118SOL    HW219295   0.317   3.578   2.412 -2.8827  0.2693  0.5787
 6119SOL     OW19296   2.622   3.076   1.167 -0.7467 -0.3551  0.1157
 6119SOL    HW119297   2.679   3.139   1.122 -0.2914 -0.0281  1.1319
 6119SOL    HW219298   2.650   2.991   1.134  0.1698 -0.1793  0.4038
 6120SOL     OW19299   5.594   3.620   3.023 -0.2200  0.4012  0.0377
 6120SOL    HW119300   5.664   3.586   2.968 -0.0301  0.5760  0.1688
 6120SOL    HW219301   5.604   3.715   3.019  0.1026  0.4018  0.7693
 6121SOL     OW19302   6.135   0.240   3.981  0.2807 -0.2904 -0.2672
 6121SOL    HW119303   6.196   0.259   4.053 -0.7194  0.7599  0.3217
 6121SOL    HW219304   6.056   0.289   4.002 -0.0385  0.0456 -2.0942
 6122SOL     OW19305   5.465   4.158   0.058 -0.5380 -0.6459  0.2215
 6122SOL    HW119306   5.469   4.097  -0.016 -0.6999 -0.3365 -0.0414
 6122SOL    HW219307   5.486   4.104   0.134 -0.3566 -0.9618 -0.0522
 6123SOL     OW19308   0.658   3.354   0.441  0.5901 -0.1496  0.0361
 6123SOL    HW119309   0.738   3.391   0.476  0.5745  0.1246 -0.2101
 6123SOL    HW219310   0.588   3.409   0.477  0.5675  0.0730 -0.3368
 6124SOL     OW19311   3.748   4.803   1.023 -0.2540 -0.2271 -0.1735
 6124SOL    HW119312   3.713   4.835   1.106  1.3611 -0.9583  0.8513
 6124SOL    HW219313   3.827   4.855   1.009 -0.4984 -0.1319 -1.2392
 6125SOL     OW19314   5.683   0.330   2.333 -0.1664 -0.2069  0.4865
 6125SOL    HW119315   5.741   0.381   2.277 -0.9449  1.1701  0.8699
 6125SOL    HW219316   5.595   0.358   2.307 -0.5574  0.1440  2.0607
 6126SOL     OW19317   6.788   6.507   3.352  0.0458  0.2443  0.1249
 6126SOL    HW119318   6.755   6.502   3.262 -0.1302 -1.0675  0.2373
 6126SOL    HW219319   6.714   6.479   3.406 -0.6408  3.2153  0.9290
 6127SOL     OW19320   6.414   3.288   4.893  0.0502  0.2534  0.3853
 6127SOL    HW119321   6.479   3.359   4.892  0.4870 -0.1437 -0.3714
 6127SOL    HW219322   6.429   3.244   4.977  0.1227  0.7335  0.6307
 6128SOL     OW19323   1.202   0.685   5.452  0.1548  0.8147  0.4558
 6128SOL    HW119324   1.112   0.676   5.483 -1.0189  2.3640 -2.1849
 6128SOL    HW219325   1.242   0.749   5.510 -1.7955  3.2484 -0.7191
 6129SOL     OW19326   7.151   5.148   2.931 -0.0084 -0.0739  0.2484
 6129SOL    HW119327   7.209   5.081   2.897  0.8193  1.1696 -0.8739
 6129SOL    HW219328   7.192   5.177   3.012  0.1161 -0.2716  0.2556
 6130SOL     OW19329   0.737   1.524   7.013 -0.6115 -0.5485 -0.0752
 6130SOL    HW119330   0.774   1.498   7.097  1.2686 -0.3242 -0.7946
 6130SOL    HW219331   0.682   1.600   7.033 -1.4090 -1.4243  1.1550
 6131SOL     OW19332   4.134   0.798   3.786 -0.5609 -0.1628  0.0212
 6131SOL    HW119333   4.097   0.876   3.744 -1.5374 -0.6186 -0.0096
 6131SOL    HW219334   4.059   0.760   3.833 -0.8079 -2.5862 -2.1596
 6132SOL     OW19335   4.685   1.317   2.651  0.5411  0.2927 -0.0237
 6132SOL    HW119336   4.774   1.338   2.622  0.3277 -1.8486 -2.6951
 6132SOL    HW219337   4.636   1.304   2.570 -1.6961 -0.6333  1.3737
 6133SOL     OW19338   2.604   2.235   5.925  0.0096  0.0449  0.4109
 6133SOL    HW119339   2.659   2.308   5.954 -0.6715  1.6460 -2.0199
 6133SOL    HW219340   2.583   2.188   6.006  1.5224  1.7764  1.9257
 6134SOL     OW19341   5.264   5.730   3.193  0.2513  0.1401  0.0601
 6134SOL    HW119342   5.231   5.648   3.154 -0.3738  0.8086 -0.8611
 6134SOL    HW219343   5.320   5.701   3.264 -0.4958 -1.0950  0.1876
 6135SOL     OW19344   4.846   2.286   4.586  0.2273 -0.0974  0.3233
 6135SOL    HW119345   4.852   2.233   4.666  0.3494 -0.8421 -0.1738
 6135SOL    HW219346   4.936   2.314   4.570 -0.1191  2.0780  1.7704
 6136SOL     OW19347   2.279   4.026   4.649 -0.2363  0.8790  0.5538
 6136SOL    HW119348   2.224   4.067   4.716 -0.6841 -1.8357  1.9728
 6136SOL    HW219349   2.362   4.009   4.693 -1.1973 -2.8358  1.3017
 6137SOL     OW19350   1.881   1.448   4.828  0.4338  0.1267  0.1248
 6137SOL    HW119351   1.794   1.457   4.866 -0.1126  1.0700 -1.2539
 6137SOL    HW219352   1.920   1.373   4.874 -0.1873  1.1090  2.3979
 6138SOL     OW19353   0.769   4.407   4.430 -0.2593 -0.1973 -0.3712
 6138SOL    HW119354   0.864   4.424   4.433  0.0581 -1.3008 -2.1775
 6138SOL    HW219355   0.751   4.360   4.511  0.9320 -0.6609 -0.3424
 6139SOL     OW19356   0.822   0.814   3.495  0.6979 -0.1248 -0.4201
 6139SOL    HW119357   0.746   0.767   3.530 -0.9953  1.3234 -1.9504
 6139SOL    HW219358   0.891   0.801   3.561 -1.3693 -0.0730  1.8874
 6140SOL     OW19359   0.458   6.783   0.694 -0.2145 -0.0627  0.0254
 6140SOL    HW119360   0.497   6.822   0.772 -0.4022 -0.1978  0.1876
 6140SOL    HW219361   0.364   6.784   0.710 -0.1527 -2.8754  1.1769
 6141SOL     OW19362   0.550   3.872   1.531 -0.2413 -0.1254  0.2687
 6141SOL    HW119363   0.594   3.792   1.558 -0.9617 -0.1690  1.3778
 6141SOL    HW219364   0.467   3.872   1.579 -0.6644  0.8341 -0.4070
 6142SOL     OW19365   4.597   4.692   1.239 -0.0411 -0.3120  0.3152
 6142SOL    HW119366   4.530   4.723   1.301  1.2824 -0.0982  1.7214
 6142SOL    HW219367   4.599   4.597   1.251 -0.1749 -0.3278  0.2018
 6143SOL     OW19368   1.321   2.087   7.016 -0.7385 -0.2377  0.3467
 6143SOL    HW119369   1.329   2.062   7.108 -1.2301  1.2561  0.8269
 6143SOL    HW219370   1.292   2.008   6.972  0.2143 -1.1727  1.3435
 6144SOL     OW19371   0.331   1.430   3.239 -0.3363 -0.0942  0.2444
 6144SOL    HW119372   0.384   1.354   3.263 -0.7307 -0.4218  0.0876
 6144SOL    HW219373   0.391   1.504   3.248 -0.5793 -0.1175  2.8266
 6145SOL     OW19374   4.891   6.486   6.505  0.3842 -0.5030  0.1558
 6145SOL    HW119375   4.843   6.568   6.493 -0.0324 -0.8689 -0.7638
 6145SOL    HW219376   4.942   6.476   6.425  0.0796 -1.3589  0.0561
 6146SOL     OW19377   3.749   2.311   5.403  0.2938  0.4089  0.1589
 6146SOL    HW119378   3.673   2.257   5.379  0.6214  0.8411 -2.1253
 6146SOL    HW219379   3.756   2.303   5.498 -1.6462 -0.9119  0.2400
 6147SOL     OW19380   4.270   5.012   4.710 -0.2454 -0.0170  0.4534
 6147SOL    HW119381   4.351   4.979   4.670 -0.0213  1.2039 -0.1621
 6147SOL    HW219382   4.284   5.106   4.717 -1.2086  0.0767  1.3219
 6148SOL     OW19383   5.881   2.934   6.251  0.5376  0.0118  0.3271
 6148SOL    HW119384   5.889   2.946   6.345 -2.1257 -1.5915  0.8674
 6148SOL    HW219385   5.910   2.844   6.236  0.1418 -0.0278 -0.2359
 6149SOL     OW19386   4.778   3.022   6.904 -0.7534  0.1752  0.1039
 6149SOL    HW119387   4.748   2.943   6.859 -0.3210  0.4828 -0.7433
 6149SOL    HW219388   4.874   3.019   6.897 -0.7684  1.3587 -0.9893
 6150SOL     OW19389   5.722   2.780   6.602  0.3066  0.0288 -0.0724
 6150SOL    HW119390   5.680   2.861   6.574  0.3788  1.2911  3.1171
 6150SOL    HW219391   5.744   2.794   6.694  2.3397 -2.8136  0.0154
 6151SOL     OW19392   6.934   3.708   4.029 -0.3072 -0.2194 -0.3458
 6151SOL    HW119393   6.845   3.728   3.998 -0.6529 -2.3397 -0.8454
 6151SOL    HW219394   6.942   3.613   4.020  1.3274 -0.3244  1.5288
 6152SOL     OW19395   0.817   3.435   6.407 -0.0100  0.5796 -0.5572
 6152SOL    HW119396   0.869   3.370   6.359 -0.3453  1.4526 -2.1632
 6152SOL    HW219397   0.745   3.457   6.348 -2.2101 -0.4831  1.5393
 6153SOL     OW19398   3.214   3.162   2.070  0.0130 -0.0626 -0.8711
 6153SOL    HW119399   3.236   3.228   2.136 -0.2669  0.9059 -1.7204
 6153SOL    HW219400   3.275   3.090   2.088 -1.1972 -0.5912  1.5406
 6154SOL     OW19401   2.236   6.289   3.404 -0.6300  0.3904 -0.7209
 6154SOL    HW119402   2.182   6.295   3.325 -2.8111 -1.4301  0.5126
 6154SOL    HW219403   2.227   6.374   3.446  0.6321  1.4082 -2.4336
 6155SOL     OW19404   0.037   1.478   5.685  0.4497 -0.0918  0.0089
 6155SOL    HW119405  -0.018   1.474   5.607  0.2929  1.3894  0.0130
 6155SOL    HW219406   0.118   1.434   5.660  0.1913 -0.1265 -0.7910
 6156SOL     OW19407   0.799   5.144   0.782 -0.2572 -0.3172  0.3008
 6156SOL    HW119408   0.879   5.134   0.731 -0.5242 -0.0025 -0.2002
 6156SOL    HW219409   0.739   5.191   0.723 -0.0258  1.5800  1.4910
 6157SOL     OW19410   2.483   7.048   0.368 -0.5586  0.1812 -0.2737
 6157SOL    HW119411   2.462   6.955   0.368 -2.7621  0.5965  1.4715
 6157SOL    HW219412   2.522   7.064   0.453 -0.6804  0.9494 -0.3579
 6158SOL     OW19413   6.240   3.983   1.875 -0.3689  0.5571  0.2095
 6158SOL    HW119414   6.190   4.042   1.932  0.2443  0.6114  0.6967
 6158SOL    HW219415   6.189   3.902   1.873 -0.7642  0.8029  0.2519
 6159SOL     OW19416   1.843   2.198   1.206  0.6924  0.1113 -0.3773
 6159SOL    HW119417   1.901   2.173   1.277  0.7284  0.3562 -0.3174
 6159SOL    HW219418   1.820   2.289   1.225  1.4559  0.4818 -1.1748
 6160SOL     OW19419   3.446   4.375   5.280  0.0463 -0.2556 -0.1993
 6160SOL    HW119420   3.412   4.456   5.318 -1.3668  0.0886 -2.0118
 6160SOL    HW219421   3.541   4.390   5.273 -0.2093  1.3814 -0.7237
 6161SOL     OW19422   0.887   3.344   5.710 -0.2621  0.4291  0.5779
 6161SOL    HW119423   0.919   3.266   5.666  0.9773  1.5034 -0.5055
 6161SOL    HW219424   0.798   3.356   5.676 -0.1451 -0.0227  0.1035
 6162SOL     OW19425   4.582   2.342   3.267  0.5164  1.1921 -0.0490
 6162SOL    HW119426   4.617   2.424   3.302  1.5269  1.5665 -1.8285
 6162SOL    HW219427   4.659   2.288   3.251 -0.0998  0.1213  0.5134
 6163SOL     OW19428   3.002   1.117   5.793  0.2639 -0.1412 -0.4957
 6163SOL    HW119429   2.975   1.110   5.701  0.4835 -0.3645 -0.5433
 6163SOL    HW219430   3.051   1.037   5.810  0.4670  0.0303 -0.2651
 6164SOL     OW19431   6.576   4.121   1.072 -0.0128 -0.2225  0.7660
 6164SOL    HW119432   6.570   4.209   1.034  0.0558  0.7964  2.9538
 6164SOL    HW219433   6.638   4.075   1.016  0.4343  1.3169 -0.0727
 6165SOL     OW19434   6.836   7.359   2.422  0.1754 -0.2447  0.1909
 6165SOL    HW119435   6.799   7.443   2.449 -1.0862 -0.9992  0.8842
 6165SOL    HW219436   6.761   7.306   2.396  1.1901  0.1452 -4.3178
 6166SOL     OW19437   3.989   6.905   2.339  0.2339  0.0517 -0.4911
 6166SOL    HW119438   3.923   6.955   2.291 -0.7446 -1.1974 -0.5206
 6166SOL    HW219439   3.942   6.873   2.417  0.9636 -0.3913 -0.2236
 6167SOL     OW19440   4.127   1.375   5.216 -0.2330  0.1417  0.6510
 6167SOL    HW119441   4.102   1.387   5.307 -0.8691 -0.0985  0.5184
 6167SOL    HW219442   4.137   1.464   5.182 -1.9312  0.2906  0.4588
 6168SOL     OW19443   5.292   3.705   6.164 -0.2277  0.4970 -0.3502
 6168SOL    HW119444   5.318   3.641   6.098 -2.5496 -1.2079  0.2635
 6168SOL    HW219445   5.220   3.754   6.124 -0.3487  0.7982  0.2186
 6169SOL     OW19446   6.479   5.844   2.402  0.3371  0.0201  0.1714
 6169SOL    HW119447   6.485   5.861   2.308  2.5044  0.3793  0.3376
 6169SOL    HW219448   6.387   5.863   2.424 -0.6881 -1.7790 -2.1511
 6170SOL     OW19449   3.563   6.819   2.648 -0.1106  0.3465  0.0294
 6170SOL    HW119450   3.470   6.800   2.641  0.0390 -0.3583 -0.1993
 6170SOL    HW219451   3.596   6.755   2.712  0.5337 -0.6697 -1.2552
 6171SOL     OW19452   3.960   7.364   5.528  0.0282  0.7201  0.5200
 6171SOL    HW119453   4.004   7.349   5.611  0.0886 -0.3059  0.3169
 6171SOL    HW219454   3.869   7.381   5.552  0.1547  0.9877  0.8206
 6172SOL     OW19455   0.518   5.366   6.138  0.3064  0.0037 -0.0248
 6172SOL    HW119456   0.594   5.345   6.192  3.1521  1.9069 -2.9533
 6172SOL    HW219457   0.472   5.283   6.129  1.1763 -0.9283  2.9838
 6173SOL     OW19458   0.936   3.618   6.055 -0.4247 -0.3281  0.1386
 6173SOL    HW119459   0.870   3.609   5.986 -1.5896  0.9471  1.0602
 6173SOL    HW219460   1.007   3.668   6.014 -0.7304 -0.3104 -0.3731
 6174SOL     OW19461   2.006   5.783   6.520 -0.2153  0.4039  0.7706
 6174SOL    HW119462   2.060   5.857   6.494 -1.4230  1.4362  1.0731
 6174SOL    HW219463   2.043   5.708   6.474 -0.1765  1.5524 -1.1701
 6175SOL     OW19464   5.058   2.950   5.969  0.1455  0.6242  0.5329
 6175SOL    HW119465   5.150   2.931   5.948 -0.5257 -2.0702 -0.3247
 6175SOL    HW219466   5.050   3.044   5.954  2.4287  0.7093 -0.7001
 6176SOL     OW19467   1.662   3.224   1.251 -0.0553  0.7674 -0.2637
 6176SOL    HW119468   1.700   3.244   1.336  1.3397 -1.3476 -0.3170
 6176SOL    HW219469   1.720   3.266   1.188  1.5985 -1.3487 -0.2838
 6177SOL     OW19470   4.391   2.173   4.200 -0.7268 -0.1636 -0.2854
 6177SOL    HW119471   4.356   2.258   4.175 -1.2118  0.0155  0.9352
 6177SOL    HW219472   4.456   2.193   4.268  0.0239 -0.6868 -0.8300
 6178SOL     OW19473   0.449   0.965   5.963  0.1339 -0.0279  0.1696
 6178SOL    HW119474   0.505   0.999   6.033  0.2541 -0.2742  0.1943
 6178SOL    HW219475   0.412   0.884   6.000  1.1888 -0.8482 -0.5101
 6179SOL     OW19476   4.110   2.945   1.756 -0.3525 -0.6558  0.0172
 6179SOL    HW119477   4.201   2.917   1.755 -0.0963  0.1277 -1.1009
 6179SOL    HW219478   4.060   2.868   1.731  0.0162 -1.0197  0.3853
 6180SOL     OW19479   3.693   2.247   0.181  0.1182  0.1994  0.2519
 6180SOL    HW119480   3.617   2.195   0.207 -0.2654  1.2924  1.4673
 6180SOL    HW219481   3.664   2.338   0.191  1.8346  0.6576  1.6690
 6181SOL     OW19482   0.081   2.143   5.592  0.2581 -0.3820  0.1687
 6181SOL    HW119483   0.013   2.157   5.525 -1.1587 -1.1759  1.3674
 6181SOL    HW219484   0.104   2.231   5.621 -0.6557 -0.1045  0.0966
 6182SOL     OW19485   6.997   0.300   4.023  0.3978 -0.4482  0.1293
 6182SOL    HW119486   6.995   0.393   4.001  0.3180  0.3372  2.9838
 6182SOL    HW219487   7.081   0.287   4.065 -0.4918 -1.0709  1.8128
 6183SOL     OW19488   3.640   5.188   3.486 -0.2378  0.0068 -0.8725
 6183SOL    HW119489   3.705   5.180   3.417  0.3494 -1.9294 -0.1575
 6183SOL    HW219490   3.584   5.112   3.476 -0.0781 -0.3879  0.8098
 6184SOL     OW19491   3.714   6.824   5.253  0.4235  0.7873  0.3979
 6184SOL    HW119492   3.717   6.812   5.158 -2.3611  1.7079  0.1177
 6184SOL    HW219493   3.800   6.859   5.275  1.9723 -1.5206 -1.4007
 6185SOL     OW19494   7.332   3.096   5.073 -0.0915  0.5539  0.5071
 6185SOL    HW119495   7.418   3.138   5.082  0.1239  0.5444 -1.1768
 6185SOL    HW219496   7.352   3.006   5.046 -0.5949  1.0265 -1.6790
 6186SOL     OW19497   3.957   4.895   5.683 -0.2376 -0.2562 -0.2006
 6186SOL    HW119498   3.943   4.806   5.717 -1.5329 -0.3902 -1.0180
 6186SOL    HW219499   3.975   4.948   5.760 -2.3036 -0.6956  0.6472
 6187SOL     OW19500   2.854   5.457   0.905 -0.6482  0.6113  0.3501
 6187SOL    HW119501   2.814   5.419   0.827  2.9482  1.2749 -2.0535
 6187SOL    HW219502   2.876   5.547   0.880  2.9756  0.0756  1.0385
 6188SOL     OW19503   1.537   1.344   2.159  0.3900 -0.1965  0.2663
 6188SOL    HW119504   1.533   1.402   2.235  0.0289 -0.5540  0.5298
 6188SOL    HW219505   1.452   1.300   2.159  0.6085 -0.6212 -0.0061
 6189SOL     OW19506   0.580   1.275   0.068 -0.0551 -0.0538  1.1105
 6189SOL    HW119507   0.662   1.255   0.115 -0.6078 -2.4037  1.2183
 6189SOL    HW219508   0.607   1.284  -0.023  0.6384  1.7995  1.4453
 6190SOL     OW19509   0.343   4.340   2.437  0.2794 -0.2583 -0.2267
 6190SOL    HW119510   0.417   4.388   2.399  0.1533  0.7323  0.7543
 6190SOL    HW219511   0.384   4.277   2.497  0.4120 -1.0265 -1.0978
 6191SOL     OW19512   6.899   3.311   4.996  0.3432 -0.4187 -0.2784
 6191SOL    HW119513   6.951   3.232   4.982 -0.2268 -0.4225 -2.8642
 6191SOL    HW219514   6.906   3.359   4.913 -1.7231  0.7879  0.1912
 6192SOL     OW19515   5.132   4.672   6.411  0.1254 -0.1165  0.0245
 6192SOL    HW119516   5.172   4.661   6.497  0.4995 -1.2752 -0.2756
 6192SOL    HW219517   5.206   4.672   6.350 -0.2184 -0.7102 -0.4028
 6193SOL     OW19518   1.061   4.375   5.343 -0.3566 -0.0862 -0.5389
 6193SOL    HW119519   1.071   4.411   5.431  1.1953 -0.4246 -0.5528
 6193SOL    HW219520   1.145   4.333   5.324  0.1741  1.8102 -2.9902
 6194SOL     OW19521   1.268   5.130   6.731 -0.2716  0.0481 -0.3315
 6194SOL    HW119522   1.226   5.048   6.706 -2.3795  0.2949  2.0099
 6194SOL    HW219523   1.202   5.177   6.782  1.3871  2.5367 -0.2738
 6195SOL     OW19524   1.757   6.511   3.947 -0.5195  0.2827  0.0337
 6195SOL    HW119525   1.806   6.535   3.869 -0.3077 -0.2458 -0.0007
 6195SOL    HW219526   1.677   6.471   3.914 -0.5894  0.3843  0.0832
 6196SOL     OW19527   6.076   6.787   0.212  0.2261 -0.0860  1.2482
 6196SOL    HW119528   6.063   6.706   0.260  0.0558 -1.3756 -0.8566
 6196SOL    HW219529   5.989   6.813   0.183  0.4545  0.0341  0.6581
 6197SOL     OW19530   3.624   0.901   3.186  0.1138  0.0465  0.1125
 6197SOL    HW119531   3.551   0.959   3.166  1.4362  1.2650 -1.4498
 6197SOL    HW219532   3.700   0.942   3.144  1.3143 -2.2433 -0.1119
 6198SOL     OW19533   4.954   1.550   0.266  0.1531  0.1278  0.2736
 6198SOL    HW119534   5.023   1.499   0.307  1.0494  1.8083  0.9475
 6198SOL    HW219535   4.877   1.534   0.320  0.1823 -1.1339 -0.0219
 6199SOL     OW19536   2.340   6.298   6.181  0.4196  0.3054 -0.6376
 6199SOL    HW119537   2.320   6.364   6.247 -0.1077 -0.4519 -0.0256
 6199SOL    HW219538   2.420   6.256   6.213  0.2438  0.0341 -0.5511
 6200SOL     OW19539   3.852   2.335   3.567 -0.0572 -0.4173  0.1465
 6200SOL    HW119540   3.859   2.431   3.568 -0.9486 -0.3026 -1.6480
 6200SOL    HW219541   3.824   2.313   3.656 -0.2266  1.0297  0.4841
 6201SOL     OW19542   3.465   2.701   2.462  0.4620 -0.1382 -0.2874
 6201SOL    HW119543   3.533   2.646   2.500 -0.3597 -0.9202  0.0663
 6201SOL    HW219544   3.436   2.653   2.384  0.8691  0.5875 -0.9092
 6202SOL     OW19545   2.140   3.546   7.359  0.1773 -0.4343  0.1825
 6202SOL    HW119546   2.174   3.503   7.280  0.0713 -0.7235  0.2931
 6202SOL    HW219547   2.060   3.588   7.330  0.8137  0.5752 -0.1707
 6203SOL     OW19548   6.446   0.260   2.340 -0.2488  0.2890 -0.3064
 6203SOL    HW119549   6.414   0.268   2.429 -1.7946 -0.3715 -0.7703
 6203SOL    HW219550   6.375   0.295   2.285 -0.2490 -1.2631 -1.3763
 6204SOL     OW19551   6.883   3.894   3.514  0.2026  0.4191 -0.6800
 6204SOL    HW119552   6.789   3.900   3.531  0.2986  1.1116 -0.3623
 6204SOL    HW219553   6.921   3.967   3.563  1.0257 -0.4707  0.0539
 6205SOL     OW19554   6.062   5.565   2.074 -0.9703  0.7212 -0.0549
 6205SOL    HW119555   6.093   5.554   1.984 -0.5747  0.1609  0.1455
 6205SOL    HW219556   6.087   5.483   2.118 -0.1815  1.4290  0.8471
 6206SOL     OW19557   6.687   1.623   0.748  0.2769  0.3801 -0.3265
 6206SOL    HW119558   6.719   1.645   0.661  0.5239  0.7085 -0.1522
 6206SOL    HW219559   6.766   1.612   0.801  0.2689 -2.1667 -0.6770
 6207SOL     OW19560   4.653   1.089   6.772 -0.7312 -0.2169  0.5762
 6207SOL    HW119561   4.672   1.003   6.734 -0.4837 -0.3181  0.9333
 6207SOL    HW219562   4.563   1.108   6.744 -0.2838  0.0841 -0.7684
 6208SOL     OW19563   0.332   2.373   4.524 -0.8053  0.4681 -1.0418
 6208SOL    HW119564   0.391   2.393   4.451  0.4082 -1.6700 -0.7268
 6208SOL    HW219565   0.269   2.312   4.488 -0.4144 -0.3234 -0.4067
 6209SOL     OW19566   2.948   2.886   4.171  0.4491  0.0928 -0.2297
 6209SOL    HW119567   3.009   2.898   4.244  0.0348  0.1935  0.1052
 6209SOL    HW219568   3.000   2.845   4.103  0.8635  0.0672  0.0975
 6210SOL     OW19569   0.678   1.134   5.163 -0.0341  0.6091 -0.3133
 6210SOL    HW119570   0.694   1.076   5.089 -0.2215 -0.8710  0.7706
 6210SOL    HW219571   0.724   1.215   5.140  2.3520 -0.7962 -0.7725
 6211SOL     OW19572   4.956   4.891   3.696  0.1904  0.1795  0.3916
 6211SOL    HW119573   4.940   4.890   3.791 -1.0133  0.7319  0.2109
 6211SOL    HW219574   4.869   4.901   3.657  0.3587 -2.3875 -0.8714
 6212SOL     OW19575   1.761   2.282   7.047  0.2363  0.0083 -0.5866
 6212SOL    HW119576   1.789   2.266   7.137  3.2998 -0.1781 -1.4434
 6212SOL    HW219577   1.666   2.293   7.053  0.1217 -1.5318  2.4149
 6213SOL     OW19578   2.063   4.048   4.119 -0.3672 -0.9665 -0.1224
 6213SOL    HW119579   2.115   4.119   4.082 -0.6377 -1.0518 -0.6834
 6213SOL    HW219580   2.108   4.025   4.200  0.4947 -1.0670 -0.6150
 6214SOL     OW19581   6.757   5.879   4.896  0.2543  0.3574 -0.0685
 6214SOL    HW119582   6.729   5.941   4.829 -0.9944 -0.0814  0.0140
 6214SOL    HW219583   6.831   5.921   4.939  1.2866  0.5219 -1.9064
 6215SOL     OW19584   3.659   1.552   3.040 -0.0508  0.2577  0.7278
 6215SOL    HW119585   3.743   1.517   3.070  0.5964 -1.1679 -2.2925
 6215SOL    HW219586   3.669   1.647   3.048  1.4655  0.0754  1.3574
 6216SOL     OW19587   1.416   2.711   5.276 -0.1753  0.0771  0.2204
 6216SOL    HW119588   1.478   2.726   5.204 -0.4674 -1.6431 -0.4525
 6216SOL    HW219589   1.330   2.707   5.233 -0.5870  0.9570  0.9396
 6217SOL     OW19590   7.208   6.653   5.214  0.0696  0.7853  0.6931
 6217SOL    HW119591   7.238   6.712   5.145  0.1519 -1.4768 -1.3138
 6217SOL    HW219592   7.117   6.633   5.191  0.6613 -1.4568  0.1090
 6218SOL     OW19593   6.246   4.912   6.272  0.8814 -0.1633  0.5808
 6218SOL    HW119594   6.246   4.848   6.343 -0.4825 -1.5349 -0.5954
 6218SOL    HW219595   6.324   4.889   6.221  2.0304  1.0086  1.7239
 6219SOL     OW19596   1.720   0.754   6.213  0.0056  0.4703 -0.5196
 6219SOL    HW119597   1.727   0.837   6.260  1.5297  0.1037 -0.0329
 6219SOL    HW219598   1.810   0.731   6.193 -0.3785 -1.1356 -0.5159
 6220SOL     OW19599   0.430   5.885   4.766 -0.3257  0.0867  0.1962
 6220SOL    HW119600   0.449   5.823   4.836  0.5022 -0.2257 -0.2823
 6220SOL    HW219601   0.505   5.877   4.707 -1.8568 -1.0883 -1.7437
 6221SOL     OW19602   0.479   3.604   5.802 -0.0238 -0.1605 -0.3963
 6221SOL    HW119603   0.444   3.657   5.731 -2.1311 -1.7885 -0.6886
 6221SOL    HW219604   0.411   3.606   5.870  1.2893  0.1397  0.9673
 6222SOL     OW19605   5.055   2.774   6.213  0.3693  0.6117  0.0811
 6222SOL    HW119606   5.089   2.687   6.194  0.7442  0.4009  1.6181
 6222SOL    HW219607   5.054   2.818   6.128 -0.2232 -1.0129 -0.7944
 6223SOL     OW19608   7.076   4.913   0.407  0.2914  0.4648  0.2684
 6223SOL    HW119609   7.111   4.825   0.410 -1.0345 -0.1091 -0.2651
 6223SOL    HW219610   7.151   4.970   0.424  1.0506 -0.7734  1.2218
 6224SOL     OW19611   5.572   6.359   3.253  0.5743 -0.1254 -0.2579
 6224SOL    HW119612   5.517   6.283   3.237  0.8835 -0.3495 -0.2537
 6224SOL    HW219613   5.513   6.423   3.293  0.8077 -1.1648  1.8704
 6225SOL     OW19614   1.505   6.945   0.735 -0.0148 -0.3898  0.0120
 6225SOL    HW119615   1.548   6.909   0.658  1.8637 -0.2993  0.9540
 6225SOL    HW219616   1.471   7.030   0.707  0.1456 -0.6056 -0.8425
 6226SOL     OW19617   0.044   5.179   7.060 -0.0795  0.0177  0.3130
 6226SOL    HW119618  -0.021   5.153   7.125  0.1032 -0.8038  0.1804
 6226SOL    HW219619   0.088   5.254   7.099 -1.1529  0.6354  0.3647
 6227SOL     OW19620   4.592   1.777   2.592  0.4426 -0.0130  0.0885
 6227SOL    HW119621   4.522   1.812   2.538 -0.0033  0.0780  0.7206
 6227SOL    HW219622   4.586   1.825   2.675  1.0889 -0.1789  0.2418
 6228SOL     OW19623   0.271   5.454   5.483 -0.2496  0.5737 -0.5917
 6228SOL    HW119624   0.285   5.366   5.516  2.1098  1.0140 -0.2388
 6228SOL    HW219625   0.214   5.495   5.547  0.0708 -0.1688  0.1886
 6229SOL     OW19626   5.769   4.300   5.515  0.1290 -0.1869  0.2438
 6229SOL    HW119627   5.811   4.214   5.518 -0.6262 -0.6047 -0.4939
 6229SOL    HW219628   5.729   4.310   5.601 -1.3953 -1.4494 -0.2572
 6230SOL     OW19629   5.049   7.162   2.837  0.6009  0.0944  0.5843
 6230SOL    HW119630   4.960   7.179   2.868  0.3406  0.2468 -0.2166
 6230SOL    HW219631   5.074   7.080   2.879 -0.3700 -0.5685 -0.1043
 6231SOL     OW19632   2.651   6.375   4.404  0.3066  0.0347 -0.2954
 6231SOL    HW119633   2.572   6.418   4.371  1.1278  0.4196 -1.8757
 6231SOL    HW219634   2.619   6.296   4.447 -0.8501 -1.0150 -2.8645
 6232SOL     OW19635   4.931   7.057   2.259  0.0749 -0.3286  0.1198
 6232SOL    HW119636   5.007   7.102   2.295 -0.8922 -0.6800  2.8559
 6232SOL    HW219637   4.888   7.123   2.205  1.2003  0.5419  0.2496
 6233SOL     OW19638   0.858   6.156   3.911 -0.0374  0.4231  0.0678
 6233SOL    HW119639   0.900   6.122   3.832  0.8579  0.2410  0.6159
 6233SOL    HW219640   0.881   6.249   3.912 -0.0566  0.4271  0.1182
 6234SOL     OW19641   2.361   7.270   2.659 -0.0408  0.0237  0.1981
 6234SOL    HW119642   2.383   7.337   2.723 -1.6721 -0.5761  1.4621
 6234SOL    HW219643   2.444   7.225   2.640  0.7523  1.2798  0.6090
 6235SOL     OW19644   2.717   2.859   5.040 -0.2797  0.0979 -0.5074
 6235SOL    HW119645   2.747   2.780   4.995  0.8891 -0.1057  0.5741
 6235SOL    HW219646   2.718   2.927   4.972  0.0795 -0.5066 -1.1201
 6236SOL     OW19647   4.698   5.630   4.729  0.0292  0.2871 -0.2252
 6236SOL    HW119648   4.686   5.661   4.819 -0.8703  2.6713 -1.0776
 6236SOL    HW219649   4.624   5.571   4.714 -1.4662  2.0525 -0.2095
 6237SOL     OW19650   5.464   0.163   0.566  0.4289 -0.6271  0.4550
 6237SOL    HW119651   5.516   0.199   0.493 -1.0713  0.0269 -0.3386
 6237SOL    HW219652   5.522   0.171   0.642  1.0374  1.3380 -0.1342
 6238SOL     OW19653   3.403   0.076   0.726  0.1384 -0.2898 -0.1974
 6238SOL    HW119654   3.465   0.023   0.776  0.8399  0.9155  0.2535
 6238SOL    HW219655   3.454   0.109   0.652 -0.4995 -0.8429 -0.9040
 6239SOL     OW19656   3.709   3.979   1.535  0.1044  0.4807  0.2175
 6239SOL    HW119657   3.744   3.912   1.477  0.0523  0.7435 -0.1221
 6239SOL    HW219658   3.614   3.967   1.533  0.1445  0.0312  0.8153
 6240SOL     OW19659   7.098   7.124   6.742  0.4897  0.2323  0.4720
 6240SOL    HW119660   7.114   7.175   6.663 -1.1592  2.7963  1.6435
 6240SOL    HW219661   7.002   7.116   6.746  0.6497 -2.6154  0.6421
 6241SOL     OW19662   6.680   3.364   2.469  0.2883 -0.5519 -0.9973
 6241SOL    HW119663   6.667   3.405   2.554  0.0029 -2.0760 -0.2789
 6241SOL    HW219664   6.768   3.327   2.473  0.3349 -0.4979 -1.4279
 6242SOL     OW19665   2.353   1.987   4.732  0.7085  0.1326 -0.4050
 6242SOL    HW119666   2.269   1.996   4.687 -0.1356  0.8084  1.2320
 6242SOL    HW219667   2.354   1.896   4.762 -0.3300  0.6290  1.2130
 6243SOL     OW19668   5.487   4.971   1.406 -0.2323  0.8429  0.4661
 6243SOL    HW119669   5.421   5.032   1.437 -0.7184  0.4099  0.2955
 6243SOL    HW219670   5.482   4.976   1.310 -1.1903 -0.4225  0.4319
 6244SOL     OW19671   0.449   4.513   3.791 -0.3483 -0.5161 -0.1076
 6244SOL    HW119672   0.440   4.607   3.776 -1.5762 -0.7574 -1.0713
 6244SOL    HW219673   0.373   4.490   3.845 -0.2414 -1.0114 -0.1597
 6245SOL     OW19674   6.409   1.811   2.465 -0.3453  0.1358  0.6063
 6245SOL    HW119675   6.381   1.847   2.381  2.1388  0.0039 -0.3586
 6245SOL    HW219676   6.336   1.756   2.493 -1.9754  1.5952 -0.5409
 6246SOL     OW19677   2.953   5.172   1.391  0.1781 -0.1378  0.1249
 6246SOL    HW119678   2.943   5.145   1.482 -1.2667 -0.7661 -0.1907
 6246SOL    HW219679   2.944   5.091   1.341 -3.2275  0.6589 -0.7825
 6247SOL     OW19680   1.546   6.202   6.643 -0.0113  0.0280 -0.3250
 6247SOL    HW119681   1.623   6.245   6.682  0.8352 -0.9766 -0.8504
 6247SOL    HW219682   1.472   6.232   6.697  0.5357  2.1160 -0.6535
 6248SOL     OW19683   7.419   3.883   1.757  0.3278  0.3374  0.2213
 6248SOL    HW119684   7.420   3.883   1.853 -0.0286  0.0532  0.2236
 6248SOL    HW219685   7.489   3.944   1.733 -0.3734  1.3472  0.6702
 6249SOL     OW19686   5.074   0.502   3.676  0.4877 -0.1965  0.0651
 6249SOL    HW119687   5.056   0.590   3.707  0.4049 -0.2809  0.2547
 6249SOL    HW219688   4.999   0.450   3.704  1.3551 -0.7107  1.5135
 6250SOL     OW19689   4.270   5.534   5.890 -0.1051  0.0348  0.0475
 6250SOL    HW119690   4.277   5.586   5.970  2.4797  1.9844 -1.2640
 6250SOL    HW219691   4.342   5.565   5.835 -0.9461 -2.1395 -2.5321
 6251SOL     OW19692   6.726   1.189   1.863  0.2424 -0.2734  0.2172
 6251SOL    HW119693   6.753   1.280   1.850 -1.5008  0.0954 -1.2481
 6251SOL    HW219694   6.633   1.195   1.885  0.5779 -1.6245  2.3494
 6252SOL     OW19695   5.807   1.401   1.448 -0.3226 -0.7069 -0.5277
 6252SOL    HW119696   5.823   1.476   1.391 -0.1478  0.7992  1.3985
 6252SOL    HW219697   5.712   1.387   1.443 -0.2032 -1.1854 -1.8378
 6253SOL     OW19698   5.264   0.372   1.119 -0.5706  0.0639  0.3470
 6253SOL    HW119699   5.306   0.369   1.034 -0.1083 -2.4557  0.5868
 6253SOL    HW219700   5.172   0.392   1.100 -0.1644  1.1156 -0.5704
 6254SOL     OW19701   6.403   6.319   2.760 -0.4174  0.3979 -0.2522
 6254SOL    HW119702   6.449   6.402   2.747 -0.1989  0.2942 -0.1378
 6254SOL    HW219703   6.341   6.315   2.687 -0.0092  0.3786 -0.6004
 6255SOL     OW19704   1.861   3.268   5.510 -0.1115 -0.0776  0.2821
 6255SOL    HW119705   1.887   3.225   5.429  1.4248 -1.8401  1.6154
 6255SOL    HW219706   1.916   3.346   5.515  1.4761 -1.1857  0.6993
 6256SOL     OW19707   3.025   5.623   4.028  0.2456  0.1021  0.1891
 6256SOL    HW119708   3.086   5.550   4.035  0.9823  0.4030 -2.3306
 6256SOL    HW219709   2.939   5.585   4.048  0.8854 -0.8926  1.1822
 6257SOL     OW19710   5.000   0.850   0.355  0.1832  0.4209  0.1624
 6257SOL    HW119711   5.066   0.822   0.418  1.0105  1.5948 -0.1417
 6257SOL    HW219712   4.993   0.778   0.293  0.0158 -0.3678  1.0753
 6258SOL     OW19713   1.664   6.613   6.094 -0.1727  0.6143  0.0262
 6258SOL    HW119714   1.706   6.664   6.025  1.6940  1.0053  1.3837
 6258SOL    HW219715   1.691   6.523   6.077  0.0848  0.6764  0.1095
 6259SOL     OW19716   0.614   1.576   6.693 -0.5740 -0.3055 -0.5678
 6259SOL    HW119717   0.670   1.502   6.716 -0.9594 -0.5361 -0.3695
 6259SOL    HW219718   0.675   1.646   6.671 -0.1977 -0.3911  0.1781
 6260SOL     OW19719   3.436   1.957   3.027 -0.5748  0.1590  0.1266
 6260SOL    HW119720   3.421   1.979   3.119 -0.4164 -0.2676  0.2563
 6260SOL    HW219721   3.516   1.904   3.027 -0.3249  0.5291 -0.3099
 6261SOL     OW19722   4.610   7.427   6.487 -0.2684  0.6163  0.0803
 6261SOL    HW119723   4.567   7.512   6.492  0.0677  0.8191 -0.3831
 6261SOL    HW219724   4.704   7.449   6.483 -0.2305  0.2996 -1.4911
 6262SOL     OW19725   1.568   5.288   4.382  0.1283 -0.2043  0.2729
 6262SOL    HW119726   1.474   5.296   4.395  0.1684 -1.0556  1.2595
 6262SOL    HW219727   1.579   5.203   4.339  0.4586 -0.2699  0.4801
 6263SOL     OW19728   3.880   1.531   6.281 -0.2838 -0.2763  0.4241
 6263SOL    HW119729   3.975   1.523   6.275 -0.3790 -1.6026  0.3932
 6263SOL    HW219730   3.849   1.443   6.302 -1.4411  0.3297  1.3841
 6264SOL     OW19731   5.448   0.804   6.588 -0.3441 -0.7036  0.1566
 6264SOL    HW119732   5.513   0.760   6.641 -0.3231 -0.8991 -0.0294
 6264SOL    HW219733   5.498   0.843   6.516  0.0797  2.1553  1.8403
 6265SOL     OW19734   3.086   4.556   6.315 -0.1708 -0.1285 -0.2731
 6265SOL    HW119735   3.181   4.554   6.322 -0.1795  0.4109  0.0775
 6265SOL    HW219736   3.062   4.468   6.285  0.5843  0.3292 -2.3888
 6266SOL     OW19737   1.587   5.006   1.885  0.1068 -0.1271 -0.2682
 6266SOL    HW119738   1.659   4.966   1.836  0.4651 -0.2796  0.3802
 6266SOL    HW219739   1.614   5.097   1.895 -0.8815  0.4246 -2.0785
 6267SOL     OW19740   2.998   0.107   0.079 -0.8046 -0.0569  0.2453
 6267SOL    HW119741   2.910   0.094   0.045 -0.9031 -0.2182  0.5586
 6267SOL    HW219742   2.993   0.187   0.130 -0.7467 -0.0141  0.1837
 6268SOL     OW19743   1.194   2.327   0.854  0.1054  0.2107 -0.1371
 6268SOL    HW119744   1.200   2.283   0.770 -1.4380  0.9631 -0.6715
 6268SOL    HW219745   1.123   2.390   0.844  1.0000  1.5160  1.1997
 6269SOL     OW19746   3.634   1.792   7.098  0.3093  0.0650 -0.6260
 6269SOL    HW119747   3.691   1.830   7.030 -1.1378  0.1929 -1.8007
 6269SOL    HW219748   3.667   1.703   7.110  2.5068  0.9700  0.7561
 6270SOL     OW19749   2.653   3.093   6.324  0.4957 -0.2144 -0.6348
 6270SOL    HW119750   2.576   3.077   6.269  0.8460 -0.1458 -1.1511
 6270SOL    HW219751   2.724   3.045   6.281  0.9706  0.5696 -0.7483
 6271SOL     OW19752   7.306   5.845   2.547  0.0081 -0.6073 -0.4214
 6271SOL    HW119753   7.383   5.894   2.575 -0.9503 -0.1540  1.5765
 6271SOL    HW219754   7.330   5.754   2.559 -0.0788 -0.4456  1.2123
 6272SOL     OW19755   4.068   1.230   7.231  0.3763 -0.3884  0.1132
 6272SOL    HW119756   4.044   1.157   7.173  0.0810  1.2846 -1.9962
 6272SOL    HW219757   4.160   1.215   7.251  0.3986 -1.2057 -0.5293
 6273SOL     OW19758   7.367   4.788   4.479 -0.3165 -0.3945 -0.1438
 6273SOL    HW119759   7.326   4.873   4.494  0.4972  0.3541 -1.8731
 6273SOL    HW219760   7.312   4.726   4.527 -2.8367  0.6741 -1.4870
 6274SOL     OW19761   2.967   3.557   3.271 -0.5751  0.2325  0.2572
 6274SOL    HW119762   3.055   3.593   3.256 -0.2105  0.0171  1.7510
 6274SOL    HW219763   2.910   3.634   3.273 -0.0545  0.6180  1.6464
 6275SOL     OW19764   0.277   3.310   4.248  0.1753 -0.4893  0.3768
 6275SOL    HW119765   0.193   3.333   4.287 -0.0231 -0.3236 -0.1512
 6275SOL    HW219766   0.299   3.384   4.192  0.1464 -1.0093 -0.3320
 6276SOL     OW19767   3.646   6.677   6.142 -0.0747 -0.2860  0.4218
 6276SOL    HW119768   3.720   6.658   6.200  2.0881  2.8095 -1.0441
 6276SOL    HW219769   3.663   6.623   6.064  0.4954  0.1506  0.2329
 6277SOL     OW19770   0.344   0.954   2.222  0.5746 -0.0522  0.1590
 6277SOL    HW119771   0.268   1.011   2.217  1.3925  1.0724  0.0605
 6277SOL    HW219772   0.395   0.988   2.295  1.6569  0.0969 -0.6342
 6278SOL     OW19773   5.565   0.576   4.480  0.4326 -0.1667  0.3225
 6278SOL    HW119774   5.552   0.486   4.450  0.3412  0.1878 -0.7298
 6278SOL    HW219775   5.660   0.587   4.484  0.4497 -0.5838  1.3297
 6279SOL     OW19776   1.236   5.347   4.043 -0.4733 -0.1507  0.5231
 6279SOL    HW119777   1.315   5.396   4.018 -1.3019  0.5767 -0.7383
 6279SOL    HW219778   1.236   5.271   3.986 -0.9361  0.1050  0.1789
 6280SOL     OW19779   6.681   5.605   5.251  0.0945  0.2793 -0.0657
 6280SOL    HW119780   6.647   5.515   5.248 -0.8574  0.6144  0.5671
 6280SOL    HW219781   6.775   5.593   5.269  0.2025 -0.6145 -1.0380
 6281SOL     OW19782   3.845   4.856   7.221 -0.4398  0.2988 -0.6248
 6281SOL    HW119783   3.863   4.804   7.299 -1.9092  1.1858  0.3579
 6281SOL    HW219784   3.914   4.923   7.219  0.3162 -0.4688 -0.8079
 6282SOL     OW19785   5.560   7.150   3.284  0.4799  0.2594  0.0118
 6282SOL    HW119786   5.599   7.229   3.248 -1.0630  1.1276  0.1381
 6282SOL    HW219787   5.585   7.151   3.377  1.3700 -0.0031 -0.2167
 6283SOL     OW19788   5.134   6.212   0.383 -0.2963 -0.4123  0.4768
 6283SOL    HW119789   5.123   6.219   0.478  1.4434 -0.8858  0.7551
 6283SOL    HW219790   5.228   6.224   0.370 -0.7273  1.5606 -1.3903
 6284SOL     OW19791   3.941   6.972   5.375 -0.2461 -0.0819  0.2912
 6284SOL    HW119792   3.971   7.062   5.365 -0.8103  0.1059  0.2150
 6284SOL    HW219793   4.006   6.919   5.329  0.3329  0.2419  0.7375
 6285SOL     OW19794   5.085   4.378   5.220 -0.6593  0.3868  0.3977
 6285SOL    HW119795   5.109   4.456   5.169 -0.2923 -0.1346 -0.2376
 6285SOL    HW219796   5.156   4.368   5.282  0.9774 -1.2528 -1.5893
 6286SOL     OW19797   0.346   4.548   4.255 -0.2216 -0.4394 -0.6851
 6286SOL    HW119798   0.356   4.543   4.160  1.5640 -1.2256 -0.5090
 6286SOL    HW219799   0.436   4.556   4.287 -0.7116 -1.3076  0.9990
 6287SOL     OW19800   6.158   3.928   2.750 -0.4879 -0.1539 -0.4697
 6287SOL    HW119801   6.160   3.863   2.680 -1.8974  0.9976 -1.6216
 6287SOL    HW219802   6.073   3.916   2.792  1.3359 -2.7837  3.0949
 6288SOL     OW19803   0.620   6.303   5.952  0.2524  0.7490 -0.4540
 6288SOL    HW119804   0.611   6.320   5.858  3.6000 -0.8704 -1.2129
 6288SOL    HW219805   0.618   6.208   5.959  0.4840  0.8379  1.0684
 6289SOL     OW19806   1.890   5.116   4.381  0.5252  0.4182 -0.6471
 6289SOL    HW119807   1.961   5.108   4.445 -0.3073 -1.0826  0.1430
 6289SOL    HW219808   1.811   5.123   4.433  0.0188  1.5256 -1.5285
 6290SOL     OW19809   1.385   6.486   1.887  0.1471  0.2592 -0.3773
 6290SOL    HW119810   1.357   6.531   1.808  0.7653 -0.6417 -1.1216
 6290SOL    HW219811   1.474   6.459   1.869 -0.5087 -2.1250 -0.3615
 6291SOL     OW19812   3.984   4.115   0.316  0.2314 -0.3361  0.1758
 6291SOL    HW119813   3.968   4.093   0.408  0.8770 -1.6244 -0.0053
 6291SOL    HW219814   3.942   4.201   0.305  1.6271  0.6914  2.1165
 6292SOL     OW19815   7.429   4.075   0.290 -0.2331  0.0376  0.4377
 6292SOL    HW119816   7.349   4.039   0.328  0.8602 -1.3409  1.5336
 6292SOL    HW219817   7.463   4.134   0.357  0.0497  0.0629  0.2736
 6293SOL     OW19818   0.145   7.309   3.855 -0.0191  0.3818  0.1382
 6293SOL    HW119819   0.200   7.376   3.895 -0.2985  1.4245 -1.1525
 6293SOL    HW219820   0.068   7.304   3.913 -0.0763  1.3231  0.1665
 6294SOL     OW19821   2.432   2.421   0.989 -0.0626  0.1315  0.4543
 6294SOL    HW119822   2.439   2.491   1.054  1.4973  0.4454 -0.0059
 6294SOL    HW219823   2.473   2.457   0.911  1.0636 -1.3787  0.3011
 6295SOL     OW19824   5.153   2.991   5.152 -0.0139 -0.0085 -0.4422
 6295SOL    HW119825   5.194   2.905   5.158  0.5692  0.3044  0.1066
 6295SOL    HW219826   5.084   2.980   5.086 -1.5199 -1.5382  1.2629
 6296SOL     OW19827   2.262   4.199   3.990 -0.1750  0.3241  0.2543
 6296SOL    HW119828   2.275   4.261   3.918  2.9833 -0.1222  0.3214
 6296SOL    HW219829   2.328   4.223   4.055  0.0944 -2.1129  0.9783
 6297SOL     OW19830   1.867   2.150   6.067 -0.1377  0.0893  0.3068
 6297SOL    HW119831   1.776   2.121   6.073 -0.2429  0.4163  0.2694
 6297SOL    HW219832   1.862   2.245   6.056  0.2327  0.2867  1.6532
 6298SOL     OW19833   4.352   7.237   6.306  0.8128 -0.1817 -0.5910
 6298SOL    HW119834   4.295   7.311   6.287 -1.1649 -0.9989  1.7528
 6298SOL    HW219835   4.410   7.268   6.375  1.2859 -0.2483 -0.9532
 6299SOL     OW19836   1.548   5.620   5.363  0.9726 -1.2543 -0.0198
 6299SOL    HW119837   1.484   5.549   5.375 -0.2576 -0.3884 -1.2147
 6299SOL    HW219838   1.528   5.656   5.277  2.5546 -0.4068 -0.0652
 6300SOL     OW19839   0.302   6.327   4.163 -0.0438 -0.0953 -0.0278
 6300SOL    HW119840   0.364   6.343   4.092 -0.2677 -0.0248 -0.2097
 6300SOL    HW219841   0.328   6.242   4.200 -0.2008 -0.3421 -0.4812
 6301SOL     OW19842   1.505   3.935   1.612 -0.0320  0.0328 -0.9221
 6301SOL    HW119843   1.534   3.986   1.536  0.3285  0.6835 -0.3531
 6301SOL    HW219844   1.411   3.947   1.614  0.0948  1.0270 -0.5466
 6302SOL     OW19845   0.891   6.550   5.100 -0.2056  0.4562  0.6696
 6302SOL    HW119846   0.905   6.614   5.031 -0.9692  0.7133  0.7516
 6302SOL    HW219847   0.862   6.471   5.055 -0.2315  0.4740  0.6552
 6303SOL     OW19848   2.969   0.685   0.600  0.1516  0.2620 -0.1709
 6303SOL    HW119849   3.003   0.769   0.630 -1.3416  1.0257 -0.4951
 6303SOL    HW219850   2.981   0.626   0.675  0.6730  0.9235  0.2717
 6304SOL     OW19851   6.984   0.992   5.367 -0.1188 -0.2376 -0.5480
 6304SOL    HW119852   6.900   0.971   5.327 -0.6935 -0.8474  0.9239
 6304SOL    HW219853   7.009   0.913   5.414  0.6983  0.3236 -0.0092
 6305SOL     OW19854   4.966   5.338   6.724  0.2648  0.2353 -0.0342
 6305SOL    HW119855   4.971   5.425   6.684  0.2579  0.6707  0.8880
 6305SOL    HW219856   4.891   5.296   6.682  1.0737  0.1590 -1.4539
 6306SOL     OW19857   6.288   3.895   6.893 -0.3808  0.5182 -0.3552
 6306SOL    HW119858   6.338   3.951   6.953 -0.1127 -0.9378  0.8473
 6306SOL    HW219859   6.338   3.813   6.889 -2.5121 -0.9465  0.8019
 6307SOL     OW19860   3.906   4.935   4.307  0.1247 -0.3047  0.2087
 6307SOL    HW119861   3.894   4.858   4.251 -0.7064  0.3119 -0.4857
 6307SOL    HW219862   3.971   4.989   4.262 -0.2436  0.0023  0.0425
 6308SOL     OW19863   4.178   0.518   0.666 -0.8171  0.1420  0.0196
 6308SOL    HW119864   4.240   0.591   0.678 -0.9232  0.4025 -0.9345
 6308SOL    HW219865   4.200   0.456   0.735 -0.7748  1.1183  0.8988
 6309SOL     OW19866   2.207   2.452   3.529  0.4902  0.1249  0.2495
 6309SOL    HW119867   2.271   2.387   3.559 -0.1713  0.5431  2.7575
 6309SOL    HW219868   2.198   2.512   3.602 -0.2519  2.0593 -1.3459
 6310SOL     OW19869   6.081   6.470   2.774 -0.0926 -0.0690  0.2190
 6310SOL    HW119870   6.078   6.440   2.684  1.5368  0.6564 -0.1122
 6310SOL    HW219871   6.031   6.551   2.775  0.5158  0.3209 -0.2226
 6311SOL     OW19872   3.961   7.167   0.512  0.6127 -0.0087  0.4380
 6311SOL    HW119873   4.030   7.172   0.446  0.0540 -0.3327 -0.1786
 6311SOL    HW219874   3.937   7.074   0.515  0.1138  0.1197  0.5507
 6312SOL     OW19875   0.959   2.975   4.358  0.6263  0.1980 -0.2975
 6312SOL    HW119876   0.927   2.942   4.442 -3.4422 -0.5450 -1.9273
 6312SOL    HW219877   0.928   3.065   4.354  2.5578  0.9261 -0.2894
 6313SOL     OW19878   5.558   4.341   5.290  0.7186 -0.4587 -0.2863
 6313SOL    HW119879   5.592   4.362   5.377  1.1646  0.1391 -0.5985
 6313SOL    HW219880   5.557   4.424   5.243  0.6626 -0.8068 -0.9163
 6314SOL     OW19881   2.934   7.372   5.908  0.6164  0.3285 -0.8197
 6314SOL    HW119882   2.902   7.289   5.873  0.9718 -0.3166  0.3126
 6314SOL    HW219883   2.910   7.370   6.001  2.2716  0.6493 -0.3432
 6315SOL     OW19884   6.344   1.951   6.011 -0.2796  0.1146 -0.1206
 6315SOL    HW119885   6.420   1.897   5.990 -0.4423 -0.4781  0.7710
 6315SOL    HW219886   6.382   2.034   6.041 -0.0266  0.4394 -1.2767
 6316SOL     OW19887   5.138   1.397   6.369  0.4357 -0.0845 -0.6999
 6316SOL    HW119888   5.076   1.424   6.301  1.0778 -1.5976 -1.9533
 6316SOL    HW219889   5.193   1.474   6.383  0.5295  0.1565 -2.2037
 6317SOL     OW19890   0.519   5.999   1.353 -0.0359  0.2615 -0.0496
 6317SOL    HW119891   0.528   6.088   1.318 -2.8575  1.4907  1.9425
 6317SOL    HW219892   0.597   5.953   1.323  1.4407  3.3421 -1.3527
 6318SOL     OW19893   4.475   0.478   5.446 -0.1006  0.1413 -0.4164
 6318SOL    HW119894   4.396   0.492   5.497  0.7776 -2.6324  1.9766
 6318SOL    HW219895   4.525   0.559   5.457 -1.3752  0.8432  0.3988
 6319SOL     OW19896   3.448   1.999   4.086  0.1680  0.0662  0.6300
 6319SOL    HW119897   3.373   1.962   4.040 -0.1139 -1.6383  2.3048
 6319SOL    HW219898   3.524   1.962   4.042  0.0464  1.1474 -0.5512
 6320SOL     OW19899   6.475   5.149   3.788 -0.6352 -0.2766 -0.0007
 6320SOL    HW119900   6.456   5.058   3.767  2.6471 -1.0279 -0.2969
 6320SOL    HW219901   6.528   5.144   3.868  0.0819  1.3128 -0.3355
 6321SOL     OW19902   4.263   3.797   1.143  0.2561 -0.0144 -0.4414
 6321SOL    HW119903   4.359   3.799   1.146  0.2386  0.6461  0.0445
 6321SOL    HW219904   4.242   3.708   1.117  1.0003 -0.2451 -0.2901
 6322SOL     OW19905   4.427   2.930   2.572  0.0939 -0.5951 -0.1752
 6322SOL    HW119906   4.497   2.964   2.627 -1.0381  0.9138  0.3891
 6322SOL    HW219907   4.350   2.980   2.597 -0.9598 -1.4489 -1.5570
 6323SOL     OW19908   0.019   1.990   4.058  0.8931 -0.6437  0.4812
 6323SOL    HW119909   0.008   1.984   3.963 -0.7679  0.0564  0.5913
 6323SOL    HW219910   0.063   2.074   4.072  1.0926 -0.7227  0.3310
 6324SOL     OW19911   1.671   5.693   4.890 -0.3622 -0.6178  0.2860
 6324SOL    HW119912   1.595   5.718   4.837  1.3323  5.5133  0.0321
 6324SOL    HW219913   1.645   5.712   4.980  0.0589 -1.1898  0.5386
 6325SOL     OW19914   2.513   4.517   1.190  0.5428 -0.5324 -0.3079
 6325SOL    HW119915   2.453   4.592   1.187 -2.0134 -2.4998 -1.0945
 6325SOL    HW219916   2.576   4.534   1.120  0.4614  1.1615 -0.0341
 6326SOL     OW19917   1.411   7.199   4.118 -0.7891 -0.4275 -0.2991
 6326SOL    HW119918   1.446   7.125   4.167 -1.3833 -0.1909  0.4914
 6326SOL    HW219919   1.316   7.190   4.123 -0.9457  1.5737  1.7048
 6327SOL     OW19920   3.241   6.663   2.234  0.4988 -0.5444 -0.3335
 6327SOL    HW119921   3.170   6.648   2.296  0.7413  0.6645  0.2698
 6327SOL    HW219922   3.294   6.732   2.274 -0.4886  1.8418 -2.8037
 6328SOL     OW19923   3.501   2.181   6.904 -0.0530  0.7167  0.8566
 6328SOL    HW119924   3.545   2.194   6.988  0.2932  0.2108  0.7571
 6328SOL    HW219925   3.531   2.096   6.874  0.9412  1.4944 -0.4646
 6329SOL     OW19926   0.033   4.394   4.529  0.0041  0.1416 -0.6029
 6329SOL    HW119927   0.105   4.396   4.592  0.0079 -0.8135 -0.5575
 6329SOL    HW219928   0.058   4.458   4.462  0.1481  0.9292  0.1984
 6330SOL     OW19929   0.209   2.851   5.604  0.7682 -0.0348  0.1854
 6330SOL    HW119930   0.127   2.900   5.599  0.0316 -1.2763 -3.6913
 6330SOL    HW219931   0.277   2.918   5.598 -0.0723  0.8226 -0.0124
 6331SOL     OW19932   4.306   4.833   6.237  0.9624  0.9786 -0.6611
 6331SOL    HW119933   4.399   4.816   6.250  1.1184  3.3754  3.2970
 6331SOL    HW219934   4.297   4.927   6.255 -2.3969  0.4488  1.3195
 6332SOL     OW19935   3.699   2.990   3.317 -0.1968  0.3154  0.1614
 6332SOL    HW119936   3.790   2.958   3.311 -0.7365 -1.2396 -0.4252
 6332SOL    HW219937   3.672   2.968   3.406  0.2126  1.4234  0.5686
 6333SOL     OW19938   6.889   6.093   6.702  0.8332 -1.0255  0.4721
 6333SOL    HW119939   6.794   6.101   6.692  0.6101 -1.5107  2.0042
 6333SOL    HW219940   6.913   6.021   6.644  0.1594 -1.3758  0.6177
 6334SOL     OW19941   1.259   5.916   3.857 -0.6570  0.0856  0.1939
 6334SOL    HW119942   1.353   5.928   3.848 -0.4822 -1.9575 -1.4544
 6334SOL    HW219943   1.225   6.004   3.871  1.5153  0.8065  1.4189
 6335SOL     OW19944   2.242   3.176   6.423  0.2769  0.1274  0.4722
 6335SOL    HW119945   2.252   3.100   6.365  0.0040  0.6281 -0.2522
 6335SOL    HW219946   2.149   3.198   6.419  0.4465  0.8385  0.2178
 6336SOL     OW19947   0.881   1.357   6.099 -0.0859 -0.2527  0.2628
 6336SOL    HW119948   0.975   1.370   6.082  0.3145 -2.0528  0.8478
 6336SOL    HW219949   0.877   1.332   6.191 -1.0752 -0.7091  0.1021
 6337SOL     OW19950   0.562   6.403   4.029  0.4596  0.8553  0.3635
 6337SOL    HW119951   0.642   6.437   4.069  0.5053  2.1316 -0.7323
 6337SOL    HW219952   0.576   6.414   3.935 -0.9744  1.0074  0.1446
 6338SOL     OW19953   5.501   2.557   2.141  0.5934  0.6329 -0.4504
 6338SOL    HW119954   5.546   2.585   2.221 -0.5053  0.1158  0.3772
 6338SOL    HW219955   5.409   2.551   2.166  0.1515  1.0005 -1.9201
 6339SOL     OW19956   4.644   1.036   3.047 -0.3938  0.0948  0.0618
 6339SOL    HW119957   4.613   1.112   2.998 -0.1552 -0.4223 -0.9276
 6339SOL    HW219958   4.593   0.963   3.012  1.0808 -0.5809 -0.7858
 6340SOL     OW19959   1.216   3.247   0.659 -0.3824 -0.1204 -0.1363
 6340SOL    HW119960   1.222   3.246   0.754  1.7816 -0.5263 -0.2324
 6340SOL    HW219961   1.215   3.155   0.634 -0.3186 -0.0156 -0.5308
 6341SOL     OW19962   5.086   2.357   2.301 -0.4935 -0.2573  0.2234
 6341SOL    HW119963   5.113   2.439   2.259 -0.0991  0.3166  1.5652
 6341SOL    HW219964   5.008   2.331   2.252  1.0594 -0.7122 -2.2177
 6342SOL     OW19965   6.149   0.833   2.024 -0.2532 -0.0763  0.0425
 6342SOL    HW119966   6.221   0.820   1.963 -0.2858  0.5439 -0.1354
 6342SOL    HW219967   6.169   0.915   2.068 -1.1395  0.3967 -0.4172
 6343SOL     OW19968   2.779   4.080   2.872  0.5040 -0.0386 -0.1246
 6343SOL    HW119969   2.726   4.000   2.877  1.7962 -0.9296 -0.0908
 6343SOL    HW219970   2.722   4.149   2.906 -0.3028 -1.1266  0.8145
 6344SOL     OW19971   3.916   4.513   5.513 -0.0297  0.0096  0.0717
 6344SOL    HW119972   3.944   4.434   5.467  0.9833  0.0158  0.6590
 6344SOL    HW219973   3.974   4.519   5.589 -0.4443  1.0283  0.3298
 6345SOL     OW19974   0.810   5.495   7.221  0.4188 -0.5025  0.2738
 6345SOL    HW119975   0.896   5.459   7.202  0.2060 -0.6826 -0.3678
 6345SOL    HW219976   0.827   5.586   7.247  0.8775 -0.7994  1.0460
 6346SOL     OW19977   2.942   6.462   2.203  0.3370  0.0008 -0.3443
 6346SOL    HW119978   2.964   6.542   2.156  0.2116 -0.4458 -1.1694
 6346SOL    HW219979   2.895   6.408   2.140 -0.8370 -0.1504  0.6205
 6347SOL     OW19980   4.710   1.824   0.584 -0.8157 -0.7878 -0.0815
 6347SOL    HW119981   4.706   1.919   0.589 -0.8129 -0.8277  0.8426
 6347SOL    HW219982   4.694   1.804   0.492 -0.0516  0.1467 -0.4338
 6348SOL     OW19983   2.703   4.399   1.645 -0.1464 -0.3750  0.1701
 6348SOL    HW119984   2.650   4.368   1.572  1.0756  0.1582 -0.9868
 6348SOL    HW219985   2.785   4.351   1.637  1.0456  1.6549 -0.5033
 6349SOL     OW19986   2.964   5.370   1.135 -0.7298  0.7184  0.1019
 6349SOL    HW119987   3.013   5.437   1.183 -2.7063  0.9811  1.9280
 6349SOL    HW219988   2.935   5.413   1.055 -0.7620  1.5939  0.5782
 6350SOL     OW19989   5.195   3.348   6.167  0.5904  0.1575  0.4902
 6350SOL    HW119990   5.259   3.344   6.097 -0.0213 -0.7791 -0.0371
 6350SOL    HW219991   5.223   3.281   6.229 -0.6460 -1.2651 -0.4381
 6351SOL     OW19992   5.820   2.768   5.524 -0.5734  0.0901  0.2779
 6351SOL    HW119993   5.830   2.760   5.429 -1.5669 -0.7593  0.2220
 6351SOL    HW219994   5.757   2.699   5.547  0.5067 -0.4742  1.7144
 6352SOL     OW19995   3.168   3.666   5.656  0.4881  0.0772 -0.0755
 6352SOL    HW119996   3.235   3.669   5.589  1.8670  1.1009  1.2858
 6352SOL    HW219997   3.194   3.593   5.713  0.8831  0.8937  0.8358
 6353SOL     OW19998   1.115   2.228   7.320  0.4465  0.5734  0.0315
 6353SOL    HW119999   1.063   2.234   7.239  0.1276  0.7473  0.2472
 6353SOL    HW220000   1.146   2.137   7.321 -0.7966  0.1278  0.4645
 6354SOL     OW20001   3.594   1.073   4.067  0.3009  0.0073  0.6776
 6354SOL    HW120002   3.597   0.982   4.095  1.3893  0.4055  1.9639
 6354SOL    HW220003   3.609   1.069   3.972 -2.4618 -1.3079  0.2118
 6355SOL     OW20004   0.755   2.228   2.265  0.0633  0.0056 -0.5832
 6355SOL    HW120005   0.778   2.293   2.330  0.4977 -0.0377 -0.6944
 6355SOL    HW220006   0.819   2.158   2.276  0.0291 -0.0841 -0.9334
 6356SOL     OW20007   4.401   2.477   2.449  0.4076  0.3911  0.0039
 6356SOL    HW120008   4.417   2.471   2.544  1.7441 -1.0196 -0.2691
 6356SOL    HW220009   4.364   2.564   2.437 -1.9490 -0.1945  2.0985
 6357SOL     OW20010   3.758   5.916   4.194  0.0186  0.1180  0.2091
 6357SOL    HW120011   3.732   5.882   4.108  0.0689 -0.2722  0.3438
 6357SOL    HW220012   3.702   5.868   4.255  0.4633 -0.1088  0.4398
 6358SOL     OW20013   0.850   5.014   6.002  0.3004 -0.1942 -0.3654
 6358SOL    HW120014   0.822   5.093   5.956  1.4236 -0.6646 -1.9122
 6358SOL    HW220015   0.788   5.006   6.075 -0.7110  1.3119 -1.0138
 6359SOL     OW20016   5.738   6.447   4.640 -0.1205 -0.1395 -0.1685
 6359SOL    HW120017   5.800   6.512   4.674 -1.0100  0.9565 -0.5907
 6359SOL    HW220018   5.762   6.366   4.685 -0.4150  0.9606  2.1475
 6360SOL     OW20019   0.334   1.355   2.197  0.5346  0.0211 -0.6433
 6360SOL    HW120020   0.404   1.346   2.133  1.0295  0.9140 -0.2523
 6360SOL    HW220021   0.363   1.427   2.254 -1.1833  1.1756 -1.1251
 6361SOL     OW20022   1.901   2.466   6.900  0.5003 -0.1032 -0.6696
 6361SOL    HW120023   1.846   2.398   6.939 -2.0588  1.9290 -0.4314
 6361SOL    HW220024   1.963   2.488   6.970 -1.1717  0.4225  0.7438
 6362SOL     OW20025   0.810   6.514   5.613 -0.5443  0.1028 -0.1556
 6362SOL    HW120026   0.794   6.516   5.519 -1.0062  0.4010 -0.0750
 6362SOL    HW220027   0.803   6.606   5.641 -0.5113  0.0049  0.1830
 6363SOL     OW20028   0.438   5.406   1.126  0.5276  0.3287 -0.4654
 6363SOL    HW120029   0.522   5.364   1.111  0.6250  0.5601 -0.5671
 6363SOL    HW220030   0.373   5.344   1.093  0.3371 -1.8003  3.2776
 6364SOL     OW20031   5.140   4.613   7.247  0.0458  0.6527  0.2182
 6364SOL    HW120032   5.179   4.620   7.160  1.1764 -0.9243  0.5727
 6364SOL    HW220033   5.077   4.541   7.239  1.1911 -0.4663  1.0509
 6365SOL     OW20034   6.789   3.705   2.056  0.4502 -0.1509  0.4253
 6365SOL    HW120035   6.730   3.757   2.110 -0.9622 -1.1583 -0.0744
 6365SOL    HW220036   6.864   3.686   2.113  0.1250  0.8392  1.2060
 6366SOL     OW20037   0.845   5.443   6.510  0.0694  0.4182 -0.2406
 6366SOL    HW120038   0.900   5.449   6.432  0.4524 -0.7249 -0.0735
 6366SOL    HW220039   0.906   5.456   6.583 -0.2022  0.9907 -0.1150
 6367SOL     OW20040   6.954   0.267   5.720  0.0076  0.7512 -0.3368
 6367SOL    HW120041   6.983   0.290   5.809 -1.4480  1.1744  0.0517
 6367SOL    HW220042   6.890   0.335   5.698  1.1630  1.3052 -2.1730
 6368SOL     OW20043   5.323   4.253   3.338 -0.4299 -0.3760 -0.0581
 6368SOL    HW120044   5.401   4.308   3.344 -1.6661  1.3353  1.4057
 6368SOL    HW220045   5.341   4.193   3.266  2.3933 -0.3300  0.5116
 6369SOL     OW20046   2.613   4.662   3.218 -0.4566 -0.5061  0.0309
 6369SOL    HW120047   2.608   4.751   3.183 -0.9244  0.4812  2.4151
 6369SOL    HW220048   2.548   4.613   3.168 -1.5723  0.9905 -0.0596
 6370SOL     OW20049   2.465   0.925   2.720 -0.4388  0.3677  0.2348
 6370SOL    HW120050   2.543   0.926   2.664  0.9526 -1.7634  1.9785
 6370SOL    HW220051   2.450   0.833   2.740 -1.9956  0.9123  1.8705
 6371SOL     OW20052   4.684   2.864   0.493 -0.0120 -0.4803  0.2099
 6371SOL    HW120053   4.705   2.954   0.517 -0.7336 -0.5567  1.2112
 6371SOL    HW220054   4.589   2.864   0.483 -0.2043 -1.4458  1.7235
 6372SOL     OW20055   5.047   6.014   3.027  0.2915  0.4186  0.0314
 6372SOL    HW120056   5.136   5.990   3.000  0.1356 -1.0184  0.7002
 6372SOL    HW220057   4.991   5.971   2.963  0.0606  0.6602  0.0729
 6373SOL     OW20058   6.654   4.147   3.645 -0.3427  0.1488 -0.3959
 6373SOL    HW120059   6.559   4.156   3.648 -0.2806  1.0248 -0.9271
 6373SOL    HW220060   6.668   4.055   3.621 -1.0636  0.1957 -1.0294
 6374SOL     OW20061   3.414   1.309   5.323 -0.4436  0.1250  0.1104
 6374SOL    HW120062   3.497   1.319   5.276 -0.8809  0.3535 -0.6320
 6374SOL    HW220063   3.437   1.260   5.402  0.2846 -0.3961 -0.4096
 6375SOL     OW20064   5.023   4.672   1.077 -0.3970 -0.0500  0.3743
 6375SOL    HW120065   5.105   4.717   1.055 -0.9388  0.6119 -0.3861
 6375SOL    HW220066   5.009   4.691   1.169 -0.2580  0.7875  0.2358
 6376SOL     OW20067   1.372   3.185   2.136 -0.1880 -0.3794 -0.0021
 6376SOL    HW120068   1.327   3.148   2.212  0.8368  1.1697  1.4190
 6376SOL    HW220069   1.458   3.143   2.136 -0.2008 -0.4087 -0.3397
 6377SOL     OW20070   2.304   0.490   7.287  0.0192  0.6361  0.4136
 6377SOL    HW120071   2.230   0.508   7.346  0.1802 -0.9807  1.1987
 6377SOL    HW220072   2.328   0.399   7.307  2.7295  1.3368  0.7559
 6378SOL     OW20073   0.614   5.592   3.819  0.6907 -0.0731  0.4525
 6378SOL    HW120074   0.539   5.625   3.868  0.4448  0.5873 -0.3422
 6378SOL    HW220075   0.683   5.580   3.884  0.3070  0.5852  0.9866
 6379SOL     OW20076   4.606   5.661   7.012 -0.3819 -0.2892 -0.0154
 6379SOL    HW120077   4.686   5.663   6.959 -0.2731 -0.1349  0.1507
 6379SOL    HW220078   4.637   5.634   7.099 -0.2948  1.0762  0.4075
 6380SOL     OW20079   1.967   4.454   5.320 -0.2744  0.1650 -0.3031
 6380SOL    HW120080   2.025   4.517   5.277 -0.2503  0.7911  0.6106
 6380SOL    HW220081   1.883   4.463   5.274  0.1732 -0.3264 -1.2441
 6381SOL     OW20082   6.918   0.069   3.197  0.2265 -0.2930  0.3416
 6381SOL    HW120083   6.879   0.113   3.273  0.6300  1.5415 -0.4436
 6381SOL    HW220084   6.918  -0.023   3.220 -1.3695  0.0070  1.8024
 6382SOL     OW20085   6.863   6.505   2.264  0.0904  0.9090 -0.4757
 6382SOL    HW120086   6.840   6.453   2.341 -0.7554  0.8668 -0.7394
 6382SOL    HW220087   6.908   6.582   2.298 -2.1817  1.9814  0.2688
 6383SOL     OW20088   3.822   5.109   4.883  0.2651 -0.1967 -0.0618
 6383SOL    HW120089   3.917   5.104   4.883  0.3050  0.3755 -0.6594
 6383SOL    HW220090   3.803   5.201   4.861 -0.4234 -0.4948 -0.7722
 6384SOL     OW20091   0.092   6.047   4.400  0.2078 -0.1417 -0.1477
 6384SOL    HW120092   0.098   6.053   4.496 -0.5099  0.4694 -0.1394
 6384SOL    HW220093   0.169   5.996   4.375  0.8901  0.4566  0.6766
 6385SOL     OW20094   4.199   4.649   4.378  0.3638 -0.0144  0.3951
 6385SOL    HW120095   4.287   4.683   4.398  0.9469 -0.7072 -0.8855
 6385SOL    HW220096   4.150   4.663   4.459  1.0476  2.2885  0.4970
 6386SOL     OW20097   1.129   0.391   2.861 -0.9624  0.0147  0.3891
 6386SOL    HW120098   1.037   0.393   2.887 -0.5303 -0.2342  2.0030
 6386SOL    HW220099   1.175   0.358   2.938  0.6361  1.4458  0.0847
 6387SOL     OW20100   5.855   3.773   5.921 -0.0014  0.1897 -0.3918
 6387SOL    HW120101   5.930   3.720   5.948 -1.9617 -3.0662 -0.7746
 6387SOL    HW220102   5.810   3.719   5.856 -1.9673  2.5850 -1.1545
 6388SOL     OW20103   7.354   1.128   5.911 -0.3857 -0.0418  0.1653
 6388SOL    HW120104   7.337   1.223   5.910  0.0696  0.0419  0.1541
 6388SOL    HW220105   7.367   1.106   5.819  1.0593  0.1775  0.2977
 6389SOL     OW20106   5.983   3.986   6.571 -0.1394  0.1755 -0.4314
 6389SOL    HW120107   5.973   3.991   6.476 -1.5353  0.7750 -0.2793
 6389SOL    HW220108   6.052   4.049   6.591 -0.9045  1.1963 -0.9164
 6390SOL     OW20109   1.966   2.805   4.241  0.0103 -0.2477  0.0079
 6390SOL    HW120110   1.990   2.897   4.240 -2.6069  0.6962  3.9236
 6390SOL    HW220111   1.880   2.802   4.200 -0.5012 -0.6886  1.0811
 6391SOL     OW20112   4.587   0.938   3.523  0.0733 -0.2663  0.3297
 6391SOL    HW120113   4.584   1.033   3.537 -1.4404  0.0136 -1.5089
 6391SOL    HW220114   4.500   0.908   3.550 -0.8769 -0.5056 -2.6860
 6392SOL     OW20115   5.460   0.104   1.423  0.4615 -0.3994  0.3697
 6392SOL    HW120116   5.411   0.115   1.504 -0.7478 -0.6165 -0.3182
 6392SOL    HW220117   5.407   0.147   1.356  2.2671  1.3124 -0.0645
 6393SOL     OW20118   6.157   7.301   4.276 -0.2334 -1.0116  0.0321
 6393SOL    HW120119   6.111   7.226   4.241 -2.0249 -0.1081  0.3344
 6393SOL    HW220120   6.199   7.342   4.200  1.7867 -2.9008  0.0219
 6394SOL     OW20121   6.357   6.589   1.095 -0.2910 -0.4654  0.3908
 6394SOL    HW120122   6.440   6.633   1.074 -1.6887  1.9822 -0.4387
 6394SOL    HW220123   6.381   6.497   1.105  2.6239  0.2234  0.8523
 6395SOL     OW20124   3.897   5.774   6.976 -0.2213 -0.3831 -0.1493
 6395SOL    HW120125   3.828   5.731   7.027 -0.4385  0.4873  0.3141
 6395SOL    HW220126   3.914   5.714   6.903 -1.0841 -0.8683  0.0337
 6396SOL     OW20127   0.281   6.540   6.406 -0.2677 -0.7774 -0.3615
 6396SOL    HW120128   0.376   6.551   6.400 -0.0177 -2.3877  0.2282
 6396SOL    HW220129   0.266   6.515   6.497 -1.1439 -1.5639 -0.7139
 6397SOL     OW20130   4.045   0.928   2.464  0.0656  0.8006  0.0161
 6397SOL    HW120131   3.952   0.945   2.479 -0.1661 -0.9298  0.8302
 6397SOL    HW220132   4.089   0.973   2.536 -0.4465 -0.9969  1.5403
 6398SOL     OW20133   3.429   6.843   3.263 -0.1348 -0.1465  0.7166
 6398SOL    HW120134   3.344   6.857   3.305 -0.9978 -2.1279 -0.1873
 6398SOL    HW220135   3.434   6.910   3.195 -1.3757 -0.4992  0.2524
 6399SOL     OW20136   3.440   2.954   3.854 -0.7236 -0.5310  0.4581
 6399SOL    HW120137   3.427   3.033   3.907 -1.3685 -0.3817  0.0905
 6399SOL    HW220138   3.507   2.979   3.790 -0.5150 -0.4605  0.7039
 6400SOL     OW20139   0.132   1.675   1.661  0.7693  0.2716 -0.1593
 6400SOL    HW120140   0.081   1.710   1.734 -1.8088  1.2589 -2.3176
 6400SOL    HW220141   0.181   1.750   1.627 -0.3538  0.5476 -1.2402
 6401SOL     OW20142   1.116   3.977   5.832 -0.5264  0.3034  1.2276
 6401SOL    HW120143   1.171   4.053   5.851 -0.6936  0.6955  0.2140
 6401SOL    HW220144   1.163   3.903   5.870  0.6545  0.6411  0.4790
 6402SOL     OW20145   1.860   4.654   3.358 -0.3044  0.1001  0.0580
 6402SOL    HW120146   1.898   4.568   3.337 -0.9087 -0.6590  1.9214
 6402SOL    HW220147   1.936   4.710   3.373  0.1195 -0.7023  1.0285
 6403SOL     OW20148   5.790   5.010   7.222 -0.7653 -0.1453  0.0727
 6403SOL    HW120149   5.860   4.954   7.254 -0.9521 -0.3461  0.1350
 6403SOL    HW220150   5.803   5.014   7.127 -0.3157  0.3063  0.1487
 6404SOL     OW20151   0.082   1.668   0.916 -0.6085 -0.3716 -0.2208
 6404SOL    HW120152   0.160   1.623   0.948 -0.7555 -0.3572  0.1749
 6404SOL    HW220153   0.031   1.601   0.873 -1.1383 -0.7467  0.9399
 6405SOL     OW20154   4.586   0.670   3.282 -0.4162 -0.4274  0.2307
 6405SOL    HW120155   4.578   0.578   3.257  0.5951 -0.7757  1.1213
 6405SOL    HW220156   4.672   0.676   3.324 -1.1535  0.5809  1.6830
 6406SOL     OW20157   6.635   7.212   1.431 -0.6335  0.4708 -0.8202
 6406SOL    HW120158   6.689   7.247   1.501  0.6780 -2.0750 -0.4368
 6406SOL    HW220159   6.672   7.249   1.351  0.3469  0.3827 -0.4180
 6407SOL     OW20160   6.454   3.907   2.573  1.0266  0.1461  0.3442
 6407SOL    HW120161   6.434   3.817   2.549  0.8003  0.3832 -0.3701
 6407SOL    HW220162   6.429   3.914   2.665  0.1788 -0.2597  0.1484
 6408SOL     OW20163   5.612   3.239   2.687  0.0599 -0.2741  0.2066
 6408SOL    HW120164   5.547   3.169   2.687  0.4264 -0.6201  0.8246
 6408SOL    HW220165   5.578   3.304   2.748  0.0754 -0.2436  0.1831
 6409SOL     OW20166   2.608   6.669   5.278  0.4209  0.2011 -0.2215
 6409SOL    HW120167   2.684   6.726   5.294  0.5353 -0.0887  0.3105
 6409SOL    HW220168   2.602   6.662   5.183 -0.3875  2.1609 -0.3488
 6410SOL     OW20169   5.770   2.050   5.407 -0.6936 -0.0164  0.1585
 6410SOL    HW120170   5.860   2.037   5.379 -0.6846 -1.4346  0.7653
 6410SOL    HW220171   5.777   2.080   5.497 -0.8060 -3.5140  1.4739
 6411SOL     OW20172   2.865   1.177   1.163 -0.6008 -0.3432  0.3714
 6411SOL    HW120173   2.959   1.173   1.146 -0.8417  0.1238 -1.3302
 6411SOL    HW220174   2.840   1.087   1.181  0.2847 -0.3590  1.6504
 6412SOL     OW20175   7.208   4.584   4.722  0.1125 -0.2182  0.0445
 6412SOL    HW120176   7.117   4.562   4.704  0.6163 -4.4725  1.5978
 6412SOL    HW220177   7.206   4.633   4.804 -0.7701  0.8516 -0.5816
 6413SOL     OW20178   5.896   5.966   2.191  0.0742 -0.1275 -0.1727
 6413SOL    HW120179   5.819   5.909   2.192  0.1700 -0.3347 -1.5897
 6413SOL    HW220180   5.962   5.920   2.243  0.8853 -2.4728 -2.9770
 6414SOL     OW20181   5.315   6.446   1.925  0.0037  0.6379  0.4001
 6414SOL    HW120182   5.355   6.508   1.986  1.5180 -0.2087  0.3156
 6414SOL    HW220183   5.315   6.362   1.972 -1.9087  0.6316  0.4690
 6415SOL     OW20184   1.772   0.699   1.232  0.4923 -0.1536  0.4907
 6415SOL    HW120185   1.815   0.703   1.317  1.4173 -0.0948  0.0344
 6415SOL    HW220186   1.811   0.771   1.182 -0.7314  0.4260  0.3208
 6416SOL     OW20187   7.357   6.248   2.958 -0.2979 -0.0007  0.2324
 6416SOL    HW120188   7.263   6.260   2.943 -0.4791 -2.2207 -0.9230
 6416SOL    HW220189   7.364   6.157   2.987  1.5142  0.1161  0.2456
 6417SOL     OW20190   1.417   7.027   0.180  0.0023 -0.7548  0.3752
 6417SOL    HW120191   1.375   7.085   0.243  0.4401 -1.3315  1.2178
 6417SOL    HW220192   1.507   7.061   0.172 -0.4914  0.2933 -1.1886
 6418SOL     OW20193   6.294   6.869   6.532  0.6934 -0.5216  0.3270
 6418SOL    HW120194   6.297   6.961   6.558  0.1166 -0.5804  0.6276
 6418SOL    HW220195   6.373   6.856   6.479 -0.6825  0.9331 -2.3006
 6419SOL     OW20196   3.378   5.977   0.650 -0.3654  0.0410 -0.6526
 6419SOL    HW120197   3.467   5.956   0.620 -0.1079  0.3682 -0.1343
 6419SOL    HW220198   3.347   6.044   0.590 -0.3470 -0.2250 -0.9645
 6420SOL     OW20199   1.899   4.930   6.498 -0.2046 -0.1205  0.6561
 6420SOL    HW120200   1.931   4.868   6.433  2.2140 -0.4459  2.0273
 6420SOL    HW220201   1.804   4.929   6.488 -0.1990 -3.2539 -0.0515
 6421SOL     OW20202   5.167   5.879   3.832 -0.6967  0.0043  0.6271
 6421SOL    HW120203   5.129   5.951   3.781  1.6463 -0.6058 -2.2414
 6421SOL    HW220204   5.259   5.877   3.806 -0.1689 -2.6373  2.3284
 6422SOL     OW20205   2.982   2.491   7.423 -0.3589 -0.2566 -0.3955
 6422SOL    HW120206   3.069   2.462   7.394 -0.4430  1.2697 -2.3532
 6422SOL    HW220207   2.923   2.466   7.352 -1.3176 -0.0771  0.3123
 6423SOL     OW20208   4.889   5.932   2.048  0.5745 -0.0275 -0.1218
 6423SOL    HW120209   4.874   5.904   2.138 -2.4030  0.7948 -0.2429
 6423SOL    HW220210   4.984   5.932   2.038  1.0185  0.1917  3.0849
 6424SOL     OW20211   7.029   6.559   6.940 -0.1173 -0.3965 -0.7738
 6424SOL    HW120212   6.954   6.544   6.883 -0.3891 -1.2121 -0.2271
 6424SOL    HW220213   7.005   6.634   6.993 -0.8108 -1.0121 -0.1936
 6425SOL     OW20214   5.901   6.126   5.386 -0.3979  0.0631  0.3299
 6425SOL    HW120215   5.955   6.164   5.317 -1.0733  1.8065  0.7208
 6425SOL    HW220216   5.932   6.035   5.393 -1.6578 -0.8609 -3.6032
 6426SOL     OW20217   1.861   1.768   6.032  0.0005 -0.4034  0.3372
 6426SOL    HW120218   1.821   1.781   6.118 -0.8652 -1.7943  0.1805
 6426SOL    HW220219   1.862   1.673   6.020  1.6432 -0.3146 -0.4975
 6427SOL     OW20220   2.653   1.888   7.409 -0.0922  0.6031 -0.0206
 6427SOL    HW120221   2.582   1.868   7.348  0.0289 -1.1734  0.3879
 6427SOL    HW220222   2.631   1.840   7.489  1.2201  0.5800  0.3538
 6428SOL     OW20223   4.151   1.617   7.025 -0.3957 -0.0002  0.4155
 6428SOL    HW120224   4.074   1.590   6.976  1.0464 -0.7205 -1.5741
 6428SOL    HW220225   4.121   1.621   7.116 -3.0590  0.9326 -0.4113
 6429SOL     OW20226   7.136   5.948   7.218  0.2219  0.6217 -0.7291
 6429SOL    HW120227   7.143   5.926   7.125  1.2650  2.8220 -1.2303
 6429SOL    HW220228   7.043   5.936   7.238  0.0658 -0.3525 -1.9092
 6430SOL     OW20229   5.715   2.488   2.308 -0.1859  0.2052  0.1676
 6430SOL    HW120230   5.675   2.458   2.390 -0.5105 -0.6900 -0.3104
 6430SOL    HW220231   5.722   2.583   2.318 -0.7380  0.1652  1.0034
 6431SOL     OW20232   4.502   0.057   4.948 -0.4683  0.2706 -0.6434
 6431SOL    HW120233   4.568   0.017   5.005 -1.7492  0.2712  0.9250
 6431SOL    HW220234   4.536   0.045   4.860  0.9512 -0.9611  0.0212
 6432SOL     OW20235   3.242   4.821   5.502  0.0765 -0.0737 -0.3049
 6432SOL    HW120236   3.311   4.886   5.513 -0.3348  0.2087  0.6784
 6432SOL    HW220237   3.161   4.872   5.500 -0.0664 -0.1720 -3.4668
 6433SOL     OW20238   6.398   5.604   6.966 -0.1137 -0.7743  0.4964
 6433SOL    HW120239   6.319   5.613   6.914  1.0049 -2.0838 -1.5638
 6433SOL    HW220240   6.456   5.674   6.935  0.5116 -1.4787  0.0306
 6434SOL     OW20241   1.301   2.764   2.657  0.1654 -0.2526  0.8558
 6434SOL    HW120242   1.262   2.844   2.693  0.2117  0.4046 -0.4906
 6434SOL    HW220243   1.245   2.742   2.583  2.1795  0.6567 -1.0796
 6435SOL     OW20244   0.972   1.492   5.794  0.4481 -0.3376 -0.0963
 6435SOL    HW120245   1.011   1.579   5.784  1.2189  0.1290  4.7005
 6435SOL    HW220246   0.888   1.508   5.836  0.3817 -1.9008  0.4117
 6436SOL     OW20247   1.312   1.998   5.715  0.2307 -0.5319  0.3292
 6436SOL    HW120248   1.248   2.011   5.644  0.6294 -0.2925  0.0079
 6436SOL    HW220249   1.369   1.929   5.683  1.5594  0.8533 -0.4129
 6437SOL     OW20250   1.307   6.803   1.195 -0.5593 -0.0490  0.5130
 6437SOL    HW120251   1.262   6.857   1.131 -0.7236 -2.0587 -1.1939
 6437SOL    HW220252   1.265   6.717   1.188  3.0936 -1.9866 -0.9593
 6438SOL     OW20253   2.706   1.305   6.317  0.5710 -0.1440  0.1122
 6438SOL    HW120254   2.783   1.263   6.279  0.2523 -0.2925 -0.3872
 6438SOL    HW220255   2.663   1.348   6.243  0.8185  0.9672  0.5945
 6439SOL     OW20256   5.726   3.800   0.075  0.2802  0.4311  0.3539
 6439SOL    HW120257   5.657   3.734   0.065  0.6918  0.1314 -0.6342
 6439SOL    HW220258   5.717   3.857  -0.001  0.3744  1.1106  0.8384
 6440SOL     OW20259   1.204   1.431   3.663 -0.5172  0.3021  0.2015
 6440SOL    HW120260   1.151   1.511   3.662 -1.6789 -0.4272  1.2727
 6440SOL    HW220261   1.273   1.448   3.728 -1.5660 -0.0249  1.4486
 6441SOL     OW20262   5.326   1.698   2.021  0.0762 -0.8867 -0.4387
 6441SOL    HW120263   5.252   1.738   2.068  1.0048 -0.9763  1.1822
 6441SOL    HW220264   5.321   1.605   2.044  0.3331 -0.9937 -0.8226
 6442SOL     OW20265   7.116   2.462   5.569 -0.1739  0.2076  0.2246
 6442SOL    HW120266   7.064   2.519   5.511 -0.8481  0.5004  1.0933
 6442SOL    HW220267   7.090   2.373   5.544 -0.1029  0.3137 -0.2404
 6443SOL     OW20268   7.273   5.318   2.672  0.2497 -0.1299  0.1559
 6443SOL    HW120269   7.251   5.306   2.579 -1.3958  2.2493  0.1715
 6443SOL    HW220270   7.240   5.239   2.715  0.4619 -0.9690 -1.1615
 6444SOL     OW20271   3.642   7.350   0.835 -0.0662  0.3040  0.2770
 6444SOL    HW120272   3.714   7.400   0.873  0.9024 -0.6397 -0.2434
 6444SOL    HW220273   3.642   7.267   0.882 -0.1818 -0.0769 -0.3797
 6445SOL     OW20274   5.433   3.457   4.139  0.5168  0.3347 -0.0933
 6445SOL    HW120275   5.510   3.514   4.144 -1.1450  2.8283 -0.6603
 6445SOL    HW220276   5.442   3.411   4.056  3.1673 -2.3637  1.5139
 6446SOL     OW20277   4.251   6.877   5.283 -0.0753 -0.3036  0.5656
 6446SOL    HW120278   4.337   6.836   5.283  0.0453 -0.0498  0.0245
 6446SOL    HW220279   4.265   6.962   5.243 -0.2775  0.3853  1.9001
 6447SOL     OW20280   3.130   2.083   6.363 -0.6626 -0.1844  0.5600
 6447SOL    HW120281   3.062   2.095   6.297  0.2383  0.1000 -0.3509
 6447SOL    HW220282   3.099   2.133   6.439 -1.2050  0.4136 -0.0369
 6448SOL     OW20283   7.318   6.359   4.825 -0.0333  0.0403  0.0051
 6448SOL    HW120284   7.275   6.440   4.855  0.1392  0.2406 -0.2839
 6448SOL    HW220285   7.379   6.338   4.896 -0.8537 -0.4439  0.5817
 6449SOL     OW20286   1.897   5.892   5.097  0.6350 -0.5915  0.1894
 6449SOL    HW120287   1.803   5.912   5.095  0.6845 -0.2036  1.3128
 6449SOL    HW220288   1.903   5.800   5.073 -0.1207 -0.8857  1.0911
 6450SOL     OW20289   1.059   2.220   4.229  0.6628 -0.6201 -0.2458
 6450SOL    HW120290   1.101   2.286   4.174  0.9603 -1.9215 -1.6730
 6450SOL    HW220291   1.123   2.202   4.298  0.3780  0.8851  0.4508
 6451SOL     OW20292   6.395   4.925   3.426  0.0213  0.6286  0.0451
 6451SOL    HW120293   6.437   4.891   3.505 -0.0433 -0.4226 -0.3589
 6451SOL    HW220294   6.448   5.000   3.401  1.1546 -0.1372  0.0556
 6452SOL     OW20295   6.785   1.760   5.745 -0.4299 -0.0406 -0.1413
 6452SOL    HW120296   6.765   1.746   5.653 -1.9552 -0.1884  0.1836
 6452SOL    HW220297   6.835   1.682   5.771 -1.1661 -0.6512 -0.5165
 6453SOL     OW20298   1.891   3.988   3.824  0.7748 -0.5664  0.1125
 6453SOL    HW120299   1.804   4.024   3.807  1.0775 -0.5403 -1.5337
 6453SOL    HW220300   1.945   4.064   3.842  0.5534 -0.5460  0.7024
 6454SOL     OW20301   0.474   3.345   1.772 -0.6689 -0.4211 -0.1570
 6454SOL    HW120302   0.564   3.374   1.757 -1.5124  1.9117 -1.0830
 6454SOL    HW220303   0.479   3.294   1.853  1.6095 -1.1250 -0.6436
 6455SOL     OW20304   6.698   6.301   6.006 -0.5862 -0.1849  0.4778
 6455SOL    HW120305   6.779   6.343   5.979 -0.2981 -0.7813  0.3975
 6455SOL    HW220306   6.629   6.361   5.977 -0.1476  0.9651  1.6681
 6456SOL     OW20307   1.627   2.025   5.559 -0.0879 -0.4629 -0.1683
 6456SOL    HW120308   1.712   1.982   5.562  0.5783  0.7954 -0.3768
 6456SOL    HW220309   1.645   2.112   5.525 -1.6519 -0.6268 -1.5833
 6457SOL     OW20310   5.933   5.489   3.444  0.0431 -0.2340  0.0888
 6457SOL    HW120311   6.025   5.495   3.470  0.1667  1.4633 -0.6383
 6457SOL    HW220312   5.885   5.532   3.514  0.0166  0.7603 -0.5178
 6458SOL     OW20313   1.642   4.079   3.775  0.0981 -0.3896 -0.2930
 6458SOL    HW120314   1.581   4.115   3.840 -0.1086 -1.3565  0.0772
 6458SOL    HW220315   1.586   4.054   3.701  0.2691  0.2687 -0.6425
 6459SOL     OW20316   7.111   1.157   3.051 -0.4985  0.3591 -0.2230
 6459SOL    HW120317   7.204   1.177   3.062 -0.1543 -0.7498 -0.8675
 6459SOL    HW220318   7.073   1.237   3.018  0.1273  0.9850  0.5234
 6460SOL     OW20319   1.478   2.398   6.765  0.2816 -0.5608  0.3098
 6460SOL    HW120320   1.453   2.490   6.775  0.1175 -0.5788  0.0581
 6460SOL    HW220321   1.556   2.400   6.709 -0.5301 -0.6661 -0.8625
 6461SOL     OW20322   0.833   1.705   4.374  0.2415 -0.0090 -0.0547
 6461SOL    HW120323   0.836   1.713   4.279 -2.8448  1.3117 -0.1403
 6461SOL    HW220324   0.746   1.669   4.393  0.1006  1.3644  2.3255
 6462SOL     OW20325   1.400   4.269   3.327  0.8452  0.0147  0.1481
 6462SOL    HW120326   1.380   4.325   3.252  2.8303  1.4497  0.5995
 6462SOL    HW220327   1.350   4.189   3.312 -0.3134  1.0285 -1.6937
 6463SOL     OW20328   5.007   3.758   6.441 -0.5339 -0.3249 -0.4305
 6463SOL    HW120329   5.098   3.785   6.426 -0.6416 -0.1336 -0.7421
 6463SOL    HW220330   5.015   3.677   6.492 -0.2367  0.8155  1.4324
 6464SOL     OW20331   5.456   5.163   6.889 -0.4520 -0.4196 -0.2797
 6464SOL    HW120332   5.478   5.210   6.969 -0.8731  1.6329 -1.3181
 6464SOL    HW220333   5.499   5.078   6.899  0.8135  0.3696  1.4228
 6465SOL     OW20334   4.999   1.723   3.139  0.3414 -0.1128  0.3640
 6465SOL    HW120335   5.059   1.651   3.155  0.7316  0.2027  0.3434
 6465SOL    HW220336   4.936   1.689   3.075  1.7558  0.2174 -1.2613
 6466SOL     OW20337   5.886   7.176   2.114 -0.2755 -0.5517  0.7158
 6466SOL    HW120338   5.837   7.174   2.196 -2.3508  2.1066 -0.2860
 6466SOL    HW220339   5.892   7.270   2.093  2.0694 -1.0298 -1.1231
 6467SOL     OW20340   4.911   6.211   1.181 -0.0690 -0.2538  0.0301
 6467SOL    HW120341   4.890   6.161   1.102 -0.3972 -0.2363  0.1052
 6467SOL    HW220342   4.838   6.272   1.191  0.4699  0.4275 -0.2152
 6468SOL     OW20343   6.741   5.404   0.374  0.4902  0.2836  0.0753
 6468SOL    HW120344   6.725   5.481   0.320  2.0006  0.3390 -0.3388
 6468SOL    HW220345   6.781   5.438   0.454 -0.5177  0.0791  0.6818
 6469SOL     OW20346   3.705   7.189   4.610 -0.3428 -0.0849 -0.2360
 6469SOL    HW120347   3.771   7.125   4.583 -0.2012  0.8048 -2.2076
 6469SOL    HW220348   3.625   7.161   4.566 -0.4462  0.6964 -0.5531
 6470SOL     OW20349   4.242   4.256   7.053 -0.3577 -0.3075 -0.3006
 6470SOL    HW120350   4.254   4.173   7.098 -0.6494  0.3107  0.9682
 6470SOL    HW220351   4.212   4.316   7.121 -1.6900  0.4523 -1.5085
 6471SOL     OW20352   7.363   6.204   3.903 -0.2302 -0.3653 -0.2093
 6471SOL    HW120353   7.345   6.179   3.813  0.8965  0.9767 -0.8240
 6471SOL    HW220354   7.456   6.186   3.916 -0.7828 -2.5752  1.4051
 6472SOL     OW20355   4.862   5.081   4.954 -0.3270 -0.4593 -0.1507
 6472SOL    HW120356   4.780   5.129   4.961 -1.0327 -1.0819 -2.8261
 6472SOL    HW220357   4.905   5.094   5.038 -1.2763  3.3124 -0.0708
 6473SOL     OW20358   4.617   4.078   2.329 -0.2892  0.9398  0.0164
 6473SOL    HW120359   4.601   4.027   2.408 -0.4680  1.3781  0.2667
 6473SOL    HW220360   4.616   4.169   2.358 -0.3892  1.1073 -0.4965
 6474SOL     OW20361   7.219   1.707   7.381  0.2296 -0.2478  0.2494
 6474SOL    HW120362   7.303   1.707   7.335  1.5176 -2.2707  2.3690
 6474SOL    HW220363   7.195   1.614   7.386 -1.9776  0.2571  0.0594
 6475SOL     OW20364   2.004   4.718   7.198 -0.5484 -0.1306 -0.1686
 6475SOL    HW120365   2.054   4.793   7.165 -1.8016  0.4302 -0.8523
 6475SOL    HW220366   2.070   4.649   7.209  0.2671  0.3161 -1.8612
 6476SOL     OW20367   6.112   1.748   1.782 -0.3638  0.0580 -0.2791
 6476SOL    HW120368   6.150   1.685   1.844  1.5043  0.1234 -1.2864
 6476SOL    HW220369   6.031   1.707   1.753  0.2034 -1.3334 -0.0010
 6477SOL     OW20370   6.575   0.542   4.538  0.1442  0.3988 -0.4192
 6477SOL    HW120371   6.552   0.523   4.629 -2.6717  2.1806 -0.6695
 6477SOL    HW220372   6.668   0.520   4.533  0.2591 -0.3717  2.6985
 6478SOL     OW20373   6.849   3.009   2.575 -0.5745  0.2176  0.2951
 6478SOL    HW120374   6.891   3.094   2.561 -2.5244  1.2163  0.1557
 6478SOL    HW220375   6.892   2.973   2.653  0.0727  1.4801  0.5404
 6479SOL     OW20376   4.259   1.266   2.051  0.3421  0.6680  0.7614
 6479SOL    HW120377   4.237   1.173   2.062  2.0549  0.0711 -0.4339
 6479SOL    HW220378   4.174   1.310   2.047 -0.6818 -1.2441 -1.7955
 6480SOL     OW20379   2.107   2.882   6.948 -0.1564  0.5689  0.2397
 6480SOL    HW120380   2.154   2.900   7.029  1.3290 -2.6942  0.2499
 6480SOL    HW220381   2.016   2.869   6.976  0.6407 -2.4809  1.8464
 6481SOL     OW20382   2.425   2.065   0.752 -0.4446  0.0233  0.1334
 6481SOL    HW120383   2.379   2.114   0.821 -1.4472  0.4464 -0.8055
 6481SOL    HW220384   2.512   2.105   0.749 -0.1866 -0.3758  1.5201
 6482SOL     OW20385   6.654   1.317   5.895 -0.5396 -0.4223  0.0818
 6482SOL    HW120386   6.566   1.294   5.866 -1.0970  2.2633 -0.6123
 6482SOL    HW220387   6.654   1.297   5.989 -1.5474 -1.3232 -0.0896
 6483SOL     OW20388   1.823   4.718   1.960  0.2920 -0.0742  0.4364
 6483SOL    HW120389   1.839   4.806   1.928  1.7225 -0.8844 -1.2803
 6483SOL    HW220390   1.908   4.674   1.952 -0.7204 -2.0320 -0.2723
 6484SOL     OW20391   0.724   6.752   5.661 -0.0478 -0.4060  0.6552
 6484SOL    HW120392   0.656   6.711   5.715 -1.0259  0.4624  0.1159
 6484SOL    HW220393   0.708   6.846   5.668 -1.5262 -0.2491 -2.6864
 6485SOL     OW20394   4.788   3.091   3.281 -0.4708 -0.1074  0.4312
 6485SOL    HW120395   4.873   3.124   3.308 -1.9294  3.7099  1.0445
 6485SOL    HW220396   4.736   3.091   3.361 -1.6721 -0.0143 -0.3173
 6486SOL     OW20397   6.797   5.835   3.514 -0.0411  0.0070 -0.0150
 6486SOL    HW120398   6.880   5.804   3.477 -1.0171  0.4238 -2.8251
 6486SOL    HW220399   6.732   5.811   3.448 -1.8139  1.8634  0.9598
 6487SOL     OW20400   0.818   4.768   4.312 -0.6775 -0.0234 -0.8407
 6487SOL    HW120401   0.821   4.861   4.289 -0.3372 -0.1298 -1.2327
 6487SOL    HW220402   0.902   4.751   4.354 -0.6328 -0.2133 -1.0078
 6488SOL     OW20403   2.416   4.322   4.637 -0.1353  0.2047  0.5499
 6488SOL    HW120404   2.341   4.336   4.694 -1.2847  2.2573 -1.2957
 6488SOL    HW220405   2.382   4.271   4.563  0.5361  0.2694  0.1808
 6489SOL     OW20406   2.164   3.859   3.639  0.2033 -0.0187  0.2390
 6489SOL    HW120407   2.089   3.823   3.686 -0.4153  1.1627  0.2054
 6489SOL    HW220408   2.204   3.920   3.701 -0.1169  0.9185 -0.4478
 6490SOL     OW20409   3.064   0.245   6.142  0.7396  0.0972 -0.3827
 6490SOL    HW120410   2.986   0.300   6.133  0.2361 -0.3255  1.1649
 6490SOL    HW220411   3.029   0.157   6.158  1.5319 -0.0460  0.6096
 6491SOL     OW20412   6.889   1.593   0.909 -0.0290 -0.1627 -0.3884
 6491SOL    HW120413   6.876   1.512   0.958 -0.5579  0.0396 -0.1832
 6491SOL    HW220414   6.947   1.645   0.964 -2.1882  0.8888  1.0509
 6492SOL     OW20415   5.881   2.358   6.295 -0.7365  0.0726 -0.3913
 6492SOL    HW120416   5.805   2.362   6.353 -1.4366  0.0109 -1.2851
 6492SOL    HW220417   5.883   2.443   6.252 -0.4446 -0.0107 -0.5478
 6493SOL     OW20418   2.370   6.747   5.360 -0.8538  0.5863  0.0391
 6493SOL    HW120419   2.452   6.698   5.355 -0.3521  1.4719 -1.0006
 6493SOL    HW220420   2.361   6.769   5.453  0.3721  0.9167  0.1006
 6494SOL     OW20421   3.217   5.993   0.025  0.0414  1.0077  0.1975
 6494SOL    HW120422   3.122   5.985   0.020  0.1441  0.0075 -0.6972
 6494SOL    HW220423   3.237   6.078  -0.014 -0.5063  1.4123  0.7890
 6495SOL     OW20424   3.828   6.951   4.267 -0.3189 -0.3517  0.6621
 6495SOL    HW120425   3.807   7.025   4.210 -1.5178 -0.0899  1.4244
 6495SOL    HW220426   3.815   6.874   4.211  0.8312 -0.0167 -0.1037
 6496SOL     OW20427   4.109   5.760   2.470 -0.0993  0.4793 -0.1932
 6496SOL    HW120428   4.157   5.826   2.520  0.6452  1.3086 -1.9184
 6496SOL    HW220429   4.032   5.806   2.438 -0.1273  0.2093 -0.5180
 6497SOL     OW20430   5.051   4.602   3.023  0.4444  0.4957  0.3352
 6497SOL    HW120431   5.076   4.552   3.101  0.1751 -0.2314 -0.0393
 6497SOL    HW220432   4.978   4.656   3.052  0.4652  0.3659  0.6340
 6498SOL     OW20433   4.099   1.915   1.083  0.9053 -0.1589  0.5090
 6498SOL    HW120434   4.054   1.987   1.127  0.5446 -0.3854  0.5158
 6498SOL    HW220435   4.118   1.949   0.995  0.0704 -0.3055  0.2629
 6499SOL     OW20436   2.666   4.245   0.790 -0.7574 -0.5397  0.1446
 6499SOL    HW120437   2.754   4.283   0.799 -0.0666 -1.7185 -1.2000
 6499SOL    HW220438   2.610   4.319   0.767 -0.4287  0.4842  2.3085
 6500SOL     OW20439   7.236   4.250   1.675  0.8592 -0.0401 -0.1409
 6500SOL    HW120440   7.272   4.241   1.764 -0.1080 -0.2777  0.2464
 6500SOL    HW220441   7.284   4.323   1.636  0.5810  0.7522  0.9522
 6501SOL     OW20442   1.080   2.840   1.529 -0.9157  0.6175 -0.1323
 6501SOL    HW120443   1.128   2.912   1.570  0.8285 -0.1951 -0.6592
 6501SOL    HW220444   1.142   2.802   1.467 -2.4578 -0.1256 -1.2889
 6502SOL     OW20445   1.348   2.543   6.431 -0.1579  0.3882 -0.6762
 6502SOL    HW120446   1.412   2.546   6.503 -0.8077  0.5115 -0.0949
 6502SOL    HW220447   1.387   2.598   6.363  0.4839  0.2424 -0.4403
 6503SOL     OW20448   5.802   6.695   7.281  0.1064 -0.1029 -0.1559
 6503SOL    HW120449   5.825   6.741   7.201  0.6169 -0.0109  0.0388
 6503SOL    HW220450   5.706   6.687   7.278  0.2123 -1.2941 -1.4324
 6504SOL     OW20451   1.658   7.156   0.189  0.2184 -0.4834  0.1172
 6504SOL    HW120452   1.712   7.138   0.266  1.9020 -0.6281 -1.0342
 6504SOL    HW220453   1.689   7.240   0.156 -2.1019  0.7472  0.8848
 6505SOL     OW20454   3.073   5.297   5.377 -0.1871 -0.3294 -0.4176
 6505SOL    HW120455   3.102   5.218   5.423  1.2677 -0.3898 -1.3832
 6505SOL    HW220456   3.077   5.274   5.284  2.4303  1.4763 -0.8796
 6506SOL     OW20457   4.312   3.310   0.915  0.4016 -0.1547  0.0898
 6506SOL    HW120458   4.395   3.314   0.867 -0.9762  0.7218 -2.4396
 6506SOL    HW220459   4.327   3.247   0.985  3.0779 -0.2835 -0.4931
 6507SOL     OW20460   3.698   4.110   5.136 -0.1075 -0.1300  0.3236
 6507SOL    HW120461   3.741   4.108   5.050  1.5694 -1.5570  1.1591
 6507SOL    HW220462   3.610   4.075   5.119  1.1753 -3.2803 -0.3471
 6508SOL     OW20463   3.740   0.233   1.954 -0.3519 -0.1451  0.0973
 6508SOL    HW120464   3.705   0.151   1.989  0.8674 -0.9500 -0.5034
 6508SOL    HW220465   3.680   0.255   1.882 -2.8358  1.4911  2.4378
 6509SOL     OW20466   5.732   0.363   2.849  0.3053  0.1398  0.1850
 6509SOL    HW120467   5.736   0.315   2.766  1.0834 -0.9589  0.8280
 6509SOL    HW220468   5.782   0.309   2.910 -1.4380  0.2052  1.7525
 6510SOL     OW20469   1.730   4.987   2.667  0.0238  0.0759 -0.1225
 6510SOL    HW120470   1.749   4.954   2.755  2.8651  4.6744  1.2896
 6510SOL    HW220471   1.634   4.983   2.661 -0.2339 -0.9747  2.8957
 6511SOL     OW20472   5.959   5.836   0.269  0.1108 -0.5817 -0.5045
 6511SOL    HW120473   5.938   5.782   0.193 -3.0729 -0.2268 -0.0097
 6511SOL    HW220474   6.000   5.775   0.331 -1.8224 -2.1188 -0.6251
 6512SOL     OW20475   4.364   5.824   5.750 -0.3104  0.4790  0.2679
 6512SOL    HW120476   4.395   5.907   5.714 -2.6334  0.4128 -2.2259
 6512SOL    HW220477   4.269   5.826   5.736 -0.6666 -1.8629  1.7900
 6513SOL     OW20478   0.405   0.359   0.530 -0.4687  0.5722  0.4283
 6513SOL    HW120479   0.378   0.437   0.481  0.4273 -0.6591 -2.2208
 6513SOL    HW220480   0.400   0.288   0.467 -0.9270 -1.5128  2.6602
 6514SOL     OW20481   2.562   3.842   2.175 -0.6919 -0.0114 -0.5328
 6514SOL    HW120482   2.569   3.936   2.187 -1.2001  0.1893 -1.7365
 6514SOL    HW220483   2.545   3.830   2.082  1.6056 -1.3983 -0.8611
 6515SOL     OW20484   1.893   5.123   0.258 -0.2552  0.5802 -0.1059
 6515SOL    HW120485   1.885   5.028   0.253 -0.0322  0.5605 -0.0625
 6515SOL    HW220486   1.881   5.143   0.351 -1.4400  0.6953 -0.2568
 6516SOL     OW20487   0.721   5.533   4.074  0.1074  0.3657 -0.2847
 6516SOL    HW120488   0.814   5.516   4.090 -0.0857 -1.0258 -0.5390
 6516SOL    HW220489   0.675   5.476   4.135 -0.5877  1.1360 -0.0769
 6517SOL     OW20490   1.277   7.187   0.374  0.2088 -0.3996 -0.3627
 6517SOL    HW120491   1.190   7.202   0.412  0.1360 -0.3735 -0.5386
 6517SOL    HW220492   1.298   7.269   0.329 -0.3059 -0.8954 -1.5571
 6518SOL     OW20493   0.812   3.311   3.921 -0.6058  0.1294  0.3326
 6518SOL    HW120494   0.769   3.300   3.836 -1.0396 -0.8793  0.6622
 6518SOL    HW220495   0.898   3.347   3.900 -1.4870  1.9886 -0.3658
 6519SOL     OW20496   5.335   4.787   5.205  0.2708 -0.3650  0.3677
 6519SOL    HW120497   5.240   4.783   5.211  0.3143  0.7847  2.4784
 6519SOL    HW220498   5.366   4.768   5.293  1.9061  1.4937  0.2681
 6520SOL     OW20499   2.450   3.427   2.542  0.0910 -0.0388  0.1762
 6520SOL    HW120500   2.408   3.364   2.600  2.2978 -2.2828 -0.4989
 6520SOL    HW220501   2.392   3.433   2.466  0.6923 -2.7735 -0.5922
 6521SOL     OW20502   3.790   1.742   5.238  0.2572  0.2498 -0.0451
 6521SOL    HW120503   3.766   1.806   5.305 -1.0741 -0.5629  0.2951
 6521SOL    HW220504   3.773   1.657   5.278 -1.9066 -0.2580 -1.8170
 6522SOL     OW20505   1.600   4.846   5.129 -0.1370  0.4524 -0.2346
 6522SOL    HW120506   1.637   4.907   5.192  1.6430 -2.8153  2.1624
 6522SOL    HW220507   1.505   4.855   5.140  0.1028  1.6543  1.1630
 6523SOL     OW20508   3.950   6.104   5.408  0.6686  0.2727  0.2650
 6523SOL    HW120509   4.027   6.066   5.450  0.5511 -1.6647 -1.1876
 6523SOL    HW220510   3.985   6.171   5.350  1.1357  0.3215  0.5948
 6524SOL     OW20511   2.883   4.279   5.143  0.1085 -0.1659 -0.7662
 6524SOL    HW120512   2.837   4.236   5.215 -0.6866  0.1938 -1.0424
 6524SOL    HW220513   2.960   4.319   5.183 -0.1961 -0.1806 -0.1623
 6525SOL     OW20514   6.677   0.207   1.773  1.1366  0.2816 -0.5795
 6525SOL    HW120515   6.641   0.247   1.852  0.6635  0.3613 -0.8339
 6525SOL    HW220516   6.771   0.226   1.777  1.4573 -1.3805  0.9546
 6526SOL     OW20517   5.976   4.758   5.923 -0.1806 -0.3320  0.2149
 6526SOL    HW120518   5.990   4.844   5.882  2.5271 -0.8571 -0.1702
 6526SOL    HW220519   5.983   4.775   6.017  1.4572 -0.2175  0.1089
 6527SOL     OW20520   5.886   3.520   3.963  0.1530  0.2302 -0.3239
 6527SOL    HW120521   5.910   3.491   4.051 -0.0246  0.2538 -0.2662
 6527SOL    HW220522   5.956   3.581   3.938 -1.4412  2.8741  1.1497
 6528SOL     OW20523   5.274   5.260   4.767  0.1116 -0.4919  0.3863
 6528SOL    HW120524   5.196   5.315   4.769  0.6960  0.4208 -0.6160
 6528SOL    HW220525   5.333   5.299   4.832  1.2522  1.2693 -1.5911
 6529SOL     OW20526   1.357   4.441   7.370  0.0097 -0.0531 -0.0772
 6529SOL    HW120527   1.437   4.449   7.318  0.2444 -1.0798  0.1025
 6529SOL    HW220528   1.306   4.519   7.347  0.7950  0.3113 -0.6479
 6530SOL     OW20529   1.634   5.687   2.303  1.1179 -0.3745 -0.0332
 6530SOL    HW120530   1.656   5.714   2.392  1.4299 -1.0034  0.0914
 6530SOL    HW220531   1.647   5.765   2.250 -0.8033  0.5120  0.7242
 6531SOL     OW20532   5.658   0.370   0.453  0.4756 -0.4494  0.0495
 6531SOL    HW120533   5.632   0.417   0.373  2.7067 -0.1982 -0.6069
 6531SOL    HW220534   5.630   0.427   0.524 -2.0929 -0.9569 -0.4760
 6532SOL     OW20535   3.759   6.437   5.215 -0.3465  0.1070  0.6022
 6532SOL    HW120536   3.707   6.470   5.141  0.3146  0.9111  0.4947
 6532SOL    HW220537   3.693   6.411   5.280 -0.9457 -0.6955 -0.2820
 6533SOL     OW20538   6.973   5.786   4.078 -0.2575 -0.2273 -0.5446
 6533SOL    HW120539   6.957   5.806   3.986 -1.1424  0.8786 -0.1611
 6533SOL    HW220540   6.932   5.857   4.127  1.6259  0.1118  0.6747
 6534SOL     OW20541   2.059   5.669   5.313 -0.3599 -0.0417 -0.2686
 6534SOL    HW120542   2.113   5.612   5.367  0.6773  0.7207 -0.4586
 6534SOL    HW220543   2.058   5.627   5.227  1.1171  0.6063 -0.6447
 6535SOL     OW20544   0.351   6.818   4.670 -0.0666 -0.1853  0.2337
 6535SOL    HW120545   0.349   6.914   4.677  0.2884 -0.0977 -0.8123
 6535SOL    HW220546   0.435   6.794   4.708  1.1895  0.1784 -2.1370
 6536SOL     OW20547   1.159   6.179   1.107 -0.0352 -0.5783  0.3729
 6536SOL    HW120548   1.086   6.228   1.144 -1.2921 -2.1761  0.0883
 6536SOL    HW220549   1.159   6.202   1.014 -0.1855 -0.5933  0.3694
 6537SOL     OW20550   4.945   0.560   2.400 -0.2497  0.3070 -0.0478
 6537SOL    HW120551   4.996   0.560   2.481 -0.8367  1.4519  0.3355
 6537SOL    HW220552   5.009   0.543   2.331  0.3073 -0.3306  0.6178
 6538SOL     OW20553   7.181   4.013   4.324 -0.1349  0.3176 -0.2924
 6538SOL    HW120554   7.241   3.985   4.254  1.3227  2.2533  0.0833
 6538SOL    HW220555   7.150   4.099   4.295 -1.0662  0.2805  0.5456
 6539SOL     OW20556   4.972   0.104   2.891 -0.5271  0.1807  0.3944
 6539SOL    HW120557   5.048   0.051   2.868  0.6708  1.6758  0.7426
 6539SOL    HW220558   4.922   0.051   2.953 -0.7821 -1.5740 -1.2257
 6540SOL     OW20559   2.909   3.312   5.599  0.1024 -0.8197  0.5239
 6540SOL    HW120560   2.860   3.384   5.558  1.1063 -0.6242 -0.3833
 6540SOL    HW220561   2.926   3.250   5.528  1.2492 -0.8260  0.7753
 6541SOL     OW20562   1.984   6.330   1.715  0.2493 -0.4586 -0.1728
 6541SOL    HW120563   2.055   6.266   1.725  0.7145  0.1464  0.5030
 6541SOL    HW220564   1.920   6.305   1.782  0.6890  0.1076  0.4692
 6542SOL     OW20565   3.677   3.388   2.827 -0.5566  0.8769 -0.4937
 6542SOL    HW120566   3.596   3.338   2.834  0.5237 -0.7574  1.7503
 6542SOL    HW220567   3.744   3.324   2.805  0.7566  1.3659  1.7286
 6543SOL     OW20568   6.859   4.627   7.122 -0.1190 -0.1040 -0.5547
 6543SOL    HW120569   6.932   4.570   7.100  1.1411  0.7400  1.1981
 6543SOL    HW220570   6.809   4.578   7.187  1.1303  0.7914  1.1780
 6544SOL     OW20571   6.436   0.762   6.047  0.3973 -0.3475  0.3352
 6544SOL    HW120572   6.468   0.674   6.024  0.1901 -0.3476  0.0407
 6544SOL    HW220573   6.372   0.747   6.116 -1.0863 -0.6205 -1.0485
 6545SOL     OW20574   4.101   4.659   2.253  0.1800  0.4559  0.2190
 6545SOL    HW120575   4.140   4.721   2.315 -1.6889  0.7120  1.2123
 6545SOL    HW220576   4.102   4.575   2.299  0.0815  0.3455  0.0221
 6546SOL     OW20577   5.514   5.627   2.900  0.4310  0.3180  0.0277
 6546SOL    HW120578   5.443   5.573   2.867  0.0389  1.4730 -1.0820
 6546SOL    HW220579   5.583   5.564   2.923 -1.0411 -0.8625  1.5335
 6547SOL     OW20580   2.164   5.039   4.806 -0.3742  0.1077  0.4181
 6547SOL    HW120581   2.208   4.993   4.735 -1.4599 -0.1913 -0.0800
 6547SOL    HW220582   2.136   5.122   4.767  0.4643  0.6644  0.9629
 6548SOL     OW20583   1.897   1.840   6.316  0.2063 -0.2440 -0.6899
 6548SOL    HW120584   1.975   1.857   6.263 -1.2881 -0.5347 -3.1780
 6548SOL    HW220585   1.920   1.765   6.370  1.8078  0.0123 -0.9777
 6549SOL     OW20586   5.188   6.353   1.697  0.1893 -0.6830 -1.0304
 6549SOL    HW120587   5.152   6.264   1.695  1.1596 -1.1400  0.3050
 6549SOL    HW220588   5.280   6.341   1.720  0.5151  0.6414 -1.5367
 6550SOL     OW20589   2.937   4.951   4.144  0.2615 -0.3135 -0.2422
 6550SOL    HW120590   2.843   4.930   4.149 -0.1271  1.4949  0.6982
 6550SOL    HW220591   2.980   4.885   4.198 -0.4134 -1.4054 -1.0089
 6551SOL     OW20592   6.923   6.825   2.697  0.0267  0.4330 -0.0936
 6551SOL    HW120593   6.922   6.761   2.768 -0.7643 -1.5863 -1.8071
 6551SOL    HW220594   6.970   6.900   2.733 -0.4870 -0.4125  2.5925
 6552SOL     OW20595   5.313   5.200   2.945  0.3951 -0.4335 -0.4037
 6552SOL    HW120596   5.226   5.161   2.952  0.4245 -0.2606  1.3717
 6552SOL    HW220597   5.296   5.295   2.942  0.5170 -0.3831  0.2842
 6553SOL     OW20598   3.247   3.480   3.224  0.0939 -0.3371  0.2197
 6553SOL    HW120599   3.329   3.434   3.245  0.6989  0.7299  0.3068
 6553SOL    HW220600   3.267   3.572   3.243 -0.9453  0.0124 -0.3307
 6554SOL     OW20601   0.020   5.559   2.903 -0.0578 -0.2363  0.1378
 6554SOL    HW120602   0.013   5.577   2.809  1.4742  0.3074  0.0925
 6554SOL    HW220603  -0.061   5.592   2.940  0.0167  1.0802 -0.7927
 6555SOL     OW20604   2.536   2.928   5.748 -0.4421  0.3887  0.2473
 6555SOL    HW120605   2.464   2.920   5.811 -1.4982 -0.2703 -1.0192
 6555SOL    HW220606   2.606   2.874   5.785 -0.8874  0.3497  1.0632
 6556SOL     OW20607   1.404   4.535   0.533  0.6197  0.3067  0.6846
 6556SOL    HW120608   1.363   4.481   0.601 -0.4399 -1.1678 -1.0205
 6556SOL    HW220609   1.491   4.495   0.521  0.2408 -0.3830  0.1636
 6557SOL     OW20610   2.233   0.838   1.365  1.1002  0.5353 -0.5532
 6557SOL    HW120611   2.267   0.752   1.390  0.2359  0.4253  0.2614
 6557SOL    HW220612   2.183   0.868   1.441 -1.5090  0.2453 -2.0652
 6558SOL     OW20613   0.787   6.460   0.058  0.1946  0.1291  0.6049
 6558SOL    HW120614   0.774   6.368   0.035 -0.8948  0.4627 -0.2109
 6558SOL    HW220615   0.851   6.458   0.129  1.1347 -1.1672 -0.2319
 6559SOL     OW20616   3.180   1.689   5.027 -0.0836  0.1466  0.2264
 6559SOL    HW120617   3.235   1.715   5.100  0.0848  1.4457 -0.3406
 6559SOL    HW220618   3.227   1.615   4.987  0.6153  0.4325  0.5050
 6560SOL     OW20619   5.574   1.587   3.896 -0.2594  0.2616  0.1915
 6560SOL    HW120620   5.581   1.626   3.983 -0.6558 -0.2757  0.4718
 6560SOL    HW220621   5.523   1.650   3.845  2.5569  2.0968 -0.5955
 6561SOL     OW20622   4.345   7.142   1.460  0.4448  0.0536 -0.1503
 6561SOL    HW120623   4.361   7.066   1.515 -1.0788 -0.0936  0.1283
 6561SOL    HW220624   4.337   7.215   1.523 -1.4159 -0.1340 -0.1229
 6562SOL     OW20625   3.755   3.968   2.086 -0.1684 -0.0336  0.7468
 6562SOL    HW120626   3.806   3.931   2.014 -0.3757  0.8392  0.1349
 6562SOL    HW220627   3.686   4.019   2.043 -0.3282  0.4633  1.5632
 6563SOL     OW20628   0.254   2.730   3.779 -0.2670  0.0613 -0.8957
 6563SOL    HW120629   0.285   2.751   3.692  0.2099 -0.5014 -0.8659
 6563SOL    HW220630   0.329   2.691   3.823 -0.6227 -0.0498 -0.3730
 6564SOL     OW20631   3.106   0.865   5.540  0.6072 -0.2603 -0.2861
 6564SOL    HW120632   3.019   0.851   5.577  1.2470 -3.2150  0.3388
 6564SOL    HW220633   3.091   0.894   5.450 -1.0092 -0.8131 -0.2104
 6565SOL     OW20634   6.972   6.613   7.416  0.1754 -0.2433 -0.2358
 6565SOL    HW120635   6.907   6.637   7.350 -0.2654  2.0103  0.9379
 6565SOL    HW220636   7.056   6.621   7.371 -0.2067 -0.8194 -1.0873
 6566SOL     OW20637   3.184   7.221   2.842 -0.1936  0.1541 -0.3269
 6566SOL    HW120638   3.091   7.201   2.831 -0.0757 -1.7073  1.4285
 6566SOL    HW220639   3.225   7.136   2.854  1.4426  1.0555  0.8152
 6567SOL     OW20640   7.065   3.989   5.697  0.0296  0.2472  0.2692
 6567SOL    HW120641   7.068   4.030   5.783  0.0004  1.4479 -0.2842
 6567SOL    HW220642   7.132   3.921   5.701  0.6242  0.8548  0.9647
 6568SOL     OW20643   4.034   3.239   3.036 -0.0182  0.1047 -0.8173
 6568SOL    HW120644   4.093   3.179   3.080 -1.0882  0.3156  1.0143
 6568SOL    HW220645   3.948   3.218   3.072 -0.4551  2.5865 -0.2524
 6569SOL     OW20646   1.246   2.669   3.781 -0.0908  0.5315  0.5816
 6569SOL    HW120647   1.266   2.707   3.866 -0.6407 -0.0192  0.9727
 6569SOL    HW220648   1.298   2.589   3.777  1.5351  1.5894 -0.4952
 6570SOL     OW20649   4.331   4.956   0.469  0.0783 -0.6662 -0.2048
 6570SOL    HW120650   4.305   5.045   0.491  2.0159 -0.2109  0.4042
 6570SOL    HW220651   4.311   4.948   0.376 -0.3672  0.3118 -0.2043
 6571SOL     OW20652   4.045   6.233   3.634  0.4087 -0.1536 -0.3052
 6571SOL    HW120653   4.085   6.159   3.588  0.9802 -0.4788  0.6739
 6571SOL    HW220654   4.031   6.201   3.723  0.2659  0.7803  0.0204
 6572SOL     OW20655   7.307   2.442   4.549 -0.3031 -0.1809 -0.3363
 6572SOL    HW120656   7.369   2.506   4.583  0.8777 -1.1498 -0.6218
 6572SOL    HW220657   7.349   2.404   4.472 -1.3226 -0.7322 -0.6563
 6573SOL     OW20658   6.391   7.236   4.539 -0.5287  0.1079  0.1517
 6573SOL    HW120659   6.301   7.252   4.510 -0.5962  0.5142  0.5790
 6573SOL    HW220660   6.431   7.187   4.467 -0.9578  0.3266 -0.2386
 6574SOL     OW20661   6.194   3.258   7.142 -0.1511 -0.8341  0.3049
 6574SOL    HW120662   6.223   3.169   7.161  0.9515 -0.1274  2.1437
 6574SOL    HW220663   6.099   3.251   7.133 -0.1385 -2.1202  0.9677
 6575SOL     OW20664   0.938   3.331   7.177 -0.0208  0.0017  0.4096
 6575SOL    HW120665   0.862   3.325   7.120 -0.2995  0.1612  0.7583
 6575SOL    HW220666   0.984   3.409   7.147 -0.1701  0.0898  0.4103
 6576SOL     OW20667   4.111   2.745   3.741  0.8488 -0.5831  0.0784
 6576SOL    HW120668   4.091   2.745   3.835  0.8148 -0.8017  0.0712
 6576SOL    HW220669   4.199   2.708   3.735  0.8896 -0.4778  0.0331
 6577SOL     OW20670   2.534   5.982   6.219 -0.2074 -0.2809  0.2091
 6577SOL    HW120671   2.559   5.890   6.217  0.2762 -0.1458 -1.6223
 6577SOL    HW220672   2.518   6.005   6.128  0.4880  1.6639  0.5217
 6578SOL     OW20673   5.249   0.908   6.768  0.3815  0.2112 -0.1851
 6578SOL    HW120674   5.318   0.868   6.715  0.5618  0.5921 -0.2445
 6578SOL    HW220675   5.190   0.948   6.704  0.9847  1.2920 -0.0823
 6579SOL     OW20676   5.115   5.118   2.654 -0.0448  0.0136  0.0155
 6579SOL    HW120677   5.085   5.027   2.652 -0.4069  0.1416 -1.2230
 6579SOL    HW220678   5.188   5.121   2.593 -0.3903  0.6648 -0.3840
 6580SOL     OW20679   1.650   3.453   4.936 -0.4796 -0.0880  0.2844
 6580SOL    HW120680   1.699   3.533   4.956 -1.1846  0.1416  1.1621
 6580SOL    HW220681   1.657   3.400   5.016 -1.7690  0.0248  0.5080
 6581SOL     OW20682   0.531   7.377   7.097 -0.1765  0.5127  0.6122
 6581SOL    HW120683   0.536   7.413   7.008 -0.2429  0.8276  0.7328
 6581SOL    HW220684   0.622   7.366   7.123 -0.1260  1.6720  0.9961
 6582SOL     OW20685   5.521   2.843   4.197 -0.0516  0.1912  0.2398
 6582SOL    HW120686   5.464   2.871   4.269  1.1035  1.2259  0.7956
 6582SOL    HW220687   5.507   2.909   4.129 -0.5459 -0.3379 -0.1788
 6583SOL     OW20688   5.614   0.472   4.112  0.0214  0.0715  0.3940
 6583SOL    HW120689   5.630   0.415   4.187  0.3537  1.0422  1.0783
 6583SOL    HW220690   5.623   0.414   4.036 -0.4147 -0.9473  1.0922
 6584SOL     OW20691   3.627   0.528   5.569 -0.2686 -0.6846  0.4495
 6584SOL    HW120692   3.701   0.481   5.530 -1.0553  0.4717 -2.7415
 6584SOL    HW220693   3.665   0.610   5.601 -0.0921  0.0162 -1.3932
 6585SOL     OW20694   5.840   0.157   7.233  0.2488 -0.3018 -0.6561
 6585SOL    HW120695   5.774   0.089   7.242 -0.7306  0.6107 -0.7260
 6585SOL    HW220696   5.862   0.157   7.140 -1.9904  1.4349 -1.3012
 6586SOL     OW20697   0.761   1.941   2.485  0.5666  0.0862  0.0804
 6586SOL    HW120698   0.717   1.866   2.443  0.2226 -0.2860  1.0892
 6586SOL    HW220699   0.803   1.987   2.412 -0.3391 -0.3263 -0.7307
 6587SOL     OW20700   3.909   4.063   0.566  0.0535  0.0704 -0.3987
 6587SOL    HW120701   3.833   4.005   0.572  1.5235 -2.2505 -2.1399
 6587SOL    HW220702   3.965   4.036   0.638 -0.7922  1.9910  1.0761
 6588SOL     OW20703   4.550   4.107   5.507 -0.4737 -0.4226  0.0865
 6588SOL    HW120704   4.494   4.177   5.541 -0.2459 -0.2791  0.1669
 6588SOL    HW220705   4.575   4.137   5.420 -1.5881 -1.0859 -0.4875
 6589SOL     OW20706   2.689   0.401   2.915  0.2322 -0.1684  0.2037
 6589SOL    HW120707   2.600   0.397   2.949  0.0135  0.8606 -0.2062
 6589SOL    HW220708   2.739   0.446   2.983 -0.1320  1.5734 -0.6081
 6590SOL     OW20709   0.068   6.234   0.853 -0.2496 -0.3333  0.2235
 6590SOL    HW120710   0.159   6.204   0.845  0.2659  1.0939  0.3424
 6590SOL    HW220711   0.030   6.179   0.921  0.6453 -0.6793  0.4584
 6591SOL     OW20712   1.541   2.841   1.134  0.1397 -0.2831  0.4111
 6591SOL    HW120713   1.575   2.753   1.151  0.7604  0.1326  1.4062
 6591SOL    HW220714   1.527   2.843   1.040  0.3883 -1.3516  0.3332
 6592SOL     OW20715   5.744   6.507   3.944  0.2382 -0.7845  0.6559
 6592SOL    HW120716   5.822   6.525   3.891 -1.7065  1.6247 -1.6914
 6592SOL    HW220717   5.734   6.412   3.941  0.9538 -0.8639 -2.3877
 6593SOL     OW20718   0.133   1.795   5.331  0.4277  0.1176  0.3288
 6593SOL    HW120719   0.155   1.848   5.407 -0.6092 -0.6462  1.1941
 6593SOL    HW220720   0.145   1.854   5.256  0.9312  1.0487  1.1227
 6594SOL     OW20721   4.678   0.654   5.418 -0.4129  0.0561  0.1262
 6594SOL    HW120722   4.683   0.604   5.336 -0.3902 -0.9332  0.7205
 6594SOL    HW220723   4.754   0.627   5.468 -1.7684 -1.3236  1.5597
 6595SOL     OW20724   5.198   5.491   0.016  0.1016  0.9562 -0.1793
 6595SOL    HW120725   5.288   5.488  -0.014  0.4125  0.5914  0.7482
 6595SOL    HW220726   5.202   5.541   0.098 -0.2459 -0.5816  0.8118
 6596SOL     OW20727   1.742   2.352   5.145  0.0814  0.1745  0.0869
 6596SOL    HW120728   1.731   2.396   5.229 -3.6561 -2.6751  1.4116
 6596SOL    HW220729   1.830   2.316   5.147  1.5002  3.3544  0.9540
 6597SOL     OW20730   5.319   1.654   2.420  0.4221 -0.2083  0.5126
 6597SOL    HW120731   5.244   1.594   2.428 -0.1304  0.1107 -1.6065
 6597SOL    HW220732   5.357   1.634   2.334  0.9578  1.6564  0.2643
 6598SOL     OW20733   1.411   3.425   5.961 -0.3245 -0.2301  0.4316
 6598SOL    HW120734   1.351   3.368   6.009 -0.6116 -0.7150 -0.4978
 6598SOL    HW220735   1.356   3.467   5.895 -0.0299  0.8073  0.8230
 6599SOL     OW20736   4.074   3.133   3.767 -0.4876  0.4851  0.3385
 6599SOL    HW120737   4.109   3.190   3.836 -0.0762  2.8860 -1.7082
 6599SOL    HW220738   4.150   3.111   3.714 -0.8462 -1.1176  0.4469
 6600SOL     OW20739   2.619   1.122   5.430  1.0939  0.0741 -0.7227
 6600SOL    HW120740   2.532   1.162   5.426  0.8759 -0.5312 -2.6405
 6600SOL    HW220741   2.617   1.068   5.509 -0.5324 -0.4876 -1.1188
 6601SOL     OW20742   4.094   5.385   2.452  0.0068  0.0411  0.1474
 6601SOL    HW120743   4.059   5.343   2.373 -1.2327  2.5711 -0.7552
 6601SOL    HW220744   4.189   5.387   2.438 -0.2308  0.9743 -1.6115
 6602SOL     OW20745   4.794   5.566   2.153  0.3594  0.3692  0.4293
 6602SOL    HW120746   4.799   5.478   2.192  0.9165 -0.0397 -0.5353
 6602SOL    HW220747   4.882   5.602   2.164  1.2185 -0.6186 -2.3460
 6603SOL     OW20748   6.459   5.883   2.086  0.0465  0.3203  0.5658
 6603SOL    HW120749   6.369   5.851   2.085  0.1184  0.1211 -0.1623
 6603SOL    HW220750   6.495   5.857   2.001  0.4060  1.4906  0.3391
 6604SOL     OW20751   4.448   1.508   2.477  0.2325 -0.2710 -0.0693
 6604SOL    HW120752   4.506   1.578   2.506  0.4000 -0.3327 -0.2571
 6604SOL    HW220753   4.377   1.553   2.432 -0.1059 -0.1619  0.5549
 6605SOL     OW20754   3.237   4.178   4.592  0.1585  0.4762  0.2115
 6605SOL    HW120755   3.197   4.193   4.678  1.4959  1.2896  0.7315
 6605SOL    HW220756   3.273   4.264   4.568 -1.5546  0.6939 -1.9343
 6606SOL     OW20757   5.933   0.945   2.263 -0.5403  0.2167 -0.4032
 6606SOL    HW120758   6.028   0.954   2.259 -0.3953 -0.7635  0.5404
 6606SOL    HW220759   5.914   0.937   2.356 -1.7224  2.0709 -0.4357
 6607SOL     OW20760   3.159   4.917   4.812 -0.8534 -0.1477 -0.6209
 6607SOL    HW120761   3.191   4.951   4.728 -3.0673  0.4963 -1.2791
 6607SOL    HW220762   3.162   4.822   4.801  1.7520 -0.1964 -0.2118
 6608SOL     OW20763   4.391   5.899   1.717  0.7121  0.2646 -0.7218
 6608SOL    HW120764   4.481   5.865   1.708  0.4962 -0.2539 -1.0204
 6608SOL    HW220765   4.338   5.821   1.734 -0.3408 -0.2189 -4.9960
 6609SOL     OW20766   3.370   0.257   2.040 -0.4600 -0.7273  0.0617
 6609SOL    HW120767   3.293   0.218   2.081 -0.4121  0.4507  1.3762
 6609SOL    HW220768   3.356   0.352   2.048  1.1230 -0.4880  0.3960
 6610SOL     OW20769   1.072   2.500   3.682 -0.0344 -0.4751 -1.6060
 6610SOL    HW120770   0.992   2.552   3.693 -0.1772 -0.9702 -0.1698
 6610SOL    HW220771   1.142   2.557   3.715  0.0296 -0.5617 -1.5916
 6611SOL     OW20772   0.196   2.153   5.916 -0.2950 -0.0066 -0.1566
 6611SOL    HW120773   0.277   2.107   5.895 -1.7374 -2.3909 -1.0019
 6611SOL    HW220774   0.160   2.179   5.830 -0.6793  0.5657  0.1678
 6612SOL     OW20775   6.581   0.988   3.983 -0.0230 -0.8045 -0.4802
 6612SOL    HW120776   6.577   1.077   3.949 -2.1040 -1.7725 -3.1256
 6612SOL    HW220777   6.634   0.940   3.919 -1.3156 -2.0279 -0.6789
 6613SOL     OW20778   4.343   1.678   0.894 -0.2424 -0.0359  0.5901
 6613SOL    HW120779   4.377   1.761   0.861 -0.4477 -0.4000 -0.5839
 6613SOL    HW220780   4.274   1.654   0.832 -0.0029 -1.2089  0.7575
 6614SOL     OW20781   2.767   2.780   3.683  0.4337  0.0409  0.4008
 6614SOL    HW120782   2.859   2.806   3.671  0.9009 -1.1717  1.1535
 6614SOL    HW220783   2.752   2.790   3.777 -0.0761 -0.1843  0.3422
 6615SOL     OW20784   3.622   2.762   2.162 -0.1956 -0.0569 -0.1868
 6615SOL    HW120785   3.577   2.827   2.216  1.0629 -1.0535  2.2067
 6615SOL    HW220786   3.572   2.681   2.175 -0.1786 -0.2016 -0.9677
 6616SOL     OW20787   5.588   7.317   1.513  0.9550 -0.1683 -0.0335
 6616SOL    HW120788   5.533   7.390   1.484 -1.2605 -1.6413  0.2643
 6616SOL    HW220789   5.583   7.254   1.441  1.5447 -0.7086  0.3937
 6617SOL     OW20790   3.142   0.650   1.059 -0.3721 -0.2716 -0.4986
 6617SOL    HW120791   3.059   0.668   1.104  0.3558  2.1169  0.0159
 6617SOL    HW220792   3.117   0.638   0.967 -1.3122  0.1528 -0.3129
 6618SOL     OW20793   1.220   1.229   4.526 -0.3706  0.0750  0.3145
 6618SOL    HW120794   1.232   1.268   4.439  1.6177  1.2875  1.0590
 6618SOL    HW220795   1.305   1.190   4.546 -0.4799  0.6767  2.0923
 6619SOL     OW20796   1.460   6.485   2.188  0.6060  0.0984 -0.2361
 6619SOL    HW120797   1.493   6.551   2.250  1.8658  0.5218 -1.3099
 6619SOL    HW220798   1.484   6.520   2.102  1.9824 -2.0926 -0.8173
 6620SOL     OW20799   6.565   5.381   0.819  0.7150 -0.3890 -0.2383
 6620SOL    HW120800   6.622   5.304   0.822  1.4223  0.1350  0.9883
 6620SOL    HW220801   6.533   5.390   0.909  1.8055  1.5575  0.0083
 6621SOL     OW20802   6.369   4.090   7.073  0.3410 -0.1144  0.2014
 6621SOL    HW120803   6.403   4.178   7.059  0.7994 -0.0983  1.3459
 6621SOL    HW220804   6.384   4.072   7.165 -1.6520 -0.5851  0.4937
 6622SOL     OW20805   3.308   1.421   1.485 -0.0157 -0.3967  0.1201
 6622SOL    HW120806   3.231   1.372   1.513 -0.1154  1.3019  3.2041
 6622SOL    HW220807   3.273   1.494   1.434 -0.5410  0.5230  1.7409
 6623SOL     OW20808   6.662   1.156   5.495  0.5486 -0.1980 -0.2162
 6623SOL    HW120809   6.750   1.169   5.459  1.3242  1.0441  1.9111
 6623SOL    HW220810   6.676   1.151   5.590 -1.7016  0.3670  0.1953
 6624SOL     OW20811   6.537   3.369   6.911  0.2207  0.5013 -0.2302
 6624SOL    HW120812   6.549   3.275   6.926 -0.1940  0.1161 -2.0544
 6624SOL    HW220813   6.626   3.405   6.914  0.7189 -0.4250 -2.1620
 6625SOL     OW20814   5.705   0.991   4.202 -0.2493 -0.4934 -0.0616
 6625SOL    HW120815   5.781   1.031   4.244 -0.8303 -0.4923  1.0338
 6625SOL    HW220816   5.715   0.897   4.218 -0.0287 -0.5799 -0.6888
 6626SOL     OW20817   5.258   4.519   5.582 -0.4603  0.0115  0.2843
 6626SOL    HW120818   5.330   4.463   5.608  0.2033  0.2843 -0.9013
 6626SOL    HW220819   5.235   4.490   5.494  0.3749  1.9983 -0.6649
 6627SOL     OW20820   3.049   6.237   3.828 -0.0768 -0.0431 -0.3455
 6627SOL    HW120821   2.996   6.315   3.811 -1.1345 -1.0000 -1.6822
 6627SOL    HW220822   2.992   6.179   3.878  0.0747 -0.6397 -0.8418
 6628SOL     OW20823   3.293   0.384   4.847  0.2570  0.1786 -0.2848
 6628SOL    HW120824   3.333   0.467   4.824  2.2879 -0.4372  0.7519
 6628SOL    HW220825   3.367   0.325   4.860 -1.1028 -1.6318 -0.3613
 6629SOL     OW20826   4.790   4.948   2.149  0.4117  0.6798  0.5279
 6629SOL    HW120827   4.803   4.879   2.084  0.9835 -0.0407  1.3854
 6629SOL    HW220828   4.695   4.954   2.159  0.3664 -0.7976  1.2686
 6630SOL     OW20829   4.678   6.764   7.020  0.3616  0.4485 -0.0524
 6630SOL    HW120830   4.767   6.733   7.037  1.3524  2.6392 -0.9204
 6630SOL    HW220831   4.665   6.750   6.926 -1.3489 -2.4356  0.4914
 6631SOL     OW20832   1.296   1.237   2.284  0.1833  0.3435  0.6776
 6631SOL    HW120833   1.211   1.282   2.285 -0.7164 -1.2946  0.7455
 6631SOL    HW220834   1.314   1.219   2.376  0.4385  0.3544  0.6302
 6632SOL     OW20835   0.779   6.016   6.205 -0.0131 -0.0070  0.2628
 6632SOL    HW120836   0.731   6.020   6.122 -1.4003 -0.3502  1.0123
 6632SOL    HW220837   0.869   6.038   6.182 -0.2013 -0.8584 -1.4638
 6633SOL     OW20838   5.644   3.242   1.645 -0.3939 -0.7674 -0.0831
 6633SOL    HW120839   5.561   3.206   1.614 -0.3478 -1.0358  0.1045
 6633SOL    HW220840   5.674   3.299   1.574 -0.7988 -0.5758 -0.0995
 6634SOL     OW20841   4.036   2.576   3.371 -0.0319 -0.7063  0.5984
 6634SOL    HW120842   4.030   2.576   3.467  1.7361  1.2562  0.7853
 6634SOL    HW220843   4.129   2.562   3.353  0.3811  2.6920 -0.6206
 6635SOL     OW20844   1.268   0.947   7.264  0.4897  0.0568  0.3001
 6635SOL    HW120845   1.192   0.944   7.205 -0.7461  0.7933  1.7692
 6635SOL    HW220846   1.319   1.022   7.233  1.1878 -1.0299 -1.3071
 6636SOL     OW20847   0.712   4.964   3.839  0.0068  0.7727 -0.2931
 6636SOL    HW120848   0.738   5.038   3.893 -0.1104  1.0506 -0.6168
 6636SOL    HW220849   0.690   4.895   3.902  1.6913  0.4564  0.0014
 6637SOL     OW20850   5.256   6.451   3.543  0.3235 -0.0017 -0.3141
 6637SOL    HW120851   5.238   6.542   3.566 -0.0210 -0.1778  0.1233
 6637SOL    HW220852   5.341   6.453   3.500  0.3595  0.5122 -0.2178
 6638SOL     OW20853   2.319   4.526   5.490  0.0915  0.4404 -0.4104
 6638SOL    HW120854   2.376   4.494   5.560 -0.1533 -0.4859 -0.6278
 6638SOL    HW220855   2.312   4.620   5.506  1.4599  0.5313 -0.2203
 6639SOL     OW20856   3.148   1.157   5.564  0.4567 -0.1052 -0.3525
 6639SOL    HW120857   3.158   1.062   5.573  1.5570 -0.1817 -1.9642
 6639SOL    HW220858   3.238   1.190   5.560  0.0851  1.0382  0.3519
 6640SOL     OW20859   0.054   4.464   0.181  0.2129  0.3305  0.2784
 6640SOL    HW120860   0.071   4.472   0.275 -0.9764  0.4260  0.4964
 6640SOL    HW220861   0.054   4.554   0.149 -0.4336  0.3755  0.3898
 6641SOL     OW20862   6.891   3.265   4.508  0.2817 -0.0227 -0.2980
 6641SOL    HW120863   6.902   3.285   4.415 -1.9029 -1.7983 -1.0090
 6641SOL    HW220864   6.975   3.226   4.534  0.0453 -2.0078 -2.2490
 6642SOL     OW20865   1.384   3.098   3.778 -0.0103  0.1811  0.0172
 6642SOL    HW120866   1.428   3.069   3.858  0.4124 -1.6995 -0.8411
 6642SOL    HW220867   1.360   3.017   3.733  1.6575  1.1086 -2.7849
 6643SOL     OW20868   3.818   3.718   4.423  0.1208  0.1916 -0.2811
 6643SOL    HW120869   3.834   3.813   4.426  1.3312  0.1043 -2.0487
 6643SOL    HW220870   3.787   3.696   4.511  0.8861  2.0489  0.5163
 6644SOL     OW20871   3.556   7.067   6.002 -0.2878  0.2438 -0.2088
 6644SOL    HW120872   3.548   7.019   5.920 -1.6565 -0.6170  0.3766
 6644SOL    HW220873   3.628   7.025   6.048  1.1793  1.4073 -1.3694
 6645SOL     OW20874   2.184   0.180   1.837  0.2424  0.8542 -0.6660
 6645SOL    HW120875   2.272   0.213   1.820  0.8986 -0.0308  0.8516
 6645SOL    HW220876   2.189   0.142   1.925 -1.5731  0.5038 -0.6783
 6646SOL     OW20877   2.228   0.632   0.964  0.2486 -0.6614 -0.1526
 6646SOL    HW120878   2.188   0.610   0.881  0.7027  0.2924 -0.6456
 6646SOL    HW220879   2.320   0.608   0.955  0.5270  0.4061 -0.3273
 6647SOL     OW20880   5.349   0.580   2.826  0.9158 -0.2196 -0.2098
 6647SOL    HW120881   5.415   0.583   2.757  0.8352  1.4096 -0.2517
 6647SOL    HW220882   5.314   0.669   2.831 -0.7940 -0.8661  0.2962
 6648SOL     OW20883   7.291   7.083   3.894  0.4787 -0.2049 -0.1482
 6648SOL    HW120884   7.203   7.102   3.927  1.0412  0.2488  1.1807
 6648SOL    HW220885   7.321   7.010   3.948  0.4664 -1.2100 -1.4462
 6649SOL     OW20886   1.387   3.148   0.164  0.0910 -0.1909  0.1122
 6649SOL    HW120887   1.390   3.126   0.257  0.1771 -0.8131 -0.0376
 6649SOL    HW220888   1.421   3.071   0.119 -1.1872 -0.4139 -0.5203
 6650SOL     OW20889   3.627   1.069   4.694 -0.5091 -0.1573  0.3199
 6650SOL    HW120890   3.677   1.143   4.661 -0.8997  0.7199  1.5956
 6650SOL    HW220891   3.585   1.031   4.617  0.0906  0.6540 -0.4137
 6651SOL     OW20892   0.925   7.155   6.105  0.4012 -0.4456  0.6376
 6651SOL    HW120893   0.895   7.138   6.015 -1.2626  0.2165  1.0269
 6651SOL    HW220894   0.969   7.074   6.131  0.6628 -0.7521 -0.6631
 6652SOL     OW20895   6.164   3.862   5.003 -0.2634 -0.1512  0.0847
 6652SOL    HW120896   6.259   3.859   5.011 -0.1611 -1.6231 -1.2025
 6652SOL    HW220897   6.132   3.845   5.091  0.6922 -1.1865  0.2548
 6653SOL     OW20898   7.305   4.485   6.695  0.1574 -0.0158 -0.2313
 6653SOL    HW120899   7.312   4.580   6.703 -0.0702 -0.0421  0.4153
 6653SOL    HW220900   7.215   4.470   6.667 -0.2854 -0.0876  1.1248
 6654SOL     OW20901   1.933   0.459   1.216 -0.2196 -0.4094 -0.1682
 6654SOL    HW120902   1.886   0.436   1.136 -1.5761 -0.1209  0.5108
 6654SOL    HW220903   1.882   0.531   1.253 -0.6815 -1.7143  1.8931
 6655SOL     OW20904   0.709   3.881   0.115  0.0581  0.4405 -0.2162
 6655SOL    HW120905   0.737   3.964   0.078 -2.1270  2.1640  1.6938
 6655SOL    HW220906   0.620   3.868   0.081 -0.5056  0.1180  1.3067
 6656SOL     OW20907   3.357   3.397   2.793 -0.6563 -0.0999 -0.4745
 6656SOL    HW120908   3.357   3.470   2.732  2.1003  0.7051  0.3555
 6656SOL    HW220909   3.365   3.319   2.737  0.5792  0.5352 -1.2281
 6657SOL     OW20910   6.498   3.904   4.708 -0.0587 -0.2822  0.0852
 6657SOL    HW120911   6.419   3.958   4.700 -0.0732 -0.4221 -0.7910
 6657SOL    HW220912   6.466   3.814   4.701  0.0876 -0.3718  0.5356
 6658SOL     OW20913   6.877   0.624   1.786  0.3256 -0.1264  0.4661
 6658SOL    HW120914   6.837   0.700   1.744  3.1533  1.2831  0.0870
 6658SOL    HW220915   6.823   0.607   1.863 -1.9106  0.5477 -0.8660
 6659SOL     OW20916   6.339   2.807   0.260 -0.3328 -0.5095 -0.0172
 6659SOL    HW120917   6.433   2.802   0.279 -0.0080 -3.3381 -1.7093
 6659SOL    HW220918   6.323   2.899   0.239  1.4873  0.5372  2.6528
 6660SOL     OW20919   2.295   4.683   0.191  0.1262 -0.1865  0.6933
 6660SOL    HW120920   2.385   4.716   0.199  0.2191 -0.7492  2.1920
 6660SOL    HW220921   2.246   4.729   0.259 -0.3085 -1.2689  1.1239
 6661SOL     OW20922   6.993   0.551   6.230  0.3446  0.0595 -0.1290
 6661SOL    HW120923   7.020   0.606   6.304 -0.1765  2.0120 -1.3164
 6661SOL    HW220924   6.995   0.609   6.155  0.2808 -1.7308 -1.5773
 6662SOL     OW20925   5.582   5.571   6.631 -0.1498  0.5163  0.1212
 6662SOL    HW120926   5.610   5.483   6.658 -0.5190  0.3948  0.1094
 6662SOL    HW220927   5.664   5.619   6.618  0.0695  0.0330 -0.3343
 6663SOL     OW20928   6.903   5.918   0.219 -0.0470  0.1071 -0.5887
 6663SOL    HW120929   6.852   5.973   0.278  1.3354  1.1617 -0.3184
 6663SOL    HW220930   6.979   5.892   0.271 -0.1800 -1.2460 -1.0449
 6664SOL     OW20931   6.106   6.113   4.837 -0.5329 -0.2247  0.0531
 6664SOL    HW120932   6.195   6.089   4.811 -0.2142  2.5634 -1.9758
 6664SOL    HW220933   6.060   6.030   4.849  1.8659 -1.7371 -0.5978
 6665SOL     OW20934   6.409   7.171   4.261 -0.6082 -0.1817  0.6231
 6665SOL    HW120935   6.318   7.201   4.260 -0.3107  0.8208  1.8751
 6665SOL    HW220936   6.434   7.171   4.168 -1.7250  0.0243  0.2998
 6666SOL     OW20937   4.260   3.077   3.145  0.5740 -0.2349  0.0562
 6666SOL    HW120938   4.305   3.023   3.079  1.5024 -0.0896  0.5582
 6666SOL    HW220939   4.251   3.019   3.221  1.0515  0.1201  0.3938
 6667SOL     OW20940   5.823   6.429   1.475 -0.4990  0.4106 -0.1601
 6667SOL    HW120941   5.904   6.420   1.525 -0.2389  1.7689 -0.2821
 6667SOL    HW220942   5.770   6.490   1.527 -0.9889  0.3801 -0.6219
 6668SOL     OW20943   0.889   4.183   5.247 -0.4171 -0.0166 -0.1278
 6668SOL    HW120944   0.798   4.202   5.271 -0.5428  0.8750 -1.2304
 6668SOL    HW220945   0.941   4.245   5.299 -0.3950 -0.7363  0.7385
 6669SOL     OW20946   2.331   1.950   3.355 -1.1216  0.0266  0.3624
 6669SOL    HW120947   2.347   1.900   3.435 -1.3028 -1.4805 -0.4972
 6669SOL    HW220948   2.414   1.994   3.336 -0.1552 -1.8901 -0.1227
 6670SOL     OW20949   4.660   6.947   7.404 -0.1390  0.3879  0.6955
 6670SOL    HW120950   4.566   6.942   7.385 -0.0944 -0.9086  0.7692
 6670SOL    HW220951   4.666   6.987   7.491 -0.5948  0.8737  0.5067
 6671SOL     OW20952   7.371   1.128   5.631  0.1881 -0.5491  0.1223
 6671SOL    HW120953   7.398   1.218   5.616  1.0769 -1.0082 -1.2070
 6671SOL    HW220954   7.276   1.128   5.621 -0.2596  0.7939  3.2206
 6672SOL     OW20955   2.405   4.682   0.925 -0.3195 -0.2940  0.0233
 6672SOL    HW120956   2.428   4.760   0.975  0.4616 -0.0203 -0.7423
 6672SOL    HW220957   2.311   4.691   0.909 -0.9031 -1.0260  2.4964
 6673SOL     OW20958   0.569   0.466   6.252 -0.3899 -0.0228 -0.2778
 6673SOL    HW120959   0.585   0.389   6.307  0.3886 -0.5094 -1.1539
 6673SOL    HW220960   0.656   0.503   6.237 -0.7553  1.0302  0.1146
 6674SOL     OW20961   2.331   1.231   2.426 -0.0722  0.7630  0.3634
 6674SOL    HW120962   2.303   1.279   2.348  1.5667  0.3417 -0.5155
 6674SOL    HW220963   2.417   1.196   2.404 -0.6552 -1.5382  1.4258
 6675SOL     OW20964   4.037   4.153   3.436 -0.5316  0.2014 -0.5505
 6675SOL    HW120965   3.947   4.187   3.436 -0.7232 -0.2926  0.1072
 6675SOL    HW220966   4.052   4.123   3.525  0.4983  0.7927 -0.5058
 6676SOL     OW20967   4.415   1.089   2.321  0.1496 -0.0579 -0.3160
 6676SOL    HW120968   4.353   1.058   2.254 -1.7473  0.3585  1.1642
 6676SOL    HW220969   4.401   1.030   2.395 -1.5300  2.5052  1.5529
 6677SOL     OW20970   0.932   7.039   2.917  0.1075  0.4447 -0.1615
 6677SOL    HW120971   0.966   7.105   2.856  1.6332 -0.1058  0.0357
 6677SOL    HW220972   0.887   6.975   2.861  1.4393 -0.0259 -0.7460
 6678SOL     OW20973   1.801   2.625   5.901  0.5502  0.1005 -0.0400
 6678SOL    HW120974   1.876   2.684   5.910  0.3698  0.1065  2.0888
 6678SOL    HW220975   1.730   2.682   5.871  0.6253  0.7923  1.0366
 6679SOL     OW20976   1.148   4.762   4.209 -0.0342 -0.0557 -0.5806
 6679SOL    HW120977   1.110   4.745   4.295  1.9165  1.6487  0.7030
 6679SOL    HW220978   1.200   4.684   4.189 -1.0099 -0.7337 -0.5478
 6680SOL     OW20979   3.960   6.508   0.604  0.3666 -0.6537 -0.0107
 6680SOL    HW120980   3.896   6.507   0.534 -1.1428 -2.3161  1.3207
 6680SOL    HW220981   3.938   6.586   0.655  0.8651  0.0259 -0.8103
 6681SOL     OW20982   3.909   0.350   5.529  0.3853  0.5476  0.2995
 6681SOL    HW120983   3.981   0.287   5.519  0.5521  0.9387 -1.3268
 6681SOL    HW220984   3.836   0.298   5.562  1.1715 -0.0221  1.1978
 6682SOL     OW20985   0.353   4.393   5.701 -0.3472  0.1664  0.6125
 6682SOL    HW120986   0.350   4.461   5.633 -0.3532 -1.0101 -0.6067
 6682SOL    HW220987   0.444   4.390   5.728 -0.4301  0.9694  1.0193
 6683SOL     OW20988   0.206   3.672   2.084  0.2902  0.0029 -0.1381
 6683SOL    HW120989   0.195   3.755   2.129 -1.4138 -0.1617 -0.1592
 6683SOL    HW220990   0.237   3.695   1.996  1.1864  0.5020  0.3060
 6684SOL     OW20991   1.736   6.326   0.028  0.0372  0.1813 -0.2430
 6684SOL    HW120992   1.768   6.260  -0.034  0.5168  0.1441  0.0419
 6684SOL    HW220993   1.785   6.309   0.108 -1.5155 -0.6291  0.5861
 6685SOL     OW20994   5.218   0.235   1.342 -0.1141  0.4371 -0.5894
 6685SOL    HW120995   5.237   0.307   1.403 -2.1619  2.2659 -1.9475
 6685SOL    HW220996   5.234   0.272   1.255  0.1047 -1.2260 -1.3037
 6686SOL     OW20997   2.745   0.009   7.122 -0.1610  0.0008  0.3104
 6686SOL    HW120998   2.829   0.035   7.085  0.4825 -1.7226  0.4817
 6686SOL    HW220999   2.767  -0.043   7.199 -1.3985  0.0130  0.6945
 6687SOL     OW21000   4.602   3.541   0.043  0.5046  0.2903 -0.3839
 6687SOL    HW121001   4.655   3.573  -0.030  1.7272 -0.3143  0.2070
 6687SOL    HW221002   4.589   3.448   0.024  0.4290  0.2359 -0.0768
 6688SOL     OW21003   1.394   4.100   0.469 -0.1510  0.4203  0.4573
 6688SOL    HW121004   1.305   4.129   0.490 -0.8229 -0.5479 -0.8652
 6688SOL    HW221005   1.395   4.095   0.373  1.0072 -0.5868  0.5050
 6689SOL     OW21006   0.238   4.107   6.313  1.0729 -0.1451  0.0592
 6689SOL    HW121007   0.296   4.140   6.382  2.2002  1.3133 -1.5060
 6689SOL    HW221008   0.185   4.182   6.289  0.4059 -0.7518 -0.3818
 6690SOL     OW21009   7.011   5.057   3.385  0.2683  0.3919 -0.7662
 6690SOL    HW121010   6.962   5.039   3.304  2.8009 -2.1938 -1.8737
 6690SOL    HW221011   7.003   4.976   3.436  1.4161  0.8084  0.0937
 6691SOL     OW21012   2.512   0.546   5.576  0.0426  0.3662 -0.0948
 6691SOL    HW121013   2.570   0.527   5.650 -0.0983 -0.5460 -0.1983
 6691SOL    HW221014   2.548   0.625   5.536  0.1019  0.8795  0.9639
 6692SOL     OW21015   6.459   3.282   2.767 -0.1548  0.2893  0.6806
 6692SOL    HW121016   6.434   3.299   2.858  1.4754  2.1835  0.8301
 6692SOL    HW221017   6.547   3.319   2.758  0.2673 -1.0079 -1.3395
 6693SOL     OW21018   1.649   2.851   3.500  0.4245  0.5770  0.1244
 6693SOL    HW121019   1.647   2.851   3.404 -0.3706  0.0020  0.1295
 6693SOL    HW221020   1.573   2.798   3.525  0.5315  0.8647  1.0750
 6694SOL     OW21021   2.283   6.829   5.644  0.3097  0.2245  0.4870
 6694SOL    HW121022   2.326   6.915   5.640  0.0879  0.2919 -1.2577
 6694SOL    HW221023   2.353   6.767   5.663  1.1244  0.4231 -1.5935
 6695SOL     OW21024   0.394   5.250   3.990  0.5590  0.0541 -0.3416
 6695SOL    HW121025   0.369   5.319   3.928  1.8485 -0.0781 -1.0553
 6695SOL    HW221026   0.387   5.169   3.939 -0.6991 -0.3355  0.4169
 6696SOL     OW21027   1.667   6.666   3.346 -0.2353  0.0078 -0.2937
 6696SOL    HW121028   1.575   6.644   3.334 -0.0601 -2.4303  1.7825
 6696SOL    HW221029   1.703   6.666   3.258 -1.6106 -2.4237 -0.9676
 6697SOL     OW21030   5.788   0.307   6.915 -0.3124  0.5702 -0.2346
 6697SOL    HW121031   5.784   0.219   6.879 -0.5754  0.1974  0.6814
 6697SOL    HW221032   5.880   0.332   6.909 -0.0427 -0.2030  0.4948
 6698SOL     OW21033   6.014   5.353   7.221 -0.0743  0.5137 -0.0898
 6698SOL    HW121034   5.925   5.332   7.246 -0.4910  0.3361 -1.6098
 6698SOL    HW221035   6.052   5.269   7.194  0.2089  0.7494 -0.4393
 6699SOL     OW21036   0.225   5.314   4.201 -0.6472 -0.2627  0.3443
 6699SOL    HW121037   0.291   5.332   4.268 -1.1974  0.1845  0.7752
 6699SOL    HW221038   0.276   5.289   4.124  0.1039  1.3825  0.2531
 6700SOL     OW21039   4.120   1.696   4.692  0.0224 -0.2652 -0.2833
 6700SOL    HW121040   4.129   1.636   4.765  0.3497 -0.0157 -0.1160
 6700SOL    HW221041   4.210   1.719   4.668 -0.0821 -0.3594 -0.7747
 6701SOL     OW21042   0.241   3.925   3.648  0.2358 -0.3071 -0.0245
 6701SOL    HW121043   0.248   4.010   3.690 -0.1109  0.1961 -0.9447
 6701SOL    HW221044   0.311   3.925   3.583 -1.3958  0.4125 -1.9030
 6702SOL     OW21045   5.152   6.868   3.457 -0.0922 -0.9146 -0.4366
 6702SOL    HW121046   5.060   6.895   3.459  0.4772  1.1297  0.0053
 6702SOL    HW221047   5.172   6.859   3.364 -0.1885  0.7774 -0.6533
 6703SOL     OW21048   3.276   7.263   6.665  0.1274  0.7061  0.3949
 6703SOL    HW121049   3.355   7.299   6.625  0.9235  0.5364  1.7678
 6703SOL    HW221050   3.288   7.277   6.759 -2.0374  1.8092  0.5732
 6704SOL     OW21051   5.107   6.025   4.484  0.2657 -0.2407  0.7629
 6704SOL    HW121052   5.100   5.934   4.456  2.3536 -0.3209  0.3763
 6704SOL    HW221053   5.116   6.074   4.403  0.0423  0.2191  1.0133
 6705SOL     OW21054   6.203   5.007   1.668  0.2109  0.7690 -0.3731
 6705SOL    HW121055   6.233   4.929   1.714 -0.8387 -0.5416 -1.8040
 6705SOL    HW221056   6.120   4.981   1.627 -0.6213  2.9021 -0.1838
 6706SOL     OW21057   3.692   0.894   7.059  0.1807  0.2231 -0.3507
 6706SOL    HW121058   3.729   0.821   7.108  0.0959  0.2347 -0.2684
 6706SOL    HW221059   3.705   0.971   7.115  1.9957  0.6174 -1.2526
 6707SOL     OW21060   5.082   7.030   4.880 -0.5978  0.1500  0.2483
 6707SOL    HW121061   5.098   6.940   4.911 -1.7954  0.2983  1.3505
 6707SOL    HW221062   4.990   7.031   4.857 -0.7720  1.2940  0.9450
 6708SOL     OW21063   0.695   0.319   0.242  0.5510 -0.0129 -0.3733
 6708SOL    HW121064   0.710   0.225   0.245  2.0266  0.2046 -0.1881
 6708SOL    HW221065   0.601   0.328   0.226  0.2322 -1.5019  0.4846
 6709SOL     OW21066   4.919   3.887   3.922  0.2206 -0.2771  0.0735
 6709SOL    HW121067   4.907   3.891   4.017  0.1134 -0.9635  0.0956
 6709SOL    HW221068   4.928   3.793   3.903 -0.5596 -0.2095 -0.6858
 6710SOL     OW21069   0.852   0.153   2.013 -0.4605 -0.3880 -0.4812
 6710SOL    HW121070   0.849   0.145   1.917 -0.6663  0.5466 -0.5611
 6710SOL    HW221071   0.786   0.218   2.034 -0.5868 -0.7623  0.3304
 6711SOL     OW21072   0.641   5.721   1.401  0.2574 -0.1182  0.0568
 6711SOL    HW121073   0.685   5.722   1.486 -0.4330 -3.7344  0.5808
 6711SOL    HW221074   0.703   5.677   1.342  0.6028  2.0771 -1.3564
 6712SOL     OW21075   1.904   3.706   3.445  0.3485 -0.2768 -0.1757
 6712SOL    HW121076   1.887   3.789   3.400  2.0165  0.7342  0.9467
 6712SOL    HW221077   1.899   3.728   3.538  1.5194 -1.2576  0.1440
 6713SOL     OW21078   6.435   5.677   5.789 -0.8001  0.2798  0.3984
 6713SOL    HW121079   6.487   5.609   5.745  0.0816  0.7258  0.7511
 6713SOL    HW221080   6.444   5.754   5.733  0.7672  1.0112  1.6017
 6714SOL     OW21081   5.433   2.178   1.336  0.0171 -0.1064  0.2456
 6714SOL    HW121082   5.408   2.161   1.245 -2.8765 -0.0528  0.9533
 6714SOL    HW221083   5.484   2.101   1.362  0.1871 -0.4881 -1.1559
 6715SOL     OW21084   2.824   3.176   0.354 -0.2505 -0.0606 -0.6389
 6715SOL    HW121085   2.736   3.212   0.364  0.1721  1.1303 -1.0471
 6715SOL    HW221086   2.824   3.137   0.267  0.2614  1.8932 -1.5616
 6716SOL     OW21087   2.442   2.528   4.895  0.0513 -0.6885  0.2129
 6716SOL    HW121088   2.443   2.438   4.927 -0.3072 -0.5537  0.6092
 6716SOL    HW221089   2.354   2.539   4.859 -0.4156 -0.0481  1.4789
 6717SOL     OW21090   5.678   1.549   0.772 -0.2143  0.5829  0.8095
 6717SOL    HW121091   5.665   1.626   0.716  0.6633  0.2216  0.0911
 6717SOL    HW221092   5.680   1.476   0.711 -1.1800 -0.0445  1.4997
 6718SOL     OW21093   3.760   6.144   3.855 -0.1386  0.3398  0.5007
 6718SOL    HW121094   3.754   6.146   3.951  0.4121 -2.2912  0.6707
 6718SOL    HW221095   3.853   6.149   3.836 -0.0367 -1.4716  0.2975
 6719SOL     OW21096   1.543   5.250   1.689 -0.7086 -0.3390 -0.0717
 6719SOL    HW121097   1.531   5.306   1.612  0.6482  0.8489  0.5399
 6719SOL    HW221098   1.596   5.177   1.658 -0.3413  0.0267 -0.3134
 6720SOL     OW21099   1.178   6.062   3.543  0.0576  0.5224  0.2737
 6720SOL    HW121100   1.189   5.967   3.539 -0.1519  0.5371 -1.1156
 6720SOL    HW221101   1.261   6.094   3.579 -0.4261 -0.2620  2.2279
 6721SOL     OW21102   0.137   5.124   2.851  0.5002 -0.3082 -0.6522
 6721SOL    HW121103   0.083   5.108   2.773  0.8821 -2.5535 -0.5351
 6721SOL    HW221104   0.082   5.094   2.923  0.5154  0.8717 -0.1383
 6722SOL     OW21105   4.115   1.917   3.928  0.3664 -0.0474 -0.0325
 6722SOL    HW121106   4.178   1.936   3.997 -0.1803  1.9148 -0.0099
 6722SOL    HW221107   4.092   2.003   3.892 -0.3335 -0.9155 -1.7925
 6723SOL     OW21108   2.312   2.268   4.929 -0.2295 -0.3531 -0.2513
 6723SOL    HW121109   2.309   2.258   4.834  0.2657 -0.5698 -0.2450
 6723SOL    HW221110   2.326   2.180   4.963 -3.6043 -0.8592  0.2197
 6724SOL     OW21111   4.121   1.993   2.390 -0.0502  0.3107 -0.2211
 6724SOL    HW121112   4.120   1.966   2.482  0.6488  2.9329  0.6371
 6724SOL    HW221113   4.154   2.083   2.391 -0.1103  0.4694 -3.0474
 6725SOL     OW21114   3.799   3.455   7.244 -0.3886  0.4478 -0.5328
 6725SOL    HW121115   3.722   3.508   7.266  0.8742  2.1016  0.1379
 6725SOL    HW221116   3.766   3.365   7.238 -2.2936  1.0626  0.0858
 6726SOL     OW21117   5.675   2.146   5.071 -0.4243 -0.4610  0.3767
 6726SOL    HW121118   5.678   2.240   5.054 -0.1950 -0.3272  1.0964
 6726SOL    HW221119   5.583   2.122   5.060 -0.3553 -0.3212 -0.6120
 6727SOL     OW21120   3.519   1.750   3.900  0.3349  0.3858 -0.2031
 6727SOL    HW121121   3.565   1.690   3.958 -1.8426 -2.0452 -0.8417
 6727SOL    HW221122   3.496   1.697   3.824 -0.8732  2.2973 -1.2531
 6728SOL     OW21123   4.565   0.826   6.150 -0.5681  0.1205  0.3216
 6728SOL    HW121124   4.609   0.743   6.134  2.2738  1.3556  1.0965
 6728SOL    HW221125   4.495   0.828   6.085  0.6675 -1.8972 -1.2112
 6729SOL     OW21126   2.224   5.258   2.716  0.2914  0.1541 -0.6378
 6729SOL    HW121127   2.188   5.303   2.639 -0.8538  0.2278 -0.0778
 6729SOL    HW221128   2.180   5.299   2.790  0.6007 -0.6372 -0.0037
 6730SOL     OW21129   0.793   1.853   0.972  0.3566 -0.2712  0.2159
 6730SOL    HW121130   0.716   1.853   1.028  0.1446 -0.0496 -0.0718
 6730SOL    HW221131   0.803   1.944   0.945 -1.4499 -0.8172 -2.6860
 6731SOL     OW21132   6.673   6.001   5.288 -0.5496 -0.0221 -0.4387
 6731SOL    HW121133   6.683   6.092   5.315  0.8666  0.7012 -3.0939
 6731SOL    HW221134   6.640   6.006   5.199 -0.2252 -2.1136 -0.7166
 6732SOL     OW21135   5.485   6.694   0.419  0.4347  0.5415  0.1807
 6732SOL    HW121136   5.511   6.757   0.352  0.7717  0.7870  0.5396
 6732SOL    HW221137   5.480   6.610   0.373  0.8707  0.6711 -0.1031
 6733SOL     OW21138   1.609   3.364   2.863  0.3467  0.0431 -0.2846
 6733SOL    HW121139   1.534   3.334   2.914  0.4033  0.6579  0.1789
 6733SOL    HW221140   1.571   3.398   2.782 -0.1317  2.2964  0.8027
 6734SOL     OW21141   2.017   4.743   6.344 -0.4569 -0.0840  0.0264
 6734SOL    HW121142   2.018   4.761   6.249 -0.1936  2.5517  0.4544
 6734SOL    HW221143   2.110   4.733   6.367 -0.5768 -1.9497 -0.1350
 6735SOL     OW21144   5.254   0.086   3.918 -0.2133 -0.4538 -0.5420
 6735SOL    HW121145   5.168   0.062   3.951 -0.8572  0.6489 -1.3773
 6735SOL    HW221146   5.238   0.156   3.854  1.2451 -0.5896 -1.1073
 6736SOL     OW21147   3.561   5.754   3.348 -0.6050 -0.2184 -0.5096
 6736SOL    HW121148   3.470   5.753   3.319 -0.1765  1.2313 -2.0774
 6736SOL    HW221149   3.603   5.685   3.296 -0.7077 -0.5474 -0.1558
 6737SOL     OW21150   3.484   6.477   5.594  0.2876  0.0624  0.0910
 6737SOL    HW121151   3.398   6.477   5.553  1.4163  2.2933 -2.5592
 6737SOL    HW221152   3.474   6.533   5.671 -0.3772  1.3031 -0.8710
 6738SOL     OW21153   5.202   5.205   7.377 -0.1873  0.1677  0.1865
 6738SOL    HW121154   5.151   5.159   7.443 -1.0643 -1.8717 -1.7651
 6738SOL    HW221155   5.220   5.291   7.415 -0.7111 -0.8662  2.9686
 6739SOL     OW21156   3.639   0.774   6.679  0.4122  0.0060  0.3532
 6739SOL    HW121157   3.607   0.697   6.725 -1.3593  0.5432  0.0898
 6739SOL    HW221158   3.679   0.740   6.599 -1.4780 -0.6195 -0.3965
 6740SOL     OW21159   0.899   3.171   5.492  0.2343 -0.2125 -0.2783
 6740SOL    HW121160   0.862   3.104   5.550 -0.6446  0.3510 -0.1597
 6740SOL    HW221161   0.822   3.219   5.461  0.8021  0.2799 -0.9295
 6741SOL     OW21162   6.323   1.197   1.728  0.2656  0.0953 -0.4324
 6741SOL    HW121163   6.299   1.269   1.670  0.9881 -0.0828 -0.9686
 6741SOL    HW221164   6.242   1.146   1.738  0.4489 -0.6925 -2.4879
 6742SOL     OW21165   4.001   1.283   3.517 -0.7148 -0.4728  0.1872
 6742SOL    HW121166   3.973   1.261   3.429 -1.1830  0.2307  0.1524
 6742SOL    HW221167   4.092   1.254   3.521  0.0124  1.3846 -1.2542
 6743SOL     OW21168   1.436   2.876   2.344  0.0844 -0.2264  0.1826
 6743SOL    HW121169   1.486   2.828   2.411  0.9177  0.0526 -0.2209
 6743SOL    HW221170   1.437   2.819   2.268 -1.4206 -0.8314  0.5804
 6744SOL     OW21171   3.356   2.907   7.142 -0.0098  0.2985  0.1029
 6744SOL    HW121172   3.351   2.832   7.083  0.8447  0.0752  0.2926
 6744SOL    HW221173   3.265   2.931   7.159 -0.2708  0.0673 -0.9185
 6745SOL     OW21174   6.884   0.299   4.930  0.3047 -0.3373  0.1361
 6745SOL    HW121175   6.922   0.374   4.976  1.7150 -1.0412  0.1712
 6745SOL    HW221176   6.809   0.273   4.983 -0.0819  0.9136  0.2294
 6746SOL     OW21177   7.147   2.553   4.761  0.1430  0.5875 -0.0178
 6746SOL    HW121178   7.057   2.556   4.730 -0.2448 -0.9574  0.8854
 6746SOL    HW221179   7.190   2.489   4.704  0.5242  0.8816 -0.0663
 6747SOL     OW21180   0.521   7.274   6.549  0.0907  0.4751 -0.2532
 6747SOL    HW121181   0.548   7.364   6.529  1.3409  0.1459 -0.1494
 6747SOL    HW221182   0.602   7.230   6.574 -0.9946  0.3509  3.7792
 6748SOL     OW21183   4.221   2.941   3.396  0.0116  0.5314 -0.4579
 6748SOL    HW121184   4.283   2.918   3.465 -0.3112  0.3196 -0.2337
 6748SOL    HW221185   4.154   2.993   3.441 -0.2398  0.3276 -0.5974
 6749SOL     OW21186   0.419   2.165   7.422 -0.0401  0.4812 -0.8125
 6749SOL    HW121187   0.420   2.136   7.513  0.5235  0.7852 -0.7165
 6749SOL    HW221188   0.437   2.086   7.371  0.3213  0.4380 -0.6212
 6750SOL     OW21189   6.191   3.019   0.671 -0.3072 -0.3919 -0.6344
 6750SOL    HW121190   6.145   3.103   0.664  3.7310  2.1383 -0.2015
 6750SOL    HW221191   6.142   2.971   0.738 -3.4219  1.0606 -1.6844
 6751SOL     OW21192   5.780   5.133   2.901  0.2626  0.4428  0.0012
 6751SOL    HW121193   5.843   5.082   2.952 -0.2039  0.1367  0.2742
 6751SOL    HW221194   5.825   5.215   2.883  0.7208  0.2479  0.2423
 6752SOL     OW21195   3.084   5.195   2.827  0.2532 -0.1608 -0.1510
 6752SOL    HW121196   2.995   5.161   2.837  0.1686 -0.6339 -2.1467
 6752SOL    HW221197   3.086   5.272   2.884 -1.2820 -0.4038  0.2788
 6753SOL     OW21198   4.915   5.878   2.333 -0.5287  0.0215  0.2051
 6753SOL    HW121199   4.847   5.812   2.351  0.0957 -0.3037  1.4993
 6753SOL    HW221200   4.996   5.836   2.361  0.5366 -0.2661 -2.8866
 6754SOL     OW21201   3.309   6.438   2.083 -0.0580  0.0607 -0.0580
 6754SOL    HW121202   3.311   6.445   1.987  0.5744  0.4062 -0.0173
 6754SOL    HW221203   3.266   6.518   2.112  1.5226  0.8937  0.0507
 6755SOL     OW21204   0.183   2.491   2.556 -0.4949 -0.1049  0.4651
 6755SOL    HW121205   0.109   2.497   2.496 -0.4421 -0.3764  0.3689
 6755SOL    HW221206   0.165   2.414   2.610 -1.5968  1.3681  2.2729
 6756SOL     OW21207   6.480   5.522   2.241 -0.1906 -0.5648 -0.2282
 6756SOL    HW121208   6.404   5.578   2.225  0.8568  1.3891  1.1949
 6756SOL    HW221209   6.453   5.464   2.312 -1.2663 -1.9216 -1.6725
 6757SOL     OW21210   6.482   5.444   1.971  0.1156  0.8620 -0.0314
 6757SOL    HW121211   6.556   5.500   1.947  0.1754  1.0878  0.6562
 6757SOL    HW221212   6.464   5.466   2.062 -0.8799  0.8937 -0.2228
 6758SOL     OW21213   4.128   7.213   3.963  0.2410  0.2419  0.2191
 6758SOL    HW121214   4.099   7.149   3.899  1.0216  0.0361  0.0617
 6758SOL    HW221215   4.078   7.292   3.942  0.9279  0.3617 -1.0504
 6759SOL     OW21216   4.800   4.178   0.857 -0.4410 -0.1106  0.0283
 6759SOL    HW121217   4.795   4.200   0.763  0.0005 -1.5516 -0.3590
 6759SOL    HW221218   4.799   4.263   0.901  2.0080  0.7834 -1.3887
 6760SOL     OW21219   3.699   1.582   4.012  0.0065 -0.0908  0.4161
 6760SOL    HW121220   3.761   1.651   4.033 -0.2459 -0.2680  1.8829
 6760SOL    HW221221   3.752   1.502   4.008 -0.1018 -0.2640  1.8068
 6761SOL     OW21222   4.513   6.439   4.702 -0.7393 -0.0923 -0.0388
 6761SOL    HW121223   4.530   6.413   4.792 -1.3696 -2.6841 -0.5876
 6761SOL    HW221224   4.554   6.371   4.649 -0.7491  1.1356 -1.7182
 6762SOL     OW21225   3.612   2.561   5.271 -0.0049  0.6920  0.3445
 6762SOL    HW121226   3.656   2.483   5.305 -1.2880 -0.5168 -0.6440
 6762SOL    HW221227   3.560   2.593   5.344  0.6531  0.7181  0.8086
 6763SOL     OW21228   4.453   2.027   1.545 -0.3287 -0.0581  1.1857
 6763SOL    HW121229   4.454   1.931   1.550 -0.2156 -0.1223  0.0213
 6763SOL    HW221230   4.504   2.055   1.622 -0.1487 -0.9336  1.3954
 6764SOL     OW21231   4.826   3.716   0.551 -0.3394 -0.2888 -0.0747
 6764SOL    HW121232   4.793   3.802   0.578 -0.5678 -0.2674 -0.4114
 6764SOL    HW221233   4.920   3.728   0.543 -0.1092 -0.5592  1.7016
 6765SOL     OW21234   0.671   5.490   5.815 -0.6534 -0.7864 -0.4670
 6765SOL    HW121235   0.594   5.546   5.815 -0.0783  0.0240  0.6402
 6765SOL    HW221236   0.744   5.549   5.794 -0.0042 -1.0360  0.9979
 6766SOL     OW21237   7.217   5.514   3.644 -0.4663 -0.1958  0.5885
 6766SOL    HW121238   7.170   5.530   3.562 -0.0801 -0.6190  0.2776
 6766SOL    HW221239   7.216   5.419   3.654  1.1769 -0.2986  0.0489
 6767SOL     OW21240   3.003   5.462   7.128  0.8743 -0.4360 -0.2843
 6767SOL    HW121241   2.991   5.381   7.079 -1.3838 -0.2263 -0.1814
 6767SOL    HW221242   2.919   5.508   7.120  1.6968  1.3467  0.6537
 6768SOL     OW21243   0.122   3.792   4.421  0.4918 -0.1224 -0.1543
 6768SOL    HW121244   0.091   3.870   4.465 -0.7493 -1.0996  0.7851
 6768SOL    HW221245   0.216   3.791   4.437  0.7788  1.8716 -1.3705
 6769SOL     OW21246   5.160   2.535   6.466  0.0108  0.2795 -0.2147
 6769SOL    HW121247   5.085   2.593   6.456 -2.0713 -2.4659 -1.4841
 6769SOL    HW221248   5.195   2.526   6.377  0.8590  0.2427  0.1150
 6770SOL     OW21249   1.777   6.086   6.494  0.0619  0.0798  0.3069
 6770SOL    HW121250   1.712   6.152   6.517  0.6550  0.8332 -0.1036
 6770SOL    HW221251   1.727   6.015   6.454 -0.8349 -0.6612  2.6143
 6771SOL     OW21252   5.808   4.859   6.914 -0.0437  0.4437  0.0853
 6771SOL    HW121253   5.849   4.774   6.899 -0.8862  0.5887 -4.2169
 6771SOL    HW221254   5.879   4.922   6.903 -0.1175  0.4309 -0.4743
 6772SOL     OW21255   1.134   0.127   5.355 -0.0535 -0.2038  0.0982
 6772SOL    HW121256   1.195   0.071   5.306  0.3377  1.0238 -0.8605
 6772SOL    HW221257   1.083   0.065   5.408  0.0769 -1.5158 -1.2351
 6773SOL     OW21258   0.909   1.952   3.928 -0.3629 -0.4007  0.2361
 6773SOL    HW121259   0.882   1.999   3.848  1.9268 -0.4127 -0.6122
 6773SOL    HW221260   0.937   2.021   3.987 -0.3848 -0.5074  0.3710
 6774SOL     OW21261   5.818   0.126   3.800 -0.1469  0.6291  0.9415
 6774SOL    HW121262   5.910   0.119   3.773 -0.1464  1.0721  0.8276
 6774SOL    HW221263   5.815   0.084   3.886  0.1000  0.3401  0.8129
 6775SOL     OW21264   4.498   2.831   2.119 -0.4143 -0.3840  0.4985
 6775SOL    HW121265   4.531   2.876   2.196  1.2348 -2.5208  1.1260
 6775SOL    HW221266   4.420   2.881   2.094  0.2685  1.6718  2.1815
 6776SOL     OW21267   4.123   7.416   3.425  0.3857 -0.5871  0.1618
 6776SOL    HW121268   4.064   7.446   3.355 -0.1849 -3.0481 -0.4952
 6776SOL    HW221269   4.075   7.434   3.506 -1.4918 -2.7399 -0.3609
 6777SOL     OW21270   5.720   7.295   1.746 -0.3329  0.2974  0.1575
 6777SOL    HW121271   5.684   7.293   1.657  0.9827 -1.8896 -0.4215
 6777SOL    HW221272   5.657   7.345   1.797 -1.6505  0.7328 -1.7907
 6778SOL     OW21273   1.093   3.312   5.349 -0.8359  0.2800  0.0090
 6778SOL    HW121274   1.169   3.256   5.333  0.3812  1.9119 -0.2890
 6778SOL    HW221275   1.026   3.253   5.382  0.7543 -1.1513  0.8590
 6779SOL     OW21276   3.077   7.124   2.523  0.2307 -0.1334  0.5585
 6779SOL    HW121277   3.000   7.151   2.572 -0.6964  0.7393 -1.2641
 6779SOL    HW221278   3.100   7.201   2.470  1.1614 -1.0128 -0.3799
 6780SOL     OW21279   6.381   6.298   1.258  0.1267 -0.9525  0.8297
 6780SOL    HW121280   6.383   6.224   1.318 -2.2149 -0.2687  1.8777
 6780SOL    HW221281   6.288   6.319   1.248  0.6443  1.1736 -0.2648
 6781SOL     OW21282   1.200   5.579   3.636 -0.0677  0.2412  0.0905
 6781SOL    HW121283   1.167   5.609   3.720  0.3918  2.3607 -0.4344
 6781SOL    HW221284   1.274   5.522   3.659  0.5157  1.3571  1.1416
 6782SOL     OW21285   2.039   5.305   1.935 -0.1479 -0.3558 -0.0277
 6782SOL    HW121286   2.070   5.288   1.846  2.0358  1.4395  0.2992
 6782SOL    HW221287   2.068   5.228   1.986 -0.3259 -0.8285 -0.6333
 6783SOL     OW21288   1.764   0.685   2.148 -0.4487  0.0529 -0.2063
 6783SOL    HW121289   1.717   0.602   2.138  0.5173 -0.4482 -0.7349
 6783SOL    HW221290   1.781   0.692   2.242 -1.3076  0.0938 -0.0512
 6784SOL     OW21291   4.589   4.560   2.630 -0.3263  1.0300 -0.2493
 6784SOL    HW121292   4.554   4.618   2.697  0.4079  3.2368 -1.6708
 6784SOL    HW221293   4.578   4.472   2.666  0.3395  2.1162  2.8879
 6785SOL     OW21294   4.965   1.726   4.007 -0.0777  0.4590 -0.4016
 6785SOL    HW121295   5.008   1.704   4.090 -1.8395 -0.1085  0.4131
 6785SOL    HW221296   5.037   1.736   3.945  1.4104  2.1553  1.4447
 6786SOL     OW21297   0.545   0.011   3.785  0.3686 -0.5801 -0.0334
 6786SOL    HW121298   0.578   0.031   3.698 -2.0421  1.8433 -0.5000
 6786SOL    HW221299   0.530  -0.084   3.784  2.0240 -0.8871 -1.5717
 6787SOL     OW21300   4.204   5.216   0.249  0.0973  0.3929 -0.5179
 6787SOL    HW121301   4.223   5.129   0.214  3.9718  0.7451  0.3646
 6787SOL    HW221302   4.214   5.208   0.343  0.5961  1.7912 -0.4195
 6788SOL     OW21303   3.324   6.964   2.836  0.2952  0.0150 -0.2620
 6788SOL    HW121304   3.345   6.873   2.816  2.0787  0.1966  0.5443
 6788SOL    HW221305   3.359   6.978   2.924 -0.3320  1.3739 -0.1959
 6789SOL     OW21306   1.027   6.809   0.299  0.0439  0.0665 -0.2622
 6789SOL    HW121307   1.074   6.842   0.222  2.3440  1.4913  1.5933
 6789SOL    HW221308   1.062   6.721   0.312  0.5113  0.2531 -0.2208
 6790SOL     OW21309   2.661   5.914   4.402  0.1431  0.7462  0.2087
 6790SOL    HW121310   2.584   5.857   4.405  0.4481  0.3538  0.7849
 6790SOL    HW221311   2.707   5.889   4.321  0.8818 -0.6542  1.0196
 6791SOL     OW21312   3.808   4.233   5.691 -0.1577  0.6713 -0.3418
 6791SOL    HW121313   3.790   4.148   5.731 -1.7998  1.4929  0.8132
 6791SOL    HW221314   3.902   4.246   5.705 -0.3870  0.2927  2.1303
 6792SOL     OW21315   4.262   4.863   5.630 -0.4149 -0.0871 -0.1761
 6792SOL    HW121316   4.285   4.816   5.710  0.7182 -1.3709 -1.2157
 6792SOL    HW221317   4.315   4.943   5.634  0.1685 -0.4715  0.0362
 6793SOL     OW21318   5.298   1.806   4.436  0.2160  0.0346  0.3401
 6793SOL    HW121319   5.307   1.896   4.405  0.8800 -0.5443 -1.3134
 6793SOL    HW221320   5.386   1.782   4.464  0.2682 -0.3922 -0.1665
 6794SOL     OW21321   6.332   0.587   2.312 -0.1707 -0.3039 -0.4029
 6794SOL    HW121322   6.359   0.652   2.377 -1.4391  0.3426 -0.4773
 6794SOL    HW221323   6.252   0.549   2.349 -0.3279 -0.6634 -1.0996
 6795SOL     OW21324   3.273   1.434   7.174 -0.7433 -0.0284 -0.2857
 6795SOL    HW121325   3.190   1.458   7.133 -1.1152 -0.2169  0.3341
 6795SOL    HW221326   3.270   1.476   7.260 -1.0487 -1.5690  0.5044
 6796SOL     OW21327   3.268   4.147   2.807  0.2534  0.0236 -0.3172
 6796SOL    HW121328   3.288   4.191   2.724  1.2862  1.8194  0.8059
 6796SOL    HW221329   3.187   4.188   2.837  0.9039  0.7804  0.4525
 6797SOL     OW21330   0.089   7.112   2.199 -0.6085  0.2152 -0.3862
 6797SOL    HW121331   0.001   7.136   2.231 -0.1377  2.2745 -0.4635
 6797SOL    HW221332   0.149   7.161   2.255  0.4127  0.3641 -1.5635
 6798SOL     OW21333   6.920   1.984   6.214 -0.5373 -0.4564  0.7768
 6798SOL    HW121334   6.901   2.041   6.288 -0.1947  0.9120 -0.1598
 6798SOL    HW221335   6.988   1.925   6.247  0.1285  0.5963  1.3377
 6799SOL     OW21336   5.911   2.136   2.873 -0.4604 -0.0184 -0.4919
 6799SOL    HW121337   5.963   2.175   2.803 -0.0139  2.0669  0.9272
 6799SOL    HW221338   5.975   2.086   2.925 -0.4375  0.0304 -0.4731
 6800SOL     OW21339   2.472   3.701   5.863  0.2037 -0.4443  0.1121
 6800SOL    HW121340   2.524   3.663   5.934  0.3254 -0.0296  0.2464
 6800SOL    HW221341   2.395   3.737   5.907 -0.2420 -1.1136 -0.0926
 6801SOL     OW21342   5.084   7.045   6.872  0.2319  0.2464 -0.1377
 6801SOL    HW121343   5.127   6.967   6.908 -1.0429  0.3323  1.7535
 6801SOL    HW221344   4.992   7.035   6.897 -0.4714  1.1119 -2.1694
 6802SOL     OW21345   1.164   7.157   2.687 -0.2875 -0.1026  0.0822
 6802SOL    HW121346   1.252   7.187   2.708  0.4439 -1.9818 -0.0564
 6802SOL    HW221347   1.106   7.226   2.719  1.2957  2.6821 -2.5294
 6803SOL     OW21348   1.051   4.390   0.843  0.4470 -0.6839 -0.2129
 6803SOL    HW121349   1.043   4.299   0.814  1.3423 -0.6535 -0.5879
 6803SOL    HW221350   1.131   4.391   0.895 -0.6636 -0.5399  1.5706
 6804SOL     OW21351   6.958   1.765   6.020  0.5573 -0.4215 -0.0610
 6804SOL    HW121352   6.864   1.766   6.000  0.3560 -0.7357  0.8200
 6804SOL    HW221353   6.972   1.842   6.074  0.7119 -0.6401  0.2128
 6805SOL     OW21354   6.927   2.534   4.616  0.3874 -0.4824 -0.1587
 6805SOL    HW121355   6.913   2.442   4.592  0.2026 -0.6644  0.6076
 6805SOL    HW221356   6.903   2.583   4.537 -3.1150 -0.8721  0.4934
 6806SOL     OW21357   1.146   3.150   4.723 -0.2333 -0.5821  0.1937
 6806SOL    HW121358   1.220   3.089   4.716  0.8372  0.7320 -0.1558
 6806SOL    HW221359   1.139   3.190   4.636 -2.7026 -2.1503 -0.4366
 6807SOL     OW21360   1.636   0.828   3.144  0.4465  0.0991  0.3179
 6807SOL    HW121361   1.714   0.866   3.185 -1.4501  2.9766  1.6381
 6807SOL    HW221362   1.573   0.821   3.215 -1.6355  1.3535 -1.2695
 6808SOL     OW21363   5.197   3.623   0.511 -0.1818  0.2396  0.2895
 6808SOL    HW121364   5.174   3.604   0.602 -0.1296  0.9336  0.4543
 6808SOL    HW221365   5.291   3.640   0.514  0.3961 -2.3889 -0.3448
 6809SOL     OW21366   7.049   4.531   0.209 -0.0132  0.2840  0.6379
 6809SOL    HW121367   7.101   4.457   0.177  1.7816  2.0459 -0.7710
 6809SOL    HW221368   6.965   4.492   0.233  0.6738 -2.1313 -0.4945
 6810SOL     OW21369   4.611   4.766   3.733  0.9286  0.1895 -0.2026
 6810SOL    HW121370   4.614   4.681   3.778  0.7330 -0.3265 -1.1415
 6810SOL    HW221371   4.607   4.830   3.804  0.4086 -0.6146  0.5172
 6811SOL     OW21372   6.373   2.108   2.970  0.0572 -0.1405 -0.3896
 6811SOL    HW121373   6.312   2.171   3.007  0.3676  1.1347 -1.9433
 6811SOL    HW221374   6.444   2.103   3.034 -0.0748  0.9474 -0.1386
 6812SOL     OW21375   6.126   4.226   2.534 -0.4764  0.0532 -0.3693
 6812SOL    HW121376   6.200   4.278   2.501 -1.5260  1.5369 -0.5059
 6812SOL    HW221377   6.164   4.173   2.605  0.5642  1.4254  0.1628
 6813SOL     OW21378   0.205   3.673   5.635  0.0349 -0.3040  0.3457
 6813SOL    HW121379   0.129   3.627   5.672 -1.8133  0.2913 -2.3649
 6813SOL    HW221380   0.257   3.604   5.594  0.9433 -0.7035  2.1141
 6814SOL     OW21381   1.169   3.077   3.478 -0.2163 -0.1264 -0.2431
 6814SOL    HW121382   1.226   3.001   3.484  0.3769  0.3591  0.5607
 6814SOL    HW221383   1.211   3.143   3.534 -2.2714 -0.1978  1.5489
 6815SOL     OW21384   5.497   5.365   3.411 -0.5830 -0.2395 -0.2542
 6815SOL    HW121385   5.465   5.326   3.330  2.2920 -1.0176 -1.1418
 6815SOL    HW221386   5.487   5.296   3.477 -0.2179 -0.6742 -0.6460
 6816SOL     OW21387   4.576   0.062   6.169  0.1964 -0.3999  0.1844
 6816SOL    HW121388   4.520   0.045   6.245 -1.9921 -1.2027 -1.5136
 6816SOL    HW221389   4.635  -0.014   6.166  0.3659 -0.3228  1.0808
 6817SOL     OW21390   0.687   0.353   3.292  0.1466  0.5563 -0.2312
 6817SOL    HW121391   0.643   0.431   3.327  1.4296  0.8206  0.8910
 6817SOL    HW221392   0.779   0.379   3.285  0.3676 -0.4211 -1.1869
 6818SOL     OW21393   4.131   5.604   4.130  0.3561 -0.4020 -0.0434
 6818SOL    HW121394   4.082   5.633   4.207 -0.2151 -0.5573 -0.3404
 6818SOL    HW221395   4.212   5.567   4.166 -0.8931 -2.5959  0.6804
 6819SOL     OW21396   2.339   2.667   4.411  0.7093  0.3367  0.2042
 6819SOL    HW121397   2.282   2.727   4.459  0.2651  0.1425 -0.0788
 6819SOL    HW221398   2.333   2.695   4.320 -0.1405 -0.6259 -0.0568
 6820SOL     OW21399   1.175   2.330   2.100  0.1234 -0.2265  0.8097
 6820SOL    HW121400   1.204   2.255   2.153 -1.5981 -1.0237  0.7042
 6820SOL    HW221401   1.102   2.368   2.150  1.2911  1.7390  1.1131
 6821SOL     OW21402   5.876   0.632   4.519 -0.1941  0.2311 -0.8345
 6821SOL    HW121403   5.886   0.725   4.498  3.0947  0.3598  0.6032
 6821SOL    HW221404   5.951   0.590   4.475 -0.9531 -1.5565 -0.4910
 6822SOL     OW21405   0.255   3.304   6.501  0.4375 -1.0052  0.2220
 6822SOL    HW121406   0.258   3.399   6.507 -2.1789 -0.8362 -0.1528
 6822SOL    HW221407   0.346   3.278   6.482  1.2914  1.3346  0.8320
 6823SOL     OW21408   0.463   1.324   0.955 -0.0364  0.9553 -0.3594
 6823SOL    HW121409   0.389   1.280   0.914 -0.6747  1.4785  0.2010
 6823SOL    HW221410   0.424   1.399   1.000  0.7877  1.0189  0.2697
 6824SOL     OW21411   1.699   6.707   6.482 -0.2066 -0.5806 -0.8088
 6824SOL    HW121412   1.637   6.778   6.500  0.0757  0.0270 -2.1719
 6824SOL    HW221413   1.650   6.646   6.427  0.0105 -0.7524 -0.8117
 6825SOL     OW21414   5.845   2.023   7.093 -0.1447  0.2725  0.5479
 6825SOL    HW121415   5.927   2.011   7.046  0.0491  1.1176  0.6447
 6825SOL    HW221416   5.840   1.949   7.153  0.9200  0.5931  1.0633
 6826SOL     OW21417   3.302   1.511   4.862  0.5631 -0.1904  0.1674
 6826SOL    HW121418   3.230   1.494   4.802  0.2267  1.1251  0.1607
 6826SOL    HW221419   3.377   1.466   4.822 -0.2381 -1.5953  0.1945
 6827SOL     OW21420   5.893   3.292   7.167 -0.0805 -0.2268 -0.1141
 6827SOL    HW121421   5.878   3.240   7.247 -1.7248 -1.0958 -0.9193
 6827SOL    HW221422   5.864   3.234   7.096  0.7207  0.7769 -1.2895
 6828SOL     OW21423   3.391   6.918   0.117 -0.2519  0.0807 -0.6667
 6828SOL    HW121424   3.422   6.919   0.208 -1.7630 -0.6053 -0.1149
 6828SOL    HW221425   3.471   6.927   0.065  0.8594 -1.2741  0.6855
 6829SOL     OW21426   1.245   4.587   3.810  1.3080 -0.0282  0.1604
 6829SOL    HW121427   1.259   4.495   3.787 -0.0178  0.0544 -1.1095
 6829SOL    HW221428   1.315   4.607   3.872  1.7558 -1.8250  0.2871
 6830SOL     OW21429   5.559   2.386   3.471  0.8464  0.2039 -0.2939
 6830SOL    HW121430   5.627   2.442   3.509  0.1560  1.6925 -1.1409
 6830SOL    HW221431   5.482   2.400   3.527  0.9175 -0.6109  0.0149
 6831SOL     OW21432   2.027   0.324   4.545  0.4694 -0.5844 -0.0250
 6831SOL    HW121433   2.032   0.239   4.501 -1.8084  0.1885 -2.0629
 6831SOL    HW221434   2.117   0.356   4.547  0.9638 -1.5606 -2.4924
 6832SOL     OW21435   3.133   2.169   0.154 -0.4492 -0.1374  0.7252
 6832SOL    HW121436   3.173   2.137   0.074 -1.2858  1.6204 -0.4653
 6832SOL    HW221437   3.043   2.189   0.129 -0.6034  0.8606  1.9769
 6833SOL     OW21438   2.754   2.798   0.348  0.2774 -0.1328  0.1830
 6833SOL    HW121439   2.728   2.752   0.268 -0.3413  1.6498 -0.6871
 6833SOL    HW221440   2.844   2.770   0.364 -0.0822 -1.6562 -0.2634
 6834SOL     OW21441   4.039   7.214   5.297 -0.5660 -0.8447 -0.3438
 6834SOL    HW121442   3.988   7.271   5.354 -0.0725 -1.1138  0.3754
 6834SOL    HW221443   4.110   7.270   5.265 -0.7450 -0.7417 -0.5665
 6835SOL     OW21444   0.747   5.803   7.277 -0.2341 -0.4220 -0.5162
 6835SOL    HW121445   0.657   5.836   7.273  0.3380  1.2081 -0.7786
 6835SOL    HW221446   0.768   5.801   7.370 -1.0326 -2.3155 -0.3363
 6836SOL     OW21447   4.973   5.251   7.221 -0.0741 -0.0122 -0.7112
 6836SOL    HW121448   5.057   5.239   7.265 -0.7849 -1.5939  0.3138
 6836SOL    HW221449   4.995   5.254   7.128  1.0964 -0.8610 -0.4897
 6837SOL     OW21450   6.157   3.910   0.612 -0.2921  0.1307 -0.5717
 6837SOL    HW121451   6.172   3.997   0.650 -0.7145 -0.5460  1.2393
 6837SOL    HW221452   6.108   3.927   0.531 -0.6303  1.5617 -0.0925
 6838SOL     OW21453   6.707   7.089   2.599 -0.1876 -0.1125  0.0225
 6838SOL    HW121454   6.796   7.054   2.606  0.1058  0.5853 -0.1553
 6838SOL    HW221455   6.651   7.012   2.607  0.4527 -0.6625 -0.5676
 6839SOL     OW21456   0.720   2.056   3.643  0.0305  0.1806 -0.4352
 6839SOL    HW121457   0.691   2.090   3.558 -1.0489 -0.4828 -0.3416
 6839SOL    HW221458   0.717   1.961   3.632  0.4583  0.0968  0.1647
 6840SOL     OW21459   7.118   3.724   5.823  0.1539 -0.2425 -0.1684
 6840SOL    HW121460   7.032   3.730   5.781  1.1305 -1.6041 -2.5627
 6840SOL    HW221461   7.105   3.760   5.911 -2.6126  0.4676 -0.7920
 6841SOL     OW21462   5.284   2.404   1.017  0.1435  0.8602 -0.3266
 6841SOL    HW121463   5.282   2.363   0.931  2.7365 -0.4307  0.1396
 6841SOL    HW221464   5.199   2.382   1.056 -0.1723 -0.4694 -1.6883
 6842SOL     OW21465   0.032   5.829   4.991 -0.1570  0.4974 -0.0062
 6842SOL    HW121466   0.038   5.739   5.025  0.7158  0.5709  0.0666
 6842SOL    HW221467  -0.013   5.819   4.907 -0.3448  0.0290  0.1432
 6843SOL     OW21468   5.222   4.816   3.753 -0.2028  0.2814 -0.1618
 6843SOL    HW121469   5.128   4.832   3.743 -0.4379 -0.7822  0.2238
 6843SOL    HW221470   5.254   4.890   3.805 -0.9937  0.2244  0.4271
 6844SOL     OW21471   1.324   7.276   2.861 -0.2768 -0.5502 -0.3935
 6844SOL    HW121472   1.293   7.363   2.883  1.4257  0.8337 -2.8842
 6844SOL    HW221473   1.299   7.221   2.935 -0.1191  2.3307  1.9712
 6845SOL     OW21474   4.781   7.310   1.217 -0.4229 -0.0813 -0.6412
 6845SOL    HW121475   4.754   7.401   1.208 -0.2778 -0.0391 -0.6465
 6845SOL    HW221476   4.871   7.308   1.184 -0.5144 -0.2752 -0.8825
 6846SOL     OW21477   1.728   6.624   0.693 -0.2216  0.5844  0.0457
 6846SOL    HW121478   1.707   6.707   0.650 -0.8832  0.5274  0.2468
 6846SOL    HW221479   1.737   6.561   0.621  0.7860  0.9242 -0.1426
 6847SOL     OW21480   3.738   1.928   5.437  0.8962  0.0253 -0.0610
 6847SOL    HW121481   3.828   1.955   5.452  0.8917 -0.3422  0.6416
 6847SOL    HW221482   3.704   1.906   5.524  0.3770 -0.6069 -0.4120
 6848SOL     OW21483   0.513   1.972   0.856 -0.5521 -0.3849 -0.1781
 6848SOL    HW121484   0.555   2.052   0.826 -1.3505 -0.1580 -0.7260
 6848SOL    HW221485   0.488   1.926   0.776 -2.5616  0.1466  0.0799
 6849SOL     OW21486   6.455   3.355   0.401 -0.1958 -0.0017 -0.7492
 6849SOL    HW121487   6.473   3.438   0.446 -1.4361  0.5750 -1.2762
 6849SOL    HW221488   6.538   3.334   0.357  0.3298  0.6111 -0.0926
 6850SOL     OW21489   1.085   5.955   5.302  0.5088 -0.6453  0.5172
 6850SOL    HW121490   1.097   6.046   5.330  0.1718 -0.5793  0.4512
 6850SOL    HW221491   1.101   5.957   5.207  2.7034 -1.0523  0.8066
 6851SOL     OW21492   5.461   3.362   6.893  0.2619 -0.1820 -0.1391
 6851SOL    HW121493   5.547   3.393   6.920  1.2983 -2.8524 -0.1503
 6851SOL    HW221494   5.447   3.282   6.943 -2.3055  0.2319 -0.0488
 6852SOL     OW21495   6.498   0.990   7.319  0.2570 -0.2966  0.1985
 6852SOL    HW121496   6.469   1.018   7.406  1.0760  0.0829  0.3659
 6852SOL    HW221497   6.419   0.985   7.266 -0.1632  0.1294  0.7872
 6853SOL     OW21498   7.126   2.726   3.268 -0.5012  0.3592 -0.1891
 6853SOL    HW121499   7.072   2.800   3.240 -1.1904  0.0694  0.3440
 6853SOL    HW221500   7.176   2.759   3.343 -1.6364 -0.0184  0.7626
 6854SOL     OW21501   2.193   0.005   6.787 -0.1550  0.1286 -0.1565
 6854SOL    HW121502   2.247  -0.035   6.719 -1.6509 -2.0093 -0.1779
 6854SOL    HW221503   2.198  -0.055   6.861 -1.5039  0.5168  0.2821
 6855SOL     OW21504   5.083   5.516   4.207  0.4150  0.5227  0.3294
 6855SOL    HW121505   5.100   5.606   4.178 -1.9624  0.6590 -0.9381
 6855SOL    HW221506   5.142   5.462   4.154 -0.2510  1.1732 -1.1398
 6856SOL     OW21507   0.954   1.202   4.500  0.2011 -0.0503  0.0328
 6856SOL    HW121508   0.938   1.215   4.594 -0.5030 -1.6213  0.1632
 6856SOL    HW221509   1.049   1.207   4.491  0.2674  0.2668  0.8129
 6857SOL     OW21510   6.849   1.087   4.214 -0.1383  0.1684  0.4173
 6857SOL    HW121511   6.943   1.082   4.228 -0.1745 -1.4427  0.2721
 6857SOL    HW221512   6.822   0.996   4.200 -1.6016  0.6786 -0.2653
 6858SOL     OW21513   3.166   5.861   0.771 -0.0554 -0.1538 -0.1162
 6858SOL    HW121514   3.205   5.786   0.816  0.1142  1.0322  1.8432
 6858SOL    HW221515   3.238   5.897   0.719  0.3265 -0.3877  0.2414
 6859SOL     OW21516   3.092   0.893   0.512  0.3765  0.3111 -0.1789
 6859SOL    HW121517   3.027   0.950   0.470 -0.0365  1.0610  1.4181
 6859SOL    HW221518   3.165   0.951   0.533 -0.0738  0.2910  1.5298
 6860SOL     OW21519   1.626   7.337   7.008 -0.9007  0.2558 -0.1857
 6860SOL    HW121520   1.575   7.409   7.046 -1.3152  0.6528 -1.4374
 6860SOL    HW221521   1.696   7.380   6.959 -0.0212 -0.2635  0.5841
 6861SOL     OW21522   3.928   0.211   4.587  0.0503 -0.2697 -0.6352
 6861SOL    HW121523   4.002   0.236   4.643 -0.4743  2.0506 -0.8466
 6861SOL    HW221524   3.875   0.154   4.642 -0.1261  1.4471  1.1037
 6862SOL     OW21525   5.627   0.263   3.168  0.0401  0.0698  0.0362
 6862SOL    HW121526   5.561   0.271   3.099 -0.5466 -0.8827  0.4570
 6862SOL    HW221527   5.618   0.343   3.219 -0.4835  0.1559 -0.1831
 6863SOL     OW21528   2.568   7.252   6.290 -0.1378 -0.0985  0.0676
 6863SOL    HW121529   2.517   7.185   6.246 -1.1661  1.5435 -1.3692
 6863SOL    HW221530   2.579   7.321   6.225  0.7201  1.2167  1.5231
 6864SOL     OW21531   4.354   6.536   0.713 -0.0274 -0.2341 -0.5646
 6864SOL    HW121532   4.314   6.458   0.676  0.8504 -1.6686  1.3165
 6864SOL    HW221533   4.284   6.578   0.762 -0.8008  0.8589 -2.5043
 6865SOL     OW21534   4.542   0.032   5.473 -0.5687 -0.3777 -0.2424
 6865SOL    HW121535   4.485  -0.011   5.536  0.9893 -1.3046  0.6062
 6865SOL    HW221536   4.629  -0.003   5.491  0.5414  1.9884 -0.5532
 6866SOL     OW21537   4.976   5.079   4.230  0.1001 -0.5659 -0.4256
 6866SOL    HW121538   4.889   5.118   4.240 -0.2359 -1.3099 -0.3293
 6866SOL    HW221539   5.025   5.141   4.176 -0.8334 -0.6416 -1.3865
 6867SOL     OW21540   5.793   6.462   0.098 -0.0311  0.2525 -0.6560
 6867SOL    HW121541   5.856   6.525   0.064  0.2664  0.3556  0.0752
 6867SOL    HW221542   5.711   6.512   0.106  0.6173  1.0751  1.5910
 6868SOL     OW21543   2.463   5.008   0.704 -0.2586  0.6869 -0.1634
 6868SOL    HW121544   2.417   5.092   0.715  0.9219  1.1680  1.5305
 6868SOL    HW221545   2.512   5.018   0.623  0.6568  2.0756  0.5137
 6869SOL     OW21546   2.893   7.287   3.460  0.6700  0.0749 -0.1292
 6869SOL    HW121547   2.810   7.243   3.444 -0.0483  1.4292 -0.2959
 6869SOL    HW221548   2.959   7.218   3.456 -0.3408 -0.8636 -1.0346
 6870SOL     OW21549   2.413   6.415   1.688 -0.2072  0.0958 -0.2024
 6870SOL    HW121550   2.462   6.431   1.607  0.1040 -1.2354 -0.3105
 6870SOL    HW221551   2.454   6.336   1.725 -1.0356  0.0711  0.6975
 6871SOL     OW21552   5.715   4.355   0.229  0.0273 -0.1231  0.0978
 6871SOL    HW121553   5.804   4.382   0.209 -0.4646  1.0189 -0.7214
 6871SOL    HW221554   5.721   4.308   0.312  1.5132 -0.9157 -0.4314
 6872SOL     OW21555   3.211   3.687   4.110  0.2332  0.0730 -0.4923
 6872SOL    HW121556   3.223   3.673   4.016  1.9679  0.5442 -0.3715
 6872SOL    HW221557   3.118   3.668   4.125  0.3680 -2.0097 -1.9226
 6873SOL     OW21558   0.003   3.852   5.768 -0.1854 -0.1605  0.0494
 6873SOL    HW121559   0.060   3.846   5.691  0.3505 -2.4297  0.5471
 6873SOL    HW221560  -0.042   3.767   5.772 -0.8151  0.2013  1.7789
 6874SOL     OW21561   4.953   5.539   0.656 -0.1644  0.0447 -0.5102
 6874SOL    HW121562   4.882   5.539   0.720  1.6978  0.9828  1.6896
 6874SOL    HW221563   4.958   5.629   0.624 -0.7784 -0.3150 -1.6986
 6875SOL     OW21564   2.619   6.632   2.549 -0.3615 -0.2585  0.2266
 6875SOL    HW121565   2.668   6.573   2.607 -0.1146 -0.6790 -0.3939
 6875SOL    HW221566   2.681   6.702   2.529 -0.3452 -0.2699  0.2371
 6876SOL     OW21567   3.828   3.722   3.448  0.0425 -0.2437  0.1652
 6876SOL    HW121568   3.821   3.722   3.543  0.8503 -0.1489  0.2319
 6876SOL    HW221569   3.746   3.762   3.418  0.7255  1.8922  0.9216
 6877SOL     OW21570   4.037   7.305   4.649 -0.2411  0.2984  0.0398
 6877SOL    HW121571   3.966   7.370   4.656 -0.4723  0.0596 -0.0613
 6877SOL    HW221572   4.007   7.232   4.702 -0.3164 -0.0202 -0.4297
 6878SOL     OW21573   0.914   1.759   7.338  0.0923  0.0757 -0.1083
 6878SOL    HW121574   0.936   1.742   7.430  0.4211 -1.5020 -0.4404
 6878SOL    HW221575   0.821   1.781   7.340  0.3232  1.0506  0.6958
 6879SOL     OW21576   3.267   1.531   6.024 -0.4196 -0.3804 -0.2020
 6879SOL    HW121577   3.337   1.472   5.997  0.6348  0.3124  0.9022
 6879SOL    HW221578   3.312   1.613   6.046 -1.6193  0.1925  0.1968
 6880SOL     OW21579   1.275   4.401   1.031  0.8551 -0.0957  0.3257
 6880SOL    HW121580   1.311   4.488   1.014  0.0129  0.0911 -0.6376
 6880SOL    HW221581   1.240   4.405   1.120 -1.6323  1.4685 -0.6162
 6881SOL     OW21582   2.787   6.020   3.415  0.1645  0.0786  0.0769
 6881SOL    HW121583   2.798   6.112   3.441  1.8622 -0.7037  2.5512
 6881SOL    HW221584   2.838   6.011   3.335 -0.3383  1.3605 -0.4117
 6882SOL     OW21585   1.943   6.061   4.016 -0.2327 -0.0080  0.1607
 6882SOL    HW121586   1.937   6.041   3.922  0.0642 -0.3015  0.1998
 6882SOL    HW221587   1.921   6.154   4.022  1.0805  0.3676 -0.3781
 6883SOL     OW21588   5.426   4.394   1.408 -0.4613  0.1061 -0.5634
 6883SOL    HW121589   5.449   4.424   1.495  1.3813  1.2085 -1.3641
 6883SOL    HW221590   5.380   4.469   1.368  1.5883  0.9006 -1.5862
 6884SOL     OW21591   4.615   0.275   2.477 -0.0066 -0.2815  0.6585
 6884SOL    HW121592   4.574   0.192   2.449  0.0475 -0.0131 -0.2463
 6884SOL    HW221593   4.700   0.275   2.434  0.7889 -0.6184  2.1764
 6885SOL     OW21594   4.959   2.207   3.015 -0.5299  0.1770  0.4240
 6885SOL    HW121595   5.034   2.151   3.035 -2.1701 -1.0277  4.1389
 6885SOL    HW221596   4.995   2.296   3.010  1.3558 -0.5593  0.3333
 6886SOL     OW21597   2.210   1.416   0.894  0.0953 -0.4860 -0.1629
 6886SOL    HW121598   2.246   1.401   0.806 -1.2938 -1.0530 -0.6689
 6886SOL    HW221599   2.241   1.504   0.917  1.7191 -0.9163 -0.5648
 6887SOL     OW21600   2.939   0.260   2.885  0.4045  0.0127  0.2416
 6887SOL    HW121601   2.856   0.303   2.911  0.5749  0.2489  0.4046
 6887SOL    HW221602   2.999   0.333   2.872  0.6590 -0.1736  0.3776
 6888SOL     OW21603   3.493   5.485   7.118 -0.6475  0.3467 -0.5609
 6888SOL    HW121604   3.486   5.390   7.129  0.4618 -0.2074 -3.6760
 6888SOL    HW221605   3.422   5.507   7.058  0.8539  0.9469 -2.1811
 6889SOL     OW21606   6.030   2.518   3.016  0.0716  0.4812 -0.3041
 6889SOL    HW121607   6.017   2.526   2.922 -0.2751  0.3231 -0.2683
 6889SOL    HW221608   5.951   2.475   3.049  2.0210 -3.7781 -0.5630
 6890SOL     OW21609   2.717   5.170   3.941  0.2692 -0.1463 -0.5738
 6890SOL    HW121610   2.663   5.159   4.019  1.2365 -3.9236 -0.2164
 6890SOL    HW221611   2.654   5.181   3.870 -0.8399 -0.8713  0.2636
 6891SOL     OW21612   1.496   4.397   1.853 -0.1881  0.4356  0.1649
 6891SOL    HW121613   1.493   4.452   1.931 -0.3190  0.1560  0.3616
 6891SOL    HW221614   1.416   4.418   1.805 -2.4656 -2.4660  2.2567
 6892SOL     OW21615   6.656   6.573   3.660  0.0312 -0.0901  0.0593
 6892SOL    HW121616   6.607   6.518   3.599  0.0809  1.4626 -1.4702
 6892SOL    HW221617   6.688   6.512   3.727 -2.9071 -1.3517  0.4681
 6893SOL     OW21618   5.655   1.878   1.087  0.4499  0.2406 -0.0260
 6893SOL    HW121619   5.657   1.872   1.183  0.8559  1.9007  0.0966
 6893SOL    HW221620   5.603   1.956   1.069 -2.1717 -1.6465 -1.3009
 6894SOL     OW21621   7.290   5.358   1.249 -0.0969 -0.0721  0.3366
 6894SOL    HW121622   7.267   5.359   1.342 -0.2444  0.3226  0.2960
 6894SOL    HW221623   7.266   5.271   1.219  1.1130 -0.6425  0.9633
 6895SOL     OW21624   4.983   2.734   5.245  0.0056  0.1393  0.5147
 6895SOL    HW121625   5.053   2.799   5.253  1.8623 -1.3304 -2.2233
 6895SOL    HW221626   5.029   2.650   5.246 -1.9829 -1.0012  0.7318
 6896SOL     OW21627   2.766   3.177   5.335  0.2036 -0.2359 -0.1292
 6896SOL    HW121628   2.803   3.120   5.402 -0.2157 -1.6609 -1.0643
 6896SOL    HW221629   2.828   3.171   5.262 -1.6726 -2.5595 -1.6733
 6897SOL     OW21630   7.333   2.945   2.190  0.3123 -0.0358  0.8180
 6897SOL    HW121631   7.363   2.947   2.281 -0.2650  1.4433  0.9969
 6897SOL    HW221632   7.389   3.008   2.145  0.0102 -0.1193  0.3207
 6898SOL     OW21633   3.593   0.587   1.051  1.1176  0.4000  0.4149
 6898SOL    HW121634   3.576   0.650   1.121 -0.4081  1.8270 -1.1449
 6898SOL    HW221635   3.685   0.602   1.028  0.7221  2.3003 -0.1005
 6899SOL     OW21636   2.768   1.933   0.500 -0.0688 -0.3200 -0.3744
 6899SOL    HW121637   2.676   1.929   0.528 -0.4876  3.2062 -0.7927
 6899SOL    HW221638   2.766   1.980   0.416  2.1068 -0.5613 -0.6297
 6900SOL     OW21639   2.346   3.300   6.984  0.2774  0.1497 -0.3164
 6900SOL    HW121640   2.348   3.365   7.054  0.1255 -0.5376  0.3497
 6900SOL    HW221641   2.395   3.225   7.020  0.3141 -0.1598 -0.9977
 6901SOL     OW21642   4.103   0.404   3.671 -0.1465  0.6001 -0.1564
 6901SOL    HW121643   4.170   0.445   3.616  1.2749  0.5612  1.4458
 6901SOL    HW221644   4.092   0.317   3.634  1.1929  0.3767 -0.0892
 6902SOL     OW21645   3.686   1.492   1.657 -0.4669 -0.0784  0.0965
 6902SOL    HW121646   3.690   1.410   1.608 -0.0041  0.2947 -0.5209
 6902SOL    HW221647   3.746   1.479   1.731 -0.1425 -0.1882 -0.1801
 6903SOL     OW21648   4.146   2.618   0.907  0.4671 -0.4173  0.1006
 6903SOL    HW121649   4.199   2.539   0.899 -0.1578 -1.1263  2.2517
 6903SOL    HW221650   4.103   2.628   0.822  0.6974 -2.2838 -0.2659
 6904SOL     OW21651   5.429   5.246   6.412  0.1478 -0.9846 -0.7871
 6904SOL    HW121652   5.354   5.211   6.459  0.8373 -0.8392  0.4767
 6904SOL    HW221653   5.392   5.304   6.346 -0.8409  0.9867  1.3554
 6905SOL     OW21654   0.339   3.775   3.325 -0.1951  0.5435  0.2036
 6905SOL    HW121655   0.275   3.816   3.267 -0.4985  0.2507  0.3300
 6905SOL    HW221656   0.378   3.705   3.272 -0.3551  0.3812  0.3031
 6906SOL     OW21657   5.087   4.330   0.771 -0.3926 -0.1309  0.2867
 6906SOL    HW121658   5.041   4.328   0.856  0.3070 -0.1762  0.6677
 6906SOL    HW221659   5.022   4.297   0.709 -0.4670 -1.4286  1.0204
 6907SOL     OW21660   6.627   2.326   3.298 -0.4150  0.4860 -0.1536
 6907SOL    HW121661   6.606   2.237   3.273  0.7048 -0.1887  1.1600
 6907SOL    HW221662   6.587   2.381   3.230  0.3418 -1.0787 -1.9306
 6908SOL     OW21663   2.589   4.960   7.019 -0.3549  0.6468 -0.3261
 6908SOL    HW121664   2.645   5.036   7.004  0.6817 -0.0736 -0.2315
 6908SOL    HW221665   2.561   4.968   7.111  1.5553 -0.1993  0.3861
 6909SOL     OW21666   4.479   6.353   7.426 -0.1287 -0.4754  0.2773
 6909SOL    HW121667   4.573   6.350   7.446  0.4566  0.2863 -2.0518
 6909SOL    HW221668   4.447   6.266   7.449  0.8432 -0.3616  2.2816
 6910SOL     OW21669   2.706   4.218   4.875 -0.0697  0.4000  0.1769
 6910SOL    HW121670   2.699   4.313   4.872  2.1843  0.6856  1.4859
 6910SOL    HW221671   2.762   4.200   4.951 -0.9406 -2.0139  0.3392
 6911SOL     OW21672   4.285   3.343   6.992 -0.5531  0.6703  0.5231
 6911SOL    HW121673   4.251   3.429   7.017 -0.2086  1.2157 -0.7947
 6911SOL    HW221674   4.241   3.324   6.909  0.8372  0.4802 -0.1936
 6912SOL     OW21675   7.296   3.276   0.294 -0.1615 -0.7608 -0.4988
 6912SOL    HW121676   7.209   3.308   0.320 -0.1338 -0.3810 -0.8543
 6912SOL    HW221677   7.339   3.253   0.376 -1.0318 -2.1007 -0.3984
 6913SOL     OW21678   2.082   1.227   6.998 -0.0207  0.1977 -0.2396
 6913SOL    HW121679   2.112   1.230   7.089  1.4111 -0.0485 -0.6722
 6913SOL    HW221680   2.160   1.249   6.947 -0.2539 -1.7063 -1.4904
 6914SOL     OW21681   3.485   1.857   0.258 -0.0229  0.2140 -0.5083
 6914SOL    HW121682   3.541   1.833   0.184 -0.5675 -0.5702 -0.6773
 6914SOL    HW221683   3.482   1.778   0.312 -0.0480  0.6186  0.0889
 6915SOL     OW21684   5.513   0.766   5.695 -0.1319 -0.2392 -0.0440
 6915SOL    HW121685   5.600   0.799   5.673 -0.9177  0.3858 -2.5936
 6915SOL    HW221686   5.521   0.671   5.689  0.0603 -0.1445 -1.9037
 6916SOL     OW21687   2.565   6.928   3.974 -0.3397 -0.3083 -0.8334
 6916SOL    HW121688   2.544   6.835   3.985  0.6273 -0.4503  0.0545
 6916SOL    HW221689   2.494   6.974   4.019  0.0637 -0.6938  0.2333
 6917SOL     OW21690   5.058   4.509   3.854  0.4079 -0.7937  0.1833
 6917SOL    HW121691   4.971   4.530   3.887  0.0720 -0.8974 -0.6106
 6917SOL    HW221692   5.118   4.555   3.912 -0.2448  1.5134 -0.8536
 6918SOL     OW21693   1.482   0.448   7.143  0.3106  0.1871 -0.6655
 6918SOL    HW121694   1.561   0.482   7.185  0.2499  1.0033 -1.1861
 6918SOL    HW221695   1.445   0.523   7.097 -1.2513  0.0306  0.2578
 6919SOL     OW21696   5.956   2.580   3.816 -0.1972 -0.2219 -0.0063
 6919SOL    HW121697   5.865   2.558   3.797 -0.1998 -0.8901  0.7392
 6919SOL    HW221698   5.995   2.497   3.843  0.2791  0.3212  1.0298
 6920SOL     OW21699   3.231   4.110   7.358 -0.2233  0.6050 -0.1923
 6920SOL    HW121700   3.281   4.058   7.420 -0.9428  0.5513  0.3509
 6920SOL    HW221701   3.152   4.059   7.341 -0.6701  1.2415 -0.0934
 6921SOL     OW21702   2.187   4.640   6.965 -0.1124  0.2008 -0.5495
 6921SOL    HW121703   2.126   4.673   6.899 -0.0707 -1.0355 -1.2228
 6921SOL    HW221704   2.179   4.545   6.961  0.7168  0.0655  0.4512
 6922SOL     OW21705   4.673   6.752   5.014 -0.3531  0.0366 -0.3074
 6922SOL    HW121706   4.634   6.746   4.927 -0.7960 -1.3324 -0.0440
 6922SOL    HW221707   4.608   6.798   5.067  0.4307  1.9793 -0.9487
 6923SOL     OW21708   2.504   5.950   1.068 -0.1666  0.1411  0.3971
 6923SOL    HW121709   2.524   5.875   1.012 -0.8412  0.5876 -0.4577
 6923SOL    HW221710   2.510   6.026   1.010 -3.8773  0.3686  0.1144
 6924SOL     OW21711   6.204   1.816   2.236 -0.5078 -0.1165  0.1510
 6924SOL    HW121712   6.240   1.894   2.193 -1.0300  0.9751  1.6205
 6924SOL    HW221713   6.137   1.785   2.175  1.3721 -0.9363 -1.6226
 6925SOL     OW21714   2.498   6.283   7.117 -0.0655  0.2725  0.0321
 6925SOL    HW121715   2.469   6.371   7.138 -1.6088 -0.3222  0.5337
 6925SOL    HW221716   2.450   6.227   7.178 -0.5384 -1.0561 -1.5065
 6926SOL     OW21717   3.825   0.402   6.715  0.2699  0.2223  0.4470
 6926SOL    HW121718   3.809   0.309   6.731  0.9137 -0.0312 -0.2941
 6926SOL    HW221719   3.920   0.409   6.712  0.2189  0.5722 -1.2881
 6927SOL     OW21720   4.840   7.071   3.227  0.0574  0.1166  0.0067
 6927SOL    HW121721   4.758   7.106   3.263 -0.9965 -1.6919 -0.4987
 6927SOL    HW221722   4.874   7.014   3.295 -0.0526 -0.5281 -0.4773
 6928SOL     OW21723   6.052   3.417   5.718 -0.4294 -0.4926 -0.1899
 6928SOL    HW121724   6.145   3.403   5.701 -0.3796  0.2385 -0.5656
 6928SOL    HW221725   6.008   3.342   5.679 -0.1244 -0.0176 -1.5123
 6929SOL     OW21726   2.164   1.945   6.456 -0.5721 -0.2237  0.1046
 6929SOL    HW121727   2.099   1.920   6.521  2.0184 -1.5507  2.3723
 6929SOL    HW221728   2.213   2.017   6.496 -0.6423  0.8422 -1.5978
 6930SOL     OW21729   1.485   4.759   7.027  0.1443 -0.1144  0.9706
 6930SOL    HW121730   1.500   4.754   7.121 -1.3598  1.3444  1.3407
 6930SOL    HW221731   1.390   4.772   7.019  0.3722  0.7116 -0.6934
 6931SOL     OW21732   1.488   5.560   2.030  0.2052 -0.3660 -0.0404
 6931SOL    HW121733   1.501   5.465   2.024  1.4645 -0.1837 -0.4338
 6931SOL    HW221734   1.496   5.579   2.124 -0.4502 -0.6901  0.0885
 6932SOL     OW21735   0.629   1.762   7.371 -0.1074 -0.1793 -0.5085
 6932SOL    HW121736   0.579   1.842   7.352 -2.3605 -1.8979 -2.4547
 6932SOL    HW221737   0.573   1.691   7.339  1.4525 -2.6347  1.8101
 6933SOL     OW21738   4.393   5.975   5.405  0.2339 -0.1860 -0.4157
 6933SOL    HW121739   4.353   5.971   5.318  2.3163  2.4507 -1.6044
 6933SOL    HW221740   4.358   6.055   5.444  0.7961 -0.3279  0.4098
 6934SOL     OW21741   4.263   3.247   5.832  0.1804  0.1509  0.4576
 6934SOL    HW121742   4.215   3.294   5.764  0.6064 -0.4010 -0.2439
 6934SOL    HW221743   4.337   3.208   5.786 -0.4200 -1.6164  0.9122
 6935SOL     OW21744   4.855   2.236   2.172  0.6161  0.2336 -0.1063
 6935SOL    HW121745   4.851   2.210   2.080  2.1559 -0.6927  0.0554
 6935SOL    HW221746   4.775   2.200   2.210  0.4408 -0.2288 -0.8773
 6936SOL     OW21747   0.784   5.305   6.197  0.3657  0.8194 -0.3365
 6936SOL    HW121748   0.784   5.293   6.292  0.2435 -1.3575 -0.5490
 6936SOL    HW221749   0.872   5.337   6.177  0.4585  1.0899  0.4811
 6937SOL     OW21750   5.675   5.309   1.176 -0.0025  0.1078 -0.1634
 6937SOL    HW121751   5.711   5.221   1.181  0.8502  0.4687  0.1240
 6937SOL    HW221752   5.609   5.304   1.106 -1.2875 -1.2045  1.0745
 6938SOL     OW21753   2.880   0.457   4.763  0.0540 -0.1146  0.0366
 6938SOL    HW121754   2.793   0.474   4.799  0.4034  1.5868  0.1622
 6938SOL    HW221755   2.862   0.428   4.673 -0.6188  2.1640 -0.6236
 6939SOL     OW21756   4.507   5.467   4.635  0.6831 -0.4885 -0.0305
 6939SOL    HW121757   4.486   5.500   4.548 -0.3099 -1.2141 -0.0865
 6939SOL    HW221758   4.555   5.386   4.619 -0.2679 -1.0821  0.0850
 6940SOL     OW21759   1.674   1.057   6.051  0.3038  0.2735  0.6807
 6940SOL    HW121760   1.681   1.122   5.981  0.1662 -0.4295  0.0045
 6940SOL    HW221761   1.643   0.978   6.007 -1.7501  0.3675  1.8509
 6941SOL     OW21762   5.244   0.311   5.166  0.2624 -0.5600  0.0400
 6941SOL    HW121763   5.286   0.396   5.154 -2.7640  1.4779  2.4263
 6941SOL    HW221764   5.286   0.273   5.243 -0.0599 -0.0495  0.4677
 6942SOL     OW21765   5.108   4.054   1.859 -0.0414  0.0704 -0.1310
 6942SOL    HW121766   5.164   4.060   1.781 -1.8397 -0.5162 -1.5388
 6942SOL    HW221767   5.149   3.986   1.912  2.4995  2.0130  0.6285
 6943SOL     OW21768   3.904   2.656   3.589 -0.0294  0.0611  0.6918
 6943SOL    HW121769   3.814   2.689   3.594  0.4567  1.6343 -0.4847
 6943SOL    HW221770   3.953   2.710   3.650  0.3550  0.0210  0.4198
 6944SOL     OW21771   0.944   5.865   4.568 -0.1114  0.0171 -0.4434
 6944SOL    HW121772   0.989   5.788   4.535  0.4276  0.0703  0.1492
 6944SOL    HW221773   0.920   5.915   4.490 -1.0225 -1.0432 -0.8664
 6945SOL     OW21774   5.552   0.877   7.091 -0.2808 -0.0448  0.1121
 6945SOL    HW121775   5.572   0.827   7.171 -0.5493 -0.6282 -0.1748
 6945SOL    HW221776   5.456   0.875   7.086 -0.2375 -0.7160 -0.6514
 6946SOL     OW21777   4.060   0.800   7.212  0.3785  0.7728  0.2366
 6946SOL    HW121778   4.047   0.770   7.302  0.2202  0.6909  0.1864
 6946SOL    HW221779   4.155   0.799   7.201  0.3796  0.3963  0.2734
 6947SOL     OW21780   0.659   5.597   6.615 -0.2600  0.1016  0.0444
 6947SOL    HW121781   0.699   5.630   6.695  1.1347  1.5277 -1.1770
 6947SOL    HW221782   0.718   5.527   6.586 -1.0694 -0.8086  0.5212
 6948SOL     OW21783   3.745   7.130   3.483  0.1838  0.7403 -0.2125
 6948SOL    HW121784   3.713   7.186   3.412  2.9125  1.7838 -0.7089
 6948SOL    HW221785   3.769   7.048   3.439  0.2386  0.7488 -0.1981
 6949SOL     OW21786   6.064   4.877   4.862  0.3636 -0.7345  0.1549
 6949SOL    HW121787   6.003   4.860   4.935  0.3304 -0.2173  0.2573
 6949SOL    HW221788   6.058   4.800   4.807  0.2672 -1.0657  0.6242
 6950SOL     OW21789   7.426   2.482   6.890 -0.0750 -0.5679  0.1394
 6950SOL    HW121790   7.428   2.566   6.936 -4.5615 -0.1540  0.0410
 6950SOL    HW221791   7.401   2.418   6.957 -1.1008 -0.9808 -0.6135
 6951SOL     OW21792   3.865   6.276   4.308 -0.3038 -0.1164  0.7606
 6951SOL    HW121793   3.909   6.192   4.299 -1.0810 -0.4394 -0.1628
 6951SOL    HW221794   3.933   6.335   4.340  0.2208 -1.1085  1.5173
 6952SOL     OW21795   2.260   5.760   1.854 -0.5546  0.6583 -0.8525
 6952SOL    HW121796   2.298   5.673   1.866  0.8805  1.2262 -1.0759
 6952SOL    HW221797   2.190   5.748   1.790  0.5355 -0.1116 -1.9351
 6953SOL     OW21798   4.141   2.359   2.655 -0.1751  0.2697  0.0723
 6953SOL    HW121799   4.117   2.301   2.727 -1.2363 -0.4911 -0.8534
 6953SOL    HW221800   4.219   2.405   2.685  0.3612 -1.2285  1.0543
 6954SOL     OW21801   6.015   6.637   6.971  0.2978 -0.0842  0.5872
 6954SOL    HW121802   5.947   6.703   6.983  1.6023  1.6928 -1.2461
 6954SOL    HW221803   6.079   6.678   6.913  2.6362 -1.9082  1.6875
 6955SOL     OW21804   1.712   3.415   0.684  0.1175 -0.5534 -0.2440
 6955SOL    HW121805   1.720   3.503   0.721 -0.2618 -0.7829  0.4013
 6955SOL    HW221806   1.664   3.365   0.750  1.1113 -1.4930 -0.2006
 6956SOL     OW21807   5.843   3.747   5.356 -0.0124  0.2642 -0.9821
 6956SOL    HW121808   5.814   3.657   5.338 -0.7381  0.3431 -0.2677
 6956SOL    HW221809   5.808   3.766   5.443  2.9770  0.0564  0.3649
 6957SOL     OW21810   7.221   4.909   5.624 -0.5807  0.1419  0.6346
 6957SOL    HW121811   7.146   4.965   5.603 -0.6851 -0.5456 -0.9484
 6957SOL    HW221812   7.220   4.842   5.556  2.1654  0.7795 -0.1349
 6958SOL     OW21813   1.880   5.573   1.332 -0.0836  0.1749 -0.4296
 6958SOL    HW121814   1.819   5.522   1.385 -0.9557 -1.5144 -2.8463
 6958SOL    HW221815   1.824   5.616   1.267  1.0873  0.3677 -1.3379
 6959SOL     OW21816   1.444   6.862   1.901  0.2145 -0.1152  0.4225
 6959SOL    HW121817   1.398   6.796   1.848  0.8772  0.4843 -0.9514
 6959SOL    HW221818   1.414   6.845   1.991  0.4100 -2.3206  0.1372
 6960SOL     OW21819   4.798   3.679   6.882 -0.1071  0.1069  0.5247
 6960SOL    HW121820   4.816   3.603   6.826  1.5919  0.1400  0.9594
 6960SOL    HW221821   4.737   3.732   6.832 -0.5431 -1.0600 -0.2279
 6961SOL     OW21822   1.123   0.069   6.169  0.2209 -0.1283  0.1113
 6961SOL    HW121823   1.153  -0.014   6.131 -0.5903 -0.0974 -0.6259
 6961SOL    HW221824   1.044   0.047   6.217 -1.1027  0.4832 -1.6719
 6962SOL     OW21825   0.675   4.788   6.392  0.0519 -0.2016  0.4938
 6962SOL    HW121826   0.605   4.765   6.453  1.1204 -1.2524  1.3712
 6962SOL    HW221827   0.726   4.707   6.382  1.2941  0.5980  0.1009
 6963SOL     OW21828   1.336   0.973   3.072 -0.0480  0.6745 -0.0483
 6963SOL    HW121829   1.348   1.046   3.011 -0.7547  0.7768 -0.0730
 6963SOL    HW221830   1.412   0.979   3.131  1.5349 -0.3941 -1.8532
 6964SOL     OW21831   3.775   6.545   6.637  0.0991 -0.2676  0.8532
 6964SOL    HW121832   3.831   6.618   6.610 -0.7895  0.4331  0.8610
 6964SOL    HW221833   3.759   6.496   6.557  1.4957 -1.0433  1.0120
 6965SOL     OW21834   5.385   1.283   2.504  0.4072  0.2457 -0.7866
 6965SOL    HW121835   5.406   1.317   2.591 -1.8099 -3.9955  1.7383
 6965SOL    HW221836   5.310   1.336   2.476 -1.5266 -0.7963  1.9319
 6966SOL     OW21837   5.941   1.912   0.207 -0.1703  0.2161 -1.3631
 6966SOL    HW121838   5.885   1.860   0.264 -0.3864  0.3650 -1.4364
 6966SOL    HW221839   5.924   1.878   0.119  0.2073 -0.0531 -1.3326
 6967SOL     OW21840   2.758   6.514   7.331 -0.0708  0.2277 -0.5644
 6967SOL    HW121841   2.736   6.552   7.416 -0.7866  1.3444 -1.2273
 6967SOL    HW221842   2.678   6.521   7.280  0.5308  0.1911 -1.5489
 6968SOL     OW21843   3.399   3.989   3.735  0.3463  0.3744  0.2661
 6968SOL    HW121844   3.488   3.964   3.759  0.5679  1.9305  1.2093
 6968SOL    HW221845   3.354   4.001   3.819 -0.5282  0.3786 -0.1843
 6969SOL     OW21846   2.348   5.313   6.635  0.1021 -0.0459  0.0215
 6969SOL    HW121847   2.291   5.305   6.558  0.4160 -1.5346 -0.0968
 6969SOL    HW221848   2.434   5.284   6.603  0.6050  0.8421  0.5479
 6970SOL     OW21849   4.241   3.657   7.355 -0.2082  0.3887  0.0632
 6970SOL    HW121850   4.264   3.724   7.290 -0.3623  0.3177 -0.0660
 6970SOL    HW221851   4.162   3.616   7.320  0.1092 -0.1274 -0.0540
 6971SOL     OW21852   6.746   6.860   4.440  0.6916  0.0554 -0.0912
 6971SOL    HW121853   6.824   6.812   4.413  2.3959  1.0443  2.6564
 6971SOL    HW221854   6.776   6.949   4.457 -1.5586  1.1126 -1.1479
 6972SOL     OW21855   0.843   5.044   6.605 -0.2048  0.1028  0.3969
 6972SOL    HW121856   0.848   5.037   6.700 -0.7635 -0.2273  0.4066
 6972SOL    HW221857   0.763   5.095   6.589 -0.0458  0.2696  0.1044
 6973SOL     OW21858   0.581   5.346   2.009  0.1440 -0.3549 -0.0430
 6973SOL    HW121859   0.673   5.344   1.980  0.0813 -1.4966 -0.2070
 6973SOL    HW221860   0.548   5.259   1.989 -0.3478 -0.6875  2.0420
 6974SOL     OW21861   7.347   6.148   1.092  0.5012 -0.6411  0.2872
 6974SOL    HW121862   7.263   6.127   1.052  1.7394 -1.4137 -2.1055
 6974SOL    HW221863   7.350   6.243   1.094  0.0467 -0.5866 -0.8053
 6975SOL     OW21864   1.224   3.007   6.805  0.4433 -0.2785 -0.4401
 6975SOL    HW121865   1.152   2.962   6.849 -0.2103  0.4227 -0.7714
 6975SOL    HW221866   1.181   3.073   6.750  1.2815 -0.5469 -1.4538
 6976SOL     OW21867   4.753   0.255   4.011 -0.0326 -1.0827  0.5661
 6976SOL    HW121868   4.677   0.288   3.963  1.5776 -0.5877 -1.8486
 6976SOL    HW221869   4.721   0.178   4.057 -2.1821 -0.3595  0.3869
 6977SOL     OW21870   7.076   5.268   0.228 -0.5636 -0.3898 -0.1735
 6977SOL    HW121871   7.078   5.261   0.132  0.3222 -1.7002 -0.0772
 6977SOL    HW221872   7.037   5.186   0.258 -3.0660  0.9320  0.5588
 6978SOL     OW21873   2.879   1.004   0.344 -0.0891  0.5849  0.0240
 6978SOL    HW121874   2.929   0.991   0.264  0.1362  0.6504  0.1528
 6978SOL    HW221875   2.825   1.081   0.326  0.4049  0.9654  0.1467
 6979SOL     OW21876   0.700   2.025   2.886 -0.1943  0.2619 -0.0871
 6979SOL    HW121877   0.665   2.066   2.807  1.1431  0.2319 -0.7158
 6979SOL    HW221878   0.706   1.932   2.865  1.8723  0.4917 -0.6308
 6980SOL     OW21879   3.463   4.179   5.611 -0.5142  0.1071  0.4283
 6980SOL    HW121880   3.525   4.248   5.586 -1.0673  0.7140  0.7139
 6980SOL    HW221881   3.518   4.104   5.631  0.0198 -0.6013 -2.9575
 6981SOL     OW21882   6.221   2.882   1.242  0.0465 -0.5328  0.2023
 6981SOL    HW121883   6.223   2.881   1.337  1.7317 -3.1610  0.2626
 6981SOL    HW221884   6.152   2.820   1.218 -2.2916  2.0967 -0.4534
 6982SOL     OW21885   6.274   4.441   2.081  0.7643  0.0612  0.0922
 6982SOL    HW121886   6.338   4.463   2.013 -0.2304  0.6822 -0.6785
 6982SOL    HW221887   6.190   4.464   2.042 -0.1591 -2.6743  0.2489
 6983SOL     OW21888   4.325   0.307   6.726 -0.6056 -0.3392 -0.0399
 6983SOL    HW121889   4.334   0.402   6.722  2.1460 -0.4578  1.3306
 6983SOL    HW221890   4.366   0.275   6.645 -1.1496 -0.4116 -0.2964
 6984SOL     OW21891   5.180   0.377   1.946 -0.4622 -0.4499  0.1332
 6984SOL    HW121892   5.102   0.339   1.905 -1.4459  2.4696 -0.9688
 6984SOL    HW221893   5.239   0.393   1.872 -0.3737  0.6776  0.4266
 6985SOL     OW21894   6.268   7.115   0.858 -0.2022  0.5708  0.0088
 6985SOL    HW121895   6.217   7.195   0.869 -1.3648 -0.1697  0.2348
 6985SOL    HW221896   6.219   7.066   0.791 -0.2005 -0.4872  0.7705
 6986SOL     OW21897   2.616   7.124   3.689  0.6149  0.3616  0.0065
 6986SOL    HW121898   2.660   7.041   3.708  0.6156  0.2538 -0.4643
 6986SOL    HW221899   2.672   7.190   3.729  0.3251  0.0978  0.8725
 6987SOL     OW21900   5.791   0.795   3.154  0.1766 -0.8905 -0.2348
 6987SOL    HW121901   5.840   0.864   3.196  0.5452 -0.0112 -2.0008
 6987SOL    HW221902   5.719   0.776   3.214  2.1172 -1.6137  2.0019
 6988SOL     OW21903   1.498   6.465   0.302 -0.2451  0.0748 -0.0606
 6988SOL    HW121904   1.470   6.550   0.338 -1.0808  0.2001 -0.9687
 6988SOL    HW221905   1.453   6.459   0.218  0.9895 -0.6077 -0.6915
 6989SOL     OW21906   3.176   1.531   2.729  0.0456 -0.4910 -0.4873
 6989SOL    HW121907   3.085   1.545   2.755  0.1788 -1.1883  0.4031
 6989SOL    HW221908   3.222   1.608   2.763  0.1399 -1.1794  1.0232
 6990SOL     OW21909   5.198   1.223   1.355 -0.2639 -0.1314  0.2166
 6990SOL    HW121910   5.275   1.209   1.300 -0.9896  2.2506 -1.6299
 6990SOL    HW221911   5.214   1.173   1.434  1.7376 -2.2032 -1.3807
 6991SOL     OW21912   1.664   4.460   0.594 -0.6270  0.0291 -0.3628
 6991SOL    HW121913   1.739   4.492   0.544  0.2873 -1.1936  0.1692
 6991SOL    HW221914   1.660   4.517   0.671 -0.9578  0.8034 -0.9356
 6992SOL     OW21915   4.680   4.403   6.328  0.2006 -0.0807  0.2483
 6992SOL    HW121916   4.653   4.434   6.414  1.1420 -3.9126  2.1166
 6992SOL    HW221917   4.775   4.401   6.332  0.2488 -0.5133 -0.8337
 6993SOL     OW21918   6.086   2.108   7.425  0.0573  0.9481  0.1058
 6993SOL    HW121919   6.083   2.143   7.514 -0.6431 -1.3227  1.0652
 6993SOL    HW221920   6.176   2.122   7.395  0.8309  0.1198  1.9229
 6994SOL     OW21921   5.279   6.739   3.660  0.4203  0.1444 -0.0514
 6994SOL    HW121922   5.355   6.698   3.618 -1.6793 -2.9456 -1.1994
 6994SOL    HW221923   5.236   6.787   3.589 -0.4988 -0.9703 -0.2589
 6995SOL     OW21924   0.552   6.673   5.858  0.1036  0.1355 -0.1690
 6995SOL    HW121925   0.488   6.607   5.884  0.8023  0.1173  1.6827
 6995SOL    HW221926   0.519   6.755   5.896  0.7831  0.2602  0.1674
 6996SOL     OW21927   5.953   5.530   4.798 -0.1880  0.0286  0.7741
 6996SOL    HW121928   5.903   5.535   4.717  1.5749 -0.3967 -0.3772
 6996SOL    HW221929   6.000   5.447   4.793  1.8143  1.0892  1.0956
 6997SOL     OW21930   3.357   5.510   3.151  0.0238  0.0992  0.2270
 6997SOL    HW121931   3.435   5.456   3.140  0.2624  0.3569  0.6338
 6997SOL    HW221932   3.385   5.598   3.126 -0.3169  0.0758 -0.2627
 6998SOL     OW21933   4.564   6.851   0.681 -0.0080 -0.2815  0.0953
 6998SOL    HW121934   4.615   6.930   0.698  2.3803 -2.0364  1.7598
 6998SOL    HW221935   4.573   6.836   0.587 -1.0439  1.7076 -0.3695
 6999SOL     OW21936   7.083   5.545   2.865 -0.1347 -0.0218 -0.0707
 6999SOL    HW121937   7.044   5.500   2.790 -1.9835  0.3709  0.5937
 6999SOL    HW221938   7.137   5.614   2.827  0.8451 -1.2806 -1.0540
 7000SOL     OW21939   6.675   4.673   3.212  0.0238 -0.2188  0.0798
 7000SOL    HW121940   6.661   4.580   3.229 -0.4342 -0.6215 -2.1362
 7000SOL    HW221941   6.589   4.713   3.224  0.1737 -0.0994  0.8106
 7001SOL     OW21942   3.901   1.040   1.580 -0.6000 -0.0881  0.3290
 7001SOL    HW121943   3.977   1.064   1.632 -0.0926  1.6397 -1.1225
 7001SOL    HW221944   3.914   0.947   1.560  1.2512  0.2117 -0.0413
 7002SOL     OW21945   4.189   4.500   3.449 -0.3330  0.3728 -0.1943
 7002SOL    HW121946   4.242   4.425   3.422  0.2813  0.8128 -0.2434
 7002SOL    HW221947   4.171   4.547   3.367 -2.2126 -0.6417 -0.4154
 7003SOL     OW21948   5.615   4.455   4.315  0.1955  0.4468 -0.2380
 7003SOL    HW121949   5.542   4.413   4.271  1.6078 -0.7874 -1.5549
 7003SOL    HW221950   5.634   4.397   4.390 -0.2376  0.8402  0.1833
 7004SOL     OW21951   5.946   0.674   3.831  0.1433 -0.7016 -0.2234
 7004SOL    HW121952   6.012   0.713   3.773 -2.0266  2.8770 -0.5154
 7004SOL    HW221953   5.920   0.593   3.786  2.0016 -0.5570 -1.6928
 7005SOL     OW21954   2.624   7.278   2.142  0.2005  0.0649 -0.6524
 7005SOL    HW121955   2.712   7.274   2.104 -0.3418  0.9749 -2.1211
 7005SOL    HW221956   2.634   7.333   2.220  1.0836 -0.5812 -0.2915
 7006SOL     OW21957   0.917   4.867   3.285 -0.1723  0.2756  0.6430
 7006SOL    HW121958   0.925   4.860   3.190 -0.5517  1.7613  0.4864
 7006SOL    HW221959   0.883   4.781   3.312  0.5431 -0.3848 -0.4720
 7007SOL     OW21960   3.309   1.034   7.333  0.8057  0.5148 -0.4156
 7007SOL    HW121961   3.361   1.112   7.313  2.2113 -0.2468  0.0641
 7007SOL    HW221962   3.280   1.002   7.248 -0.0677  1.7223 -0.5952
 7008SOL     OW21963   7.366   0.839   6.352  0.0840  0.8813  0.2791
 7008SOL    HW121964   7.387   0.917   6.402  1.5967  0.3082  0.5897
 7008SOL    HW221965   7.272   0.827   6.364 -0.7045  3.9720 -1.7239
 7009SOL     OW21966   5.055   1.412   3.782 -0.6229  0.0877 -0.2484
 7009SOL    HW121967   5.125   1.401   3.846 -1.0489 -0.4703  0.1254
 7009SOL    HW221968   5.003   1.332   3.789 -1.4469  0.6054 -0.3435
 7010SOL     OW21969   6.521   5.873   4.198  0.4941  0.5073  0.5905
 7010SOL    HW121970   6.540   5.907   4.285 -0.6007  1.2386  0.5731
 7010SOL    HW221971   6.470   5.943   4.156  1.2859  0.3092 -0.7574
 7011SOL     OW21972   0.747   5.568   2.590  0.6526  0.3019 -0.0208
 7011SOL    HW121973   0.735   5.481   2.551  2.5672  0.0649 -0.2134
 7011SOL    HW221974   0.682   5.623   2.547 -1.0791 -1.1457  0.5913
 7012SOL     OW21975   3.736   6.119   6.181 -0.0752 -0.5343 -0.1308
 7012SOL    HW121976   3.795   6.097   6.252 -0.3804  0.0673  0.3235
 7012SOL    HW221977   3.707   6.209   6.201 -1.5613 -1.0033 -0.0381
 7013SOL     OW21978   7.266   5.267   2.087  0.4123 -0.1904 -0.6532
 7013SOL    HW121979   7.303   5.285   2.173 -2.2833 -0.6670  0.7100
 7013SOL    HW221980   7.224   5.182   2.095 -0.3910  0.0073 -2.2430
 7014SOL     OW21981   7.094   4.050   5.420  0.4064 -0.8207  0.5557
 7014SOL    HW121982   7.055   4.035   5.506 -0.1995  0.0171  0.4427
 7014SOL    HW221983   7.187   4.031   5.432  0.5572  0.4790  1.7299
 7015SOL     OW21984   0.042   0.116   2.728 -0.1521 -0.8145  0.4129
 7015SOL    HW121985   0.058   0.208   2.746 -0.1436 -0.2849 -1.9696
 7015SOL    HW221986  -0.050   0.113   2.702 -0.0647 -1.4226  0.1581
 7016SOL     OW21987   6.561   1.491   6.514  0.5262 -0.3633  0.0327
 7016SOL    HW121988   6.569   1.401   6.482 -0.1051  0.0197 -1.2742
 7016SOL    HW221989   6.551   1.481   6.609 -0.4772 -1.7487 -0.1720
 7017SOL     OW21990   4.293   2.515   2.999 -0.1954  0.1751 -0.5903
 7017SOL    HW121991   4.266   2.599   2.962  1.4857  0.7129 -0.6717
 7017SOL    HW221992   4.272   2.522   3.092 -0.8986  0.3255 -0.7553
 7018SOL     OW21993   4.404   5.442   0.590 -0.0418 -0.3918  0.2876
 7018SOL    HW121994   4.380   5.534   0.580 -1.3811 -0.7556  0.0362
 7018SOL    HW221995   4.499   5.441   0.577 -0.0904  0.8701 -0.3014
 7019SOL     OW21996   2.366   5.689   4.257 -0.0229 -0.1430  0.6125
 7019SOL    HW121997   2.405   5.601   4.258  0.8024  0.2093  0.2179
 7019SOL    HW221998   2.372   5.718   4.348  1.8540  0.4100  0.3605
 7020SOL     OW21999   3.176   2.061   0.860  0.3258  0.2058 -0.1758
 7020SOL    HW122000   3.193   2.026   0.948  0.7063  1.2750  0.1903
 7020SOL    HW222001   3.193   1.988   0.801  3.4185  0.3745  0.3741
 7021SOL     OW22002   6.382   4.554   4.383 -0.5077 -0.0326  0.1099
 7021SOL    HW122003   6.475   4.577   4.386 -0.3236 -0.8094  2.0149
 7021SOL    HW222004   6.377   4.468   4.424 -2.1562  0.3899  0.9055
 7022SOL     OW22005   7.228   6.974   2.046 -0.6360  0.0937 -0.8075
 7022SOL    HW122006   7.257   7.064   2.055 -0.4060 -0.1796  2.8420
 7022SOL    HW222007   7.138   6.981   2.014 -0.7363  1.6562 -0.2583
 7023SOL     OW22008   3.699   1.315   4.135 -0.2465 -0.5800  0.6351
 7023SOL    HW122009   3.628   1.264   4.095 -0.1811 -0.5030  0.4259
 7023SOL    HW222010   3.654   1.372   4.198 -0.5030  0.3273 -0.3433
 7024SOL     OW22011   0.870   2.793   0.203  0.3924 -0.9769  0.3565
 7024SOL    HW122012   0.862   2.812   0.296  0.8419  0.6270  0.0954
 7024SOL    HW222013   0.961   2.766   0.191  0.9990  1.0146  0.0704
 7025SOL     OW22014   1.453   1.233   0.981  0.0097 -0.2315 -0.1206
 7025SOL    HW122015   1.482   1.300   1.043 -2.5014  0.3304  0.5652
 7025SOL    HW222016   1.412   1.282   0.910  2.5985 -0.8806 -2.2491
 7026SOL     OW22017   5.157   0.749   1.770  0.2831  0.6804 -0.2248
 7026SOL    HW122018   5.187   0.776   1.857 -0.3629 -0.6149  0.4291
 7026SOL    HW222019   5.062   0.743   1.778  0.2227  0.4966 -1.0111
 7027SOL     OW22020   5.782   3.521   1.088  0.2871  0.2183  0.1643
 7027SOL    HW122021   5.728   3.447   1.117 -1.3257  1.4837  0.5591
 7027SOL    HW222022   5.871   3.488   1.089 -0.1523 -1.0744  2.4633
 7028SOL     OW22023   5.281   6.840   3.905 -0.1683 -0.5768 -0.1921
 7028SOL    HW122024   5.314   6.818   3.818  1.8475  1.3278 -0.0116
 7028SOL    HW222025   5.240   6.926   3.894  1.1914  0.2591  0.9157
 7029SOL     OW22026   5.167   1.359   6.008 -0.9892  0.2292 -0.4504
 7029SOL    HW122027   5.232   1.301   5.968  0.3401  1.5366 -0.2702
 7029SOL    HW222028   5.112   1.301   6.060 -0.5414 -1.0416 -1.3541
 7030SOL     OW22029   5.114   2.787   2.567  0.0542 -0.0100  0.2842
 7030SOL    HW122030   5.146   2.877   2.570 -0.5862  0.3526 -2.0849
 7030SOL    HW222031   5.107   2.761   2.659  0.3500  2.3059  1.0184
 7031SOL     OW22032   6.936   1.554   4.617  0.1456  0.0404  0.2854
 7031SOL    HW122033   6.992   1.576   4.691  0.2172  3.0781 -0.5395
 7031SOL    HW222034   6.902   1.638   4.586 -2.3898 -1.3946 -1.2022
 7032SOL     OW22035   7.422   6.535   5.304  1.0086 -0.0276 -0.1995
 7032SOL    HW122036   7.333   6.556   5.275  0.6626 -0.0611  0.8104
 7032SOL    HW222037   7.425   6.563   5.395  1.2590 -2.2340  0.5255
 7033SOL     OW22038   4.842   5.696   6.361 -0.0228  0.2940  0.1797
 7033SOL    HW122039   4.859   5.649   6.279 -1.6536 -0.2014  0.0854
 7033SOL    HW222040   4.884   5.781   6.349 -1.1615  0.6594 -1.6703
 7034SOL     OW22041   5.627   5.081   6.371 -0.0128 -0.2551  0.4279
 7034SOL    HW122042   5.572   5.159   6.364  1.4153  0.7127 -0.5236
 7034SOL    HW222043   5.623   5.040   6.285  1.0182  0.0298  0.2272
 7035SOL     OW22044   6.784   0.700   2.861 -0.3722 -0.6054  0.4988
 7035SOL    HW122045   6.822   0.774   2.909  0.6800 -0.8571  0.0614
 7035SOL    HW222046   6.692   0.699   2.889 -0.7861  1.7335 -0.5476
 7036SOL     OW22047   4.576   0.060   4.687 -0.1981  0.5906  0.2218
 7036SOL    HW122048   4.613  -0.025   4.664 -0.5482 -0.1257  2.1427
 7036SOL    HW222049   4.507   0.075   4.622  0.4826 -0.1292 -0.6961
 7037SOL     OW22050   1.176   1.687   0.927  0.3709 -0.3696  0.4733
 7037SOL    HW122051   1.159   1.593   0.926  0.5434 -0.4016 -0.0699
 7037SOL    HW222052   1.251   1.698   0.868 -1.7222  0.4627 -2.2460
 7038SOL     OW22053   1.702   0.524   1.490  0.2239 -0.2496  0.0708
 7038SOL    HW122054   1.650   0.472   1.428  1.0345 -0.4207 -0.4792
 7038SOL    HW222055   1.640   0.548   1.559 -0.8968  0.6175 -1.1941
 7039SOL     OW22056   6.136   6.855   3.009 -0.0812  0.0386 -0.0154
 7039SOL    HW122057   6.147   6.786   2.943 -0.0232  0.5171 -0.5116
 7039SOL    HW222058   6.218   6.854   3.058  0.5136  0.7252 -0.9574
 7040SOL     OW22059   2.561   0.999   4.581 -0.4474  0.6969 -0.0179
 7040SOL    HW122060   2.575   0.904   4.577 -0.6817  0.6922 -0.9196
 7040SOL    HW222061   2.607   1.026   4.661 -0.3847 -0.1726  0.2547
 7041SOL     OW22062   6.911   5.160   3.139  0.4284  0.0109  0.0394
 7041SOL    HW122063   6.976   5.220   3.106  0.5383  0.6613  1.3604
 7041SOL    HW222064   6.830   5.211   3.143 -0.4718 -1.0581 -2.5231
 7042SOL     OW22065   6.097   2.568   5.279  0.1378 -0.1062  0.5617
 7042SOL    HW122066   6.003   2.547   5.277  0.4704 -1.8798 -2.6080
 7042SOL    HW222067   6.100   2.663   5.277 -1.6582 -0.0213 -1.2945
 7043SOL     OW22068   5.417   3.604   3.742  0.3226 -0.4338 -0.1736
 7043SOL    HW122069   5.360   3.681   3.741 -2.3274 -2.2528 -2.0177
 7043SOL    HW222070   5.505   3.640   3.740 -0.7817  2.6037 -2.7527
 7044SOL     OW22071   3.868   4.385   2.308  0.0703  0.3095  0.8774
 7044SOL    HW122072   3.812   4.350   2.239 -1.2132  1.0216  1.5098
 7044SOL    HW222073   3.886   4.310   2.364 -0.2619  0.0624  0.6585
 7045SOL     OW22074   6.977   6.871   5.666  0.2335 -0.4667  0.2245
 7045SOL    HW122075   6.936   6.786   5.686  0.3580 -0.9660 -1.5018
 7045SOL    HW222076   6.903   6.932   5.663 -0.1368 -0.9353 -0.6348
 7046SOL     OW22077   4.930   3.018   2.800 -0.4469  1.1932 -0.1662
 7046SOL    HW122078   4.944   3.064   2.882  0.9198  0.1602  0.2333
 7046SOL    HW222079   4.999   3.050   2.742  0.0710  0.2307 -0.1143
 7047SOL     OW22080   5.927   5.441   1.404  0.5430  0.1604  0.4820
 7047SOL    HW122081   5.854   5.412   1.350  1.4900  0.2698 -0.9010
 7047SOL    HW222082   5.886   5.498   1.470 -0.6961 -0.3428  0.1783
 7048SOL     OW22083   5.154   2.771   1.432 -0.5465  0.2178 -0.1678
 7048SOL    HW122084   5.224   2.769   1.366 -0.5295 -0.5329 -0.1358
 7048SOL    HW222085   5.083   2.819   1.390  0.1449  1.4340 -0.0264
 7049SOL     OW22086   2.193   2.507   7.001 -0.0814 -0.3565 -0.9580
 7049SOL    HW122087   2.272   2.483   7.048 -1.1277  0.4542  1.4122
 7049SOL    HW222088   2.218   2.582   6.947  0.9752 -0.7165 -0.9735
 7050SOL     OW22089   2.198   3.760   2.082 -0.1280 -0.9297 -0.2916
 7050SOL    HW122090   2.128   3.774   2.018 -1.5051 -0.4173  1.2282
 7050SOL    HW222091   2.278   3.789   2.039 -1.2575  1.0083 -1.1941
 7051SOL     OW22092   3.429   2.562   6.656  0.0190 -0.4534  0.3448
 7051SOL    HW122093   3.513   2.526   6.686  1.1027  0.7446 -1.0241
 7051SOL    HW222094   3.396   2.497   6.594  0.4008 -0.5173  0.2050
 7052SOL     OW22095   0.917   6.947   5.154  0.3987  0.2102 -0.5619
 7052SOL    HW122096   0.824   6.927   5.152  0.6100 -1.2136  1.3513
 7052SOL    HW222097   0.929   7.012   5.085 -2.1432  1.0243 -0.3420
 7053SOL     OW22098   1.707   5.854   7.157  0.6450 -0.3398 -0.1238
 7053SOL    HW122099   1.698   5.777   7.100 -0.8071  0.1097 -0.5548
 7053SOL    HW222100   1.618   5.870   7.188  1.2765 -0.0950  1.6683
 7054SOL     OW22101   4.831   4.994   4.661 -0.0996  0.2099  0.1933
 7054SOL    HW122102   4.876   5.031   4.737  0.0825  1.4592 -0.4887
 7054SOL    HW222103   4.901   4.955   4.609 -0.0527  0.4714  0.0583
 7055SOL     OW22104   2.215   2.840   0.140 -0.4899  0.3100 -0.3616
 7055SOL    HW122105   2.303   2.847   0.177 -0.1904  1.8729 -1.2860
 7055SOL    HW222106   2.173   2.923   0.161 -1.4458 -0.0755 -0.6787
 7056SOL     OW22107   2.252   4.598   7.227  0.7411 -0.0463  0.5845
 7056SOL    HW122108   2.319   4.661   7.255  0.6245  0.5369 -0.4180
 7056SOL    HW222109   2.236   4.619   7.135 -0.4949 -0.4701  0.6847
 7057SOL     OW22110   1.851   5.341   0.008 -0.2823 -0.2182  0.0294
 7057SOL    HW122111   1.932   5.305  -0.028 -1.0190 -0.9637 -0.9002
 7057SOL    HW222112   1.875   5.368   0.097  1.0215 -0.2846 -0.2846
 7058SOL     OW22113   1.843   6.555   0.931  0.2513  0.0925 -0.5478
 7058SOL    HW122114   1.781   6.594   0.869  1.2917 -0.0528 -1.7272
 7058SOL    HW222115   1.924   6.545   0.880  0.3027 -2.8030 -0.0693
 7059SOL     OW22116   2.253   2.679   1.927 -0.3862 -0.4928  0.2093
 7059SOL    HW122117   2.327   2.640   1.880  1.5616  1.7683  1.1718
 7059SOL    HW222118   2.209   2.734   1.863  1.2881  1.3051  0.4889
 7060SOL     OW22119   6.442   3.258   4.090  0.1300  0.3096 -0.1233
 7060SOL    HW122120   6.459   3.310   4.012  0.3364  0.8612  0.2807
 7060SOL    HW222121   6.347   3.243   4.088 -0.1815  1.9389  0.4866
 7061SOL     OW22122   5.831   7.106   6.637 -0.5803  0.2948  0.4209
 7061SOL    HW122123   5.792   7.027   6.601  1.7194 -1.1256  0.8174
 7061SOL    HW222124   5.835   7.167   6.563 -1.8091 -0.1650 -0.0479
 7062SOL     OW22125   1.602   5.277   4.075  0.0589 -0.3972  0.4514
 7062SOL    HW122126   1.586   5.225   4.154 -0.0315 -0.3577  0.4586
 7062SOL    HW222127   1.696   5.294   4.077  0.4104 -2.0781 -0.4982
 7063SOL     OW22128   3.436   2.745   1.218  0.3010  0.2067 -0.2345
 7063SOL    HW122129   3.414   2.824   1.168  0.2712  1.9398  2.3590
 7063SOL    HW222130   3.498   2.775   1.284  0.8090 -2.1206  0.4259
 7064SOL     OW22131   3.298   7.216   3.813 -0.0789 -0.4634 -0.1232
 7064SOL    HW122132   3.376   7.214   3.758  1.2595  2.6144  1.4062
 7064SOL    HW222133   3.317   7.156   3.885 -0.0733 -1.3733 -0.8754
 7065SOL     OW22134   7.188   0.207   6.422 -0.3721 -0.3290  0.2280
 7065SOL    HW122135   7.164   0.299   6.436  0.8543  0.1250 -0.5196
 7065SOL    HW222136   7.132   0.178   6.350  0.7587  0.5152 -1.0413
 7066SOL     OW22137   5.957   5.534   3.156  0.0240 -0.0800 -0.1396
 7066SOL    HW122138   5.923   5.622   3.171  0.4116  0.2868 -1.2818
 7066SOL    HW222139   6.019   5.519   3.227 -0.1199  0.5384  0.1172
 7067SOL     OW22140   1.169   2.762   0.302  0.1071  0.1468  1.2504
 7067SOL    HW122141   1.213   2.728   0.380  0.4238  0.6367  1.2908
 7067SOL    HW222142   1.170   2.857   0.314  0.5117  0.2459  0.4633
 7068SOL     OW22143   2.399   6.703   0.916 -0.1601 -0.3065  0.2097
 7068SOL    HW122144   2.394   6.797   0.896 -1.7915 -0.4018 -0.0360
 7068SOL    HW222145   2.431   6.699   1.005 -0.6931  0.5331  0.4527
 7069SOL     OW22146   1.483   6.376   1.405  0.0123  0.4659  0.0408
 7069SOL    HW122147   1.433   6.307   1.362 -0.1554 -0.0185  0.9887
 7069SOL    HW222148   1.494   6.444   1.338  0.1062 -0.4411 -0.8768
 7070SOL     OW22149   3.878   0.752   0.631  0.5866  0.4011 -0.0379
 7070SOL    HW122150   3.811   0.776   0.567  0.8129  0.4111 -0.2760
 7070SOL    HW222151   3.946   0.818   0.621  0.8139  0.1654 -0.0857
 7071SOL     OW22152   1.575   6.618   6.918 -0.8191 -0.2475 -0.2005
 7071SOL    HW122153   1.603   6.546   6.975 -0.7410 -0.0493  0.0129
 7071SOL    HW222154   1.612   6.697   6.959 -0.8447 -0.0936 -0.4705
 7072SOL     OW22155   5.650   4.205   5.936  0.2725  0.2912 -0.0927
 7072SOL    HW122156   5.625   4.297   5.933  0.4643  0.3842  0.8473
 7072SOL    HW222157   5.729   4.200   5.882 -1.0812  0.1964 -2.1724
 7073SOL     OW22158   0.262   2.628   5.297 -0.3154 -0.0046 -0.7414
 7073SOL    HW122159   0.261   2.536   5.270  0.5768  0.0368 -0.9550
 7073SOL    HW222160   0.182   2.665   5.260  0.3866 -0.1860 -2.5422
 7074SOL     OW22161   3.447   2.531   5.485  0.0731  0.0923 -0.0436
 7074SOL    HW122162   3.368   2.569   5.522 -0.1154  0.2508 -0.5952
 7074SOL    HW222163   3.479   2.470   5.552 -0.2719  0.3534  0.3562
 7075SOL     OW22164   5.586   5.751   2.643 -0.5835 -0.5640 -0.0706
 7075SOL    HW122165   5.546   5.710   2.720  0.0653 -0.1167  0.5091
 7075SOL    HW222166   5.526   5.730   2.571 -2.4568  0.9765  0.9490
 7076SOL     OW22167   6.831   4.947   6.163  0.4934 -0.2073 -0.3589
 7076SOL    HW122168   6.754   4.912   6.207  0.9517 -0.4174  0.2973
 7076SOL    HW222169   6.893   4.964   6.234  0.2403  2.1093 -0.6144
 7077SOL     OW22170   6.828   5.797   0.005 -0.0947  0.1142  0.3623
 7077SOL    HW122171   6.782   5.868  -0.041  0.4303  0.1596 -0.1072
 7077SOL    HW222172   6.877   5.841   0.074  3.3036  0.8450 -2.1823
 7078SOL     OW22173   3.345   6.445   6.675 -0.3383 -0.1146  0.0844
 7078SOL    HW122174   3.305   6.506   6.737  0.4343  0.6641 -0.1586
 7078SOL    HW222175   3.334   6.359   6.715 -1.3750  0.1886  0.4753
 7079SOL     OW22176   3.941   2.517   0.479 -0.2636 -0.1640  0.1574
 7079SOL    HW122177   3.914   2.608   0.481 -2.4849 -0.7560 -0.5226
 7079SOL    HW222178   3.860   2.467   0.482  0.8996 -2.1777  1.7334
 7080SOL     OW22179   6.328   1.823   3.628 -0.2591 -0.5477  0.8289
 7080SOL    HW122180   6.254   1.793   3.682 -2.1059 -0.2781 -1.3937
 7080SOL    HW222181   6.288   1.880   3.562  1.6327 -1.9548 -1.6981
 7081SOL     OW22182   5.384   7.106   4.526  0.2475  0.1911  0.0903
 7081SOL    HW122183   5.437   7.026   4.519 -2.3543 -2.1414  3.6982
 7081SOL    HW222184   5.439   7.166   4.577  0.3940 -1.3577  1.8783
 7082SOL     OW22185   6.472   5.795   5.248 -0.0045 -0.2041  0.0688
 7082SOL    HW122186   6.526   5.716   5.236 -1.6718 -1.5294  0.7891
 7082SOL    HW222187   6.533   5.863   5.275  1.2295 -1.8222  1.5496
 7083SOL     OW22188   0.828   5.352   0.985  0.5888 -0.5057  0.1924
 7083SOL    HW122189   0.859   5.425   0.932  0.7064  0.0474  1.0197
 7083SOL    HW222190   0.830   5.277   0.925  0.7219  0.1069 -0.5824
 7084SOL     OW22191   2.404   2.134   1.480  0.2459  0.2242 -0.4845
 7084SOL    HW122192   2.406   2.226   1.506  0.9163  0.3477 -0.9445
 7084SOL    HW222193   2.457   2.130   1.400 -0.2034 -0.4721 -0.7614
 7085SOL     OW22194   2.809   2.129   4.181 -0.1806 -0.5510  0.3201
 7085SOL    HW122195   2.809   2.186   4.259  0.2854 -1.3310  0.8988
 7085SOL    HW222196   2.892   2.083   4.185 -0.0138 -0.3595 -0.8337
 7086SOL     OW22197   4.635   4.346   2.408 -0.3607  0.3379 -0.1575
 7086SOL    HW122198   4.590   4.410   2.464 -1.9798  0.1050 -1.1433
 7086SOL    HW222199   4.709   4.395   2.372 -0.4961  1.0985  0.5456
 7087SOL     OW22200   1.446   7.388   3.509  0.6884  0.2167 -0.1932
 7087SOL    HW122201   1.541   7.372   3.505  0.7417 -0.1044  1.6336
 7087SOL    HW222202   1.407   7.307   3.475  1.0422  0.4560 -1.2247
 7088SOL     OW22203   1.721   6.924   4.432 -0.0959 -0.0181  0.0338
 7088SOL    HW122204   1.718   6.829   4.419  0.5685 -0.0463  0.0408
 7088SOL    HW222205   1.765   6.934   4.517  0.6144  0.3094 -0.3593
 7089SOL     OW22206   1.144   6.645   0.970  0.4050 -0.1357  0.0425
 7089SOL    HW122207   1.146   6.616   0.878 -0.1043  1.5800 -0.5492
 7089SOL    HW222208   1.134   6.740   0.964 -1.3135 -0.1453  1.8906
 7090SOL     OW22209   6.694   5.342   4.187 -0.0880 -0.9692  0.3928
 7090SOL    HW122210   6.752   5.309   4.118 -1.6538 -1.5280 -0.7301
 7090SOL    HW222211   6.730   5.427   4.210  0.1702 -0.5095 -1.5504
 7091SOL     OW22212   3.664   4.631   0.475  0.6858  0.2302 -0.6106
 7091SOL    HW122213   3.676   4.587   0.390  0.3137 -0.4139 -0.3333
 7091SOL    HW222214   3.668   4.561   0.539  1.1541  0.7447 -0.0720
 7092SOL     OW22215   3.408   4.993   3.633 -0.0302  0.5066  0.1772
 7092SOL    HW122216   3.389   5.083   3.605  0.8717  0.5320 -0.3855
 7092SOL    HW222217   3.453   5.003   3.716  0.0350  0.5751  0.1340
 7093SOL     OW22218   3.799   2.620   4.146 -0.4170 -0.2410 -0.0059
 7093SOL    HW122219   3.848   2.546   4.181  2.2889  0.3398 -2.1595
 7093SOL    HW222220   3.716   2.583   4.118 -0.4274 -1.7593  1.8453
 7094SOL     OW22221   4.423   1.063   2.644  0.0958 -0.4509 -0.1026
 7094SOL    HW122222   4.440   1.052   2.737 -0.3512  0.1704  0.0553
 7094SOL    HW222223   4.510   1.074   2.605  0.1968  0.7175  0.4296
 7095SOL     OW22224   2.069   0.045   7.390 -0.2037  0.0375  0.4498
 7095SOL    HW122225   2.013   0.028   7.314 -0.9226 -2.0795  1.3508
 7095SOL    HW222226   2.014   0.094   7.450 -0.5154 -0.4737  0.5943
 7096SOL     OW22227   4.962   3.104   4.571 -0.1393 -0.0890 -0.1350
 7096SOL    HW122228   4.900   3.129   4.639  2.6273 -0.0679  2.6292
 7096SOL    HW222229   4.973   3.183   4.518 -1.1341  0.4281  0.4055
 7097SOL     OW22230   2.124   6.519   6.971 -0.3851 -0.2336 -0.5114
 7097SOL    HW122231   2.073   6.442   6.995  0.1101 -0.6732 -0.8447
 7097SOL    HW222232   2.122   6.574   7.050  0.2367 -1.1239  0.1478
 7098SOL     OW22233   3.102   1.259   1.382 -0.1892 -0.5013  0.0588
 7098SOL    HW122234   3.033   1.216   1.433 -0.5594  0.5100  0.4322
 7098SOL    HW222235   3.055   1.319   1.324  0.2883 -0.9642 -0.8245
 7099SOL     OW22236   0.265   5.732   0.444 -0.4015  0.0099  0.4501
 7099SOL    HW122237   0.247   5.660   0.504 -0.1536 -0.6710 -0.2868
 7099SOL    HW222238   0.209   5.715   0.369  0.7347 -0.2282 -0.3656
 7100SOL     OW22239   4.281   1.393   0.714  0.2689  0.0003 -0.1393
 7100SOL    HW122240   4.194   1.361   0.692 -0.2448  0.8456  0.6176
 7100SOL    HW222241   4.304   1.346   0.794  0.2480  0.2350  0.0048
 7101SOL     OW22242   0.253   2.261   6.154  0.3001 -0.0341 -0.0253
 7101SOL    HW122243   0.331   2.206   6.164  0.4483 -0.0410 -1.0960
 7101SOL    HW222244   0.213   2.231   6.072  0.2065  1.2259 -0.4706
 7102SOL     OW22245   6.141   5.527   2.446  0.7134 -0.1074 -0.2941
 7102SOL    HW122246   6.083   5.473   2.392 -1.1770  1.2489  0.2567
 7102SOL    HW222247   6.209   5.467   2.475  0.6232 -1.3555 -2.4560
 7103SOL     OW22248   2.499   6.298   3.188 -0.5490 -0.4218  0.4541
 7103SOL    HW122249   2.464   6.346   3.113  1.0419  0.3727  0.1670
 7103SOL    HW222250   2.434   6.311   3.257 -2.5082 -1.9416 -0.9826
 7104SOL     OW22251   7.242   1.591   0.255 -0.9253  0.1963 -0.0410
 7104SOL    HW122252   7.149   1.565   0.258 -0.5018 -1.4914 -0.4534
 7104SOL    HW222253   7.261   1.600   0.162 -0.0129 -2.1863 -0.1447
 7105SOL     OW22254   4.060   3.302   5.629  0.0512  0.0960  0.0791
 7105SOL    HW122255   4.111   3.375   5.593 -0.7244  0.9402  0.6503
 7105SOL    HW222256   3.971   3.317   5.597  0.1530 -1.4448 -1.0381
 7106SOL     OW22257   3.080   0.626   2.382 -0.2444  0.3777  0.2449
 7106SOL    HW122258   3.131   0.707   2.384  0.3740 -0.0044  0.1689
 7106SOL    HW222259   3.032   0.626   2.464  0.2338  0.5220  0.5293
 7107SOL     OW22260   3.781   6.510   0.395 -0.3974  0.1881  0.0265
 7107SOL    HW122261   3.797   6.540   0.306 -0.8326 -1.5345 -0.6698
 7107SOL    HW222262   3.788   6.414   0.390 -1.1429  0.0099  1.6892
 7108SOL     OW22263   1.622   5.910   6.310 -0.5088 -0.3410  0.4017
 7108SOL    HW122264   1.558   5.900   6.380 -0.0250  0.3879  0.9682
 7108SOL    HW222265   1.571   5.904   6.230 -1.8579  3.1430  0.8035
 7109SOL     OW22266   2.058   2.651   4.459 -0.1002  0.0769  0.2263
 7109SOL    HW122267   1.984   2.704   4.429 -0.9774 -0.6711  1.0087
 7109SOL    HW222268   2.113   2.711   4.508 -0.5813  0.4793  0.2763
 7110SOL     OW22269   2.281   5.106   0.968  0.1972 -0.3202  0.0583
 7110SOL    HW122270   2.299   5.173   0.902 -1.8432  0.3840  0.1227
 7110SOL    HW222271   2.310   5.145   1.051  2.1015 -0.9159 -0.2932
 7111SOL     OW22272   1.900   4.587   2.788 -0.5355 -0.3419 -0.1682
 7111SOL    HW122273   1.933   4.503   2.759  0.1128  0.1701 -0.9654
 7111SOL    HW222274   1.976   4.645   2.784 -0.7321  0.0516  1.3443
 7112SOL     OW22275   4.621   6.990   5.381 -0.3540 -0.2709 -0.2515
 7112SOL    HW122276   4.552   7.047   5.414 -0.6247 -0.4797 -0.4451
 7112SOL    HW222277   4.693   6.999   5.443 -0.1889  0.6903 -0.5652
 7113SOL     OW22278   6.848   5.084   6.905  0.0289  0.7187  0.3877
 7113SOL    HW122279   6.870   5.029   6.980 -2.6367 -2.7999 -1.1257
 7113SOL    HW222280   6.779   5.142   6.937 -1.3762 -1.0246  0.6630
 7114SOL     OW22281   2.620   1.274   0.471 -0.0593  0.4214  0.4899
 7114SOL    HW122282   2.633   1.287   0.377 -2.2821  1.0444  0.2021
 7114SOL    HW222283   2.651   1.355   0.511  1.9338 -0.2742  0.4559
 7115SOL     OW22284   0.886   1.363   0.079 -0.0434 -0.2517 -0.3737
 7115SOL    HW122285   0.943   1.413   0.021  1.3013 -1.8562 -0.5055
 7115SOL    HW222286   0.934   1.282   0.096 -1.2387 -0.6327  1.4775
 7116SOL     OW22287   4.917   1.369   4.136  0.0216  0.3043  0.2229
 7116SOL    HW122288   4.999   1.376   4.086 -0.0236 -0.3173  0.0604
 7116SOL    HW222289   4.903   1.457   4.171  0.0531  0.7554 -0.8718
 7117SOL     OW22290   6.328   7.093   6.939  0.4200  0.3244 -0.1102
 7117SOL    HW122291   6.241   7.075   6.974  0.6418  1.7810  1.2778
 7117SOL    HW222292   6.315   7.098   6.844 -0.9495  0.2544  0.0602
 7118SOL     OW22293   1.848   2.995   4.689 -0.6294  0.3405  0.3810
 7118SOL    HW122294   1.758   3.026   4.678 -0.6988 -0.0553 -0.1853
 7118SOL    HW222295   1.890   3.009   4.604 -0.1452  0.5472  0.6485
 7119SOL     OW22296   0.841   6.588   4.550  0.3571 -0.0806 -0.4060
 7119SOL    HW122297   0.794   6.526   4.495  0.0028  1.4887 -1.9615
 7119SOL    HW222298   0.773   6.634   4.598  0.2622  1.7285 -2.1580
 7120SOL     OW22299   2.920   3.839   3.223  0.6068  0.4038 -0.2698
 7120SOL    HW122300   2.864   3.916   3.226 -1.3841 -0.9505 -0.7523
 7120SOL    HW222301   2.984   3.858   3.154  0.6000  1.9020  0.1218
 7121SOL     OW22302   3.586   1.044   0.241  0.8746 -0.9039 -0.1722
 7121SOL    HW122303   3.528   1.119   0.224 -0.2393 -1.5992  0.4233
 7121SOL    HW222304   3.651   1.078   0.303 -0.5071 -0.7965  1.2693
 7122SOL     OW22305   3.050   1.445   1.646 -0.2083  0.2417 -0.5555
 7122SOL    HW122306   3.007   1.465   1.729 -2.2651 -1.0836 -1.2447
 7122SOL    HW222307   3.018   1.512   1.585  1.2173  1.1504 -0.3771
 7123SOL     OW22308   0.559   4.162   4.304 -0.0614  0.4623  0.9099
 7123SOL    HW122309   0.624   4.190   4.368  0.2663 -0.6081  1.0741
 7123SOL    HW222310   0.577   4.215   4.226  0.8971  0.3275  1.0216
 7124SOL     OW22311   5.365   1.361   6.811 -0.4853 -0.0557  0.1716
 7124SOL    HW122312   5.273   1.384   6.797 -0.2308  1.1087  0.2793
 7124SOL    HW222313   5.368   1.266   6.799 -1.6294 -0.0651 -0.2028
 7125SOL     OW22314   0.903   5.673   6.871 -0.2976 -0.1323 -0.2273
 7125SOL    HW122315   0.893   5.579   6.857 -3.0522  0.3517 -2.3132
 7125SOL    HW222316   0.938   5.706   6.788 -1.6037  0.9269 -0.3920
 7126SOL     OW22317   6.350   5.841   0.445  0.0630  0.0061 -0.8216
 7126SOL    HW122318   6.427   5.804   0.489  0.3520  1.4985  0.0295
 7126SOL    HW222319   6.289   5.860   0.517 -0.2219  0.7824 -1.2545
 7127SOL     OW22320   5.722   5.716   4.762  0.1373 -0.4614  0.0567
 7127SOL    HW122321   5.695   5.705   4.853  0.9022  1.6485  0.5955
 7127SOL    HW222322   5.661   5.662   4.712 -0.1298 -1.9043  1.8102
 7128SOL     OW22323   5.789   6.820   7.015  0.7914 -0.3091 -0.4439
 7128SOL    HW122324   5.697   6.801   6.997  0.4227  0.3552  0.6307
 7128SOL    HW222325   5.807   6.900   6.965  0.5047  0.1083  0.1216
 7129SOL     OW22326   5.524   3.298   5.081 -0.1899  0.4038  0.0074
 7129SOL    HW122327   5.558   3.387   5.074  1.1863 -0.0581  0.6394
 7129SOL    HW222328   5.466   3.300   5.157 -1.8415  1.2558 -1.2241
 7130SOL     OW22329   4.539   4.828   4.749 -0.5540  0.3742 -0.2048
 7130SOL    HW122330   4.627   4.865   4.742  0.0431 -0.9664 -0.0707
 7130SOL    HW222331   4.503   4.867   4.829 -0.0737  0.8805 -0.2250
 7131SOL     OW22332   0.009   5.618   2.265  1.0288 -0.3015 -0.0815
 7131SOL    HW122333  -0.042   5.543   2.295 -0.1368  0.0916 -1.0244
 7131SOL    HW222334  -0.054   5.675   2.221  1.9173  1.1650  0.4588
 7132SOL     OW22335   4.421   3.019   5.347 -0.1449  0.7980 -0.1489
 7132SOL    HW122336   4.393   3.110   5.354  0.0560  0.9609 -1.2483
 7132SOL    HW222337   4.470   3.016   5.265 -4.1714 -1.2842 -2.8324
 7133SOL     OW22338   6.549   3.608   1.376  0.4966  0.5615 -0.2311
 7133SOL    HW122339   6.607   3.678   1.349  1.0399 -0.1084 -0.8171
 7133SOL    HW222340   6.527   3.561   1.296 -0.7529  0.7126 -0.0105
 7134SOL     OW22341   4.487   3.758   7.009 -0.2900 -0.2423 -0.5764
 7134SOL    HW122342   4.556   3.694   7.027 -3.1921 -3.0732  1.7061
 7134SOL    HW222343   4.498   3.824   7.077  0.8366  0.0006 -0.9695
 7135SOL     OW22344   1.910   6.442   0.232 -1.0846  0.0800 -1.0403
 7135SOL    HW122345   1.876   6.507   0.293 -2.0526 -1.7914  0.5268
 7135SOL    HW222346   2.003   6.435   0.253 -1.1808  0.2619 -0.5493
 7136SOL     OW22347   4.152   4.033   6.070  0.1824  0.9980  0.3386
 7136SOL    HW122348   4.173   3.997   5.984  1.2465 -2.3934  1.8407
 7136SOL    HW222349   4.063   4.067   6.060  0.8923  2.3491 -2.4658
 7137SOL     OW22350   7.128   6.937   6.397 -0.1015  0.5102 -0.6996
 7137SOL    HW122351   7.127   7.008   6.333 -0.4325  0.4489 -0.7661
 7137SOL    HW222352   7.210   6.890   6.379  0.7117  1.5839  0.1505
 7138SOL     OW22353   6.813   3.574   6.014 -0.9430 -0.4870 -0.0551
 7138SOL    HW122354   6.775   3.660   5.997  1.2419  0.2213 -1.7223
 7138SOL    HW222355   6.821   3.571   6.110 -1.8003  0.8175  0.0920
 7139SOL     OW22356   4.631   5.775   2.043 -0.0623 -0.2768  0.0745
 7139SOL    HW122357   4.682   5.720   2.102  1.8773  0.9528 -0.3647
 7139SOL    HW222358   4.683   5.779   1.963 -1.9868 -0.8040 -1.2577
 7140SOL     OW22359   2.246   4.131   6.607  0.0399  0.2945  0.1501
 7140SOL    HW122360   2.325   4.184   6.617  0.3348 -0.0172 -0.4770
 7140SOL    HW222361   2.262   4.079   6.528 -0.9207  0.4500 -0.1551
 7141SOL     OW22362   5.407   3.649   0.975  0.0105  0.2365  0.0601
 7141SOL    HW122363   5.459   3.608   1.044  0.8032  0.7255 -0.2243
 7141SOL    HW222364   5.349   3.710   1.021  0.4115  0.4342  0.3051
 7142SOL     OW22365   1.458   1.625   0.333  0.7897  0.5068 -0.4536
 7142SOL    HW122366   1.437   1.710   0.296  0.9339  1.4365  1.4593
 7142SOL    HW222367   1.545   1.636   0.371  1.2156 -0.7932 -0.9851
 7143SOL     OW22368   4.724   3.121   0.579 -0.1667 -0.2084 -0.6018
 7143SOL    HW122369   4.756   3.101   0.667 -1.2224 -1.0649 -0.3924
 7143SOL    HW222370   4.742   3.215   0.568  1.1135 -0.3592  0.0232
 7144SOL     OW22371   1.743   6.862   4.974 -0.1867  0.3223 -0.0884
 7144SOL    HW122372   1.710   6.916   5.045 -1.1869 -0.4875  0.0882
 7144SOL    HW222373   1.777   6.784   5.018  0.3908  0.3900 -0.4063
 7145SOL     OW22374   2.478   4.378   6.986  0.9598  0.0130  0.2794
 7145SOL    HW122375   2.490   4.462   6.942 -0.3099 -0.7301 -1.6262
 7145SOL    HW222376   2.553   4.326   6.959  0.3753 -0.3160 -0.7947
 7146SOL     OW22377   6.271   5.602   4.194 -0.2623  0.0826  0.6669
 7146SOL    HW122378   6.275   5.520   4.144 -1.3707  0.0422  0.6163
 7146SOL    HW222379   6.263   5.671   4.128 -0.4962  0.1331  0.7481
 7147SOL     OW22380   3.211   4.500   6.695  0.0150 -0.3517  0.0078
 7147SOL    HW122381   3.304   4.480   6.686  0.4780  1.0533  1.2537
 7147SOL    HW222382   3.203   4.592   6.670 -1.0327 -0.4276 -0.0013
 7148SOL     OW22383   6.396   3.650   2.240 -0.4339 -0.1171  0.1296
 7148SOL    HW122384   6.411   3.744   2.231  1.8982 -0.5181 -0.8837
 7148SOL    HW222385   6.301   3.642   2.246 -0.7414  2.2528 -0.3707
 7149SOL     OW22386   3.933   1.357   3.770 -0.6226 -0.1911  0.0432
 7149SOL    HW122387   3.964   1.320   3.687  1.0046 -0.3386  0.6734
 7149SOL    HW222388   3.850   1.313   3.786 -0.0070 -1.6535 -0.5365
 7150SOL     OW22389   5.765   5.065   1.137 -0.0355  0.6135 -0.0698
 7150SOL    HW122390   5.838   5.017   1.177 -0.5252  1.6758  2.3353
 7150SOL    HW222391   5.762   5.035   1.047  1.5881 -1.5493  0.5188
 7151SOL     OW22392   1.701   5.057   1.557  0.1476  0.1934 -0.0838
 7151SOL    HW122393   1.654   4.977   1.532 -0.1842  0.1806  0.5520
 7151SOL    HW222394   1.792   5.041   1.530  0.3587 -0.9356  1.1996
 7152SOL     OW22395   0.034   2.950   0.007 -0.4161 -0.0807 -0.3830
 7152SOL    HW122396   0.075   3.012  -0.053 -1.3469  0.7618 -0.1771
 7152SOL    HW222397   0.051   2.984   0.094 -3.6284  1.7772 -0.3119
 7153SOL     OW22398   4.166   2.125   0.214  0.0622 -0.0899  0.1469
 7153SOL    HW122399   4.159   2.220   0.223  0.7363  0.0627 -0.7441
 7153SOL    HW222400   4.080   2.097   0.183 -0.4543  0.0915  1.3800
 7154SOL     OW22401   0.581   0.546   6.813 -0.3808  0.2835  0.1464
 7154SOL    HW122402   0.624   0.482   6.870  0.5742  0.3780 -0.4363
 7154SOL    HW222403   0.570   0.623   6.868  0.1688  0.2415  0.3224
 7155SOL     OW22404   7.105   1.146   0.457 -1.0442 -0.3739 -0.8529
 7155SOL    HW122405   7.152   1.175   0.379 -1.4131 -0.4367 -1.0971
 7155SOL    HW222406   7.071   1.227   0.495 -0.1333 -0.2467 -0.2768
 7156SOL     OW22407   5.091   5.498   3.118 -0.1224 -0.3587  0.1427
 7156SOL    HW122408   5.078   5.457   3.204 -1.1142  0.8954  0.6412
 7156SOL    HW222409   5.047   5.583   3.126  0.5661  0.1665 -1.3188
 7157SOL     OW22410   4.841   0.116   7.072  0.4887 -0.0440 -0.6373
 7157SOL    HW122411   4.860   0.041   7.015  0.1464  0.5320 -1.5224
 7157SOL    HW222412   4.927   0.153   7.092  0.5884 -0.0295 -1.0864
 7158SOL     OW22413   1.473   3.609   6.370  0.2364  0.0492  0.2801
 7158SOL    HW122414   1.509   3.692   6.339  0.7808 -0.4456 -0.4473
 7158SOL    HW222415   1.543   3.545   6.355 -0.6189 -0.7749 -0.3760
 7159SOL     OW22416   4.660   5.576   1.136 -0.3353  0.3865  0.1946
 7159SOL    HW122417   4.595   5.635   1.173  0.8332  0.9103  1.5178
 7159SOL    HW222418   4.699   5.533   1.211  0.9399  0.1979 -0.5354
 7160SOL     OW22419   6.455   5.463   6.735  0.3557 -0.0976  0.1561
 7160SOL    HW122420   6.445   5.502   6.822  0.0467  0.0529  0.0524
 7160SOL    HW222421   6.365   5.448   6.705  0.4703 -1.0700  0.2803
 7161SOL     OW22422   2.035   3.459   2.325 -0.3660  0.1515 -0.3465
 7161SOL    HW122423   2.090   3.465   2.247 -1.1707  0.9877 -0.8742
 7161SOL    HW222424   2.087   3.500   2.395 -0.3255  0.9934 -0.8531
 7162SOL     OW22425   5.336   2.645   2.393 -0.0792  0.3553 -0.0764
 7162SOL    HW122426   5.255   2.646   2.445  0.2617 -0.1811  0.4647
 7162SOL    HW222427   5.319   2.708   2.323 -1.4761 -0.6839 -0.7304
 7163SOL     OW22428   0.415   1.212   6.605 -1.0193 -0.3675  0.1187
 7163SOL    HW122429   0.434   1.134   6.657  0.1528  0.0008  0.2617
 7163SOL    HW222430   0.414   1.181   6.514  0.1049 -0.4452  0.1203
 7164SOL     OW22431   2.046   0.905   0.085 -0.4694 -0.8956 -0.3149
 7164SOL    HW122432   2.122   0.874   0.037  0.9212  2.8465 -0.9279
 7164SOL    HW222433   1.990   0.946   0.018 -0.5701  0.6716  0.6712
 7165SOL     OW22434   1.387   6.745   3.056 -0.5913  0.8480 -0.8959
 7165SOL    HW122435   1.476   6.714   3.073 -1.0193 -0.5634 -1.0922
 7165SOL    HW222436   1.398   6.822   3.002  0.6036  2.1965  1.1218
 7166SOL     OW22437   1.606   1.675   1.021  0.4085 -0.3779 -0.0678
 7166SOL    HW122438   1.678   1.651   0.962  0.5553 -0.3654  0.1074
 7166SOL    HW222439   1.573   1.757   0.985  0.2477 -0.5633 -0.3582
 7167SOL     OW22440   4.182   3.279   3.996 -0.2673  0.4098  0.1364
 7167SOL    HW122441   4.265   3.326   4.003  0.1911 -0.5748  1.7644
 7167SOL    HW222442   4.131   3.310   4.071 -1.6178  1.3820 -1.1176
 7168SOL     OW22443   6.139   3.613   6.078 -0.5798 -0.3302  0.2632
 7168SOL    HW122444   6.129   3.545   6.145  1.5143 -0.3161  0.6596
 7168SOL    HW222445   6.212   3.582   6.023  2.3268  2.7305  2.0482
 7169SOL     OW22446   5.164   3.448   3.067 -0.8685  0.4822  0.5419
 7169SOL    HW122447   5.108   3.481   3.136 -2.1926 -0.9482  0.2235
 7169SOL    HW222448   5.228   3.392   3.111  0.5143  2.2523  0.9246
 7170SOL     OW22449   1.938   4.484   4.156 -0.2785 -0.0303  0.2960
 7170SOL    HW122450   1.947   4.423   4.083 -0.0801 -1.6175  1.5957
 7170SOL    HW222451   1.890   4.558   4.119  0.9066 -0.2170 -1.7406
 7171SOL     OW22452   3.945   2.009   1.493  0.2052 -0.3288  0.2023
 7171SOL    HW122453   3.895   1.967   1.563 -1.8081  0.4876 -0.6845
 7171SOL    HW222454   4.024   2.041   1.537 -1.1203  0.4173  2.1880
 7172SOL     OW22455   0.909   0.508   0.353 -0.1179  0.4332 -0.3918
 7172SOL    HW122456   0.880   0.440   0.293 -2.3422  0.7114  0.2660
 7172SOL    HW222457   0.960   0.568   0.299 -0.8505 -0.0595 -1.6774
 7173SOL     OW22458   1.010   6.707   4.324  0.3120 -0.2649  0.5932
 7173SOL    HW122459   0.965   6.623   4.314 -1.4960  0.8253 -1.3924
 7173SOL    HW222460   1.043   6.706   4.414 -3.7446 -1.2453  2.3014
 7174SOL     OW22461   4.497   4.248   0.316 -0.0015  0.4678 -0.2981
 7174SOL    HW122462   4.504   4.267   0.410  1.4283 -1.7788  0.1052
 7174SOL    HW222463   4.403   4.238   0.301 -0.2507  0.7715  0.9101
 7175SOL     OW22464   1.693   4.682   3.591  0.1600  0.5691  0.3422
 7175SOL    HW122465   1.740   4.710   3.512  2.5869  0.1362  1.5421
 7175SOL    HW222466   1.613   4.641   3.558  0.9492  0.6837 -1.8782
 7176SOL     OW22467   1.183   7.002   0.658  0.2913  0.1226  0.0560
 7176SOL    HW122468   1.270   7.038   0.639 -0.4917  1.5354 -1.0203
 7176SOL    HW222469   1.175   7.006   0.753  0.9818  1.0170  0.0900
 7177SOL     OW22470   5.243   3.751   1.709 -0.0091  0.6345  0.0463
 7177SOL    HW122471   5.307   3.791   1.768 -0.0681 -0.2903  0.7722
 7177SOL    HW222472   5.226   3.817   1.642  0.3946  1.5480  0.8254
 7178SOL     OW22473   7.393   4.468   2.204  0.1027  0.0002  0.5389
 7178SOL    HW122474   7.458   4.398   2.202 -1.6850 -1.7521  0.4278
 7178SOL    HW222475   7.433   4.540   2.155  1.9619 -0.9719  0.5653
 7179SOL     OW22476   2.644   5.826   6.418  0.1201 -0.1565 -0.3035
 7179SOL    HW122477   2.706   5.782   6.359  0.8782 -0.1508  0.4737
 7179SOL    HW222478   2.663   5.919   6.406 -0.0035 -0.1375 -0.3494
 7180SOL     OW22479   0.722   2.627   4.705  0.1298 -0.4734 -0.5065
 7180SOL    HW122480   0.798   2.663   4.752 -1.1713  0.5757  0.9088
 7180SOL    HW222481   0.733   2.533   4.710  1.9046 -0.3543 -1.3292
 7181SOL     OW22482   0.397   1.133   6.342 -0.0560  0.1143  0.4083
 7181SOL    HW122483   0.477   1.147   6.291 -0.4757  0.5787 -0.1452
 7181SOL    HW222484   0.329   1.120   6.276 -0.9116  2.3539  0.7582
 7182SOL     OW22485   0.746   1.343   6.806  0.3570 -0.5331 -0.1284
 7182SOL    HW122486   0.828   1.296   6.821  0.9841 -0.5501 -3.0239
 7182SOL    HW222487   0.735   1.397   6.884  2.0748 -1.9834  1.2037
 7183SOL     OW22488   1.250   3.704   1.569  0.7960  0.0094 -0.2047
 7183SOL    HW122489   1.340   3.711   1.538  0.7709  0.7877 -0.1161
 7183SOL    HW222490   1.253   3.729   1.661  0.4680  0.1385 -0.2264
 7184SOL     OW22491   5.571   2.281   3.842  0.2639 -0.9918  0.6693
 7184SOL    HW122492   5.505   2.240   3.898 -0.8585 -0.9186 -0.5796
 7184SOL    HW222493   5.592   2.215   3.776  0.9397 -0.7641  0.6491
 7185SOL     OW22494   3.506   7.020   0.766  0.4844 -0.2739  0.1144
 7185SOL    HW122495   3.586   7.043   0.814  1.5221  0.0297 -1.6908
 7185SOL    HW222496   3.487   7.097   0.713 -1.0491 -0.3380  0.5261
 7186SOL     OW22497   3.000   3.304   3.385  0.0730  0.0315 -0.0610
 7186SOL    HW122498   3.045   3.375   3.338  0.7067 -0.5447 -0.3367
 7186SOL    HW222499   3.040   3.304   3.472  0.6882 -0.5510 -0.3409
 7187SOL     OW22500   0.449   1.776   5.194 -0.0726  0.2189 -0.4512
 7187SOL    HW122501   0.415   1.687   5.203  0.1210  0.3200  2.1611
 7187SOL    HW222502   0.371   1.831   5.183 -0.3075 -0.1152 -0.4712
 7188SOL     OW22503   2.387   6.662   0.609  0.8505  0.1258  0.3163
 7188SOL    HW122504   2.292   6.647   0.602  1.0821 -1.9130  0.9334
 7188SOL    HW222505   2.403   6.667   0.703  1.5410 -1.0914  0.2821
 7189SOL     OW22506   6.887   3.351   1.835 -0.2627  0.0852  0.8313
 7189SOL    HW122507   6.915   3.441   1.819 -2.9945  0.6344 -1.7387
 7189SOL    HW222508   6.867   3.316   1.748 -1.1058 -2.3897  1.9199
 7190SOL     OW22509   2.960   4.953   7.376 -0.1565  0.1162  0.7508
 7190SOL    HW122510   3.045   4.929   7.340 -1.0671 -1.2175 -0.6827
 7190SOL    HW222511   2.898   4.931   7.306 -1.5566  2.6431  1.0618
 7191SOL     OW22512   2.516   4.266   4.086  0.0827 -0.5814  0.7310
 7191SOL    HW122513   2.530   4.239   4.177  0.2579 -1.9314  0.3263
 7191SOL    HW222514   2.522   4.361   4.088  0.6090 -0.6232  2.0453
 7192SOL     OW22515   1.804   7.385   4.337 -0.1665 -0.1546  0.8303
 7192SOL    HW122516   1.768   7.447   4.275  2.7305  1.0688  0.2195
 7192SOL    HW222517   1.797   7.300   4.293 -1.6182  0.1099  0.5035
 7193SOL     OW22518   0.879   5.850   5.112  0.2490  0.1039 -0.3255
 7193SOL    HW122519   0.870   5.772   5.168 -3.1414  0.6117  0.0854
 7193SOL    HW222520   0.963   5.839   5.069  0.8152 -2.7754  1.2300
 7194SOL     OW22521   1.243   3.695   4.394 -0.3129 -0.0971  0.3766
 7194SOL    HW122522   1.153   3.663   4.401 -0.7828  1.2936  0.9910
 7194SOL    HW222523   1.273   3.664   4.308 -2.2883  1.5971 -0.9998
 7195SOL     OW22524   4.165   6.334   0.592 -0.2599 -0.8685 -0.2895
 7195SOL    HW122525   4.109   6.260   0.568 -1.0539 -0.5103  0.4156
 7195SOL    HW222526   4.106   6.409   0.591  0.8239  0.0158 -2.3744
 7196SOL     OW22527   3.202   2.798   0.368 -0.4389 -0.4746 -0.1276
 7196SOL    HW122528   3.263   2.725   0.360  1.3239  0.9042  0.0202
 7196SOL    HW222529   3.169   2.812   0.279  0.2802 -0.5832 -0.4166
 7197SOL     OW22530   7.128   1.406   5.139 -0.1116 -0.0310 -0.0129
 7197SOL    HW122531   7.212   1.451   5.143  0.7489 -1.5685 -0.4269
 7197SOL    HW222532   7.137   1.332   5.199 -1.1973 -0.1920 -0.0196
 7198SOL     OW22533   7.250   1.827   4.146  0.5939 -0.0856  0.5220
 7198SOL    HW122534   7.314   1.884   4.104  0.2450 -0.6029 -0.7426
 7198SOL    HW222535   7.220   1.768   4.077 -0.8109 -0.2443  1.2140
 7199SOL     OW22536   2.804   2.935   2.177  0.2381  0.3110 -0.0278
 7199SOL    HW122537   2.741   2.891   2.234  1.3309  1.4091  2.2085
 7199SOL    HW222538   2.877   2.874   2.170  0.2039  0.2720 -0.0439
 7200SOL     OW22539   6.959   6.135   0.585  0.0308 -0.0375  0.0121
 7200SOL    HW122540   7.003   6.064   0.539 -0.3197  0.8600 -1.7843
 7200SOL    HW222541   7.021   6.162   0.653 -0.4436 -3.0158  1.7946
 7201SOL     OW22542   2.084   4.994   2.450  0.1620 -0.0581  0.1973
 7201SOL    HW122543   2.146   5.016   2.519 -0.9853  2.0181  0.6429
 7201SOL    HW222544   2.139   4.974   2.374  1.4372  2.1086  0.4678
 7202SOL     OW22545   2.334   5.212   3.884  0.3754 -0.0711  0.3390
 7202SOL    HW122546   2.393   5.190   3.956 -0.0783 -2.0837  0.1517
 7202SOL    HW222547   2.359   5.154   3.813 -0.7285  0.2091 -0.3090
 7203SOL     OW22548   2.469   3.948   1.663  0.1404  0.1326  0.5617
 7203SOL    HW122549   2.382   3.984   1.645  0.2245  1.0214  1.8020
 7203SOL    HW222550   2.488   3.891   1.588 -1.4504  0.0221  0.2176
 7204SOL     OW22551   6.554   4.022   7.327  0.2022 -0.3313 -0.0556
 7204SOL    HW122552   6.555   4.108   7.370  1.9885 -0.0682 -0.5367
 7204SOL    HW222553   6.557   3.959   7.400 -0.9532 -0.0206  0.2928
 7205SOL     OW22554   5.589   3.823   5.183 -0.2658 -0.1604 -0.2429
 7205SOL    HW122555   5.633   3.907   5.200  0.5281 -0.4575 -0.8095
 7205SOL    HW222556   5.653   3.772   5.133 -1.2762 -0.5808 -1.1375
 7206SOL     OW22557   2.529   5.622   7.238 -0.3647 -0.5622  0.3273
 7206SOL    HW122558   2.528   5.664   7.324 -0.9462 -0.1069  0.0961
 7206SOL    HW222559   2.439   5.595   7.223 -0.1769 -1.0524  0.0553
 7207SOL     OW22560   4.136   4.517   4.785 -0.3808  0.0805 -0.2949
 7207SOL    HW122561   4.097   4.575   4.720 -0.4756 -0.8929 -1.1310
 7207SOL    HW222562   4.063   4.464   4.816 -0.0165 -0.7036 -0.7438
 7208SOL     OW22563   5.275   3.729   2.641 -0.0653 -0.0050  0.4726
 7208SOL    HW122564   5.368   3.717   2.661 -0.2611 -0.7491  0.9736
 7208SOL    HW222565   5.230   3.677   2.707 -0.7859 -1.2082 -0.9027
 7209SOL     OW22566   6.845   6.669   5.454  0.1980 -0.1176  0.0900
 7209SOL    HW122567   6.831   6.622   5.372  1.5075 -1.2089  0.4667
 7209SOL    HW222568   6.782   6.742   5.451 -0.8046 -0.9975 -1.1897
 7210SOL     OW22569   2.019   0.988   5.209 -0.0110  0.1875  0.0572
 7210SOL    HW122570   2.009   1.056   5.275  0.6364 -0.9146  1.3361
 7210SOL    HW222571   1.939   0.935   5.217  0.8102 -0.9276  1.1533
 7211SOL     OW22572   3.273   5.626   1.089  0.2392  0.2431  0.7785
 7211SOL    HW122573   3.224   5.566   1.145 -3.3232  0.1606 -2.0003
 7211SOL    HW222574   3.264   5.711   1.132 -1.8109  0.0749  0.7935
 7212SOL     OW22575   2.972   3.063   5.459  0.8812 -0.3936 -0.3836
 7212SOL    HW122576   2.916   3.028   5.529 -0.7497 -0.8960 -1.8628
 7212SOL    HW222577   2.994   2.986   5.406 -1.5462  0.4412 -2.8547
 7213SOL     OW22578   3.729   5.194   5.829 -0.3135  0.0556 -0.3129
 7213SOL    HW122579   3.656   5.147   5.788  2.1799 -3.0086 -1.7188
 7213SOL    HW222580   3.746   5.266   5.769 -0.8963 -0.4362 -1.1049
 7214SOL     OW22581   0.464   5.397   0.025  0.8023  0.2573  0.1503
 7214SOL    HW122582   0.532   5.408  -0.042  0.7543 -0.4892 -0.0249
 7214SOL    HW222583   0.480   5.468   0.087  0.7818  1.0188 -0.7073
 7215SOL     OW22584   3.945   0.701   0.952 -0.5996  0.3981 -0.4297
 7215SOL    HW122585   3.890   0.695   0.874 -0.4784 -0.7914 -0.4417
 7215SOL    HW222586   4.034   0.694   0.919 -0.4179  1.9660 -0.3709
 7216SOL     OW22587   1.823   0.708   6.673  0.3603 -0.5235 -0.9389
 7216SOL    HW122588   1.809   0.781   6.614  0.1242 -1.3996 -1.9976
 7216SOL    HW222589   1.783   0.633   6.629 -1.6541 -0.8393  1.2589
 7217SOL     OW22590   0.597   1.271   4.079 -0.4878  0.8326  0.3912
 7217SOL    HW122591   0.633   1.280   3.991  2.9163  1.8928  1.7016
 7217SOL    HW222592   0.553   1.354   4.096 -1.9648  0.2813 -0.5574
 7218SOL     OW22593   0.163   4.203   3.212 -0.7980 -0.4877  0.4727
 7218SOL    HW122594   0.253   4.204   3.245 -0.8697  1.5105  0.7714
 7218SOL    HW222595   0.128   4.289   3.236 -2.5592 -0.9458 -0.2763
 7219SOL     OW22596   3.994   6.488   6.945  0.0853  0.4730 -0.2543
 7219SOL    HW122597   4.067   6.480   6.883  0.4597 -0.3474  0.2874
 7219SOL    HW222598   3.928   6.427   6.912  0.6022 -0.5599  0.5870
 7220SOL     OW22599   1.912   2.846   3.876 -0.2546  0.5220 -0.0582
 7220SOL    HW122600   1.895   2.859   3.969 -1.0307 -1.3149  0.1042
 7220SOL    HW222601   2.004   2.822   3.872 -0.3834 -0.0724  0.3383
 7221SOL     OW22602   6.902   5.870   5.720 -0.2210 -0.0492 -0.4474
 7221SOL    HW122603   6.844   5.929   5.768 -1.5856 -0.3326 -1.6656
 7221SOL    HW222604   6.876   5.881   5.628 -1.3159 -3.3145 -0.6587
 7222SOL     OW22605   1.643   3.832   4.418 -0.1972  0.2289 -0.2828
 7222SOL    HW122606   1.579   3.790   4.476 -0.5509 -3.6631 -3.0883
 7222SOL    HW222607   1.664   3.765   4.352  2.4371  3.2637 -2.9076
 7223SOL     OW22608   5.624   0.127   0.849 -0.2848 -0.2393  0.0124
 7223SOL    HW122609   5.679   0.050   0.842 -2.3023 -1.7558 -0.0719
 7223SOL    HW222610   5.585   0.121   0.937  0.8275  1.6463  0.6921
 7224SOL     OW22611   3.270   4.201   0.776  0.1593  0.0576 -0.4914
 7224SOL    HW122612   3.363   4.179   0.776  0.4325  1.1117  0.2386
 7224SOL    HW222613   3.254   4.233   0.688  0.5329  0.0204 -0.5771
 7225SOL     OW22614   3.718   0.207   5.281  0.6406 -0.3049  0.4457
 7225SOL    HW122615   3.721   0.185   5.374 -0.7854 -1.1061  0.3446
 7225SOL    HW222616   3.659   0.141   5.244  0.4841  0.5489 -0.8600
 7226SOL     OW22617   2.274   6.961   7.304 -0.1823 -0.5264  0.2841
 7226SOL    HW122618   2.190   7.000   7.327  0.1088  1.4180 -1.6202
 7226SOL    HW222619   2.334   6.990   7.372 -0.2250  1.5783 -0.4901
 7227SOL     OW22620   6.325   4.302   4.505  0.7904  0.1367 -0.3357
 7227SOL    HW122621   6.268   4.331   4.576  0.4974  2.4404 -1.4138
 7227SOL    HW222622   6.266   4.282   4.433  1.2002  1.2961 -1.0413
 7228SOL     OW22623   6.031   5.658   6.006  0.1171  0.0410  0.1427
 7228SOL    HW122624   6.093   5.722   5.971 -0.2744  0.0876 -0.4836
 7228SOL    HW222625   5.984   5.625   5.929  0.1868 -0.8660  0.4809
 7229SOL     OW22626   2.993   2.960   1.833 -0.5433  0.0194 -0.0851
 7229SOL    HW122627   3.077   2.916   1.815  0.8644  2.1506  0.8624
 7229SOL    HW222628   2.955   2.911   1.906  1.0533  0.3717  1.0422
 7230SOL     OW22629   5.751   5.092   4.903 -0.1111  0.0801 -0.2358
 7230SOL    HW122630   5.829   5.070   4.852  2.1848  2.0127  2.1592
 7230SOL    HW222631   5.725   5.179   4.872  0.1799  0.4723  0.5912
 7231SOL     OW22632   7.369   6.435   1.106  0.8916  0.2727  0.3864
 7231SOL    HW122633   7.282   6.454   1.140  1.4342  0.3565  1.7894
 7231SOL    HW222634   7.363   6.452   1.012 -0.5571  0.3978  0.4879
 7232SOL     OW22635   4.985   6.940   0.895  0.0462  0.0443 -0.1568
 7232SOL    HW122636   4.903   6.929   0.943 -0.4303 -0.5216 -1.0639
 7232SOL    HW222637   4.985   6.867   0.832  1.1384  0.1681 -0.3160
 7233SOL     OW22638   6.531   6.830   7.211  0.2673  0.0701  0.0855
 7233SOL    HW122639   6.479   6.777   7.150  0.7101 -0.1905 -0.0731
 7233SOL    HW222640   6.487   6.915   7.212  0.4406  0.1891 -0.8718
 7234SOL     OW22641   4.380   7.274   3.266 -0.0943  0.1371 -0.0295
 7234SOL    HW122642   4.358   7.256   3.175 -0.1090 -1.3290  0.2489
 7234SOL    HW222643   4.373   7.370   3.274 -3.1349  0.0670 -0.7743
 7235SOL     OW22644   0.585   3.381   7.356 -0.1641 -0.3598 -0.7056
 7235SOL    HW122645   0.607   3.435   7.432  0.5062 -1.2710 -0.2127
 7235SOL    HW222646   0.513   3.325   7.386  0.4036 -1.0389 -0.5706
 7236SOL     OW22647   4.752   4.530   3.160 -0.1356 -0.5662 -0.5020
 7236SOL    HW122648   4.769   4.437   3.146 -0.8364 -0.4790 -2.1201
 7236SOL    HW222649   4.788   4.548   3.247  2.0487 -1.8447 -1.0596
 7237SOL     OW22650   4.679   3.573   3.238  0.3035  0.0075 -0.2257
 7237SOL    HW122651   4.615   3.642   3.217  1.6784  1.1595 -0.8275
 7237SOL    HW222652   4.634   3.491   3.218 -1.5729  0.6679  1.0043
 7238SOL     OW22653   2.008   0.648   7.288 -0.2770  0.1403 -0.3655
 7238SOL    HW122654   2.006   0.733   7.244 -0.1849  1.7017  2.4089
 7238SOL    HW222655   2.000   0.584   7.217 -2.0893  2.4573 -2.4296
 7239SOL     OW22656   1.475   4.319   0.143  0.4461 -0.1626  0.1751
 7239SOL    HW122657   1.443   4.358   0.061  1.3718  1.6812  0.6472
 7239SOL    HW222658   1.556   4.366   0.162  0.4833 -0.8832  1.9256
 7240SOL     OW22659   3.988   2.023   5.042  0.2850 -0.2003  0.4690
 7240SOL    HW122660   3.893   2.030   5.055 -0.3035 -1.5493 -2.4719
 7240SOL    HW222661   4.017   2.113   5.029 -1.1760  0.0046 -1.7520
 7241SOL     OW22662   5.032   6.669   2.528  0.5245  0.3500 -0.3348
 7241SOL    HW122663   5.070   6.595   2.481 -0.3180 -0.4487  0.2054
 7241SOL    HW222664   4.950   6.687   2.482 -1.0128 -1.3433  1.5737
 7242SOL     OW22665   0.542   4.481   1.732 -0.0431 -1.0181 -0.1771
 7242SOL    HW122666   0.572   4.492   1.642  1.7524  0.0756  0.4793
 7242SOL    HW222667   0.572   4.393   1.757  0.4580 -0.8905 -0.3147
 7243SOL     OW22668   0.335   0.033   4.773  0.1732 -0.2030  0.7049
 7243SOL    HW122669   0.315  -0.011   4.856 -2.2239 -0.0765  0.2716
 7243SOL    HW222670   0.336   0.126   4.794  1.9711 -0.2612  1.0030
 7244SOL     OW22671   6.822   1.264   5.214 -0.6897  0.4093  0.1640
 7244SOL    HW122672   6.910   1.234   5.191 -0.6560 -0.3885  1.2418
 7244SOL    HW222673   6.836   1.338   5.273 -0.7708  1.9773 -1.7239
 7245SOL     OW22674   6.493   5.901   3.877 -0.3971  0.2141 -0.1597
 7245SOL    HW122675   6.571   5.851   3.854 -1.8605 -2.2988 -0.0953
 7245SOL    HW222676   6.498   5.980   3.823  2.8214  0.8585  0.8761
 7246SOL     OW22677   6.802   2.078   5.103 -0.5820  0.2886 -0.1879
 7246SOL    HW122678   6.833   2.032   5.025  0.5602 -0.0309  0.4301
 7246SOL    HW222679   6.811   2.171   5.082 -1.5042  0.2284 -0.9004
 7247SOL     OW22680   1.054   7.054   0.117 -0.1334  0.1753 -0.3195
 7247SOL    HW122681   1.125   7.114   0.137 -0.3971  0.0641  1.0423
 7247SOL    HW222682   0.987   7.108   0.076 -0.4051  0.8475  0.9750
 7248SOL     OW22683   4.960   1.900   6.449  0.1921  0.1258  0.3311
 7248SOL    HW122684   4.977   1.884   6.356 -0.2945  0.3105  0.2120
 7248SOL    HW222685   4.921   1.818   6.480  1.2689 -0.3006  0.6059
 7249SOL     OW22686   3.807   1.961   6.041  0.3316 -0.2051 -0.2335
 7249SOL    HW122687   3.813   1.891   6.107 -0.8642  0.4320  0.5967
 7249SOL    HW222688   3.898   1.981   6.019  0.7074 -1.8785 -0.3515
 7250SOL     OW22689   3.485   5.091   5.129  0.4109  0.7868  0.1047
 7250SOL    HW122690   3.478   5.176   5.086 -0.1344  0.4029 -0.5856
 7250SOL    HW222691   3.549   5.105   5.199 -0.3592  1.9933  0.6011
 7251SOL     OW22692   3.199   5.397   4.255  0.1911 -0.1397 -0.0173
 7251SOL    HW122693   3.149   5.370   4.178 -1.7391  1.4075  0.6178
 7251SOL    HW222694   3.225   5.315   4.296 -1.8311 -1.0310 -0.4036
 7252SOL     OW22695   0.063   5.918   5.443  0.1739 -0.0535 -0.4761
 7252SOL    HW122696   0.015   5.864   5.505  1.0485 -0.0436  0.2330
 7252SOL    HW222697   0.008   5.920   5.365 -0.5487 -0.7661  0.0009
 7253SOL     OW22698   3.948   1.984   4.753  0.8176  0.3204 -0.2980
 7253SOL    HW122699   3.944   1.958   4.845  1.9354  0.9975 -0.0352
 7253SOL    HW222700   3.885   1.927   4.709 -1.0676  1.1966  1.1422
 7254SOL     OW22701   2.970   1.813   4.471  0.1426 -0.2761  0.4203
 7254SOL    HW122702   2.961   1.858   4.555 -0.7218  0.0214  0.1746
 7254SOL    HW222703   3.016   1.876   4.415 -0.7081  0.1481  0.1961
 7255SOL     OW22704   5.113   4.809   2.692  0.1180  0.1244 -0.2646
 7255SOL    HW122705   5.131   4.789   2.600 -2.4720 -0.6979 -0.6653
 7255SOL    HW222706   5.168   4.748   2.741  1.2671  0.3325 -1.2522
 7256SOL     OW22707   4.687   6.348   6.731  0.8010 -0.2482  0.3605
 7256SOL    HW122708   4.643   6.338   6.816  1.5542 -1.3029  0.6487
 7256SOL    HW222709   4.723   6.436   6.733 -0.5531  0.3309  0.4638
 7257SOL     OW22710   5.087   4.607   5.077 -0.5258 -0.1596  0.7722
 7257SOL    HW122711   5.070   4.653   4.994  1.2798 -0.3387  0.2715
 7257SOL    HW222712   5.088   4.677   5.143  1.2452  0.4658  0.1503
 7258SOL     OW22713   5.025   3.891   0.595 -0.1323 -0.2332  0.2177
 7258SOL    HW122714   5.025   3.966   0.536  1.1049 -0.2496  0.1666
 7258SOL    HW222715   5.117   3.875   0.613 -0.4128 -1.3334  0.7603
 7259SOL     OW22716   6.055   4.701   2.946  0.5136  0.2954  0.2925
 7259SOL    HW122717   5.992   4.629   2.946  0.8776 -0.1328 -2.4917
 7259SOL    HW222718   6.139   4.660   2.967  0.3353  0.3670  1.1695
 7260SOL     OW22719   7.027   6.461   6.254  0.1848  0.0357 -0.0228
 7260SOL    HW122720   7.049   6.550   6.226 -1.4782  1.6123  3.1904
 7260SOL    HW222721   6.971   6.427   6.184 -2.3196  3.0537  0.3030
 7261SOL     OW22722   2.195   4.954   7.216 -0.2376  0.3100 -0.3536
 7261SOL    HW122723   2.201   4.950   7.312  0.2912  0.3088 -0.3835
 7261SOL    HW222724   2.285   4.938   7.186  0.3094  3.4285 -0.7497
 7262SOL     OW22725   2.377   0.148   4.508  0.5617 -0.1432  0.4590
 7262SOL    HW122726   2.366   0.132   4.601  0.0635 -3.2006 -0.0482
 7262SOL    HW222727   2.318   0.087   4.465  2.0127 -0.0244 -1.9072
 7263SOL     OW22728   3.708   3.106   4.270  0.2826 -0.1750 -0.6178
 7263SOL    HW122729   3.625   3.131   4.310  1.3067  0.7533  1.0606
 7263SOL    HW222730   3.693   3.018   4.237 -0.8971 -0.6928  1.1439
 7264SOL     OW22731   0.692   6.558   3.595 -0.1003 -0.4075 -0.2471
 7264SOL    HW122732   0.661   6.556   3.686  1.8934 -1.3771  0.4787
 7264SOL    HW222733   0.787   6.570   3.603  0.0063  0.4784 -2.2604
 7265SOL     OW22734   2.944   4.983   2.574 -0.2742  0.1500  0.2049
 7265SOL    HW122735   3.028   5.007   2.612  0.1359 -1.3179  0.2507
 7265SOL    HW222736   2.897   4.939   2.645 -0.4817 -0.4046 -0.2733
 7266SOL     OW22737   0.112   0.492   3.134  0.0926 -0.6610 -0.1244
 7266SOL    HW122738   0.081   0.404   3.157  1.2960 -1.1157 -0.1424
 7266SOL    HW222739   0.207   0.487   3.147 -0.0583  1.4357  2.5778
 7267SOL     OW22740   2.724   5.650   5.398 -0.4278  0.0484  0.1269
 7267SOL    HW122741   2.819   5.653   5.395 -0.4453  0.4447 -0.1012
 7267SOL    HW222742   2.704   5.609   5.482 -0.0633  0.4372  0.4024
 7268SOL     OW22743   4.015   2.260   5.286  0.1423 -0.4056 -0.6599
 7268SOL    HW122744   3.954   2.255   5.360 -2.2600 -0.2593 -2.5122
 7268SOL    HW222745   4.046   2.170   5.275 -1.5528 -0.9768 -1.0590
 7269SOL     OW22746   7.252   6.094   4.365 -0.0162  0.0572 -0.4340
 7269SOL    HW122747   7.344   6.118   4.377  0.0177 -0.4405  0.3722
 7269SOL    HW222748   7.235   6.031   4.435 -1.5736  1.7901  0.8469
 7270SOL     OW22749   4.032   5.535   0.018 -0.1684 -0.1585 -0.2686
 7270SOL    HW122750   4.000   5.568   0.102 -1.6856  1.1661 -1.2965
 7270SOL    HW222751   4.109   5.589  -0.001  0.0545 -0.3195  0.1768
 7271SOL     OW22752   3.468   5.323   0.432  0.0295 -0.0567 -0.1244
 7271SOL    HW122753   3.510   5.310   0.517  0.2281 -0.6479 -0.3043
 7271SOL    HW222754   3.400   5.388   0.448  0.0302 -0.2044  0.5020
 7272SOL     OW22755   0.812   5.340   5.205  0.5274 -0.5540 -0.4288
 7272SOL    HW122756   0.782   5.430   5.217  1.2356 -0.0886 -1.9167
 7272SOL    HW222757   0.907   5.345   5.208  0.5833 -1.1978 -0.8066
 7273SOL     OW22758   7.339   4.796   7.013  0.2810 -0.5358 -0.2435
 7273SOL    HW122759   7.362   4.709   7.046  0.7530 -1.4097 -2.6565
 7273SOL    HW222760   7.423   4.836   6.989 -0.1113 -1.4233 -3.6374
 7274SOL     OW22761   5.984   1.452   4.166  0.1888  0.9072 -0.0866
 7274SOL    HW122762   6.055   1.514   4.152 -0.6370  1.9851  0.4178
 7274SOL    HW222763   5.911   1.486   4.115 -0.8568  1.4037  1.6693
 7275SOL     OW22764   0.217   3.694   1.078 -0.1833  0.3602  0.0364
 7275SOL    HW122765   0.254   3.629   1.138 -0.3790  0.9108  0.7678
 7275SOL    HW222766   0.231   3.778   1.122 -1.5322  0.6622 -0.0617
 7276SOL     OW22767   7.105   6.531   1.160  0.1482  0.1565  0.3573
 7276SOL    HW122768   7.048   6.547   1.235 -0.7984  0.8303 -0.4863
 7276SOL    HW222769   7.049   6.488   1.095  1.1034 -0.9596  0.2360
 7277SOL     OW22770   7.014   4.967   5.954 -0.3998  0.6312  0.2226
 7277SOL    HW122771   6.958   4.954   5.877 -1.6198  1.2349  0.9755
 7277SOL    HW222772   6.957   4.950   6.029  1.1559 -1.4220  1.0279
 7278SOL     OW22773   4.023   6.194   3.932 -0.3971 -0.3462 -0.1767
 7278SOL    HW122774   4.089   6.137   3.971 -2.8387 -2.3958  1.2034
 7278SOL    HW222775   4.037   6.279   3.974  2.4300 -0.1668 -1.2508
 7279SOL     OW22776   3.027   4.974   5.578 -0.1589  0.2992  0.1189
 7279SOL    HW122777   3.001   4.993   5.488  0.7066  0.9696 -0.0024
 7279SOL    HW222778   2.944   4.969   5.626 -0.9324 -3.2841 -1.2393
 7280SOL     OW22779   4.119   1.291   6.252 -0.7109  0.2406  0.0469
 7280SOL    HW122780   4.039   1.273   6.203  0.1054 -1.7935 -0.6300
 7280SOL    HW222781   4.096   1.274   6.343 -0.4454 -3.0525 -0.3796
 7281SOL     OW22782   0.445   5.586   2.529 -0.1381  0.1253 -0.2933
 7281SOL    HW122783   0.365   5.534   2.531 -0.2640  0.2662 -1.1187
 7281SOL    HW222784   0.485   5.564   2.445  0.7606 -0.0400  0.1762
 7282SOL     OW22785   1.459   0.328   6.071 -0.6861 -0.3798 -0.3321
 7282SOL    HW122786   1.512   0.338   6.150  0.5248  0.9559 -1.2558
 7282SOL    HW222787   1.508   0.265   6.018 -0.8107 -0.3064 -0.5358
 7283SOL     OW22788   7.089   0.934   4.258  0.8438 -0.6820 -0.8527
 7283SOL    HW122789   7.017   0.872   4.269  1.4512 -1.4572 -1.1212
 7283SOL    HW222790   7.163   0.892   4.302  0.5154  1.3164  1.8688
 7284SOL     OW22791   4.100   7.156   4.952 -0.2200  0.0247  0.1851
 7284SOL    HW122792   4.128   7.225   4.892  1.0142 -0.4010  0.2525
 7284SOL    HW222793   4.181   7.128   4.996 -0.6740 -1.5949  0.0229
 7285SOL     OW22794   4.833   4.845   5.387 -0.0367 -0.3905 -0.1550
 7285SOL    HW122795   4.746   4.842   5.429  0.8648 -0.5040  1.8478
 7285SOL    HW222796   4.878   4.916   5.433  2.4286 -3.1722  2.1079
 7286SOL     OW22797   4.731   6.306   0.142 -0.0128 -0.3927  0.1697
 7286SOL    HW122798   4.697   6.307   0.231 -1.5693 -2.3280 -0.3296
 7286SOL    HW222799   4.772   6.220   0.132  1.4356  0.3474 -0.5541
 7287SOL     OW22800   4.451   3.876   0.494 -0.0343 -0.1991  0.6079
 7287SOL    HW122801   4.533   3.917   0.467 -1.0172  1.9484  0.6331
 7287SOL    HW222802   4.456   3.873   0.590  1.0854 -2.5854  0.5389
 7288SOL     OW22803   4.702   0.961   6.356  0.5027 -0.0598  0.1379
 7288SOL    HW122804   4.665   0.934   6.272  1.5411  0.4531 -0.5166
 7288SOL    HW222805   4.627   0.968   6.414 -0.2483 -0.3988 -0.7604
 7289SOL     OW22806   5.489   2.588   2.928 -0.4852 -0.0916  0.0342
 7289SOL    HW122807   5.519   2.538   3.004 -0.3862 -1.1388 -0.6657
 7289SOL    HW222808   5.394   2.585   2.934 -0.4978 -1.1427 -0.4704
 7290SOL     OW22809   4.744   4.736   1.006  0.2912  0.3393 -0.3117
 7290SOL    HW122810   4.833   4.732   1.042 -0.3163  0.5504  1.2986
 7290SOL    HW222811   4.689   4.696   1.073 -0.8386  0.1291 -1.3210
 7291SOL     OW22812   1.726   4.012   4.620  0.0431  0.2070  0.9463
 7291SOL    HW122813   1.788   4.076   4.584  0.3606  0.4859  1.9634
 7291SOL    HW222814   1.711   3.951   4.548  0.2260  1.0635  0.1586
 7292SOL     OW22815   6.485   5.680   3.364 -0.4715 -0.3055 -0.1934
 7292SOL    HW122816   6.531   5.596   3.374  0.1167 -0.0794 -0.8973
 7292SOL    HW222817   6.462   5.705   3.453  1.4495 -0.0782  0.3026
 7293SOL     OW22818   5.526   3.919   6.523  0.0635 -0.7731 -0.0452
 7293SOL    HW122819   5.553   4.010   6.510 -1.6674 -0.0319  1.3099
 7293SOL    HW222820   5.590   3.869   6.471  1.7169  1.1011  0.0310
 7294SOL     OW22821   1.823   2.117   3.812  0.1336  0.2637  0.3356
 7294SOL    HW122822   1.767   2.136   3.737 -0.7047 -0.5375  0.7536
 7294SOL    HW222823   1.853   2.027   3.798  1.4349  0.7063  0.0581
 7295SOL     OW22824   4.930   5.827   2.846 -0.2579 -0.2773 -0.5167
 7295SOL    HW122825   4.860   5.868   2.796 -0.0511  1.9983  0.9311
 7295SOL    HW222826   4.888   5.752   2.888 -1.1379 -0.5057 -1.7621
 7296SOL     OW22827   4.035   0.522   0.439 -0.2905  0.0522 -0.2030
 7296SOL    HW122828   3.950   0.489   0.469 -0.8399  1.6662  0.1334
 7296SOL    HW222829   4.091   0.519   0.516 -0.4918  0.3787 -0.0425
 7297SOL     OW22830   0.456   1.189   2.790 -0.5135  0.2397 -0.0769
 7297SOL    HW122831   0.480   1.097   2.779 -0.8582  0.4165 -3.4512
 7297SOL    HW222832   0.534   1.231   2.825  0.5203 -0.9504 -0.8910
 7298SOL     OW22833   5.072   3.379   6.753  0.6822 -0.3404 -0.1698
 7298SOL    HW122834   5.091   3.399   6.661  0.3499 -3.9073 -1.1976
 7298SOL    HW222835   5.129   3.304   6.772  0.0079 -0.3015  2.2578
 7299SOL     OW22836   0.416   0.216   3.537  0.6072  0.3505 -0.3686
 7299SOL    HW122837   0.496   0.164   3.543 -0.9136 -2.0672  1.1749
 7299SOL    HW222838   0.361   0.168   3.475 -1.1277 -0.4703  1.6492
 7300SOL     OW22839   7.183   2.872   3.489 -0.0601  0.0801 -0.6084
 7300SOL    HW122840   7.166   2.828   3.572  0.9508  0.8387  0.0367
 7300SOL    HW222841   7.150   2.961   3.502  1.3227  0.6012 -0.5018
 7301SOL     OW22842   1.847   0.616   3.137 -0.6836 -0.4775  0.5529
 7301SOL    HW122843   1.838   0.692   3.195 -0.7238  1.1563 -1.4956
 7301SOL    HW222844   1.762   0.571   3.143 -1.3229  0.6765  0.4429
 7302SOL     OW22845   5.191   2.964   0.186 -0.0937 -0.1540  0.4018
 7302SOL    HW122846   5.250   2.960   0.111 -0.5498 -0.1803  0.0441
 7302SOL    HW222847   5.243   3.007   0.255  0.4001 -0.3413  0.1472
 7303SOL     OW22848   1.663   3.846   1.172 -0.0810  0.2436  0.2276
 7303SOL    HW122849   1.629   3.791   1.101  1.9012  1.2592 -1.6141
 7303SOL    HW222850   1.749   3.810   1.191  0.2800  1.2846  0.6286
 7304SOL     OW22851   6.345   2.409   2.147 -0.7923 -0.3897 -0.0161
 7304SOL    HW122852   6.430   2.398   2.191  0.4548 -1.7242 -2.5170
 7304SOL    HW222853   6.312   2.492   2.179  0.3619 -0.8675  2.7502
 7305SOL     OW22854   2.178   0.493   3.638 -0.0066  0.6816  0.2838
 7305SOL    HW122855   2.200   0.504   3.545 -2.8716 -1.9760 -0.9066
 7305SOL    HW222856   2.128   0.572   3.660 -0.6273  0.6505 -0.9362
 7306SOL     OW22857   3.135   2.750   1.040  0.0635 -0.1704  0.0780
 7306SOL    HW122858   3.183   2.813   1.095  0.7178 -1.1552  0.6689
 7306SOL    HW222859   3.138   2.787   0.952 -1.3055  1.6238  0.7264
 7307SOL     OW22860   2.749   2.507   4.702  0.4768  0.3405  0.4175
 7307SOL    HW122861   2.668   2.537   4.660  0.9024  0.9421  0.0116
 7307SOL    HW222862   2.818   2.532   4.641  0.8844 -1.3156  0.1493
 7308SOL     OW22863   5.996   4.491   3.965 -0.3672 -0.3790  0.4158
 7308SOL    HW122864   6.037   4.411   3.997 -0.2707 -0.1864  0.7852
 7308SOL    HW222865   6.067   4.540   3.925 -0.2668 -0.1228  0.9019
 7309SOL     OW22866   7.109   1.577   5.903  0.0133  0.6725  0.6698
 7309SOL    HW122867   7.036   1.538   5.855  1.1130 -0.1800 -0.3651
 7309SOL    HW222868   7.068   1.644   5.958 -1.2607  2.2245 -1.9718
 7310SOL     OW22869   7.364   3.567   7.121  0.0996  0.4435 -0.5789
 7310SOL    HW122870   7.379   3.552   7.028  1.3541  2.0271 -0.6775
 7310SOL    HW222871   7.270   3.560   7.132  0.0340 -0.8499 -1.7415
 7311SOL     OW22872   0.767   7.016   3.218  0.5104  0.1970  0.0055
 7311SOL    HW122873   0.797   6.951   3.154  0.6112  0.5852 -0.3466
 7311SOL    HW222874   0.695   6.974   3.263  0.4425 -0.0870 -0.3624
 7312SOL     OW22875   1.113   4.053   1.057  0.3919  0.2817 -0.2999
 7312SOL    HW122876   1.059   4.123   1.094  0.4332  1.2514 -1.9976
 7312SOL    HW222877   1.051   3.985   1.032  0.2229  0.2777  0.1100
 7313SOL     OW22878   2.348   3.508   7.151 -0.2335 -0.0159 -0.3125
 7313SOL    HW122879   2.313   3.595   7.167 -0.4923 -0.5525  2.7526
 7313SOL    HW222880   2.443   3.521   7.148 -0.2236  0.3455  0.8301
 7314SOL     OW22881   3.643   6.633   0.821  0.3369  0.0407  0.2204
 7314SOL    HW122882   3.650   6.539   0.801  0.2149  0.2684 -0.9842
 7314SOL    HW222883   3.586   6.636   0.898 -1.6906 -0.7872 -1.1485
 7315SOL     OW22884   0.486   7.316   7.368 -0.1549  0.2532  0.0760
 7315SOL    HW122885   0.538   7.274   7.300 -0.9216 -0.1619 -0.2709
 7315SOL    HW222886   0.522   7.404   7.375  0.5006  0.0138 -0.2481
 7316SOL     OW22887   2.736   3.822   1.319 -0.5302  0.5193 -0.1637
 7316SOL    HW122888   2.655   3.850   1.361 -0.7693 -0.8564  0.3494
 7316SOL    HW222889   2.746   3.882   1.245 -2.3379  0.3621 -0.5900
 7317SOL     OW22890   6.768   5.763   4.490  0.1220  0.5971 -0.6691
 7317SOL    HW122891   6.673   5.773   4.498  0.1398  1.8725 -1.8216
 7317SOL    HW222892   6.801   5.852   4.479  1.4618  0.1653 -0.3627
 7318SOL     OW22893   5.360   2.728   0.489  0.3942 -0.7331  0.1597
 7318SOL    HW122894   5.322   2.682   0.414  2.7200  1.3029 -2.5203
 7318SOL    HW222895   5.328   2.818   0.481  3.0141  0.2431 -0.2955
 7319SOL     OW22896   4.645   1.351   0.743 -0.1370  0.0541  0.3732
 7319SOL    HW122897   4.591   1.350   0.823 -1.8039 -2.1685 -0.6547
 7319SOL    HW222898   4.605   1.417   0.688  0.4253  0.9146  0.9710
 7320SOL     OW22899   4.875   6.758   0.000  0.1129 -0.2152  0.0491
 7320SOL    HW122900   4.847   6.668  -0.013 -0.7629  0.3522 -2.6439
 7320SOL    HW222901   4.831   6.807  -0.069  2.1864  1.9456  0.1185
 7321SOL     OW22902   1.997   5.038   5.440  0.0848  0.0924  0.2425
 7321SOL    HW122903   2.016   5.091   5.517  0.0203  0.6059 -0.0899
 7321SOL    HW222904   2.082   5.012   5.406  0.1521  1.0232 -0.3074
 7322SOL     OW22905   4.413   1.271   5.034  0.3441 -0.1303 -0.6768
 7322SOL    HW122906   4.353   1.305   4.968 -1.4382 -1.1242  0.3785
 7322SOL    HW222907   4.415   1.177   5.018 -0.7812 -0.5029  1.1784
 7323SOL     OW22908   2.362   5.861   5.176 -0.4251  0.1117 -0.1679
 7323SOL    HW122909   2.377   5.807   5.253  1.0812  2.0942  1.0266
 7323SOL    HW222910   2.299   5.811   5.124 -0.9742 -1.6085  1.9866
 7324SOL     OW22911   4.770   2.476   2.992  0.0654  0.0256 -0.4969
 7324SOL    HW122912   4.780   2.390   2.952  1.3208 -0.7218  1.2865
 7324SOL    HW222913   4.681   2.476   3.026 -0.1702 -0.2827 -1.0951
 7325SOL     OW22914   4.404   4.246   6.815  0.5794 -0.2944 -0.0659
 7325SOL    HW122915   4.479   4.189   6.836  0.0931 -0.9812 -0.1589
 7325SOL    HW222916   4.359   4.257   6.899 -0.1856 -1.3201 -0.3212
 7326SOL     OW22917   4.619   2.635   1.816 -0.5394  0.2192  0.5701
 7326SOL    HW122918   4.561   2.619   1.891  1.4384  0.4611  2.2225
 7326SOL    HW222919   4.682   2.700   1.847  0.9015 -0.3423 -1.0094
 7327SOL     OW22920   7.136   4.917   6.918  0.1485  0.5816 -0.4425
 7327SOL    HW122921   7.183   4.954   6.843  0.2791  0.4586 -0.4207
 7327SOL    HW222922   7.197   4.854   6.956 -0.4373 -0.4078 -1.0864
 7328SOL     OW22923   5.305   0.193   2.361  0.4792 -0.3268  0.1733
 7328SOL    HW122924   5.211   0.198   2.375  0.2300  1.6288 -1.8144
 7328SOL    HW222925   5.341   0.265   2.413  0.8326 -0.7020  0.4560
 7329SOL     OW22926   7.096   3.622   0.654  0.0857  0.2374  0.0068
 7329SOL    HW122927   7.116   3.701   0.705 -0.3024  0.4229 -0.1270
 7329SOL    HW222928   7.031   3.651   0.590 -1.2242 -0.5506  0.9484
 7330SOL     OW22929   1.660   6.862   6.976 -0.0474  0.7841  0.8182
 7330SOL    HW122930   1.682   6.949   7.009 -0.1869  1.1649 -0.0790
 7330SOL    HW222931   1.664   6.870   6.881  1.3136 -0.5571  0.7286
 7331SOL     OW22932   0.645   6.700   4.703 -0.3746  0.3824  0.2262
 7331SOL    HW122933   0.618   6.649   4.779  1.8485 -0.8663  0.2283
 7331SOL    HW222934   0.692   6.775   4.739  2.6093 -1.3351  0.1388
 7332SOL     OW22935   3.049   6.307   0.984 -0.1664  0.1721  0.4115
 7332SOL    HW122936   2.970   6.303   0.930  0.1042 -0.1539  0.0327
 7332SOL    HW222937   3.092   6.222   0.970  0.9743  0.8674 -0.4917
 7333SOL     OW22938   3.976   1.828   6.452  0.0235 -0.3916 -0.2975
 7333SOL    HW122939   4.007   1.759   6.511  0.0322  0.1603  0.3527
 7333SOL    HW222940   4.053   1.882   6.436 -0.6408  1.2784  1.7300
 7334SOL     OW22941   0.460   7.355   2.654  0.5667 -0.7217  0.6781
 7334SOL    HW122942   0.427   7.408   2.727 -0.6507 -1.1935  0.5026
 7334SOL    HW222943   0.504   7.282   2.696 -1.5221 -1.8625  1.0271
 7335SOL     OW22944   3.693   7.106   0.958 -0.3616 -0.9501  0.2339
 7335SOL    HW122945   3.755   7.042   0.992 -1.9810 -2.6626  0.1312
 7335SOL    HW222946   3.634   7.124   1.032 -0.3634 -0.1187  0.0438
 7336SOL     OW22947   0.354   5.469   1.674  0.2400  0.2672 -0.5950
 7336SOL    HW122948   0.286   5.512   1.623 -0.3582 -0.2052 -0.1997
 7336SOL    HW222949   0.436   5.502   1.636 -0.1556  2.6498  0.4432
 7337SOL     OW22950   3.442   6.510   1.833 -0.1545 -0.3753 -0.0308
 7337SOL    HW122951   3.376   6.517   1.763  0.9333  1.7760 -0.9411
 7337SOL    HW222952   3.504   6.445   1.800  0.2645  0.5019 -1.0550
 7338SOL     OW22953   6.381   2.556   2.759  0.1677  0.0915 -0.6044
 7338SOL    HW122954   6.438   2.632   2.749  0.1440  0.3688  1.0957
 7338SOL    HW222955   6.344   2.565   2.847 -1.1443 -1.0071 -0.9990
 7339SOL     OW22956   0.945   0.668   5.561  0.0766 -0.3334  0.1304
 7339SOL    HW122957   0.936   0.744   5.619 -1.2206  0.5244 -1.1220
 7339SOL    HW222958   0.978   0.598   5.618  0.1157  0.8267  1.5939
 7340SOL     OW22959   6.439   4.273   2.767  0.2155  0.0569 -0.2522
 7340SOL    HW122960   6.523   4.314   2.790 -0.0580  1.5939 -1.7855
 7340SOL    HW222961   6.388   4.277   2.848  0.4876  2.1267 -0.1159
 7341SOL     OW22962   3.350   1.854   7.108  0.5485 -0.0989 -0.1895
 7341SOL    HW122963   3.278   1.835   7.048  0.0625  2.5845 -0.5815
 7341SOL    HW222964   3.421   1.796   7.080 -0.8767 -1.5830 -0.8870
 7342SOL     OW22965   3.134   2.854   0.777  0.4764  0.1316 -0.2061
 7342SOL    HW122966   3.135   2.950   0.770 -2.5648  0.1627 -2.3203
 7342SOL    HW222967   3.218   2.827   0.742  0.9193  2.0341 -0.7632
 7343SOL     OW22968   3.668   3.098   5.759  0.6399  0.0679  0.0317
 7343SOL    HW122969   3.725   3.119   5.686  2.0009 -0.6672  0.8479
 7343SOL    HW222970   3.727   3.082   5.833 -0.6791  0.7840  1.3126
 7344SOL     OW22971   3.942   1.047   0.180  0.5360  0.4720 -0.2685
 7344SOL    HW122972   4.033   1.018   0.175  0.2267 -0.9823  1.4666
 7344SOL    HW222973   3.894   0.990   0.120  0.4981 -0.0209  0.2286
 7345SOL     OW22974   4.548   2.957   2.345 -0.0935 -0.3303 -0.3535
 7345SOL    HW122975   4.498   2.941   2.425 -0.9618 -0.8993 -0.9928
 7345SOL    HW222976   4.629   2.907   2.357 -1.0408 -2.0000 -0.6107
 7346SOL     OW22977   2.024   7.395   2.263 -0.7448  0.3985 -0.1856
 7346SOL    HW122978   1.941   7.378   2.309 -0.4403  0.4695  0.3984
 7346SOL    HW222979   2.091   7.371   2.327 -0.3026 -0.8860 -1.1009
 7347SOL     OW22980   0.322   2.187   6.594  0.3601 -0.1689 -0.1035
 7347SOL    HW122981   0.231   2.179   6.625 -0.1966  0.1967 -1.5326
 7347SOL    HW222982   0.317   2.252   6.524  2.0832  1.3615  1.1041
 7348SOL     OW22983   0.092   0.688   3.941 -0.2333 -0.4895 -0.1727
 7348SOL    HW122984   0.187   0.695   3.950 -0.1912  1.8269 -1.6258
 7348SOL    HW222985   0.080   0.631   3.864 -0.2452 -4.4018  2.4252
 7349SOL     OW22986   6.641   2.815   5.210  0.0807  0.4726 -0.1426
 7349SOL    HW122987   6.612   2.845   5.296  2.0886 -0.0674  0.7637
 7349SOL    HW222988   6.730   2.848   5.201  0.0726  0.1577 -1.8654
 7350SOL     OW22989   5.737   3.316   3.837  0.2714  0.3663  0.0127
 7350SOL    HW122990   5.787   3.384   3.881  0.1306 -0.0621  0.8712
 7350SOL    HW222991   5.784   3.235   3.858  0.7336  0.2446 -1.4244
 7351SOL     OW22992   6.500   6.705   4.046  0.1772  0.5308  0.0874
 7351SOL    HW122993   6.590   6.737   4.050  0.2249  0.5970 -1.1336
 7351SOL    HW222994   6.508   6.610   4.042  0.2226  0.5500 -0.3929
 7352SOL     OW22995   5.255   2.256   5.524 -0.2487 -0.3078  0.2166
 7352SOL    HW122996   5.261   2.267   5.429 -0.0820 -0.5535  0.1967
 7352SOL    HW222997   5.185   2.316   5.551 -0.2657 -0.2040 -0.0549
 7353SOL     OW22998   4.847   0.556   2.900  0.0190 -0.4843  0.0448
 7353SOL    HW122999   4.883   0.573   2.987  0.7357 -2.1991  0.1260
 7353SOL    HW223000   4.858   0.639   2.853 -2.3252  1.1619  2.1636
 7354SOL     OW23001   0.302   4.584   1.832 -0.3062 -0.0444 -0.2988
 7354SOL    HW123002   0.388   4.550   1.808 -1.1014 -3.4733  1.2435
 7354SOL    HW223003   0.246   4.563   1.757 -0.0836  1.3804 -0.9138
 7355SOL     OW23004   1.789   1.835   0.534  0.2549 -0.4369 -0.2524
 7355SOL    HW123005   1.804   1.852   0.627  0.5770 -1.1650 -0.1659
 7355SOL    HW223006   1.724   1.900   0.508 -0.5439 -0.8330  0.7064
 7356SOL     OW23007   5.196   0.463   0.061  0.5668  1.1648  0.0032
 7356SOL    HW123008   5.186   0.407  -0.016 -0.4038  2.6190 -0.9746
 7356SOL    HW223009   5.147   0.542   0.040 -0.6569  1.1870  2.5711
 7357SOL     OW23010   1.291   0.780   2.696 -0.8368 -0.5858 -0.1299
 7357SOL    HW123011   1.265   0.764   2.787 -0.2569 -0.0534  0.1430
 7357SOL    HW223012   1.309   0.693   2.660  0.5543 -0.7156  0.7807
 7358SOL     OW23013   4.200   3.914   1.395  0.1486 -0.1830 -0.8953
 7358SOL    HW123014   4.279   3.964   1.377 -0.0237  0.3842 -0.1121
 7358SOL    HW223015   4.146   3.926   1.317 -0.0629  1.2126 -0.5663
 7359SOL     OW23016   4.509   2.200   2.794 -0.1020  0.1607  0.7115
 7359SOL    HW123017   4.469   2.205   2.881  1.6420 -1.3518  1.7023
 7359SOL    HW223018   4.603   2.197   2.812  0.4593  2.3999 -1.4194
 7360SOL     OW23019   5.747   5.224   7.372 -0.5008 -0.0992 -0.7850
 7360SOL    HW123020   5.777   5.141   7.335 -2.1753 -1.0449 -0.0931
 7360SOL    HW223021   5.678   5.253   7.314 -0.1593  0.6611 -0.8272
 7361SOL     OW23022   3.085   0.371   0.478  0.4023  0.3816 -0.1174
 7361SOL    HW123023   3.179   0.370   0.499  0.2026  0.4515  0.8248
 7361SOL    HW223024   3.049   0.437   0.538 -0.5663 -1.0590  0.9452
 7362SOL     OW23025   1.075   5.698   3.868 -0.6685  0.3491  0.0152
 7362SOL    HW123026   0.985   5.716   3.895 -0.3961  0.7191  0.7136
 7362SOL    HW223027   1.118   5.784   3.871  0.3017 -0.1417  2.0352
 7363SOL     OW23028   7.030   2.761   2.414 -0.3868  0.2863 -0.0155
 7363SOL    HW123029   7.057   2.752   2.323 -0.9357  2.3590 -0.4354
 7363SOL    HW223030   6.960   2.826   2.412 -0.3611  0.4357  1.9010
 7364SOL     OW23031   1.492   4.142   2.464 -0.3902 -0.2315  0.6995
 7364SOL    HW123032   1.424   4.208   2.448  0.8105  0.6740 -1.1456
 7364SOL    HW223033   1.550   4.150   2.388  2.3002 -0.3100  2.6144
 7365SOL     OW23034   6.222   3.489   4.833  0.3477 -0.5148 -0.0501
 7365SOL    HW123035   6.268   3.409   4.857 -0.7892 -1.4113 -0.7193
 7365SOL    HW223036   6.238   3.548   4.906  1.6107 -1.1769  0.2395
 7366SOL     OW23037   0.418   2.464   1.192 -0.9871  0.0416 -0.4825
 7366SOL    HW123038   0.369   2.423   1.263 -0.3939  2.2489  1.3569
 7366SOL    HW223039   0.388   2.555   1.192  1.1909  0.8277 -1.0428
 7367SOL     OW23040   4.520   5.379   5.114  0.1228  0.2241  0.5276
 7367SOL    HW123041   4.529   5.319   5.188 -1.9247 -0.9503 -0.1120
 7367SOL    HW223042   4.477   5.456   5.151 -2.2135 -0.9173  0.4014
 7368SOL     OW23043   6.648   5.381   3.430 -0.0402  0.4063 -0.0090
 7368SOL    HW123044   6.736   5.368   3.466  0.2616  2.5455  0.1819
 7368SOL    HW223045   6.589   5.363   3.504  0.4373  1.9450  0.7995
 7369SOL     OW23046   2.408   6.276   2.752 -0.2547 -0.4156  0.5229
 7369SOL    HW123047   2.449   6.331   2.685  1.1137 -2.2681 -0.2409
 7369SOL    HW223048   2.479   6.257   2.814 -1.0624 -0.2128  1.5360
 7370SOL     OW23049   0.559   3.720   2.955 -0.0430 -0.2736 -0.1495
 7370SOL    HW123050   0.542   3.650   3.019  0.0033 -0.8625 -0.7681
 7370SOL    HW223051   0.590   3.794   3.007  0.6997 -0.9867  0.4360
 7371SOL     OW23052   0.782   1.529   2.064  0.0529 -0.4807  0.5761
 7371SOL    HW123053   0.745   1.578   2.137 -2.7630  1.6839 -2.0046
 7371SOL    HW223054   0.741   1.443   2.070 -1.2766  0.1360  0.8191
 7372SOL     OW23055   2.494   3.824   0.883 -0.2946 -0.4897  0.2487
 7372SOL    HW123056   2.550   3.887   0.838  1.6567 -2.2461  0.0661
 7372SOL    HW223057   2.481   3.862   0.970 -0.0424  0.6261 -0.1786
 7373SOL     OW23058   6.433   1.784   7.085 -0.5949  0.5285  0.1877
 7373SOL    HW123059   6.415   1.811   6.995  0.5338 -0.6488 -0.4106
 7373SOL    HW223060   6.506   1.723   7.078 -0.7709  0.0847  1.8638
 7374SOL     OW23061   0.253   5.112   3.245 -0.5909  0.1802 -0.5064
 7374SOL    HW123062   0.311   5.187   3.232 -0.3029  0.2551  0.9834
 7374SOL    HW223063   0.190   5.142   3.310 -0.9244 -0.6356 -0.4377
 7375SOL     OW23064   7.150   2.687   1.483  0.0808  0.8491 -0.4039
 7375SOL    HW123065   7.223   2.626   1.469  0.2482  0.9325  0.0759
 7375SOL    HW223066   7.113   2.702   1.396 -1.7869 -2.2098 -0.3012
 7376SOL     OW23067   1.091   6.685   4.573  0.4170  0.0777 -0.0288
 7376SOL    HW123068   0.999   6.658   4.569  0.6399 -0.7186 -0.0486
 7376SOL    HW223069   1.129   6.629   4.641  0.9726  0.1257 -0.2929
 7377SOL     OW23070   7.124   3.346   3.280  0.4318 -0.2622 -0.5225
 7377SOL    HW123071   7.181   3.279   3.243 -2.1445 -2.1804 -1.3586
 7377SOL    HW223072   7.043   3.339   3.229 -0.9419  1.5989  1.2149
 7378SOL     OW23073   3.113   2.974   7.214  0.2787 -0.2227  0.2153
 7378SOL    HW123074   3.023   2.976   7.181  0.3014 -0.7478  0.1144
 7378SOL    HW223075   3.107   3.016   7.300  0.3948  2.0557 -0.8238
 7379SOL     OW23076   1.532   1.752   2.717  0.5889 -0.2329  0.3445
 7379SOL    HW123077   1.538   1.848   2.723 -0.6793 -0.1230  0.1996
 7379SOL    HW223078   1.499   1.725   2.803  1.3683 -0.5896  0.5348
 7380SOL     OW23079   6.999   2.970   1.907 -0.3605 -0.3593  0.0993
 7380SOL    HW123080   7.015   2.933   1.994 -0.1329  0.0745  0.2393
 7380SOL    HW223081   6.998   2.893   1.849  1.3230 -0.4977  0.2057
 7381SOL     OW23082   3.498   6.652   3.732  0.4537  0.0170  0.3250
 7381SOL    HW123083   3.455   6.648   3.647  1.2944 -0.6308 -0.0780
 7381SOL    HW223084   3.453   6.723   3.778 -1.1094 -0.6821 -0.0438
 7382SOL     OW23085   1.993   6.331   3.561  0.1971 -0.5062  0.1084
 7382SOL    HW123086   2.038   6.290   3.487  1.0834 -0.4967  0.6281
 7382SOL    HW223087   1.910   6.361   3.525  1.1565  0.7199 -1.2499
 7383SOL     OW23088   2.845   2.812   3.106  0.2069  0.4160  0.3676
 7383SOL    HW123089   2.865   2.871   3.034  0.0255  0.3579  0.2667
 7383SOL    HW223090   2.805   2.867   3.173  1.3911  0.6691  0.8858
 7384SOL     OW23091   4.390   6.880   0.260 -0.5910 -0.4095  0.0215
 7384SOL    HW123092   4.395   6.797   0.212  1.2679 -0.1602 -0.2817
 7384SOL    HW223093   4.357   6.856   0.346  0.3621 -1.5536  0.0888
 7385SOL     OW23094   2.666   6.272   2.598 -0.0475 -0.0573 -0.2354
 7385SOL    HW123095   2.743   6.298   2.548 -0.5687 -0.4764 -1.2931
 7385SOL    HW223096   2.672   6.321   2.680  1.3656 -0.1277 -0.2766
 7386SOL     OW23097   7.278   0.861   4.704 -0.0066  0.0520 -0.2227
 7386SOL    HW123098   7.236   0.900   4.781  1.2871 -0.2537  0.6791
 7386SOL    HW223099   7.221   0.884   4.631 -2.3811 -1.3373  1.0486
 7387SOL     OW23100   5.274   0.573   5.277 -0.0661  0.5907  0.0553
 7387SOL    HW123101   5.364   0.551   5.301  0.0035 -0.4299 -1.0676
 7387SOL    HW223102   5.225   0.567   5.359  0.5198 -0.8797  0.3222
 7388SOL     OW23103   0.951   2.764   2.855  0.4464  0.0789  0.3327
 7388SOL    HW123104   0.860   2.737   2.840  0.2053  0.8990  0.2589
 7388SOL    HW223105   1.000   2.683   2.858 -0.3203 -0.3840  0.5379
 7389SOL     OW23106   3.640   1.460   6.022  0.4175 -0.1581 -0.1361
 7389SOL    HW123107   3.690   1.536   5.992  1.3822 -0.8113 -0.2299
 7389SOL    HW223108   3.582   1.439   5.949 -0.5752  1.0658  0.2598
 7390SOL     OW23109   4.891   0.176   4.318 -0.2574 -0.5043 -0.5721
 7390SOL    HW123110   4.865   0.210   4.403 -0.0379  0.1128 -0.7471
 7390SOL    HW223111   4.837   0.224   4.255  0.5290  0.0204 -0.8633
 7391SOL     OW23112   2.504   6.809   4.554 -0.2231  0.0635 -0.0054
 7391SOL    HW123113   2.537   6.830   4.466 -3.1580  1.0466 -0.9838
 7391SOL    HW223114   2.488   6.715   4.552 -0.4961  0.1191 -0.6295
 7392SOL     OW23115   5.465   4.010   6.189 -0.3190 -0.1882  0.2955
 7392SOL    HW123116   5.442   4.051   6.106  0.2451  0.3966  0.4177
 7392SOL    HW223117   5.561   4.006   6.188 -0.3446 -0.9986  0.5273
 7393SOL     OW23118   2.990   2.452   5.338  0.1579  0.0660  0.1607
 7393SOL    HW123119   2.912   2.409   5.303  0.0380 -0.5643  1.1791
 7393SOL    HW223120   2.956   2.529   5.384  0.0883 -0.4273  0.9487
 7394SOL     OW23121   7.358   1.592   1.495 -0.0577  0.0115  0.3667
 7394SOL    HW123122   7.290   1.658   1.512  0.9736  1.1992  0.0139
 7394SOL    HW223123   7.435   1.624   1.542  1.0351  0.1105 -1.4206
 7395SOL     OW23124   1.604   2.369   4.584  0.4896 -0.2693  0.0330
 7395SOL    HW123125   1.609   2.394   4.676  1.3163 -0.6171  0.0882
 7395SOL    HW223126   1.695   2.356   4.558  0.2996  0.3025 -0.9677
 7396SOL     OW23127   2.557   1.072   2.371  0.3097 -0.4009  0.1732
 7396SOL    HW123128   2.542   0.978   2.373  0.5138 -0.4192  1.1264
 7396SOL    HW223129   2.652   1.082   2.377  0.2489 -0.1250  0.7696
 7397SOL     OW23130   4.075   2.238   1.000  0.4710 -0.6242  0.3648
 7397SOL    HW123131   4.144   2.285   0.954  0.0588 -0.7546 -0.3930
 7397SOL    HW223132   4.105   2.147   1.003  0.4314 -0.6413  0.2315
 7398SOL     OW23133   6.374   1.446   3.252 -0.4119  0.2596 -0.5045
 7398SOL    HW123134   6.395   1.423   3.342  1.0931 -3.2639 -1.5441
 7398SOL    HW223135   6.279   1.446   3.248 -0.5149  1.5288  1.2519
 7399SOL     OW23136   0.232   3.404   5.144  0.1312 -0.3341 -0.4821
 7399SOL    HW123137   0.186   3.431   5.064  0.3885  0.5226 -0.3583
 7399SOL    HW223138   0.235   3.309   5.140 -0.9013 -0.3627 -0.9168
 7400SOL     OW23139   7.077   3.859   6.638 -0.7606 -0.3223  0.1247
 7400SOL    HW123140   7.097   3.897   6.724  1.1998 -0.4855 -0.2104
 7400SOL    HW223141   7.063   3.766   6.656  1.3995 -0.7168  0.1320
 7401SOL     OW23142   2.846   2.874   6.468  0.4679  0.3306 -0.1358
 7401SOL    HW123143   2.905   2.878   6.393  0.6401 -1.6316 -0.1484
 7401SOL    HW223144   2.759   2.864   6.429  0.4487  0.2930 -0.0841
 7402SOL     OW23145   3.811   3.139   6.350 -0.4831 -0.0928  0.1132
 7402SOL    HW123146   3.897   3.138   6.392  0.1068 -0.7608 -1.0778
 7402SOL    HW223147   3.792   3.046   6.334 -1.8643 -0.0356  1.2024
 7403SOL     OW23148   2.543   5.230   3.112  0.2289 -0.2420 -0.1367
 7403SOL    HW123149   2.540   5.134   3.105 -0.5876 -0.2336  0.0063
 7403SOL    HW223150   2.557   5.260   3.022  0.2274 -0.4831 -0.2170
 7404SOL     OW23151   3.971   3.210   0.320 -0.2543  0.3811  0.3469
 7404SOL    HW123152   3.991   3.262   0.399 -0.5866  1.2661 -0.1409
 7404SOL    HW223153   3.877   3.190   0.328 -0.0371 -0.5578  0.7561
 7405SOL     OW23154   1.989   5.930   6.883  0.4273 -0.3927 -0.2500
 7405SOL    HW123155   1.952   5.848   6.916 -0.5817 -0.2067 -0.9123
 7405SOL    HW223156   1.932   5.998   6.917  1.6414  0.1217  0.8543
 7406SOL     OW23157   0.825   0.970   6.127  0.2491  0.0060 -0.0997
 7406SOL    HW123158   0.783   0.884   6.129 -1.3346  0.7568  0.5858
 7406SOL    HW223159   0.841   0.987   6.034 -2.5816  0.3963 -0.6019
 7407SOL     OW23160   6.465   2.804   3.666 -0.0829 -0.2493 -0.5222
 7407SOL    HW123161   6.469   2.757   3.750 -1.0181  1.3360  0.4545
 7407SOL    HW223162   6.461   2.896   3.691  1.1632  0.3604 -2.3794
 7408SOL     OW23163   0.689   0.530   2.381 -0.0136  0.0695  0.0804
 7408SOL    HW123164   0.634   0.581   2.321  0.6605  0.5439 -0.1487
 7408SOL    HW223165   0.775   0.530   2.339  0.6322  0.9480  1.3445
 7409SOL     OW23166   5.963   6.748   4.397  0.1955  0.0215  0.4737
 7409SOL    HW123167   5.930   6.724   4.484  1.4792 -0.2373  0.9042
 7409SOL    HW223168   6.047   6.790   4.414 -0.7139  2.4110 -0.4622
 7410SOL     OW23169   7.342   5.084   1.574  0.3474 -0.4953  0.1010
 7410SOL    HW123170   7.369   5.124   1.657  0.0618  0.8609 -0.4314
 7410SOL    HW223171   7.248   5.073   1.582  0.3086 -0.2940 -0.0690
 7411SOL     OW23172   3.619   2.054   2.091  0.8356 -0.1048  0.0403
 7411SOL    HW123173   3.655   2.002   2.162  0.3012 -1.2425 -0.4995
 7411SOL    HW223174   3.530   2.021   2.079  0.6963  0.5125 -0.7200
 7412SOL     OW23175   3.530   0.150   0.491  0.2637 -0.2675  0.2626
 7412SOL    HW123176   3.621   0.160   0.520  0.1835 -0.4948  0.6088
 7412SOL    HW223177   3.536   0.121   0.401  0.5785 -1.9452  0.7874
 7413SOL     OW23178   3.922   4.743   0.522 -0.2874 -0.0412  0.4377
 7413SOL    HW123179   3.828   4.737   0.540 -0.3423  0.3522  0.2918
 7413SOL    HW223180   3.957   4.796   0.593 -0.3590  0.7495 -0.1051
 7414SOL     OW23181   7.389   3.124   4.365 -0.2416 -0.2485 -0.6464
 7414SOL    HW123182   7.471   3.077   4.356  0.0716  0.0279  0.5942
 7414SOL    HW223183   7.415   3.214   4.386 -0.8624 -0.2121 -0.0053
 7415SOL     OW23184   1.515   1.349   2.723 -0.1475 -0.3205 -0.3881
 7415SOL    HW123185   1.532   1.301   2.804  0.7892 -1.5841 -1.2937
 7415SOL    HW223186   1.586   1.413   2.718 -1.0596  0.8081  0.5178
 7416SOL     OW23187   1.303   2.867   3.619  0.0126 -0.4707 -0.3708
 7416SOL    HW123188   1.262   2.802   3.677 -1.0395 -0.0793 -0.6437
 7416SOL    HW223189   1.284   2.836   3.530 -1.2578  0.6248 -0.5188
 7417SOL     OW23190   3.492   2.141   5.379 -0.0196 -0.1735  0.0677
 7417SOL    HW123191   3.500   2.046   5.376  0.4023 -0.1744  0.9782
 7417SOL    HW223192   3.406   2.158   5.339 -0.7726 -1.0550  1.2154
 7418SOL     OW23193   4.726   1.116   4.344  0.4554 -0.4157 -0.1757
 7418SOL    HW123194   4.697   1.206   4.356  1.8944  0.0740 -0.1516
 7418SOL    HW223195   4.764   1.092   4.429  1.0260 -0.6669 -0.4957
 7419SOL     OW23196   0.022   2.940   3.324  0.1986 -0.4290 -0.4089
 7419SOL    HW123197   0.056   2.859   3.361 -0.4681 -0.1909  0.7626
 7419SOL    HW223198   0.027   2.927   3.229  2.8529 -0.6921 -0.3192
 7420SOL     OW23199   0.858   2.623   5.030  0.2482 -0.1437 -0.4756
 7420SOL    HW123200   0.844   2.701   4.978 -0.5136 -0.2273 -0.4054
 7420SOL    HW223201   0.916   2.568   4.977 -0.1552 -0.0345 -1.0285
 7421SOL     OW23202   5.303   6.017   4.095  0.0423  0.3505  0.0360
 7421SOL    HW123203   5.248   6.020   4.017 -0.4708  1.8126  0.4223
 7421SOL    HW223204   5.244   6.040   4.167  0.7802  0.2160  0.6979
 7422SOL     OW23205   1.746   5.044   0.046 -0.2918 -0.1242 -0.5269
 7422SOL    HW123206   1.810   5.114   0.054 -0.2012  0.0821 -2.5707
 7422SOL    HW223207   1.671   5.084   0.001 -0.3273 -1.2365 -1.5340
 7423SOL     OW23208   7.029   5.739   4.806 -0.0349  0.2763 -0.0145
 7423SOL    HW123209   7.018   5.822   4.853  1.1755  0.2095  0.4363
 7423SOL    HW223210   7.061   5.678   4.872 -0.2572 -0.3710 -0.4949
 7424SOL     OW23211   2.991   6.368   5.137 -0.0278  0.1793  0.0885
 7424SOL    HW123212   2.958   6.452   5.168  1.2455  0.3375  1.0961
 7424SOL    HW223213   2.953   6.303   5.197  1.7505  0.4047  1.5508
 7425SOL     OW23214   2.509   1.666   0.515  0.0991 -0.2072  0.7007
 7425SOL    HW123215   2.450   1.610   0.464  0.9401  0.2179 -0.7713
 7425SOL    HW223216   2.486   1.755   0.489 -0.0308  0.0683  1.7156
 7426SOL     OW23217   4.099   3.215   2.736 -0.0688 -0.5567  0.2630
 7426SOL    HW123218   4.119   3.305   2.710 -0.2020 -0.6765 -0.2659
 7426SOL    HW223219   4.051   3.224   2.819  0.0707 -0.1534  0.3020
 7427SOL     OW23220   2.690   4.083   7.119  0.0720 -0.0942  0.6541
 7427SOL    HW123221   2.766   4.116   7.072 -0.9326  1.3564 -0.0528
 7427SOL    HW223222   2.688   4.134   7.200 -1.9336  2.3355 -0.7918
 7428SOL     OW23223   4.818   5.531   5.488  0.3352 -0.2781  0.3012
 7428SOL    HW123224   4.837   5.512   5.396 -0.8469  0.6894 -0.1829
 7428SOL    HW223225   4.886   5.593   5.515 -0.1960  0.6410 -0.4098
 7429SOL     OW23226   4.204   4.232   4.039  0.0372 -0.3467 -0.0901
 7429SOL    HW123227   4.215   4.302   4.104  1.4166  1.1279 -1.8132
 7429SOL    HW223228   4.111   4.235   4.016 -0.1999 -0.0370  0.8673
 7430SOL     OW23229   4.032   5.467   1.978  0.0912 -0.2268  0.1406
 7430SOL    HW123230   4.016   5.518   2.057 -2.3753 -0.7491  0.0394
 7430SOL    HW223231   3.984   5.513   1.909  0.0168 -1.2309 -0.4931
 7431SOL     OW23232   5.169   0.676   6.084  0.1994 -0.0977 -0.8551
 7431SOL    HW123233   5.257   0.667   6.120 -0.2985 -0.7231  0.2799
 7431SOL    HW223234   5.111   0.649   6.156 -0.9344  0.7560 -1.4087
 7432SOL     OW23235   3.674   6.244   1.045 -0.0357  0.3651 -0.2148
 7432SOL    HW123236   3.769   6.238   1.034 -0.1062 -0.5686 -0.4082
 7432SOL    HW223237   3.661   6.317   1.105  1.1441 -2.5830  4.0539
 7433SOL     OW23238   3.440   1.770   1.399  0.0437  0.4579 -0.1338
 7433SOL    HW123239   3.515   1.713   1.382  0.4262  1.6622 -3.1209
 7433SOL    HW223240   3.478   1.848   1.440  0.1861  0.4146 -0.1830
 7434SOL     OW23241   4.420   2.314   3.686 -0.4205  0.3339 -0.8717
 7434SOL    HW123242   4.350   2.355   3.737 -0.9392 -0.3576 -1.0335
 7434SOL    HW223243   4.478   2.275   3.752 -0.0376  1.1187 -0.7262
 7435SOL     OW23244   0.343   2.019   3.523  0.6658 -0.0285  0.2326
 7435SOL    HW123245   0.408   2.022   3.452  1.6922 -0.7438  1.1202
 7435SOL    HW223246   0.356   2.101   3.571  0.9872 -0.2139  0.4660
 7436SOL     OW23247   2.926   4.059   2.488  0.0975  0.3097 -0.1624
 7436SOL    HW123248   2.858   4.023   2.544 -0.1881  0.2633 -0.5291
 7436SOL    HW223249   2.934   4.150   2.515 -0.4019  0.4281 -0.3783
 7437SOL     OW23250   2.450   2.603   3.717 -0.1317  0.3419  0.7482
 7437SOL    HW123251   2.430   2.646   3.633  0.4448 -0.5050  0.1622
 7437SOL    HW223252   2.479   2.515   3.693  1.5806  0.5961  1.7079
 7438SOL     OW23253   5.199   3.867   2.407  0.4543 -0.0799  0.1678
 7438SOL    HW123254   5.107   3.845   2.391  0.6608 -0.1096 -1.0469
 7438SOL    HW223255   5.214   3.841   2.498 -0.6118 -0.4986  0.2408
 7439SOL     OW23256   1.016   0.213   5.849 -0.1438  0.3838  0.0948
 7439SOL    HW123257   1.062   0.131   5.834 -0.4371  0.1824  0.2950
 7439SOL    HW223258   0.924   0.191   5.840 -0.4628 -0.0064  3.1233
 7440SOL     OW23259   4.064   3.712   2.738  0.2797  0.3087  0.3615
 7440SOL    HW123260   4.052   3.773   2.810 -0.9717  1.6698 -0.9101
 7440SOL    HW223261   4.015   3.751   2.665  3.9933  0.6800 -2.2117
 7441SOL     OW23262   5.295   7.268   2.177  0.2665 -0.3022  0.3629
 7441SOL    HW123263   5.385   7.281   2.148  0.6391 -0.1784  1.5525
 7441SOL    HW223264   5.245   7.337   2.133  0.8273 -0.0611  0.0999
 7442SOL     OW23265   3.551   1.900   6.286  0.3215 -0.4393  0.1968
 7442SOL    HW123266   3.594   1.984   6.301 -0.3771 -0.0170 -0.1835
 7442SOL    HW223267   3.623   1.840   6.266  0.8180  0.0656  0.4448
 7443SOL     OW23268   3.315   6.865   4.366  0.0905 -0.2962 -0.0262
 7443SOL    HW123269   3.409   6.853   4.383  0.2221  1.6268  0.9429
 7443SOL    HW223270   3.304   6.841   4.274  1.2200 -2.0117  0.2472
 7444SOL     OW23271   6.413   4.759   2.419 -0.4032  0.3068 -0.0177
 7444SOL    HW123272   6.428   4.844   2.460 -2.1237  0.7076 -0.1149
 7444SOL    HW223273   6.336   4.773   2.363 -2.7552 -2.0013  2.3542
 7445SOL     OW23274   0.251   4.474   3.985 -0.4187 -0.0056  0.0745
 7445SOL    HW123275   0.237   4.395   4.037 -1.7299  1.2605  1.7465
 7445SOL    HW223276   0.164   4.513   3.977  0.2177  1.3184 -0.6211
 7446SOL     OW23277   3.370   6.224   2.471 -0.5688 -0.0508 -0.5691
 7446SOL    HW123278   3.393   6.186   2.387 -1.1065  0.0743 -0.7739
 7446SOL    HW223279   3.422   6.174   2.535 -0.6905 -0.6165 -0.9059
 7447SOL     OW23280   7.185   3.593   6.249  0.2579 -0.1040  0.6531
 7447SOL    HW123281   7.125   3.661   6.218 -1.9116 -1.5575  1.4397
 7447SOL    HW223282   7.154   3.572   6.337  1.4348 -1.5185  0.7701
 7448SOL     OW23283   4.672   0.571   6.070  0.3423 -0.3056  0.2390
 7448SOL    HW123284   4.640   0.484   6.044  1.3343 -0.7450  0.4562
 7448SOL    HW223285   4.753   0.582   6.021  1.1517 -0.2690  1.5448
 7449SOL     OW23286   5.105   0.835   5.489  0.1366  0.8462 -0.3363
 7449SOL    HW123287   5.070   0.761   5.440 -0.6673  1.2921 -0.4558
 7449SOL    HW223288   5.161   0.880   5.427  1.1606 -0.0132 -0.0704
 7450SOL     OW23289   2.006   3.446   6.846 -0.2957 -0.0096  0.1152
 7450SOL    HW123290   2.029   3.538   6.858  0.4064 -0.0135 -1.1062
 7450SOL    HW223291   2.088   3.398   6.859 -0.8450 -0.5690  1.7046
 7451SOL     OW23292   1.944   6.619   2.716 -0.1633  0.2983  0.1160
 7451SOL    HW123293   1.926   6.695   2.771 -2.8492 -0.0536 -0.1681
 7451SOL    HW223294   2.001   6.564   2.770 -0.3538  1.2838  1.3726
 7452SOL     OW23295   1.811   5.207   1.260 -0.5215  0.4815  0.1356
 7452SOL    HW123296   1.776   5.267   1.326 -0.5245  0.7066 -0.0700
 7452SOL    HW223297   1.838   5.264   1.187  1.5213  0.4593  0.8087
 7453SOL     OW23298   5.925   4.871   2.176  0.0866 -0.1002 -0.2946
 7453SOL    HW123299   5.908   4.857   2.269  0.7393  1.1751  0.0289
 7453SOL    HW223300   5.838   4.887   2.138 -0.0678  0.5625  0.3151
 7454SOL     OW23301   2.240   3.204   6.731  0.0605 -0.2505 -0.3924
 7454SOL    HW123302   2.251   3.190   6.825 -0.2779  0.1660 -0.2865
 7454SOL    HW223303   2.180   3.134   6.703 -0.4728  0.1033 -0.1458
 7455SOL     OW23304   6.117   0.677   0.387 -0.3940 -0.3390  0.4037
 7455SOL    HW123305   6.056   0.647   0.454 -1.2861 -1.8271 -1.0091
 7455SOL    HW223306   6.184   0.607   0.382  0.1787  0.2018  0.3877
 7456SOL     OW23307   1.675   3.971   2.319  0.5203  0.7861  0.0851
 7456SOL    HW123308   1.599   3.976   2.378 -0.6511 -0.6694 -1.2012
 7456SOL    HW223309   1.663   3.888   2.273  2.1452  1.2271 -1.1893
 7457SOL     OW23310   6.225   4.628   2.576 -0.1268  0.0701 -0.1932
 7457SOL    HW123311   6.185   4.589   2.498  1.0353 -2.4664  0.3949
 7457SOL    HW223312   6.301   4.675   2.543 -0.4963  0.3055 -0.7291
 7458SOL     OW23313   4.928   1.725   5.692 -0.3592 -0.5870 -0.2175
 7458SOL    HW123314   4.930   1.671   5.613  1.1508 -1.1839  0.1915
 7458SOL    HW223315   4.985   1.799   5.673 -0.8983 -0.1355 -0.0923
 7459SOL     OW23316   6.681   4.710   0.848 -0.1983  0.3561 -0.7578
 7459SOL    HW123317   6.625   4.773   0.804 -0.4098  0.8090  0.1295
 7459SOL    HW223318   6.760   4.705   0.794 -0.8715  0.1003 -1.7405
 7460SOL     OW23319   5.359   7.031   5.274 -0.0381 -0.4694 -0.3619
 7460SOL    HW123320   5.330   6.959   5.218 -1.8959 -0.9809  1.1273
 7460SOL    HW223321   5.439   6.999   5.316 -0.7534 -1.6599  0.1601
 7461SOL     OW23322   6.934   6.756   3.025  0.1110 -0.6563 -0.0023
 7461SOL    HW123323   6.989   6.679   3.009  1.1261  0.4091 -2.0137
 7461SOL    HW223324   6.995   6.821   3.062 -0.4573 -0.4058  0.5032
 7462SOL     OW23325   7.243   2.813   7.262  0.3442  0.3403 -0.2198
 7462SOL    HW123326   7.311   2.806   7.329  0.6345  0.0792 -0.5342
 7462SOL    HW223327   7.165   2.775   7.303  0.6706 -0.3506 -0.2265
 7463SOL     OW23328   6.783   7.268   3.360  0.1333  0.6955  0.0722
 7463SOL    HW123329   6.870   7.252   3.323  0.1300  1.2055 -0.1753
 7463SOL    HW223330   6.782   7.220   3.442  0.3883  0.0969 -0.2730
 7464SOL     OW23331   1.481   4.580   5.393 -0.1196  0.1178  0.1329
 7464SOL    HW123332   1.386   4.566   5.392 -0.5977  1.6481  4.1811
 7464SOL    HW223333   1.519   4.492   5.399 -1.2116 -0.5053 -1.4634
 7465SOL     OW23334   4.145   1.613   7.285 -0.1938  0.0255 -0.2969
 7465SOL    HW123335   4.111   1.529   7.315  1.4457 -0.1567  1.1488
 7465SOL    HW223336   4.092   1.678   7.331  0.6371 -0.2511  1.1067
 7466SOL     OW23337   0.386   0.402   3.091  0.2497  0.3235  0.2467
 7466SOL    HW123338   0.476   0.374   3.078 -0.2776 -1.2185 -0.3404
 7466SOL    HW223339   0.374   0.476   3.031  0.9057  0.0652 -0.2002
 7467SOL     OW23340   2.341   5.860   3.294  0.6887  0.2177 -0.2567
 7467SOL    HW123341   2.347   5.765   3.281  2.0209  0.4154 -1.3515
 7467SOL    HW223342   2.250   5.875   3.320  0.8603 -1.5237  1.6214
 7468SOL     OW23343   1.877   5.503   0.234  0.7463  0.3136 -0.3671
 7468SOL    HW123344   1.958   5.552   0.221  0.2011  1.2969 -0.1844
 7468SOL    HW223345   1.824   5.559   0.292 -0.1060 -0.2567 -0.5731
 7469SOL     OW23346   5.132   4.680   1.726 -0.1515 -0.1470  0.5446
 7469SOL    HW123347   5.181   4.598   1.736 -1.1014 -1.0146 -1.3594
 7469SOL    HW223348   5.165   4.718   1.645 -1.6299 -0.0583 -0.0499
 7470SOL     OW23349   2.292   5.869   0.792 -0.2798  0.2858  0.2797
 7470SOL    HW123350   2.281   5.800   0.857  1.0985 -0.4489 -0.2214
 7470SOL    HW223351   2.219   5.856   0.731 -1.6913  1.0910  1.6927
 7471SOL     OW23352   2.873   3.314   6.604  0.1407  0.2178  0.4490
 7471SOL    HW123353   2.791   3.313   6.555  0.0428  1.8472  0.5299
 7471SOL    HW223354   2.894   3.407   6.615  1.4124 -0.1458  1.4098
 7472SOL     OW23355   5.044   0.567   1.095  0.2833 -0.2281  0.1047
 7472SOL    HW123356   5.100   0.625   1.147 -1.2821  1.1608  0.3485
 7472SOL    HW223357   4.985   0.627   1.048 -1.3718 -1.6024  0.3088
 7473SOL     OW23358   0.785   5.422   1.778  0.0376  0.0050  0.1291
 7473SOL    HW123359   0.787   5.335   1.738 -0.7445  0.3532 -0.6728
 7473SOL    HW223360   0.796   5.483   1.705  0.1742  0.6051  0.6409
 7474SOL     OW23361   4.997   6.031   7.369 -0.4235  0.0678  0.3948
 7474SOL    HW123362   4.984   6.120   7.336 -1.3097 -0.7798 -1.7950
 7474SOL    HW223363   4.927   6.018   7.432  0.5058  1.3233  1.7427
 7475SOL     OW23364   6.252   0.986   0.079 -0.1489  1.4684  0.1300
 7475SOL    HW123365   6.310   1.062   0.075  0.2903  1.1753 -4.1363
 7475SOL    HW223366   6.311   0.911   0.087 -0.1642  1.3653 -0.6195
 7476SOL     OW23367   3.727   2.127   1.834 -0.4633  0.3555  0.0402
 7476SOL    HW123368   3.816   2.095   1.845 -0.1424  1.7447  2.0232
 7476SOL    HW223369   3.683   2.106   1.917 -1.5951  0.8607 -0.4085
 7477SOL     OW23370   0.566   1.736   1.372  0.6054 -0.4289  0.2278
 7477SOL    HW123371   0.515   1.660   1.400  1.1574  0.0727  2.8311
 7477SOL    HW223372   0.657   1.710   1.389  0.9247  0.2103 -0.4640
 7478SOL     OW23373   6.921   3.258   6.849  0.6299  0.0012  0.3690
 7478SOL    HW123374   6.832   3.237   6.876 -0.2725  0.5559 -1.9264
 7478SOL    HW223375   6.943   3.191   6.784  1.7711  0.0660  0.6679
 7479SOL     OW23376   6.594   2.003   7.288 -0.0083  0.3382 -0.4937
 7479SOL    HW123377   6.667   1.947   7.316  0.0874  0.9183  0.4864
 7479SOL    HW223378   6.536   1.945   7.239 -0.2270 -0.7812  1.0125
 7480SOL     OW23379   2.448   3.653   4.756 -0.0172  0.2700  0.1450
 7480SOL    HW123380   2.535   3.670   4.719  0.8115  1.1185  2.3550
 7480SOL    HW223381   2.451   3.561   4.783  0.1572  0.2875  0.1838
 7481SOL     OW23382   2.453   6.992   1.501  0.0849  0.4767  0.0387
 7481SOL    HW123383   2.432   6.903   1.528  1.1402  0.4423  0.8557
 7481SOL    HW223384   2.386   7.016   1.438 -0.0546 -0.9959 -0.3902
 7482SOL     OW23385   3.290   2.521   3.333  0.1531  0.2955 -0.1963
 7482SOL    HW123386   3.309   2.612   3.311  1.5366  0.2012  0.5207
 7482SOL    HW223387   3.237   2.489   3.259 -1.9168  2.1530  0.3990
 7483SOL     OW23388   0.367   0.860   0.611 -0.1230 -0.0310  0.1363
 7483SOL    HW123389   0.350   0.816   0.527 -0.5798 -0.8653  0.6488
 7483SOL    HW223390   0.282   0.862   0.655  0.5977 -2.3101  1.8243
 7484SOL     OW23391   2.215   6.350   1.229 -0.4490 -0.2091  0.3443
 7484SOL    HW123392   2.211   6.334   1.323 -1.4327 -1.7730  0.0675
 7484SOL    HW223393   2.227   6.264   1.190 -0.1246  0.4075 -0.9774
 7485SOL     OW23394   1.917   6.852   0.476  0.2251 -0.1515 -0.0163
 7485SOL    HW123395   1.920   6.921   0.410 -0.7731  0.4722  0.5615
 7485SOL    HW223396   1.880   6.777   0.430 -1.2874  0.5373  0.0119
 7486SOL     OW23397   1.112   3.058   5.852  0.7837 -0.2233 -0.2048
 7486SOL    HW123398   1.193   3.022   5.818  0.6559 -0.9839  0.2676
 7486SOL    HW223399   1.043   3.003   5.815  0.2601  1.7372 -2.3999
 7487SOL     OW23400   3.998   5.637   0.926  0.0563 -0.3942 -0.3791
 7487SOL    HW123401   3.999   5.660   0.833  2.1405 -0.9406 -0.5383
 7487SOL    HW223402   3.918   5.585   0.937  0.6939 -1.9181 -2.3181
 7488SOL     OW23403   7.372   4.277   1.926 -0.4773 -0.1007  0.0270
 7488SOL    HW123404   7.346   4.238   2.010 -1.3907 -0.5204 -0.4307
 7488SOL    HW223405   7.450   4.229   1.901  0.5633  0.8923  1.2359
 7489SOL     OW23406   3.064   4.781   6.787 -0.1491  0.1067  0.1283
 7489SOL    HW123407   3.091   4.800   6.876  1.6551 -0.6398 -0.2205
 7489SOL    HW223408   3.007   4.855   6.763  0.5676  1.0992  1.3526
 7490SOL     OW23409   0.495   5.675   6.082 -0.6577  0.2029  0.3086
 7490SOL    HW123410   0.480   5.744   6.146 -0.9435  0.8240 -0.4087
 7490SOL    HW223411   0.513   5.597   6.134  2.5281  1.3510  1.1876
 7491SOL     OW23412   5.645   2.448   2.761  0.8402 -0.2121 -0.1368
 7491SOL    HW123413   5.574   2.498   2.802  1.2916 -0.7301  1.3220
 7491SOL    HW223414   5.621   2.445   2.669 -1.0155 -0.3359  0.3064
 7492SOL     OW23415   0.838   4.592   1.037 -0.7964 -0.2042  0.0899
 7492SOL    HW123416   0.767   4.644   1.073 -1.3396 -0.4401 -0.6191
 7492SOL    HW223417   0.795   4.527   0.982  0.0489  0.9655 -2.0691
 7493SOL     OW23418   1.532   3.211   5.752 -0.0416 -0.0373  0.2187
 7493SOL    HW123419   1.471   3.166   5.694  1.8313 -0.1675 -1.7774
 7493SOL    HW223420   1.525   3.304   5.728 -0.4549  0.1277  0.9633
 7494SOL     OW23421   5.247   6.910   3.194 -0.3383 -0.1471 -0.2010
 7494SOL    HW123422   5.242   7.005   3.203 -1.4843 -0.2393  0.2593
 7494SOL    HW223423   5.190   6.889   3.121 -2.9639 -0.7496  1.8471
 7495SOL     OW23424   2.633   1.877   2.592 -0.0612  0.3510  0.1869
 7495SOL    HW123425   2.582   1.797   2.578 -0.0619  0.1752  1.1493
 7495SOL    HW223426   2.720   1.857   2.557 -0.1547  0.0549  0.1233
 7496SOL     OW23427   7.426   4.523   3.901 -0.1725  0.7715  0.1550
 7496SOL    HW123428   7.346   4.471   3.910  1.1845 -1.2541  1.4232
 7496SOL    HW223429   7.431   4.544   3.808 -1.8417  0.4413 -0.0517
 7497SOL     OW23430   6.950   0.219   2.001  0.5625  0.0581  0.3821
 7497SOL    HW123431   6.875   0.232   2.059  1.2764 -0.6961  1.5259
 7497SOL    HW223432   7.001   0.300   2.009  2.1029 -1.0349  3.0967
 7498SOL     OW23433   6.282   6.173   0.656  0.2555  0.2070 -0.1028
 7498SOL    HW123434   6.190   6.156   0.638  0.5945 -0.9925 -0.7835
 7498SOL    HW223435   6.325   6.165   0.571  0.8100  2.1770 -0.0565
 7499SOL     OW23436   2.848   5.969   6.052  0.2993 -0.7358 -0.3202
 7499SOL    HW123437   2.854   6.042   6.114  0.1556 -0.9325 -0.0749
 7499SOL    HW223438   2.803   5.900   6.100 -1.2066 -0.3618 -1.1123
 7500SOL     OW23439   5.583   0.447   3.416 -0.7482  0.4210 -0.0711
 7500SOL    HW123440   5.618   0.524   3.461  1.5336  0.3258 -1.5163
 7500SOL    HW223441   5.565   0.385   3.487  1.8319  0.6094  0.8680
 7501SOL     OW23442   6.165   4.169   2.051  0.2717  0.3824  0.2593
 7501SOL    HW123443   6.092   4.191   2.109 -0.6687  1.7887 -1.3604
 7501SOL    HW223444   6.214   4.251   2.043 -0.0729  0.4578 -1.4986
 7502SOL     OW23445   2.211   4.448   1.310 -0.2811  0.1525  0.0379
 7502SOL    HW123446   2.288   4.428   1.257 -0.4685  0.4519 -0.3532
 7502SOL    HW223447   2.240   4.515   1.371 -0.1077 -0.0746  0.2051
 7503SOL     OW23448   1.221   6.871   4.909  0.8406 -0.0952  0.6303
 7503SOL    HW123449   1.272   6.795   4.935 -0.0679 -1.3491 -1.0572
 7503SOL    HW223450   1.260   6.900   4.827  0.5154  0.6301  0.7189
 7504SOL     OW23451   3.847   5.637   2.774 -0.0393 -0.1835 -0.3022
 7504SOL    HW123452   3.880   5.717   2.816  0.3084 -0.1450 -0.6466
 7504SOL    HW223453   3.925   5.593   2.742 -0.3348  0.0595 -1.4029
 7505SOL     OW23454   5.263   5.999   5.250 -0.1539 -0.6045 -0.0135
 7505SOL    HW123455   5.232   6.079   5.208 -0.3148 -1.8898 -2.5558
 7505SOL    HW223456   5.189   5.969   5.302 -0.0350  0.9281  1.1259
 7506SOL     OW23457   0.358   1.219   5.925  0.1422  0.2038 -0.6101
 7506SOL    HW123458   0.393   1.144   5.974 -3.2098 -0.3188  1.3088
 7506SOL    HW223459   0.400   1.295   5.964  0.2538 -0.4514  0.6136
 7507SOL     OW23460   4.917   5.801   3.510  0.0015 -0.5596 -0.7318
 7507SOL    HW123461   4.954   5.884   3.538  0.1142 -1.0872  0.7590
 7507SOL    HW223462   4.830   5.823   3.476 -0.9204 -0.0474  1.7316
 7508SOL     OW23463   3.939   1.074   5.531  0.3532 -0.1948 -0.2345
 7508SOL    HW123464   3.887   1.116   5.599 -0.3998 -1.4762  0.0125
 7508SOL    HW223465   3.967   0.991   5.569 -0.4514 -1.1429 -1.5974
 7509SOL     OW23466   3.070   0.766   2.972  0.1609  0.5146  0.0108
 7509SOL    HW123467   3.137   0.817   2.926  0.8464 -2.1830 -2.2369
 7509SOL    HW223468   2.988   0.812   2.954  1.1224  3.1419  1.7103
 7510SOL     OW23469   3.421   6.165   4.542  0.5385 -0.0932 -0.3688
 7510SOL    HW123470   3.408   6.071   4.528  2.0970 -0.4273  0.2523
 7510SOL    HW223471   3.342   6.193   4.588  0.4728 -1.3111  0.3090
 7511SOL     OW23472   5.040   6.572   2.022 -0.0568  0.1818 -0.4413
 7511SOL    HW123473   5.004   6.496   2.068 -1.2086  0.9133 -0.0817
 7511SOL    HW223474   5.065   6.632   2.092 -0.5632  0.7436 -0.7277
 7512SOL     OW23475   7.103   4.259   2.627  0.1775 -0.3868  0.0718
 7512SOL    HW123476   7.176   4.199   2.609  1.0828  1.0531 -1.2915
 7512SOL    HW223477   7.095   4.260   2.722  2.9775  0.5949  0.3579
 7513SOL     OW23478   0.508   0.168   5.551  0.4947 -0.4088 -0.5148
 7513SOL    HW123479   0.436   0.116   5.586 -0.6157  0.2157 -1.7847
 7513SOL    HW223480   0.585   0.138   5.600 -0.3327 -2.2186 -0.2270
 7514SOL     OW23481   4.775   2.254   6.949  0.3055  0.2438 -0.4808
 7514SOL    HW123482   4.849   2.229   7.004 -0.1379 -1.5275 -0.6171
 7514SOL    HW223483   4.699   2.213   6.991 -0.2690  0.2176 -1.5114
 7515SOL     OW23484   6.137   6.448   5.434 -0.6070 -0.0696  0.1835
 7515SOL    HW123485   6.106   6.402   5.356 -0.8452  0.2718  0.0723
 7515SOL    HW223486   6.203   6.508   5.401 -0.1677 -0.4589  0.3540
 7516SOL     OW23487   4.645   4.793   3.425 -0.4244 -0.1260  0.5768
 7516SOL    HW123488   4.717   4.736   3.399 -0.2791  0.7122 -0.9850
 7516SOL    HW223489   4.611   4.828   3.343 -0.4556  2.0820  1.4517
 7517SOL     OW23490   2.307   6.144   6.950  0.1757  0.0376  0.2809
 7517SOL    HW123491   2.401   6.162   6.961 -0.0662  1.0939  0.7632
 7517SOL    HW223492   2.266   6.186   7.026 -0.7464  0.1114 -0.2466
 7518SOL     OW23493   3.359   7.182   4.830 -0.1423  0.2762  0.8094
 7518SOL    HW123494   3.378   7.178   4.737 -1.7200 -1.6648  0.5079
 7518SOL    HW223495   3.433   7.138   4.872 -0.5618 -1.0090  0.2416
 7519SOL     OW23496   4.029   6.293   4.563  0.0999  0.0416  0.1823
 7519SOL    HW123497   3.980   6.376   4.570  0.2141  0.4055 -2.2093
 7519SOL    HW223498   4.040   6.263   4.653 -5.1995 -0.4769  0.9748
 7520SOL     OW23499   5.135   0.163   4.613 -0.1578 -0.4148 -0.1037
 7520SOL    HW123500   5.215   0.135   4.658 -0.5323 -4.8083 -1.7221
 7520SOL    HW223501   5.068   0.100   4.642 -2.3824  1.4305 -0.9191
 7521SOL     OW23502   0.921   1.079   0.844  0.1657 -0.3036  0.0499
 7521SOL    HW123503   0.898   1.078   0.751  1.1636  1.5334 -0.2643
 7521SOL    HW223504   0.837   1.075   0.890 -0.4367  0.2405 -0.9665
 7522SOL     OW23505   3.541   3.464   3.231 -0.3798 -0.1046 -0.0871
 7522SOL    HW123506   3.522   3.544   3.183 -0.5165 -1.2451 -2.0640
 7522SOL    HW223507   3.633   3.473   3.258  0.2407 -0.0994 -2.0752
 7523SOL     OW23508   2.771   3.079   4.098  0.2527  0.6336 -0.1019
 7523SOL    HW123509   2.724   3.045   4.022  0.1584  1.4368 -0.4116
 7523SOL    HW223510   2.817   3.003   4.134 -0.6218  0.0092 -0.2793
 7524SOL     OW23511   0.511   0.849   0.117 -0.7039  0.1821  0.3160
 7524SOL    HW123512   0.488   0.759   0.140 -2.9788  0.0984 -1.8855
 7524SOL    HW223513   0.605   0.846   0.101 -0.6235 -1.6595  0.8785
 7525SOL     OW23514   2.456   3.129   2.986  0.1823  0.1427  0.1132
 7525SOL    HW123515   2.470   3.059   2.922 -2.0390 -1.1004  0.8474
 7525SOL    HW223516   2.364   3.118   3.013 -0.1967  3.2497  0.4225
 7526SOL     OW23517   6.674   6.977   4.144 -0.5540  0.1360 -0.8590
 7526SOL    HW123518   6.708   7.037   4.210  0.5358 -1.9046  0.5236
 7526SOL    HW223519   6.752   6.935   4.107 -1.3317 -2.1844 -0.0256
 7527SOL     OW23520   1.906   1.092   0.910 -0.1194 -0.3952  0.0279
 7527SOL    HW123521   1.978   1.142   0.948 -0.5227  1.5133 -1.5555
 7527SOL    HW223522   1.946   1.040   0.841  0.2253 -2.0238  1.3807
 7528SOL     OW23523   5.242   0.619   0.323 -0.3121 -0.4208 -0.6538
 7528SOL    HW123524   5.243   0.659   0.410  0.6059 -0.9827 -0.3930
 7528SOL    HW223525   5.260   0.692   0.263 -0.5265 -0.1087 -0.3420
 7529SOL     OW23526   6.739   0.124   3.404 -0.1703 -0.0537 -0.2591
 7529SOL    HW123527   6.761   0.036   3.435 -0.5996  0.3171  1.1600
 7529SOL    HW223528   6.644   0.126   3.403 -0.1619  0.1387 -1.0686
 7530SOL     OW23529   4.746   1.448   3.551 -0.1548  0.3776 -0.2534
 7530SOL    HW123530   4.814   1.410   3.495  0.5408 -1.0432  1.4866
 7530SOL    HW223531   4.667   1.397   3.531 -0.0090  0.1454 -0.2414
 7531SOL     OW23532   7.410   7.131   6.302 -0.0296  0.3788 -0.8015
 7531SOL    HW123533   7.460   7.212   6.313  0.2871 -0.1128  2.4732
 7531SOL    HW223534   7.475   7.066   6.274  0.3238  0.6439 -0.6083
 7532SOL     OW23535   6.852   2.332   5.038 -0.0368 -0.1978 -0.4216
 7532SOL    HW123536   6.946   2.345   5.030 -0.0082 -0.7628 -1.1763
 7532SOL    HW223537   6.813   2.401   4.985  0.0646 -1.8333 -2.7952
 7533SOL     OW23538   1.994   3.043   6.066 -0.4187 -0.0366  0.0130
 7533SOL    HW123539   1.920   3.013   6.120 -0.7336 -0.4496 -0.6394
 7533SOL    HW223540   1.956   3.109   6.008  0.5122  2.6951  2.2941
 7534SOL     OW23541   6.652   6.359   3.861 -0.7954 -0.5607 -0.2185
 7534SOL    HW123542   6.728   6.308   3.889 -0.1965  0.4124 -0.0057
 7534SOL    HW223543   6.607   6.381   3.943  0.0223  0.8580 -0.1118
 7535SOL     OW23544   6.073   2.020   4.479  0.0716  0.4261 -0.2901
 7535SOL    HW123545   6.119   2.093   4.521  1.7115 -2.0905  2.7672
 7535SOL    HW223546   5.989   2.016   4.524 -0.3628  0.9056 -1.0466
 7536SOL     OW23547   2.091   6.768   3.661 -0.2433  0.6953 -0.5547
 7536SOL    HW123548   2.002   6.747   3.632 -0.1318 -1.3144  0.4333
 7536SOL    HW223549   2.095   6.864   3.656 -2.8523  0.9465  0.4636
 7537SOL     OW23550   4.882   1.970   3.850 -0.9674  0.1779 -0.4238
 7537SOL    HW123551   4.919   1.955   3.763 -0.8868  0.3073 -0.4120
 7537SOL    HW223552   4.837   1.889   3.872 -1.3699  0.3022 -0.7800
 7538SOL     OW23553   0.026   5.521   3.406 -0.4994 -0.2297 -0.4185
 7538SOL    HW123554  -0.039   5.580   3.368 -0.3726 -0.5433 -1.1273
 7538SOL    HW223555   0.061   5.472   3.332 -0.6049 -1.2049  0.1556
 7539SOL     OW23556   7.019   7.073   2.765  0.0603 -1.0436 -0.3297
 7539SOL    HW123557   6.962   7.078   2.843 -1.7853 -1.0676 -1.6095
 7539SOL    HW223558   6.973   7.125   2.699 -0.1951 -3.7135 -2.4291
 7540SOL     OW23559   1.366   7.316   0.048  0.1685 -0.0521 -0.0747
 7540SOL    HW123560   1.329   7.356   0.126  0.6120 -1.8392  1.1130
 7540SOL    HW223561   1.457   7.346   0.045 -0.2970  1.3984 -0.9345
 7541SOL     OW23562   3.985   5.279   0.697 -0.2934  0.2168 -0.4259
 7541SOL    HW123563   3.919   5.245   0.758 -1.5655  2.3791 -0.5182
 7541SOL    HW223564   4.048   5.325   0.752 -1.3957  2.0965 -0.6663
 7542SOL     OW23565   6.084   6.365   6.821  0.4054  0.5629  0.0137
 7542SOL    HW123566   6.059   6.419   6.896  0.0386 -1.4302  1.3966
 7542SOL    HW223567   6.179   6.376   6.814  0.3405  1.3387  0.3009
 7543SOL     OW23568   1.451   0.284   2.243 -0.2668 -0.5322 -0.2491
 7543SOL    HW123569   1.372   0.241   2.277 -0.3470  1.0453  1.6959
 7543SOL    HW223570   1.478   0.229   2.169 -2.4756 -1.7911 -0.2016
 7544SOL     OW23571   4.547   7.355   3.905 -0.0795  0.8469  0.7504
 7544SOL    HW123572   4.586   7.412   3.971  0.0171 -0.2209  1.6513
 7544SOL    HW223573   4.456   7.383   3.900 -0.0618  1.0038  1.2730
 7545SOL     OW23574   5.110   4.961   6.415  0.1425  0.0563 -0.3294
 7545SOL    HW123575   5.134   4.978   6.506  0.5316  0.9104 -0.5802
 7545SOL    HW223576   5.131   4.868   6.402  0.4399  0.0237  0.3413
 7546SOL     OW23577   6.496   3.567   4.474  0.2861 -0.6521  0.1608
 7546SOL    HW123578   6.485   3.480   4.437  0.4038  0.2966 -2.2891
 7546SOL    HW223579   6.590   3.581   4.476  0.2408  0.0923 -1.3054
 7547SOL     OW23580   4.262   4.064   4.927 -0.4161 -0.1798  0.7134
 7547SOL    HW123581   4.176   4.040   4.895 -0.2951  0.5151 -0.1504
 7547SOL    HW223582   4.303   3.981   4.952  0.0375 -0.9670 -2.3177
 7548SOL     OW23583   4.136   7.255   2.461 -0.2997  0.3842  0.2814
 7548SOL    HW123584   4.180   7.338   2.480  1.2204 -0.3235  0.0437
 7548SOL    HW223585   4.050   7.280   2.428  0.5275  1.9157 -0.8422
 7549SOL     OW23586   2.147   1.037   2.693 -0.3364 -0.2165  0.0126
 7549SOL    HW123587   2.213   1.027   2.761 -1.1036 -0.9449  0.6685
 7549SOL    HW223588   2.187   0.998   2.615  0.3573  0.1762  0.1631
 7550SOL     OW23589   2.499   3.905   7.303 -0.0818 -0.3405  0.0827
 7550SOL    HW123590   2.481   3.905   7.397 -1.5956  0.5580 -0.1792
 7550SOL    HW223591   2.519   3.996   7.282  0.1937 -0.5245 -0.4701
 7551SOL     OW23592   5.261   3.165   2.896  0.9277 -0.2483 -0.0327
 7551SOL    HW123593   5.289   3.096   2.957  2.6637  0.3497 -0.0778
 7551SOL    HW223594   5.250   3.120   2.812 -0.1617 -0.8377  0.4015
 7552SOL     OW23595   0.697   3.957   5.911  1.1191  0.1224  0.8874
 7552SOL    HW123596   0.770   3.922   5.860  1.4554  1.2433  0.5800
 7552SOL    HW223597   0.630   3.977   5.846  1.1455  0.5764  1.0005
 7553SOL     OW23598   1.440   5.157   4.694  0.4993 -0.4099 -0.0657
 7553SOL    HW123599   1.496   5.083   4.715  2.6508  0.7175 -1.5026
 7553SOL    HW223600   1.496   5.233   4.700 -1.9963  1.4269  2.8492
 7554SOL     OW23601   3.732   2.074   5.121  0.4914 -0.5374  0.1440
 7554SOL    HW123602   3.748   2.088   5.214  0.4889  1.0895 -0.0784
 7554SOL    HW223603   3.639   2.096   5.109  0.4287 -0.9653 -0.2193
 7555SOL     OW23604   0.670   5.804   4.640  0.1767 -0.4688  0.5183
 7555SOL    HW123605   0.748   5.851   4.611 -0.0907  0.0152  0.5696
 7555SOL    HW223606   0.679   5.798   4.735  0.6565 -1.3325  0.4184
 7556SOL     OW23607   3.041   2.094   3.192  0.2270  0.1209 -0.2200
 7556SOL    HW123608   2.991   2.171   3.168  0.4534 -0.3185 -2.2557
 7556SOL    HW223609   3.018   2.028   3.126  0.3550 -1.4293  1.2153
 7557SOL     OW23610   6.729   2.949   7.147 -0.5168 -0.4795  0.1403
 7557SOL    HW123611   6.696   3.037   7.168  0.3463  0.5218 -2.3466
 7557SOL    HW223612   6.650   2.894   7.146 -1.2254  0.4910  0.6697
 7558SOL     OW23613   6.241   0.105   6.982 -0.1793 -0.1772 -0.5628
 7558SOL    HW123614   6.178   0.176   6.967  0.2657  0.2884 -0.2538
 7558SOL    HW223615   6.190   0.025   6.971 -0.6229  0.1846 -1.2163
 7559SOL     OW23616   0.817   2.872   6.172  0.4437 -0.2210  0.4242
 7559SOL    HW123617   0.761   2.924   6.228  0.5360  1.5667 -1.0625
 7559SOL    HW223618   0.905   2.906   6.188  0.8788 -1.6370  1.2480
 7560SOL     OW23619   2.520   1.894   1.053  0.3476 -0.2803  0.5348
 7560SOL    HW123620   2.531   1.989   1.053 -3.6037  0.3582 -1.4993
 7560SOL    HW223621   2.536   1.868   0.962 -1.4812 -1.0564  0.3970
 7561SOL     OW23622   2.744   3.472   2.032 -0.0315  0.1455  0.0196
 7561SOL    HW123623   2.813   3.539   2.033 -1.5281  1.7793  1.4232
 7561SOL    HW223624   2.761   3.421   1.952  2.9821  0.2083  0.5122
 7562SOL     OW23625   6.002   0.246   3.594  1.0568  0.6021 -0.1719
 7562SOL    HW123626   6.036   0.156   3.600  1.1897  0.6703  0.1514
 7562SOL    HW223627   5.943   0.245   3.519  1.4195  0.3610 -0.4574
 7563SOL     OW23628   5.914   4.807   2.486  0.1745 -0.3897 -0.2459
 7563SOL    HW123629   5.930   4.734   2.546 -1.5982 -0.6670 -0.0617
 7563SOL    HW223630   5.993   4.860   2.492 -0.7161  0.8762  4.1439
 7564SOL     OW23631   6.189   6.673   6.291 -0.1530  0.3825 -0.1314
 7564SOL    HW123632   6.138   6.593   6.295 -0.1904  0.3589 -0.9844
 7564SOL    HW223633   6.218   6.688   6.381  2.1275 -2.0709 -0.3421
 7565SOL     OW23634   2.731   2.172   3.435 -0.1346  0.1671  0.2898
 7565SOL    HW123635   2.715   2.177   3.529  0.4156  0.1651  0.3854
 7565SOL    HW223636   2.691   2.089   3.408  0.1773 -0.0905  0.6184
 7566SOL     OW23637   3.101   7.194   0.769  0.0711 -0.4814  0.2665
 7566SOL    HW123638   3.054   7.111   0.770 -0.5401 -0.1448  1.3167
 7566SOL    HW223639   3.143   7.197   0.683  0.2310 -1.9318  0.2755
 7567SOL     OW23640   2.175   4.150   1.321  0.5177  0.1818  0.0860
 7567SOL    HW123641   2.152   4.228   1.271 -1.6135 -0.9623 -0.8365
 7567SOL    HW223642   2.169   4.078   1.258  0.2404 -0.9998  1.4099
 7568SOL     OW23643   4.338   2.261   6.874  0.1490  1.0846  0.0587
 7568SOL    HW123644   4.315   2.168   6.878  2.5632  0.4615  1.9630
 7568SOL    HW223645   4.266   2.305   6.919  0.6265 -0.3435  2.4127
 7569SOL     OW23646   0.633   5.812   5.292 -0.7672 -0.2138 -0.4522
 7569SOL    HW123647   0.604   5.784   5.205 -1.6764 -0.1567 -0.1779
 7569SOL    HW223648   0.553   5.837   5.337 -0.3943 -0.9491  0.6612
 7570SOL     OW23649   2.005   3.158   0.243 -0.3626  0.9074 -0.3035
 7570SOL    HW123650   2.034   3.094   0.308 -1.6760  0.2354 -0.3502
 7570SOL    HW223651   2.048   3.239   0.269  2.2868 -0.2158 -0.9391
 7571SOL     OW23652   4.347   1.484   6.011  0.0039 -0.0392 -0.0913
 7571SOL    HW123653   4.254   1.476   5.994  0.4115 -0.0387 -2.6272
 7571SOL    HW223654   4.359   1.575   6.038 -0.7222 -0.0601  0.3265
 7572SOL     OW23655   1.729   0.778   4.064 -0.4326  0.0408 -0.0515
 7572SOL    HW123656   1.695   0.813   4.146 -1.5600 -2.3290  0.5792
 7572SOL    HW223657   1.803   0.723   4.089  1.8915  2.4582 -1.1037
 7573SOL     OW23658   4.761   2.247   1.404  0.1676  0.1309  0.1423
 7573SOL    HW123659   4.721   2.297   1.332 -0.8783 -1.2197 -0.2650
 7573SOL    HW223660   4.697   2.179   1.424  0.7368  0.0859  1.9386
 7574SOL     OW23661   6.828   7.247   4.924  0.2291  0.0520  0.2016
 7574SOL    HW123662   6.860   7.248   5.014  0.5298 -0.0532  0.0966
 7574SOL    HW223663   6.802   7.156   4.908 -2.4040  0.5824  1.0783
 7575SOL     OW23664   0.239   2.545   7.246 -0.6970  0.6613 -0.1579
 7575SOL    HW123665   0.155   2.574   7.211 -1.1750 -0.3463  0.1152
 7575SOL    HW223666   0.271   2.481   7.182 -1.0649 -0.3866  0.6842
 7576SOL     OW23667   3.267   4.038   2.235 -0.4611  0.4322 -0.1324
 7576SOL    HW123668   3.246   4.015   2.145 -0.4353  0.2181 -0.0850
 7576SOL    HW223669   3.355   4.004   2.248  0.3267  2.2034 -0.6398
 7577SOL     OW23670   2.980   6.588   7.072 -0.1126 -0.0046 -0.4375
 7577SOL    HW123671   3.049   6.623   7.127  0.2981  1.2471 -1.7097
 7577SOL    HW223672   2.900   6.631   7.103 -0.3840 -1.4221  1.0043
 7578SOL     OW23673   6.955   1.872   2.010  0.0995 -0.4062 -0.1575
 7578SOL    HW123674   6.884   1.891   2.072 -0.5949 -0.6737 -0.8576
 7578SOL    HW223675   6.984   1.958   1.980  0.4903 -0.2709  0.5894
 7579SOL     OW23676   1.739   4.740   1.610  0.4743 -0.1449 -0.4841
 7579SOL    HW123677   1.685   4.756   1.532  0.8363 -0.3516 -0.7783
 7579SOL    HW223678   1.725   4.647   1.629 -0.1318  0.0616  0.0910
 7580SOL     OW23679   5.922   5.878   3.492  0.2833  0.5151 -0.1444
 7580SOL    HW123680   5.847   5.818   3.491  0.6669  0.0152  0.2418
 7580SOL    HW223681   5.961   5.866   3.578  1.4279 -0.0264 -0.7164
 7581SOL     OW23682   3.654   6.629   6.883  0.4033 -0.0019 -0.0790
 7581SOL    HW123683   3.628   6.720   6.870 -0.4317 -0.1142  0.6523
 7581SOL    HW223684   3.680   6.598   6.797 -0.0606  0.7035 -0.4784
 7582SOL     OW23685   6.470   4.908   6.910  0.3129  0.2474 -0.5249
 7582SOL    HW123686   6.453   4.939   6.999 -0.3952 -0.4304 -0.4112
 7582SOL    HW223687   6.445   4.982   6.854 -1.6418 -0.1668 -0.2735
 7583SOL     OW23688   3.100   0.604   1.921  0.3054  0.5478  0.0342
 7583SOL    HW123689   3.142   0.614   2.007  0.1431 -0.0445  0.1880
 7583SOL    HW223690   3.118   0.513   1.897  1.6111  1.1062 -1.2363
 7584SOL     OW23691   5.619   7.415   3.222  0.1972 -0.6860 -0.1820
 7584SOL    HW123692   5.539   7.449   3.263  0.2362 -0.0974 -0.5834
 7584SOL    HW223693   5.652   7.488   3.170  0.2986 -1.3315 -1.0426
 7585SOL     OW23694   6.551   2.270   6.560 -0.2188  0.4014  0.3354
 7585SOL    HW123695   6.537   2.177   6.575 -0.4860  0.4030  0.1242
 7585SOL    HW223696   6.576   2.276   6.468  1.2320  0.4047  0.7179
 7586SOL     OW23697   2.188   4.424   0.618  0.4434  0.4105  0.4801
 7586SOL    HW123698   2.131   4.500   0.609  0.4888  0.2893 -1.1144
 7586SOL    HW223699   2.219   4.407   0.530  1.4089 -0.7225  1.0136
 7587SOL     OW23700   5.049   0.291   7.181  0.3245 -0.8685 -0.6796
 7587SOL    HW123701   4.977   0.354   7.172 -0.9066 -2.2423 -0.7022
 7587SOL    HW223702   5.100   0.302   7.101  0.0495  0.0066 -0.7458
 7588SOL     OW23703   0.400   6.314   6.607  0.1762  0.8096  0.3252
 7588SOL    HW123704   0.323   6.283   6.655  0.3953  3.9632  3.0882
 7588SOL    HW223705   0.467   6.247   6.624 -1.1785 -0.6484  0.1345
 7589SOL     OW23706   2.563   5.729   6.031  0.7153  0.3440  0.3066
 7589SOL    HW123707   2.524   5.710   5.945  1.7028  1.0278 -0.3138
 7589SOL    HW223708   2.562   5.645   6.077 -0.0367  0.0187 -0.2848
 7590SOL     OW23709   6.319   0.356   5.073  0.4688 -0.3090  0.4244
 7590SOL    HW123710   6.251   0.418   5.047  1.5219  0.4319 -0.6893
 7590SOL    HW223711   6.349   0.318   4.991  1.1051 -0.9291  0.9323
 7591SOL     OW23712   2.431   2.263   0.429 -0.1310  0.2636 -0.1122
 7591SOL    HW123713   2.466   2.207   0.360  0.1777 -1.6139  1.4821
 7591SOL    HW223714   2.480   2.345   0.421  1.6798 -0.8057 -0.5616
 7592SOL     OW23715   5.284   4.007   5.336  0.0352  0.0851  0.3436
 7592SOL    HW123716   5.207   3.998   5.280 -0.1182  2.5060  0.0237
 7592SOL    HW223717   5.354   4.034   5.276  0.7644 -0.6434  0.8482
 7593SOL     OW23718   4.289   4.834   1.202 -0.2432  0.3388  0.1182
 7593SOL    HW123719   4.350   4.894   1.159 -1.6343  1.2683 -0.6048
 7593SOL    HW223720   4.299   4.853   1.295 -0.1586  1.1928 -0.0598
 7594SOL     OW23721   1.757   5.816   4.275 -0.1795  0.1766 -0.4859
 7594SOL    HW123722   1.736   5.810   4.368 -0.4865  1.7478 -0.4209
 7594SOL    HW223723   1.846   5.783   4.268  0.6854  2.0616  0.7567
 7595SOL     OW23724   2.895   4.711   0.995  0.3567  0.9851  0.0634
 7595SOL    HW123725   2.888   4.768   0.918 -0.0331 -2.2618 -2.5066
 7595SOL    HW223726   2.954   4.758   1.054  0.8608  3.5574 -2.2748
 7596SOL     OW23727   4.530   0.376   4.607 -1.0290 -0.9297 -0.3962
 7596SOL    HW123728   4.572   0.396   4.691 -1.2018 -0.3816 -0.4370
 7596SOL    HW223729   4.462   0.443   4.597  0.3592  0.3656 -1.9644
 7597SOL     OW23730   3.732   1.569   3.456  0.0848  0.3880 -0.4715
 7597SOL    HW123731   3.742   1.605   3.544  2.0965  0.1162 -0.5455
 7597SOL    HW223732   3.740   1.646   3.398 -1.8146  0.6566 -0.4529
 7598SOL     OW23733   6.140   2.835   1.548  0.0212 -0.4802  0.6847
 7598SOL    HW123734   6.049   2.858   1.565  0.2297  0.8655  0.1191
 7598SOL    HW223735   6.190   2.896   1.603  0.5866 -0.7014  0.4208
 7599SOL     OW23736   4.627   4.135   6.938  0.3219  0.4996  0.2369
 7599SOL    HW123737   4.619   4.189   7.017 -1.6222  1.3240 -0.4719
 7599SOL    HW223738   4.716   4.153   6.906  0.8362  0.7954  1.7502
 7600SOL     OW23739   4.783   5.601   2.927 -0.0674 -0.0764  0.0995
 7600SOL    HW123740   4.772   5.587   3.021  0.2701  0.3201  0.2052
 7600SOL    HW223741   4.814   5.517   2.894 -1.1648 -0.5243  0.1636
 7601SOL     OW23742   3.988   2.958   6.574  0.3843 -0.4372  0.1604
 7601SOL    HW123743   3.959   2.950   6.665  0.3320 -0.8321  0.1136
 7601SOL    HW223744   4.006   3.051   6.562  0.1144 -0.3421  0.4891
 7602SOL     OW23745   1.854   5.650   3.882 -0.3625 -0.1850 -0.4135
 7602SOL    HW123746   1.926   5.695   3.838 -0.5553  1.0189  0.4570
 7602SOL    HW223747   1.775   5.692   3.848 -0.5115  0.8627  1.1170
 7603SOL     OW23748   5.293   4.628   1.276 -0.5162 -1.0387  0.0400
 7603SOL    HW123749   5.201   4.656   1.279 -0.7512 -1.7611 -0.2486
 7603SOL    HW223750   5.332   4.668   1.354 -1.4356 -1.9440  1.0022
 7604SOL     OW23751   4.493   7.127   4.570  0.1633 -0.2917  0.1073
 7604SOL    HW123752   4.444   7.207   4.589 -0.8462 -0.2265 -2.4353
 7604SOL    HW223753   4.442   7.057   4.610 -0.3079  0.0903  0.1865
 7605SOL     OW23754   3.229   0.258   0.831 -0.4310 -0.1229 -0.3829
 7605SOL    HW123755   3.293   0.328   0.846  0.3952 -0.3679 -2.3913
 7605SOL    HW223756   3.282   0.181   0.811 -1.3568 -0.8785 -0.0288
 7606SOL     OW23757   1.450   4.745   7.290  0.6136  0.2718  0.2331
 7606SOL    HW123758   1.495   4.826   7.309  0.8779 -0.2495  1.9993
 7606SOL    HW223759   1.396   4.729   7.367 -1.7549  0.2845 -1.3240
 7607SOL     OW23760   5.753   3.492   5.293 -0.5935 -0.3338  0.0007
 7607SOL    HW123761   5.800   3.430   5.349  0.9339  1.4918  0.8456
 7607SOL    HW223762   5.661   3.468   5.303 -0.1547 -1.6356  1.3092
 7608SOL     OW23763   2.065   0.857   6.769  0.9548 -0.6359 -0.0910
 7608SOL    HW123764   1.989   0.806   6.740  1.7212 -1.6070 -0.4673
 7608SOL    HW223765   2.083   0.917   6.697 -0.6579  1.0485  0.8223
 7609SOL     OW23766   0.388   0.225   6.721 -0.0373 -0.0693 -0.1719
 7609SOL    HW123767   0.301   0.223   6.759  0.6800  0.6168  1.6458
 7609SOL    HW223768   0.402   0.317   6.697  0.6769  0.1028  0.8432
 7610SOL     OW23769   7.234   5.712   4.210  0.0904 -0.0152 -0.5219
 7610SOL    HW123770   7.154   5.747   4.171 -0.4785 -0.8156 -0.1015
 7610SOL    HW223771   7.276   5.665   4.139 -1.0478 -1.6458 -0.1653
 7611SOL     OW23772   6.216   5.799   4.947 -0.5648  0.3811 -0.0652
 7611SOL    HW123773   6.306   5.831   4.937 -0.6521  0.2292 -1.7575
 7611SOL    HW223774   6.225   5.718   4.997  0.3393  0.0565 -0.7100
 7612SOL     OW23775   0.167   1.846   3.626  0.5747  0.0699 -0.5153
 7612SOL    HW123776   0.192   1.759   3.595  1.6400 -0.6961  2.2743
 7612SOL    HW223777   0.234   1.904   3.591  1.3219 -0.6333 -0.2680
 7613SOL     OW23778   5.350   7.173   6.063  0.4293 -0.8436 -0.0831
 7613SOL    HW123779   5.320   7.149   6.150  0.7875 -0.3633  0.1753
 7613SOL    HW223780   5.351   7.090   6.014  0.5437 -1.1655  0.4606
 7614SOL     OW23781   3.299   3.669   6.117 -0.1912 -0.5825  0.0001
 7614SOL    HW123782   3.268   3.738   6.058 -2.6048 -1.1328  0.5041
 7614SOL    HW223783   3.223   3.612   6.129  1.1885 -2.3060  1.0750
 7615SOL     OW23784   3.429   1.153   5.535  0.0185 -0.0296  0.7463
 7615SOL    HW123785   3.472   1.165   5.619  0.7795 -2.0118  0.6843
 7615SOL    HW223786   3.477   1.082   5.493 -1.1580  0.0439 -0.8242
 7616SOL     OW23787   3.347   2.338   0.228  0.4148 -0.6229 -0.3851
 7616SOL    HW123788   3.274   2.287   0.191 -0.4769 -0.9598  1.6861
 7616SOL    HW223789   3.399   2.273   0.276  0.9254 -0.0537 -0.1622
 7617SOL     OW23790   1.707   5.416   5.742 -0.0879 -0.1893 -0.3117
 7617SOL    HW123791   1.685   5.497   5.696  0.0736  0.3344  0.5150
 7617SOL    HW223792   1.758   5.444   5.818 -1.0540 -0.9488  0.6571
 7618SOL     OW23793   5.227   0.245   3.687  0.2667 -0.0995  0.3546
 7618SOL    HW123794   5.244   0.193   3.609 -0.0475 -0.5611  0.5862
 7618SOL    HW223795   5.167   0.314   3.658  1.2548  0.5770 -0.1106
 7619SOL     OW23796   5.954   6.940   3.250  0.1866 -0.0548 -0.3764
 7619SOL    HW123797   5.881   6.879   3.258 -2.0154  2.5257  0.6717
 7619SOL    HW223798   5.942   6.982   3.165  0.8427 -0.0669 -0.4801
 7620SOL     OW23799   6.104   1.900   6.228  0.1198 -0.3770  0.7605
 7620SOL    HW123800   6.172   1.858   6.176  0.4420 -0.9624  1.6586
 7620SOL    HW223801   6.100   1.990   6.193  1.1886 -0.3970  0.5553
 7621SOL     OW23802   5.917   6.832   3.690 -0.2396 -0.5847 -0.3538
 7621SOL    HW123803   5.893   6.909   3.639  0.3003  0.8906  1.4764
 7621SOL    HW223804   6.011   6.843   3.707  0.3285 -2.7398 -1.7431
 7622SOL     OW23805   3.209   3.889   4.284  0.2439 -0.1388 -0.4787
 7622SOL    HW123806   3.189   3.822   4.349 -1.7171 -0.7566 -1.6308
 7622SOL    HW223807   3.222   3.840   4.203  1.9347  0.6736 -0.7439
 7623SOL     OW23808   1.002   1.200   3.333 -0.2066  0.0475 -0.4796
 7623SOL    HW123809   1.084   1.178   3.379  0.0925 -0.3233 -1.1768
 7623SOL    HW223810   1.010   1.292   3.311 -1.0581  0.6845  1.6340
 7624SOL     OW23811   4.180   5.552   3.330 -0.4376 -0.4776 -0.5117
 7624SOL    HW123812   4.096   5.528   3.292 -1.3114  0.8104  0.5010
 7624SOL    HW223813   4.179   5.513   3.418 -0.0316 -0.3632 -0.4527
 7625SOL     OW23814   2.375   7.090   6.477 -0.2104 -0.4022  0.2218
 7625SOL    HW123815   2.424   7.172   6.475 -1.5342  0.4248 -1.4989
 7625SOL    HW223816   2.302   7.107   6.537 -0.5545 -0.2584 -0.2298
 7626SOL     OW23817   5.672   6.287   6.315  0.3510  0.2404  0.2310
 7626SOL    HW123818   5.642   6.216   6.258  0.6407  0.2676  0.0380
 7626SOL    HW223819   5.645   6.261   6.403  0.8242 -0.3170  0.2177
 7627SOL     OW23820   3.760   5.239   3.722  0.2094  0.2901  0.1335
 7627SOL    HW123821   3.726   5.206   3.639  1.8130 -1.0826 -0.0326
 7627SOL    HW223822   3.700   5.309   3.746 -2.4815 -1.6790 -0.3171
 7628SOL     OW23823   1.111   3.200   3.811  0.8308 -0.2087  0.6234
 7628SOL    HW123824   1.195   3.185   3.767  0.9942 -3.9947  1.8383
 7628SOL    HW223825   1.131   3.193   3.904 -0.8022 -1.3891  0.9288
 7629SOL     OW23826   2.170   5.635   5.598 -0.1705  0.0648  0.4070
 7629SOL    HW123827   2.154   5.612   5.690 -2.1609  0.7933  0.3010
 7629SOL    HW223828   2.172   5.550   5.553 -1.0405 -0.2307  0.8871
 7630SOL     OW23829   4.667   3.362   0.311 -0.3045 -0.5387 -0.3115
 7630SOL    HW123830   4.635   3.452   0.321 -0.2518 -0.5978  0.4060
 7630SOL    HW223831   4.588   3.311   0.294 -0.5255 -0.5801  0.7890
 7631SOL     OW23832   5.920   5.048   6.449  0.0884  0.1854 -0.3101
 7631SOL    HW123833   5.966   5.101   6.383 -0.3207  0.4823 -0.3624
 7631SOL    HW223834   5.837   5.025   6.406  0.3226 -0.6198 -0.3424
 7632SOL     OW23835   4.348   1.080   1.065 -0.3575 -0.1845  0.9662
 7632SOL    HW123836   4.438   1.109   1.050 -0.2584 -1.3012 -0.9688
 7632SOL    HW223837   4.343   0.994   1.023 -2.5202  0.1646  0.3859
 7633SOL     OW23838   2.515   7.168   3.112  0.5172 -0.0628  0.0211
 7633SOL    HW123839   2.566   7.087   3.109  0.3779 -0.1291 -2.0159
 7633SOL    HW223840   2.425   7.141   3.090  0.1753  0.4533  0.7418
 7634SOL     OW23841   4.270   4.017   0.334 -0.3157  0.1520 -0.4630
 7634SOL    HW123842   4.253   4.083   0.402  0.8169  0.5733 -0.5704
 7634SOL    HW223843   4.327   3.953   0.375  1.2580  0.9673 -1.2992
 7635SOL     OW23844   3.233   2.628   3.588 -0.1104  0.5344 -0.2715
 7635SOL    HW123845   3.240   2.565   3.516 -1.3074  0.1909 -0.1015
 7635SOL    HW223846   3.232   2.574   3.667 -1.7004  0.7168 -0.1487
 7636SOL     OW23847   6.829   0.969   1.062  0.0530 -0.3367  0.2689
 7636SOL    HW123848   6.861   0.892   1.109 -1.0758 -1.9141 -1.3718
 7636SOL    HW223849   6.860   0.957   0.972  0.9622  1.8524  0.2247
 7637SOL     OW23850   2.338   0.271   6.193  0.0375  0.3940  0.4022
 7637SOL    HW123851   2.286   0.191   6.192 -1.5902  1.3768  1.6885
 7637SOL    HW223852   2.367   0.279   6.283  1.0789  0.7228  0.0454
 7638SOL     OW23853   6.752   5.089   1.455  0.2819 -0.5460 -0.3901
 7638SOL    HW123854   6.778   5.030   1.526  0.4407 -0.9834 -0.8012
 7638SOL    HW223855   6.656   5.089   1.457  0.2768  0.9224  1.0102
 7639SOL     OW23856   0.876   6.656   2.039  0.2952  0.3852  0.7572
 7639SOL    HW123857   0.920   6.584   1.993 -1.7167  0.1757 -0.9787
 7639SOL    HW223858   0.904   6.646   2.130  1.8698 -1.1862  0.1644
 7640SOL     OW23859   2.187   1.825   3.634 -0.1129  0.4828 -0.4078
 7640SOL    HW123860   2.235   1.753   3.674 -1.5229 -0.0250  0.4491
 7640SOL    HW223861   2.160   1.792   3.549  1.0247  0.7739 -0.8966
 7641SOL     OW23862   0.002   0.879   0.189 -0.3029 -0.0877 -0.4141
 7641SOL    HW123863  -0.030   0.843   0.106  0.4892  2.8892 -2.1705
 7641SOL    HW223864  -0.062   0.946   0.212  0.5584  0.5165  0.2815
 7642SOL     OW23865   4.753   5.543   0.856 -0.6908 -0.0787  0.1249
 7642SOL    HW123866   4.713   5.628   0.836  1.9096  1.8639  2.3950
 7642SOL    HW223867   4.722   5.522   0.944  1.3149  0.3870  1.0229
 7643SOL     OW23868   1.772   0.923   2.612  0.9425 -0.1363  0.1521
 7643SOL    HW123869   1.801   0.837   2.580  0.6892 -0.9846  2.0582
 7643SOL    HW223870   1.736   0.905   2.699 -2.3926  1.3684 -0.7892
 7644SOL     OW23871   4.756   4.830   1.461 -0.4070  0.5239 -0.2361
 7644SOL    HW123872   4.693   4.783   1.406 -0.8005  0.2943  0.3882
 7644SOL    HW223873   4.728   4.921   1.457 -0.5547  0.4774 -0.2660
 7645SOL     OW23874   0.440   7.187   3.152  0.3414 -0.5868 -0.1453
 7645SOL    HW123875   0.476   7.103   3.125 -0.4998 -0.8824 -0.3731
 7645SOL    HW223876   0.475   7.250   3.089  0.5934 -0.8356 -0.2531
 7646SOL     OW23877   7.386   6.742   3.181  0.4487 -0.0715  0.2942
 7646SOL    HW123878   7.353   6.661   3.221 -0.1966 -0.8303 -1.6669
 7646SOL    HW223879   7.383   6.807   3.252 -0.7747 -1.2996  1.4254
 7647SOL     OW23880   4.983   3.519   3.286 -0.6626 -0.0379 -0.5825
 7647SOL    HW123881   4.890   3.537   3.275 -0.9220 -1.7233 -1.4913
 7647SOL    HW223882   4.988   3.451   3.353 -0.0734  0.2037 -0.3712
 7648SOL     OW23883   6.887   0.212   3.624 -0.0301 -0.7032  0.3725
 7648SOL    HW123884   6.865   0.183   3.536 -3.0365  1.8503  0.0788
 7648SOL    HW223885   6.828   0.163   3.682  1.1340 -1.5492  0.8723
 7649SOL     OW23886   4.882   0.524   7.181  0.3045  0.0282  0.4982
 7649SOL    HW123887   4.857   0.530   7.273  0.2230 -1.7653  0.6315
 7649SOL    HW223888   4.901   0.614   7.155 -1.4498  0.8224  1.7467
 7650SOL     OW23889   6.307   2.819   3.190  0.0075 -0.0430  0.1227
 7650SOL    HW123890   6.378   2.846   3.247 -0.5952 -0.4291  1.0750
 7650SOL    HW223891   6.267   2.902   3.161  0.8018  0.1696 -0.3854
 7651SOL     OW23892   2.868   5.771   5.673 -0.5119 -0.2127 -0.6703
 7651SOL    HW123893   2.934   5.839   5.680 -0.9475  0.0512  1.7268
 7651SOL    HW223894   2.785   5.816   5.688 -1.3337 -0.5232 -3.6886
 7652SOL     OW23895   5.677   1.743   6.298  0.3854  0.1002 -0.1008
 7652SOL    HW123896   5.727   1.754   6.218 -0.4894  2.2129 -0.4421
 7652SOL    HW223897   5.629   1.661   6.286  1.6101 -0.5064 -0.9601
 7653SOL     OW23898   4.903   6.579   5.018  0.1023  0.1205 -0.3691
 7653SOL    HW123899   4.852   6.659   5.032 -1.0545 -0.7205  0.4306
 7653SOL    HW223900   4.838   6.515   4.989  0.7914 -0.8614  0.2222
 7654SOL     OW23901   1.746   4.027   0.298 -0.1577  0.3642 -0.0029
 7654SOL    HW123902   1.692   4.083   0.242  0.0023  0.8322  0.3125
 7654SOL    HW223903   1.688   4.003   0.370  0.1941  1.2479  0.5811
 7655SOL     OW23904   4.585   5.886   6.281 -0.0468  0.4512  0.5078
 7655SOL    HW123905   4.588   5.981   6.271 -1.1022  0.3502 -1.0577
 7655SOL    HW223906   4.627   5.870   6.365  0.9660  2.2242  0.3857
 7656SOL     OW23907   5.172   3.086   6.658  0.2848  0.5505  0.3001
 7656SOL    HW123908   5.191   2.992   6.662 -1.4468  0.0943 -1.0702
 7656SOL    HW223909   5.253   3.124   6.625  0.7691 -0.5611  0.1418
 7657SOL     OW23910   5.049   5.756   5.545  0.6926 -0.2752  0.0884
 7657SOL    HW123911   5.029   5.761   5.639  0.1438 -0.3599 -0.0192
 7657SOL    HW223912   5.126   5.700   5.540  0.0333 -1.2481  0.4102
 7658SOL     OW23913   2.833   1.352   6.889  0.4934  0.1482  0.1671
 7658SOL    HW123914   2.853   1.259   6.878  0.1668  0.0919  0.0094
 7658SOL    HW223915   2.745   1.361   6.852 -0.2846  0.1295  1.9353
 7659SOL     OW23916   0.971   1.637   6.156 -0.3591  0.1552  0.5322
 7659SOL    HW123917   0.924   1.719   6.142 -1.0364 -0.0721  1.3485
 7659SOL    HW223918   0.904   1.576   6.189  0.3515 -0.4024  0.9756
 7660SOL     OW23919   1.794   1.346   6.721  0.4958 -0.2223  0.2032
 7660SOL    HW123920   1.731   1.300   6.665 -1.0099 -0.0235  1.6727
 7660SOL    HW223921   1.786   1.304   6.806  1.1328  0.9025  0.8466
 7661SOL     OW23922   5.923   3.593   2.441  0.4477  0.1352  0.3801
 7661SOL    HW123923   5.886   3.515   2.483 -2.3883  0.7537 -0.7006
 7661SOL    HW223924   5.852   3.657   2.446  0.7028  0.9072 -3.3622
 7662SOL     OW23925   6.252   1.552   5.380  0.0571  0.3837  0.6127
 7662SOL    HW123926   6.214   1.520   5.462  0.5612 -1.1262  0.2774
 7662SOL    HW223927   6.180   1.597   5.336 -1.6107 -2.8290 -0.2364
 7663SOL     OW23928   4.406   1.113   6.703 -0.5718 -0.6062  0.0036
 7663SOL    HW123929   4.375   1.115   6.793  2.9736 -0.9534  1.3921
 7663SOL    HW223930   4.358   1.041   6.662 -2.6460 -0.0952  1.3972
 7664SOL     OW23931   2.629   1.515   2.438  0.4124  0.8458  0.7473
 7664SOL    HW123932   2.661   1.530   2.349  0.0950 -1.7351  0.1274
 7664SOL    HW223933   2.703   1.478   2.485  0.2933  1.2796  1.2955
 7665SOL     OW23934   0.304   2.442   6.350  0.5439  0.4668 -0.6741
 7665SOL    HW123935   0.218   2.476   6.376  0.7939  1.3758 -1.0005
 7665SOL    HW223936   0.284   2.369   6.292 -0.0075  0.4433 -0.4651
 7666SOL     OW23937   0.300   6.048   7.152  0.1448  0.1557  0.0859
 7666SOL    HW123938   0.212   6.076   7.177  0.5470 -0.4304  2.3453
 7666SOL    HW223939   0.295   5.953   7.147  0.8715  0.0343  1.2883
 7667SOL     OW23940   6.674   1.042   6.594 -0.3184 -0.2474 -0.0705
 7667SOL    HW123941   6.753   1.084   6.559 -1.0275 -0.7269 -2.3568
 7667SOL    HW223942   6.695   0.949   6.594 -0.9062 -0.3885 -0.8063
 7668SOL     OW23943   3.094   2.536   7.111  0.9525  0.2367  0.6797
 7668SOL    HW123944   3.165   2.581   7.065  0.9318 -0.7322 -0.3458
 7668SOL    HW223945   3.137   2.491   7.184  0.8683  2.4852  2.2245
 7669SOL     OW23946   7.165   7.361   5.218 -0.5590 -0.4126 -0.1524
 7669SOL    HW123947   7.194   7.332   5.304  1.3067 -1.4241 -1.0460
 7669SOL    HW223948   7.203   7.448   5.207 -1.2315 -0.0668  0.2395
 7670SOL     OW23949   4.609   5.700   4.985 -0.2063  0.3268 -0.3069
 7670SOL    HW123950   4.665   5.751   5.043 -0.0572  0.2412 -0.3766
 7670SOL    HW223951   4.550   5.653   5.045  0.0780  0.0844 -0.2122
 7671SOL     OW23952   6.505   1.027   0.755  0.1780 -0.1115 -0.0429
 7671SOL    HW123953   6.434   1.069   0.706 -1.8321 -1.9202  1.1171
 7671SOL    HW223954   6.530   0.952   0.702  0.9815  0.3005 -0.2605
 7672SOL     OW23955   1.808   1.767   4.782  0.2268  0.0035 -0.1118
 7672SOL    HW123956   1.806   1.673   4.764 -2.2003 -0.0342 -0.0343
 7672SOL    HW223957   1.718   1.796   4.765  1.0240  2.4105 -0.5846
 7673SOL     OW23958   0.475   0.052   0.812  0.0796 -0.5757  0.2412
 7673SOL    HW123959   0.558   0.099   0.816 -0.5092  0.5689 -0.3873
 7673SOL    HW223960   0.494  -0.034   0.849  1.5247 -0.3168  0.1575
 7674SOL     OW23961   4.003   3.083   4.309  0.2474 -0.3789 -0.1145
 7674SOL    HW123962   4.046   3.116   4.388  1.6847  1.8903 -1.7114
 7674SOL    HW223963   3.916   3.123   4.311  0.5675  0.3407 -0.0398
 7675SOL     OW23964   5.596   1.847   3.232 -0.2641 -0.4862 -0.6333
 7675SOL    HW123965   5.595   1.943   3.235  0.8969 -0.4588 -0.6676
 7675SOL    HW223966   5.559   1.826   3.146  0.2351 -0.0357 -0.9699
 7676SOL     OW23967   7.304   3.643   3.077  0.2254  0.7464  0.1819
 7676SOL    HW123968   7.266   3.640   3.165 -2.3338  0.4834 -0.8668
 7676SOL    HW223969   7.290   3.732   3.047  0.0505  0.5263 -0.3991
 7677SOL     OW23970   1.534   4.272   4.802 -0.2622  0.3518 -0.7289
 7677SOL    HW123971   1.571   4.360   4.791 -0.0536  0.2914 -0.5269
 7677SOL    HW223972   1.610   4.216   4.817 -0.4989  0.4367  1.0940
 7678SOL     OW23973   0.888   5.800   0.112 -0.4172 -0.1585 -0.5124
 7678SOL    HW123974   0.949   5.869   0.084  0.9607 -1.9702 -2.3138
 7678SOL    HW223975   0.931   5.760   0.189 -0.0119 -0.5202 -0.9203
 7679SOL     OW23976   1.820   1.589   0.886 -0.2050 -0.1826  0.0748
 7679SOL    HW123977   1.911   1.607   0.908  0.3571 -1.9321 -0.6909
 7679SOL    HW223978   1.824   1.519   0.821 -2.0900 -0.0867 -0.2024
 7680SOL     OW23979   1.539   5.701   0.893 -0.6622  0.6673  0.2904
 7680SOL    HW123980   1.563   5.776   0.837 -0.5405  1.1147  0.9250
 7680SOL    HW223981   1.596   5.630   0.864  0.3665  1.2811  0.7365
 7681SOL     OW23982   0.545   3.602   1.573 -0.1070  0.1859  0.6955
 7681SOL    HW123983   0.632   3.592   1.609 -0.1515  0.2801  0.8322
 7681SOL    HW223984   0.514   3.513   1.557  0.6207  0.1739 -0.8321
 7682SOL     OW23985   7.385   3.204   6.983  0.1854 -0.1941 -0.0074
 7682SOL    HW123986   7.307   3.162   7.020 -0.4623 -0.3784 -1.4997
 7682SOL    HW223987   7.393   3.167   6.896  0.7588  1.3350 -0.6428
 7683SOL     OW23988   3.549   1.613   2.805 -0.1109  0.2216  0.5055
 7683SOL    HW123989   3.576   1.559   2.879 -0.6978 -3.0400 -1.4789
 7683SOL    HW223990   3.470   1.658   2.836  0.0524 -0.4890  2.0596
 7684SOL     OW23991   0.729   2.047   5.399 -0.0391  0.5719 -0.6689
 7684SOL    HW123992   0.699   1.961   5.368 -2.0574  0.1550  2.1289
 7684SOL    HW223993   0.659   2.078   5.456  1.9624  2.7510  0.7668
 7685SOL     OW23994   1.013   5.604   4.983 -0.2900 -0.1285  0.5267
 7685SOL    HW123995   1.062   5.581   4.904 -0.2911  1.2153  0.1035
 7685SOL    HW223996   1.049   5.547   5.051 -0.3452 -1.3703 -0.4359
 7686SOL     OW23997   6.624   0.634   3.493 -0.0091 -0.0237 -0.4344
 7686SOL    HW123998   6.611   0.722   3.528  0.9114 -0.8485  2.2046
 7686SOL    HW223999   6.540   0.613   3.451 -0.9913  1.3413  0.7181
 7687SOL     OW24000   1.158   6.519   2.308 -0.0551  0.6617  0.0434
 7687SOL    HW124001   1.107   6.458   2.361  0.1783  1.5068  1.2934
 7687SOL    HW224002   1.243   6.475   2.297  0.5671  1.2423  2.0424
 7688SOL     OW24003   5.041   2.163   6.692  0.0192  0.2029 -0.4789
 7688SOL    HW124004   5.080   2.198   6.611 -1.4998 -1.3063 -1.9633
 7688SOL    HW224005   4.953   2.136   6.666 -1.0572  0.9563  2.0719
 7689SOL     OW24006   5.155   5.350   0.642 -0.6874 -0.5149  0.2164
 7689SOL    HW124007   5.226   5.383   0.697  1.0001 -0.8607 -1.6125
 7689SOL    HW224008   5.092   5.421   0.638  0.6096  0.6750  0.1509
 7690SOL     OW24009   5.378   3.403   0.754 -0.0348  0.3324  0.3511
 7690SOL    HW124010   5.403   3.446   0.672 -2.2983  1.3881  0.1322
 7690SOL    HW224011   5.450   3.420   0.814  1.3832  0.0854 -1.2153
 7691SOL     OW24012   4.537   6.515   5.405 -0.3527 -0.2186 -0.9201
 7691SOL    HW124013   4.478   6.441   5.421  0.0093 -0.0622  1.5547
 7691SOL    HW224014   4.624   6.482   5.426 -0.0086  0.5175 -1.1397
 7692SOL     OW24015   1.906   1.034   7.318 -0.6179 -0.2523  0.0248
 7692SOL    HW124016   1.989   1.080   7.305  0.2440 -1.9529 -0.8098
 7692SOL    HW224017   1.841   1.092   7.279  0.4136  0.2829 -0.9834
 7693SOL     OW24018   5.430   2.495   0.646  0.0612  0.0704  0.1879
 7693SOL    HW124019   5.467   2.422   0.596  0.2237 -0.3215  0.8661
 7693SOL    HW224020   5.409   2.561   0.580  2.2268  0.4349 -0.2199
 7694SOL     OW24021   3.527   4.907   3.396 -0.4048 -0.1870  0.2801
 7694SOL    HW124022   3.475   4.923   3.475  0.9606  1.1097  0.9874
 7694SOL    HW224023   3.606   4.863   3.428 -0.2276 -0.4492 -0.4940
 7695SOL     OW24024   5.472   3.220   4.802  0.1657  0.1200  0.5437
 7695SOL    HW124025   5.393   3.166   4.813  0.5881 -1.0102 -1.5099
 7695SOL    HW224026   5.460   3.292   4.865 -2.8729  0.4145 -0.1888
 7696SOL     OW24027   2.901   1.428   0.307  0.3364 -0.1557 -0.0568
 7696SOL    HW124028   2.937   1.501   0.257  1.7060 -0.5328  0.3237
 7696SOL    HW224029   2.857   1.469   0.382 -0.4187  0.3364 -0.7517
 7697SOL     OW24030   6.548   6.433   4.099 -0.2043 -0.2891  0.4937
 7697SOL    HW124031   6.620   6.412   4.157  1.4085  2.0044 -0.5164
 7697SOL    HW224032   6.469   6.420   4.152  1.0669 -0.4106  2.4464
 7698SOL     OW24033   1.613   1.384   4.917  0.8743  0.0642 -0.2472
 7698SOL    HW124034   1.646   1.309   4.966 -0.2006 -1.9413 -2.3807
 7698SOL    HW224035   1.518   1.378   4.923  0.7361  0.3495 -1.6792
 7699SOL     OW24036   4.763   2.151   3.188 -0.1769 -0.1287  0.4018
 7699SOL    HW124037   4.724   2.068   3.162 -0.7639  0.4310 -0.5528
 7699SOL    HW224038   4.820   2.175   3.115 -0.1899  0.4212  0.5638
 7700SOL     OW24039   4.995   1.902   4.788  0.6360 -0.3718 -0.7040
 7700SOL    HW124040   5.033   1.839   4.727 -1.4472 -2.1348 -0.3037
 7700SOL    HW224041   5.044   1.889   4.870 -0.2396 -2.0815 -0.4040
 7701SOL     OW24042   7.379   1.692   3.430  0.2380  0.0329  0.0750
 7701SOL    HW124043   7.469   1.674   3.456  0.2254  1.8818  1.6601
 7701SOL    HW224044   7.382   1.699   3.335  1.2764 -2.1981 -0.1033
 7702SOL     OW24045   1.732   6.735   5.516 -0.0125  0.2565  0.0837
 7702SOL    HW124046   1.665   6.712   5.580  2.2026 -0.9669  2.1063
 7702SOL    HW224047   1.745   6.655   5.465  0.3832  0.2825  0.1414
 7703SOL     OW24048   4.211   1.121   1.590 -0.9410 -0.4183 -0.0677
 7703SOL    HW124049   4.259   1.095   1.511 -1.3447  0.8174 -0.7612
 7703SOL    HW224050   4.232   1.214   1.600 -1.4158 -0.4084  0.9141
 7704SOL     OW24051   3.699   2.280   4.255  0.2398  0.3434 -0.1750
 7704SOL    HW124052   3.641   2.213   4.292  0.0974  0.4156 -0.2680
 7704SOL    HW224053   3.730   2.330   4.331 -0.1771  0.5905 -0.1670
 7705SOL     OW24054   0.359   4.754   3.892 -0.2115  0.2346 -0.4380
 7705SOL    HW124055   0.407   4.713   3.964  0.5559  0.0321 -1.0551
 7705SOL    HW224056   0.301   4.817   3.935  0.2920  0.1758  0.3493
 7706SOL     OW24057   0.258   6.021   6.678  0.1452  0.0095  0.1350
 7706SOL    HW124058   0.250   5.933   6.714  0.8899  0.3058  1.0611
 7706SOL    HW224059   0.348   6.047   6.697 -0.2060  1.1591  0.3299
 7707SOL     OW24060   5.593   6.880   7.260  0.2460 -0.1858  0.0129
 7707SOL    HW124061   5.580   6.965   7.218  0.0110 -0.7603 -1.1339
 7707SOL    HW224062   5.507   6.837   7.255  0.1797 -0.2390  1.2148
 7708SOL     OW24063   3.818   2.205   6.591  0.3056  0.5003  0.3379
 7708SOL    HW124064   3.858   2.269   6.532  1.2228  0.6627  1.1082
 7708SOL    HW224065   3.767   2.147   6.534  0.0158  1.5067 -0.4405
 7709SOL     OW24066   5.677   4.379   6.182  0.3215  0.0691  0.0548
 7709SOL    HW124067   5.687   4.438   6.256 -1.1081  3.5064 -2.2787
 7709SOL    HW224068   5.584   4.379   6.162  0.3632 -2.4908 -0.5157
 7710SOL     OW24069   3.943   2.226   4.598  0.0153 -0.5680 -0.1620
 7710SOL    HW124070   3.930   2.152   4.657 -0.6732 -0.2351  0.1139
 7710SOL    HW224071   4.021   2.202   4.547 -0.5294 -1.7378 -0.4825
 7711SOL     OW24072   5.157   7.067   6.615 -0.1449  0.1245 -0.2102
 7711SOL    HW124073   5.243   7.028   6.631  0.4897  1.8001  0.7156
 7711SOL    HW224074   5.115   7.071   6.701 -1.7315 -1.8335 -0.8092
 7712SOL     OW24075   7.310   2.030   7.062 -0.4513  0.5121  0.6441
 7712SOL    HW124076   7.380   1.970   7.087  1.3072  1.0797 -2.4278
 7712SOL    HW224077   7.243   1.974   7.024  0.3282  0.2657 -0.4247
 7713SOL     OW24078   7.186   1.755   7.038  0.2268 -0.2499 -0.2657
 7713SOL    HW124079   7.270   1.744   7.083 -0.4155 -0.9172  0.8132
 7713SOL    HW224080   7.148   1.668   7.037 -0.4980  0.0638 -0.6698
 7714SOL     OW24081   1.153   0.776   3.999  0.3529  0.4827  0.2599
 7714SOL    HW124082   1.129   0.792   4.090 -0.0225 -0.7394  0.3952
 7714SOL    HW224083   1.078   0.730   3.962  0.8561  0.1974 -0.4290
 7715SOL     OW24084   0.821   5.385   2.274 -0.0578 -0.4045 -0.4986
 7715SOL    HW124085   0.787   5.305   2.234 -0.4113 -1.5067  1.8115
 7715SOL    HW224086   0.916   5.374   2.271 -0.0882 -0.5898 -0.8089
 7716SOL     OW24087   0.934   3.421   0.860  0.0244 -0.1548  0.4841
 7716SOL    HW124088   0.955   3.471   0.781  2.4905 -2.1350 -0.2339
 7716SOL    HW224089   0.959   3.478   0.933 -0.6650  1.0279 -0.1845
 7717SOL     OW24090   0.020   1.675   2.001 -0.6422 -0.0197  0.5533
 7717SOL    HW124091   0.013   1.615   2.075 -0.4992 -1.6871 -0.7235
 7717SOL    HW224092  -0.063   1.724   2.002 -0.7843 -0.2625  1.5926
 7718SOL     OW24093   2.033   4.021   6.770  0.1345  0.1397  0.5111
 7718SOL    HW124094   2.051   4.026   6.864 -0.8566 -0.2751  0.7431
 7718SOL    HW224095   2.105   4.069   6.729  0.8017 -0.0252  1.4520
 7719SOL     OW24096   6.555   1.901   5.218 -0.5354 -0.0422 -0.6384
 7719SOL    HW124097   6.514   1.946   5.292 -1.1174 -1.8777  0.2217
 7719SOL    HW224098   6.563   1.968   5.151 -1.6466  1.2605  0.4629
 7720SOL     OW24099   6.864   2.506   3.739  0.0266 -0.3298 -0.0378
 7720SOL    HW124100   6.902   2.425   3.774  2.2940  0.0103 -1.5055
 7720SOL    HW224101   6.829   2.481   3.654  0.8716  0.2200 -0.5662
 7721SOL     OW24102   6.595   2.956   2.486  0.1120 -0.7322  0.4189
 7721SOL    HW124103   6.586   2.878   2.540  0.0114 -0.7308  0.4053
 7721SOL    HW224104   6.682   2.990   2.506  0.2611 -0.9972  0.2246
 7722SOL     OW24105   2.091   0.004   3.655 -0.1325  0.0644 -0.0827
 7722SOL    HW124106   2.173  -0.045   3.647  0.0849  0.2689  0.7647
 7722SOL    HW224107   2.035  -0.053   3.708 -0.2012  0.3461  0.1438
 7723SOL     OW24108   7.284   6.215   2.650 -0.4914 -0.0676 -0.3296
 7723SOL    HW124109   7.356   6.207   2.587  0.2434  0.8108  0.3695
 7723SOL    HW224110   7.327   6.210   2.735 -1.4799 -1.3060  0.1342
 7724SOL     OW24111   5.886   3.089   1.387  0.0173 -0.1038  0.2236
 7724SOL    HW124112   5.913   3.092   1.296 -0.5859  2.1839  0.0498
 7724SOL    HW224113   5.805   3.038   1.387  0.6592 -1.1493 -0.2990
 7725SOL     OW24114   0.555   5.841   0.433  0.4267 -0.2461 -0.2748
 7725SOL    HW124115   0.609   5.842   0.513  0.6182  0.2248 -0.4066
 7725SOL    HW224116   0.469   5.812   0.463  0.5960 -0.4355  0.0400
 7726SOL     OW24117   5.063   4.760   6.085 -0.3798  0.1798 -0.2656
 7726SOL    HW124118   5.045   4.673   6.120  0.1636  0.0513 -0.2952
 7726SOL    HW224119   5.156   4.758   6.063 -0.3138  0.8313 -0.0774
 7727SOL     OW24120   7.157   0.343   1.722 -1.1821  0.6925 -0.0775
 7727SOL    HW124121   7.163   0.333   1.627 -0.4761 -0.7322  0.0910
 7727SOL    HW224122   7.065   0.329   1.742 -1.4854  1.7907 -0.6149
 7728SOL     OW24123   6.754   3.628   6.996 -0.2855  0.5293 -0.4716
 7728SOL    HW124124   6.698   3.697   7.033 -2.7117 -0.7502 -1.5192
 7728SOL    HW224125   6.765   3.565   7.068 -0.6853  0.5190 -0.4166
 7729SOL     OW24126   5.092   3.009   5.446 -0.6034 -0.0492  0.7539
 7729SOL    HW124127   5.127   3.003   5.357 -2.1657 -0.8180  0.1697
 7729SOL    HW224128   5.113   2.925   5.485  2.3152  1.1315  2.0393
 7730SOL     OW24129   3.244   5.347   2.026  0.3770  0.0185 -0.0901
 7730SOL    HW124130   3.270   5.287   2.096 -0.1608  1.4610  1.4154
 7730SOL    HW224131   3.153   5.323   2.007  0.5035 -0.3364 -0.2487
 7731SOL     OW24132   7.420   2.381   5.075  0.1184  0.4166 -0.2920
 7731SOL    HW124133   7.414   2.411   5.165 -1.2194  0.0858 -0.2473
 7731SOL    HW224134   7.374   2.447   5.024  0.9452  0.6480 -0.7511
 7732SOL     OW24135   2.461   6.629   5.724 -0.4329 -0.2156 -0.0934
 7732SOL    HW124136   2.455   6.554   5.782 -2.4586 -0.2417 -0.2726
 7732SOL    HW224137   2.533   6.681   5.760  0.5515 -1.8711  0.4307
 7733SOL     OW24138   1.805   5.730   0.021 -0.0746  0.8812  0.2047
 7733SOL    HW124139   1.836   5.729  -0.070 -0.0727  0.2504  0.2052
 7733SOL    HW224140   1.877   5.690   0.070 -0.7141 -0.2281  0.2607
 7734SOL     OW24141   4.644   0.724   1.028  0.3778 -0.2674 -0.1308
 7734SOL    HW124142   4.687   0.761   1.105 -0.5830  0.1299  0.2377
 7734SOL    HW224143   4.582   0.660   1.064 -2.4396  2.1675 -0.2202
 7735SOL     OW24144   4.064   6.634   5.233 -0.3035 -0.3799 -0.3542
 7735SOL    HW124145   4.062   6.600   5.143  2.2484 -0.9522 -0.2537
 7735SOL    HW224146   4.107   6.719   5.226 -0.1832 -0.3840  0.3325
 7736SOL     OW24147   2.049   4.693   2.233  0.1722 -0.2145  0.0976
 7736SOL    HW124148   2.077   4.664   2.320 -0.8341  0.5150  0.6865
 7736SOL    HW224149   2.109   4.765   2.212  0.0352  0.0107  0.4658
 7737SOL     OW24150   2.137   5.987   5.288 -0.1013 -0.4206 -0.0506
 7737SOL    HW124151   2.096   5.903   5.308 -0.1844 -0.5380 -0.6990
 7737SOL    HW224152   2.220   5.963   5.246  1.5701 -0.2383  2.8513
 7738SOL     OW24153   0.485   2.614   2.352  0.1540 -0.3227 -0.1165
 7738SOL    HW124154   0.464   2.525   2.381 -0.7188 -0.2467 -0.5022
 7738SOL    HW224155   0.421   2.633   2.284 -1.4882  1.6237  1.8550
 7739SOL     OW24156   5.890   2.849   1.660 -0.1919  0.5008 -0.1205
 7739SOL    HW124157   5.806   2.814   1.690  0.0738  1.2530  1.6093
 7739SOL    HW224158   5.952   2.827   1.731  1.0782  0.0071 -1.3324
 7740SOL     OW24159   2.037   5.007   2.987 -0.4655 -0.1715  0.5886
 7740SOL    HW124160   2.038   4.919   3.025  1.7101 -0.5000 -0.0982
 7740SOL    HW224161   2.054   5.065   3.061  2.9431 -0.7506  0.4259
 7741SOL     OW24162   3.465   6.664   1.043 -0.1197  0.4192 -0.0295
 7741SOL    HW124163   3.450   6.744   1.094  0.5984  0.3041  0.3781
 7741SOL    HW224164   3.390   6.608   1.064 -1.0942  1.3214 -1.0134
 7742SOL     OW24165   4.593   5.918   1.106  0.4345 -0.8291  0.0111
 7742SOL    HW124166   4.587   5.864   1.185 -0.9477 -1.2776 -0.3668
 7742SOL    HW224167   4.520   5.979   1.113 -0.3651 -1.5676 -1.3926
 7743SOL     OW24168   2.967   1.931   1.326  0.3042 -0.1675 -0.4161
 7743SOL    HW124169   2.947   2.015   1.285 -0.1123  0.9349  1.8941
 7743SOL    HW224170   3.056   1.910   1.298  0.7223  1.4680 -0.3936
 7744SOL     OW24171   0.342   6.762   1.448  0.3661 -0.3660  0.1961
 7744SOL    HW124172   0.359   6.843   1.400  0.2384 -1.9871 -2.8113
 7744SOL    HW224173   0.255   6.735   1.419  0.9101 -2.2084  0.1689
 7745SOL     OW24174   4.226   5.123   3.623  0.0153  0.2412 -1.1970
 7745SOL    HW124175   4.171   5.150   3.697  1.3838 -3.0898  1.3222
 7745SOL    HW224176   4.164   5.092   3.557 -1.3180 -1.4919  0.7223
 7746SOL     OW24177   2.651   0.792   0.894 -0.7228 -0.1806 -0.0609
 7746SOL    HW124178   2.655   0.728   0.823 -0.2114 -1.7217  1.2936
 7746SOL    HW224179   2.721   0.854   0.874  0.1174 -1.1956 -0.3655
 7747SOL     OW24180   3.531   7.256   0.590 -0.0035 -0.1616 -0.2216
 7747SOL    HW124181   3.559   7.302   0.511 -0.4847 -0.6211 -0.6662
 7747SOL    HW224182   3.579   7.298   0.661 -1.0830  1.6596 -0.4944
 7748SOL     OW24183   4.929   3.388   1.218  0.7071 -0.5000  0.4233
 7748SOL    HW124184   4.990   3.336   1.270  3.0772 -0.0094 -1.6528
 7748SOL    HW224185   4.898   3.456   1.278  1.9812 -0.9397  1.6413
 7749SOL     OW24186   6.306   6.553   7.120 -0.0836 -0.4507  0.1425
 7749SOL    HW124187   6.277   6.641   7.094 -0.2886 -1.2776 -2.7556
 7749SOL    HW224188   6.350   6.519   7.042  0.5691 -2.6875  1.4279
 7750SOL     OW24189   0.135   2.978   5.351 -0.2224 -0.1075  0.4296
 7750SOL    HW124190   0.119   2.886   5.331  0.9862 -0.1574 -0.4637
 7750SOL    HW224191   0.070   3.000   5.417 -0.4094 -1.6570  0.8105
 7751SOL     OW24192   2.945   5.767   1.304 -0.0849  0.0601  0.5919
 7751SOL    HW124193   3.021   5.775   1.247 -1.0095 -1.0533 -0.8602
 7751SOL    HW224194   2.981   5.737   1.388  1.1196  0.0096  0.0835
 7752SOL     OW24195   5.932   5.434   1.797 -0.0101  0.0641  0.2825
 7752SOL    HW124196   5.867   5.454   1.865  0.9737 -0.2123  1.3341
 7752SOL    HW224197   5.917   5.342   1.775 -0.1811  0.0909  0.2872
 7753SOL     OW24198   1.063   0.961   4.880 -0.1277 -0.3841 -0.1500
 7753SOL    HW124199   0.999   0.905   4.834  1.4402 -0.8151 -1.9361
 7753SOL    HW224200   1.145   0.912   4.876  0.5033  0.4578  1.4956
 7754SOL     OW24201   4.876   5.770   1.372  0.1746 -0.4725  0.0983
 7754SOL    HW124202   4.789   5.751   1.337  0.1962  0.6639 -0.6242
 7754SOL    HW224203   4.935   5.756   1.298  0.2934  1.3294 -0.1914
 7755SOL     OW24204   0.495   5.623   5.476 -0.5518 -0.0861 -0.0420
 7755SOL    HW124205   0.460   5.694   5.423 -0.2931 -0.5039 -0.7808
 7755SOL    HW224206   0.431   5.552   5.467  0.6703 -1.0439 -1.8209
 7756SOL     OW24207   0.130   0.676   1.886  0.0657 -0.1571  0.1210
 7756SOL    HW124208   0.103   0.671   1.794  0.0938  5.0198 -0.4587
 7756SOL    HW224209   0.056   0.716   1.931  1.0840 -0.1076  1.8282
 7757SOL     OW24210   5.136   3.741   4.823  0.0428  0.4372  0.2948
 7757SOL    HW124211   5.122   3.834   4.805 -0.1179  0.1028 -1.5205
 7757SOL    HW224212   5.101   3.696   4.746  1.4330 -1.0483  0.4672
 7758SOL     OW24213   4.139   2.072   6.501 -0.0002 -0.2428 -0.3233
 7758SOL    HW124214   4.114   2.150   6.552  1.5028 -0.7095  1.2288
 7758SOL    HW224215   4.217   2.039   6.546  0.0151 -2.0377 -1.6003
 7759SOL     OW24216   3.436   3.072   1.370 -0.3531 -0.1630  0.7277
 7759SOL    HW124217   3.489   3.066   1.449 -0.4922  0.9597  0.9194
 7759SOL    HW224218   3.477   3.142   1.319  1.0051 -2.2211 -1.1995
 7760SOL     OW24219   0.251   0.853   4.845 -0.4898  0.7460 -0.0972
 7760SOL    HW124220   0.209   0.828   4.763 -0.4446  0.1413  0.0559
 7760SOL    HW224221   0.331   0.799   4.849 -1.8571 -1.3396  1.6335
 7761SOL     OW24222   7.083   1.723   2.577  0.7717  0.3658  0.4105
 7761SOL    HW124223   7.178   1.731   2.574  0.7399  0.6934 -2.4640
 7761SOL    HW224224   7.052   1.772   2.501 -1.6143 -0.7375  0.5619
 7762SOL     OW24225   2.130   2.274   2.520 -0.7112  0.3025 -0.1181
 7762SOL    HW124226   2.167   2.250   2.435 -1.1583  1.4176 -0.6620
 7762SOL    HW224227   2.051   2.221   2.528 -2.0966  1.9730 -1.6389
 7763SOL     OW24228   0.715   2.984   5.608  0.0489 -0.1932 -0.0458
 7763SOL    HW124229   0.739   2.957   5.696 -0.1707 -0.3349 -0.0276
 7763SOL    HW224230   0.735   2.908   5.553  0.8512  0.1429 -0.2302
 7764SOL     OW24231   2.305   1.523   4.222 -0.3789  0.5685 -0.0140
 7764SOL    HW124232   2.400   1.533   4.223 -0.3704  0.4734  0.9120
 7764SOL    HW224233   2.272   1.608   4.192 -0.0200  0.7703  0.1580
 7765SOL     OW24234   3.107   2.527   0.257  0.1159 -0.3687  0.6720
 7765SOL    HW124235   3.105   2.556   0.166  1.6227 -0.5164  0.5592
 7765SOL    HW224236   3.140   2.437   0.253 -0.6349 -0.6797  1.3027
 7766SOL     OW24237   5.435   4.997   7.253  0.0152  0.1389 -0.2066
 7766SOL    HW124238   5.355   5.041   7.280  0.4892  0.1969  1.1424
 7766SOL    HW224239   5.501   5.066   7.250  0.6639 -0.3663  1.5114
 7767SOL     OW24240   3.521   1.325   5.770  0.0304  0.2015 -0.4100
 7767SOL    HW124241   3.474   1.387   5.713 -1.4454  0.0129  0.5380
 7767SOL    HW224242   3.457   1.302   5.837  0.6877 -2.0514 -0.4905
 7768SOL     OW24243   2.123   6.859   6.391  0.0352  0.1506 -0.0676
 7768SOL    HW124244   2.170   6.863   6.474 -0.5530 -0.9318  0.3472
 7768SOL    HW224245   2.061   6.932   6.394  0.7971  0.8127 -0.0717
 7769SOL     OW24246   4.752   3.719   1.626 -0.3593 -0.5070 -0.1875
 7769SOL    HW124247   4.814   3.680   1.687 -1.6281 -0.6116  1.0876
 7769SOL    HW224248   4.704   3.783   1.678  0.0727  1.0907 -1.6571
 7770SOL     OW24249   1.310   3.817   6.232 -0.7263 -0.3469  0.6540
 7770SOL    HW124250   1.330   3.736   6.279 -2.7148 -1.1763  0.1830
 7770SOL    HW224251   1.394   3.862   6.224  0.2899 -1.9781  1.6425
 7771SOL     OW24252   1.681   1.191   4.520 -0.4521 -0.0073 -0.2865
 7771SOL    HW124253   1.759   1.142   4.496  0.1901  2.3739 -3.7688
 7771SOL    HW224254   1.608   1.139   4.487  0.1759  0.8030 -3.2288
 7772SOL     OW24255   3.774   1.320   6.653 -0.5539  0.0212 -0.5708
 7772SOL    HW124256   3.770   1.323   6.749 -0.5781 -1.6969 -0.4805
 7772SOL    HW224257   3.778   1.226   6.632 -0.0054  0.3778 -2.2369
 7773SOL     OW24258   1.029   2.833   6.907  0.2948  0.2122 -0.4106
 7773SOL    HW124259   0.980   2.762   6.865 -1.0620  0.6934  0.3066
 7773SOL    HW224260   0.964   2.880   6.960  1.4954  0.9925  0.4374
 7774SOL     OW24261   0.508   2.490   2.038  0.0241 -0.2730 -0.1139
 7774SOL    HW124262   0.478   2.576   2.068 -0.5164 -0.4421 -0.1708
 7774SOL    HW224263   0.531   2.503   1.946 -0.0510 -0.1920 -0.1206
 7775SOL     OW24264   4.595   2.072   5.784  0.2132  0.5575  0.2028
 7775SOL    HW124265   4.500   2.073   5.779  0.1639 -0.8008  0.3284
 7775SOL    HW224266   4.624   2.139   5.722 -0.8025 -0.1357 -1.0662
 7776SOL     OW24267   6.799   6.512   1.210  0.3965 -0.1055 -0.0382
 7776SOL    HW124268   6.791   6.442   1.145  1.2048  0.2045 -0.4829
 7776SOL    HW224269   6.713   6.553   1.212 -0.4094 -1.7293  0.9556
 7777SOL     OW24270   3.449   4.004   5.935  0.4158 -0.5611  0.0981
 7777SOL    HW124271   3.518   3.990   6.000 -0.8857 -1.7829  1.2621
 7777SOL    HW224272   3.420   4.094   5.951  2.4752  0.3970 -1.1826
 7778SOL     OW24273   1.655   1.674   5.491  0.2035 -0.4477  0.2717
 7778SOL    HW124274   1.741   1.666   5.451  0.8056 -0.4644  1.5185
 7778SOL    HW224275   1.598   1.705   5.421  1.1351 -0.8268 -0.6723
 7779SOL     OW24276   6.791   5.055   4.997  0.2773  0.0088 -0.1292
 7779SOL    HW124277   6.811   5.025   5.086 -0.5034  0.0152  0.0598
 7779SOL    HW224278   6.706   5.099   5.006  1.7523  3.1359 -0.2162
 7780SOL     OW24279   2.089   4.638   3.679 -0.6490  0.0864  0.1513
 7780SOL    HW124280   2.026   4.700   3.643 -0.0489  0.7191  0.1556
 7780SOL    HW224281   2.162   4.640   3.618 -0.0460  0.4120  0.8621
 7781SOL     OW24282   5.461   6.880   4.915  0.0948 -0.1244 -0.1745
 7781SOL    HW124283   5.497   6.949   4.971  0.4380 -0.5129  0.0863
 7781SOL    HW224284   5.371   6.870   4.944  0.0727  0.1396 -0.1461
 7782SOL     OW24285   6.718   3.726   4.854 -0.2924 -0.1436  0.5107
 7782SOL    HW124286   6.804   3.704   4.889  0.7785  0.8564 -1.3513
 7782SOL    HW224287   6.679   3.784   4.920  1.0863  0.6194  0.6894
 7783SOL     OW24288   3.470   5.171   4.757 -0.0042 -0.1061  0.1389
 7783SOL    HW124289   3.560   5.141   4.771  0.4207  1.0727  0.0224
 7783SOL    HW224290   3.429   5.100   4.707  0.1771 -1.6971  2.1143
 7784SOL     OW24291   5.068   5.735   4.039 -0.0284  0.0846 -0.0126
 7784SOL    HW124292   5.099   5.790   3.968 -0.3243 -0.8570 -0.9014
 7784SOL    HW224293   5.034   5.796   4.104  2.2703  1.0762  0.3348
 7785SOL     OW24294   4.071   0.191   6.655  0.3280 -0.6329 -0.0420
 7785SOL    HW124295   4.071   0.124   6.724  0.6304 -0.9976 -0.3925
 7785SOL    HW224296   4.150   0.241   6.671  0.9116 -1.3216 -0.6951
 7786SOL     OW24297   7.284   0.425   5.025 -0.2241  0.0877 -0.2071
 7786SOL    HW124298   7.236   0.500   5.059 -2.7930 -1.2488 -0.6172
 7786SOL    HW224299   7.307   0.449   4.935 -0.8980  0.4528 -0.2855
 7787SOL     OW24300   5.957   1.647   7.173  0.5645  0.2015  0.5556
 7787SOL    HW124301   5.891   1.708   7.208  0.8076  1.8668 -1.6984
 7787SOL    HW224302   5.909   1.565   7.160 -0.5185  0.7496  0.9598
 7788SOL     OW24303   4.350   5.766   3.386  0.2809  0.7036  0.5693
 7788SOL    HW124304   4.273   5.720   3.353  0.2165  0.5284  0.9671
 7788SOL    HW224305   4.384   5.710   3.455  1.5845  0.0748 -0.5356
 7789SOL     OW24306   4.297   3.489   6.511  0.3743 -0.1624  0.4789
 7789SOL    HW124307   4.344   3.426   6.565  1.7714  1.5494  1.3474
 7789SOL    HW224308   4.308   3.457   6.422  0.1377 -1.6965  0.9659
 7790SOL     OW24309   3.984   5.374   3.588 -0.1340 -0.1653  0.1449
 7790SOL    HW124310   4.000   5.314   3.660  0.8656 -0.4420 -0.3011
 7790SOL    HW224311   3.927   5.325   3.528 -1.5316  0.3024  1.0315
 7791SOL     OW24312   1.195   5.345   2.784 -0.1303  0.8194 -0.4064
 7791SOL    HW124313   1.102   5.354   2.763 -0.5704  1.1526  1.4966
 7791SOL    HW224314   1.206   5.395   2.864  0.9642 -1.8998  1.2733
 7792SOL     OW24315   2.112   2.635   1.346  0.0765  0.4811 -0.3227
 7792SOL    HW124316   2.184   2.698   1.343  2.0621 -1.3852  2.6493
 7792SOL    HW224317   2.056   2.666   1.417  0.2177 -0.2150  0.1058
 7793SOL     OW24318   5.473   6.014   4.502  0.1308 -0.9570 -0.1610
 7793SOL    HW124319   5.416   5.968   4.564  0.1294 -0.4609  0.2035
 7793SOL    HW224320   5.438   6.103   4.499  1.1292 -0.5431  0.3637
 7794SOL     OW24321   6.142   4.700   1.388  0.5565  0.0663 -0.0966
 7794SOL    HW124322   6.084   4.625   1.405  0.4538  0.0351 -0.5583
 7794SOL    HW224323   6.179   4.682   1.301 -0.1911  1.0146 -0.6249
 7795SOL     OW24324   6.063   2.969   2.971 -0.4742 -0.4222 -0.4077
 7795SOL    HW124325   6.084   2.902   2.906 -1.9053 -0.8227 -0.5019
 7795SOL    HW224326   5.993   3.020   2.931 -0.4588  0.1599  0.2832
 7796SOL     OW24327   1.744   2.245   0.621 -0.5355  0.3040 -0.1739
 7796SOL    HW124328   1.696   2.287   0.692 -0.5268 -0.7410  0.4710
 7796SOL    HW224329   1.698   2.271   0.541 -1.5871  0.1055  0.3522
 7797SOL     OW24330   1.156   4.162   3.207 -0.0648  0.3487 -0.3660
 7797SOL    HW124331   1.218   4.090   3.193 -0.4544  0.0461 -0.5489
 7797SOL    HW224332   1.143   4.200   3.120  2.3839  2.5457  0.0768
 7798SOL     OW24333   6.915   1.147   6.123  0.2739  0.5204 -0.0443
 7798SOL    HW124334   6.902   1.229   6.172  0.7513  0.0128  0.9660
 7798SOL    HW224335   6.829   1.107   6.119  0.1848  0.6898  0.1624
 7799SOL     OW24336   6.335   3.371   0.931  0.1387 -0.5243  0.0551
 7799SOL    HW124337   6.381   3.323   0.863  1.0603  0.6658 -0.1993
 7799SOL    HW224338   6.271   3.426   0.884 -1.0130 -1.5660  0.3504
 7800SOL     OW24339   1.993   5.668   0.699  0.0699  0.0622 -0.1063
 7800SOL    HW124340   2.004   5.624   0.614  0.2510 -1.0697  0.4884
 7800SOL    HW224341   2.041   5.750   0.690 -0.8104  0.4725 -1.4653
 7801SOL     OW24342   2.748   0.885   2.488  0.4218 -0.2677 -0.1578
 7801SOL    HW124343   2.800   0.871   2.409 -0.1582  1.8017 -0.9518
 7801SOL    HW224344   2.664   0.843   2.470 -0.4456  1.9224 -1.5224
 7802SOL     OW24345   1.566   1.500   2.410 -0.2680  0.3511 -0.4271
 7802SOL    HW124346   1.593   1.587   2.383 -1.2921  0.6534 -0.5195
 7802SOL    HW224347   1.477   1.512   2.444 -0.5991 -0.7243 -0.8702
 7803SOL     OW24348   6.159   5.738   6.614  0.0678  0.0755  0.0538
 7803SOL    HW124349   6.234   5.797   6.599 -0.8303  1.1354 -0.4427
 7803SOL    HW224350   6.083   5.790   6.588 -0.9439 -0.6026  1.5517
 7804SOL     OW24351   1.645   6.016   3.393  0.1173 -0.8154 -0.4367
 7804SOL    HW124352   1.601   6.055   3.469  1.1600  0.1232 -0.2928
 7804SOL    HW224353   1.624   5.923   3.399  0.8970 -0.9085  1.5281
 7805SOL     OW24354   5.875   2.855   2.633  0.3258  0.3574 -0.2754
 7805SOL    HW124355   5.969   2.857   2.645  0.2352  0.9523  0.4061
 7805SOL    HW224356   5.849   2.766   2.658  0.8036 -0.0969 -1.3466
 7806SOL     OW24357   0.452   3.950   5.413 -0.8155 -0.6892  0.0564
 7806SOL    HW124358   0.531   3.971   5.462 -0.9940  0.6968 -0.2079
 7806SOL    HW224359   0.402   3.893   5.471  0.5704 -1.9832  0.0311
 7807SOL     OW24360   2.062   2.913   1.024 -0.1111 -0.7287  0.1305
 7807SOL    HW124361   1.994   2.874   0.970 -1.1248 -0.2551  1.0263
 7807SOL    HW224362   2.135   2.851   1.019 -0.2688 -0.8120 -1.5413
 7808SOL     OW24363   5.994   7.014   0.948 -0.1387 -0.1603  0.4771
 7808SOL    HW124364   5.902   7.042   0.945 -0.3078 -0.7661 -1.8823
 7808SOL    HW224365   5.993   6.938   1.006 -1.0500  0.0525  0.7738
 7809SOL     OW24366   6.024   3.460   1.730  0.0790  0.2056  0.1679
 7809SOL    HW124367   6.066   3.528   1.783  2.3946  0.3351 -1.6405
 7809SOL    HW224368   6.036   3.380   1.780 -0.9792  0.8023  1.4371
 7810SOL     OW24369   4.352   1.218   7.357 -0.2490  0.1800  0.3164
 7810SOL    HW124370   4.369   1.125   7.370 -1.8959  0.1784  3.2579
 7810SOL    HW224371   4.439   1.257   7.346  0.6631 -1.4035  1.4824
 7811SOL     OW24372   2.765   6.785   7.162 -0.2649  0.1827 -0.2158
 7811SOL    HW124373   2.687   6.822   7.202 -0.0974 -0.2848  0.5441
 7811SOL    HW224374   2.774   6.834   7.079 -1.4457  0.1216 -0.4001
 7812SOL     OW24375   2.870   3.105   6.789 -0.6553 -0.7220 -0.5202
 7812SOL    HW124376   2.782   3.066   6.782 -0.4973 -1.3077  0.6145
 7812SOL    HW224377   2.863   3.188   6.741 -1.4296 -1.4148 -1.6529
 7813SOL     OW24378   0.310   5.183   0.608 -0.1568  0.1290  0.6254
 7813SOL    HW124379   0.355   5.104   0.637 -0.9513 -0.7577 -0.4577
 7813SOL    HW224380   0.251   5.153   0.539  0.3877  1.8537 -0.6720
 7814SOL     OW24381   5.176   4.004   4.758 -0.4298 -0.1316  0.0506
 7814SOL    HW124382   5.118   4.065   4.713 -0.6140  0.6864  1.3445
 7814SOL    HW224383   5.242   4.060   4.799  0.3172 -0.9289 -0.0353
 7815SOL     OW24384   2.427   4.799   2.473 -0.1370 -0.6837 -0.0064
 7815SOL    HW124385   2.349   4.744   2.467 -1.2898  0.6434  1.8937
 7815SOL    HW224386   2.449   4.801   2.566  0.2981  1.4178 -0.0919
 7816SOL     OW24387   3.808   3.729   5.478  0.0139  0.5161  0.2786
 7816SOL    HW124388   3.902   3.743   5.492 -0.3330  0.4716  3.3277
 7816SOL    HW224389   3.804   3.660   5.412  2.0904  1.0657 -0.4984
 7817SOL     OW24390   5.087   4.268   3.733  0.2300  0.0161  0.0932
 7817SOL    HW124391   5.125   4.353   3.756 -0.2508  0.2708 -0.0501
 7817SOL    HW224392   5.038   4.241   3.811 -0.5174  0.3802 -0.2504
 7818SOL     OW24393   6.773   3.241   1.134 -0.0015  0.0786 -0.3423
 7818SOL    HW124394   6.678   3.231   1.129 -0.0066  0.5167 -1.4290
 7818SOL    HW224395   6.787   3.294   1.213 -0.7316  0.7189 -0.6222
 7819SOL     OW24396   2.665   6.142   0.590 -0.5282 -0.3832  0.7225
 7819SOL    HW124397   2.684   6.166   0.499 -1.5453  1.4383  0.9457
 7819SOL    HW224398   2.577   6.104   0.587 -0.6595 -0.0947  0.9906
 7820SOL     OW24399   6.199   6.349   3.710 -0.3580 -0.5931  0.1535
 7820SOL    HW124400   6.107   6.373   3.715 -0.2580 -0.2887  0.5693
 7820SOL    HW224401   6.207   6.300   3.628 -0.8982 -0.6690  0.1462
 7821SOL     OW24402   2.998   6.981   4.309 -0.3312 -0.2436  0.1611
 7821SOL    HW124403   2.939   6.989   4.383 -0.0653 -2.6115  0.7192
 7821SOL    HW224404   3.078   6.944   4.346  0.6690  0.7023 -0.9602
 7822SOL     OW24405   3.571   1.957   6.770  0.1738  0.4454  0.0671
 7822SOL    HW124406   3.534   1.869   6.778 -0.2677  0.7288  1.4013
 7822SOL    HW224407   3.660   1.943   6.737  0.4912 -0.6080  1.2945
 7823SOL     OW24408   2.255   1.018   7.313 -0.1773  0.4068 -0.1906
 7823SOL    HW124409   2.295   1.104   7.300 -0.3380  0.5045 -0.0571
 7823SOL    HW224410   2.292   0.987   7.396  0.0818  0.2308 -0.3728
 7824SOL     OW24411   5.133   6.724   6.343 -0.2014 -0.3939 -1.5397
 7824SOL    HW124412   5.087   6.804   6.369  0.6875 -0.4251  0.2767
 7824SOL    HW224413   5.162   6.741   6.253  1.4102  2.0041 -0.6555
 7825SOL     OW24414   3.283   5.359   4.875  0.0437 -0.4692  0.3026
 7825SOL    HW124415   3.315   5.286   4.823  1.6480  1.2995 -1.3702
 7825SOL    HW224416   3.223   5.406   4.817  1.0330  0.9353  0.3502
 7826SOL     OW24417   3.904   7.298   2.035 -0.2261 -0.6342  0.4387
 7826SOL    HW124418   3.830   7.357   2.047 -0.1997 -0.2859 -1.0306
 7826SOL    HW224419   3.890   7.228   2.100 -0.4316  0.7698  1.9780
 7827SOL     OW24420   5.349   6.160   3.241 -0.2588  0.1297  0.3672
 7827SOL    HW124421   5.347   6.184   3.149 -0.8112 -1.5618 -0.0915
 7827SOL    HW224422   5.257   6.146   3.265 -0.1945  1.2456  1.3950
 7828SOL     OW24423   4.291   2.476   3.312  0.0485  0.1804 -0.6831
 7828SOL    HW124424   4.384   2.493   3.329  0.0780 -1.3169  1.0097
 7828SOL    HW224425   4.273   2.394   3.360 -1.1885 -1.7731 -4.1403
 7829SOL     OW24426   0.649   3.557   1.112 -0.5459 -0.1008  0.4603
 7829SOL    HW124427   0.728   3.548   1.165 -0.9578  0.3254  1.1671
 7829SOL    HW224428   0.585   3.595   1.172 -1.4250 -0.8757  0.0270
 7830SOL     OW24429   6.008   7.330   4.824 -0.2924  0.0819  0.4133
 7830SOL    HW124430   6.061   7.341   4.744  1.5120  0.9357  1.6547
 7830SOL    HW224431   6.026   7.241   4.852  0.7489  0.4499  0.9688
 7831SOL     OW24432   2.241   0.877   1.113  0.5023  0.0543  0.9496
 7831SOL    HW124433   2.279   0.882   1.201  2.1800 -1.3913  0.3658
 7831SOL    HW224434   2.280   0.799   1.074 -0.2721  0.6031 -1.0553
 7832SOL     OW24435   2.748   1.790   5.212 -0.2214 -0.4905  0.0519
 7832SOL    HW124436   2.809   1.725   5.177 -1.9949 -1.7924 -0.7717
 7832SOL    HW224437   2.772   1.796   5.305  1.0705 -1.0405 -0.2174
 7833SOL     OW24438   2.646   3.382   1.742 -0.1939  0.9118 -0.2014
 7833SOL    HW124439   2.651   3.299   1.693  0.9646  1.4627 -1.0752
 7833SOL    HW224440   2.659   3.449   1.675 -2.1681  1.8762  0.3240
 7834SOL     OW24441   1.602   6.726   1.462 -0.1543  0.1395  0.1202
 7834SOL    HW124442   1.562   6.682   1.387  1.2924  0.2235 -0.7326
 7834SOL    HW224443   1.688   6.685   1.470  0.0843  0.8246  1.1321
 7835SOL     OW24444   1.726   0.304   1.895 -0.0219  0.0913 -0.3053
 7835SOL    HW124445   1.765   0.308   1.808 -0.4654 -2.6890 -0.7066
 7835SOL    HW224446   1.799   0.278   1.952  0.0036  0.7685 -0.0169
 7836SOL     OW24447   0.683   1.080   6.729 -0.1750 -0.7816 -0.5098
 7836SOL    HW124448   0.669   1.173   6.746  0.4295 -0.7020 -0.4502
 7836SOL    HW224449   0.763   1.059   6.776  0.4328 -1.0199 -1.6247
 7837SOL     OW24450   4.234   2.363   0.534 -0.3951 -0.0157  0.0198
 7837SOL    HW124451   4.261   2.454   0.527 -2.0381  0.3923 -2.3429
 7837SOL    HW224452   4.154   2.357   0.481 -1.0876 -2.5496  1.1850
 7838SOL     OW24453   5.931   3.748   1.723 -0.6424  0.0502 -0.1958
 7838SOL    HW124454   5.954   3.706   1.640  1.3743 -1.2051  0.9380
 7838SOL    HW224455   6.003   3.727   1.782 -2.4860  0.0445  2.2029
 7839SOL     OW24456   0.547   2.926   0.021  0.0307  0.1965 -0.0513
 7839SOL    HW124457   0.539   2.904  -0.071  0.3812  0.4486 -0.1462
 7839SOL    HW224458   0.589   2.850   0.061 -1.6462 -0.6151  0.2240
 7840SOL     OW24459   2.238   1.938   5.648 -0.1519 -0.0662  0.5148
 7840SOL    HW124460   2.312   1.898   5.604  1.3841  0.7949  2.2002
 7840SOL    HW224461   2.222   2.019   5.600 -0.6890 -0.7327 -0.4650
 7841SOL     OW24462   6.651   4.269   5.779 -0.3209  0.2262  0.2862
 7841SOL    HW124463   6.660   4.316   5.862  0.0569 -0.7148  0.8003
 7841SOL    HW224464   6.731   4.291   5.730  1.1585 -1.8495  1.5887
 7842SOL     OW24465   3.044   7.033   1.257  0.0847 -0.2045 -0.4541
 7842SOL    HW124466   3.053   6.952   1.208 -0.2608  0.3437 -1.4669
 7842SOL    HW224467   2.996   7.091   1.198  0.8635  0.9400  0.0007
 7843SOL     OW24468   1.573   4.414   3.976  0.0605  0.1337 -0.7120
 7843SOL    HW124469   1.544   4.333   4.018 -0.5486  0.8602  0.3008
 7843SOL    HW224470   1.546   4.404   3.885 -1.5769 -0.1015 -0.2445
 7844SOL     OW24471   4.284   2.975   4.810 -0.4309 -0.2173  0.2181
 7844SOL    HW124472   4.330   2.979   4.726 -1.6216  1.8652 -0.4017
 7844SOL    HW224473   4.193   2.953   4.787 -1.0751  1.6712  0.7667
 7845SOL     OW24474   4.767   7.110   6.481 -0.3951  0.3536  0.1427
 7845SOL    HW124475   4.740   7.202   6.488  0.7248  0.6967  0.0895
 7845SOL    HW224476   4.689   7.061   6.506 -0.3577  1.3421  2.4458
 7846SOL     OW24477   0.966   7.278   4.627 -0.0794 -0.1202  0.1302
 7846SOL    HW124478   0.971   7.310   4.537 -1.0103 -0.8620 -0.2022
 7846SOL    HW224479   0.978   7.355   4.681 -0.4956  0.4972 -0.6370
 7847SOL     OW24480   1.854   5.524   7.247  0.3396 -0.6767 -0.1502
 7847SOL    HW124481   1.825   5.482   7.166  0.5438 -1.1508  0.0182
 7847SOL    HW224482   1.832   5.461   7.315 -1.8556  0.6325  0.4358
 7848SOL     OW24483   0.801   6.431   0.495 -0.4536  0.0352 -0.5571
 7848SOL    HW124484   0.876   6.476   0.456 -1.6473  1.1338 -1.7011
 7848SOL    HW224485   0.838   6.380   0.567  1.4884 -0.1189 -1.6040
 7849SOL     OW24486   1.510   3.803   0.486  0.3008 -0.5517  0.0393
 7849SOL    HW124487   1.446   3.808   0.415  0.7654 -1.3615 -0.4455
 7849SOL    HW224488   1.475   3.861   0.554  0.7669  1.7187 -1.5448
 7850SOL     OW24489   6.828   5.403   5.770  0.6024 -0.1652 -0.5827
 7850SOL    HW124490   6.872   5.487   5.756  1.7279 -0.3117  1.7084
 7850SOL    HW224491   6.895   5.347   5.808 -0.8534 -1.2429  0.5123
 7851SOL     OW24492   1.821   5.296   6.076  0.0903  0.3093  0.1908
 7851SOL    HW124493   1.797   5.324   6.165  2.8042  0.5588  0.9355
 7851SOL    HW224494   1.835   5.377   6.028  1.1526  0.2138  0.3192
 7852SOL     OW24495   4.896   5.568   3.334  0.3213 -0.4540  0.2210
 7852SOL    HW124496   4.955   5.502   3.368 -0.9832 -0.6622  2.2577
 7852SOL    HW224497   4.898   5.638   3.399 -0.3057  0.3332 -0.5731
 7853SOL     OW24498   6.550   3.132   5.410  0.1463 -0.1921 -0.4098
 7853SOL    HW124499   6.610   3.136   5.335 -0.6997  1.4565 -1.0420
 7853SOL    HW224500   6.575   3.206   5.465  0.6782 -1.3173  0.9215
 7854SOL     OW24501   6.235   0.711   1.082  0.0764  0.1281  0.7988
 7854SOL    HW124502   6.249   0.620   1.056  1.7881  0.2710  1.0865
 7854SOL    HW224503   6.268   0.762   1.008 -0.0538  0.5237  1.0119
 7855SOL     OW24504   3.739   6.850   3.949 -0.0307 -0.5023 -0.3046
 7855SOL    HW124505   3.790   6.787   3.999  0.2685 -1.3344 -1.6031
 7855SOL    HW224506   3.777   6.847   3.861 -1.1717  0.1709 -0.8465
 7856SOL     OW24507   6.282   1.174   6.418  0.5616  0.3893  0.6630
 7856SOL    HW124508   6.254   1.260   6.387  0.6798  0.7256  1.4543
 7856SOL    HW224509   6.248   1.170   6.508  1.4975  0.0595  1.0086
 7857SOL     OW24510   0.404   0.478   2.001 -0.0461  0.1810 -0.0630
 7857SOL    HW124511   0.332   0.526   2.041 -0.2662  0.2016 -0.4836
 7857SOL    HW224512   0.370   0.450   1.917 -0.1887 -1.3642  0.4804
 7858SOL     OW24513   5.200   2.097   6.905 -0.2019 -0.6524 -0.2212
 7858SOL    HW124514   5.148   2.120   6.828  1.8073  0.7155 -1.2580
 7858SOL    HW224515   5.256   2.173   6.920  1.8735 -2.2237  0.4878
 7859SOL     OW24516   6.005   5.725   4.401 -0.4793  0.4784  0.3732
 7859SOL    HW124517   5.910   5.731   4.407 -0.4436  1.4774  0.0633
 7859SOL    HW224518   6.021   5.646   4.350 -1.2483  2.0875 -2.5481
 7860SOL     OW24519   2.526   6.792   4.251 -0.4396  0.1405  0.1204
 7860SOL    HW124520   2.441   6.766   4.286  0.0551 -0.3357  1.0165
 7860SOL    HW224521   2.555   6.716   4.199 -1.4320  1.0634 -1.9011
 7861SOL     OW24522   5.811   1.646   3.286 -0.0737  0.1874 -0.4799
 7861SOL    HW124523   5.893   1.692   3.272  0.2578 -0.1244  0.4208
 7861SOL    HW224524   5.743   1.711   3.265  0.3686  1.2707  1.2914
 7862SOL     OW24525   3.682   1.402   0.272  0.1289  0.5244  0.6822
 7862SOL    HW124526   3.652   1.491   0.289  0.2481  0.5562  0.7272
 7862SOL    HW224527   3.667   1.355   0.355  2.9260  1.2714  1.7323
 7863SOL     OW24528   4.799   1.715   1.950  0.4622 -0.4681 -0.0724
 7863SOL    HW124529   4.770   1.743   1.863 -1.2600  0.1307  0.6460
 7863SOL    HW224530   4.766   1.626   1.960 -0.3243 -0.1410  0.3674
 7864SOL     OW24531   1.654   0.283   4.264  0.0886 -0.5669 -0.4710
 7864SOL    HW124532   1.690   0.327   4.341  0.4739 -2.0652  0.2500
 7864SOL    HW224533   1.577   0.237   4.296  0.2040 -1.1470 -1.0016
 7865SOL     OW24534   3.174   4.361   6.106 -0.2067  0.3356 -0.2229
 7865SOL    HW124535   3.147   4.423   6.038  0.4762 -0.9510 -1.7256
 7865SOL    HW224536   3.099   4.301   6.115  0.7444 -1.2014 -1.9535
 7866SOL     OW24537   3.727   4.998   6.061  0.8818  0.0237  0.4084
 7866SOL    HW124538   3.697   5.003   6.152  1.3047  1.2877  0.5081
 7866SOL    HW224539   3.649   4.980   6.010  0.5691 -0.2709  0.9854
 7867SOL     OW24540   0.866   3.846   6.269 -0.4659 -0.1617 -0.2973
 7867SOL    HW124541   0.946   3.897   6.257 -0.1518  0.2015  2.5251
 7867SOL    HW224542   0.869   3.780   6.200  2.8191 -0.7448  0.2278
 7868SOL     OW24543   6.204   0.220   3.383 -0.4160  0.1161  0.1635
 7868SOL    HW124544   6.138   0.262   3.439 -0.7070 -0.1783  0.0417
 7868SOL    HW224545   6.183   0.127   3.387  1.6274 -0.3448  2.3211
 7869SOL     OW24546   7.210   0.711   5.037 -0.2976  0.1889  0.1941
 7869SOL    HW124547   7.205   0.806   5.031 -2.6223  0.1313  0.2443
 7869SOL    HW224548   7.221   0.682   4.946  0.9874  0.4835  0.2312
 7870SOL     OW24549   1.269   4.283   3.710 -0.5725 -0.3534 -0.0828
 7870SOL    HW124550   1.223   4.227   3.648  0.5318 -2.1310  0.6130
 7870SOL    HW224551   1.359   4.250   3.710  0.1316  1.4489  0.3732
 7871SOL     OW24552   1.351   3.408   4.600 -0.2079 -0.1284  0.2697
 7871SOL    HW124553   1.299   3.365   4.532  0.8180  1.0318 -1.3146
 7871SOL    HW224554   1.413   3.341   4.629 -0.0475 -0.3745 -0.6119
 7872SOL     OW24555   2.334   0.655   5.816  0.0132  0.3040  0.2522
 7872SOL    HW124556   2.401   0.682   5.753 -0.6333  2.8545  0.5372
 7872SOL    HW224557   2.383   0.623   5.891  0.8870  1.0154  0.0015
 7873SOL     OW24558   0.865   3.871   1.638  0.4535  0.2159 -0.4745
 7873SOL    HW124559   0.825   3.909   1.717  0.6466  0.4789 -0.4998
 7873SOL    HW224560   0.835   3.781   1.636 -1.4950  0.8242 -1.3764
 7874SOL     OW24561   3.943   0.115   0.866  0.4706 -0.1994  0.5696
 7874SOL    HW124562   4.009   0.142   0.930 -0.1983  0.1354  1.1205
 7874SOL    HW224563   3.878   0.185   0.866  0.9919  0.3466 -1.2810
 7875SOL     OW24564   5.614   4.449   3.635 -0.2023  0.0097  0.5716
 7875SOL    HW124565   5.527   4.452   3.675  0.5740 -0.7490  2.4355
 7875SOL    HW224566   5.671   4.416   3.704  1.1987 -1.6874 -1.2525
 7876SOL     OW24567   6.103   0.055   3.787  0.6542 -0.1614  0.1072
 7876SOL    HW124568   6.115   0.115   3.860 -1.0434 -0.6346  0.8155
 7876SOL    HW224569   6.137  -0.029   3.819  1.9772  0.1237 -0.4793
 7877SOL     OW24570   3.058   4.699   7.048  0.0860  0.3091 -0.0358
 7877SOL    HW124571   3.013   4.617   7.069  0.5761 -0.8724 -3.0469
 7877SOL    HW224572   3.147   4.686   7.080  0.0058 -0.1163  0.0241
 7878SOL     OW24573   4.377   5.308   2.913  0.2464 -0.3033  0.0519
 7878SOL    HW124574   4.315   5.378   2.933  0.6327  0.3125 -0.8261
 7878SOL    HW224575   4.383   5.257   2.994 -1.0271 -0.0925  0.2999
 7879SOL     OW24576   5.053   4.781   4.868 -0.1511  0.5739 -0.3946
 7879SOL    HW124577   5.043   4.853   4.930  1.3168 -0.7196  1.4913
 7879SOL    HW224578   5.126   4.808   4.811  0.2658  0.6799  0.1801
 7880SOL     OW24579   4.411   0.800   6.456  0.0337  0.3495  0.4285
 7880SOL    HW124580   4.407   0.856   6.378  1.2622  0.4636  0.4231
 7880SOL    HW224581   4.362   0.722   6.432 -1.0380  1.0785  0.1497
 7881SOL     OW24582   3.400   4.433   0.001  0.1451 -0.0586  0.2763
 7881SOL    HW124583   3.462   4.477   0.060  0.5731 -0.2688 -0.0140
 7881SOL    HW224584   3.326   4.409   0.057 -0.0164  0.8764  0.4775
 7882SOL     OW24585   7.269   2.202   2.137  0.1476 -1.4308  0.0336
 7882SOL    HW124586   7.331   2.246   2.195 -2.5866  1.0237  1.3761
 7882SOL    HW224587   7.214   2.150   2.196 -1.1357 -0.8617 -0.6205
 7883SOL     OW24588   2.261   0.004   1.102 -0.3086  0.0097  0.1208
 7883SOL    HW124589   2.195  -0.003   1.171 -1.1427 -0.0435 -0.6588
 7883SOL    HW224590   2.342  -0.028   1.143 -0.6758  0.4087  1.1994
 7884SOL     OW24591   5.563   3.260   3.154 -0.8448 -0.3613  0.5975
 7884SOL    HW124592   5.589   3.352   3.147 -0.1615 -0.1595  4.0880
 7884SOL    HW224593   5.626   3.213   3.100  0.9455  0.9654  1.4349
 7885SOL     OW24594   6.683   1.009   3.083  0.0850 -0.1730  0.8467
 7885SOL    HW124595   6.760   1.060   3.108  2.1497 -1.2890 -2.5831
 7885SOL    HW224596   6.704   0.920   3.113  0.6174 -0.6483 -0.8242
 7886SOL     OW24597   0.304   7.340   5.017  0.0551  0.4978  0.7388
 7886SOL    HW124598   0.225   7.321   5.068 -0.5586 -1.0137 -0.6689
 7886SOL    HW224599   0.373   7.290   5.061 -0.2919 -0.1179  0.6054
 7887SOL     OW24600   5.900   5.379   3.900 -0.7932 -0.0789  0.2097
 7887SOL    HW124601   5.878   5.425   3.981  0.8082  0.6193  0.2860
 7887SOL    HW224602   5.985   5.339   3.917  0.6148  1.8135 -1.7256
 7888SOL     OW24603   7.258   2.980   1.402 -0.4803  0.1729  0.0945
 7888SOL    HW124604   7.234   2.904   1.455 -0.5292 -0.5456 -0.9371
 7888SOL    HW224605   7.318   3.030   1.458  0.3236 -1.1213  0.4310
 7889SOL     OW24606   1.866   4.948   1.195 -0.1936 -0.1075  0.2015
 7889SOL    HW124607   1.842   5.038   1.173 -0.5040 -0.0980  0.5604
 7889SOL    HW224608   1.880   4.950   1.290  0.6003 -0.2614  0.0933
 7890SOL     OW24609   5.747   0.179   0.198  0.3459  0.0590  0.5214
 7890SOL    HW124610   5.789   0.265   0.194 -2.4371  1.5628  1.2607
 7890SOL    HW224611   5.661   0.192   0.157 -0.0669 -2.4599  0.3950
 7891SOL     OW24612   3.034   3.596   2.159 -0.6862  0.1620 -0.2049
 7891SOL    HW124613   2.985   3.675   2.179 -0.0757  0.1622  1.4110
 7891SOL    HW224614   3.023   3.584   2.065 -2.0890  1.2789 -0.2124
 7892SOL     OW24615   3.581   6.480   5.022  0.2197 -0.4219  0.1582
 7892SOL    HW124616   3.593   6.575   5.022 -1.9913 -0.0892 -0.6000
 7892SOL    HW224617   3.585   6.454   4.930 -0.5000 -0.8610  0.2412
 7893SOL     OW24618   6.638   3.035   4.250  0.1876 -0.0902 -0.0417
 7893SOL    HW124619   6.732   3.034   4.233  0.3695 -4.7649 -0.0143
 7893SOL    HW224620   6.599   2.990   4.175 -1.8086  0.1529  0.7841
 7894SOL     OW24621   6.609   2.797   4.948  0.4459  0.1716  0.0242
 7894SOL    HW124622   6.682   2.743   4.917 -0.3731 -0.4099 -0.9629
 7894SOL    HW224623   6.635   2.824   5.036  3.0565  2.2065 -1.2138
 7895SOL     OW24624   6.071   3.227   1.855  0.6286  0.1182 -0.9276
 7895SOL    HW124625   5.996   3.186   1.812  1.0089  0.7747 -2.2693
 7895SOL    HW224626   6.082   3.178   1.937 -0.7864 -0.4680 -1.0617
 7896SOL     OW24627   6.106   3.764   0.158  0.8212  0.1644  0.2951
 7896SOL    HW124628   6.038   3.720   0.209 -0.5822 -0.9505 -2.3417
 7896SOL    HW224629   6.189   3.730   0.192 -0.1452 -2.5048  0.1587
 7897SOL     OW24630   1.436   2.670   4.569  0.5346 -0.1478  0.5322
 7897SOL    HW124631   1.424   2.606   4.499  2.2023 -1.1245  1.0729
 7897SOL    HW224632   1.525   2.703   4.557  1.1843 -0.9534  2.6222
 7898SOL     OW24633   2.836   4.026   4.153  0.2408  0.1032 -0.4090
 7898SOL    HW124634   2.881   4.061   4.076 -0.7251  0.6563 -0.7345
 7898SOL    HW224635   2.749   4.004   4.122  0.3408 -1.1602  0.1678
 7899SOL     OW24636   4.200   0.004   5.176  0.2477 -0.1178  0.0711
 7899SOL    HW124637   4.135   0.071   5.200 -0.2599  0.0663 -1.7125
 7899SOL    HW224638   4.181  -0.017   5.085  0.3970 -2.7040  0.5392
 7900SOL     OW24639   0.927   0.521   0.612  0.3507 -0.2188  0.5846
 7900SOL    HW124640   0.972   0.606   0.613 -0.8940  0.4686  0.8891
 7900SOL    HW224641   0.901   0.509   0.520 -1.9890  1.1725  0.9751
 7901SOL     OW24642   5.754   4.006   6.084 -0.4456  0.1971  0.0104
 7901SOL    HW124643   5.745   3.929   6.028 -1.2088 -1.5040  2.2961
 7901SOL    HW224644   5.724   4.079   6.031 -0.6159 -1.2252 -1.9338
 7902SOL     OW24645   4.975   6.965   6.411 -0.1790  0.0965  0.5424
 7902SOL    HW124646   4.901   7.025   6.419 -0.5394  0.0181 -1.6560
 7902SOL    HW224647   5.043   7.004   6.465 -0.9093  1.6797  0.3837
 7903SOL     OW24648   4.638   3.754   4.968 -0.1843  0.4437  0.6704
 7903SOL    HW124649   4.676   3.790   4.887 -1.2906  0.2295  0.0383
 7903SOL    HW224650   4.585   3.826   5.004 -1.5513 -0.1772 -0.0387
 7904SOL     OW24651   2.601   2.961   5.486  0.0016  0.0612 -0.4809
 7904SOL    HW124652   2.583   2.934   5.576 -1.8088  0.5974 -0.6230
 7904SOL    HW224653   2.667   2.900   5.455 -0.1091 -0.7950  0.8818
 7905SOL     OW24654   3.820   4.745   2.957 -0.0679  0.3488  0.7845
 7905SOL    HW124655   3.759   4.720   3.026 -1.2894 -2.2331 -1.0413
 7905SOL    HW224656   3.766   4.795   2.895 -0.3972 -1.7593 -0.7335
 7906SOL     OW24657   2.237   3.709   0.370 -0.0875  0.4789  0.3141
 7906SOL    HW124658   2.243   3.796   0.408 -1.7667  0.1868  1.3854
 7906SOL    HW224659   2.249   3.650   0.444  3.2689 -0.3371 -0.7219
 7907SOL     OW24660   3.203   6.264   6.282  0.2287 -0.0231  0.2458
 7907SOL    HW124661   3.198   6.175   6.246  1.2332  0.1773 -0.4177
 7907SOL    HW224662   3.192   6.321   6.206 -0.1258  0.4210  0.6289
 7908SOL     OW24663   3.442   0.411   3.951 -0.6058 -0.7127  0.7937
 7908SOL    HW124664   3.428   0.425   4.044 -0.9324 -0.2627  0.6813
 7908SOL    HW224665   3.502   0.481   3.925  0.3493 -1.4789  0.8794
 7909SOL     OW24666   3.874   4.104   4.197 -0.1858 -0.5110  0.3597
 7909SOL    HW124667   3.956   4.079   4.240  0.0027  0.6533  0.7187
 7909SOL    HW224668   3.824   4.149   4.266 -0.0933  0.9334 -0.4821
 7910SOL     OW24669   3.702   1.826   1.123 -0.5593 -0.9761 -0.6640
 7910SOL    HW124670   3.634   1.889   1.142  0.1322 -0.2048 -0.6801
 7910SOL    HW224671   3.751   1.864   1.050 -0.2558 -1.6174 -0.8051
 7911SOL     OW24672   3.727   5.493   0.308 -0.2940  0.4830 -0.4092
 7911SOL    HW124673   3.765   5.494   0.396 -2.3089  0.8551  0.5228
 7911SOL    HW224674   3.723   5.400   0.284  1.0531  0.4335 -0.4994
 7912SOL     OW24675   3.151   3.575   3.581  0.3829 -0.2200  0.0066
 7912SOL    HW124676   3.096   3.645   3.544  1.3897  0.5504 -0.0675
 7912SOL    HW224677   3.233   3.618   3.603  0.4058 -1.0157  1.6154
 7913SOL     OW24678   2.227   3.348   5.126 -0.3212  0.2531 -1.6373
 7913SOL    HW124679   2.227   3.271   5.069  0.2211 -0.8380 -0.2308
 7913SOL    HW224680   2.143   3.390   5.110 -1.2562 -1.4592 -1.3780
 7914SOL     OW24681   7.381   3.874   3.645  0.0464 -0.5196  0.0587
 7914SOL    HW124682   7.372   3.943   3.710 -0.4470  0.3897 -0.9375
 7914SOL    HW224683   7.476   3.863   3.634  0.1306 -0.0233  0.2577
 7915SOL     OW24684   3.120   0.440   1.350  0.2900  0.7770  0.0267
 7915SOL    HW124685   3.168   0.509   1.304 -1.4614  1.0244 -1.5712
 7915SOL    HW224686   3.085   0.483   1.428 -1.4102  1.9986 -1.3253
 7916SOL     OW24687   3.336   4.008   3.283 -0.2284 -0.7173 -0.2725
 7916SOL    HW124688   3.305   4.080   3.339  1.8593 -1.3342  1.8449
 7916SOL    HW224689   3.377   4.052   3.209  2.2865  0.4689  1.6660
 7917SOL     OW24690   3.007   1.642   0.155 -0.6971  0.1967  0.0440
 7917SOL    HW124691   2.936   1.700   0.126 -1.1298  0.5122  1.6106
 7917SOL    HW224692   3.084   1.699   0.157 -0.4443 -0.0573 -1.3082
 7918SOL     OW24693   6.796   4.275   2.566  0.5679 -0.1138  0.7745
 7918SOL    HW124694   6.800   4.180   2.551  0.7337 -0.4014  2.4390
 7918SOL    HW224695   6.884   4.299   2.595  0.9813  0.8752 -1.1657
 7919SOL     OW24696   0.072   3.276   5.640  0.3028 -0.6671 -0.2769
 7919SOL    HW124697  -0.006   3.310   5.596  0.0255 -0.2989  0.4845
 7919SOL    HW224698   0.051   3.282   5.733  0.6846 -1.8985 -0.0980
 7920SOL     OW24699   2.341   1.998   6.703  0.1016 -0.1095 -0.2882
 7920SOL    HW124700   2.430   2.026   6.681 -0.0856 -0.5364 -1.6457
 7920SOL    HW224701   2.293   2.080   6.715  0.6397  0.1244  0.3151
 7921SOL     OW24702   4.524   2.992   3.816  0.8439  0.0747  0.4540
 7921SOL    HW124703   4.530   3.083   3.848  1.2542 -0.1449  1.0300
 7921SOL    HW224704   4.587   2.944   3.870  0.1437 -0.6852  0.6067
 7922SOL     OW24705   2.201   4.928   5.795  0.3117  0.1536  0.2891
 7922SOL    HW124706   2.225   5.020   5.791  0.1695  0.2142  0.7494
 7922SOL    HW224707   2.113   4.928   5.832 -0.9725  0.0231 -2.5035
 7923SOL     OW24708   2.464   3.054   3.358  0.1045 -0.0120  0.4536
 7923SOL    HW124709   2.554   3.056   3.326 -0.0858 -1.7785 -0.3204
 7923SOL    HW224710   2.458   3.129   3.417  1.5568  1.1833 -0.8245
 7924SOL     OW24711   5.124   6.948   4.145 -0.1652  0.1459  0.7253
 7924SOL    HW124712   5.065   6.873   4.134 -0.1486  0.2691 -0.2565
 7924SOL    HW224713   5.203   6.911   4.182  0.4980 -0.6524 -1.3382
 7925SOL     OW24714   6.300   1.126   0.628  0.3102 -0.4682  0.0597
 7925SOL    HW124715   6.213   1.105   0.594  0.3719  1.4641 -1.4839
 7925SOL    HW224716   6.307   1.221   0.619  2.3024 -0.4867  0.8697
 7926SOL     OW24717   6.646   4.934   0.404  0.0767 -0.1738  0.5002
 7926SOL    HW124718   6.650   5.014   0.456  0.8058 -0.3408  0.7108
 7926SOL    HW224719   6.613   4.962   0.319 -1.6899  0.0143  1.1967
 7927SOL     OW24720   6.037   0.471   4.362 -0.0510  0.1394  0.1948
 7927SOL    HW124721   6.126   0.471   4.397  1.2604  0.3248 -2.8324
 7927SOL    HW224722   6.018   0.378   4.345  0.3495  0.2331 -0.8553
 7928SOL     OW24723   1.207   1.863   6.886  0.0088 -0.2952  0.1549
 7928SOL    HW124724   1.238   1.829   6.802  2.6039  0.0556  0.8800
 7928SOL    HW224725   1.237   1.799   6.951 -0.3264  0.3680  0.9847
 7929SOL     OW24726   6.599   6.203   6.805  0.5129 -1.1217  0.5022
 7929SOL    HW124727   6.671   6.168   6.858  0.2744 -0.2016  1.4825
 7929SOL    HW224728   6.583   6.290   6.842 -0.5954 -1.0092 -0.2030
 7930SOL     OW24729   3.908   0.370   2.318 -0.7054  0.2758  0.5225
 7930SOL    HW124730   3.819   0.346   2.290 -1.4158  1.3430  1.7681
 7930SOL    HW224731   3.920   0.459   2.284  0.5464 -0.4224 -1.0233
 7931SOL     OW24732   2.752   3.868   4.459  0.8822 -1.0730  0.1690
 7931SOL    HW124733   2.753   3.960   4.485  1.1079 -0.2529 -2.4283
 7931SOL    HW224734   2.678   3.831   4.506 -0.0522  0.7873  0.2646
 7932SOL     OW24735   5.491   0.543   3.131 -0.3471  0.0155 -0.4524
 7932SOL    HW124736   5.494   0.531   3.226 -1.7158  2.4059 -0.0037
 7932SOL    HW224737   5.526   0.631   3.117 -1.1659  0.1255 -2.0295
 7933SOL     OW24738   4.323   6.842   6.997 -0.1534 -0.5723  0.1789
 7933SOL    HW124739   4.354   6.931   6.982  0.6071 -1.0993 -1.6831
 7933SOL    HW224740   4.337   6.826   7.090  1.1473  0.7183  0.2205
 7934SOL     OW24741   3.324   0.760   1.512 -0.0439  0.0612 -0.0151
 7934SOL    HW124742   3.343   0.736   1.421 -1.2597  0.5715 -0.4347
 7934SOL    HW224743   3.310   0.677   1.557 -1.9238 -0.1721 -0.9109
 7935SOL     OW24744   1.052   5.592   4.334  0.1784  0.0873 -0.7613
 7935SOL    HW124745   1.108   5.611   4.259 -0.2995  3.2696 -0.4575
 7935SOL    HW224746   1.106   5.614   4.411 -0.6595  0.8958 -0.3802
 7936SOL     OW24747   4.223   1.606   1.415  0.1995  0.1771  0.2577
 7936SOL    HW124748   4.132   1.593   1.390  0.5847 -2.7080  0.0084
 7936SOL    HW224749   4.273   1.580   1.338  1.2624  1.3097  0.5411
 7937SOL     OW24750   0.666   4.996   6.216 -0.4601 -0.4063 -0.3166
 7937SOL    HW124751   0.663   4.917   6.270 -1.4500  0.1491  0.4710
 7937SOL    HW224752   0.676   5.068   6.278 -1.0338  0.2031 -0.9147
 7938SOL     OW24753   0.593   4.878   5.174 -0.3717  0.2088 -0.0087
 7938SOL    HW124754   0.659   4.909   5.112 -0.1015 -1.0464 -0.3866
 7938SOL    HW224755   0.521   4.940   5.167  0.2771  0.9126 -0.4865
 7939SOL     OW24756   5.681   2.035   2.248  0.0209  0.5250  0.0572
 7939SOL    HW124757   5.687   2.128   2.224  0.1471  0.4469 -0.2220
 7939SOL    HW224758   5.597   2.027   2.292 -1.5617  0.1378 -2.7935
 7940SOL     OW24759   1.591   5.757   6.830 -0.4453 -0.0209  0.3043
 7940SOL    HW124760   1.585   5.848   6.860 -0.4286  0.1451 -0.1932
 7940SOL    HW224761   1.673   5.753   6.780 -0.8530 -0.1067 -0.3639
 7941SOL     OW24762   6.270   6.565   2.184  0.0164 -0.2732  0.3999
 7941SOL    HW124763   6.266   6.654   2.216  0.5515 -0.0984 -0.0011
 7941SOL    HW224764   6.195   6.521   2.223 -0.3132  0.3833  0.5011
 7942SOL     OW24765   1.807   2.551   4.374 -0.5931  0.0673  0.3155
 7942SOL    HW124766   1.900   2.571   4.364 -0.2799 -1.8406 -1.2423
 7942SOL    HW224767   1.805   2.479   4.437 -0.9852 -0.1307  0.0796
 7943SOL     OW24768   5.658   6.023   3.023 -0.1734  0.2828  0.0933
 7943SOL    HW124769   5.633   6.052   3.111  0.2703  0.6824  0.0893
 7943SOL    HW224770   5.744   5.982   3.035 -0.2786  0.0055 -0.0929
 7944SOL     OW24771   6.938   5.533   5.279  0.2443  0.7210  0.0577
 7944SOL    HW124772   6.962   5.440   5.280 -1.2821  0.2848 -0.7957
 7944SOL    HW224773   6.995   5.572   5.213 -1.1975 -0.2575 -1.8436
 7945SOL     OW24774   1.146   6.443   3.201  0.4454  0.6778 -0.1232
 7945SOL    HW124775   1.145   6.539   3.205  1.7720  0.7445 -0.8546
 7945SOL    HW224776   1.091   6.422   3.126  1.3599  0.9696 -0.9057
 7946SOL     OW24777   2.604   0.776   1.586  0.1363  0.2973 -0.2718
 7946SOL    HW124778   2.542   0.708   1.613 -1.3040  1.8481  0.5727
 7946SOL    HW224779   2.688   0.747   1.621 -0.9611  0.3126  2.7245
 7947SOL     OW24780   2.216   0.951   4.670  0.3036  0.3525 -0.1491
 7947SOL    HW124781   2.240   0.883   4.608  0.6863  0.3363  0.0142
 7947SOL    HW224782   2.275   1.024   4.650 -0.6309  0.9401 -0.8471
 7948SOL     OW24783   0.869   0.400   0.046  0.4473 -0.0289 -0.3806
 7948SOL    HW124784   0.824   0.346   0.110 -1.5089  2.8513  0.8588
 7948SOL    HW224785   0.945   0.348   0.020 -0.9520 -3.0422  1.1191
 7949SOL     OW24786   0.964   0.102   4.710 -0.3849  0.1272  0.4963
 7949SOL    HW124787   1.009   0.175   4.752  0.5847 -0.1700  0.0066
 7949SOL    HW224788   0.871   0.126   4.713 -0.2158  0.6704  1.6786
 7950SOL     OW24789   7.280   7.306   3.693 -0.9084  0.0921  0.2385
 7950SOL    HW124790   7.229   7.378   3.730 -1.3149  0.3279 -0.7240
 7950SOL    HW224791   7.293   7.246   3.765 -2.1043  0.2888  0.6452
 7951SOL     OW24792   6.840   2.700   4.410  0.4251 -0.3999 -0.0978
 7951SOL    HW124793   6.785   2.716   4.333  0.1125 -2.1802 -0.2828
 7951SOL    HW224794   6.869   2.787   4.437 -2.3409  0.6236 -0.1030
 7952SOL     OW24795   0.331   0.080   3.167  0.5306  0.8686  0.2111
 7952SOL    HW124796   0.421   0.092   3.196  0.0737  0.6748  1.8379
 7952SOL    HW224797   0.298   0.008   3.222 -0.9954  1.8255  0.6025
 7953SOL     OW24798   4.034   3.392   1.666 -0.2759 -0.3671 -0.5474
 7953SOL    HW124799   4.103   3.403   1.731 -0.2317  0.7662 -0.7793
 7953SOL    HW224800   4.013   3.298   1.670 -0.3268 -0.3200  1.1283
 7954SOL     OW24801   3.841   6.166   4.954  0.1818  0.2338 -0.4614
 7954SOL    HW124802   3.756   6.160   4.910  0.9154 -1.1989 -1.7371
 7954SOL    HW224803   3.837   6.100   5.023  0.8513 -1.0421 -1.6083
 7955SOL     OW24804   5.710   2.875   1.434  0.2792 -0.7594  0.8520
 7955SOL    HW124805   5.781   2.861   1.497 -0.5053 -0.0502  1.9391
 7955SOL    HW224806   5.631   2.881   1.489 -0.5472 -0.9968 -0.2825
 7956SOL     OW24807   0.684   2.661   2.742 -0.1241  0.2462  0.9155
 7956SOL    HW124808   0.600   2.704   2.757 -1.8831 -2.6348 -0.0952
 7956SOL    HW224809   0.704   2.677   2.650 -0.1957 -0.0869  0.8401
 7957SOL     OW24810   4.352   3.893   5.914  0.6470 -0.1834 -0.0640
 7957SOL    HW124811   4.377   3.801   5.911  1.1060 -0.0405 -1.1184
 7957SOL    HW224812   4.365   3.924   5.824  0.8736  1.0011  0.3639
 7958SOL     OW24813   6.429   5.344   1.564 -0.2974 -0.1012 -0.2659
 7958SOL    HW124814   6.341   5.308   1.576  0.6457 -1.9753  1.4276
 7958SOL    HW224815   6.472   5.282   1.505  0.2924  0.0993 -0.0460
 7959SOL     OW24816   1.534   1.150   0.017 -0.3908 -0.8268  0.1583
 7959SOL    HW124817   1.550   1.120  -0.072  0.2750  3.7459 -1.5129
 7959SOL    HW224818   1.458   1.208   0.010 -1.7707 -2.0778  3.1082
 7960SOL     OW24819   1.961   7.153   7.037 -0.2642  0.0469 -0.5374
 7960SOL    HW124820   1.998   7.096   6.970 -0.0169 -0.1194 -0.2637
 7960SOL    HW224821   1.882   7.107   7.066  0.8230 -1.0372  0.8886
 7961SOL     OW24822   1.232   5.601   0.460  0.0994  0.1812 -0.3679
 7961SOL    HW124823   1.190   5.542   0.522 -0.5378 -0.6861 -1.5845
 7961SOL    HW224824   1.220   5.688   0.498 -0.6936 -0.2827  0.4783
 7962SOL     OW24825   4.750   3.145   5.804  0.0136  0.5760  0.1417
 7962SOL    HW124826   4.717   3.078   5.744  0.0358 -0.5281  1.3195
 7962SOL    HW224827   4.828   3.180   5.761  0.6969 -1.0093  0.0320
 7963SOL     OW24828   7.000   6.759   4.342  0.5160  0.1908  0.1268
 7963SOL    HW124829   7.082   6.787   4.382  0.3993 -1.2566  1.4743
 7963SOL    HW224830   7.001   6.663   4.350 -2.0081  0.2055  1.6946
 7964SOL     OW24831   3.424   1.615   5.192  0.0249 -0.1041  0.6969
 7964SOL    HW124832   3.451   1.675   5.123 -1.2637  0.7668  0.9277
 7964SOL    HW224833   3.389   1.539   5.145  0.4439 -0.1126  0.3979
 7965SOL     OW24834   1.676   2.512   5.350 -0.0251 -0.3048 -0.0417
 7965SOL    HW124835   1.653   2.541   5.438 -1.0563  1.9766 -0.9851
 7965SOL    HW224836   1.712   2.589   5.307  1.2054 -1.5696 -1.4122
 7966SOL     OW24837   2.522   6.950   7.152  0.3429 -0.0604  0.0812
 7966SOL    HW124838   2.541   7.039   7.123  1.4991 -0.8704 -1.9163
 7966SOL    HW224839   2.431   6.953   7.182  1.0995  2.3109  2.5777
 7967SOL     OW24840   0.963   7.036   1.168  0.1832 -0.2960  0.3236
 7967SOL    HW124841   0.951   7.127   1.195  0.5111 -0.3376  0.6157
 7967SOL    HW224842   1.027   7.040   1.097 -0.4566 -0.2170 -0.2601
 7968SOL     OW24843   6.115   4.335   6.633 -0.0971  0.0301  0.3231
 7968SOL    HW124844   6.168   4.339   6.554 -1.7710  1.3231 -0.8145
 7968SOL    HW224845   6.114   4.243   6.657 -1.4616 -0.8262 -2.5950
 7969SOL     OW24846   5.369   7.383   7.173 -0.0758  0.1985  0.3082
 7969SOL    HW124847   5.318   7.348   7.100  0.0599  1.7217 -0.5506
 7969SOL    HW224848   5.337   7.335   7.250 -0.5711 -1.0712 -0.6607
 7970SOL     OW24849   4.714   6.641   3.296 -0.2963 -0.1811 -0.8773
 7970SOL    HW124850   4.722   6.622   3.389 -0.0235 -0.8781 -1.0387
 7970SOL    HW224851   4.784   6.592   3.255 -0.9645 -0.6004 -1.5502
 7971SOL     OW24852   3.030   4.207   2.912 -0.2599 -0.1197  0.4521
 7971SOL    HW124853   2.955   4.218   2.853 -0.2169  0.3867  0.4810
 7971SOL    HW224854   2.997   4.235   2.997  0.0988  0.5843  0.3670
 7972SOL     OW24855   0.343   6.006   6.054 -0.2009 -0.5622  0.0174
 7972SOL    HW124856   0.263   6.003   6.107 -0.9806 -0.6672 -1.1163
 7972SOL    HW224857   0.336   5.929   5.996  0.2263 -0.0302 -0.7624
 7973SOL     OW24858   2.357   0.252   5.615  0.4266 -0.6252 -0.1611
 7973SOL    HW124859   2.386   0.269   5.705 -1.4885 -2.0680  0.8073
 7973SOL    HW224860   2.261   0.260   5.619  0.0920 -2.9508 -1.5020
 7974SOL     OW24861   1.507   3.663   1.386  0.1443  0.7489 -0.1242
 7974SOL    HW124862   1.480   3.596   1.323  0.0990  1.4568 -0.8660
 7974SOL    HW224863   1.601   3.649   1.396  0.0807  0.3714 -0.0350
 7975SOL     OW24864   4.063   3.410   0.483 -0.0986  0.2415  0.0341
 7975SOL    HW124865   4.041   3.503   0.480 -1.7178 -0.1181 -0.4057
 7975SOL    HW224866   4.055   3.386   0.575  0.1738  0.4905  0.1259
 7976SOL     OW24867   1.574   0.410   2.436  0.8737 -0.1691  0.2342
 7976SOL    HW124868   1.510   0.374   2.497 -1.2624  2.8952  0.0257
 7976SOL    HW224869   1.545   0.378   2.350  0.9978 -0.5797  0.3399
 7977SOL     OW24870   3.642   5.932   1.247  0.2309 -0.5459  0.4071
 7977SOL    HW124871   3.726   5.969   1.223  0.3766 -0.1663  1.4410
 7977SOL    HW224872   3.582   6.006   1.249  0.1956 -0.5807  1.0315
 7978SOL     OW24873   2.858   6.799   2.334  0.0344 -0.1380  0.5066
 7978SOL    HW124874   2.952   6.811   2.348  0.3443  0.0232 -1.4677
 7978SOL    HW224875   2.852   6.727   2.271 -1.0096  1.3618 -1.2149
 7979SOL     OW24876   4.566   5.417   1.926  0.3268 -0.8834  0.3049
 7979SOL    HW124877   4.559   5.468   2.007  1.4412 -0.2704  0.0405
 7979SOL    HW224878   4.497   5.453   1.870 -0.0474 -0.8860  0.7559
 7980SOL     OW24879   6.819   0.412   2.864 -0.2101 -0.1958  0.7751
 7980SOL    HW124880   6.886   0.346   2.883  0.0079 -0.4652 -0.7714
 7980SOL    HW224881   6.743   0.386   2.915  0.3467 -0.8012  1.3106
 7981SOL     OW24882   1.637   0.409   3.532 -0.1750  0.5774 -0.2899
 7981SOL    HW124883   1.732   0.409   3.527 -0.1804 -1.2799 -1.0618
 7981SOL    HW224884   1.608   0.437   3.445 -0.3252 -0.1294 -0.4708
 7982SOL     OW24885   4.226   3.435   1.324 -0.0786  0.0281  0.0040
 7982SOL    HW124886   4.265   3.347   1.329  0.9265  0.3474 -1.4285
 7982SOL    HW224887   4.280   3.488   1.383  0.5471  0.0785 -0.5985
 7983SOL     OW24888   0.911   2.626   2.035 -0.1651  0.1601  0.5472
 7983SOL    HW124889   0.832   2.668   2.067 -0.2320  0.6180 -0.1903
 7983SOL    HW224890   0.979   2.652   2.096 -0.0793  1.8577 -0.2233
 7984SOL     OW24891   6.105   5.984   3.710  0.6863 -0.0103 -0.0129
 7984SOL    HW124892   6.077   5.984   3.801 -1.8902 -1.6095 -0.7136
 7984SOL    HW224893   6.134   5.894   3.694 -1.2205 -0.4395 -1.3689
 7985SOL     OW24894   1.075   4.063   5.540 -0.0391  0.2119  0.4710
 7985SOL    HW124895   1.084   4.069   5.635  0.4173  1.5431  0.3570
 7985SOL    HW224896   1.142   3.999   5.515 -1.5345 -1.7414  1.2192
 7986SOL     OW24897   4.622   1.078   1.331  0.6781 -0.1519 -0.7035
 7986SOL    HW124898   4.611   1.098   1.238 -0.0905  1.3338 -0.3196
 7986SOL    HW224899   4.699   1.127   1.357  0.8718 -0.5428 -0.5258
 7987SOL     OW24900   4.754   0.793   1.276  0.1097  0.5860 -0.0790
 7987SOL    HW124901   4.839   0.828   1.253  0.8013 -1.1735 -0.3804
 7987SOL    HW224902   4.719   0.854   1.341  1.0881  1.9309 -0.7693
 7988SOL     OW24903   0.558   2.121   1.654 -0.0654 -0.2702 -0.0034
 7988SOL    HW124904   0.567   2.125   1.558 -0.9919  2.0187 -0.0694
 7988SOL    HW224905   0.573   2.029   1.676 -0.7560 -1.0517 -2.4438
 7989SOL     OW24906   1.865   7.011   1.528  0.2375 -0.2116  0.6312
 7989SOL    HW124907   1.796   6.974   1.583  0.1701 -2.0705 -0.5978
 7989SOL    HW224908   1.946   6.976   1.564  0.0719 -3.4426 -1.6670
 7990SOL     OW24909   6.126   4.449   1.671 -0.1977 -0.6589 -0.5501
 7990SOL    HW124910   6.135   4.353   1.668  1.9967 -0.4594 -2.0100
 7990SOL    HW224911   6.048   4.467   1.619 -1.2741 -1.6790  0.6226
 7991SOL     OW24912   6.521   4.813   4.548  0.3217  1.1146  0.2059
 7991SOL    HW124913   6.616   4.803   4.546  0.3214  1.1398 -1.1752
 7991SOL    HW224914   6.491   4.755   4.618  1.2351 -0.0975 -0.3767
 7992SOL     OW24915   4.300   7.349   4.568 -0.3576 -0.6051  0.3120
 7992SOL    HW124916   4.208   7.335   4.588 -0.3552  0.9486  1.6439
 7992SOL    HW224917   4.309   7.325   4.476 -1.1886 -4.6021  1.0775
 7993SOL     OW24918   3.492   6.803   4.062 -0.4807 -0.0274  0.2493
 7993SOL    HW124919   3.586   6.816   4.049 -0.7194  2.0112  0.2395
 7993SOL    HW224920   3.450   6.855   3.993 -1.6484 -1.8053 -0.4591
 7994SOL     OW24921   5.488   4.079   7.171 -0.1846 -0.2257 -0.2107
 7994SOL    HW124922   5.443   4.019   7.230 -0.3883  0.7484  0.6663
 7994SOL    HW224923   5.452   4.165   7.193 -0.2797  0.1764 -1.7787
 7995SOL     OW24924   1.948   5.490   1.694  0.2962 -0.2683  0.4936
 7995SOL    HW124925   2.004   5.558   1.656  1.3794 -0.4376  1.7259
 7995SOL    HW224926   1.909   5.531   1.771  0.7201 -0.9194  1.0732
 7996SOL     OW24927   3.658   5.770   1.973  0.0899 -0.3284  0.3526
 7996SOL    HW124928   3.607   5.690   1.963  0.7676 -1.0605  2.2335
 7996SOL    HW224929   3.746   5.740   1.994  0.7248  0.9214 -0.4283
 7997SOL     OW24930   6.775   0.031   7.344  0.0854 -0.0689  0.0583
 7997SOL    HW124931   6.731  -0.026   7.281  0.8153 -0.1717 -0.3646
 7997SOL    HW224932   6.819   0.097   7.290 -0.5500  0.7718  0.5322
 7998SOL     OW24933   3.315   4.944   0.182  0.2406  0.1776  0.0705
 7998SOL    HW124934   3.398   4.908   0.215  1.1395  0.7655 -1.4480
 7998SOL    HW224935   3.298   5.020   0.237  1.3517  0.7481 -0.3506
 7999SOL     OW24936   2.400   5.909   0.296  0.7464  0.2864  0.8989
 7999SOL    HW124937   2.492   5.886   0.305  1.0342  1.3302  0.7380
 7999SOL    HW224938   2.365   5.844   0.234  1.8598  1.1020 -0.6479
 8000SOL     OW24939   2.549   1.571   7.016  0.6671 -0.3650 -0.2311
 8000SOL    HW124940   2.460   1.583   6.981 -0.0674  1.8993  2.0581
 8000SOL    HW224941   2.578   1.488   6.981 -2.3775 -1.1926 -1.0828
 8001SOL     OW24942   3.124   2.960   3.387  0.3084  0.2882 -0.4157
 8001SOL    HW124943   3.081   3.007   3.316 -0.4844  1.6200  0.8938
 8001SOL    HW224944   3.184   3.024   3.426  2.7139 -1.1801 -1.4653
 8002SOL     OW24945   7.272   0.760   3.572  0.3635 -0.1331 -0.2568
 8002SOL    HW124946   7.310   0.842   3.541  0.0245  0.1147 -0.0287
 8002SOL    HW224947   7.190   0.752   3.523 -0.1223  0.2072  0.4875
 8003SOL     OW24948   3.648   1.555   1.127 -0.1535 -0.0508 -0.3423
 8003SOL    HW124949   3.676   1.646   1.114  0.4331  0.2648  2.4278
 8003SOL    HW224950   3.718   1.516   1.179 -1.3906 -1.4913  0.3142
 8004SOL     OW24951   5.853   3.889   2.529 -0.4691 -0.1122  0.0616
 8004SOL    HW124952   5.944   3.914   2.511 -1.2483  2.7646 -0.3886
 8004SOL    HW224953   5.802   3.938   2.464 -2.4544 -0.2688  1.4297
 8005SOL     OW24954   6.889   3.338   1.388 -0.0878  0.1318  0.6822
 8005SOL    HW124955   6.976   3.330   1.350 -0.5079  0.0013 -0.2879
 8005SOL    HW224956   6.884   3.268   1.453 -0.2905 -1.4670 -0.9390
 8006SOL     OW24957   1.224   2.172   6.768 -0.0879  0.8563  0.3449
 8006SOL    HW124958   1.244   2.129   6.851  2.5050  0.5075 -0.3777
 8006SOL    HW224959   1.280   2.250   6.768  0.5460  0.4369 -1.3886
 8007SOL     OW24960   2.730   2.164   3.106 -0.4220 -0.0968 -0.5378
 8007SOL    HW124961   2.707   2.105   3.177 -0.6227  0.9823  0.3146
 8007SOL    HW224962   2.793   2.114   3.053  0.9996 -0.3452  1.2971
 8008SOL     OW24963   5.782   0.037   4.792  0.6845  0.0909 -0.4247
 8008SOL    HW124964   5.787   0.118   4.843 -0.1161  0.8113 -1.4439
 8008SOL    HW224965   5.867  -0.005   4.805  0.0126 -0.4987  2.6552
 8009SOL     OW24966   3.898   6.774   1.440 -0.0675 -0.6739  0.1313
 8009SOL    HW124967   3.955   6.849   1.426 -0.2443 -0.2071  1.7167
 8009SOL    HW224968   3.934   6.705   1.383  0.8706  0.2024 -0.3659
 8010SOL     OW24969   3.841   0.914   4.826  0.1340 -0.3602 -0.3111
 8010SOL    HW124970   3.789   0.961   4.760 -3.2750 -1.1467  1.5423
 8010SOL    HW224971   3.818   0.957   4.908  3.5080 -0.0370  0.5923
 8011SOL     OW24972   4.555   4.320   0.969 -0.2993 -0.3244 -0.4532
 8011SOL    HW124973   4.462   4.337   0.984  0.6416  2.4985  4.3908
 8011SOL    HW224974   4.579   4.378   0.897 -2.1322 -0.7595 -1.4705
 8012SOL     OW24975   0.844   6.516   6.675 -0.7718  0.2160  0.5233
 8012SOL    HW124976   0.887   6.453   6.617 -0.4049  0.0457  0.9666
 8012SOL    HW224977   0.882   6.601   6.652  0.7718 -0.0921  1.7611
 8013SOL     OW24978   0.136   1.109   4.330 -0.3969 -0.3188  0.3454
 8013SOL    HW124979   0.061   1.087   4.275 -0.2077  2.4887 -1.2481
 8013SOL    HW224980   0.211   1.105   4.270  0.4052 -0.8613  1.3477
 8014SOL     OW24981   1.422   5.701   1.816 -0.5340 -0.1283  0.8977
 8014SOL    HW124982   1.454   5.653   1.892 -0.9113 -0.0378  1.1172
 8014SOL    HW224983   1.486   5.771   1.802  0.7121 -1.4476 -0.2057
 8015SOL     OW24984   5.335   1.139   3.995 -0.2151  0.2303 -0.1586
 8015SOL    HW124985   5.248   1.114   3.963 -0.6708  0.0595  1.1570
 8015SOL    HW224986   5.369   1.060   4.038 -0.3767  0.9145  1.3060
 8016SOL     OW24987   3.492   2.141   1.385 -0.1360 -0.3942  0.1851
 8016SOL    HW124988   3.426   2.088   1.429 -1.5341  1.1845  0.0863
 8016SOL    HW224989   3.525   2.200   1.454 -0.5274  0.3887 -0.2810
 8017SOL     OW24990   0.709   5.878   4.876 -0.5701  0.2009 -0.4799
 8017SOL    HW124991   0.730   5.967   4.848 -0.2367  0.8353  1.5584
 8017SOL    HW224992   0.766   5.863   4.952 -1.0642 -1.5344 -0.4007
 8018SOL     OW24993   1.694   3.118   4.454 -0.0916 -0.2708  0.0655
 8018SOL    HW124994   1.607   3.158   4.458 -1.0063 -1.8959 -1.9749
 8018SOL    HW224995   1.727   3.140   4.367  1.6948  0.5121  0.8773
 8019SOL     OW24996   2.516   7.425   5.888  0.1616 -1.0698 -0.3489
 8019SOL    HW124997   2.547   7.438   5.978  1.9577 -0.7464 -0.9851
 8019SOL    HW224998   2.477   7.337   5.890 -1.3567 -0.4231  1.1182
 8020SOL     OW24999   6.055   3.315   6.539  0.2723 -0.2622  0.1867
 8020SOL    HW125000   6.122   3.371   6.579  1.2016 -2.4805  1.9701
 8020SOL    HW225001   5.979   3.324   6.596  0.9165 -1.8409  1.3829
 8021SOL     OW25002   0.942   0.241   4.071  0.0795 -0.3032 -0.0047
 8021SOL    HW125003   0.885   0.172   4.037 -1.1334  1.7859 -2.6205
 8021SOL    HW225004   0.882   0.310   4.099  1.2822  0.2610  1.3148
 8022SOL     OW25005   1.544   2.005   2.764  0.1870 -0.1438 -0.1949
 8022SOL    HW125006   1.548   2.027   2.671  1.1407 -0.9426 -0.3608
 8022SOL    HW225007   1.575   2.084   2.808 -0.3081  0.2526 -0.5461
 8023SOL     OW25008   2.741   2.986   2.526 -0.1963  0.2867 -0.2941
 8023SOL    HW125009   2.819   2.937   2.500 -0.2975  0.9593 -1.9640
 8023SOL    HW225010   2.671   2.950   2.473 -0.5740  1.1830 -0.4199
 8024SOL     OW25011   5.839   6.518   0.820 -0.3337 -0.3926 -0.1433
 8024SOL    HW125012   5.757   6.511   0.771 -2.6922  1.8805  3.0573
 8024SOL    HW225013   5.833   6.448   0.885  0.1021 -0.0458  0.2736
 8025SOL     OW25014   0.988   4.783   3.032 -0.3649 -0.1743  0.4132
 8025SOL    HW125015   0.919   4.776   2.966  0.6004  0.5758 -0.7174
 8025SOL    HW225016   1.067   4.755   2.987  0.3116  0.2962  1.2760
 8026SOL     OW25017   1.212   1.024   2.691 -0.2712  0.4900 -0.2984
 8026SOL    HW125018   1.240   0.933   2.681 -1.7441  0.2110 -2.9100
 8026SOL    HW225019   1.131   1.019   2.742  0.8428  0.6524  1.5946
 8027SOL     OW25020   3.626   6.946   7.416  0.0325  0.0229 -0.4290
 8027SOL    HW125021   3.653   6.999   7.341  0.0306 -0.2340 -0.6117
 8027SOL    HW225022   3.648   6.856   7.392 -0.8338 -0.1736 -0.5167
 8028SOL     OW25023   1.978   4.345   3.654  0.3065  0.5439  0.2714
 8028SOL    HW125024   1.945   4.366   3.567  0.1355  1.6141  0.5783
 8028SOL    HW225025   2.011   4.428   3.688 -1.7085  0.6856  2.0919
 8029SOL     OW25026   1.120   2.033   1.976 -0.3553 -0.0555 -0.0763
 8029SOL    HW125027   1.203   2.065   2.010  1.1277 -3.3976 -0.2034
 8029SOL    HW225028   1.070   2.112   1.956  1.6088  2.0567  2.7323
 8030SOL     OW25029   2.465   6.876   2.908 -0.2431  0.2160 -0.3857
 8030SOL    HW125030   2.438   6.797   2.862  1.8082 -0.3299 -0.7554
 8030SOL    HW225031   2.436   6.862   2.998  3.7211 -3.0780  0.6782
 8031SOL     OW25032   7.122   1.275   6.715  0.0097  0.0370 -0.1635
 8031SOL    HW125033   7.166   1.359   6.702  0.1901 -0.1295 -0.6402
 8031SOL    HW225034   7.162   1.216   6.651  0.5859 -0.6805  0.8174
 8032SOL     OW25035   5.064   2.837   2.178  0.4383 -0.1263  0.1409
 8032SOL    HW125036   5.129   2.866   2.114 -0.4628 -1.1699 -1.3057
 8032SOL    HW225037   5.014   2.916   2.199  0.2818  0.1077 -1.0240
 8033SOL     OW25038   2.017   4.669   0.579 -0.3096  0.4622  0.2572
 8033SOL    HW125039   2.067   4.738   0.534  1.2506 -1.8514 -1.8262
 8033SOL    HW225040   1.966   4.628   0.510 -2.1169  0.2263  1.6721
 8034SOL     OW25041   1.330   6.654   6.713  0.1819  0.0167 -1.1136
 8034SOL    HW125042   1.392   6.712   6.670  0.3619  0.5781 -0.1237
 8034SOL    HW225043   1.363   6.645   6.803 -0.3456 -0.8824 -0.9888
 8035SOL     OW25044   4.030   0.460   5.755  0.4244 -0.3945 -0.3324
 8035SOL    HW125045   4.118   0.423   5.752  1.1118  1.0842  0.3965
 8035SOL    HW225046   3.986   0.424   5.679  1.6810 -1.1228 -0.7425
 8036SOL     OW25047   6.247   2.712   4.096 -0.1978 -0.0388  0.0481
 8036SOL    HW125048   6.257   2.622   4.064  0.8069  0.1106 -0.0871
 8036SOL    HW225049   6.221   2.703   4.187 -0.1110 -0.4682  0.0306
 8037SOL     OW25050   1.498   2.305   0.100  0.2319 -0.2647  0.2554
 8037SOL    HW125051   1.503   2.389   0.055 -1.1306 -0.7211 -0.8210
 8037SOL    HW225052   1.529   2.323   0.189  0.4421  1.2530 -0.1039
 8038SOL     OW25053   2.619   0.452   7.198  0.0129 -0.3112  0.0073
 8038SOL    HW125054   2.526   0.432   7.185  0.4230 -1.4450 -1.4915
 8038SOL    HW225055   2.620   0.521   7.265 -1.7670 -1.8750  1.7704
 8039SOL     OW25056   5.590   3.581   2.160 -0.1910 -0.4408 -0.2175
 8039SOL    HW125057   5.626   3.600   2.247  0.6120 -0.5992 -0.5045
 8039SOL    HW225058   5.602   3.487   2.149  0.1620 -0.3452 -0.6930
 8040SOL     OW25059   4.203   6.099   5.566  0.1794 -0.5518  0.4476
 8040SOL    HW125060   4.168   6.140   5.645 -2.6510 -0.8001 -0.5616
 8040SOL    HW225061   4.219   6.008   5.591 -1.3440 -0.8044  0.6242
 8041SOL     OW25062   3.814   2.008   2.524 -0.2279  0.5004 -0.3331
 8041SOL    HW125063   3.906   2.000   2.547 -0.3471  2.1755  0.8417
 8041SOL    HW225064   3.769   1.947   2.582 -0.0009  0.7857  0.1432
 8042SOL     OW25065   1.798   2.142   7.286 -0.1169  0.1250  0.3092
 8042SOL    HW125066   1.703   2.141   7.292 -0.0350  0.2953  2.1087
 8042SOL    HW225067   1.825   2.052   7.301  0.0667  0.4136  1.9061
 8043SOL     OW25068   3.570   0.630   3.177  0.0052 -0.1533 -0.0165
 8043SOL    HW125069   3.492   0.614   3.124  0.6762 -0.4737 -0.9227
 8043SOL    HW225070   3.584   0.725   3.171 -0.9608  0.0932  1.1033
 8044SOL     OW25071   6.374   5.657   6.277 -0.0828 -0.0349  0.8425
 8044SOL    HW125072   6.414   5.724   6.331  0.2749 -1.0405  1.8785
 8044SOL    HW225073   6.440   5.636   6.211 -0.3348  0.8622  0.2941
 8045SOL     OW25074   0.968   5.046   6.351  0.6863 -0.3794 -0.0108
 8045SOL    HW125075   0.921   5.038   6.434 -0.5637 -0.2502 -0.6759
 8045SOL    HW225076   0.965   5.139   6.330 -0.1223 -0.5643 -0.7939
 8046SOL     OW25077   2.980   1.588   6.713  0.0412 -0.1106 -0.2875
 8046SOL    HW125078   2.910   1.645   6.743 -0.2815 -0.4973 -0.2932
 8046SOL    HW225079   2.938   1.529   6.650  0.3512 -0.3898 -0.2379
 8047SOL     OW25080   3.738   3.679   3.729  0.2585 -0.0326 -0.4419
 8047SOL    HW125081   3.780   3.635   3.803  0.9454  0.0403 -0.7822
 8047SOL    HW225082   3.652   3.639   3.723 -0.2945  0.8102  1.1835
 8048SOL     OW25083   5.949   5.465   6.218  0.1178 -0.2920 -0.1882
 8048SOL    HW125084   5.994   5.536   6.173 -0.8566 -0.4895 -1.5488
 8048SOL    HW225085   5.964   5.481   6.311  0.7759  1.0948 -0.5160
 8049SOL     OW25086   3.524   0.024   3.941  0.6939 -0.0641  0.0611
 8049SOL    HW125087   3.464   0.075   3.886  1.0600  0.5720  0.2541
 8049SOL    HW225088   3.470  -0.006   4.013  0.7988  1.2798  0.7261
 8050SOL     OW25089   5.927   1.542   2.079 -0.3600 -0.0566 -0.1432
 8050SOL    HW125090   5.980   1.488   2.020 -0.0299 -0.9259  0.9363
 8050SOL    HW225091   5.953   1.632   2.057  0.2888 -0.3936 -0.8238
 8051SOL     OW25092   1.478   0.884   5.335  0.0990  0.6473 -0.4314
 8051SOL    HW125093   1.449   0.964   5.291 -0.3106  1.0656  0.5538
 8051SOL    HW225094   1.461   0.901   5.428  0.6391 -0.3247 -0.1414
 8052SOL     OW25095   6.118   1.806   0.714 -0.5945 -0.6925  0.2382
 8052SOL    HW125096   6.064   1.805   0.793 -1.1356 -0.6737 -0.1270
 8052SOL    HW225097   6.148   1.897   0.706 -1.4250 -0.4419 -0.1659
 8053SOL     OW25098   5.935   5.837   2.473 -0.8292  0.5791  0.2837
 8053SOL    HW125099   5.896   5.749   2.477 -1.9633  1.0980  1.4838
 8053SOL    HW225100   5.935   5.867   2.564  0.9559  1.2487  0.0931
 8054SOL     OW25101   2.272   4.169   5.897 -0.5767 -0.4475 -0.3156
 8054SOL    HW125102   2.211   4.124   5.838 -0.1821 -1.7184  0.2246
 8054SOL    HW225103   2.216   4.206   5.966 -0.9196  0.0673 -0.8583
 8055SOL     OW25104   1.589   7.180   6.504  0.3287 -0.2527 -0.7896
 8055SOL    HW125105   1.673   7.224   6.514 -0.1354  0.5686 -0.4196
 8055SOL    HW225106   1.609   7.100   6.455  1.5649 -0.8283  0.5801
 8056SOL     OW25107   1.641   6.450   1.150  0.5850 -0.3952 -0.6578
 8056SOL    HW125108   1.683   6.482   1.070  0.1799  0.8651 -0.4019
 8056SOL    HW225109   1.547   6.454   1.130  0.4408  0.7592  0.1454
 8057SOL     OW25110   1.750   2.748   5.233 -0.0096  0.1869  0.6756
 8057SOL    HW125111   1.805   2.820   5.265 -1.3824  1.5362  0.1225
 8057SOL    HW225112   1.692   2.789   5.169 -1.6675 -1.1695  1.2506
 8058SOL     OW25113   1.049   7.369   0.553  0.4037  0.6334  0.2826
 8058SOL    HW125114   1.004   7.362   0.468 -1.3027  1.4633  1.0674
 8058SOL    HW225115   1.093   7.454   0.549 -0.1076  0.9076  0.4179
 8059SOL     OW25116   0.564   3.850   2.038  0.7589  0.6925  0.3465
 8059SOL    HW125117   0.602   3.783   2.096  1.4069  0.4943 -0.2796
 8059SOL    HW225118   0.515   3.907   2.096  1.0064  0.2317  1.0297
 8060SOL     OW25119   2.877   2.312   2.467  0.5100  0.3803  0.2263
 8060SOL    HW125120   2.785   2.320   2.440 -0.7358 -2.8397  2.8689
 8060SOL    HW225121   2.913   2.245   2.410  0.6292  0.2707  0.4290
 8061SOL     OW25122   5.125   2.591   4.929  0.0002  0.3193 -0.2777
 8061SOL    HW125123   5.086   2.517   4.881 -0.1297 -0.9372  1.6473
 8061SOL    HW225124   5.050   2.646   4.951 -0.2660 -0.3410  0.5103
 8062SOL     OW25125   5.788   6.970   2.758 -0.5490 -0.2879  0.1510
 8062SOL    HW125126   5.802   7.035   2.689 -0.6501 -1.0573 -0.6078
 8062SOL    HW225127   5.702   6.993   2.794 -0.4374  0.2017  0.1223
 8063SOL     OW25128   6.134   1.409   2.480 -0.0473  0.2935 -0.0298
 8063SOL    HW125129   6.198   1.338   2.487  0.5065  0.7866  0.0090
 8063SOL    HW225130   6.059   1.370   2.436  1.0053  0.1790 -1.8254
 8064SOL     OW25131   4.251   5.460   3.641  0.5668 -0.0974 -0.2695
 8064SOL    HW125132   4.155   5.456   3.647  0.6238  0.5562  2.5679
 8064SOL    HW225133   4.281   5.385   3.691  1.4802  1.4592  1.6466
 8065SOL     OW25134   6.085   4.979   5.330  1.0388  0.1459  0.2973
 8065SOL    HW125135   6.145   4.962   5.402  1.3068  3.4134  0.9906
 8065SOL    HW225136   6.072   5.074   5.331 -2.0558 -0.1264 -1.5163
 8066SOL     OW25137   7.267   5.911   0.801  0.1014  0.5062 -0.4811
 8066SOL    HW125138   7.361   5.898   0.813  0.2665  0.9446 -1.1723
 8066SOL    HW225139   7.229   5.825   0.813  0.7979 -0.0468 -1.8903
 8067SOL     OW25140   6.098   3.509   2.878 -0.4414  0.1388  0.3127
 8067SOL    HW125141   6.040   3.581   2.904 -2.4033 -1.2660  0.1138
 8067SOL    HW225142   6.063   3.433   2.925 -0.3523 -1.2681 -1.7565
 8068SOL     OW25143   7.088   7.188   7.242 -0.1862  0.1112  0.0398
 8068SOL    HW125144   7.023   7.124   7.215 -0.2393  1.2318 -2.9178
 8068SOL    HW225145   7.072   7.201   7.336 -1.1040 -3.0289  0.4282
 8069SOL     OW25146   1.751   4.947   2.235  0.2824 -0.1957 -0.3365
 8069SOL    HW125147   1.801   4.897   2.298  0.3255 -0.5765 -0.6701
 8069SOL    HW225148   1.729   4.885   2.166 -1.7273 -0.3656  0.3977
 8070SOL     OW25149   3.367   2.899   0.593  0.3076  0.2054  0.0093
 8070SOL    HW125150   3.346   2.982   0.635  1.5603  1.1720 -1.1458
 8070SOL    HW225151   3.307   2.894   0.518  1.1866  0.8307 -0.7691
 8071SOL     OW25152   1.147   0.062   3.989  0.0171  0.2577  0.3743
 8071SOL    HW125153   1.073   0.121   4.004  0.4088  1.0550 -0.7441
 8071SOL    HW225154   1.209   0.083   4.059 -1.1660 -1.0871  1.9240
 8072SOL     OW25155   0.891   7.151   5.823  0.1326 -0.4055 -0.4192
 8072SOL    HW125156   0.979   7.159   5.785  0.9468 -0.3483  1.3895
 8072SOL    HW225157   0.855   7.240   5.820  0.9576 -0.0160  0.6708
 8073SOL     OW25158   4.065   0.970   5.910 -0.6423  0.3625  0.0921
 8073SOL    HW125159   4.124   0.999   5.979  0.9170  0.6117 -1.2929
 8073SOL    HW225160   4.075   0.875   5.908 -0.4761  0.3813  0.0303
 8074SOL     OW25161   6.744   4.008   0.876 -0.6283  0.6980 -0.2471
 8074SOL    HW125162   6.825   4.056   0.856 -0.8616  1.0418 -0.3823
 8074SOL    HW225163   6.771   3.917   0.883 -0.2562  0.7887 -0.4723
 8075SOL     OW25164   5.714   6.409   1.036  0.3082 -0.0123 -0.6399
 8075SOL    HW125165   5.638   6.352   1.023 -0.6373  1.2809 -0.9138
 8075SOL    HW225166   5.746   6.386   1.124 -1.1457  0.2704 -0.0150
 8076SOL     OW25167   6.056   6.102   6.998  0.2995 -0.1550 -0.0514
 8076SOL    HW125168   6.139   6.128   6.957  1.4174 -1.0437  1.5090
 8076SOL    HW225169   6.060   6.006   7.002 -0.9225 -0.2290 -0.1524
 8077SOL     OW25170   4.526   4.557   0.020  0.0937  0.4488  0.3605
 8077SOL    HW125171   4.477   4.553   0.103 -2.0805 -0.2127 -0.8773
 8077SOL    HW225172   4.596   4.493   0.031 -0.7217 -0.3152  1.3460
 8078SOL     OW25173   3.158   0.176   1.365  0.2077 -0.4936  0.1841
 8078SOL    HW125174   3.119   0.262   1.375  0.0077 -0.6615  0.8933
 8078SOL    HW225175   3.245   0.184   1.406 -0.4048 -1.0347  1.6806
 8079SOL     OW25176   6.280   2.971   5.996 -0.0268  0.0059  0.6460
 8079SOL    HW125177   6.336   2.894   6.013  0.2807  0.4387  1.7296
 8079SOL    HW225178   6.342   3.042   5.981 -0.3133  0.0353 -0.4376
 8080SOL     OW25179   5.994   4.205   0.820  0.0170 -0.4969  0.5104
 8080SOL    HW125180   5.964   4.137   0.880 -1.4758 -1.1664 -0.9001
 8080SOL    HW225181   6.040   4.268   0.875 -1.9074 -0.6907  2.4686
 8081SOL     OW25182   3.685   2.445   0.442 -0.7721  0.2021 -0.0907
 8081SOL    HW125183   3.652   2.461   0.531 -1.4105  0.1631 -0.3134
 8081SOL    HW225184   3.661   2.354   0.424 -1.8676  0.6154 -0.8145
 8082SOL     OW25185   2.319   5.524   4.628  0.2685 -0.2881  0.0699
 8082SOL    HW125186   2.370   5.490   4.701  0.4771  1.5125  0.8342
 8082SOL    HW225187   2.275   5.448   4.590 -0.0075 -1.2427  2.1869
 8083SOL     OW25188   2.026   2.247   5.763 -0.0889 -0.2230 -0.4174
 8083SOL    HW125189   1.963   2.183   5.794 -1.1537  0.7028 -0.6087
 8083SOL    HW225190   2.098   2.195   5.728 -1.5621 -1.3582 -1.8914
 8084SOL     OW25191   2.798   5.540   0.191  0.0661 -0.1222 -0.7398
 8084SOL    HW125192   2.756   5.494   0.118  0.8187 -1.1309 -0.5614
 8084SOL    HW225193   2.856   5.603   0.150  3.1072 -2.9367 -1.2397
 8085SOL     OW25194   4.739   6.868   1.552 -0.3786 -0.3872  0.5138
 8085SOL    HW125195   4.829   6.851   1.525 -0.1162  0.4912  0.7943
 8085SOL    HW225196   4.689   6.793   1.519  0.2693 -0.3513 -0.6042
 8086SOL     OW25197   6.006   5.690   0.497  0.2753 -0.4355 -0.6296
 8086SOL    HW125198   6.067   5.749   0.541  2.3782 -1.1140 -2.3878
 8086SOL    HW225199   5.919   5.724   0.518  1.2780  1.2044  1.1861
 8087SOL     OW25200   5.474   2.824   5.431 -0.0530 -0.2198  0.1642
 8087SOL    HW125201   5.485   2.830   5.526  0.1466 -2.4418  0.3321
 8087SOL    HW225202   5.552   2.866   5.396  0.4681 -0.4419  1.0181
 8088SOL     OW25203   2.052   2.667   0.278 -0.3520  0.2604 -0.8474
 8088SOL    HW125204   2.108   2.688   0.353 -1.3905  0.9193 -0.2209
 8088SOL    HW225205   2.101   2.696   0.202 -0.4617  2.3272 -0.2061
 8089SOL     OW25206   6.939   3.182   6.323  0.5955 -0.5769  0.2124
 8089SOL    HW125207   6.856   3.220   6.351  0.5605 -0.9447  0.6234
 8089SOL    HW225208   6.970   3.240   6.254 -0.1118 -0.5633 -0.0977
 8090SOL     OW25209   0.271   5.425   5.986 -0.5873  0.4033 -0.0325
 8090SOL    HW125210   0.352   5.465   6.017 -0.2082 -0.4119  0.0704
 8090SOL    HW225211   0.290   5.399   5.896  0.0906 -1.8512  0.6809
 8091SOL     OW25212   0.386   6.362   2.493 -0.3680 -0.1592  0.2073
 8091SOL    HW125213   0.376   6.410   2.411 -0.7537 -1.5029 -0.5604
 8091SOL    HW225214   0.470   6.317   2.484 -0.2591 -0.0581  0.6950
 8092SOL     OW25215   0.295   4.331   4.602  0.3140  0.6021 -0.1298
 8092SOL    HW125216   0.375   4.357   4.648  0.9286  0.3759 -1.0383
 8092SOL    HW225217   0.311   4.242   4.573  0.3518  1.0681 -1.6281
 8093SOL     OW25218   0.107   6.219   0.484 -0.2728  0.0455  0.3129
 8093SOL    HW125219   0.129   6.142   0.536  2.4381  1.9565  2.3416
 8093SOL    HW225220   0.168   6.218   0.411 -0.0972  0.3679  0.4536
 8094SOL     OW25221   2.957   0.062   3.622 -0.4015 -0.0311  0.6093
 8094SOL    HW125222   2.879   0.080   3.674 -0.7109  0.6990 -0.0922
 8094SOL    HW225223   2.927   0.001   3.554  0.6678 -3.6000  3.0605
 8095SOL     OW25224   6.453   0.094   1.396 -0.1582  0.0726 -0.0193
 8095SOL    HW125225   6.452   0.094   1.492 -1.3868  1.5295  0.0112
 8095SOL    HW225226   6.373   0.045   1.371 -0.5930  0.8913 -0.2615
 8096SOL     OW25227   2.128   4.888   0.851  0.1747  0.2416  0.1953
 8096SOL    HW125228   2.177   4.956   0.898  0.7536  0.7636 -1.1224
 8096SOL    HW225229   2.102   4.929   0.768 -1.5941 -0.3668  0.3960
 8097SOL     OW25230   6.052   1.194   7.115  0.2848 -0.3001 -0.2002
 8097SOL    HW125231   5.981   1.242   7.158  1.0869 -0.6118  1.5401
 8097SOL    HW225232   6.031   1.199   7.021 -1.1223  1.0408  0.1507
 8098SOL     OW25233   2.891   0.647   4.079 -0.9206  0.7167 -0.4297
 8098SOL    HW125234   2.843   0.575   4.120 -0.0247  0.9897  1.1707
 8098SOL    HW225235   2.955   0.603   4.022 -1.0580  0.2774 -0.2499
 8099SOL     OW25236   2.946   4.469   3.618  0.2777  0.1998 -0.0964
 8099SOL    HW125237   2.949   4.560   3.648 -0.1418  0.6231 -1.2980
 8099SOL    HW225238   2.861   4.437   3.648  0.7238 -0.0325  0.9546
 8100SOL     OW25239   3.690   4.575   1.816  0.1890 -0.0534  0.0317
 8100SOL    HW125240   3.627   4.557   1.886  0.8869  0.6146  0.8724
 8100SOL    HW225241   3.773   4.591   1.862  0.2778  2.2567 -0.7728
 8101SOL     OW25242   2.682   0.691   0.653  0.3532 -0.4830  0.4115
 8101SOL    HW125243   2.628   0.639   0.592 -0.2949  1.1418 -0.4621
 8101SOL    HW225244   2.749   0.730   0.597 -1.2275  2.3792  0.2972
 8102SOL     OW25245   1.473   6.764   0.019  0.0883 -0.7765 -0.2782
 8102SOL    HW125246   1.413   6.757   0.094 -0.4165  1.0896 -0.4699
 8102SOL    HW225247   1.426   6.721  -0.052 -0.6086 -0.2286 -0.1683
 8103SOL     OW25248   5.360   4.686   5.850  0.2427  0.1147  0.1535
 8103SOL    HW125249   5.447   4.717   5.825 -0.7774  1.4579 -1.9636
 8103SOL    HW225250   5.336   4.624   5.781 -0.0644 -1.0855  1.3073
 8104SOL     OW25251   7.139   3.698   0.224 -0.2519  0.9067  0.3437
 8104SOL    HW125252   7.081   3.731   0.292 -0.8380  1.4084 -0.3836
 8104SOL    HW225253   7.103   3.612   0.202  0.4494  0.3692  1.2621
 8105SOL     OW25254   0.561   5.613   4.460 -0.1802  0.5747 -0.0298
 8105SOL    HW125255   0.636   5.612   4.401  0.2082 -0.0311  0.4602
 8105SOL    HW225256   0.584   5.677   4.527  0.1253  0.0379  0.3901
 8106SOL     OW25257   3.862   7.242   2.705 -0.5023 -0.2043  0.1090
 8106SOL    HW125258   3.776   7.201   2.691 -0.9045  0.2665  1.0628
 8106SOL    HW225259   3.924   7.169   2.702 -1.0034 -0.6298 -0.0479
 8107SOL     OW25260   4.225   0.274   6.353  0.3081 -0.1932 -0.5870
 8107SOL    HW125261   4.135   0.267   6.385  0.7285 -1.5826  0.4105
 8107SOL    HW225262   4.251   0.364   6.371  0.6284 -0.9111  3.5211
 8108SOL     OW25263   6.242   3.626   3.830  0.3636 -0.1692  0.2046
 8108SOL    HW125264   6.253   3.619   3.925  1.6454 -0.0133  0.0810
 8108SOL    HW225265   6.185   3.702   3.818 -1.1935 -1.1838  0.9016
 8109SOL     OW25266   0.319   2.742   2.538 -0.3131 -0.6421 -0.2364
 8109SOL    HW125267   0.392   2.752   2.477  0.9284  1.2735  1.4507
 8109SOL    HW225268   0.303   2.648   2.541  1.1244 -0.9825 -1.7274
 8110SOL     OW25269   0.185   3.216   2.804  0.1494 -0.0160  0.2245
 8110SOL    HW125270   0.245   3.271   2.755 -0.3750  0.0765 -0.3288
 8110SOL    HW225271   0.181   3.134   2.755  1.8732 -1.0537  1.6979
 8111SOL     OW25272   1.160   0.247   0.270  0.1916  0.4125 -0.0728
 8111SOL    HW125273   1.198   0.333   0.251  3.5974 -0.8790  0.2572
 8111SOL    HW225274   1.146   0.208   0.183 -1.3554  1.1941 -0.2235
 8112SOL     OW25275   3.487   7.046   7.017  0.0175 -0.0131 -0.4026
 8112SOL    HW125276   3.411   6.989   7.031  0.3898 -0.4513 -0.1256
 8112SOL    HW225277   3.484   7.109   7.088 -1.3102  1.3454 -1.6199
 8113SOL     OW25278   7.076   5.847   3.345  0.2361  0.4790 -0.3696
 8113SOL    HW125279   7.038   5.763   3.369 -0.7196  0.9495 -0.1832
 8113SOL    HW225280   7.105   5.885   3.428 -1.8089  1.4997 -0.0655
 8114SOL     OW25281   5.257   2.784   6.635 -0.1715 -0.1851  0.2952
 8114SOL    HW125282   5.317   2.818   6.701 -0.9704  0.3748  0.7461
 8114SOL    HW225283   5.312   2.771   6.558  0.8357 -1.0905  1.1172
 8115SOL     OW25284   1.648   3.564   5.970 -0.1098  0.4221 -0.2508
 8115SOL    HW125285   1.699   3.568   6.050  1.8086 -1.1089 -1.3114
 8115SOL    HW225286   1.558   3.547   5.999  0.5308 -0.0288  1.5626
 8116SOL     OW25287   4.646   6.272   0.950 -0.1257 -0.3001 -0.1941
 8116SOL    HW125288   4.700   6.349   0.968 -2.1136  1.9393 -2.8898
 8116SOL    HW225289   4.573   6.279   1.012 -0.4577  0.2111 -0.6301
 8117SOL     OW25290   2.890   3.470   6.979 -0.0706  0.2047 -0.1287
 8117SOL    HW125291   2.943   3.396   6.952  0.8429  1.4535 -1.9353
 8117SOL    HW225292   2.802   3.434   6.992  0.5868 -1.3650  0.1420
 8118SOL     OW25293   6.269   6.166   5.924 -0.2109  0.8648  0.2782
 8118SOL    HW125294   6.268   6.245   5.869 -0.6817  1.9141  1.7256
 8118SOL    HW225295   6.180   6.159   5.957 -0.2370 -0.4469 -0.0411
 8119SOL     OW25296   0.764   6.216   4.237 -0.2716 -0.1573 -0.0738
 8119SOL    HW125297   0.683   6.169   4.217 -1.7797  0.9612  2.8166
 8119SOL    HW225298   0.833   6.153   4.218 -1.9482 -1.9755 -0.4693
 8120SOL     OW25299   1.350   6.154   1.308 -0.2084 -0.4327 -0.7465
 8120SOL    HW125300   1.397   6.083   1.264 -0.9925  0.3693 -3.0091
 8120SOL    HW225301   1.272   6.169   1.254 -0.0887  2.1333 -0.3402
 8121SOL     OW25302   2.324   3.895   2.972  0.4608  0.1980 -0.3927
 8121SOL    HW125303   2.271   3.851   2.906  1.0249  0.4968 -1.0541
 8121SOL    HW225304   2.311   3.843   3.051 -0.5845  0.1043 -0.6196
 8122SOL     OW25305   5.132   3.233   7.256 -0.5233  0.2538 -0.0738
 8122SOL    HW125306   5.084   3.150   7.257 -0.5671  0.2682 -0.6344
 8122SOL    HW225307   5.064   3.300   7.271 -1.0851  0.4465 -2.7944
 8123SOL     OW25308   2.109   1.229   0.231 -0.6431 -0.1003 -0.5948
 8123SOL    HW125309   2.072   1.204   0.146 -0.9805 -3.9192  0.4854
 8123SOL    HW225310   2.202   1.209   0.223 -0.2230  1.6791 -0.6790
 8124SOL     OW25311   5.334   7.131   5.549  0.0764 -0.2863 -0.4096
 8124SOL    HW125312   5.368   7.136   5.460 -0.3749 -0.8059 -0.6175
 8124SOL    HW225313   5.248   7.172   5.546  0.1767 -0.0506 -0.1501
 8125SOL     OW25314   2.850   0.438   7.040  0.0302  0.6937  0.2245
 8125SOL    HW125315   2.777   0.431   7.101 -0.4777 -0.2104 -0.4658
 8125SOL    HW225316   2.897   0.516   7.069 -0.2565  0.3564  1.6848
 8126SOL     OW25317   5.565   3.382   2.456 -0.7166  0.0174 -1.0382
 8126SOL    HW125318   5.598   3.326   2.526  0.2316 -1.8097 -2.8537
 8126SOL    HW225319   5.622   3.459   2.459 -1.3489  0.4831  0.7910
 8127SOL     OW25320   6.391   6.599   3.280  0.1484 -0.8815 -0.3597
 8127SOL    HW125321   6.335   6.604   3.356 -0.0130 -0.0658 -0.5178
 8127SOL    HW225322   6.356   6.526   3.228  0.8597 -2.0893  0.7938
 8128SOL     OW25323   0.498   6.874   6.623 -0.0059  0.4355  0.0367
 8128SOL    HW125324   0.445   6.795   6.610  0.9595 -0.1702 -0.3633
 8128SOL    HW225325   0.583   6.841   6.651 -0.4149  1.4785  2.8156
 8129SOL     OW25326   3.779   6.485   3.084 -0.3386 -0.4023 -0.2496
 8129SOL    HW125327   3.694   6.528   3.096 -0.4491 -0.2426 -1.4151
 8129SOL    HW225328   3.822   6.491   3.169 -1.8542 -1.2825  0.6313
 8130SOL     OW25329   4.275   1.667   5.320  0.2674  0.4004 -0.1617
 8130SOL    HW125330   4.363   1.701   5.307  0.4340  0.1915  0.4078
 8130SOL    HW225331   4.220   1.720   5.262  0.7078  0.7899 -0.2277
 8131SOL     OW25332   0.268   7.424   0.632  0.1941 -0.3441 -0.2962
 8131SOL    HW125333   0.331   7.438   0.702 -0.7892  1.1482  0.3483
 8131SOL    HW225334   0.320   7.387   0.560  1.6581  0.1665  0.4545
 8132SOL     OW25335   5.404   6.866   1.473 -0.3035  0.0213 -0.3308
 8132SOL    HW125336   5.314   6.862   1.506 -0.6293  0.9893 -1.0561
 8132SOL    HW225337   5.442   6.943   1.516 -0.5122  0.8747 -1.6289
 8133SOL     OW25338   5.781   0.170   6.218  0.2225  0.3000  0.1408
 8133SOL    HW125339   5.850   0.210   6.271  0.3973  0.6058 -0.3164
 8133SOL    HW225340   5.770   0.229   6.144 -0.4463  0.1871  0.1423
 8134SOL     OW25341   5.121   4.434   2.580  0.0983  0.2920  0.2547
 8134SOL    HW125342   5.056   4.489   2.623  0.5177  0.9350  0.0950
 8134SOL    HW225343   5.119   4.351   2.627  1.1358  1.2543  2.0835
 8135SOL     OW25344   0.464   0.951   3.698 -0.4386 -0.0172  0.3802
 8135SOL    HW125345   0.503   1.030   3.735  0.4680  0.1080 -0.7892
 8135SOL    HW225346   0.377   0.947   3.737  0.1932  0.4949  1.9402
 8136SOL     OW25347   7.058   6.188   6.229  0.3761 -0.0908 -0.4322
 8136SOL    HW125348   7.146   6.153   6.213 -0.0683 -1.6443  0.2685
 8136SOL    HW225349   7.069   6.283   6.231  2.1777 -0.2787  0.3776
 8137SOL     OW25350   4.444   4.919   4.163 -0.1842 -0.0940  0.1906
 8137SOL    HW125351   4.476   4.899   4.250  0.8360  0.4789 -0.0316
 8137SOL    HW225352   4.351   4.898   4.165 -0.1874  0.0124  1.4430
 8138SOL     OW25353   5.461   6.456   2.359 -0.0884 -0.1979 -0.1053
 8138SOL    HW125354   5.536   6.455   2.300 -0.1823 -0.6498 -0.2168
 8138SOL    HW225355   5.494   6.420   2.441 -0.7673 -2.8580 -0.8811
 8139SOL     OW25356   2.056   3.365   2.741  0.2379 -0.0488 -0.4823
 8139SOL    HW125357   2.056   3.444   2.688 -1.1933  0.6014  0.4189
 8139SOL    HW225358   2.022   3.296   2.683 -0.0527  0.3544 -0.7910
 8140SOL     OW25359   5.890   1.943   0.951  0.3714  0.3530 -0.5536
 8140SOL    HW125360   5.828   1.889   1.001  1.5826 -1.4647 -0.9167
 8140SOL    HW225361   5.849   1.955   0.866  0.1595 -0.1614 -0.5275
 8141SOL     OW25362   1.632   0.750   5.637  0.4291 -0.3698 -0.3040
 8141SOL    HW125363   1.631   0.843   5.614  0.1455 -0.2480  0.1823
 8141SOL    HW225364   1.713   0.717   5.598  0.7334  0.1684 -0.1488
 8142SOL     OW25365   4.895   3.789   0.287  0.2841 -0.3306  0.8291
 8142SOL    HW125366   4.870   3.755   0.373  0.1880 -0.1591  0.8690
 8142SOL    HW225367   4.856   3.877   0.284  0.2948 -0.3341  0.6150
 8143SOL     OW25368   0.461   1.118   4.588  0.5088 -0.4286  0.3551
 8143SOL    HW125369   0.493   1.096   4.501  1.8652 -0.4029  0.8252
 8143SOL    HW225370   0.366   1.123   4.578  0.6487 -0.3076 -1.1402
 8144SOL     OW25371   1.188   5.991   2.561  0.8098 -0.3828 -0.2197
 8144SOL    HW125372   1.249   5.975   2.634  0.5161 -1.3809 -0.1835
 8144SOL    HW225373   1.103   6.004   2.604  0.9319  0.7704 -0.2865
 8145SOL     OW25374   4.467   4.139   6.052 -0.1520  0.4266 -0.1746
 8145SOL    HW125375   4.531   4.077   6.088  1.4208  0.9422 -1.8808
 8145SOL    HW225376   4.392   4.085   6.029  1.2090 -0.9426 -1.6780
 8146SOL     OW25377   5.099   3.854   5.108  0.4939 -0.2091  0.6022
 8146SOL    HW125378   5.192   3.856   5.088  0.4596 -1.2456  0.3037
 8146SOL    HW225379   5.069   3.768   5.079 -1.3176  1.3476 -2.6558
 8147SOL     OW25380   5.631   1.431   1.989 -0.3749 -0.1565 -0.2589
 8147SOL    HW125381   5.647   1.349   1.942 -1.4040 -0.5487  0.0482
 8147SOL    HW225382   5.718   1.458   2.020 -0.1785 -1.9587  0.9842
 8148SOL     OW25383   0.078   0.063   7.029  0.0420 -0.1738 -0.0045
 8148SOL    HW125384   0.135   0.117   6.974  2.7449 -2.9165 -0.2079
 8148SOL    HW225385   0.134   0.037   7.103 -1.9702 -0.5624  1.4744
 8149SOL     OW25386   3.601   2.483   1.429  0.0317 -0.1249  0.1550
 8149SOL    HW125387   3.671   2.449   1.373  1.2593 -0.3113  1.7368
 8149SOL    HW225388   3.601   2.425   1.505 -4.5078 -2.6382 -1.3910
 8150SOL     OW25389   4.443   4.509   6.180  0.1147 -0.4352 -0.0359
 8150SOL    HW125390   4.495   4.589   6.173  0.1690 -0.4181  0.5293
 8150SOL    HW225391   4.500   4.447   6.225  0.3386 -1.0303 -1.1047
 8151SOL     OW25392   4.054   1.815   0.064 -0.1827  0.0926  0.5197
 8151SOL    HW125393   4.006   1.888   0.102 -0.2722 -0.5526  1.7086
 8151SOL    HW225394   4.102   1.777   0.138 -0.0725 -0.9897 -0.0798
 8152SOL     OW25395   3.419   4.921   1.549  0.0479  0.1869  0.0922
 8152SOL    HW125396   3.439   4.983   1.479  2.4921 -0.9730 -0.3477
 8152SOL    HW225397   3.346   4.870   1.516 -0.0210  0.8472 -0.8207
 8153SOL     OW25398   3.075   3.156   6.478 -0.4378 -0.4432  0.0102
 8153SOL    HW125399   3.058   3.083   6.537  0.0259 -1.2570 -0.8336
 8153SOL    HW225400   3.016   3.225   6.508 -1.0788 -1.2473  0.6635
 8154SOL     OW25401   4.770   2.545   4.675  0.5325  0.2450  0.4997
 8154SOL    HW125402   4.684   2.587   4.667  0.4953  0.0697 -0.0640
 8154SOL    HW225403   4.758   2.458   4.637  0.9448  0.2004  0.4630
 8155SOL     OW25404   7.218   6.628   7.314  0.2937  0.0482 -0.2424
 8155SOL    HW125405   7.262   6.649   7.231  0.2039 -0.9772 -0.5640
 8155SOL    HW225406   7.288   6.596   7.371  0.2885  0.3672 -0.0544
 8156SOL     OW25407   2.175   3.884   1.213  0.1893 -0.0316 -0.0113
 8156SOL    HW125408   2.167   3.857   1.305 -1.8288  2.0260  0.5134
 8156SOL    HW225409   2.102   3.841   1.169 -0.7329  1.3991  0.0488
 8157SOL     OW25410   1.151   3.276   4.444  0.2479  0.2143 -0.4268
 8157SOL    HW125411   1.121   3.367   4.445 -1.6341 -0.3431  0.9537
 8157SOL    HW225412   1.097   3.235   4.376  0.0355 -0.1580 -0.0385
 8158SOL     OW25413   0.704   3.230   7.034  0.1366  0.0876 -0.1888
 8158SOL    HW125414   0.732   3.308   6.985 -0.6598  0.7017  0.3000
 8158SOL    HW225415   0.614   3.251   7.062  0.1214 -0.7749  0.4387
 8159SOL     OW25416   1.930   0.333   7.199 -0.1027 -0.8101  0.3503
 8159SOL    HW125417   1.902   0.311   7.288  0.0541  1.5026  1.0197
 8159SOL    HW225418   1.998   0.269   7.179 -2.7153 -3.8619  0.3261
 8160SOL     OW25419   0.757   4.754   0.732 -0.1717 -0.2806 -0.4539
 8160SOL    HW125420   0.783   4.663   0.720 -0.4004 -0.3745 -0.2554
 8160SOL    HW225421   0.835   4.805   0.711 -0.3761 -0.4580 -1.7366
 8161SOL     OW25422   1.806   4.973   7.026  0.5236 -1.0808 -0.8460
 8161SOL    HW125423   1.899   4.997   7.022  0.2849  0.6019  1.7840
 8161SOL    HW225424   1.797   4.923   7.107 -1.0262 -0.3393 -0.5237
 8162SOL     OW25425   4.919   1.460   4.671 -0.0349 -0.0445 -0.3938
 8162SOL    HW125426   4.981   1.389   4.688 -0.1013 -0.0684 -0.2487
 8162SOL    HW225427   4.852   1.420   4.616  0.1306  0.0071 -0.6302
 8163SOL     OW25428   6.321   0.376   2.101 -0.2617 -0.3420 -0.3379
 8163SOL    HW125429   6.237   0.395   2.059  0.1330  0.0611 -0.9707
 8163SOL    HW225430   6.353   0.461   2.131  0.7214 -0.2205 -1.6599
 8164SOL     OW25431   7.278   3.686   3.336  1.2844  0.6031  0.0710
 8164SOL    HW125432   7.243   3.631   3.406 -1.0372 -0.3972 -1.7483
 8164SOL    HW225433   7.373   3.676   3.344  1.0559 -3.5152  0.1315
 8165SOL     OW25434   2.360   3.249   3.566  0.5087 -0.7777  0.1252
 8165SOL    HW125435   2.399   3.248   3.653 -0.1000  2.0904  0.5108
 8165SOL    HW225436   2.289   3.185   3.571 -0.6692  0.5988  2.3524
 8166SOL     OW25437   4.223   0.580   3.484  0.0501 -0.4192  0.2647
 8166SOL    HW125438   4.223   0.558   3.391 -0.3641 -0.7476  0.3370
 8166SOL    HW225439   4.142   0.629   3.496  0.6082  0.5296  0.2515
 8167SOL     OW25440   1.386   4.423   5.699 -0.3269 -0.0509 -0.0843
 8167SOL    HW125441   1.403   4.516   5.713 -2.7133  0.6896 -1.5226
 8167SOL    HW225442   1.471   4.387   5.670 -0.3857  2.9583 -5.1473
 8168SOL     OW25443   3.563   1.342   2.312  0.3557  0.4125 -0.0081
 8168SOL    HW125444   3.588   1.252   2.288 -2.0756 -0.3800  0.1268
 8168SOL    HW225445   3.530   1.380   2.230  0.8430  1.0117  0.0645
 8169SOL     OW25446   7.387   2.518   3.697  0.1630 -0.7263 -0.5365
 8169SOL    HW125447   7.437   2.445   3.661  0.6066 -0.7586  0.1217
 8169SOL    HW225448   7.296   2.494   3.684  0.3003 -0.5973 -1.8986
 8170SOL     OW25449   1.732   1.350   5.410 -0.2785  0.3090 -0.0649
 8170SOL    HW125450   1.788   1.274   5.401 -0.1520  0.5725 -1.9913
 8170SOL    HW225451   1.771   1.416   5.353  0.0104  2.0989  2.0639
 8171SOL     OW25452   3.258   6.693   4.974 -0.3368 -0.8072  0.4978
 8171SOL    HW125453   3.325   6.760   4.961 -1.0519 -0.2937 -0.7813
 8171SOL    HW225454   3.175   6.740   4.958 -0.8925 -1.8395  0.2851
 8172SOL     OW25455   7.259   5.356   4.529 -0.1467 -0.4398  0.0091
 8172SOL    HW125456   7.317   5.285   4.502  0.3533  0.0157 -0.1519
 8172SOL    HW225457   7.232   5.334   4.618 -0.6625 -1.2418 -0.3430
 8173SOL     OW25458   0.306   1.543   3.955  0.3990 -0.0409 -0.2191
 8173SOL    HW125459   0.353   1.569   4.035  2.8338 -0.3725 -1.4595
 8173SOL    HW225460   0.277   1.454   3.973  3.3683 -1.2062 -0.5994
 8174SOL     OW25461   4.845   4.746   0.131 -0.1039 -0.3680 -0.8111
 8174SOL    HW125462   4.904   4.819   0.152 -0.2148 -0.8268  1.3197
 8174SOL    HW225463   4.762   4.771   0.171  0.4165 -2.5428  1.9185
 8175SOL     OW25464   3.742   0.943   4.365 -0.6965 -0.2741  0.3650
 8175SOL    HW125465   3.749   0.868   4.423 -1.3068 -0.2715  0.4456
 8175SOL    HW225466   3.707   0.907   4.283 -0.2259 -0.2093  0.1270
 8176SOL     OW25467   4.734   5.100   3.039 -0.4475 -0.4541  0.0655
 8176SOL    HW125468   4.723   5.095   3.134  1.7137 -0.6803  0.3518
 8176SOL    HW225469   4.667   5.041   3.004 -1.9518  0.4011  1.3667
 8177SOL     OW25470   1.545   5.766   2.722 -0.3049  0.0202  0.5210
 8177SOL    HW125471   1.585   5.701   2.779 -0.6995 -0.3472  0.3876
 8177SOL    HW225472   1.597   5.764   2.642  1.5480  2.0036  1.5724
 8178SOL     OW25473   5.469   3.395   3.473  0.0686  0.0273  0.0998
 8178SOL    HW125474   5.458   3.447   3.553 -1.0908 -1.2145  0.7996
 8178SOL    HW225475   5.544   3.339   3.491 -1.1161 -1.3419  0.9890
 8179SOL     OW25476   0.363   5.774   6.763  0.0646  0.3356  0.1011
 8179SOL    HW125477   0.321   5.691   6.780  0.0816  0.6283  1.7274
 8179SOL    HW225478   0.442   5.773   6.818 -0.9705  2.1972  1.7639
 8180SOL     OW25479   1.383   1.202   2.541 -0.2606 -0.4775 -0.5205
 8180SOL    HW125480   1.326   1.142   2.589 -1.1322  0.6488 -0.1080
 8180SOL    HW225481   1.434   1.247   2.608  0.4514 -0.8071 -0.8310
 8181SOL     OW25482   6.376   0.775   4.042 -0.8568 -0.3131  0.9624
 8181SOL    HW125483   6.435   0.716   3.995 -1.7555 -0.6477  0.2176
 8181SOL    HW225484   6.386   0.750   4.134 -1.0765 -1.5051  0.6833
 8182SOL     OW25485   3.788   3.517   4.225 -0.0331  0.2638  0.1561
 8182SOL    HW125486   3.773   3.589   4.286 -0.6559 -0.0160  0.3437
 8182SOL    HW225487   3.743   3.442   4.264  0.8674 -0.3183  0.1161
 8183SOL     OW25488   2.655   5.890   7.091  0.4118 -0.2581  0.6491
 8183SOL    HW125489   2.568   5.851   7.088 -0.5249  1.4836  2.9888
 8183SOL    HW225490   2.707   5.829   7.144 -0.2840  0.2327  1.9304
 8184SOL     OW25491   7.347   4.565   5.620  0.1132  0.0859  0.3455
 8184SOL    HW125492   7.413   4.516   5.571  0.3682  0.6091  0.1617
 8184SOL    HW225493   7.333   4.645   5.569 -0.7011 -0.0446  0.3519
 8185SOL     OW25494   2.470   1.446   3.612 -0.3223 -0.0794  0.2846
 8185SOL    HW125495   2.514   1.480   3.690 -0.0144  0.5154 -0.1368
 8185SOL    HW225496   2.407   1.514   3.589  0.2472  0.1880 -0.5281
 8186SOL     OW25497   2.954   3.667   2.930 -0.0248  0.6380 -0.2034
 8186SOL    HW125498   2.930   3.715   2.851  0.0929  0.4406 -0.3603
 8186SOL    HW225499   2.983   3.735   2.991  0.2652  0.7601 -0.4695
 8187SOL     OW25500   3.283   5.091   5.336 -0.1223  0.2746  0.0186
 8187SOL    HW125501   3.307   5.071   5.246 -0.5834 -0.9815  0.1576
 8187SOL    HW225502   3.358   5.138   5.371  0.2820  0.2998 -0.8561
 8188SOL     OW25503   4.082   1.193   5.774  0.3597 -0.5233 -0.8333
 8188SOL    HW125504   4.010   1.185   5.712  0.2637 -1.9609 -0.5681
 8188SOL    HW225505   4.089   1.106   5.814  1.5296 -0.0991 -0.0713
 8189SOL     OW25506   7.230   1.436   7.398 -0.6237  0.1350  0.0432
 8189SOL    HW125507   7.321   1.417   7.424 -0.5630  2.0456  1.3889
 8189SOL    HW225508   7.180   1.362   7.432  0.4660 -1.2830 -1.2864
 8190SOL     OW25509   1.883   4.413   7.309  0.0033 -0.2749 -0.4299
 8190SOL    HW125510   1.924   4.499   7.301  1.1835 -0.7976 -0.3268
 8190SOL    HW225511   1.951   4.358   7.349 -0.4474 -1.4411 -1.1978
 8191SOL     OW25512   4.108   2.676   4.039 -0.1016  0.9040  0.5060
 8191SOL    HW125513   4.196   2.696   4.007 -0.8715  1.4704 -1.4134
 8191SOL    HW225514   4.085   2.592   3.999 -0.5334  0.8865  0.7771
 8192SOL     OW25515   3.086   0.989   6.422  0.4292  0.1172 -0.6675
 8192SOL    HW125516   3.165   1.043   6.421  0.4454  0.1080 -2.6922
 8192SOL    HW225517   3.031   1.024   6.353 -0.9807 -0.4374  0.1388
 8193SOL     OW25518   6.784   2.595   0.497  0.3848 -0.7309 -0.6463
 8193SOL    HW125519   6.793   2.662   0.565 -1.5898 -0.5387 -0.4884
 8193SOL    HW225520   6.871   2.559   0.486  1.2026  0.8251  0.3592
 8194SOL     OW25521   1.346   6.378   2.928 -0.3702 -0.1252 -0.0324
 8194SOL    HW125522   1.402   6.417   2.996 -0.9871 -0.1143  0.4798
 8194SOL    HW225523   1.261   6.367   2.971 -0.4186 -1.3387 -0.3995
 8195SOL     OW25524   4.788   3.657   2.690 -0.1402  0.1890  0.2977
 8195SOL    HW125525   4.853   3.599   2.730 -2.0388 -1.9001  0.4929
 8195SOL    HW225526   4.810   3.744   2.725  3.6006 -0.0157 -1.0221
 8196SOL     OW25527   5.858   2.395   3.233  0.2370 -0.0959 -0.4366
 8196SOL    HW125528   5.795   2.384   3.162  1.6922  0.0970 -1.8159
 8196SOL    HW225529   5.889   2.307   3.253 -1.8088 -0.4540  1.6159
 8197SOL     OW25530   3.448   1.699   4.673  0.5251 -0.3315  0.1024
 8197SOL    HW125531   3.412   1.628   4.621  0.4649 -0.4903  0.3620
 8197SOL    HW225532   3.491   1.656   4.747  2.1981 -0.2276 -0.7642
 8198SOL     OW25533   3.802   6.722   5.649  0.1563  0.0007 -0.1656
 8198SOL    HW125534   3.762   6.651   5.699  0.2880  0.0132 -0.0428
 8198SOL    HW225535   3.846   6.679   5.575  1.7889 -0.2308  0.8899
 8199SOL     OW25536   6.636   1.851   5.482  0.1786  0.0861  0.2883
 8199SOL    HW125537   6.653   1.870   5.389 -0.5131  0.1428  0.1729
 8199SOL    HW225538   6.612   1.935   5.520  2.2643  0.4432  0.9480
 8200SOL     OW25539   2.776   0.846   2.927 -0.1439 -0.8307  0.1119
 8200SOL    HW125540   2.694   0.894   2.942 -0.1096 -0.6967 -0.1259
 8200SOL    HW225541   2.757   0.757   2.957  0.1423 -0.4109  1.6046
 8201SOL     OW25542   3.823   0.126   2.223 -0.2578  0.3549 -0.5252
 8201SOL    HW125543   3.899   0.177   2.250 -0.7411  0.9893 -0.3423
 8201SOL    HW225544   3.817   0.141   2.129 -0.0498  0.1537 -0.5718
 8202SOL     OW25545   0.153   0.894   6.718 -0.0258 -0.4308 -0.1426
 8202SOL    HW125546   0.133   0.864   6.807 -1.0007  2.0892  0.5949
 8202SOL    HW225547   0.248   0.908   6.718 -0.0414 -0.2985  0.5690
 8203SOL     OW25548   2.865   1.809   0.886  0.1775 -0.0341 -0.4063
 8203SOL    HW125549   2.914   1.802   0.804  0.0216  0.0959 -0.5114
 8203SOL    HW225550   2.831   1.721   0.901  1.1521 -0.3284  0.1125
 8204SOL     OW25551   0.784   4.640   6.017 -0.4527 -0.1314  0.0018
 8204SOL    HW125552   0.691   4.620   6.006 -0.0993 -1.0383 -1.7859
 8204SOL    HW225553   0.808   4.686   5.936  0.7663 -0.4031  0.1906
 8205SOL     OW25554   0.719   5.039   3.008 -0.6310 -0.1305 -0.2583
 8205SOL    HW125555   0.672   4.955   3.004  1.1066 -1.1098 -2.3301
 8205SOL    HW225556   0.673   5.095   2.946 -1.9798  0.6353  1.3493
 8206SOL     OW25557   1.513   0.767   4.253 -0.4749 -0.6106  0.7085
 8206SOL    HW125558   1.500   0.684   4.298 -3.4099 -0.3544  0.5213
 8206SOL    HW225559   1.519   0.832   4.324 -0.3716 -0.7256  0.8054
 8207SOL     OW25560   6.539   5.257   1.098  0.0934 -0.3027 -0.3734
 8207SOL    HW125561   6.457   5.244   1.146  0.8217 -3.1276  0.2602
 8207SOL    HW225562   6.593   5.310   1.156  0.4033 -2.4133  1.3685
 8208SOL     OW25563   5.143   5.551   6.900  0.0781 -0.0775 -0.3528
 8208SOL    HW125564   5.205   5.533   6.971  1.3438 -0.0944 -1.4212
 8208SOL    HW225565   5.129   5.466   6.858  0.6479  0.2020 -1.1367
 8209SOL     OW25566   0.243   1.813   4.135  0.0967 -0.0251  0.1342
 8209SOL    HW125567   0.330   1.791   4.102  1.4796  2.6869  1.6604
 8209SOL    HW225568   0.198   1.852   4.059  1.0646  0.6643 -0.1050
 8210SOL     OW25569   0.851   5.753   0.447 -0.0745  0.0247  0.7019
 8210SOL    HW125570   0.823   5.839   0.416 -1.7871 -0.5190  0.6261
 8210SOL    HW225571   0.942   5.765   0.474  1.8248  0.4936 -4.7755
 8211SOL     OW25572   0.498   6.013   2.996 -0.3985  0.1457 -0.0528
 8211SOL    HW125573   0.405   6.036   3.003 -1.2498 -3.1972  1.5150
 8211SOL    HW225574   0.537   6.043   3.077 -0.8836 -1.2065  0.7189
 8212SOL     OW25575   5.877   2.396   4.921 -0.1223  0.2835  0.1811
 8212SOL    HW125576   5.789   2.398   4.883 -0.6463 -0.0285  1.3130
 8212SOL    HW225577   5.910   2.485   4.910 -0.9245  0.6304  0.4780
 8213SOL     OW25578   6.557   5.147   6.689  0.1459  0.5181 -0.4515
 8213SOL    HW125579   6.643   5.105   6.681 -0.0869 -0.8875  2.8823
 8213SOL    HW225580   6.562   5.198   6.769 -1.7939  1.3281 -0.7907
 8214SOL     OW25581   2.484   1.913   5.477  0.2698  0.0541 -0.0666
 8214SOL    HW125582   2.455   1.956   5.397 -1.5877 -0.6167  0.1849
 8214SOL    HW225583   2.491   1.984   5.541  0.0658  0.3604 -0.3784
 8215SOL     OW25584   0.818   4.077   7.357 -0.3881 -0.3307  0.2295
 8215SOL    HW125585   0.899   4.038   7.389 -0.0054  0.9423  0.8967
 8215SOL    HW225586   0.844   4.131   7.283 -0.6964 -0.2864  0.1502
 8216SOL     OW25587   5.222   2.844   1.789  0.2540  0.0271 -0.2367
 8216SOL    HW125588   5.287   2.848   1.860  0.6860  0.0319 -0.6285
 8216SOL    HW225589   5.141   2.876   1.829  0.6095  0.4814  0.1309
 8217SOL     OW25590   0.044   4.837   4.231  0.0520  0.1182  0.0765
 8217SOL    HW125591   0.023   4.855   4.322  2.3905  0.4791  0.5970
 8217SOL    HW225592  -0.002   4.756   4.211  1.2579 -1.1897  2.2718
 8218SOL     OW25593   2.075   3.649   5.946 -0.7471 -0.4109 -0.0985
 8218SOL    HW125594   2.077   3.560   5.912  0.8776 -1.4927  2.4730
 8218SOL    HW225595   2.164   3.682   5.931 -1.0709  0.4320 -0.2102
 8219SOL     OW25596   1.297   5.127   1.727  0.2553  0.5871  0.1663
 8219SOL    HW125597   1.248   5.186   1.785  1.0245 -0.2033  1.6977
 8219SOL    HW225598   1.381   5.171   1.713  0.4791  0.2899  0.5528
 8220SOL     OW25599   5.441   6.484   4.116 -0.0601  0.3808  0.1323
 8220SOL    HW125600   5.454   6.483   4.021  0.4138  0.2042  0.1974
 8220SOL    HW225601   5.477   6.401   4.146  1.0526  1.0231  0.6287
 8221SOL     OW25602   5.780   6.867   2.325 -0.4034  0.0987  0.0355
 8221SOL    HW125603   5.784   6.960   2.349 -0.5056  0.2053 -0.3530
 8221SOL    HW225604   5.842   6.825   2.385 -0.2256  0.4415  0.1007
 8222SOL     OW25605   0.019   0.147   6.493 -0.5816  0.5024 -0.2042
 8222SOL    HW125606   0.052   0.234   6.474 -1.7887  0.8365 -0.9224
 8222SOL    HW225607  -0.076   0.158   6.496 -0.6898 -0.5233  1.1431
 8223SOL     OW25608   3.989   1.377   4.568 -0.5989 -0.1015 -0.2362
 8223SOL    HW125609   3.943   1.319   4.628 -0.0956 -0.3913 -0.1256
 8223SOL    HW225610   4.076   1.388   4.607 -1.1653  2.0195  0.6285
 8224SOL     OW25611   0.838   4.597   6.265  0.3543 -0.1815  0.0799
 8224SOL    HW125612   0.803   4.650   6.194  2.5278  2.1689  0.6390
 8224SOL    HW225613   0.930   4.584   6.243  0.9066 -0.0439  2.0725
 8225SOL     OW25614   2.613   0.171   6.428  0.1148  0.4407 -0.5900
 8225SOL    HW125615   2.593   0.261   6.404 -1.1495  0.1683 -0.6039
 8225SOL    HW225616   2.709   0.168   6.433  0.1548  1.9749  0.1678
 8226SOL     OW25617   2.210   1.444   3.817 -0.2053 -0.1007  0.1394
 8226SOL    HW125618   2.189   1.363   3.772 -2.0051  0.1594  0.4479
 8226SOL    HW225619   2.139   1.456   3.881  1.2083  0.5651  1.6605
 8227SOL     OW25620   6.662   1.026   6.099 -0.0016 -0.2781 -0.1846
 8227SOL    HW125621   6.567   1.033   6.091  0.1462  1.6425 -0.7106
 8227SOL    HW225622   6.676   0.975   6.178 -1.4603 -0.5128 -0.0477
 8228SOL     OW25623   4.986   4.992   5.565  0.1193  0.6300 -0.3704
 8228SOL    HW125624   5.045   4.922   5.538 -0.9801 -0.6094  0.3402
 8228SOL    HW225625   5.043   5.058   5.605  1.1246 -0.0724 -0.6255
 8229SOL     OW25626   5.410   6.236   0.715  0.1282  0.1515  0.2816
 8229SOL    HW125627   5.337   6.174   0.712 -1.0370  1.4887 -0.4735
 8229SOL    HW225628   5.422   6.253   0.809 -0.8081  0.1895  0.4086
 8230SOL     OW25629   4.777   4.901   6.387 -0.7927 -0.9481  0.2318
 8230SOL    HW125630   4.851   4.903   6.326  0.2560  2.0052  1.4502
 8230SOL    HW225631   4.814   4.864   6.467 -0.1364  1.7726  1.2838
 8231SOL     OW25632   0.536   5.603   3.361 -0.3757  0.5089  0.0582
 8231SOL    HW125633   0.611   5.610   3.302 -0.8658  0.0847 -0.6210
 8231SOL    HW225634   0.507   5.693   3.373 -0.5735  0.5543 -0.7397
 8232SOL     OW25635   0.916   4.646   7.260 -0.4580 -0.3406  0.4484
 8232SOL    HW125636   0.884   4.706   7.328 -0.1803 -0.9665  1.1407
 8232SOL    HW225637   1.011   4.644   7.272 -0.5524 -1.8454  1.2452
 8233SOL     OW25638   2.266   6.520   3.574  0.0561  0.0277 -0.4464
 8233SOL    HW125639   2.245   6.605   3.612  1.9181  0.2657  0.1672
 8233SOL    HW225640   2.348   6.494   3.617 -0.5376 -2.1553 -0.4951
 8234SOL     OW25641   2.449   0.980   6.178  0.1467 -0.1817  0.1665
 8234SOL    HW125642   2.505   1.004   6.104  1.5483 -0.2513  1.1627
 8234SOL    HW225643   2.376   1.042   6.174 -0.5333 -1.0220 -2.0349
 8235SOL     OW25644   0.010   1.896   5.738 -0.4210 -0.4454 -0.2770
 8235SOL    HW125645   0.083   1.867   5.793  0.8893 -0.8950 -2.1490
 8235SOL    HW225646   0.039   1.979   5.700 -2.0734  0.8251  1.0903
 8236SOL     OW25647   6.754   1.973   4.155  0.3533 -0.2613 -0.4000
 8236SOL    HW125648   6.842   1.959   4.118  0.3282  0.0370 -0.5755
 8236SOL    HW225649   6.707   2.021   4.087  0.0806 -0.3394 -0.2673
 8237SOL     OW25650   3.093   2.979   6.724  0.1914 -0.0929  1.1957
 8237SOL    HW125651   3.144   3.010   6.799 -0.1387 -0.4675  1.5809
 8237SOL    HW225652   3.008   3.023   6.733  0.6218  0.9965  0.2264
 8238SOL     OW25653   5.469   5.882   5.135  0.4835 -0.8162  0.1668
 8238SOL    HW125654   5.432   5.922   5.056  0.1848 -0.1617  0.6300
 8238SOL    HW225655   5.412   5.911   5.205  0.7195 -1.4375  0.6245
 8239SOL     OW25656   0.193   4.266   2.199  0.0135  0.1375 -0.1855
 8239SOL    HW125657   0.268   4.291   2.147  0.0615 -0.0964 -0.2319
 8239SOL    HW225658   0.216   4.291   2.289  2.4472 -4.5186  0.8156
 8240SOL     OW25659   0.968   5.425   4.086 -0.1882 -0.1225  0.5813
 8240SOL    HW125660   0.992   5.383   4.168  1.1473 -0.6609 -0.0534
 8240SOL    HW225661   1.052   5.447   4.045 -0.8036 -0.4437 -0.9207
 8241SOL     OW25662   1.890   4.579   6.086 -0.1744 -0.1374  0.4820
 8241SOL    HW125663   1.958   4.640   6.057 -2.0401  0.4709 -3.3668
 8241SOL    HW225664   1.929   4.492   6.075  0.4461  0.2405 -0.4457
 8242SOL     OW25665   0.551   4.164   2.928  0.4534  0.3963 -0.1995
 8242SOL    HW125666   0.624   4.165   2.866  1.3561 -0.4161  0.8149
 8242SOL    HW225667   0.504   4.084   2.908  0.9159 -0.0163  0.3464
 8243SOL     OW25668   3.657   2.141   6.351 -0.6085 -0.1599 -0.0491
 8243SOL    HW125669   3.741   2.160   6.309  0.9466 -0.6170  2.6021
 8243SOL    HW225670   3.616   2.227   6.362  1.5066  0.6782  2.3030
 8244SOL     OW25671   0.388   5.566   4.858 -0.1430  0.0499  0.3774
 8244SOL    HW125672   0.425   5.527   4.779  1.3119  2.8190 -0.4356
 8244SOL    HW225673   0.302   5.525   4.867 -0.0314 -0.9185 -2.1859
 8245SOL     OW25674   4.494   6.162   2.604  0.1005  0.6989  0.1177
 8245SOL    HW125675   4.575   6.131   2.565 -0.8207 -1.1991 -0.3869
 8245SOL    HW225676   4.499   6.136   2.696 -1.5110 -3.0924 -0.6785
 8246SOL     OW25677   3.118   1.901   5.654  0.2597 -0.0379  0.2074
 8246SOL    HW125678   3.176   1.850   5.710 -0.5764 -1.0323  0.1824
 8246SOL    HW225679   3.036   1.908   5.704  0.5471  1.8865  0.5237
 8247SOL     OW25680   2.550   5.704   4.915 -0.0982  0.3425 -0.0341
 8247SOL    HW125681   2.617   5.660   4.864 -1.1560 -0.6661 -0.6254
 8247SOL    HW225682   2.561   5.670   5.004 -1.7185 -2.2788 -0.7230
 8248SOL     OW25683   1.631   5.162   2.159 -0.0391  0.3931  0.4104
 8248SOL    HW125684   1.691   5.093   2.188 -1.7208 -1.2795  0.1645
 8248SOL    HW225685   1.575   5.178   2.234  0.6541  1.9058  0.6278
 8249SOL     OW25686   5.627   5.479   1.790  0.4443 -0.0129  0.7426
 8249SOL    HW125687   5.548   5.533   1.790  1.6827  1.9063  0.1512
 8249SOL    HW225688   5.662   5.487   1.878  0.9727  0.7190  0.4758
 8250SOL     OW25689   6.836   1.057   6.883  0.3155 -0.5773 -0.5070
 8250SOL    HW125690   6.749   1.070   6.922  0.5677 -0.0760 -0.0906
 8250SOL    HW225691   6.821   1.062   6.789 -0.1873 -1.0281 -0.4536
 8251SOL     OW25692   7.207   5.330   5.178  0.6925 -1.0091 -0.5208
 8251SOL    HW125693   7.125   5.305   5.223 -0.0620  0.0140 -1.2861
 8251SOL    HW225694   7.257   5.377   5.245 -0.4126  0.4856 -0.7052
 8252SOL     OW25695   2.870   6.974   6.942 -0.1990  0.0267 -0.6034
 8252SOL    HW125696   2.800   6.956   6.879 -0.3220 -0.0760 -0.4411
 8252SOL    HW225697   2.935   7.024   6.893 -0.0952 -0.4139 -0.9277
 8253SOL     OW25698   3.346   1.631   6.879  0.2446 -0.6619  0.0272
 8253SOL    HW125699   3.366   1.543   6.910  0.6996 -0.9328 -1.0235
 8253SOL    HW225700   3.397   1.642   6.799  1.1847  1.0175  0.7880
 8254SOL     OW25701   6.391   3.409   6.456  0.3382  0.0351 -0.0970
 8254SOL    HW125702   6.328   3.460   6.507 -0.2366  0.7972 -1.5280
 8254SOL    HW225703   6.430   3.349   6.520 -1.5086 -0.1517  0.9169
 8255SOL     OW25704   4.755   6.935   1.016 -0.0284 -0.0595  0.4107
 8255SOL    HW125705   4.713   6.991   1.081  1.0928  0.6451  0.5434
 8255SOL    HW225706   4.695   6.936   0.942  0.1581  1.6645  0.2441
 8256SOL     OW25707   4.326   0.855   3.576 -0.1139 -0.2737 -0.7581
 8256SOL    HW125708   4.290   0.785   3.630 -0.0702 -0.6274 -1.1823
 8256SOL    HW225709   4.316   0.934   3.629 -2.1796 -0.2393 -1.1424
 8257SOL     OW25710   2.331   3.245   2.706  0.1855 -0.3559 -0.8572
 8257SOL    HW125711   2.243   3.280   2.691 -0.4137 -1.3893  0.1072
 8257SOL    HW225712   2.332   3.222   2.799  2.2358  1.6870 -0.2904
 8258SOL     OW25713   3.084   2.106   3.970  0.2262 -0.0340 -0.5813
 8258SOL    HW125714   3.140   2.039   3.931  0.8635  0.9424 -1.4041
 8258SOL    HW225715   3.014   2.119   3.906 -1.0338 -1.3099  0.4808
 8259SOL     OW25716   6.952   2.710   5.042  0.5627 -0.2279  0.7067
 8259SOL    HW125717   6.888   2.658   4.993 -0.0659  0.9693  0.2425
 8259SOL    HW225718   7.028   2.716   4.984  0.0052  0.7707  0.0627
 8260SOL     OW25719   6.916   5.547   4.518  0.3239 -0.1489  0.3435
 8260SOL    HW125720   6.910   5.522   4.610 -2.4275 -0.4950  0.1529
 8260SOL    HW225721   6.865   5.628   4.512 -0.0568 -0.4639 -0.9819
 8261SOL     OW25722   5.707   2.129   1.727  0.3421  0.4525 -0.1024
 8261SOL    HW125723   5.698   2.035   1.712 -0.7071  0.7286 -1.3601
 8261SOL    HW225724   5.634   2.150   1.786 -0.0225  0.6287 -0.6071
 8262SOL     OW25725   4.081   5.624   4.623  0.1906  0.0767 -0.4908
 8262SOL    HW125726   4.062   5.701   4.676 -1.7420 -1.2795  0.9557
 8262SOL    HW225727   4.153   5.581   4.667 -0.6971 -0.4733  0.4597
 8263SOL     OW25728   7.040   1.257   2.601  0.4339 -0.2226  0.2781
 8263SOL    HW125729   7.112   1.280   2.660  0.1412 -0.1449  0.6022
 8263SOL    HW225730   7.042   1.162   2.597  2.1193 -0.1916 -1.6354
 8264SOL     OW25731   7.041   2.490   0.457  0.6056 -0.2386  0.0722
 8264SOL    HW125732   7.128   2.456   0.476  0.3964 -1.4920 -1.0353
 8264SOL    HW225733   7.054   2.584   0.444  1.5758 -0.2085  1.0397
 8265SOL     OW25734   2.629   2.853   1.005  0.0721  0.4637  0.5419
 8265SOL    HW125735   2.710   2.831   0.958 -0.3809 -0.0602 -0.0086
 8265SOL    HW225736   2.593   2.768   1.031 -0.3466  0.6908  0.7078
 8266SOL     OW25737   2.058   1.317   1.089 -0.8423 -0.1438 -0.1249
 8266SOL    HW125738   2.098   1.343   1.171 -1.1628 -0.0566  0.0060
 8266SOL    HW225739   2.122   1.340   1.022 -0.4839 -0.4294  0.1205
 8267SOL     OW25740   6.035   0.390   6.904  0.2753 -0.5897  0.4947
 8267SOL    HW125741   6.098   0.414   6.972 -0.4032 -0.1740  1.0003
 8267SOL    HW225742   6.087   0.382   6.824  1.3040 -2.3857  1.2833
 8268SOL     OW25743   1.132   3.796   1.340  0.0642 -0.2849  0.2923
 8268SOL    HW125744   1.142   3.744   1.421 -0.1388 -1.6332 -0.5124
 8268SOL    HW225745   1.094   3.878   1.369 -2.0743 -1.5603  1.3517
 8269SOL     OW25746   4.103   1.624   3.020  0.2764 -0.3498 -0.1833
 8269SOL    HW125747   4.127   1.566   3.092  1.7205 -1.3294 -1.4001
 8269SOL    HW225748   4.179   1.624   2.962 -1.2632 -0.5802 -2.3438
 8270SOL     OW25749   1.436   6.004   4.116 -0.0895 -0.0372  0.2272
 8270SOL    HW125750   1.474   5.923   4.083 -0.2594 -0.1733  0.3612
 8270SOL    HW225751   1.510   6.056   4.145  0.3716  1.2614 -2.8734
 8271SOL     OW25752   2.552   5.557   6.480  0.3838 -0.2445 -0.0842
 8271SOL    HW125753   2.513   5.580   6.564  1.1515  0.0687  0.1985
 8271SOL    HW225754   2.539   5.634   6.425 -0.1844 -0.4775 -0.2764
 8272SOL     OW25755   3.166   6.687   7.301 -0.4910  0.4225  0.1226
 8272SOL    HW125756   3.214   6.751   7.249 -1.3818  1.6320  0.7363
 8272SOL    HW225757   3.129   6.738   7.374  1.5148 -1.3396  2.5620
 8273SOL     OW25758   1.310   0.472   6.616  0.4351 -0.1807  0.7405
 8273SOL    HW125759   1.215   0.486   6.606  0.2603 -1.0416  1.1220
 8273SOL    HW225760   1.319   0.378   6.624  1.2299 -0.0311  1.7312
 8274SOL     OW25761   0.825   5.224   4.502  0.2847  0.3264 -0.0146
 8274SOL    HW125762   0.755   5.179   4.454  1.3238 -0.5191 -0.7798
 8274SOL    HW225763   0.780   5.295   4.549 -1.0708 -0.1684 -0.5151
 8275SOL     OW25764   0.114   6.051   6.450  0.5412  0.2101  0.4174
 8275SOL    HW125765   0.161   6.003   6.519 -1.6996 -1.0984  1.1386
 8275SOL    HW225766   0.087   6.133   6.492 -1.3218 -0.8359  1.3520
 8276SOL     OW25767   5.396   3.907   7.343 -0.2793 -0.0874  1.0092
 8276SOL    HW125768   5.412   3.813   7.334 -1.3751 -0.1989  0.0773
 8276SOL    HW225769   5.340   3.915   7.420 -0.0209 -0.1763  1.2070
 8277SOL     OW25770   2.097   6.975   1.667 -0.6910  0.5199 -0.1166
 8277SOL    HW125771   2.104   6.905   1.732 -0.1426  0.2692 -0.4442
 8277SOL    HW225772   2.126   7.054   1.713 -2.6284  0.8248  0.6853
 8278SOL     OW25773   5.312   6.643   4.394 -0.3755  0.2011  0.3090
 8278SOL    HW125774   5.254   6.572   4.365 -0.9278  1.1700 -1.0450
 8278SOL    HW225775   5.336   6.689   4.314  1.5771  0.3837  0.9346
 8279SOL     OW25776   2.209   0.961   2.399 -0.0086  0.0012 -0.2586
 8279SOL    HW125777   2.230   1.054   2.399  1.1089 -0.2150 -1.8489
 8279SOL    HW225778   2.293   0.916   2.400 -0.5257 -1.0053  0.3300
 8280SOL     OW25779   1.255   3.237   5.624  0.3988 -0.4079  0.3881
 8280SOL    HW125780   1.241   3.226   5.530 -2.7507  0.7739  0.6086
 8280SOL    HW225781   1.268   3.148   5.657 -2.3101 -1.3407 -0.7429
 8281SOL     OW25782   1.299   0.619   5.791  0.2687  0.2450 -0.3025
 8281SOL    HW125783   1.347   0.585   5.716  2.0986  0.5107  0.6886
 8281SOL    HW225784   1.353   0.595   5.867 -2.2277 -1.3251  1.1286
 8282SOL     OW25785   3.858   4.480   6.015 -0.4420 -0.8171 -0.2037
 8282SOL    HW125786   3.908   4.400   6.002  0.1943 -0.4103 -0.2644
 8282SOL    HW225787   3.867   4.498   6.109 -0.6399 -0.8421 -0.1779
 8283SOL     OW25788   5.493   3.208   0.556  0.0201 -0.1853  0.4522
 8283SOL    HW125789   5.399   3.190   0.554 -0.1762  0.5739  1.6307
 8283SOL    HW225790   5.530   3.135   0.606  0.0460 -0.4408  0.0604
 8284SOL     OW25791   5.400   7.413   6.579 -0.2940 -0.1236 -0.4168
 8284SOL    HW125792   5.395   7.443   6.488 -1.8753 -1.9762 -1.0012
 8284SOL    HW225793   5.392   7.318   6.574 -1.2723 -0.2114  1.7195
 8285SOL     OW25794   1.841   2.996   2.994  0.0396 -0.2454  0.4566
 8285SOL    HW125795   1.838   3.089   2.972  2.0160 -0.2933 -0.1584
 8285SOL    HW225796   1.762   2.982   3.046 -1.7399  1.1956 -1.6380
 8286SOL     OW25797   1.557   5.216   3.818 -0.2547 -0.5783 -0.3581
 8286SOL    HW125798   1.556   5.247   3.908 -1.9965  2.4064 -1.2384
 8286SOL    HW225799   1.500   5.139   3.818  1.1304 -1.6511  1.3288
 8287SOL     OW25800   4.026   4.245   5.389 -0.4548  0.0654 -0.3807
 8287SOL    HW125801   4.074   4.244   5.307 -0.7652 -1.0269 -0.5702
 8287SOL    HW225802   4.000   4.154   5.402 -0.6164  0.2714  0.8068
 8288SOL     OW25803   6.366   7.139   5.066  0.0317  0.0591 -0.1910
 8288SOL    HW125804   6.328   7.227   5.069 -1.8032 -0.7079  1.0001
 8288SOL    HW225805   6.405   7.133   4.979 -1.8488  1.2516 -1.2022
 8289SOL     OW25806   3.838   3.642   1.635  0.3752 -0.0376 -0.0813
 8289SOL    HW125807   3.864   3.555   1.666  0.2106 -0.4125 -0.9611
 8289SOL    HW225808   3.851   3.700   1.710  1.0353 -0.7238  0.3379
 8290SOL     OW25809   1.611   6.857   0.507 -0.2867 -0.0204  0.2400
 8290SOL    HW125810   1.684   6.915   0.488 -0.2980 -0.1427 -0.1799
 8290SOL    HW225811   1.632   6.775   0.462 -0.5400 -0.1554  0.3600
 8291SOL     OW25812   5.826   5.820   2.752 -0.2716  0.1619  0.2670
 8291SOL    HW125813   5.851   5.734   2.718 -0.3620  0.3069 -0.1730
 8291SOL    HW225814   5.734   5.830   2.728  0.0207  0.8241 -0.6178
 8292SOL     OW25815   2.548   2.348   3.169 -0.0632 -0.1070  0.3652
 8292SOL    HW125816   2.611   2.277   3.171 -0.8984 -0.8553  1.7500
 8292SOL    HW225817   2.528   2.360   3.076  0.5440 -1.2588  0.0697
 8293SOL     OW25818   4.487   2.940   4.179  0.3405 -0.1978  0.4526
 8293SOL    HW125819   4.445   2.867   4.225 -2.1158 -0.0421 -1.2980
 8293SOL    HW225820   4.536   2.899   4.108 -1.5618 -0.2512 -0.9293
 8294SOL     OW25821   2.844   7.219   5.401  0.2179 -0.1228  0.2670
 8294SOL    HW125822   2.875   7.303   5.367 -1.3279  0.2806 -0.2036
 8294SOL    HW225823   2.923   7.176   5.434  1.1579  1.1493 -0.2586
 8295SOL     OW25824   4.602   6.522   2.773  0.0381  0.1706  0.1433
 8295SOL    HW125825   4.660   6.460   2.819 -0.4177 -0.5462 -0.2244
 8295SOL    HW225826   4.610   6.603   2.823  0.2556 -0.3277  0.9531
 8296SOL     OW25827   5.896   2.534   7.299 -0.3139  0.3285  0.6580
 8296SOL    HW125828   5.894   2.440   7.313 -1.9859  0.1594 -0.4342
 8296SOL    HW225829   5.945   2.569   7.374 -1.7931 -1.1873  2.4331
 8297SOL     OW25830   7.377   4.230   0.872  0.1467  0.5479 -0.1794
 8297SOL    HW125831   7.414   4.230   0.961 -1.9003  0.0112  0.7363
 8297SOL    HW225832   7.361   4.323   0.854 -1.1520  0.5614  0.8353
 8298SOL     OW25833   1.299   5.466   0.734 -0.3626 -0.0674  0.3776
 8298SOL    HW125834   1.251   5.540   0.769 -0.0774 -1.0710  3.1470
 8298SOL    HW225835   1.239   5.392   0.741  0.1088 -0.5317 -0.2831
 8299SOL     OW25836   5.059   6.318   4.602  0.2379 -0.4737 -0.0642
 8299SOL    HW125837   5.114   6.317   4.680  0.2253 -1.1379 -0.0568
 8299SOL    HW225838   5.057   6.226   4.573  0.6646 -0.1656 -1.1288
 8300SOL     OW25839   2.833   5.905   2.705 -0.2202 -0.0243  0.3533
 8300SOL    HW125840   2.870   5.841   2.766 -0.5881 -1.2157 -0.6587
 8300SOL    HW225841   2.753   5.936   2.749  1.3143  1.7989  2.0748
 8301SOL     OW25842   3.003   7.256   7.056  0.5787 -0.0143  0.1488
 8301SOL    HW125843   2.956   7.192   7.108  1.5256 -0.0254  1.0079
 8301SOL    HW225844   2.979   7.236   6.965 -2.0465  0.7557  0.5840
 8302SOL     OW25845   5.936   0.730   2.906  0.1618 -0.1100  0.0977
 8302SOL    HW125846   5.883   0.770   2.975 -0.4416 -0.6236 -0.0610
 8302SOL    HW225847   6.000   0.676   2.953 -1.2106 -1.6739  0.2495
 8303SOL     OW25848   1.041   5.068   3.476  0.1395 -0.3196 -0.0099
 8303SOL    HW125849   1.036   5.150   3.526  0.6253 -0.4410  0.2523
 8303SOL    HW225850   1.102   5.088   3.405  1.9912 -1.0567  1.2967
 8304SOL     OW25851   1.873   6.880   6.198 -0.3477 -0.5963 -0.1063
 8304SOL    HW125852   1.861   6.811   6.133 -0.9195 -0.2039 -0.4269
 8304SOL    HW225853   1.966   6.878   6.218 -0.4086 -1.6802  0.1325
 8305SOL     OW25854   4.159   2.988   6.317  0.4953  0.5261  0.1025
 8305SOL    HW125855   4.066   2.964   6.316  0.5438 -0.0324  2.4125
 8305SOL    HW225856   4.182   2.998   6.225 -1.4978 -0.7585 -0.6128
 8306SOL     OW25857   5.248   7.225   6.324  0.1022  0.2986 -0.1352
 8306SOL    HW125858   5.312   7.164   6.359  0.2194  1.7328  2.4744
 8306SOL    HW225859   5.170   7.210   6.377  0.0524  2.1617  0.3972
 8307SOL     OW25860   5.580   1.856   1.348  0.1690 -0.3952  0.3704
 8307SOL    HW125861   5.520   1.782   1.336  0.1442 -0.3209  0.0133
 8307SOL    HW225862   5.598   1.858   1.442 -0.7484 -0.1356  0.5494
 8308SOL     OW25863   3.364   0.601   2.989 -0.5888  0.0324 -0.3307
 8308SOL    HW125864   3.409   0.533   2.939 -0.8929 -1.2989  1.1277
 8308SOL    HW225865   3.283   0.560   3.018 -0.3257  0.6693  1.3970
 8309SOL     OW25866   1.974   4.395   6.777 -0.1767  0.3629  0.1601
 8309SOL    HW125867   1.930   4.412   6.860  1.4187 -0.0129  1.1354
 8309SOL    HW225868   2.058   4.355   6.802 -0.0754 -0.7056 -1.6704
 8310SOL     OW25869   6.836   6.242   4.010 -0.3387 -0.0190  0.0361
 8310SOL    HW125870   6.830   6.157   4.053  1.2208  0.5391  1.4890
 8310SOL    HW225871   6.930   6.262   4.010 -0.5575  1.1789 -1.3567
 8311SOL     OW25872   0.029   1.831   7.174  0.3969  0.1067  0.4584
 8311SOL    HW125873   0.008   1.738   7.163 -1.5446  0.5934 -0.4557
 8311SOL    HW225874   0.122   1.833   7.196  0.4100 -2.0572  0.7786
 8312SOL     OW25875   5.589   0.346   4.750  0.4695  0.7309 -0.7354
 8312SOL    HW125876   5.676   0.338   4.711  0.5463  3.0474 -1.2332
 8312SOL    HW225877   5.605   0.348   4.844  0.8190  0.0475 -0.7754
 8313SOL     OW25878   3.449   2.479   4.758 -0.1003 -0.7376 -0.6586
 8313SOL    HW125879   3.467   2.549   4.695 -2.3505 -1.2409 -1.9768
 8313SOL    HW225880   3.462   2.520   4.843 -0.2041  0.9519 -1.4117
 8314SOL     OW25881   3.997   4.892   4.698  0.2875 -0.6807 -0.4251
 8314SOL    HW125882   4.083   4.915   4.733  0.0039  0.5121 -0.4852
 8314SOL    HW225883   3.957   4.975   4.674 -0.6989 -1.2554 -0.8540
 8315SOL     OW25884   4.105   5.025   4.132  0.0638  0.4022  0.1776
 8315SOL    HW125885   4.115   5.024   4.036 -1.6543 -0.7562 -0.0347
 8315SOL    HW225886   4.109   5.117   4.155 -0.0828  0.7526 -1.0927
 8316SOL     OW25887   4.841   4.587   3.395  0.2571  0.1173 -0.2590
 8316SOL    HW125888   4.924   4.598   3.441  0.3604  0.6650 -0.5633
 8316SOL    HW225889   4.792   4.525   3.448 -0.7473  2.7777  2.1774
 8317SOL     OW25890   0.776   4.617   2.836 -0.2582  0.0991  0.3655
 8317SOL    HW125891   0.742   4.553   2.774 -0.2722 -0.3884  0.8734
 8317SOL    HW225892   0.715   4.691   2.829 -0.1105  0.1574 -0.3846
 8318SOL     OW25893   5.445   6.020   6.906  0.6857 -0.3441  0.2391
 8318SOL    HW125894   5.386   5.945   6.899  1.5524 -1.1244  1.0293
 8318SOL    HW225895   5.392   6.095   6.879 -0.3869 -1.1474  0.0583
 8319SOL     OW25896   3.831   6.335   2.850  0.2619  0.9190  0.0992
 8319SOL    HW125897   3.903   6.391   2.822  1.6110 -0.6284  0.2820
 8319SOL    HW225898   3.813   6.361   2.940  1.1468  0.7979  0.3190
 8320SOL     OW25899   3.595   2.977   0.836  0.2089  0.0280  0.1647
 8320SOL    HW125900   3.542   2.900   0.860  0.2752 -0.0028  0.2118
 8320SOL    HW225901   3.659   2.943   0.773  0.0178  0.1141 -0.0763
 8321SOL     OW25902   6.521   2.092   6.915 -1.0494 -0.0631 -0.2629
 8321SOL    HW125903   6.500   2.038   6.838 -0.3210  0.1681 -0.6312
 8321SOL    HW225904   6.506   2.182   6.885  0.4744  0.1145 -0.5517
 8322SOL     OW25905   5.979   2.559   6.726 -0.9219 -0.1721 -0.9023
 8322SOL    HW125906   5.956   2.562   6.633  0.7116 -0.6990 -1.3691
 8322SOL    HW225907   5.967   2.467   6.750 -1.2341 -0.0581 -0.6241
 8323SOL     OW25908   6.244   4.178   1.024  0.1101 -0.2526  0.1942
 8323SOL    HW125909   6.238   4.144   0.935 -0.7345  0.5736 -0.0811
 8323SOL    HW225910   6.256   4.273   1.013 -1.3725  0.0469  0.9480
 8324SOL     OW25911   0.916   7.285   0.319 -0.1150  0.1979  0.6419
 8324SOL    HW125912   0.928   7.274   0.225 -0.7577 -1.4796  0.7266
 8324SOL    HW225913   0.860   7.212   0.345  0.9010  0.0371  2.5137
 8325SOL     OW25914   4.478   3.930   5.072 -0.3575 -0.2676  0.0606
 8325SOL    HW125915   4.426   3.899   5.146  0.1880  0.3496  0.7257
 8325SOL    HW225916   4.458   4.024   5.067 -0.6840 -0.3751 -0.8280
 8326SOL     OW25917   7.136   2.094   4.936 -1.0283 -0.0655 -0.2528
 8326SOL    HW125918   7.162   2.121   4.848  0.1687 -0.4272 -0.0370
 8326SOL    HW225919   7.058   2.041   4.924 -1.6195  0.9338 -0.9711
 8327SOL     OW25920   1.755   5.914   0.340  0.5034 -0.2742 -0.1617
 8327SOL    HW125921   1.680   5.882   0.290  0.8078  0.7446 -1.3229
 8327SOL    HW225922   1.732   6.005   0.362  1.0822 -0.1824  0.0839
 8328SOL     OW25923   2.741   2.582   3.520 -0.2081  0.3008  0.5391
 8328SOL    HW125924   2.749   2.663   3.571  0.5722  2.5060 -2.7324
 8328SOL    HW225925   2.831   2.563   3.492 -0.6424 -0.6111 -0.2743
 8329SOL     OW25926   6.466   6.217   3.000  0.2876  0.0526 -0.2522
 8329SOL    HW125927   6.378   6.228   3.035  1.2022  1.8781  1.7139
 8329SOL    HW225928   6.460   6.247   2.910 -1.3481 -1.0868 -0.5556
 8330SOL     OW25929   6.625   4.524   1.856 -0.4776 -0.2355  0.2254
 8330SOL    HW125930   6.588   4.437   1.842 -2.4228  0.2816  1.6642
 8330SOL    HW225931   6.661   4.521   1.945  0.2015  0.1970 -0.0264
 8331SOL     OW25932   6.330   2.459   6.489 -0.6828 -0.4957 -0.0077
 8331SOL    HW125933   6.272   2.441   6.414 -1.3063 -0.6491  0.5031
 8331SOL    HW225934   6.386   2.382   6.495 -1.2291 -0.8852  0.2242
 8332SOL     OW25935   0.289   4.568   7.425 -0.1281 -0.3466 -0.0229
 8332SOL    HW125936   0.352   4.630   7.463 -2.0083  0.8590  1.3374
 8332SOL    HW225937   0.263   4.608   7.342 -0.8000  0.3494  0.5122
 8333SOL     OW25938   6.497   3.596   0.534  0.0717 -0.1323  0.2184
 8333SOL    HW125939   6.410   3.609   0.571 -0.7112  1.1169 -1.8612
 8333SOL    HW225940   6.557   3.614   0.606 -1.3658 -1.3987  1.8015
 8334SOL     OW25941   2.171   6.468   2.048  0.0364  0.2350 -0.1761
 8334SOL    HW125942   2.250   6.521   2.041  0.0060  0.1360 -1.4723
 8334SOL    HW225943   2.204   6.379   2.062  0.1504  0.2666 -0.2368
 8335SOL     OW25944   6.642   4.696   6.872 -0.4817 -0.4786  0.4128
 8335SOL    HW125945   6.589   4.776   6.875 -0.5103 -0.4017 -1.2325
 8335SOL    HW225946   6.583   4.629   6.839  0.0843 -0.6804 -0.2253
 8336SOL     OW25947   0.757   2.454   1.554  0.0380 -0.2856 -0.0806
 8336SOL    HW125948   0.787   2.368   1.524  0.9211 -0.5908  1.5586
 8336SOL    HW225949   0.829   2.514   1.532 -0.4286 -0.0237 -0.9096
 8337SOL     OW25950   4.717   7.013   4.409 -0.1057 -0.3303  0.6009
 8337SOL    HW125951   4.734   7.026   4.316 -1.7414 -2.6465 -0.1282
 8337SOL    HW225952   4.630   7.050   4.424 -0.0768 -0.4431  1.0817
 8338SOL     OW25953   6.491   2.579   5.169 -0.8373 -0.1528  0.1424
 8338SOL    HW125954   6.530   2.580   5.081  1.9448 -1.0373  1.2365
 8338SOL    HW225955   6.520   2.661   5.209  0.5894 -1.1248  1.2031
 8339SOL     OW25956   0.274   4.158   5.304  0.2687 -0.6371  0.1216
 8339SOL    HW125957   0.337   4.228   5.322  0.7728 -1.0276 -0.0927
 8339SOL    HW225958   0.324   4.077   5.318 -0.6849 -0.9916  1.7695
 8340SOL     OW25959   3.961   6.115   0.626  0.1771  0.3196  0.2389
 8340SOL    HW125960   3.937   6.049   0.690 -2.8519 -0.1718 -1.2314
 8340SOL    HW225961   3.985   6.066   0.548  2.1790  0.9534  0.3873
 8341SOL     OW25962   3.714   7.341   5.615  0.0476 -0.2373 -0.1158
 8341SOL    HW125963   3.728   7.247   5.609 -0.1877 -0.2815 -0.0178
 8341SOL    HW225964   3.711   7.359   5.709 -1.9601 -0.4700 -0.0770
 8342SOL     OW25965   4.877   1.007   5.457 -0.3390  0.3133 -0.2982
 8342SOL    HW125966   4.911   1.094   5.433 -1.3240  0.6587 -0.4778
 8342SOL    HW225967   4.955   0.957   5.481  0.3236  1.0206 -0.9110
 8343SOL     OW25968   0.581   1.743   7.035  0.0092 -0.7483 -0.3215
 8343SOL    HW125969   0.549   1.758   6.946  0.5317  0.4326 -0.3282
 8343SOL    HW225970   0.610   1.829   7.065  2.4787 -1.5999 -0.0439
 8344SOL     OW25971   1.661   2.503   2.440  0.0257 -0.0781 -0.4673
 8344SOL    HW125972   1.607   2.436   2.399 -0.3984  0.8456 -1.4711
 8344SOL    HW225973   1.600   2.573   2.462  0.3088 -0.3499  1.4124
 8345SOL     OW25974   2.957   7.424   6.196 -0.1156  0.1203 -0.2579
 8345SOL    HW125975   2.911   7.343   6.218  2.3194 -1.3843 -0.3616
 8345SOL    HW225976   3.004   7.448   6.276  1.2681 -0.0845 -0.9747
 8346SOL     OW25977   3.235   5.662   3.814 -0.5914  0.6214 -0.0357
 8346SOL    HW125978   3.144   5.692   3.813 -0.2939  1.5782  0.0588
 8346SOL    HW225979   3.235   5.587   3.872 -1.2664  0.8182  0.2310
 8347SOL     OW25980   5.785   4.276   6.703 -0.3847  0.5178 -0.2818
 8347SOL    HW125981   5.771   4.261   6.797  0.3612  2.2466  0.1380
 8347SOL    HW225982   5.702   4.250   6.662 -0.5582 -0.7321  0.7759
 8348SOL     OW25983   3.296   3.825   1.207  0.8737  0.2641  0.2420
 8348SOL    HW125984   3.329   3.906   1.248 -0.0676  2.6220 -3.2109
 8348SOL    HW225985   3.340   3.822   1.122 -1.1132 -1.3951 -0.7974
 8349SOL     OW25986   0.246   1.292   4.051 -0.5125  0.2130  0.3180
 8349SOL    HW125987   0.304   1.217   4.064 -0.7052  0.2714  1.6432
 8349SOL    HW225988   0.158   1.254   4.046 -0.4057  0.1184 -1.7486
 8350SOL     OW25989   6.194   0.159   2.466  0.2906  0.2892 -0.1955
 8350SOL    HW125990   6.115   0.115   2.435 -0.0969  0.6879  0.2113
 8350SOL    HW225991   6.235   0.095   2.525 -0.3625  0.5270  0.5346
 8351SOL     OW25992   1.317   1.352   5.087 -0.0327 -0.2168  0.3842
 8351SOL    HW125993   1.315   1.379   4.995  2.3698  1.7166  0.7839
 8351SOL    HW225994   1.288   1.430   5.135 -0.3114 -0.8815  1.3239
 8352SOL     OW25995   6.260   0.472   0.940  0.5962  0.4631 -0.5348
 8352SOL    HW125996   6.310   0.396   0.968  0.5030  0.6051  0.0332
 8352SOL    HW225997   6.231   0.451   0.852 -1.2772 -1.1114  0.3937
 8353SOL     OW25998   7.390   0.591   1.683  0.1333  0.0065 -0.3135
 8353SOL    HW125999   7.350   0.506   1.701  3.1406 -1.1919  1.6267
 8353SOL    HW226000   7.333   0.654   1.726 -1.1233 -1.2592 -0.0711
 8354SOL     OW26001   0.466   4.994   7.405  0.2398 -0.0046  0.3926
 8354SOL    HW126002   0.402   5.064   7.394  0.9158  0.5521 -0.0807
 8354SOL    HW226003   0.419   4.915   7.378  0.1065  0.5580 -1.1236
 8355SOL     OW26004   1.893   3.578   1.768  0.5588 -0.1147 -0.0555
 8355SOL    HW126005   1.840   3.499   1.782  0.3416 -0.0089 -0.2748
 8355SOL    HW226006   1.832   3.641   1.730  0.8871 -0.0549 -0.4888
 8356SOL     OW26007   1.930   1.239   3.654  0.2214 -0.0620  0.4693
 8356SOL    HW126008   2.009   1.197   3.619 -1.1268 -2.9823  0.6577
 8356SOL    HW226009   1.926   1.212   3.745 -1.6505 -1.0847  0.1289
 8357SOL     OW26010   1.941   2.031   0.992 -0.2583 -0.2871 -0.2743
 8357SOL    HW126011   1.931   2.089   1.067  0.3706 -0.0913 -0.3422
 8357SOL    HW226012   2.012   1.972   1.016  0.3313  0.1380 -0.9385
 8358SOL     OW26013   2.161   3.211   1.529  0.1052  0.0459 -0.0979
 8358SOL    HW126014   2.198   3.123   1.527  0.6683  0.2761 -1.2557
 8358SOL    HW226015   2.077   3.201   1.572 -0.2437 -1.2357 -1.0044
 8359SOL     OW26016   5.916   6.579   2.485 -0.5542  0.3854  0.1627
 8359SOL    HW126017   5.867   6.503   2.518  0.5301 -0.1302  0.6621
 8359SOL    HW226018   5.967   6.545   2.411 -1.7406  1.1682 -1.0534
 8360SOL     OW26019   5.756   4.664   0.268 -0.1711  0.0666 -0.1321
 8360SOL    HW126020   5.748   4.653   0.174 -1.4547 -2.4581  0.1765
 8360SOL    HW226021   5.802   4.586   0.297 -1.4164 -0.1328  1.4835
 8361SOL     OW26022   3.091   4.497   5.907 -0.3486 -0.3555 -0.4776
 8361SOL    HW126023   3.162   4.456   5.857 -0.5063 -1.3048  0.0506
 8361SOL    HW226024   3.012   4.455   5.873 -0.3803 -1.8585  1.3173
 8362SOL     OW26025   2.641   4.773   1.767  0.4411  0.3672 -0.3276
 8362SOL    HW126026   2.614   4.743   1.680 -0.9578 -2.5086  0.9800
 8362SOL    HW226027   2.627   4.867   1.765  0.1956  0.3551 -3.1109
 8363SOL     OW26028   7.373   3.934   6.310  0.0252 -0.8233  0.4673
 8363SOL    HW126029   7.362   3.874   6.237 -0.5782 -1.6862  1.2388
 8363SOL    HW226030   7.294   3.987   6.310  0.7996  0.4029 -0.5534
 8364SOL     OW26031   3.164   5.023   5.083  0.0791  0.2021 -0.1118
 8364SOL    HW126032   3.154   4.986   4.996 -0.0146  1.3997 -0.6401
 8364SOL    HW226033   3.168   5.118   5.068  2.1515  0.3483  0.9803
 8365SOL     OW26034   5.405   2.961   4.418  0.0716 -0.1389 -0.6882
 8365SOL    HW126035   5.414   3.040   4.471 -0.4768 -1.0271  0.7945
 8365SOL    HW226036   5.310   2.948   4.412  0.1462 -1.5433  0.4942
 8366SOL     OW26037   3.211   6.924   6.237  0.6659 -0.5606  0.4877
 8366SOL    HW126038   3.203   7.006   6.189 -1.0335 -0.9428  0.0259
 8366SOL    HW226039   3.246   6.862   6.173  0.1936 -0.6154  0.2719
 8367SOL     OW26040   0.827   0.019   3.102  0.8488  0.5612  0.9175
 8367SOL    HW126041   0.896   0.039   3.166 -0.0215  1.2935  1.6575
 8367SOL    HW226042   0.856   0.064   3.022  1.3900  0.5797  1.1179
 8368SOL     OW26043   2.940   3.739   6.489  0.6280  0.1254 -0.6459
 8368SOL    HW126044   2.937   3.658   6.540  1.2449 -0.2366 -1.1724
 8368SOL    HW226045   2.982   3.802   6.548  1.5678 -0.3576 -0.7654
 8369SOL     OW26046   7.099   7.170   4.373  0.3939 -0.0332 -0.4461
 8369SOL    HW126047   7.191   7.153   4.354  0.0724  0.3742 -2.7580
 8369SOL    HW226048   7.097   7.198   4.464  2.2783 -1.9127  0.2499
 8370SOL     OW26049   4.061   4.854   2.928 -0.4190  0.0453  0.3357
 8370SOL    HW126050   4.012   4.926   2.888 -0.3707 -0.2881 -0.3339
 8370SOL    HW226051   3.995   4.787   2.945 -0.0206 -1.0161 -1.9492
 8371SOL     OW26052   2.897   0.343   1.804 -0.0120  0.3530  0.1363
 8371SOL    HW126053   2.843   0.417   1.777 -2.4787 -1.5143 -0.4502
 8371SOL    HW226054   2.911   0.356   1.898 -2.0973  0.6181  0.4504
 8372SOL     OW26055   4.272   2.238   7.274 -0.3618 -0.1875 -0.2456
 8372SOL    HW126056   4.306   2.149   7.270 -0.1623 -0.1805  1.0373
 8372SOL    HW226057   4.209   2.237   7.346 -0.1508  0.7806 -0.0285
 8373SOL     OW26058   4.547   0.516   2.982  0.5985 -0.0654 -0.0034
 8373SOL    HW126059   4.567   0.477   3.067 -1.6719 -0.8740  0.2240
 8373SOL    HW226060   4.583   0.454   2.919  2.5839  0.6976  0.2975
 8374SOL     OW26061   3.378   1.008   3.151  0.5104 -0.0651 -0.3043
 8374SOL    HW126062   3.309   0.944   3.165 -0.8132  1.0591 -1.4804
 8374SOL    HW226063   3.335   1.093   3.160  1.8336  0.6706 -0.6001
 8375SOL     OW26064   4.864   1.373   1.060  0.1062 -0.6756  0.3578
 8375SOL    HW126065   4.840   1.464   1.079  1.7964  0.1369 -1.1242
 8375SOL    HW226066   4.871   1.369   0.965 -0.8850 -2.6457  0.3265
 8376SOL     OW26067   5.934   4.884   0.343  0.1541 -0.4562  0.0880
 8376SOL    HW126068   5.860   4.935   0.377 -0.1870 -0.5037 -0.5807
 8376SOL    HW226069   5.903   4.794   0.341  0.1287 -0.4385 -0.4642
 8377SOL     OW26070   3.763   1.025   2.481 -0.4099 -0.2802 -0.1069
 8377SOL    HW126071   3.711   0.973   2.419  1.1938 -1.2282 -0.7264
 8377SOL    HW226072   3.710   1.028   2.560 -1.7923 -0.4338 -0.9861
 8378SOL     OW26073   2.056   7.383   4.669  0.1586 -0.2497  0.2779
 8378SOL    HW126074   2.115   7.359   4.598  2.4283 -1.2737  2.3562
 8378SOL    HW226075   1.981   7.324   4.659  1.5969 -2.1662  0.1456
 8379SOL     OW26076   6.220   2.162   3.757 -0.2126  0.1597  0.2180
 8379SOL    HW126077   6.258   2.206   3.681 -0.2260  1.8696  1.1531
 8379SOL    HW226078   6.142   2.118   3.723 -0.6084  1.4749 -0.6393
 8380SOL     OW26079   0.527   2.559   3.673 -0.1463 -0.0578 -0.3357
 8380SOL    HW126080   0.583   2.637   3.669  3.0068 -2.1454  0.0611
 8380SOL    HW226081   0.562   2.507   3.745 -1.1805 -2.5604 -1.5094
 8381SOL     OW26082   4.898   0.772   2.173  0.8275  0.1798 -0.7695
 8381SOL    HW126083   4.940   0.687   2.160 -0.7458 -0.5561 -1.4336
 8381SOL    HW226084   4.853   0.789   2.090 -0.5408  0.6587  0.0279
 8382SOL     OW26085   5.249   6.534   5.444  0.5623  0.6127 -0.4758
 8382SOL    HW126086   5.183   6.465   5.446  1.0233  0.1531 -0.8452
 8382SOL    HW226087   5.255   6.560   5.352  1.4631  0.0806 -0.5828
 8383SOL     OW26088   5.728   6.211   5.884  0.0065 -0.3736 -0.8877
 8383SOL    HW126089   5.678   6.189   5.963 -0.9849  1.3997 -0.9615
 8383SOL    HW226090   5.662   6.218   5.815  0.6732 -0.3920 -1.5339
 8384SOL     OW26091   6.963   6.497   1.768  0.5048 -0.3770  0.3056
 8384SOL    HW126092   6.993   6.408   1.750 -0.5689 -0.7685  0.3838
 8384SOL    HW226093   7.040   6.541   1.806  1.8555 -0.4893 -2.0687
 8385SOL     OW26094   6.047   1.367   1.892  0.1962 -0.0545  0.5351
 8385SOL    HW126095   5.991   1.358   1.815 -0.2181  2.1128  0.5232
 8385SOL    HW226096   6.025   1.291   1.947 -0.0039 -1.2575 -1.1369
 8386SOL     OW26097   3.223   5.514   5.213 -0.0624  0.2129  0.6678
 8386SOL    HW126098   3.156   5.581   5.219 -0.4987 -0.1445 -0.1091
 8386SOL    HW226099   3.176   5.431   5.221  0.3381 -0.0303  0.5531
 8387SOL     OW26100   1.476   1.501   3.507 -0.0260 -0.1653 -0.2762
 8387SOL    HW126101   1.398   1.520   3.560 -0.5043 -3.0227  0.1932
 8387SOL    HW226102   1.549   1.507   3.569  0.2570  2.6315 -0.7396
 8388SOL     OW26103   3.260   1.507   0.258 -0.4888 -0.4222  0.1491
 8388SOL    HW126104   3.282   1.585   0.309  0.2730 -0.7687  0.3621
 8388SOL    HW226105   3.207   1.540   0.185  0.8160  0.4534 -0.4373
 8389SOL     OW26106   2.028   5.994   1.847  0.3234  1.0201  0.3670
 8389SOL    HW126107   2.077   5.966   1.770  0.1505  1.2557  0.1712
 8389SOL    HW226108   1.939   6.009   1.815  0.0684  0.3928  0.7554
 8390SOL     OW26109   6.936   3.681   3.120  0.4764  0.1052  0.1679
 8390SOL    HW126110   6.995   3.680   3.196  1.6387  0.8790 -0.6776
 8390SOL    HW226111   6.855   3.719   3.153  2.1082  3.9259  0.3452
 8391SOL     OW26112   5.400   2.635   6.961  0.8138  0.5971 -0.2418
 8391SOL    HW126113   5.418   2.671   7.048 -1.9832  0.3691  0.5354
 8391SOL    HW226114   5.484   2.639   6.916  2.0743  1.9526  2.0104
 8392SOL     OW26115   1.466   4.942   4.035  0.2322 -0.5091  0.1946
 8392SOL    HW126116   1.424   4.978   3.957  2.3066 -0.1528 -0.8399
 8392SOL    HW226117   1.469   4.848   4.020 -1.4063 -0.7143  0.9471
 8393SOL     OW26118   2.166   0.395   0.463  0.3826 -0.6657  0.1829
 8393SOL    HW126119   2.164   0.319   0.520 -1.0229 -0.2473  0.7268
 8393SOL    HW226120   2.092   0.449   0.491 -0.5895 -0.6134 -2.2312
 8394SOL     OW26121   5.401   2.579   4.149  0.2137  0.4658 -0.5005
 8394SOL    HW126122   5.463   2.651   4.145  1.1548 -0.2617  0.5095
 8394SOL    HW226123   5.353   2.594   4.230  0.1452  0.1619 -0.4858
 8395SOL     OW26124   2.352   1.381   3.045  0.2539  0.2590  0.8287
 8395SOL    HW126125   2.270   1.338   3.068  0.0564  1.2848  2.1643
 8395SOL    HW226126   2.410   1.364   3.119  1.0931 -0.0372  0.1224
 8396SOL     OW26127   0.960   6.905   4.119  0.3636 -0.0054  0.0301
 8396SOL    HW126128   0.994   6.853   4.192  0.2230 -0.5062 -0.2568
 8396SOL    HW226129   0.882   6.949   4.154  1.0774  0.8546  0.5821
 8397SOL     OW26130   5.774   3.521   2.814  0.1009  0.2106  0.3840
 8397SOL    HW126131   5.804   3.474   2.892  1.3005  1.2083  0.5608
 8397SOL    HW226132   5.841   3.503   2.748 -0.7183 -0.3296 -0.3220
 8398SOL     OW26133   4.762   4.725   2.322  0.2120 -0.2273 -0.3975
 8398SOL    HW126134   4.751   4.676   2.240  0.5858 -0.4107 -0.3368
 8398SOL    HW226135   4.683   4.779   2.328  0.6973  0.6522 -1.4594
 8399SOL     OW26136   3.330   2.270   3.100  0.3412  0.4489 -0.2536
 8399SOL    HW126137   3.318   2.345   3.043  1.1322 -0.0334 -1.0665
 8399SOL    HW226138   3.332   2.194   3.041 -0.5091 -0.2364  0.5511
 8400SOL     OW26139   3.082   2.370   4.635 -0.1467 -0.1243  0.4485
 8400SOL    HW126140   3.151   2.317   4.595  0.4102  0.8568  0.0537
 8400SOL    HW226141   3.080   2.342   4.727 -0.4857 -1.4349  0.0598
 8401SOL     OW26142   1.798   1.928   6.565 -0.1636  0.6410  0.0635
 8401SOL    HW126143   1.834   1.903   6.479 -2.3202  0.6463 -0.8983
 8401SOL    HW226144   1.873   1.922   6.624  0.9762 -1.2440 -1.4446
 8402SOL     OW26145   5.091   5.244   0.273  0.8988 -0.1597  0.2232
 8402SOL    HW126146   5.174   5.283   0.300 -0.0649  0.4548  2.4741
 8402SOL    HW226147   5.025   5.311   0.293 -0.0582  0.0360 -3.0212
 8403SOL     OW26148   1.312   7.127   5.490  0.4199 -0.5183  0.2650
 8403SOL    HW126149   1.390   7.079   5.520  1.3463  1.1466  0.6731
 8403SOL    HW226150   1.288   7.084   5.407  1.7801 -1.0710  0.1215
 8404SOL     OW26151   1.764   3.383   2.094 -0.0421  0.5842  0.3642
 8404SOL    HW126152   1.784   3.356   2.004 -1.2715  1.4966 -0.2132
 8404SOL    HW226153   1.729   3.305   2.136 -0.6383  0.4549 -0.3452
 8405SOL     OW26154   4.001   2.432   3.966  0.2315 -0.3944  1.2107
 8405SOL    HW126155   3.916   2.410   3.927 -0.2838 -0.1870  2.1862
 8405SOL    HW226156   3.988   2.421   4.060  2.0513 -3.0214  1.2699
 8406SOL     OW26157   4.480   3.482   5.524  0.4046 -0.1314 -0.1506
 8406SOL    HW126158   4.501   3.509   5.435 -0.3546 -1.1939 -0.6778
 8406SOL    HW226159   4.419   3.547   5.556 -0.7730 -0.7344 -1.1044
 8407SOL     OW26160   3.462   0.054   5.937  0.1178 -0.3852 -0.1010
 8407SOL    HW126161   3.390   0.105   5.975  0.7733 -0.4965  1.3538
 8407SOL    HW226162   3.431  -0.036   5.940  0.4666 -0.4901  0.9722
 8408SOL     OW26163   3.229   0.195   7.138 -0.1245 -0.3678  0.1006
 8408SOL    HW126164   3.252   0.277   7.182  1.3590 -0.2093 -0.9028
 8408SOL    HW226165   3.241   0.128   7.205  0.1366  0.0772  0.5081
 8409SOL     OW26166   0.705   6.868   1.145  0.2141 -0.2020 -0.6359
 8409SOL    HW126167   0.722   6.776   1.127  1.4548 -0.3215  0.9308
 8409SOL    HW226168   0.787   6.912   1.120  0.0024  0.3363 -0.3989
 8410SOL     OW26169   7.393   5.827   5.669 -0.0455  0.2575  0.0144
 8410SOL    HW126170   7.304   5.860   5.661 -0.0171  0.8206  1.6940
 8410SOL    HW226171   7.409   5.824   5.763  1.1598 -1.3464 -0.2068
 8411SOL     OW26172   0.148   6.449   4.778 -0.0007  0.2711  0.2466
 8411SOL    HW126173   0.057   6.441   4.750 -0.4731 -2.1451  2.1240
 8411SOL    HW226174   0.153   6.536   4.817 -1.7217  0.1653  0.7940
 8412SOL     OW26175   6.689   1.165   1.188 -0.0995  0.2592  0.4616
 8412SOL    HW126176   6.616   1.169   1.127  0.2056  1.6299  0.1606
 8412SOL    HW226177   6.740   1.090   1.159 -0.4922  0.2997 -0.3526
 8413SOL     OW26178   0.926   2.992   0.656 -0.1222  0.0125 -0.5243
 8413SOL    HW126179   0.869   3.050   0.706  1.7451  2.3540 -0.9782
 8413SOL    HW226180   0.914   3.020   0.565  0.6134 -0.5074 -0.7844
 8414SOL     OW26181   0.941   4.388   5.946 -0.1081  0.2428 -0.5279
 8414SOL    HW126182   1.029   4.414   5.920 -0.6088 -0.3746 -3.1500
 8414SOL    HW226183   0.909   4.461   5.999  3.1528 -1.0178  3.7767
 8415SOL     OW26184   5.068   1.404   5.740 -0.2015  0.7181 -0.3079
 8415SOL    HW126185   5.107   1.372   5.821 -0.0057  0.9679 -0.3025
 8415SOL    HW226186   4.998   1.463   5.769 -0.9415 -0.1305 -0.3113
 8416SOL     OW26187   5.387   0.178   6.795 -0.1104  0.0002  0.0196
 8416SOL    HW126188   5.450   0.124   6.843 -1.1985 -1.1964  0.1393
 8416SOL    HW226189   5.371   0.130   6.714  1.6508  1.9614 -1.6207
 8417SOL     OW26190   2.852   0.309   0.891  0.0792 -0.4842 -0.0767
 8417SOL    HW126191   2.782   0.352   0.940  1.2766  1.9776 -0.3884
 8417SOL    HW226192   2.919   0.291   0.957  0.0113 -0.9426 -0.1291
 8418SOL     OW26193   7.103   6.369   0.936  0.2393 -0.1315 -0.1706
 8418SOL    HW126194   7.081   6.276   0.926  1.3208 -0.3261 -0.9859
 8418SOL    HW226195   7.121   6.399   0.847 -0.0407  0.8547  0.0900
 8419SOL     OW26196   6.527   4.705   4.960  0.4357 -0.1939 -0.5670
 8419SOL    HW126197   6.474   4.675   4.887 -0.3120 -1.1661  0.3494
 8419SOL    HW226198   6.588   4.633   4.977 -0.7069 -0.8623  1.0016
 8420SOL     OW26199   4.535   3.289   1.330  0.0592  0.0245 -0.3505
 8420SOL    HW126200   4.538   3.381   1.302 -1.6412  0.2193  0.0161
 8420SOL    HW226201   4.444   3.264   1.317 -0.0293 -0.9006  1.8190
 8421SOL     OW26202   6.346   4.077   3.323  0.0931  0.1320 -0.3895
 8421SOL    HW126203   6.344   3.984   3.344 -0.3826  0.3610  0.6624
 8421SOL    HW226204   6.435   4.093   3.292  0.5330 -0.4431  0.5395
 8422SOL     OW26205   5.829   5.246   0.793  0.1430  0.2236 -0.6097
 8422SOL    HW126206   5.805   5.300   0.718 -1.6563 -1.1973 -1.1351
 8422SOL    HW226207   5.862   5.308   0.858 -1.1153  1.8519 -1.4587
 8423SOL     OW26208   4.142   6.354   1.283 -0.0628 -0.1391  0.3118
 8423SOL    HW126209   4.206   6.425   1.280 -0.1716 -0.0187  0.7361
 8423SOL    HW226210   4.148   6.321   1.373  0.4836 -1.1277 -0.0619
 8424SOL     OW26211   5.474   5.114   4.537 -0.0575 -0.3827 -0.6314
 8424SOL    HW126212   5.383   5.093   4.516  0.6983 -1.0609 -3.6006
 8424SOL    HW226213   5.487   5.077   4.625 -1.9711 -2.3454 -1.0888
 8425SOL     OW26214   4.466   4.377   6.570 -0.2362 -0.2511 -0.0282
 8425SOL    HW126215   4.421   4.338   6.646  0.0220 -0.6005 -0.0541
 8425SOL    HW226216   4.489   4.303   6.515  1.8722 -0.2691  0.7789
 8426SOL     OW26217   4.556   2.374   0.906 -0.1075  0.0885 -0.1641
 8426SOL    HW126218   4.571   2.389   0.813 -0.3434  0.0645 -0.2052
 8426SOL    HW226219   4.601   2.292   0.925  0.9172  0.6644 -0.0091
 8427SOL     OW26220   7.302   1.768   4.813  0.0824 -0.0598  0.0782
 8427SOL    HW126221   7.277   1.694   4.868  1.1997 -0.0360  0.6466
 8427SOL    HW226222   7.366   1.731   4.751 -2.6310 -0.5756 -2.6459
 8428SOL     OW26223   0.244   5.278   6.582  0.0734 -0.5316  0.2015
 8428SOL    HW126224   0.313   5.214   6.595  1.2387  0.5239 -0.5067
 8428SOL    HW226225   0.290   5.361   6.569 -1.3576  0.3465  0.4566
 8429SOL     OW26226   6.519   5.010   1.721 -0.0349 -0.2298  0.1515
 8429SOL    HW126227   6.501   5.048   1.636  0.3099  0.0379  0.1979
 8429SOL    HW226228   6.505   5.081   1.783  0.0361 -0.3359  0.2901
 8430SOL     OW26229   7.154   4.350   1.241  0.0312  0.1118 -0.1164
 8430SOL    HW126230   7.117   4.381   1.159  0.8032  1.6354  0.0752
 8430SOL    HW226231   7.080   4.312   1.288 -0.6089  0.1097 -1.1052
 8431SOL     OW26232   1.751   4.827   2.894  0.5618  0.1688  0.4502
 8431SOL    HW126233   1.792   4.746   2.863  0.0237 -0.2272  0.7412
 8431SOL    HW226234   1.791   4.842   2.980  0.4803  0.0808  0.5026
 8432SOL     OW26235   5.532   0.009   1.065  0.4978 -0.5629 -0.2007
 8432SOL    HW126236   5.487  -0.066   1.028 -1.3034 -0.3694  1.3882
 8432SOL    HW226237   5.570  -0.024   1.147 -1.1371  0.3735  1.0132
 8433SOL     OW26238   6.147   5.188   6.360  0.3091  0.1089 -0.4344
 8433SOL    HW126239   6.190   5.103   6.368  0.8811  0.5116  1.0846
 8433SOL    HW226240   6.216   5.246   6.326  0.0512  0.0805 -1.0204
 8434SOL     OW26241   5.984   6.311   5.862 -0.0952 -0.5678  0.1646
 8434SOL    HW126242   5.891   6.297   5.880  0.0650 -1.0004  0.6868
 8434SOL    HW226243   5.997   6.277   5.773 -0.9112  1.6743 -0.8873
 8435SOL     OW26244   2.441   4.277   0.572  0.3733 -0.3031 -0.0327
 8435SOL    HW126245   2.454   4.335   0.647  0.2441 -0.9249  0.4818
 8435SOL    HW226246   2.421   4.336   0.500  1.6388  0.3905  0.1465
 8436SOL     OW26247   1.125   3.918   0.604 -0.1667 -0.1744  0.4221
 8436SOL    HW126248   1.164   3.831   0.595  0.1896 -0.1944  1.9129
 8436SOL    HW226249   1.110   3.947   0.514  2.0758 -0.7317 -0.2006
 8437SOL     OW26250   2.703   3.574   1.176  0.1063 -0.2237  0.7820
 8437SOL    HW126251   2.739   3.608   1.259  3.0189 -2.5468  0.5941
 8437SOL    HW226252   2.778   3.565   1.119 -1.4949 -1.1055 -1.3005
 8438SOL     OW26253   2.666   2.515   4.173 -0.2117  0.1762 -0.5420
 8438SOL    HW126254   2.642   2.433   4.215  0.1267 -0.3288 -1.3105
 8438SOL    HW226255   2.729   2.555   4.232 -0.9300  0.2421  0.1923
 8439SOL     OW26256   6.379   0.006   6.703  0.7180  0.0405  0.2760
 8439SOL    HW126257   6.371  -0.041   6.620  0.4065 -0.2427  0.4687
 8439SOL    HW226258   6.299   0.058   6.709  0.7526  0.0811  0.3906
 8440SOL     OW26259   3.515   1.318   6.570 -0.5330 -0.2745 -0.3991
 8440SOL    HW126260   3.610   1.327   6.578 -0.4248 -0.1077 -1.7241
 8440SOL    HW226261   3.482   1.337   6.658  0.6627 -0.4924  0.1163
 8441SOL     OW26262   5.802   1.194   5.280 -0.4885 -0.3705 -0.1271
 8441SOL    HW126263   5.809   1.128   5.211 -0.0878  0.9898 -1.4551
 8441SOL    HW226264   5.863   1.263   5.253 -1.0633  0.6419  1.0704
 8442SOL     OW26265   5.078   0.359   3.437  0.5387 -0.1041  0.3733
 8442SOL    HW126266   5.051   0.283   3.385  1.2277  0.2319 -0.5126
 8442SOL    HW226267   5.002   0.379   3.492 -1.4064  1.2592 -2.5267
 8443SOL     OW26268   0.605   3.526   7.104 -0.6672  0.5921 -0.3008
 8443SOL    HW126269   0.695   3.496   7.100 -0.7517  0.3981 -0.8022
 8443SOL    HW226270   0.555   3.451   7.135 -0.9362  0.0629 -1.9430
 8444SOL     OW26271   4.610   5.830   2.963  0.2569  0.2626  0.0294
 8444SOL    HW126272   4.665   5.754   2.984 -0.4430 -0.2967 -0.1366
 8444SOL    HW226273   4.616   5.838   2.868 -0.2277 -0.0195 -0.0275
 8445SOL     OW26274   5.789   5.027   3.679 -0.0230  0.3848  0.5838
 8445SOL    HW126275   5.800   4.949   3.734  1.5397 -0.4468 -0.8156
 8445SOL    HW226276   5.740   4.995   3.603  0.5408  0.7828  0.0484
 8446SOL     OW26277   2.607   2.990   0.460 -0.3198  0.0455 -0.5149
 8446SOL    HW126278   2.676   2.943   0.413 -2.1806 -0.6625 -2.7246
 8446SOL    HW226279   2.653   3.056   0.511  1.9516  0.1606 -2.5476
 8447SOL     OW26280   5.477   0.807   2.236  0.2737 -0.1002 -0.2765
 8447SOL    HW126281   5.432   0.813   2.151 -1.2365  0.4087  0.5171
 8447SOL    HW226282   5.561   0.766   2.216 -1.3084 -3.0614 -1.5898
 8448SOL     OW26283   4.238   6.148   0.277 -0.4784  0.3548  0.3273
 8448SOL    HW126284   4.177   6.086   0.316  0.3795 -0.9389 -0.3277
 8448SOL    HW226285   4.199   6.234   0.294 -1.1996 -0.2866  2.1103
 8449SOL     OW26286   6.271   1.490   2.204  0.0525 -0.4866  0.2644
 8449SOL    HW126287   6.279   1.418   2.267  3.4571 -1.5004 -1.1044
 8449SOL    HW226288   6.334   1.555   2.234  0.5515 -0.2821 -1.1675
 8450SOL     OW26289   1.398   3.450   2.219 -0.5023 -0.7356 -0.3081
 8450SOL    HW126290   1.334   3.504   2.172  0.3142  0.5636  0.0551
 8450SOL    HW226291   1.424   3.383   2.155 -2.4488 -1.5138 -0.3626
 8451SOL     OW26292   4.250   3.217   0.445 -0.5774  0.2663  0.5780
 8451SOL    HW126293   4.293   3.282   0.389 -0.9711 -0.2845 -0.3726
 8451SOL    HW226294   4.167   3.259   0.470 -0.0401  0.8508  1.4594
 8452SOL     OW26295   0.215   0.370   4.086 -0.2778 -0.2933 -0.2441
 8452SOL    HW126296   0.131   0.347   4.046 -0.0529 -0.2910 -0.7201
 8452SOL    HW226297   0.280   0.330   4.029  0.1033  1.0717 -0.8078
 8453SOL     OW26298   6.661   5.429   6.529 -0.8544  0.1255 -0.4630
 8453SOL    HW126299   6.595   5.412   6.597  0.6435 -1.6373  0.6391
 8453SOL    HW226300   6.642   5.364   6.461 -0.2920 -0.3855 -0.1440
 8454SOL     OW26301   0.745   3.024   2.795  0.7155  0.7926 -0.5194
 8454SOL    HW126302   0.675   3.039   2.731  1.1704 -0.3514 -1.3426
 8454SOL    HW226303   0.741   3.099   2.854 -0.3806  1.3812 -1.3003
 8455SOL     OW26304   0.575   5.033   1.985  0.5641  0.7065  0.2113
 8455SOL    HW126305   0.551   5.019   1.893  1.1440 -0.6595  0.2320
 8455SOL    HW226306   0.494   5.059   2.028  0.0569  0.3447 -0.5064
 8456SOL     OW26307   6.337   2.121   5.130 -0.1927  0.2373 -0.1708
 8456SOL    HW126308   6.400   2.125   5.058  0.9181 -0.1875  0.7419
 8456SOL    HW226309   6.300   2.209   5.134 -0.8264  0.0670 -1.7182
 8457SOL     OW26310   4.331   5.534   2.651  0.5443  0.3958  0.1873
 8457SOL    HW126311   4.349   5.443   2.628 -0.8705  0.3734 -1.0074
 8457SOL    HW226312   4.253   5.530   2.706 -0.9521  0.9694 -1.7626
 8458SOL     OW26313   1.739   2.526   1.222 -0.1187 -0.0133  0.3763
 8458SOL    HW126314   1.731   2.564   1.309  0.3286  0.5722  0.1735
 8458SOL    HW226315   1.649   2.520   1.190 -0.2649  0.0077  0.7776
 8459SOL     OW26316   2.485   2.926   4.656 -0.1200 -0.1731 -0.2904
 8459SOL    HW126317   2.471   3.019   4.642 -0.5914 -0.3475 -1.0760
 8459SOL    HW226318   2.463   2.912   4.748 -1.2206  0.2895 -0.4680
 8460SOL     OW26319   0.006   4.915   4.792 -0.0705 -0.5083 -0.1265
 8460SOL    HW126320  -0.071   4.919   4.735  0.4500  1.0082 -0.7521
 8460SOL    HW226321   0.064   4.851   4.749  0.0407  0.1437 -0.9626
 8461SOL     OW26322   2.982   4.337   2.004 -0.4838  0.3661 -0.5659
 8461SOL    HW126323   3.027   4.352   1.921  2.3799 -1.2888  0.5405
 8461SOL    HW226324   3.022   4.398   2.066 -0.6572 -0.2473  0.1815
 8462SOL     OW26325   6.217   2.627   6.032 -0.4333  0.2079 -0.1588
 8462SOL    HW126326   6.160   2.704   6.032  0.5089  0.9241 -1.1097
 8462SOL    HW226327   6.242   2.616   6.123  0.7971  2.0826 -0.2295
 8463SOL     OW26328   6.816   0.916   5.915 -0.5613  0.1184 -0.3741
 8463SOL    HW126329   6.869   0.859   5.971  0.6005  0.8486 -0.6778
 8463SOL    HW226330   6.742   0.942   5.969 -0.9469 -1.4070 -0.1300
 8464SOL     OW26331   4.367   0.933   5.610  0.4469  0.5289 -0.2593
 8464SOL    HW126332   4.377   1.027   5.625  0.8276  0.1017  2.9299
 8464SOL    HW226333   4.456   0.901   5.596  0.3990  0.5564 -0.6188
 8465SOL     OW26334   6.147   2.602   7.430 -0.6068 -0.1613  0.4582
 8465SOL    HW126335   6.134   2.556   7.513 -0.6997 -0.1869  0.4307
 8465SOL    HW226336   6.203   2.544   7.378 -1.6803 -0.8085 -0.0235
 8466SOL     OW26337   7.375   0.331   5.372  0.5885  0.1500  0.0234
 8466SOL    HW126338   7.376   0.304   5.464  0.0423 -0.4909 -0.1529
 8466SOL    HW226339   7.465   0.321   5.343  0.7811  0.4284  0.5105
 8467SOL     OW26340   4.801   7.053   5.572 -1.0422  0.1460  0.0514
 8467SOL    HW126341   4.794   7.142   5.606 -0.5736  0.4707 -0.6675
 8467SOL    HW226342   4.879   7.017   5.614 -0.3364  0.6217 -0.8025
 8468SOL     OW26343   2.631   6.307   5.954  0.2300 -0.0784  0.1505
 8468SOL    HW126344   2.712   6.307   6.005  0.6872  2.9562 -0.3909
 8468SOL    HW226345   2.659   6.321   5.864 -0.8930  1.5514  0.0176
 8469SOL     OW26346   4.596   0.693   4.042  0.6087 -0.1952 -0.0233
 8469SOL    HW126347   4.533   0.724   3.977  0.8913 -1.1250 -0.7442
 8469SOL    HW226348   4.580   0.599   4.050 -0.2458  0.0747  2.1644
 8470SOL     OW26349   2.623   0.175   2.797 -0.4077  0.1752  0.2373
 8470SOL    HW126350   2.661   0.247   2.847 -1.6014  0.5314  0.6571
 8470SOL    HW226351   2.597   0.215   2.713  0.6201 -0.1875 -0.2670
 8471SOL     OW26352   2.690   0.052   6.728  0.1601 -0.4054 -0.4594
 8471SOL    HW126353   2.696   0.021   6.637  0.5798 -0.2660 -0.4848
 8471SOL    HW226354   2.779   0.041   6.762  0.0112 -0.4204 -0.0771
 8472SOL     OW26355   5.771   3.975   4.501  0.3069 -0.6854 -0.1577
 8472SOL    HW126356   5.714   3.955   4.575 -0.1651 -0.3604 -0.4306
 8472SOL    HW226357   5.817   4.054   4.527  0.1728 -0.5953 -0.1936
 8473SOL     OW26358   3.205   1.258   4.728 -0.3150 -0.1263  0.3273
 8473SOL    HW126359   3.206   1.169   4.763 -2.9049  0.5762  2.4987
 8473SOL    HW226360   3.126   1.262   4.674  0.5195  0.5024 -0.8840
 8474SOL     OW26361   5.238   1.526   5.544  0.6132 -0.4056  0.4012
 8474SOL    HW126362   5.193   1.487   5.619  0.6231 -0.9229  0.1476
 8474SOL    HW226363   5.253   1.452   5.485 -1.1252  0.2878 -1.0000
 8475SOL     OW26364   7.382   0.914   2.935  0.2109  0.4816  0.3344
 8475SOL    HW126365   7.436   0.981   2.977 -0.7779  0.4964  1.6544
 8475SOL    HW226366   7.334   0.962   2.867  0.6586  0.7994  0.2397
 8476SOL     OW26367   3.973   4.306   0.687  0.4778  0.0348 -0.3654
 8476SOL    HW126368   3.952   4.224   0.644 -0.2424  0.2532 -0.4462
 8476SOL    HW226369   3.962   4.287   0.781 -1.1679  0.4172 -0.4481
 8477SOL     OW26370   6.247   6.998   0.266  0.6107 -0.0627  0.5928
 8477SOL    HW126371   6.181   6.941   0.226  1.3417 -0.0137 -0.7595
 8477SOL    HW226372   6.308   6.939   0.308  1.2070 -0.2922 -0.5552
 8478SOL     OW26373   5.899   0.383   6.090 -0.4047 -0.1464  0.0108
 8478SOL    HW126374   5.985   0.408   6.124 -1.2645  0.3394  1.8953
 8478SOL    HW226375   5.894   0.426   6.004 -0.0548  2.5454  1.2601
 8479SOL     OW26376   1.599   4.386   3.695  0.8365 -0.5403  0.0339
 8479SOL    HW126377   1.603   4.472   3.654 -0.6305 -1.2402 -1.7187
 8479SOL    HW226378   1.635   4.326   3.630 -2.1414 -1.7752 -0.6600
 8480SOL     OW26379   5.534   0.554   0.645 -0.4021 -0.1481  0.6749
 8480SOL    HW126380   5.511   0.536   0.736 -1.4144  1.0372  0.6780
 8480SOL    HW226381   5.508   0.645   0.631 -0.8130 -0.4899 -0.9734
 8481SOL     OW26382   2.392   1.762   4.148 -0.1854  0.3599 -0.0471
 8481SOL    HW126383   2.481   1.753   4.183 -0.0885  0.0211 -0.3690
 8481SOL    HW226384   2.401   1.827   4.078  0.0846 -0.6806 -0.9955
 8482SOL     OW26385   4.360   1.859   4.383 -0.5612 -0.2139 -0.1271
 8482SOL    HW126386   4.344   1.934   4.440  1.5238 -0.5643  1.0301
 8482SOL    HW226387   4.454   1.864   4.362 -0.5936 -1.9144 -0.8797
 8483SOL     OW26388   1.708   6.152   0.548  0.1463  0.2591  0.0429
 8483SOL    HW126389   1.799   6.126   0.537  0.3805  0.8185  0.5970
 8483SOL    HW226390   1.698   6.166   0.642 -0.0747  1.7159 -0.1634
 8484SOL     OW26391   2.368   1.757   6.322 -0.5913 -0.0430 -0.3308
 8484SOL    HW126392   2.346   1.807   6.400  0.0083 -2.7608  1.7402
 8484SOL    HW226393   2.464   1.757   6.319 -0.5572 -1.2954 -0.0404
 8485SOL     OW26394   2.695   4.745   7.314 -0.1130  0.4949  0.2611
 8485SOL    HW126395   2.712   4.709   7.401  1.8330  1.3264  0.2746
 8485SOL    HW226396   2.723   4.676   7.253 -0.8718  0.1692  0.2606
 8486SOL     OW26397   4.450   0.760   0.456 -0.1064  0.0464 -0.4614
 8486SOL    HW126398   4.482   0.676   0.422  0.0922 -0.4577  0.9078
 8486SOL    HW226399   4.529   0.808   0.480 -0.2707 -0.0989  0.3960
 8487SOL     OW26400   3.325   0.566   6.055  0.2447  0.1496  0.6162
 8487SOL    HW126401   3.374   0.607   5.983 -1.5491  0.0710 -0.7055
 8487SOL    HW226402   3.360   0.608   6.134  2.8967 -0.3919 -0.1574
 8488SOL     OW26403   3.430   5.581   2.404  0.0864  0.1196 -0.4422
 8488SOL    HW126404   3.347   5.541   2.378  0.4378 -0.3592 -0.8527
 8488SOL    HW226405   3.464   5.620   2.323  0.1941  0.4323 -0.2478
 8489SOL     OW26406   1.856   6.096   6.165  0.5748 -0.6546 -0.1710
 8489SOL    HW126407   1.950   6.116   6.159  0.5250 -0.1276  0.6263
 8489SOL    HW226408   1.840   6.087   6.259 -0.0662 -1.3212 -0.3329
 8490SOL     OW26409   0.619   4.436   5.694  0.3281 -0.2252 -0.1217
 8490SOL    HW126410   0.668   4.371   5.745  0.3879 -1.3440 -1.5392
 8490SOL    HW226411   0.679   4.461   5.623 -0.1930  0.3581 -0.3659
 8491SOL     OW26412   6.741   0.396   3.342 -0.4222 -0.0814 -0.1432
 8491SOL    HW126413   6.705   0.455   3.408  1.4323  0.6149  0.3051
 8491SOL    HW226414   6.751   0.312   3.387  0.2088  0.2129  0.2784
 8492SOL     OW26415   6.901   0.361   1.734 -0.6624  0.0721 -0.1795
 8492SOL    HW126416   6.897   0.455   1.749 -1.5462  0.0038  0.0534
 8492SOL    HW226417   6.908   0.352   1.639 -0.0449  0.3839 -0.1649
 8493SOL     OW26418   3.368   0.450   5.566 -0.6980  0.1264  0.3163
 8493SOL    HW126419   3.363   0.400   5.647  0.7744  0.1221  0.4303
 8493SOL    HW226420   3.461   0.473   5.557 -0.5767 -0.9277 -1.9916
 8494SOL     OW26421   5.543   6.888   4.484 -0.2503  0.0105 -0.0915
 8494SOL    HW126422   5.630   6.904   4.519 -0.5016  0.6343  0.2743
 8494SOL    HW226423   5.557   6.870   4.391  0.3991 -1.3417  0.2413
 8495SOL     OW26424   1.481   2.007   3.680 -0.1881 -0.0264 -0.4350
 8495SOL    HW126425   1.476   1.943   3.609 -1.3175  0.7083 -1.0409
 8495SOL    HW226426   1.550   2.067   3.653 -0.1896 -0.1023 -0.6070
 8496SOL     OW26427   3.367   1.936   2.042  0.1515  0.1914 -0.5419
 8496SOL    HW126428   3.382   1.854   1.994  0.8948  1.2362 -2.1797
 8496SOL    HW226429   3.284   1.922   2.087  0.1408 -1.3691 -0.9871
 8497SOL     OW26430   0.852   3.643   2.480  0.1594 -0.7890  0.2987
 8497SOL    HW126431   0.935   3.607   2.513  0.5732  0.0857  0.2327
 8497SOL    HW226432   0.864   3.647   2.385 -0.4513 -1.8565  0.1633
 8498SOL     OW26433   3.262   5.575   1.893 -0.2603  0.0603  0.1888
 8498SOL    HW126434   3.243   5.491   1.935  1.6679 -0.3007  0.4344
 8498SOL    HW226435   3.181   5.625   1.901 -1.3122 -1.6067  0.4318
 8499SOL     OW26436   5.053   5.302   6.378  0.5850  0.3574 -0.2704
 8499SOL    HW126437   5.052   5.230   6.315 -1.7887  0.7062 -0.7204
 8499SOL    HW226438   4.961   5.323   6.393  1.1667  3.1135  0.0682
 8500SOL     OW26439   1.192   3.554   3.841  0.3999  0.3413  0.0446
 8500SOL    HW126440   1.202   3.648   3.860  1.7619 -0.1750  2.3154
 8500SOL    HW226441   1.243   3.540   3.761  3.1253  1.0440  1.5078
 8501SOL     OW26442   6.493   3.355   3.838  0.0767 -0.0831  0.7625
 8501SOL    HW126443   6.457   3.376   3.751  0.2164 -0.3133  0.6469
 8501SOL    HW226444   6.544   3.275   3.823  1.2928  0.6695  0.7600
 8502SOL     OW26445   1.103   4.910   5.698  0.3453  0.4173 -0.1648
 8502SOL    HW126446   1.061   4.988   5.662 -0.6521 -0.5044 -1.0577
 8502SOL    HW226447   1.053   4.837   5.662  0.5156 -0.6177  1.6137
 8503SOL     OW26448   3.480   3.207   2.414 -0.1864  0.5603 -0.4511
 8503SOL    HW126449   3.507   3.195   2.506  2.4528  0.0016 -1.2081
 8503SOL    HW226450   3.403   3.263   2.419 -1.2937 -0.9709  2.2037
 8504SOL     OW26451   1.929   5.475   6.516 -0.3941 -0.6541 -0.1327
 8504SOL    HW126452   1.908   5.382   6.525  0.3015 -0.6608  2.1407
 8504SOL    HW226453   1.997   5.478   6.450 -0.3318 -1.7919 -0.1411
 8505SOL     OW26454   4.639   2.129   5.089  0.1009 -0.1088 -0.4317
 8505SOL    HW126455   4.589   2.201   5.127  0.8572  0.2452 -0.0677
 8505SOL    HW226456   4.597   2.050   5.121  0.3758  0.1835  0.7007
 8506SOL     OW26457   6.494   1.699   2.195  0.1419  0.2871 -0.3358
 8506SOL    HW126458   6.460   1.785   2.169  1.3934 -0.0258 -3.4367
 8506SOL    HW226459   6.562   1.718   2.259  0.6860  1.6635 -1.2861
 8507SOL     OW26460   1.384   0.141   4.258  0.1380  0.4254 -0.2974
 8507SOL    HW126461   1.369   0.115   4.167  1.0490 -1.3013  0.0062
 8507SOL    HW226462   1.380   0.059   4.307  0.9988  1.1525  1.0395
 8508SOL     OW26463   2.093   4.394   1.829 -0.6107  0.4973 -0.0401
 8508SOL    HW126464   2.094   4.438   1.914  0.4688 -0.2349  0.3460
 8508SOL    HW226465   2.041   4.316   1.843  0.5579 -0.2436  0.2942
 8509SOL     OW26466   5.220   5.315   2.078 -0.1960  0.2682 -0.1331
 8509SOL    HW126467   5.174   5.382   2.028 -0.8044  0.7883  1.0676
 8509SOL    HW226468   5.302   5.300   2.031  0.7010  3.0197  0.4130
 8510SOL     OW26469   3.522   6.564   0.473 -0.2889 -0.0444 -0.0940
 8510SOL    HW126470   3.614   6.544   0.458 -0.5381 -0.3845 -1.3509
 8510SOL    HW226471   3.522   6.656   0.499  0.2759  0.7305 -2.5003
 8511SOL     OW26472   0.603   2.940   1.949  0.2674  0.1269 -0.2268
 8511SOL    HW126473   0.673   2.969   1.889 -0.5650  4.7385  0.6145
 8511SOL    HW226474   0.523   2.950   1.898 -0.2518  1.9318  0.8521
 8512SOL     OW26475   5.336   1.613   0.222 -0.8225  0.3197 -0.0538
 8512SOL    HW126476   5.286   1.538   0.188  0.1380  0.1837 -1.2484
 8512SOL    HW226477   5.403   1.628   0.156  0.9028  0.3240  1.6264
 8513SOL     OW26478   6.370   5.539   7.393 -0.2855  0.0302 -0.4961
 8513SOL    HW126479   6.328   5.473   7.338 -2.1325  2.0964 -1.7332
 8513SOL    HW226480   6.411   5.600   7.331  0.3532  0.6817  0.5417
 8514SOL     OW26481   6.484   5.983   5.914 -0.8126  0.0339 -0.9040
 8514SOL    HW126482   6.494   5.933   5.995 -2.4567 -2.5409 -2.1107
 8514SOL    HW226483   6.398   6.025   5.922 -1.5480 -1.2142 -1.6699
 8515SOL     OW26484   6.122   2.234   2.708  0.1559 -0.0805 -0.7586
 8515SOL    HW126485   6.169   2.316   2.694  0.3106 -0.1783 -0.8260
 8515SOL    HW226486   6.124   2.190   2.623 -1.4514  0.6166 -1.1904
 8516SOL     OW26487   5.799   6.171   2.354 -0.1607 -0.1473  0.2757
 8516SOL    HW126488   5.757   6.108   2.412  1.6893 -1.6154  0.1384
 8516SOL    HW226489   5.811   6.124   2.271 -0.1383  0.9194 -0.3440
 8517SOL     OW26490   2.997   5.295   5.758 -0.1600  0.1267 -0.5628
 8517SOL    HW126491   3.072   5.331   5.805  0.1495 -1.2407  0.0565
 8517SOL    HW226492   2.939   5.369   5.743  0.9511  1.0649 -0.3418
 8518SOL     OW26493   6.699   3.196   3.501 -0.0098  0.0858 -0.1395
 8518SOL    HW126494   6.767   3.250   3.542 -0.6485 -0.0283  1.1069
 8518SOL    HW226495   6.735   3.108   3.501 -0.0662  0.0574  0.3494
 8519SOL     OW26496   2.891   1.339   3.104 -0.3096  0.0092  0.0522
 8519SOL    HW126497   2.945   1.395   3.160  1.2506 -1.9113  0.5531
 8519SOL    HW226498   2.908   1.371   3.015  1.6541 -0.4968  0.2036
 8520SOL     OW26499   0.479   1.014   7.250 -0.1566 -0.4353 -0.5523
 8520SOL    HW126500   0.534   0.937   7.235 -1.0532 -1.3956  0.8063
 8520SOL    HW226501   0.402   0.980   7.297 -0.0208  1.4405  1.1861
 8521SOL     OW26502   4.965   5.527   1.578  0.4597  0.4076 -0.0635
 8521SOL    HW126503   5.016   5.521   1.658  0.0561 -0.1776  0.1540
 8521SOL    HW226504   4.875   5.544   1.608  0.5255  1.5018 -0.4391
 8522SOL     OW26505   3.826   7.406   7.323  0.3058  0.1152 -0.3083
 8522SOL    HW126506   3.840   7.458   7.244 -0.2612  0.7234 -0.0265
 8522SOL    HW226507   3.901   7.347   7.328  1.2512  1.2729 -0.3547
 8523SOL     OW26508   5.432   5.584   2.437 -0.9615  0.1372 -0.5030
 8523SOL    HW126509   5.444   5.535   2.356 -2.9203  0.6039 -1.1098
 8523SOL    HW226510   5.359   5.540   2.481 -0.7882  0.7109  0.3727
 8524SOL     OW26511   3.997   5.369   6.570 -0.0230  0.2256  0.3732
 8524SOL    HW126512   3.928   5.395   6.630 -0.3560 -0.5322  0.3169
 8524SOL    HW226513   4.045   5.300   6.616 -0.6241 -0.7587 -0.4353
 8525SOL     OW26514   7.388   3.952   5.446  0.4057 -0.2272 -0.2413
 8525SOL    HW126515   7.471   3.905   5.446  0.6580  0.1878  0.7905
 8525SOL    HW226516   7.323   3.887   5.473  0.7587 -0.0088  1.2281
 8526SOL     OW26517   7.353   5.752   7.312 -0.5462 -0.1266 -0.1067
 8526SOL    HW126518   7.322   5.841   7.295 -0.8363 -0.1970  0.0416
 8526SOL    HW226519   7.426   5.764   7.373 -0.5106  0.0178 -0.1776
 8527SOL     OW26520   3.990   5.728   5.057  0.1160 -0.2576 -0.6884
 8527SOL    HW126521   3.951   5.767   4.978 -4.1624  0.1321  1.3601
 8527SOL    HW226522   3.951   5.641   5.063  0.6947 -0.4383  0.7974
 8528SOL     OW26523   2.797   7.290   3.780  0.3241 -0.3837  0.4782
 8528SOL    HW126524   2.890   7.305   3.763  0.3966  0.2426  1.3895
 8528SOL    HW226525   2.758   7.377   3.780 -0.1873 -0.6091  0.5341
 8529SOL     OW26526   3.748   0.069   6.468  0.7472 -0.1207 -0.5514
 8529SOL    HW126527   3.658   0.042   6.488  0.4390  1.3585  0.1778
 8529SOL    HW226528   3.780   0.002   6.407 -0.5294 -1.1718 -0.1184
 8530SOL     OW26529   3.315   2.690   3.915  0.0720  0.8106  0.4063
 8530SOL    HW126530   3.358   2.773   3.892 -0.8757  0.5734 -2.6446
 8530SOL    HW226531   3.384   2.624   3.906  0.2863  1.0005  0.6325
 8531SOL     OW26532   5.355   1.490   4.509 -0.0481  0.8924 -0.5829
 8531SOL    HW126533   5.443   1.473   4.476  0.4352  0.8310  0.7017
 8531SOL    HW226534   5.364   1.568   4.563 -0.8217  0.9844 -0.5703
 8532SOL     OW26535   4.274   4.263   1.636 -0.5144  0.4999 -0.7846
 8532SOL    HW126536   4.272   4.317   1.716  1.7709 -0.5578  0.0739
 8532SOL    HW226537   4.206   4.198   1.650 -0.3677  0.5334  0.1675
 8533SOL     OW26538   2.458   1.973   4.007 -0.2074 -0.2764 -0.7039
 8533SOL    HW126539   2.506   2.001   3.929 -0.2167  1.0829 -0.2403
 8533SOL    HW226540   2.367   1.996   3.989 -0.1357  0.4922 -0.0935
 8534SOL     OW26541   3.841   5.355   6.079 -0.1844 -0.5436  0.2812
 8534SOL    HW126542   3.872   5.388   6.163 -0.8490 -0.5589  0.5397
 8534SOL    HW226543   3.761   5.405   6.062  0.1854 -0.2171 -0.5657
 8535SOL     OW26544   5.660   7.388   6.691  0.0423  0.1322  0.1482
 8535SOL    HW126545   5.657   7.293   6.703  1.2977 -0.1236 -1.2110
 8535SOL    HW226546   5.574   7.411   6.657  0.1623 -0.7329 -0.7795
 8536SOL     OW26547   7.056   5.331   2.482  0.2902  0.5041  0.4437
 8536SOL    HW126548   7.033   5.290   2.565 -0.3354 -0.3511 -0.1410
 8536SOL    HW226549   6.985   5.307   2.422 -0.0229  2.3308  0.0310
 8537SOL     OW26550   4.179   6.656   2.287 -0.4042  0.3086 -0.0750
 8537SOL    HW126551   4.242   6.633   2.355  1.4672  0.2402 -1.7408
 8537SOL    HW226552   4.172   6.752   2.291  2.4204  0.7076 -1.9288
 8538SOL     OW26553   5.523   7.101   5.066 -0.0668 -0.3312  0.2227
 8538SOL    HW126554   5.563   7.186   5.047  0.3489 -0.4936  0.3618
 8538SOL    HW226555   5.464   7.118   5.140  1.6898 -0.6009  1.7604
 8539SOL     OW26556   4.833   2.510   6.304 -0.0863 -0.2796 -0.0045
 8539SOL    HW126557   4.829   2.599   6.269  1.4457  0.0512  0.5608
 8539SOL    HW226558   4.745   2.476   6.293 -0.2840  0.6796 -1.8501
 8540SOL     OW26559   2.179   1.521   2.415  0.0715  0.2492  0.0161
 8540SOL    HW126560   2.217   1.474   2.489  2.0618  1.8755  0.1366
 8540SOL    HW226561   2.131   1.593   2.454 -0.6783 -0.1120 -0.2309
 8541SOL     OW26562   4.263   1.707   0.229 -0.3480 -0.8746  0.3146
 8541SOL    HW126563   4.353   1.738   0.231 -0.9088  0.9655 -0.5981
 8541SOL    HW226564   4.269   1.618   0.192  0.9656 -0.2436 -1.0968
 8542SOL     OW26565   1.947   5.973   0.819  0.5209 -0.1877 -0.1767
 8542SOL    HW126566   2.001   6.050   0.835 -0.6576  0.7276 -0.4581
 8542SOL    HW226567   1.973   5.911   0.887  0.1590  1.1976  1.2856
 8543SOL     OW26568   3.411   1.210   1.761  0.3627  0.1842  0.3476
 8543SOL    HW126569   3.315   1.205   1.770  0.5404 -1.2093  1.6975
 8543SOL    HW226570   3.428   1.184   1.671 -0.5152  0.3070  0.1377
 8544SOL     OW26571   5.697   5.112   0.217 -0.2004 -0.0150  0.1554
 8544SOL    HW126572   5.621   5.065   0.180  0.8236 -1.7713  0.1737
 8544SOL    HW226573   5.685   5.105   0.311 -0.5347  0.6318  0.1690
 8545SOL     OW26574   2.510   6.596   5.042 -0.9643  0.3048  0.4640
 8545SOL    HW126575   2.473   6.650   4.972 -2.0600 -0.0293  0.7762
 8545SOL    HW226576   2.441   6.535   5.065 -0.2647 -0.2532  1.1618
 8546SOL     OW26577   7.110   4.483   5.769  0.0753  0.0485 -0.0293
 8546SOL    HW126578   7.093   4.572   5.799  1.2584 -0.6278  2.9387
 8546SOL    HW226579   7.176   4.494   5.700 -0.6058  1.5037 -0.5004
 8547SOL     OW26580   7.072   5.058   1.696  0.1300  0.2018  0.2574
 8547SOL    HW126581   7.125   4.984   1.726  0.3253  1.0130  2.0654
 8547SOL    HW226582   6.982   5.033   1.714  0.0634 -0.2646 -0.7020
 8548SOL     OW26583   5.247   6.730   1.871 -0.4756 -0.0182  0.4488
 8548SOL    HW126584   5.331   6.776   1.866 -1.1622  1.1377 -1.5837
 8548SOL    HW226585   5.185   6.797   1.900 -0.7585 -0.8180  1.7595
 8549SOL     OW26586   0.016   1.348   4.775  0.6842 -0.3234 -0.1296
 8549SOL    HW126587   0.094   1.313   4.817  0.4052 -0.2830  0.4477
 8549SOL    HW226588   0.018   1.314   4.686  0.6316 -1.4802  0.2899
 8550SOL     OW26589   2.219   1.313   4.848  0.7298 -0.7332  0.4267
 8550SOL    HW126590   2.294   1.255   4.835  0.6306 -0.7378 -0.1717
 8550SOL    HW226591   2.197   1.342   4.760  2.3547  2.2367  0.8635
 8551SOL     OW26592   3.024   7.178   5.049 -0.0937  0.3477  0.4510
 8551SOL    HW126593   3.018   7.197   4.955 -0.5037 -0.9754  0.1883
 8551SOL    HW226594   2.974   7.248   5.091 -3.2152 -1.0799 -0.5928
 8552SOL     OW26595   3.120   0.055   2.906 -0.2380 -0.5440  0.3132
 8552SOL    HW126596   3.069  -0.012   2.950 -1.1191 -0.1384 -0.0677
 8552SOL    HW226597   3.078   0.138   2.932  0.4629 -0.1736  0.3039
 8553SOL     OW26598   6.573   0.511   5.919  0.0974  0.2261 -0.0786
 8553SOL    HW126599   6.602   0.586   5.868 -0.2890 -0.1768 -0.9113
 8553SOL    HW226600   6.645   0.494   5.980  0.9536  0.1689 -1.0826
 8554SOL     OW26601   1.150   0.783   6.066  0.8970  0.1680 -0.2538
 8554SOL    HW126602   1.203   0.703   6.065  2.1744  0.9846 -0.4702
 8554SOL    HW226603   1.118   0.789   6.156  0.1017 -1.0044 -0.4325
 8555SOL     OW26604   3.761   4.894   1.283  0.5404  1.1090  0.4155
 8555SOL    HW126605   3.760   4.972   1.338  2.9851  0.7440  1.0980
 8555SOL    HW226606   3.853   4.868   1.281 -0.0129 -0.9314 -0.9790
 8556SOL     OW26607   1.643   4.935   0.684  0.7459 -0.4045 -0.2463
 8556SOL    HW126608   1.702   4.946   0.759  2.5354  0.3948 -1.6828
 8556SOL    HW226609   1.563   4.899   0.722  0.7217  2.0602  2.3866
 8557SOL     OW26610   7.198   2.225   4.666 -0.0172  0.4263  0.5184
 8557SOL    HW126611   7.242   2.142   4.646 -0.8195  0.0217  0.3924
 8557SOL    HW226612   7.250   2.291   4.622  1.0621  0.0777  1.2237
 8558SOL     OW26613   5.767   7.047   4.574  0.1694 -0.1729  0.2710
 8558SOL    HW126614   5.817   7.100   4.512  1.2843 -0.0272  1.2632
 8558SOL    HW226615   5.700   7.107   4.607 -2.5716 -1.0878 -3.0556
 8559SOL     OW26616   1.173   4.999   4.941  0.5061  0.3808  0.3072
 8559SOL    HW126617   1.154   5.013   4.849  0.8815 -1.1947 -0.0343
 8559SOL    HW226618   1.226   5.075   4.967  0.0581  1.0384 -0.6409
 8560SOL     OW26619   3.180   6.453   6.071  0.0965 -0.0470 -0.0998
 8560SOL    HW126620   3.170   6.465   5.976 -0.3492  1.7303  0.1296
 8560SOL    HW226621   3.095   6.480   6.107  0.9825  1.4936  0.9449
 8561SOL     OW26622   3.387   4.468   3.657 -0.2891  0.0885 -0.1356
 8561SOL    HW126623   3.309   4.458   3.713 -0.7748  1.7510 -0.4665
 8561SOL    HW226624   3.411   4.378   3.634 -1.2499 -0.5338  1.1382
 8562SOL     OW26625   4.065   0.712   5.886 -0.1071 -0.0928  1.1371
 8562SOL    HW126626   4.009   0.701   5.963 -0.5088 -0.4281  0.7980
 8562SOL    HW226627   4.040   0.641   5.827 -0.3201  0.5899  0.3860
 8563SOL     OW26628   1.770   3.536   0.173  0.2668 -0.2731 -0.1974
 8563SOL    HW126629   1.726   3.549   0.257  1.7526  0.6165  0.4734
 8563SOL    HW226630   1.802   3.446   0.176  0.9390 -0.0164  0.4980
 8564SOL     OW26631   6.662   6.033   4.387 -0.3985 -0.2221  0.0263
 8564SOL    HW126632   6.717   6.111   4.391 -0.9256  0.2424 -1.3148
 8564SOL    HW226633   6.578   6.061   4.424 -0.7997  0.0635 -1.0566
 8565SOL     OW26634   2.966   3.811   7.180 -0.2435 -0.5290  0.4991
 8565SOL    HW126635   2.880   3.798   7.141 -0.1673  1.0481 -0.3001
 8565SOL    HW226636   2.950   3.867   7.256  0.1969  1.1800 -0.5989
 8566SOL     OW26637   3.428   5.337   1.713  0.5449  0.6497 -0.3532
 8566SOL    HW126638   3.372   5.411   1.735  1.3090  1.1890 -0.1867
 8566SOL    HW226639   3.375   5.259   1.732 -0.7896  1.1444 -1.8783
 8567SOL     OW26640   3.556   1.927   5.879  0.3093  0.4359 -0.0571
 8567SOL    HW126641   3.596   2.007   5.915 -0.3784  0.4786  0.6279
 8567SOL    HW226642   3.489   1.903   5.943  0.8271 -0.9654 -0.0155
 8568SOL     OW26643   5.843   3.274   4.554  0.2354 -0.4398  0.1500
 8568SOL    HW126644   5.919   3.218   4.538 -0.4463 -1.4291  0.3077
 8568SOL    HW226645   5.876   3.343   4.612  1.9556  1.3727 -2.7330
 8569SOL     OW26646   7.373   3.750   6.596 -0.2238  0.0640 -0.2993
 8569SOL    HW126647   7.366   3.661   6.562 -1.0374 -0.5126  1.2795
 8569SOL    HW226648   7.359   3.806   6.519 -0.6500 -1.1643 -1.1486
 8570SOL     OW26649   0.754   0.058   3.988 -0.2433 -0.3605 -0.1841
 8570SOL    HW126650   0.768  -0.022   3.938  3.4665  1.5609 -2.6080
 8570SOL    HW226651   0.679   0.100   3.946  0.1001 -0.8369 -1.3053
 8571SOL     OW26652   3.758   2.573   6.789  0.2398 -0.1212  0.2435
 8571SOL    HW126653   3.805   2.613   6.716  0.3253  0.9720  0.8806
 8571SOL    HW226654   3.711   2.500   6.749  0.5625  0.2378 -0.8432
 8572SOL     OW26655   2.075   1.421   4.057 -0.6273 -0.7712  0.2899
 8572SOL    HW126656   2.122   1.415   4.140  0.0143  0.0328 -0.0065
 8572SOL    HW226657   1.988   1.387   4.077 -0.7302  0.1335  1.4928
 8573SOL     OW26658   7.028   1.276   6.976 -0.2918 -0.4018  0.8999
 8573SOL    HW126659   7.116   1.238   6.984 -0.2329 -0.0646  1.9205
 8573SOL    HW226660   7.007   1.266   6.883  0.9875 -0.1345  0.5562
 8574SOL     OW26661   2.457   6.112   4.408 -0.6397  0.1669 -0.2739
 8574SOL    HW126662   2.453   6.134   4.315  4.4166  2.0369 -0.3642
 8574SOL    HW226663   2.520   6.040   4.413 -2.2712 -1.2433  1.6601
 8575SOL     OW26664   2.872   5.411   2.386 -0.3554 -0.0040  0.2902
 8575SOL    HW126665   2.810   5.479   2.412 -1.3083 -1.1861  1.2196
 8575SOL    HW226666   2.919   5.390   2.467  1.0136  0.5807 -0.3096
 8576SOL     OW26667   4.524   0.156   0.891 -0.5025  0.5978  0.5983
 8576SOL    HW126668   4.438   0.193   0.872 -0.2429  1.3814  0.8934
 8576SOL    HW226669   4.557   0.209   0.964  1.2193  1.8718 -1.0183
 8577SOL     OW26670   2.234   4.802   5.562 -0.1548  0.0567 -1.0129
 8577SOL    HW126671   2.215   4.838   5.648 -1.4591  1.4763 -1.8463
 8577SOL    HW226672   2.267   4.876   5.511  2.8543 -1.2181 -1.1561
 8578SOL     OW26673   6.956   0.748   5.485  0.3729 -0.0391 -0.0092
 8578SOL    HW126674   6.924   0.678   5.428 -1.5515  0.6387  0.1616
 8578SOL    HW226675   6.902   0.741   5.564 -0.0303  1.7546 -0.0841
 8579SOL     OW26676   2.889   1.808   4.147 -0.4141  0.5885 -0.0614
 8579SOL    HW126677   2.948   1.865   4.197 -0.8700 -0.5018  1.8260
 8579SOL    HW226678   2.931   1.721   4.150  0.1775  0.6776 -2.7266
 8580SOL     OW26679   0.821   6.416   3.151 -0.3447 -0.3810  0.6818
 8580SOL    HW126680   0.843   6.323   3.138  0.6659  0.0116 -0.6793
 8580SOL    HW226681   0.794   6.446   3.064 -1.6130  0.3787  1.3188
 8581SOL     OW26682   2.137   0.824   5.384 -0.0347 -0.1943  0.2253
 8581SOL    HW126683   2.120   0.881   5.458  0.8103  1.6064 -0.9027
 8581SOL    HW226684   2.102   0.872   5.308  2.1505 -0.3745 -0.9657
 8582SOL     OW26685   6.448   5.734   7.208 -0.3816 -0.1243  0.0310
 8582SOL    HW126686   6.397   5.695   7.137 -1.8010  2.5009 -0.5000
 8582SOL    HW226687   6.386   5.792   7.253  1.2289  0.4074  1.6628
 8583SOL     OW26688   1.162   2.646   1.049  0.0985 -0.9444 -0.5285
 8583SOL    HW126689   1.085   2.700   1.071  1.2021  0.0156  1.1981
 8583SOL    HW226690   1.202   2.626   1.134  2.5769 -0.1685 -1.4393
 8584SOL     OW26691   0.935   1.954   6.839 -0.6983  0.0884  0.2733
 8584SOL    HW126692   0.976   2.018   6.781  0.4965 -1.0074 -0.1609
 8584SOL    HW226693   1.009   1.914   6.885 -1.2385 -1.9385 -0.5015
 8585SOL     OW26694   4.945   0.296   6.406 -0.4390  0.2870 -0.0334
 8585SOL    HW126695   4.923   0.212   6.364  0.7513  0.6919 -1.6010
 8585SOL    HW226696   5.038   0.308   6.386  0.2632  0.4984  2.8988
 8586SOL     OW26697   1.263   4.614   3.295  0.0739 -0.1514  0.3724
 8586SOL    HW126698   1.202   4.557   3.249 -1.0457  1.4248 -0.1718
 8586SOL    HW226699   1.337   4.624   3.234 -0.1510 -0.2565  0.0819
 8587SOL     OW26700   1.535   3.915   3.414  0.8781 -0.2143 -0.2346
 8587SOL    HW126701   1.620   3.958   3.417  1.0375 -0.5115 -0.4979
 8587SOL    HW226702   1.554   3.823   3.429  0.7895 -0.5328 -1.9670
 8588SOL     OW26703   3.716   3.138   6.715 -0.6882  0.3403 -0.3470
 8588SOL    HW126704   3.768   3.204   6.668 -0.9702 -0.0675 -1.2598
 8588SOL    HW226705   3.651   3.109   6.651 -0.5261 -0.8751  0.0135
 8589SOL     OW26706   2.532   5.388   6.837  0.0970  0.5139 -0.1303
 8589SOL    HW126707   2.510   5.338   6.758  0.3472  0.1635  0.0197
 8589SOL    HW226708   2.574   5.324   6.895 -0.1323  0.7547  0.3077
 8590SOL     OW26709   0.451   0.838   5.487 -0.0358 -0.4735  0.1223
 8590SOL    HW126710   0.371   0.888   5.499 -0.4453 -1.3643  1.2136
 8590SOL    HW226711   0.452   0.817   5.393 -1.1685 -0.6175  0.1295
 8591SOL     OW26712   5.697   3.687   3.788  0.8196  0.1681 -0.1539
 8591SOL    HW126713   5.729   3.772   3.819 -0.7416  0.0397  2.0879
 8591SOL    HW226714   5.748   3.623   3.837  0.2540 -0.1248  0.0541
 8592SOL     OW26715   3.201   1.586   7.383  0.1627  0.3119  0.2796
 8592SOL    HW126716   3.134   1.519   7.398 -0.5496  1.2539  1.5220
 8592SOL    HW226717   3.156   1.655   7.334  0.2931  0.8122  0.8517
 8593SOL     OW26718   2.215   2.855   5.684 -0.3141  0.2942  0.6489
 8593SOL    HW126719   2.284   2.795   5.711 -0.7481 -0.4918  0.0626
 8593SOL    HW226720   2.230   2.867   5.590  1.1870  2.9869  1.1156
 8594SOL     OW26721   7.374   2.009   4.711 -0.2330 -0.6665 -0.7647
 8594SOL    HW126722   7.453   2.043   4.753 -1.6288 -0.5038  1.9861
 8594SOL    HW226723   7.354   1.929   4.760 -1.5396 -0.9247 -1.6682
 8595SOL     OW26724   1.116   7.155   7.223 -0.3838  0.4347  0.1457
 8595SOL    HW126725   1.073   7.178   7.305 -1.5488  1.0951 -0.6203
 8595SOL    HW226726   1.102   7.060   7.214  0.9817  0.0868  1.3734
 8596SOL     OW26727   2.529   6.601   3.366 -0.2334  0.3128 -0.0424
 8596SOL    HW126728   2.480   6.584   3.446 -0.3358 -1.2816 -0.4266
 8596SOL    HW226729   2.615   6.561   3.382 -0.3342 -0.2216 -0.8048
 8597SOL     OW26730   6.929   2.601   1.856 -0.1471  0.3169 -0.2645
 8597SOL    HW126731   6.882   2.543   1.797 -1.2069  1.2503 -0.3602
 8597SOL    HW226732   6.877   2.681   1.858  1.7964  1.6534 -0.8975
 8598SOL     OW26733   3.730   6.746   7.228  0.2005 -0.5762  0.0307
 8598SOL    HW126734   3.649   6.700   7.203 -0.3107  0.5621 -0.5110
 8598SOL    HW226735   3.768   6.773   7.144  0.8093 -0.5470  0.3156
 8599SOL     OW26736   3.928   4.609   1.947  0.0613 -0.1848 -0.2840
 8599SOL    HW126737   3.961   4.532   1.992 -0.6460 -0.4401 -0.1898
 8599SOL    HW226738   3.893   4.664   2.017  1.3307  0.6257 -0.2549
 8600SOL     OW26739   1.087   3.386   2.438  0.3172 -0.6220 -0.0554
 8600SOL    HW126740   1.074   3.398   2.344  0.5266  0.5363  0.0401
 8600SOL    HW226741   1.003   3.352   2.469 -0.5156  1.0241 -0.3651
 8601SOL     OW26742   5.712   0.411   6.555  0.1540 -0.2902  0.4763
 8601SOL    HW126743   5.772   0.352   6.599  1.3282 -0.1672 -0.8697
 8601SOL    HW226744   5.638   0.356   6.528  0.4820 -0.8046  0.6381
 8602SOL     OW26745   6.613   6.807   4.689 -0.1648 -0.0913  0.5022
 8602SOL    HW126746   6.694   6.825   4.736  0.7524 -0.3577 -0.9163
 8602SOL    HW226747   6.631   6.834   4.599 -1.4391 -0.7522  0.0239
 8603SOL     OW26748   2.466   4.835   3.398 -0.0030  0.8985 -0.2138
 8603SOL    HW126749   2.555   4.805   3.380 -0.5371 -0.8531 -0.1399
 8603SOL    HW226750   2.470   4.930   3.384  1.8361  0.8592 -0.3081
 8604SOL     OW26751   5.609   6.144   7.096 -0.7244 -0.3756 -0.1263
 8604SOL    HW126752   5.541   6.116   7.034  0.3301 -0.1582 -1.4264
 8604SOL    HW226753   5.632   6.064   7.144 -0.2803 -0.9665 -1.2967
 8605SOL     OW26754   6.518   0.995   1.836 -0.2848 -0.0145  0.0116
 8605SOL    HW126755   6.448   1.050   1.800  0.4653  2.4943  2.0702
 8605SOL    HW226756   6.599   1.040   1.811  0.4478 -1.1293  0.3256
 8606SOL     OW26757   6.849   2.188   5.575 -0.5972  0.2429  0.7336
 8606SOL    HW126758   6.834   2.250   5.504  0.3380  0.2829  0.5497
 8606SOL    HW226759   6.768   2.138   5.582 -1.5083  1.7264  1.1329
 8607SOL     OW26760   2.644   7.170   3.408 -0.1309  0.1294  0.1219
 8607SOL    HW126761   2.617   7.141   3.495  0.0531 -0.3827  0.0077
 8607SOL    HW226762   2.562   7.176   3.358 -0.6240  3.0326  1.0549
 8608SOL     OW26763   5.018   2.399   5.562  0.2336  0.1994 -0.3988
 8608SOL    HW126764   4.989   2.490   5.559  1.4223  0.5958 -0.6071
 8608SOL    HW226765   5.008   2.374   5.654  1.0607  0.9536 -0.0888
 8609SOL     OW26766   1.788   1.185   0.198  0.0451  0.7807 -0.5708
 8609SOL    HW126767   1.720   1.169   0.132  1.4171 -1.4407 -1.5712
 8609SOL    HW226768   1.834   1.263   0.167  1.0020 -0.5103 -2.6585
 8610SOL     OW26769   1.577   0.157   6.608 -0.2231 -0.1359  0.3122
 8610SOL    HW126770   1.659   0.173   6.654 -0.1814  3.8080 -0.7847
 8610SOL    HW226771   1.511   0.207   6.657 -1.2393 -0.3274 -0.7949
 8611SOL     OW26772   1.847   1.686   3.312 -0.0019 -0.1147  0.1697
 8611SOL    HW126773   1.843   1.610   3.370  1.2099  0.4474  1.0264
 8611SOL    HW226774   1.938   1.713   3.314  0.1007 -0.1367 -2.1332
 8612SOL     OW26775   5.004   6.062   3.715 -0.1086  0.1338  0.8904
 8612SOL    HW126776   5.036   6.124   3.649  0.1462 -1.0282 -0.1075
 8612SOL    HW226777   4.911   6.084   3.724  0.0943  1.0192  0.9724
 8613SOL     OW26778   7.403   3.730   0.249 -0.1317 -0.4417 -0.6025
 8613SOL    HW126779   7.309   3.709   0.247 -0.3721  0.4108  0.4097
 8613SOL    HW226780   7.428   3.736   0.157 -0.9572 -1.1731 -0.8897
 8614SOL     OW26781   3.316   5.242   2.419 -0.1688 -0.4923  0.2459
 8614SOL    HW126782   3.303   5.333   2.390  0.1952 -0.4664  0.1634
 8614SOL    HW226783   3.346   5.196   2.341 -2.0089 -1.0783 -0.1663
 8615SOL     OW26784   6.836   6.706   6.147 -0.8212 -0.1099  0.0806
 8615SOL    HW126785   6.743   6.696   6.124 -1.1244 -1.1441  1.6442
 8615SOL    HW226786   6.879   6.631   6.105 -0.9338 -0.4414  0.5493
 8616SOL     OW26787   3.626   6.370   6.226 -0.1561  0.6309  0.4696
 8616SOL    HW126788   3.557   6.369   6.159 -1.3677  0.7085  1.6744
 8616SOL    HW226789   3.589   6.422   6.298  0.5675 -0.5505  1.7398
 8617SOL     OW26790   3.188   7.072   2.082  0.4292 -0.2487  0.0433
 8617SOL    HW126791   3.210   6.979   2.084 -1.5411 -0.8276 -2.0819
 8617SOL    HW226792   3.093   7.075   2.075  0.4813  1.9056 -0.5465
 8618SOL     OW26793   5.719   1.759   2.342  0.2332 -0.1115  0.0816
 8618SOL    HW126794   5.735   1.825   2.275 -0.2202 -0.8400 -0.7675
 8618SOL    HW226795   5.680   1.685   2.294 -0.1654 -0.6185  1.1556
 8619SOL     OW26796   7.310   4.538   1.657  0.0530  0.4182 -0.2113
 8619SOL    HW126797   7.283   4.540   1.749  0.7026 -0.2860  0.0100
 8619SOL    HW226798   7.248   4.596   1.613  0.2792  1.4747  0.8063
 8620SOL     OW26799   1.986   1.200   5.403  0.3906  0.9241  0.2600
 8620SOL    HW126800   1.983   1.296   5.409  1.7637  1.0694 -0.8445
 8620SOL    HW226801   2.026   1.173   5.485  2.7595  1.5624 -0.5978
 8621SOL     OW26802   2.963   4.372   3.954  0.0746  0.3967 -0.4347
 8621SOL    HW126803   2.895   4.358   3.889  0.4963  0.8670 -0.9874
 8621SOL    HW226804   2.996   4.285   3.974  0.7324  0.3261 -1.7167
 8622SOL     OW26805   6.683   6.002   7.305  0.1062 -0.0414 -0.5938
 8622SOL    HW126806   6.728   6.086   7.302  0.1192 -0.0568 -0.8637
 8622SOL    HW226807   6.597   6.019   7.267 -0.0964 -0.0255 -0.1328
 8623SOL     OW26808   5.014   5.950   5.331 -0.4460  0.0719 -0.3308
 8623SOL    HW126809   4.997   5.878   5.392  0.1135 -0.4009 -0.7250
 8623SOL    HW226810   5.018   6.028   5.387 -0.3955 -0.2907  0.1828
 8624SOL     OW26811   7.121   5.300   6.289 -0.0388  0.5500  0.1718
 8624SOL    HW126812   7.087   5.326   6.203 -2.1670  0.6699  0.9904
 8624SOL    HW226813   7.215   5.290   6.275 -0.3220  0.4679 -2.1945
 8625SOL     OW26814   2.227   7.186   1.801  0.2009 -0.0501  0.5849
 8625SOL    HW126815   2.275   7.239   1.865 -0.0194 -1.1900  1.7532
 8625SOL    HW226816   2.238   7.232   1.718 -1.5903  2.8879  1.8031
 8626SOL     OW26817   1.200   4.661   5.262  0.6742  0.5248 -0.3237
 8626SOL    HW126818   1.167   4.575   5.238 -1.4699  1.2561 -0.1448
 8626SOL    HW226819   1.181   4.669   5.356  0.6123  1.3021 -0.3944
 8627SOL     OW26820   7.404   1.262   4.529 -0.0278  0.3934  0.3672
 8627SOL    HW126821   7.460   1.305   4.463 -0.8428  0.9484  0.0172
 8627SOL    HW226822   7.351   1.200   4.478 -0.6322  0.7961  0.4979
 8628SOL     OW26823   6.532   1.797   3.478 -0.1917 -1.1683  0.2913
 8628SOL    HW126824   6.462   1.790   3.543  0.3276 -2.1604  0.7838
 8628SOL    HW226825   6.487   1.795   3.394 -0.7290 -2.5664  0.5842
 8629SOL     OW26826   0.682   1.394   5.451 -0.5049  0.4407 -0.2084
 8629SOL    HW126827   0.757   1.371   5.505 -1.4339 -0.0921  0.8929
 8629SOL    HW226828   0.719   1.447   5.380  1.1824 -1.4102 -0.8078
 8630SOL     OW26829   5.452   2.138   6.403  0.2397  0.3135  0.5909
 8630SOL    HW126830   5.365   2.164   6.431  0.0061  1.0201 -0.6944
 8630SOL    HW226831   5.499   2.117   6.484 -1.7737 -2.3631  1.1788
 8631SOL     OW26832   6.853   2.812   5.730 -0.0128 -0.2584 -0.3898
 8631SOL    HW126833   6.946   2.818   5.755  0.2277 -3.7154 -0.0438
 8631SOL    HW226834   6.809   2.875   5.788  1.8599 -0.0817  0.9535
 8632SOL     OW26835   6.681   2.552   6.785 -0.1436  0.0882 -0.0982
 8632SOL    HW126836   6.691   2.484   6.852 -0.8056  1.1196  1.1166
 8632SOL    HW226837   6.767   2.595   6.781 -0.0580 -0.0756 -0.0079
 8633SOL     OW26838   5.949   1.515   6.829  0.2573  0.1849  0.2364
 8633SOL    HW126839   5.964   1.461   6.907  1.3354 -0.6078 -0.4831
 8633SOL    HW226840   5.855   1.507   6.813  0.2928 -1.0472  0.4846
 8634SOL     OW26841   0.005   3.742   7.355 -0.5122  0.0261  0.0283
 8634SOL    HW126842  -0.078   3.779   7.383 -0.2781  0.7421 -0.2129
 8634SOL    HW226843  -0.011   3.711   7.266 -0.3454  0.7692 -0.2667
 8635SOL     OW26844   0.599   6.035   5.935 -0.1463 -0.9153  0.1839
 8635SOL    HW126845   0.598   6.022   5.840  1.0254 -1.3885  0.2286
 8635SOL    HW226846   0.510   6.012   5.962  0.1279 -3.0592 -0.5179
 8636SOL     OW26847   4.911   1.411   0.782 -0.8227 -0.2941  0.5124
 8636SOL    HW126848   4.889   1.475   0.714 -0.6075 -0.6282  0.1223
 8636SOL    HW226849   4.834   1.354   0.787 -1.1899  0.2407  1.1613
 8637SOL     OW26850   6.171   5.837   0.649 -0.1647 -0.0257  0.3423
 8637SOL    HW126851   6.132   5.909   0.700  0.4968  0.5457  0.0456
 8637SOL    HW226852   6.249   5.812   0.698 -1.0944 -1.4551  1.1581
 8638SOL     OW26853   4.705   0.637   6.899  0.0253 -0.1316  0.1289
 8638SOL    HW126854   4.675   0.547   6.883  0.0091 -0.1572  0.2970
 8638SOL    HW226855   4.796   0.637   6.870  0.7155 -0.7989  2.0988
 8639SOL     OW26856   6.747   0.408   4.238 -0.2860 -0.3888 -0.6717
 8639SOL    HW126857   6.667   0.448   4.272  0.7852  1.9118 -0.7067
 8639SOL    HW226858   6.735   0.408   4.143 -1.3201 -2.5585 -0.6054
 8640SOL     OW26859   1.403   2.384   2.651  0.6798  0.4472  0.1769
 8640SOL    HW126860   1.415   2.468   2.695  0.3109 -0.3905  2.0099
 8640SOL    HW226861   1.363   2.328   2.718  1.3238 -1.3139 -0.8383
 8641SOL     OW26862   7.224   5.236   3.359 -0.4417  0.2178  0.2626
 8641SOL    HW126863   7.164   5.161   3.362 -0.0418 -0.0756  1.1122
 8641SOL    HW226864   7.195   5.287   3.283 -1.6735  0.0009  0.5656
 8642SOL     OW26865   4.622   2.710   5.033  0.4125  0.1603 -0.0636
 8642SOL    HW126866   4.533   2.744   5.025  0.2612 -0.5621 -2.2166
 8642SOL    HW226867   4.612   2.615   5.031  1.1481  0.0252  1.2726
 8643SOL     OW26868   5.477   2.643   0.881 -0.1023 -0.4737 -0.4738
 8643SOL    HW126869   5.455   2.630   0.789  0.4878 -0.0914 -0.6722
 8643SOL    HW226870   5.435   2.570   0.926 -0.3097 -0.7200 -1.0586
 8644SOL     OW26871   0.864   3.728   3.843 -0.2709  0.1860 -0.1142
 8644SOL    HW126872   0.824   3.738   3.757  1.6963  0.6449 -1.0340
 8644SOL    HW226873   0.914   3.646   3.838 -0.1148  0.2248  0.5773
 8645SOL     OW26874   5.917   5.812   3.008 -0.6259  0.7750  0.6869
 8645SOL    HW126875   5.992   5.752   3.008  1.5761  3.3610  0.4590
 8645SOL    HW226876   5.874   5.796   2.924 -0.1327 -0.4434  0.6371
 8646SOL     OW26877   3.163   0.403   3.035 -0.0453 -0.2657 -0.0068
 8646SOL    HW126878   3.221   0.334   3.067 -1.1695 -0.9700  0.5763
 8646SOL    HW226879   3.078   0.383   3.074 -1.0405 -0.0854 -1.9706
 8647SOL     OW26880   5.435   4.187   6.819  0.1484  0.3421 -0.1290
 8647SOL    HW126881   5.342   4.180   6.799  0.0014 -0.2380  0.7057
 8647SOL    HW226882   5.469   4.098   6.810  0.6719  0.5924 -0.6625
 8648SOL     OW26883   5.512   1.220   5.291  0.2955  0.4906  0.1286
 8648SOL    HW126884   5.608   1.227   5.291  0.3352  0.0536 -0.4924
 8648SOL    HW226885   5.495   1.127   5.305 -0.0435  0.6102  0.5037
 8649SOL     OW26886   0.413   4.381   5.402  0.5789 -0.0635 -0.2372
 8649SOL    HW126887   0.333   4.375   5.454  0.6186  0.3234 -0.1340
 8649SOL    HW226888   0.452   4.465   5.426  0.9074 -0.1526 -0.4459
 8650SOL     OW26889   0.417   4.656   3.506  0.1293  0.2312  0.3096
 8650SOL    HW126890   0.422   4.707   3.425  0.1886 -0.0174  0.1554
 8650SOL    HW226891   0.439   4.719   3.575  1.4007  0.1449  0.0207
 8651SOL     OW26892   5.755   1.077   3.929 -0.5034 -0.4492  0.3766
 8651SOL    HW126893   5.704   1.152   3.899 -2.4104 -1.6749  0.3719
 8651SOL    HW226894   5.756   1.086   4.025 -2.0467 -1.1458  0.5000
 8652SOL     OW26895   3.334   7.372   5.028 -0.1052 -0.5236 -0.1307
 8652SOL    HW126896   3.338   7.314   4.952 -1.4966  0.9910 -1.4450
 8652SOL    HW226897   3.249   7.417   5.020  1.0511  1.9845  0.5318
 8653SOL     OW26898   5.030   5.405   4.759 -0.2652  0.1102  0.4896
 8653SOL    HW126899   4.962   5.368   4.816 -0.5299 -0.7975 -0.3796
 8653SOL    HW226900   4.982   5.444   4.686  0.1232 -0.4508 -0.0842
 8654SOL     OW26901   0.449   2.322   4.293 -0.1831 -0.5246 -0.4121
 8654SOL    HW126902   0.379   2.359   4.240  0.4146  0.2511 -0.6800
 8654SOL    HW226903   0.431   2.228   4.294 -0.4758 -0.4976 -1.5959
 8655SOL     OW26904   7.298   1.399   5.889  0.4665 -0.3232 -0.0993
 8655SOL    HW126905   7.373   1.426   5.835  0.0875  1.9784  0.4401
 8655SOL    HW226906   7.236   1.471   5.882 -1.5003 -1.9435 -0.0757
 8656SOL     OW26907   4.440   3.209   3.365  0.7109 -0.3547  0.1473
 8656SOL    HW126908   4.462   3.284   3.310  0.0148  0.5014  1.0050
 8656SOL    HW226909   4.385   3.153   3.309  0.6911  0.0989 -0.2927
 8657SOL     OW26910   1.850   6.011   5.798 -0.0575 -0.1469  0.2400
 8657SOL    HW126911   1.762   6.040   5.774 -0.6462 -2.2217 -0.3025
 8657SOL    HW226912   1.903   6.023   5.719 -0.6426 -1.7538 -0.4388
 8658SOL     OW26913   5.228   1.915   0.652  0.2841 -0.5621 -0.0028
 8658SOL    HW126914   5.138   1.931   0.682  0.0900  0.4482 -1.0440
 8658SOL    HW226915   5.244   1.984   0.588  1.7768 -0.7988  0.0888
 8659SOL     OW26916   3.106   3.966   0.789  0.3140 -0.0405  0.6404
 8659SOL    HW126917   3.171   4.035   0.799 -0.2928  0.6831 -0.1917
 8659SOL    HW226918   3.031   4.010   0.749 -0.1471 -1.1443  0.2463
 8660SOL     OW26919   4.214   4.505   6.369 -0.0647  0.2824 -0.2107
 8660SOL    HW126920   4.295   4.505   6.319  0.3384  1.6252  0.4061
 8660SOL    HW226921   4.241   4.522   6.459 -0.8518 -1.2421  0.3652
 8661SOL     OW26922   6.614   0.429   2.227 -0.0481  0.4161  0.3746
 8661SOL    HW126923   6.554   0.387   2.289  0.4504  1.0389  1.3110
 8661SOL    HW226924   6.664   0.490   2.281  0.5072  0.8665 -0.6319
 8662SOL     OW26925   3.772   6.601   1.884 -0.0863 -0.1652 -0.3088
 8662SOL    HW126926   3.694   6.600   1.940  0.6476 -0.4805  0.7424
 8662SOL    HW226927   3.815   6.517   1.902 -0.0211 -0.4467 -1.6493
 8663SOL     OW26928   4.301   6.962   4.706 -0.3225  0.0705 -0.2754
 8663SOL    HW126929   4.317   6.999   4.793 -0.7136  1.4240 -0.7484
 8663SOL    HW226930   4.240   6.890   4.722  1.7062 -1.5001  0.8676
 8664SOL     OW26931   6.941   4.381   4.884 -0.1671  0.0914  0.4813
 8664SOL    HW126932   6.930   4.287   4.892 -0.3071  0.0311 -0.2841
 8664SOL    HW226933   6.979   4.393   4.797  1.0032  0.6589  1.0593
 8665SOL     OW26934   7.398   3.506   2.090 -0.5182 -0.5738 -0.0169
 8665SOL    HW126935   7.487   3.539   2.077 -0.8465  1.3946  2.1615
 8665SOL    HW226936   7.348   3.543   2.018 -0.1205  0.7332  0.3536
 8666SOL     OW26937   5.316   0.018   3.188 -0.2092 -0.5588 -0.1844
 8666SOL    HW126938   5.339   0.075   3.114 -0.3449 -0.0246  0.1762
 8666SOL    HW226939   5.226   0.042   3.209 -0.1052 -0.5607  0.2792
 8667SOL     OW26940   2.183   3.057   4.785 -0.0625  0.6023  0.2578
 8667SOL    HW126941   2.209   3.024   4.871  1.4035  2.4442  0.6048
 8667SOL    HW226942   2.137   3.139   4.803  2.0222  2.0845 -0.6907
 8668SOL     OW26943   0.768   1.361   0.335  0.2412 -0.2297  0.2223
 8668SOL    HW126944   0.703   1.430   0.331 -0.6476 -1.0979 -1.3256
 8668SOL    HW226945   0.818   1.369   0.253 -0.0359 -1.5418 -0.0976
 8669SOL     OW26946   5.827   7.113   0.047  0.0928  0.3561 -0.0499
 8669SOL    HW126947   5.901   7.164   0.013  1.7975 -0.2788  2.4452
 8669SOL    HW226948   5.799   7.160   0.125  0.3137 -1.3395  1.1089
 8670SOL     OW26949   6.854   3.306   5.570  0.5449  0.3449 -0.2354
 8670SOL    HW126950   6.820   3.314   5.659 -2.3684 -0.1843 -1.1946
 8670SOL    HW226951   6.921   3.238   5.576  0.9525  0.8484  1.6519
 8671SOL     OW26952   6.252   6.013   5.285  0.3837  0.5946  0.2833
 8671SOL    HW126953   6.177   5.954   5.293 -0.0126  0.9454 -0.6517
 8671SOL    HW226954   6.323   5.957   5.253  0.4325  0.3386  0.8154
 8672SOL     OW26955   5.740   3.785   5.600  0.2159  0.6612 -0.2430
 8672SOL    HW126956   5.789   3.854   5.645 -0.8569  1.1888  0.1507
 8672SOL    HW226957   5.733   3.715   5.665  1.2907  0.1788 -0.6371
 8673SOL     OW26958   5.366   4.568   7.060  0.0309 -0.8644  0.3450
 8673SOL    HW126959   5.329   4.639   7.008  1.5904 -1.0777 -1.1454
 8673SOL    HW226960   5.405   4.611   7.135 -0.4370 -0.3227  0.2817
 8674SOL     OW26961   0.457   5.088   6.083 -0.3582  0.4843  0.1806
 8674SOL    HW126962   0.526   5.056   6.141 -0.0947  2.8453  1.2408
 8674SOL    HW226963   0.485   5.058   5.996  0.6498 -0.7707  0.8873
 8675SOL     OW26964   5.731   4.499   0.835 -0.2674  0.5157 -0.0707
 8675SOL    HW126965   5.671   4.430   0.865 -0.3719  0.9151  0.6744
 8675SOL    HW226966   5.675   4.559   0.787 -0.6071  1.2074  1.1441
 8676SOL     OW26967   5.936   2.380   2.559  0.1537 -0.7951  0.2694
 8676SOL    HW126968   5.992   2.385   2.481  0.8696 -3.6961  0.4560
 8676SOL    HW226969   5.915   2.286   2.566 -2.4238 -0.1868  1.8537
 8677SOL     OW26970   2.942   6.023   1.124  0.1301  0.1359  0.0170
 8677SOL    HW126971   3.022   5.970   1.124 -0.8786 -1.4594  0.9355
 8677SOL    HW226972   2.901   6.004   1.040 -0.4874 -1.0133  0.5502
 8678SOL     OW26973   4.022   5.036   3.431  0.0865 -0.4204 -0.6782
 8678SOL    HW126974   3.962   4.962   3.428  0.6332 -0.9380  0.4487
 8678SOL    HW226975   4.092   5.013   3.370 -0.7933  0.1501 -1.9346
 8679SOL     OW26976   4.750   0.900   5.106  0.2328 -0.1645 -0.1130
 8679SOL    HW126977   4.822   0.941   5.153  0.0653  2.1675 -1.7380
 8679SOL    HW226978   4.672   0.943   5.138 -0.1301 -0.4025 -0.6528
 8680SOL     OW26979   5.055   6.100   2.264  0.0601  0.5530  0.0487
 8680SOL    HW126980   5.007   6.019   2.274  0.9862 -0.1588 -0.9868
 8680SOL    HW226981   5.107   6.088   2.184  1.7920  1.3304  0.9777
 8681SOL     OW26982   2.862   2.033   5.671 -0.0053  0.7509 -0.1583
 8681SOL    HW126983   2.851   2.103   5.607  0.0363  0.4362 -0.5161
 8681SOL    HW226984   2.921   2.069   5.737 -1.6205  1.7935  0.7797
 8682SOL     OW26985   0.485   3.156   0.639  0.2241  0.0252  0.1710
 8682SOL    HW126986   0.524   3.222   0.581  1.0102 -0.4711  0.1208
 8682SOL    HW226987   0.431   3.206   0.700 -0.4406  0.5726 -0.8573
 8683SOL     OW26988   3.099   6.988   5.256 -0.3829  0.6838 -0.2640
 8683SOL    HW126989   3.044   7.037   5.195 -0.9236 -0.8612 -1.0952
 8683SOL    HW226990   3.169   6.952   5.201  0.3681  1.0481  0.4432
 8684SOL     OW26991   2.881   1.913   7.095  0.1699 -0.2415  0.3624
 8684SOL    HW126992   2.846   1.996   7.126  0.0218 -0.4882  0.8699
 8684SOL    HW226993   2.959   1.937   7.045  0.4225  0.1694  0.9432
 8685SOL     OW26994   4.099   5.840   5.654  0.6349 -0.6528 -0.4073
 8685SOL    HW126995   4.073   5.803   5.569 -2.2075 -0.8908  0.4505
 8685SOL    HW226996   4.020   5.832   5.708  1.7970  1.1792  1.7059
 8686SOL     OW26997   2.930   6.051   3.962  0.0781  0.6582 -0.2836
 8686SOL    HW126998   2.842   6.014   3.958 -0.1583  1.1635  0.2600
 8686SOL    HW226999   2.934   6.097   4.046  0.6097  1.2624 -0.6311
 8687SOL     OW27000   3.217   0.976   1.632 -0.4735  0.6376 -0.1501
 8687SOL    HW127001   3.223   0.989   1.537 -0.2042  0.2696 -0.1835
 8687SOL    HW227002   3.243   0.885   1.646 -0.8307  0.5930  0.2463
 8688SOL     OW27003   5.722   1.715   4.925 -0.0527 -0.0578 -0.5852
 8688SOL    HW127004   5.710   1.803   4.960 -0.9301 -0.1304 -0.6627
 8688SOL    HW227005   5.704   1.657   4.999  1.6761 -0.1761 -0.2223
 8689SOL     OW27006   3.096   3.138   4.700  0.0891  0.2034 -0.0773
 8689SOL    HW127007   3.030   3.077   4.733  0.2587  0.2565  0.3718
 8689SOL    HW227008   3.179   3.090   4.705 -0.0297 -0.2124 -1.5624
 8690SOL     OW27009   1.996   1.237   0.526 -0.1011 -0.4874  0.3286
 8690SOL    HW127010   2.037   1.319   0.554  0.8573 -1.1392  0.8952
 8690SOL    HW227011   2.021   1.228   0.434 -0.0770 -0.2188  0.3089
 8691SOL     OW27012   4.399   3.625   4.865 -0.0576 -0.4297 -0.1000
 8691SOL    HW127013   4.481   3.659   4.900  0.5082 -1.7050 -0.1512
 8691SOL    HW227014   4.419   3.598   4.776 -0.7927  0.1728 -0.4649
 8692SOL     OW27015   2.240   6.885   3.355  0.3962  0.1368  0.6945
 8692SOL    HW127016   2.297   6.864   3.429 -1.2497 -0.6611  1.7781
 8692SOL    HW227017   2.169   6.820   3.360 -0.1198  0.5049 -1.1772
 8693SOL     OW27018   6.952   3.507   0.857  1.2042 -0.1966  0.5272
 8693SOL    HW127019   6.887   3.436   0.850  0.8573  0.0051  1.5707
 8693SOL    HW227020   7.002   3.501   0.775 -0.6762  0.1818 -0.7205
 8694SOL     OW27021   7.384   1.066   6.647  0.1775  0.3178  0.0443
 8694SOL    HW127022   7.448   1.135   6.629 -1.4177  2.4970  2.0562
 8694SOL    HW227023   7.436   0.995   6.685  1.4930  1.8688  1.2922
 8695SOL     OW27024   2.093   5.615   6.201 -0.0986  0.0279  0.1107
 8695SOL    HW127025   2.003   5.640   6.222 -0.1284 -0.6709  0.8565
 8695SOL    HW227026   2.134   5.600   6.286  0.6691  0.1331 -0.2317
 8696SOL     OW27027   3.008   5.697   1.852  0.0711  0.3498  0.6874
 8696SOL    HW127028   2.991   5.778   1.900 -2.0850 -0.7619  1.9523
 8696SOL    HW227029   2.921   5.664   1.830  0.8883  0.3177 -3.3418
 8697SOL     OW27030   3.734   7.337   6.243  0.0518  0.6109  0.0599
 8697SOL    HW127031   3.768   7.415   6.198  0.4645 -0.9362 -2.4692
 8697SOL    HW227032   3.807   7.275   6.242 -1.2061 -0.9225 -0.7971
 8698SOL     OW27033   0.176   4.458   4.849  0.2707  0.1137 -0.3451
 8698SOL    HW127034   0.222   4.407   4.782  0.3538  0.3841 -0.4936
 8698SOL    HW227035   0.181   4.404   4.928  0.7081  0.0721 -0.3984
 8699SOL     OW27036   2.626   5.969   1.683 -0.4660  0.1690 -0.4191
 8699SOL    HW127037   2.680   5.943   1.608 -0.9269  0.5065 -0.8722
 8699SOL    HW227038   2.602   6.060   1.665  1.6751  1.1992  1.4651
 8700SOL     OW27039   3.496   3.155   2.697 -0.1804  0.5706  0.3573
 8700SOL    HW127040   3.482   3.062   2.682 -1.2880  0.6758  0.6364
 8700SOL    HW227041   3.590   3.163   2.716  0.1339 -0.3307 -0.7098
 8701SOL     OW27042   3.116   6.640   1.369 -0.0445  0.1592  0.4951
 8701SOL    HW127043   3.191   6.698   1.358 -0.2122  0.0327 -1.6850
 8701SOL    HW227044   3.153   6.559   1.404  0.7547  0.2759 -0.0694
 8702SOL     OW27045   4.697   7.031   4.154 -0.5312  0.1006 -0.0560
 8702SOL    HW127046   4.671   6.957   4.100 -0.3202  0.6072 -0.8738
 8702SOL    HW227047   4.651   7.106   4.117 -1.6344  0.2232  1.4487
 8703SOL     OW27048   3.874   3.438   0.140  0.0665 -0.0130  0.1835
 8703SOL    HW127049   3.909   3.399   0.219  3.5130  2.6024  0.1690
 8703SOL    HW227050   3.898   3.378   0.070  1.4454  0.0122  0.6175
 8704SOL     OW27051   6.249   4.979   0.947  0.2197 -0.7842  0.1898
 8704SOL    HW127052   6.202   5.041   0.892  1.4208 -1.7684 -2.0547
 8704SOL    HW227053   6.284   5.033   1.018 -3.3240  0.1491  1.4623
 8705SOL     OW27054   4.255   7.362   4.859  0.4751 -0.4448  0.4422
 8705SOL    HW127055   4.322   7.402   4.914 -0.2024 -0.4254  1.2572
 8705SOL    HW227056   4.296   7.357   4.772  1.5351 -0.4568  0.9326
 8706SOL     OW27057   2.669   6.287   4.008  0.6163 -0.2747  0.2091
 8706SOL    HW127058   2.614   6.222   4.052  0.2853 -0.2120 -0.1039
 8706SOL    HW227059   2.625   6.371   4.026 -0.6126 -0.4229 -1.8184
 8707SOL     OW27060   3.485   3.713   4.107 -0.4480  0.1619 -0.5365
 8707SOL    HW127061   3.548   3.645   4.133  0.4635 -0.4163 -3.7717
 8707SOL    HW227062   3.405   3.690   4.154  1.2308 -0.0298  2.4730
 8708SOL     OW27063   0.551   4.986   4.612 -0.0416  0.3439 -0.4175
 8708SOL    HW127064   0.558   4.894   4.587  1.0046  0.5585 -0.9426
 8708SOL    HW227065   0.555   4.985   4.707  0.8822 -0.0937 -0.4489
 8709SOL     OW27066   0.943   1.004   5.363  0.7752 -0.2164 -0.0254
 8709SOL    HW127067   0.904   1.082   5.324 -0.6749  1.5314  4.2715
 8709SOL    HW227068   0.965   0.948   5.289  0.3620  3.5192 -3.2917
 8710SOL     OW27069   2.786   5.475   2.993  0.2563 -0.1865 -0.1322
 8710SOL    HW127070   2.845   5.419   3.044 -0.1126  0.8839  1.5710
 8710SOL    HW227071   2.841   5.550   2.968 -0.0259  0.1823  0.3320
 8711SOL     OW27072   1.900   2.282   2.940  0.2361 -0.5657  0.0491
 8711SOL    HW127073   1.968   2.220   2.966  1.4453  0.2829 -1.0174
 8711SOL    HW227074   1.945   2.347   2.886 -1.5719 -0.5181 -1.5141
 8712SOL     OW27075   4.812   6.377   2.376 -0.1025 -0.0336 -0.6806
 8712SOL    HW127076   4.790   6.455   2.427  1.3570  0.1982 -0.3612
 8712SOL    HW227077   4.859   6.320   2.438 -0.2109 -0.6998 -1.1960
 8713SOL     OW27078   0.016   4.226   1.191 -0.2298  0.0400 -0.0149
 8713SOL    HW127079  -0.066   4.276   1.185 -1.3123 -1.4716  1.3384
 8713SOL    HW227080   0.074   4.282   1.243 -1.4390 -0.0691  1.5236
 8714SOL     OW27081   4.170   7.425   6.283 -0.2014 -0.1370 -0.3344
 8714SOL    HW127082   4.099   7.423   6.219 -0.5930 -1.0541  0.1096
 8714SOL    HW227083   4.162   7.510   6.326  0.2759  0.6296 -1.7214
 8715SOL     OW27084   5.307   1.245   4.658 -0.0366 -0.7342 -0.2986
 8715SOL    HW127085   5.289   1.160   4.617  3.5401 -2.1368  0.6863
 8715SOL    HW227086   5.298   1.308   4.587 -0.3128 -2.2408 -1.6789
 8716SOL     OW27087   5.331   4.666   6.105  0.4751 -0.7244  0.7297
 8716SOL    HW127088   5.355   4.753   6.137  0.6707 -0.8155  0.8320
 8716SOL    HW227089   5.327   4.676   6.010 -1.4327 -0.1133  0.8195
 8717SOL     OW27090   5.494   0.681   1.046  0.4936 -0.1488 -0.5654
 8717SOL    HW127091   5.583   0.671   1.081  0.0922  1.4669  1.0611
 8717SOL    HW227092   5.504   0.740   0.972  0.7888 -0.0207 -0.4254
 8718SOL     OW27093   4.312   3.911   5.280 -0.1838  0.3277  0.4124
 8718SOL    HW127094   4.232   3.885   5.235 -0.3369 -1.6336  1.6798
 8718SOL    HW227095   4.290   3.995   5.321 -0.4939  1.4220 -1.8768
 8719SOL     OW27096   5.780   7.194   7.134 -0.0078 -0.6610  0.1115
 8719SOL    HW127097   5.764   7.160   7.046  0.8765 -2.0626  0.4646
 8719SOL    HW227098   5.870   7.171   7.153 -0.1192 -0.1998  1.3214
 8720SOL     OW27099   2.721   6.371   4.943  0.5193  0.3725  0.2547
 8720SOL    HW127100   2.701   6.411   5.028 -0.8486  1.6976 -0.6488
 8720SOL    HW227101   2.721   6.444   4.882  1.3362 -0.5907 -0.9427
 8721SOL     OW27102   6.701   5.018   3.476 -0.6856 -0.1661  0.4463
 8721SOL    HW127103   6.708   4.987   3.567 -0.9827  0.4298  0.6795
 8721SOL    HW227104   6.756   5.096   3.473 -0.5411 -0.2845  0.0676
 8722SOL     OW27105   5.825   6.743   6.214 -0.4057  0.0188 -0.6995
 8722SOL    HW127106   5.856   6.666   6.262  1.8749  1.3242  0.1107
 8722SOL    HW227107   5.826   6.716   6.123 -0.2733 -1.1183 -0.3762
 8723SOL     OW27108   3.603   6.883   6.826  0.0749 -0.1515 -0.4930
 8723SOL    HW127109   3.566   6.910   6.910  2.9747 -1.0629  1.2352
 8723SOL    HW227110   3.543   6.919   6.760 -1.1269  2.5252  1.8524
 8724SOL     OW27111   3.347   1.765   5.768 -0.2959  0.6854  0.0161
 8724SOL    HW127112   3.414   1.824   5.733 -0.3314  0.9004  0.3080
 8724SOL    HW227113   3.380   1.738   5.853 -0.0139 -0.1734 -0.3528
 8725SOL     OW27114   1.679   3.718   0.003 -0.2057  0.0679 -0.5048
 8725SOL    HW127115   1.701   3.643   0.058 -2.9519  0.0760  0.7899
 8725SOL    HW227116   1.668   3.682  -0.085 -0.0876 -0.7990 -0.1712
 8726SOL     OW27117   0.418   6.633   1.021 -0.3365 -0.6532 -0.1503
 8726SOL    HW127118   0.351   6.579   1.061 -0.9402  1.1941  1.4846
 8726SOL    HW227119   0.422   6.712   1.075  0.9136  0.6971 -2.0393
 8727SOL     OW27120   1.689   2.996   6.614  0.6332  0.2111  0.1369
 8727SOL    HW127121   1.595   3.000   6.632  0.0558  2.7604 -2.5582
 8727SOL    HW227122   1.716   2.909   6.645 -2.2709 -0.1057  2.2096
 8728SOL     OW27123   5.452   2.055   2.369  0.3493 -0.3803  0.3306
 8728SOL    HW127124   5.408   2.134   2.401 -0.5364 -0.3405 -0.9127
 8728SOL    HW227125   5.470   2.004   2.448 -0.6023  0.2801  1.0007
 8729SOL     OW27126   6.938   5.501   4.782  0.3191  1.0110 -0.2631
 8729SOL    HW127127   6.961   5.592   4.766  0.2423  1.1733  0.4986
 8729SOL    HW227128   6.863   5.506   4.842 -0.5610  0.4693 -1.2875
 8730SOL     OW27129   5.966   4.487   1.435 -0.1143 -0.1144  1.0193
 8730SOL    HW127130   6.026   4.425   1.394  1.0793  1.0528  0.8870
 8730SOL    HW227131   5.896   4.500   1.371  0.0999 -0.6372  0.6726
 8731SOL     OW27132   5.540   1.799   2.542  0.3072 -0.2836 -0.1110
 8731SOL    HW127133   5.604   1.810   2.471  1.9358 -0.9834  1.1718
 8731SOL    HW227134   5.467   1.753   2.501  1.1967 -0.6494 -1.3503
 8732SOL     OW27135   6.389   5.381   4.639 -0.3003  0.1770 -0.2377
 8732SOL    HW127136   6.346   5.453   4.593 -1.3813  1.6521  2.8012
 8732SOL    HW227137   6.450   5.424   4.699 -0.8650 -1.4069  1.5534
 8733SOL     OW27138   4.964   2.648   7.416 -0.1720  0.1926  0.5068
 8733SOL    HW127139   4.967   2.722   7.476  1.4610  0.9955 -0.4848
 8733SOL    HW227140   4.903   2.676   7.348  0.9461  0.9807 -0.2232
 8734SOL     OW27141   4.808   5.342   5.721 -0.0335  0.2531 -0.1347
 8734SOL    HW127142   4.827   5.408   5.655  0.6353  0.9388  0.7085
 8734SOL    HW227143   4.889   5.337   5.773 -0.6774  0.0437  0.8803
 8735SOL     OW27144   4.688   1.554   7.414 -0.7469  0.0693 -0.1907
 8735SOL    HW127145   4.703   1.544   7.320  1.1038 -0.2849  0.1014
 8735SOL    HW227146   4.662   1.466   7.443  0.6547 -0.3374 -0.0798
 8736SOL     OW27147   6.143   1.686   2.468 -0.1503  0.1940  0.1304
 8736SOL    HW127148   6.126   1.594   2.489  0.4422  0.2824  1.0680
 8736SOL    HW227149   6.140   1.690   2.373 -0.7488 -0.6854  0.1028
 8737SOL     OW27150   7.290   1.924   3.533  0.2839  0.4403  0.4302
 8737SOL    HW127151   7.332   1.839   3.519 -0.0299 -0.0014  1.9072
 8737SOL    HW227152   7.243   1.942   3.452  2.0572  0.2342 -0.7011
 8738SOL     OW27153   1.661   6.115   3.979  0.0823  0.6985 -0.8059
 8738SOL    HW127154   1.725   6.045   3.964  0.9613  1.2357  0.2542
 8738SOL    HW227155   1.609   6.117   3.899  0.9939 -0.1822 -1.4560
 8739SOL     OW27156   0.883   3.867   5.761  0.2483 -0.5282  0.3910
 8739SOL    HW127157   0.905   3.778   5.790  2.2121 -0.5085 -0.8598
 8739SOL    HW227158   0.962   3.918   5.776 -0.9347  1.1490  1.3525
 8740SOL     OW27159   3.509   0.672   5.880 -0.1757 -0.4264 -0.1712
 8740SOL    HW127160   3.567   0.613   5.930 -1.5455 -0.0922  1.9268
 8740SOL    HW227161   3.538   0.661   5.789  4.1126  0.7458  0.7999
 8741SOL     OW27162   3.113   6.837   2.454 -0.9245 -0.7036  0.5298
 8741SOL    HW127163   3.058   6.889   2.513  1.0405  0.5246  1.3928
 8741SOL    HW227164   3.197   6.883   2.452 -0.8490 -0.6832 -3.2739
 8742SOL     OW27165   5.921   2.061   3.461  0.2478  0.0193  0.5485
 8742SOL    HW127166   5.861   1.992   3.490 -0.8607 -0.0212 -1.6516
 8742SOL    HW227167   5.891   2.140   3.507 -2.8043  0.4125 -1.7880
 8743SOL     OW27168   1.437   5.848   0.589  0.6265  0.1777 -0.2571
 8743SOL    HW127169   1.388   5.912   0.639 -4.0046 -2.7620 -0.4524
 8743SOL    HW227170   1.402   5.854   0.500  0.7221 -1.8909 -0.4927
 8744SOL     OW27171   1.624   0.459   3.268  0.1530  0.1420  0.2813
 8744SOL    HW127172   1.667   0.378   3.240  0.8684  0.4248  0.5075
 8744SOL    HW227173   1.531   0.441   3.262  0.2775 -1.1463  1.5223
 8745SOL     OW27174   5.467   0.374   3.657 -0.1350  0.3841 -0.9161
 8745SOL    HW127175   5.436   0.445   3.713 -0.4411 -0.4408 -0.0080
 8745SOL    HW227176   5.396   0.309   3.660  0.5267 -0.3488 -0.9886
 8746SOL     OW27177   1.598   1.019   3.929 -0.4078  0.0939 -0.2906
 8746SOL    HW127178   1.547   1.021   3.848  0.7290 -1.7709 -1.1333
 8746SOL    HW227179   1.592   0.927   3.958  2.0179 -0.0666 -0.1565
 8747SOL     OW27180   6.506   5.559   4.806  0.2508  0.1118 -0.1654
 8747SOL    HW127181   6.439   5.557   4.874  1.0619  2.0459  0.7760
 8747SOL    HW227182   6.589   5.557   4.855  0.9748 -2.6182 -1.3060
 8748SOL     OW27183   0.088   3.858   0.454 -0.4895 -0.2733  0.1408
 8748SOL    HW127184   0.153   3.898   0.396 -0.4232 -1.7177 -0.8273
 8748SOL    HW227185   0.034   3.803   0.396  0.0886 -2.4253  1.5240
 8749SOL     OW27186   2.087   4.780   6.074 -0.2417  0.5176 -0.2043
 8749SOL    HW127187   2.051   4.866   6.054 -1.6406 -0.1762 -0.8107
 8749SOL    HW227188   2.174   4.781   6.034  1.7706  3.2172  3.6240
 8750SOL     OW27189   0.511   6.430   6.895 -0.4864  0.2235 -0.5862
 8750SOL    HW127190   0.504   6.464   6.806 -0.4626  0.4636 -0.4969
 8750SOL    HW227191   0.450   6.356   6.897 -0.6249  0.3306 -0.7487
 8751SOL     OW27192   0.701   5.457   5.528 -0.3989  0.5395  0.7999
 8751SOL    HW127193   0.689   5.472   5.621  1.6253  2.3569  0.8471
 8751SOL    HW227194   0.657   5.530   5.486 -1.6501 -0.4850  0.2688
 8752SOL     OW27195   4.980   3.223   3.025  0.2590  0.1324 -0.2203
 8752SOL    HW127196   5.050   3.273   2.983  0.9730  0.5940  1.4364
 8752SOL    HW227197   5.012   3.205   3.113 -0.6575 -1.8737 -0.2198
 8753SOL     OW27198   4.551   4.525   6.861 -0.0865  0.1637 -0.3935
 8753SOL    HW127199   4.519   4.439   6.833  0.7965  0.2433 -1.7488
 8753SOL    HW227200   4.478   4.584   6.845 -0.2680 -0.1301 -0.6617
 8754SOL     OW27201   1.953   5.189   6.550  0.7522  0.1908  0.3956
 8754SOL    HW127202   1.903   5.200   6.631 -0.8497  1.4254 -0.7052
 8754SOL    HW227203   1.942   5.097   6.528  1.7028 -0.3161  1.8402
 8755SOL     OW27204   1.529   3.093   0.385 -0.4020  0.1135 -0.5751
 8755SOL    HW127205   1.601   3.063   0.330  1.8890  1.6933  1.3444
 8755SOL    HW227206   1.561   3.173   0.426 -2.7062  0.1223  1.5117
 8756SOL     OW27207   6.370   2.764   4.514  0.0352  0.4035 -0.1647
 8756SOL    HW127208   6.330   2.717   4.587  0.7438 -1.2778 -0.7971
 8756SOL    HW227209   6.444   2.811   4.553 -0.3664  0.5749  0.3984
 8757SOL     OW27210   1.669   6.995   5.220  0.0950 -0.2271 -0.1868
 8757SOL    HW127211   1.753   7.029   5.252 -1.0667  2.0700  0.6058
 8757SOL    HW227212   1.614   6.990   5.298 -0.4604 -2.0339 -0.6420
 8758SOL     OW27213   6.762   5.137   4.340  0.0375 -0.1877 -0.0643
 8758SOL    HW127214   6.722   5.152   4.425  1.1367  0.8253  0.3012
 8758SOL    HW227215   6.732   5.210   4.286 -0.7204 -0.8700 -0.5837
 8759SOL     OW27216   5.558   0.237   6.409 -0.9820 -0.0690  0.1556
 8759SOL    HW127217   5.475   0.196   6.383 -0.4992 -1.0062  0.0438
 8759SOL    HW227218   5.618   0.217   6.337 -0.1865 -0.9401  1.0298
 8760SOL     OW27219   5.609   1.090   3.098  0.5037  0.3037  0.0282
 8760SOL    HW127220   5.692   1.065   3.140 -0.3761 -2.4485  0.2976
 8760SOL    HW227221   5.560   1.009   3.092 -1.1215  1.3659 -2.6127
 8761SOL     OW27222   4.417   1.891   2.437 -0.0564 -0.1874 -0.2205
 8761SOL    HW127223   4.458   1.898   2.350 -0.1120  0.9264 -0.1692
 8761SOL    HW227224   4.404   1.981   2.465  0.6086 -0.5141  1.2651
 8762SOL     OW27225   4.178   4.406   4.244 -0.4225 -0.2902  0.0720
 8762SOL    HW127226   4.134   4.349   4.307  0.2654  1.3211  2.0910
 8762SOL    HW227227   4.189   4.489   4.289  3.0744 -0.0259 -0.9561
 8763SOL     OW27228   5.298   1.543   5.157  0.5407  0.3328  0.7196
 8763SOL    HW127229   5.306   1.485   5.082  0.3048 -0.3955  1.2495
 8763SOL    HW227230   5.383   1.587   5.163  1.0454 -0.6439  0.8633
 8764SOL     OW27231   1.902   5.837   5.460 -0.2490  0.4445 -0.3215
 8764SOL    HW127232   1.818   5.871   5.427  0.8842  4.0473  0.0712
 8764SOL    HW227233   1.928   5.772   5.395 -2.4122  0.6742 -1.5369
 8765SOL     OW27234   0.198   7.388   6.171  0.0567  0.1623 -0.4777
 8765SOL    HW127235   0.284   7.350   6.190 -1.0783 -2.1874  0.3441
 8765SOL    HW227236   0.151   7.383   6.254 -1.0079  1.0539 -1.0073
 8766SOL     OW27237   3.743   1.855   4.571  0.3709  0.3877  0.3995
 8766SOL    HW127238   3.662   1.836   4.619 -0.1753 -0.8106 -0.9392
 8766SOL    HW227239   3.749   1.786   4.505  1.9663  1.0463 -0.1964
 8767SOL     OW27240   3.885   2.815   1.405  0.7742  0.2552 -0.1745
 8767SOL    HW127241   3.878   2.910   1.401 -2.2478  0.1387 -0.5986
 8767SOL    HW227242   3.846   2.792   1.490  0.3859 -0.6181 -0.5769
 8768SOL     OW27243   6.367   3.504   3.599 -0.0496  0.0309 -0.2938
 8768SOL    HW127244   6.321   3.553   3.532 -0.0694  0.9015  0.3435
 8768SOL    HW227245   6.331   3.536   3.682 -0.6708 -1.6569  0.1384
 8769SOL     OW27246   2.935   1.556   5.104 -0.9676  0.2090  0.4367
 8769SOL    HW127247   3.008   1.609   5.072 -1.0237  0.2549  0.3835
 8769SOL    HW227248   2.961   1.466   5.086 -1.4822  0.2792 -0.7849
 8770SOL     OW27249   4.022   4.813   6.165 -0.0973  0.6348  0.1971
 8770SOL    HW127250   4.115   4.806   6.187 -0.1834 -0.1622  0.3314
 8770SOL    HW227251   3.977   4.772   6.239 -0.5244  0.4246 -0.1786
 8771SOL     OW27252   0.765   0.552   4.818  0.3002 -0.1866  0.0699
 8771SOL    HW127253   0.830   0.492   4.782  1.5416 -0.0171  1.9423
 8771SOL    HW227254   0.686   0.499   4.827  0.4363 -0.6667 -1.2366
 8772SOL     OW27255   7.385   3.660   4.272  0.5608 -0.4404  0.3162
 8772SOL    HW127256   7.441   3.610   4.212  1.0686  1.1388 -0.5951
 8772SOL    HW227257   7.446   3.714   4.322  0.0339 -0.7914  1.3725
 8773SOL     OW27258   2.041   7.220   5.868  0.7710 -0.5308  0.4467
 8773SOL    HW127259   2.093   7.255   5.796 -0.7996 -0.0102 -0.4929
 8773SOL    HW227260   2.104   7.202   5.937  2.2023 -0.1444 -0.7155
 8774SOL     OW27261   1.033   4.015   0.348 -0.6617 -0.1697  0.0440
 8774SOL    HW127262   1.110   4.073   0.344 -0.8274 -0.0000 -1.4777
 8774SOL    HW227263   0.966   4.068   0.391  0.0420 -0.3153  1.3856
 8775SOL     OW27264   1.359   7.403   5.243 -0.7398 -0.2817  0.0818
 8775SOL    HW127265   1.434   7.429   5.297 -0.3221  0.3274 -0.7524
 8775SOL    HW227266   1.383   7.317   5.209 -0.6647 -0.3346  0.2705
 8776SOL     OW27267   6.401   5.388   5.250  0.3327 -0.0215 -0.1067
 8776SOL    HW127268   6.362   5.306   5.220 -1.2462 -0.7387  3.3865
 8776SOL    HW227269   6.491   5.365   5.274  0.6029 -0.1591 -1.2152
 8777SOL     OW27270   0.401   5.768   1.550 -0.0078 -0.5084  0.1949
 8777SOL    HW127271   0.460   5.759   1.626 -0.0031 -0.8375  0.1540
 8777SOL    HW227272   0.458   5.795   1.479 -0.2986  1.7236  0.7408
 8778SOL     OW27273   0.151   1.013   2.646  0.2683 -0.0806 -0.1459
 8778SOL    HW127274   0.073   1.044   2.693  0.5775 -1.3457  1.2692
 8778SOL    HW227275   0.171   1.084   2.585 -1.5718  0.5829 -0.0537
 8779SOL     OW27276   4.202   1.924   3.437 -0.6104  0.1918 -0.0659
 8779SOL    HW127277   4.146   2.001   3.447  0.1591  1.0092 -1.6517
 8779SOL    HW227278   4.263   1.928   3.511 -2.1522 -0.3288  1.2790
 8780SOL     OW27279   5.862   4.241   1.192  0.1930  0.2469 -0.7308
 8780SOL    HW127280   5.816   4.186   1.256 -1.9029  0.3888 -2.0435
 8780SOL    HW227281   5.861   4.190   1.111  0.1278  1.3199 -1.4260
 8781SOL     OW27282   3.036   1.652   5.331  0.3724 -0.1560  0.3731
 8781SOL    HW127283   2.981   1.602   5.270 -0.5917 -0.5820  1.5559
 8781SOL    HW227284   3.103   1.589   5.359  1.0648  0.1548 -0.5084
 8782SOL     OW27285   0.073   1.340   0.022 -0.2423  0.0991 -0.1852
 8782SOL    HW127286   0.120   1.258   0.005  0.6890  0.6998 -0.5563
 8782SOL    HW227287   0.133   1.391   0.076 -0.3674  0.9690 -0.8490
 8783SOL     OW27288   1.886   6.335   5.670  0.0010 -0.1745  0.0481
 8783SOL    HW127289   1.925   6.248   5.678  1.2327  0.4364  1.2058
 8783SOL    HW227290   1.953   6.395   5.706 -1.8846  0.9526  1.9694
 8784SOL     OW27291   7.033   2.281   3.886  0.8655  0.4069  0.2102
 8784SOL    HW127292   7.045   2.188   3.868  0.7589  0.5548 -0.6768
 8784SOL    HW227293   7.061   2.292   3.976 -0.7671 -0.8085  0.9130
 8785SOL     OW27294   0.806   2.526   0.034 -0.1341 -0.3398  0.0790
 8785SOL    HW127295   0.874   2.579   0.076  0.5723 -0.9941 -0.2358
 8785SOL    HW227296   0.729   2.584   0.033 -0.4108 -0.5245  2.8999
 8786SOL     OW27297   1.031   3.060   1.242  0.2518 -0.4706  0.2773
 8786SOL    HW127298   1.114   3.102   1.264  0.1929 -0.6759  0.9418
 8786SOL    HW227299   0.968   3.131   1.238 -0.0239 -0.5399  2.2658
 8787SOL     OW27300   0.875   1.405   3.973 -0.2958  0.1408  0.3780
 8787SOL    HW127301   0.924   1.337   3.925  0.8458  0.4483  1.0698
 8787SOL    HW227302   0.943   1.458   4.015 -1.2538 -0.6695  3.1189
 8788SOL     OW27303   5.825   6.130   3.770 -0.1493 -0.4163 -0.0468
 8788SOL    HW127304   5.897   6.071   3.750  1.8621  1.0388  2.3242
 8788SOL    HW227305   5.857   6.217   3.743  0.6477  0.8206  4.0701
 8789SOL     OW27306   5.767   3.913   3.912 -0.2592  0.0454 -0.2572
 8789SOL    HW127307   5.745   3.994   3.866 -0.2553  1.3107  1.8016
 8789SOL    HW227308   5.728   3.925   4.000 -0.3216 -2.2341  0.0788
 8790SOL     OW27309   0.921   3.256   6.227 -0.1295  0.1974  0.4715
 8790SOL    HW127310   0.859   3.289   6.161  0.5514  0.5937  0.0272
 8790SOL    HW227311   0.981   3.200   6.178 -1.1540 -1.6384  1.1782
 8791SOL     OW27312   4.525   0.759   2.897  0.5193 -0.2687  0.3804
 8791SOL    HW127313   4.538   0.671   2.933 -2.5684 -0.4210  1.3724
 8791SOL    HW227314   4.460   0.800   2.954  0.6220  2.0729 -1.0310
 8792SOL     OW27315   6.439   0.114   1.674  0.0613  0.4339  0.3735
 8792SOL    HW127316   6.411   0.100   1.765  1.5314 -1.9423  0.5563
 8792SOL    HW227317   6.529   0.145   1.682  0.0780  0.5462 -0.2611
 8793SOL     OW27318   0.531   6.768   0.315  0.1204 -0.1897  0.3598
 8793SOL    HW127319   0.447   6.791   0.355  0.1938 -0.0295  0.4253
 8793SOL    HW227320   0.596   6.787   0.383  0.1452 -1.0501  0.5845
 8794SOL     OW27321   7.097   0.713   3.172  0.3470  0.5392  0.1639
 8794SOL    HW127322   7.186   0.685   3.190  0.6412 -0.3397 -2.2292
 8794SOL    HW227323   7.052   0.633   3.145 -0.6262  1.2646 -0.4658
 8795SOL     OW27324   4.977   1.903   3.604  0.3309 -0.4915 -0.3500
 8795SOL    HW127325   4.911   1.846   3.565  0.1605 -0.5701  0.0462
 8795SOL    HW227326   5.059   1.856   3.591 -0.0125 -1.7246  1.5729
 8796SOL     OW27327   4.238   4.596   1.472 -0.2068 -0.1252  0.0978
 8796SOL    HW127328   4.177   4.611   1.544 -0.1237 -0.5552  0.2617
 8796SOL    HW227329   4.323   4.585   1.515 -0.2793 -1.1630  0.0034
 8797SOL     OW27330   6.065   5.811   5.255  0.3229  0.0234  0.2566
 8797SOL    HW127331   6.039   5.744   5.318  1.4219 -0.7522 -0.0908
 8797SOL    HW227332   6.029   5.780   5.171  2.1143 -0.9714 -0.1964
 8798SOL     OW27333   0.991   3.722   1.992 -0.0617 -0.5892  0.9467
 8798SOL    HW127334   1.030   3.677   1.917 -1.3341 -1.1644  0.6103
 8798SOL    HW227335   0.968   3.809   1.959 -0.0101 -0.6064  0.8662
 8799SOL     OW27336   5.840   1.376   3.206  0.6789 -0.5786 -0.7566
 8799SOL    HW127337   5.803   1.383   3.118  1.5259  0.8442 -1.0287
 8799SOL    HW227338   5.836   1.465   3.242  0.3519 -1.1322  0.6527
 8800SOL     OW27339   2.828   0.670   1.788  0.0079 -0.2238  0.2220
 8800SOL    HW127340   2.765   0.606   1.819  0.3468 -1.5258 -1.6230
 8800SOL    HW227341   2.895   0.674   1.856 -1.3282  0.1783  1.5707
 8801SOL     OW27342   5.932   2.196   0.394  0.1783  0.3343  0.3357
 8801SOL    HW127343   5.860   2.253   0.423 -0.1626 -0.7605  1.7127
 8801SOL    HW227344   5.891   2.138   0.329 -0.2449 -0.4029  1.2450
 8802SOL     OW27345   0.547   3.756   0.902 -0.3877 -0.2277  0.3351
 8802SOL    HW127346   0.606   3.681   0.912 -0.5499 -0.1401  2.4960
 8802SOL    HW227347   0.462   3.717   0.884 -0.3656 -0.5496  0.9020
 8803SOL     OW27348   0.516   1.238   3.161  0.4555  0.2427  1.1352
 8803SOL    HW127349   0.454   1.181   3.116  2.3058 -0.5118 -0.6242
 8803SOL    HW227350   0.560   1.181   3.224  1.4467 -0.0096  0.2384
 8804SOL     OW27351   6.728   4.528   1.326 -0.0504 -0.2841  0.6326
 8804SOL    HW127352   6.637   4.554   1.310  0.0566 -0.6143 -0.5970
 8804SOL    HW227353   6.721   4.455   1.388 -0.7065 -0.9573 -0.1990
 8805SOL     OW27354   2.379   6.022   2.589 -0.2814 -0.3817  0.3507
 8805SOL    HW127355   2.308   5.981   2.540 -1.3485  0.9455  0.7224
 8805SOL    HW227356   2.335   6.084   2.647  1.1654  0.1867  0.8766
 8806SOL     OW27357   2.071   0.583   4.855 -0.0647  0.8858  0.4249
 8806SOL    HW127358   2.107   0.653   4.910  0.4374 -0.4476  1.8813
 8806SOL    HW227359   1.997   0.549   4.905 -1.0798  1.1458 -0.8414
 8807SOL     OW27360   5.669   3.010   3.006 -0.3698 -0.3366 -0.1103
 8807SOL    HW127361   5.610   2.943   2.972  0.0836 -0.9463  0.2764
 8807SOL    HW227362   5.697   2.976   3.091  0.6059 -0.1010 -0.3261
 8808SOL     OW27363   6.702   5.120   2.848 -0.0471  0.1723  0.0787
 8808SOL    HW127364   6.680   5.032   2.880 -1.2657  1.0548  1.8201
 8808SOL    HW227365   6.780   5.145   2.897  0.5508 -0.0727 -0.7245
 8809SOL     OW27366   0.490   6.285   3.693 -0.1910 -0.7328 -0.0767
 8809SOL    HW127367   0.400   6.318   3.699 -0.1963 -0.5079 -1.2508
 8809SOL    HW227368   0.532   6.341   3.628  0.4678 -1.5733 -0.3960
 8810SOL     OW27369   6.372   2.128   3.392  0.3967 -0.2966  0.2195
 8810SOL    HW127370   6.293   2.074   3.383  0.3321 -0.2628  0.5474
 8810SOL    HW227371   6.426   2.105   3.317 -0.1615  0.0739 -0.3082
 8811SOL     OW27372   6.582   3.234   5.690 -0.3271  0.0990 -0.0624
 8811SOL    HW127373   6.665   3.276   5.715  0.3512 -0.3193 -1.4957
 8811SOL    HW227374   6.603   3.141   5.688 -1.2057 -0.1360  0.8256
 8812SOL     OW27375   5.057   6.049   3.300  0.1490 -0.2458 -0.4103
 8812SOL    HW127376   4.976   6.035   3.350  1.0703 -1.5200  0.7988
 8812SOL    HW227377   5.043   6.004   3.218 -0.7891  0.5251 -0.6930
 8813SOL     OW27378   6.308   4.158   3.022 -0.7015  0.6077  0.2694
 8813SOL    HW127379   6.333   4.089   2.961 -1.4666  0.0965  0.5161
 8813SOL    HW227380   6.342   4.128   3.107 -1.0386  0.5267  0.3772
 8814SOL     OW27381   0.574   3.885   3.360 -0.1121 -0.3057 -0.1169
 8814SOL    HW127382   0.573   3.971   3.402 -1.6419 -0.2104 -0.2821
 8814SOL    HW227383   0.481   3.861   3.352  0.1782 -0.9244 -2.1894
 8815SOL     OW27384   5.540   2.611   6.374  0.0252  0.1085  0.0547
 8815SOL    HW127385   5.624   2.629   6.333 -0.4668  0.8293 -0.6714
 8815SOL    HW227386   5.562   2.576   6.460  1.0630  0.0393 -0.2310
 8816SOL     OW27387   1.349   1.063   4.744 -0.1402 -0.1817  0.0019
 8816SOL    HW127388   1.290   1.030   4.812  1.6477  0.3188  1.8934
 8816SOL    HW227389   1.415   0.995   4.735  0.9468  0.7733  0.5191
 8817SOL     OW27390   1.952   6.851   0.177 -0.2498 -0.5411 -0.3095
 8817SOL    HW127391   2.035   6.888   0.206 -0.1315 -0.5720 -0.6112
 8817SOL    HW227392   1.974   6.797   0.101 -0.5433 -0.5519 -0.3898
 8818SOL     OW27393   6.221   4.448   0.932 -0.1869  0.1179 -0.2671
 8818SOL    HW127394   6.132   4.482   0.946 -0.4367 -0.4631 -0.4119
 8818SOL    HW227395   6.236   4.461   0.838 -0.6671 -1.0634 -0.5181
 8819SOL     OW27396   6.272   3.093   0.276  0.3700  0.1161  0.8258
 8819SOL    HW127397   6.347   3.146   0.304  1.4232  0.8382 -2.8136
 8819SOL    HW227398   6.212   3.156   0.236  0.1149 -1.0213 -0.6583
 8820SOL     OW27399   5.718   3.840   6.989  0.2059  0.9573  0.0870
 8820SOL    HW127400   5.660   3.872   6.920  0.6412  1.9355  0.1607
 8820SOL    HW227401   5.678   3.757   7.017 -0.6182  1.1341 -0.5212
 8821SOL     OW27402   0.297   0.030   5.801  0.0924  0.1793 -0.1080
 8821SOL    HW127403   0.378  -0.017   5.818 -0.5760 -1.2522 -0.6595
 8821SOL    HW227404   0.240  -0.035   5.761 -0.9282  1.4616 -0.8234
 8822SOL     OW27405   0.437   1.285   1.561 -0.3382  0.3986  0.2944
 8822SOL    HW127406   0.452   1.235   1.481  0.7958  0.6101  0.3630
 8822SOL    HW227407   0.494   1.244   1.626  0.1533  1.3891  0.5055
 8823SOL     OW27408   4.531   5.455   2.358 -0.2638 -0.0591 -0.5441
 8823SOL    HW127409   4.504   5.375   2.313 -1.9363 -0.3404  0.8297
 8823SOL    HW227410   4.624   5.441   2.377 -0.1528 -0.9988 -1.6636
 8824SOL     OW27411   4.285   6.394   3.202  0.3528  0.3557  0.4639
 8824SOL    HW127412   4.221   6.329   3.231 -1.1241  1.9479  0.9017
 8824SOL    HW227413   4.266   6.407   3.109  0.4404  0.4076  0.4522
 8825SOL     OW27414   4.458   3.779   6.468 -0.0918  0.8155  0.1503
 8825SOL    HW127415   4.423   3.695   6.498  0.8190  0.0477 -0.8355
 8825SOL    HW227416   4.451   3.775   6.372 -0.7375  2.1905  0.1170
 8826SOL     OW27417   4.369   4.343   4.515  0.1928  0.2898  0.4926
 8826SOL    HW127418   4.375   4.326   4.609 -3.1579 -2.1794  0.4395
 8826SOL    HW227419   4.282   4.381   4.503 -0.4723 -1.7401 -1.8005
 8827SOL     OW27420   5.824   0.771   5.313  0.4589  0.2305 -0.6452
 8827SOL    HW127421   5.789   0.780   5.225 -0.6551  0.7569 -0.1626
 8827SOL    HW227422   5.876   0.691   5.310 -3.0571 -2.2730 -0.7014
 8828SOL     OW27423   4.044   6.574   2.778  0.4372 -0.1142  0.1409
 8828SOL    HW127424   4.084   6.660   2.794  1.8514 -0.7527  0.1937
 8828SOL    HW227425   4.027   6.573   2.684  0.8377  0.0534  0.0643
 8829SOL     OW27426   0.337   0.577   0.383  0.6370 -0.7454  0.4178
 8829SOL    HW127427   0.328   0.549   0.292  1.5128 -0.3696  0.2052
 8829SOL    HW227428   0.420   0.625   0.386  0.4873 -0.5110  1.3544
 8830SOL     OW27429   5.489   7.126   6.871 -0.4652  0.2498  0.1521
 8830SOL    HW127430   5.428   7.197   6.891 -0.7176 -0.7167  3.4519
 8830SOL    HW227431   5.437   7.063   6.820 -1.9359  0.0078  1.8538
 8831SOL     OW27432   5.901   1.725   5.841 -0.4868 -0.1840  0.0260
 8831SOL    HW127433   5.879   1.632   5.845 -1.5322  0.0340 -0.3631
 8831SOL    HW227434   5.996   1.727   5.845 -0.2103 -1.4906 -3.3508
 8832SOL     OW27435   6.732   2.963   3.899 -0.3983 -0.6613 -0.4456
 8832SOL    HW127436   6.779   2.902   3.843 -1.3513 -0.6296 -1.3056
 8832SOL    HW227437   6.679   2.908   3.956 -0.4526 -0.6692 -0.5026
 8833SOL     OW27438   4.846   2.352   4.150 -0.2440 -0.0003  0.6518
 8833SOL    HW127439   4.928   2.393   4.177 -1.0374  1.6264  0.7149
 8833SOL    HW227440   4.870   2.295   4.077  1.2868 -1.3219  2.0990
 8834SOL     OW27441   5.780   6.267   1.263 -0.1261  0.1067 -0.1388
 8834SOL    HW127442   5.773   6.184   1.309  1.5003  0.5484  0.9871
 8834SOL    HW227443   5.817   6.327   1.328 -0.2478  1.4357 -1.2569
 8835SOL     OW27444   1.129   3.871   6.530  0.4436 -0.5994 -0.5823
 8835SOL    HW127445   1.110   3.778   6.528  0.1485 -0.5411 -0.5229
 8835SOL    HW227446   1.122   3.899   6.439  0.7678 -0.6822 -0.6325
 8836SOL     OW27447   4.620   1.042   5.362 -0.2664  0.1267  0.2947
 8836SOL    HW127448   4.591   1.112   5.420  0.4868 -0.7503  1.7986
 8836SOL    HW227449   4.707   1.018   5.395  0.6643  0.2908 -1.8653
 8837SOL     OW27450   2.013   6.141   5.076 -0.1518 -0.0685 -0.4131
 8837SOL    HW127451   2.041   6.150   5.167 -0.6780  1.4655 -0.3896
 8837SOL    HW227452   1.978   6.052   5.071  2.3281 -1.1667  0.1793
 8838SOL     OW27453   5.300   6.141   5.647 -0.2187  0.3023  0.5414
 8838SOL    HW127454   5.375   6.200   5.635  0.3947 -0.1894  1.7450
 8838SOL    HW227455   5.248   6.183   5.716  0.2676 -0.5906  1.4672
 8839SOL     OW27456   2.119   4.477   2.104 -0.4348 -0.0514 -0.7918
 8839SOL    HW127457   2.088   4.557   2.147 -1.1118 -1.2370  1.0620
 8839SOL    HW227458   2.083   4.406   2.157  0.6113 -1.5919 -2.0474
 8840SOL     OW27459   0.998   4.238   4.142 -0.0630  0.2002  0.1362
 8840SOL    HW127460   1.036   4.237   4.054 -0.1145 -2.2422  0.0892
 8840SOL    HW227461   0.905   4.255   4.128 -0.0584 -0.1171 -0.2952
 8841SOL     OW27462   2.377   6.463   3.019 -0.1050 -0.0090 -0.0847
 8841SOL    HW127463   2.405   6.460   2.927  1.3730 -2.7332  0.3417
 8841SOL    HW227464   2.400   6.551   3.048  2.6347 -0.1431 -1.4662
 8842SOL     OW27465   0.817   2.633   0.612  0.0791  0.3577  0.8653
 8842SOL    HW127466   0.912   2.627   0.608 -0.0276 -1.8529  0.3973
 8842SOL    HW227467   0.799   2.670   0.699  1.3584  1.9686  0.4881
 8843SOL     OW27468   1.993   1.962   4.773 -0.0719 -0.1348 -0.2192
 8843SOL    HW127469   1.935   2.020   4.822 -1.3527 -0.3657 -1.3983
 8843SOL    HW227470   1.941   1.884   4.757  1.7184 -1.8165  1.5989
 8844SOL     OW27471   4.104   1.686   1.794 -0.0438  0.5655  0.2498
 8844SOL    HW127472   4.083   1.702   1.886 -1.5842  0.1242  0.0119
 8844SOL    HW227473   4.038   1.736   1.746 -0.6180 -0.9102 -0.5673
 8845SOL     OW27474   0.375   2.293   3.617  0.8056  0.2364  0.1696
 8845SOL    HW127475   0.451   2.348   3.634  0.7860  0.6063 -0.8504
 8845SOL    HW227476   0.322   2.344   3.555 -0.3394  0.0409  0.9421
 8846SOL     OW27477   6.001   4.568   0.439  0.2898 -0.0238  0.0663
 8846SOL    HW127478   6.031   4.484   0.474  0.1943 -0.8272 -1.6741
 8846SOL    HW227479   6.081   4.619   0.429  0.3495  0.1187  1.1383
 8847SOL     OW27480   0.534   4.121   0.264  0.3533 -0.1624  0.0835
 8847SOL    HW127481   0.475   4.046   0.270  1.1181 -0.9156 -1.4498
 8847SOL    HW227482   0.485   4.193   0.304 -2.0106 -0.5227 -1.9599
 8848SOL     OW27483   0.714   2.756   2.499 -0.6917 -0.2295  0.3038
 8848SOL    HW127484   0.679   2.843   2.483  0.3267  0.2005  0.3614
 8848SOL    HW227485   0.673   2.701   2.432 -0.4067  0.5328 -0.5034
 8849SOL     OW27486   3.332   1.106   1.305 -0.2577  0.1439  0.2091
 8849SOL    HW127487   3.408   1.131   1.359 -0.4058 -0.8930  0.9333
 8849SOL    HW227488   3.263   1.166   1.332 -0.6899 -1.1035  2.1208
 8850SOL     OW27489   0.034   2.888   3.060 -0.4794 -0.0819 -0.0810
 8850SOL    HW127490   0.092   2.811   3.064 -0.5714 -0.0963  1.4919
 8850SOL    HW227491  -0.025   2.869   2.987  0.2660 -0.9447 -0.4915
 8851SOL     OW27492   7.052   6.435   5.569  0.5222 -0.1356 -0.1228
 8851SOL    HW127493   7.065   6.529   5.551  0.8480 -0.1203  0.1837
 8851SOL    HW227494   6.957   6.425   5.577  0.3694 -0.1158 -1.6904
 8852SOL     OW27495   2.646   4.824   3.735 -0.1512 -0.1134 -0.3365
 8852SOL    HW127496   2.669   4.818   3.828 -0.7622 -0.8163 -0.2188
 8852SOL    HW227497   2.728   4.850   3.692  1.0114 -2.8139  0.0221
 8853SOL     OW27498   3.061   2.703   6.752 -1.0607 -0.0806  0.1829
 8853SOL    HW127499   3.083   2.788   6.713 -0.4996 -0.5282 -0.5069
 8853SOL    HW227500   2.985   2.721   6.807 -0.6889  0.9541  0.3891
 8854SOL     OW27501   4.743   1.428   5.828 -0.3683  0.3558 -0.1019
 8854SOL    HW127502   4.738   1.399   5.737 -0.1257  1.4006 -0.4658
 8854SOL    HW227503   4.673   1.380   5.873  0.0520 -0.8122 -0.6449
 8855SOL     OW27504   4.306   4.621   1.909 -0.1636 -0.1585  0.1204
 8855SOL    HW127505   4.255   4.546   1.939 -0.8178  0.6274  1.0268
 8855SOL    HW227506   4.285   4.690   1.971 -0.6173  1.1775 -1.4622
 8856SOL     OW27507   5.966   5.865   4.808 -0.4718  0.3081 -0.3928
 8856SOL    HW127508   6.035   5.807   4.839  0.3522  1.0089 -0.8562
 8856SOL    HW227509   5.892   5.808   4.790 -0.1898 -0.3994  0.5961
 8857SOL     OW27510   6.611   0.010   3.964 -0.2150  0.6031 -0.2953
 8857SOL    HW127511   6.706   0.007   3.974 -0.0950 -2.0095 -1.3777
 8857SOL    HW227512   6.579   0.044   4.047  1.6497  1.9571 -0.0593
 8858SOL     OW27513   0.877   6.158   3.063  0.2370 -0.7240  0.0664
 8858SOL    HW127514   0.913   6.134   2.977  0.2815  1.6345 -0.6421
 8858SOL    HW227515   0.954   6.167   3.119  0.6745  1.9603 -0.8307
 8859SOL     OW27516   1.048   0.617   4.965  0.0799 -0.5559 -0.1645
 8859SOL    HW127517   1.011   0.692   4.918 -1.9936 -1.6419 -0.3929
 8859SOL    HW227518   1.037   0.544   4.905  0.0276 -1.4441  0.8928
 8860SOL     OW27519   6.893   0.738   4.009  0.3397  0.4242 -0.4899
 8860SOL    HW127520   6.933   0.660   3.971  2.1790  0.7991  0.5392
 8860SOL    HW227521   6.829   0.767   3.944  2.6713  0.5225 -2.8662
 8861SOL     OW27522   3.023   2.555   6.519 -0.0684  0.3199  0.0024
 8861SOL    HW127523   2.984   2.605   6.590 -0.7957 -2.6215  1.8359
 8861SOL    HW227524   3.112   2.536   6.549 -0.7007 -1.8139  0.7474
 8862SOL     OW27525   6.575   1.802   0.239  0.0614  0.2020 -0.3469
 8862SOL    HW127526   6.508   1.865   0.265 -0.3894 -0.6132  0.5125
 8862SOL    HW227527   6.550   1.774   0.151 -0.1235  0.6747 -0.4506
 8863SOL     OW27528   1.456   3.725   5.136  0.5217 -0.2825 -0.0490
 8863SOL    HW127529   1.450   3.747   5.043  2.4147 -1.1523 -0.4408
 8863SOL    HW227530   1.390   3.658   5.149  0.9985 -0.9854 -1.0793
 8864SOL     OW27531   1.592   5.444   5.160 -0.1122 -0.0913  0.4128
 8864SOL    HW127532   1.677   5.480   5.132  0.5584 -0.2428  2.0899
 8864SOL    HW227533   1.592   5.354   5.128  0.9528 -0.4898  1.4324
 8865SOL     OW27534   2.542   2.209   6.261 -0.1443  0.1864 -0.0796
 8865SOL    HW127535   2.634   2.199   6.284  0.4063  1.2335 -1.6299
 8865SOL    HW227536   2.520   2.130   6.213 -0.3807 -0.5465  1.2019
 8866SOL     OW27537   5.183   3.396   5.499 -0.7625  0.6115  0.2060
 8866SOL    HW127538   5.163   3.437   5.415  0.4761  1.0705  0.1036
 8866SOL    HW227539   5.113   3.424   5.558 -0.2500  2.4523 -0.0029
 8867SOL     OW27540   0.422   6.934   6.148  0.1990 -0.5899 -0.1702
 8867SOL    HW127541   0.471   6.949   6.229  1.4811 -0.5837 -0.9198
 8867SOL    HW227542   0.424   6.839   6.135 -0.9626 -0.7046  0.3623
 8868SOL     OW27543   5.783   2.940   2.077 -0.6022  0.1256  0.1554
 8868SOL    HW127544   5.767   2.981   1.991  1.7539  0.4594 -0.1963
 8868SOL    HW227545   5.825   3.009   2.128 -1.2670 -0.3213  1.3169
 8869SOL     OW27546   3.998   2.815   3.212  0.9012 -0.6394  0.1387
 8869SOL    HW127547   4.036   2.880   3.272 -1.1316 -0.1256  0.9593
 8869SOL    HW227548   4.008   2.732   3.257 -0.9799 -0.2059  1.4803
 8870SOL     OW27549   0.050   4.758   7.414  0.7779 -0.1565  0.1897
 8870SOL    HW127550   0.069   4.820   7.484  1.0863  1.1029 -0.9590
 8870SOL    HW227551   0.113   4.781   7.345 -1.1390  0.3200 -1.4832
 8871SOL     OW27552   0.467   4.555   2.699 -0.0324  0.2178  0.3048
 8871SOL    HW127553   0.548   4.507   2.683 -0.8238 -0.9178 -0.5181
 8871SOL    HW227554   0.473   4.583   2.790  0.1974 -2.0504  1.0422
 8872SOL     OW27555   6.328   4.890   6.018 -0.3003  0.1750 -0.1127
 8872SOL    HW127556   6.413   4.930   5.997 -0.2767  0.3168  0.2455
 8872SOL    HW227557   6.263   4.950   5.981 -0.2504 -1.4920 -3.2486
 8873SOL     OW27558   1.870   3.284   2.934  0.6130  0.7769 -0.2597
 8873SOL    HW127559   1.922   3.330   2.867  1.4826  0.1472 -0.0336
 8873SOL    HW227560   1.788   3.333   2.938  1.3285  2.0328 -0.3652
 8874SOL     OW27561   4.187   4.955   2.667 -0.0492 -0.1382 -0.0787
 8874SOL    HW127562   4.251   5.024   2.681 -1.6806  1.4748 -0.1683
 8874SOL    HW227563   4.145   4.944   2.753  1.2277 -2.1923  0.3579
 8875SOL     OW27564   3.218   0.655   0.240  0.0544  0.2385 -0.2847
 8875SOL    HW127565   3.254   0.720   0.180  2.1039  0.6174  1.2301
 8875SOL    HW227566   3.125   0.651   0.219 -0.0429  3.2220 -0.8403
 8876SOL     OW27567   7.154   3.797   7.111  0.1824  0.2448 -0.2888
 8876SOL    HW127568   7.148   3.761   7.022 -0.8205 -0.1945 -0.0516
 8876SOL    HW227569   7.111   3.883   7.105 -0.9805 -0.3020  0.0352
 8877SOL     OW27570   0.056   5.700   0.241  0.1605 -0.4729  0.6917
 8877SOL    HW127571   0.080   5.745   0.160 -0.5462  0.3899  0.9507
 8877SOL    HW227572  -0.034   5.671   0.227 -0.1677  0.1945  1.3768
 8878SOL     OW27573   3.899   4.576   2.513  0.1451  0.4501 -0.4004
 8878SOL    HW127574   3.844   4.552   2.588 -1.3948  0.2661 -1.5323
 8878SOL    HW227575   3.889   4.504   2.452 -0.0169  1.3767 -1.4969
 8879SOL     OW27576   4.511   4.089   4.319 -0.1550 -0.7145  0.3734
 8879SOL    HW127577   4.475   4.172   4.349  0.4404  0.3977 -1.7903
 8879SOL    HW227578   4.606   4.103   4.320  0.0315 -1.8976  1.3480
 8880SOL     OW27579   2.694   5.389   5.054 -0.8106  0.3442  0.3202
 8880SOL    HW127580   2.618   5.421   5.103 -0.6729 -1.6835  2.0057
 8880SOL    HW227581   2.741   5.468   5.029 -2.0703  1.5614  1.5754
 8881SOL     OW27582   6.278   6.838   0.950 -0.4122 -0.0862  0.0760
 8881SOL    HW127583   6.189   6.838   0.913 -0.3104 -0.7736 -0.1832
 8881SOL    HW227584   6.286   6.753   0.993  0.6461 -0.6630 -1.1970
 8882SOL     OW27585   1.056   6.383   2.527 -0.1871  0.3989 -0.1114
 8882SOL    HW127586   1.127   6.346   2.579 -1.8052 -0.4942  1.5978
 8882SOL    HW227587   0.996   6.310   2.512 -1.2953  1.3472 -0.5160
 8883SOL     OW27588   3.362   1.751   3.426 -0.3938 -0.6386 -0.1590
 8883SOL    HW127589   3.389   1.833   3.384 -2.0892  0.6447  1.1051
 8883SOL    HW227590   3.358   1.688   3.355  1.4270  0.2332 -1.1021
 8884SOL     OW27591   5.450   5.185   3.206 -0.5030 -0.0002 -0.2600
 8884SOL    HW127592   5.422   5.194   3.116 -1.6404  2.1084  0.2477
 8884SOL    HW227593   5.423   5.096   3.231 -1.0623 -0.2500 -1.6755
 8885SOL     OW27594   6.759   6.525   4.814 -0.3765  0.5615 -0.4387
 8885SOL    HW127595   6.848   6.540   4.781 -0.7243 -0.2332 -1.8189
 8885SOL    HW227596   6.714   6.608   4.802  0.3284  1.1610  0.8525
 8886SOL     OW27597   1.937   5.218   5.676 -0.1451  0.3716 -0.2059
 8886SOL    HW127598   1.920   5.126   5.699 -0.8672  0.2026 -1.3395
 8886SOL    HW227599   1.851   5.260   5.680  0.2823  1.1719  0.9762
 8887SOL     OW27600   4.606   4.002   6.512 -0.2089  0.3390  0.5280
 8887SOL    HW127601   4.569   4.061   6.446 -1.2137  0.3940  1.1253
 8887SOL    HW227602   4.552   3.924   6.508  0.9032 -0.4275 -0.0110
 8888SOL     OW27603   2.728   6.927   0.118  0.2626 -0.3447  0.4618
 8888SOL    HW127604   2.650   6.982   0.116  0.2149 -0.4399 -1.3833
 8888SOL    HW227605   2.695   6.837   0.119  0.3311 -0.3868 -0.4317
 8889SOL     OW27606   7.280   6.422   4.153  0.2300  0.3129  0.2247
 8889SOL    HW127607   7.234   6.349   4.111  0.6673 -0.8250  1.6492
 8889SOL    HW227608   7.332   6.381   4.222 -0.0019  2.0463  1.4949
 8890SOL     OW27609   7.419   2.073   5.095  0.6689 -0.5714 -0.2834
 8890SOL    HW127610   7.351   2.032   5.043  0.9640 -0.2007 -0.9731
 8890SOL    HW227611   7.401   2.167   5.089  2.2258 -0.3162 -1.9406
 8891SOL     OW27612   6.131   5.306   6.623 -0.4541 -0.0786  0.0424
 8891SOL    HW127613   6.149   5.254   6.544 -2.0730  0.2618 -0.5916
 8891SOL    HW227614   6.080   5.380   6.591 -0.2005  0.6425  1.2713
 8892SOL     OW27615   2.618   3.432   0.684  0.4350  0.3868  0.1562
 8892SOL    HW127616   2.572   3.514   0.670 -1.5522 -0.6429  0.2858
 8892SOL    HW227617   2.607   3.413   0.777  1.2976  0.2049  0.2305
 8893SOL     OW27618   3.263   6.238   3.205  0.0636 -0.6313  0.0408
 8893SOL    HW127619   3.355   6.262   3.207  0.7178 -2.7818 -0.9745
 8893SOL    HW227620   3.239   6.229   3.298  1.1880 -1.0832  0.3026
 8894SOL     OW27621   5.920   2.829   3.136  0.2138  1.1002 -0.4690
 8894SOL    HW127622   5.991   2.767   3.148 -0.7753 -0.0177 -0.2085
 8894SOL    HW227623   5.949   2.886   3.065  1.5703  0.9978 -0.0255
 8895SOL     OW27624   3.920   3.822   1.418 -0.3021 -0.0607 -0.3446
 8895SOL    HW127625   4.012   3.842   1.434  0.1723 -1.0661 -1.6678
 8895SOL    HW227626   3.895   3.766   1.491  0.5253 -0.8951 -0.6862
 8896SOL     OW27627   0.004   6.235   5.056 -0.2292  0.3450 -0.5486
 8896SOL    HW127628   0.041   6.298   5.117  0.6070  1.1953 -1.9102
 8896SOL    HW227629   0.075   6.215   4.995 -1.1962 -0.0955 -1.5585
 8897SOL     OW27630   4.696   3.607   5.209  0.4998 -0.3206  0.3787
 8897SOL    HW127631   4.770   3.649   5.253  1.8548 -1.9914 -0.2099
 8897SOL    HW227632   4.681   3.661   5.131  0.1249  0.8563  1.2412
 8898SOL     OW27633   7.206   3.762   1.222 -0.2363 -0.3824 -0.0653
 8898SOL    HW127634   7.202   3.734   1.313  1.4170 -1.7440 -0.3670
 8898SOL    HW227635   7.251   3.846   1.225  0.7491 -0.9129  0.3006
 8899SOL     OW27636   4.954   4.456   6.432  0.1236  0.1111 -0.3999
 8899SOL    HW127637   4.998   4.374   6.454 -0.0770 -0.2037 -1.1590
 8899SOL    HW227638   5.023   4.522   6.438  0.2035 -0.0511  0.5730
 8900SOL     OW27639   4.149   6.113   7.427  0.0691  0.5641 -0.1180
 8900SOL    HW127640   4.183   6.108   7.516 -0.1410 -0.6787 -0.0923
 8900SOL    HW227641   4.122   6.204   7.416 -0.2555  0.6382  1.2189
 8901SOL     OW27642   3.362   4.862   0.594  0.2320  0.3522  0.4311
 8901SOL    HW127643   3.425   4.854   0.665 -1.8582 -1.7736  2.2347
 8901SOL    HW227644   3.283   4.818   0.627 -1.6591  1.4011 -2.3056
 8902SOL     OW27645   4.961   5.521   7.304 -0.1810  0.0408  0.4750
 8902SOL    HW127646   5.021   5.518   7.378 -0.6522 -0.5354  0.8394
 8902SOL    HW227647   4.965   5.434   7.266 -0.7643  0.0024  0.4903
 8903SOL     OW27648   7.048   3.583   6.500  0.4169 -1.0438 -0.2414
 8903SOL    HW127649   6.998   3.515   6.544 -0.6942 -0.9926 -1.3556
 8903SOL    HW227650   6.983   3.630   6.446  1.3522  0.1639 -0.3753
 8904SOL     OW27651   7.003   4.098   6.557  0.0226 -0.6587  0.6586
 8904SOL    HW127652   6.913   4.066   6.559  0.3250 -1.5332  0.5109
 8904SOL    HW227653   7.054   4.028   6.596  0.5463  0.1857  1.5349
 8905SOL     OW27654   6.713   5.606   1.443 -0.0678 -0.1307 -0.2695
 8905SOL    HW127655   6.666   5.689   1.455  1.1890  0.4997  0.5465
 8905SOL    HW227656   6.703   5.586   1.350  1.3372  2.0776 -0.9943
 8906SOL     OW27657   1.613   5.821   3.773  0.3144 -0.3065 -0.1435
 8906SOL    HW127658   1.583   5.899   3.727 -0.1375 -1.4719 -1.9216
 8906SOL    HW227659   1.584   5.834   3.863  0.6060  1.7349 -0.3071
 8907SOL     OW27660   2.614   2.640   1.696  0.7544 -0.3576 -0.3709
 8907SOL    HW127661   2.584   2.549   1.704  0.9259 -0.5151 -1.3299
 8907SOL    HW227662   2.702   2.639   1.733  0.1352 -0.2038  1.1520
 8908SOL     OW27663   3.679   6.334   2.298 -0.2290  0.2838 -0.0290
 8908SOL    HW127664   3.650   6.423   2.316 -0.1685 -0.1064  2.4711
 8908SOL    HW227665   3.632   6.308   2.219  1.1805  3.1051 -1.9356
 8909SOL     OW27666   0.700   4.399   2.675  0.1413 -0.2053 -0.0203
 8909SOL    HW127667   0.721   4.310   2.700  1.9641  0.1727 -0.0939
 8909SOL    HW227668   0.741   4.410   2.589  0.3954  0.8571  0.2234
 8910SOL     OW27669   2.971   5.108   1.656  0.3785 -0.3038  0.0364
 8910SOL    HW127670   3.014   5.033   1.698 -0.9773 -0.3359  1.4283
 8910SOL    HW227671   2.943   5.164   1.728  0.8006  1.2647 -0.9586
 8911SOL     OW27672   3.367   3.741   7.310 -0.1907  1.0614 -0.0259
 8911SOL    HW127673   3.308   3.774   7.242  0.1480  0.4053 -0.6524
 8911SOL    HW227674   3.337   3.784   7.390 -1.2173  1.1061 -0.4134
 8912SOL     OW27675   5.596   3.718   4.175  0.2573  0.5246  0.5934
 8912SOL    HW127676   5.651   3.795   4.163 -0.5757  0.8826 -1.2260
 8912SOL    HW227677   5.545   3.737   4.253  0.2232  1.7183  0.2944
 8913SOL     OW27678   0.816   1.539   5.256 -0.0565 -0.2419  0.0058
 8913SOL    HW127679   0.843   1.464   5.202  0.9443 -0.0255  0.2022
 8913SOL    HW227680   0.859   1.614   5.217 -0.2303  0.0849  0.4341
 8914SOL     OW27681   0.028   3.659   4.725  0.0977 -0.2496  0.8500
 8914SOL    HW127682  -0.039   3.678   4.659  1.3538  2.2933  0.1746
 8914SOL    HW227683   0.060   3.745   4.752  1.7368 -1.3243  2.5840
 8915SOL     OW27684   6.565   1.624   5.196 -0.2517  0.0241 -0.2673
 8915SOL    HW127685   6.573   1.718   5.213 -0.9050  0.6879 -3.0755
 8915SOL    HW227686   6.479   1.614   5.156  0.2352 -1.5910 -1.0102
 8916SOL     OW27687   3.010   6.370   2.897  0.0619 -0.0569  0.3821
 8916SOL    HW127688   2.922   6.407   2.909 -0.0006  0.0663 -0.3493
 8916SOL    HW227689   3.025   6.377   2.802  1.3770  1.0906  0.6382
 8917SOL     OW27690   1.048   7.317   6.427  0.0042  0.0202  0.2330
 8917SOL    HW127691   0.967   7.363   6.407 -0.8556 -1.7349 -0.5284
 8917SOL    HW227692   1.019   7.234   6.466  1.3999 -0.8689 -0.5432
 8918SOL     OW27693   1.091   2.286   2.496  0.0305 -0.1062  0.0779
 8918SOL    HW127694   1.148   2.244   2.431 -1.0921 -0.1900 -0.8845
 8918SOL    HW227695   1.148   2.301   2.571  1.0509 -1.1673 -0.4497
 8919SOL     OW27696   3.348   7.217   5.911  0.1754 -0.1145 -0.1883
 8919SOL    HW127697   3.408   7.155   5.954 -1.1097 -1.2129  0.1117
 8919SOL    HW227698   3.346   7.189   5.820  0.6416  0.3603 -0.3476
 8920SOL     OW27699   2.887   2.632   4.315 -0.1959 -0.4191  0.6082
 8920SOL    HW127700   2.904   2.642   4.409 -0.8916  1.7247  0.5622
 8920SOL    HW227701   2.834   2.709   4.292  0.0133 -0.8632 -1.5612
 8921SOL     OW27702   1.620   7.249   1.122  0.8270  0.2537  0.5603
 8921SOL    HW127703   1.535   7.245   1.167 -0.1165 -1.1985 -1.2194
 8921SOL    HW227704   1.602   7.297   1.041  1.4480 -0.8622 -0.2721
 8922SOL     OW27705   3.288   7.258   0.977  0.1570  0.2175 -0.1465
 8922SOL    HW127706   3.220   7.313   1.016  0.5421 -0.3373  1.3523
 8922SOL    HW227707   3.253   7.233   0.891 -1.5725 -0.1490  0.6377
 8923SOL     OW27708   5.305   5.727   0.210 -0.5229  0.6575 -0.5951
 8923SOL    HW127709   5.276   5.813   0.179 -1.0660  0.9368  0.6150
 8923SOL    HW227710   5.291   5.730   0.305  0.8273 -0.2444 -0.3390
 8924SOL     OW27711   5.281   1.069   2.729  0.7432  0.2758  0.3270
 8924SOL    HW127712   5.223   1.143   2.750  0.2078  0.1234 -0.5472
 8924SOL    HW227713   5.303   1.081   2.637 -0.1396 -1.1632 -0.1051
 8925SOL     OW27714   1.068   3.955   0.056  0.1781  0.0010  0.7944
 8925SOL    HW127715   1.047   3.956   0.150  0.2233 -1.4392  0.8408
 8925SOL    HW227716   1.124   4.032   0.043  0.1037  0.2626  1.9354
 8926SOL     OW27717   1.468   4.784   2.004 -0.5173  0.1726 -0.1440
 8926SOL    HW127718   1.388   4.820   1.964 -1.3211  1.4321  2.4152
 8926SOL    HW227719   1.535   4.850   1.986 -0.3136 -0.2807 -1.1697
 8927SOL     OW27720   5.096   1.721   1.114 -0.0966 -0.6822  0.0454
 8927SOL    HW127721   5.133   1.706   1.201  0.4686  0.0598 -0.0598
 8927SOL    HW227722   5.015   1.768   1.130 -0.2600 -1.0084  0.1936
 8928SOL     OW27723   1.684   0.488   6.182 -0.1259 -0.2306  0.4751
 8928SOL    HW127724   1.633   0.451   6.253 -0.5978 -0.8440 -0.1716
 8928SOL    HW227725   1.678   0.583   6.195 -1.3502 -0.2939  0.4773
 8929SOL     OW27726   0.736   5.395   4.714 -0.2855 -0.1069 -0.5596
 8929SOL    HW127727   0.803   5.329   4.731 -2.0562 -2.0146 -0.4366
 8929SOL    HW227728   0.755   5.466   4.775  1.1381 -0.9534  0.0179
 8930SOL     OW27729   1.576   2.289   6.339 -0.3321  0.1576  0.5584
 8930SOL    HW127730   1.639   2.219   6.357  1.2463  0.9229 -1.5531
 8930SOL    HW227731   1.496   2.244   6.313  0.7847 -0.9374 -1.1947
 8931SOL     OW27732   7.137   1.805   1.499 -0.3059 -0.5539 -0.4529
 8931SOL    HW127733   7.137   1.829   1.591  0.2557 -0.6834 -0.4144
 8931SOL    HW227734   7.049   1.826   1.468 -0.2840  0.1184 -0.0563
 8932SOL     OW27735   5.119   5.107   3.395  0.3926 -0.8463 -0.0800
 8932SOL    HW127736   5.203   5.075   3.362  0.2009  0.2613 -1.7604
 8932SOL    HW227737   5.055   5.041   3.368  0.5441 -1.0491  0.0555
 8933SOL     OW27738   1.200   0.404   4.088 -0.1012 -0.2035 -0.7286
 8933SOL    HW127739   1.173   0.468   4.022 -2.0901  0.3767  0.5346
 8933SOL    HW227740   1.119   0.358   4.111  0.5685 -0.6084  1.0493
 8934SOL     OW27741   0.009   0.192   3.988  0.0902  0.1985  0.0033
 8934SOL    HW127742   0.022   0.176   3.895  2.3145  0.2520  0.2543
 8934SOL    HW227743  -0.030   0.111   4.021  0.8025 -0.4545 -0.7014
 8935SOL     OW27744   2.934   0.178   6.987  0.7484 -0.2032  0.7300
 8935SOL    HW127745   2.885   0.242   7.037 -0.0916  0.3672 -0.7635
 8935SOL    HW227746   3.023   0.184   7.021  0.5156  1.1928  1.1530
 8936SOL     OW27747   3.106   4.384   1.760 -0.3063 -0.4139  0.0487
 8936SOL    HW127748   3.071   4.432   1.685 -2.2816  0.0021  1.1372
 8936SOL    HW227749   3.194   4.420   1.773 -0.5810  0.7211 -1.0154
 8937SOL     OW27750   2.435   4.460   0.158  0.3469 -0.1323  0.2690
 8937SOL    HW127751   2.388   4.542   0.176  1.5105  0.3149  1.4689
 8937SOL    HW227752   2.417   4.442   0.066  0.2955  1.6402 -0.1081
 8938SOL     OW27753   0.822   2.965   1.793  0.2045 -0.0066  0.7393
 8938SOL    HW127754   0.863   2.981   1.707 -0.9722 -2.3087 -0.3259
 8938SOL    HW227755   0.896   2.956   1.853  1.1611 -0.6627 -0.4884
 8939SOL     OW27756   7.228   3.659   3.709  0.0902  0.2187  0.5182
 8939SOL    HW127757   7.271   3.738   3.677 -0.3904 -0.2925 -1.5631
 8939SOL    HW227758   7.229   3.600   3.634  0.8945 -1.9755  2.1631
 8940SOL     OW27759   5.756   5.911   5.970 -0.5475 -0.3410 -0.1515
 8940SOL    HW127760   5.775   5.935   5.880  2.6817  1.7088  0.9228
 8940SOL    HW227761   5.716   5.824   5.963 -0.4681 -0.2440 -3.5160
 8941SOL     OW27762   4.279   6.753   0.493 -0.4157 -0.5150  0.3379
 8941SOL    HW127763   4.360   6.718   0.527 -0.9100 -0.7503  1.3011
 8941SOL    HW227764   4.223   6.765   0.570 -1.1289  0.0718 -0.2514
 8942SOL     OW27765   1.248   1.722   3.496 -0.2401 -0.0993  0.1205
 8942SOL    HW127766   1.251   1.817   3.491 -0.8034 -0.1184 -0.7644
 8942SOL    HW227767   1.185   1.703   3.565 -1.5839  0.1818 -0.9793
 8943SOL     OW27768   4.445   1.864   4.830  0.5959  0.2190 -0.4297
 8943SOL    HW127769   4.423   1.811   4.753 -0.9787 -1.4079  1.0421
 8943SOL    HW227770   4.473   1.800   4.896 -1.8681  1.0644  1.5771
 8944SOL     OW27771   4.833   2.614   3.861 -0.0873 -0.0725 -0.0736
 8944SOL    HW127772   4.925   2.629   3.882 -0.5947 -0.3900  2.9073
 8944SOL    HW227773   4.833   2.583   3.771  2.6986 -0.0135 -0.1794
 8945SOL     OW27774   6.737   0.040   6.318  0.7247 -0.2210  0.3335
 8945SOL    HW127775   6.714   0.132   6.335 -1.6789 -0.5021 -0.8917
 8945SOL    HW227776   6.669   0.010   6.257  2.7550 -2.1911 -1.0974
 8946SOL     OW27777   2.971   1.793   0.628 -0.0574  0.1223 -0.6298
 8946SOL    HW127778   3.016   1.866   0.583  0.4346 -0.1974 -0.6598
 8946SOL    HW227779   2.892   1.779   0.575 -0.4884  1.0485 -0.2666
 8947SOL     OW27780   1.786   7.124   4.252 -0.1016  0.3177 -0.1093
 8947SOL    HW127781   1.879   7.142   4.240 -0.0107 -1.2891 -2.6147
 8947SOL    HW227782   1.783   7.065   4.327  1.2242 -1.5106 -1.4044
 8948SOL     OW27783   0.595   0.659   4.527 -0.2058 -0.1179  0.0545
 8948SOL    HW127784   0.594   0.690   4.437 -0.7379 -0.2281  0.0176
 8948SOL    HW227785   0.664   0.592   4.528 -2.1031 -2.2198 -1.0104
 8949SOL     OW27786   0.009   6.309   3.311  0.2341 -0.1786  1.2938
 8949SOL    HW127787   0.073   6.320   3.240 -1.2253  0.1602 -0.0216
 8949SOL    HW227788  -0.043   6.233   3.283 -2.0773  1.5666  0.5867
 8950SOL     OW27789   2.660   1.094   5.726  0.4095  0.7697 -0.2141
 8950SOL    HW127790   2.614   1.170   5.688 -0.6579  0.8219  1.1299
 8950SOL    HW227791   2.701   1.128   5.805  0.5530  0.1042  0.0002
 8951SOL     OW27792   4.208   4.756   4.133  0.3011 -0.2036 -0.5943
 8951SOL    HW127793   4.170   4.715   4.211 -0.2538 -2.8876 -2.1676
 8951SOL    HW227794   4.169   4.844   4.131  1.1020  0.3489  2.6127
 8952SOL     OW27795   3.070   1.976   4.245  0.5200 -0.3195  0.3257
 8952SOL    HW127796   3.111   2.023   4.173 -0.1769  0.2993  0.3193
 8952SOL    HW227797   3.075   2.037   4.319 -1.5371  0.3098 -0.0070
 8953SOL     OW27798   6.965   1.595   6.826 -0.2594  0.2513  0.2840
 8953SOL    HW127799   6.978   1.588   6.732  0.7913  0.1213  0.4228
 8953SOL    HW227800   7.053   1.592   6.863 -0.7244 -2.0920  1.4336
 8954SOL     OW27801   5.829   1.806   4.401 -0.3328  0.3272  0.2716
 8954SOL    HW127802   5.853   1.863   4.474 -3.0294  0.4531  1.1830
 8954SOL    HW227803   5.860   1.719   4.426 -0.7479  0.4730  1.3434
 8955SOL     OW27804   7.121   7.371   2.964  0.2316  0.1666 -0.0601
 8955SOL    HW127805   7.153   7.456   2.996 -1.0445  0.1024  1.5122
 8955SOL    HW227806   7.042   7.392   2.915  0.4025 -0.0400 -0.4249
 8956SOL     OW27807   2.287   5.480   1.686  0.2017 -0.3171 -0.4063
 8956SOL    HW127808   2.287   5.484   1.782 -0.8669 -2.4436 -0.2422
 8956SOL    HW227809   2.314   5.567   1.658  0.1998  0.4702  1.8259
 8957SOL     OW27810   5.419   5.413   4.931 -0.1467 -0.0695  0.2340
 8957SOL    HW127811   5.445   5.443   5.018  1.2074 -0.0140 -0.1582
 8957SOL    HW227812   5.502   5.387   4.889 -0.8664 -0.8493 -0.7483
 8958SOL     OW27813   3.300   1.508   4.054  0.0904 -0.4439 -0.0162
 8958SOL    HW127814   3.345   1.587   4.025  0.8392 -0.9710 -0.3111
 8958SOL    HW227815   3.360   1.467   4.117 -0.8609 -0.1044  1.1498
 8959SOL     OW27816   5.908   0.807   7.309 -0.1269  0.0184 -0.4053
 8959SOL    HW127817   5.982   0.772   7.360  0.3726  0.9602 -0.4583
 8959SOL    HW227818   5.949   0.864   7.244 -0.7373 -1.2625 -1.9940
 8960SOL     OW27819   0.753   4.821   5.829  0.2182 -0.4753 -0.2442
 8960SOL    HW127820   0.668   4.849   5.796  0.7460 -0.3567 -1.5554
 8960SOL    HW227821   0.782   4.894   5.884 -1.0354 -1.0222  1.2179
 8961SOL     OW27822   5.091   6.560   7.280  0.2661  0.1225 -0.1062
 8961SOL    HW127823   5.137   6.605   7.351 -1.4281 -0.2321  1.2798
 8961SOL    HW227824   5.134   6.475   7.272 -0.7520 -0.6388  1.9126
 8962SOL     OW27825   4.257   6.946   1.962  0.5272  0.2785 -0.3511
 8962SOL    HW127826   4.224   6.996   1.887 -2.0535 -1.0323 -0.2133
 8962SOL    HW227827   4.210   6.983   2.037  1.8028  0.4325  0.4003
 8963SOL     OW27828   3.643   7.190   1.789 -0.4891  0.1377 -0.5837
 8963SOL    HW127829   3.724   7.211   1.743 -0.0564 -0.2843 -0.0268
 8963SOL    HW227830   3.581   7.170   1.719  0.2885 -0.9624 -0.9873
 8964SOL     OW27831   5.674   2.509   3.771  0.1390 -0.2586  0.1624
 8964SOL    HW127832   5.623   2.433   3.801 -1.8330  0.9482  0.0381
 8964SOL    HW227833   5.651   2.579   3.833  3.1294 -0.0815  1.2372
 8965SOL     OW27834   1.094   0.413   2.388  0.5684 -0.4664 -0.1798
 8965SOL    HW127835   1.133   0.333   2.354  0.1285 -0.0921 -1.6243
 8965SOL    HW227836   1.053   0.387   2.471 -0.4288 -1.9706 -1.1022
 8966SOL     OW27837   0.505   3.126   5.713 -0.5369  0.1973 -0.2064
 8966SOL    HW127838   0.581   3.085   5.670 -1.1660 -2.0206  0.6895
 8966SOL    HW227839   0.432   3.108   5.654 -0.8071  0.0557  0.1661
 8967SOL     OW27840   5.067   6.100   4.226 -0.7733 -0.4133 -0.1890
 8967SOL    HW127841   5.075   6.161   4.152  0.7251 -1.1938 -0.7244
 8967SOL    HW227842   5.008   6.032   4.195 -0.6103 -0.4358 -0.4521
 8968SOL     OW27843   0.716   3.956   3.119  0.1849 -0.4206 -0.0956
 8968SOL    HW127844   0.661   3.911   3.182 -0.9182 -1.7484 -1.8913
 8968SOL    HW227845   0.710   4.048   3.142 -2.4020 -0.5814  0.1058
 8969SOL     OW27846   5.450   0.593   4.717  0.5985  0.4349 -0.2197
 8969SOL    HW127847   5.480   0.595   4.626 -0.5092  0.7006 -0.5969
 8969SOL    HW227848   5.459   0.501   4.743 -1.2700 -0.1310 -1.3898
 8970SOL     OW27849   6.464   5.161   1.939 -0.4594 -0.3327 -0.2513
 8970SOL    HW127850   6.456   5.253   1.964 -0.8766 -0.4654  0.1076
 8970SOL    HW227851   6.434   5.112   2.015 -1.9333 -0.7378 -1.0628
 8971SOL     OW27852   6.986   4.599   5.472  0.3688 -0.2539 -0.1752
 8971SOL    HW127853   6.956   4.513   5.443  0.4365 -0.5493  0.6105
 8971SOL    HW227854   7.080   4.599   5.455  0.2216  0.0020 -0.9962
 8972SOL     OW27855   4.119   0.537   1.682  0.1987  0.1420  0.4893
 8972SOL    HW127856   4.165   0.560   1.602 -0.9141  0.2841 -0.1350
 8972SOL    HW227857   4.187   0.504   1.741  0.8873 -1.0436 -0.9185
 8973SOL     OW27858   2.895   0.359   2.365 -0.0582 -0.0523 -0.8987
 8973SOL    HW127859   2.948   0.338   2.441 -0.6285 -1.7030 -0.9165
 8973SOL    HW227860   2.810   0.385   2.401  0.6868  2.5811 -0.8689
 8974SOL     OW27861   7.140   2.777   3.752 -0.3149  0.3257 -0.0743
 8974SOL    HW127862   7.141   2.694   3.799  0.3045  0.9699  1.1014
 8974SOL    HW227863   7.228   2.813   3.764 -0.6916  1.3388 -0.2131
 8975SOL     OW27864   5.595   5.220   6.000 -0.8063  0.0879  0.0678
 8975SOL    HW127865   5.654   5.226   5.925 -0.0881  0.5862  0.6575
 8975SOL    HW227866   5.612   5.300   6.050  0.3626 -1.2606  1.9232
 8976SOL     OW27867   6.294   5.263   7.406  0.2637  0.1855 -0.1625
 8976SOL    HW127868   6.273   5.281   7.314  2.0579 -0.1819 -0.6683
 8976SOL    HW227869   6.281   5.168   7.416 -1.5745  0.4444  0.4615
 8977SOL     OW27870   4.824   4.276   3.165  0.2639 -0.5312 -0.3269
 8977SOL    HW127871   4.846   4.229   3.246 -0.6791  2.0215  1.5754
 8977SOL    HW227872   4.734   4.249   3.146 -1.6120  2.6945  2.7376
 8978SOL     OW27873   6.820   1.693   3.981 -0.0246 -0.4829  0.1402
 8978SOL    HW127874   6.786   1.604   3.986  1.3751 -1.1123 -0.8647
 8978SOL    HW227875   6.743   1.748   3.971 -0.9148 -1.5627  0.8627
 8979SOL     OW27876   6.251   0.205   5.625 -0.2887 -0.1938 -0.0232
 8979SOL    HW127877   6.271   0.126   5.575  1.9151 -0.7607  1.5877
 8979SOL    HW227878   6.159   0.195   5.650 -0.3984 -1.6402 -0.8757
 8980SOL     OW27879   6.892   1.650   3.580  0.2020  0.1736  0.2536
 8980SOL    HW127880   6.889   1.728   3.636  0.1820  1.4923 -1.4974
 8980SOL    HW227881   6.882   1.684   3.491 -2.9333 -2.0476 -0.4293
 8981SOL     OW27882   1.671   7.171   0.649 -0.7008 -0.4061 -0.9114
 8981SOL    HW127883   1.691   7.263   0.666  0.5362 -0.1335 -3.4153
 8981SOL    HW227884   1.578   7.172   0.624 -0.5064  0.2724 -1.6337
 8982SOL     OW27885   6.080   3.351   2.157 -0.0783  0.0128  0.0668
 8982SOL    HW127886   6.125   3.418   2.210 -0.0006  0.5164 -0.6164
 8982SOL    HW227887   6.027   3.401   2.095 -1.0113 -0.5766  0.3694
 8983SOL     OW27888   5.219   5.097   4.397 -0.4478 -0.0380  0.3475
 8983SOL    HW127889   5.178   5.078   4.313 -1.6207 -0.5926  1.0124
 8983SOL    HW227890   5.195   5.187   4.416 -0.7686 -0.1307  0.3957
 8984SOL     OW27891   2.964   1.653   4.773 -0.1920 -0.2329 -0.1780
 8984SOL    HW127892   3.040   1.680   4.825 -1.2075  0.6644  0.8737
 8984SOL    HW227893   2.932   1.733   4.734 -0.8314 -0.5502 -0.3071
 8985SOL     OW27894   2.336   3.297   1.758  0.1408  0.0855 -0.0204
 8985SOL    HW127895   2.303   3.374   1.805 -2.3961 -2.0698  2.0413
 8985SOL    HW227896   2.278   3.289   1.682  0.9328  0.6368 -0.6960
 8986SOL     OW27897   5.877   0.992   5.096  0.2119  0.3029  0.0733
 8986SOL    HW127898   5.954   0.972   5.150 -0.7939 -1.3158  0.9680
 8986SOL    HW227899   5.889   0.940   5.017 -0.4788 -0.8679  0.7069
 8987SOL     OW27900   1.185   2.327   6.424  0.5379  0.3292 -0.3671
 8987SOL    HW127901   1.250   2.397   6.424  0.1048  0.7474 -1.5020
 8987SOL    HW227902   1.201   2.279   6.343 -0.2266  0.1090 -0.3988
 8988SOL     OW27903   0.929   3.039   0.087 -0.7625  0.1263  0.2288
 8988SOL    HW127904   0.877   3.110   0.125 -2.3833 -0.2392 -1.2187
 8988SOL    HW227905   0.892   2.959   0.123  0.9268 -0.0718  1.6910
 8989SOL     OW27906   1.035   1.903   5.680 -0.4785  0.4576 -0.1556
 8989SOL    HW127907   0.995   1.849   5.612 -1.8691  0.2014  0.8325
 8989SOL    HW227908   0.969   1.969   5.700  0.5900  1.5787 -0.2365
 8990SOL     OW27909   6.311   0.046   5.323  0.7572 -0.3622  0.7058
 8990SOL    HW127910   6.288   0.137   5.341 -0.7325 -0.8234  1.2984
 8990SOL    HW227911   6.272   0.028   5.237  0.7270 -0.5362  0.7557
 8991SOL     OW27912   2.975   4.042   4.722 -0.5434 -0.0521  0.0140
 8991SOL    HW127913   2.949   3.984   4.794  0.7384 -0.5456  0.1019
 8991SOL    HW227914   3.042   4.099   4.759 -0.0766 -0.1162 -0.7036
 8992SOL     OW27915   1.551   6.412   6.359  0.0014  0.0219 -0.5349
 8992SOL    HW127916   1.495   6.395   6.435  0.3145 -3.1680 -0.8731
 8992SOL    HW227917   1.494   6.399   6.283  0.6869 -1.2947 -0.8528
 8993SOL     OW27918   3.532   3.054   6.320  0.0069 -0.2740  0.1986
 8993SOL    HW127919   3.461   3.108   6.354 -0.8181 -0.4710 -1.1408
 8993SOL    HW227920   3.610   3.085   6.366 -1.0789 -0.8071  2.4986
 8994SOL     OW27921   6.728   6.812   3.839 -0.3947  0.1167  0.4526
 8994SOL    HW127922   6.739   6.726   3.797  0.3838  1.5288 -2.4535
 8994SOL    HW227923   6.816   6.850   3.838 -1.1405  1.9212 -0.6425
 8995SOL     OW27924   5.535   5.516   2.178  0.4888 -0.3228 -0.3188
 8995SOL    HW127925   5.491   5.440   2.216  0.7958 -1.3439 -1.9262
 8995SOL    HW227926   5.619   5.482   2.146 -0.0155  0.3197 -2.4641
 8996SOL     OW27927   0.883   2.686   3.747 -0.7264 -0.3248 -0.1861
 8996SOL    HW127928   0.932   2.767   3.735 -1.4341 -0.0471 -1.2742
 8996SOL    HW227929   0.792   2.709   3.731 -0.9234 -1.3696 -0.6783
 8997SOL     OW27930   5.023   1.459   7.038  0.2747  0.3607  0.1846
 8997SOL    HW127931   5.070   1.382   7.006  0.9263  0.4097  1.0086
 8997SOL    HW227932   5.068   1.532   6.995 -0.0285  0.3205 -0.2099
 8998SOL     OW27933   0.720   2.325   4.392 -0.2157  0.0668 -0.7637
 8998SOL    HW127934   0.704   2.401   4.336  0.3042  0.4991 -0.3350
 8998SOL    HW227935   0.666   2.256   4.354 -0.0614  0.4191 -1.6510
 8999SOL     OW27936   7.264   4.525   2.602 -0.2839 -0.2212  0.1744
 8999SOL    HW127937   7.249   4.470   2.678 -1.5016 -2.3552 -1.4903
 8999SOL    HW227938   7.306   4.467   2.538  0.0048  1.2683 -1.0516
 9000SOL     OW27939   4.516   5.826   3.848  0.0546  0.8738  0.3061
 9000SOL    HW127940   4.435   5.776   3.860 -0.6310  1.4315 -1.6542
 9000SOL    HW227941   4.583   5.760   3.831 -0.1389  0.4609  1.0808
 9001SOL     OW27942   3.293   4.349   5.749  0.1198  0.0155  0.6534
 9001SOL    HW127943   3.327   4.268   5.711  1.2086  0.0409  1.5295
 9001SOL    HW227944   3.273   4.404   5.673  1.8295 -0.1007  0.0605
 9002SOL     OW27945   0.597   1.689   3.090  0.1968  0.2961  0.1499
 9002SOL    HW127946   0.548   1.642   3.158  1.7503  1.3131  2.0897
 9002SOL    HW227947   0.531   1.710   3.024 -2.1913  2.0682  2.8499
 9003SOL     OW27948   4.787   1.887   5.882  0.0835 -0.2349 -0.2528
 9003SOL    HW127949   4.745   1.972   5.867 -0.3574 -0.3989  0.0297
 9003SOL    HW227950   4.824   1.864   5.797  0.3448  0.3116 -0.2953
 9004SOL     OW27951   3.822   7.056   6.931  0.2583  0.1674  0.8420
 9004SOL    HW127952   3.840   7.120   6.862  3.0123 -2.0006 -0.6665
 9004SOL    HW227953   3.765   6.991   6.889  1.4472 -0.8417  0.7355
 9005SOL     OW27954   6.438   4.817   6.526  0.2178 -0.7333 -0.5236
 9005SOL    HW127955   6.443   4.724   6.502  0.2092 -1.0846  0.7438
 9005SOL    HW227956   6.518   4.855   6.489  0.2411 -1.2532 -1.0291
 9006SOL     OW27957   0.730   6.069   5.068 -0.2469  0.2488  0.3213
 9006SOL    HW127958   0.770   5.986   5.094 -1.6895 -0.7757 -0.5893
 9006SOL    HW227959   0.638   6.060   5.093 -0.1636  2.1436  1.4535
 9007SOL     OW27960   2.048   2.606   7.413  0.1119 -0.0658  0.5854
 9007SOL    HW127961   2.007   2.692   7.410  0.9051  0.3506  1.3433
 9007SOL    HW227962   1.974   2.544   7.413 -0.4979  0.4171 -3.0447
 9008SOL     OW27963   4.958   6.704   3.721 -0.1459 -0.4676  0.3315
 9008SOL    HW127964   5.048   6.671   3.720 -0.6286 -1.9635 -2.4278
 9008SOL    HW227965   4.952   6.760   3.644 -1.6034 -0.4095  0.4620
 9009SOL     OW27966   5.478   2.385   7.258  0.1167  0.0818 -0.2462
 9009SOL    HW127967   5.535   2.389   7.335  2.9443 -2.1793 -2.0134
 9009SOL    HW227968   5.406   2.328   7.284  0.1330  0.6897  1.2066
 9010SOL     OW27969   3.029   5.674   2.589 -0.3460 -0.0293  0.0682
 9010SOL    HW127970   3.008   5.735   2.660  1.1231 -0.0812  0.5734
 9010SOL    HW227971   3.029   5.728   2.510 -1.3596  0.1475  0.1690
 9011SOL     OW27972   7.354   3.920   4.115  0.1940 -0.4915  0.5081
 9011SOL    HW127973   7.306   3.838   4.109  0.8041 -0.7656 -1.2279
 9011SOL    HW227974   7.446   3.894   4.126  0.3558 -0.0417  0.2728
 9012SOL     OW27975   6.390   5.534   0.624  0.0626 -0.7832 -0.1150
 9012SOL    HW127976   6.440   5.456   0.650  0.6901 -0.6823 -0.9873
 9012SOL    HW227977   6.456   5.593   0.587 -0.5358 -0.1626 -0.1973
 9013SOL     OW27978   3.950   4.585   6.293 -0.1615 -0.2022 -0.2610
 9013SOL    HW127979   3.902   4.564   6.373 -1.1972  2.2628 -0.1570
 9013SOL    HW227980   4.042   4.573   6.316 -0.4898 -0.3336  1.0239
 9014SOL     OW27981   0.494   3.182   6.477 -0.3930  0.1462 -0.3059
 9014SOL    HW127982   0.554   3.160   6.405 -0.4641 -1.3781  0.0662
 9014SOL    HW227983   0.545   3.165   6.556 -1.7596 -2.8643  0.0696
 9015SOL     OW27984   5.999   7.314   6.098 -0.6168  0.2908  0.8827
 9015SOL    HW127985   5.972   7.280   6.012  1.1533 -1.3105  0.9041
 9015SOL    HW227986   6.048   7.394   6.079  0.0729 -0.2494  0.3555
 9016SOL     OW27987   6.491   1.302   7.187 -0.0327 -0.1699 -0.3037
 9016SOL    HW127988   6.484   1.241   7.114 -1.1437  0.6044 -0.8845
 9016SOL    HW227989   6.420   1.277   7.246  0.7880 -0.7160  0.4690
 9017SOL     OW27990   6.582   2.669   0.077 -0.2302  0.5453 -0.2746
 9017SOL    HW127991   6.612   2.760   0.086  1.8114  0.0278 -1.2432
 9017SOL    HW227992   6.598   2.629   0.162  1.5121  0.4325 -0.5994
 9018SOL     OW27993   3.246   6.409   1.366 -0.5395  0.6509 -0.4399
 9018SOL    HW127994   3.240   6.419   1.271  0.2596  1.6335 -0.4064
 9018SOL    HW227995   3.335   6.375   1.380  0.0976  2.4608  0.0683
 9019SOL     OW27996   1.042   2.715   4.758  0.0293  0.0436 -0.6556
 9019SOL    HW127997   1.036   2.629   4.800 -0.6507  0.9284  1.1328
 9019SOL    HW227998   1.123   2.753   4.792  0.4896  0.0337 -1.6767
 9020SOL     OW27999   2.750   5.383   2.654 -0.3572 -0.6502 -0.9657
 9020SOL    HW128000   2.845   5.382   2.664 -0.2067  0.7276 -1.9828
 9020SOL    HW228001   2.718   5.420   2.736 -0.0088 -1.0272 -0.6556
 9021SOL     OW28002   5.421   2.616   1.657  0.3666 -0.0255 -0.5231
 9021SOL    HW128003   5.445   2.626   1.749  0.5617 -0.6460 -0.5074
 9021SOL    HW228004   5.434   2.523   1.638 -1.1120 -0.2117 -0.7675
 9022SOL     OW28005   3.964   5.852   7.238  0.5559 -0.4993 -0.1279
 9022SOL    HW128006   4.055   5.828   7.252  0.8525  0.7847  0.2944
 9022SOL    HW228007   3.914   5.787   7.288  1.2317 -1.1267 -0.2524
 9023SOL     OW28008   1.966   6.559   0.002  0.0079  0.1546  0.5004
 9023SOL    HW128009   1.957   6.521   0.089 -2.0158 -0.1540  0.2063
 9023SOL    HW228010   1.881   6.599  -0.016  0.0382 -0.6603 -1.7328
 9024SOL     OW28011   1.602   1.997   0.399 -0.6046  0.0865  0.2108
 9024SOL    HW128012   1.566   1.956   0.320  0.6666 -0.0007 -0.3569
 9024SOL    HW228013   1.527   2.006   0.458 -1.1751 -1.9266 -0.1127
 9025SOL     OW28014   7.346   5.608   0.683 -0.0428  0.3669  0.2328
 9025SOL    HW128015   7.356   5.689   0.633 -0.5548  0.0421 -0.4136
 9025SOL    HW228016   7.254   5.584   0.672  0.2237 -0.5789 -0.0320
 9026SOL     OW28017   5.563   5.709   0.981  0.2287  0.3314 -0.2753
 9026SOL    HW128018   5.594   5.799   0.967 -0.9022  0.7780 -0.0985
 9026SOL    HW228019   5.608   5.680   1.059 -0.0174  1.0690  0.1564
 9027SOL     OW28020   3.423   3.251   3.033  0.1551  0.7052 -0.0198
 9027SOL    HW128021   3.393   3.300   2.956  0.4735  0.0781 -0.5616
 9027SOL    HW228022   3.454   3.318   3.094 -1.7555  1.3443  0.3217
 9028SOL     OW28023   1.970   2.874   5.363  0.2831  0.1230  0.5987
 9028SOL    HW128024   1.914   2.885   5.440 -0.1673 -0.4846  0.3673
 9028SOL    HW228025   2.058   2.897   5.394  0.5298 -2.3445  1.9617
 9029SOL     OW28026   2.024   0.979   5.575  0.5100 -0.0743 -0.5978
 9029SOL    HW128027   1.953   0.952   5.633  0.4338  1.3645  0.0263
 9029SOL    HW228028   2.096   1.002   5.634  1.3706 -1.1098 -1.2063
 9030SOL     OW28029   3.729   1.310   6.932 -0.0496 -0.4504 -0.4769
 9030SOL    HW128030   3.673   1.235   6.954  1.8041 -1.2959  1.6767
 9030SOL    HW228031   3.703   1.378   6.995 -0.0187 -0.1457 -0.7918
 9031SOL     OW28032   1.137   6.844   6.995  0.8965  0.1670  0.3219
 9031SOL    HW128033   1.117   6.751   6.996  1.6080  0.0179  1.7580
 9031SOL    HW228034   1.232   6.849   7.002  0.9515  0.9981 -0.7086
 9032SOL     OW28035   5.598   0.414   5.807 -0.5482  0.2237  0.5299
 9032SOL    HW128036   5.508   0.444   5.820 -0.6117  0.5584 -0.5434
 9032SOL    HW228037   5.599   0.325   5.840 -1.3306  0.1526  0.3886
 9033SOL     OW28038   7.059   6.406   3.645 -0.5134  0.2329  0.1179
 9033SOL    HW128039   7.121   6.334   3.658 -0.0853  0.4583 -0.6605
 9033SOL    HW228040   6.979   6.362   3.614 -0.8051 -0.0664  1.2237
 9034SOL     OW28041   4.623   2.519   4.071 -0.0928 -0.0936 -0.0955
 9034SOL    HW128042   4.695   2.463   4.102 -1.3550 -0.6743  1.9257
 9034SOL    HW228043   4.665   2.578   4.008  1.3008 -3.4112 -2.6374
 9035SOL     OW28044   0.364   1.621   6.109 -0.5179  0.4186  0.1249
 9035SOL    HW128045   0.448   1.590   6.077 -0.8577  0.6128 -1.0132
 9035SOL    HW228046   0.330   1.549   6.163 -0.8200 -0.7801 -1.5971
 9036SOL     OW28047   6.885   3.831   1.167  0.2690 -0.2641  0.2347
 9036SOL    HW128048   6.836   3.898   1.215  0.4174 -0.1629  0.2470
 9036SOL    HW228049   6.915   3.770   1.235  2.4324  1.1067  0.5866
 9037SOL     OW28050   5.384   7.261   1.287  0.3463 -0.0760  0.2284
 9037SOL    HW128051   5.320   7.321   1.249  0.3496 -0.6747 -0.7625
 9037SOL    HW228052   5.334   7.212   1.352  0.0937  0.3051  0.3240
 9038SOL     OW28053   5.023   6.372   5.348 -0.5164  0.3353  0.4503
 9038SOL    HW128054   4.952   6.425   5.311 -0.8697 -0.0817  0.5157
 9038SOL    HW228055   4.978   6.305   5.399 -0.0782 -0.1583  0.1938
 9039SOL     OW28056   0.475   1.666   4.130 -0.2664 -0.0423  0.3092
 9039SOL    HW128057   0.545   1.640   4.069 -0.9699 -0.5059 -0.3227
 9039SOL    HW228058   0.518   1.669   4.215  0.7975  0.8405 -0.2272
 9040SOL     OW28059   5.797   2.854   1.077  0.3594 -0.2845 -0.6725
 9040SOL    HW128060   5.711   2.871   1.037  0.7383 -0.8572 -1.7717
 9040SOL    HW228061   5.839   2.940   1.080 -0.3841  0.0698  0.2418
 9041SOL     OW28062   4.769   1.094   3.323 -0.5867  0.3454 -0.3389
 9041SOL    HW128063   4.712   1.036   3.373  1.5117 -3.4070 -1.9424
 9041SOL    HW228064   4.857   1.063   3.342  0.8030  3.7994 -0.5063
 9042SOL     OW28065   3.792   7.168   4.040  0.1719 -0.4601 -0.1442
 9042SOL    HW128066   3.833   7.255   4.044  0.9399 -0.8617  1.4649
 9042SOL    HW228067   3.859   7.113   4.000 -0.4500 -0.2664 -1.4994
 9043SOL     OW28068   5.838   1.291   0.251  0.6529 -0.6532  0.0492
 9043SOL    HW128069   5.767   1.245   0.295 -0.1749 -2.0984 -2.6019
 9043SOL    HW228070   5.794   1.363   0.204  0.9981 -1.1937 -1.1237
 9044SOL     OW28071   0.763   4.238   5.818 -0.1271  0.5061  0.4024
 9044SOL    HW128072   0.836   4.281   5.862 -1.4227  1.8958  1.2938
 9044SOL    HW228073   0.744   4.161   5.871 -0.1337  0.8500  0.8990
 9045SOL     OW28074   5.847   4.056   3.480  0.3002  0.0917  0.1949
 9045SOL    HW128075   5.910   4.101   3.423  2.2603 -3.0320 -0.3933
 9045SOL    HW228076   5.791   4.009   3.419  0.4932 -0.9049  0.7664
 9046SOL     OW28077   4.724   1.434   0.386  0.3212 -0.2260  0.1879
 9046SOL    HW128078   4.664   1.441   0.312  1.7460  1.5092 -0.9021
 9046SOL    HW228079   4.753   1.343   0.386  0.5046 -0.1955 -1.5742
 9047SOL     OW28080   1.902   1.432   5.180 -0.3182  0.5091  0.2475
 9047SOL    HW128081   1.845   1.370   5.135 -0.9709  1.0851  0.2703
 9047SOL    HW228082   1.989   1.415   5.144 -0.7952  0.8433 -1.0974
 9048SOL     OW28083   6.108   5.167   0.747 -0.3273 -0.4831 -0.3583
 9048SOL    HW128084   6.085   5.116   0.669  0.8329  0.0465 -1.0780
 9048SOL    HW228085   6.024   5.195   0.783 -0.9647 -2.3944 -0.2681
 9049SOL     OW28086   1.597   1.807   6.735 -0.2240  0.3618 -0.2451
 9049SOL    HW128087   1.608   1.818   6.830 -0.4666 -0.2882 -0.1321
 9049SOL    HW228088   1.679   1.840   6.698 -0.7323  2.0589  0.0682
 9050SOL     OW28089   6.258   6.766   1.333  0.3990 -0.3623  0.0333
 9050SOL    HW128090   6.232   6.727   1.249 -0.1696  0.4049 -0.1660
 9050SOL    HW228091   6.330   6.711   1.364  0.8546 -0.4557 -1.1282
 9051SOL     OW28092   0.161   2.040   2.438 -0.8354  0.2639  0.7675
 9051SOL    HW128093   0.243   2.080   2.469  0.2081 -2.3006  1.5782
 9051SOL    HW228094   0.162   2.053   2.343 -1.4268  3.5567  1.1002
 9052SOL     OW28095   2.107   7.357   5.033  0.3123 -0.1280 -0.1436
 9052SOL    HW128096   2.202   7.356   5.046  0.3413 -0.9176 -0.3542
 9052SOL    HW228097   2.079   7.444   5.063  1.3124  0.7411 -1.6257
 9053SOL     OW28098   6.717   4.805   3.694 -0.3799 -0.0529  0.3639
 9053SOL    HW128099   6.733   4.798   3.788  2.5250 -0.3161 -0.0686
 9053SOL    HW228100   6.686   4.718   3.668 -0.3363 -0.2425  0.9329
 9054SOL     OW28101   2.618   1.421   1.887  0.4650 -0.0016 -0.6408
 9054SOL    HW128102   2.611   1.429   1.792  1.9656  0.0084 -0.7708
 9054SOL    HW228103   2.703   1.460   1.909 -0.4711  1.3338  0.8829
 9055SOL     OW28104   6.311   6.632   4.899 -0.1211  0.1924  0.5297
 9055SOL    HW128105   6.289   6.576   4.823 -0.8598  0.7002  0.3605
 9055SOL    HW228106   6.228   6.642   4.946  0.5589 -1.1210  2.1083
 9056SOL     OW28107   0.450   2.893   0.500  0.1094 -0.3330 -0.7620
 9056SOL    HW128108   0.477   2.978   0.535  1.0672 -0.4085 -1.2974
 9056SOL    HW228109   0.405   2.851   0.574  1.0299 -0.0024  0.0155
 9057SOL     OW28110   1.876   6.760   7.118 -0.3756 -0.5525 -0.3738
 9057SOL    HW128111   1.862   6.816   7.195 -0.5956 -1.7916  0.5276
 9057SOL    HW228112   1.806   6.783   7.057 -0.4403  0.1699 -0.0296
 9058SOL     OW28113   0.079   3.130   0.833  0.2203 -0.0013  0.1253
 9058SOL    HW128114   0.166   3.148   0.796  0.6494 -0.0659  1.0836
 9058SOL    HW228115   0.018   3.154   0.763  0.9889  0.4693 -0.4005
 9059SOL     OW28116   5.787   4.524   4.753  0.2039 -0.4140 -0.0376
 9059SOL    HW128117   5.727   4.457   4.719  0.2427 -0.6287  0.3157
 9059SOL    HW228118   5.846   4.476   4.812  1.3004 -0.3817 -1.0554
 9060SOL     OW28119   2.815   0.940   6.664  0.2553  0.5840  0.0604
 9060SOL    HW128120   2.873   0.865   6.680 -0.9722 -0.1570  1.1741
 9060SOL    HW228121   2.842   0.973   6.578  0.7398 -1.2103 -0.5182
 9061SOL     OW28122   3.328   2.951   5.197 -0.0080 -0.4892 -0.3744
 9061SOL    HW128123   3.260   3.010   5.230 -0.7480 -1.3833 -0.2796
 9061SOL    HW228124   3.410   2.992   5.225 -0.5608 -0.8320  2.0085
 9062SOL     OW28125   3.195   7.400   5.336 -0.4279 -0.6410  0.0710
 9062SOL    HW128126   3.237   7.462   5.397 -0.8532  0.5643 -0.8175
 9062SOL    HW228127   3.254   7.398   5.261 -0.2232 -1.6367  0.2501
 9063SOL     OW28128   6.777   4.728   5.772 -0.0669 -0.3582  0.1583
 9063SOL    HW128129   6.804   4.692   5.856  0.8179 -0.1683 -0.0382
 9063SOL    HW228130   6.715   4.663   5.737  1.1652 -1.5074  0.0100
 9064SOL     OW28131   4.698   5.380   4.357  0.3277 -0.0583  0.0463
 9064SOL    HW128132   4.747   5.383   4.275  1.8651 -0.3642  0.9179
 9064SOL    HW228133   4.652   5.464   4.360  2.2666  1.0541  0.0463
 9065SOL     OW28134   4.390   3.868   6.228  0.0887  0.4408  0.1611
 9065SOL    HW128135   4.314   3.861   6.286 -0.1934  3.6449  0.3571
 9065SOL    HW228136   4.353   3.863   6.140 -0.1903  0.7951  0.2562
 9066SOL     OW28137   6.094   6.690   4.138  0.3843  0.1672 -0.0695
 9066SOL    HW128138   6.039   6.710   4.062  0.0405 -0.4551  0.0067
 9066SOL    HW228139   6.051   6.734   4.211  1.8505  2.5785 -0.5216
 9067SOL     OW28140   2.406   2.759   3.473  0.2217 -0.6087 -0.6515
 9067SOL    HW128141   2.348   2.792   3.405  0.5544  1.8380  0.1581
 9067SOL    HW228142   2.493   2.791   3.448  0.9852 -2.7015 -0.8962
 9068SOL     OW28143   7.122   5.180   0.929  0.1918  0.6177 -0.3214
 9068SOL    HW128144   7.172   5.193   0.849  0.3177 -1.6184 -0.6770
 9068SOL    HW228145   7.182   5.132   0.986 -0.8862 -0.4273 -0.0296
 9069SOL     OW28146   2.709   6.789   5.921 -0.5165 -0.2272 -0.4586
 9069SOL    HW128147   2.800   6.787   5.949 -0.7731 -0.0004  0.3979
 9069SOL    HW228148   2.667   6.718   5.968 -0.9612  0.1846 -0.2220
 9070SOL     OW28149   1.756   5.261   3.626 -0.0489  0.2777 -0.1575
 9070SOL    HW128150   1.715   5.233   3.707 -0.8338 -2.1104 -1.2866
 9070SOL    HW228151   1.825   5.321   3.653  0.9824 -1.9011  2.4455
 9071SOL     OW28152   0.033   1.578   2.279  0.2739 -0.7772 -0.2218
 9071SOL    HW128153  -0.031   1.639   2.317  1.4351  0.5093 -0.2794
 9071SOL    HW228154   0.095   1.562   2.350  1.9028  0.8560 -1.2160
 9072SOL     OW28155   4.514   2.849   1.195  0.2757  1.1736 -0.2465
 9072SOL    HW128156   4.535   2.942   1.184 -1.2584  1.5110 -0.5235
 9072SOL    HW228157   4.446   2.832   1.130  1.0007 -0.3307 -0.6736
 9073SOL     OW28158   2.424   6.780   3.165 -0.6085  0.3781 -0.3267
 9073SOL    HW128159   2.372   6.829   3.228  0.5410  0.5480  0.5136
 9073SOL    HW228160   2.462   6.708   3.215 -0.2775  0.0815 -0.9859
 9074SOL     OW28161   4.569   6.530   1.918  0.8188 -0.0592  0.2037
 9074SOL    HW128162   4.512   6.562   1.848  0.8163 -1.9465 -0.7136
 9074SOL    HW228163   4.544   6.439   1.930  2.9204 -0.6482  0.5275
 9075SOL     OW28164   0.956   5.816   3.569 -0.4116  0.2750  0.0503
 9075SOL    HW128165   1.044   5.783   3.584  0.1107  1.4853 -0.2564
 9075SOL    HW228166   0.936   5.793   3.478 -0.1720  0.5045 -0.0629
 9076SOL     OW28167   2.823   0.490   3.689 -0.7702 -0.1000 -0.2081
 9076SOL    HW128168   2.756   0.519   3.627  0.6485  0.4433 -1.5483
 9076SOL    HW228169   2.845   0.570   3.738  0.5477  0.3343 -1.4183
 9077SOL     OW28170   6.891   1.155   6.473  0.1035 -0.1244 -0.0693
 9077SOL    HW128171   6.888   1.238   6.425 -0.7214 -0.0741  0.0557
 9077SOL    HW228172   6.958   1.104   6.429  0.3606  0.4728 -0.3772
 9078SOL     OW28173   2.142   7.116   1.389 -0.2356  0.3163 -1.1544
 9078SOL    HW128174   2.111   7.101   1.478  0.0674  0.9915 -0.9270
 9078SOL    HW228175   2.132   7.031   1.345 -0.0446 -0.1172 -0.3748
 9079SOL     OW28176   4.930   3.967   1.252 -0.2873 -0.6700  0.0713
 9079SOL    HW128177   4.890   4.038   1.302 -0.2611 -0.5794 -0.0356
 9079SOL    HW228178   4.867   3.948   1.183 -0.6106 -1.2218  0.5115
 9080SOL     OW28179   6.708   3.870   2.243 -0.4227  0.0290  0.0200
 9080SOL    HW128180   6.776   3.828   2.295 -1.0861 -1.3119 -0.1566
 9080SOL    HW228181   6.635   3.882   2.303  0.2446  2.3701  0.4755
 9081SOL     OW28182   3.781   2.626   0.880  0.3099  0.6153 -0.0804
 9081SOL    HW128183   3.792   2.672   0.963  0.5604 -0.0672  0.2632
 9081SOL    HW228184   3.836   2.675   0.819 -0.9696  1.9909 -0.2018
 9082SOL     OW28185   0.847   5.262   0.036  0.0289  0.6485 -0.3551
 9082SOL    HW128186   0.775   5.225   0.086 -0.3788  2.4068  0.4252
 9082SOL    HW228187   0.821   5.252  -0.055 -0.3002 -0.4367 -0.1641
 9083SOL     OW28188   0.149   4.132   0.088  0.6773  0.5754  0.6161
 9083SOL    HW128189   0.099   4.102   0.012 -0.0293  0.5595  1.0812
 9083SOL    HW228190   0.093   4.111   0.163  1.1248  1.1032  1.1007
 9084SOL     OW28191   0.614   1.680   2.521 -0.2089  0.3519  0.4820
 9084SOL    HW128192   0.529   1.723   2.530 -0.0193  1.1934 -1.3209
 9084SOL    HW228193   0.621   1.661   2.428  0.0076 -3.0880  1.0857
 9085SOL     OW28194   2.339   6.904   4.731  0.8248 -0.3384  0.1905
 9085SOL    HW128195   2.349   6.999   4.736  0.3925 -0.3468  1.9436
 9085SOL    HW228196   2.409   6.875   4.673  0.8378  1.0599 -0.5255
 9086SOL     OW28197   3.094   2.334   3.668  0.0569 -0.2583  0.0054
 9086SOL    HW128198   3.041   2.390   3.725  1.3185  0.5623  0.4156
 9086SOL    HW228199   3.075   2.245   3.699  0.6278  0.1587  1.6742
 9087SOL     OW28200   2.338   0.491   3.919  0.3264  0.2340 -0.1617
 9087SOL    HW128201   2.299   0.472   4.004 -0.2551 -0.4831 -0.5699
 9087SOL    HW228202   2.285   0.562   3.883 -1.0218 -1.1066 -0.9516
 9088SOL     OW28203   5.583   2.115   4.544  0.4458 -0.9205 -0.3203
 9088SOL    HW128204   5.565   2.021   4.537 -0.1158 -0.8216 -0.2781
 9088SOL    HW228205   5.610   2.127   4.635 -0.5278 -0.8817 -0.0233
 9089SOL     OW28206   5.421   4.991   5.803  0.3365 -0.6646 -0.3269
 9089SOL    HW128207   5.461   4.967   5.886 -0.4820 -1.0073 -0.0280
 9089SOL    HW228208   5.496   5.000   5.743  0.9815  0.1472  0.5582
 9090SOL     OW28209   3.212   4.905   2.096  0.0680  0.3236  0.3838
 9090SOL    HW128210   3.244   4.817   2.116  0.4551  0.4886  0.4879
 9090SOL    HW228211   3.260   4.962   2.156 -2.6399  0.2901  2.7773
 9091SOL     OW28212   0.553   2.509   6.179  0.1329  0.0238 -0.3044
 9091SOL    HW128213   0.460   2.523   6.159 -0.0182 -2.1855 -1.4518
 9091SOL    HW228214   0.564   2.544   6.267 -1.6075  0.9751 -0.4151
 9092SOL     OW28215   1.923   0.682   1.473  0.6032  0.1774 -0.3343
 9092SOL    HW128216   1.836   0.643   1.471 -1.0294  3.4528 -2.3521
 9092SOL    HW228217   1.942   0.693   1.566 -0.8918 -1.1031  0.1661
 9093SOL     OW28218   2.942   3.568   4.343 -0.2181  0.3637 -0.6831
 9093SOL    HW128219   2.900   3.524   4.417 -0.1293 -2.8086 -2.3519
 9093SOL    HW228220   2.950   3.500   4.276  1.3921  2.6082 -2.9554
 9094SOL     OW28221   1.541   1.761   2.314  0.2820 -0.3722 -0.5909
 9094SOL    HW128222   1.564   1.845   2.354 -0.5378 -0.5130  0.2062
 9094SOL    HW228223   1.617   1.738   2.262  1.4201 -0.2090  0.9386
 9095SOL     OW28224   0.541   2.382   7.315  0.5544 -0.4885 -0.7295
 9095SOL    HW128225   0.489   2.312   7.355  0.4258 -1.4758 -2.5264
 9095SOL    HW228226   0.513   2.461   7.361  1.0655 -1.6174  1.7111
 9096SOL     OW28227   6.420   7.020   2.798 -0.1742 -0.0694  0.2961
 9096SOL    HW128228   6.382   6.943   2.839 -0.4940 -1.0084 -1.6250
 9096SOL    HW228229   6.351   7.052   2.739  0.5924  0.6303 -0.2405
 9097SOL     OW28230   1.963   0.014   0.329  0.2241 -0.7156 -1.0291
 9097SOL    HW128231   2.044  -0.018   0.289 -1.1009 -1.0661 -3.7513
 9097SOL    HW228232   1.905   0.030   0.254 -1.8755  0.5058  0.7396
 9098SOL     OW28233   3.175   5.847   5.570  0.0598 -0.0239 -0.0884
 9098SOL    HW128234   3.243   5.855   5.503  0.4382  0.8167  0.3689
 9098SOL    HW228235   3.203   5.908   5.638 -2.3113  2.1029 -0.8708
 9099SOL     OW28236   2.652   5.173   2.167 -0.0905  0.2499 -0.3233
 9099SOL    HW128237   2.724   5.132   2.118  0.9222  1.4646  0.0824
 9099SOL    HW228238   2.684   5.177   2.257 -1.0304  0.0370  0.0241
 9100SOL     OW28239   0.264   1.126   0.043  0.3989  0.2542  0.5292
 9100SOL    HW128240   0.239   1.036   0.023  2.9851 -0.5696  0.6504
 9100SOL    HW228241   0.302   1.121   0.131  1.4507  1.2738  0.1546
 9101SOL     OW28242   4.067   3.173   2.306  0.2932 -0.1449  0.3382
 9101SOL    HW128243   3.987   3.121   2.309  0.7736 -0.9961 -0.6675
 9101SOL    HW228244   4.072   3.205   2.216  1.8336 -1.3922 -0.0724
 9102SOL     OW28245   3.493   7.185   6.267 -0.2325  0.1888  0.2638
 9102SOL    HW128246   3.498   7.161   6.174  2.0012  0.0155  0.3674
 9102SOL    HW228247   3.578   7.223   6.286 -0.4125 -0.3399  2.4024
 9103SOL     OW28248   7.290   4.642   4.219  0.2578 -0.8002  0.1508
 9103SOL    HW128249   7.265   4.550   4.217 -1.9096 -0.2629  0.0584
 9103SOL    HW228250   7.224   4.683   4.275 -0.1200  1.0396 -1.5450
 9104SOL     OW28251   0.473   6.730   4.084  0.2190  0.1499 -0.2391
 9104SOL    HW128252   0.449   6.818   4.114 -0.5051 -0.7694  2.1900
 9104SOL    HW228253   0.389   6.689   4.061  0.4933 -0.0767 -0.8582
 9105SOL     OW28254   3.051   0.296   2.575  0.2607  0.3002  0.1976
 9105SOL    HW128255   3.030   0.208   2.608  1.5424  0.0843  0.4991
 9105SOL    HW228256   3.068   0.347   2.654  2.3880  0.0369 -0.0269
 9106SOL     OW28257   7.006   0.710   2.058 -0.2460  0.2491  0.6399
 9106SOL    HW128258   6.917   0.679   2.041 -0.2231 -0.4092  1.6366
 9106SOL    HW228259   7.002   0.805   2.042 -0.3126 -0.1744 -2.5102
 9107SOL     OW28260   3.988   4.426   1.092 -0.2900  0.2525  0.5514
 9107SOL    HW128261   4.057   4.462   1.148  1.2796  0.1005 -1.1897
 9107SOL    HW228262   3.941   4.504   1.060 -0.7644  0.3746  1.5226
 9108SOL     OW28263   2.591   6.568   6.039  0.3414  0.9635  0.0876
 9108SOL    HW128264   2.606   6.476   6.015  1.9684  1.8441 -2.7216
 9108SOL    HW228265   2.525   6.564   6.108 -0.0315 -2.2752 -0.2935
 9109SOL     OW28266   3.716   5.481   6.379 -0.2330 -0.4489  0.0159
 9109SOL    HW128267   3.705   5.487   6.474 -1.5883 -1.3755 -0.0640
 9109SOL    HW228268   3.811   5.482   6.366 -0.0262 -0.5430  1.3909
 9110SOL     OW28269   3.632   3.454   0.258 -0.1438  0.4094  0.2617
 9110SOL    HW128270   3.708   3.452   0.200 -0.9067  0.7819 -0.7805
 9110SOL    HW228271   3.580   3.377   0.233 -0.5674  0.6716  0.3121
 9111SOL     OW28272   0.006   5.146   4.457 -0.1705 -0.0609  0.0218
 9111SOL    HW128273   0.065   5.154   4.382 -1.1186 -1.3800 -0.9132
 9111SOL    HW228274   0.055   5.093   4.520  0.4442  0.6338  0.1359
 9112SOL     OW28275   4.115   4.866   7.379 -0.3835 -0.9332  0.7020
 9112SOL    HW128276   4.140   4.908   7.297  1.5678  0.8443  2.0863
 9112SOL    HW228277   4.171   4.788   7.384  0.2302 -0.4889  0.8016
 9113SOL     OW28278   1.906   2.723   1.925 -0.3658 -0.1790 -0.2100
 9113SOL    HW128279   1.979   2.742   1.985 -0.8947  1.4897 -0.0349
 9113SOL    HW228280   1.836   2.781   1.954 -1.0243 -0.1579 -1.7435
 9114SOL     OW28281   6.407   0.515   1.727  0.7988 -0.0637  0.3836
 9114SOL    HW128282   6.472   0.468   1.781 -1.3992 -0.5094  2.8576
 9114SOL    HW228283   6.347   0.446   1.698 -0.0307  0.6494  0.3813
 9115SOL     OW28284   2.001   3.781   1.890 -0.2839  0.0617  0.1325
 9115SOL    HW128285   1.920   3.795   1.939 -0.8664 -0.2724 -0.7094
 9115SOL    HW228286   1.980   3.711   1.828  0.9130 -0.6543  0.4831
 9116SOL     OW28287   4.527   2.403   0.613 -0.4367 -0.2854  0.1913
 9116SOL    HW128288   4.470   2.478   0.594 -0.0781  0.1274  0.7206
 9116SOL    HW228289   4.609   2.424   0.570 -0.2470 -0.2365  0.5677
 9117SOL     OW28290   5.059   5.709   1.806  0.7383  0.2510 -1.0758
 9117SOL    HW128291   5.100   5.752   1.880 -2.1633  1.1670  0.1300
 9117SOL    HW228292   5.081   5.765   1.731  2.5584  0.0624 -0.7337
 9118SOL     OW28293   4.205   4.890   3.276 -0.4321 -0.4481 -0.1797
 9118SOL    HW128294   4.164   4.823   3.221  0.1817 -0.7672 -0.2583
 9118SOL    HW228295   4.223   4.845   3.359 -1.7850  0.1575  0.4788
 9119SOL     OW28296   7.302   0.480   7.085 -0.2421 -0.1661  0.1990
 9119SOL    HW128297   7.313   0.398   7.038  0.3427 -0.3353  0.6143
 9119SOL    HW228298   7.360   0.542   7.041 -2.0064  0.5434 -1.2493
 9120SOL     OW28299   4.617   0.385   6.845  0.1403 -0.4907  0.1471
 9120SOL    HW128300   4.581   0.298   6.830  1.6863 -1.0422 -0.4973
 9120SOL    HW228301   4.550   0.444   6.810 -0.5834 -1.4276 -0.1094
 9121SOL     OW28302   5.457   6.207   0.980 -0.2488  0.1697 -0.2098
 9121SOL    HW128303   5.436   6.252   1.062 -2.3882  0.7209 -0.9914
 9121SOL    HW228304   5.435   6.116   0.997  1.0095 -0.0580  0.3478
 9122SOL     OW28305   4.155   3.694   6.611  0.4821  0.1286 -0.1414
 9122SOL    HW128306   4.204   3.616   6.587  1.6599  0.4009  1.2554
 9122SOL    HW228307   4.222   3.757   6.639 -0.4823  1.4242 -0.6413
 9123SOL     OW28308   4.909   3.918   6.954  0.0231  0.0249 -0.0016
 9123SOL    HW128309   4.853   3.845   6.926  1.1475 -0.7570 -0.2512
 9123SOL    HW228310   4.971   3.879   7.016  0.7526  0.7322 -0.2684
 9124SOL     OW28311   3.000   2.862   5.281 -0.8683 -0.5157 -0.4095
 9124SOL    HW128312   3.071   2.803   5.308 -0.2101  0.0501 -0.8497
 9124SOL    HW228313   3.009   2.868   5.186  0.2904  1.7469 -0.2270
 9125SOL     OW28314   0.572   7.047   7.260  0.1479 -0.4486 -0.1622
 9125SOL    HW128315   0.592   7.032   7.352  0.6707 -0.1645 -0.2247
 9125SOL    HW228316   0.658   7.058   7.218 -0.0893 -0.4402 -0.6588
 9126SOL     OW28317   7.339   7.265   5.711  0.6607 -0.1786  0.0946
 9126SOL    HW128318   7.251   7.234   5.731  0.2605  0.6109 -0.3764
 9126SOL    HW228319   7.387   7.257   5.794 -0.2820  0.7670  0.7702
 9127SOL     OW28320   6.809   2.945   2.224  0.2739  0.1079  0.2225
 9127SOL    HW128321   6.750   2.975   2.293  0.3896 -0.2249  0.4664
 9127SOL    HW228322   6.855   3.025   2.196 -0.4675  0.4152 -0.1489
 9128SOL     OW28323   4.383   6.116   0.523  0.0822 -0.0095 -0.0748
 9128SOL    HW128324   4.378   6.205   0.557 -0.7726 -0.3579  0.7377
 9128SOL    HW228325   4.342   6.121   0.437 -3.9746 -0.3783  1.6020
 9129SOL     OW28326   5.878   0.228   3.040 -0.1796 -0.6481  0.4671
 9129SOL    HW128327   5.798   0.214   3.090  0.2567 -3.8419  0.4678
 9129SOL    HW228328   5.926   0.146   3.048  1.6309  0.0263 -2.1448
 9130SOL     OW28329   0.218   2.593   1.428 -0.0663  0.4095  0.8931
 9130SOL    HW128330   0.134   2.548   1.415  0.1783 -0.1071  1.0855
 9130SOL    HW228331   0.266   2.537   1.488 -0.8224  2.3191  3.4471
 9131SOL     OW28332   6.778   4.306   1.478  0.0952  0.5515  0.3787
 9131SOL    HW128333   6.829   4.262   1.410  1.4845  1.2468  0.9351
 9131SOL    HW228334   6.838   4.314   1.552 -1.0279  0.8418  1.2892
 9132SOL     OW28335   4.382   5.492   6.916 -0.1911  0.3927 -0.4545
 9132SOL    HW128336   4.470   5.502   6.952  0.1158 -1.6051 -0.5544
 9132SOL    HW228337   4.328   5.466   6.991 -0.7324  1.6663 -0.3791
 9133SOL     OW28338   5.529   3.136   4.094  0.5221  0.6394  0.5233
 9133SOL    HW128339   5.519   3.176   4.181 -0.2759  2.4359 -0.3304
 9133SOL    HW228340   5.476   3.192   4.036  2.3837  0.5288 -1.4154
 9134SOL     OW28341   0.872   6.136   2.564  0.4170  0.0570  0.2702
 9134SOL    HW128342   0.809   6.176   2.625  0.6201  1.4333 -0.3908
 9134SOL    HW228343   0.884   6.048   2.598 -0.2879  0.4396  1.6178
 9135SOL     OW28344   4.465   1.416   0.938  0.2216  0.3058  0.6646
 9135SOL    HW128345   4.475   1.511   0.944  0.7152  0.2024  2.0847
 9135SOL    HW228346   4.406   1.394   1.010 -1.9882 -0.2359 -1.2082
 9136SOL     OW28347   2.213   3.121   3.060 -0.2843  0.2736  0.2367
 9136SOL    HW128348   2.181   3.211   3.072 -0.2084  0.0858  2.1699
 9136SOL    HW228349   2.134   3.068   3.052 -0.3338  0.5662 -1.8754
 9137SOL     OW28350   3.583   3.265   0.909  0.0531 -0.0366  0.0064
 9137SOL    HW128351   3.567   3.171   0.899 -1.1496  0.2838 -1.3433
 9137SOL    HW228352   3.497   3.305   0.902  0.5575  1.1883  0.5482
 9138SOL     OW28353   5.584   6.915   5.363  0.1215  0.3510 -0.4195
 9138SOL    HW128354   5.676   6.923   5.388  0.4561  0.1931 -1.5194
 9138SOL    HW228355   5.574   6.824   5.335 -0.4750  0.2623  0.0481
 9139SOL     OW28356   5.069   3.700   2.108 -0.1507 -0.1689 -0.2091
 9139SOL    HW128357   5.165   3.694   2.109 -0.0937  0.5197  0.9321
 9139SOL    HW228358   5.052   3.794   2.099 -0.7284 -0.3145 -0.6782
 9140SOL     OW28359   5.221   2.585   4.392  0.2744  0.3374 -0.5177
 9140SOL    HW128360   5.198   2.674   4.419  1.1174  0.7575 -1.1394
 9140SOL    HW228361   5.205   2.531   4.470  1.9267  1.3971  0.6243
 9141SOL     OW28362   2.130   4.546   3.082  0.2633 -0.1168 -1.1330
 9141SOL    HW128363   2.084   4.476   3.128 -0.1018 -0.9377 -2.6915
 9141SOL    HW228364   2.092   4.547   2.994  0.3533  1.9610 -1.2009
 9142SOL     OW28365   0.014   2.470   6.363 -0.1270  0.0514  0.4803
 9142SOL    HW128366  -0.053   2.511   6.418 -0.0800  0.9194 -0.1005
 9142SOL    HW228367  -0.033   2.400   6.317 -0.6430  0.6392  0.0923
 9143SOL     OW28368   6.692   1.965   3.865 -0.1870  0.1583 -0.2353
 9143SOL    HW128369   6.734   1.946   3.781 -0.5513 -0.9495 -0.1831
 9143SOL    HW228370   6.602   1.989   3.842 -0.2070  0.1266 -0.1906
 9144SOL     OW28371   2.011   4.281   2.259  0.3663 -0.2915 -0.1130
 9144SOL    HW128372   2.069   4.205   2.260 -0.4452 -0.9544 -1.3336
 9144SOL    HW228373   1.926   4.246   2.233 -0.9185  0.4605  2.6403
 9145SOL     OW28374   1.127   1.531   4.020 -0.0345  0.3674 -0.6114
 9145SOL    HW128375   1.198   1.473   3.993  1.2535  1.3383  0.5630
 9145SOL    HW228376   1.147   1.615   3.978 -0.7728  0.5278 -0.6606
 9146SOL     OW28377   5.037   0.289   5.784 -0.5791 -0.8349  0.6060
 9146SOL    HW128378   4.964   0.259   5.729  0.0618  1.6105 -1.8132
 9146SOL    HW228379   5.004   0.368   5.827  0.0131 -0.8377  1.0752
 9147SOL     OW28380   6.936   5.258   5.318 -0.2476 -0.1266 -0.2686
 9147SOL    HW128381   6.891   5.275   5.401  1.2676  1.6156  0.2761
 9147SOL    HW228382   6.943   5.163   5.313 -1.5364 -0.3124  0.9497
 9148SOL     OW28383   1.663   6.152   4.240 -0.0178 -0.1705  0.2247
 9148SOL    HW128384   1.737   6.147   4.301 -0.7015  0.3281  1.1094
 9148SOL    HW228385   1.704   6.162   4.154  0.9750 -1.4349  0.5111
 9149SOL     OW28386   5.762   4.459   1.700 -0.0643 -0.4408  0.3415
 9149SOL    HW128387   5.754   4.552   1.721 -1.4110 -0.0700 -1.5142
 9149SOL    HW228388   5.810   4.457   1.617  2.1984 -1.5985  1.5936
 9150SOL     OW28389   2.379   6.020   1.891  0.3843  0.3052  0.2785
 9150SOL    HW128390   2.328   5.939   1.891  2.1965 -0.9035  1.3578
 9150SOL    HW228391   2.443   6.008   1.821 -0.9684  1.9879 -1.3625
 9151SOL     OW28392   2.945   4.162   7.094 -0.5061 -0.2333 -0.2469
 9151SOL    HW128393   2.971   4.231   7.033  0.8054 -0.8990 -0.4945
 9151SOL    HW228394   2.971   4.195   7.180  0.3390 -0.4969 -0.3911
 9152SOL     OW28395   6.675   6.458   2.021  0.5676 -0.0614  0.6511
 9152SOL    HW128396   6.740   6.389   2.008 -1.0239 -1.7384  1.0932
 9152SOL    HW228397   6.610   6.419   2.079 -1.7429  0.8984 -1.1187
 9153SOL     OW28398   4.996   1.179   4.723 -0.0856  0.2654 -0.1111
 9153SOL    HW128399   5.086   1.149   4.708 -0.2339 -0.6099  0.6232
 9153SOL    HW228400   4.959   1.113   4.782 -1.5480  0.0131 -1.2391
 9154SOL     OW28401   4.131   6.653   0.834 -0.4605  0.0358 -0.4514
 9154SOL    HW128402   4.053   6.679   0.786 -0.1146 -1.9396 -2.2249
 9154SOL    HW228403   4.098   6.617   0.916 -1.4548 -0.8760 -1.2257
 9155SOL     OW28404   4.962   0.645   6.802  0.0196  0.0164  0.0403
 9155SOL    HW128405   5.057   0.647   6.795  0.1253 -2.8147 -0.8869
 9155SOL    HW228406   4.933   0.604   6.720 -1.9006 -0.1037  0.7196
 9156SOL     OW28407   6.007   0.983   3.764  0.2588  0.0903 -0.0073
 9156SOL    HW128408   5.956   1.013   3.839  0.4701  0.6758 -0.0954
 9156SOL    HW228409   5.942   0.969   3.695 -0.1139 -1.7811  0.6768
 9157SOL     OW28410   3.621   2.850   6.589 -0.1861  0.0102 -0.5534
 9157SOL    HW128411   3.632   2.896   6.672 -0.4614 -2.4340  0.9192
 9157SOL    HW228412   3.526   2.843   6.577 -0.1908  1.7604 -1.9704
 9158SOL     OW28413   4.784   4.383   5.959  0.7408  0.4838 -0.0653
 9158SOL    HW128414   4.750   4.306   5.912 -0.4239 -0.6223  2.3652
 9158SOL    HW228415   4.870   4.399   5.921  0.4003 -1.1416 -1.6305
 9159SOL     OW28416   6.454   3.639   2.520  0.6058 -0.5084 -0.3753
 9159SOL    HW128417   6.401   3.560   2.535  0.1281 -0.0167  0.5773
 9159SOL    HW228418   6.441   3.658   2.427 -1.7158  0.1660  0.0202
 9160SOL     OW28419   5.433   0.752   6.218 -0.2216  0.4368  0.1734
 9160SOL    HW128420   5.521   0.744   6.181  1.1012  1.3957  2.8259
 9160SOL    HW228421   5.409   0.843   6.200 -0.0170  0.5979  0.6774
 9161SOL     OW28422   1.058   4.683   4.454 -0.0985 -0.0283  0.4199
 9161SOL    HW128423   1.060   4.588   4.464  0.9382 -0.0956 -0.2992
 9161SOL    HW228424   1.051   4.716   4.544  0.6205 -0.7609  0.7547
 9162SOL     OW28425   0.657   2.132   2.651 -0.1506 -0.0959  0.0426
 9162SOL    HW128426   0.683   2.209   2.600  1.0965 -0.4479  0.1081
 9162SOL    HW228427   0.695   2.058   2.604 -1.0573 -0.6561  0.1640
 9163SOL     OW28428   3.730   0.291   3.396  0.1990 -0.3650 -0.5440
 9163SOL    HW128429   3.737   0.358   3.328 -1.4665 -1.0109 -1.3955
 9163SOL    HW228430   3.691   0.337   3.471  0.3833 -0.0686 -0.6264
 9164SOL     OW28431   7.302   7.229   6.911 -0.4487 -0.3565 -0.3220
 9164SOL    HW128432   7.352   7.277   6.845 -1.1827  0.7600 -0.0954
 9164SOL    HW228433   7.251   7.165   6.860 -1.2543  0.7149 -0.8878
 9165SOL     OW28434   2.536   5.999   3.520 -0.0047  0.0343  0.4406
 9165SOL    HW128435   2.621   6.002   3.477 -0.1370 -0.1784  0.1633
 9165SOL    HW228436   2.473   5.983   3.449 -0.2364 -0.1912  0.6929
 9166SOL     OW28437   1.401   5.369   5.454  0.3928 -0.2182  0.0384
 9166SOL    HW128438   1.471   5.306   5.442 -1.0312 -1.9308  0.2307
 9166SOL    HW228439   1.386   5.371   5.549 -0.0957 -0.2027 -0.0349
 9167SOL     OW28440   5.340   2.599   3.642  0.7128 -0.1198 -0.1721
 9167SOL    HW128441   5.379   2.677   3.603  1.4782 -0.8136 -0.8360
 9167SOL    HW228442   5.246   2.616   3.641  0.9352  1.4326  1.1321
 9168SOL     OW28443   0.641   5.136   2.774  0.2929 -0.8378  0.0234
 9168SOL    HW128444   0.650   5.177   2.688  2.6953 -0.3470  0.4489
 9168SOL    HW228445   0.552   5.158   2.802  0.9380  2.9285 -0.3777
 9169SOL     OW28446   5.903   7.116   3.055  0.1570 -0.2141  0.0541
 9169SOL    HW128447   5.945   7.062   2.987  2.1624  1.3381 -0.0222
 9169SOL    HW228448   5.833   7.162   3.008  0.5055 -0.3409 -0.6099
 9170SOL     OW28449   6.540   3.914   1.430 -0.0233  0.1087 -0.7972
 9170SOL    HW128450   6.453   3.945   1.405 -0.8256 -1.4774 -0.1302
 9170SOL    HW228451   6.530   3.884   1.520  0.3736 -2.9272 -1.6539
 9171SOL     OW28452   4.569   2.600   5.354  0.0727  0.5650  0.0691
 9171SOL    HW128453   4.622   2.523   5.333 -1.3330 -0.4854  0.2205
 9171SOL    HW228454   4.585   2.661   5.282  1.4174  0.2598  0.0875
 9172SOL     OW28455   2.704   5.082   0.122 -0.5870  0.1074  0.2507
 9172SOL    HW128456   2.645   5.008   0.138  0.9592 -0.7872  2.3406
 9172SOL    HW228457   2.791   5.045   0.132  0.2626  1.9966  0.2111
 9173SOL     OW28458   2.433   1.265   2.684 -0.2864 -0.1158 -0.2824
 9173SOL    HW128459   2.402   1.271   2.594  0.2996 -1.4973 -0.6119
 9173SOL    HW228460   2.512   1.211   2.679  0.0766  0.2441  0.9901
 9174SOL     OW28461   0.974   5.839   7.114  0.0288  0.0044 -0.3120
 9174SOL    HW128462   0.910   5.814   7.181  0.4854 -0.7288 -0.1473
 9174SOL    HW228463   0.946   5.792   7.036  0.9728 -1.1576  0.0359
 9175SOL     OW28464   4.376   5.738   1.951 -0.2556  0.3519 -0.0854
 9175SOL    HW128465   4.455   5.759   2.002 -0.5058  0.4381  0.2698
 9175SOL    HW228466   4.409   5.713   1.865  0.0756  2.1265 -0.5232
 9176SOL     OW28467   3.363   5.746   5.352 -0.2632  0.2283 -0.3484
 9176SOL    HW128468   3.346   5.692   5.275  0.0321 -0.3969  0.0209
 9176SOL    HW228469   3.456   5.768   5.345  0.4519 -1.9767  1.1443
 9177SOL     OW28470   0.045   1.990   7.386  0.0810 -0.1537 -0.5860
 9177SOL    HW128471   0.039   1.937   7.307  0.0984 -1.0653  0.0030
 9177SOL    HW228472   0.125   1.960   7.428 -0.4166 -0.3618  0.2407
 9178SOL     OW28473   5.050   4.306   1.989 -0.4335 -0.1481 -0.2701
 9178SOL    HW128474   5.073   4.217   1.964  0.6938 -0.2299  0.9680
 9178SOL    HW228475   5.009   4.297   2.075 -1.1666  0.4444 -0.5496
 9179SOL     OW28476   1.574   2.462   3.594 -0.0842  0.1266  0.1563
 9179SOL    HW128477   1.629   2.519   3.648  3.4517 -1.9199 -0.9315
 9179SOL    HW228478   1.623   2.452   3.513 -1.5676 -2.7568 -0.5017
 9180SOL     OW28479   1.018   1.967   7.127  0.1141 -0.3685  0.3333
 9180SOL    HW128480   1.104   1.947   7.166 -0.5523 -0.1848  2.0031
 9180SOL    HW228481   0.956   1.918   7.181 -1.0752  1.7297  1.0018
 9181SOL     OW28482   0.266   5.370   7.124  0.2874  0.0367 -0.2904
 9181SOL    HW128483   0.245   5.432   7.193 -0.2769 -1.3369  0.8253
 9181SOL    HW228484   0.337   5.412   7.075 -1.0044  2.1497 -0.4574
 9182SOL     OW28485   7.313   6.975   3.371  0.4045  0.6887 -0.0851
 9182SOL    HW128486   7.329   6.990   3.464 -2.0853  0.4228  0.4603
 9182SOL    HW228487   7.323   7.061   3.330 -1.1710  1.3917  0.9162
 9183SOL     OW28488   2.400   5.532   3.957 -0.1484  0.2137  0.4286
 9183SOL    HW128489   2.402   5.613   4.007  1.0623  0.4149  0.0681
 9183SOL    HW228490   2.444   5.468   4.012  1.6286  0.5525 -0.5382
 9184SOL     OW28491   1.895   0.600   4.619 -0.7419  0.0416  0.5221
 9184SOL    HW128492   1.954   0.598   4.695  0.5353  0.5043 -0.4403
 9184SOL    HW228493   1.853   0.686   4.624  2.4442  1.8923 -1.5392
 9185SOL     OW28494   0.081   3.628   1.398 -0.3839 -0.0175 -0.5715
 9185SOL    HW128495   0.089   3.720   1.374  2.1081  0.0843  0.3060
 9185SOL    HW228496   0.018   3.627   1.470 -0.0267  1.0846 -0.2290
 9186SOL     OW28497   5.083   3.748   4.392  0.3197  0.0544  0.5872
 9186SOL    HW128498   5.120   3.663   4.415 -1.0161 -1.4568 -2.3073
 9186SOL    HW228499   4.996   3.749   4.432 -0.2279 -0.6212 -0.5341
 9187SOL     OW28500   7.101   5.887   0.435  0.1753 -0.0195 -0.0846
 9187SOL    HW128501   7.112   5.813   0.494  0.7005  0.8456  0.9535
 9187SOL    HW228502   7.189   5.903   0.400  0.1129  0.2404 -0.1296
 9188SOL     OW28503   2.362   6.916   6.885 -0.3060 -0.2434  0.2063
 9188SOL    HW128504   2.429   6.980   6.864 -0.5385 -0.4072 -1.1023
 9188SOL    HW228505   2.384   6.886   6.973  1.2824 -0.2499 -0.1774
 9189SOL     OW28506   2.626   4.124   3.246  0.5945 -0.2256  0.4077
 9189SOL    HW128507   2.549   4.178   3.228  0.2237 -0.1041  2.1815
 9189SOL    HW228508   2.660   4.157   3.329  2.0267 -0.8994  0.1244
 9190SOL     OW28509   7.018   3.863   1.911 -0.1892 -0.0006 -0.0636
 9190SOL    HW128510   6.933   3.906   1.915  0.9036  2.5929 -1.7560
 9190SOL    HW228511   7.043   3.850   2.002 -1.1446  1.9530  0.5362
 9191SOL     OW28512   2.419   6.866   3.576  0.8037 -0.0963 -0.5007
 9191SOL    HW128513   2.512   6.885   3.588  0.4012  0.9126  1.3901
 9191SOL    HW228514   2.407   6.779   3.615  0.4644  1.0259  2.1101
 9192SOL     OW28515   4.787   0.377   3.560 -0.1779 -0.0038 -0.5510
 9192SOL    HW128516   4.703   0.337   3.536 -1.5908  2.5004 -0.1290
 9192SOL    HW228517   4.814   0.331   3.640 -1.9101  0.1073  0.1347
 9193SOL     OW28518   6.620   7.278   2.792 -0.7913  0.4771  0.0058
 9193SOL    HW128519   6.631   7.208   2.727  0.3600 -0.0702  0.7640
 9193SOL    HW228520   6.526   7.278   2.811 -0.9965 -0.0182 -0.9246
 9194SOL     OW28521   1.705   2.603   7.155 -0.4260 -0.2925 -0.6528
 9194SOL    HW128522   1.662   2.592   7.070  1.2424  1.3028 -1.7914
 9194SOL    HW228523   1.674   2.688   7.187 -1.9345 -1.3773  0.9656
 9195SOL     OW28524   2.438   3.012   6.130  0.1601  0.1485  0.0234
 9195SOL    HW128525   2.413   3.001   6.039 -1.9151  1.3591  0.3632
 9195SOL    HW228526   2.380   2.953   6.178 -0.5231  1.3300  0.7007
 9196SOL     OW28527   0.171   2.271   2.731 -0.3012 -0.2581  0.5466
 9196SOL    HW128528   0.114   2.303   2.802 -0.3622  0.4528  0.1802
 9196SOL    HW228529   0.197   2.183   2.760 -0.9190 -0.2667  1.1060
 9197SOL     OW28530   5.974   3.017   4.615 -0.0499  0.2019 -0.1694
 9197SOL    HW128531   6.033   3.056   4.680  2.0664 -1.4775 -0.9730
 9197SOL    HW228532   6.029   3.002   4.538 -2.2260  1.1255 -2.0394
 9198SOL     OW28533   1.312   4.109   4.800 -0.1693  0.7486 -0.3899
 9198SOL    HW128534   1.395   4.157   4.797  0.6306 -0.6302 -1.0910
 9198SOL    HW228535   1.338   4.018   4.809 -1.5387  0.0855 -2.5247
 9199SOL     OW28536   1.288   0.880   5.626  0.2596  0.2255  0.0034
 9199SOL    HW128537   1.241   0.957   5.593 -1.0061  0.1880  1.5811
 9199SOL    HW228538   1.376   0.911   5.644  0.2034  0.8987 -0.8189
 9200SOL     OW28539   5.563   6.558   2.723 -0.4593  0.3468  0.3364
 9200SOL    HW128540   5.484   6.610   2.708 -1.1568 -0.0664  2.2649
 9200SOL    HW228541   5.614   6.611   2.785  0.1814  0.0165  0.1014
 9201SOL     OW28542   6.466   3.885   5.534  0.4783  0.2291 -0.4825
 9201SOL    HW128543   6.507   3.967   5.510 -0.0245  0.4620 -0.5548
 9201SOL    HW228544   6.386   3.910   5.579 -1.4463 -0.1760 -3.4309
 9202SOL     OW28545   5.739   4.528   7.158 -0.6621  0.3529  0.5667
 9202SOL    HW128546   5.701   4.464   7.099 -0.1471 -1.2796  1.9173
 9202SOL    HW228547   5.810   4.568   7.109 -0.6948 -0.4567 -0.1516
 9203SOL     OW28548   6.463   0.786   4.602 -0.0539  0.2826  0.3296
 9203SOL    HW128549   6.377   0.750   4.623 -0.3537  1.2253  0.8171
 9203SOL    HW228550   6.517   0.711   4.578 -1.2609 -0.2307 -0.8505
 9204SOL     OW28551   6.979   4.911   0.918 -0.0868  0.5326 -0.2877
 9204SOL    HW128552   6.917   4.839   0.922  1.9921 -1.5739 -2.5307
 9204SOL    HW228553   6.950   4.972   0.986 -2.3067 -2.1196  1.3364
 9205SOL     OW28554   1.030   6.932   2.268  0.4751 -0.3010 -0.5142
 9205SOL    HW128555   1.000   6.967   2.352  1.6847  1.5983 -0.8099
 9205SOL    HW228556   1.001   6.841   2.268 -1.3490  0.2149  1.0628
 9206SOL     OW28557   4.608   1.334   2.349  0.4538  0.0552 -1.0182
 9206SOL    HW128558   4.534   1.385   2.383  0.6399 -0.1683 -0.2646
 9206SOL    HW228559   4.684   1.390   2.362  1.0771 -1.2877  2.1655
 9207SOL     OW28560   4.952   2.668   2.368  0.2019 -0.1243 -0.8025
 9207SOL    HW128561   5.019   2.684   2.302 -0.3466  0.7649 -1.1636
 9207SOL    HW228562   4.991   2.700   2.449  0.4090 -0.0987 -0.9097
 9208SOL     OW28563   2.475   0.535   6.725 -0.5950  0.4759  0.6042
 9208SOL    HW128564   2.458   0.485   6.805  0.6616 -1.0078 -0.0259
 9208SOL    HW228565   2.547   0.593   6.749  0.0248 -0.2252  0.4529
 9209SOL     OW28566   6.878   0.088   6.942 -0.4814  0.2265  0.0833
 9209SOL    HW128567   6.886  -0.007   6.937 -1.5066 -0.0357  2.1685
 9209SOL    HW228568   6.889   0.118   6.852  0.0423 -1.8327 -0.5978
 9210SOL     OW28569   5.620   3.617   6.732 -0.2238 -0.0173  0.6994
 9210SOL    HW128570   5.637   3.589   6.822 -0.8998  0.2895  0.9314
 9210SOL    HW228571   5.703   3.653   6.702 -0.3066  0.9586  1.6090
 9211SOL     OW28572   1.671   2.005   4.657 -0.0760 -0.1235  0.1452
 9211SOL    HW128573   1.716   2.048   4.729 -0.9039  0.0257  0.5899
 9211SOL    HW228574   1.609   1.946   4.700 -1.8521  1.2746 -0.4003
 9212SOL     OW28575   0.391   1.092   5.678 -0.3133  0.5351  0.3429
 9212SOL    HW128576   0.380   1.101   5.773  2.4038  2.2941  0.5851
 9212SOL    HW228577   0.351   1.171   5.642 -0.9130  0.0989  0.0360
 9213SOL     OW28578   6.561   7.324   3.187  0.4075 -0.5678 -0.4361
 9213SOL    HW128579   6.544   7.250   3.129 -0.8619 -0.4194 -0.2861
 9213SOL    HW228580   6.632   7.294   3.244  0.4967 -1.3442 -0.9330
 9214SOL     OW28581   6.086   4.311   3.093  0.3128  0.3589  0.0753
 9214SOL    HW128582   6.158   4.266   3.049  0.2994 -1.2586  1.6070
 9214SOL    HW228583   6.129   4.376   3.149  0.5321  0.0275  0.2942
 9215SOL     OW28584   4.095   5.756   2.005 -0.3959  0.2234  0.1852
 9215SOL    HW128585   4.037   5.763   1.930 -1.6146 -2.3217  0.7880
 9215SOL    HW228586   4.183   5.766   1.969 -1.0209  0.4373 -1.3393
 9216SOL     OW28587   4.250   6.442   2.932 -0.2662  0.2270  0.3434
 9216SOL    HW128588   4.259   6.416   2.840 -0.5256  2.5780 -0.4015
 9216SOL    HW228589   4.166   6.487   2.937 -0.9799 -1.1522  2.1178
 9217SOL     OW28590   3.083   5.599   7.383  0.4205 -0.1953 -0.2302
 9217SOL    HW128591   3.178   5.610   7.379  0.6071 -1.5991 -0.3291
 9217SOL    HW228592   3.066   5.521   7.331 -0.6044 -0.8473  1.0307
 9218SOL     OW28593   5.967   4.473   4.403 -0.2885  0.0927 -0.2551
 9218SOL    HW128594   5.926   4.527   4.335  2.4698  1.1576 -1.2204
 9218SOL    HW228595   6.007   4.536   4.463 -1.7892 -0.8622  1.8422
 9219SOL     OW28596   6.682   2.688   2.252  0.4508 -0.1110  0.2437
 9219SOL    HW128597   6.692   2.675   2.347  0.2190 -1.6629  0.0940
 9219SOL    HW228598   6.733   2.766   2.233  1.6304 -0.5381  1.4662
 9220SOL     OW28599   6.972   3.181   7.112 -0.7088 -0.2268  0.2386
 9220SOL    HW128600   6.905   3.121   7.146  0.4183 -2.1711 -0.8088
 9220SOL    HW228601   6.967   3.171   7.017  0.7752 -0.0921  0.1254
 9221SOL     OW28602   6.067   0.805   0.123 -0.4288  0.5690 -0.1619
 9221SOL    HW128603   6.133   0.873   0.115 -0.1538  0.5077  1.3563
 9221SOL    HW228604   6.094   0.753   0.198 -3.9720  2.6120  2.8590
 9222SOL     OW28605   3.974   4.699   5.916 -0.3710 -0.3364  1.0262
 9222SOL    HW128606   3.907   4.642   5.954 -1.2272 -0.1607 -0.1834
 9222SOL    HW228607   4.007   4.749   5.990 -1.0055 -0.9925  1.7758
 9223SOL     OW28608   6.641   1.192   1.452 -0.6542 -0.2700  0.6622
 9223SOL    HW128609   6.659   1.182   1.359  1.5914  0.7970  0.9148
 9223SOL    HW228610   6.621   1.103   1.482  1.6087 -1.1857 -0.3171
 9224SOL     OW28611   0.090   2.644   6.153 -0.1589  0.0470  0.1235
 9224SOL    HW128612   0.165   2.595   6.119 -0.6522 -0.4145 -0.3234
 9224SOL    HW228613   0.063   2.595   6.231  0.0612  0.2709  0.3435
 9225SOL     OW28614   2.037   0.096   6.145 -0.3793 -0.5691  0.4363
 9225SOL    HW128615   1.988   0.177   6.129 -1.9650 -1.8168 -1.6271
 9225SOL    HW228616   2.047   0.092   6.240  2.4217  3.4511  0.5643
 9226SOL     OW28617   1.694   4.127   5.270  0.5126 -0.0628 -0.4823
 9226SOL    HW128618   1.739   4.077   5.201 -1.8738 -2.2493 -0.6115
 9226SOL    HW228619   1.640   4.190   5.223 -0.8418 -1.3129 -0.6656
 9227SOL     OW28620   1.684   6.647   2.068  0.2518  0.1369  0.2779
 9227SOL    HW128621   1.640   6.626   1.986  1.6899  0.0574 -0.5187
 9227SOL    HW228622   1.764   6.693   2.041  0.1086  1.2899  1.7096
 9228SOL     OW28623   4.961   1.051   0.148  0.1557  0.2279  0.0263
 9228SOL    HW128624   4.951   0.994   0.224  0.0848 -0.0992 -0.2268
 9228SOL    HW228625   5.017   1.122   0.179 -1.2266  0.9908  0.8816
 9229SOL     OW28626   5.537   6.530   5.567  0.2132  0.5740  0.2203
 9229SOL    HW128627   5.550   6.489   5.482 -0.2460 -0.1308  0.4743
 9229SOL    HW228628   5.453   6.576   5.560 -0.7510 -1.0125  0.8342
 9230SOL     OW28629   0.536   4.322   0.536 -0.3034  0.2870 -0.7467
 9230SOL    HW128630   0.503   4.411   0.536 -0.0731  0.3728 -0.6954
 9230SOL    HW228631   0.630   4.331   0.521  0.1906  0.2332  1.9153
 9231SOL     OW28632   5.721   7.304   0.212  0.0304 -0.3012 -0.0520
 9231SOL    HW128633   5.730   7.398   0.229 -3.7809  0.4562 -1.1830
 9231SOL    HW228634   5.752   7.262   0.291  1.3156  1.9354  0.7236
 9232SOL     OW28635   2.135   5.411   5.779 -0.1875  0.3499 -0.5051
 9232SOL    HW128636   2.204   5.345   5.782 -0.0976  0.4819  0.7310
 9232SOL    HW228637   2.054   5.361   5.772 -0.3281 -0.0881  2.8106
 9233SOL     OW28638   2.421   1.661   5.324  0.0725  0.1208  0.1599
 9233SOL    HW128639   2.457   1.721   5.390  0.6104 -0.3235  0.2739
 9233SOL    HW228640   2.326   1.665   5.339  0.1423  0.4892  0.5584
 9234SOL     OW28641   4.847   3.126   5.199  0.2819  0.3658 -0.2654
 9234SOL    HW128642   4.920   3.073   5.166  2.0543  0.7856  2.6340
 9234SOL    HW228643   4.770   3.070   5.188  1.6726 -1.8015  0.3301
 9235SOL     OW28644   2.771   1.729   6.793  0.1850  0.3454  0.3367
 9235SOL    HW128645   2.713   1.655   6.771  2.4561 -1.1018 -1.2630
 9235SOL    HW228646   2.766   1.786   6.717  0.6909  0.3120  0.2776
 9236SOL     OW28647   3.598   6.778   3.484  0.5892 -0.2397  0.5417
 9236SOL    HW128648   3.548   6.822   3.416 -0.4195 -0.9010  0.8302
 9236SOL    HW228649   3.626   6.695   3.445 -0.4803 -0.8790  1.0904
 9237SOL     OW28650   1.835   4.177   4.171  0.7577 -0.4286  0.8399
 9237SOL    HW128651   1.853   4.250   4.111  0.8214 -1.3979 -0.3500
 9237SOL    HW228652   1.916   4.128   4.174  0.3951 -1.0402  0.7946
 9238SOL     OW28653   4.720   4.221   5.743 -0.0687 -0.0466  0.5119
 9238SOL    HW128654   4.651   4.226   5.677  0.8522  0.3449 -0.4500
 9238SOL    HW228655   4.798   4.195   5.693  0.6470  0.2855  1.4442
 9239SOL     OW28656   6.483   4.328   6.954 -0.6301 -0.0155  0.4414
 9239SOL    HW128657   6.573   4.353   6.974 -0.9190  0.8369  0.7080
 9239SOL    HW228658   6.492   4.258   6.889  0.1976  0.7371 -0.2802
 9240SOL     OW28659   3.619   0.818   4.149  0.2080 -0.4666  0.1974
 9240SOL    HW128660   3.636   0.750   4.083 -0.0564  1.9879 -2.6286
 9240SOL    HW228661   3.531   0.798   4.181 -0.8617 -0.2743 -2.3232
 9241SOL     OW28662   4.635   5.641   6.120  0.8272  0.9845 -0.0621
 9241SOL    HW128663   4.587   5.584   6.179  0.3680  2.0689  0.6494
 9241SOL    HW228664   4.613   5.730   6.149  1.8310  1.5262 -0.8742
 9242SOL     OW28665   3.736   4.668   4.846 -0.2798  0.1285 -0.4630
 9242SOL    HW128666   3.764   4.726   4.916 -1.1845 -0.9333  0.8284
 9242SOL    HW228667   3.741   4.580   4.884  0.2674 -0.5934 -2.0935
 9243SOL     OW28668   4.762   0.695   5.782  0.2065  0.0720 -0.2504
 9243SOL    HW128669   4.824   0.662   5.717  1.3919  2.1363 -0.2562
 9243SOL    HW228670   4.695   0.740   5.731 -1.2157 -1.8674 -0.2226
 9244SOL     OW28671   0.317   4.442   5.144  0.2782  0.4542 -0.0901
 9244SOL    HW128672   0.322   4.528   5.103  1.0494  0.8063  0.7068
 9244SOL    HW228673   0.356   4.454   5.230  2.5300 -1.1800 -0.7807
 9245SOL     OW28674   4.387   7.136   5.477  0.2805 -0.2251 -0.4129
 9245SOL    HW128675   4.366   7.176   5.393 -0.9433  0.5731  0.2452
 9245SOL    HW228676   4.388   7.209   5.539  0.3383 -0.9047  0.4099
 9246SOL     OW28677   4.662   3.868   5.872  0.0090 -0.3928  0.5518
 9246SOL    HW128678   4.668   3.871   5.967  0.6587 -1.0077  0.5417
 9246SOL    HW228679   4.588   3.810   5.854  0.2183 -0.7116  0.6919
 9247SOL     OW28680   0.890   1.289   5.626 -0.1212 -0.1496 -0.5961
 9247SOL    HW128681   0.966   1.291   5.568 -0.6554  1.6438 -1.3265
 9247SOL    HW228682   0.908   1.356   5.692 -0.1606 -1.1726  0.4864
 9248SOL     OW28683   1.909   1.844   3.764  0.9101 -0.0113  0.2897
 9248SOL    HW128684   1.996   1.862   3.727  0.9773 -1.9500 -0.5853
 9248SOL    HW228685   1.925   1.779   3.832 -0.0532 -1.9678 -1.2797
 9249SOL     OW28686   5.538   6.217   1.444 -0.6836  0.1284 -0.6223
 9249SOL    HW128687   5.528   6.200   1.538  1.4526  1.0066 -0.1751
 9249SOL    HW228688   5.623   6.260   1.437 -0.6908 -0.1426 -3.0087
 9250SOL     OW28689   7.220   2.555   2.925  0.6134  0.3069 -0.0901
 9250SOL    HW128690   7.266   2.527   2.846 -0.5247  1.2860 -1.1444
 9250SOL    HW228691   7.288   2.560   2.992  1.1681 -3.3329 -0.1818
 9251SOL     OW28692   7.284   4.560   6.056 -0.1485  0.2423  0.6671
 9251SOL    HW128693   7.296   4.651   6.029  1.7147 -0.2685 -0.4199
 9251SOL    HW228694   7.350   4.511   6.006 -1.4090 -1.7784  0.8783
 9252SOL     OW28695   5.758   4.298   4.095 -0.6774 -0.0666 -0.1622
 9252SOL    HW128696   5.755   4.363   4.165 -2.3371  0.5306 -0.7334
 9252SOL    HW228697   5.843   4.256   4.105 -0.2482  1.0491  1.2544
 9253SOL     OW28698   2.023   3.240   7.187  0.3785  0.7229 -0.4341
 9253SOL    HW128699   1.970   3.286   7.122  0.0293  0.2861 -0.4630
 9253SOL    HW228700   2.056   3.163   7.142  1.0597  1.0016 -0.4205
 9254SOL     OW28701   4.332   6.092   4.833  0.2979 -0.0261 -0.8903
 9254SOL    HW128702   4.238   6.092   4.852  0.0697  0.6032 -1.8922
 9254SOL    HW228703   4.343   6.163   4.769  1.5916  0.4632 -0.1636
 9255SOL     OW28704   0.663   2.416   0.568 -0.0687  0.5768  0.1015
 9255SOL    HW128705   0.701   2.498   0.601  1.6358 -0.7835  1.7149
 9255SOL    HW228706   0.730   2.381   0.510 -1.2536  0.7982 -1.4660
 9256SOL     OW28707   0.121   3.243   2.397 -0.1679  0.5125 -0.2231
 9256SOL    HW128708   0.153   3.249   2.307  0.0792 -0.0671 -0.1794
 9256SOL    HW228709   0.185   3.291   2.448 -0.4481  1.0684 -0.3845
 9257SOL     OW28710   2.690   0.055   0.173 -0.3225  0.2418  0.5317
 9257SOL    HW128711   2.703   0.135   0.123  0.4177  0.1397  0.5516
 9257SOL    HW228712   2.598   0.058   0.201 -0.9498  0.0062 -1.3548
 9258SOL     OW28713   5.636   7.255   3.551 -0.8227 -0.0994 -0.1793
 9258SOL    HW128714   5.626   7.317   3.624  0.3943  0.3083 -0.3265
 9258SOL    HW228715   5.707   7.293   3.498 -2.6454  0.3817 -2.4014
 9259SOL     OW28716   5.438   1.339   0.283  0.1623 -0.4597 -0.2235
 9259SOL    HW128717   5.504   1.323   0.216  0.2572  1.5119 -0.6644
 9259SOL    HW228718   5.486   1.333   0.366  0.7509  0.1675 -0.5040
 9260SOL     OW28719   3.884   5.484   4.003  0.4444 -0.0720 -0.2868
 9260SOL    HW128720   3.936   5.421   3.954 -0.7885 -0.2661 -1.4324
 9260SOL    HW228721   3.948   5.539   4.048  1.6510 -0.0504 -1.9328
 9261SOL     OW28722   6.616   1.999   6.076  0.1261  0.4815  0.0909
 9261SOL    HW128723   6.630   2.080   6.124 -3.0136  1.2443 -0.0808
 9261SOL    HW228724   6.666   2.009   5.996 -0.2322  2.2806  0.0609
 9262SOL     OW28725   3.686   1.615   2.446 -0.0648 -0.0433  0.0130
 9262SOL    HW128726   3.669   1.524   2.422  0.5546 -0.2825  0.4300
 9262SOL    HW228727   3.703   1.612   2.540  0.2070  0.4641 -0.0160
 9263SOL     OW28728   0.114   0.686   5.718  0.0893  0.0241 -0.9330
 9263SOL    HW128729   0.082   0.737   5.643  0.3507 -0.1093 -1.1396
 9263SOL    HW228730   0.049   0.700   5.787  0.2046  0.7136 -0.9574
 9264SOL     OW28731   7.392   3.583   5.703 -0.7673  0.2871  0.5576
 9264SOL    HW128732   7.359   3.543   5.622  2.5924  1.0179 -1.3254
 9264SOL    HW228733   7.370   3.519   5.771 -3.9829 -0.2143 -0.7499
 9265SOL     OW28734   2.465   6.178   0.901  0.0563  0.2152 -0.3381
 9265SOL    HW128735   2.513   6.141   0.826 -0.4383 -0.4769 -0.3326
 9265SOL    HW228736   2.462   6.272   0.884  0.5190  0.1411 -0.8559
 9266SOL     OW28737   5.911   5.074   4.668  0.9213  0.1977 -0.4806
 9266SOL    HW128738   6.003   5.099   4.672  1.0513  0.9354 -4.3810
 9266SOL    HW228739   5.869   5.144   4.617 -1.3244 -1.3039 -0.8602
 9267SOL     OW28740   3.519   3.850   0.425 -0.1185  0.6267 -0.1735
 9267SOL    HW128741   3.604   3.828   0.386  0.4718 -0.0523  1.3998
 9267SOL    HW228742   3.457   3.790   0.384  0.9709 -2.1522  1.9036
 9268SOL     OW28743   2.901   6.664   4.052 -0.3679 -0.0759 -0.0247
 9268SOL    HW128744   2.817   6.619   4.044 -0.2843 -0.6606  1.9670
 9268SOL    HW228745   2.913   6.707   3.968 -1.7246 -1.5851 -1.0470
 9269SOL     OW28746   7.047   0.979   6.328  0.5441 -0.5457  0.3460
 9269SOL    HW128747   7.138   1.010   6.323  0.8301 -1.3538  0.4103
 9269SOL    HW228748   7.014   0.987   6.239 -0.0655  1.8916  0.7213
 9270SOL     OW28749   6.971   4.176   1.327 -0.0098 -0.1577  0.7897
 9270SOL    HW128750   6.900   4.115   1.307  0.6585 -0.3991 -0.9565
 9270SOL    HW228751   7.025   4.129   1.390  0.8761 -1.7209 -1.0428
 9271SOL     OW28752   7.257   0.542   4.498  0.0646  0.3337 -0.0995
 9271SOL    HW128753   7.233   0.450   4.487 -2.0138  0.9414 -1.2512
 9271SOL    HW228754   7.272   0.574   4.409  0.4698  1.1805  0.2566
 9272SOL     OW28755   4.675   0.036   6.829 -0.1651  0.4268  0.2657
 9272SOL    HW128756   4.726   0.094   6.773  0.7432  0.1066  0.7528
 9272SOL    HW228757   4.621   0.094   6.882 -1.2008  0.7337 -1.0676
 9273SOL     OW28758   2.957   4.800   3.004 -0.2204 -0.0853 -0.2851
 9273SOL    HW128759   2.884   4.859   3.022 -1.6985 -2.1032  0.6787
 9273SOL    HW228760   2.995   4.834   2.923 -2.7354  0.5824 -1.2844
 9274SOL     OW28761   7.103   3.417   1.601 -0.1068  0.5471  0.2583
 9274SOL    HW128762   7.044   3.342   1.607 -0.5206  0.6184 -2.0427
 9274SOL    HW228763   7.188   3.379   1.580 -0.0529  0.6494  0.2913
 9275SOL     OW28764   5.678   4.586   5.450  0.0287  0.3590 -0.2062
 9275SOL    HW128765   5.753   4.531   5.470 -0.2768  0.4233  1.2394
 9275SOL    HW228766   5.607   4.552   5.506 -0.0085  2.5318  1.1858
 9276SOL     OW28767   5.362   5.431   5.731  0.0630  0.4126  0.1553
 9276SOL    HW128768   5.410   5.487   5.793 -0.6171  1.6918 -0.4285
 9276SOL    HW228769   5.331   5.358   5.785 -0.1081  1.2417  1.2296
 9277SOL     OW28770   2.698   1.623   1.173  0.1801  0.0107 -0.2331
 9277SOL    HW128771   2.687   1.558   1.104  0.2634 -0.3235  0.0690
 9277SOL    HW228772   2.669   1.705   1.133 -1.8208 -0.5312 -0.0152
 9278SOL     OW28773   4.703   0.511   1.296  0.2396  0.1741  0.5111
 9278SOL    HW128774   4.614   0.506   1.262  1.0311 -0.5050 -1.6140
 9278SOL    HW228775   4.718   0.604   1.312  0.0386  0.6467 -1.7542
 9279SOL     OW28776   2.675   6.537   5.524  0.1068 -0.2148  0.2131
 9279SOL    HW128777   2.690   6.625   5.560 -1.2870  0.1457 -0.0356
 9279SOL    HW228778   2.674   6.550   5.429 -1.7024 -0.1922  0.2061
 9280SOL     OW28779   1.158   2.845   0.698  0.1369  0.7799 -0.4069
 9280SOL    HW128780   1.065   2.854   0.673  0.3835  1.6729 -1.0702
 9280SOL    HW228781   1.161   2.878   0.788 -0.6502 -1.8819  0.7060
 9281SOL     OW28782   3.304   2.410   5.215  0.5223  0.5321 -0.7702
 9281SOL    HW128783   3.295   2.319   5.188  0.0033  0.5189 -0.5841
 9281SOL    HW228784   3.250   2.417   5.294  0.3167  1.0681 -0.9485
 9282SOL     OW28785   4.285   5.004   5.959 -0.1532 -0.0312  0.6006
 9282SOL    HW128786   4.312   5.003   6.051  1.8212  1.7353  0.1163
 9282SOL    HW228787   4.349   4.948   5.915 -1.4308 -1.3297  0.3504
 9283SOL     OW28788   3.142   5.774   0.482 -0.0445 -0.4559  0.2854
 9283SOL    HW128789   3.098   5.819   0.554  1.6250  0.8543  0.5867
 9283SOL    HW228790   3.154   5.842   0.416  0.1366 -1.1555 -0.4144
 9284SOL     OW28791   1.061   4.495   1.199 -0.1893  1.0898  0.2130
 9284SOL    HW128792   1.063   4.580   1.243 -3.4979  1.4729 -0.1425
 9284SOL    HW228793   1.029   4.515   1.111  0.1899 -0.3983 -0.2899
 9285SOL     OW28794   5.404   0.445   7.116 -0.0037 -0.1380  0.2586
 9285SOL    HW128795   5.439   0.356   7.123  0.5513  0.0553 -0.0188
 9285SOL    HW228796   5.414   0.468   7.023 -2.7040 -0.8104 -0.2771
 9286SOL     OW28797   4.378   0.093   1.248 -0.2205  0.1214 -0.2183
 9286SOL    HW128798   4.379   0.014   1.193 -0.9886 -0.1560  0.1529
 9286SOL    HW228799   4.302   0.081   1.305 -0.5073  1.2633 -0.3489
 9287SOL     OW28800   0.881   3.314   0.057 -0.1453 -0.4191  0.4967
 9287SOL    HW128801   0.847   3.395   0.019  1.0124 -0.1339  0.0261
 9287SOL    HW228802   0.907   3.338   0.146  0.3142 -0.2284  0.3163
 9288SOL     OW28803   1.860   0.434   3.842 -0.3697  0.0006 -0.0645
 9288SOL    HW128804   1.772   0.399   3.854 -0.8455  2.0372  3.9167
 9288SOL    HW228805   1.910   0.361   3.805 -3.3756 -1.5837 -1.3491
 9289SOL     OW28806   3.827   0.401   0.212  0.3814  0.4747  0.0020
 9289SOL    HW128807   3.792   0.461   0.278  0.5305 -0.5932  1.0855
 9289SOL    HW228808   3.760   0.398   0.144 -0.8919 -0.2062  1.2346
 9290SOL     OW28809   6.504   4.688   0.410 -0.2524  0.2505  0.0845
 9290SOL    HW128810   6.543   4.773   0.432 -1.8538  1.6998 -2.2947
 9290SOL    HW228811   6.539   4.667   0.324  1.0981 -2.2079  1.1477
 9291SOL     OW28812   1.253   0.162   2.414  0.1755 -0.5800 -0.2347
 9291SOL    HW128813   1.204   0.123   2.487 -0.6270  1.8330  0.6099
 9291SOL    HW228814   1.298   0.088   2.373 -0.5683 -2.2339  1.7691
 9292SOL     OW28815   0.034   3.502   3.738  0.5279 -0.1437  0.0689
 9292SOL    HW128816   0.119   3.545   3.749  0.2100  0.7482 -0.8017
 9292SOL    HW228817  -0.030   3.572   3.747 -0.0956 -0.7118  0.1633
 9293SOL     OW28818   0.470   3.358   1.041  0.2655  0.3584 -0.2155
 9293SOL    HW128819   0.416   3.410   1.101 -1.1829 -1.1336 -0.1572
 9293SOL    HW228820   0.545   3.414   1.022 -1.5746  2.8129 -0.7861
 9294SOL     OW28821   3.624   2.614   2.913 -0.1997  0.0553  0.5116
 9294SOL    HW128822   3.696   2.608   2.976  2.2311 -0.0918 -2.0975
 9294SOL    HW228823   3.583   2.527   2.916  1.2609 -0.6668  0.3785
 9295SOL     OW28824   7.255   0.377   4.041 -0.6525 -0.3197  0.6270
 9295SOL    HW128825   7.317   0.311   4.010  1.4461  0.7767  2.2072
 9295SOL    HW228826   7.270   0.452   3.985 -0.1361  0.1207  1.3346
 9296SOL     OW28827   7.068   2.199   7.006  0.1327  0.1332  0.1837
 9296SOL    HW128828   6.994   2.260   7.002 -1.1550 -1.3903  0.0653
 9296SOL    HW228829   7.041   2.124   6.953  1.6812 -0.5578  0.3129
 9297SOL     OW28830   6.163   7.286   2.263 -0.1160 -0.3955 -0.4597
 9297SOL    HW128831   6.242   7.340   2.263  0.8108 -1.7306 -0.1714
 9297SOL    HW228832   6.134   7.286   2.171  0.6061 -0.4535 -0.6899
 9298SOL     OW28833   1.189   0.400   1.268  0.4894 -0.0056  0.4461
 9298SOL    HW128834   1.281   0.426   1.267  0.2109  1.0582  1.2237
 9298SOL    HW228835   1.191   0.306   1.288  1.3865  0.1596  1.1824
 9299SOL     OW28836   4.338   6.765   4.930 -0.3257 -0.5230 -0.2640
 9299SOL    HW128837   4.414   6.748   4.875 -0.5203 -0.2974 -0.6151
 9299SOL    HW228838   4.303   6.679   4.951  1.5561 -0.7897  2.1499
 9300SOL     OW28839   0.335   5.830   5.412 -0.2467 -0.1585 -0.0254
 9300SOL    HW128840   0.255   5.778   5.412  1.0921 -2.3637 -0.9703
 9300SOL    HW228841   0.328   5.886   5.335 -0.6547 -0.7457 -0.4237
 9301SOL     OW28842   4.644   3.905   6.764  0.1090  0.1134  0.8512
 9301SOL    HW128843   4.638   3.975   6.828  1.1639  1.2461 -0.2154
 9301SOL    HW228844   4.641   3.950   6.679 -4.9699 -1.5491 -0.1898
 9302SOL     OW28845   2.584   4.696   6.888  0.3521 -0.5165 -0.0511
 9302SOL    HW128846   2.584   4.785   6.924  1.4763 -1.1490  1.6211
 9302SOL    HW228847   2.567   4.708   6.795  1.8890  1.5743 -0.1249
 9303SOL     OW28848   6.695   4.474   5.007  0.5915  0.2459 -0.2942
 9303SOL    HW128849   6.756   4.407   4.974 -0.7725 -1.9531  1.3681
 9303SOL    HW228850   6.752   4.544   5.039  2.4948 -2.4807  2.8634
 9304SOL     OW28851   3.172   3.633   1.357 -0.4606  0.2200 -0.1911
 9304SOL    HW128852   3.204   3.716   1.321 -1.4152  1.1636  1.0481
 9304SOL    HW228853   3.101   3.658   1.417 -0.7054 -1.4845  0.2900
 9305SOL     OW28854   3.858   5.562   1.791 -0.3104  0.2136 -0.2215
 9305SOL    HW128855   3.787   5.502   1.770  0.4952 -0.2385 -1.7553
 9305SOL    HW228856   3.837   5.642   1.743  0.4605 -0.0956 -1.0953
 9306SOL     OW28857   6.644   0.629   0.178  0.0200  0.5082  0.2532
 9306SOL    HW128858   6.678   0.658   0.094 -1.6639  1.5849 -0.1024
 9306SOL    HW228859   6.636   0.534   0.170  0.0296  0.5831 -0.7466
 9307SOL     OW28860   5.211   6.114   6.767 -0.5164 -0.5478 -0.3999
 9307SOL    HW128861   5.203   6.125   6.862 -2.8334 -0.1770 -0.5721
 9307SOL    HW228862   5.181   6.198   6.731 -0.2617 -0.8998 -1.4636
 9308SOL     OW28863   5.270   5.947   1.234 -0.1444 -0.1278 -0.0114
 9308SOL    HW128864   5.232   6.029   1.265  1.1246  0.6991 -0.5676
 9308SOL    HW228865   5.361   5.950   1.263 -0.2729 -1.7207  0.6495
 9309SOL     OW28866   4.137   4.607   2.684  0.2350  0.0341 -0.3007
 9309SOL    HW128867   4.209   4.633   2.628 -0.8771  1.9283 -0.9501
 9309SOL    HW228868   4.059   4.612   2.628 -0.5192 -1.2586  0.5548
 9310SOL     OW28869   2.814   3.030   0.127 -0.0265 -0.2227  0.3474
 9310SOL    HW128870   2.840   2.950   0.082 -0.6520 -0.8270  1.0328
 9310SOL    HW228871   2.755   3.074   0.067  0.1227 -0.3992  0.0713
 9311SOL     OW28872   0.844   5.638   1.607 -0.0959 -0.0415  0.5866
 9311SOL    HW128873   0.874   5.587   1.531  0.1331  0.5977  0.2427
 9311SOL    HW228874   0.920   5.689   1.634 -0.0885 -0.4936  1.4492
 9312SOL     OW28875   5.778   5.185   5.458  0.1427 -0.4905  0.2656
 9312SOL    HW128876   5.738   5.190   5.371 -0.5568  2.3853  0.6273
 9312SOL    HW228877   5.866   5.221   5.447 -0.1716  0.5078  0.7920
 9313SOL     OW28878   4.020   6.241   2.467 -0.0496 -0.4786 -0.6315
 9313SOL    HW128879   4.080   6.281   2.404  0.3315 -2.1470 -1.3746
 9313SOL    HW228880   4.062   6.252   2.552  1.1123 -1.2175 -1.0888
 9314SOL     OW28881   4.141   0.103   1.381  0.0515 -0.1517 -0.1677
 9314SOL    HW128882   4.184   0.155   1.449 -0.9155  0.2832  0.1405
 9314SOL    HW228883   4.059   0.074   1.422 -1.7219  2.0830 -1.8250
 9315SOL     OW28884   5.310   1.759   5.400  0.3839  0.5440 -0.2701
 9315SOL    HW128885   5.311   1.838   5.455 -1.8940  1.6830 -1.7149
 9315SOL    HW228886   5.274   1.691   5.457 -2.8260  1.9196 -0.4536
 9316SOL     OW28887   0.182   7.051   4.866  0.0058  0.1949  0.0269
 9316SOL    HW128888   0.265   7.086   4.833  1.2979 -2.4419  0.2114
 9316SOL    HW228889   0.206   7.000   4.943 -1.8272 -0.5041  0.1852
 9317SOL     OW28890   1.001   4.251   7.096 -0.4055 -0.3965  0.3612
 9317SOL    HW128891   1.056   4.301   7.156 -0.4873  1.0610 -0.7147
 9317SOL    HW228892   0.912   4.275   7.120 -0.4883 -0.8293  0.4953
 9318SOL     OW28893   3.637   2.922   5.230 -0.2768 -0.1912  0.8194
 9318SOL    HW128894   3.709   2.938   5.291 -0.8859  0.3011  1.4196
 9318SOL    HW228895   3.580   2.861   5.276  0.1923 -1.3207 -0.0192
 9319SOL     OW28896   3.087   3.916   6.931 -0.0806  0.3062  0.0670
 9319SOL    HW128897   3.039   3.999   6.944  0.5341  0.6093  0.4159
 9319SOL    HW228898   3.064   3.863   7.007  2.5728  1.6315  1.9398
 9320SOL     OW28899   4.135   1.271   2.875  0.1793  1.0206  0.1774
 9320SOL    HW128900   4.193   1.253   2.949 -0.7415  0.5909  0.8156
 9320SOL    HW228901   4.184   1.333   2.821  1.3640  0.4243  0.5249
 9321SOL     OW28902   2.078   2.262   7.113  0.5623  0.1711  0.1565
 9321SOL    HW128903   2.010   2.244   7.048  1.1011 -1.7926  0.0830
 9321SOL    HW228904   2.108   2.351   7.093  0.2584 -0.1399 -1.8656
 9322SOL     OW28905   3.396   5.676   2.672 -0.0778 -0.1418  0.0966
 9322SOL    HW128906   3.474   5.730   2.686 -0.4115  0.3476  0.0636
 9322SOL    HW228907   3.410   5.636   2.586 -0.3683  0.8160 -0.4122
 9323SOL     OW28908   2.709   3.442   2.598 -0.5046  0.1605 -0.3369
 9323SOL    HW128909   2.747   3.452   2.511  0.2862  3.7122  0.2660
 9323SOL    HW228910   2.614   3.445   2.582 -0.5030 -2.0358 -1.2191
 9324SOL     OW28911   4.612   3.293   7.349 -0.0179 -0.3915 -0.4464
 9324SOL    HW128912   4.601   3.319   7.258 -1.1664 -1.7581 -0.7293
 9324SOL    HW228913   4.523   3.276   7.380 -0.2718  4.1244  2.2824
 9325SOL     OW28914   0.755   5.801   2.355  0.3261 -0.6946 -0.2782
 9325SOL    HW128915   0.789   5.843   2.276  2.3435  1.1870  1.4500
 9325SOL    HW228916   0.825   5.743   2.384  1.2831  1.4575  2.0645
 9326SOL     OW28917   3.601   3.359   3.732  0.1198 -0.1665 -0.5099
 9326SOL    HW128918   3.694   3.357   3.758 -0.6361 -1.2760  2.6025
 9326SOL    HW228919   3.557   3.396   3.808 -2.1753 -1.2107 -1.2614
 9327SOL     OW28920   0.170   7.215   2.506  0.3513  0.2396  0.4039
 9327SOL    HW128921   0.170   7.307   2.531 -1.4523  1.2238 -2.6981
 9327SOL    HW228922   0.088   7.181   2.542  0.3707  0.2100  0.4196
 9328SOL     OW28923   5.936   4.273   6.238 -0.0481  0.4077 -0.1563
 9328SOL    HW128924   5.906   4.256   6.327 -1.4496  1.7737 -0.3169
 9328SOL    HW228925   5.856   4.292   6.189  0.8690  1.7494 -1.2135
 9329SOL     OW28926   2.494   2.907   7.215 -0.0643  0.1841 -0.6414
 9329SOL    HW128927   2.405   2.894   7.248 -0.7567  1.8681 -1.6969
 9329SOL    HW228928   2.525   2.820   7.193 -1.1895 -0.5057  0.3948
 9330SOL     OW28929   0.879   0.158   1.114 -0.1787  0.2843  0.0072
 9330SOL    HW128930   0.884   0.072   1.156 -2.1800  0.5547  0.9350
 9330SOL    HW228931   0.854   0.138   1.024  0.6313 -0.1482 -0.1304
 9331SOL     OW28932   6.589   2.539   5.580  0.1387  0.1648  0.5807
 9331SOL    HW128933   6.640   2.526   5.659  1.1283  1.1818  0.1268
 9331SOL    HW228934   6.584   2.634   5.569  0.2099  0.0457 -0.6833
 9332SOL     OW28935   0.436   5.077   4.923  0.4734 -0.3170  0.5212
 9332SOL    HW128936   0.370   5.137   4.890 -1.1846 -2.4270 -0.2377
 9332SOL    HW228937   0.517   5.128   4.926 -0.5262  1.4985 -1.5086
 9333SOL     OW28938   5.784   4.052   2.131  0.3762  0.6992 -0.0710
 9333SOL    HW128939   5.774   4.057   2.036  0.2441 -1.9280 -0.2770
 9333SOL    HW228940   5.878   4.055   2.145  0.5223 -0.7620 -0.5108
 9334SOL     OW28941   4.751   5.179   3.566 -0.4574  0.2131  0.1023
 9334SOL    HW128942   4.683   5.186   3.633 -1.0569  1.2426 -0.5818
 9334SOL    HW228943   4.833   5.185   3.614 -0.8809  1.6531  0.6978
 9335SOL     OW28944   3.239   4.754   0.013  0.6067 -0.5748 -0.4594
 9335SOL    HW128945   3.200   4.806  -0.057  1.3414 -0.0370 -0.4854
 9335SOL    HW228946   3.265   4.818   0.080  0.6449 -1.0005 -0.0548
 9336SOL     OW28947   1.471   1.826   1.935  0.3970 -0.2908 -0.0804
 9336SOL    HW128948   1.508   1.740   1.955  0.0310 -0.1941  1.0762
 9336SOL    HW228949   1.410   1.843   2.007 -1.2296 -0.0465 -1.4476
 9337SOL     OW28950   1.254   1.998   3.480  0.2257  0.8814 -0.0486
 9337SOL    HW128951   1.324   2.055   3.510 -0.1525  2.1205 -1.4191
 9337SOL    HW228952   1.175   2.051   3.487 -0.3813 -0.0273  0.1663
 9338SOL     OW28953   1.177   5.326   5.007  0.1845 -0.2044 -0.0387
 9338SOL    HW128954   1.136   5.281   5.081  0.9168  1.2236  1.3163
 9338SOL    HW228955   1.259   5.279   4.993 -0.8390 -1.7133 -1.3168
 9339SOL     OW28956   3.599   3.706   6.639 -0.1024 -0.0152  0.0879
 9339SOL    HW128957   3.536   3.635   6.647 -2.3739  1.8867  0.1239
 9339SOL    HW228958   3.587   3.739   6.550 -0.0723  1.1912  0.5186
 9340SOL     OW28959   2.227   1.733   4.563 -0.3150  0.1294  0.0293
 9340SOL    HW128960   2.317   1.702   4.551  0.2457  1.8333 -0.4625
 9340SOL    HW228961   2.174   1.653   4.564  1.2964 -1.0095  1.5178
 9341SOL     OW28962   6.511   1.000   2.862 -0.8340 -0.1197  0.1210
 9341SOL    HW128963   6.559   0.990   2.944 -0.7105  0.8374  0.1824
 9341SOL    HW228964   6.489   1.093   2.859 -0.7885 -0.1313 -0.9614
 9342SOL     OW28965   7.245   3.136   5.804  1.0315  0.0447  0.0429
 9342SOL    HW128966   7.209   3.224   5.802  0.6551 -0.1208 -1.1039
 9342SOL    HW228967   7.300   3.134   5.883  0.9345  1.2469  0.1525
 9343SOL     OW28968   3.501   1.649   0.052 -0.3802 -0.4173 -0.3472
 9343SOL    HW128969   3.495   1.735   0.009 -0.2612 -0.3513 -0.2351
 9343SOL    HW228970   3.418   1.607   0.033 -0.7967  0.0795  0.3567
 9344SOL     OW28971   2.622   6.226   1.284  0.2444 -0.3739  0.0009
 9344SOL    HW128972   2.611   6.228   1.189  1.1114  1.3581 -0.1111
 9344SOL    HW228973   2.717   6.225   1.297  0.1665  0.8096  0.8147
 9345SOL     OW28974   0.798   4.397   7.203  0.0679  0.1740 -0.3234
 9345SOL    HW128975   0.865   4.466   7.207  2.1950 -1.7468 -0.5417
 9345SOL    HW228976   0.717   4.444   7.186  1.3578  2.6378 -0.2421
 9346SOL     OW28977   1.750   2.961   2.495  0.1768 -0.2884  0.1715
 9346SOL    HW128978   1.676   3.007   2.535  0.6682  0.1793  0.5580
 9346SOL    HW228979   1.796   2.920   2.568  0.2394 -0.6693 -0.0785
 9347SOL     OW28980   2.054   4.600   0.024 -0.3012  0.6352  0.7184
 9347SOL    HW128981   2.143   4.633   0.008 -0.3949  1.3141  1.5500
 9347SOL    HW228982   2.065   4.531   0.090 -0.4519  1.1639  1.3080
 9348SOL     OW28983   1.810   6.437   2.907  0.3442 -0.2171  0.1661
 9348SOL    HW128984   1.777   6.354   2.874  1.5095 -1.1480  1.2465
 9348SOL    HW228985   1.874   6.465   2.841  1.8928 -1.5396  1.0426
 9349SOL     OW28986   0.180   0.803   0.379 -0.2885  0.3169 -0.0396
 9349SOL    HW128987   0.193   0.708   0.374  1.1067  0.5306 -1.3774
 9349SOL    HW228988   0.142   0.826   0.294  1.1525  1.1643 -0.4914
 9350SOL     OW28989   5.323   3.546   5.819  0.2594  0.6691 -0.5530
 9350SOL    HW128990   5.389   3.519   5.755 -0.3082 -2.2361 -0.0190
 9350SOL    HW228991   5.240   3.543   5.771  0.1774  1.8014 -0.5250
 9351SOL     OW28992   2.776   2.554   3.216 -0.3615 -0.0703 -0.7686
 9351SOL    HW128993   2.736   2.471   3.188  2.9801 -2.4697  0.8604
 9351SOL    HW228994   2.757   2.558   3.310  0.7236  0.2075 -0.5502
 9352SOL     OW28995   3.292   1.259   3.507  0.2396  0.5342 -0.2530
 9352SOL    HW128996   3.369   1.300   3.468  0.4094 -0.9254 -1.5720
 9352SOL    HW228997   3.218   1.298   3.462  0.1267  2.1263  1.1930
 9353SOL     OW28998   5.532   6.898   3.182  0.3742 -0.5867 -0.2492
 9353SOL    HW128999   5.442   6.867   3.190 -0.2826  1.3590  0.6046
 9353SOL    HW229000   5.528   6.991   3.206  2.7058 -0.5796  0.4226
 9354SOL     OW29001   2.874   6.319   2.455  0.2458 -0.0055 -0.1738
 9354SOL    HW129002   2.937   6.248   2.463 -1.3301 -1.6642 -1.6757
 9354SOL    HW229003   2.881   6.346   2.363 -1.0759 -0.0855 -0.3086
 9355SOL     OW29004   4.014   0.634   2.661  0.2620  0.6977 -0.6153
 9355SOL    HW129005   4.101   0.645   2.699  0.0077 -0.4568  0.3576
 9355SOL    HW229006   3.957   0.688   2.716  0.1964  0.5694 -0.5567
 9356SOL     OW29007   1.590   0.075   6.316 -0.2545  0.0630  0.6181
 9356SOL    HW129008   1.515   0.042   6.265 -1.2389  1.4084  1.1422
 9356SOL    HW229009   1.566   0.057   6.407  0.3683 -0.0913  0.7522
 9357SOL     OW29010   4.577   6.447   2.255 -0.1074  0.4137 -0.8247
 9357SOL    HW129011   4.667   6.428   2.283 -0.2516  0.7538 -0.0993
 9357SOL    HW229012   4.557   6.379   2.191 -0.7454 -2.2842  1.9776
 9358SOL     OW29013   7.144   1.061   4.544 -0.1155 -0.9884 -0.1983
 9358SOL    HW129014   7.051   1.070   4.565 -0.1461 -0.3728 -0.5677
 9358SOL    HW229015   7.156   1.116   4.467  0.5598 -1.0519 -0.1413
 9359SOL     OW29016   3.045   6.717   2.776 -0.8239 -0.0016 -0.0683
 9359SOL    HW129017   3.023   6.692   2.866  0.5707 -0.4479  0.1700
 9359SOL    HW229018   3.006   6.649   2.721 -2.0963  0.5296  0.1393
 9360SOL     OW29019   3.262   0.157   4.202 -0.1294 -0.0326  0.3429
 9360SOL    HW129020   3.208   0.112   4.137  0.3984 -0.5063  0.2273
 9360SOL    HW229021   3.259   0.101   4.279 -0.6618  0.4728  0.6965
 9361SOL     OW29022   0.137   2.871   4.024 -0.6996  0.1628 -0.2546
 9361SOL    HW129023   0.133   2.804   3.956  0.0232 -1.3083  1.0673
 9361SOL    HW229024   0.069   2.934   4.001  0.9764  0.9893 -3.5602
 9362SOL     OW29025   6.199   0.569   3.257  0.0338 -0.2281  0.4128
 9362SOL    HW129026   6.238   0.579   3.170  1.0898 -0.9846  0.7715
 9362SOL    HW229027   6.108   0.543   3.240 -0.9594  3.3291 -0.4621
 9363SOL     OW29028   5.924   6.980   5.817  0.4123  0.1712  0.4276
 9363SOL    HW129029   5.920   6.987   5.721 -0.1422 -1.0359  0.3411
 9363SOL    HW229030   6.017   6.984   5.837  0.8155 -2.4914 -0.4793
 9364SOL     OW29031   3.918   2.181   6.253  0.1780 -0.6320  0.0052
 9364SOL    HW129032   3.993   2.238   6.244  0.1893 -0.6667 -0.1162
 9364SOL    HW229033   3.955   2.092   6.256  0.1355 -0.6534 -0.1267
 9365SOL     OW29034   6.037   3.393   6.253 -0.3838 -0.0023  0.0119
 9365SOL    HW129035   6.040   3.319   6.192  2.6745  1.0408 -1.3091
 9365SOL    HW229036   6.078   3.359   6.333 -0.2165 -0.1323 -0.1272
 9366SOL     OW29037   7.351   4.377   1.443  0.7789 -0.1597 -0.2892
 9366SOL    HW129038   7.258   4.364   1.423  0.5410  1.2750 -0.2407
 9366SOL    HW229039   7.351   4.439   1.515  1.6763 -3.5668  2.9369
 9367SOL     OW29040   3.776   7.331   2.990 -0.3945  0.2274 -0.5912
 9367SOL    HW129041   3.811   7.420   2.995 -0.9730  0.4690 -0.7801
 9367SOL    HW229042   3.770   7.313   2.896  0.4385 -0.2993 -0.5493
 9368SOL     OW29043   2.881   7.159   5.740 -0.0424 -0.4143 -0.4314
 9368SOL    HW129044   2.952   7.180   5.679  0.3928 -0.0676  0.1862
 9368SOL    HW229045   2.816   7.115   5.686  0.5001 -0.4484 -1.0745
 9369SOL     OW29046   0.457   1.542   5.606  0.6811 -0.2261  0.1048
 9369SOL    HW129047   0.411   1.618   5.642  0.2370 -0.3015 -0.2959
 9369SOL    HW229048   0.547   1.572   5.592  0.4146  0.3400 -0.4092
 9370SOL     OW29049   0.809   6.994   6.920 -0.3075  0.3528 -0.0171
 9370SOL    HW129050   0.888   7.046   6.937 -0.4578  0.4351  0.4382
 9370SOL    HW229051   0.791   6.950   7.002  0.6261 -1.5616 -0.7795
 9371SOL     OW29052   6.959   5.610   3.481  0.6244  0.9433  0.2192
 9371SOL    HW129053   6.912   5.583   3.402 -0.5815  0.6266  1.0218
 9371SOL    HW229054   6.907   5.575   3.553  2.8209 -0.6169  1.1491
 9372SOL     OW29055   3.452   5.841   0.038  0.1039  0.1757  0.1802
 9372SOL    HW129056   3.435   5.754   0.003 -1.3265  0.2964  0.4755
 9372SOL    HW229057   3.365   5.872   0.067  0.6716  1.4679  0.5795
 9373SOL     OW29058   5.271   5.888   3.492 -0.0262 -0.2415  0.3433
 9373SOL    HW129059   5.212   5.942   3.441 -1.3514 -0.5664  1.4809
 9373SOL    HW229060   5.252   5.799   3.465  1.1127 -0.2601 -0.4582
 9374SOL     OW29061   4.506   0.542   0.262 -0.2985 -0.1765 -0.1676
 9374SOL    HW129062   4.447   0.468   0.276  0.1409 -0.8259 -1.5447
 9374SOL    HW229063   4.535   0.532   0.171  1.5789  0.3607  0.3316
 9375SOL     OW29064   3.250   5.878   2.549 -0.2326 -0.4171  0.0214
 9375SOL    HW129065   3.235   5.783   2.555  0.3576 -0.5606 -0.5379
 9375SOL    HW229066   3.318   5.896   2.614  0.8373 -0.6808 -0.9791
 9376SOL     OW29067   0.632   3.632   3.440  0.2196 -0.0452 -0.2659
 9376SOL    HW129068   0.641   3.558   3.381 -0.0925 -0.3520  0.0636
 9376SOL    HW229069   0.588   3.699   3.387  0.9182  0.0809 -0.7031
 9377SOL     OW29070   6.414   5.883   2.789 -0.6195  0.4938  0.2066
 9377SOL    HW129071   6.400   5.809   2.730  0.1241  0.1816  0.4100
 9377SOL    HW229072   6.399   5.847   2.877 -0.3933  0.6083  0.2950
 9378SOL     OW29073   7.113   2.014   3.860  0.4887  0.4310  1.1447
 9378SOL    HW129074   7.058   1.942   3.830 -0.7898  2.0007 -0.4793
 9378SOL    HW229075   7.202   1.986   3.838 -0.0061 -0.4913  0.2225
 9379SOL     OW29076   0.869   2.350   1.153 -0.3449  0.4536 -0.1764
 9379SOL    HW129077   0.873   2.271   1.207  2.9573 -0.6669 -1.7941
 9379SOL    HW229078   0.876   2.318   1.063 -0.0604  2.5542 -0.9506
 9380SOL     OW29079   7.402   1.019   5.180  0.0752 -0.2795  0.3637
 9380SOL    HW129080   7.383   0.933   5.216 -0.1640 -1.4980 -2.4795
 9380SOL    HW229081   7.498   1.024   5.179  0.0867 -0.4208  0.6939
 9381SOL     OW29082   7.178   2.143   6.427 -0.2684 -0.3755 -0.4374
 9381SOL    HW129083   7.083   2.154   6.418 -0.4232 -1.6396 -0.5702
 9381SOL    HW229084   7.190   2.105   6.514  0.2058  0.5321 -0.0873
 9382SOL     OW29085   3.623   2.623   4.547  0.1960 -1.6548 -0.0943
 9382SOL    HW129086   3.665   2.693   4.497 -0.5086 -1.5369 -0.5394
 9382SOL    HW229087   3.636   2.649   4.639 -1.7425  0.1343 -0.2468
 9383SOL     OW29088   5.571   3.248   5.402  0.2471  0.2429  0.0383
 9383SOL    HW129089   5.617   3.167   5.377 -0.6376 -0.4834  0.6840
 9383SOL    HW229090   5.490   3.246   5.352  0.1104  0.6118  0.2458
 9384SOL     OW29091   1.650   3.299   6.812 -0.6488 -0.4428  0.1686
 9384SOL    HW129092   1.562   3.268   6.790  0.3565 -2.1616 -1.8287
 9384SOL    HW229093   1.665   3.372   6.752 -0.3012 -0.9483 -0.3795
 9385SOL     OW29094   2.432   5.204   1.997 -0.0175 -0.7184 -0.4756
 9385SOL    HW129095   2.451   5.166   1.911  1.7528 -0.1705 -0.3769
 9385SOL    HW229096   2.512   5.188   2.049  0.3183  1.8782 -0.0109
 9386SOL     OW29097   6.461   5.186   4.240  0.5634  0.6877  0.0142
 9386SOL    HW129098   6.391   5.215   4.181  0.4033 -0.7272 -0.5349
 9386SOL    HW229099   6.526   5.256   4.237  0.6139  0.6133 -1.9558
 9387SOL     OW29100   0.178   2.975   2.677 -0.0152 -0.4797  0.3091
 9387SOL    HW129101   0.106   2.940   2.728 -0.4692 -0.5091 -0.3406
 9387SOL    HW229102   0.222   2.898   2.641 -0.6101 -0.4307 -0.5684
 9388SOL     OW29103   6.886   0.791   4.391 -0.0401  0.6321  0.1143
 9388SOL    HW129104   6.863   0.710   4.347  0.7097  1.2878 -1.5639
 9388SOL    HW229105   6.804   0.839   4.398 -0.1984  0.4382 -0.4192
 9389SOL     OW29106   4.566   6.272   1.979 -0.1337  0.3247  0.6176
 9389SOL    HW129107   4.522   6.192   1.951 -1.9078  2.0180 -1.7597
 9389SOL    HW229108   4.659   6.248   1.984 -0.5912 -1.8007 -0.2600
 9390SOL     OW29109   3.217   4.894   6.171 -0.2936  0.0650  0.1280
 9390SOL    HW129110   3.160   4.819   6.157  0.3856 -0.2474 -1.1578
 9390SOL    HW229111   3.302   4.866   6.139  0.4402  0.7497  1.3953
 9391SOL     OW29112   6.054   3.253   0.728  0.5554 -1.1165 -0.7695
 9391SOL    HW129113   5.999   3.234   0.803 -0.7170 -0.5429 -1.5329
 9391SOL    HW229114   6.044   3.347   0.714  1.9636 -0.9404 -0.7611
 9392SOL     OW29115   1.177   0.389   5.526 -0.2830 -0.3885 -0.5952
 9392SOL    HW129116   1.128   0.418   5.603  0.6187  0.0836 -0.1870
 9392SOL    HW229117   1.119   0.326   5.483 -0.1615 -1.9319  1.3465
 9393SOL     OW29118   3.036   2.278   2.920 -0.1622 -0.1113  0.1502
 9393SOL    HW129119   3.122   2.259   2.883  1.1081  1.0579  2.3237
 9393SOL    HW229120   2.976   2.221   2.871  1.9209 -1.4883 -0.9471
 9394SOL     OW29121   6.643   4.309   6.465  0.0026 -0.1961  0.1569
 9394SOL    HW129122   6.620   4.265   6.383  0.1711 -3.0897  1.5613
 9394SOL    HW229123   6.593   4.262   6.532  1.9806  0.2529  2.0455
 9395SOL     OW29124   5.538   6.387   5.331  0.6271 -0.6540 -0.0539
 9395SOL    HW129125   5.483   6.389   5.252 -0.2956 -0.2147  0.5846
 9395SOL    HW229126   5.557   6.294   5.345 -1.3101 -0.9862  0.6186
 9396SOL     OW29127   4.444   1.618   4.975  0.0854 -0.8993 -0.0297
 9396SOL    HW129128   4.358   1.576   4.971  1.4515 -3.9452 -0.5044
 9396SOL    HW229129   4.485   1.580   5.053  1.0445  0.4966  0.1794
 9397SOL     OW29130   2.030   6.398   6.047  0.1660 -0.0262 -0.4081
 9397SOL    HW129131   2.009   6.455   6.121  1.2744 -0.1320  0.0129
 9397SOL    HW229132   2.066   6.319   6.088 -1.7079 -1.2165 -0.9651
 9398SOL     OW29133   3.107   4.325   5.370 -0.2969  0.0729  0.0717
 9398SOL    HW129134   3.159   4.276   5.306 -1.6108 -0.8842 -0.2918
 9398SOL    HW229135   3.171   4.381   5.415  0.9015 -0.4372 -0.9453
 9399SOL     OW29136   4.341   3.859   3.495 -0.8913 -0.9205  0.3147
 9399SOL    HW129137   4.363   3.942   3.537 -0.2132 -0.9467  0.0301
 9399SOL    HW229138   4.258   3.876   3.451  0.3859  0.3903 -1.7813
 9400SOL     OW29139   4.274   0.525   4.639 -0.2905 -0.2484  0.3680
 9400SOL    HW129140   4.220   0.507   4.716 -0.6293 -1.5049 -0.1394
 9400SOL    HW229141   4.336   0.592   4.668 -0.8973 -0.1529  1.5074
 9401SOL     OW29142   6.189   0.780   3.725  0.4778  0.1112 -0.2078
 9401SOL    HW129143   6.277   0.747   3.745  0.2605  0.2881  1.1279
 9401SOL    HW229144   6.196   0.875   3.732  0.0195  0.0920  0.6754
 9402SOL     OW29145   1.486   6.840   6.577  0.1882 -0.5475 -0.4988
 9402SOL    HW129146   1.430   6.898   6.526  0.6843 -0.2661 -0.7336
 9402SOL    HW229147   1.528   6.897   6.641 -0.8042 -0.9744  0.5681
 9403SOL     OW29148   0.210   0.441   7.050 -0.1324 -0.5595 -0.2012
 9403SOL    HW129149   0.255   0.517   7.087 -1.8423  0.4404 -0.0740
 9403SOL    HW229150   0.167   0.399   7.126 -1.9386  0.3080 -0.6807
 9404SOL     OW29151   7.378   6.479   0.817  0.7188 -0.1377 -0.2950
 9404SOL    HW129152   7.322   6.460   0.742 -0.0382 -1.4115  0.5524
 9404SOL    HW229153   7.424   6.397   0.835  1.3440  0.3164  0.2756
 9405SOL     OW29154   0.899   6.773   2.810  0.2222  0.5303 -0.0362
 9405SOL    HW129155   0.971   6.756   2.872 -1.3201  0.5615  1.8685
 9405SOL    HW229156   0.849   6.691   2.811  0.5156  0.3075 -1.7903
 9406SOL     OW29157   4.322   0.550   6.287 -0.2238  0.8822 -0.2676
 9406SOL    HW129158   4.311   0.595   6.203 -0.9125 -0.0048 -0.6665
 9406SOL    HW229159   4.234   0.548   6.325 -0.3572 -0.7093 -0.5829
 9407SOL     OW29160   3.880   7.211   6.723 -0.1151  0.5574 -0.2155
 9407SOL    HW129161   3.801   7.236   6.677  0.1387  1.7021 -0.0618
 9407SOL    HW229162   3.949   7.214   6.657 -0.2644 -0.9069 -0.4587
 9408SOL     OW29163   4.579   4.433   1.736 -0.5802 -1.1704 -0.0759
 9408SOL    HW129164   4.664   4.461   1.703 -0.6508  0.5453  1.0717
 9408SOL    HW229165   4.570   4.343   1.704  1.4985 -1.2880 -0.5141
 9409SOL     OW29166   4.705   3.197   1.152 -0.0947 -0.4982  0.0299
 9409SOL    HW129167   4.645   3.228   1.219 -0.5523  1.0326 -1.0378
 9409SOL    HW229168   4.779   3.258   1.154 -0.4696  0.0457 -1.3324
 9410SOL     OW29169   0.130   0.696   6.513 -0.2792 -0.4828  0.0676
 9410SOL    HW129170   0.049   0.725   6.471  1.1932  1.7158 -1.4830
 9410SOL    HW229171   0.150   0.764   6.577  0.0355 -1.3622  0.9461
 9411SOL     OW29172   4.540   4.881   2.882  0.2051  0.0775 -0.0307
 9411SOL    HW129173   4.612   4.817   2.882 -0.8852 -1.2033 -0.8517
 9411SOL    HW229174   4.463   4.830   2.858 -0.8909  1.5364  0.2710
 9412SOL     OW29175   4.879   0.012   4.983 -0.0189 -0.1644 -0.0043
 9412SOL    HW129176   4.888  -0.031   4.898  0.7916  1.1121 -0.5762
 9412SOL    HW229177   4.968   0.025   5.014 -0.2813  0.3430  0.5623
 9413SOL     OW29178   3.663   1.606   1.423 -0.0513 -0.0909 -0.8123
 9413SOL    HW129179   3.710   1.551   1.360 -0.7411  0.2280 -1.6289
 9413SOL    HW229180   3.663   1.555   1.504  0.0126 -0.9483 -1.3388
 9414SOL     OW29181   0.795   1.775   6.628  0.0668 -0.0332  0.3083
 9414SOL    HW129182   0.847   1.807   6.702 -0.1276  1.2070 -0.0788
 9414SOL    HW229183   0.856   1.774   6.554 -0.0367 -0.1878  0.2230
 9415SOL     OW29184   4.119   1.478   5.478 -0.7470 -0.5248  0.0968
 9415SOL    HW129185   4.167   1.553   5.442 -1.5576  0.1837  0.4671
 9415SOL    HW229186   4.131   1.485   5.572 -1.0092 -0.7328  0.1474
 9416SOL     OW29187   4.591   1.198   1.074  0.1049  0.0157 -0.4191
 9416SOL    HW129188   4.550   1.268   1.024  2.2014 -0.4987 -3.0581
 9416SOL    HW229189   4.666   1.239   1.117 -0.8865  0.1475  1.2766
 9417SOL     OW29190   2.049   3.123   3.355  0.8936  0.0740 -0.2190
 9417SOL    HW129191   2.075   3.189   3.419  0.8418 -0.2639  0.1561
 9417SOL    HW229192   2.062   3.165   3.270 -1.6227  1.5453  0.0144
 9418SOL     OW29193   2.925   4.240   5.527  0.3588  0.1031  0.1913
 9418SOL    HW129194   2.909   4.148   5.507 -0.5011  0.4580 -0.8347
 9418SOL    HW229195   2.984   4.270   5.458  0.3257  0.4196  0.3013
 9419SOL     OW29196   3.145   6.572   3.032 -0.6231 -0.0165  0.1122
 9419SOL    HW129197   3.107   6.496   2.989  1.4822  0.0620 -2.1590
 9419SOL    HW229198   3.227   6.587   2.985  0.3738  2.0110  2.2861
 9420SOL     OW29199   2.578   3.391   0.177  0.2886 -0.2402 -0.2221
 9420SOL    HW129200   2.488   3.397   0.145  0.6467  0.9507 -1.0706
 9420SOL    HW229201   2.570   3.353   0.265 -1.2084  1.4934  0.4602
 9421SOL     OW29202   2.323   1.217   5.917 -0.1301 -0.2395  0.3755
 9421SOL    HW129203   2.374   1.137   5.909 -2.2640 -1.8091  1.4082
 9421SOL    HW229204   2.378   1.276   5.969  1.6749 -0.7974 -0.8033
 9422SOL     OW29205   2.201   4.572   6.631 -0.3642  0.0195 -0.3958
 9422SOL    HW129206   2.175   4.509   6.564 -1.4994 -2.1817  1.9665
 9422SOL    HW229207   2.121   4.619   6.652 -0.1030  0.4168 -0.2826
 9423SOL     OW29208   4.400   2.365   5.544 -0.2090 -0.4269 -0.1834
 9423SOL    HW129209   4.481   2.354   5.593 -0.1115  0.0366 -0.2398
 9423SOL    HW229210   4.411   2.311   5.465  0.6792  0.8286 -0.9605
 9424SOL     OW29211   6.535   1.458   6.778  0.2308  0.3482 -0.5083
 9424SOL    HW129212   6.480   1.507   6.838 -0.5087 -1.6572  0.5463
 9424SOL    HW229213   6.605   1.422   6.833  0.3103 -0.4091 -1.0887
 9425SOL     OW29214   2.447   1.217   5.020 -0.0555  0.3908  0.0445
 9425SOL    HW129215   2.384   1.193   5.088 -1.7356  1.7322 -0.9197
 9425SOL    HW229216   2.524   1.163   5.037  0.0054  1.3261  3.5609
 9426SOL     OW29217   2.420   5.006   3.698  0.8608  0.2377  0.2881
 9426SOL    HW129218   2.428   5.056   3.617 -1.6922  0.2201 -0.0519
 9426SOL    HW229219   2.476   4.930   3.685 -1.7523 -1.3752 -2.8527
 9427SOL     OW29220   0.590   2.985   0.833  0.1955  0.4586 -0.6230
 9427SOL    HW129221   0.626   3.025   0.913 -1.5086 -0.3969  0.6479
 9427SOL    HW229222   0.547   3.057   0.787  0.5817  0.8330 -0.4058
 9428SOL     OW29223   5.504   5.238   0.949 -0.4685 -0.4152  0.3036
 9428SOL    HW129224   5.554   5.311   0.913 -0.7489  0.3959  1.4896
 9428SOL    HW229225   5.477   5.187   0.873 -0.4896  0.8543 -0.5673
 9429SOL     OW29226   4.387   1.726   4.604 -0.2674  0.4421 -0.7302
 9429SOL    HW129227   4.362   1.746   4.514 -0.1033 -0.0811 -0.8927
 9429SOL    HW229228   4.482   1.716   4.602 -0.1403  1.4412 -0.2972
 9430SOL     OW29229   1.497   4.895   0.087  0.3639 -0.3279  0.2069
 9430SOL    HW129230   1.567   4.955   0.114  0.2861 -0.6830  1.2709
 9430SOL    HW229231   1.418   4.931   0.127  0.2806 -0.9955  0.6742
 9431SOL     OW29232   3.617   4.139   1.000  0.0036  0.6836  0.0679
 9431SOL    HW129233   3.659   4.104   1.079  0.3721 -0.0275 -0.4382
 9431SOL    HW229234   3.592   4.228   1.024  2.3317  1.3759  0.2153
 9432SOL     OW29235   4.296   4.265   3.061 -0.2127  0.5466 -0.4080
 9432SOL    HW129236   4.310   4.359   3.046 -0.4470  0.8020  0.8755
 9432SOL    HW229237   4.308   4.253   3.155  0.5009 -0.8478 -0.6420
 9433SOL     OW29238   0.062   6.238   6.782 -0.6042 -0.2591 -0.0268
 9433SOL    HW129239   0.056   6.269   6.692 -1.6475  1.8047  0.6875
 9433SOL    HW229240   0.154   6.213   6.793 -0.4689 -0.5579 -1.6319
 9434SOL     OW29241   1.150   6.275   5.924  0.1860 -0.1605  0.2571
 9434SOL    HW129242   1.085   6.303   5.860  0.9672  0.7199 -0.1702
 9434SOL    HW229243   1.140   6.180   5.928 -1.1753 -0.0321  0.2732
 9435SOL     OW29244   3.544   3.295   7.055  0.2901 -0.2778  0.3160
 9435SOL    HW129245   3.456   3.333   7.057  0.5226  0.2932  0.0844
 9435SOL    HW229246   3.590   3.345   6.987 -0.1138 -2.6107 -1.8180
 9436SOL     OW29247   4.470   6.170   3.443 -0.1466  0.1173 -0.0224
 9436SOL    HW129248   4.479   6.142   3.534 -1.8168 -2.6171 -0.5922
 9436SOL    HW229249   4.433   6.259   3.448 -1.2750 -0.4210  1.9744
 9437SOL     OW29250   0.823   3.448   6.933 -0.2722 -0.1073  0.0946
 9437SOL    HW129251   0.817   3.543   6.920 -0.4821 -0.1378 -0.0381
 9437SOL    HW229252   0.903   3.423   6.888 -0.2863 -0.0112  0.0152
 9438SOL     OW29253   1.393   3.981   5.296 -0.0985 -0.1428 -0.5105
 9438SOL    HW129254   1.434   3.904   5.256  0.5318 -0.0217 -0.1219
 9438SOL    HW229255   1.307   3.950   5.324  0.1741 -0.7417 -0.2907
 9439SOL     OW29256   6.350   0.897   0.416  0.2595 -0.0424 -0.0043
 9439SOL    HW129257   6.258   0.879   0.436  0.1537  0.1213 -0.3379
 9439SOL    HW229258   6.371   0.975   0.467 -0.1362  0.6373 -0.8567
 9440SOL     OW29259   5.811   0.014   4.503  0.8084 -0.7196 -0.2423
 9440SOL    HW129260   5.747   0.016   4.432 -0.7643  1.2638  1.1525
 9440SOL    HW229261   5.768   0.058   4.576  2.9245 -1.3850  1.5007
 9441SOL     OW29262   5.495   6.537   7.193  0.2026 -0.2592  0.1134
 9441SOL    HW129263   5.447   6.613   7.227  2.1856  1.7904 -1.3917
 9441SOL    HW229264   5.485   6.470   7.261 -2.9845  0.7289  0.7764
 9442SOL     OW29265   2.622   4.790   1.166  0.6055 -0.0530 -0.2161
 9442SOL    HW129266   2.530   4.799   1.192  0.3310 -2.4446 -0.1620
 9442SOL    HW229267   2.631   4.849   1.090 -1.0807 -0.0659 -0.4727
 9443SOL     OW29268   5.109   1.633   0.557 -0.1929  0.3619  0.2241
 9443SOL    HW129269   5.132   1.726   0.564  2.6145 -0.2365  0.4587
 9443SOL    HW229270   5.022   1.626   0.596  0.3486  2.5944  2.0575
 9444SOL     OW29271   4.822   0.479   4.165  0.2839  0.0784  0.2165
 9444SOL    HW129272   4.787   0.553   4.116 -0.5253 -0.1846  0.3782
 9444SOL    HW229273   4.821   0.406   4.104  2.5896  0.5243 -0.4509
 9445SOL     OW29274   1.187   4.150   2.632  0.4328 -0.1035  0.0190
 9445SOL    HW129275   1.145   4.078   2.586  0.7604 -0.2060 -0.1230
 9445SOL    HW229276   1.222   4.206   2.563  0.5344 -0.0236  0.1339
 9446SOL     OW29277   4.775   3.821   2.976  0.5696 -0.6324 -0.1465
 9446SOL    HW129278   4.820   3.834   3.059  0.1636  2.7587 -0.3307
 9446SOL    HW229279   4.685   3.800   3.000  0.3640  0.7116  0.3391
 9447SOL     OW29280   6.949   0.128   5.459 -0.5007 -0.7820 -0.3131
 9447SOL    HW129281   6.955   0.201   5.398  2.7460 -1.0995 -0.5830
 9447SOL    HW229282   6.965   0.168   5.545 -1.8884 -0.7716 -0.0474
 9448SOL     OW29283   5.055   3.527   7.171 -0.0610  0.8601 -0.8743
 9448SOL    HW129284   5.117   3.533   7.098 -0.8574  1.0228 -1.5529
 9448SOL    HW229285   4.993   3.460   7.144 -1.0650  1.7689 -0.8937
 9449SOL     OW29286   4.506   3.625   5.907  0.0188 -0.2643  0.2765
 9449SOL    HW129287   4.464   3.554   5.956 -1.8339 -0.9452 -2.0903
 9449SOL    HW229288   4.579   3.582   5.862  0.7641  0.0291  1.1736
 9450SOL     OW29289   1.130   7.294   3.305  0.1160  0.4653  0.1041
 9450SOL    HW129290   1.140   7.378   3.349 -3.1085  2.2320 -2.1063
 9450SOL    HW229291   1.041   7.266   3.324  1.0496 -2.5205  0.6863
 9451SOL     OW29292   4.988   5.418   0.991  0.3400 -0.2902  0.0928
 9451SOL    HW129293   4.951   5.358   1.056 -0.4860 -0.5857 -0.6387
 9451SOL    HW229294   4.914   5.447   0.939  0.6038  1.9815  0.8803
 9452SOL     OW29295   5.497   2.040   7.241 -0.1026 -0.0747 -0.0166
 9452SOL    HW129296   5.451   2.106   7.294  2.4985  0.1265  2.2131
 9452SOL    HW229297   5.438   1.965   7.241 -1.7882  1.1772  0.0152
 9453SOL     OW29298   6.979   7.294   5.621 -0.4341  0.0087 -0.5392
 9453SOL    HW129299   6.885   7.287   5.640 -0.2293  0.4188  0.7288
 9453SOL    HW229300   6.986   7.370   5.564 -0.7256  1.0413  0.7404
 9454SOL     OW29301   6.923   0.652   3.544  0.5090  0.0329 -0.1029
 9454SOL    HW129302   6.833   0.625   3.524  0.4056  0.1771  0.1625
 9454SOL    HW229303   6.977   0.580   3.511  0.5324  1.2016 -2.8873
 9455SOL     OW29304   5.451   7.081   2.366  0.3604 -0.0303 -0.1663
 9455SOL    HW129305   5.528   7.126   2.400  0.5112  0.0192 -0.5697
 9455SOL    HW229306   5.387   7.150   2.352  0.7980  0.1651 -1.3647
 9456SOL     OW29307   4.816   2.997   6.261  0.4221  0.2894  0.8472
 9456SOL    HW129308   4.787   3.022   6.173  0.3944 -2.2136  0.0655
 9456SOL    HW229309   4.772   3.059   6.320 -0.6073  1.1935 -0.8050
 9457SOL     OW29310   5.366   6.221   2.062  0.2382 -0.0373  0.3834
 9457SOL    HW129311   5.305   6.154   2.031 -0.5127  1.0482 -0.5561
 9457SOL    HW229312   5.412   6.179   2.134 -0.8576 -1.2595  0.4169
 9458SOL     OW29313   5.920   3.974   0.157  0.0357 -0.0040  0.7053
 9458SOL    HW129314   5.996   3.922   0.130 -0.1024  0.2893 -0.3166
 9458SOL    HW229315   5.848   3.910   0.161 -0.3162  0.1697 -1.3354
 9459SOL     OW29316   3.080   4.124   3.969 -0.3863 -0.1047 -0.2439
 9459SOL    HW129317   3.087   4.050   3.908 -1.9427  1.0953 -1.9813
 9459SOL    HW229318   3.170   4.146   3.990  0.3541  0.5366 -3.5773
 9460SOL     OW29319   2.816   5.517   5.757 -0.4324 -0.3071  0.0357
 9460SOL    HW129320   2.869   5.593   5.734 -1.9033  1.2036  1.3979
 9460SOL    HW229321   2.729   5.536   5.720 -1.1045 -0.7808  1.2933
 9461SOL     OW29322   0.118   4.341   6.223  0.1648 -0.5079 -0.3867
 9461SOL    HW129323   0.044   4.304   6.176 -0.4675 -0.3248  0.4354
 9461SOL    HW229324   0.083   4.363   6.310  0.9665  0.3490 -0.2621
 9462SOL     OW29325   0.769   0.319   5.033 -0.4400 -0.5396 -0.6065
 9462SOL    HW129326   0.853   0.307   4.988  0.0113 -0.8616  0.3028
 9462SOL    HW229327   0.761   0.413   5.044 -1.4822 -0.2483 -3.0488
 9463SOL     OW29328   2.733   1.409   3.496 -0.1750  0.1134  0.1245
 9463SOL    HW129329   2.642   1.382   3.507 -0.0920  0.5513  2.5352
 9463SOL    HW229330   2.731   1.504   3.496  0.1729  0.1495 -1.4445
 9464SOL     OW29331   5.978   1.228   6.299  0.1346  0.1536  0.0411
 9464SOL    HW129332   5.922   1.165   6.253  0.9281 -0.4647 -0.0955
 9464SOL    HW229333   5.940   1.234   6.387  0.0817 -0.5658  0.0753
 9465SOL     OW29334   5.470   4.717   7.264  0.4751  0.0296 -0.3495
 9465SOL    HW129335   5.562   4.711   7.290  1.1109  1.5971 -1.9759
 9465SOL    HW229336   5.453   4.811   7.259 -0.8720 -0.2369 -1.2081
 9466SOL     OW29337   6.415   0.942   5.768  0.3804  0.2637  0.4192
 9466SOL    HW129338   6.403   1.028   5.810 -0.7302 -0.2846  1.2864
 9466SOL    HW229339   6.410   0.880   5.840 -0.5399 -0.6402 -0.3899
 9467SOL     OW29340   5.796   5.569   4.108 -0.3066 -0.1106  0.4031
 9467SOL    HW129341   5.711   5.541   4.143 -0.3338 -1.1077 -0.4078
 9467SOL    HW229342   5.792   5.664   4.107 -0.8565 -0.1020  1.7356
 9468SOL     OW29343   6.076   7.261   6.666  0.0084  0.0545  0.4705
 9468SOL    HW129344   6.068   7.344   6.714 -0.2493 -0.1961  0.8742
 9468SOL    HW229345   6.026   7.275   6.586 -0.7494  0.0199  0.9188
 9469SOL     OW29346   6.916   4.294   1.741  0.1178 -0.0864  0.3245
 9469SOL    HW129347   6.907   4.225   1.807  0.7660  0.8280  1.4068
 9469SOL    HW229348   7.010   4.305   1.730  0.0646 -1.3949 -2.0669
 9470SOL     OW29349   3.074   2.459   3.172  0.7127 -0.2815  0.1621
 9470SOL    HW129350   3.095   2.380   3.124  2.2655 -0.3867  0.9390
 9470SOL    HW229351   3.040   2.428   3.256 -0.0076 -0.1100 -0.0614
 9471SOL     OW29352   2.529   4.930   4.434  0.4597  0.3003  0.3495
 9471SOL    HW129353   2.606   4.942   4.490  1.1035  0.4928 -0.5367
 9471SOL    HW229354   2.562   4.882   4.358  0.0022  1.4891 -0.6434
 9472SOL     OW29355   1.863   1.974   5.631  0.2405  0.0326 -0.4277
 9472SOL    HW129356   1.934   2.003   5.574  0.6541  1.1578  0.6103
 9472SOL    HW229357   1.902   1.972   5.719 -1.2463  1.6643  0.3334
 9473SOL     OW29358   1.261   0.302   3.088 -0.4209  0.5496 -0.1569
 9473SOL    HW129359   1.288   0.336   3.173  0.2786  0.6606 -0.4174
 9473SOL    HW229360   1.336   0.317   3.031 -1.2494  1.3667 -1.0496
 9474SOL     OW29361   5.622   1.937   2.786 -0.1512 -0.0507  0.2755
 9474SOL    HW129362   5.594   1.878   2.715  1.1999 -0.5095  0.1029
 9474SOL    HW229363   5.684   1.885   2.837  0.1875  0.8564  0.7981
 9475SOL     OW29364   5.583   4.906   0.034 -0.7034  0.5528 -0.0899
 9475SOL    HW129365   5.664   4.858   0.016 -0.9325  0.2098 -0.1974
 9475SOL    HW229366   5.549   4.931  -0.052 -1.4206 -0.4727 -0.1230
 9476SOL     OW29367   0.755   3.970   1.864 -0.5072  0.0628 -0.3874
 9476SOL    HW129368   0.680   3.924   1.901  0.7245 -2.0032 -0.2728
 9476SOL    HW229369   0.786   4.027   1.935 -0.5830 -0.8389  0.3858
 9477SOL     OW29370   3.505   0.078   6.262 -0.3563 -0.1751  0.2726
 9477SOL    HW129371   3.552   0.002   6.226 -0.6664  0.3083 -1.2422
 9477SOL    HW229372   3.449   0.107   6.190  0.2645  1.9154  0.5587
 9478SOL     OW29373   2.716   5.688   0.665  0.0655  0.1708 -1.0076
 9478SOL    HW129374   2.780   5.710   0.733  0.0403 -0.9074 -0.6122
 9478SOL    HW229375   2.768   5.651   0.594 -0.0678 -0.2640 -0.8812
 9479SOL     OW29376   2.425   0.535   1.547  1.3731 -0.4016  0.0993
 9479SOL    HW129377   2.335   0.554   1.518  1.2227  0.4197  1.0447
 9479SOL    HW229378   2.441   0.446   1.518 -0.2042 -1.0171  1.0121
 9480SOL     OW29379   5.041   4.507   3.554  0.4631  0.1722 -0.6715
 9480SOL    HW129380   5.037   4.412   3.542 -0.5318  0.2599 -1.1470
 9480SOL    HW229381   5.042   4.519   3.649  3.2216 -0.3705 -0.5322
 9481SOL     OW29382   5.775   0.980   4.754  0.3440 -0.0437 -0.0305
 9481SOL    HW129383   5.805   1.071   4.759 -1.1143  0.4258  0.6813
 9481SOL    HW229384   5.848   0.929   4.789  1.2840  0.8058 -0.6775
 9482SOL     OW29385   6.942   5.069   0.616 -0.2501 -0.0511 -0.2109
 9482SOL    HW129386   6.963   5.030   0.701 -0.6155 -0.1494 -0.1627
 9482SOL    HW229387   6.979   5.009   0.552  1.3799  0.7879 -0.1202
 9483SOL     OW29388   3.307   3.382   4.738 -0.2802  0.3140 -0.4133
 9483SOL    HW129389   3.217   3.350   4.735 -0.1586 -0.0037 -0.7153
 9483SOL    HW229390   3.307   3.461   4.684 -0.1363 -0.2969 -1.3286
 9484SOL     OW29391   6.990   3.295   4.267 -0.1492 -0.2897 -0.1113
 9484SOL    HW129392   6.991   3.203   4.242 -0.5424 -0.2269 -0.3566
 9484SOL    HW229393   6.918   3.333   4.218 -0.8563 -0.1341  0.9989
 9485SOL     OW29394   2.265   2.398   0.036  0.6059  0.7669 -0.2654
 9485SOL    HW129395   2.189   2.454   0.018  1.0298  0.9686 -1.4965
 9485SOL    HW229396   2.309   2.440   0.110  0.0137  1.1311 -0.1122
 9486SOL     OW29397   3.592   4.712   7.424 -0.2396  0.1727  0.1623
 9486SOL    HW129398   3.670   4.695   7.476 -0.2196 -2.5561 -0.5785
 9486SOL    HW229399   3.619   4.693   7.334 -1.2250  1.2606 -0.3936
 9487SOL     OW29400   6.369   6.115   2.192 -0.2962 -0.8779 -0.1781
 9487SOL    HW129401   6.285   6.084   2.159  0.0166 -3.4724  1.1530
 9487SOL    HW229402   6.434   6.060   2.148  0.5869  0.0883 -0.1058
 9488SOL     OW29403   2.579   1.968   6.116  0.3248  0.0774 -0.1905
 9488SOL    HW129404   2.558   1.932   6.029  0.3936 -0.1658 -0.1069
 9488SOL    HW229405   2.569   1.894   6.176  0.2798  0.2458  0.0097
 9489SOL     OW29406   3.972   1.145   4.027  0.0285  0.0534  0.3907
 9489SOL    HW129407   3.914   1.110   3.959 -1.2054  0.2209  1.3208
 9489SOL    HW229408   3.998   1.068   4.078  0.6818 -0.0283 -0.0574
 9490SOL     OW29409   7.272   6.620   6.718 -0.5613 -0.2498  0.4959
 9490SOL    HW129410   7.185   6.596   6.750  0.2052 -1.4180  1.8354
 9490SOL    HW229411   7.288   6.559   6.646 -1.3354  0.8089 -0.6026
 9491SOL     OW29412   1.232   2.265   3.589 -1.3057 -0.1487 -0.3785
 9491SOL    HW129413   1.245   2.339   3.649 -1.1777  0.1025 -0.7104
 9491SOL    HW229414   1.138   2.247   3.592 -1.6734  1.3378 -1.8147
 9492SOL     OW29415   6.268   5.163   5.145  0.4206  0.3099  0.2101
 9492SOL    HW129416   6.294   5.121   5.064  1.8594 -0.7756  1.1887
 9492SOL    HW229417   6.185   5.121   5.168 -0.0318  0.6733 -0.7059
 9493SOL     OW29418   2.527   5.379   3.337 -0.3012 -0.0515  0.2581
 9493SOL    HW129419   2.531   5.307   3.274  1.1753 -0.1596  0.4322
 9493SOL    HW229420   2.483   5.450   3.290 -0.4440 -0.5795 -0.4215
 9494SOL     OW29421   5.362   3.238   6.362 -0.0278 -0.7521 -0.3670
 9494SOL    HW129422   5.446   3.280   6.344  0.9566 -2.3279  0.2910
 9494SOL    HW229423   5.369   3.209   6.453 -1.0607 -1.4060 -0.4797
 9495SOL     OW29424   3.082   1.218   4.348  0.0947  0.1831 -0.9823
 9495SOL    HW129425   3.006   1.247   4.297 -0.5272 -1.0027 -0.7547
 9495SOL    HW229426   3.073   1.262   4.432  0.1617  0.7543 -1.2684
 9496SOL     OW29427   6.107   7.014   0.680 -0.9907  0.0080 -0.0709
 9496SOL    HW129428   6.066   7.028   0.765 -0.8048  0.4492 -0.0494
 9496SOL    HW229429   6.038   6.978   0.625 -1.6054  1.3459 -0.2235
 9497SOL     OW29430   1.943   4.559   1.246 -0.3057  0.1624 -0.2503
 9497SOL    HW129431   2.026   4.588   1.284  0.0596 -0.4011 -0.6134
 9497SOL    HW229432   1.951   4.464   1.242 -0.5912  0.1748 -1.1757
 9498SOL     OW29433   5.375   5.668   5.900  0.5476 -0.0276 -0.1145
 9498SOL    HW129434   5.349   5.737   5.840  3.0610  1.9077  0.8472
 9498SOL    HW229435   5.305   5.665   5.965 -0.6326  0.0520 -1.3415
 9499SOL     OW29436   7.320   6.072   3.268  0.5798  0.6085 -0.5201
 9499SOL    HW129437   7.354   6.000   3.321 -0.4429  0.2353 -0.3517
 9499SOL    HW229438   7.239   6.099   3.312  1.1805  2.1769 -0.3170
 9500SOL     OW29439   0.571   2.944   3.970  0.1414 -0.0166 -0.6065
 9500SOL    HW129440   0.577   2.913   4.060 -0.2016 -0.1637 -0.6314
 9500SOL    HW229441   0.487   2.991   3.967  1.1276  1.8294 -0.2927
 9501SOL     OW29442   6.835   3.712   1.563  0.2167  0.1849  0.1516
 9501SOL    HW129443   6.890   3.790   1.569 -1.7002  1.6056  0.1563
 9501SOL    HW229444   6.839   3.687   1.471  0.0100  0.9515 -0.0745
 9502SOL     OW29445   0.758   1.662   5.578 -0.0121  0.1115  0.3523
 9502SOL    HW129446   0.845   1.659   5.537  0.9396  1.8723  2.0616
 9502SOL    HW229447   0.710   1.728   5.527  1.0901  2.1234  1.7634
 9503SOL     OW29448   2.536   6.297   0.170 -0.1692  0.0441 -0.6648
 9503SOL    HW129449   2.598   6.265   0.235 -0.9128  0.0829  0.0964
 9503SOL    HW229450   2.548   6.392   0.170  0.0391  0.0176 -0.8025
 9504SOL     OW29451   2.485   3.758   2.428 -0.1455 -0.0953 -0.0508
 9504SOL    HW129452   2.519   3.776   2.340  2.5679  0.4349  1.0298
 9504SOL    HW229453   2.452   3.843   2.458 -0.2143 -0.0750 -0.1795
 9505SOL     OW29454   6.360   1.691   6.208 -0.2948  0.3962 -0.2454
 9505SOL    HW129455   6.345   1.668   6.300 -2.2386 -1.5192 -0.9571
 9505SOL    HW229456   6.429   1.630   6.180  0.0746  0.7681 -0.1568
 9506SOL     OW29457   4.100   6.457   4.059 -0.3112  0.1833  0.4517
 9506SOL    HW129458   4.165   6.527   4.064 -0.9577  0.8345 -0.0666
 9506SOL    HW229459   4.096   6.422   4.149  0.9119 -0.0415  0.4434
 9507SOL     OW29460   6.787   4.452   0.183 -0.3524  0.0094 -0.2520
 9507SOL    HW129461   6.775   4.538   0.143 -0.6808  0.4594  0.7837
 9507SOL    HW229462   6.730   4.394   0.133 -0.2011  0.3996 -0.8979
 9508SOL     OW29463   1.111   7.330   2.256 -0.5197  0.4648 -0.1781
 9508SOL    HW129464   1.139   7.258   2.199  0.9330 -0.4148  1.5449
 9508SOL    HW229465   1.017   7.337   2.240 -0.4776 -0.9663 -1.3199
 9509SOL     OW29466   6.403   6.802   0.376 -0.7349  0.1217 -0.5939
 9509SOL    HW129467   6.379   6.835   0.462 -3.2037  0.9408 -1.5052
 9509SOL    HW229468   6.374   6.711   0.375  0.1284 -0.1688 -0.2868
 9510SOL     OW29469   2.499   2.125   0.190 -0.1536 -0.0092  0.1919
 9510SOL    HW129470   2.475   2.161   0.104  0.1918  0.9468  0.4831
 9510SOL    HW229471   2.460   2.037   0.191 -2.5154  0.9899  0.1577
 9511SOL     OW29472   1.434   5.401   1.464 -1.1217  0.0297 -0.8877
 9511SOL    HW129473   1.400   5.421   1.377 -0.1423  1.5842 -0.9443
 9511SOL    HW229474   1.368   5.434   1.524 -1.6525 -0.7660 -1.0180
 9512SOL     OW29475   2.987   0.073   6.733  0.6350 -0.2503 -0.6120
 9512SOL    HW129476   3.077   0.041   6.738  1.2068  1.4310  0.6044
 9512SOL    HW229477   2.970   0.113   6.819  0.4406  3.7415 -2.2725
 9513SOL     OW29478   4.103   0.035   1.990  0.2166 -0.1024 -0.0921
 9513SOL    HW129479   4.052  -0.045   1.995 -1.0124  0.6970  0.6101
 9513SOL    HW229480   4.084   0.071   1.904  1.3966 -0.9319 -0.7354
 9514SOL     OW29481   5.122   7.242   4.293  0.7605  0.1136 -0.4225
 9514SOL    HW129482   5.155   7.331   4.278 -0.1250  0.3991 -0.7549
 9514SOL    HW229483   5.033   7.255   4.327  0.5756 -0.6397 -0.6037
 9515SOL     OW29484   2.439   2.850   2.153 -0.3179  0.5596 -0.2966
 9515SOL    HW129485   2.417   2.942   2.172 -0.3673  0.9915 -2.1905
 9515SOL    HW229486   2.380   2.826   2.081 -2.3590 -1.9455  2.0304
 9516SOL     OW29487   7.299   4.442   0.573  0.0948  0.5350  0.1960
 9516SOL    HW129488   7.273   4.350   0.573  0.7289  0.3475  0.1879
 9516SOL    HW229489   7.384   4.442   0.528 -0.0837  1.1756 -0.1481
 9517SOL     OW29490   2.923   5.074   6.344 -0.2465 -0.1451 -0.7404
 9517SOL    HW129491   2.862   5.137   6.306 -0.0790  1.6741  1.7130
 9517SOL    HW229492   3.005   5.088   6.298 -0.3551  1.1344 -0.5836
 9518SOL     OW29493   0.172   5.633   5.681 -0.1070  0.6603 -0.1548
 9518SOL    HW129494   0.248   5.689   5.697 -0.1543  0.3687  1.2033
 9518SOL    HW229495   0.097   5.693   5.686 -0.0353  0.7994 -0.6522
 9519SOL     OW29496   4.301   2.610   5.672 -0.6853  0.2743 -0.4676
 9519SOL    HW129497   4.341   2.525   5.656  1.0758  0.7346  1.1439
 9519SOL    HW229498   4.315   2.659   5.590  1.3073  0.0990 -0.2769
 9520SOL     OW29499   1.949   5.457   3.667  0.1375  0.2629  0.3016
 9520SOL    HW129500   1.945   5.517   3.741 -0.8456  0.0066  0.4657
 9520SOL    HW229501   2.015   5.495   3.609 -1.1332  2.0205 -0.0523
 9521SOL     OW29502   3.763   0.541   2.550  0.3684  0.7127  0.0430
 9521SOL    HW129503   3.778   0.499   2.466 -0.1755  0.4379  0.0749
 9521SOL    HW229504   3.850   0.549   2.589  0.3290 -2.9560  1.2474
 9522SOL     OW29505   3.845   0.259   4.213  0.6207 -0.4342 -0.1709
 9522SOL    HW129506   3.759   0.279   4.175 -0.3342  0.8228  2.4608
 9522SOL    HW229507   3.845   0.163   4.222 -0.9965 -0.3778  0.7947
 9523SOL     OW29508   0.505   5.006   2.398  0.2185 -0.0624  0.2063
 9523SOL    HW129509   0.487   4.915   2.424 -0.7345 -0.1325 -0.6275
 9523SOL    HW229510   0.601   5.012   2.397  0.2852 -0.6900  1.4979
 9524SOL     OW29511   1.794   6.613   6.716  0.0786  0.3356 -0.0592
 9524SOL    HW129512   1.705   6.594   6.746  0.4955 -0.8659  0.4539
 9524SOL    HW229513   1.785   6.626   6.621 -0.6177  0.1193 -0.0251
 9525SOL     OW29514   6.493   4.307   4.922  0.5572  0.3738  0.2598
 9525SOL    HW129515   6.535   4.222   4.908  0.8115  0.6228 -0.5380
 9525SOL    HW229516   6.553   4.355   4.978  0.2409 -0.0938  1.0227
 9526SOL     OW29517   6.259   6.579   3.557  0.0345 -0.2640 -0.0131
 9526SOL    HW129518   6.250   6.501   3.612  1.1851 -0.3317  0.1125
 9526SOL    HW229519   6.314   6.639   3.609  0.1858  0.1276 -0.6146
 9527SOL     OW29520   5.512   5.233   2.018 -0.2098  0.2152 -0.5972
 9527SOL    HW129521   5.522   5.175   1.942 -1.3690 -1.5117  0.4935
 9527SOL    HW229522   5.545   5.182   2.092 -1.4945  0.8280  0.4506
 9528SOL     OW29523   2.541   5.192   4.369  0.3375  0.0247 -0.4960
 9528SOL    HW129524   2.527   5.106   4.408  2.8543 -0.7099 -1.0127
 9528SOL    HW229525   2.569   5.247   4.443 -3.1632  1.0821  0.2412
 9529SOL     OW29526   2.691   4.098   4.621  0.0251  0.3198  0.2855
 9529SOL    HW129527   2.648   4.154   4.686  1.4429  3.1824 -1.0402
 9529SOL    HW229528   2.777   4.080   4.659  0.2892  0.7152 -0.1146
 9530SOL     OW29529   5.469   7.106   0.558  0.3543 -0.5632  0.0477
 9530SOL    HW129530   5.549   7.065   0.524  1.7263  1.3899  0.7584
 9530SOL    HW229531   5.399   7.071   0.503  1.7757 -1.7601 -1.0841
 9531SOL     OW29532   0.830   4.249   6.629  0.2526 -0.1938 -0.5922
 9531SOL    HW129533   0.814   4.328   6.681 -0.2649 -1.4792  1.2892
 9531SOL    HW229534   0.754   4.243   6.572 -0.7039 -0.3600  0.6509
 9532SOL     OW29535   7.183   4.411   3.924 -0.0546  0.4624  0.0075
 9532SOL    HW129536   7.100   4.434   3.882 -0.1997 -0.2833 -0.1349
 9532SOL    HW229537   7.164   4.330   3.972 -0.0453  1.5619  1.9816
 9533SOL     OW29538   6.706   6.280   5.337 -0.0429  0.3314 -0.4946
 9533SOL    HW129539   6.769   6.353   5.334 -0.2524  0.6556  1.3635
 9533SOL    HW229540   6.620   6.323   5.338 -0.1611  0.1164  0.8158
 9534SOL     OW29541   1.239   1.210   6.852  0.0900 -0.1226 -0.5823
 9534SOL    HW129542   1.315   1.220   6.795  0.9706 -1.9901  0.1736
 9534SOL    HW229543   1.251   1.276   6.921  1.0226 -0.3758 -0.4937
 9535SOL     OW29544   6.830   4.085   4.435  0.1534 -0.4136  0.2158
 9535SOL    HW129545   6.801   3.998   4.464  0.1141 -0.6118 -0.3998
 9535SOL    HW229546   6.842   4.076   4.340 -2.8330  1.0590 -0.4152
 9536SOL     OW29547   6.422   0.422   5.614 -0.3109  0.0622  0.0492
 9536SOL    HW129548   6.477   0.430   5.692  1.1432  0.1954 -0.9467
 9536SOL    HW229549   6.367   0.345   5.630  0.9404 -0.7369  0.6201
 9537SOL     OW29550   1.693   7.094   7.099  0.2419  0.4656  0.2604
 9537SOL    HW129551   1.645   7.087   7.181  2.7557  2.7708  2.0888
 9537SOL    HW229552   1.695   7.187   7.080  1.5286  0.1705 -1.3016
 9538SOL     OW29553   2.745   4.106   1.273 -0.1947  0.0798 -0.2778
 9538SOL    HW129554   2.777   4.082   1.186 -1.1772 -2.1071 -0.1042
 9538SOL    HW229555   2.652   4.126   1.259 -0.4179 -0.5268  0.3062
 9539SOL     OW29556   1.657   5.197   4.971  0.0030 -0.2053 -0.1595
 9539SOL    HW129557   1.686   5.108   4.950  0.5968 -0.3719  1.2971
 9539SOL    HW229558   1.660   5.243   4.887  3.6207 -0.4652 -0.3029
 9540SOL     OW29559   4.759   6.209   5.825  0.2027 -0.2643 -0.6704
 9540SOL    HW129560   4.818   6.136   5.842 -2.1173 -2.4780 -1.4627
 9540SOL    HW229561   4.727   6.194   5.736 -0.3881  1.7147 -0.8451
 9541SOL     OW29562   3.861   1.275   2.370  0.0687  0.4052  0.0576
 9541SOL    HW129563   3.829   1.201   2.422  2.1596 -0.3455  0.3720
 9541SOL    HW229564   3.849   1.248   2.279 -0.3998  0.2643  0.1557
 9542SOL     OW29565   0.792   5.505   0.537  0.6029  0.5568 -0.2368
 9542SOL    HW129566   0.795   5.586   0.487 -0.9975  0.7537 -0.0563
 9542SOL    HW229567   0.712   5.511   0.589 -0.2611 -1.6354 -1.1441
 9543SOL     OW29568   2.038   3.323   3.136 -0.2596  0.5356 -0.6986
 9543SOL    HW129569   2.041   3.407   3.182 -3.0684  0.6501 -0.5451
 9543SOL    HW229570   1.957   3.326   3.085 -0.7935 -2.3230 -0.1928
 9544SOL     OW29571   2.698   2.757   4.485 -0.1086  0.1597  0.2857
 9544SOL    HW129572   2.630   2.814   4.521 -1.5353 -0.2069 -1.6683
 9544SOL    HW229573   2.659   2.669   4.489 -0.6703  0.1733 -2.6482
 9545SOL     OW29574   1.690   3.666   4.207 -0.2211  0.0413  0.1773
 9545SOL    HW129575   1.710   3.603   4.138  2.4839  0.8664  0.1062
 9545SOL    HW229576   1.648   3.739   4.161 -2.8876 -1.3429  0.1912
 9546SOL     OW29577   0.479   6.119   4.138  0.1845  0.2730 -0.1297
 9546SOL    HW129578   0.533   6.124   4.059  1.2483 -0.7844  0.4940
 9546SOL    HW229579   0.399   6.074   4.111  0.6698 -0.3529 -0.5484
 9547SOL     OW29580   6.192   5.522   5.712  0.4941  0.2813  0.2075
 9547SOL    HW129581   6.273   5.488   5.675  1.0278 -1.3842  2.6832
 9547SOL    HW229582   6.220   5.589   5.774 -0.1101  0.4588  0.2970
 9548SOL     OW29583   3.505   5.730   6.585 -0.1939 -0.3119  0.0061
 9548SOL    HW129584   3.556   5.683   6.651  1.5382 -3.2388 -3.0731
 9548SOL    HW229585   3.416   5.731   6.619  0.6012 -1.6610  2.3652
 9549SOL     OW29586   0.887   4.766   5.618  0.1219  0.7134 -0.0924
 9549SOL    HW129587   0.842   4.778   5.702  0.4036  2.8945 -0.2034
 9549SOL    HW229588   0.817   4.767   5.553  0.0304  0.5001  0.0013
 9550SOL     OW29589   0.501   6.233   0.438 -0.2753 -0.0679  0.4770
 9550SOL    HW129590   0.506   6.201   0.528  1.8818 -1.5403 -0.0843
 9550SOL    HW229591   0.520   6.327   0.445 -3.7050  0.6792  1.8388
 9551SOL     OW29592   6.471   3.507   1.113 -0.0075 -0.4166  0.2378
 9551SOL    HW129593   6.503   3.577   1.056 -2.9154  2.4208  1.7067
 9551SOL    HW229594   6.421   3.449   1.056 -1.6406  1.5556 -0.4804
 9552SOL     OW29595   6.746   3.053   4.554  0.1257 -0.0586 -0.0761
 9552SOL    HW129596   6.721   3.038   4.463 -0.0153 -0.5672  0.0413
 9552SOL    HW229597   6.801   3.131   4.552  0.4699 -0.3133 -0.6513
 9553SOL     OW29598   7.020   4.525   3.346 -0.6702  0.2147  0.5471
 9553SOL    HW129599   7.072   4.472   3.285  1.3663  1.2142  1.3390
 9553SOL    HW229600   7.083   4.555   3.412 -2.5307  0.3264  2.3744
 9554SOL     OW29601   4.298   5.861   2.712 -0.1258 -0.0816  0.0844
 9554SOL    HW129602   4.320   5.932   2.652  1.2219 -0.3281  0.2564
 9554SOL    HW229603   4.302   5.782   2.658  1.3420 -0.3316  0.5321
 9555SOL     OW29604   0.214   6.757   5.926  0.5595 -0.4213 -0.0310
 9555SOL    HW129605   0.172   6.671   5.937 -0.4394 -0.0142 -0.6160
 9555SOL    HW229606   0.264   6.748   5.845  1.0580 -0.6769  0.2958
 9556SOL     OW29607   3.872   3.543   5.254 -0.3832  0.3174 -0.0019
 9556SOL    HW129608   3.914   3.588   5.180 -3.0452  0.3360 -1.6712
 9556SOL    HW229609   3.792   3.506   5.216 -2.0562  0.5878  2.9597
 9557SOL     OW29610   3.425   2.633   0.605 -0.1552  0.3489  0.0788
 9557SOL    HW129611   3.464   2.627   0.692 -1.5249 -1.3520  0.6420
 9557SOL    HW229612   3.390   2.722   0.601 -0.1203  0.4355  1.2970
 9558SOL     OW29613   2.597   4.225   6.324  0.4432  0.0809 -0.3784
 9558SOL    HW129614   2.621   4.161   6.391  0.8625  0.9572  0.3346
 9558SOL    HW229615   2.567   4.172   6.250 -1.6746 -0.9196  1.0793
 9559SOL     OW29616   0.073   0.944   0.598 -0.4620  0.2076 -0.1904
 9559SOL    HW129617   0.127   0.925   0.521 -0.7970  0.9557 -0.6226
 9559SOL    HW229618  -0.002   0.885   0.589 -0.2722 -0.0371 -0.1882
 9560SOL     OW29619   3.000   6.338   1.400 -0.5872 -1.0988  0.1330
 9560SOL    HW129620   3.094   6.354   1.392 -0.7580 -0.7995 -1.7417
 9560SOL    HW229621   2.991   6.243   1.394 -0.2933 -1.3067  2.2361
 9561SOL     OW29622   3.610   6.882   4.457 -0.3605 -0.1935 -0.6227
 9561SOL    HW129623   3.640   6.806   4.408 -2.4058 -1.3880 -0.1146
 9561SOL    HW229624   3.676   6.949   4.439  1.2576 -1.9136 -1.4525
 9562SOL     OW29625   5.945   2.878   4.306 -0.7804  0.3945 -0.7246
 9562SOL    HW129626   5.887   2.921   4.244 -0.1155  0.6293 -1.1922
 9562SOL    HW229627   6.032   2.885   4.268 -0.4990 -0.3847 -0.2746
 9563SOL     OW29628   1.677   3.988   6.060 -0.0987 -0.4417 -0.1986
 9563SOL    HW129629   1.759   3.940   6.052  0.2763 -0.1124  1.3967
 9563SOL    HW229630   1.657   4.015   5.970  1.6350 -0.3656 -0.6045
 9564SOL     OW29631   3.794   0.145   0.583  0.9663  0.6468  0.0485
 9564SOL    HW129632   3.882   0.119   0.555 -0.2019 -1.8255 -1.6409
 9564SOL    HW229633   3.792   0.127   0.677  1.6917 -1.1289 -0.2515
 9565SOL     OW29634   3.606   0.263   4.144  0.2402  0.0569  0.5183
 9565SOL    HW129635   3.544   0.333   4.165  2.3546  2.4037 -0.6137
 9565SOL    HW229636   3.563   0.214   4.073 -0.6555  1.1083  0.3059
 9566SOL     OW29637   5.242   2.256   7.339  0.3318 -0.0353  0.0256
 9566SOL    HW129638   5.183   2.181   7.329 -0.3762  0.5900 -0.5825
 9566SOL    HW229639   5.198   2.314   7.401  0.5672  0.1880 -0.0114
 9567SOL     OW29640   2.291   0.251   3.756 -0.4065 -0.2489 -0.1563
 9567SOL    HW129641   2.240   0.202   3.692 -1.0390 -0.7869  0.7277
 9567SOL    HW229642   2.246   0.335   3.763 -0.0406  0.0010 -0.7809
 9568SOL     OW29643   4.809   2.489   0.536 -0.1125  0.4003  0.3727
 9568SOL    HW129644   4.801   2.562   0.475  1.6926 -1.3644 -2.1702
 9568SOL    HW229645   4.891   2.506   0.583  0.6869 -0.2743 -0.7313
 9569SOL     OW29646   0.851   5.972   1.529 -0.0175 -0.7210  0.5356
 9569SOL    HW129647   0.893   6.058   1.533  0.4522 -0.9789  1.3679
 9569SOL    HW229648   0.808   5.963   1.614  0.4487 -1.5648  0.6828
 9570SOL     OW29649   4.917   4.223   3.420 -0.6538  0.2518  0.4193
 9570SOL    HW129650   4.914   4.128   3.408  0.8879 -0.0743  2.1025
 9570SOL    HW229651   4.868   4.239   3.501 -0.6153  0.8497  0.3275
 9571SOL     OW29652   0.090   3.521   4.075 -0.3151  0.0990 -0.2052
 9571SOL    HW129653   0.063   3.566   3.995 -0.6905  0.6659  0.2291
 9571SOL    HW229654   0.184   3.538   4.080 -0.2611 -0.0749 -0.6113
 9572SOL     OW29655   3.800   5.940   3.038 -0.0956  0.0777  0.7686
 9572SOL    HW129656   3.881   5.897   3.066 -0.0903  0.0058  0.6443
 9572SOL    HW229657   3.820   5.973   2.951 -0.2119  0.0291  0.7244
 9573SOL     OW29658   1.510   6.986   1.077  0.1325  0.1200  0.2191
 9573SOL    HW129659   1.467   6.906   1.106  0.9819 -0.2015  0.6060
 9573SOL    HW229660   1.462   7.011   0.998 -0.4978 -0.4543  0.4068
 9574SOL     OW29661   4.282   2.379   0.876  0.8147  0.2070  0.3414
 9574SOL    HW129662   4.370   2.382   0.914  1.2146 -1.2214 -0.3881
 9574SOL    HW229663   4.293   2.332   0.794 -0.4614  1.0098 -0.3170
 9575SOL     OW29664   0.118   3.574   2.942 -0.4018  0.5581  0.7204
 9575SOL    HW129665   0.168   3.549   3.020  0.5043 -0.3555 -0.1195
 9575SOL    HW229666   0.033   3.602   2.976  0.1023  0.5435  2.0630
 9576SOL     OW29667   3.005   4.359   6.884 -0.0818  0.0502 -0.0773
 9576SOL    HW129668   2.964   4.445   6.898  0.7413  0.4534 -0.0648
 9576SOL    HW229669   3.091   4.380   6.849  0.1074 -0.7849 -0.1166
 9577SOL     OW29670   6.249   4.824   2.217 -0.2634  0.1443 -0.0150
 9577SOL    HW129671   6.303   4.796   2.143  1.2999  1.1271  0.6970
 9577SOL    HW229672   6.183   4.755   2.226 -0.3064 -0.1459 -2.0997
 9578SOL     OW29673   5.539   2.896   0.981 -0.0247 -0.0733  0.5474
 9578SOL    HW129674   5.525   2.805   0.955  0.6353 -0.1633  0.4829
 9578SOL    HW229675   5.452   2.930   1.000 -0.2648 -0.7554  0.6818
 9579SOL     OW29676   0.850   4.161   4.942 -0.3501 -0.0322 -0.1335
 9579SOL    HW129677   0.888   4.140   5.028 -0.7381  0.1995  0.0972
 9579SOL    HW229678   0.763   4.194   4.962  0.3619  2.2013 -0.4348
 9580SOL     OW29679   3.918   3.314   5.989  0.3823 -0.3901 -0.1863
 9580SOL    HW129680   3.886   3.346   5.905  2.3485  0.3090 -0.7223
 9580SOL    HW229681   3.896   3.221   5.989 -0.1073 -0.2807 -1.2542
 9581SOL     OW29682   6.285   5.140   1.175 -0.0140  0.2888  0.3334
 9581SOL    HW129683   6.242   5.220   1.145  0.7842  0.2911 -0.8587
 9581SOL    HW229684   6.255   5.129   1.265  0.3720  2.2802  0.7496
 9582SOL     OW29685   0.375   1.919   6.577  0.0410  0.0779 -0.4336
 9582SOL    HW129686   0.372   2.011   6.600 -0.5731  0.0822 -0.5049
 9582SOL    HW229687   0.283   1.895   6.563  0.2306 -0.4274 -0.8557
 9583SOL     OW29688   0.849   0.298   1.403  0.4705  0.1234 -0.1052
 9583SOL    HW129689   0.929   0.341   1.373  0.9025 -0.9906 -0.6217
 9583SOL    HW229690   0.862   0.205   1.382  0.4862 -0.6460  2.8665
 9584SOL     OW29691   2.537   2.527   4.507 -0.9439 -0.6194  0.4978
 9584SOL    HW129692   2.456   2.569   4.481 -2.2131 -1.1305  3.2772
 9584SOL    HW229693   2.530   2.438   4.473 -2.6081 -1.3033  2.4099
 9585SOL     OW29694   4.159   3.807   0.608 -0.2999 -0.1463 -0.1442
 9585SOL    HW129695   4.130   3.880   0.663 -0.9900 -1.0784  0.7727
 9585SOL    HW229696   4.252   3.826   0.592 -0.6809  1.3950 -0.7151
 9586SOL     OW29697   0.303   6.226   6.913  0.3577 -0.3236  0.0944
 9586SOL    HW129698   0.279   6.304   6.963  0.1315 -0.1646 -0.2562
 9586SOL    HW229699   0.293   6.154   6.976 -0.8329 -0.2338  0.0356
 9587SOL     OW29700   5.767   0.264   2.589  0.1264 -0.2840  0.0918
 9587SOL    HW129701   5.779   0.170   2.582  2.0303 -0.0400 -0.7405
 9587SOL    HW229702   5.736   0.291   2.503 -0.7074 -0.1772  0.4205
 9588SOL     OW29703   0.848   1.313   5.085 -0.1217  0.1591  0.2980
 9588SOL    HW129704   0.930   1.263   5.094  0.2749  0.6230 -0.5495
 9588SOL    HW229705   0.861   1.364   5.005 -1.2294  0.2791  0.1896
 9589SOL     OW29706   6.147   4.406   4.690  0.0666 -0.2465 -0.7698
 9589SOL    HW129707   6.057   4.396   4.720 -0.7332  0.9717 -2.6443
 9589SOL    HW229708   6.146   4.484   4.634  2.9737  1.8905  1.7831
 9590SOL     OW29709   1.605   3.984   6.463  0.3479  0.4912 -0.0470
 9590SOL    HW129710   1.667   4.005   6.533  0.4883 -0.4121  0.1116
 9590SOL    HW229711   1.531   3.943   6.508 -0.0010  0.8217 -0.3199
 9591SOL     OW29712   1.261   3.493   0.772  0.1623 -0.4009  0.5427
 9591SOL    HW129713   1.231   3.517   0.684  1.9362 -2.6592 -0.7884
 9591SOL    HW229714   1.223   3.407   0.787  1.0369 -0.6514  1.3759
 9592SOL     OW29715   6.056   1.557   5.607 -0.6641  0.9022  0.4318
 9592SOL    HW129716   6.093   1.567   5.694  0.4656  1.9282 -0.1250
 9592SOL    HW229717   6.070   1.642   5.565  0.4674 -0.0939 -1.3308
 9593SOL     OW29718   5.510   0.602   2.629 -0.1830  0.2537  0.6003
 9593SOL    HW129719   5.507   0.680   2.573  1.3891 -1.2318 -1.7418
 9593SOL    HW229720   5.591   0.612   2.679 -0.0653  0.2315  0.4182
 9594SOL     OW29721   4.860   6.966   5.216 -0.5036  0.2286 -0.0766
 9594SOL    HW129722   4.794   7.018   5.261 -0.6261  0.2694 -0.2971
 9594SOL    HW229723   4.811   6.921   5.147 -0.2953  0.2939 -0.2700
 9595SOL     OW29724   5.594   2.465   6.670  0.5851  0.0531 -0.2174
 9595SOL    HW129725   5.499   2.479   6.673  0.6380  0.9486 -1.6918
 9595SOL    HW229726   5.618   2.451   6.762 -0.6212  2.3540  0.5584
 9596SOL     OW29727   5.250   5.702   0.528 -0.1702 -0.1123  0.2910
 9596SOL    HW129728   5.229   5.669   0.615  0.4988  0.4319  0.6723
 9596SOL    HW229729   5.331   5.657   0.505 -1.1065 -1.3397 -0.6737
 9597SOL     OW29730   2.507   5.120   4.100  0.4036 -0.0649 -0.0035
 9597SOL    HW129731   2.504   5.024   4.104  0.8402 -0.1931 -1.8681
 9597SOL    HW229732   2.531   5.147   4.189 -0.6306 -1.6222  0.8049
 9598SOL     OW29733   4.995   0.958   3.422 -1.1378  0.2233  0.2586
 9598SOL    HW129734   5.025   0.985   3.335 -0.6775 -0.9563  0.0265
 9598SOL    HW229735   5.064   0.899   3.453 -2.4865 -1.3678  0.3536
 9599SOL     OW29736   6.123   2.870   2.133 -0.0744 -0.6174 -0.0101
 9599SOL    HW129737   6.177   2.949   2.130 -0.6939 -0.0989  1.5246
 9599SOL    HW229738   6.056   2.889   2.198 -0.6082 -2.1817 -0.0595
 9600SOL     OW29739   0.139   4.400   1.675  0.2975 -0.5475  0.2198
 9600SOL    HW129740   0.075   4.472   1.677  1.5023  0.5638 -0.0910
 9600SOL    HW229741   0.087   4.323   1.655 -0.6954  0.6456 -2.2283
 9601SOL     OW29742   5.995   0.849   4.864  0.2322  0.4463 -0.3586
 9601SOL    HW129743   6.083   0.868   4.895  1.1919 -1.8510 -1.4644
 9601SOL    HW229744   5.982   0.756   4.881 -1.0088  0.1666 -2.4422
 9602SOL     OW29745   5.573   4.192   6.520  0.1749  0.2151  0.6557
 9602SOL    HW129746   5.570   4.282   6.488 -0.0535 -0.3303 -0.9150
 9602SOL    HW229747   5.485   4.158   6.506  0.9069 -1.0523 -1.2904
 9603SOL     OW29748   6.474   0.700   2.543 -0.3885  0.3861  0.8332
 9603SOL    HW129749   6.541   0.633   2.528 -1.0835 -0.2054  0.2755
 9603SOL    HW229750   6.456   0.696   2.637 -3.3024 -3.1321  0.3619
 9604SOL     OW29751   2.160   0.555   3.339 -0.1840 -0.5405 -0.3455
 9604SOL    HW129752   2.119   0.531   3.255  1.6267  0.9823 -1.7524
 9604SOL    HW229753   2.172   0.650   3.333 -0.2549 -0.3551  1.7943
 9605SOL     OW29754   6.593   2.377   5.367 -0.6001  0.1202 -0.1129
 9605SOL    HW129755   6.604   2.421   5.451  0.4991 -0.5154  0.0904
 9605SOL    HW229756   6.559   2.445   5.309 -1.7581  0.4648  0.9356
 9606SOL     OW29757   1.546   6.167   1.579 -0.1998 -0.2887  0.1369
 9606SOL    HW129758   1.528   6.253   1.541 -0.0170 -1.5623 -3.1817
 9606SOL    HW229759   1.463   6.141   1.620 -1.0029  0.4930 -0.9349
 9607SOL     OW29760   5.578   1.579   4.726  0.0125  0.1663  0.5131
 9607SOL    HW129761   5.657   1.566   4.673 -0.1611 -0.4447  0.3887
 9607SOL    HW229762   5.610   1.607   4.811  0.4431 -1.1458  0.8076
 9608SOL     OW29763   1.475   6.670   3.891  0.3115  0.1041 -0.4071
 9608SOL    HW129764   1.426   6.692   3.812 -0.7399 -1.6681 -0.3037
 9608SOL    HW229765   1.512   6.583   3.873 -0.4966 -0.6432  1.2549
 9609SOL     OW29766   4.817   5.973   6.501 -0.3165  0.3626  0.2474
 9609SOL    HW129767   4.740   5.943   6.549 -0.0524  0.5237  0.7842
 9609SOL    HW229768   4.842   6.055   6.544  1.2295 -0.5960  1.2810
 9610SOL     OW29769   1.656   4.284   5.677 -0.3050  0.7195 -0.1865
 9610SOL    HW129770   1.729   4.316   5.731 -0.9671  1.7543  0.1265
 9610SOL    HW229771   1.657   4.189   5.690  0.5809  0.7805  0.3260
 9611SOL     OW29772   1.536   0.717   3.568  0.5189  0.3461  0.2935
 9611SOL    HW129773   1.546   0.656   3.496 -2.9477  0.0753 -0.1351
 9611SOL    HW229774   1.608   0.697   3.628  2.3239 -0.7560 -2.1114
 9612SOL     OW29775   4.570   3.963   3.295  0.6512 -0.1104  0.4913
 9612SOL    HW129776   4.492   3.948   3.241  1.6196 -1.7053 -0.5394
 9612SOL    HW229777   4.540   3.949   3.385 -0.0284 -1.8236  0.0265
 9613SOL     OW29778   6.340   6.085   4.748  0.8495  0.9565  0.7115
 9613SOL    HW129779   6.363   6.062   4.658  0.4762  1.4530  0.4792
 9613SOL    HW229780   6.403   6.039   4.802  2.0351  1.8406  0.1263
 9614SOL     OW29781   7.300   1.388   6.168 -0.1532  0.1154  0.3866
 9614SOL    HW129782   7.355   1.465   6.184 -0.0365 -0.0802  0.9420
 9614SOL    HW229783   7.289   1.386   6.073 -0.6123  1.1248  0.4139
 9615SOL     OW29784   1.052   1.496   7.323 -0.5268  0.3900 -0.5807
 9615SOL    HW129785   1.027   1.481   7.231 -3.0272  2.8633 -0.4257
 9615SOL    HW229786   1.045   1.591   7.335  1.8591  0.3936  1.6632
 9616SOL     OW29787   2.429   5.985   6.514  0.2838 -0.4925 -0.3264
 9616SOL    HW129788   2.469   5.971   6.600 -0.0014 -0.8397 -0.2491
 9616SOL    HW229789   2.487   5.942   6.452 -0.3252 -1.6053 -0.1433
 9617SOL     OW29790   2.006   3.597   4.418 -0.4463  0.1347  0.2170
 9617SOL    HW129791   1.947   3.662   4.379  2.3547  2.5953 -0.3014
 9617SOL    HW229792   2.034   3.543   4.344 -1.6428 -0.8050  0.4063
 9618SOL     OW29793   0.888   5.837   0.775  0.1252  0.0321  0.1394
 9618SOL    HW129794   0.851   5.925   0.771  1.6399  0.7130  0.4387
 9618SOL    HW229795   0.813   5.780   0.790 -0.8924  1.2601 -0.1199
 9619SOL     OW29796   1.169   3.219   7.409 -0.1672 -0.0777  0.4302
 9619SOL    HW129797   1.214   3.136   7.393  1.1502  0.4462  1.2154
 9619SOL    HW229798   1.187   3.238   7.502 -0.0846  1.2773  0.1593
 9620SOL     OW29799   1.983   2.312   3.927 -0.2232  0.0622  0.4726
 9620SOL    HW129800   1.927   2.241   3.895 -0.3822  0.4812 -0.1916
 9620SOL    HW229801   1.922   2.377   3.962 -0.1389  0.3996 -0.0061
 9621SOL     OW29802   7.050   0.762   1.577 -0.5154  0.4059 -0.0438
 9621SOL    HW129803   7.000   0.732   1.501  0.1680 -0.8564 -0.0190
 9621SOL    HW229804   7.031   0.697   1.646  0.2944  0.5069  0.2914
 9622SOL     OW29805   7.407   2.247   1.721  0.1624 -0.0159  0.1127
 9622SOL    HW129806   7.500   2.232   1.705  0.1214  0.4598 -0.6239
 9622SOL    HW229807   7.372   2.277   1.636 -1.3907 -3.4508 -0.6582
 9623SOL     OW29808   3.743   1.285   2.783  0.0239  0.0830 -0.1503
 9623SOL    HW129809   3.803   1.338   2.730 -0.2714  0.2215 -0.3494
 9623SOL    HW229810   3.742   1.328   2.868  1.0003 -0.5096  0.1804
 9624SOL     OW29811   1.077   3.914   2.506 -0.0726 -0.7822  0.2107
 9624SOL    HW129812   1.064   3.822   2.526 -0.9061 -0.6837  0.1827
 9624SOL    HW229813   1.038   3.926   2.419  1.5070 -0.7351 -0.5346
 9625SOL     OW29814   6.477   4.289   1.786 -0.3417 -0.4799  0.5222
 9625SOL    HW129815   6.511   4.265   1.700 -2.5531 -0.9048 -0.2965
 9625SOL    HW229816   6.402   4.346   1.767 -0.2153  0.3146  2.2162
 9626SOL     OW29817   5.107   0.375   6.641 -0.3407  0.1213  0.2978
 9626SOL    HW129818   5.041   0.425   6.592  0.2197  0.6082  0.0330
 9626SOL    HW229819   5.191   0.408   6.609  0.1304 -2.6728 -1.7309
 9627SOL     OW29820   0.293   1.040   4.108  0.0303  0.5137 -0.5993
 9627SOL    HW129821   0.379   1.005   4.085  0.2473  1.1327 -0.7552
 9627SOL    HW229822   0.232   0.994   4.051  0.2841  0.2384 -0.6504
 9628SOL     OW29823   1.110   6.977   4.541 -0.0569 -0.2663 -0.3022
 9628SOL    HW129824   1.053   6.900   4.538  0.2421 -0.5881  1.3012
 9628SOL    HW229825   1.188   6.947   4.588  0.6450  0.6703 -0.8340
 9629SOL     OW29826   3.670   1.069   7.283 -0.1986  0.0524  0.3366
 9629SOL    HW129827   3.687   1.108   7.369 -3.9606  0.1616  1.1916
 9629SOL    HW229828   3.598   1.120   7.247 -0.8383 -1.9852 -1.4608
 9630SOL     OW29829   0.397   5.059   6.525  0.1180 -0.7653  0.0896
 9630SOL    HW129830   0.411   4.977   6.573  3.0887 -1.4314 -1.6131
 9630SOL    HW229831   0.374   5.031   6.436  1.3301  0.1904 -0.5628
 9631SOL     OW29832   7.011   3.686   7.348 -0.2859  0.1104 -0.5014
 9631SOL    HW129833   7.056   3.753   7.297  1.3031 -0.3169  0.2890
 9631SOL    HW229834   6.935   3.731   7.385 -0.9004  0.6774 -2.3801
 9632SOL     OW29835   5.602   6.258   5.619  0.0698  0.1177 -0.3635
 9632SOL    HW129836   5.604   6.219   5.531  0.5026 -0.3910 -0.1267
 9632SOL    HW229837   5.585   6.351   5.602  1.0923  0.2040 -1.0490
 9633SOL     OW29838   6.415   0.071   7.189  0.4795 -0.4336  0.0171
 9633SOL    HW129839   6.340   0.074   7.130  1.3772 -2.7382 -1.3215
 9633SOL    HW229840   6.377   0.048   7.274 -0.4775  0.0463 -0.2584
 9634SOL     OW29841   1.016   3.542   4.342 -0.4424 -0.7235  0.0691
 9634SOL    HW129842   1.046   3.506   4.259  0.2535 -0.1594  0.0662
 9634SOL    HW229843   0.925   3.513   4.349 -0.1448 -1.7964 -0.3027
 9635SOL     OW29844   6.132   2.012   1.078  0.8368  0.4539  0.5759
 9635SOL    HW129845   6.220   2.012   1.040  0.9161 -1.8943  0.6537
 9635SOL    HW229846   6.076   1.973   1.011  1.0812 -4.3475  2.7711
 9636SOL     OW29847   0.236   6.088   5.623  0.5789 -0.1696 -0.1333
 9636SOL    HW129848   0.197   6.170   5.592  3.3519  0.7218 -1.6116
 9636SOL    HW229849   0.201   6.021   5.564 -0.9618  0.0670  0.4709
 9637SOL     OW29850   1.912   2.257   3.520 -0.0389  0.1900  0.3272
 9637SOL    HW129851   1.959   2.338   3.501  1.5200 -0.4479  1.2975
 9637SOL    HW229852   1.966   2.188   3.482 -0.9570 -0.4817  0.1832
 9638SOL     OW29853   5.278   1.641   6.364  0.4623 -0.3314  0.0505
 9638SOL    HW129854   5.240   1.660   6.279  0.7149  0.6602  0.1445
 9638SOL    HW229855   5.265   1.721   6.415  0.8519 -0.6942  0.7419
 9639SOL     OW29856   2.941   2.206   6.113  0.0476  1.4276  0.0112
 9639SOL    HW129857   2.936   2.141   6.043 -0.7557  0.0081  1.3252
 9639SOL    HW229858   2.867   2.186   6.170  1.0448  2.1170  1.6118
 9640SOL     OW29859   5.518   4.739   4.999 -0.0584 -0.2630 -0.3850
 9640SOL    HW129860   5.594   4.792   5.024  0.7034 -1.7087  0.4653
 9640SOL    HW229861   5.458   4.747   5.073  1.1696 -2.5983  0.9742
 9641SOL     OW29862   4.923   1.478   6.234 -0.6126 -0.2139  0.1489
 9641SOL    HW129863   4.890   1.514   6.152 -0.1944 -0.3559 -0.0862
 9641SOL    HW229864   4.845   1.467   6.289 -1.1172 -1.4878 -0.7487
 9642SOL     OW29865   6.292   5.456   5.003 -0.0816  0.0115 -0.0088
 9642SOL    HW129866   6.318   5.457   5.096 -1.3562  0.0126  0.3682
 9642SOL    HW229867   6.197   5.463   5.005 -0.1210  0.0723 -1.3350
 9643SOL     OW29868   6.269   6.894   5.265  0.4798 -0.7058  0.2087
 9643SOL    HW129869   6.188   6.940   5.244  0.7293 -0.2905  0.1458
 9643SOL    HW229870   6.303   6.866   5.179  1.4688  0.9377  0.0210
 9644SOL     OW29871   1.971   1.240   6.197  0.5342  0.0228  0.1844
 9644SOL    HW129872   1.922   1.316   6.164  0.8267  0.3683  0.5345
 9644SOL    HW229873   1.997   1.193   6.118  0.7924  0.5668 -0.0659
 9645SOL     OW29874   2.507   4.038   6.939  0.7572  0.0179 -0.5495
 9645SOL    HW129875   2.546   4.110   6.889  0.3452  1.7515  1.4587
 9645SOL    HW229876   2.551   4.042   7.024  0.1935 -1.6715 -0.1323
 9646SOL     OW29877   2.995   0.311   3.221 -0.1821 -0.2604 -0.1208
 9646SOL    HW129878   3.061   0.271   3.277  0.1134  0.8711  0.3731
 9646SOL    HW229879   2.919   0.324   3.279 -0.3739 -0.3730 -0.3473
 9647SOL     OW29880   0.228   5.030   5.782  0.6801  0.6041  0.2811
 9647SOL    HW129881   0.298   5.050   5.844  0.3656  1.2983  0.4264
 9647SOL    HW229882   0.229   4.935   5.774  0.7542  0.5011  1.3401
 9648SOL     OW29883   6.421   1.206   5.866  0.5979 -0.1639  0.2940
 9648SOL    HW129884   6.335   1.239   5.838 -0.1547 -1.4238  1.0201
 9648SOL    HW229885   6.417   1.206   5.961  1.8881  0.9365  0.3723
 9649SOL     OW29886   6.049   1.534   2.846 -0.2603 -0.2117 -0.1190
 9649SOL    HW129887   6.122   1.531   2.785 -1.1897  0.9101 -1.3442
 9649SOL    HW229888   6.006   1.449   2.838  0.0333 -0.3253 -0.4930
 9650SOL     OW29889   6.817   1.716   4.943  0.4590  0.0271 -0.1425
 9650SOL    HW129890   6.768   1.636   4.924 -1.7680  0.9720  1.2896
 9650SOL    HW229891   6.868   1.696   5.021  0.6938 -0.2776 -0.3696
 9651SOL     OW29892   1.234   1.359   4.286  0.1429  0.7766  0.0387
 9651SOL    HW129893   1.149   1.404   4.280  0.2625  0.8741 -1.2047
 9651SOL    HW229894   1.287   1.399   4.217  2.2993  2.9510  2.7009
 9652SOL     OW29895   2.456   3.780   1.435 -0.6864  1.0099 -0.2301
 9652SOL    HW129896   2.516   3.721   1.480 -0.2480  1.4643 -0.2178
 9652SOL    HW229897   2.411   3.724   1.371  1.2553  1.0689 -1.7189
 9653SOL     OW29898   5.548   6.805   0.158  0.4067  0.0723  0.2588
 9653SOL    HW129899   5.641   6.818   0.174 -0.0402  0.2815  3.5839
 9653SOL    HW229900   5.511   6.894   0.159 -0.1247 -0.1230  2.0110
 9654SOL     OW29901   6.341   0.512   0.366  0.3510 -0.0927  0.3255
 9654SOL    HW129902   6.298   0.474   0.443 -0.5246 -2.4221 -1.2102
 9654SOL    HW229903   6.426   0.468   0.362  0.6049  0.4027  0.2483
 9655SOL     OW29904   6.456   3.251   3.072 -0.0183 -0.3814 -0.1981
 9655SOL    HW129905   6.524   3.200   3.116  0.4065 -0.0064 -0.4110
 9655SOL    HW229906   6.375   3.203   3.090  0.2373 -0.5817  0.4419
 9656SOL     OW29907   7.417   6.061   7.157 -0.4611 -0.9298  0.0137
 9656SOL    HW129908   7.324   6.059   7.181 -1.3360 -0.0293 -2.8610
 9656SOL    HW229909   7.438   6.154   7.148  0.4141 -1.1527 -0.3612
 9657SOL     OW29910   1.266   5.816   3.519 -0.5757  0.2391 -0.0432
 9657SOL    HW129911   1.359   5.819   3.496 -0.7228  0.3919 -0.6197
 9657SOL    HW229912   1.251   5.725   3.546 -0.0971  0.3827  0.7481
 9658SOL     OW29913   4.696   5.616   7.278  0.5111 -0.1758  0.3630
 9658SOL    HW129914   4.777   5.566   7.268  1.3194  1.2736 -0.9410
 9658SOL    HW229915   4.680   5.617   7.372  3.1802  1.1321  0.9325
 9659SOL     OW29916   5.459   3.409   2.855  0.3791 -0.6110  0.1157
 9659SOL    HW129917   5.477   3.468   2.929 -1.6411  0.2642 -0.0118
 9659SOL    HW229918   5.366   3.389   2.863  0.2933 -1.1354 -1.7656
 9660SOL     OW29919   4.367   2.473   4.153 -0.1321 -0.1409  0.0371
 9660SOL    HW129920   4.305   2.508   4.217 -0.0375  0.3236 -0.1209
 9660SOL    HW229921   4.448   2.520   4.169 -0.1107 -0.0089 -0.4336
 9661SOL     OW29922   5.376   4.879   0.206 -0.0292  0.0045  0.0478
 9661SOL    HW129923   5.453   4.884   0.149 -1.0495  1.7096 -1.2750
 9661SOL    HW229924   5.315   4.824   0.159 -0.1209 -0.2691  0.4801
 9662SOL     OW29925   5.750   2.893   6.845  0.1311 -0.3763 -0.1955
 9662SOL    HW129926   5.845   2.904   6.845  0.0021  1.2726  1.3738
 9662SOL    HW229927   5.733   2.822   6.906  0.3363 -0.1160  0.1708
 9663SOL     OW29928   6.669   1.456   3.530 -0.6799 -0.1904 -0.3494
 9663SOL    HW129929   6.746   1.494   3.572 -1.7721  0.7512  0.8997
 9663SOL    HW229930   6.670   1.493   3.441 -1.1032  1.9935  0.4904
 9664SOL     OW29931   2.756   2.712   6.657  0.0331  0.7624  0.0461
 9664SOL    HW129932   2.711   2.654   6.595 -1.9667  1.2978  0.9126
 9664SOL    HW229933   2.805   2.772   6.601  2.0146 -1.5201 -0.8961
 9665SOL     OW29934   4.891   1.194   5.094  0.2721 -0.0363 -0.3595
 9665SOL    HW129935   4.950   1.264   5.063 -3.2222  2.7593 -1.4288
 9665SOL    HW229936   4.819   1.195   5.031 -1.0529 -3.1388  0.9348
 9666SOL     OW29937   2.426   5.797   4.517  0.1205 -0.0664  0.0660
 9666SOL    HW129938   2.340   5.837   4.522  0.6641  1.1767 -0.2103
 9666SOL    HW229939   2.432   5.742   4.595 -0.1561  1.3953  1.1442
 9667SOL     OW29940   3.573   1.319   6.243 -0.5337 -0.0444  0.1287
 9667SOL    HW129941   3.665   1.303   6.224 -0.6413 -2.7964  1.3492
 9667SOL    HW229942   3.557   1.409   6.216  2.7825  0.8976  0.9133
 9668SOL     OW29943   6.391   6.602   2.501 -0.0646  0.0595 -0.6894
 9668SOL    HW129944   6.361   6.692   2.516  1.0883  0.2141  0.9592
 9668SOL    HW229945   6.486   6.607   2.507 -0.0244 -1.4067  0.3963
 9669SOL     OW29946   5.484   5.196   2.733 -0.2534 -0.3848  0.2290
 9669SOL    HW129947   5.427   5.153   2.796 -0.5458 -1.4107 -0.7017
 9669SOL    HW229948   5.572   5.183   2.769 -0.4212 -0.8651  0.4787
 9670SOL     OW29949   1.649   4.076   1.391  0.4519  0.7722 -0.2395
 9670SOL    HW129950   1.645   4.162   1.434  1.7075  0.9827 -0.5201
 9670SOL    HW229951   1.736   4.043   1.411  0.2651 -0.1019 -0.8025
 9671SOL     OW29952   4.813   1.739   2.456 -0.1386 -0.0807 -0.0645
 9671SOL    HW129953   4.740   1.761   2.513 -1.4013 -1.0999 -1.2141
 9671SOL    HW229954   4.812   1.808   2.389 -0.9038 -0.8185 -0.8266
 9672SOL     OW29955   4.572   7.347   3.523  0.6737  0.6337 -0.4616
 9672SOL    HW129956   4.494   7.354   3.579  1.1571  0.8184  0.2010
 9672SOL    HW229957   4.548   7.284   3.456  0.5938 -0.7739  0.8305
 9673SOL     OW29958   1.761   3.126   0.910  0.3349 -0.5372  0.2882
 9673SOL    HW129959   1.793   3.213   0.933  1.1739 -0.2556 -1.7594
 9673SOL    HW229960   1.668   3.128   0.931  0.6627  0.2823  1.7839
 9674SOL     OW29961   2.137   6.384   3.981 -0.5419 -0.1574 -0.1601
 9674SOL    HW129962   2.118   6.467   3.937 -0.0238  0.2783  0.4251
 9674SOL    HW229963   2.059   6.365   4.032 -0.5309  0.1482 -0.0291
 9675SOL     OW29964   1.990   3.248   6.380 -0.2228 -0.2703  0.1135
 9675SOL    HW129965   1.964   3.312   6.446 -0.5044 -0.5907  0.3141
 9675SOL    HW229966   1.954   3.282   6.298  0.7122  0.4898 -0.0078
 9676SOL     OW29967   7.216   2.848   6.442 -0.1490  0.3605 -0.1658
 9676SOL    HW129968   7.145   2.900   6.480  0.1635 -0.3612  1.5374
 9676SOL    HW229969   7.220   2.875   6.350 -2.3756  0.6583 -0.2213
 9677SOL     OW29970   0.165   7.089   3.145  0.4753 -0.0218 -0.9801
 9677SOL    HW129971   0.211   7.060   3.224 -1.5369  0.3645  0.4189
 9677SOL    HW229972   0.213   7.166   3.115  1.4302 -0.3375 -0.2894
 9678SOL     OW29973   4.149   3.052   2.530 -0.7251 -0.5464 -0.2536
 9678SOL    HW129974   4.136   3.083   2.440 -0.6160  0.7074  0.1372
 9678SOL    HW229975   4.122   3.127   2.584  2.0730 -0.1499  0.7174
 9679SOL     OW29976   7.408   0.238   5.622 -0.2540  1.3082  0.3976
 9679SOL    HW129977   7.443   0.287   5.696  0.5970  0.8662  0.3130
 9679SOL    HW229978   7.333   0.191   5.658  0.9473  0.0119  1.3891
 9680SOL     OW29979   1.052   7.126   4.827  0.1774  0.2640 -0.1106
 9680SOL    HW129980   1.147   7.119   4.825  0.0367 -1.9530 -1.2861
 9680SOL    HW229981   1.029   7.167   4.743  0.0575 -0.0234 -0.2209
 9681SOL     OW29982   4.627   4.000   3.852  0.2381  0.0332  0.6475
 9681SOL    HW129983   4.711   3.960   3.876  1.1182  1.5118  0.1642
 9681SOL    HW229984   4.584   4.017   3.936  1.2437  0.8975  1.0196
 9682SOL     OW29985   4.046   1.891   7.204  0.1668  0.1595 -0.6125
 9682SOL    HW129986   4.027   1.904   7.297 -1.8403  1.6137 -1.1523
 9682SOL    HW229987   4.142   1.896   7.198  0.2726  1.2634  1.2087
 9683SOL     OW29988   4.359   3.298   1.686  0.6531 -0.3390 -0.1139
 9683SOL    HW129989   4.434   3.355   1.669 -0.6679  1.1531 -1.2494
 9683SOL    HW229990   4.312   3.341   1.757  0.8250 -1.2628  0.5832
 9684SOL     OW29991   4.415   7.156   3.009 -0.0747  0.1112 -0.1311
 9684SOL    HW129992   4.461   7.087   2.962 -0.0004  1.2528 -1.8467
 9684SOL    HW229993   4.346   7.184   2.949 -1.8905 -0.2992  1.6361
 9685SOL     OW29994   6.311   4.132   0.739 -0.0552  0.2232 -0.9983
 9685SOL    HW129995   6.349   4.220   0.734  0.1761  0.2132  0.2180
 9685SOL    HW229996   6.387   4.073   0.734  0.0102  0.1715  0.2762
 9686SOL     OW29997   6.293   5.379   7.112 -0.4381  0.0143 -0.4309
 9686SOL    HW129998   6.359   5.429   7.063 -0.9585  0.3746 -0.7695
 9686SOL    HW229999   6.249   5.326   7.045  2.2181 -3.4551  0.2334
 9687SOL     OW30000   4.997   7.256   3.114 -0.7427 -0.3742 -0.2274
 9687SOL    HW130001   4.950   7.173   3.121 -0.4634 -0.6351 -1.3031
 9687SOL    HW230002   5.079   7.242   3.160 -1.3917 -0.1472  1.0381
 9688SOL     OW30003   2.530   6.310   3.594  0.4262 -0.5670 -0.4218
 9688SOL    HW130004   2.497   6.322   3.683 -1.9136  0.6417 -1.3745
 9688SOL    HW230005   2.499   6.223   3.569  0.1509 -0.4708 -0.4206
 9689SOL     OW30006   3.923   2.750   0.681 -0.3271 -0.4550  0.0735
 9689SOL    HW130007   4.003   2.784   0.641  0.4129 -1.0864  0.9837
 9689SOL    HW230008   3.853   2.800   0.639  0.5649  0.4412 -0.4054
 9690SOL     OW30009   0.029   1.934   1.751  0.0896 -0.3283  0.1074
 9690SOL    HW130010   0.019   2.026   1.726  0.4781  0.0389  1.2329
 9690SOL    HW230011  -0.056   1.911   1.788  0.1730 -0.2451  0.3538
 9691SOL     OW30012   1.845   1.979   3.229  0.1886 -0.3103  0.1209
 9691SOL    HW130013   1.834   1.891   3.265 -1.5169 -1.2257 -2.3615
 9691SOL    HW230014   1.839   1.968   3.134 -1.5016  2.6169 -0.2663
 9692SOL     OW30015   2.976   6.074   1.381  0.4943 -0.0326  0.0573
 9692SOL    HW130016   2.955   6.076   1.287  2.3561  0.0528 -0.3956
 9692SOL    HW230017   2.947   5.987   1.409  1.0339 -0.5433 -0.9013
 9693SOL     OW30018   2.125   1.839   6.984 -0.3466 -0.0262  0.4379
 9693SOL    HW130019   2.124   1.751   7.021 -0.2886  0.5164  1.8175
 9693SOL    HW230020   2.214   1.870   6.999  0.1220 -0.3033 -1.5400
 9694SOL     OW30021   5.629   3.666   2.434 -0.1807  0.1355 -0.1603
 9694SOL    HW130022   5.614   3.651   2.527  2.4866  4.4827  1.2956
 9694SOL    HW230023   5.569   3.737   2.411 -0.2630 -0.3607 -1.5512
 9695SOL     OW30024   2.545   0.469   4.805  0.1345 -0.3213  0.3768
 9695SOL    HW130025   2.452   0.495   4.799  0.1534 -0.4204 -0.5131
 9695SOL    HW230026   2.543   0.374   4.814  0.1616 -0.3701 -0.1285
 9696SOL     OW30027   7.428   0.282   4.317  0.8591 -0.6840  0.0974
 9696SOL    HW130028   7.504   0.239   4.357  0.6474 -1.1264  0.0330
 9696SOL    HW230029   7.448   0.285   4.224  1.1871  0.0091  0.1814
 9697SOL     OW30030   1.363   3.925   3.717 -0.0968  0.1415 -0.2368
 9697SOL    HW130031   1.311   3.912   3.638 -0.2568  1.1263 -0.3070
 9697SOL    HW230032   1.298   3.944   3.785 -0.1135 -2.4883  0.5725
 9698SOL     OW30033   4.470   3.369   3.137  0.2221 -0.3354  0.0434
 9698SOL    HW130034   4.386   3.387   3.094 -0.2566 -0.4797  0.8790
 9698SOL    HW230035   4.506   3.295   3.089 -0.0497 -0.1627 -0.4353
 9699SOL     OW30036   1.084   4.359   5.622 -0.1786 -0.3933  0.2601
 9699SOL    HW130037   1.058   4.336   5.711 -1.5950 -0.1716 -0.0755
 9699SOL    HW230038   1.137   4.286   5.592  0.8711 -0.1731  1.5110
 9700SOL     OW30039   2.178   5.505   2.872  0.2832  0.1266  0.5195
 9700SOL    HW130040   2.257   5.540   2.830 -0.4104  1.7554  0.5082
 9700SOL    HW230041   2.109   5.517   2.807  0.0663 -1.7095  0.3503
 9701SOL     OW30042   2.917   6.395   4.399 -0.5082 -0.3871 -0.1638
 9701SOL    HW130043   2.823   6.415   4.405 -0.7797 -1.4858 -0.4380
 9701SOL    HW230044   2.923   6.335   4.324  0.3668 -0.5877  0.0641
 9702SOL     OW30045   6.332   0.786   1.808  0.6131 -0.1645  0.0854
 9702SOL    HW130046   6.354   0.695   1.785  0.2006  0.4258 -3.1051
 9702SOL    HW230047   6.415   0.832   1.803  0.9177 -0.4035  2.2533
 9703SOL     OW30048   2.508   3.991   5.323 -0.1914  0.4642 -0.1423
 9703SOL    HW130049   2.478   4.024   5.238 -1.0753 -0.1230 -0.0776
 9703SOL    HW230050   2.520   4.070   5.376 -2.4151  0.7567  0.0572
 9704SOL     OW30051   2.441   6.547   7.181 -0.3546  0.2873 -0.4018
 9704SOL    HW130052   2.477   6.586   7.101  2.3431  0.3350  0.7320
 9704SOL    HW230053   2.352   6.581   7.186 -0.0341  1.6299 -2.4880
 9705SOL     OW30054   5.441   1.685   3.697  0.2328 -0.5116  0.4518
 9705SOL    HW130055   5.403   1.612   3.649  0.9207 -0.0479 -0.8858
 9705SOL    HW230056   5.407   1.763   3.652 -0.9649  0.0298  2.2248
 9706SOL     OW30057   7.053   1.162   0.982  0.4584  0.3153  0.1015
 9706SOL    HW130058   7.068   1.075   0.946 -0.0828  0.3856 -0.3015
 9706SOL    HW230059   7.125   1.175   1.044  1.5892  0.3018 -1.1538
 9707SOL     OW30060   4.607   1.483   3.837 -0.3853  0.0147 -0.3158
 9707SOL    HW130061   4.511   1.482   3.838 -0.4491  2.0603  0.8882
 9707SOL    HW230062   4.629   1.558   3.781  0.4826  0.1701  0.2231
 9708SOL     OW30063   0.127   2.585   5.580 -0.2772  0.3740  0.3443
 9708SOL    HW130064   0.043   2.615   5.615  0.9665  2.3703  1.8260
 9708SOL    HW230065   0.174   2.666   5.559  1.1626 -0.7046 -0.7730
 9709SOL     OW30066   6.972   4.651   1.959 -0.2944  0.2961 -0.5746
 9709SOL    HW130067   7.018   4.584   1.908  2.6979  0.9437  1.0294
 9709SOL    HW230068   6.916   4.601   2.018  0.0549 -0.6870 -1.0559
 9710SOL     OW30069   3.229   3.127   5.558 -0.3924  0.0216 -0.2712
 9710SOL    HW130070   3.140   3.110   5.527 -0.0266  0.3362 -1.5397
 9710SOL    HW230071   3.233   3.082   5.643 -1.6718 -0.2115 -0.3046
 9711SOL     OW30072   3.665   3.893   2.997  0.0819  0.5529  0.3106
 9711SOL    HW130073   3.712   3.941   2.928 -1.4211 -0.4182 -1.4879
 9711SOL    HW230074   3.607   3.958   3.036  0.4432  0.9546  0.1891
 9712SOL     OW30075   2.998   1.278   5.137 -0.5658  0.2725  0.4512
 9712SOL    HW130076   2.956   1.225   5.205 -1.4141  0.6941  0.2662
 9712SOL    HW230077   3.046   1.214   5.084 -0.6455 -0.1720  0.8994
 9713SOL     OW30078   7.062   1.155   5.670  0.5552  0.0521  0.5818
 9713SOL    HW130079   6.977   1.153   5.714  1.3134 -0.3020  2.0592
 9713SOL    HW230080   7.075   1.248   5.648 -0.5438  0.0109 -0.3887
 9714SOL     OW30081   3.720   2.931   2.862  0.1029  0.4568 -0.1420
 9714SOL    HW130082   3.672   2.971   2.935  1.2553  0.9187  0.3735
 9714SOL    HW230083   3.783   2.872   2.904 -0.4113 -0.6251 -0.8408
 9715SOL     OW30084   2.779   6.501   0.911  0.2326  0.1590  0.5990
 9715SOL    HW130085   2.790   6.410   0.884 -0.0179  0.3151 -0.0301
 9715SOL    HW230086   2.798   6.499   1.005 -0.4105 -0.6601  0.7276
 9716SOL     OW30087   4.198   5.733   7.351  0.2227 -0.2195 -0.2057
 9716SOL    HW130088   4.229   5.823   7.341  0.0184  0.1320  1.7760
 9716SOL    HW230089   4.268   5.689   7.399 -0.4598 -0.5885  0.4807
 9717SOL     OW30090   3.556   6.949   1.508 -0.1180 -0.0417 -0.2569
 9717SOL    HW130091   3.599   6.879   1.557 -0.7046 -0.2365 -0.0181
 9717SOL    HW230092   3.623   7.017   1.500 -0.1948  0.2674  1.3733
 9718SOL     OW30093   3.714   5.218   4.018 -0.3788 -0.4220  0.0864
 9718SOL    HW130094   3.669   5.299   4.043 -2.5683 -0.9544 -1.8471
 9718SOL    HW230095   3.728   5.172   4.101  1.4927  2.1105  1.3253
 9719SOL     OW30096   3.505   2.699   0.870  0.1904  0.1122 -0.0397
 9719SOL    HW130097   3.471   2.687   0.959 -1.3077 -3.5090 -0.9093
 9719SOL    HW230098   3.595   2.667   0.874  0.6344  1.3898  0.4559
 9720SOL     OW30099   4.863   1.696   2.840  0.5663 -0.5580 -0.4319
 9720SOL    HW130100   4.944   1.670   2.796  0.5507  0.1215 -0.8729
 9720SOL    HW230101   4.831   1.771   2.790 -0.8255 -1.3864 -0.8286
 9721SOL     OW30102   6.136   5.941   1.030 -0.2465 -0.6659 -0.2502
 9721SOL    HW130103   6.184   6.012   0.987 -1.3414  0.9851  1.1413
 9721SOL    HW230104   6.166   5.941   1.120 -1.6718 -0.6661  0.2491
 9722SOL     OW30105   3.744   0.773   3.448 -0.2827 -0.3029 -0.3954
 9722SOL    HW130106   3.675   0.808   3.392  0.0638 -0.4677 -0.9254
 9722SOL    HW230107   3.810   0.841   3.451 -0.8214  0.2078  0.7927
 9723SOL     OW30108   4.148   6.242   2.710  0.3936  0.3039 -0.1825
 9723SOL    HW130109   4.221   6.304   2.715  1.0774 -0.5276  0.4808
 9723SOL    HW230110   4.134   6.212   2.800  1.3310 -1.8727 -0.6842
 9724SOL     OW30111   0.225   0.479   4.719 -0.1711 -0.5104  0.1321
 9724SOL    HW130112   0.156   0.545   4.711  0.7863  0.5929  0.5233
 9724SOL    HW230113   0.182   0.402   4.755 -1.6050 -0.5971 -1.6202
 9725SOL     OW30114   2.278   3.588   4.507 -0.3420  0.5111 -0.1956
 9725SOL    HW130115   2.292   3.572   4.601  0.2322 -1.1104 -0.5204
 9725SOL    HW230116   2.202   3.534   4.486 -0.4914  0.9008 -0.6690
 9726SOL     OW30117   0.103   5.907   0.885 -0.4691 -0.3075  0.2698
 9726SOL    HW130118   0.173   5.969   0.905 -0.6910  0.2891 -0.6874
 9726SOL    HW230119   0.095   5.852   0.963  0.7279 -0.0705  0.5697
 9727SOL     OW30120   2.755   2.067   5.177  0.1303 -0.4103  0.0697
 9727SOL    HW130121   2.842   2.047   5.142 -0.5739 -2.1626 -0.8191
 9727SOL    HW230122   2.721   1.982   5.206 -0.5826  0.5294  2.1279
 9728SOL     OW30123   0.055   4.347   7.314 -0.2401 -0.3593  0.2538
 9728SOL    HW130124  -0.003   4.272   7.298 -0.9316  0.5214 -1.6907
 9728SOL    HW230125   0.117   4.345   7.241  0.6804  0.1261  1.0043
 9729SOL     OW30126   4.357   6.643   3.089 -0.2410 -0.4405  0.1788
 9729SOL    HW130127   4.354   6.589   3.010  1.6477 -0.7146  0.2574
 9729SOL    HW230128   4.330   6.584   3.159  0.0305 -0.7761  0.0061
 9730SOL     OW30129   1.503   1.096   7.158  0.0691 -0.0782 -0.1204
 9730SOL    HW130130   1.516   1.187   7.131 -1.1254  0.1468  0.0149
 9730SOL    HW230131   1.530   1.045   7.082  1.1394  0.3662 -0.0517
 9731SOL     OW30132   1.496   3.060   1.503 -0.2536  0.3462 -0.3974
 9731SOL    HW130133   1.439   3.125   1.461 -1.0410 -0.8325 -1.2335
 9731SOL    HW230134   1.539   3.016   1.430  2.0112  1.3810  0.2166
 9732SOL     OW30135   2.328   3.974   6.398 -0.1046 -0.4794  0.2227
 9732SOL    HW130136   2.262   3.914   6.366  0.1265 -1.2373  1.1393
 9732SOL    HW230137   2.399   3.968   6.335 -1.1032  0.7569 -1.0759
 9733SOL     OW30138   1.696   4.936   4.874 -0.0654  0.0509 -0.7377
 9733SOL    HW130139   1.784   4.899   4.881  0.6463  1.4550 -1.6851
 9733SOL    HW230140   1.653   4.911   4.956  0.9397 -1.3181 -0.5889
 9734SOL     OW30141   5.380   6.122   6.044  0.4246 -0.0729  0.2447
 9734SOL    HW130142   5.334   6.201   6.016  2.5250  1.2572  0.3163
 9734SOL    HW230143   5.311   6.057   6.058 -1.1853  1.0546 -1.9815
 9735SOL     OW30144   6.312   0.292   4.804  0.3946 -0.4250  0.6812
 9735SOL    HW130145   6.218   0.282   4.791  0.4983 -1.1637  0.5021
 9735SOL    HW230146   6.351   0.210   4.775  1.0328 -0.4143  1.4394
 9736SOL     OW30147   0.552   7.333   5.823 -0.5111  0.4327  0.3370
 9736SOL    HW130148   0.532   7.267   5.889  0.4218 -1.6985 -1.3806
 9736SOL    HW230149   0.633   7.374   5.854  1.1567 -2.0803 -0.4689
 9737SOL     OW30150   4.631   4.179   1.658  0.3139 -0.1450 -0.7843
 9737SOL    HW130151   4.726   4.177   1.649  0.4130  0.3429  0.1638
 9737SOL    HW230152   4.609   4.097   1.703  0.1973 -0.6096 -1.6471
 9738SOL     OW30153   0.437   5.559   0.288  0.4066  0.1394  0.5982
 9738SOL    HW130154   0.407   5.500   0.357  1.3172  0.1942  1.0508
 9738SOL    HW230155   0.480   5.631   0.334  0.1279  0.6912  0.0098
 9739SOL     OW30156   6.417   6.542   1.410  0.2298  0.1412 -0.5706
 9739SOL    HW130157   6.467   6.526   1.490 -0.3581  0.2286 -0.1750
 9739SOL    HW230158   6.426   6.462   1.359  3.0372  1.1067 -1.7860
 9740SOL     OW30159   6.103   2.271   7.082 -0.3889 -0.5281  0.5751
 9740SOL    HW130160   6.082   2.195   7.028 -2.2720 -0.6882  1.4697
 9740SOL    HW230161   6.020   2.296   7.122  0.2705  1.7179  0.6987
 9741SOL     OW30162   3.074   3.625   4.849 -0.1026  0.4558  0.1859
 9741SOL    HW130163   3.133   3.695   4.876  0.3688  0.4150 -0.7268
 9741SOL    HW230164   3.055   3.643   4.757  1.9759 -1.9295 -0.8297
 9742SOL     OW30165   4.637   1.073   0.304  0.4029  0.1155 -0.6221
 9742SOL    HW130166   4.673   0.999   0.352  0.9454 -0.1667 -1.4394
 9742SOL    HW230167   4.704   1.141   0.310  0.2576  0.2530 -0.5552
 9743SOL     OW30168   3.793   1.101   0.961  0.5009  0.1860 -0.3127
 9743SOL    HW130169   3.796   1.168   0.893  1.6402  2.7521  2.0719
 9743SOL    HW230170   3.729   1.134   1.025 -0.4923 -2.1019 -0.0060
 9744SOL     OW30171   5.436   2.595   6.125 -0.4396 -0.1162  0.1980
 9744SOL    HW130172   5.464   2.615   6.214 -1.6321  1.2417  0.2902
 9744SOL    HW230173   5.512   2.551   6.086  0.3010 -0.2261  1.6961
 9745SOL     OW30174   4.784   3.582   1.346  0.3811 -0.0726  0.4363
 9745SOL    HW130175   4.747   3.531   1.418 -0.2872 -0.3423 -0.0964
 9745SOL    HW230176   4.735   3.664   1.347 -0.1895 -0.3989 -0.2217
 9746SOL     OW30177   5.871   0.077   4.087  0.2257 -0.1778  0.3915
 9746SOL    HW130178   5.880   0.170   4.065  2.6473  0.0020  1.7727
 9746SOL    HW230179   5.825   0.077   4.171 -0.2173 -0.2638  0.1502
 9747SOL     OW30180   0.616   5.173   0.142 -0.3081 -0.1710  0.3586
 9747SOL    HW130181   0.526   5.200   0.160 -0.6316 -0.1878 -1.0696
 9747SOL    HW230182   0.607   5.101   0.079  0.6584 -1.4921  1.6691
 9748SOL     OW30183   3.853   5.576   5.246  0.0031 -0.5126 -0.0580
 9748SOL    HW130184   3.783   5.512   5.257 -1.3441  0.5705 -1.7574
 9748SOL    HW230185   3.809   5.655   5.216  1.8173  0.6726  0.2049
 9749SOL     OW30186   4.321   5.722   4.468  0.1515 -0.4689  0.1478
 9749SOL    HW130187   4.320   5.782   4.393  0.6583 -0.8449 -0.1708
 9749SOL    HW230188   4.295   5.775   4.542  1.9144  0.5177  0.1250
 9750SOL     OW30189   1.219   1.506   6.974 -0.2496 -0.9950 -0.2977
 9750SOL    HW130190   1.253   1.574   7.032  0.9291 -0.7639 -1.2220
 9750SOL    HW230191   1.289   1.492   6.911 -0.5207 -3.0061 -0.1893
 9751SOL     OW30192   6.767   3.433   0.567  0.0226  0.5844  0.4354
 9751SOL    HW130193   6.750   3.527   0.575 -1.7949  0.4594 -1.1479
 9751SOL    HW230194   6.739   3.396   0.650 -0.2951  1.3275  0.6669
 9752SOL     OW30195   4.594   4.181   3.127  0.0064  0.2028  0.2320
 9752SOL    HW130196   4.568   4.143   3.043 -0.7524  0.3227  0.4063
 9752SOL    HW230197   4.609   4.107   3.184 -1.9200  0.1161  0.7090
 9753SOL     OW30198   5.600   2.374   0.054  0.2327  0.2505  0.3521
 9753SOL    HW130199   5.643   2.300   0.096  1.7120  1.2119  0.6001
 9753SOL    HW230200   5.533   2.402   0.117  0.8179  0.1797  1.0122
 9754SOL     OW30201   5.937   0.536   5.579 -0.2932 -0.3694  0.1873
 9754SOL    HW130202   5.992   0.589   5.636  0.5035 -0.9616 -0.0193
 9754SOL    HW230203   5.989   0.522   5.500 -0.4430 -1.5281  0.2721
 9755SOL     OW30204   5.736   4.953   6.142  0.7274  0.0906 -0.0293
 9755SOL    HW130205   5.800   4.881   6.145 -0.6826 -1.2404 -0.5764
 9755SOL    HW230206   5.773   5.015   6.079  2.0902 -0.0015  0.6368
 9756SOL     OW30207   5.181   3.487   1.668  0.2077  0.1287 -0.2733
 9756SOL    HW130208   5.157   3.497   1.576  0.5469  0.2665 -0.3476
 9756SOL    HW230209   5.206   3.575   1.696  0.9830 -0.0747 -0.2986
 9757SOL     OW30210   0.919   4.479   1.784 -0.9062 -0.1000 -0.0997
 9757SOL    HW130211   0.895   4.556   1.835  1.8222  1.0169 -0.3409
 9757SOL    HW230212   0.904   4.504   1.693 -0.2151  0.0695 -0.1674
 9758SOL     OW30213   4.352   1.089   4.581  0.1613 -0.1223 -0.6043
 9758SOL    HW130214   4.323   1.105   4.491  1.7446  2.0204 -0.7894
 9758SOL    HW230215   4.310   1.158   4.633  1.1764  0.1466 -0.1160
 9759SOL     OW30216   2.164   0.179   0.668  0.3731  0.0901  0.6108
 9759SOL    HW130217   2.169   0.185   0.764  1.1380 -0.7615  0.6350
 9759SOL    HW230218   2.073   0.157   0.650 -0.0149  1.2407  1.0770
 9760SOL     OW30219   6.466   0.751   2.813  0.7218  0.2200 -0.4286
 9760SOL    HW130220   6.488   0.841   2.839  0.3365  0.9557 -2.4733
 9760SOL    HW230221   6.484   0.699   2.892  1.6822  1.9587  0.5864
 9761SOL     OW30222   0.530   0.762   0.977 -0.1247 -0.5188  0.0013
 9761SOL    HW130223   0.602   0.748   0.915  0.1879  0.7879  0.0445
 9761SOL    HW230224   0.469   0.820   0.931  0.8143  1.6797  1.3770
 9762SOL     OW30225   4.146   4.820   6.493 -0.1639  0.6052  0.2408
 9762SOL    HW130226   4.210   4.848   6.558  1.5632  0.3157 -1.2346
 9762SOL    HW230227   4.196   4.764   6.433 -1.2013  2.1771 -2.2776
 9763SOL     OW30228   2.675   1.784   4.566 -0.0698 -0.6163  0.0484
 9763SOL    HW130229   2.622   1.829   4.632  1.1615 -2.0794  2.1809
 9763SOL    HW230230   2.750   1.841   4.551  0.7949 -1.2323  1.7169
 9764SOL     OW30231   1.147   7.398   6.828 -0.0129  0.0747  0.6618
 9764SOL    HW130232   1.082   7.455   6.788  0.1706 -0.1669  0.0058
 9764SOL    HW230233   1.224   7.453   6.840 -0.6821  0.6854  2.5175
 9765SOL     OW30234   0.095   6.082   5.878  0.1369 -0.7246 -0.1797
 9765SOL    HW130235   0.109   6.107   5.786  0.5899 -0.7029 -0.1059
 9765SOL    HW230236   0.095   5.986   5.877  1.4119 -0.7372 -0.0201
 9766SOL     OW30237   6.911   0.719   1.158 -0.4469 -0.6800 -0.4712
 9766SOL    HW130238   6.873   0.701   1.244 -1.8479 -1.9377 -1.2931
 9766SOL    HW230239   6.911   0.634   1.114  2.1107 -0.4675 -1.0498
 9767SOL     OW30240   6.514   0.768   5.340 -0.2008  0.0106  0.1543
 9767SOL    HW130241   6.569   0.806   5.272  0.7533  0.2368  1.0340
 9767SOL    HW230242   6.480   0.843   5.389 -0.9339 -0.1480 -0.0963
 9768SOL     OW30243   2.562   5.347   1.033  0.0255  0.0048  0.1855
 9768SOL    HW130244   2.626   5.306   1.090 -1.8953 -0.6750  1.9986
 9768SOL    HW230245   2.483   5.356   1.087 -1.1606  1.6246 -1.6366
 9769SOL     OW30246   2.822   7.055   4.522  0.0032 -0.2601 -0.4256
 9769SOL    HW130247   2.815   7.151   4.514  0.9096 -0.2246 -1.0170
 9769SOL    HW230248   2.756   7.022   4.462 -2.8678 -0.0793  2.3800
 9770SOL     OW30249   4.872   3.602   3.819  0.3879 -0.0048 -0.0826
 9770SOL    HW130250   4.958   3.568   3.843  0.5411 -1.9494 -2.9132
 9770SOL    HW230251   4.884   3.641   3.733 -1.0496  2.3086  0.6603
 9771SOL     OW30252   1.279   6.103   1.757  0.1595 -0.1379  0.2820
 9771SOL    HW130253   1.295   6.152   1.838 -1.5150  1.1819 -0.1150
 9771SOL    HW230254   1.199   6.053   1.776 -0.6782  0.7578 -0.7643
 9772SOL     OW30255   4.367   5.349   3.900 -0.0107 -0.1670  0.1827
 9772SOL    HW130256   4.277   5.315   3.908 -0.2787  0.5403  0.2304
 9772SOL    HW230257   4.356   5.439   3.871  0.7560 -0.6371 -1.7244
 9773SOL     OW30258   5.881   6.078   1.028  0.5965 -0.0206 -0.1502
 9773SOL    HW130259   5.858   6.133   1.103 -0.7837 -0.9595  0.1579
 9773SOL    HW230260   5.971   6.052   1.043  1.0567  1.5524  0.0566
 9774SOL     OW30261   2.645   1.750   6.308  0.5888 -0.2978  0.4339
 9774SOL    HW130262   2.671   1.705   6.228  1.7798  0.9758  0.0557
 9774SOL    HW230263   2.726   1.786   6.343 -0.0921  0.2207  1.5385
 9775SOL     OW30264   1.999   0.928   4.870  0.0640  0.4092  0.2567
 9775SOL    HW130265   2.057   0.910   4.796  0.1925 -0.1904  0.4987
 9775SOL    HW230266   2.055   0.917   4.947 -0.3296 -0.0157  0.4846
 9776SOL     OW30267   3.108   6.881   0.057 -0.3489  0.1685  0.3976
 9776SOL    HW130268   3.200   6.896   0.079 -0.3815  0.7492  0.1444
 9776SOL    HW230269   3.067   6.967   0.063 -0.9543 -0.1391  0.8437
 9777SOL     OW30270   4.551   5.267   1.003 -0.6576 -0.6867  0.0343
 9777SOL    HW130271   4.495   5.189   1.003 -3.4458  1.1641  0.7020
 9777SOL    HW230272   4.490   5.341   0.998  1.7438  1.5315  0.9200
 9778SOL     OW30273   3.678   6.983   1.958 -0.4531 -0.1044 -0.0048
 9778SOL    HW130274   3.592   6.953   1.928 -0.6382 -0.1046  0.5240
 9778SOL    HW230275   3.692   7.066   1.910 -3.0437  2.6964  3.5275
 9779SOL     OW30276   6.906   1.971   4.854 -0.4301 -0.0512  0.1770
 9779SOL    HW130277   6.892   2.016   4.770  1.6153 -0.5631 -0.5080
 9779SOL    HW230278   6.864   1.886   4.843 -0.3804 -0.0250 -0.2474
 9780SOL     OW30279   0.803   2.974   7.037 -0.1639  0.1182  0.1645
 9780SOL    HW130280   0.769   3.064   7.033 -0.9969 -0.1759  0.4618
 9780SOL    HW230281   0.844   2.968   7.124 -0.7565 -0.0088  0.4402
 9781SOL     OW30282   3.512   6.408   2.678 -0.1187 -0.5847  0.3374
 9781SOL    HW130283   3.567   6.331   2.688  1.4330  0.6212  1.7137
 9781SOL    HW230284   3.522   6.433   2.586  1.5319 -0.5096  0.5046
 9782SOL     OW30285   6.852   0.139   4.503  0.1582  0.0050  0.0990
 9782SOL    HW130286   6.771   0.089   4.505 -0.8746  1.6258  0.7395
 9782SOL    HW230287   6.892   0.123   4.589  0.4801 -0.6944 -0.1710
 9783SOL     OW30288   0.417   7.064   0.576  0.5869  0.0958 -0.1779
 9783SOL    HW130289   0.477   7.051   0.649  1.4883 -0.0005 -0.9199
 9783SOL    HW230290   0.473   7.090   0.503 -0.2613 -0.0970 -0.9178
 9784SOL     OW30291   7.230   1.344   2.776 -0.6816 -0.1277  0.2253
 9784SOL    HW130292   7.261   1.415   2.720  0.0188 -1.7260 -1.5130
 9784SOL    HW230293   7.251   1.374   2.865 -0.9183  2.0555 -0.3811
 9785SOL     OW30294   1.646   5.659   5.630  0.1841 -0.0894 -0.1146
 9785SOL    HW130295   1.724   5.713   5.637 -0.0742  0.2472  0.2332
 9785SOL    HW230296   1.627   5.654   5.537 -0.2372  1.0783 -0.1061
 9786SOL     OW30297   2.700   6.320   3.389 -0.7419  0.6930  0.2388
 9786SOL    HW130298   2.649   6.324   3.470  0.0239  1.1029  0.7076
 9786SOL    HW230299   2.638   6.287   3.323 -1.8634  2.0559  0.5834
 9787SOL     OW30300   6.600   7.098   3.788  0.1352  0.3102  0.3417
 9787SOL    HW130301   6.538   7.093   3.861  1.0569 -0.0994  1.1264
 9787SOL    HW230302   6.607   7.007   3.757  0.7592  0.2554  0.6298
 9788SOL     OW30303   1.809   0.063   6.813 -0.4142 -0.3192  0.1704
 9788SOL    HW130304   1.753   0.108   6.875 -0.3563 -0.3930  0.2768
 9788SOL    HW230305   1.843   0.132   6.756 -1.2134 -0.3595 -0.3808
 9789SOL     OW30306   3.996   2.824   4.798 -0.3956 -0.1890 -0.6834
 9789SOL    HW130307   3.943   2.903   4.801 -2.6597 -1.6333 -0.1736
 9789SOL    HW230308   3.994   2.797   4.706 -0.7586 -0.3687 -0.6239
 9790SOL     OW30309   6.491   7.303   5.775  0.1723  0.3184  0.0019
 9790SOL    HW130310   6.439   7.314   5.695 -0.6228  1.1276  0.6058
 9790SOL    HW230311   6.469   7.379   5.828  2.1064  0.7564  0.2381
 9791SOL     OW30312   6.749   3.522   0.102 -0.0780  0.2689 -0.5849
 9791SOL    HW130313   6.747   3.583   0.175 -1.6689 -2.0982  1.5450
 9791SOL    HW230314   6.658   3.515   0.073  0.4223  0.6493 -2.4196
 9792SOL     OW30315   5.659   5.973   4.770  0.0406  0.2129  0.3368
 9792SOL    HW130316   5.676   5.879   4.760  1.6203  0.3872  1.0124
 9792SOL    HW230317   5.717   6.014   4.706  0.7373  0.7815  1.3040
 9793SOL     OW30318   1.191   3.807   5.394 -0.3972  0.1823  0.2198
 9793SOL    HW130319   1.109   3.787   5.438 -0.2967 -0.5192  0.0920
 9793SOL    HW230320   1.242   3.727   5.400 -0.1962  0.2169 -0.7629
 9794SOL     OW30321   3.785   3.061   1.004  0.0886  0.1719 -0.1899
 9794SOL    HW130322   3.734   3.029   0.929  1.2150 -0.1806 -0.8190
 9794SOL    HW230323   3.718   3.089   1.067 -0.8899 -0.2452 -1.0032
 9795SOL     OW30324   3.585   6.228   2.909 -0.3336 -0.2822 -0.0002
 9795SOL    HW130325   3.673   6.243   2.873  0.3766 -1.3313  1.2060
 9795SOL    HW230326   3.585   6.136   2.935 -1.9286 -0.3872 -0.3049
 9796SOL     OW30327   4.790   7.261   5.345 -0.0247 -0.3036 -0.1259
 9796SOL    HW130328   4.763   7.266   5.437  0.6637 -0.4657  0.0836
 9796SOL    HW230329   4.870   7.210   5.345  0.6285  0.6856 -0.6771
 9797SOL     OW30330   4.018   1.727   2.041  0.0424  0.1288  0.2960
 9797SOL    HW130331   4.035   1.654   2.100  1.8392  0.4688  0.2612
 9797SOL    HW230332   3.994   1.799   2.098 -3.0781 -0.7487  0.2590
 9798SOL     OW30333   0.504   5.012   5.808  0.0895 -0.1265  0.5595
 9798SOL    HW130334   0.481   4.994   5.717 -1.4172  0.5580  0.7849
 9798SOL    HW230335   0.569   5.082   5.803 -1.0678  0.9456  0.0395
 9799SOL     OW30336   4.031   0.574   1.412  0.1068  0.0275 -0.0693
 9799SOL    HW130337   3.967   0.598   1.479 -1.5714  1.3194 -2.0158
 9799SOL    HW230338   4.085   0.653   1.401 -1.6344  1.0268 -2.3187
 9800SOL     OW30339   6.458   4.722   2.012 -0.6093 -0.0270 -0.0450
 9800SOL    HW130340   6.489   4.654   1.953 -0.0967  0.4923 -0.3886
 9800SOL    HW230341   6.532   4.782   2.022 -1.6916  1.6489 -1.4830
 9801SOL     OW30342   0.397   7.091   4.701  0.0571  0.6763 -0.0223
 9801SOL    HW130343   0.468   7.145   4.736  0.1199 -0.1790  1.2089
 9801SOL    HW230344   0.385   7.124   4.612  0.2777  2.5464  0.5820
 9802SOL     OW30345   5.353   0.075   6.319  0.5136  0.1385 -0.2184
 9802SOL    HW130346   5.322  -0.013   6.299  0.7436  0.2990 -1.3110
 9802SOL    HW230347   5.326   0.129   6.245  2.3309  0.5240 -0.6560
 9803SOL     OW30348   6.757   7.021   2.242  0.2092  0.1550 -0.2398
 9803SOL    HW130349   6.723   7.109   2.224  1.5752  0.9993  1.0133
 9803SOL    HW230350   6.707   6.963   2.185 -1.0240  1.6977 -0.7900
 9804SOL     OW30351   1.809   2.490   7.387  0.2286 -0.0067 -0.1051
 9804SOL    HW130352   1.809   2.521   7.297  0.7970 -1.2009 -0.5438
 9804SOL    HW230353   1.721   2.457   7.402  0.0952  0.3201 -0.1823
 9805SOL     OW30354   5.071   1.272   2.725  0.2976  0.7606  0.2374
 9805SOL    HW130355   5.089   1.324   2.803  0.2757  1.0210  0.0687
 9805SOL    HW230356   5.100   1.327   2.652 -0.3506  0.8080  0.0164
 9806SOL     OW30357   3.288   0.492   6.963  0.0191  0.4536  0.2124
 9806SOL    HW130358   3.229   0.449   6.900 -0.4953 -0.6648  1.4096
 9806SOL    HW230359   3.328   0.419   7.011  1.3716  1.2479  0.3276
 9807SOL     OW30360   3.805   6.150   6.504  0.0378  0.5214  0.6937
 9807SOL    HW130361   3.864   6.225   6.517  1.6947 -0.6755  0.3708
 9807SOL    HW230362   3.850   6.077   6.546 -0.1072 -0.9130 -1.4823
 9808SOL     OW30363   4.532   6.872   3.652  0.4645 -0.4328  0.1008
 9808SOL    HW130364   4.528   6.777   3.665  0.1681 -0.7313 -1.9517
 9808SOL    HW230365   4.543   6.883   3.558  2.5473  1.5402  0.4916
 9809SOL     OW30366   4.231   3.810   4.156  0.5452  0.1542  0.0363
 9809SOL    HW130367   4.229   3.780   4.065  0.6157 -0.4679  0.2293
 9809SOL    HW230368   4.174   3.748   4.202  0.9335  0.1376  0.5050
 9810SOL     OW30369   1.602   5.147   5.952 -0.6741  0.2869 -0.4454
 9810SOL    HW130370   1.672   5.185   6.005 -0.0448  1.9045 -2.3151
 9810SOL    HW230371   1.533   5.213   5.952 -1.1061 -0.1526 -0.7723
 9811SOL     OW30372   0.863   6.793   3.868  0.2102  0.3719  0.1966
 9811SOL    HW130373   0.916   6.844   3.930  1.4627  0.2327 -0.7232
 9811SOL    HW230374   0.927   6.751   3.811 -0.8972 -0.1697 -0.6818
 9812SOL     OW30375   2.170   4.866   3.304  0.2510  0.2376 -0.4197
 9812SOL    HW130376   2.261   4.853   3.330  0.3352  1.6603  0.0834
 9812SOL    HW230377   2.167   4.834   3.213  1.1042 -0.3381 -0.2620
 9813SOL     OW30378   2.661   7.016   4.301 -0.0796  0.5165  0.5174
 9813SOL    HW130379   2.620   7.086   4.251  1.6820 -0.2767 -2.2560
 9813SOL    HW230380   2.606   6.939   4.284  0.9852  0.0547 -0.9994
 9814SOL     OW30381   6.405   3.378   5.419  0.1488  0.2342  0.7510
 9814SOL    HW130382   6.370   3.425   5.494  2.1868  0.8881  1.3669
 9814SOL    HW230383   6.385   3.286   5.436  1.5731  0.2342  2.7343
 9815SOL     OW30384   5.981   2.137   3.186  0.1367 -0.2618 -0.1937
 9815SOL    HW130385   6.012   2.072   3.123  0.0057 -0.4052 -0.1101
 9815SOL    HW230386   5.948   2.086   3.260 -1.7546 -0.1781 -0.9207
 9816SOL     OW30387   6.364   6.961   4.635  0.2871  0.8813  0.4421
 9816SOL    HW130388   6.409   6.915   4.706  0.0612 -0.9971 -0.5672
 9816SOL    HW230389   6.409   6.933   4.556 -0.5671  1.5721 -0.3094
 9817SOL     OW30390   5.056   5.118   6.159 -0.0847  0.3226  0.5191
 9817SOL    HW130391   5.009   5.059   6.100  1.5037  0.2411 -0.7433
 9817SOL    HW230392   5.120   5.062   6.204  0.6013  0.8461  0.2233
 9818SOL     OW30393   0.678   4.693   1.298 -0.2620  0.2052  0.0311
 9818SOL    HW130394   0.635   4.624   1.248  2.9249  0.7469 -3.9766
 9818SOL    HW230395   0.634   4.773   1.272  0.3727  0.3144 -0.7597
 9819SOL     OW30396   2.220   3.793   5.673  0.0251 -0.3079  0.0894
 9819SOL    HW130397   2.159   3.824   5.606 -0.0862 -1.4770 -0.3699
 9819SOL    HW230398   2.199   3.845   5.750  0.9987  1.9756 -1.0793
 9820SOL     OW30399   3.484   5.275   5.442  0.5590  0.4924  0.1767
 9820SOL    HW130400   3.429   5.344   5.478 -0.9835 -0.1272 -0.9114
 9820SOL    HW230401   3.516   5.228   5.519  3.1398  3.4072  1.0758
 9821SOL     OW30402   1.225   6.476   3.811 -0.4816  0.1200 -0.3004
 9821SOL    HW130403   1.238   6.413   3.882 -2.0398 -1.6585 -1.5003
 9821SOL    HW230404   1.217   6.560   3.855  0.8191 -0.6017  1.4312
 9822SOL     OW30405   4.688   5.110   4.271 -0.2126 -0.2026  0.1040
 9822SOL    HW130406   4.695   5.175   4.341  0.4237  0.0407 -0.1811
 9822SOL    HW230407   4.636   5.154   4.203  2.2697  0.9835 -1.1535
 9823SOL     OW30408   1.394   2.436   3.793 -0.1166 -0.5270  0.1546
 9823SOL    HW130409   1.449   2.447   3.716 -0.8008  1.4557 -0.0890
 9823SOL    HW230410   1.444   2.377   3.849  0.9750 -0.9908 -1.2258
 9824SOL     OW30411   6.781   0.715   2.311  0.5071 -0.0993  0.3422
 9824SOL    HW130412   6.760   0.805   2.338 -1.9830 -0.4987 -0.0194
 9824SOL    HW230413   6.752   0.661   2.385 -0.9115 -0.7788 -0.6625
 9825SOL     OW30414   6.807   7.148   6.295  0.1757  0.0895  0.0006
 9825SOL    HW130415   6.859   7.084   6.247  0.4822  0.6502 -0.4377
 9825SOL    HW230416   6.723   7.149   6.251  0.4188  0.5194 -0.4679
 9826SOL     OW30417   6.923   2.037   4.562 -0.4590 -0.1144 -0.2393
 9826SOL    HW130418   6.942   2.105   4.498 -1.8965 -0.0071 -0.5757
 9826SOL    HW230419   7.008   1.996   4.579  0.6602  2.3821  0.7308
 9827SOL     OW30420   4.198   3.222   4.453  0.0089 -0.2141 -0.0065
 9827SOL    HW130421   4.179   3.315   4.444 -1.8230 -0.6082 -0.6924
 9827SOL    HW230422   4.247   3.199   4.375 -0.7276 -0.0786 -0.5219
 9828SOL     OW30423   2.275   5.564   7.192  0.2432  0.2517 -0.0632
 9828SOL    HW130424   2.181   5.545   7.202  0.8022 -2.4894  0.5981
 9828SOL    HW230425   2.281   5.608   7.106 -1.4264 -1.3492 -1.0767
 9829SOL     OW30426   5.246   6.836   5.113  0.1679  0.3890  0.1742
 9829SOL    HW130427   5.174   6.842   5.176 -0.3854  1.4027 -0.5306
 9829SOL    HW230428   5.277   6.746   5.121  1.8856  1.1014  3.8319
 9830SOL     OW30429   4.254   6.049   1.518  0.1438 -0.1530  0.8727
 9830SOL    HW130430   4.298   5.991   1.580 -0.0934 -0.8154  0.4220
 9830SOL    HW230431   4.181   5.998   1.484 -0.6923  0.7714  1.2379
 9831SOL     OW30432   5.946   3.612   7.373  0.2683  0.4378  0.3347
 9831SOL    HW130433   5.908   3.697   7.394  0.0411  0.7588 -1.2155
 9831SOL    HW230434   5.871   3.556   7.355  0.4376  0.5224 -0.7413
 9832SOL     OW30435   3.498   4.444   2.002 -0.5950  0.0198 -0.2194
 9832SOL    HW130436   3.535   4.444   2.090 -0.2151  0.3635 -0.3757
 9832SOL    HW230437   3.501   4.353   1.974  0.6734  0.1164 -0.4539
 9833SOL     OW30438   6.368   1.654   2.928  0.0104  0.2103 -0.0282
 9833SOL    HW130439   6.450   1.693   2.898 -0.7010  0.7796 -1.3727
 9833SOL    HW230440   6.334   1.608   2.850 -0.3427 -1.0835  0.8549
 9834SOL     OW30441   2.211   5.951   4.491 -0.2024 -0.3673 -0.1285
 9834SOL    HW130442   2.132   5.974   4.539  1.0162 -0.7912  2.2203
 9834SOL    HW230443   2.253   6.035   4.473  0.4489 -0.2702  1.6463
 9835SOL     OW30444   0.262   6.809   0.481 -0.4283  0.3411 -0.4674
 9835SOL    HW130445   0.340   6.855   0.511  0.2751 -0.4089 -1.1140
 9835SOL    HW230446   0.189   6.857   0.521  0.4143 -0.2174  1.9568
 9836SOL     OW30447   7.004   4.265   2.077  0.4885 -0.2956  0.1192
 9836SOL    HW130448   7.064   4.273   2.151 -0.3067  0.3896  0.7012
 9836SOL    HW230449   6.928   4.219   2.112 -0.5766  1.4196  0.1748
 9837SOL     OW30450   4.322   2.298   6.437 -0.3411 -0.2202  0.3256
 9837SOL    HW130451   4.371   2.372   6.474 -0.3260  0.1634 -0.4337
 9837SOL    HW230452   4.243   2.293   6.490 -1.1265  1.4148 -0.6262
 9838SOL     OW30453   7.196   5.934   6.934 -0.2049 -0.3321  0.5152
 9838SOL    HW130454   7.288   5.909   6.940  0.0760  0.9418  3.0192
 9838SOL    HW230455   7.158   5.872   6.872  2.1535 -1.3907  0.0210
 9839SOL     OW30456   5.221   3.203   0.687  0.0702 -0.3994  0.2303
 9839SOL    HW130457   5.150   3.193   0.750 -0.4398 -0.8944 -0.3978
 9839SOL    HW230458   5.275   3.273   0.722  0.5168 -1.5153  1.8815
 9840SOL     OW30459   5.823   2.123   1.122 -0.2486  0.0478 -0.1933
 9840SOL    HW130460   5.742   2.156   1.084 -0.0484  1.5257  0.5932
 9840SOL    HW230461   5.861   2.067   1.054 -0.7907  1.1692 -1.4560
 9841SOL     OW30462   7.141   7.287   6.523 -0.1068  0.0094  0.0928
 9841SOL    HW130463   7.066   7.299   6.464 -2.4921 -0.1577  2.8612
 9841SOL    HW230464   7.216   7.316   6.472 -2.3235  2.3611 -2.1483
 9842SOL     OW30465   0.891   0.150   2.880  0.4525  0.8327  0.2174
 9842SOL    HW130466   0.836   0.158   2.801  1.9296  0.7105 -0.8630
 9842SOL    HW230467   0.893   0.239   2.916  0.9254  1.2097 -0.7050
 9843SOL     OW30468   6.494   5.725   4.539 -0.4597  0.1441 -0.9308
 9843SOL    HW130469   6.519   5.672   4.615  1.0140  1.4485 -0.4456
 9843SOL    HW230470   6.411   5.687   4.510  1.0977 -3.2896 -1.4690
 9844SOL     OW30471   4.565   3.593   0.455 -0.6402 -0.6152 -0.2620
 9844SOL    HW130472   4.552   3.518   0.513  0.7462 -1.6573 -1.2424
 9844SOL    HW230473   4.601   3.661   0.512 -2.4298 -0.4689  0.7500
 9845SOL     OW30474   6.890   2.618   2.576 -0.1436 -0.0562 -0.0651
 9845SOL    HW130475   6.956   2.678   2.541  0.4335 -0.4599  0.3052
 9845SOL    HW230476   6.912   2.533   2.538  0.1630 -0.3950  0.8368
 9846SOL     OW30477   6.513   6.505   1.659  0.1917 -0.2771  0.3287
 9846SOL    HW130478   6.604   6.498   1.628 -0.2710  1.8883 -1.9013
 9846SOL    HW230479   6.515   6.579   1.720 -0.0935 -0.1350  0.1651
 9847SOL     OW30480   0.150   2.078   5.309  0.0334  0.5184  0.2713
 9847SOL    HW130481   0.069   2.091   5.358  0.4568 -1.9469  1.8183
 9847SOL    HW230482   0.124   2.078   5.217 -1.3174  1.9767  0.6094
 9848SOL     OW30483   0.336   1.266   6.864  0.0230  0.1645  0.5749
 9848SOL    HW130484   0.416   1.279   6.915  0.0278  0.4466  0.4979
 9848SOL    HW230485   0.362   1.284   6.774  0.3087 -1.5091  0.2894
 9849SOL     OW30486   6.069   5.628   1.653  0.0803  0.1841 -0.1877
 9849SOL    HW130487   6.155   5.619   1.694  1.1525 -1.0087 -2.5138
 9849SOL    HW230488   6.022   5.548   1.676 -0.5228  0.9277  1.2540
 9850SOL     OW30489   2.778   4.711   2.035 -0.3101 -0.0083  0.0983
 9850SOL    HW130490   2.750   4.631   1.992 -2.3284  1.1737 -0.9251
 9850SOL    HW230491   2.787   4.775   1.965  0.9472  0.7729  0.9264
 9851SOL     OW30492   0.059   1.666   3.863  0.0284 -0.0242  0.2958
 9851SOL    HW130493   0.095   1.707   3.784  0.0777 -0.2894  0.1816
 9851SOL    HW230494   0.137   1.639   3.912  0.0169  0.7033  0.7365
 9852SOL     OW30495   4.279   1.909   3.693 -0.5554 -0.4568  0.5300
 9852SOL    HW130496   4.350   1.939   3.751 -1.6736  1.0193  1.2199
 9852SOL    HW230497   4.206   1.891   3.752 -1.3865  0.0414 -0.3099
 9853SOL     OW30498   5.799   6.659   5.016  0.1287  0.7717  0.8499
 9853SOL    HW130499   5.760   6.728   5.070 -0.8374 -1.1697  2.7524
 9853SOL    HW230500   5.746   6.582   5.033  2.4502 -1.0127  0.5030
 9854SOL     OW30501   7.026   5.233   5.850 -0.1847  0.1259 -0.4565
 9854SOL    HW130502   7.072   5.252   5.769  0.0731 -1.0923 -0.5997
 9854SOL    HW230503   7.092   5.194   5.907 -0.5505  0.2660  0.0782
 9855SOL     OW30504   5.909   0.692   6.945  0.1085  0.1033 -0.4242
 9855SOL    HW130505   5.923   0.661   6.856 -0.5321  1.2149 -0.9301
 9855SOL    HW230506   5.894   0.612   6.996  0.1259 -0.5218 -1.3749
 9856SOL     OW30507   5.169   6.078   7.043  0.3120 -0.2208  0.5027
 9856SOL    HW130508   5.179   5.989   7.007 -0.1422  0.1991 -0.7204
 9856SOL    HW230509   5.118   6.066   7.123 -2.9032 -0.7762 -1.4693
 9857SOL     OW30510   3.012   5.117   0.866  0.5162 -0.7244  0.2286
 9857SOL    HW130511   2.925   5.155   0.873  0.5037 -0.6315 -0.3872
 9857SOL    HW230512   2.997   5.025   0.848  0.5482 -0.8241  0.6971
 9858SOL     OW30513   0.155   5.992   4.649  0.9210  0.2368  0.0936
 9858SOL    HW130514   0.220   5.924   4.633 -0.0284 -0.6588 -0.0693
 9858SOL    HW230515   0.076   5.945   4.675 -0.1749  1.1803 -1.3678
 9859SOL     OW30516   6.958   2.169   2.641  0.2447 -0.4883  0.1838
 9859SOL    HW130517   6.940   2.105   2.572  1.0205  0.3004 -0.7677
 9859SOL    HW230518   6.874   2.178   2.687 -1.1944  1.1897 -2.5181
 9860SOL     OW30519   3.724   3.986   5.779 -0.7761 -0.0733  0.4346
 9860SOL    HW130520   3.669   3.986   5.857 -0.6304  3.4565  0.6890
 9860SOL    HW230521   3.679   3.927   5.718 -2.0644 -1.2087  2.3801
 9861SOL     OW30522   5.949   3.727   3.005 -0.5229  0.0977  0.0255
 9861SOL    HW130523   5.918   3.777   2.930 -1.3987 -1.1763 -0.5035
 9861SOL    HW230524   5.876   3.728   3.067 -0.4229 -0.2355  0.1529
 9862SOL     OW30525   7.375   1.501   5.175  0.4294 -0.3595 -0.3143
 9862SOL    HW130526   7.377   1.538   5.263  0.3660 -0.0027 -0.4604
 9862SOL    HW230527   7.443   1.434   5.175  1.9467  1.1321 -0.6435
 9863SOL     OW30528   0.174   1.071   1.926 -0.0826  0.2112 -0.3249
 9863SOL    HW130529   0.246   1.128   1.899 -1.0366  0.8691 -1.6200
 9863SOL    HW230530   0.180   0.995   1.868  0.6102 -0.5812  0.7553
 9864SOL     OW30531   2.421   6.766   0.357  0.0006  0.2032  0.5628
 9864SOL    HW130532   2.403   6.700   0.425  0.3327 -0.7617 -0.2576
 9864SOL    HW230533   2.485   6.724   0.299 -1.4987  0.3443 -1.2794
 9865SOL     OW30534   5.704   1.776   6.573 -0.2145  0.5482  0.4037
 9865SOL    HW130535   5.687   1.766   6.479  2.3948  1.5555 -0.2756
 9865SOL    HW230536   5.747   1.694   6.598  0.2154  0.7578  0.3777
 9866SOL     OW30537   1.139   4.141   0.806 -0.2877 -0.2849  0.3152
 9866SOL    HW130538   1.142   4.089   0.887 -0.1924 -0.6535  0.0764
 9866SOL    HW230539   1.145   4.077   0.736  3.3025  0.1966 -0.0001
 9867SOL     OW30540   5.947   1.170   2.085 -0.4008  0.8778 -0.4859
 9867SOL    HW130541   5.872   1.122   2.119  0.0092 -0.0388 -0.8468
 9867SOL    HW230542   6.013   1.164   2.153  0.0836 -0.1452 -1.0190
 9868SOL     OW30543   3.328   3.507   1.180  0.2909  0.0761 -0.3034
 9868SOL    HW130544   3.277   3.559   1.241  2.1901  0.5402  0.9980
 9868SOL    HW230545   3.334   3.561   1.101  0.2626  0.7872  0.1740
 9869SOL     OW30546   0.911   1.706   4.106 -0.5428 -0.1455  0.0983
 9869SOL    HW130547   0.951   1.774   4.052  0.7390 -0.5644  0.4712
 9869SOL    HW230548   0.977   1.636   4.109 -1.3241 -0.8809  0.7316
 9870SOL     OW30549   1.389   6.441   5.681  0.4758 -0.0271  0.6299
 9870SOL    HW130550   1.472   6.434   5.727  0.6993 -1.9301  0.0089
 9870SOL    HW230551   1.352   6.524   5.711  3.0780  1.4409  0.0799
 9871SOL     OW30552   2.145   2.165   3.705 -0.1197 -0.6353 -0.0922
 9871SOL    HW130553   2.083   2.159   3.632  1.0027 -1.0284 -1.0432
 9871SOL    HW230554   2.112   2.237   3.759  0.5095  1.5141 -2.4213
 9872SOL     OW30555   1.860   2.451   5.656 -0.0876 -0.6375  0.7399
 9872SOL    HW130556   1.922   2.391   5.698 -0.9410 -1.8362  0.3620
 9872SOL    HW230557   1.814   2.493   5.728  2.3073  1.6250  1.0910
 9873SOL     OW30558   1.586   1.572   1.984  0.1200  0.1568 -0.5865
 9873SOL    HW130559   1.594   1.528   1.900 -0.0870 -1.7651  0.3602
 9873SOL    HW230560   1.574   1.502   2.048  0.2290  1.5572  1.0604
 9874SOL     OW30561   2.333   1.875   1.498 -0.5606  0.1569  0.1324
 9874SOL    HW130562   2.337   1.971   1.507 -0.0679  0.1193  0.3713
 9874SOL    HW230563   2.351   1.859   1.406  1.3214  0.2034  0.4578
 9875SOL     OW30564   6.115   6.094   2.121 -0.8681  0.2405  0.2348
 9875SOL    HW130565   6.118   6.109   2.026 -0.2748  1.4079  0.4131
 9875SOL    HW230566   6.035   6.044   2.135 -0.5812 -0.5893 -0.9580
 9876SOL     OW30567   6.454   2.134   2.711 -0.1640 -0.2591 -0.2958
 9876SOL    HW130568   6.416   2.122   2.798 -1.1299  0.9809 -0.5187
 9876SOL    HW230569   6.409   2.211   2.676  0.8784 -0.1821 -1.5267
 9877SOL     OW30570   5.893   1.220   6.577 -0.1802 -0.2437 -0.3908
 9877SOL    HW130571   5.819   1.161   6.588 -0.9722  0.4392 -1.8407
 9877SOL    HW230572   5.970   1.165   6.590 -0.9130 -1.2727 -0.2879
 9878SOL     OW30573   1.019   2.993   5.291  0.4149  0.4495 -0.2398
 9878SOL    HW130574   0.936   2.951   5.268 -0.0785  2.1933 -1.9516
 9878SOL    HW230575   0.994   3.066   5.347  1.0008 -0.0698  0.7106
 9879SOL     OW30576   5.206   6.049   0.679 -0.1532 -0.2043 -0.3611
 9879SOL    HW130577   5.120   6.033   0.641 -0.4212 -1.1750  0.6201
 9879SOL    HW230578   5.244   5.962   0.691  0.8678  0.1969 -0.5421
 9880SOL     OW30579   6.123   0.439   2.425 -0.2763 -0.1279  0.2240
 9880SOL    HW130580   6.136   0.345   2.440 -0.6367 -0.2112  0.0047
 9880SOL    HW230581   6.130   0.478   2.512 -0.9394 -0.4496  0.4247
 9881SOL     OW30582   1.698   4.466   0.193  0.2049 -0.2264 -0.4302
 9881SOL    HW130583   1.696   4.534   0.260  0.4736  0.7642 -1.4061
 9881SOL    HW230584   1.790   4.439   0.190  0.2208 -0.1633 -0.5069
 9882SOL     OW30585   5.027   3.033   1.151 -0.2939  0.7049  0.8416
 9882SOL    HW130586   5.052   3.119   1.185  0.1037  1.2920 -0.8357
 9882SOL    HW230587   4.986   2.989   1.225  2.6473  0.9611  2.8148
 9883SOL     OW30588   7.110   6.091   0.926  0.6425 -1.0333  0.0070
 9883SOL    HW130589   7.149   6.046   0.851 -2.1749 -0.1376 -2.1388
 9883SOL    HW230590   7.046   6.029   0.961 -0.2461 -0.3011 -0.2970
 9884SOL     OW30591   1.690   2.688   2.185 -0.5540 -0.0240 -0.3905
 9884SOL    HW130592   1.747   2.758   2.218 -0.5311  0.6366 -1.7155
 9884SOL    HW230593   1.687   2.623   2.255  0.9639  0.4276  0.1313
 9885SOL     OW30594   6.719   6.258   0.636 -0.0683 -0.0308  0.0178
 9885SOL    HW130595   6.793   6.197   0.637  0.0262 -0.0050  2.8017
 9885SOL    HW230596   6.728   6.306   0.554  2.0800 -1.1128 -0.4479
 9886SOL     OW30597   3.621   1.072   2.203  0.1806 -0.1170  0.1454
 9886SOL    HW130598   3.700   1.081   2.149  1.2295 -0.8331  1.4825
 9886SOL    HW230599   3.583   0.988   2.175  0.0126  0.1106 -0.3286
 9887SOL     OW30600   2.439   3.072   1.417  0.1403 -0.5830  0.4473
 9887SOL    HW130601   2.464   2.994   1.466 -0.6071  1.0761  3.7322
 9887SOL    HW230602   2.521   3.103   1.379  1.0022 -1.3668  1.5878
 9888SOL     OW30603   7.062   7.420   4.249 -0.0506  0.3171 -0.7239
 9888SOL    HW130604   7.019   7.458   4.325 -0.0239 -1.1548  0.0649
 9888SOL    HW230605   7.089   7.332   4.278  0.9917  0.1615 -2.0649
 9889SOL     OW30606   0.542   2.816   7.169 -0.2886  0.1070  0.2567
 9889SOL    HW130607   0.458   2.772   7.156 -0.3244 -0.0839  1.0704
 9889SOL    HW230608   0.594   2.791   7.093 -0.1806 -1.6571  0.8743
 9890SOL     OW30609   4.185   4.600   3.206 -0.6414  0.2966 -0.2592
 9890SOL    HW130610   4.107   4.562   3.168 -0.4887  0.3257 -0.6121
 9890SOL    HW230611   4.255   4.579   3.143 -0.4286  0.5408 -0.1070
 9891SOL     OW30612   5.981   1.884   6.602  0.3136  0.0994  0.3632
 9891SOL    HW130613   5.964   1.937   6.524 -0.7150 -1.2892 -0.3936
 9891SOL    HW230614   5.894   1.869   6.639  0.7208  0.0005  1.2908
 9892SOL     OW30615   5.650   6.205   2.815 -0.5029 -0.0711  0.2515
 9892SOL    HW130616   5.701   6.261   2.872 -2.4232  0.6344  1.3380
 9892SOL    HW230617   5.668   6.116   2.846  0.1642  0.1487  0.5056
 9893SOL     OW30618   2.053   6.582   1.146 -0.0290  0.6546 -0.1901
 9893SOL    HW130619   2.081   6.578   1.054  0.5615  0.6105 -0.0099
 9893SOL    HW230620   2.095   6.507   1.187 -1.5747 -0.2715 -0.2111
 9894SOL     OW30621   6.253   4.998   0.026  0.3268  0.4233  0.1045
 9894SOL    HW130622   6.318   4.988   0.095  1.4097 -0.0309 -0.9551
 9894SOL    HW230623   6.255   4.915  -0.022 -0.1319  0.8518 -0.6894
 9895SOL     OW30624   1.409   5.571   0.262 -0.1984  0.0976 -0.1511
 9895SOL    HW130625   1.451   5.485   0.264 -0.7592 -0.2743 -2.1528
 9895SOL    HW230626   1.353   5.572   0.339  0.1167 -1.1647  0.1159
 9896SOL     OW30627   4.029   1.428   1.158 -0.1222  0.1865  0.3713
 9896SOL    HW130628   3.946   1.390   1.186 -0.3231  0.3963  0.0751
 9896SOL    HW230629   4.019   1.522   1.175 -0.6723  0.4843 -1.3615
 9897SOL     OW30630   6.847   1.457   2.462  0.0119  0.0835 -0.2785
 9897SOL    HW130631   6.885   1.394   2.523 -0.0115  1.0311  0.7621
 9897SOL    HW230632   6.855   1.416   2.376  2.1340 -0.3294  0.0589
 9898SOL     OW30633   2.245   5.897   6.805  0.1493 -0.8171  0.4822
 9898SOL    HW130634   2.297   5.964   6.850 -0.4639 -0.8039  1.1936
 9898SOL    HW230635   2.154   5.921   6.824 -0.5020  1.7593 -4.3169
 9899SOL     OW30636   6.723   6.531   4.324  0.2036 -0.8787  0.0120
 9899SOL    HW130637   6.705   6.614   4.369  0.4319 -0.7679 -0.1002
 9899SOL    HW230638   6.813   6.540   4.293  1.5352 -2.5067  2.9858
 9900SOL     OW30639   6.267   5.537   3.221  0.1230 -0.1114 -0.1326
 9900SOL    HW130640   6.338   5.529   3.157  0.2762 -1.8243  0.2012
 9900SOL    HW230641   6.298   5.603   3.283  0.9300 -0.0129 -0.6188
 9901SOL     OW30642   0.712   3.211   5.957 -0.4918  0.5072  0.5115
 9901SOL    HW130643   0.673   3.253   5.880  0.4601 -1.1454 -0.9492
 9901SOL    HW230644   0.679   3.121   5.954  1.4120 -0.2472  0.6433
 9902SOL     OW30645   1.765   4.869   7.274 -0.2388  0.2648  0.6126
 9902SOL    HW130646   1.852   4.834   7.295 -0.4950 -0.6974  0.1513
 9902SOL    HW230647   1.752   4.940   7.336  0.5076 -0.1695  1.2935
 9903SOL     OW30648   1.411   6.592   2.537 -0.3787 -0.2926  0.1655
 9903SOL    HW130649   1.388   6.504   2.567  0.3355 -0.8794 -0.9110
 9903SOL    HW230650   1.495   6.610   2.580  1.4057 -1.7394 -2.3851
 9904SOL     OW30651   2.203   4.131   5.439 -0.1836 -0.1611  0.2430
 9904SOL    HW130652   2.291   4.164   5.457  0.4362 -2.1495  1.2113
 9904SOL    HW230653   2.182   4.162   5.351  1.4671  0.3885  0.0193
 9905SOL     OW30654   0.114   3.643   3.426  0.1364 -0.2606 -0.2337
 9905SOL    HW130655   0.149   3.557   3.400  0.5014  0.6084 -2.9926
 9905SOL    HW230656   0.190   3.700   3.429 -0.3722  0.4703 -0.8265
 9906SOL     OW30657   4.953   3.854   5.872 -0.6880  0.0915 -0.1191
 9906SOL    HW130658   4.957   3.861   5.967 -1.7095  1.5115 -0.1602
 9906SOL    HW230659   4.862   3.828   5.854 -0.6606  0.4103 -0.7325
 9907SOL     OW30660   1.201   4.079   2.162  0.5416 -0.6182 -0.0548
 9907SOL    HW130661   1.226   3.990   2.136 -0.1472 -0.4421 -1.4303
 9907SOL    HW230662   1.226   4.133   2.087  2.6887  0.6899  1.4794
 9908SOL     OW30663   1.734   7.252   3.962  0.1668  0.2876  0.1728
 9908SOL    HW130664   1.691   7.326   4.006 -0.5451  0.6055 -1.0157
 9908SOL    HW230665   1.745   7.186   4.031  0.3636  1.3092  1.1374
 9909SOL     OW30666   0.382   1.561   1.742 -0.5437 -0.1240  0.6182
 9909SOL    HW130667   0.444   1.547   1.670 -0.9089  1.5654 -0.0599
 9909SOL    HW230668   0.306   1.602   1.701 -1.3170 -0.3451  1.7705
 9910SOL     OW30669   5.049   5.635   2.196 -0.3888 -0.3392  0.5817
 9910SOL    HW130670   5.129   5.618   2.146 -0.3461  2.6720 -0.5829
 9910SOL    HW230671   5.080   5.653   2.285 -0.0318 -1.3300  0.6752
 9911SOL     OW30672   5.035   0.415   4.581  0.3513  0.0035  0.2428
 9911SOL    HW130673   5.095   0.341   4.586  0.0532 -0.1933  0.9604
 9911SOL    HW230674   4.953   0.382   4.617 -0.3694  0.1068 -1.2245
 9912SOL     OW30675   5.940   5.213   1.546 -0.2267  0.6684 -0.0799
 9912SOL    HW130676   5.943   5.307   1.527 -0.3579  0.6391 -0.2475
 9912SOL    HW230677   5.862   5.182   1.501 -0.2386  0.4961  0.0595
 9913SOL     OW30678   5.136   1.233   1.010  0.8651 -0.5002  0.0171
 9913SOL    HW130679   5.167   1.315   0.973  1.4236 -0.7189  0.0008
 9913SOL    HW230680   5.061   1.258   1.064  1.6046  0.1394  0.7615
 9914SOL     OW30681   2.398   0.036   6.558 -0.3674 -0.4265 -0.5433
 9914SOL    HW130682   2.477   0.070   6.517  0.7060 -1.9957  0.1196
 9914SOL    HW230683   2.375   0.102   6.624  1.1739 -0.5495  0.1658
 9915SOL     OW30684   6.687   4.941   2.226  0.1410 -0.1380  0.0667
 9915SOL    HW130685   6.704   4.893   2.307  0.5836  0.9059  0.6010
 9915SOL    HW230686   6.642   5.020   2.253 -1.4209 -0.6458 -0.9041
 9916SOL     OW30687   1.276   4.517   4.217  0.4255  0.7872  0.4763
 9916SOL    HW130688   1.372   4.524   4.216  0.7676 -2.2793 -1.3760
 9916SOL    HW230689   1.259   4.432   4.259 -1.5560  1.5345  1.2837
 9917SOL     OW30690   4.003   6.863   3.521 -0.4425  0.2981 -0.0293
 9917SOL    HW130691   4.083   6.849   3.573  0.0401 -0.2331 -0.8806
 9917SOL    HW230692   4.035   6.871   3.431 -1.3219  0.5274 -0.3263
 9918SOL     OW30693   2.073   2.032   2.059  0.3636  0.7279  0.4861
 9918SOL    HW130694   2.079   1.938   2.075  1.2525  0.7891  0.5656
 9918SOL    HW230695   1.981   2.047   2.036  0.6463 -0.5239 -1.7996
 9919SOL     OW30696   3.459   4.537   0.274 -0.4637 -0.0880  0.2182
 9919SOL    HW130697   3.391   4.559   0.338 -0.8143  1.2290 -0.5702
 9919SOL    HW230698   3.441   4.594   0.199 -1.0053 -2.6732 -1.7365
 9920SOL     OW30699   6.582   3.930   5.888 -0.0996  0.0896  0.0493
 9920SOL    HW130700   6.517   3.863   5.867 -0.3807  0.6528 -0.9679
 9920SOL    HW230701   6.532   3.998   5.933  0.1018 -0.1930  0.7042
 9921SOL     OW30702   5.433   4.399   0.281 -0.2440 -0.3332  0.3502
 9921SOL    HW130703   5.434   4.353   0.365 -0.0662  0.5879  0.8574
 9921SOL    HW230704   5.449   4.491   0.303 -0.0667 -0.0988 -0.6997
 9922SOL     OW30705   0.420   4.292   6.447 -0.0800  0.0147  0.2315
 9922SOL    HW130706   0.487   4.324   6.386 -0.3244 -2.9281 -1.8197
 9922SOL    HW230707   0.458   4.213   6.485 -1.7036 -0.7192  0.4008
 9923SOL     OW30708   0.539   6.980   3.369 -0.1236  0.6226  0.9223
 9923SOL    HW130709   0.490   7.063   3.374 -0.5205  0.4362  0.1960
 9923SOL    HW230710   0.475   6.913   3.394 -0.3032  0.3612 -0.1957
 9924SOL     OW30711   6.877   7.208   5.991 -0.2487  0.0237 -1.0120
 9924SOL    HW130712   6.911   7.167   6.070 -0.4351  0.8344 -0.5038
 9924SOL    HW230713   6.798   7.159   5.969  1.8438 -2.8062 -2.9865
 9925SOL     OW30714   6.311   3.280   6.029 -0.4608 -0.1129 -0.2720
 9925SOL    HW130715   6.216   3.267   6.021 -0.8895  1.8357  1.1459
 9925SOL    HW230716   6.331   3.260   6.120 -0.1943  2.9196  0.4454
 9926SOL     OW30717   6.896   3.597   1.803  0.2284 -0.0451  0.3496
 9926SOL    HW130718   6.913   3.647   1.882  1.7742  0.8526 -0.5104
 9926SOL    HW230719   6.833   3.650   1.753 -0.4058 -0.4021  0.7533
 9927SOL     OW30720   1.956   5.834   1.088 -0.0079 -0.0353 -0.0100
 9927SOL    HW130721   1.966   5.749   1.043  0.0037 -0.8270  1.4456
 9927SOL    HW230722   2.045   5.865   1.100 -0.0339  0.6926 -1.4036
 9928SOL     OW30723   7.214   3.704   3.968  1.0187  0.0427  0.0457
 9928SOL    HW130724   7.122   3.725   3.986  0.5511 -1.9746  0.3219
 9928SOL    HW230725   7.225   3.719   3.875  0.8783  1.8197  0.2840
 9929SOL     OW30726   6.122   6.272   4.610  0.1760 -0.5236  0.5626
 9929SOL    HW130727   6.101   6.205   4.675 -0.7855 -0.5800  0.2026
 9929SOL    HW230728   6.160   6.344   4.660  0.3315 -0.9555  1.0663
 9930SOL     OW30729   1.042   7.127   3.967 -0.0485 -0.3041 -0.3478
 9930SOL    HW130730   1.014   7.048   4.013 -2.6399  0.6756 -0.0476
 9930SOL    HW230731   1.085   7.180   4.034  1.3107 -1.2343 -0.4510
 9931SOL     OW30732   2.024   6.603   6.249  0.3127 -0.0717 -0.2376
 9931SOL    HW130733   2.029   6.688   6.292  0.4736  0.3307 -1.0384
 9931SOL    HW230734   1.944   6.563   6.284 -0.8025  1.1902 -1.2417
 9932SOL     OW30735   0.687   0.349   3.654  0.6398  0.4558  0.1891
 9932SOL    HW130736   0.732   0.408   3.715  1.8981 -0.6118  0.3347
 9932SOL    HW230737   0.599   0.384   3.648  1.1073  1.8445  0.9463
 9933SOL     OW30738   0.400   1.476   6.520 -0.0228  0.3986  0.1723
 9933SOL    HW130739   0.458   1.550   6.542 -0.3039  0.8311 -0.5168
 9933SOL    HW230740   0.438   1.402   6.567  1.3060  0.5951 -0.5422
 9934SOL     OW30741   7.276   5.592   7.097  0.3723 -0.2959  0.0421
 9934SOL    HW130742   7.297   5.623   7.185  0.6582 -1.8784  0.5638
 9934SOL    HW230743   7.360   5.592   7.051  0.3257 -0.0369 -0.0437
 9935SOL     OW30744   2.588   5.335   4.638  0.4622 -0.5599  0.6141
 9935SOL    HW130745   2.663   5.283   4.667  0.0837 -1.8239 -0.5868
 9935SOL    HW230746   2.523   5.324   4.708  1.3743  0.6034  1.6962
 9936SOL     OW30747   1.657   4.622   0.820  0.3289  0.3474  0.5081
 9936SOL    HW130748   1.629   4.672   0.897  0.8769 -0.2404  1.1139
 9936SOL    HW230749   1.753   4.624   0.824  0.4390  2.3356 -1.5202
 9937SOL     OW30750   1.189   7.240   6.206  0.0848  0.0011  0.0166
 9937SOL    HW130751   1.102   7.217   6.174 -0.5980  1.6523  0.5714
 9937SOL    HW230752   1.178   7.254   6.300  1.1108 -0.4443  0.2223
 9938SOL     OW30753   3.629   2.558   1.794 -0.3986  0.3575  0.2088
 9938SOL    HW130754   3.622   2.653   1.803 -0.9165  0.1517  2.8680
 9938SOL    HW230755   3.539   2.526   1.802 -0.2376 -0.3759 -0.7095
 9939SOL     OW30756   2.363   1.452   2.220 -0.2732  0.0477  0.4869
 9939SOL    HW130757   2.332   1.484   2.305 -0.0523  1.6210  0.0149
 9939SOL    HW230758   2.458   1.451   2.229 -0.1698  1.6777 -0.2033
 9940SOL     OW30759   3.081   6.146   2.423  0.3673 -0.0265  0.3096
 9940SOL    HW130760   3.055   6.119   2.511 -1.2155  0.8711  0.1572
 9940SOL    HW230761   3.173   6.173   2.433  0.6203 -1.1555  1.3821
 9941SOL     OW30762   1.130   7.276   1.008 -0.0032 -0.0296 -0.4579
 9941SOL    HW130763   1.147   7.181   1.010  2.0814  0.2939  1.0100
 9941SOL    HW230764   1.083   7.293   1.089  0.7481  0.3377 -0.0888
 9942SOL     OW30765   2.257   6.457   6.737  0.1337  0.0808  0.2150
 9942SOL    HW130766   2.207   6.455   6.818 -1.0665  0.5147 -0.4855
 9942SOL    HW230767   2.225   6.382   6.687 -2.3218  2.1435 -1.6075
 9943SOL     OW30768   7.202   3.779   5.519 -0.0232  0.1096 -0.2292
 9943SOL    HW130769   7.154   3.725   5.581  0.1728  0.9020  0.6448
 9943SOL    HW230770   7.146   3.784   5.442 -0.0874 -1.2274 -0.2916
 9944SOL     OW30771   3.152   6.915   6.854  0.1701  0.0314 -0.0874
 9944SOL    HW130772   3.085   6.866   6.806  0.5726  1.0694 -1.7955
 9944SOL    HW230773   3.224   6.925   6.792  2.0697 -1.2472  1.7684
 9945SOL     OW30774   0.835   7.020   4.337  0.0797  0.2939 -0.4891
 9945SOL    HW130775   0.886   7.071   4.400 -1.4522  0.4812  0.6826
 9945SOL    HW230776   0.820   6.936   4.381  0.3582 -0.1877 -1.2964
 9946SOL     OW30777   3.591   0.172   2.361 -0.1381  0.2306 -0.0853
 9946SOL    HW130778   3.558   0.261   2.365 -1.3734 -0.2579  1.3763
 9946SOL    HW230779   3.678   0.180   2.322 -0.5646  1.9544 -0.7516
 9947SOL     OW30780   4.413   6.878   2.909  0.1217 -0.4810 -0.0463
 9947SOL    HW130781   4.411   6.808   2.973  2.4793 -0.1304  0.4945
 9947SOL    HW230782   4.494   6.864   2.860 -0.6688  0.3643 -1.7176
 9948SOL     OW30783   2.087   0.496   0.092 -0.4850 -0.5157 -0.2470
 9948SOL    HW130784   2.057   0.405   0.097  1.0887 -1.1894 -2.0410
 9948SOL    HW230785   2.038   0.534   0.019 -0.6245 -0.1182  0.0491
 9949SOL     OW30786   0.945   3.940   4.803  0.1323  0.2084  0.3127
 9949SOL    HW130787   0.999   3.988   4.741  1.2313 -0.7530  0.4922
 9949SOL    HW230788   0.891   4.007   4.846  0.0227  0.9853 -1.0002
 9950SOL     OW30789   4.110   4.441   7.334 -0.1094 -0.3912  0.5400
 9950SOL    HW130790   4.065   4.469   7.414  1.8402 -0.5562  1.7750
 9950SOL    HW230791   4.042   4.401   7.281 -1.3475 -1.0727  2.5235
 9951SOL     OW30792   4.489   0.497   1.144 -0.0546  0.7704 -0.2560
 9951SOL    HW130793   4.437   0.514   1.065 -0.1592  0.9700 -0.1460
 9951SOL    HW230794   4.514   0.405   1.137 -0.4688  0.6555 -0.2834
 9952SOL     OW30795   4.101   0.253   1.084  0.5834  0.3050  0.1355
 9952SOL    HW130796   4.119   0.204   1.165 -1.7892 -2.2736 -0.7514
 9952SOL    HW230797   4.047   0.326   1.112  0.1401 -0.3213  0.9500
 9953SOL     OW30798   4.306   6.133   4.529  0.0209  0.1034 -0.2343
 9953SOL    HW130799   4.396   6.145   4.560  0.4784  0.0403 -1.4757
 9953SOL    HW230800   4.302   6.181   4.446 -0.1179 -2.4000 -1.8158
 9954SOL     OW30801   4.703   5.686   2.406  1.3750 -0.3892 -0.0951
 9954SOL    HW130802   4.652   5.661   2.483  0.4550 -0.3554 -0.6859
 9954SOL    HW230803   4.649   5.662   2.332  0.8165  2.4144 -0.7303
 9955SOL     OW30804   3.494   6.234   6.903 -0.0698 -0.2837 -0.1438
 9955SOL    HW130805   3.410   6.235   6.857  0.1651  1.9606 -0.6349
 9955SOL    HW230806   3.557   6.208   6.835 -0.3355 -1.9944  0.2319
 9956SOL     OW30807   2.885   1.306   5.965 -0.0136  0.1719  0.4988
 9956SOL    HW130808   2.914   1.273   6.051 -1.2186 -3.1709 -0.2084
 9956SOL    HW230809   2.924   1.245   5.902 -0.7617  1.3578 -1.1908
 9957SOL     OW30810   4.507   0.175   7.016 -0.3614  0.5044 -0.3060
 9957SOL    HW130811   4.511   0.252   7.072 -0.3070  0.3590 -0.1109
 9957SOL    HW230812   4.437   0.121   7.053 -0.4552  0.4964 -0.4899
 9958SOL     OW30813   4.635   4.493   0.780  0.1719 -0.3459 -0.0841
 9958SOL    HW130814   4.565   4.545   0.740  0.8525 -0.1581 -1.0800
 9958SOL    HW230815   4.697   4.559   0.812  0.2979 -0.5211  0.0297
 9959SOL     OW30816   5.903   2.749   4.001 -0.0892  0.4545  0.3291
 9959SOL    HW130817   5.934   2.690   3.932  0.1383  1.7136 -0.6747
 9959SOL    HW230818   5.874   2.690   4.071  0.3962 -0.8388 -0.5149
 9960SOL     OW30819   7.413   6.543   4.480 -0.1790  0.1325 -0.6858
 9960SOL    HW130820   7.495   6.591   4.489 -1.6257  3.0311 -1.6327
 9960SOL    HW230821   7.435   6.466   4.428  1.8350  1.1590 -1.4639
 9961SOL     OW30822   5.269   2.033   4.216 -0.1124  0.3214 -0.4343
 9961SOL    HW130823   5.281   2.121   4.251 -0.9232  0.7787 -1.2608
 9961SOL    HW230824   5.188   2.037   4.166  0.2750 -0.6648 -1.1964
 9962SOL     OW30825   0.476   2.771   5.221 -0.1783  0.2472  0.1708
 9962SOL    HW130826   0.467   2.825   5.143 -0.2987 -0.3253 -0.2229
 9962SOL    HW230827   0.388   2.736   5.237  0.2672 -1.3609 -0.7255
 9963SOL     OW30828   3.271   3.256   1.831 -0.4597 -0.6696 -0.0483
 9963SOL    HW130829   3.248   3.222   1.917 -2.7497 -0.7765 -0.6439
 9963SOL    HW230830   3.281   3.350   1.844 -0.4111 -0.7362  0.4062
 9964SOL     OW30831   6.605   5.459   3.896  0.6115  0.3241 -0.2302
 9964SOL    HW130832   6.623   5.517   3.970 -2.8769  0.4074  0.7198
 9964SOL    HW230833   6.590   5.373   3.934 -1.8794  0.4970 -0.6267
 9965SOL     OW30834   1.200   4.526   5.928 -0.3163  0.1581 -0.0054
 9965SOL    HW130835   1.285   4.562   5.954 -0.2659  1.8160 -2.2260
 9965SOL    HW230836   1.213   4.494   5.839 -1.9771  0.3493 -0.3575
 9966SOL     OW30837   1.496   3.487   1.174  0.1688  0.0560  0.2202
 9966SOL    HW130838   1.533   3.551   1.114  0.4094  1.9889  2.2661
 9966SOL    HW230839   1.561   3.416   1.177  0.8564  0.6294 -0.6674
 9967SOL     OW30840   4.807   2.146   5.471 -0.0311 -0.2097 -0.1239
 9967SOL    HW130841   4.880   2.119   5.416 -0.7447  0.7338 -1.6179
 9967SOL    HW230842   4.845   2.209   5.533  0.4205  0.4324 -1.0233
 9968SOL     OW30843   2.820   1.477   6.495 -0.0139 -0.1932  0.0379
 9968SOL    HW130844   2.774   1.423   6.431 -0.6584  0.6420 -0.2337
 9968SOL    HW230845   2.752   1.533   6.532  0.6472  0.5267  0.2002
 9969SOL     OW30846   4.631   5.994   0.465 -0.3349 -0.0725  0.2576
 9969SOL    HW130847   4.551   6.045   0.464 -0.9733 -1.0596 -1.0967
 9969SOL    HW230848   4.635   5.952   0.380  1.8165  0.2114  0.1530
 9970SOL     OW30849   6.565   6.032   0.592 -0.0259  0.0082 -0.1007
 9970SOL    HW130850   6.600   6.118   0.617 -0.7173  0.3540 -0.2907
 9970SOL    HW230851   6.573   6.031   0.497 -1.0388  0.3271 -0.2000
 9971SOL     OW30852   1.817   2.793   0.537 -0.3387  0.2365  0.5025
 9971SOL    HW130853   1.802   2.724   0.472  1.8480 -0.1056  0.2839
 9971SOL    HW230854   1.897   2.767   0.582  1.0004  2.9589 -0.0928
 9972SOL     OW30855   4.862   0.837   1.899  0.4284  0.3527  0.0409
 9972SOL    HW130856   4.853   0.772   1.829  1.2466  1.6874 -1.3813
 9972SOL    HW230857   4.774   0.875   1.908  0.0594 -0.5909  0.5485
 9973SOL     OW30858   4.316   4.358   5.978 -0.0664 -0.1595 -0.6866
 9973SOL    HW130859   4.392   4.301   5.990 -1.2366 -1.5988  0.2900
 9973SOL    HW230860   4.332   4.432   6.036  0.4815 -0.5619 -0.3142
 9974SOL     OW30861   2.383   2.265   5.246 -0.0067  0.3216 -0.0413
 9974SOL    HW130862   2.288   2.259   5.249 -0.0303 -0.4860 -1.2413
 9974SOL    HW230863   2.407   2.212   5.169  1.6243 -2.1995  2.0400
 9975SOL     OW30864   0.960   5.841   3.077 -0.0370 -0.4751 -0.0603
 9975SOL    HW130865   0.937   5.883   3.159 -0.9097 -1.5335  0.2622
 9975SOL    HW230866   1.014   5.766   3.103 -0.9034 -1.2302 -0.3630
 9976SOL     OW30867   1.821   3.316   1.830 -0.0229  0.1387  0.1573
 9976SOL    HW130868   1.739   3.273   1.806 -0.1640 -0.0161  0.8916
 9976SOL    HW230869   1.889   3.265   1.786 -0.1099 -1.3962  1.6976
 9977SOL     OW30870   4.485   0.620   5.199 -0.4666 -0.0804 -0.1686
 9977SOL    HW130871   4.478   0.714   5.214  0.2664 -0.0662  0.1689
 9977SOL    HW230872   4.465   0.581   5.284  0.4399 -0.1560  0.0300
 9978SOL     OW30873   6.487   2.347   1.845 -0.7149 -0.8228  0.4579
 9978SOL    HW130874   6.497   2.423   1.902  0.1145 -1.0278  0.6045
 9978SOL    HW230875   6.404   2.361   1.799  0.8216  1.7827 -1.8501
 9979SOL     OW30876   6.078   3.771   5.247 -0.2231 -0.8863 -1.0903
 9979SOL    HW130877   6.141   3.716   5.294 -0.2433 -0.9381 -1.1245
 9979SOL    HW230878   5.995   3.757   5.292  0.2527  1.1448  0.6512
 9980SOL     OW30879   5.705   5.812   5.572 -0.1783  0.5196 -0.2744
 9980SOL    HW130880   5.794   5.826   5.602 -0.0863 -0.3033 -0.1334
 9980SOL    HW230881   5.653   5.877   5.619  0.1202 -0.0450  0.8796
 9981SOL     OW30882   5.674   5.429   3.015 -0.9830 -0.0897  0.0199
 9981SOL    HW130883   5.699   5.337   3.022  0.4113  0.3421  1.1028
 9981SOL    HW230884   5.728   5.474   3.080 -1.5816  1.5135 -0.5402
 9982SOL     OW30885   4.195   5.312   5.757 -0.5733 -0.1021 -0.1322
 9982SOL    HW130886   4.159   5.334   5.672 -1.4881 -0.3276  0.1860
 9982SOL    HW230887   4.213   5.397   5.798  0.6661  0.0095 -0.8570
 9983SOL     OW30888   5.220   0.703   4.518 -0.4269 -0.2962 -0.0643
 9983SOL    HW130889   5.293   0.712   4.580 -1.2132 -1.7858  1.1526
 9983SOL    HW230890   5.241   0.764   4.447  1.7799 -0.3447  0.4621
 9984SOL     OW30891   4.631   2.903   4.579 -0.0150 -0.3240 -0.0613
 9984SOL    HW130892   4.698   2.971   4.587 -0.3905  0.0557 -0.1370
 9984SOL    HW230893   4.548   2.950   4.580 -0.2375 -0.6307 -1.8881
 9985SOL     OW30894   4.849   0.384   2.020  0.3758 -0.3884  0.2475
 9985SOL    HW130895   4.756   0.404   2.011  0.6105  1.0750  0.6864
 9985SOL    HW230896   4.871   0.334   1.941 -1.0813 -2.0770  0.8717
 9986SOL     OW30897   4.034   1.032   7.052 -0.1774  0.1917 -0.1201
 9986SOL    HW130898   4.035   0.977   7.130  0.7210  1.7771  1.0557
 9986SOL    HW230899   3.995   0.978   6.984  0.4692 -1.7943  1.0217
 9987SOL     OW30900   2.324   1.815   1.252 -0.1701  0.1493 -0.2668
 9987SOL    HW130901   2.406   1.807   1.203 -0.7887  0.4026 -1.3652
 9987SOL    HW230902   2.269   1.872   1.199 -0.6806  0.8718  0.9923
 9988SOL     OW30903   2.713   6.082   4.588 -0.1531 -0.1328 -0.6657
 9988SOL    HW130904   2.697   6.014   4.522  1.2040  1.0324 -2.2933
 9988SOL    HW230905   2.795   6.123   4.560 -1.4582  2.9161 -0.4094
 9989SOL     OW30906   4.559   7.044   2.689  0.5274 -0.1451 -0.0498
 9989SOL    HW130907   4.597   7.078   2.608  0.1435  2.4169  0.7327
 9989SOL    HW230908   4.466   7.033   2.670  0.8449 -2.0553 -0.6589
 9990SOL     OW30909   2.111   2.479   5.508 -0.0236  0.3625 -0.5538
 9990SOL    HW130910   2.028   2.477   5.555  0.3791 -2.3543  0.2432
 9990SOL    HW230911   2.087   2.495   5.417 -1.3341  0.3906 -0.2183
 9991SOL     OW30912   3.373   7.160   1.663 -0.3767 -0.0041  0.0586
 9991SOL    HW130913   3.379   7.159   1.568  0.2438 -3.0380  0.0171
 9991SOL    HW230914   3.279   7.162   1.681 -0.4944  0.8044 -0.5754
 9992SOL     OW30915   0.078   1.807   4.363 -0.3803 -0.5600  0.1376
 9992SOL    HW130916  -0.010   1.795   4.326 -0.0655  0.2290 -0.9253
 9992SOL    HW230917   0.134   1.824   4.287  0.6434 -0.7433  0.8251
 9993SOL     OW30918   1.108   0.338   6.885 -0.6142 -0.4295  0.2396
 9993SOL    HW130919   1.099   0.433   6.886  1.8068 -0.1522  0.2555
 9993SOL    HW230920   1.186   0.322   6.832 -1.5749 -2.4946 -0.6593
 9994SOL     OW30921   4.947   5.004   0.225 -0.3423 -0.2603 -0.3206
 9994SOL    HW130922   5.006   5.078   0.239 -2.5544  1.6572 -0.3988
 9994SOL    HW230923   4.933   5.002   0.130 -0.0022 -1.0215 -0.3553
 9995SOL     OW30924   3.247   3.325   6.761  0.8483 -0.3829 -0.3922
 9995SOL    HW130925   3.216   3.254   6.816 -0.8102 -0.4852 -1.4030
 9995SOL    HW230926   3.328   3.292   6.722 -0.2389 -1.9984 -1.3679
 9996SOL     OW30927   5.560   0.547   2.054 -0.2087 -0.3234  0.3037
 9996SOL    HW130928   5.599   0.557   2.141  1.3078  1.7313 -0.5288
 9996SOL    HW230929   5.466   0.550   2.070  0.0384  1.5405  1.7704
 9997SOL     OW30930   0.074   2.270   1.214 -0.4575 -0.5343 -0.0566
 9997SOL    HW130931   0.008   2.222   1.163 -0.9319 -0.2140  0.2458
 9997SOL    HW230932   0.026   2.301   1.291 -0.1514  0.4364 -0.2558
 9998SOL     OW30933   3.228   0.388   2.343  0.5342  0.6517 -0.1585
 9998SOL    HW130934   3.180   0.467   2.319 -1.5041 -0.5030 -0.1578
 9998SOL    HW230935   3.192   0.364   2.429  2.0246  0.3782  0.4271
 9999SOL     OW30936   0.260   4.758   7.230 -0.4453 -0.0605  0.7114
 9999SOL    HW130937   0.258   4.838   7.178 -1.4736  0.4114  1.4489
 9999SOL    HW230938   0.284   4.690   7.168 -1.4837  0.5047 -0.3448
10000SOL     OW30939   4.655   2.489   7.343 -0.1260  0.5486  0.4769
10000SOL    HW130940   4.731   2.530   7.384 -1.0225 -0.0939  3.0348
10000SOL    HW230941   4.580   2.543   7.371 -0.9257 -0.7148  0.8814
10001SOL     OW30942   6.778   3.859   4.593 -0.0407 -0.5450  0.5096
10001SOL    HW130943   6.773   3.789   4.528  0.5969 -0.6462  0.5657
10001SOL    HW230944   6.744   3.818   4.673  1.0887 -1.0536  0.7479
10002SOL     OW30945   6.670   1.214   3.667 -0.1837  0.1313  0.6515
10002SOL    HW130946   6.727   1.157   3.615  2.2877 -1.0333  4.2277
10002SOL    HW230947   6.700   1.303   3.646 -0.0952 -0.2090 -0.7535
10003SOL     OW30948   6.294   5.889   7.355 -0.3598 -0.1528  0.1417
10003SOL    HW130949   6.279   5.896   7.449 -1.1013  0.1455  0.0092
10003SOL    HW230950   6.209   5.907   7.316  0.2186  1.0177 -0.6400
10004SOL     OW30951   4.476   4.917   7.092  0.0395  0.2172 -0.0593
10004SOL    HW130952   4.530   4.846   7.059 -1.1598 -1.1690  0.8359
10004SOL    HW230953   4.529   4.958   7.160  0.4037 -0.3950  0.0311
10005SOL     OW30954   3.129   0.181   2.204 -0.4768  0.3117 -0.0797
10005SOL    HW130955   3.183   0.251   2.240 -0.6432 -0.6706  2.2865
10005SOL    HW230956   3.057   0.226   2.159  0.1635  1.6290  0.1880
10006SOL     OW30957   3.402   1.045   2.356 -0.0907  0.0270  0.4157
10006SOL    HW130958   3.468   1.060   2.288 -0.4208  0.9315  0.2915
10006SOL    HW230959   3.394   1.128   2.401 -2.1957  0.3835 -0.4949
10007SOL     OW30960   0.076   0.226   3.129  0.0454 -0.3047  0.5550
10007SOL    HW130961   0.165   0.198   3.104  0.2489  0.2413  0.6592
10007SOL    HW230962   0.018   0.174   3.073  0.4799  0.6446 -0.8247
10008SOL     OW30963   5.469   7.409   3.728  0.2204 -0.5667 -0.2650
10008SOL    HW130964   5.398   7.458   3.769  0.3536 -0.2971 -0.3611
10008SOL    HW230965   5.430   7.372   3.649 -0.0054 -0.9925  0.0359
10009SOL     OW30966   3.552   4.371   2.273 -0.1334  0.2684 -0.2749
10009SOL    HW130967   3.598   4.444   2.315  1.0909 -1.0759  0.8324
10009SOL    HW230968   3.600   4.293   2.301 -2.5655 -1.1586  0.2058
10010SOL     OW30969   7.030   5.097   5.556  0.1930  0.1367  0.1503
10010SOL    HW130970   7.062   5.187   5.565  0.2953 -0.0353  1.8595
10010SOL    HW230971   6.936   5.104   5.569  0.3224 -0.1040  1.3499
10011SOL     OW30972   5.316   5.853   5.689  0.3672  0.0479 -0.2270
10011SOL    HW130973   5.332   5.940   5.652  0.6379 -0.4947 -1.4352
10011SOL    HW230974   5.393   5.802   5.664  0.3280 -0.4871  0.6811
10012SOL     OW30975   3.611   2.893   4.082  0.0202  0.0410 -0.4248
10012SOL    HW130976   3.617   2.922   3.991 -1.5224 -1.0596 -0.9224
10012SOL    HW230977   3.531   2.840   4.085  1.1926 -1.7571  1.0648
10013SOL     OW30978   2.664   7.234   5.109 -0.6238 -0.1142  0.3730
10013SOL    HW130979   2.721   7.222   5.186  0.7697  1.4005 -0.3473
10013SOL    HW230980   2.649   7.145   5.077  1.5902 -0.6002  0.4722
10014SOL     OW30981   0.926   4.429   2.961  0.4239 -0.4710 -0.5708
10014SOL    HW130982   0.872   4.500   2.926  0.5949  0.0427  0.1842
10014SOL    HW230983   0.944   4.455   3.051  1.4559 -0.9067 -0.6365
10015SOL     OW30984   2.354   7.370   1.657  0.1786 -0.5106 -0.3030
10015SOL    HW130985   2.274   7.417   1.634  0.6092  0.0177 -0.7700
10015SOL    HW230986   2.388   7.338   1.573 -0.5267 -2.3939  0.0719
10016SOL     OW30987   3.629   2.706   3.223  0.3735  0.0076 -0.2429
10016SOL    HW130988   3.687   2.642   3.265 -0.7196 -2.0073 -1.6093
10016SOL    HW230989   3.644   2.787   3.272  0.9499 -1.5457  2.4176
10017SOL     OW30990   1.479   0.416   1.338  0.3479  0.1920 -0.7677
10017SOL    HW130991   1.465   0.339   1.284 -2.0198  0.6425 -0.9151
10017SOL    HW230992   1.442   0.393   1.423  0.8541  0.7106 -0.3944
10018SOL     OW30993   0.713   7.016   5.409  0.3448  0.4663 -0.5499
10018SOL    HW130994   0.754   7.019   5.496  3.5096 -1.5282 -1.8219
10018SOL    HW230995   0.659   6.937   5.411  0.1824  0.5793 -0.3344
10019SOL     OW30996   6.208   4.272   6.167 -0.0780  0.5604 -0.0505
10019SOL    HW130997   6.115   4.287   6.185 -0.2584  0.8420 -1.1350
10019SOL    HW230998   6.237   4.353   6.125 -0.4231 -0.9916 -3.6350
10020SOL     OW30999   4.163   5.366   0.919 -0.3592  0.4579  0.1432
10020SOL    HW131000   4.257   5.370   0.899 -0.1575 -0.6020  0.7701
10020SOL    HW231001   4.134   5.457   0.918  0.9978  0.9475  1.3960
10021SOL     OW31002   7.049   6.499   3.930 -0.3704  0.1533  0.2288
10021SOL    HW131003   7.070   6.592   3.929  1.5056 -0.2293 -0.0083
10021SOL    HW231004   7.052   6.472   3.838 -1.7478  0.0064  0.2044
10022SOL     OW31005   4.631   6.792   5.711 -0.4068  0.4396 -0.4663
10022SOL    HW131006   4.549   6.842   5.718 -1.4134 -1.2058 -0.0577
10022SOL    HW231007   4.688   6.832   5.777 -1.4711  0.5421  0.4364
10023SOL     OW31008   7.105   6.791   3.476 -0.7819 -0.0322 -0.0789
10023SOL    HW131009   7.158   6.863   3.440 -0.9973  0.3843  0.4303
10023SOL    HW231010   7.030   6.785   3.416  0.4487 -1.4965 -1.5860
10024SOL     OW31011   4.268   5.691   0.843  0.0219  0.3822 -0.7866
10024SOL    HW131012   4.202   5.735   0.896  0.8766  0.2440  0.4373
10024SOL    HW231013   4.338   5.755   0.834  0.2511  0.1008 -1.0296
10025SOL     OW31014   0.910   3.893   0.938  0.3244  0.2148 -0.0508
10025SOL    HW131015   0.884   3.849   0.857 -0.4802 -1.0913  0.8979
10025SOL    HW231016   0.886   3.833   1.008  1.7476  0.9668  1.1450
10026SOL     OW31017   2.562   6.104   2.402 -0.1152  0.2121 -0.1264
10026SOL    HW131018   2.605   6.153   2.472 -0.1547 -0.3826  0.3226
10026SOL    HW231019   2.484   6.066   2.444  0.7323 -1.5304 -0.0392
10027SOL     OW31020   3.348   2.093   1.089  0.0240  0.2036 -0.7154
10027SOL    HW131021   3.436   2.093   1.128 -0.2628  1.4078 -0.0356
10027SOL    HW231022   3.358   2.144   1.009  0.6326 -2.3382 -2.3816
10028SOL     OW31023   1.198   2.827   4.347 -0.0845  0.0628 -0.6501
10028SOL    HW131024   1.153   2.772   4.282  0.2265 -1.1815  0.1527
10028SOL    HW231025   1.138   2.899   4.363 -1.2375 -0.8915 -0.5514
10029SOL     OW31026   2.844   3.973   0.441  0.2172  0.1991  0.6248
10029SOL    HW131027   2.823   3.942   0.529  1.2943  1.0460  1.1971
10029SOL    HW231028   2.906   4.044   0.454  1.2435 -0.3678 -0.8567
10030SOL     OW31029   0.867   4.832   7.000  0.5230 -0.2354 -0.2465
10030SOL    HW131030   0.783   4.816   6.957  0.0113 -1.0530  0.9968
10030SOL    HW231031   0.887   4.750   7.046  0.6132  0.8318  1.7555
10031SOL     OW31032   5.560   1.043   6.380 -0.0721 -0.4789 -0.0577
10031SOL    HW131033   5.488   1.018   6.322  1.3308 -1.8150 -1.3010
10031SOL    HW231034   5.595   1.123   6.341 -1.0516  0.3776  0.7506
10032SOL     OW31035   2.217   3.024   7.157 -0.1190  0.5539  0.1310
10032SOL    HW131036   2.252   3.099   7.205 -0.8710  1.0926 -0.1317
10032SOL    HW231037   2.211   2.954   7.221  1.6305  0.3639  0.1347
10033SOL     OW31038   2.351   5.552   2.397  0.0158  0.2273  0.0033
10033SOL    HW131039   2.326   5.461   2.409 -1.3505  0.5420 -0.2916
10033SOL    HW231040   2.321   5.574   2.309  0.3965  0.9304  0.0433
10034SOL     OW31041   5.503   3.475   1.405  0.1187  0.2663  0.1956
10034SOL    HW131042   5.554   3.522   1.470 -1.1624  1.1838  0.5543
10034SOL    HW231043   5.533   3.510   1.321 -0.0220  0.9093  0.4102
10035SOL     OW31044   1.405   2.921   6.606  0.6677  0.0431  0.3309
10035SOL    HW131045   1.348   2.913   6.529  1.3373 -0.5724 -0.1079
10035SOL    HW231046   1.351   2.967   6.671 -0.3455 -0.5674 -0.0638
10036SOL     OW31047   1.713   4.335   4.412  0.4139  0.3175 -0.0493
10036SOL    HW131048   1.728   4.251   4.369 -0.5046  0.0934  0.0526
10036SOL    HW231049   1.759   4.328   4.496  1.2697  0.3385 -0.5112
10037SOL     OW31050   3.611   5.482   5.966  0.1062 -0.0071  0.3189
10037SOL    HW131051   3.608   5.466   5.872 -3.4227 -2.4913  0.6797
10037SOL    HW231052   3.622   5.577   5.973 -0.6153  0.4042 -2.6442
10038SOL     OW31053   3.091   2.581   2.532 -0.3823 -0.2437  0.4373
10038SOL    HW131054   3.005   2.578   2.573 -2.1107  1.6514 -2.6964
10038SOL    HW231055   3.079   2.540   2.446  0.9827  2.5602 -1.2415
10039SOL     OW31056   2.800   5.514   4.209  0.5049 -0.0026  0.2155
10039SOL    HW131057   2.843   5.517   4.294 -1.7385  0.7653  1.3980
10039SOL    HW231058   2.814   5.424   4.178 -0.4324 -0.9918  2.4206
10040SOL     OW31059   5.630   0.684   4.918  0.2663  0.0101  0.2607
10040SOL    HW131060   5.619   0.773   4.951  0.6886 -0.4285  1.6832
10040SOL    HW231061   5.575   0.680   4.840  1.6332  2.0375 -0.8934
10041SOL     OW31062   6.843   4.465   6.446  0.5295 -0.4144  0.5001
10041SOL    HW131063   6.765   4.410   6.447 -1.0151  1.6868  0.6797
10041SOL    HW231064   6.850   4.498   6.535  0.2048  1.2949 -0.0872
10042SOL     OW31065   3.054   3.923   3.019  0.2108  0.1085 -0.7364
10042SOL    HW131066   3.011   4.007   3.036 -0.6859 -0.3306 -0.7647
10042SOL    HW231067   3.031   3.902   2.928  0.9883  0.1506 -0.9465
10043SOL     OW31068   6.441   0.483   6.213  0.3474  0.2294 -0.3799
10043SOL    HW131069   6.470   0.546   6.279  0.7960 -0.9161  0.5620
10043SOL    HW231070   6.520   0.434   6.190  0.3047  0.9207 -2.1681
10044SOL     OW31071   0.843   4.856   2.306 -0.3610 -0.0693 -0.2923
10044SOL    HW131072   0.860   4.863   2.212 -0.6111 -0.8842 -0.4042
10044SOL    HW231073   0.776   4.789   2.313 -0.4485  0.0900  0.4649
10045SOL     OW31074   3.663   4.956   4.714 -0.3773 -0.1889  0.7244
10045SOL    HW131075   3.680   4.865   4.737 -1.1078  0.0309  2.2288
10045SOL    HW231076   3.727   5.006   4.764  0.5292  0.1231 -0.6759
10046SOL     OW31077   4.506   0.439   4.090 -0.3209  0.0254 -0.3164
10046SOL    HW131078   4.428   0.430   4.144  0.8253 -1.5482  1.1791
10046SOL    HW231079   4.501   0.366   4.029  0.5744 -0.8543  0.6267
10047SOL     OW31080   6.704   0.422   6.933  1.1006 -0.2514 -0.0307
10047SOL    HW131081   6.744   0.417   7.020  0.7738  1.8215  0.2945
10047SOL    HW231082   6.657   0.339   6.924  1.1774 -0.5424  1.7396
10048SOL     OW31083   2.753   2.718   1.281 -0.0625  0.0893  0.4304
10048SOL    HW131084   2.811   2.647   1.309  1.2154  1.3958  1.2250
10048SOL    HW231085   2.807   2.773   1.224 -0.8620  0.7306  0.2579
10049SOL     OW31086   6.172   1.609   5.876  0.2634  0.0214 -0.4697
10049SOL    HW131087   6.233   1.682   5.868  1.4562 -1.0458 -1.4528
10049SOL    HW231088   6.219   1.542   5.925 -0.3081 -0.6130 -0.7567
10050SOL     OW31089   1.073   4.460   2.558 -0.1181  0.1748 -0.0774
10050SOL    HW131090   0.981   4.470   2.531 -1.0434 -1.2392  2.2088
10050SOL    HW231091   1.079   4.369   2.587  2.0372  0.2444 -0.2006
10051SOL     OW31092   5.040   2.231   1.076 -0.2713  0.2417 -0.3764
10051SOL    HW131093   5.052   2.181   1.157 -1.5503 -0.8584 -0.8157
10051SOL    HW231094   4.954   2.202   1.044 -0.2230  1.4070 -1.6021
10052SOL     OW31095   0.179   3.859   4.095 -0.2266  0.0013  0.2766
10052SOL    HW131096   0.258   3.809   4.116 -0.6322 -0.3220  1.0585
10052SOL    HW231097   0.206   3.916   4.022  0.7126 -0.1263  0.5070
10053SOL     OW31098   6.514   4.268   3.916 -0.8945 -1.0210 -0.3185
10053SOL    HW131099   6.555   4.335   3.972 -1.6622 -0.2595 -0.6307
10053SOL    HW231100   6.530   4.186   3.961  2.1802 -0.9847 -1.1115
10054SOL     OW31101   2.202   0.170   2.758 -0.3494  0.6590  0.6671
10054SOL    HW131102   2.248   0.097   2.799 -0.1837 -0.1571 -0.8932
10054SOL    HW231103   2.111   0.158   2.784 -1.2163 -2.7728 -2.9129
10055SOL     OW31104   4.864   4.563   2.591 -0.3638 -0.7694 -0.1509
10055SOL    HW131105   4.779   4.596   2.620  0.4478 -0.4985  2.1270
10055SOL    HW231106   4.847   4.527   2.504 -2.5993  0.0942 -0.1481
10056SOL     OW31107   1.574   2.788   0.856  0.1686 -0.2604  0.0096
10056SOL    HW131108   1.568   2.823   0.767 -2.0465  1.1233  0.6290
10056SOL    HW231109   1.499   2.729   0.864  0.1203 -0.0782  1.0596
10057SOL     OW31110   4.596   2.776   6.094 -0.2020 -0.9833  0.5684
10057SOL    HW131111   4.608   2.865   6.129 -0.3278 -0.6868 -0.1164
10057SOL    HW231112   4.530   2.786   6.025 -0.8188 -1.7580  1.0376
10058SOL     OW31113   6.645   4.389   5.299 -0.0605  0.1511 -0.1188
10058SOL    HW131114   6.575   4.432   5.348  0.6030  2.3704 -1.0065
10058SOL    HW231115   6.651   4.438   5.217  2.5935  0.1199 -0.0418
10059SOL     OW31116   5.295   1.838   0.971  0.4387 -0.5370  0.0644
10059SOL    HW131117   5.294   1.873   0.882 -1.0919 -1.1991 -0.2003
10059SOL    HW231118   5.211   1.795   0.981  1.2040 -1.8310  1.3022
10060SOL     OW31119   0.575   4.083   6.563 -0.0611  0.2574  0.4725
10060SOL    HW131120   0.494   4.066   6.613 -0.0018 -2.4518 -0.1818
10060SOL    HW231121   0.590   4.001   6.515  1.3998  1.7922 -1.8514
10061SOL     OW31122   5.710   6.529   6.696 -0.0823 -0.1216  0.6768
10061SOL    HW131123   5.709   6.536   6.791  2.3186 -0.3168  0.7734
10061SOL    HW231124   5.794   6.488   6.675  0.6051  2.1331 -1.6240
10062SOL     OW31125   3.693   4.134   2.349  0.0052  0.2773  0.1740
10062SOL    HW131126   3.636   4.093   2.414 -2.0518  1.2568 -0.9131
10062SOL    HW231127   3.715   4.063   2.289 -1.4371  0.1700 -0.2764
10063SOL     OW31128   3.042   4.881   2.332 -0.1300 -0.0846  0.2231
10063SOL    HW131129   3.080   4.960   2.294 -1.5233  0.1517 -0.7516
10063SOL    HW231130   2.988   4.912   2.405  2.0414 -0.4837  2.1048
10064SOL     OW31131   1.018   2.907   3.669 -0.7730  0.1853  0.1579
10064SOL    HW131132   1.022   2.956   3.751  0.9692 -0.4772  0.5216
10064SOL    HW231133   1.074   2.956   3.608  2.3938 -2.0004  1.0036
10065SOL     OW31134   1.265   5.651   4.112  0.7097 -0.3253 -0.6373
10065SOL    HW131135   1.235   5.677   4.025  2.4308  2.2298 -0.5709
10065SOL    HW231136   1.360   5.650   4.106  0.8609 -0.2860  1.1524
10066SOL     OW31137   4.212   2.023   5.257  0.1119  0.2872  0.1411
10066SOL    HW131138   4.151   1.956   5.226 -2.2444  2.0054  0.8345
10066SOL    HW231139   4.257   2.053   5.178  1.8626 -2.5941 -0.1017
10067SOL     OW31140   6.948   0.342   7.429  0.6890  0.1429  0.6160
10067SOL    HW131141   7.018   0.406   7.421  0.9527 -0.0394  1.3383
10067SOL    HW231142   6.935   0.307   7.341  0.5052  1.2225  0.2092
10068SOL     OW31143   6.767   5.548   2.234 -0.2820 -0.0248  0.0358
10068SOL    HW131144   6.674   5.560   2.215 -0.1915  1.7863  0.5571
10068SOL    HW231145   6.807   5.530   2.149 -0.8396  1.1530 -0.4958
10069SOL     OW31146   2.383   3.454   5.314 -0.1994 -0.2422 -0.0591
10069SOL    HW131147   2.400   3.543   5.282  0.7061  0.0541  1.2039
10069SOL    HW231148   2.312   3.422   5.258 -1.2291  1.6390  0.1071
10070SOL     OW31149   7.328   5.278   4.955 -0.0257  0.8689 -0.2310
10070SOL    HW131150   7.258   5.285   4.890 -0.9829 -1.6947  0.3977
10070SOL    HW231151   7.284   5.296   5.039  0.0293 -0.6936  0.1611
10071SOL     OW31152   4.433   4.064   2.838 -0.2136  0.3523 -0.1297
10071SOL    HW131153   4.387   3.984   2.816  0.5769 -0.0567 -0.3260
10071SOL    HW231154   4.393   4.093   2.920  0.2125 -0.8286  0.5225
10072SOL     OW31155   4.880   5.774   1.086 -0.1611  0.3511 -0.3997
10072SOL    HW131156   4.838   5.690   1.066 -1.2375  1.2822 -2.2769
10072SOL    HW231157   4.840   5.836   1.026  0.1371  2.3843  1.3877
10073SOL     OW31158   6.779   3.286   0.840 -0.3499 -0.6633  0.3060
10073SOL    HW131159   6.750   3.212   0.785 -1.1902  0.3213 -0.6380
10073SOL    HW231160   6.754   3.261   0.929 -1.0551 -1.3277 -0.0644
10074SOL     OW31161   5.688   1.838   0.387 -0.4742  0.0592  0.0894
10074SOL    HW131162   5.762   1.800   0.436 -0.5386  0.1555  0.2621
10074SOL    HW231163   5.617   1.775   0.399 -1.0057  0.8685  1.5232
10075SOL     OW31164   3.176   3.585   0.416 -0.2812 -0.1171  0.0695
10075SOL    HW131165   3.233   3.545   0.481 -1.5147 -1.3859  0.4055
10075SOL    HW231166   3.091   3.594   0.459 -0.8190  0.0912 -0.9902
10076SOL     OW31167   6.978   6.236   1.713  0.3066 -0.3888 -0.2031
10076SOL    HW131168   7.021   6.210   1.631  0.3263 -0.4635 -0.1687
10076SOL    HW231169   6.900   6.182   1.717  0.5625 -0.7439  0.0777
10077SOL     OW31170   5.251   6.661   6.598 -0.5924 -0.4452  0.3781
10077SOL    HW131171   5.332   6.613   6.609  0.0998  0.8371  1.1539
10077SOL    HW231172   5.252   6.691   6.507  0.6839  1.0058  0.8163
10078SOL     OW31173   6.020   4.551   6.243  0.0360 -0.6840  0.0363
10078SOL    HW131174   6.004   4.460   6.217 -1.4044 -0.0616 -1.4089
10078SOL    HW231175   6.000   4.553   6.336  1.5226 -2.1320  0.4461
10079SOL     OW31176   6.453   1.187   0.111  0.2827  0.5874 -0.3256
10079SOL    HW131177   6.507   1.168   0.188  0.5211  0.2232 -0.5817
10079SOL    HW231178   6.425   1.278   0.123  1.0659  0.8216 -0.2605
10080SOL     OW31179   1.674   6.358   2.615  0.2263 -0.6909  0.1499
10080SOL    HW131180   1.755   6.377   2.567 -0.6803  1.1771 -0.7593
10080SOL    HW231181   1.629   6.292   2.562  0.8172 -1.2480  0.3205
10081SOL     OW31182   5.578   6.056   3.278 -0.0601  0.6452  0.1355
10081SOL    HW131183   5.484   6.076   3.283 -0.9615 -2.9119  0.9492
10081SOL    HW231184   5.602   6.034   3.368  1.8803  2.4131  0.1123
10082SOL     OW31185   4.108   4.794   5.046 -0.1147  0.4216  0.0210
10082SOL    HW131186   4.180   4.826   5.100  0.0287  1.1323 -0.5807
10082SOL    HW231187   4.132   4.704   5.024 -0.3879 -0.0418  1.4998
10083SOL     OW31188   6.174   3.381   0.404 -0.4386  0.1264  0.2246
10083SOL    HW131189   6.267   3.368   0.422 -0.5243  0.9941  1.4668
10083SOL    HW231190   6.172   3.438   0.327  0.0763  0.4310  0.4340
10084SOL     OW31191   4.794   6.794   3.052  0.1541  0.3622  0.2608
10084SOL    HW131192   4.812   6.880   3.088  0.1259 -0.2962  1.9759
10084SOL    HW231193   4.769   6.741   3.128  0.5898 -1.2635 -0.6631
10085SOL     OW31194   0.263   5.217   4.713  0.0271  0.1167 -0.3503
10085SOL    HW131195   0.333   5.268   4.672  1.3496 -2.3593 -1.4451
10085SOL    HW231196   0.226   5.166   4.641 -3.2112  1.5610  0.1523
10086SOL     OW31197   1.150   2.754   3.090 -0.3485 -0.1619  0.0820
10086SOL    HW131198   1.058   2.752   3.116 -0.3692 -0.9004 -0.0207
10086SOL    HW231199   1.163   2.673   3.041 -0.1856  0.9414 -1.7952
10087SOL     OW31200   1.908   0.187   4.762  0.2136  0.0582  0.9379
10087SOL    HW131201   1.966   0.257   4.732 -0.5835 -0.1600 -1.2437
10087SOL    HW231202   1.945   0.107   4.725 -2.0085  0.0365 -1.4583
10088SOL     OW31203   1.118   6.270   1.495  0.8634  0.4291 -0.7007
10088SOL    HW131204   1.158   6.244   1.411 -0.5890 -1.4876 -0.8744
10088SOL    HW231205   1.176   6.231   1.561  0.0865 -1.1990 -0.9265
10089SOL     OW31206   5.298   7.318   3.510  0.8253  0.4083 -0.1516
10089SOL    HW131207   5.343   7.234   3.515  1.5052  0.7172 -0.7574
10089SOL    HW231208   5.240   7.319   3.586  0.8882 -0.5565 -0.0803
10090SOL     OW31209   3.260   6.867   1.546  0.1000  0.2270 -0.3249
10090SOL    HW131210   3.267   6.959   1.518 -0.8703  0.4553  0.1344
10090SOL    HW231211   3.350   6.838   1.555  0.4252  1.0437 -0.7884
10091SOL     OW31212   2.634   4.537   5.875  0.8189 -0.2747  0.5162
10091SOL    HW131213   2.645   4.629   5.896  1.8633 -0.7712  2.3895
10091SOL    HW231214   2.723   4.503   5.867  0.5490 -0.5883 -3.1662
10092SOL     OW31215   0.598   1.106   6.160  0.2498 -0.0975 -0.4931
10092SOL    HW131216   0.619   1.196   6.135  1.3026  0.2181  1.3800
10092SOL    HW231217   0.682   1.061   6.162 -0.1301 -0.8160 -0.2337
10093SOL     OW31218   4.198   0.104   2.584  0.5841  0.0681  0.4694
10093SOL    HW131219   4.148   0.181   2.559  0.7329  0.2944  0.8566
10093SOL    HW231220   4.289   0.131   2.577  0.6319  0.1315  1.1958
10094SOL     OW31221   0.203   3.492   0.560 -0.2385 -0.0603 -0.0863
10094SOL    HW131222   0.135   3.546   0.519  0.5619  0.9575 -0.1318
10094SOL    HW231223   0.212   3.416   0.503 -0.4860  0.3966 -0.7445
10095SOL     OW31224   6.624   7.106   5.986 -0.0919  0.2430 -0.0875
10095SOL    HW131225   6.548   7.159   5.960  0.9534  1.1039 -1.5546
10095SOL    HW231226   6.592   7.052   6.059 -1.6003  1.8560  0.5130
10096SOL     OW31227   2.822   0.531   6.505 -0.0744 -0.3792 -0.1651
10096SOL    HW131228   2.845   0.490   6.588  1.0151 -2.0018 -1.2197
10096SOL    HW231229   2.874   0.611   6.503  0.2249 -0.5484  0.5118
10097SOL     OW31230   1.759   6.659   5.177 -0.1531  0.0491 -0.0973
10097SOL    HW131231   1.772   6.581   5.231 -0.0522  0.4984  0.5418
10097SOL    HW231232   1.814   6.725   5.219 -1.2187  0.8177  0.1167
10098SOL     OW31233   4.299   0.168   2.139  0.1644  0.2304  0.4452
10098SOL    HW131234   4.304   0.234   2.070  0.2420 -0.3928 -0.1503
10098SOL    HW231235   4.226   0.112   2.113  2.1747 -1.9663 -0.9081
10099SOL     OW31236   0.130   0.393   1.948  0.1694  0.2695 -0.1342
10099SOL    HW131237   0.144   0.377   2.041 -0.4299  0.1743 -0.0570
10099SOL    HW231238   0.137   0.488   1.938  2.1494  0.1350 -0.3270
10100SOL     OW31239   2.356   4.628   2.817 -0.8128  0.1248 -0.1168
10100SOL    HW131240   2.420   4.686   2.775 -1.4794  0.9784  0.0106
10100SOL    HW231241   2.395   4.541   2.812 -0.1645  0.4505 -1.0846
10101SOL     OW31242   6.038   5.611   2.698 -0.2481 -0.1711 -0.2937
10101SOL    HW131243   6.052   5.519   2.678 -0.8869 -0.2408 -0.4607
10101SOL    HW231244   6.071   5.658   2.621  0.2658 -0.2454 -0.1205
10102SOL     OW31245   2.964   0.629   7.357  0.0501  0.3080  0.1412
10102SOL    HW131246   2.977   0.633   7.262 -0.4445 -1.9567 -0.1017
10102SOL    HW231247   2.871   0.609   7.367  0.0371  0.8226  1.1258
10103SOL     OW31248   5.187   1.148   4.384 -0.6713  0.2142  0.5467
10103SOL    HW131249   5.150   1.060   4.384  2.9652 -1.4555  1.3163
10103SOL    HW231250   5.192   1.172   4.292 -0.6899 -0.8356  0.2621
10104SOL     OW31251   2.873   0.326   5.744  0.1053  0.0531 -0.4032
10104SOL    HW131252   2.780   0.345   5.737 -0.0912 -0.5618  0.4672
10104SOL    HW231253   2.902   0.376   5.820  0.2401 -0.6918  0.0314
10105SOL     OW31254   5.903   6.779   1.842 -0.0807  0.0773  0.4358
10105SOL    HW131255   5.855   6.759   1.922  1.4487  1.5856  1.8130
10105SOL    HW231256   5.935   6.868   1.855  1.2812 -0.0973 -1.3208
10106SOL     OW31257   2.670   6.841   1.281 -0.4797  0.1618  0.2104
10106SOL    HW131258   2.687   6.823   1.374  0.5013  0.5607  0.1278
10106SOL    HW231259   2.747   6.807   1.236 -0.2352  1.3338 -0.2940
10107SOL     OW31260   2.150   4.986   4.059 -0.2885  0.3065 -0.2043
10107SOL    HW131261   2.227   5.038   4.037 -0.4788  0.5114 -0.3977
10107SOL    HW231262   2.151   4.914   3.995 -0.8767  0.9376 -0.9374
10108SOL     OW31263   2.659   1.138   4.788 -0.5554 -0.4510 -0.0076
10108SOL    HW131264   2.737   1.192   4.776 -0.1146 -0.9555  0.4908
10108SOL    HW231265   2.632   1.154   4.879  0.0816 -1.6920  0.4249
10109SOL     OW31266   3.066   0.885   5.162 -0.4880 -0.2896  0.2548
10109SOL    HW131267   2.994   0.936   5.199 -0.1207  1.7269 -1.6316
10109SOL    HW231268   3.145   0.931   5.193 -0.0554 -1.2634  0.6270
10110SOL     OW31269   3.368   0.325   6.526 -0.2266  0.7022 -0.3426
10110SOL    HW131270   3.368   0.254   6.590 -1.4848  0.3711 -0.6892
10110SOL    HW231271   3.439   0.383   6.555 -0.6153  0.4458  1.2046
10111SOL     OW31272   6.661   0.043   4.971 -0.5059 -0.0511 -0.1119
10111SOL    HW131273   6.698  -0.044   4.960  1.3059  0.6262  0.2145
10111SOL    HW231274   6.700   0.076   5.052 -0.0251  1.5834 -0.9669
10112SOL     OW31275   4.795   6.425   4.498 -0.1417  0.1911  0.3078
10112SOL    HW131276   4.837   6.389   4.576 -0.0493  1.8477  1.0701
10112SOL    HW231277   4.726   6.481   4.533  0.0373  1.1212 -0.7879
10113SOL     OW31278   0.923   2.931   4.645 -0.9270 -0.1389 -0.4057
10113SOL    HW131279   0.988   2.997   4.668 -1.8780  0.5029  0.5233
10113SOL    HW231280   0.957   2.850   4.684 -0.9414  0.2991  0.5461
10114SOL     OW31281   2.920   5.717   0.834 -0.1134  0.1036 -0.2747
10114SOL    HW131282   3.002   5.706   0.785 -0.9712 -0.8989 -1.5534
10114SOL    HW231283   2.925   5.807   0.868  2.5994 -0.6878  1.8194
10115SOL     OW31284   0.542   5.714   5.734  0.3772 -0.0735  0.0160
10115SOL    HW131285   0.520   5.683   5.646 -0.8886  1.8957 -0.4267
10115SOL    HW231286   0.563   5.807   5.722  0.6719  0.1119  1.7239
10116SOL     OW31287   3.632   0.880   6.154  0.3556 -0.0669 -0.4195
10116SOL    HW131288   3.667   0.963   6.120  1.2743 -0.9073 -1.5820
10116SOL    HW231289   3.709   0.835   6.190 -0.3664  0.1963  1.6085
10117SOL     OW31290   3.538   4.913   6.793 -0.4913  0.4428  0.0278
10117SOL    HW131291   3.564   4.826   6.764  0.6750 -0.2590  2.8251
10117SOL    HW231292   3.579   4.973   6.730 -2.9512 -0.9390 -3.1160
10118SOL     OW31293   3.978   0.181   5.191  0.7543 -0.1212  0.2067
10118SOL    HW131294   4.022   0.264   5.172  1.4592  0.1779  2.7954
10118SOL    HW231295   3.899   0.206   5.239  0.5952 -0.9154  0.3771
10119SOL     OW31296   3.947   2.739   5.950 -0.4018  0.0092 -0.4639
10119SOL    HW131297   3.856   2.763   5.969 -0.8443 -1.1542 -0.9718
10119SOL    HW231298   3.960   2.766   5.859 -0.9165 -1.5980 -1.0524
10120SOL     OW31299   7.332   1.813   0.588  0.3296 -0.4915 -0.2743
10120SOL    HW131300   7.342   1.854   0.502  0.0708  0.8094  0.2860
10120SOL    HW231301   7.252   1.853   0.623  0.1503 -1.3911  0.3677
10121SOL     OW31302   0.471   5.897   6.295 -0.6163  0.1423  0.2311
10121SOL    HW131303   0.465   5.966   6.229  1.1394 -0.0575 -0.2012
10121SOL    HW231304   0.526   5.934   6.364 -0.1344 -0.6200  0.2664
10122SOL     OW31305   1.651   2.510   2.801  0.3143 -0.7697  0.2580
10122SOL    HW131306   1.723   2.546   2.750 -0.7874  1.2324  0.0363
10122SOL    HW231307   1.661   2.549   2.888  0.0734 -1.3080  0.5359
10123SOL     OW31308   5.345   5.524   7.059  0.0455 -0.2257 -0.3013
10123SOL    HW131309   5.392   5.563   7.132 -2.1341  0.0695  1.0367
10123SOL    HW231310   5.367   5.431   7.064 -2.5469 -0.8687  2.9355
10124SOL     OW31311   4.263   6.214   0.986  0.1197  0.2821  0.1885
10124SOL    HW131312   4.229   6.288   0.936  0.9979  0.8018  0.3444
10124SOL    HW231313   4.241   6.234   1.077  1.0351  0.7343  0.3152
10125SOL     OW31314   2.729   2.840   5.931  0.2067  0.5641 -0.1863
10125SOL    HW131315   2.817   2.813   5.907  0.5607  1.6994 -0.2022
10125SOL    HW231316   2.737   2.872   6.021 -0.1275  0.9493 -0.2905
10126SOL     OW31317   1.593   3.808   6.262  0.4168 -0.0791  0.3776
10126SOL    HW131318   1.626   3.854   6.185  0.7636 -0.9101  0.0082
10126SOL    HW231319   1.608   3.868   6.335  1.6766  0.0334  0.0401
10127SOL     OW31320   7.234   0.283   3.305 -0.1187 -0.4027 -0.5018
10127SOL    HW131321   7.185   0.261   3.384  0.4125 -1.4864 -0.4567
10127SOL    HW231322   7.319   0.241   3.317 -0.0147 -0.5529 -1.6358
10128SOL     OW31323   5.124   4.938   7.167  0.1034 -0.4333 -0.2663
10128SOL    HW131324   5.132   4.958   7.260  0.6727 -0.4953 -0.2977
10128SOL    HW231325   5.029   4.933   7.152 -0.0423  1.1901 -0.0446
10129SOL     OW31326   5.561   5.629   0.145 -0.1581  0.5549  0.8153
10129SOL    HW131327   5.613   5.559   0.184 -0.6209 -0.0386  0.3767
10129SOL    HW231328   5.476   5.624   0.189 -1.1478 -0.9780 -1.1062
10130SOL     OW31329   5.806   4.881   4.198 -0.1882 -0.1001 -0.2175
10130SOL    HW131330   5.886   4.905   4.152 -0.1294  0.6488  0.2487
10130SOL    HW231331   5.798   4.787   4.185  0.4418 -0.0867 -0.7757
10131SOL     OW31332   0.433   7.201   5.244  0.5657 -0.6618  0.3715
10131SOL    HW131333   0.520   7.214   5.208 -0.4221  0.3638 -1.8701
10131SOL    HW231334   0.440   7.228   5.336  1.7542  3.2406 -0.6871
10132SOL     OW31335   7.177   5.126   1.238  0.4432  0.1903  0.1758
10132SOL    HW131336   7.094   5.163   1.267 -0.8956  2.1920 -5.0195
10132SOL    HW231337   7.169   5.032   1.255 -0.8255  0.7718  3.7559
10133SOL     OW31338   6.808   4.484   2.075 -1.0520 -0.4587  0.1105
10133SOL    HW131339   6.859   4.403   2.066 -0.8128 -0.3835  0.7449
10133SOL    HW231340   6.780   4.485   2.167 -0.5636  0.4696  0.2599
10134SOL     OW31341   6.979   4.150   3.663  0.0284  0.2956 -0.5330
10134SOL    HW131342   7.072   4.131   3.650 -0.2401 -0.9675 -0.7369
10134SOL    HW231343   6.961   4.118   3.751 -0.2876  0.2620 -0.6113
10135SOL     OW31344   1.864   2.267   0.100  0.8064  0.0073 -0.2473
10135SOL    HW131345   1.871   2.348   0.048  2.6829  1.6913  2.3914
10135SOL    HW231346   1.821   2.205   0.041  0.2142  2.5872 -2.7775
10136SOL     OW31347   0.484   0.875   6.478 -0.4554  0.1098  1.0659
10136SOL    HW131348   0.477   0.792   6.431  1.4198  0.6738 -0.3586
10136SOL    HW231349   0.432   0.937   6.426 -0.3054  0.2305  1.0574
10137SOL     OW31350   1.824   2.106   1.990 -0.0926  0.3202 -0.3078
10137SOL    HW131351   1.794   2.188   2.031  0.4519 -0.8485  2.6425
10137SOL    HW231352   1.866   2.135   1.908 -1.4735  2.7899 -0.2576
10138SOL     OW31353   0.911   6.421   3.943 -0.1397  0.6734 -0.0622
10138SOL    HW131354   0.983   6.474   3.978  0.1907  1.4978 -1.8703
10138SOL    HW231355   0.880   6.470   3.867 -2.7981  0.4612  0.7622
10139SOL     OW31356   3.061   2.180   4.927 -0.2472 -0.2749 -0.3120
10139SOL    HW131357   3.068   2.275   4.935 -0.3476 -0.2583 -0.4048
10139SOL    HW231358   3.044   2.150   5.016  1.3623 -0.3651 -0.0066
10140SOL     OW31359   5.709   2.579   1.357  0.5203  0.3606 -0.3000
10140SOL    HW131360   5.707   2.511   1.425  0.3580  0.1616 -0.5010
10140SOL    HW231361   5.654   2.649   1.392 -0.8038 -0.3623 -0.8584
10141SOL     OW31362   5.004   0.525   1.554 -0.8061 -0.4735 -0.1267
10141SOL    HW131363   5.095   0.496   1.554 -0.5102  0.4117  0.3540
10141SOL    HW231364   4.972   0.505   1.466  0.0834 -0.1038 -0.5480
10142SOL     OW31365   2.652   7.193   1.522 -0.2977 -0.0696 -0.2345
10142SOL    HW131366   2.573   7.143   1.507  0.8013 -1.5237 -1.4453
10142SOL    HW231367   2.724   7.132   1.506  1.0916  1.2918  0.4409
10143SOL     OW31368   1.197   1.710   5.780  0.7224 -0.6256  0.1018
10143SOL    HW131369   1.150   1.780   5.735  1.2973  1.3308  2.3441
10143SOL    HW231370   1.278   1.700   5.729  0.3639 -0.1117 -0.5998
10144SOL     OW31371   6.181   7.093   5.897 -0.2644  0.1582 -0.3607
10144SOL    HW131372   6.164   7.186   5.886 -1.2887  0.1304  0.7956
10144SOL    HW231373   6.168   7.076   5.990 -0.8826 -1.2779 -0.6699
10145SOL     OW31374   2.135   2.304   5.265  0.1620 -0.2884  0.3829
10145SOL    HW131375   2.049   2.274   5.295 -0.5885  0.0886 -1.2731
10145SOL    HW231376   2.118   2.389   5.225  1.3225 -0.1603  0.1318
10146SOL     OW31377   3.273   4.160   6.952  0.4223 -0.3143 -0.4114
10146SOL    HW131378   3.354   4.199   6.984  1.3579 -2.8255  0.5433
10146SOL    HW231379   3.210   4.174   7.022  0.5557  0.0214 -0.3573
10147SOL     OW31380   2.113   4.849   0.383  0.1337 -0.1476 -0.4434
10147SOL    HW131381   2.180   4.916   0.370  0.4247 -0.2898  0.2654
10147SOL    HW231382   2.059   4.853   0.304  2.0789 -1.3166 -1.9475
10148SOL     OW31383   2.878   5.951   3.065  0.5341  0.9683 -0.3065
10148SOL    HW131384   2.941   6.023   3.059 -0.1774  1.6127 -0.2200
10148SOL    HW231385   2.795   5.993   3.086  0.7449 -0.1453  3.3908
10149SOL     OW31386   5.969   7.406   0.645 -0.4321  0.0592  0.1183
10149SOL    HW131387   5.897   7.349   0.618  0.4337 -0.9770 -0.0956
10149SOL    HW231388   5.949   7.491   0.604 -1.0117 -0.4875 -0.7757
10150SOL     OW31389   1.860   2.859   0.865  0.2055 -0.7469  0.3898
10150SOL    HW131390   1.823   2.946   0.876  0.4333 -0.3175 -1.7946
10150SOL    HW231391   1.792   2.809   0.819  1.1733 -0.8072 -1.0380
10151SOL     OW31392   6.129   5.295   3.212  0.5240 -0.1007 -0.2470
10151SOL    HW131393   6.123   5.296   3.116  0.8827  0.0415 -0.2721
10151SOL    HW231394   6.168   5.379   3.234  1.5896 -0.6256 -0.0640
10152SOL     OW31395   0.498   4.137   1.401 -0.0980 -0.7202 -0.2355
10152SOL    HW131396   0.454   4.200   1.458  0.9182 -0.9358  0.8086
10152SOL    HW231397   0.518   4.063   1.458  0.6601 -1.0767 -0.9514
10153SOL     OW31398   4.089   5.067   4.963  0.3925 -0.5945  0.3209
10153SOL    HW131399   4.077   4.982   5.006  1.0170 -0.9159 -0.1279
10153SOL    HW231400   4.182   5.069   4.940  0.1895 -0.1789 -0.4844
10154SOL     OW31401   0.400   3.349   0.242  0.3503  0.0203  0.3849
10154SOL    HW131402   0.478   3.404   0.248  0.9493 -0.6883 -0.5397
10154SOL    HW231403   0.342   3.396   0.182  0.7739 -0.2410 -0.2414
10155SOL     OW31404   3.827   5.648   2.130 -0.1637 -0.1409  0.3642
10155SOL    HW131405   3.918   5.644   2.160  0.1918  0.2851 -0.6116
10155SOL    HW231406   3.782   5.701   2.197 -0.1547 -1.9506  1.8817
10156SOL     OW31407   1.965   7.086   5.186  0.1431  0.4206 -0.3058
10156SOL    HW131408   1.965   7.180   5.202  2.0983  0.1798  1.4911
10156SOL    HW231409   2.026   7.074   5.113  1.5576  0.4239  0.8260
10157SOL     OW31410   3.269   2.118   7.173 -0.0307  0.6407 -1.0092
10157SOL    HW131411   3.214   2.086   7.102 -0.5615  1.4191 -0.9681
10157SOL    HW231412   3.272   2.045   7.236 -1.7780  0.8816 -0.5933
10158SOL     OW31413   1.007   7.205   6.982 -0.7690  0.1825  0.2050
10158SOL    HW131414   1.070   7.271   6.956 -0.5757  0.1223  0.5136
10158SOL    HW231415   1.040   7.172   7.066 -0.6743 -0.5498 -0.1154
10159SOL     OW31416   0.696   3.963   7.149  0.1768 -0.0521  0.1467
10159SOL    HW131417   0.740   3.985   7.230  1.1289 -2.5766  0.4044
10159SOL    HW231418   0.641   3.888   7.171 -0.5263  0.0007 -1.2823
10160SOL     OW31419   2.911   6.252   4.138  0.0603  0.3402 -0.1347
10160SOL    HW131420   2.961   6.319   4.092  0.0864  0.3138 -0.1442
10160SOL    HW231421   2.820   6.280   4.128  0.1227  0.7598  0.4790
10161SOL     OW31422   2.706   2.106   7.240 -0.3046 -0.0273  0.2720
10161SOL    HW131423   2.626   2.109   7.188 -0.4489 -0.7634  0.4398
10161SOL    HW231424   2.684   2.047   7.313  0.0066  0.7077  0.9641
10162SOL     OW31425   2.547   6.050   5.117 -0.3565  0.3958  0.9300
10162SOL    HW131426   2.504   6.031   5.033  0.6657 -0.4634  0.5755
10162SOL    HW231427   2.539   5.969   5.167  1.5288 -0.0856  0.5366
10163SOL     OW31428   1.591   2.877   1.748  0.7378  0.3078  0.0894
10163SOL    HW131429   1.574   2.871   1.842 -2.2765  1.7069 -0.2581
10163SOL    HW231430   1.574   2.789   1.715  0.6162  0.1036  0.6882
10164SOL     OW31431   7.095   3.404   5.882 -0.4389  0.3002  0.1221
10164SOL    HW131432   7.118   3.496   5.866  0.0298  0.0057 -1.0682
10164SOL    HW231433   7.018   3.389   5.827 -0.6937  0.0626  0.5417
10165SOL     OW31434   1.698   7.403   2.135  0.0358  0.3147 -0.0614
10165SOL    HW131435   1.670   7.312   2.146  1.0372 -0.0383 -0.3536
10165SOL    HW231436   1.620   7.448   2.102 -0.8027 -0.1891  1.1635
10166SOL     OW31437   0.498   2.472   0.919 -0.5271  0.5352 -0.7453
10166SOL    HW131438   0.529   2.478   1.009  0.8455  0.0701 -1.1585
10166SOL    HW231439   0.403   2.483   0.925 -0.5564 -0.2948  0.8464
10167SOL     OW31440   2.655   5.764   3.661 -0.3749  0.5504  0.4159
10167SOL    HW131441   2.592   5.810   3.606  1.5967  0.2967 -2.2726
10167SOL    HW231442   2.609   5.686   3.690 -1.4258  0.4943 -1.2588
10168SOL     OW31443   1.607   0.726   6.902 -0.4920  0.2823  0.3774
10168SOL    HW131444   1.642   0.684   6.824 -0.5475  0.6506  0.1555
10168SOL    HW231445   1.519   0.756   6.876 -0.6027  0.1993  0.6483
10169SOL     OW31446   0.515   0.258   2.842 -0.1606 -0.0704  0.2046
10169SOL    HW131447   0.430   0.290   2.810  0.2298 -1.0640 -1.9702
10169SOL    HW231448   0.493   0.179   2.892 -0.7015  1.0405  1.7998
10170SOL     OW31449   2.444   6.120   5.970 -0.1105  0.2216 -0.1901
10170SOL    HW131450   2.533   6.154   5.981  0.1388  0.0530 -1.5032
10170SOL    HW231451   2.394   6.194   5.936  0.0217 -0.2086 -1.3721
10171SOL     OW31452   6.895   0.999   1.796 -0.5525 -0.0350 -0.1920
10171SOL    HW131453   6.894   1.010   1.701  2.3795  0.2014 -0.2874
10171SOL    HW231454   6.839   1.068   1.830 -1.2148  0.2042 -1.7210
10172SOL     OW31455   6.210   7.019   7.339 -0.0651 -0.1650 -0.3767
10172SOL    HW131456   6.134   6.963   7.324 -1.2093  1.5316 -1.3505
10172SOL    HW231457   6.173   7.107   7.347  1.7170  0.5733  0.2610
10173SOL     OW31458   6.171   6.179   3.479  0.1104  0.1360 -0.2546
10173SOL    HW131459   6.102   6.136   3.529  0.4691 -0.5972 -0.3827
10173SOL    HW231460   6.192   6.117   3.409  0.9462  0.3282 -0.1779
10174SOL     OW31461   4.906   0.041   6.331  0.0694 -0.1204  0.3589
10174SOL    HW131462   4.929  -0.021   6.400  1.9778 -0.2684 -0.3474
10174SOL    HW231463   4.867  -0.014   6.262  1.4103 -0.5072 -0.1112
10175SOL     OW31464   3.124   5.919   4.895  0.2755  0.0198  0.1466
10175SOL    HW131465   3.048   5.966   4.930 -0.0111 -0.9296  0.8289
10175SOL    HW231466   3.092   5.879   4.814 -0.1320 -0.8704  0.7383
10176SOL     OW31467   2.165   1.620   3.106 -0.5256  0.3410 -0.6652
10176SOL    HW131468   2.228   1.586   3.042 -1.3562 -0.4241 -1.0988
10176SOL    HW231469   2.114   1.543   3.132 -0.5687  0.7410  0.5132
10177SOL     OW31470   6.654   6.125   6.223  0.2323  0.0332 -0.4215
10177SOL    HW131471   6.729   6.097   6.275  0.4799 -2.2869 -1.8700
10177SOL    HW231472   6.690   6.186   6.159  0.7919 -0.5782 -0.7049
10178SOL     OW31473   2.093   6.011   1.557 -0.3760  0.4966  0.7375
10178SOL    HW131474   2.159   6.081   1.562  1.1931 -0.7214 -1.0262
10178SOL    HW231475   2.012   6.055   1.533  0.3160  1.8299  0.7938
10179SOL     OW31476   5.534   3.029   6.020  0.5729  0.2029 -0.4928
10179SOL    HW131477   5.589   3.106   6.004 -0.6191  1.6428  1.8709
10179SOL    HW231478   5.593   2.954   6.010  1.8320  1.3798 -2.5673
10180SOL     OW31479   0.555   6.406   6.403  0.1526 -0.4474  0.2841
10180SOL    HW131480   0.528   6.359   6.323 -0.5701 -1.3085  1.0087
10180SOL    HW231481   0.505   6.364   6.473  1.7441 -0.5860  1.3796
10181SOL     OW31482   2.221   6.199   2.990  0.5173 -0.2691  0.3610
10181SOL    HW131483   2.149   6.201   3.052 -1.1698  0.0669 -1.5062
10181SOL    HW231484   2.263   6.284   3.000  0.0380 -0.0735  0.7610
10182SOL     OW31485   5.646   4.482   5.075  0.2087  0.1517  0.3706
10182SOL    HW131486   5.632   4.553   5.011  0.2632  1.0222  1.2925
10182SOL    HW231487   5.740   4.481   5.089  0.2121 -0.1424  0.3166
10183SOL     OW31488   6.567   6.363   1.046  0.0912  0.5843 -0.0847
10183SOL    HW131489   6.627   6.289   1.058  0.8835  1.5806  3.1866
10183SOL    HW231490   6.493   6.344   1.105 -1.9120  0.4011 -2.4748
10184SOL     OW31491   7.033   0.187   6.652 -0.5865  0.5138 -0.1616
10184SOL    HW131492   6.976   0.114   6.627 -3.4430  1.8200  1.9515
10184SOL    HW231493   7.113   0.173   6.602 -1.7452 -2.9331 -1.3398
10185SOL     OW31494   6.707   4.649   6.214  0.2469 -0.3175  0.0208
10185SOL    HW131495   6.773   4.650   6.144 -0.7952  1.5750 -1.0182
10185SOL    HW231496   6.749   4.693   6.287  0.4138  0.1748 -0.3657
10186SOL     OW31497   2.740   7.400   2.619  0.1654  0.0506  0.3364
10186SOL    HW131498   2.831   7.428   2.624  0.7701 -1.7800  0.4125
10186SOL    HW231499   2.695   7.451   2.687  1.1493  0.8879  0.3777
10187SOL     OW31500   3.242   2.933   4.293  0.5121  0.3706 -0.0762
10187SOL    HW131501   3.301   3.002   4.324  1.0770 -0.4980  0.8257
10187SOL    HW231502   3.299   2.869   4.252  0.0584  0.1146 -0.3093
10188SOL     OW31503   5.235   7.092   3.809  0.5874  0.2396 -0.4904
10188SOL    HW131504   5.286   7.075   3.729  1.0738 -2.1167  0.2211
10188SOL    HW231505   5.144   7.090   3.780  0.7815  0.0533 -1.1098
10189SOL     OW31506   1.345   3.817   0.272 -0.1659  0.0532 -0.1581
10189SOL    HW131507   1.337   3.900   0.227 -2.9061  0.2318  0.4904
10189SOL    HW231508   1.359   3.753   0.203 -0.6462  0.7538 -0.9139
10190SOL     OW31509   4.115   2.145   3.800  0.5852  0.2581  0.0628
10190SOL    HW131510   4.137   2.221   3.853  1.5803 -0.2473  0.4005
10190SOL    HW231511   4.125   2.175   3.710 -0.2281  0.8638  0.1616
10191SOL     OW31512   2.961   3.527   3.883  0.9038  0.2020 -0.0305
10191SOL    HW131513   2.948   3.592   3.952 -1.0869  0.9882 -1.0778
10191SOL    HW231514   2.874   3.491   3.866  1.5221 -0.7581 -1.3801
10192SOL     OW31515   4.042   3.975   5.759 -0.1169 -0.1286 -0.1467
10192SOL    HW131516   3.948   3.975   5.776 -0.2127 -0.1544 -0.6587
10192SOL    HW231517   4.065   4.068   5.749 -0.0554 -0.1117  0.1493
10193SOL     OW31518   2.407   1.676   4.812 -0.1577 -0.2962 -0.6311
10193SOL    HW131519   2.435   1.610   4.875 -0.8009  1.1861  1.3217
10193SOL    HW231520   2.415   1.634   4.727  2.9323 -1.6886  0.1988
10194SOL     OW31521   5.640   0.162   3.573  0.0097 -0.1058  0.0273
10194SOL    HW131522   5.567   0.199   3.623 -0.5150 -0.3248 -0.5561
10194SOL    HW231523   5.708   0.147   3.637 -0.6272 -0.3109  0.6673
10195SOL     OW31524   0.660   5.301   2.532  0.2471 -0.0273 -0.2307
10195SOL    HW131525   0.583   5.305   2.475  1.0653  0.1601 -1.3745
10195SOL    HW231526   0.711   5.227   2.497  0.4049 -0.4058  0.7631
10196SOL     OW31527   7.089   4.066   0.363 -0.3046 -0.7238 -0.3886
10196SOL    HW131528   7.024   4.136   0.363  0.2334 -0.2189 -0.8628
10196SOL    HW231529   7.037   3.985   0.364 -0.9341 -0.3224 -0.4907
10197SOL     OW31530   5.547   0.775   0.240  0.2065  0.3784 -0.4128
10197SOL    HW131531   5.641   0.763   0.254  0.2318  0.2550 -0.6813
10197SOL    HW231532   5.513   0.798   0.326  0.5553  0.8767 -0.4003
10198SOL     OW31533   6.492   0.352   6.596  0.0222 -0.0063 -0.6291
10198SOL    HW131534   6.503   0.265   6.634  0.2835  0.0579 -0.5548
10198SOL    HW231535   6.399   0.372   6.610 -0.0324 -0.2604 -0.6218
10199SOL     OW31536   2.778   4.813   5.677 -0.0146 -0.3412 -0.2278
10199SOL    HW131537   2.764   4.907   5.668 -3.1449 -0.8535 -2.4352
10199SOL    HW231538   2.750   4.793   5.766  0.6829  0.7841  0.2661
10200SOL     OW31539   7.201   3.009   7.068 -0.1729  0.2906  0.0130
10200SOL    HW131540   7.214   2.951   7.143 -0.4639 -1.7998 -1.4651
10200SOL    HW231541   7.106   3.009   7.053  0.0172 -0.9562 -1.5072
10201SOL     OW31542   5.142   7.360   1.750  0.1465  0.7031 -0.0655
10201SOL    HW131543   5.097   7.334   1.669  2.0264 -4.0034  0.1044
10201SOL    HW231544   5.079   7.344   1.819  0.1996 -0.3605 -0.2507
10202SOL     OW31545   5.648   7.118   5.843 -0.0175 -0.7668 -0.3521
10202SOL    HW131546   5.720   7.057   5.853  1.6390  1.0442 -0.6519
10202SOL    HW231547   5.577   7.066   5.804  1.3932 -2.4020 -0.8245
10203SOL     OW31548   2.271   3.725   3.181 -0.1121  0.3313 -0.4098
10203SOL    HW131549   2.276   3.782   3.258  0.5163  0.5102 -0.5730
10203SOL    HW231550   2.327   3.650   3.204 -1.5296 -0.5996  0.1067
10204SOL     OW31551   5.268   3.562   6.922  0.1087  0.5552 -0.2287
10204SOL    HW131552   5.211   3.550   6.847 -1.1954 -1.0819  0.9440
10204SOL    HW231553   5.338   3.498   6.911  0.2003  0.6659 -0.2954
10205SOL     OW31554   2.292   3.695   4.092  0.2264 -0.3611 -0.2338
10205SOL    HW131555   2.295   3.605   4.062 -0.1881 -0.4223 -0.1025
10205SOL    HW231556   2.204   3.726   4.067 -0.8079 -0.9328  2.3505
10206SOL     OW31557   4.595   0.667   1.665  0.0194  0.1475 -0.1901
10206SOL    HW131558   4.594   0.725   1.741  0.5580 -0.5767  0.3771
10206SOL    HW231559   4.555   0.719   1.595 -1.7880  0.3267  0.9307
10207SOL     OW31560   3.743   0.675   4.480  0.2627 -0.5535 -0.7108
10207SOL    HW131561   3.684   0.709   4.547  0.9609  1.8553 -1.2363
10207SOL    HW231562   3.710   0.587   4.461 -0.1858 -1.1857  2.4829
10208SOL     OW31563   1.876   2.793   6.213 -0.2733  0.2917  0.2023
10208SOL    HW131564   1.847   2.867   6.267 -1.1512  1.9732 -2.4028
10208SOL    HW231565   1.859   2.716   6.268 -2.0438  1.7835  1.9325
10209SOL     OW31566   5.213   3.339   2.147  0.0149 -0.2771 -0.0870
10209SOL    HW131567   5.261   3.319   2.227 -0.4636 -1.4121 -0.0796
10209SOL    HW231568   5.175   3.425   2.163  0.5755 -0.1466  0.5884
10210SOL     OW31569   4.160   4.851   2.046 -0.2348 -0.2687  0.2689
10210SOL    HW131570   4.084   4.863   1.989  0.1695 -0.7720 -0.3872
10210SOL    HW231571   4.128   4.793   2.116 -0.1121 -1.6030 -0.7382
10211SOL     OW31572   5.647   2.188   6.892 -0.0051  0.2180 -0.0686
10211SOL    HW131573   5.699   2.157   6.966  0.2467  2.0781  0.6080
10211SOL    HW231574   5.568   2.134   6.893  0.4392 -0.4370  0.9468
10212SOL     OW31575   4.444   0.888   5.247  0.4472  0.4298 -0.0828
10212SOL    HW131576   4.366   0.939   5.227 -0.7733 -0.5955  1.7583
10212SOL    HW231577   4.502   0.948   5.294 -0.9750  0.1972  2.0755
10213SOL     OW31578   0.269   6.853   5.069  0.2392 -0.2289 -0.5542
10213SOL    HW131579   0.343   6.806   5.109 -0.9281 -0.4959  1.4328
10213SOL    HW231580   0.234   6.907   5.140 -2.1062 -0.8807 -1.1440
10214SOL     OW31581   3.334   3.108   3.512 -0.2735 -0.3211 -0.2474
10214SOL    HW131582   3.425   3.124   3.536  0.2777 -0.4315 -2.1098
10214SOL    HW231583   3.283   3.168   3.566  0.8145 -0.8978  1.4842
10215SOL     OW31584   0.755   6.552   1.010 -0.0527  0.3170  0.0946
10215SOL    HW131585   0.662   6.548   0.986 -0.1486 -0.7465  0.5989
10215SOL    HW231586   0.801   6.552   0.926 -0.3826 -3.4542 -0.2243
10216SOL     OW31587   5.668   3.717   1.825  0.3171  0.4654  0.2360
10216SOL    HW131588   5.657   3.775   1.900  1.4229  0.0271  0.7493
10216SOL    HW231589   5.759   3.727   1.799  0.6119 -1.2185  0.4987
10217SOL     OW31590   3.823   2.337   1.322 -0.6995  0.3733 -0.2797
10217SOL    HW131591   3.908   2.342   1.365 -0.5469 -1.1102 -0.3706
10217SOL    HW231592   3.835   2.274   1.251 -1.2500  1.9432 -1.8456
10218SOL     OW31593   4.035   3.661   4.250  0.4389 -0.3769  0.8894
10218SOL    HW131594   4.026   3.566   4.245 -0.4498 -0.3620  1.8040
10218SOL    HW231595   3.956   3.694   4.207  0.8702 -0.0374  0.3450
10219SOL     OW31596   3.864   3.381   5.491 -0.1927  0.0301 -0.0471
10219SOL    HW131597   3.815   3.309   5.452  2.4414 -1.0966 -1.5394
10219SOL    HW231598   3.875   3.444   5.420  1.4384 -0.2738 -0.0902
10220SOL     OW31599   5.572   4.629   3.929  0.0162 -0.3850  0.3772
10220SOL    HW131600   5.504   4.564   3.907 -0.8833  1.5356 -3.3970
10220SOL    HW231601   5.549   4.658   4.017 -3.1984 -0.9631 -0.1359
10221SOL     OW31602   4.390   4.648   6.554 -0.2046  0.2252 -0.1569
10221SOL    HW131603   4.372   4.669   6.646  0.8383 -0.4946  0.2322
10221SOL    HW231604   4.436   4.564   6.558  0.7044  0.6604 -1.2837
10222SOL     OW31605   3.093   1.010   1.152  0.0561 -0.1033 -0.1816
10222SOL    HW131606   3.150   1.086   1.140  1.7798 -1.4528 -0.9202
10222SOL    HW231607   3.145   0.949   1.204 -1.2775 -0.8234  0.3596
10223SOL     OW31608   6.755   1.476   0.483  0.1818  0.4088 -0.1714
10223SOL    HW131609   6.737   1.420   0.407 -2.0526 -0.6911  1.0328
10223SOL    HW231610   6.710   1.558   0.464 -0.6394  0.0235  0.0507
10224SOL     OW31611   3.120   6.834   1.063  0.5697  0.1295  0.0041
10224SOL    HW131612   3.080   6.805   0.981 -0.8633  2.0417 -0.0408
10224SOL    HW231613   3.196   6.885   1.035  0.4858  0.1976 -0.1018
10225SOL     OW31614   2.838   6.086   5.031 -0.2328  0.1280  0.3461
10225SOL    HW131615   2.755   6.072   5.076  0.1237  0.7853  1.2573
10225SOL    HW231616   2.833   6.177   5.000 -0.1223 -0.0412 -0.1657
10226SOL     OW31617   3.928   6.368   2.046  0.3057 -0.3270  0.5465
10226SOL    HW131618   3.897   6.431   2.112  0.8091  0.1929  0.2997
10226SOL    HW231619   4.021   6.357   2.065  0.3304 -0.6013  0.2713
10227SOL     OW31620   7.097   4.644   3.015  0.5284 -0.0269  0.4568
10227SOL    HW131621   7.006   4.620   2.998 -0.0673  0.4088  2.7547
10227SOL    HW231622   7.135   4.567   3.058  0.7369  0.4421  1.1179
10228SOL     OW31623   3.788   7.343   3.645 -0.2388 -0.0082 -0.1205
10228SOL    HW131624   3.797   7.257   3.605  1.5058  0.6705 -1.2769
10228SOL    HW231625   3.712   7.383   3.602  0.6253  0.0762 -1.6185
10229SOL     OW31626   2.245   1.150   0.635 -0.5249  0.1869  0.1863
10229SOL    HW131627   2.155   1.163   0.603 -0.5387 -0.1695  0.0690
10229SOL    HW231628   2.235   1.094   0.712 -0.3399 -0.5773 -0.3345
10230SOL     OW31629   3.437   4.863   4.970  0.9590  0.1191  0.3937
10230SOL    HW131630   3.376   4.913   4.917  0.2116  0.1372  1.2494
10230SOL    HW231631   3.454   4.918   5.047  0.9541 -0.4768  0.8332
10231SOL     OW31632   4.162   2.049   0.834  0.4919 -0.6358  0.2186
10231SOL    HW131633   4.083   2.044   0.779  0.0718 -0.8870  0.8262
10231SOL    HW231634   4.232   2.074   0.774 -0.3522  1.2901 -0.0616
10232SOL     OW31635   3.193   3.302   6.108  0.6677  0.1770 -0.1273
10232SOL    HW131636   3.133   3.378   6.111 -0.2437 -0.3495 -2.4522
10232SOL    HW231637   3.279   3.341   6.096  0.5770  0.9041  1.3600
10233SOL     OW31638   5.863   2.236   0.725  0.2401 -0.1328  0.3579
10233SOL    HW131639   5.807   2.223   0.802  1.3808 -1.3808  1.0321
10233SOL    HW231640   5.805   2.270   0.658 -1.2793 -1.1195  1.1078
10234SOL     OW31641   7.175   0.413   2.925  0.1404 -0.6106  0.2900
10234SOL    HW131642   7.118   0.440   2.854 -0.9948 -0.5786  1.1828
10234SOL    HW231643   7.223   0.492   2.950  1.5257 -0.9003 -1.2596
10235SOL     OW31644   7.264   5.948   3.593 -0.6620 -0.4005 -0.2907
10235SOL    HW131645   7.236   5.881   3.656  0.7484 -0.6269  0.1101
10235SOL    HW231646   7.334   5.906   3.543  0.9764  1.1162  0.6576
10236SOL     OW31647   6.104   5.621   1.283 -0.0868 -0.5046  0.0549
10236SOL    HW131648   6.038   5.575   1.334 -1.4067 -0.2422 -1.3338
10236SOL    HW231649   6.186   5.608   1.331 -1.2017 -0.4895  2.0543
10237SOL     OW31650   6.406   2.283   0.290 -0.7691  0.5322  0.2445
10237SOL    HW131651   6.474   2.345   0.315 -1.4664  1.6300 -0.4934
10237SOL    HW231652   6.324   2.332   0.302 -1.2993 -0.0400 -0.9028
10238SOL     OW31653   7.399   5.101   5.705  0.4366 -0.5228 -0.6951
10238SOL    HW131654   7.480   5.055   5.728 -0.9947 -2.0869  1.7456
10238SOL    HW231655   7.342   5.033   5.671 -0.1455  0.4208 -1.6685
10239SOL     OW31656   3.820   2.949   2.533 -0.3520 -0.0464  0.3066
10239SOL    HW131657   3.816   3.013   2.462  0.8393  2.0532  1.9931
10239SOL    HW231658   3.891   2.890   2.509 -0.9491 -0.3009 -0.9092
10240SOL     OW31659   2.618   0.136   3.184  0.3213 -0.3788 -0.7321
10240SOL    HW131660   2.687   0.094   3.133  1.6734 -0.6011  1.1618
10240SOL    HW231661   2.665   0.190   3.247 -1.3163  1.0184 -0.6591
10241SOL     OW31662   6.625   0.136   4.237 -0.0662  0.2966 -0.6555
10241SOL    HW131663   6.700   0.189   4.265  1.1870 -1.6694 -0.0686
10241SOL    HW231664   6.581   0.111   4.318 -1.3974  1.4083 -0.9972
10242SOL     OW31665   7.155   5.934   5.651 -0.0753  0.0886  0.3512
10242SOL    HW131666   7.073   5.886   5.657 -0.6775  0.8989 -0.9823
10242SOL    HW231667   7.145   6.006   5.714 -0.2153 -0.0573  0.4959
10243SOL     OW31668   3.560   4.886   0.819  0.3651  0.1071 -0.3425
10243SOL    HW131669   3.510   4.951   0.868 -1.6220 -0.9335 -0.8861
10243SOL    HW231670   3.598   4.829   0.886 -0.3514  0.0935  0.0649
10244SOL     OW31671   2.486   6.423   0.827  0.3774  0.2964 -0.0916
10244SOL    HW131672   2.446   6.495   0.876  0.4743  1.3371 -1.4708
10244SOL    HW231673   2.580   6.442   0.827  0.5711 -0.6009  0.7192
10245SOL     OW31674   6.651   5.655   4.067  0.3346 -0.4184  0.1442
10245SOL    HW131675   6.573   5.696   4.103  0.5719 -0.2255  0.4431
10245SOL    HW231676   6.716   5.660   4.138  0.9131  0.2724 -0.4147
10246SOL     OW31677   6.152   0.910   3.149  0.1902  0.2766  0.3328
10246SOL    HW131678   6.124   0.937   3.237 -1.3617  3.4981 -1.0096
10246SOL    HW231679   6.159   0.991   3.100  1.3983 -1.3866 -2.4982
10247SOL     OW31680   6.641   6.283   0.117 -0.0319  0.1877 -0.0425
10247SOL    HW131681   6.700   6.349   0.082  0.4617 -0.3728 -0.2966
10247SOL    HW231682   6.556   6.326   0.123 -0.0894  0.3559 -1.7556
10248SOL     OW31683   4.406   6.436   1.688 -0.0607 -0.9047  0.1283
10248SOL    HW131684   4.350   6.401   1.618  0.5773 -0.7648 -0.4525
10248SOL    HW231685   4.358   6.511   1.721 -1.2789 -2.0720  1.1374
10249SOL     OW31686   2.542   0.867   3.337  0.2801  0.5851  0.4286
10249SOL    HW131687   2.493   0.876   3.418  0.6743 -0.1558  0.7557
10249SOL    HW231688   2.534   0.952   3.295 -1.5535  0.3848  0.3110
10250SOL     OW31689   0.032   1.960   0.946 -0.4967  0.4341 -0.4379
10250SOL    HW131690  -0.022   1.999   1.014  1.7779  1.4820  0.9150
10250SOL    HW231691   0.006   1.868   0.944 -1.1079  0.5254  1.4133
10251SOL     OW31692   3.694   3.494   4.888 -0.1888 -0.2835  0.5459
10251SOL    HW131693   3.675   3.442   4.966  1.1685 -0.9155  0.4980
10251SOL    HW231694   3.770   3.548   4.913  0.3310 -0.5718 -0.3558
10252SOL     OW31695   0.109   7.207   7.188 -0.0523 -0.4189  0.1716
10252SOL    HW131696   0.147   7.272   7.246 -1.4581 -1.9393  2.9938
10252SOL    HW231697   0.184   7.166   7.145  1.1699 -0.0117  1.8147
10253SOL     OW31698   2.421   5.671   5.803 -0.2360 -0.7224 -0.3937
10253SOL    HW131699   2.342   5.656   5.856  0.8548 -2.2359  0.9092
10253SOL    HW231700   2.402   5.750   5.753 -2.2165 -0.5259  0.5738
10254SOL     OW31701   1.348   0.824   1.786  0.1558 -0.3323  0.4069
10254SOL    HW131702   1.262   0.789   1.809 -0.7480  1.5802  0.1498
10254SOL    HW231703   1.360   0.899   1.845  1.4995 -0.3587  0.2012
10255SOL     OW31704   2.407   2.301   3.844 -0.3364  0.1468  0.1844
10255SOL    HW131705   2.388   2.256   3.926 -2.1770 -0.1330 -0.3408
10255SOL    HW231706   2.412   2.231   3.779  0.2100  0.4324 -0.0831
10256SOL     OW31707   5.669   1.093   0.954 -0.4467  0.0718  0.2140
10256SOL    HW131708   5.645   1.015   0.904 -0.5625 -0.4565  1.0579
10256SOL    HW231709   5.682   1.060   1.043  0.1458  0.9135  0.4486
10257SOL     OW31710   5.874   0.413   7.357  0.5613  0.5362 -0.0648
10257SOL    HW131711   5.866   0.327   7.315  0.1410  0.7325 -0.3878
10257SOL    HW231712   5.850   0.476   7.289 -0.2548  0.8540  0.5041
10258SOL     OW31713   4.279   4.642   7.360 -0.3107 -0.0591 -0.1975
10258SOL    HW131714   4.362   4.602   7.389 -0.1667  1.1942  1.2349
10258SOL    HW231715   4.221   4.567   7.346  1.4382 -1.0713 -2.6552
10259SOL     OW31716   2.917   7.165   2.816 -0.4153  0.4110  0.2499
10259SOL    HW131717   2.854   7.225   2.855 -0.0567  0.6464  0.4728
10259SOL    HW231718   2.879   7.078   2.829 -0.6688  0.5477  0.4276
10260SOL     OW31719   6.244   6.826   2.298 -0.2734  0.5898 -0.3403
10260SOL    HW131720   6.168   6.871   2.334  2.0654  3.1794  1.7555
10260SOL    HW231721   6.319   6.866   2.342  2.4043 -1.2569 -2.8609
10261SOL     OW31722   4.481   3.151   2.901  0.1604 -0.6111 -0.1498
10261SOL    HW131723   4.487   3.190   2.813  1.4775 -0.3222  0.0563
10261SOL    HW231724   4.565   3.170   2.941 -0.8162  0.2572  1.6032
10262SOL     OW31725   6.250   1.895   6.530  0.0737 -0.3585  0.0606
10262SOL    HW131726   6.277   1.809   6.499  0.8044 -0.4675  0.9491
10262SOL    HW231727   6.169   1.879   6.578  1.1652 -0.8989  1.8361
10263SOL     OW31728   2.404   5.883   4.029  0.1468  0.9580  0.3192
10263SOL    HW131729   2.335   5.830   4.068  0.9388  0.1740  0.6845
10263SOL    HW231730   2.371   5.905   3.942 -0.2844  0.0443  0.2465
10264SOL     OW31731   4.056   1.263   6.527 -0.2639  0.2298 -0.3352
10264SOL    HW131732   4.113   1.191   6.556 -0.3030  0.0599 -0.6681
10264SOL    HW231733   4.062   1.328   6.596  0.1430  0.1039 -0.2491
10265SOL     OW31734   2.150   2.181   1.669 -0.0648  0.2176  0.2489
10265SOL    HW131735   2.170   2.173   1.762  0.6752  0.2010  0.1024
10265SOL    HW231736   2.111   2.267   1.659 -0.3898  0.1137  0.6121
10266SOL     OW31737   2.437   2.420   1.480 -0.3036  0.0298 -0.3620
10266SOL    HW131738   2.420   2.459   1.566 -1.3004  0.8641 -0.9071
10266SOL    HW231739   2.531   2.407   1.477 -0.0747  1.3907  0.2985
10267SOL     OW31740   4.765   3.929   5.606 -0.3379 -0.3553 -0.6036
10267SOL    HW131741   4.676   3.964   5.594 -0.1333  0.4507  0.1024
10267SOL    HW231742   4.773   3.918   5.700  0.3865 -0.2095 -0.6447
10268SOL     OW31743   5.401   2.977   2.336  0.1504  0.0031  0.3859
10268SOL    HW131744   5.486   2.951   2.372 -0.7401 -3.0481  0.5593
10268SOL    HW231745   5.350   3.004   2.412 -0.5828 -3.0572  1.1041
10269SOL     OW31746   7.158   3.158   1.770 -0.0499  0.1834  0.1198
10269SOL    HW131747   7.073   3.143   1.812 -0.7002 -1.0975 -1.5186
10269SOL    HW231748   7.162   3.091   1.701  1.8051  0.9436 -0.5597
10270SOL     OW31749   5.363   0.832   1.943 -0.6052  0.6477 -0.2258
10270SOL    HW131750   5.386   0.923   1.960  0.2609  0.1745  1.2752
10270SOL    HW231751   5.440   0.795   1.901 -0.3733  0.2408  0.5402
10271SOL     OW31752   4.600   1.922   2.837  0.0156  0.0864  0.2337
10271SOL    HW131753   4.607   1.882   2.923 -1.1164  1.4943  1.0440
10271SOL    HW231754   4.653   2.001   2.843  0.7097 -0.2959 -0.6992
10272SOL     OW31755   6.326   6.225   6.986 -0.0783 -0.2533  0.1013
10272SOL    HW131756   6.265   6.261   7.050 -1.4179 -1.9551 -0.1441
10272SOL    HW231757   6.368   6.302   6.947 -1.8121  0.9796  0.5381
10273SOL     OW31758   3.322   6.148   3.748 -0.2896  0.2146  0.1464
10273SOL    HW131759   3.373   6.218   3.707  1.3777 -1.0908 -0.1047
10273SOL    HW231760   3.252   6.194   3.795  1.7005  2.2050  1.3924
10274SOL     OW31761   7.031   4.971   7.426 -0.1317 -0.2572 -0.0532
10274SOL    HW131762   7.095   4.901   7.409 -2.1644 -1.9352 -1.3290
10274SOL    HW231763   6.994   4.992   7.341 -1.0264  0.9401  0.5937
10275SOL     OW31764   5.196   0.790   3.523 -0.7586  0.8334  0.1503
10275SOL    HW131765   5.227   0.702   3.502 -3.2021 -0.4199  1.4195
10275SOL    HW231766   5.272   0.846   3.507  1.0336 -1.5395 -0.2485
10276SOL     OW31767   2.864   4.375   4.233  0.3387 -0.1857 -0.1900
10276SOL    HW131768   2.903   4.309   4.291 -0.7487  0.2202  1.0531
10276SOL    HW231769   2.927   4.384   4.161  0.5280 -2.5488 -0.3990
10277SOL     OW31770   4.901   0.293   3.784  0.0229  0.4240  0.5351
10277SOL    HW131771   4.908   0.207   3.741  0.8227  0.7803 -0.0772
10277SOL    HW231772   4.864   0.273   3.870 -0.8648 -0.4007 -0.0121
10278SOL     OW31773   2.329   1.094   5.501 -0.0029  0.2450  0.4018
10278SOL    HW131774   2.291   1.104   5.414 -1.8214 -1.3801  0.9166
10278SOL    HW231775   2.268   1.140   5.559  0.8820  0.8306  0.8855
10279SOL     OW31776   2.255   1.668   5.993  0.1724  0.3671 -0.2845
10279SOL    HW131777   2.187   1.667   5.925 -0.0778  1.9720 -0.1019
10279SOL    HW231778   2.321   1.729   5.960  0.6432  0.2050  0.3507
10280SOL     OW31779   3.539   0.837   1.181  0.4762 -0.3294  0.0516
10280SOL    HW131780   3.560   0.864   1.270 -0.5581 -0.4992  0.3689
10280SOL    HW231781   3.546   0.917   1.129 -0.8664  0.2261  0.6633
10281SOL     OW31782   2.350   0.902   4.414  0.1162  0.0036 -0.2545
10281SOL    HW131783   2.426   0.931   4.465 -0.1594  1.0605 -0.4166
10281SOL    HW231784   2.386   0.842   4.349  0.6747 -0.2212  0.2530
10282SOL     OW31785   7.222   3.896   0.041 -0.5852 -0.2748 -0.4604
10282SOL    HW131786   7.183   3.844   0.110  1.8191  0.3767  1.5257
10282SOL    HW231787   7.155   3.961   0.019 -1.6278 -0.8783  0.8061
10283SOL     OW31788   6.447   2.971   6.832  0.1520 -0.4448 -0.0262
10283SOL    HW131789   6.360   2.963   6.871 -0.5056  3.6906 -0.1756
10283SOL    HW231790   6.454   2.897   6.772 -4.8799  0.8676 -2.7828
10284SOL     OW31791   2.962   2.138   2.282 -0.2697 -0.0045 -0.1224
10284SOL    HW131792   2.893   2.132   2.216 -1.1390  0.5555  0.7091
10284SOL    HW231793   2.955   2.058   2.332  2.2002 -1.7957 -2.3403
10285SOL     OW31794   0.999   5.327   4.332 -0.5264  0.2196  0.0810
10285SOL    HW131795   0.938   5.309   4.404 -2.2465  0.6982 -1.2177
10285SOL    HW231796   1.018   5.420   4.339  1.7302 -0.2774  1.6924
10286SOL     OW31797   2.748   0.270   3.420  0.4605  0.5154  0.4161
10286SOL    HW131798   2.770   0.187   3.463 -1.6486 -1.4375 -1.9347
10286SOL    HW231799   2.702   0.320   3.487 -0.2960 -1.2325  1.2853
10287SOL     OW31800   6.961   4.027   5.038 -0.3065  0.1634  0.5407
10287SOL    HW131801   6.936   4.007   4.948 -0.8363 -1.0539  0.9379
10287SOL    HW231802   6.972   3.942   5.079 -0.4487  0.7042  1.7385
10288SOL     OW31803   5.859   5.360   5.163  0.1571  0.0980  0.0567
10288SOL    HW131804   5.816   5.300   5.101  2.2879 -0.4102 -1.0276
10288SOL    HW231805   5.788   5.390   5.220 -1.6878 -0.3677 -1.8521
10289SOL     OW31806   4.807   3.971   2.736  0.8600  0.0932  0.1830
10289SOL    HW131807   4.833   4.058   2.765 -0.4062  1.1216 -1.5319
10289SOL    HW231808   4.807   3.918   2.815  2.0917  1.5266  1.1995
10290SOL     OW31809   3.675   1.845   3.028 -0.3725  0.5601  0.3550
10290SOL    HW131810   3.699   1.910   2.962 -1.1732  0.7982  0.2858
10290SOL    HW231811   3.754   1.834   3.081  1.2331 -1.5762 -2.1780
10291SOL     OW31812   6.458   4.468   7.201 -0.0121 -0.4286 -0.3267
10291SOL    HW131813   6.431   4.440   7.288 -1.1115  1.5491  0.0536
10291SOL    HW231814   6.454   4.389   7.147  0.6452 -1.6763  1.3822
10292SOL     OW31815   0.160   5.944   2.772 -0.2071 -0.2518 -0.0206
10292SOL    HW131816   0.157   5.964   2.679  1.2173  0.0271 -0.0272
10292SOL    HW231817   0.149   5.849   2.777 -0.5263 -0.2394 -0.4494
10293SOL     OW31818   6.742   3.496   5.356  0.5028  0.3840  0.4757
10293SOL    HW131819   6.701   3.570   5.401 -1.5887 -0.2513 -0.2441
10293SOL    HW231820   6.751   3.429   5.423  0.0380  0.4144  0.5697
10294SOL     OW31821   0.541   6.638   5.331  1.0248 -0.5577 -0.1772
10294SOL    HW131822   0.522   6.717   5.382  1.6257  0.0114 -0.8156
10294SOL    HW231823   0.480   6.572   5.366  1.3640 -0.1730  1.2123
10295SOL     OW31824   1.321   4.883   5.168 -0.2567  0.0347 -0.2650
10295SOL    HW131825   1.268   4.817   5.214  0.3225 -0.9101 -0.9327
10295SOL    HW231826   1.275   4.897   5.085  0.0393 -0.0889 -0.4486
10296SOL     OW31827   5.203   3.682   4.041 -0.0490  0.6830  0.7311
10296SOL    HW131828   5.255   3.620   4.093 -0.1745 -0.2603 -0.2369
10296SOL    HW231829   5.219   3.767   4.082 -0.0415 -0.0079  2.2306
10297SOL     OW31830   0.715   7.285   5.502 -0.7804 -0.2500  0.1738
10297SOL    HW131831   0.629   7.309   5.469 -0.3345  0.2361 -0.6934
10297SOL    HW231832   0.746   7.218   5.442  0.3364  1.1482 -0.8793
10298SOL     OW31833   4.536   2.651   4.640  0.0351 -0.1927  0.0093
10298SOL    HW131834   4.441   2.661   4.653 -0.3079 -1.8905 -0.8626
10298SOL    HW231835   4.568   2.741   4.629 -1.6391  0.3584 -0.7086
10299SOL     OW31836   4.362   2.320   2.167  0.4913  0.3302 -0.4976
10299SOL    HW131837   4.426   2.351   2.230  0.6828 -0.4305 -0.3073
10299SOL    HW231838   4.283   2.303   2.218  0.2790  0.8336 -0.6566
10300SOL     OW31839   2.100   1.393   3.290 -0.2756  0.2973  0.2172
10300SOL    HW131840   2.082   1.300   3.278  1.3136 -0.0920  0.6811
10300SOL    HW231841   2.043   1.419   3.363 -1.2341 -0.1356 -0.3655
10301SOL     OW31842   5.095   6.200   3.980 -0.5178  0.6559 -0.9522
10301SOL    HW131843   5.169   6.237   3.932  0.3258 -0.0807 -0.2671
10301SOL    HW231844   5.047   6.150   3.915  0.0942  0.4210 -1.2377
10302SOL     OW31845   0.681   5.454   3.586 -0.5848  0.3378 -0.7113
10302SOL    HW131846   0.629   5.500   3.521  0.0207  0.9018 -0.8065
10302SOL    HW231847   0.666   5.502   3.667  0.0254  0.6979 -0.8059
10303SOL     OW31848   2.064   3.548   3.298 -0.2610 -0.3088 -0.1444
10303SOL    HW131849   2.017   3.601   3.362  0.0035  0.3055 -0.4495
10303SOL    HW231850   2.111   3.612   3.244  1.6834 -0.9437  0.7312
10304SOL     OW31851   4.200   2.725   2.867 -0.2187  0.2845 -0.2436
10304SOL    HW131852   4.173   2.683   2.786  1.0188 -0.7115 -0.1632
10304SOL    HW231853   4.241   2.807   2.839 -0.5697  0.3569 -0.5510
10305SOL     OW31854   6.778   1.634   2.819 -0.5615  0.1319  0.3320
10305SOL    HW131855   6.858   1.600   2.779 -0.6583 -0.4761  0.6420
10305SOL    HW231856   6.802   1.648   2.911 -0.0922  2.3082 -0.0682
10306SOL     OW31857   5.008   6.608   1.686  0.2427  0.1820 -0.8151
10306SOL    HW131858   5.036   6.673   1.622  1.4204  1.9713  1.3579
10306SOL    HW231859   4.915   6.626   1.700  0.5912  1.6234 -0.0997
10307SOL     OW31860   1.545   2.297   1.891 -0.3243 -0.1405  0.2385
10307SOL    HW131861   1.466   2.349   1.878 -0.6652 -0.5176  0.7403
10307SOL    HW231862   1.569   2.313   1.983 -0.0055 -0.2784  0.1795
10308SOL     OW31863   7.145   2.197   1.507  0.9466  0.1167 -0.2494
10308SOL    HW131864   7.207   2.262   1.472 -0.1800  0.4484 -1.7374
10308SOL    HW231865   7.063   2.246   1.517  0.8582 -0.3414  1.5917
10309SOL     OW31866   6.853   0.421   6.690 -0.4659 -0.8911 -0.5732
10309SOL    HW131867   6.919   0.370   6.735 -0.7390  0.7312  1.8662
10309SOL    HW231868   6.771   0.398   6.732 -0.6873  0.9403  0.0951
10310SOL     OW31869   0.648   4.310   4.059 -0.1071  0.1858 -0.2469
10310SOL    HW131870   0.695   4.267   3.987 -0.5379  1.2076 -1.1735
10310SOL    HW231871   0.667   4.403   4.048 -0.9046  0.4409  0.4341
10311SOL     OW31872   2.903   3.670   0.499 -0.0167  0.1529 -0.1133
10311SOL    HW131873   2.865   3.582   0.498 -0.4146  0.2697  1.7302
10311SOL    HW231874   2.873   3.710   0.417 -1.2576 -0.8380 -0.1797
10312SOL     OW31875   1.100   2.570   0.619 -0.0341 -0.0653  0.2603
10312SOL    HW131876   1.189   2.596   0.645  0.1988  0.6595 -1.1709
10312SOL    HW231877   1.114   2.496   0.560 -0.5623 -1.8110  2.2313
10313SOL     OW31878   3.370   3.184   0.384 -0.5268 -0.4712 -0.1546
10313SOL    HW131879   3.306   3.127   0.427  0.0603 -1.8219 -1.0181
10313SOL    HW231880   3.343   3.186   0.292 -0.0474 -0.0371 -0.2948
10314SOL     OW31881   6.449   5.025   5.640  0.0649 -0.1149 -0.3274
10314SOL    HW131882   6.494   4.996   5.720 -0.0693 -0.1941 -0.2809
10314SOL    HW231883   6.494   4.978   5.570 -0.2155 -0.5169 -0.2438
10315SOL     OW31884   6.958   2.491   3.322 -0.4135  0.0803 -0.4258
10315SOL    HW131885   6.971   2.446   3.239  0.0843 -1.1875  0.2998
10315SOL    HW231886   7.017   2.566   3.318  1.0113 -0.9834 -0.5334
10316SOL     OW31887   3.565   2.901   2.596  0.2069 -0.2861 -0.1723
10316SOL    HW131888   3.535   2.837   2.531  1.4389 -0.2428 -0.8099
10316SOL    HW231889   3.648   2.933   2.562  1.2888 -0.8391  1.7953
10317SOL     OW31890   0.052   7.243   5.946  0.0802  0.0427 -0.0873
10317SOL    HW131891   0.076   7.164   5.995  0.6532 -0.0748 -0.5402
10317SOL    HW231892   0.072   7.315   6.007  1.7419 -0.0448 -0.4655
10318SOL     OW31893   0.483   2.057   0.247 -0.0882 -0.4562  0.6830
10318SOL    HW131894   0.515   2.139   0.285 -2.1668  1.2799 -1.0115
10318SOL    HW231895   0.415   2.026   0.307  0.8053 -1.0586  1.4035
10319SOL     OW31896   1.153   1.138   1.234 -0.4852 -0.3650 -0.4233
10319SOL    HW131897   1.068   1.135   1.277 -0.9790  1.8911 -1.1248
10319SOL    HW231898   1.205   1.072   1.280 -2.5451 -1.7380  0.0911
10320SOL     OW31899   7.053   5.596   5.705  0.4390  0.1378 -0.0288
10320SOL    HW131900   7.127   5.588   5.765 -0.8940 -0.1415  1.6432
10320SOL    HW231901   7.023   5.686   5.716  0.7363  0.3655 -0.9824
10321SOL     OW31902   4.337   0.488   4.344 -0.2786  0.0761  0.8657
10321SOL    HW131903   4.280   0.412   4.359 -0.8241  0.5579  1.2754
10321SOL    HW231904   4.358   0.520   4.432 -0.1651  0.4851  0.6920
10322SOL     OW31905   1.398   5.167   5.027 -0.1785  0.1967  0.3827
10322SOL    HW131906   1.387   5.173   5.122  0.1069 -1.0383  0.5053
10322SOL    HW231907   1.492   5.176   5.013  0.0631 -1.7130  0.4348
10323SOL     OW31908   2.346   4.299   2.512 -0.6486  0.3289  0.6525
10323SOL    HW131909   2.379   4.323   2.426  0.9688 -0.2729  1.0771
10323SOL    HW231910   2.256   4.334   2.513 -0.5033  0.8680 -1.0276
10324SOL     OW31911   6.738   1.245   7.353 -0.6485  0.5949  0.4271
10324SOL    HW131912   6.695   1.291   7.281  0.0111  1.3164  0.4773
10324SOL    HW231913   6.684   1.167   7.367 -0.4468  0.1240 -1.2323
10325SOL     OW31914   1.692   1.566   2.995  0.0155 -0.1806 -0.0637
10325SOL    HW131915   1.677   1.566   3.090  1.7995  0.3466  0.2626
10325SOL    HW231916   1.605   1.573   2.957 -0.7122  0.0223  1.5424
10326SOL     OW31917   1.291   7.022   1.355  0.9821 -0.1282  0.2733
10326SOL    HW131918   1.294   7.090   1.287  2.5127  0.3517  0.7786
10326SOL    HW231919   1.303   6.940   1.307 -0.6944 -0.0484 -0.3229
10327SOL     OW31920   5.946   4.025   5.218 -0.2428  0.4491 -0.0300
10327SOL    HW131921   5.989   3.939   5.218 -1.1799 -0.0381  0.0959
10327SOL    HW231922   6.015   4.087   5.195  0.6677 -0.2207  0.8350
10328SOL     OW31923   1.993   5.598   2.680  0.1512  0.2119  0.0252
10328SOL    HW131924   1.905   5.587   2.716  0.3241 -0.1318  0.3396
10328SOL    HW231925   1.979   5.602   2.585 -0.0443 -1.6167 -0.0583
10329SOL     OW31926   4.403   6.269   6.924  0.3407  0.9322  0.3704
10329SOL    HW131927   4.391   6.252   7.017 -1.5748  0.3865  0.0689
10329SOL    HW231928   4.430   6.361   6.919  0.1468  1.0530  1.4298
10330SOL     OW31929   1.296   2.070   0.823  0.3329 -0.1552 -0.0262
10330SOL    HW131930   1.213   2.024   0.824 -0.4934  1.2164 -1.4474
10330SOL    HW231931   1.276   2.157   0.858  1.2144  0.1292 -0.2060
10331SOL     OW31932   6.555   2.439   4.863  0.3327 -0.2443 -0.5025
10331SOL    HW131933   6.561   2.356   4.909 -1.3347 -0.3042 -0.3235
10331SOL    HW231934   6.464   2.443   4.833  0.3972  1.4817 -0.5654
10332SOL     OW31935   4.184   6.136   2.951 -0.0515  0.4911  0.4301
10332SOL    HW131936   4.125   6.086   3.008  0.6140 -1.1783 -0.2802
10332SOL    HW231937   4.239   6.185   3.012 -0.5507  0.1575  1.1734
10333SOL     OW31938   1.812   2.152   4.896 -0.2719 -0.3091  0.3079
10333SOL    HW131939   1.759   2.231   4.884 -0.2296 -0.2094  0.7624
10333SOL    HW231940   1.897   2.185   4.927  0.9190 -0.2506 -2.6380
10334SOL     OW31941   0.572   2.192   1.918  0.3371  0.4388 -0.3586
10334SOL    HW131942   0.480   2.209   1.939  0.1777 -0.8644  0.0850
10334SOL    HW231943   0.574   2.181   1.823 -0.1533 -0.5431 -0.2653
10335SOL     OW31944   1.383   1.265   3.051 -0.0796  0.2058 -0.7039
10335SOL    HW131945   1.476   1.278   3.035  0.1756 -0.0092  0.4765
10335SOL    HW231946   1.372   1.288   3.144 -0.7659 -1.9692 -0.2052
10336SOL     OW31947   6.550   0.677   3.054  0.2394 -0.5436 -0.1970
10336SOL    HW131948   6.561   0.583   3.068  0.2981 -0.5107 -0.0209
10336SOL    HW231949   6.601   0.718   3.124 -0.3974 -0.3847  0.1776
10337SOL     OW31950   4.201   2.845   0.085  0.5724 -0.2274  0.4584
10337SOL    HW131951   4.205   2.750   0.074  1.6360 -0.2232  0.6720
10337SOL    HW231952   4.113   2.861   0.118  0.4706 -1.1769  0.6978
10338SOL     OW31953   5.543   1.617   2.765 -0.0662 -0.5740 -0.5312
10338SOL    HW131954   5.636   1.632   2.784 -0.9276  2.1958  2.2738
10338SOL    HW231955   5.525   1.672   2.688  0.1262  1.1027  0.5594
10339SOL     OW31956   5.367   5.110   2.494 -0.1982 -0.8111  0.1226
10339SOL    HW131957   5.381   5.015   2.494 -0.6892 -0.9328  1.9579
10339SOL    HW231958   5.422   5.142   2.565  0.5263  0.3998 -0.9586
10340SOL     OW31959   7.236   0.273   6.917 -0.1454 -0.1191  0.3630
10340SOL    HW131960   7.154   0.320   6.904  0.3970  0.7150 -0.1303
10340SOL    HW231961   7.279   0.276   6.832  1.5177  1.6419  1.1847
10341SOL     OW31962   3.431   4.299   6.004  0.3765 -0.0843 -0.0624
10341SOL    HW131963   3.418   4.337   5.917  1.2832  0.9362  0.2373
10341SOL    HW231964   3.346   4.311   6.047 -0.0364 -0.4619 -0.7352
10342SOL     OW31965   6.031   3.783   3.940 -0.2890  0.5267  0.3103
10342SOL    HW131966   5.948   3.829   3.930 -0.9842 -0.5326  1.0108
10342SOL    HW231967   6.058   3.798   4.030 -0.9874 -1.1262  0.8340
10343SOL     OW31968   4.041   4.079   3.707  0.1888 -0.1468 -0.1193
10343SOL    HW131969   3.960   4.054   3.752 -0.6401  3.1869  0.4805
10343SOL    HW231970   4.110   4.031   3.753 -1.2875 -2.6015 -0.2543
10344SOL     OW31971   3.744   0.107   5.913  0.2533  0.1379  0.0374
10344SOL    HW131972   3.777   0.018   5.910 -0.3001 -0.1116  0.9243
10344SOL    HW231973   3.649   0.098   5.909  0.2178  0.7400 -0.7049
10345SOL     OW31974   4.357   3.070   7.423  0.2730 -0.2839 -0.5244
10345SOL    HW131975   4.290   3.092   7.359  0.1505 -1.4242 -0.8188
10345SOL    HW231976   4.327   2.988   7.463  1.3168 -0.6485 -0.4407
10346SOL     OW31977   3.345   7.255   5.638  0.2513  0.0983  0.1370
10346SOL    HW131978   3.407   7.191   5.602  0.0954 -0.2536  0.4888
10346SOL    HW231979   3.388   7.340   5.625  0.2343 -0.0247 -0.8101
10347SOL     OW31980   4.368   3.779   6.759 -0.6500 -0.2645 -0.3524
10347SOL    HW131981   4.411   3.749   6.839 -0.0941  0.7618 -0.2503
10347SOL    HW231982   4.440   3.811   6.704 -0.9941 -1.1471 -1.3711
10348SOL     OW31983   1.215   2.717   7.093 -0.2298 -0.1840  0.7599
10348SOL    HW131984   1.162   2.649   7.136  0.0081  0.4290  2.0724
10348SOL    HW231985   1.161   2.747   7.021 -1.7938  0.5501  2.1667
10349SOL     OW31986   6.220   2.462   3.834  0.0808  0.6698  0.6154
10349SOL    HW131987   6.249   2.432   3.920  0.4191  0.3039  0.3816
10349SOL    HW231988   6.176   2.385   3.796  1.3636  0.2963 -0.1765
10350SOL     OW31989   1.216   5.507   6.654 -0.1687 -0.3239 -0.2575
10350SOL    HW131990   1.302   5.546   6.639 -0.6784  0.3007 -1.7222
10350SOL    HW231991   1.205   5.508   6.749  1.5233 -0.6109 -0.0323
10351SOL     OW31992   6.039   6.046   7.284  0.2010 -0.1479  0.6124
10351SOL    HW131993   6.022   6.117   7.346  0.0938 -0.6710  1.1843
10351SOL    HW231994   6.082   6.090   7.210  1.0252  0.3817  1.3712
10352SOL     OW31995   1.525   3.350   0.875  0.3662  0.6541  0.1498
10352SOL    HW131996   1.448   3.381   0.828  0.4475 -1.9625 -1.9547
10352SOL    HW231997   1.490   3.297   0.946  0.2384  0.8277  0.2169
10353SOL     OW31998   6.541   2.799   5.590  0.0675  0.0116  0.3629
10353SOL    HW131999   6.456   2.789   5.632 -0.7065 -0.3080 -1.2117
10353SOL    HW232000   6.573   2.884   5.620 -1.1238  0.4526  0.4389
10354SOL     OW32001   5.729   5.203   4.518  0.0522 -0.0882  0.0935
10354SOL    HW132002   5.734   5.161   4.432 -0.8006 -0.4867  0.2206
10354SOL    HW232003   5.638   5.188   4.546  0.1466  0.5859  0.7847
10355SOL     OW32004   7.088   1.281   1.746  1.0721  0.4206  0.2955
10355SOL    HW132005   7.008   1.322   1.780  0.9747  0.0620  0.5072
10355SOL    HW232006   7.134   1.352   1.701  1.2975  0.9495  1.3387
10356SOL     OW32007   3.502   1.413   2.043 -0.8014 -0.1563 -0.0185
10356SOL    HW132008   3.411   1.436   2.022 -0.5595  0.5095 -0.3576
10356SOL    HW232009   3.543   1.496   2.066 -0.2058 -0.4155 -0.1335
10357SOL     OW32010   4.580   6.219   4.556  0.7823 -0.1458 -0.3762
10357SOL    HW132011   4.623   6.141   4.591  1.2231 -0.1511 -0.9268
10357SOL    HW232012   4.612   6.227   4.466  2.4996  1.9038  0.3141
10358SOL     OW32013   5.759   3.404   0.559  0.2084 -0.8168 -1.0852
10358SOL    HW132014   5.741   3.352   0.637  1.3580 -1.6345 -1.3339
10358SOL    HW232015   5.682   3.459   0.548  0.3299 -0.0990  1.0817
10359SOL     OW32016   2.916   1.463   1.261 -0.0377 -0.2563  0.4032
10359SOL    HW132017   2.871   1.543   1.236  0.8603  0.1830  0.1513
10359SOL    HW232018   2.850   1.394   1.251 -0.5630  0.3230 -0.2203
10360SOL     OW32019   1.004   4.740   0.560 -0.2911 -0.3833 -0.0682
10360SOL    HW132020   1.029   4.709   0.473  1.3360 -1.5324  0.7511
10360SOL    HW232021   0.970   4.662   0.605  1.7036 -0.5597  1.2665
10361SOL     OW32022   6.272   1.379   6.240 -0.2849  0.1061  0.0487
10361SOL    HW132023   6.322   1.445   6.191 -0.8178  1.8226  1.6633
10361SOL    HW232024   6.184   1.384   6.204 -0.9190  2.0596  1.6892
10362SOL     OW32025   2.707   2.261   6.987  0.1995 -0.1468 -0.0331
10362SOL    HW132026   2.630   2.304   6.951 -0.7546 -0.8436  1.0858
10362SOL    HW232027   2.701   2.171   6.958 -0.6850 -0.7652  1.9173
10363SOL     OW32028   7.096   3.980   0.673  0.8893  0.2151 -0.3849
10363SOL    HW132029   7.175   3.929   0.693 -0.0117 -1.4728 -0.9166
10363SOL    HW232030   7.047   3.925   0.611 -0.8587  1.0461  0.1880
10364SOL     OW32031   3.281   6.007   2.248 -0.2674  0.3299  0.3229
10364SOL    HW132032   3.265   5.988   2.341  0.5152  1.4132  0.6927
10364SOL    HW232033   3.295   5.921   2.209  0.2400 -0.0841  1.3764
10365SOL     OW32034   7.379   2.627   0.040  0.3626  0.3547  0.0141
10365SOL    HW132035   7.390   2.702   0.098 -0.0055  0.8051 -0.4835
10365SOL    HW232036   7.459   2.576   0.051  0.2940  0.4270  0.9169
10366SOL     OW32037   7.249   4.996   0.161 -0.2216  0.0966 -0.6767
10366SOL    HW132038   7.168   5.014   0.114 -1.6133 -0.4197  1.3722
10366SOL    HW232039   7.250   4.901   0.173 -0.7808  0.3173  1.6514
10367SOL     OW32040   5.949   4.036   1.030  0.5655  0.1646 -0.2007
10367SOL    HW132041   6.040   4.009   1.036  0.9651  0.9725 -1.9807
10367SOL    HW232042   5.900   3.954   1.023  1.2314 -0.2403 -0.1762
10368SOL     OW32043   0.726   0.790   3.905 -0.0630  0.8227  0.4818
10368SOL    HW132044   0.769   0.876   3.898  1.4016  0.2376  1.8189
10368SOL    HW232045   0.711   0.764   3.814  1.6511  1.4636 -0.0332
10369SOL     OW32046   2.307   6.116   3.839  0.5524  0.0089 -0.1141
10369SOL    HW132047   2.389   6.158   3.864  0.6149 -1.2572  1.9638
10369SOL    HW232048   2.239   6.169   3.880  0.4241 -0.0114 -0.2967
10370SOL     OW32049   1.724   0.129   4.532  0.0277 -0.1811  0.2772
10370SOL    HW132050   1.797   0.149   4.590 -1.6276 -2.3838  3.4193
10370SOL    HW232051   1.758   0.063   4.472  0.6661 -1.2021  1.7089
10371SOL     OW32052   5.959   2.040   2.126 -0.1064 -0.6582 -0.0338
10371SOL    HW132053   5.991   2.127   2.151 -0.8356 -0.1440 -0.8357
10371SOL    HW232054   5.876   2.031   2.172 -1.9218  0.6720 -2.7917
10372SOL     OW32055   3.931   6.319   6.702  0.3850  0.0028  0.4609
10372SOL    HW132056   4.016   6.363   6.695  0.3501 -0.1682 -1.9432
10372SOL    HW232057   3.869   6.390   6.717  0.8634  0.2025  1.5605
10373SOL     OW32058   6.100   0.962   3.447 -0.1560 -0.1104  0.3968
10373SOL    HW132059   6.194   0.976   3.451 -0.1556 -0.2107  0.7611
10373SOL    HW232060   6.069   0.982   3.535 -0.6165  0.9864  0.0075
10374SOL     OW32061   5.016   1.063   5.841 -0.8484 -0.3835 -0.3534
10374SOL    HW132062   4.946   0.998   5.841 -0.4750 -0.7966 -0.0578
10374SOL    HW232063   4.987   1.130   5.902 -0.2855 -1.3412  1.0067
10375SOL     OW32064   6.558   4.078   6.268 -0.5995  0.2278  0.3023
10375SOL    HW132065   6.519   4.023   6.336 -0.8796 -0.1302 -0.1413
10375SOL    HW232066   6.494   4.077   6.197 -0.2066  0.4088 -0.0597
10376SOL     OW32067   0.072   7.357   6.785  0.0837  0.3976  0.0724
10376SOL    HW132068   0.074   7.397   6.872 -0.7998  0.8030 -0.0777
10376SOL    HW232069   0.164   7.340   6.764  0.2164 -1.0974  1.6936
10377SOL     OW32070   3.904   2.064   0.112 -0.3174  0.0688 -0.1010
10377SOL    HW132071   3.871   2.050   0.023  0.5478  0.4214 -0.4949
10377SOL    HW232072   3.839   2.120   0.154 -1.1566 -0.7820 -0.2284
10378SOL     OW32073   2.575   3.540   3.318  0.2034 -0.4612  0.2732
10378SOL    HW132074   2.584   3.630   3.351  1.1918  0.2464 -1.7256
10378SOL    HW232075   2.487   3.513   3.344  0.3568  0.5974  2.0253
10379SOL     OW32076   7.006   4.179   0.828  0.2747  0.0323 -0.3869
10379SOL    HW132077   7.022   4.135   0.911  1.2192  1.8048  0.4284
10379SOL    HW232078   7.045   4.123   0.762  1.5978 -0.2748  0.6258
10380SOL     OW32079   4.852   1.580   4.902 -0.5794 -0.3131  0.1530
10380SOL    HW132080   4.886   1.501   4.945 -0.4073  0.1085  0.7996
10380SOL    HW232081   4.877   1.569   4.810  0.7205 -0.3449  0.4814
10381SOL     OW32082   3.529   4.979   6.277 -0.3710 -0.0283 -0.1651
10381SOL    HW132083   3.574   4.927   6.343 -0.5522 -1.4864 -1.1555
10381SOL    HW232084   3.437   4.977   6.304 -0.6170 -1.5665 -1.0315
10382SOL     OW32085   0.662   5.975   3.533  0.6138  0.4259 -0.0303
10382SOL    HW132086   0.595   5.922   3.490 -0.3714  0.8904  0.8786
10382SOL    HW232087   0.658   5.948   3.625 -0.5546  2.6325  0.6557
10383SOL     OW32088   0.015   3.263   4.058  0.6562 -0.1899  0.2816
10383SOL    HW132089  -0.007   3.238   4.148 -1.0445  1.6775  0.4693
10383SOL    HW232090   0.043   3.354   4.066  0.0381  0.1421 -1.1226
10384SOL     OW32091   1.708   3.663   0.408  0.1406  0.1068  0.0492
10384SOL    HW132092   1.779   3.724   0.430  0.4022  1.1738 -3.2401
10384SOL    HW232093   1.628   3.711   0.432  0.3975  1.1965 -1.1453
10385SOL     OW32094   4.556   5.060   7.346  0.1775 -0.5249 -0.2129
10385SOL    HW132095   4.560   5.016   7.431 -0.1134 -0.2333 -0.0462
10385SOL    HW232096   4.619   5.132   7.353  0.6506 -0.9036 -0.4838
10386SOL     OW32097   7.188   5.815   2.165  0.2185 -0.1573  0.6309
10386SOL    HW132098   7.106   5.864   2.160  0.9428  0.9884 -0.9820
10386SOL    HW232099   7.174   5.739   2.110 -0.1565 -0.5999  1.3305
10387SOL     OW32100   5.684   5.446   6.129  0.1428  0.2987 -0.0203
10387SOL    HW132101   5.774   5.447   6.162 -0.0587  1.1427  0.5383
10387SOL    HW232102   5.629   5.447   6.207 -0.3792 -0.9317 -0.3410
10388SOL     OW32103   2.505   2.631   1.155  0.1098 -0.2138 -0.1009
10388SOL    HW132104   2.448   2.695   1.197 -0.7100 -0.6025 -0.5974
10388SOL    HW232105   2.583   2.628   1.210 -0.2810  0.4455  0.4969
10389SOL     OW32106   3.355   3.443   0.552  0.4831  0.1291 -0.9162
10389SOL    HW132107   3.349   3.349   0.535 -0.3426  0.2317 -1.2317
10389SOL    HW232108   3.449   3.460   0.559  0.7347 -0.4038 -2.6704
10390SOL     OW32109   0.123   4.717   3.122  0.3765  0.1329 -0.9125
10390SOL    HW132110   0.035   4.751   3.137  0.9940  1.6283 -0.5877
10390SOL    HW232111   0.169   4.787   3.076  1.4723 -0.5460 -0.8952
10391SOL     OW32112   3.563   0.932   5.481  0.3666 -0.0681 -0.1104
10391SOL    HW132113   3.639   0.882   5.510  1.8014  1.1066 -1.6477
10391SOL    HW232114   3.527   0.880   5.409 -0.9485 -1.1109  1.2263
10392SOL     OW32115   7.203   1.737   2.118  0.3470 -0.0015  0.0187
10392SOL    HW132116   7.123   1.771   2.080  0.9011 -0.6276 -1.8227
10392SOL    HW232117   7.174   1.671   2.181 -0.6122 -0.6827 -1.0914
10393SOL     OW32118   2.219   1.500   1.352  0.3605  0.0293  0.2430
10393SOL    HW132119   2.261   1.584   1.369 -0.5078  0.2044  1.8217
10393SOL    HW232120   2.289   1.442   1.324  1.3495  0.7360  1.1938
10394SOL     OW32121   4.222   1.900   6.285  0.0914 -0.3649  0.1451
10394SOL    HW132122   4.301   1.865   6.326 -0.8086 -0.1580  2.1834
10394SOL    HW232123   4.212   1.988   6.322 -1.0273 -0.3488 -0.1590
10395SOL     OW32124   3.453   2.742   7.341  1.2421  0.3411 -0.6053
10395SOL    HW132125   3.426   2.816   7.286 -0.3976  0.9695  0.9436
10395SOL    HW232126   3.482   2.782   7.423  0.8216 -0.6997  0.0762
10396SOL     OW32127   7.166   0.248   3.566 -0.1954  0.2458  0.5918
10396SOL    HW132128   7.205   0.192   3.633 -0.5591 -0.1287  0.4956
10396SOL    HW232129   7.072   0.245   3.585 -0.2640  0.4396  0.2894
10397SOL     OW32130   6.006   1.250   5.893 -0.2506 -0.8969 -0.0728
10397SOL    HW132131   5.945   1.310   5.935  0.2774 -0.4982  0.1339
10397SOL    HW232132   5.997   1.268   5.799 -0.6458 -1.0340 -0.0638
10398SOL     OW32133   3.295   2.428   4.199 -0.1657  0.4314  0.4420
10398SOL    HW132134   3.230   2.497   4.183 -0.6293 -0.3934 -1.6358
10398SOL    HW232135   3.317   2.395   4.111  1.5577 -0.6914  1.2351
10399SOL     OW32136   2.268   6.766   4.345 -0.1301  0.0503 -0.4443
10399SOL    HW132137   2.231   6.760   4.433  2.5418 -1.2387  0.6987
10399SOL    HW232138   2.222   6.699   4.294 -1.3506  0.4739  0.0632
10400SOL     OW32139   2.512   1.030   6.462  0.0039  0.4709  0.2271
10400SOL    HW132140   2.543   0.939   6.463 -1.2885  0.0073  1.0665
10400SOL    HW232141   2.499   1.050   6.369 -1.2740 -0.7874  0.1077
10401SOL     OW32142   4.705   6.024   2.487  0.3996 -0.3082  0.4640
10401SOL    HW132143   4.801   6.032   2.480  0.3666  0.9117  1.1071
10401SOL    HW232144   4.677   5.996   2.400  1.3779 -1.1332  0.3954
10402SOL     OW32145   2.521   5.176   5.053 -0.1368 -0.4290 -0.0562
10402SOL    HW132146   2.587   5.243   5.064  1.9165 -2.4740  0.9630
10402SOL    HW232147   2.568   5.093   5.065 -1.9249 -2.2874 -4.0101
10403SOL     OW32148   2.561   3.850   3.125 -0.2893 -0.3260  0.3244
10403SOL    HW132149   2.496   3.868   3.057 -1.4251 -1.8477  0.9643
10403SOL    HW232150   2.579   3.936   3.164  1.4053  0.8557 -2.6930
10404SOL     OW32151   2.092   4.689   1.688 -0.0038  0.3061  0.3502
10404SOL    HW132152   2.017   4.629   1.681 -1.2267  1.7475  0.6929
10404SOL    HW232153   2.135   4.665   1.770 -0.6846  0.1435  0.6595
10405SOL     OW32154   6.482   4.525   6.742  0.0636  0.6013 -0.2986
10405SOL    HW132155   6.489   4.527   6.646  1.5741 -0.0270 -0.2241
10405SOL    HW232156   6.524   4.442   6.767  0.7123  1.2881  0.9805
10406SOL     OW32157   6.388   4.604   4.766  0.2582  0.3121  0.0719
10406SOL    HW132158   6.447   4.547   4.717 -0.0753 -0.0581  0.1022
10406SOL    HW232159   6.301   4.570   4.748  0.1168  0.3253  0.7220
10407SOL     OW32160   7.419   2.973   0.437  0.3599  0.0412  0.0726
10407SOL    HW132161   7.434   2.893   0.487  0.7191  1.4826  2.4600
10407SOL    HW232162   7.412   3.041   0.504 -0.7372  1.8947 -1.8207
10408SOL     OW32163   4.006   5.264   0.018 -0.2992  0.0016 -0.3357
10408SOL    HW132164   4.010   5.354  -0.016 -1.6866  0.7663  1.3269
10408SOL    HW232165   4.069   5.262   0.089 -0.9430 -0.0193  0.2503
10409SOL     OW32166   5.880   3.179   2.188 -0.0724  0.5252  0.3939
10409SOL    HW132167   5.809   3.242   2.194  1.2285  2.6561 -3.3726
10409SOL    HW232168   5.959   3.230   2.207  0.9498  0.0297 -2.0806
10410SOL     OW32169   6.612   4.105   2.887 -0.2342  0.4865  0.1111
10410SOL    HW132170   6.540   4.048   2.862 -0.7803 -0.1553  2.8613
10410SOL    HW232171   6.624   4.163   2.812 -2.9704 -0.0074 -0.8012
10411SOL     OW32172   6.353   0.903   6.462  0.3877  0.2025 -0.0241
10411SOL    HW132173   6.323   0.975   6.406  1.3443  0.1639 -0.6157
10411SOL    HW232174   6.337   0.934   6.551  1.6283  1.5888 -0.2303
10412SOL     OW32175   1.154   3.125   3.201 -0.1271  0.0019  0.2771
10412SOL    HW132176   1.113   3.050   3.159  0.4246 -0.0145 -0.2391
10412SOL    HW232177   1.149   3.106   3.295  0.1197 -0.7320  0.1410
10413SOL     OW32178   4.498   2.506   6.862  0.4449 -0.2521  0.4656
10413SOL    HW132179   4.454   2.428   6.829 -0.0244  0.1442  0.1315
10413SOL    HW232180   4.505   2.493   6.956  1.0115 -1.0151  0.3207
10414SOL     OW32181   6.988   5.533   1.474  0.1435 -0.1819  0.3060
10414SOL    HW132182   6.907   5.581   1.460  1.3726  2.2244  0.9240
10414SOL    HW232183   6.975   5.489   1.558 -0.2600  0.8250  0.7909
10415SOL     OW32184   3.002   0.037   2.659 -0.3976  0.2396 -0.2830
10415SOL    HW132185   3.082   0.025   2.608 -0.0715  0.0320  0.2677
10415SOL    HW232186   3.026   0.011   2.748 -1.0465  0.2858 -0.0881
10416SOL     OW32187   1.857   6.232   4.431 -0.4204 -0.2198 -0.0169
10416SOL    HW132188   1.869   6.323   4.403  0.6847 -0.6837 -1.1860
10416SOL    HW232189   1.918   6.221   4.504 -0.0414 -0.2058 -0.3289
10417SOL     OW32190   5.067   6.272   3.563 -0.4659  0.4659 -0.3462
10417SOL    HW132191   5.144   6.320   3.531 -0.0252 -0.7623 -1.1887
10417SOL    HW232192   4.994   6.306   3.511 -0.7622  2.4383  1.2048
10418SOL     OW32193   4.397   5.487   0.987  0.1134  0.0696 -0.5911
10418SOL    HW132194   4.486   5.521   0.980  0.0593  0.0496 -1.6761
10418SOL    HW232195   4.344   5.553   0.941 -0.3434 -0.2011 -0.4513
10419SOL     OW32196   7.340   1.349   5.452  0.6666 -0.6393 -0.4705
10419SOL    HW132197   7.317   1.290   5.381  1.4910  0.6552 -1.8496
10419SOL    HW232198   7.354   1.434   5.410  1.5449  0.0778  1.1736
10420SOL     OW32199   6.707   0.401   6.148  0.3164 -0.0682 -0.0611
10420SOL    HW132200   6.744   0.397   6.237  0.5043 -0.1273 -0.1423
10420SOL    HW232201   6.723   0.314   6.112 -1.0480 -0.5075  0.3589
10421SOL     OW32202   3.862   4.535   2.789  0.5518  0.5403 -0.0831
10421SOL    HW132203   3.871   4.620   2.831  2.1211 -0.2682  1.3548
10421SOL    HW232204   3.790   4.492   2.835  0.2847  0.7812 -0.2735
10422SOL     OW32205   0.616   0.503   5.241  0.2913 -0.5836  0.1266
10422SOL    HW132206   0.562   0.425   5.239  0.2194 -0.6295  1.8861
10422SOL    HW232207   0.701   0.472   5.272  0.3102  0.0015  0.6729
10423SOL     OW32208   4.989   0.690   4.720  0.1644  0.2065  0.2871
10423SOL    HW132209   4.980   0.760   4.785 -1.8329 -1.4587  1.9387
10423SOL    HW232210   4.969   0.609   4.769  0.3715 -1.3242 -2.0056
10424SOL     OW32211   1.323   7.053   6.454 -0.0381 -0.1060 -0.2646
10424SOL    HW132212   1.246   7.094   6.492 -0.3156 -0.2630 -0.6638
10424SOL    HW232213   1.395   7.114   6.473 -0.4592  0.6119 -0.9413
10425SOL     OW32214   2.319   1.641   3.429 -0.0577 -0.8211 -0.4141
10425SOL    HW132215   2.257   1.637   3.357 -0.1064  0.6774 -0.4708
10425SOL    HW232216   2.405   1.645   3.387 -0.0580 -0.4724 -0.3832
10426SOL     OW32217   4.030   6.709   1.766 -0.2451  0.1696  0.6056
10426SOL    HW132218   4.021   6.615   1.752  1.3143  0.0411  0.1945
10426SOL    HW232219   4.077   6.716   1.850  1.0262  0.4981 -0.1093
10427SOL     OW32220   7.303   6.982   5.884  0.1853  0.9636 -0.1889
10427SOL    HW132221   7.363   7.008   5.953 -2.4022  0.0372  2.6388
10427SOL    HW232222   7.239   7.052   5.880 -1.0352 -0.0871  0.1422
10428SOL     OW32223   2.928   4.419   0.266 -0.5225 -0.0925 -0.7140
10428SOL    HW132224   2.904   4.482   0.199 -0.7704  0.7210  0.1177
10428SOL    HW232225   2.854   4.358   0.269 -0.9666  0.4482 -0.4937
10429SOL     OW32226   3.022   5.815   2.293  0.3387 -0.1059  0.3773
10429SOL    HW132227   2.995   5.897   2.335 -0.1985 -0.2949  0.4093
10429SOL    HW232228   2.999   5.827   2.201  0.5840 -0.0832  0.3198
10430SOL     OW32229   1.144   3.575   4.668  0.3695 -0.0461 -0.0043
10430SOL    HW132230   1.235   3.586   4.641  0.1084  2.1120 -0.1586
10430SOL    HW232231   1.146   3.498   4.725  2.1455 -0.5047 -0.6128
10431SOL     OW32232   3.598   0.281   2.951  0.0517  0.0051  0.5306
10431SOL    HW132233   3.630   0.368   2.930 -0.3410  0.2953  1.1017
10431SOL    HW232234   3.630   0.225   2.880  1.5377  0.3352  0.9024
10432SOL     OW32235   2.571   1.426   6.759  0.6471  0.0832 -0.2962
10432SOL    HW132236   2.598   1.344   6.717 -0.0803 -0.9444  1.1377
10432SOL    HW232237   2.564   1.489   6.688  0.3891 -1.3227 -1.5624
10433SOL     OW32238   7.122   6.778   3.902  0.0395 -0.3934  0.1683
10433SOL    HW132239   7.194   6.775   3.965  0.0756  0.0761  0.1523
10433SOL    HW232240   7.157   6.733   3.825 -0.1548 -1.3588  0.6210
10434SOL     OW32241   7.257   5.649   1.451 -0.4168  0.1202  0.0825
10434SOL    HW132242   7.217   5.564   1.470  0.2573 -0.3611 -0.5872
10434SOL    HW232243   7.302   5.673   1.531 -2.7866  1.1302  1.1970
10435SOL     OW32244   6.841   4.519   2.987 -0.1688  0.7958 -0.7464
10435SOL    HW132245   6.793   4.569   3.053 -0.5299  0.8286 -1.0321
10435SOL    HW232246   6.778   4.505   2.917 -0.6544 -1.5478  0.0583
10436SOL     OW32247   0.922   5.436   3.216  0.0770  0.9807  0.3822
10436SOL    HW132248   1.006   5.436   3.171  0.1058 -1.3279  0.3050
10436SOL    HW232249   0.944   5.455   3.308  0.8488 -0.4524  0.5277
10437SOL     OW32250   3.286   3.914   4.632  0.0147 -0.6013 -0.1944
10437SOL    HW132251   3.265   4.006   4.620  2.0975 -0.2371 -1.6056
10437SOL    HW232252   3.308   3.882   4.544  0.7087 -2.0525  0.4619
10438SOL     OW32253   4.345   3.136   3.642 -0.3154  0.1295  0.1449
10438SOL    HW132254   4.383   3.066   3.695 -0.2374  1.1874  1.5281
10438SOL    HW232255   4.389   3.128   3.558  0.5965 -0.7051  0.6742
10439SOL     OW32256   4.985   6.717   1.440  0.1265 -0.0737  0.0580
10439SOL    HW132257   4.912   6.717   1.378 -1.3975 -0.1219  1.7564
10439SOL    HW232258   5.016   6.626   1.442 -1.6823 -0.7240  1.3706
10440SOL     OW32259   6.967   2.029   1.634 -0.1573  0.7011 -0.0504
10440SOL    HW132260   6.920   1.992   1.559  3.0059  0.0939 -1.9158
10440SOL    HW232261   7.041   2.075   1.595  0.0140  2.8997  2.6236
10441SOL     OW32262   4.796   3.748   6.249 -0.5331  0.8208 -0.5463
10441SOL    HW132263   4.759   3.660   6.244  0.0833  0.4199  1.2346
10441SOL    HW232264   4.847   3.748   6.330  1.9613  1.8798 -1.9974
10442SOL     OW32265   6.795   7.246   6.867 -0.2902  0.7682  0.2963
10442SOL    HW132266   6.826   7.220   6.781 -0.2676  0.3852  0.4203
10442SOL    HW232267   6.701   7.229   6.865  0.1274 -2.1064  1.3525
10443SOL     OW32268   4.127   5.815   6.375  0.1640  0.4698  0.8660
10443SOL    HW132269   4.170   5.897   6.400  0.2900  0.7829 -0.3280
10443SOL    HW232270   4.037   5.842   6.352  0.1183  0.2246  0.7616
10444SOL     OW32271   2.692   4.367   5.494  0.3800  0.0468 -0.1609
10444SOL    HW132272   2.778   4.331   5.516  0.9030  0.9533 -0.6438
10444SOL    HW232273   2.686   4.448   5.545  1.8692  2.5200 -3.4718
10445SOL     OW32274   4.176   6.001   3.496 -0.0145 -0.0458 -0.1210
10445SOL    HW132275   4.269   5.994   3.477 -0.4130  0.2853 -2.5370
10445SOL    HW232276   4.169   5.986   3.590  2.3431 -1.1027 -0.0555
10446SOL     OW32277   0.228   2.707   3.247  0.1701  0.5003 -0.3598
10446SOL    HW132278   0.291   2.773   3.219 -0.0378  0.3800 -1.1475
10446SOL    HW232279   0.262   2.674   3.330  0.2054  1.6924  0.1188
10447SOL     OW32280   1.970   6.112   0.571  0.2465  0.2488  0.3330
10447SOL    HW132281   1.966   6.033   0.624 -2.2914 -1.3153 -1.9527
10447SOL    HW232282   2.055   6.108   0.527  0.5617 -0.6715  0.9963
10448SOL     OW32283   6.880   6.638   5.766  0.2949 -0.0421  0.2682
10448SOL    HW132284   6.840   6.586   5.696 -0.8939  0.3341  0.6358
10448SOL    HW232285   6.810   6.698   5.794  1.4359  1.3360  0.2673
10449SOL     OW32286   1.651   2.656   4.815  0.0682 -0.4087 -0.2119
10449SOL    HW132287   1.600   2.695   4.744 -0.4537 -1.7252 -0.5803
10449SOL    HW232288   1.733   2.706   4.816  0.5206 -0.9989 -2.4209
10450SOL     OW32289   6.910   5.900   6.995  0.2739  0.0528 -0.5034
10450SOL    HW132290   6.892   5.864   6.908 -0.3412 -1.8718  0.3609
10450SOL    HW232291   6.931   5.823   7.049 -1.2996  0.9423  1.5183
10451SOL     OW32292   5.358   2.941   3.910 -0.4879 -0.8160  0.4061
10451SOL    HW132293   5.294   2.971   3.844  0.0367  0.0288  0.2576
10451SOL    HW232294   5.443   2.960   3.870 -0.1637 -0.1146  1.4014
10452SOL     OW32295   2.843   3.277   6.081 -0.2371  0.4133 -1.2049
10452SOL    HW132296   2.819   3.297   5.990 -0.7151 -0.6037 -1.3086
10452SOL    HW232297   2.880   3.189   6.077  0.5231  0.6900 -0.5349
10453SOL     OW32298   1.644   5.982   5.029  0.7003  0.1610  0.0597
10453SOL    HW132299   1.580   5.914   5.051  1.2559 -0.5117 -0.3636
10453SOL    HW232300   1.591   6.060   5.012  0.0030 -0.3494 -0.1582
10454SOL     OW32301   0.068   4.503   5.859 -0.2235 -0.0778 -0.1903
10454SOL    HW132302   0.022   4.503   5.775  1.7416  1.2807 -1.3557
10454SOL    HW232303   0.104   4.415   5.867  1.5107  0.4066 -1.9766
10455SOL     OW32304   3.133   2.729   3.063 -0.2133 -0.1390 -0.2701
10455SOL    HW132305   3.146   2.807   3.008 -1.7082 -0.0365 -0.5233
10455SOL    HW232306   3.214   2.721   3.113 -0.0697  1.6444 -0.1578
10456SOL     OW32307   3.447   6.898   1.882  0.2017  0.1359 -0.0763
10456SOL    HW132308   3.364   6.896   1.929  0.0496  0.1877 -0.3369
10456SOL    HW232309   3.429   6.950   1.804 -0.0832 -1.5829 -1.1966
10457SOL     OW32310   5.652   0.450   5.550  0.1069 -0.0311 -0.2400
10457SOL    HW132311   5.643   0.435   5.644 -0.1475  0.5438 -0.1720
10457SOL    HW232312   5.743   0.475   5.538  0.2545 -0.5463 -0.2084
10458SOL     OW32313   3.691   3.975   6.628 -0.1065  0.2008  0.1449
10458SOL    HW132314   3.596   3.983   6.619 -0.3926 -1.4071  1.3679
10458SOL    HW232315   3.715   4.044   6.690 -0.8761 -0.9751  1.8197
10459SOL     OW32316   6.338   0.039   4.703  0.5615 -0.1233 -0.4585
10459SOL    HW132317   6.250   0.074   4.692  0.6555  0.6215  0.8958
10459SOL    HW232318   6.330  -0.054   4.683 -1.0605 -0.5424  1.7764
10460SOL     OW32319   7.312   7.348   5.456  0.1330  0.4302  0.1718
10460SOL    HW132320   7.392   7.298   5.445  0.5291  1.2028 -0.4713
10460SOL    HW232321   7.304   7.361   5.551  0.3229 -0.3498  0.2962
10461SOL     OW32322   2.320   0.451   0.240 -0.1372  0.3698 -0.2890
10461SOL    HW132323   2.232   0.475   0.209 -0.2738  0.8053  0.4021
10461SOL    HW232324   2.305   0.415   0.328  0.1132 -1.8654 -1.0964
10462SOL     OW32325   6.799   5.507   3.712  0.5958 -0.8136 -0.2936
10462SOL    HW132326   6.743   5.448   3.763  0.5365 -0.7646 -0.3017
10462SOL    HW232327   6.886   5.499   3.752  0.1501  0.7108  1.0904
10463SOL     OW32328   4.938   4.319   4.197  0.1168  0.2149 -0.0308
10463SOL    HW132329   4.886   4.272   4.262  0.1891 -2.0450 -1.5250
10463SOL    HW232330   4.909   4.410   4.205 -1.4602 -0.3696  1.6240
10464SOL     OW32331   1.818   6.991   2.257  0.2178 -0.3059  0.4561
10464SOL    HW132332   1.861   7.021   2.337  0.6534 -1.1477  0.5500
10464SOL    HW232333   1.875   7.022   2.187  0.2035 -0.1646  0.5070
10465SOL     OW32334   4.759   1.725   3.512  0.0079  0.4012 -0.3284
10465SOL    HW132335   4.716   1.768   3.585  1.8610 -0.4459  1.3631
10465SOL    HW232336   4.756   1.632   3.533 -0.6166 -0.0092 -2.0513
10466SOL     OW32337   6.282   0.922   6.803  0.4454  0.3819  0.2385
10466SOL    HW132338   6.376   0.930   6.793  0.3409  0.5743 -0.6076
10466SOL    HW232339   6.263   0.830   6.782  0.2465  0.7480 -1.2910
10467SOL     OW32340   5.360   5.877   2.257  0.2824 -0.8994 -0.1154
10467SOL    HW132341   5.309   5.903   2.180  0.6215  1.1259  0.3062
10467SOL    HW232342   5.295   5.849   2.321 -0.1120 -0.9371 -0.5325
10468SOL     OW32343   1.548   6.523   5.074 -0.0845 -0.2551 -0.1845
10468SOL    HW132344   1.575   6.431   5.078  0.4695 -0.0571  0.9520
10468SOL    HW232345   1.620   6.572   5.114  0.8658  0.9954 -3.1335
10469SOL     OW32346   3.255   3.367   2.468  0.2603 -0.1271 -0.6911
10469SOL    HW132347   3.188   3.325   2.522 -0.6926  0.5725 -1.2937
10469SOL    HW232348   3.236   3.460   2.475  2.4039  0.2631  0.6962
10470SOL     OW32349   5.644   4.326   6.981 -0.5845 -0.0750 -0.1416
10470SOL    HW132350   5.556   4.293   6.963 -0.9365  0.9654 -0.4121
10470SOL    HW232351   5.686   4.256   7.031 -2.1512  0.1255  1.5619
10471SOL     OW32352   3.109   0.510   3.970  0.0073  0.1135 -0.6885
10471SOL    HW132353   3.148   0.426   3.995 -0.0217  0.3639  0.2047
10471SOL    HW232354   3.106   0.506   3.874 -0.2564 -1.0254 -0.6544
10472SOL     OW32355   7.080   4.776   5.162  0.4600  0.1604  0.0398
10472SOL    HW132356   7.100   4.682   5.154 -0.5262 -0.0857  0.2991
10472SOL    HW232357   7.142   4.819   5.103  0.5694 -0.7038 -0.4950
10473SOL     OW32358   5.941   5.369   2.327  0.4161 -0.5286 -0.2701
10473SOL    HW132359   5.918   5.326   2.410  0.2933 -1.3797 -0.7293
10473SOL    HW232360   5.929   5.300   2.261  2.0812 -0.3352 -0.8038
10474SOL     OW32361   1.079   2.606   0.110  0.1189  0.3114 -0.2428
10474SOL    HW132362   1.125   2.523   0.121  1.5547  0.8300 -1.8859
10474SOL    HW232363   1.112   2.661   0.181 -1.0899 -0.5530  1.0637
10475SOL     OW32364   4.535   4.933   3.202 -0.3549 -0.5050 -0.1397
10475SOL    HW132365   4.511   5.014   3.246 -1.1897 -1.0990  0.5264
10475SOL    HW232366   4.485   4.934   3.120 -0.5437 -0.4577 -0.0231
10476SOL     OW32367   4.530   1.276   5.920 -0.8910 -0.0291  0.0215
10476SOL    HW132368   4.502   1.224   5.845 -0.7299 -1.7791  1.1171
10476SOL    HW232369   4.461   1.342   5.931 -1.6122 -0.6285 -0.8130
10477SOL     OW32370   2.236   1.224   2.132 -0.3181 -0.1418  0.4552
10477SOL    HW132371   2.310   1.186   2.085 -0.6626  1.0985 -1.1410
10477SOL    HW232372   2.269   1.306   2.167 -0.7306  0.0553  0.3878
10478SOL     OW32373   3.553   4.263   1.687 -0.0240  0.3751  0.6850
10478SOL    HW132374   3.509   4.244   1.603  1.7276 -1.7594  0.1548
10478SOL    HW232375   3.598   4.346   1.672  0.6055 -0.1752 -0.6794
10479SOL     OW32376   4.907   6.879   6.124  0.1423 -0.7128  0.3366
10479SOL    HW132377   4.939   6.958   6.168 -0.7172 -0.4910  0.5958
10479SOL    HW232378   4.983   6.845   6.077  1.0127 -0.7881  1.7395
10480SOL     OW32379   2.691   1.457   1.634  0.4771  0.2337  0.5668
10480SOL    HW132380   2.774   1.489   1.599 -0.2247  2.4571  0.7910
10480SOL    HW232381   2.624   1.494   1.577 -0.4200 -1.2492  0.5956
10481SOL     OW32382   4.078   6.664   0.336  0.6068  0.4126 -0.1595
10481SOL    HW132383   4.080   6.569   0.333 -0.4304  0.3969 -0.9228
10481SOL    HW232384   4.154   6.688   0.389  1.1258 -0.8140 -0.3176
10482SOL     OW32385   3.812   0.538   3.254  0.1515 -0.3072 -0.5902
10482SOL    HW132386   3.854   0.594   3.320  1.3086  0.2695 -1.7697
10482SOL    HW232387   3.736   0.589   3.225  0.7581  0.3340 -1.0960
10483SOL     OW32388   4.958   2.016   1.668 -0.1979  0.5400  0.5779
10483SOL    HW132389   4.992   1.933   1.703 -1.6984 -1.1055 -1.5760
10483SOL    HW232390   5.030   2.050   1.614  0.0930  0.1455  0.7048
10484SOL     OW32391   6.108   3.816   3.220  0.0321 -0.0774 -0.2759
10484SOL    HW132392   6.079   3.765   3.145 -0.2493  0.7160 -0.7137
10484SOL    HW232393   6.058   3.898   3.216  0.1264  0.0483  0.6814
10485SOL     OW32394   7.016   0.097   0.142  0.0979 -0.0934 -0.0539
10485SOL    HW132395   6.932   0.134   0.116 -0.7094 -0.4598  1.8273
10485SOL    HW232396   7.002   0.003   0.146  0.1645 -0.0749  1.5150
10486SOL     OW32397   3.064   3.489   5.282 -0.0856  0.1068  0.5366
10486SOL    HW132398   3.126   3.556   5.255  0.5990 -0.3471  0.9449
10486SOL    HW232399   3.110   3.440   5.351 -0.7723 -0.4362  0.6200
10487SOL     OW32400   1.381   2.543   0.376 -0.1795  0.3990  0.0177
10487SOL    HW132401   1.390   2.581   0.463 -0.5756 -0.1827  0.3236
10487SOL    HW232402   1.365   2.450   0.392 -2.2362  0.6050 -0.6091
10488SOL     OW32403   4.393   2.867   5.019 -0.3292  0.1287  0.0036
10488SOL    HW132404   4.352   2.888   4.935  0.0962  1.9712  0.2265
10488SOL    HW232405   4.319   2.852   5.078 -0.6448 -1.9927 -0.8322
10489SOL     OW32406   5.080   6.890   2.982 -0.3821 -0.3521 -0.7935
10489SOL    HW132407   5.100   6.857   2.895 -1.1946 -1.7314 -0.4961
10489SOL    HW232408   5.017   6.827   3.017 -0.5444  0.5193  0.5531
10490SOL     OW32409   4.286   4.213   2.462  0.0841  0.1187  0.9515
10490SOL    HW132410   4.204   4.200   2.510 -0.8817  1.2804 -0.2992
10490SOL    HW232411   4.291   4.139   2.402 -0.5310  0.5089  0.4048
10491SOL     OW32412   6.783   1.093   2.259 -0.1731  0.3737  0.0754
10491SOL    HW132413   6.728   1.066   2.333 -1.6257  1.6190 -0.4974
10491SOL    HW232414   6.741   1.055   2.182  0.9860 -0.4103 -0.1951
10492SOL     OW32415   4.202   6.896   1.595  0.3014  0.0669  0.5458
10492SOL    HW132416   4.188   6.979   1.641  1.9735 -0.7837  2.7542
10492SOL    HW232417   4.127   6.842   1.620  0.2169  0.2537  0.6955
10493SOL     OW32418   5.735   0.520   7.063 -0.3423  0.5114 -0.2551
10493SOL    HW132419   5.746   0.451   6.999  0.8002  0.5153 -0.0965
10493SOL    HW232420   5.648   0.556   7.046 -0.0408  0.5544 -1.8344
10494SOL     OW32421   2.613   4.397   7.328 -0.1542  0.5310 -0.3914
10494SOL    HW132422   2.628   4.423   7.237  0.4171  1.1256 -0.1293
10494SOL    HW232423   2.698   4.365   7.358 -0.6431 -0.9423 -0.4612
10495SOL     OW32424   0.754   6.151   0.379 -0.3921  0.3967 -0.0614
10495SOL    HW132425   0.761   6.164   0.284 -1.2238  1.9156  0.0516
10495SOL    HW232426   0.670   6.191   0.402 -0.0016  0.4405  1.3759
10496SOL     OW32427   3.770   3.538   3.963  0.1802 -0.4203  0.0695
10496SOL    HW132428   3.770   3.565   4.055  1.7576 -0.9908  0.2623
10496SOL    HW232429   3.739   3.447   3.965 -0.2890 -0.2648 -0.0274
10497SOL     OW32430   1.327   4.673   1.371 -0.2441 -0.6125  0.1841
10497SOL    HW132431   1.416   4.640   1.360  0.1096  0.0598  0.9362
10497SOL    HW232432   1.338   4.760   1.409 -1.1945 -0.0176 -0.8404
10498SOL     OW32433   3.469   1.316   3.723 -0.2162  0.5032  0.0188
10498SOL    HW132434   3.377   1.326   3.748 -0.0974  2.9260 -0.3298
10498SOL    HW232435   3.469   1.322   3.628  0.2143 -0.5047 -0.0573
10499SOL     OW32436   6.179   5.494   0.414  0.1219 -0.0850 -0.0262
10499SOL    HW132437   6.119   5.567   0.433 -0.1242 -0.4008  0.4338
10499SOL    HW232438   6.234   5.488   0.492  1.3582  0.7659 -0.7893
10500SOL     OW32439   3.637   1.126   6.054  0.2827 -0.1559  0.7370
10500SOL    HW132440   3.571   1.085   5.998  0.4292  0.8207 -0.1896
10500SOL    HW232441   3.612   1.219   6.056  2.1417  0.4289 -0.4310
10501SOL     OW32442   4.925   5.043   7.403 -0.2105  0.5831 -0.1931
10501SOL    HW132443   4.888   4.976   7.345  0.4653 -0.6776  0.8005
10501SOL    HW232444   4.928   5.122   7.348 -1.9714  0.0924 -1.0849
10502SOL     OW32445   5.974   7.399   2.412  0.0793  0.0711 -0.0882
10502SOL    HW132446   5.906   7.331   2.415  0.4342 -0.3108 -0.5456
10502SOL    HW232447   6.048   7.357   2.368  1.1848 -0.0039  1.7507
10503SOL     OW32448   5.188   4.087   6.712  0.3780  0.6434 -0.1876
10503SOL    HW132449   5.189   4.063   6.619 -1.2486  0.0260 -0.0748
10503SOL    HW232450   5.202   4.005   6.758  0.4055  0.8256  0.1313
10504SOL     OW32451   7.015   4.049   7.411  0.8177 -0.7709 -0.3734
10504SOL    HW132452   6.939   4.007   7.451  2.1374 -2.7820  0.1524
10504SOL    HW232453   6.979   4.126   7.367 -1.4996 -1.6340 -0.1247
10505SOL     OW32454   7.298   4.001   1.131 -0.0103  0.5106  0.0105
10505SOL    HW132455   7.327   4.089   1.156  1.4653 -0.3303  1.4642
10505SOL    HW232456   7.378   3.957   1.102 -0.8412 -0.1759 -1.3542
10506SOL     OW32457   4.154   0.120   5.488 -0.0030  0.0488 -0.3854
10506SOL    HW132458   4.214   0.094   5.418  0.0709 -0.2535 -0.2167
10506SOL    HW232459   4.085   0.054   5.485  0.3380 -0.3461  0.2415
10507SOL     OW32460   1.225   0.836   3.417 -0.4915  0.0947  0.0609
10507SOL    HW132461   1.317   0.859   3.401 -0.1057 -1.4456 -0.0923
10507SOL    HW232462   1.175   0.897   3.363  0.4883  0.3438 -0.5863
10508SOL     OW32463   1.776   0.003   0.766 -0.5309 -0.3170 -0.4243
10508SOL    HW132464   1.682   0.004   0.784 -0.8366 -0.4394 -1.9034
10508SOL    HW232465   1.816   0.030   0.849 -1.7429 -2.1393  0.8201
10509SOL     OW32466   0.612   3.721   7.275  0.2585 -0.1372  0.2850
10509SOL    HW132467   0.544   3.725   7.342 -0.1996  0.2163 -0.1943
10509SOL    HW232468   0.603   3.633   7.237  0.2923 -0.2143  0.4584
10510SOL     OW32469   7.259   2.956   6.192  0.0069  0.2131 -0.5171
10510SOL    HW132470   7.254   3.051   6.201  0.5460  0.1374  0.7024
10510SOL    HW232471   7.329   2.941   6.129 -0.8492  0.6374 -1.6127
10511SOL     OW32472   6.228   3.462   4.053 -0.4097 -0.1683  0.2989
10511SOL    HW132473   6.213   3.457   4.148 -1.2971 -3.2063  0.0994
10511SOL    HW232474   6.321   3.447   4.042 -0.6018 -1.8812  0.6703
10512SOL     OW32475   3.834   1.927   6.681 -0.3101 -0.1125  0.1122
10512SOL    HW132476   3.846   1.889   6.594 -3.0714  0.2987 -0.5504
10512SOL    HW232477   3.844   2.021   6.668 -1.9703  0.0735 -0.1012
10513SOL     OW32478   2.812   4.789   2.727  0.2166  0.2556  0.8220
10513SOL    HW132479   2.717   4.792   2.719  0.1493 -0.0430  1.4400
10513SOL    HW232480   2.831   4.702   2.760  0.7083  0.3163  0.7107
10514SOL     OW32481   1.049   4.172   6.489  0.3911  0.4963  0.6173
10514SOL    HW132482   0.955   4.189   6.491  0.6050  2.0435 -0.5723
10514SOL    HW232483   1.058   4.096   6.431 -0.1793 -0.3812  1.6378
10515SOL     OW32484   5.581   5.710   0.711 -0.4378  0.3235  0.4843
10515SOL    HW132485   5.557   5.733   0.801  1.2535 -1.5848  1.5125
10515SOL    HW232486   5.651   5.772   0.688  0.4038 -0.3183  1.2229
10516SOL     OW32487   3.954   1.716   4.234  0.1153 -0.2134  0.0252
10516SOL    HW132488   3.933   1.714   4.140 -1.5657  0.0295  0.3599
10516SOL    HW232489   3.920   1.801   4.264 -1.5227 -1.2550  1.2795
10517SOL     OW32490   1.131   1.378   5.969  0.2828 -0.2464  0.4110
10517SOL    HW132491   1.114   1.287   5.945  0.4539 -0.1514 -0.0984
10517SOL    HW232492   1.068   1.428   5.917  0.1942 -0.0751  0.6840
10518SOL     OW32493   4.982   0.901   7.344  0.9897 -0.0988 -0.4676
10518SOL    HW132494   4.964   0.943   7.428 -0.8801 -2.5235  0.4651
10518SOL    HW232495   5.054   0.841   7.363  0.2761 -0.9634 -0.4682
10519SOL     OW32496   5.162   4.634   3.370  0.6332  0.0559 -0.0225
10519SOL    HW132497   5.151   4.573   3.297 -2.3540  0.2064  0.1735
10519SOL    HW232498   5.120   4.591   3.444 -0.1188  1.6391  0.5128
10520SOL     OW32499   4.553   5.978   4.964 -0.0045  0.0666  0.6976
10520SOL    HW132500   4.557   5.884   4.982 -1.6710 -0.0464  0.6552
10520SOL    HW232501   4.468   5.991   4.920  0.7412  1.4097 -0.4605
10521SOL     OW32502   5.868   5.690   6.729  0.0906 -0.2825  0.9444
10521SOL    HW132503   5.836   5.764   6.780 -0.6281 -0.6689  1.0623
10521SOL    HW232504   5.896   5.728   6.646 -0.8369  0.0469  0.7700
10522SOL     OW32505   4.507   0.810   6.992  0.7523 -0.1978  0.2350
10522SOL    HW132506   4.496   0.831   6.899  0.1284  0.6446  0.4861
10522SOL    HW232507   4.595   0.774   6.998  1.4247  1.2765 -0.4270
10523SOL     OW32508   4.525   2.123   5.383  0.5548  0.3652 -0.0862
10523SOL    HW132509   4.522   2.027   5.378  1.0031  0.3247  0.3634
10523SOL    HW232510   4.616   2.143   5.402  0.5091  0.8989 -0.4198
10524SOL     OW32511   2.488   0.582   2.082  0.8752 -0.0762  0.0278
10524SOL    HW132512   2.492   0.642   2.157  1.6154  0.1526 -0.1892
10524SOL    HW232513   2.462   0.498   2.120  1.7689 -0.0975  0.6344
10525SOL     OW32514   4.404   3.196   4.287  0.3972 -0.6533 -0.0812
10525SOL    HW132515   4.491   3.229   4.310  0.5155 -2.2352  1.9597
10525SOL    HW232516   4.422   3.115   4.239  0.0383 -0.0045 -1.3574
10526SOL     OW32517   1.081   0.335   6.097  0.0965  0.4277 -0.4772
10526SOL    HW132518   1.109   0.253   6.138  0.5914 -0.0608 -1.7311
10526SOL    HW232519   1.056   0.309   6.008 -1.0218  1.4317 -0.4845
10527SOL     OW32520   2.764   5.266   1.808 -0.6089  0.1845 -0.5667
10527SOL    HW132521   2.694   5.222   1.760 -0.6645  0.0803 -0.3882
10527SOL    HW232522   2.733   5.356   1.817 -0.4665  0.2771 -0.9869
10528SOL     OW32523   6.680   1.840   4.548  0.3877 -0.1349  0.0143
10528SOL    HW132524   6.598   1.889   4.560  0.3838  0.1851 -1.1919
10528SOL    HW232525   6.748   1.907   4.550  0.3543  0.0099 -2.0120
10529SOL     OW32526   0.076   5.333   3.099  0.3481 -0.5131  0.3578
10529SOL    HW132527   0.166   5.360   3.079  0.1536  0.1087  0.3181
10529SOL    HW232528   0.022   5.377   3.033 -0.0354 -0.4788  0.6913
10530SOL     OW32529   0.302   5.213   7.346 -0.3480  0.1601 -0.3445
10530SOL    HW132530   0.333   5.278   7.409  0.5135 -0.6440  0.0897
10530SOL    HW232531   0.300   5.260   7.262  1.4948  0.4467 -0.2870
10531SOL     OW32532   1.826   4.142   6.318 -0.3685 -0.1329  0.2494
10531SOL    HW132533   1.832   4.198   6.396  1.1228 -0.7811  0.6415
10531SOL    HW232534   1.868   4.061   6.344 -0.7172 -0.7152 -0.9465
10532SOL     OW32535   0.278   2.435   0.047  0.6348 -0.2422  0.1317
10532SOL    HW132536   0.291   2.345   0.018 -1.2930  0.2176 -2.5199
10532SOL    HW232537   0.263   2.484  -0.033  3.1894  2.8201  1.3382
10533SOL     OW32538   7.034   7.061   2.307 -0.1771  0.0952  0.1014
10533SOL    HW132539   7.048   7.154   2.288 -1.5009  0.0678 -1.2350
10533SOL    HW232540   6.939   7.053   2.319 -0.2283 -1.2600 -0.9518
10534SOL     OW32541   3.698   1.767   5.669  0.5004 -0.2719  0.0279
10534SOL    HW132542   3.654   1.833   5.724 -0.1626 -0.8324  0.1798
10534SOL    HW232543   3.734   1.704   5.731 -1.8659 -1.9410 -0.1660
10535SOL     OW32544   4.686   1.223   3.832 -0.2773 -0.4314  0.3031
10535SOL    HW132545   4.673   1.318   3.826  0.7709 -0.1436  1.9954
10535SOL    HW232546   4.644   1.198   3.914 -0.0710 -1.3435  0.1384
10536SOL     OW32547   6.093   1.061   1.338  0.3981 -0.0461 -0.1495
10536SOL    HW132548   6.180   1.022   1.328 -0.5163 -2.2263 -0.2242
10536SOL    HW232549   6.109   1.155   1.342  2.9197 -0.4315  1.5201
10537SOL     OW32550   0.225   6.004   4.121  0.2816 -0.4471 -0.0012
10537SOL    HW132551   0.214   5.910   4.135 -0.5050 -0.0047  3.3761
10537SOL    HW232552   0.136   6.037   4.108  0.3561 -0.0161  0.4997
10538SOL     OW32553   1.416   5.427   3.678  0.1525 -0.0447 -0.2166
10538SOL    HW132554   1.458   5.342   3.689 -0.1714 -0.1134  0.5151
10538SOL    HW232555   1.470   5.472   3.612  0.5096 -0.6863 -0.3705
10539SOL     OW32556   0.866   1.258   6.354 -0.1468 -0.1110 -0.0798
10539SOL    HW132557   0.960   1.257   6.370  0.5199 -1.1762 -3.3128
10539SOL    HW232558   0.837   1.169   6.376 -0.0182 -0.3463 -0.8447
10540SOL     OW32559   6.489   4.861   5.184  0.0996 -0.2242 -0.9375
10540SOL    HW132560   6.491   4.948   5.144  0.3356 -0.4284 -1.3774
10540SOL    HW232561   6.488   4.800   5.110 -1.0372 -0.5877 -0.6599
10541SOL     OW32562   5.407   4.852   3.053 -0.1567 -0.2771  0.5990
10541SOL    HW132563   5.479   4.803   3.092  0.5914  1.6586  1.8469
10541SOL    HW232564   5.443   4.886   2.971  0.0595 -0.0518  0.7852
10542SOL     OW32565   5.725   6.972   0.527  0.1193 -0.7955 -0.1842
10542SOL    HW132566   5.732   6.922   0.609  0.7214 -1.5700 -0.6920
10542SOL    HW232567   5.779   6.923   0.465  2.1752  1.3882 -0.2803
10543SOL     OW32568   1.409   6.705   0.359  0.1935  0.2755  0.1248
10543SOL    HW132569   1.440   6.786   0.401  0.1752 -0.2187  1.1343
10543SOL    HW232570   1.315   6.719   0.347  0.1937  0.4132  0.2767
10544SOL     OW32571   7.217   0.265   4.613  0.2229  0.8427  0.2914
10544SOL    HW132572   7.148   0.213   4.655  0.4807 -0.1425 -0.4463
10544SOL    HW232573   7.245   0.210   4.539 -0.4452  2.6256 -1.3849
10545SOL     OW32574   5.888   3.162   0.032  0.2110  0.1829 -0.0134
10545SOL    HW132575   5.849   3.086  -0.011 -0.0760  0.7790 -0.8311
10545SOL    HW232576   5.883   3.142   0.125  0.9765 -1.2097 -0.2320
10546SOL     OW32577   1.787   2.009   0.763  0.1919  0.5068 -0.3385
10546SOL    HW132578   1.839   2.037   0.838  3.6337 -1.1957 -1.8492
10546SOL    HW232579   1.790   2.083   0.703 -0.7393  1.0745  0.2876
10547SOL     OW32580   1.712   1.190   5.107  0.1819  0.5408  0.2659
10547SOL    HW132581   1.642   1.161   5.166  0.1078  0.9609  0.3893
10547SOL    HW232582   1.734   1.112   5.056 -1.5673  0.7998 -0.9640
10548SOL     OW32583   0.050   0.828   3.216 -0.1148 -0.0524 -0.0684
10548SOL    HW132584  -0.019   0.891   3.235  1.3419  1.4824  0.3498
10548SOL    HW232585   0.014   0.744   3.244 -1.6558  0.7539  0.4748
10549SOL     OW32586   5.481   1.992   6.826 -0.0371  0.1242 -0.2756
10549SOL    HW132587   5.389   2.014   6.839  0.0499 -0.7303  2.5510
10549SOL    HW232588   5.480   1.902   6.794 -0.1878 -0.0694  0.2662
10550SOL     OW32589   1.488   1.210   0.589  0.1538  0.3784  0.1054
10550SOL    HW132590   1.562   1.171   0.635 -1.0560 -2.0162  0.1699
10550SOL    HW232591   1.528   1.273   0.529  2.0265  0.8596  1.7569
10551SOL     OW32592   1.106   4.075   4.624  0.3114  0.0931  0.1153
10551SOL    HW132593   1.126   4.120   4.542  1.3008  0.8946  0.7715
10551SOL    HW232594   1.178   4.098   4.683  1.2861 -2.9825  0.2974
10552SOL     OW32595   4.364   4.408   5.419 -0.4319  0.4168 -0.4104
10552SOL    HW132596   4.452   4.394   5.383 -0.2887  1.0091 -0.2924
10552SOL    HW232597   4.358   4.502   5.433 -1.7600  0.6503 -2.1592
10553SOL     OW32598   1.532   0.852   5.900  0.3896 -0.2249  0.2554
10553SOL    HW132599   1.522   0.770   5.948  1.0189 -0.8846 -0.7224
10553SOL    HW232600   1.580   0.829   5.821  0.7035  1.1117  0.0238
10554SOL     OW32601   0.895   7.072   0.795 -0.0293 -0.2092 -1.0810
10554SOL    HW132602   0.967   7.043   0.850 -1.3990 -2.9266 -0.5604
10554SOL    HW232603   0.902   7.020   0.716 -0.0824  1.2127 -2.0643
10555SOL     OW32604   2.952   4.481   4.924 -0.2048  0.0873 -0.4857
10555SOL    HW132605   2.932   4.568   4.959  0.1551  0.7749 -1.9157
10555SOL    HW232606   2.889   4.423   4.967 -2.3037  1.4700 -1.5138
10556SOL     OW32607   4.332   1.260   3.457  0.0503  0.0271  0.1259
10556SOL    HW132608   4.277   1.219   3.524 -0.1678 -1.0014 -0.6474
10556SOL    HW232609   4.316   1.207   3.378  1.6190  0.1447 -0.2924
10557SOL     OW32610   3.814   3.733   6.994  0.0795  0.1962  0.2101
10557SOL    HW132611   3.730   3.731   6.949  0.4412  2.4665 -0.6971
10557SOL    HW232612   3.859   3.653   6.965 -1.3238 -0.4895 -0.1308
10558SOL     OW32613   6.576   6.901   2.088  0.2791 -0.3299  0.2168
10558SOL    HW132614   6.487   6.933   2.081  0.5188  0.9615  2.2298
10558SOL    HW232615   6.568   6.820   2.139  0.2954  0.0743  0.8691
10559SOL     OW32616   7.259   4.539   1.940 -0.2388  0.0843  0.0180
10559SOL    HW132617   7.323   4.593   1.986  0.5775 -1.1318  0.3744
10559SOL    HW232618   7.273   4.451   1.975 -0.3518 -0.6841 -1.7669
10560SOL     OW32619   6.936   5.071   4.762 -0.0312 -0.1795 -0.4979
10560SOL    HW132620   6.890   5.096   4.842  1.1159  0.8566 -0.1206
10560SOL    HW232621   6.946   4.976   4.768 -0.3827 -0.1696  0.3493
10561SOL     OW32622   0.346   1.445   2.727  0.4200  0.1522 -0.1417
10561SOL    HW132623   0.369   1.515   2.787  1.2380  0.9263 -1.3088
10561SOL    HW232624   0.389   1.367   2.762 -1.0202  0.0370  1.5268
10562SOL     OW32625   5.348   3.888   1.942  0.2160  0.1351 -0.4060
10562SOL    HW132626   5.338   3.800   1.978 -0.1200 -0.4088 -1.7881
10562SOL    HW232627   5.396   3.936   2.010  2.3976 -1.6912 -0.5247
10563SOL     OW32628   0.807   6.915   4.783 -0.7976  0.8038  0.1686
10563SOL    HW132629   0.748   6.964   4.841 -0.4628  4.6548 -2.3837
10563SOL    HW232630   0.886   6.968   4.778  1.0241 -1.7569 -0.3339
10564SOL     OW32631   6.998   2.942   3.146  0.0666 -0.0980  0.1481
10564SOL    HW132632   6.914   2.902   3.168  0.5307 -1.2060 -0.0662
10564SOL    HW232633   6.986   2.974   3.056  1.0925 -3.8470 -1.4919
10565SOL     OW32634   1.506   2.769   1.983 -0.1750 -0.1121 -0.5461
10565SOL    HW132635   1.455   2.689   1.970 -0.9895  0.4177 -0.7044
10565SOL    HW232636   1.571   2.746   2.049 -0.6828 -0.7882 -0.2689
10566SOL     OW32637   5.955   6.073   3.293 -0.1984 -0.0395 -0.4933
10566SOL    HW132638   5.938   6.017   3.369 -0.8034  1.5502  0.6203
10566SOL    HW232639   5.950   6.015   3.218  3.2754 -2.2888  0.7934
10567SOL     OW32640   2.168   2.214   0.513  0.4693  0.1550  0.1243
10567SOL    HW132641   2.122   2.203   0.429  0.1984 -0.6182  0.3711
10567SOL    HW232642   2.259   2.232   0.488  0.1178  1.3550 -0.3638
10568SOL     OW32643   5.587   0.443   5.083  0.5296  0.5066  0.0385
10568SOL    HW132644   5.608   0.520   5.031  1.2072  1.5570  1.7663
10568SOL    HW232645   5.562   0.478   5.169 -2.0951 -1.0492  0.0343
10569SOL     OW32646   1.982   6.143   2.388 -0.0271  0.3025 -0.1878
10569SOL    HW132647   1.978   6.120   2.295  2.4342  0.9396 -0.5236
10569SOL    HW232648   1.992   6.238   2.389 -1.6599  0.5028  0.8474
10570SOL     OW32649   1.345   1.710   7.119 -0.0893  0.1617 -0.6155
10570SOL    HW132650   1.437   1.735   7.116 -0.0323  0.3462  1.3751
10570SOL    HW232651   1.304   1.775   7.176 -1.2461 -0.5439 -0.6072
10571SOL     OW32652   2.942   3.071   3.808  0.5217 -0.0050  0.5892
10571SOL    HW132653   2.850   3.046   3.797  0.3563  1.6205 -2.9261
10571SOL    HW232654   2.991   3.006   3.757  0.8800  1.4007 -0.9394
10572SOL     OW32655   1.430   4.019   6.797  0.0077 -0.3131 -0.6256
10572SOL    HW132656   1.455   3.953   6.732  2.0875 -0.6765  0.4767
10572SOL    HW232657   1.465   4.101   6.763  0.4180 -0.3708 -0.3457
10573SOL     OW32658   6.334   1.150   4.522 -0.1185  0.0950  0.2395
10573SOL    HW132659   6.312   1.126   4.432 -0.5105 -0.2422  0.4257
10573SOL    HW232660   6.403   1.216   4.513  0.6804 -0.7984 -0.2890
10574SOL     OW32661   0.684   0.238   5.785  0.4147  0.1143  0.0048
10574SOL    HW132662   0.623   0.299   5.825  1.5898  0.5239  1.2623
10574SOL    HW232663   0.703   0.276   5.699  0.2534  0.9197  0.3150
10575SOL     OW32664   4.343   0.804   2.610 -0.7449  0.1588 -0.0283
10575SOL    HW132665   4.387   0.875   2.657 -2.7652  1.7832 -0.3950
10575SOL    HW232666   4.341   0.833   2.519 -1.1703 -0.6127 -0.2720
10576SOL     OW32667   1.447   2.431   4.363 -0.4688  0.3527 -0.1745
10576SOL    HW132668   1.400   2.351   4.339  1.2067 -0.0865 -2.3775
10576SOL    HW232669   1.516   2.401   4.421  0.6871 -0.0264 -1.6681
10577SOL     OW32670   1.007   1.703   5.484  0.3615  0.2767  0.0012
10577SOL    HW132671   1.065   1.636   5.448  0.6061  1.1112 -1.2175
10577SOL    HW232672   1.037   1.784   5.444 -0.1597  1.0708  1.1827
10578SOL     OW32673   5.928   7.055   3.518  0.1649 -0.0098  0.5888
10578SOL    HW132674   5.932   7.006   3.436  0.4719 -0.3329  0.7919
10578SOL    HW232675   5.905   7.145   3.492 -1.4151 -0.4652  0.3006
10579SOL     OW32676   2.613   6.562   2.118  0.2369  0.1698  0.2883
10579SOL    HW132677   2.599   6.472   2.146 -0.7893  0.7517  1.8354
10579SOL    HW232678   2.663   6.556   2.037  2.3304 -1.7289  1.6243
10580SOL     OW32679   6.955   2.163   1.860  0.5348  0.2462  0.1426
10580SOL    HW132680   7.050   2.171   1.871  0.4183 -0.8196  2.6021
10580SOL    HW232681   6.945   2.113   1.779  2.0722  0.2352 -0.0786
10581SOL     OW32682   0.068   2.766   6.456 -0.4727 -0.0131 -0.0651
10581SOL    HW132683  -0.019   2.803   6.440  0.1131  1.3156 -0.3299
10581SOL    HW232684   0.124   2.843   6.471  0.3919 -0.8868  1.4456
10582SOL     OW32685   0.611   6.512   4.918  0.1479 -0.3636 -0.4166
10582SOL    HW132686   0.528   6.470   4.939 -0.0112 -0.3299 -0.9651
10582SOL    HW232687   0.677   6.447   4.941 -0.1150 -1.1160 -1.7066
10583SOL     OW32688   1.467   1.681   4.170 -0.9874  0.5410 -0.2708
10583SOL    HW132689   1.500   1.647   4.254  0.9774  1.3650 -0.6720
10583SOL    HW232690   1.387   1.728   4.194  0.7486  2.8270  1.5996
10584SOL     OW32691   6.822   4.199   7.273  0.2081 -0.3980  0.2204
10584SOL    HW132692   6.761   4.137   7.311 -0.3892 -0.1886 -0.3765
10584SOL    HW232693   6.804   4.281   7.320 -1.1732  0.0978 -1.0984
10585SOL     OW32694   4.958   1.959   0.683  0.4912  0.3983 -0.5227
10585SOL    HW132695   4.876   1.911   0.699  0.5664  0.3117 -0.3910
10585SOL    HW232696   4.935   2.026   0.619 -0.2939  2.0675  1.4176
10586SOL     OW32697   3.263   5.421   6.519 -0.2180  0.2772  0.3708
10586SOL    HW132698   3.191   5.419   6.456  0.4621  0.1305 -0.4236
10586SOL    HW232699   3.336   5.380   6.473  0.4469  0.6533  1.0670
10587SOL     OW32700   1.740   2.998   0.239  0.4376  0.5995  0.5621
10587SOL    HW132701   1.815   3.025   0.186  0.0653  1.5503  0.5043
10587SOL    HW232702   1.776   2.935   0.301  0.9611 -0.2190 -0.5362
10588SOL     OW32703   4.901   3.226   0.262 -0.0755  0.0197 -0.4121
10588SOL    HW132704   4.978   3.283   0.256  0.1072  0.1693  2.3482
10588SOL    HW232705   4.828   3.287   0.273 -0.7251 -0.1082 -3.2720
10589SOL     OW32706   3.638   5.819   2.737 -0.3046 -1.1623  0.7566
10589SOL    HW132707   3.641   5.804   2.832  1.2519 -1.5463  0.6697
10589SOL    HW232708   3.675   5.739   2.700  0.5337 -0.3895 -0.1024
10590SOL     OW32709   3.817   1.898   0.875 -0.0465 -0.2585  0.1894
10590SOL    HW132710   3.873   1.926   0.803 -0.8311 -0.0868 -0.3732
10590SOL    HW232711   3.820   1.803   0.872 -2.9806 -0.4600 -2.5503
10591SOL     OW32712   6.707   4.886   6.478  0.0986  0.3917  0.5176
10591SOL    HW132713   6.751   4.805   6.501  1.9847  0.9750 -0.7406
10591SOL    HW232714   6.736   4.949   6.543  1.3408  0.8110 -0.3924
10592SOL     OW32715   2.939   1.042   3.050 -0.5337 -0.2426 -0.0714
10592SOL    HW132716   2.883   0.971   3.020 -1.2665  0.5104 -0.5384
10592SOL    HW232717   2.967   1.086   2.970 -0.2986  0.1529  0.2243
10593SOL     OW32718   0.743   3.996   2.499  0.3713 -0.2307  0.3180
10593SOL    HW132719   0.699   3.920   2.461 -0.6678  1.0262 -1.1287
10593SOL    HW232720   0.803   4.025   2.430  1.1634 -0.0365  1.0672
10594SOL     OW32721   2.377   1.598   0.119  0.2172  0.2754 -0.4496
10594SOL    HW132722   2.443   1.666   0.126 -0.0611  0.4432  0.8372
10594SOL    HW232723   2.388   1.562   0.031 -0.1276  2.4912 -1.4659
10595SOL     OW32724   0.230   4.967   1.064  0.7754 -0.4671  0.0874
10595SOL    HW132725   0.260   5.007   1.146 -3.0532  3.5233 -0.0598
10595SOL    HW232726   0.292   4.998   0.998  2.0518 -1.0026  1.0021
10596SOL     OW32727   1.626   4.284   2.257  0.3275  0.4423  0.4604
10596SOL    HW132728   1.656   4.274   2.167  0.7713  0.6381  0.5840
10596SOL    HW232729   1.594   4.375   2.261 -1.4397 -0.1119 -0.0017
10597SOL     OW32730   0.918   4.977   0.957 -0.6910 -0.4994 -0.1567
10597SOL    HW132731   0.865   4.979   1.036  1.1151  1.9764  1.1394
10597SOL    HW232732   0.860   5.009   0.888 -1.3742  0.5051  0.8553
10598SOL     OW32733   5.049   6.732   0.731 -0.2920  0.4605 -0.0107
10598SOL    HW132734   5.143   6.733   0.711 -0.3957 -1.5089 -0.7473
10598SOL    HW232735   5.006   6.725   0.646 -0.9902 -1.2899  0.4581
10599SOL     OW32736   3.605   5.468   4.158 -0.3532  0.6494 -0.3829
10599SOL    HW132737   3.656   5.525   4.101 -2.6619  1.8778 -1.3621
10599SOL    HW232738   3.551   5.528   4.209 -2.6286 -0.6060 -1.1876
10600SOL     OW32739   5.678   4.095   2.451 -0.0734 -0.4574  0.3348
10600SOL    HW132740   5.656   4.143   2.371  1.1791 -1.8826 -0.9296
10600SOL    HW232741   5.646   4.150   2.522 -2.0491  0.4268 -1.1661
10601SOL     OW32742   5.771   4.035   1.847 -0.6213 -0.3226  0.6474
10601SOL    HW132743   5.715   4.022   1.770 -1.7190 -0.7904  1.4948
10601SOL    HW232744   5.845   3.976   1.832 -1.1846 -0.9583  0.2811
10602SOL     OW32745   4.416   7.210   1.963 -0.3147 -0.0588  0.1887
10602SOL    HW132746   4.418   7.119   1.993 -0.6442 -0.2528 -0.3674
10602SOL    HW232747   4.345   7.250   2.011  0.5436  0.2097  1.2736
10603SOL     OW32748   1.577   4.008   0.043  0.5866  0.4762 -0.0084
10603SOL    HW132749   1.658   4.052   0.016  0.3211  0.0509 -1.5921
10603SOL    HW232750   1.604   3.920   0.068  0.5499  0.1194 -1.1769
10604SOL     OW32751   0.790   6.108   2.306  0.3955  0.1312  0.2032
10604SOL    HW132752   0.712   6.054   2.315 -0.3348  1.3150  1.2866
10604SOL    HW232753   0.825   6.115   2.395  0.0193  2.0627  0.2428
10605SOL     OW32754   1.509   5.560   0.563  0.4098 -0.6772 -0.8372
10605SOL    HW132755   1.471   5.488   0.614  2.5836 -1.3751 -0.0804
10605SOL    HW232756   1.484   5.639   0.611  1.2653 -1.2277  0.5738
10606SOL     OW32757   3.586   6.321   5.388  0.5319 -0.3286  0.9163
10606SOL    HW132758   3.579   6.369   5.471 -1.3292  0.5866  0.2979
10606SOL    HW232759   3.498   6.286   5.374 -0.2420  2.3766 -2.2523
10607SOL     OW32760   5.722   2.035   7.390  0.2536  0.5279  0.1156
10607SOL    HW132761   5.680   2.024   7.475  1.7729 -0.9815  0.7033
10607SOL    HW232762   5.649   2.034   7.328 -0.6550 -1.6960  1.1267
10608SOL     OW32763   1.091   3.991   6.255 -0.2780  0.1288  0.4308
10608SOL    HW132764   1.158   3.925   6.237  1.4900  1.9942 -0.1783
10608SOL    HW232765   1.108   4.060   6.191 -3.0005  0.5695  0.0672
10609SOL     OW32766   0.641   6.093   3.197 -0.0480 -0.2199  0.2365
10609SOL    HW132767   0.721   6.100   3.145  0.4059  0.6694  1.0252
10609SOL    HW232768   0.656   6.151   3.272 -1.6882  0.4813  0.0638
10610SOL     OW32769   2.074   0.641   6.417  0.4602 -0.8007 -0.2625
10610SOL    HW132770   2.107   0.598   6.338  1.1726  2.4249 -1.8723
10610SOL    HW232771   1.984   0.665   6.395 -0.4510 -2.6248  1.1831
10611SOL     OW32772   1.405   6.615   3.597 -0.5569 -0.1071 -0.1784
10611SOL    HW132773   1.314   6.624   3.627 -0.5632 -1.1429  0.1732
10611SOL    HW232774   1.436   6.535   3.640  1.1607  1.2638  1.3145
10612SOL     OW32775   1.646   6.233   0.793  0.0410 -0.6903  0.4199
10612SOL    HW132776   1.570   6.271   0.749  1.0276  1.9133  0.8275
10612SOL    HW232777   1.608   6.174   0.859 -1.5426 -0.8808 -0.5983
10613SOL     OW32778   5.930   4.872   1.244  0.0922 -0.0005  0.0642
10613SOL    HW132779   6.020   4.848   1.265 -0.2146 -1.0514  0.2529
10613SOL    HW232780   5.884   4.872   1.328 -0.0732  0.5825 -0.0240
10614SOL     OW32781   6.536   3.984   0.688  0.2364 -0.1446  0.2975
10614SOL    HW132782   6.586   3.997   0.607  0.4197 -0.2447  0.3916
10614SOL    HW232783   6.601   3.994   0.757  0.2618 -0.9260  0.3956
10615SOL     OW32784   1.411   6.680   0.762  0.2969  0.1105 -0.1949
10615SOL    HW132785   1.368   6.762   0.785  0.8368  0.5174 -0.6189
10615SOL    HW232786   1.504   6.701   0.759  0.3154 -0.0736 -2.1141
10616SOL     OW32787   3.386   6.541   4.417 -0.2585 -0.2291 -0.0520
10616SOL    HW132788   3.294   6.558   4.396  0.3182  2.9654 -0.5305
10616SOL    HW232789   3.386   6.523   4.511 -1.3967 -0.7076 -0.1218
10617SOL     OW32790   2.185   5.295   6.429  0.7632  0.3182 -0.5131
10617SOL    HW132791   2.214   5.231   6.363 -0.8529  1.3323 -2.2946
10617SOL    HW232792   2.108   5.255   6.469  1.2217  0.0917  0.1568
10618SOL     OW32793   5.925   3.134   4.864 -0.0060  0.5023  0.0147
10618SOL    HW132794   5.896   3.211   4.912 -0.7697 -2.3020  4.6448
10618SOL    HW232795   5.848   3.106   4.814 -0.2863  1.6058 -0.1973
10619SOL     OW32796   1.234   7.308   3.808 -0.2850  0.1625  0.6183
10619SOL    HW132797   1.318   7.347   3.783 -0.9741  0.4594 -1.3973
10619SOL    HW232798   1.210   7.353   3.889  0.6222  1.4308  0.2147
10620SOL     OW32799   7.125   2.465   3.604 -0.2808  0.1657 -0.4351
10620SOL    HW132800   7.075   2.410   3.543  0.8901 -0.8620 -0.5070
10620SOL    HW232801   7.060   2.525   3.640 -1.6995 -1.4876 -0.0936
10621SOL     OW32802   4.898   5.569   6.115 -0.1644 -0.1335 -0.1347
10621SOL    HW132803   4.922   5.480   6.089  0.0048 -0.3423  0.6866
10621SOL    HW232804   4.804   5.575   6.097 -0.3109 -0.7078  0.4067
10622SOL     OW32805   1.509   7.155   2.196 -0.1332 -0.5782  0.3402
10622SOL    HW132806   1.418   7.127   2.189 -0.1362 -0.2748 -1.0897
10622SOL    HW232807   1.551   7.088   2.250 -0.4938 -2.5049 -1.6444
10623SOL     OW32808   7.236   0.557   3.756 -0.3182 -0.1691 -0.1152
10623SOL    HW132809   7.245   0.635   3.702 -1.0734  0.2591  0.3600
10623SOL    HW232810   7.147   0.561   3.790  0.2006 -0.2887  1.3562
10624SOL     OW32811   2.169   4.935   1.370  0.2549 -0.1808 -0.3700
10624SOL    HW132812   2.233   4.917   1.439 -0.1184  2.1998  0.7205
10624SOL    HW232813   2.221   4.941   1.290  0.9182 -1.4435 -0.0611
10625SOL     OW32814   5.711   0.999   6.634 -0.1531 -0.1232  0.3829
10625SOL    HW132815   5.707   0.995   6.730 -0.5369  0.7703  0.4136
10625SOL    HW232816   5.695   0.909   6.606 -0.2196 -0.3612  1.1529
10626SOL     OW32817   6.786   0.970   2.742 -0.0947  0.1718 -0.0215
10626SOL    HW132818   6.820   1.054   2.773 -0.6181 -0.1825  1.5700
10626SOL    HW232819   6.694   0.969   2.769 -0.3423 -0.5350 -0.8281
10627SOL     OW32820   7.047   7.172   4.036 -0.2561 -0.0356 -0.2262
10627SOL    HW132821   6.965   7.213   4.011 -0.7436 -2.4300 -3.1150
10627SOL    HW232822   7.021   7.091   4.079  0.6633  0.2878  1.0149
10628SOL     OW32823   5.357   6.591   5.152 -0.2312 -0.5686 -0.1747
10628SOL    HW132824   5.357   6.507   5.107  1.5114  0.0770 -1.5043
10628SOL    HW232825   5.447   6.622   5.144 -0.0350  0.0600  2.9456
10629SOL     OW32826   5.537   2.857   4.652 -0.0970  0.5245 -0.5340
10629SOL    HW132827   5.503   2.852   4.562  0.8929 -0.1812 -0.8857
10629SOL    HW232828   5.583   2.941   4.656 -0.1838  0.5790 -0.6633
10630SOL     OW32829   4.901   1.871   0.217  0.2902 -0.7547  0.8717
10630SOL    HW132830   4.968   1.804   0.228  1.1117  0.1596  1.6146
10630SOL    HW232831   4.948   1.954   0.223 -0.7296 -0.0973  0.1636
10631SOL     OW32832   6.463   4.413   0.670 -0.3369  0.0365 -0.3181
10631SOL    HW132833   6.453   4.497   0.714 -0.1793 -0.1362  0.0552
10631SOL    HW232834   6.472   4.435   0.578  0.9163  0.5116 -0.1002
10632SOL     OW32835   5.869   0.162   6.642  0.0687  0.5039 -0.7788
10632SOL    HW132836   5.838   0.185   6.555 -1.5405  3.1840  0.3964
10632SOL    HW232837   5.814   0.089   6.669 -0.4158  0.6184 -1.4397
10633SOL     OW32838   2.680   5.390   7.410 -0.0998 -0.4775  0.3523
10633SOL    HW132839   2.720   5.313   7.369 -0.9061 -1.5951  1.5725
10633SOL    HW232840   2.596   5.400   7.365  0.0904 -0.1884  0.0611
10634SOL     OW32841   2.048   2.999   2.030  0.0303 -0.0995  0.3348
10634SOL    HW132842   2.055   3.092   2.053 -0.8242 -0.0203  0.3101
10634SOL    HW232843   2.079   2.994   1.940 -0.3204  0.2330  0.1935
10635SOL     OW32844   5.831   5.593   2.492 -0.2630 -0.2217  0.2821
10635SOL    HW132845   5.761   5.539   2.528 -1.5980 -0.1990 -2.0776
10635SOL    HW232846   5.864   5.543   2.417  1.6710  0.1884  0.7982
10636SOL     OW32847   0.332   2.684   2.113  0.3225 -0.2389  0.4697
10636SOL    HW132848   0.330   2.731   2.030 -0.4376 -1.8071 -0.4305
10636SOL    HW232849   0.244   2.696   2.150  0.6266  0.3717  1.0340
10637SOL     OW32850   0.269   6.896   1.167 -0.2301  0.5791 -0.5188
10637SOL    HW132851   0.352   6.928   1.205 -0.0136  1.1225 -1.4142
10637SOL    HW232852   0.210   6.971   1.173 -0.0655  0.8119 -1.6125
10638SOL     OW32853   0.988   5.696   2.400  0.2026  1.1574  0.2806
10638SOL    HW132854   0.983   5.619   2.457  0.8276 -0.0358 -1.2311
10638SOL    HW232855   1.078   5.696   2.366 -0.5005  1.0757 -1.7095
10639SOL     OW32856   0.500   1.393   2.451  0.7002  0.0593 -0.4201
10639SOL    HW132857   0.428   1.348   2.495  1.0585 -0.5368 -0.4273
10639SOL    HW232858   0.512   1.474   2.501  0.5077 -0.1805  0.0232
10640SOL     OW32859   0.302   6.774   3.702  0.1001 -0.3883 -0.2295
10640SOL    HW132860   0.304   6.744   3.611 -0.8183 -0.4359 -0.2376
10640SOL    HW232861   0.363   6.715   3.747 -2.5352 -3.1672 -0.0134
10641SOL     OW32862   6.879   7.312   2.049  0.2723 -0.4209  0.0510
10641SOL    HW132863   6.812   7.377   2.071  0.4050  0.0722 -0.9162
10641SOL    HW232864   6.958   7.344   2.093  0.3533  0.1335 -0.4718
10642SOL     OW32865   3.973   0.358   6.037 -0.1499  0.1960  0.1448
10642SOL    HW132866   3.964   0.374   5.943  1.4103 -1.3476 -0.3181
10642SOL    HW232867   3.943   0.439   6.078 -1.0389  0.8392 -1.6603
10643SOL     OW32868   1.197   4.998   4.325 -0.1909 -0.4237 -0.2647
10643SOL    HW132869   1.194   4.909   4.289  1.1874 -0.1083 -1.2271
10643SOL    HW232870   1.289   5.013   4.345 -0.7008 -0.0872  2.2396
10644SOL     OW32871   5.019   3.889   0.874  0.0666  0.2056 -0.3800
10644SOL    HW132872   4.992   3.884   0.782 -0.3989  1.6006 -0.3442
10644SOL    HW232873   5.090   3.824   0.882  1.1401  1.0919 -2.0905
10645SOL     OW32874   6.073   4.383   6.988 -0.5385 -0.0363 -0.6896
10645SOL    HW132875   6.084   4.291   6.965  2.0279 -0.1738  0.7488
10645SOL    HW232876   6.136   4.430   6.934  1.3678  0.2861  1.6653
10646SOL     OW32877   0.980   6.723   4.893 -0.5125 -0.2408  0.1873
10646SOL    HW132878   0.917   6.784   4.856 -1.0684 -1.3280 -0.7201
10646SOL    HW232879   1.062   6.773   4.899 -1.2987  1.0261  0.8955
10647SOL     OW32880   5.777   7.073   1.446  0.1352 -0.2446 -0.4225
10647SOL    HW132881   5.711   7.048   1.381 -0.6635  2.9545 -1.0480
10647SOL    HW232882   5.727   7.094   1.525  0.3594  1.7922 -0.7648
10648SOL     OW32883   5.656   1.300   2.467 -0.7537  0.3226 -0.2670
10648SOL    HW132884   5.681   1.381   2.511 -1.8137  1.1073 -1.0732
10648SOL    HW232885   5.566   1.284   2.496 -0.7397 -0.2781 -0.5485
10649SOL     OW32886   6.829   4.701   5.093 -0.1264  0.6819  0.3614
10649SOL    HW132887   6.787   4.786   5.109  1.0157  1.1935  0.6961
10649SOL    HW232888   6.909   4.703   5.145 -0.2877 -0.7794  0.7065
10650SOL     OW32889   6.156   4.078   3.855  0.3466 -0.0372 -0.0744
10650SOL    HW132890   6.091   4.094   3.925  1.2776 -1.6195  1.2167
10650SOL    HW232891   6.118   4.007   3.804  0.8726 -0.7311  0.4784
10651SOL     OW32892   0.408   5.952   4.358  0.0477 -0.1240  0.6070
10651SOL    HW132893   0.434   5.976   4.269 -0.3872 -1.6770  0.0302
10651SOL    HW232894   0.481   5.900   4.392 -0.4061 -0.7815  0.6011
10652SOL     OW32895   4.590   4.021   3.573 -0.0981  0.1385 -0.0564
10652SOL    HW132896   4.673   4.053   3.609 -0.2449 -1.0199  1.4233
10652SOL    HW232897   4.562   3.953   3.635 -2.4805  0.9427 -0.1393
10653SOL     OW32898   4.690   1.627   4.063 -0.4154  0.0136 -0.0023
10653SOL    HW132899   4.784   1.637   4.048 -0.4935  0.4447 -0.2528
10653SOL    HW232900   4.661   1.568   3.993  0.1495 -2.5896  1.8302
10654SOL     OW32901   4.211   0.689   1.951  0.3426  0.6094  0.1487
10654SOL    HW132902   4.183   0.601   1.927 -0.8351  1.1058 -0.3495
10654SOL    HW232903   4.244   0.680   2.041  0.5125 -0.3901 -0.0044
10655SOL     OW32904   4.755   2.384   5.271  0.1232  0.4665  0.1643
10655SOL    HW132905   4.797   2.313   5.319  0.0452  0.8943  0.8798
10655SOL    HW232906   4.827   2.441   5.245  0.0472  0.9824  1.0319
10656SOL     OW32907   6.165   4.524   2.307  0.2422  0.0391 -0.5591
10656SOL    HW132908   6.214   4.477   2.239 -0.3287 -0.5586 -0.5571
10656SOL    HW232909   6.073   4.509   2.286 -0.0143  2.2646 -1.3641
10657SOL     OW32910   7.029   6.527   2.908  1.0969 -0.6921 -0.1837
10657SOL    HW132911   7.038   6.435   2.936  0.8933 -0.4633  0.6730
10657SOL    HW232912   7.118   6.555   2.889  1.1479 -1.0979 -0.5671
10658SOL     OW32913   5.260   4.670   2.878  0.0951  0.0785  0.3242
10658SOL    HW132914   5.295   4.724   2.948  1.4681  0.4833 -0.6432
10658SOL    HW232915   5.178   4.635   2.913 -0.6929  2.5242  1.0843
10659SOL     OW32916   4.390   7.273   5.243  0.1689  0.1067  0.5563
10659SOL    HW132917   4.470   7.318   5.214 -0.0701 -1.1343 -2.4301
10659SOL    HW232918   4.320   7.333   5.218  0.0155 -0.3913 -0.2269
10660SOL     OW32919   6.055   7.331   6.980  0.6374  0.2039  0.3751
10660SOL    HW132920   6.068   7.238   6.963 -1.9030 -0.1144 -0.2221
10660SOL    HW232921   5.968   7.350   6.944  0.9097  2.7208  0.8632
10661SOL     OW32922   0.187   7.049   5.240  1.2059 -0.1886  0.4640
10661SOL    HW132923   0.280   7.071   5.252  1.2399  0.2955 -0.6042
10661SOL    HW232924   0.140   7.130   5.261  0.9854 -0.5197  1.3090
10662SOL     OW32925   2.420   0.360   2.978  0.1602  0.5873  0.0344
10662SOL    HW132926   2.392   0.336   3.066  0.2823  2.3386  0.5717
10662SOL    HW232927   2.376   0.296   2.921 -0.2635 -0.2942  1.3034
10663SOL     OW32928   0.282   1.948   5.538  0.0833 -0.1133 -0.0613
10663SOL    HW132929   0.211   2.000   5.576  0.0809 -0.3416  0.2502
10663SOL    HW232930   0.351   2.011   5.521  0.1802 -0.0486  0.5594
10664SOL     OW32931   3.837   1.111   3.079  0.3865  0.2059 -0.3168
10664SOL    HW132932   3.907   1.159   3.123  0.1353  0.3001 -0.0178
10664SOL    HW232933   3.762   1.172   3.079  0.5861  0.4888 -1.5104
10665SOL     OW32934   3.825   3.032   3.869  0.1350  0.3312 -0.5434
10665SOL    HW132935   3.919   3.051   3.870  0.1762  0.1178 -0.1188
10665SOL    HW232936   3.785   3.110   3.908  0.1183  0.5069 -0.9097
10666SOL     OW32937   5.952   6.082   2.780 -0.1457  0.2799  0.0820
10666SOL    HW132938   5.886   6.013   2.776 -0.2698  0.3355  0.9709
10666SOL    HW232939   6.028   6.040   2.819  0.5194  0.1032 -1.3396
10667SOL     OW32940   0.997   7.091   5.425 -0.4361  0.1762 -0.6353
10667SOL    HW132941   0.946   7.023   5.382 -0.1827  0.5384 -1.5401
10667SOL    HW232942   1.060   7.044   5.479 -0.7345 -0.2918 -0.6890
10668SOL     OW32943   3.259   1.933   3.860 -0.0362 -0.2452  0.1234
10668SOL    HW132944   3.348   1.917   3.829  0.4678  1.0962  0.8047
10668SOL    HW232945   3.217   1.847   3.859  1.0798 -0.7983 -0.7606
10669SOL     OW32946   5.396   3.650   4.744  0.1504  0.2309 -0.0784
10669SOL    HW132947   5.394   3.730   4.691  1.6579 -0.3959 -1.1481
10669SOL    HW232948   5.306   3.641   4.777 -1.0931  0.2753 -3.1117
10670SOL     OW32949   3.376   0.095   2.766 -0.3013  0.7116  0.2021
10670SOL    HW132950   3.320   0.118   2.693 -0.7358 -0.0844  0.2751
10670SOL    HW232951   3.462   0.129   2.742 -0.6657  1.3573 -0.2073
10671SOL     OW32952   2.354   0.712   6.510 -0.7342  0.3431  0.6120
10671SOL    HW132953   2.375   0.651   6.581 -1.8732 -0.4796  0.2732
10671SOL    HW232954   2.259   0.720   6.513 -0.9279 -0.5825 -1.5036
10672SOL     OW32955   5.651   5.404   4.320 -0.0741 -0.1760  0.2298
10672SOL    HW132956   5.675   5.313   4.306  0.1929 -0.2386  1.0700
10672SOL    HW232957   5.555   5.405   4.315 -0.1017 -0.5808  0.6660
10673SOL     OW32958   6.796   0.503   7.198  0.0988 -0.0729 -0.0530
10673SOL    HW132959   6.723   0.447   7.224 -2.1371  2.7869  0.3318
10673SOL    HW232960   6.789   0.580   7.255  2.8834  0.7596 -0.6551
10674SOL     OW32961   3.607   5.329   7.406  0.0474  0.2277 -0.3135
10674SOL    HW132962   3.574   5.286   7.327  2.0376 -1.9726 -0.0735
10674SOL    HW232963   3.697   5.352   7.385  0.6780 -0.5711  1.3356
10675SOL     OW32964   6.233   4.369   4.045 -0.5760  0.1425 -0.7973
10675SOL    HW132965   6.304   4.324   3.999 -0.3078  0.5106 -0.7453
10675SOL    HW232966   6.234   4.458   4.011 -0.1800  0.5055  0.1337
10676SOL     OW32967   2.851   6.639   0.511  0.5530  0.6286  0.5518
10676SOL    HW132968   2.939   6.642   0.548  0.7189  1.0166  0.1449
10676SOL    HW232969   2.813   6.724   0.534 -0.4191 -0.2429  2.3787
10677SOL     OW32970   2.250   4.137   2.181  0.6760  0.0984  0.9886
10677SOL    HW132971   2.328   4.090   2.151  0.3671  0.9875 -1.4038
10677SOL    HW232972   2.282   4.225   2.203  0.6237 -0.0507  1.6633
10678SOL     OW32973   2.379   2.558   5.494 -0.2511 -0.8996 -0.1528
10678SOL    HW132974   2.288   2.535   5.472 -1.1306  1.7027  0.3932
10678SOL    HW232975   2.371   2.609   5.575  1.6850 -0.3558 -0.2639
10679SOL     OW32976   4.819   6.008   0.938  0.0617 -0.3064 -0.5571
10679SOL    HW132977   4.815   5.976   0.848 -0.0841  0.0587 -0.6837
10679SOL    HW232978   4.729   5.999   0.971 -0.1530  0.6780 -0.8473
10680SOL     OW32979   3.525   6.093   3.462 -0.0383  0.1075  0.0574
10680SOL    HW132980   3.554   6.161   3.523 -1.4947  1.1108 -0.3061
10680SOL    HW232981   3.589   6.096   3.391  1.3290 -0.6544  1.2240
10681SOL     OW32982   5.869   1.626   1.732 -0.2294 -0.4949 -0.4584
10681SOL    HW132983   5.802   1.695   1.732  1.1377  0.9110  0.4603
10681SOL    HW232984   5.883   1.606   1.640  2.2743  3.5552 -1.2199
10682SOL     OW32985   5.048   0.531   2.145  0.0823  0.6345  0.4576
10682SOL    HW132986   4.978   0.467   2.141  0.6989 -0.1701  1.7883
10682SOL    HW232987   5.114   0.499   2.083  0.8581 -0.6653  1.8829
10683SOL     OW32988   1.785   1.293   1.050  0.2209  0.1024  0.1219
10683SOL    HW132989   1.875   1.305   1.081 -0.4083 -1.1093  2.6875
10683SOL    HW232990   1.788   1.212   0.998  0.7605  0.5537 -0.5589
10684SOL     OW32991   3.802   0.008   5.070  0.0920 -0.0037  0.0215
10684SOL    HW132992   3.872   0.064   5.103 -0.5456  1.0492 -0.3607
10684SOL    HW232993   3.738   0.004   5.141  0.6984 -1.2994  0.5277
10685SOL     OW32994   5.280   2.381   6.949  0.4816 -0.5203  0.1145
10685SOL    HW132995   5.332   2.461   6.942 -1.3369  0.6655 -0.6031
10685SOL    HW232996   5.286   2.356   7.041  1.5370  0.1069  0.2280
10686SOL     OW32997   7.264   6.655   2.880 -0.2305 -0.5914  0.1082
10686SOL    HW132998   7.251   6.746   2.855 -0.4541 -0.7213 -0.2423
10686SOL    HW232999   7.342   6.657   2.936  0.3860 -0.3336 -0.7434
10687SOL     OW33000   5.464   3.608   5.300  0.0647  0.4981  0.4038
10687SOL    HW133001   5.495   3.689   5.260  3.5300 -1.1740 -0.7109
10687SOL    HW233002   5.504   3.608   5.388  2.0081 -0.8769 -0.3982
10688SOL     OW33003   0.103   1.421   4.343  0.1516 -0.9551  0.7735
10688SOL    HW133004   0.046   1.479   4.291  0.3903 -1.3729  0.0249
10688SOL    HW233005   0.142   1.362   4.278  1.2726 -0.8146  1.3092
10689SOL     OW33006   0.131   5.933   6.191  0.3329 -0.1954  0.4629
10689SOL    HW133007   0.108   5.980   6.272 -1.8290  0.1865 -0.3119
10689SOL    HW233008   0.136   5.841   6.218 -0.5422 -0.0973  1.0187
10690SOL     OW33009   3.324   1.809   0.892  0.4922  0.0050  0.1265
10690SOL    HW133010   3.311   1.782   0.801 -0.0305  0.1971  0.1377
10690SOL    HW233011   3.407   1.857   0.892  0.6786 -0.3178 -0.1756
10691SOL     OW33012   0.558   4.196   1.820 -0.2834 -0.0618 -0.1222
10691SOL    HW133013   0.569   4.217   1.913 -1.0601  1.7725 -0.4059
10691SOL    HW233014   0.646   4.180   1.788  0.0538 -0.0680  0.7882
10692SOL     OW33015   0.645   3.094   1.488 -0.2718 -0.4267 -0.1441
10692SOL    HW133016   0.551   3.077   1.483 -0.4236 -0.0905  1.1457
10692SOL    HW233017   0.685   3.024   1.436 -1.2841  0.3528 -2.0808
10693SOL     OW33018   3.083   0.891   0.917 -0.2081 -0.1422  0.6250
10693SOL    HW133019   3.174   0.863   0.924  0.1999  1.2187  1.0046
10693SOL    HW233020   3.070   0.953   0.989  0.3250  4.1811 -2.5885
10694SOL     OW33021   2.307   2.668   1.608  0.4145 -0.5469 -0.2984
10694SOL    HW133022   2.366   2.661   1.532 -0.6237  2.3601 -1.5341
10694SOL    HW233023   2.334   2.749   1.652 -0.8920 -0.6233  0.7086
10695SOL     OW33024   3.026   5.731   6.537 -0.0411 -0.7258  0.4146
10695SOL    HW133025   2.970   5.809   6.540 -1.6320 -1.7606 -0.4613
10695SOL    HW233026   3.057   5.720   6.626 -0.9712  0.0939  0.8611
10696SOL     OW33027   6.655   4.827   1.101 -0.1721  0.1282 -0.2711
10696SOL    HW133028   6.737   4.803   1.143 -0.0324  1.9613  0.5872
10696SOL    HW233029   6.652   4.774   1.021  0.9262 -1.3298  0.6161
10697SOL     OW33030   1.559   7.136   4.993 -0.0216 -0.0779 -0.3715
10697SOL    HW133031   1.575   7.092   5.077 -0.1156 -0.2919 -0.4651
10697SOL    HW233032   1.626   7.101   4.934 -0.2037 -0.2247 -0.4921
10698SOL     OW33033   1.368   0.324   1.577 -0.1565  0.5551 -0.2794
10698SOL    HW133034   1.283   0.282   1.592  0.0837  0.3269  0.4658
10698SOL    HW233035   1.358   0.413   1.611 -0.4633  0.9197 -1.2797
10699SOL     OW33036   3.904   6.879   0.468  0.2107 -0.4579 -0.4698
10699SOL    HW133037   3.946   6.822   0.404  0.3512 -0.6622 -0.1997
10699SOL    HW233038   3.824   6.910   0.425 -0.2940 -1.5233 -0.3170
10700SOL     OW33039   0.795   5.165   2.101 -0.2248 -0.4534 -0.4698
10700SOL    HW133040   0.871   5.124   2.058 -0.2231 -0.1691 -0.7395
10700SOL    HW233041   0.722   5.108   2.079  0.1228 -1.4556  0.8710
10701SOL     OW33042   0.807   1.595   1.344 -0.1190 -0.1833 -0.1472
10701SOL    HW133043   0.772   1.507   1.327 -1.4295  0.1963  0.4093
10701SOL    HW233044   0.863   1.613   1.268 -0.9820 -0.9228 -1.0008
10702SOL     OW33045   1.280   1.449   5.685  0.0337  0.9701 -0.3442
10702SOL    HW133046   1.317   1.382   5.743 -1.8376  0.8026  0.7373
10702SOL    HW233047   1.238   1.512   5.743 -2.6740  0.3373 -1.4468
10703SOL     OW33048   0.540   4.049   0.896  0.1082 -0.8280 -0.5181
10703SOL    HW133049   0.521   3.956   0.908 -2.9326 -0.2578 -0.0061
10703SOL    HW233050   0.502   4.069   0.810  0.3919  0.0056 -0.4517
10704SOL     OW33051   5.633   2.833   1.714 -0.8261  0.3555 -0.7167
10704SOL    HW133052   5.611   2.751   1.760 -0.0104  0.2260 -0.5414
10704SOL    HW233053   5.548   2.873   1.694 -1.2146  0.1690  0.4766
10705SOL     OW33054   7.268   6.774   4.418  0.0179 -0.2566  0.1909
10705SOL    HW133055   7.318   6.805   4.343 -1.8329 -0.9155 -1.3873
10705SOL    HW233056   7.313   6.695   4.446  1.0776  0.3306  0.1920
10706SOL     OW33057   0.735   3.337   5.309  0.0204  0.4821 -0.6046
10706SOL    HW133058   0.800   3.326   5.239  0.7975  1.3705 -0.0546
10706SOL    HW233059   0.653   3.353   5.263 -0.0833 -1.8247 -1.3318
10707SOL     OW33060   7.059   2.012   4.122  0.3586 -0.2261 -0.3141
10707SOL    HW133061   7.066   2.024   4.027  0.2716 -0.3480 -0.3356
10707SOL    HW233062   7.137   1.961   4.145  0.5097  0.0201 -0.2842
10708SOL     OW33063   0.756   1.016   6.438 -0.0391  0.0357  0.2551
10708SOL    HW133064   0.752   1.062   6.522 -3.1891  1.8667 -0.7415
10708SOL    HW233065   0.676   0.963   6.436  0.8160 -1.2900 -0.9583
10709SOL     OW33066   6.300   2.441   5.845 -0.1675 -0.3025  0.3958
10709SOL    HW133067   6.287   2.499   5.920 -0.1065 -0.0897  0.2428
10709SOL    HW233068   6.221   2.452   5.792  0.9440  1.6063 -0.9470
10710SOL     OW33069   4.656   1.946   2.012  0.2319 -0.4737 -0.1254
10710SOL    HW133070   4.590   1.881   2.036  0.1042 -0.1605  0.3819
10710SOL    HW233071   4.737   1.897   2.004  0.3201 -0.5627  1.1562
10711SOL     OW33072   3.704   5.495   3.249  0.1111  0.1090  0.5986
10711SOL    HW133073   3.672   5.426   3.191  0.9678 -0.0881  0.3442
10711SOL    HW233074   3.752   5.448   3.318 -0.4697  0.3742  1.1996
10712SOL     OW33075   6.574   4.925   7.305 -0.5836 -0.2963 -0.7300
10712SOL    HW133076   6.656   4.963   7.274 -0.0340 -0.4585  0.4795
10712SOL    HW233077   6.565   4.844   7.254  0.0962 -0.3691 -0.7396
10713SOL     OW33078   1.420   4.624   6.000 -0.0690 -0.4307 -0.7630
10713SOL    HW133079   1.437   4.704   6.050 -1.0978 -1.0284  0.6196
10713SOL    HW233080   1.507   4.587   5.984  0.2974 -0.6812  1.4417
10714SOL     OW33081   1.341   3.867   5.673 -0.4365 -0.9467 -0.0976
10714SOL    HW133082   1.406   3.903   5.613 -1.1963 -0.0878 -0.4146
10714SOL    HW233083   1.344   3.772   5.657  1.5587 -1.0888  0.7296
10715SOL     OW33084   4.454   0.240   5.317  0.2114  0.1899 -0.1877
10715SOL    HW133085   4.490   0.168   5.368 -2.6786 -0.4991  1.1088
10715SOL    HW233086   4.494   0.318   5.354 -0.1257 -0.4707  1.6675
10716SOL     OW33087   4.623   2.258   4.347 -0.4499 -0.9660 -0.1943
10716SOL    HW133088   4.675   2.319   4.295 -0.7339  1.6039  2.2532
10716SOL    HW233089   4.688   2.202   4.391  0.6190  2.3795  3.0450
10717SOL     OW33090   7.156   4.730   2.757  0.4285  0.2989  0.2790
10717SOL    HW133091   7.171   4.664   2.690 -1.4554 -0.7772  0.8585
10717SOL    HW233092   7.148   4.681   2.839  1.3288  1.4731  1.1229
10718SOL     OW33093   2.943   4.700   5.272 -0.5689 -0.7054 -0.5512
10718SOL    HW133094   2.954   4.688   5.177 -0.5960 -0.4288 -0.5893
10718SOL    HW233095   2.949   4.795   5.285 -0.1986 -0.7709 -0.2304
10719SOL     OW33096   5.518   1.286   3.306  0.2080  0.2049 -0.5042
10719SOL    HW133097   5.541   1.230   3.231 -0.6450  1.4396 -1.7539
10719SOL    HW233098   5.598   1.291   3.358  0.7891 -0.7959 -1.2590
10720SOL     OW33099   4.580   0.486   1.945  0.8390 -0.1048  0.2200
10720SOL    HW133100   4.493   0.460   1.978  0.0113  0.6508 -1.2804
10720SOL    HW233101   4.591   0.437   1.864  2.2658 -0.9127  0.8666
10721SOL     OW33102   0.185   4.336   4.222  0.1721 -0.6532  0.1456
10721SOL    HW133103   0.254   4.401   4.232  1.0483 -1.4152 -0.8013
10721SOL    HW233104   0.211   4.265   4.281 -0.4489 -0.4266  0.7009
10722SOL     OW33105   1.675   5.334   4.744  0.1268 -0.7162  0.0949
10722SOL    HW133106   1.669   5.414   4.691  1.5062 -1.1283 -0.7426
10722SOL    HW233107   1.743   5.352   4.808 -1.0892 -0.4602  1.3575
10723SOL     OW33108   5.918   3.159   5.572  0.3368 -0.7772 -0.0140
10723SOL    HW133109   5.851   3.131   5.634  2.4287 -1.2336  2.1709
10723SOL    HW233110   5.938   3.081   5.520 -0.0718 -0.9108  0.0260
10724SOL     OW33111   4.347   6.537   1.277  0.1904  0.0607 -0.3301
10724SOL    HW133112   4.341   6.616   1.331 -1.5558  0.2535 -0.7442
10724SOL    HW233113   4.333   6.567   1.187 -0.3237 -0.6920 -0.5123
10725SOL     OW33114   3.423   1.346   6.825  0.0581  0.1597  0.2254
10725SOL    HW133115   3.328   1.340   6.813  0.1903  0.7328 -1.3600
10725SOL    HW233116   3.444   1.276   6.886 -1.5101  0.6909  1.4480
10726SOL     OW33117   5.532   2.859   7.153 -0.4337 -0.0754 -0.7169
10726SOL    HW133118   5.603   2.806   7.117 -0.0103 -0.2681  0.3623
10726SOL    HW233119   5.539   2.847   7.248 -0.9878  1.0855 -0.5124
10727SOL     OW33120   4.939   3.869   2.446  0.7504  0.0727 -0.6500
10727SOL    HW133121   4.910   3.821   2.524  2.6721 -1.7522 -0.9886
10727SOL    HW233122   4.953   3.959   2.477  1.5607 -0.6279  1.1349
10728SOL     OW33123   2.251   7.244   6.969  0.2965  0.1833 -0.3197
10728SOL    HW133124   2.183   7.189   7.008 -0.2974  0.7057 -0.5843
10728SOL    HW233125   2.333   7.211   7.005  0.2521 -2.6629 -2.5131
10729SOL     OW33126   0.948   5.824   5.486 -0.4960 -0.4566  0.2013
10729SOL    HW133127   0.988   5.856   5.405 -0.3751 -2.2927 -0.5166
10729SOL    HW233128   1.021   5.808   5.545 -0.5675  0.6698  0.6141
10730SOL     OW33129   3.192   1.648   4.373  0.5019 -0.1124  0.2020
10730SOL    HW133130   3.151   1.623   4.291  2.1628  0.0701 -0.7352
10730SOL    HW233131   3.120   1.674   4.430 -0.7857 -1.4584 -0.7575
10731SOL     OW33132   4.218   4.378   5.180 -0.0297  0.1310  0.5082
10731SOL    HW133133   4.238   4.285   5.175 -0.6965 -0.1642  2.5072
10731SOL    HW233134   4.245   4.404   5.268 -0.2851  1.7164  0.1455
10732SOL     OW33135   1.839   2.222   4.256  0.1357  0.3047  0.1625
10732SOL    HW133136   1.849   2.173   4.338  1.2985  1.9944  1.0688
10732SOL    HW233137   1.838   2.314   4.283 -0.3523  0.8588 -1.6536
10733SOL     OW33138   1.289   3.443   6.449  0.2418 -0.2684 -0.1297
10733SOL    HW133139   1.366   3.499   6.435 -0.7254  1.1209 -0.1303
10733SOL    HW233140   1.249   3.436   6.363  0.3706 -1.0100 -0.1327
10734SOL     OW33141   3.490   6.852   5.819  0.3853 -0.5215  0.4568
10734SOL    HW133142   3.433   6.797   5.874 -1.0713  0.1593 -0.3244
10734SOL    HW233143   3.548   6.789   5.776  0.7455 -1.1717  1.8376
10735SOL     OW33144   2.121   7.092   6.620  0.2937  0.2121 -0.0877
10735SOL    HW133145   2.132   7.023   6.685  0.5146  0.5702  0.2583
10735SOL    HW233146   2.041   7.138   6.646 -0.1575 -0.2580 -0.6369
10736SOL     OW33147   6.555   2.086   3.170 -0.1122  0.1482 -0.3139
10736SOL    HW133148   6.540   1.993   3.180 -0.4532  0.0673 -1.4031
10736SOL    HW233149   6.647   2.094   3.145  0.2502  0.2149  0.9738
10737SOL     OW33150   4.099   6.393   6.229  0.0411 -0.1274  0.1531
10737SOL    HW133151   4.140   6.409   6.144  0.0987 -0.9633  0.0118
10737SOL    HW233152   4.171   6.401   6.292  0.3672 -1.2165 -0.0571
10738SOL     OW33153   0.889   4.621   3.624  0.5797  0.8040 -0.8150
10738SOL    HW133154   0.821   4.558   3.601  1.6809 -0.5378 -0.5860
10738SOL    HW233155   0.963   4.598   3.567  1.7312  0.4586  0.7438
10739SOL     OW33156   0.640   0.908   4.637  0.5282  0.1231  0.4487
10739SOL    HW133157   0.622   0.831   4.583  1.1718  0.3809 -0.1528
10739SOL    HW233158   0.573   0.971   4.614  1.6112  0.7639 -1.1417
10740SOL     OW33159   1.372   4.069   0.189  0.2468 -0.3506  0.4489
10740SOL    HW133160   1.432   4.023   0.130 -0.6234 -0.1783 -0.6013
10740SOL    HW233161   1.387   4.162   0.170 -2.2498 -0.3063 -1.8871
10741SOL     OW33162   4.866   6.471   0.336  0.7021 -0.6730 -0.2093
10741SOL    HW133163   4.933   6.409   0.308  1.3641 -1.3023  2.5420
10741SOL    HW233164   4.792   6.417   0.364  0.1429 -0.0881 -0.5173
10742SOL     OW33165   2.758   2.429   5.982 -0.1671  0.3686 -0.1885
10742SOL    HW133166   2.817   2.434   6.056  0.8808  1.8578 -1.0591
10742SOL    HW233167   2.700   2.504   5.993  0.8790  1.4247 -1.5410
10743SOL     OW33168   2.308   3.804   7.142 -0.0267 -0.4629 -0.1447
10743SOL    HW133169   2.305   3.856   7.062 -2.1656  1.0414  0.8277
10743SOL    HW233170   2.376   3.844   7.195  0.5448 -0.6975 -0.6868
10744SOL     OW33171   6.244   5.534   1.830  0.4650 -0.1814  0.2200
10744SOL    HW133172   6.329   5.511   1.868  0.8794 -1.1707 -1.2360
10744SOL    HW233173   6.205   5.450   1.805 -0.3385  0.3576 -0.3793
10745SOL     OW33174   6.191   5.257   6.894  0.3071  0.0507  0.3840
10745SOL    HW133175   6.172   5.164   6.900  1.1260 -0.2431 -1.1555
10745SOL    HW233176   6.197   5.274   6.800 -0.4844  1.7968  0.6054
10746SOL     OW33177   3.064   2.490   1.122 -0.2793  0.2821 -0.0575
10746SOL    HW133178   3.104   2.439   1.052  0.3812  0.3274  0.2869
10746SOL    HW233179   3.090   2.581   1.104  0.3087  0.2331  0.5259
10747SOL     OW33180   1.067   4.728   0.945 -0.0769  0.2515  0.1756
10747SOL    HW133181   0.983   4.684   0.955 -0.7571  1.9408  2.7631
10747SOL    HW233182   1.046   4.822   0.947  1.8448  0.7131  0.7653
10748SOL     OW33183   0.919   2.232   6.497 -0.1486 -0.1171 -0.2422
10748SOL    HW133184   0.915   2.149   6.450 -0.2558 -0.9298  1.1689
10748SOL    HW233185   1.013   2.250   6.506 -0.1070  0.7212 -1.8574
10749SOL     OW33186   7.173   4.816   1.819  0.6251  0.0137  0.2994
10749SOL    HW133187   7.161   4.771   1.735 -0.1400  0.8507 -0.0631
10749SOL    HW233188   7.108   4.776   1.877 -1.8489  2.2432 -0.7180
10750SOL     OW33189   5.457   1.739   3.011  0.1638 -0.4229  0.2028
10750SOL    HW133190   5.479   1.711   2.922 -0.6361 -0.6844  0.0817
10750SOL    HW233191   5.378   1.792   3.001  1.0269  1.0050  0.5636
10751SOL     OW33192   4.154   2.834   0.600  0.4593  0.0474 -0.6286
10751SOL    HW133193   4.148   2.912   0.655  0.2417 -0.8419  0.6595
10751SOL    HW233194   4.140   2.866   0.511 -1.4224  1.2467  0.0375
10752SOL     OW33195   6.038   0.993   5.821 -0.5802  0.3442  0.2870
10752SOL    HW133196   6.041   1.008   5.727  0.0599  1.6132  0.4905
10752SOL    HW233197   5.988   1.068   5.855 -0.2035  0.2678  1.0221
10753SOL     OW33198   3.190   3.378   3.900 -0.1162  0.1059  0.1807
10753SOL    HW133199   3.154   3.296   3.934 -2.2646  0.1620 -1.7642
10753SOL    HW233200   3.116   3.438   3.898  0.3584  0.7431 -2.4263
10754SOL     OW33201   3.486   6.549   2.332 -0.5835  0.1115  0.0922
10754SOL    HW133202   3.459   6.529   2.243 -1.0482 -0.3217  0.3253
10754SOL    HW233203   3.457   6.640   2.345 -0.7273  0.0973 -0.1182
10755SOL     OW33204   6.155   1.988   4.243 -0.0153  0.0940  0.5767
10755SOL    HW133205   6.074   2.013   4.197 -0.6463 -0.2244  1.4780
10755SOL    HW233206   6.128   1.978   4.335  0.5446 -2.3288  0.5273
10756SOL     OW33207   0.865   5.939   3.324 -0.4116 -0.0706 -0.3851
10756SOL    HW133208   0.905   6.025   3.325 -0.5476 -0.0055 -0.4429
10756SOL    HW233209   0.801   5.941   3.396 -0.6494 -0.0078 -0.5953
10757SOL     OW33210   6.745   3.686   0.650 -0.4768 -0.5371  0.1782
10757SOL    HW133211   6.802   3.723   0.582 -1.9391  0.5863 -0.5058
10757SOL    HW233212   6.786   3.713   0.732  0.5162 -0.6341 -0.2671
10758SOL     OW33213   3.949   6.187   1.174 -0.0178  0.4147  0.4694
10758SOL    HW133214   3.948   6.199   1.079 -2.0467 -0.8906  0.2740
10758SOL    HW233215   3.995   6.264   1.207 -0.1131  1.3804 -1.5042
10759SOL     OW33216   5.882   4.316   2.464 -0.2416  0.2645 -0.4110
10759SOL    HW133217   5.957   4.278   2.510 -0.8747  0.1284  0.5527
10759SOL    HW233218   5.825   4.241   2.445  0.4716  0.1769 -2.3660
10760SOL     OW33219   3.221   6.376   1.692 -0.4737 -0.2124 -0.0581
10760SOL    HW133220   3.259   6.296   1.729 -2.7001 -0.3597  2.1415
10760SOL    HW233221   3.269   6.389   1.610  1.2016 -2.7661  0.3924
10761SOL     OW33222   1.067   4.343   3.895  0.0434  0.3639  0.3744
10761SOL    HW133223   1.129   4.315   3.827  0.7280  0.3053  1.0155
10761SOL    HW233224   1.091   4.434   3.913 -0.9234  0.7751 -0.3156
10762SOL     OW33225   2.772   2.239   4.720  0.0935  0.2141  0.1496
10762SOL    HW133226   2.761   2.217   4.813  0.6181  1.4268  0.5162
10762SOL    HW233227   2.776   2.334   4.718  0.3610  0.1961 -1.0932
10763SOL     OW33228   5.177   5.690   6.111  1.4208  0.2725 -0.8686
10763SOL    HW133229   5.092   5.677   6.068  1.8618  0.1532 -1.7414
10763SOL    HW233230   5.207   5.602   6.133  0.6886  0.4068  0.7285
10764SOL     OW33231   4.842   0.890   3.620 -0.4510  0.5275 -0.2336
10764SOL    HW133232   4.753   0.901   3.587 -1.0764 -2.0882  0.3396
10764SOL    HW233233   4.896   0.889   3.541 -0.9681  1.6409 -0.6265
10765SOL     OW33234   1.192   5.440   3.140 -0.2438  0.1194 -0.5290
10765SOL    HW133235   1.280   5.402   3.146 -0.1926  0.3202  0.0178
10765SOL    HW233236   1.206   5.534   3.148 -0.6094  0.0883  0.7842
10766SOL     OW33237   0.287   2.178   1.904  0.0233 -0.3927 -0.0971
10766SOL    HW133238   0.246   2.227   1.975  0.6105  2.1503 -1.4051
10766SOL    HW233239   0.288   2.087   1.935 -2.2942  0.1696  1.9094
10767SOL     OW33240   4.060   7.140   3.092  0.5323 -0.1109  0.1161
10767SOL    HW133241   4.026   7.112   3.007 -0.7119  0.2427  0.4630
10767SOL    HW233242   4.114   7.216   3.072  0.2143 -0.0032 -0.3694
10768SOL     OW33243   3.514   7.273   2.848 -0.7874  0.0745 -0.2342
10768SOL    HW133244   3.572   7.206   2.811 -0.3807  0.8686 -1.0899
10768SOL    HW233245   3.565   7.312   2.919 -0.6433  0.1456 -0.3779
10769SOL     OW33246   6.981   1.775   0.493 -0.8742 -0.5321  0.0119
10769SOL    HW133247   7.036   1.721   0.550  0.4809  0.5680 -0.1997
10769SOL    HW233248   7.012   1.864   0.509 -0.7155 -0.1547 -2.1475
10770SOL     OW33249   0.470   6.607   2.707 -0.1747  0.2057 -0.0349
10770SOL    HW133250   0.464   6.532   2.649  1.1595 -1.2047  1.5623
10770SOL    HW233251   0.548   6.592   2.760 -1.6282  1.0464  2.5796
10771SOL     OW33252   5.845   5.254   2.579  0.2160  0.1716 -0.4229
10771SOL    HW133253   5.829   5.172   2.625  1.5456  0.4796  0.6669
10771SOL    HW233254   5.771   5.310   2.604 -0.4200 -0.5088 -0.7543
10772SOL     OW33255   5.362   6.194   2.473 -0.2357 -0.0530  0.0046
10772SOL    HW133256   5.425   6.266   2.472 -1.1854  0.8464  1.4529
10772SOL    HW233257   5.403   6.126   2.419  1.2662  1.0660 -0.3457
10773SOL     OW33258   3.170   7.410   7.315 -0.3653 -0.1890 -0.0609
10773SOL    HW133259   3.095   7.450   7.360  0.1892 -0.3429  1.0365
10773SOL    HW233260   3.149   7.316   7.313 -0.4303 -0.1709 -0.1950
10774SOL     OW33261   0.567   2.069   3.379  1.2564  0.3232  0.0541
10774SOL    HW133262   0.577   2.160   3.352 -0.5340  0.5503  0.0788
10774SOL    HW233263   0.635   2.022   3.330  2.2169  1.6480  0.0566
10775SOL     OW33264   4.215   6.509   5.973  0.1380 -0.1849  0.0223
10775SOL    HW133265   4.193   6.499   5.881 -0.0477 -0.1689  0.0648
10775SOL    HW233266   4.194   6.600   5.993  0.6382 -0.0513 -0.0430
10776SOL     OW33267   6.926   4.631   1.135  0.3233 -0.0049 -0.3476
10776SOL    HW133268   6.912   4.568   1.064 -0.9801  1.2560 -1.2481
10776SOL    HW233269   6.869   4.601   1.205 -0.9249  0.6059 -1.0800
10777SOL     OW33270   0.623   4.255   0.037 -0.2666 -0.1393 -0.5647
10777SOL    HW133271   0.680   4.203  -0.019  0.0829  1.1510 -1.4663
10777SOL    HW233272   0.595   4.195   0.106  2.7885 -0.6799  0.3736
10778SOL     OW33273   3.169   1.656   2.494  0.7053 -0.6039 -0.1499
10778SOL    HW133274   3.206   1.606   2.567 -0.6095  0.2364  1.1572
10778SOL    HW233275   3.137   1.590   2.433  1.1655 -1.3417  0.3833
10779SOL     OW33276   5.829   0.512   3.594 -0.5574 -0.1680 -0.0727
10779SOL    HW133277   5.873   0.442   3.546 -0.7359 -0.1348 -0.2860
10779SOL    HW233278   5.864   0.593   3.555 -0.5739 -0.1400 -0.0291
10780SOL     OW33279   2.992   4.968   5.290 -0.5517 -0.1861  0.3283
10780SOL    HW133280   3.065   4.972   5.227 -0.4882  3.1275  0.3988
10780SOL    HW233281   2.917   5.001   5.240 -1.1077  0.0073  1.2772
10781SOL     OW33282   3.040   6.062   6.398  0.0602  0.2920  0.5083
10781SOL    HW133283   2.969   6.091   6.340  0.2352 -0.6843 -0.2155
10781SOL    HW233284   2.996   6.042   6.481 -0.2386  1.3986  0.6425
10782SOL     OW33285   0.690   6.842   0.519  0.4790  0.0241 -0.9540
10782SOL    HW133286   0.624   6.834   0.588 -0.7194  1.0486 -1.9658
10782SOL    HW233287   0.771   6.864   0.567 -0.2541  0.4084  0.1534
10783SOL     OW33288   3.797   1.300   1.245 -0.2140  0.0032  0.6187
10783SOL    HW133289   3.708   1.278   1.271  0.2507 -0.2686  2.0614
10783SOL    HW233290   3.850   1.227   1.276  0.9344  1.5827  2.7198
10784SOL     OW33291   6.165   7.341   1.981 -0.3131  0.5875  0.6767
10784SOL    HW133292   6.094   7.311   1.925 -0.7329  0.4686  1.2628
10784SOL    HW233293   6.182   7.431   1.952  0.4383  0.0725 -0.5725
10785SOL     OW33294   6.789   4.372   6.732  0.1457  0.3227 -0.3245
10785SOL    HW133295   6.763   4.353   6.822 -0.1924  1.7888 -0.0920
10785SOL    HW233296   6.740   4.309   6.679 -0.2405 -0.0434  0.4457
10786SOL     OW33297   6.228   4.522   6.824 -0.6102  0.5451 -0.2817
10786SOL    HW133298   6.323   4.512   6.818 -0.7920 -0.7605 -1.5814
10786SOL    HW233299   6.196   4.489   6.740 -2.2329  0.6274  0.2859
10787SOL     OW33300   1.747   5.641   0.429 -0.3643 -0.0967  0.3061
10787SOL    HW133301   1.746   5.735   0.450  1.4511 -0.6851  3.9620
10787SOL    HW233302   1.667   5.607   0.469 -1.2206 -0.1141 -1.3593
10788SOL     OW33303   4.634   4.188   7.195  0.4329 -0.0863 -0.2759
10788SOL    HW133304   4.647   4.261   7.256  1.6783 -0.3686 -0.1783
10788SOL    HW233305   4.708   4.130   7.211  1.3940  0.3216 -2.7485
10789SOL     OW33306   1.175   6.279   4.992 -0.0651  0.1155 -0.7151
10789SOL    HW133307   1.124   6.199   4.993  0.4161 -0.1946  0.0382
10789SOL    HW233308   1.221   6.279   5.076 -0.0728  1.1871 -0.6984
10790SOL     OW33309   4.935   0.066   3.510  0.6690  0.1214 -0.6172
10790SOL    HW133310   4.969   0.007   3.578 -0.7107 -1.7336 -1.4479
10790SOL    HW233311   4.841   0.068   3.524  0.5329  0.9575 -1.5419
10791SOL     OW33312   5.221   3.025   3.425 -0.3357 -0.3294  0.2514
10791SOL    HW133313   5.315   3.041   3.420 -0.6110  1.1894 -1.2178
10791SOL    HW233314   5.206   2.988   3.512  1.4371  0.6979  1.0209
10792SOL     OW33315   6.310   6.278   6.475  0.1309  0.4058 -0.2210
10792SOL    HW133316   6.318   6.235   6.389 -2.0782  1.2166 -0.9095
10792SOL    HW233317   6.400   6.295   6.501  0.9245 -0.9769 -1.7985
10793SOL     OW33318   5.013   1.241   7.325  0.3515  0.8692  0.2501
10793SOL    HW133319   5.028   1.147   7.333  0.6573  0.9284  0.3666
10793SOL    HW233320   4.923   1.248   7.293  0.7140  0.5132 -0.8625
10794SOL     OW33321   5.057   1.411   1.463 -0.4879 -0.0091  0.0265
10794SOL    HW133322   5.092   1.400   1.551 -2.1178 -1.0061  0.5955
10794SOL    HW233323   5.104   1.346   1.410 -1.2197 -1.1202  0.7076
10795SOL     OW33324   4.650   6.343   0.396 -0.0870  0.0220 -0.2628
10795SOL    HW133325   4.554   6.341   0.403 -0.1273 -1.4952 -0.7396
10795SOL    HW233326   4.681   6.312   0.481  0.0757  2.3352  0.5837
10796SOL     OW33327   2.535   3.686   2.685 -0.3439  0.1147 -0.3132
10796SOL    HW133328   2.465   3.622   2.695  0.1172 -0.4474 -0.5818
10796SOL    HW233329   2.556   3.684   2.591 -1.0649  1.4657 -0.5256
10797SOL     OW33330   2.747   1.530   0.536 -0.5948 -0.1365  0.4833
10797SOL    HW133331   2.762   1.537   0.630 -0.3898 -0.7762  0.5077
10797SOL    HW233332   2.668   1.581   0.520 -1.4484 -1.1711  1.2395
10798SOL     OW33333   1.576   5.590   4.642 -0.4329  0.3269  0.5361
10798SOL    HW133334   1.502   5.598   4.581 -0.3157 -1.4308  0.1200
10798SOL    HW233335   1.643   5.647   4.605 -1.1921  1.0998  0.3192
10799SOL     OW33336   7.178   6.378   5.828  0.0891  0.2696 -0.0971
10799SOL    HW133337   7.169   6.286   5.853 -0.2995  0.6489  1.2375
10799SOL    HW233338   7.132   6.385   5.744 -0.0380 -0.7116 -0.1122
10800SOL     OW33339   2.523   6.308   2.203  0.0656 -0.3226 -0.5940
10800SOL    HW133340   2.544   6.222   2.239  0.1230  0.2691  0.8483
10800SOL    HW233341   2.436   6.297   2.165  0.1930 -1.0901 -0.6887
10801SOL     OW33342   5.749   3.551   4.422 -0.2141  0.0476  0.5229
10801SOL    HW133343   5.778   3.461   4.441 -1.0331 -0.3435 -0.0184
10801SOL    HW233344   5.752   3.557   4.327  1.0803  1.0369  0.5960
10802SOL     OW33345   1.508   4.923   3.511  0.3442 -0.2062 -0.2492
10802SOL    HW133346   1.602   4.910   3.527  0.3624 -0.5340 -0.6078
10802SOL    HW233347   1.502   4.935   3.417  0.1445  0.8953 -0.1110
10803SOL     OW33348   5.099   2.796   6.909  0.3294 -0.3076 -0.5481
10803SOL    HW133349   5.137   2.736   6.845 -0.6985  0.0922 -1.5553
10803SOL    HW233350   5.143   2.773   6.991  0.2320 -2.2020 -0.9638
10804SOL     OW33351   3.349   0.514   1.627  0.2374  0.2085 -0.3326
10804SOL    HW133352   3.292   0.457   1.677  0.2103 -0.7062 -1.3860
10804SOL    HW233353   3.424   0.459   1.603  0.2098  0.6000 -1.3625
10805SOL     OW33354   3.908   0.491   4.089  0.3839 -0.4239 -0.3877
10805SOL    HW133355   4.002   0.487   4.071  0.7227 -0.5484  1.2524
10805SOL    HW233356   3.898   0.448   4.174 -0.9785  0.6526  0.0345
10806SOL     OW33357   2.206   0.744   5.027  0.1049  0.8363  0.2396
10806SOL    HW133358   2.288   0.793   5.032 -0.2583  1.5015 -0.1274
10806SOL    HW233359   2.214   0.676   5.094  0.4245  1.7100  1.1044
10807SOL     OW33360   7.105   6.806   4.712  0.2404  0.1228 -0.0480
10807SOL    HW133361   7.159   6.812   4.633  0.8339  0.6680  0.3936
10807SOL    HW233362   7.143   6.870   4.772 -0.7778  0.3777  0.3464
10808SOL     OW33363   1.969   1.592   4.375 -0.8324 -0.3642  0.7332
10808SOL    HW133364   1.894   1.534   4.364 -1.1327  0.2991 -1.0013
10808SOL    HW233365   1.961   1.656   4.304 -0.3028  1.5640  2.3275
10809SOL     OW33366   4.433   6.178   6.424 -0.0520 -0.2234 -0.7060
10809SOL    HW133367   4.482   6.149   6.348 -0.0205 -1.7316 -0.1510
10809SOL    HW233368   4.469   6.126   6.497  0.3107  1.5705  0.4504
10810SOL     OW33369   4.052   0.060   3.667 -0.4166 -0.7292 -0.0831
10810SOL    HW133370   3.959   0.039   3.676 -0.5629  0.3806  1.2727
10810SOL    HW233371   4.088   0.048   3.755  0.2390  1.0530 -0.0750
10811SOL     OW33372   2.116   5.255   6.036 -0.1674  0.6591 -0.7397
10811SOL    HW133373   2.036   5.297   6.068 -0.4516 -0.5513  0.2168
10811SOL    HW233374   2.086   5.174   5.997  0.7432 -1.2880  2.2330
10812SOL     OW33375   5.102   3.386   0.390 -0.0204 -0.0909 -0.0848
10812SOL    HW133376   5.130   3.476   0.405 -0.0681 -0.4038  2.3373
10812SOL    HW233377   5.144   3.336   0.460 -0.6572 -1.8297 -0.8816
10813SOL     OW33378   4.998   0.229   1.511 -0.2701  0.3198  0.4628
10813SOL    HW133379   4.981   0.291   1.440  0.4346  1.3471  1.1621
10813SOL    HW233380   4.933   0.159   1.498 -0.6584  0.8713 -0.7216
10814SOL     OW33381   1.855   6.446   3.178 -0.5213  0.0785 -0.1995
10814SOL    HW133382   1.783   6.395   3.215 -0.3190  0.5684  0.9153
10814SOL    HW233383   1.827   6.466   3.089 -2.1437  0.9109  0.4455
10815SOL     OW33384   6.023   6.252   5.605 -0.5181 -0.1050 -0.2387
10815SOL    HW133385   6.072   6.332   5.591  0.7016 -0.7788  0.0446
10815SOL    HW233386   5.975   6.238   5.524  0.4095  0.1369 -0.8385
10816SOL     OW33387   1.648   2.013   6.246 -0.1678  0.0916 -0.3135
10816SOL    HW133388   1.610   1.956   6.313  0.1663 -2.0435 -1.8360
10816SOL    HW233389   1.740   1.986   6.241  0.9603  3.1889  1.2960
10817SOL     OW33390   5.517   4.688   3.224 -0.0039 -0.6196 -0.5806
10817SOL    HW133391   5.597   4.732   3.253 -0.4428 -0.0606 -0.1889
10817SOL    HW233392   5.528   4.598   3.252 -0.8298  0.0673  2.3738
10818SOL     OW33393   4.812   1.809   1.489  0.1841 -0.1317 -0.7013
10818SOL    HW133394   4.862   1.880   1.530  1.3832 -0.5337 -1.4291
10818SOL    HW233395   4.752   1.780   1.558  0.8844  0.4235  0.1704
10819SOL     OW33396   4.842   0.117   7.344  0.1919 -0.2105 -0.1161
10819SOL    HW133397   4.879   0.028   7.345  0.0099 -0.2880  1.2188
10819SOL    HW233398   4.815   0.130   7.253  0.2413 -1.5239 -0.3465
10820SOL     OW33399   0.322   1.861   1.008 -0.0066 -0.0243 -0.1563
10820SOL    HW133400   0.242   1.894   0.966  0.6856  1.6752 -0.2271
10820SOL    HW233401   0.392   1.888   0.949  0.8308  0.7989  1.1959
10821SOL     OW33402   1.599   2.075   4.171  0.4855  0.5767 -0.3503
10821SOL    HW133403   1.631   1.985   4.170  1.7264  1.0003 -1.8244
10821SOL    HW233404   1.670   2.125   4.211 -0.2694  0.9134  0.6296
10822SOL     OW33405   5.918   5.793   6.202 -0.0561 -0.0388  0.5546
10822SOL    HW133406   5.966   5.753   6.129 -0.7851  0.1365 -0.0342
10822SOL    HW233407   5.837   5.825   6.162  0.9291  2.9802  0.7649
10823SOL     OW33408   0.472   1.812   0.634 -0.0305  0.2363  0.1126
10823SOL    HW133409   0.377   1.827   0.636 -0.2891 -0.9498 -1.5574
10823SOL    HW233410   0.481   1.717   0.647  0.9713  0.3930  0.6436
10824SOL     OW33411   1.101   0.218   7.167 -0.1459  0.2015  0.4101
10824SOL    HW133412   1.154   0.148   7.128 -1.2012 -1.4025  1.7024
10824SOL    HW233413   1.104   0.289   7.103 -0.1376 -1.5439 -1.6332
10825SOL     OW33414   1.900   0.645   0.890 -0.0878  0.7340 -0.1595
10825SOL    HW133415   1.902   0.728   0.938 -1.1787  0.7183 -0.0611
10825SOL    HW233416   1.837   0.591   0.938  1.7463 -0.7364  0.6983
10826SOL     OW33417   2.786   2.319   1.947  1.3125  0.3550 -0.5223
10826SOL    HW133418   2.865   2.266   1.938  1.0036 -0.4204  1.0354
10826SOL    HW233419   2.725   2.263   1.995 -0.0611  1.0788 -1.3838
10827SOL     OW33420   4.220   3.379   3.578  0.0681  0.6215 -0.0080
10827SOL    HW133421   4.295   3.420   3.535  1.2213  0.9403  2.1972
10827SOL    HW233422   4.255   3.299   3.616 -0.6481  0.8644  1.2106
10828SOL     OW33423   0.458   2.492   2.988  0.2513 -0.0101  0.0266
10828SOL    HW133424   0.480   2.535   2.905  0.3483  1.6207  0.8484
10828SOL    HW233425   0.393   2.550   3.028 -0.7997 -1.4819  0.4936
10829SOL     OW33426   0.409   0.313   0.805 -0.2005  0.3439  0.5573
10829SOL    HW133427   0.392   0.319   0.711  0.1689  1.3712  0.5416
10829SOL    HW233428   0.415   0.219   0.823  0.7750  0.1602 -0.6407
10830SOL     OW33429   2.461   5.032   1.800  0.0663  0.2899 -0.3944
10830SOL    HW133430   2.392   4.969   1.778 -0.1514  0.2291  0.4319
10830SOL    HW233431   2.479   5.077   1.717 -0.3087 -0.3307 -0.8280
10831SOL     OW33432   3.001   3.967   5.461 -0.3814 -0.0404  0.0819
10831SOL    HW133433   3.095   3.986   5.465 -0.6512  1.1780  1.3976
10831SOL    HW233434   2.987   3.900   5.528 -0.3315 -0.8933 -0.7364
10832SOL     OW33435   4.621   1.525   5.164  0.1604  0.1662 -0.1581
10832SOL    HW133436   4.661   1.489   5.244 -2.4340  0.8229  1.5767
10832SOL    HW233437   4.652   1.468   5.094 -0.0604 -2.5649  1.7936
10833SOL     OW33438   1.808   0.480   5.826  0.0846 -0.0253  0.0882
10833SOL    HW133439   1.848   0.394   5.813 -0.4170 -0.2777  0.1980
10833SOL    HW233440   1.714   0.466   5.812  0.1508  0.7968 -1.3631
10834SOL     OW33441   6.445   2.007   3.806  0.3187  0.3914  0.3467
10834SOL    HW133442   6.420   1.933   3.749  2.2234 -0.2310  0.2261
10834SOL    HW233443   6.368   2.063   3.808 -0.3222 -0.3162 -1.6734
10835SOL     OW33444   4.992   7.178   1.616  0.7003 -0.0337  0.3319
10835SOL    HW133445   4.925   7.241   1.589  0.9042  0.2101  0.3900
10835SOL    HW233446   4.995   7.115   1.545  2.0622  1.2481 -0.8038
10836SOL     OW33447   7.054   4.727   4.343 -0.6195 -0.0607 -0.1925
10836SOL    HW133448   6.974   4.720   4.395  0.1450  0.5125  1.1040
10836SOL    HW233449   7.088   4.814   4.361  1.0527 -0.7943  0.4236
10837SOL     OW33450   3.582   0.632   2.236  0.1778 -0.0563  0.3449
10837SOL    HW133451   3.554   0.713   2.192  1.7200  0.5321  0.3672
10837SOL    HW233452   3.677   0.630   2.224  0.4091 -0.8985  1.9526
10838SOL     OW33453   5.177   4.728   2.425  0.1516 -0.4260  0.2822
10838SOL    HW133454   5.134   4.770   2.350  1.2271  0.7341  0.2947
10838SOL    HW233455   5.210   4.645   2.390 -1.1099 -0.8323  0.0006
10839SOL     OW33456   7.420   7.201   4.151 -0.8647  0.5780 -0.4781
10839SOL    HW133457   7.401   7.185   4.244 -0.3444 -0.0191 -0.4628
10839SOL    HW233458   7.421   7.113   4.112 -1.2304  0.8424 -1.0758
10840SOL     OW33459   6.614   2.479   0.332  0.0380 -0.2151  0.0808
10840SOL    HW133460   6.684   2.467   0.267  0.6470  0.0619  0.6677
10840SOL    HW233461   6.657   2.523   0.406 -0.9229  0.6062  0.1737
10841SOL     OW33462   4.500   6.164   5.143  0.2203 -0.2314  0.3105
10841SOL    HW133463   4.538   6.097   5.086 -0.0410  0.0673 -0.2282
10841SOL    HW233464   4.406   6.148   5.138  0.1709  0.0565  0.3292
10842SOL     OW33465   1.792   3.372   4.694  0.1947 -0.4301  0.1386
10842SOL    HW133466   1.763   3.400   4.781  2.6501 -0.9057  1.2090
10842SOL    HW233467   1.745   3.290   4.679  1.0345 -1.2949  1.8755
10843SOL     OW33468   2.676   1.072   5.098  0.4753  0.5920  0.1494
10843SOL    HW133469   2.651   1.096   5.187 -1.4840 -0.0087 -0.1875
10843SOL    HW233470   2.731   0.994   5.108 -0.4808 -0.0169  0.8137
10844SOL     OW33471   2.528   1.160   4.254 -0.0886  0.1057  0.2531
10844SOL    HW133472   2.451   1.183   4.203  0.0469 -0.3372 -0.1632
10844SOL    HW233473   2.548   1.070   4.228 -0.1940 -0.2356  1.3086
10845SOL     OW33474   1.556   2.330   0.819  0.1536 -0.2061 -0.4074
10845SOL    HW133475   1.562   2.269   0.892 -0.8320  1.0812  0.7927
10845SOL    HW233476   1.611   2.404   0.844  0.6910 -0.2200 -1.4833
10846SOL     OW33477   0.039   7.277   0.471 -0.7137 -0.5385 -0.4086
10846SOL    HW133478   0.111   7.310   0.525 -2.8319  1.4920  1.3438
10846SOL    HW233479   0.083   7.223   0.405  2.4951  1.3683 -0.0600
10847SOL     OW33480   5.327   4.148   6.425  0.7334  0.5565 -0.4595
10847SOL    HW133481   5.237   4.175   6.409  0.4987  0.0469 -0.0265
10847SOL    HW233482   5.335   4.062   6.382  0.6423  0.0358  0.5326
10848SOL     OW33483   1.539   5.685   3.537 -0.5490  0.3234 -0.1186
10848SOL    HW133484   1.548   5.729   3.621  0.1200  2.3962 -1.2229
10848SOL    HW233485   1.621   5.638   3.525 -0.5263  0.2718  0.2337
10849SOL     OW33486   4.578   2.909   5.641 -0.6006  0.2835 -0.3575
10849SOL    HW133487   4.671   2.904   5.620 -0.7511 -0.5855 -0.8834
10849SOL    HW233488   4.537   2.842   5.586 -1.5670  0.8020 -0.3007
10850SOL     OW33489   0.880   0.328   2.560 -0.5497 -0.3335  0.3440
10850SOL    HW133490   0.825   0.319   2.483 -1.0176  1.5294  0.4010
10850SOL    HW233491   0.831   0.387   2.617  2.4155  3.4891 -0.6211
10851SOL     OW33492   3.393   2.207   4.725  0.2683 -0.3276  0.6309
10851SOL    HW133493   3.419   2.296   4.747  0.1905  0.1860 -1.1907
10851SOL    HW233494   3.331   2.218   4.652  0.6258 -1.8851  0.0597
10852SOL     OW33495   3.938   6.746   7.030 -0.2847 -0.8817 -0.1406
10852SOL    HW133496   3.978   6.816   6.978 -2.6467 -0.4383 -1.4948
10852SOL    HW233497   3.943   6.669   6.974  0.3430 -1.2980  0.4686
10853SOL     OW33498   2.094   1.507   4.611 -0.2266 -0.2519  0.4787
10853SOL    HW133499   2.032   1.548   4.549  0.7969  1.5837  0.5781
10853SOL    HW233500   2.050   1.512   4.695 -0.3755  0.0866  0.3841
10854SOL     OW33501   6.626   2.622   2.517 -0.1772  0.7565 -0.2627
10854SOL    HW133502   6.714   2.626   2.556 -0.6918  1.0334  0.9063
10854SOL    HW233503   6.573   2.681   2.571 -1.3167 -0.1903 -0.3097
10855SOL     OW33504   5.102   6.756   2.213 -0.1968 -0.1423 -0.1613
10855SOL    HW133505   5.196   6.743   2.205 -0.4163 -1.4370 -1.0383
10855SOL    HW233506   5.092   6.847   2.240  1.2575  0.3037 -1.0144
10856SOL     OW33507   0.320   3.939   1.652  0.2991 -0.0140  0.2707
10856SOL    HW133508   0.310   4.032   1.630 -0.6271 -0.1398  0.1382
10856SOL    HW233509   0.268   3.893   1.587 -1.3112 -0.4769  1.8067
10857SOL     OW33510   4.987   4.391   1.022 -0.3240 -0.2842  0.2310
10857SOL    HW133511   5.047   4.338   1.074  0.1471 -0.6193 -0.6381
10857SOL    HW233512   5.019   4.481   1.033  1.1389 -0.5793 -1.2062
10858SOL     OW33513   3.661   4.939   2.844  0.0075 -0.0540  0.6603
10858SOL    HW133514   3.585   4.885   2.822 -0.4109  1.1287 -1.0220
10858SOL    HW233515   3.654   5.015   2.786  2.0972  0.4298  0.9563
10859SOL     OW33516   2.013   6.827   5.282 -0.0726  0.4009  0.4479
10859SOL    HW133517   2.032   6.911   5.240 -0.8595  0.1718 -0.4031
10859SOL    HW233518   2.002   6.848   5.375  0.5412  1.1076  0.3665
10860SOL     OW33519   1.700   5.965   4.741  0.3399  0.5265 -0.6851
10860SOL    HW133520   1.624   6.019   4.720 -0.6696 -0.9477 -1.0084
10860SOL    HW233521   1.693   5.948   4.835 -0.0251 -0.0168 -0.8056
10861SOL     OW33522   1.969   1.221   4.949  0.0155  0.3926 -0.6554
10861SOL    HW133523   1.966   1.150   5.013 -1.5358  0.0382 -1.0677
10861SOL    HW233524   2.047   1.204   4.897 -0.6909 -1.4598 -1.1982
10862SOL     OW33525   5.716   2.831   4.426 -0.1932 -0.6091  0.8955
10862SOL    HW133526   5.806   2.844   4.395 -0.0540  1.1737  1.9308
10862SOL    HW233527   5.664   2.828   4.346  0.4227  1.5772  0.3571
10863SOL     OW33528   6.210   2.978   4.467  0.4512  0.1960 -0.5795
10863SOL    HW133529   6.259   3.041   4.520 -0.3653  1.2020 -0.9981
10863SOL    HW233530   6.260   2.897   4.474  0.1901  0.1725  2.0504
10864SOL     OW33531   3.460   5.022   5.958  0.6442  0.4251 -0.1979
10864SOL    HW133532   3.426   5.011   5.870 -0.1018  0.6119  0.0564
10864SOL    HW233533   3.433   4.943   6.005  0.1706  0.7697  0.1232
10865SOL     OW33534   5.517   5.555   1.479  0.8831 -0.2723  0.6454
10865SOL    HW133535   5.458   5.616   1.435  1.3249 -0.1195  0.2663
10865SOL    HW233536   5.477   5.543   1.566 -0.5581 -1.3731 -0.1135
10866SOL     OW33537   5.384   5.606   3.406 -0.2822  0.5189  0.0510
10866SOL    HW133538   5.327   5.573   3.475 -0.0218 -0.2247 -0.0850
10866SOL    HW233539   5.442   5.533   3.385  0.0266  0.9265 -0.5481
10867SOL     OW33540   6.433   0.495   6.951  0.1785 -0.1740 -0.0516
10867SOL    HW133541   6.387   0.468   7.030 -1.7022  2.1033 -0.2621
10867SOL    HW233542   6.503   0.430   6.940  0.2375 -0.8065  3.1947
10868SOL     OW33543   4.019   6.738   4.651  0.3286 -0.4163  0.0765
10868SOL    HW133544   3.947   6.706   4.597 -0.3359  0.7665  0.2175
10868SOL    HW233545   4.087   6.671   4.644 -0.5501 -1.2608 -0.5501
10869SOL     OW33546   6.976   4.352   0.638  0.1540 -0.0195  0.1230
10869SOL    HW133547   7.004   4.292   0.707  0.1022 -0.6395 -0.3860
10869SOL    HW233548   7.004   4.438   0.668  1.3187 -0.4403  0.3012
10870SOL     OW33549   1.345   0.142   4.654 -0.7406  0.0987 -0.9567
10870SOL    HW133550   1.433   0.156   4.618 -0.0968  0.2398  0.5899
10870SOL    HW233551   1.302   0.085   4.590  0.9896 -1.1855 -1.0501
10871SOL     OW33552   2.182   0.899   5.807  0.1011  0.0751 -0.1378
10871SOL    HW133553   2.271   0.865   5.800 -0.4044 -1.6261  1.1402
10871SOL    HW233554   2.127   0.821   5.814 -1.3392  1.1260  0.7073
10872SOL     OW33555   6.984   2.376   6.677 -0.1811 -0.8772 -0.3392
10872SOL    HW133556   6.923   2.366   6.750  0.6985 -1.7466  0.3066
10872SOL    HW233557   7.069   2.392   6.719  0.3277 -1.3185 -1.1734
10873SOL     OW33558   3.109   2.388   6.190  0.0082 -0.0796 -0.2337
10873SOL    HW133559   3.183   2.342   6.230 -0.5452 -0.1384  0.7634
10873SOL    HW233560   3.046   2.319   6.170 -0.6110  0.1619  0.7986
10874SOL     OW33561   4.611   2.012   1.278  0.2256 -0.0371 -0.0172
10874SOL    HW133562   4.572   2.014   1.365  1.5658  1.7002  0.6106
10874SOL    HW233563   4.537   2.000   1.219 -0.8276 -0.2145  1.3011
10875SOL     OW33564   0.651   4.261   2.150 -0.6318  0.2196  0.5964
10875SOL    HW133565   0.724   4.278   2.211 -0.8114  1.9786  0.3636
10875SOL    HW233566   0.604   4.344   2.145 -0.7270  0.0950 -1.8197
10876SOL     OW33567   5.268   5.203   1.790 -0.1446 -0.1940 -0.0240
10876SOL    HW133568   5.207   5.276   1.794 -0.5538 -0.4774 -0.9077
10876SOL    HW233569   5.350   5.242   1.759  0.0408  0.1251  0.8399
10877SOL     OW33570   7.232   7.228   2.102  0.0257 -0.1542  0.4997
10877SOL    HW133571   7.192   7.288   2.165 -2.6115 -1.8854  0.6196
10877SOL    HW233572   7.266   7.284   2.033 -0.2619  1.5790  1.7169
10878SOL     OW33573   2.507   0.432   3.556 -0.0791  0.1371  0.0437
10878SOL    HW133574   2.471   0.370   3.620  0.4605  0.1468  0.3621
10878SOL    HW233575   2.507   0.516   3.602 -0.6073  0.3313 -0.3120
10879SOL     OW33576   3.467   1.991   4.563 -0.1314  0.0832  0.6849
10879SOL    HW133577   3.459   1.914   4.619  0.3336  0.0297  0.6847
10879SOL    HW233578   3.461   2.066   4.623 -0.9549  0.0570  0.6386
10880SOL     OW33579   2.386   6.147   1.379  0.2517  0.2376 -0.3645
10880SOL    HW133580   2.415   6.059   1.400  0.4915  0.6663  1.1838
10880SOL    HW233581   2.466   6.192   1.351  0.1019 -0.0615 -1.3080
10881SOL     OW33582   7.152   4.516   7.339 -0.4898 -0.3784  0.3172
10881SOL    HW133583   7.217   4.517   7.269 -1.3986  0.8894 -0.5647
10881SOL    HW233584   7.186   4.454   7.403  1.3341 -0.1194 -0.3433
10882SOL     OW33585   3.101   7.349   4.548 -0.3128  0.1918  0.8467
10882SOL    HW133586   3.160   7.320   4.478 -1.1538 -1.0172  0.6133
10882SOL    HW233587   3.150   7.418   4.593  1.0626 -0.4049  0.3298
10883SOL     OW33588   1.617   4.454   7.359  0.5451  0.4007  0.4470
10883SOL    HW133589   1.697   4.445   7.308  0.2735  1.4267 -0.1878
10883SOL    HW233590   1.647   4.480   7.446  0.9360  0.1892  0.3755
10884SOL     OW33591   6.209   0.953   7.236  0.7495  0.4449 -0.3429
10884SOL    HW133592   6.196   0.984   7.326  1.0364 -1.1295  0.2857
10884SOL    HW233593   6.165   1.017   7.181 -1.0060  0.4906  1.0452
10885SOL     OW33594   3.369   0.957   4.910  0.1383  0.0852 -0.1534
10885SOL    HW133595   3.323   0.925   4.988  0.5697  0.3773  0.2279
10885SOL    HW233596   3.462   0.940   4.929  0.1358 -1.6259 -1.4224
10886SOL     OW33597   3.064   6.422   0.625 -0.1976  0.5203 -0.1751
10886SOL    HW133598   3.146   6.382   0.654 -0.2491  2.6988  3.6169
10886SOL    HW233599   3.087   6.512   0.602 -1.4355  1.1406  0.8449
10887SOL     OW33600   4.762   6.027   4.662 -0.2847  0.0509 -0.1574
10887SOL    HW133601   4.736   5.944   4.703  2.5588 -0.2154  1.3279
10887SOL    HW233602   4.810   6.074   4.731 -0.7422  2.4318 -1.3418
10888SOL     OW33603   0.217   1.105   0.341  0.1007  0.2810  0.0736
10888SOL    HW133604   0.305   1.082   0.312  0.0459 -0.2311  0.2978
10888SOL    HW233605   0.166   1.025   0.327 -1.0852  1.4492 -3.0205
10889SOL     OW33606   3.828   3.873   2.341  0.6618  0.5572  0.5145
10889SOL    HW133607   3.822   3.780   2.321  0.8978  0.6713 -0.1173
10889SOL    HW233608   3.821   3.916   2.256  0.0303  1.1402  0.8489
10890SOL     OW33609   5.315   2.955   3.092  0.1880 -0.2768 -0.4765
10890SOL    HW133610   5.297   2.867   3.125 -0.5919  0.0911  0.0908
10890SOL    HW233611   5.365   2.997   3.162  0.9964 -0.4140 -0.9486
10891SOL     OW33612   7.056   3.831   6.098  0.1740 -0.3106  0.2194
10891SOL    HW133613   7.071   3.921   6.068  0.0909 -1.1599 -2.6463
10891SOL    HW233614   6.961   3.819   6.091  0.2507 -0.8143  0.0583
10892SOL     OW33615   1.066   0.749   5.812  0.5006 -0.5374  0.3966
10892SOL    HW133616   1.087   0.791   5.896  0.3509  2.2896 -0.8600
10892SOL    HW233617   1.151   0.734   5.771  0.5278  0.9790 -0.1863
10893SOL     OW33618   6.188   3.185   0.030 -0.1716 -0.1176  0.5389
10893SOL    HW133619   6.240   3.142  -0.037 -1.7748 -0.0909 -0.7949
10893SOL    HW233620   6.099   3.155   0.014 -0.9541  1.7356  1.1559
10894SOL     OW33621   2.010   2.975   5.100  0.3123 -0.2802  0.1268
10894SOL    HW133622   2.096   3.012   5.078  0.5275  0.8305  2.4850
10894SOL    HW233623   2.027   2.917   5.174 -0.9602  0.0801  0.7391
10895SOL     OW33624   0.181   6.310   6.283  0.0821  0.0698 -0.1322
10895SOL    HW133625   0.140   6.308   6.196 -0.2108 -0.1980  0.0086
10895SOL    HW233626   0.214   6.399   6.292 -2.7063  1.1011  0.7722
10896SOL     OW33627   3.544   2.268   3.973  0.9033  0.2570 -0.2687
10896SOL    HW133628   3.456   2.297   3.995  1.6174  3.3635 -0.9647
10896SOL    HW233629   3.574   2.221   4.051 -1.4678 -1.3471 -0.2182
10897SOL     OW33630   6.158   5.392   1.128  0.2376  0.0590  0.2232
10897SOL    HW133631   6.133   5.474   1.170  0.0710  0.3712 -0.4703
10897SOL    HW233632   6.151   5.410   1.034 -0.3645 -0.9135  0.0639
10898SOL     OW33633   5.325   4.934   1.870  0.0992  0.3275 -0.2753
10898SOL    HW133634   5.326   4.944   1.965  1.2428 -0.3733 -0.1908
10898SOL    HW233635   5.294   5.019   1.838  0.3843  0.8201  0.6926
10899SOL     OW33636   4.432   0.228   6.500 -0.0422  0.0604  0.3496
10899SOL    HW133637   4.364   0.216   6.434  2.2061 -1.4120 -1.8995
10899SOL    HW233638   4.463   0.317   6.488 -0.2594  0.0980  0.0709
10900SOL     OW33639   6.014   7.008   5.110  0.5616 -0.2357  0.5411
10900SOL    HW133640   5.947   7.060   5.155 -0.5957  0.0293 -1.3633
10900SOL    HW233641   6.009   7.037   5.019  2.5438 -1.0028  0.1438
10901SOL     OW33642   5.301   2.013   3.820  0.3613 -0.0620  0.4146
10901SOL    HW133643   5.351   2.037   3.899 -0.9449 -0.4443  1.3900
10901SOL    HW233644   5.269   1.925   3.838  0.3399 -0.2997 -0.7173
10902SOL     OW33645   2.597   1.143   3.452 -0.1859 -0.5662 -0.4520
10902SOL    HW133646   2.570   1.133   3.360  0.3416  0.8198 -0.7801
10902SOL    HW233647   2.692   1.155   3.448 -0.2970  0.6798  0.1653
10903SOL     OW33648   3.516   0.433   2.365 -0.4821 -0.0753  0.1734
10903SOL    HW133649   3.546   0.511   2.319  0.7549  0.0423  1.1275
10903SOL    HW233650   3.427   0.418   2.332 -0.9351  2.0009  0.3321
10904SOL     OW33651   2.533   6.420   6.625 -0.1687  0.3316  0.5082
10904SOL    HW133652   2.585   6.444   6.701 -0.1597  3.1864 -0.2827
10904SOL    HW233653   2.442   6.431   6.654 -0.2129 -0.2796  0.6040
10905SOL     OW33654   7.193   6.638   6.121  0.2180  0.2319 -0.2743
10905SOL    HW133655   7.265   6.587   6.085  1.3798  1.7777 -0.2341
10905SOL    HW233656   7.163   6.693   6.049  0.5898  1.1948  0.2731
10906SOL     OW33657   6.388   5.660   2.617 -0.3888 -0.3218  0.0654
10906SOL    HW133658   6.442   5.684   2.542  0.5605  2.6137  1.5398
10906SOL    HW233659   6.370   5.567   2.605  0.7575 -0.2555 -3.0994
10907SOL     OW33660   6.415   5.855   0.768 -0.0860 -0.1415 -0.6715
10907SOL    HW133661   6.471   5.883   0.696  0.9065  0.7595  0.3956
10907SOL    HW233662   6.416   5.929   0.829 -2.5909 -0.0226 -0.6671
10908SOL     OW33663   3.483   7.286   6.842 -0.3362 -0.4270 -0.0605
10908SOL    HW133664   3.477   7.201   6.888 -0.5930  0.1872  1.0888
10908SOL    HW233665   3.535   7.341   6.901 -2.0479  0.8900  0.2889
10909SOL     OW33666   0.221   2.376   0.305  0.0501 -0.1405 -0.2784
10909SOL    HW133667   0.199   2.389   0.213 -0.9441 -3.2587 -0.6172
10909SOL    HW233668   0.316   2.389   0.309 -0.1847  2.3967 -1.1742
10910SOL     OW33669   1.894   0.543   2.818  0.4330  0.1626  0.1764
10910SOL    HW133670   1.916   0.631   2.789 -1.0517  0.7110  0.6267
10910SOL    HW233671   1.881   0.551   2.913 -1.3854 -0.1521 -0.0133
10911SOL     OW33672   3.728   5.659   1.330 -0.4988 -0.2907 -0.1259
10911SOL    HW133673   3.672   5.611   1.391 -1.1118 -0.0452 -0.4887
10911SOL    HW233674   3.675   5.734   1.303  0.0461  0.0063 -0.3958
10912SOL     OW33675   1.530   5.589   7.252  0.1765 -0.4455 -0.0661
10912SOL    HW133676   1.595   5.573   7.184  0.3632 -0.5368  0.1330
10912SOL    HW233677   1.580   5.625   7.325  0.4460 -2.8632  1.0549
10913SOL     OW33678   4.226   4.942   0.212 -0.2116  0.0743 -0.1201
10913SOL    HW133679   4.172   4.882   0.263 -0.0476 -0.2896 -0.3781
10913SOL    HW233680   4.197   4.930   0.121  0.6943 -0.5403 -0.3331
10914SOL     OW33681   3.415   5.216   0.759 -0.4091  0.7311  0.2723
10914SOL    HW133682   3.501   5.259   0.762  0.4111 -0.8525  0.9679
10914SOL    HW233683   3.405   5.177   0.846 -0.5044 -1.5046 -0.6735
10915SOL     OW33684   5.452   0.924   4.153  0.0766  0.1858  0.1252
10915SOL    HW133685   5.547   0.922   4.140  0.1382 -1.6531  0.5293
10915SOL    HW233686   5.439   0.879   4.236 -1.1794  0.0191 -0.1447
10916SOL     OW33687   0.982   5.258   4.797  0.0322 -0.0708  0.5406
10916SOL    HW133688   1.056   5.238   4.739  0.1883 -1.7477  1.2458
10916SOL    HW233689   1.022   5.300   4.873 -0.3850  4.2563 -1.3236
10917SOL     OW33690   2.500   1.465   5.869 -0.1886 -0.2162  0.0985
10917SOL    HW133691   2.450   1.539   5.835 -2.9709 -1.6272  0.8000
10917SOL    HW233692   2.517   1.411   5.792  1.9668  1.1385 -0.4354
10918SOL     OW33693   7.347   0.843   7.329 -0.2221 -0.2654  0.4267
10918SOL    HW133694   7.283   0.787   7.285 -1.2204 -0.2500  1.7748
10918SOL    HW233695   7.419   0.852   7.267 -0.3205 -2.5083 -0.0831
10919SOL     OW33696   3.934   1.964   2.206  0.4358  0.4725  0.2216
10919SOL    HW133697   3.996   1.964   2.279  0.4911  1.5969  0.1846
10919SOL    HW233698   3.889   2.048   2.212 -2.2354 -0.9141  1.1762
10920SOL     OW33699   2.756   1.560   5.576 -0.0382  0.0685 -0.2410
10920SOL    HW133700   2.826   1.502   5.605 -0.8141 -0.3403  0.8776
10920SOL    HW233701   2.801   1.633   5.535  0.9620 -2.0007 -3.1368
10921SOL     OW33702   1.728   1.427   4.344  0.6764 -0.2428 -0.0088
10921SOL    HW133703   1.665   1.496   4.365 -0.3089 -1.0738 -0.1487
10921SOL    HW233704   1.703   1.354   4.402  0.0633 -1.3729 -1.6185
10922SOL     OW33705   2.474   3.675   0.643 -0.0623 -0.2499 -0.0463
10922SOL    HW133706   2.474   3.709   0.732 -0.5694 -1.5657  0.4854
10922SOL    HW233707   2.510   3.746   0.590  3.2124 -0.5072  1.6027
10923SOL     OW33708   4.293   3.747   3.907 -0.0225 -0.1394  0.0422
10923SOL    HW133709   4.353   3.680   3.940  0.9549  1.0216  0.7272
10923SOL    HW233710   4.212   3.700   3.888  0.7033 -1.5400  0.2904
10924SOL     OW33711   3.279   3.525   1.794 -0.9472 -0.8295  0.3010
10924SOL    HW133712   3.273   3.490   1.705  0.6113  0.7600 -0.4808
10924SOL    HW233713   3.284   3.620   1.782  1.1079 -0.6627  1.9321
10925SOL     OW33714   6.350   0.779   4.311  0.5857 -0.4057 -0.2953
10925SOL    HW133715   6.328   0.871   4.294  2.6604 -0.0754 -1.5801
10925SOL    HW233716   6.343   0.770   4.406  1.2139  1.3497 -0.0308
10926SOL     OW33717   0.503   4.926   0.754 -0.0013  0.9850 -0.2114
10926SOL    HW133718   0.475   4.855   0.811  1.5779  1.5428  1.3470
10926SOL    HW233719   0.557   4.883   0.687 -1.2956  0.4214 -0.9414
10927SOL     OW33720   6.384   1.842   3.223 -0.2679  0.7733  0.2862
10927SOL    HW133721   6.297   1.803   3.227  0.6066 -1.2638  1.4012
10927SOL    HW233722   6.407   1.842   3.130 -0.2047 -1.7893  0.2468
10928SOL     OW33723   3.261   3.415   1.542  0.3457  0.2595  0.0618
10928SOL    HW133724   3.339   3.370   1.508 -0.2190 -1.2881  0.7546
10928SOL    HW233725   3.221   3.455   1.464  0.7404 -0.6391 -0.6210
10929SOL     OW33726   7.233   6.001   3.024  0.1862 -0.2301  0.2173
10929SOL    HW133727   7.275   6.023   3.107 -1.2548  1.2125  0.6311
10929SOL    HW233728   7.139   6.004   3.043 -0.1663 -0.3128 -1.3534
10930SOL     OW33729   1.592   6.267   1.909  0.1868 -0.1166 -0.1199
10930SOL    HW133730   1.646   6.199   1.870  0.6543  0.9607 -1.4149
10930SOL    HW233731   1.515   6.220   1.942  1.0338 -1.4102  0.0759
10931SOL     OW33732   2.734   3.302   4.956 -0.0826 -0.2734 -0.2121
10931SOL    HW133733   2.807   3.262   5.003 -0.7671  1.2367  2.3180
10931SOL    HW233734   2.768   3.387   4.927 -0.6355  0.2020  0.5014
10932SOL     OW33735   2.889   4.928   0.648 -0.3217 -0.5721  0.1740
10932SOL    HW133736   2.965   4.975   0.614 -0.6110  0.4309  0.8749
10932SOL    HW233737   2.849   4.887   0.571  1.4029 -1.8507 -0.1024
10933SOL     OW33738   4.494   5.042   1.197 -0.1179 -0.0281 -0.1361
10933SOL    HW133739   4.476   5.130   1.231  1.4771  0.7509 -1.1697
10933SOL    HW233740   4.531   4.994   1.271 -1.8344 -0.1475  0.6832
10934SOL     OW33741   3.681   0.155   2.736 -0.2475  0.6110 -0.1888
10934SOL    HW133742   3.773   0.154   2.760 -0.3312  0.3470  0.1258
10934SOL    HW233743   3.672   0.085   2.671 -0.7059 -1.0627  1.6084
10935SOL     OW33744   2.869   3.352   0.547  0.3124 -0.1659  0.4769
10935SOL    HW133745   2.862   3.287   0.477  0.5997 -0.6158  0.8577
10935SOL    HW233746   2.783   3.352   0.588 -0.5412  1.5910 -1.1445
10936SOL     OW33747   1.898   0.142   0.574 -0.2653  0.2770 -0.1867
10936SOL    HW133748   1.853   0.084   0.636  0.1559 -0.0470 -0.1778
10936SOL    HW233749   1.927   0.084   0.504  1.4799  0.1831  0.5427
10937SOL     OW33750   6.723   0.571   0.539 -0.0838 -0.2631  0.0579
10937SOL    HW133751   6.677   0.515   0.476 -0.8411 -0.0271  0.3891
10937SOL    HW233752   6.709   0.527   0.624 -0.8537  0.5120  0.3517
10938SOL     OW33753   4.926   6.795   3.990 -0.2664  0.0277  0.5959
10938SOL    HW133754   4.926   6.758   3.902  0.6373  1.3798 -0.0057
10938SOL    HW233755   4.837   6.827   4.002  0.2010  2.0769 -0.8597
10939SOL     OW33756   0.775   0.721   1.822  0.4000  0.7172  0.1908
10939SOL    HW133757   0.730   0.780   1.761 -1.3187  0.2014  0.9138
10939SOL    HW233758   0.712   0.706   1.892  0.7174 -2.0155  0.0109
10940SOL     OW33759   1.540   6.694   4.840  0.1806 -0.1799 -0.0875
10940SOL    HW133760   1.617   6.740   4.874 -0.8692  0.9036  0.9285
10940SOL    HW233761   1.488   6.673   4.918 -1.2163  0.3643 -0.8319
10941SOL     OW33762   6.254   6.459   3.099  0.2627 -0.2201 -0.3645
10941SOL    HW133763   6.181   6.520   3.111  0.3340 -0.4171  1.2319
10941SOL    HW233764   6.219   6.374   3.125  0.8967 -0.4121 -0.1355
10942SOL     OW33765   2.536   6.442   1.439 -0.0546  0.3398  0.1181
10942SOL    HW133766   2.476   6.504   1.397 -1.5513 -0.6721  0.6530
10942SOL    HW233767   2.565   6.385   1.368 -1.5400 -0.5402  0.1504
10943SOL     OW33768   6.388   7.341   0.634  0.6783 -0.1224 -0.1112
10943SOL    HW133769   6.337   7.418   0.611  1.6555  0.7792  0.6878
10943SOL    HW233770   6.426   7.312   0.550 -0.3047 -0.2234 -0.5407
10944SOL     OW33771   5.701   4.068   2.762  0.2731 -0.0599 -0.1902
10944SOL    HW133772   5.688   4.161   2.743  1.8563 -0.1931 -2.1423
10944SOL    HW233773   5.667   4.022   2.685 -1.1339 -1.1904  1.0360
10945SOL     OW33774   4.451   7.314   5.708 -0.4818 -0.0657 -0.0613
10945SOL    HW133775   4.546   7.317   5.693  0.0545 -3.7195  1.5857
10945SOL    HW233776   4.441   7.339   5.800 -1.0267 -0.4636 -0.0093
10946SOL     OW33777   0.367   3.296   4.852  0.5062 -0.3519 -0.2288
10946SOL    HW133778   0.354   3.360   4.923 -0.5928  0.5847 -1.2351
10946SOL    HW233779   0.461   3.275   4.856  0.2831 -1.1496  2.1642
10947SOL     OW33780   2.766   0.922   1.233 -0.2810  0.2736 -0.6271
10947SOL    HW133781   2.836   0.858   1.224  0.2308  0.8950 -1.1976
10947SOL    HW233782   2.686   0.872   1.220  0.1272 -0.1896 -1.4442
10948SOL     OW33783   0.594   5.723   1.729  0.0860 -0.3162  0.1734
10948SOL    HW133784   0.561   5.736   1.818 -3.0030 -1.2439 -0.6949
10948SOL    HW233785   0.684   5.692   1.741 -0.4499 -1.1110  2.9917
10949SOL     OW33786   3.912   4.192   0.968 -0.0134  0.2529  0.0546
10949SOL    HW133787   3.874   4.132   1.032  0.7633  0.5289  0.7901
10949SOL    HW233788   3.937   4.269   1.020 -1.0890  1.2695 -0.8824
10950SOL     OW33789   5.533   3.914   5.722 -0.9612  0.2089 -0.2051
10950SOL    HW133790   5.453   3.910   5.668 -1.5426 -0.4396  0.6690
10950SOL    HW233791   5.602   3.881   5.665 -1.3985  0.3696 -0.8377
10951SOL     OW33792   1.722   4.000   5.773 -0.4336  0.1419 -0.4659
10951SOL    HW133793   1.641   3.986   5.725  0.3391 -2.0493 -1.2533
10951SOL    HW233794   1.758   3.912   5.785 -0.0160  0.6532  3.1975
10952SOL     OW33795   4.666   5.833   5.412  0.4754 -0.0811  0.0824
10952SOL    HW133796   4.577   5.864   5.398  0.8988  0.7101 -1.0644
10952SOL    HW233797   4.658   5.764   5.478 -0.6456  1.7316  1.9521
10953SOL     OW33798   0.514   2.333   0.346  0.1676  0.2126 -0.2216
10953SOL    HW133799   0.566   2.346   0.425 -0.2574  1.1068 -0.0704
10953SOL    HW233800   0.577   2.339   0.274  0.8317 -2.2014  0.0700
10954SOL     OW33801   4.425   6.270   5.371  0.1874  0.5763  0.1645
10954SOL    HW133802   4.452   6.245   5.282  0.4894 -1.0518  0.6782
10954SOL    HW233803   4.336   6.238   5.379  0.2923  0.3815  0.5769
10955SOL     OW33804   5.280   1.279   5.441 -0.0482  0.2330 -0.1726
10955SOL    HW133805   5.353   1.250   5.387 -0.2519  0.1743 -0.4212
10955SOL    HW233806   5.202   1.259   5.389 -0.3407 -1.0647  0.7088
10956SOL     OW33807   0.034   4.880   1.829 -0.0299 -0.0952 -0.6474
10956SOL    HW133808  -0.060   4.872   1.811  0.1097  0.3934 -1.6776
10956SOL    HW233809   0.039   4.941   1.903 -0.4680  1.3071 -1.7262
10957SOL     OW33810   2.023   3.565   0.760 -0.3079 -0.2473  0.3725
10957SOL    HW133811   2.020   3.593   0.669  0.4537 -0.1908  0.3516
10957SOL    HW233812   2.036   3.471   0.756 -0.2968 -0.2479  0.4191
10958SOL     OW33813   0.955   0.540   1.928  0.4406 -0.6678  0.3184
10958SOL    HW133814   0.899   0.605   1.886 -1.6366 -1.7936  1.1887
10958SOL    HW233815   0.977   0.478   1.858 -1.6203 -1.6297  0.4587
10959SOL     OW33816   2.735   5.022   2.417 -0.0628  0.0000  0.0819
10959SOL    HW133817   2.812   5.023   2.474  0.1019  0.1312 -0.1465
10959SOL    HW233818   2.726   4.930   2.391  1.4112  0.3246 -1.7990
10960SOL     OW33819   1.320   7.133   4.802  0.3097  0.0863  0.1433
10960SOL    HW133820   1.405   7.162   4.837 -0.3095  2.9406 -0.4557
10960SOL    HW233821   1.339   7.106   4.713  0.4800  1.7219 -0.3457
10961SOL     OW33822   6.523   3.737   0.914 -0.1522 -0.4991 -0.1357
10961SOL    HW133823   6.615   3.756   0.933 -0.3143  0.6536 -0.4447
10961SOL    HW233824   6.511   3.765   0.824 -0.7175 -1.0025 -0.2216
10962SOL     OW33825   3.528   5.219   7.177  0.2724 -0.2698  0.2365
10962SOL    HW133826   3.601   5.178   7.131 -0.3585 -0.8927 -0.2089
10962SOL    HW233827   3.486   5.148   7.224 -1.3133 -0.3099 -1.1734
10963SOL     OW33828   5.321   0.020   2.708 -0.7590 -0.2355 -0.0204
10963SOL    HW133829   5.295  -0.054   2.762 -0.4437 -0.6424 -0.4219
10963SOL    HW233830   5.360  -0.019   2.630  0.0830  0.3529  0.0916
10964SOL     OW33831   6.643   3.465   1.622 -0.2754 -0.6154 -0.3305
10964SOL    HW133832   6.715   3.475   1.685  0.9167 -0.7996 -1.6242
10964SOL    HW233833   6.665   3.525   1.551 -1.4822 -0.5853 -0.7002
10965SOL     OW33834   2.889   5.921   0.245 -0.2774 -0.2659 -0.4287
10965SOL    HW133835   2.968   5.955   0.288  0.1049  0.1135 -1.4028
10965SOL    HW233836   2.915   5.836   0.210 -0.2150 -0.0294 -0.9709
10966SOL     OW33837   1.273   5.175   0.452  0.1297  0.0764  0.3778
10966SOL    HW133838   1.274   5.090   0.495 -0.2342  0.0717  0.3818
10966SOL    HW233839   1.263   5.238   0.523 -0.0332  0.0951  0.3395
10967SOL     OW33840   2.791   7.430   4.246  0.4043 -0.4194  0.1594
10967SOL    HW133841   2.886   7.437   4.231 -0.0216  1.2797 -2.2644
10967SOL    HW233842   2.764   7.358   4.189 -0.1811  1.2818 -1.8152
10968SOL     OW33843   1.859   5.516   5.144  0.1425  0.4965 -0.0121
10968SOL    HW133844   1.901   5.438   5.181 -2.1084 -1.0296 -0.5091
10968SOL    HW233845   1.867   5.505   5.049 -1.1138  0.2729 -0.1141
10969SOL     OW33846   3.984   5.662   3.659  0.0219 -0.0306  0.1572
10969SOL    HW133847   3.974   5.570   3.636  1.6948 -0.1104 -0.4088
10969SOL    HW233848   3.910   5.706   3.618 -1.0633 -1.1582  0.8317
10970SOL     OW33849   1.607   2.869   7.158 -0.5071 -0.1636 -0.1258
10970SOL    HW133850   1.522   2.825   7.167 -0.7980  0.2952 -0.5747
10970SOL    HW233851   1.599   2.948   7.212 -0.8915  0.6230 -1.2903
10971SOL     OW33852   3.194   5.812   7.012 -0.3714  0.2854 -0.4647
10971SOL    HW133853   3.191   5.861   6.929  0.0459  0.4751 -0.3730
10971SOL    HW233854   3.191   5.879   7.080  0.0760  0.1843 -0.3376
10972SOL     OW33855   0.413   3.920   2.829 -0.1624 -0.1014 -0.7715
10972SOL    HW133856   0.365   3.882   2.756 -0.9339  0.1544 -0.4036
10972SOL    HW233857   0.459   3.847   2.868 -0.0667 -0.3096 -1.2655
10973SOL     OW33858   7.351   4.376   5.148  0.2786 -0.2872  0.2542
10973SOL    HW133859   7.265   4.337   5.165  0.1455  0.0919  0.4660
10973SOL    HW233860   7.405   4.347   5.221  0.8190 -1.9356 -0.7474
10974SOL     OW33861   6.898   3.017   4.208 -0.1444  0.8399 -0.0758
10974SOL    HW133862   6.951   2.987   4.133 -0.2996 -0.1391  0.1896
10974SOL    HW233863   6.934   2.969   4.283 -2.3790 -1.1144 -0.1335
10975SOL     OW33864   3.741   3.157   5.428 -0.3166  0.4151 -0.0578
10975SOL    HW133865   3.793   3.078   5.408  3.3273  2.9086 -1.5198
10975SOL    HW233866   3.654   3.123   5.450  1.1472 -4.0109 -0.0335
10976SOL     OW33867   1.916   1.663   2.871 -0.2342 -0.0887 -0.4689
10976SOL    HW133868   1.976   1.593   2.895 -0.4707 -0.7810 -1.8345
10976SOL    HW233869   1.837   1.645   2.923  1.0845  1.6143  2.4273
10977SOL     OW33870   0.727   2.848   0.448  0.5164  0.3051  0.2762
10977SOL    HW133871   0.635   2.870   0.466  0.2211 -0.5248 -0.1332
10977SOL    HW233872   0.749   2.782   0.514  0.6753  0.1908  0.1110
10978SOL     OW33873   4.491   6.456   4.145  0.3694  0.2592 -0.6833
10978SOL    HW133874   4.570   6.418   4.182 -0.1477 -1.0174 -0.8117
10978SOL    HW233875   4.486   6.544   4.182  1.3528  0.0245  0.0388
10979SOL     OW33876   2.940   4.174   4.371  0.2803 -0.4061  0.2897
10979SOL    HW133877   2.918   4.118   4.296  3.0238  0.0438 -0.9653
10979SOL    HW233878   2.978   4.114   4.435 -0.1297 -0.4859  0.4612
10980SOL     OW33879   1.443   4.676   3.092 -0.1072 -0.3142  0.3122
10980SOL    HW133880   1.533   4.648   3.108  0.1330 -0.8826 -1.7790
10980SOL    HW233881   1.448   4.772   3.090  0.4320 -0.3411  0.2752
10981SOL     OW33882   5.137   1.892   7.048 -0.0430 -0.0558  0.3522
10981SOL    HW133883   5.159   1.965   6.990 -1.7105 -1.0355 -1.6433
10981SOL    HW233884   5.186   1.818   7.013  1.0195 -0.1110  1.8781
10982SOL     OW33885   4.779   6.543   5.627 -0.1138 -0.3111 -0.1485
10982SOL    HW133886   4.832   6.560   5.705  0.1728  1.3503 -0.6681
10982SOL    HW233887   4.702   6.599   5.638 -0.2323 -0.3261 -0.8910
10983SOL     OW33888   4.608   4.538   3.892  0.5727  0.3218  0.1621
10983SOL    HW133889   4.547   4.572   3.957 -0.4165  1.5758 -1.3585
10983SOL    HW233890   4.573   4.451   3.870 -0.4586  0.8551 -0.3804
10984SOL     OW33891   5.992   2.256   3.904  0.1869 -0.2080 -0.8052
10984SOL    HW133892   5.966   2.306   3.982 -1.6410 -1.3761 -0.6164
10984SOL    HW233893   6.085   2.241   3.916 -0.3237 -1.8121  2.0617
10985SOL     OW33894   2.368   5.228   6.175 -0.2202  0.5041 -0.2163
10985SOL    HW133895   2.298   5.225   6.109  1.3916 -3.0626 -2.0167
10985SOL    HW233896   2.359   5.146   6.223  0.3734  1.8080  2.2742
10986SOL     OW33897   5.869   6.722   5.370 -0.0969 -0.2282 -0.3352
10986SOL    HW133898   5.943   6.750   5.314 -0.3706  1.3129  0.0216
10986SOL    HW233899   5.891   6.756   5.457 -0.8534 -0.4306 -0.0584
10987SOL     OW33900   2.748   3.375   3.195  0.4605 -0.1482  0.6269
10987SOL    HW133901   2.818   3.381   3.260 -0.1241  0.5567  1.2077
10987SOL    HW233902   2.682   3.438   3.224  0.4028  0.5660 -0.9277
10988SOL     OW33903   5.292   4.669   4.518 -0.1865  0.2751 -0.2721
10988SOL    HW133904   5.352   4.734   4.482 -0.8282  1.7152  1.1418
10988SOL    HW233905   5.324   4.652   4.606 -1.2664  0.2950  0.1396
10989SOL     OW33906   1.753   1.919   5.030 -0.1339 -0.5088  0.2668
10989SOL    HW133907   1.765   2.001   4.982  0.5994 -0.7685 -0.0073
10989SOL    HW233908   1.725   1.946   5.118 -1.7091 -0.0298 -0.3416
10990SOL     OW33909   5.328   2.471   6.675  0.2591  0.6077 -0.2425
10990SOL    HW133910   5.264   2.469   6.747  0.0445  0.1614 -0.4448
10990SOL    HW233911   5.277   2.499   6.599  0.2130 -0.1523 -0.4948
10991SOL     OW33912   0.712   2.187   7.232 -0.1881 -0.0707  0.1744
10991SOL    HW133913   0.661   2.266   7.254 -0.2045  0.1603 -0.6231
10991SOL    HW233914   0.740   2.202   7.141 -0.7392 -1.2723 -0.2160
10992SOL     OW33915   1.644   3.450   5.719 -0.1938 -0.0984  0.6598
10992SOL    HW133916   1.634   3.483   5.808  0.6368 -1.9739  1.5117
10992SOL    HW233917   1.735   3.469   5.696 -0.0970 -0.5669  0.6420
10993SOL     OW33918   6.367   3.818   3.095  0.2228  0.0406  0.1380
10993SOL    HW133919   6.386   3.727   3.119 -0.3192  0.1873  1.1590
10993SOL    HW233920   6.281   3.835   3.133  0.2966  0.9647 -0.1007
10994SOL     OW33921   6.515   6.763   4.965  0.4527 -0.3770 -0.4287
10994SOL    HW133922   6.433   6.715   4.951 -0.9136  1.7973 -0.3349
10994SOL    HW233923   6.557   6.765   4.879  0.9533 -2.3467 -0.2767
10995SOL     OW33924   1.243   3.547   5.044 -0.1459 -0.4031  0.1626
10995SOL    HW133925   1.316   3.552   4.982 -0.3369 -0.5594 -0.0772
10995SOL    HW233926   1.175   3.602   5.006  0.3946  0.9997  1.1496
10996SOL     OW33927   2.265   2.902   5.404 -0.4735  0.0497 -0.4280
10996SOL    HW133928   2.302   2.831   5.352 -0.2366 -1.4700  1.6976
10996SOL    HW233929   2.324   2.976   5.388  0.1939 -0.6809 -1.4571
10997SOL     OW33930   1.694   0.411   0.749 -0.2468 -0.1304 -0.4393
10997SOL    HW133931   1.752   0.337   0.729  0.2315  0.4896 -1.4117
10997SOL    HW233932   1.651   0.431   0.666 -0.7652  0.3470 -0.0625
10998SOL     OW33933   2.859   2.800   7.398  0.1622 -0.1180  0.1661
10998SOL    HW133934   2.836   2.735   7.465  2.1842 -0.9968  0.0959
10998SOL    HW233935   2.832   2.759   7.315  0.5992 -0.4647  0.1940
10999SOL     OW33936   2.962   5.521   5.476 -0.1762  0.1844  0.3736
10999SOL    HW133937   3.024   5.528   5.548  1.1758  1.3032 -0.8481
10999SOL    HW233938   2.998   5.454   5.418 -1.6492 -1.2698  1.0635
11000SOL     OW33939   1.182   3.752   5.991 -0.3040 -0.3181 -0.7661
11000SOL    HW133940   1.227   3.674   5.959 -1.5189 -0.9353 -1.0289
11000SOL    HW233941   1.228   3.775   6.072  0.2568 -1.1277 -0.8412
11001SOL     OW33942   6.663   3.842   4.057 -0.2343 -0.1440  0.7332
11001SOL    HW133943   6.738   3.892   4.088 -0.1664 -0.4858  1.1231
11001SOL    HW233944   6.588   3.900   4.069 -0.1802 -0.2025  1.3476
11002SOL     OW33945   7.251   4.183   0.548  0.4655 -0.3561 -0.3099
11002SOL    HW133946   7.210   4.146   0.470 -1.2532  2.4174 -0.8960
11002SOL    HW233947   7.193   4.157   0.620 -1.2210  1.6555 -0.8290
11003SOL     OW33948   2.394   3.102   4.087  0.3391 -0.1247  0.3814
11003SOL    HW133949   2.416   3.114   4.179 -1.2223  0.7642  0.6721
11003SOL    HW233950   2.391   3.007   4.074  1.9737 -0.2697  0.8631
11004SOL     OW33951   0.687   7.225   3.024  0.0746  0.2462  0.0656
11004SOL    HW133952   0.740   7.160   3.069 -0.6412 -0.0267  0.5306
11004SOL    HW233953   0.737   7.306   3.031  1.1827 -0.3210 -0.8880
11005SOL     OW33954   4.484   1.449   3.343 -0.0546 -0.4340  0.4114
11005SOL    HW133955   4.521   1.507   3.410 -1.2418  0.7609  0.0652
11005SOL    HW233956   4.413   1.403   3.388 -0.9941  0.5270 -0.0505
11006SOL     OW33957   1.463   3.708   4.565 -0.7535  0.4198  0.0391
11006SOL    HW133958   1.442   3.653   4.641 -0.4538 -0.2694 -0.3679
11006SOL    HW233959   1.393   3.690   4.503 -0.0543 -0.3882 -0.5452
11007SOL     OW33960   4.569   4.865   5.467 -0.1289  0.1331  0.5863
11007SOL    HW133961   4.512   4.788   5.459 -1.7598  1.4024 -0.6270
11007SOL    HW233962   4.519   4.928   5.518  0.8872  0.6744  0.9415
11008SOL     OW33963   7.027   1.638   4.144  0.4916 -0.2493 -0.0872
11008SOL    HW133964   6.968   1.635   4.069  1.2590 -0.6832 -0.6898
11008SOL    HW233965   7.000   1.716   4.193  1.0369  1.0531 -1.7263
11009SOL     OW33966   1.464   2.502   1.172 -1.0514 -0.6827  0.4875
11009SOL    HW133967   1.405   2.459   1.111 -2.6366 -1.1460  2.2467
11009SOL    HW233968   1.411   2.569   1.214  0.3915  0.5916  0.3790
11010SOL     OW33969   7.288   5.245   5.952 -0.0407  0.8431  0.3893
11010SOL    HW133970   7.304   5.249   6.047  0.0665  1.3514  0.3531
11010SOL    HW233971   7.352   5.180   5.921 -0.3663  0.3511  0.7181
11011SOL     OW33972   0.257   3.142   5.148  0.1452 -0.4131 -0.2474
11011SOL    HW133973   0.205   3.090   5.209 -1.4688  1.1587 -0.2248
11011SOL    HW233974   0.332   3.086   5.128 -0.7320 -2.1157  0.9499
11012SOL     OW33975   5.305   2.162   2.748  0.1918  0.6196  0.0931
11012SOL    HW133976   5.303   2.091   2.684  0.7868  0.3768  0.3435
11012SOL    HW233977   5.370   2.224   2.715 -0.8216  1.4161 -0.4938
11013SOL     OW33978   1.541   2.050   1.771 -0.8955  0.2880  0.2757
11013SOL    HW133979   1.556   2.118   1.838  0.7619 -2.4187  2.8782
11013SOL    HW233980   1.517   1.972   1.821  1.0551 -2.0963 -2.2103
11014SOL     OW33981   6.836   4.233   0.388 -0.1978 -0.3375  0.0114
11014SOL    HW133982   6.804   4.304   0.332  0.6585 -0.4327 -0.6124
11014SOL    HW233983   6.882   4.278   0.459 -0.9546 -0.2289  0.4415
11015SOL     OW33984   6.874   3.899   5.305  0.2024  0.2299 -0.1016
11015SOL    HW133985   6.863   3.924   5.397  0.7272 -0.1128  0.0623
11015SOL    HW233986   6.947   3.953   5.274 -1.0847  1.6169 -0.8260
11016SOL     OW33987   3.582   4.028   2.577 -0.3667  0.0189 -0.3433
11016SOL    HW133988   3.549   3.939   2.572  0.1000 -0.3575  1.9393
11016SOL    HW233989   3.656   4.023   2.638  1.0046  1.6229 -1.7425
11017SOL     OW33990   2.080   6.845   1.274 -0.6816  0.2587  0.1810
11017SOL    HW133991   2.038   6.868   1.191  0.5366  1.3049 -0.1884
11017SOL    HW233992   2.074   6.750   1.279 -0.1005  0.1106 -1.5022
11018SOL     OW33993   1.037   6.432   2.923 -0.1134  0.0394  1.0248
11018SOL    HW133994   1.075   6.514   2.893  1.1738 -0.3549  1.5298
11018SOL    HW233995   0.944   6.441   2.904  0.2995  0.7478 -0.9199
11019SOL     OW33996   2.757   6.156   5.445  0.3589  0.1018 -0.3074
11019SOL    HW133997   2.764   6.064   5.422 -1.4789 -0.4569  1.0977
11019SOL    HW233998   2.751   6.201   5.361  1.5347 -1.0000 -1.0220
11020SOL     OW33999   1.707   1.732   3.634  0.3817 -0.4591  0.8233
11020SOL    HW134000   1.763   1.795   3.678 -0.1627 -0.0794  0.9859
11020SOL    HW234001   1.663   1.782   3.566  0.3241 -0.7758  0.6271
11021SOL     OW34002   0.225   5.415   2.185 -0.2957  0.1574 -0.2111
11021SOL    HW134003   0.275   5.462   2.118  1.1368  1.4382  1.6912
11021SOL    HW234004   0.168   5.481   2.224 -0.3395 -0.3237  0.5650
11022SOL     OW34005   5.938   3.544   6.831 -0.3743  0.1210 -0.1626
11022SOL    HW134006   5.930   3.629   6.788  0.6387 -0.8496 -2.4226
11022SOL    HW234007   6.012   3.554   6.891 -0.8730  1.0666  0.3281
11023SOL     OW34008   1.144   5.026   3.064 -0.1479 -0.3352 -0.3284
11023SOL    HW134009   1.091   4.953   3.094 -1.9843  1.0329 -0.0241
11023SOL    HW234010   1.100   5.057   2.985 -0.3921  1.3875  0.4185
11024SOL     OW34011   0.095   2.740   6.832 -0.2980  0.2025  0.4852
11024SOL    HW134012   0.102   2.669   6.767  0.6192  0.1097  0.6649
11024SOL    HW234013   0.004   2.770   6.826 -0.0601  0.6870 -1.3670
11025SOL     OW34014   3.208   1.974   2.430  0.1297  0.1672 -0.3863
11025SOL    HW134015   3.212   1.964   2.335  2.0842 -0.1571 -0.3123
11025SOL    HW234016   3.298   1.993   2.456  0.0154 -1.6038  1.5979
11026SOL     OW34017   4.504   3.454   5.244  0.1166 -0.2008 -0.3472
11026SOL    HW134018   4.572   3.518   5.227 -0.5462  1.0310  1.3811
11026SOL    HW234019   4.423   3.494   5.211 -0.3114 -0.0825  0.7917
11027SOL     OW34020   2.747   5.912   5.293  0.1592  0.2948  0.1322
11027SOL    HW134021   2.702   5.844   5.344  0.1335 -0.6061 -1.0515
11027SOL    HW234022   2.840   5.891   5.303  0.2266  0.8855  0.8349
11028SOL     OW34023   4.884   2.218   3.916 -0.4590  0.0307 -0.2105
11028SOL    HW134024   4.968   2.244   3.879  0.4908 -1.5692  0.7383
11028SOL    HW234025   4.872   2.127   3.888 -1.4472 -0.0500  0.4156
11029SOL     OW34026   6.225   5.251   1.770  0.0040 -0.4468  0.7961
11029SOL    HW134027   6.210   5.161   1.742 -2.3841  0.2394 -0.4367
11029SOL    HW234028   6.272   5.243   1.852 -1.3369 -2.8850  1.4314
11030SOL     OW34029   2.445   2.351   2.230 -0.3522 -0.3546  0.3598
11030SOL    HW134030   2.377   2.382   2.170 -0.2631  1.3068  1.0454
11030SOL    HW234031   2.405   2.275   2.274 -2.4301  1.4412  1.8030
11031SOL     OW34032   1.966   1.662   4.004 -0.4686 -0.1156 -0.0621
11031SOL    HW134033   1.998   1.714   4.077  0.9151  0.2633 -0.9000
11031SOL    HW234034   1.975   1.571   4.032  0.8624  0.0022 -0.0619
11032SOL     OW34035   6.481   4.515   2.332 -0.4753 -0.3785  0.6085
11032SOL    HW134036   6.428   4.513   2.253 -0.3789 -1.5516  0.5495
11032SOL    HW234037   6.495   4.608   2.350 -1.2701 -0.0843 -0.2238
11033SOL     OW34038   3.995   3.644   6.161  0.0869 -0.0940 -0.2399
11033SOL    HW134039   4.017   3.719   6.216  0.8839 -0.5876  0.1439
11033SOL    HW234040   3.947   3.681   6.087 -2.2383  0.4387  1.4236
11034SOL     OW34041   4.642   7.197   2.482 -0.1301 -0.0248 -0.0568
11034SOL    HW134042   4.734   7.173   2.491 -0.2088 -0.2938  0.0336
11034SOL    HW234043   4.630   7.211   2.388 -0.6286 -2.5752 -0.4428
11035SOL     OW34044   3.495   0.626   1.876  0.1184 -0.6196 -0.5629
11035SOL    HW134045   3.470   0.624   1.784  0.4295  2.8968 -0.8767
11035SOL    HW234046   3.591   0.626   1.875  0.2055  2.3311 -0.5552
11036SOL     OW34047   5.734   6.232   4.012  0.2439  0.3961 -0.4397
11036SOL    HW134048   5.753   6.162   3.951 -0.2521 -0.6759  0.5922
11036SOL    HW234049   5.799   6.221   4.082 -1.2430 -0.4970  0.8624
11037SOL     OW34050   0.244   5.922   2.214  0.0989  0.5063 -0.4006
11037SOL    HW134051   0.307   5.992   2.232  1.4425 -0.8209  0.3218
11037SOL    HW234052   0.283   5.872   2.143  0.1446 -0.6544  0.4190
11038SOL     OW34053   6.621   1.537   2.012 -0.0180  0.1625 -0.2421
11038SOL    HW134054   6.665   1.601   1.956  2.5578 -1.8975 -0.7533
11038SOL    HW234055   6.585   1.590   2.083  0.5642  2.3536 -1.4504
11039SOL     OW34056   5.500   5.616   4.624  0.1616 -0.6895  0.0002
11039SOL    HW134057   5.482   5.564   4.546 -0.8517 -0.0329 -0.2224
11039SOL    HW234058   5.441   5.581   4.691 -0.5129  0.1267 -0.1467
11040SOL     OW34059   2.088   6.213   4.783  0.0098  0.4243  0.4916
11040SOL    HW134060   2.057   6.134   4.740 -0.9650  0.7047  0.6576
11040SOL    HW234061   2.180   6.195   4.802  0.1587 -0.1521 -0.6474
11041SOL     OW34062   5.683   5.736   3.451  0.0656  0.5833  0.2572
11041SOL    HW134063   5.590   5.729   3.472  0.5504 -0.2983  2.3665
11041SOL    HW234064   5.693   5.685   3.370 -1.3538  1.2107 -0.3527
11042SOL     OW34065   1.278   3.815   2.150  0.3034  0.6020 -0.1898
11042SOL    HW134066   1.282   3.776   2.237  1.2214 -0.9172 -0.8742
11042SOL    HW234067   1.233   3.750   2.096  2.4211  0.1102 -1.5049
11043SOL     OW34068   0.616   1.948   2.249  0.2325  0.0646  0.3634
11043SOL    HW134069   0.644   2.037   2.272  0.4029 -0.1281  0.9201
11043SOL    HW234070   0.580   1.956   2.161  3.5470  0.0406 -1.1508
11044SOL     OW34071   7.246   2.267   6.797 -0.1120  0.6914 -0.2889
11044SOL    HW134072   7.224   2.257   6.890 -2.7983  1.2952 -0.7651
11044SOL    HW234073   7.202   2.193   6.755  1.6382  0.0417 -1.0574
11045SOL     OW34074   3.590   3.879   5.555 -0.8038  0.4081 -0.1055
11045SOL    HW134075   3.513   3.854   5.504 -0.8391 -0.7615  0.4932
11045SOL    HW234076   3.660   3.821   5.525 -0.5553  0.4204  0.4242
11046SOL     OW34077   6.645   0.212   1.144 -0.2403 -0.1773 -0.7524
11046SOL    HW134078   6.725   0.161   1.136 -0.0392 -0.4555  2.0294
11046SOL    HW234079   6.672   0.296   1.180 -1.2864 -1.6082  4.2582
11047SOL     OW34080   7.079   5.219   6.812  0.4440  0.6114 -0.1455
11047SOL    HW134081   7.008   5.166   6.849 -0.0076  1.9236  1.0015
11047SOL    HW234082   7.055   5.232   6.721  1.2359 -2.1748 -0.8514
11048SOL     OW34083   4.286   5.841   4.695 -0.3729 -0.2759  0.1011
11048SOL    HW134084   4.333   5.911   4.740  0.6720  0.1937 -1.6439
11048SOL    HW234085   4.210   5.884   4.656 -1.3692 -0.7137  1.4519
11049SOL     OW34086   3.527   5.519   1.103 -0.2913 -0.6853 -0.3178
11049SOL    HW134087   3.523   5.529   1.199  0.4396 -3.3343  0.0767
11049SOL    HW234088   3.441   5.544   1.072  0.0025  2.0177  0.7787
11050SOL     OW34089   4.468   5.496   6.284 -0.2560 -0.2562 -0.1088
11050SOL    HW134090   4.416   5.453   6.216  0.1249 -1.0634  0.1004
11050SOL    HW234091   4.409   5.499   6.360 -0.2677 -0.4412 -0.1110
11051SOL     OW34092   7.290   1.781   2.962  0.0459 -0.0295 -0.1379
11051SOL    HW134093   7.295   1.873   2.989  1.4578 -0.3913  0.9728
11051SOL    HW234094   7.371   1.767   2.912 -1.5761  0.0880 -2.9646
11052SOL     OW34095   4.610   3.434   3.640 -0.3875 -0.1390  0.2002
11052SOL    HW134096   4.572   3.519   3.621  1.4901  0.8298  0.5016
11052SOL    HW234097   4.578   3.412   3.727 -1.4842 -0.1157 -0.1882
11053SOL     OW34098   1.621   5.375   0.391  0.7499  0.5209  0.2680
11053SOL    HW134099   1.712   5.369   0.420  0.3694 -0.3785  1.3678
11053SOL    HW234100   1.579   5.431   0.457 -0.3997 -2.5167  2.3571
11054SOL     OW34101   7.041   0.829   2.373 -0.5109 -0.0989 -0.3162
11054SOL    HW134102   7.075   0.904   2.324 -0.4773 -0.6602 -1.1706
11054SOL    HW234103   6.981   0.786   2.313  0.5657 -1.5840 -0.3886
11055SOL     OW34104   5.260   0.154   5.895 -0.2079  0.2901  0.0189
11055SOL    HW134105   5.223   0.241   5.878  2.2599  1.2386 -1.0485
11055SOL    HW234106   5.198   0.093   5.855 -1.0328  1.7175 -0.9666
11056SOL     OW34107   0.846   2.620   5.298 -0.5364 -0.1215 -0.5874
11056SOL    HW134108   0.829   2.527   5.313 -3.3445  0.3882 -0.0393
11056SOL    HW234109   0.853   2.629   5.202 -1.0209 -0.7716 -0.6819
11057SOL     OW34110   5.108   5.334   4.433  0.2296  0.0367  0.2436
11057SOL    HW134111   5.095   5.408   4.374 -0.1259  0.1922  0.5070
11057SOL    HW234112   5.039   5.345   4.499 -0.6576 -1.2355 -0.4277
11058SOL     OW34113   1.986   7.426   4.058  0.2797 -0.3546 -0.1286
11058SOL    HW134114   2.014   7.512   4.027  0.4380 -0.4737 -0.3200
11058SOL    HW234115   1.893   7.438   4.079  0.2822 -0.1555 -0.2238
11059SOL     OW34116   0.086   5.548   6.979 -0.4247 -0.3045  0.3100
11059SOL    HW134117   0.088   5.545   6.883  0.8143  0.8024  0.2800
11059SOL    HW234118   0.167   5.506   7.006 -1.6009 -2.3057  0.9785
11060SOL     OW34119   0.147   5.035   0.034  0.6202  0.3579  0.0705
11060SOL    HW134120   0.057   5.068   0.027 -0.0213 -0.9789  1.3605
11060SOL    HW234121   0.202   5.107   0.005 -0.7717  1.9703  1.2674
11061SOL     OW34122   4.334   2.784   1.712  0.0130 -0.3645 -0.0609
11061SOL    HW134123   4.331   2.804   1.618  0.6041 -0.1541 -0.0364
11061SOL    HW234124   4.423   2.806   1.738  0.2730 -1.7381  0.2666
11062SOL     OW34125   3.209   7.416   6.957 -0.0361  0.0395  0.2064
11062SOL    HW134126   3.224   7.486   7.020  1.6603 -0.9222  0.9477
11062SOL    HW234127   3.152   7.354   7.003  1.1822 -0.6510  0.8347
11063SOL     OW34128   4.822   7.042   6.972 -0.2636  0.2078  0.0368
11063SOL    HW134129   4.778   6.961   6.996 -0.5104  0.4128  0.2764
11063SOL    HW234130   4.836   7.088   7.054 -3.0275  1.9022 -0.2906
11064SOL     OW34131   3.995   6.745   6.154  0.1478  0.1258  0.3538
11064SOL    HW134132   3.965   6.796   6.230 -0.3180  0.5134 -0.0876
11064SOL    HW234133   3.955   6.659   6.166 -0.5728  0.4260  0.1376
11065SOL     OW34134   7.105   4.086   5.973  0.2600 -0.1219 -0.4760
11065SOL    HW134135   7.078   4.178   5.971 -2.0787 -0.7557 -1.9415
11065SOL    HW234136   7.198   4.087   5.948 -0.0447  1.7552 -1.6770
11066SOL     OW34137   1.188   3.270   5.046  0.0693  0.0548  0.3612
11066SOL    HW134138   1.092   3.267   5.051 -0.0319  0.8843 -0.7938
11066SOL    HW234139   1.208   3.360   5.024  1.1398 -0.0772  0.7520
11067SOL     OW34140   3.695   6.141   0.631  0.0291  0.0852  0.4249
11067SOL    HW134141   3.787   6.162   0.621  0.0860 -0.3553 -0.0491
11067SOL    HW234142   3.690   6.047   0.618 -0.7203  0.3402 -1.5442
11068SOL     OW34143   6.160   1.553   7.352 -0.3044 -0.0273 -0.1006
11068SOL    HW134144   6.096   1.574   7.284  0.2423 -2.6948 -1.5953
11068SOL    HW234145   6.192   1.638   7.382 -3.1990  1.3522 -0.5478
11069SOL     OW34146   2.307   2.466   3.235  0.1735  0.0890  0.2148
11069SOL    HW134147   2.287   2.477   3.328  0.4935 -0.7866  0.3908
11069SOL    HW234148   2.370   2.394   3.232 -0.9697 -0.8958 -0.8051
11070SOL     OW34149   2.934   2.534   2.929 -0.0252 -0.0403  0.1363
11070SOL    HW134150   2.988   2.456   2.936 -0.9959 -0.5922  1.8194
11070SOL    HW234151   2.910   2.538   2.836  1.1593 -0.9539 -0.2254
11071SOL     OW34152   7.273   1.487   6.634  0.1863  0.2959 -0.5478
11071SOL    HW134153   7.207   1.554   6.617 -1.6926 -1.2892  0.1335
11071SOL    HW234154   7.357   1.534   6.630 -0.8160  2.0717 -3.0943
11072SOL     OW34155   4.595   6.404   1.228 -0.3695 -0.0135  0.1307
11072SOL    HW134156   4.644   6.339   1.278 -0.6317  0.2827  0.7879
11072SOL    HW234157   4.511   6.411   1.274 -1.7940 -1.8166 -1.9789
11073SOL     OW34158   0.839   3.186   0.883 -0.1921 -0.3783 -0.1872
11073SOL    HW134159   0.819   3.170   0.975  0.0830 -2.7867 -0.4756
11073SOL    HW234160   0.865   3.278   0.880 -1.3652  0.1023  1.9043
11074SOL     OW34161   4.180   6.830   5.994  0.2075  0.0937  0.1887
11074SOL    HW134162   4.110   6.823   6.059 -0.1409 -1.1571 -0.2914
11074SOL    HW234163   4.135   6.857   5.914  0.6927  2.0560  0.5223
11075SOL     OW34164   2.786   6.867   5.259  0.3257 -0.2653 -0.1423
11075SOL    HW134165   2.853   6.927   5.292 -2.0013  1.8013  1.1260
11075SOL    HW234166   2.761   6.904   5.174 -0.8531  0.3897  0.4719
11076SOL     OW34167   0.877   0.173   3.595  0.1158  0.1068  0.1356
11076SOL    HW134168   0.815   0.244   3.609 -0.0862 -0.0327 -0.0410
11076SOL    HW234169   0.962   0.210   3.618  0.3167  1.0637 -1.9399
11077SOL     OW34170   7.420   2.274   7.395  0.0423  0.0056  0.2385
11077SOL    HW134171   7.415   2.179   7.384 -0.1073 -0.2662  2.3248
11077SOL    HW234172   7.501   2.299   7.349  1.8399 -1.6274  2.2694
11078SOL     OW34173   1.672   6.912   1.670  0.2659  0.3269 -0.7281
11078SOL    HW134174   1.647   6.851   1.601  0.2572  1.7877 -2.0842
11078SOL    HW234175   1.597   6.914   1.729  0.0830 -0.6062 -0.9088
11079SOL     OW34176   5.135   1.683   4.220 -0.2242 -0.4286 -0.4673
11079SOL    HW134177   5.186   1.736   4.281 -1.8376 -0.5871  1.1141
11079SOL    HW234178   5.162   1.593   4.238  0.9566 -0.3489 -1.6542
11080SOL     OW34179   6.147   6.388   6.271  0.2766  0.0807 -0.0705
11080SOL    HW134180   6.223   6.334   6.249  1.5624  2.1679 -0.9870
11080SOL    HW234181   6.110   6.414   6.187 -0.3625  0.5844  0.3580
11081SOL     OW34182   0.542   1.851   1.757 -1.0871  0.4882 -0.4007
11081SOL    HW134183   0.571   1.761   1.767 -1.1937  0.4460 -0.4686
11081SOL    HW234184   0.503   1.854   1.670  1.8725  1.3852 -1.8416
11082SOL     OW34185   6.310   5.033   4.911 -0.2764  0.0208 -0.5558
11082SOL    HW134186   6.252   4.957   4.914  0.7834 -0.8550 -1.3891
11082SOL    HW234187   6.272   5.090   4.844  0.1551 -0.8502 -1.5675
11083SOL     OW34188   2.381   3.990   2.504 -0.2628  0.1654 -0.2227
11083SOL    HW134189   2.304   3.948   2.541  0.0906 -0.7980 -0.5594
11083SOL    HW234190   2.365   4.084   2.515 -1.3783 -0.0318 -0.0925
11084SOL     OW34191   2.759   1.156   4.457 -0.5124 -0.0741 -0.0069
11084SOL    HW134192   2.685   1.110   4.496  0.0072  0.0286  1.1605
11084SOL    HW234193   2.745   1.150   4.363 -1.5889 -0.7252  0.1799
11085SOL     OW34194   0.546   6.584   1.373  0.1141  0.2584 -0.1412
11085SOL    HW134195   0.476   6.643   1.403  0.1876  0.4292 -0.3033
11085SOL    HW234196   0.513   6.496   1.392  1.3182  0.3634  3.1257
11086SOL     OW34197   5.887   5.826   1.740 -0.4543 -0.0870 -0.0746
11086SOL    HW134198   5.921   5.742   1.711 -1.0236  0.0319 -1.1441
11086SOL    HW234199   5.824   5.851   1.673  0.4565  1.6953 -0.3366
11087SOL     OW34200   5.432   6.701   5.999  0.1458 -0.0096 -0.1541
11087SOL    HW134201   5.457   6.623   6.048 -0.4136 -0.2299 -0.2174
11087SOL    HW234202   5.508   6.720   5.944  0.8483  0.3439  0.9114
11088SOL     OW34203   3.437   3.701   0.217 -0.3936  0.6439  0.1418
11088SOL    HW134204   3.490   3.621   0.220 -0.4373  0.5800 -0.6274
11088SOL    HW234205   3.347   3.670   0.221 -0.4701  0.5317 -1.5356
11089SOL     OW34206   4.358   2.643   0.570  0.2852  0.6334 -0.1363
11089SOL    HW134207   4.283   2.691   0.605 -0.7085 -0.0437 -1.2769
11089SOL    HW234208   4.370   2.679   0.482 -0.1211 -0.7761 -0.7979
11090SOL     OW34209   0.633   3.525   6.188 -0.6678  0.0182 -0.9353
11090SOL    HW134210   0.626   3.619   6.177  1.7237  0.4528  0.5698
11090SOL    HW234211   0.676   3.495   6.107  2.0348  0.8428  0.0922
11091SOL     OW34212   1.799   6.744   2.328  0.0472  0.0547 -0.0120
11091SOL    HW134213   1.763   6.829   2.305 -0.9209 -0.1642  0.6218
11091SOL    HW234214   1.773   6.687   2.256 -0.4866  0.0063  0.2116
11092SOL     OW34215   6.193   3.587   0.843  0.0491 -0.1058  0.2208
11092SOL    HW134216   6.125   3.653   0.858  0.7318  1.0410 -1.3706
11092SOL    HW234217   6.217   3.598   0.751  2.1540 -0.6831  0.6391
11093SOL     OW34218   5.728   2.359   1.580 -0.1435  0.2382  0.3765
11093SOL    HW134219   5.722   2.286   1.519 -0.3831  1.6157 -1.3057
11093SOL    HW234220   5.734   2.317   1.666 -1.2433 -1.7555 -0.4371
11094SOL     OW34221   4.407   3.523   4.021  0.0842  0.3771 -0.8060
11094SOL    HW134222   4.360   3.512   4.104  0.4602  0.7257 -0.5459
11094SOL    HW234223   4.488   3.568   4.045  1.2677 -1.5309 -1.0142
11095SOL     OW34224   0.357   0.502   2.803 -0.3793  0.3791  0.1622
11095SOL    HW134225   0.434   0.535   2.756  0.1420 -0.2106  0.5894
11095SOL    HW234226   0.347   0.562   2.877  2.9421 -2.4036  3.2681
11096SOL     OW34227   4.752   1.645   3.261 -0.0696  0.2885 -0.4135
11096SOL    HW134228   4.732   1.690   3.343 -0.5665  0.6120 -0.7075
11096SOL    HW234229   4.843   1.668   3.243  0.2113 -0.2161  0.3193
11097SOL     OW34230   2.102   2.480   4.245  0.5545 -0.1743  0.7692
11097SOL    HW134231   2.032   2.502   4.184  0.2328  0.1640  1.2511
11097SOL    HW234232   2.099   2.549   4.311  3.5920  1.8866 -1.0177
11098SOL     OW34233   0.513   0.777   1.944  0.2050  0.2702 -0.3213
11098SOL    HW134234   0.459   0.701   1.964  1.2564  0.0207  1.9292
11098SOL    HW234235   0.480   0.847   2.001  0.7464  0.8038 -0.6409
11099SOL     OW34236   6.485   6.385   2.197 -0.2263  0.6834  0.0430
11099SOL    HW134237   6.412   6.446   2.202 -0.5352  0.2705  0.8035
11099SOL    HW234238   6.444   6.298   2.198  0.2324  0.4618 -0.3965
11100SOL     OW34239   1.056   2.211   0.625  0.3219  0.4446  0.0628
11100SOL    HW134240   0.993   2.146   0.591 -0.8875  1.3304  0.5173
11100SOL    HW234241   1.101   2.243   0.547  2.8381 -2.7147  0.0016
11101SOL     OW34242   3.457   1.244   7.263 -0.1620  0.7012 -0.5157
11101SOL    HW134243   3.490   1.302   7.332  0.4223 -0.1085 -0.0988
11101SOL    HW234244   3.397   1.299   7.212 -1.2566  1.0876  1.1204
11102SOL     OW34245   6.124   1.676   3.349  0.0990  0.2278 -0.1111
11102SOL    HW134246   6.148   1.616   3.420 -0.8317  2.4425  2.2262
11102SOL    HW234247   6.160   1.635   3.270 -0.0724 -3.1263  1.3644
11103SOL     OW34248   6.892   4.833   0.218  0.2444 -0.2415 -0.0538
11103SOL    HW134249   6.904   4.881   0.300  1.9104  0.6633 -0.7769
11103SOL    HW234250   6.941   4.884   0.153 -3.1722  0.5868 -2.2484
11104SOL     OW34251   3.744   6.949   6.161 -0.6020  0.2660 -0.1206
11104SOL    HW134252   3.735   6.969   6.254 -0.7638  2.0551 -0.4931
11104SOL    HW234253   3.733   6.854   6.156 -2.0034  0.2995  1.5171
11105SOL     OW34254   0.886   2.314   6.798 -0.3550 -0.3250 -0.2736
11105SOL    HW134255   0.821   2.384   6.797  1.4301  1.4144 -0.8106
11105SOL    HW234256   0.865   2.262   6.720 -0.1447  1.2049 -1.4162
11106SOL     OW34257   3.460   3.138   7.273  0.5131  0.5854 -0.2620
11106SOL    HW134258   3.480   3.207   7.210 -1.7105  1.4065 -0.1475
11106SOL    HW234259   3.448   3.060   7.219 -2.5170  1.5055 -1.1580
11107SOL     OW34260   3.347   5.214   3.989 -0.2529 -0.1813 -0.1858
11107SOL    HW134261   3.390   5.143   3.941  0.6367  0.8581 -0.9828
11107SOL    HW234262   3.375   5.202   4.080 -0.6701 -1.2392 -0.1844
11108SOL     OW34263   1.078   5.391   2.274 -0.8639  0.5626  0.0997
11108SOL    HW134264   1.128   5.311   2.255  0.0844  1.1826 -0.0577
11108SOL    HW234265   1.144   5.460   2.276 -1.8039  1.5286 -0.9394
11109SOL     OW34266   1.736   6.658   0.333  0.1436  0.3318 -0.2588
11109SOL    HW134267   1.670   6.597   0.300 -0.5113  0.9205 -0.0412
11109SOL    HW234268   1.750   6.719   0.261  1.7777 -0.8169 -0.9867
11110SOL     OW34269   1.987   1.868   0.345  0.0702  0.2427 -0.2983
11110SOL    HW134270   1.987   1.958   0.376  1.4199 -0.4315  1.8790
11110SOL    HW234271   1.909   1.829   0.385  0.8074 -0.1454  0.8140
11111SOL     OW34272   4.089   4.351   4.515  0.3075  0.1860  0.8548
11111SOL    HW134273   4.064   4.290   4.584 -0.8463  1.1784  1.3491
11111SOL    HW234274   4.047   4.434   4.539  0.9994  0.9195 -0.3237
11112SOL     OW34275   0.035   4.932   3.558  0.4485  0.2000  0.3920
11112SOL    HW134276  -0.048   4.947   3.603 -0.0091 -1.1391  0.0264
11112SOL    HW234277   0.054   5.015   3.514  0.0007  0.9525  1.5837
11113SOL     OW34278   0.616   1.388   1.239  0.0604  0.5612  0.2487
11113SOL    HW134279   0.576   1.326   1.300  0.4195  0.0974  0.0214
11113SOL    HW234280   0.570   1.374   1.156  0.6646  0.0338 -0.0102
11114SOL     OW34281   3.170   6.902   3.334  0.2793  0.1967  0.7721
11114SOL    HW134282   3.094   6.943   3.291  0.1025 -0.2230  0.6846
11114SOL    HW234283   3.214   6.975   3.377 -0.4832  0.3646  1.2928
11115SOL     OW34284   3.969   5.977   5.951 -0.2576 -0.1477 -0.0202
11115SOL    HW134285   3.989   6.028   6.030  1.0415  0.1817 -0.5313
11115SOL    HW234286   4.004   6.030   5.879 -0.1619 -1.0934 -0.6884
11116SOL     OW34287   4.901   6.558   3.123  0.3403  0.3161 -0.0196
11116SOL    HW134288   4.913   6.605   3.041  0.0468  1.4543  0.5646
11116SOL    HW234289   4.920   6.466   3.102  2.2782  0.8720 -0.9032
11117SOL     OW34290   7.392   1.350   3.712  0.3933  0.4073 -0.1033
11117SOL    HW134291   7.381   1.352   3.807  2.2657 -0.0344  0.1586
11117SOL    HW234292   7.312   1.390   3.678 -0.9226 -0.6311  1.5937
11118SOL     OW34293   2.953   3.736   1.445  0.4259 -0.0344 -0.2982
11118SOL    HW134294   2.879   3.774   1.398  0.3285  1.6341  1.1110
11118SOL    HW234295   2.924   3.647   1.467 -1.0903  0.5127  0.0507
11119SOL     OW34296   3.662   5.922   4.687 -0.1190 -0.0166 -0.5002
11119SOL    HW134297   3.676   6.009   4.724 -2.4289  0.0366  0.4260
11119SOL    HW234298   3.571   5.900   4.710 -0.2098 -1.9013 -2.3083
11120SOL     OW34299   5.309   1.676   1.660  0.2117  0.1960  0.4157
11120SOL    HW134300   5.393   1.648   1.695 -0.1765  0.0170  1.2173
11120SOL    HW234301   5.325   1.765   1.627  0.9509 -0.1986 -0.3343
11121SOL     OW34302   3.078   3.696   0.716 -0.1926  0.0314  0.0109
11121SOL    HW134303   3.079   3.787   0.746 -0.9648 -0.0127  0.1800
11121SOL    HW234304   3.025   3.697   0.637 -0.4941 -0.3325  0.2063
11122SOL     OW34305   1.308   6.178   6.331 -0.3948 -0.0099 -0.2916
11122SOL    HW134306   1.369   6.184   6.257 -0.8694  0.0734 -0.6839
11122SOL    HW234307   1.238   6.239   6.309 -2.1070 -2.1677 -1.2896
11123SOL     OW34308   6.906   1.138   0.752  0.1975 -0.7286  0.5022
11123SOL    HW134309   6.936   1.179   0.833  0.1804 -1.5983  0.9539
11123SOL    HW234310   6.865   1.210   0.704  0.4950 -0.1320  1.1162
11124SOL     OW34311   4.781   4.206   4.868 -0.7781  0.1480  0.7201
11124SOL    HW134312   4.843   4.153   4.919 -0.8006 -0.0039  0.5875
11124SOL    HW234313   4.823   4.292   4.863 -0.2379 -0.1490  0.0093
11125SOL     OW34314   4.630   1.926   7.382 -0.2101 -0.2499  0.6617
11125SOL    HW134315   4.640   2.021   7.382  1.8291 -0.4184 -0.6278
11125SOL    HW234316   4.608   1.903   7.292  2.9545 -1.2284  0.0057
11126SOL     OW34317   5.311   4.695   6.657  0.0612  0.3088  0.4651
11126SOL    HW134318   5.276   4.753   6.724 -1.3581 -0.9605  0.8816
11126SOL    HW234319   5.359   4.628   6.706  1.0258  0.6675  0.0401
11127SOL     OW34320   1.205   2.088   3.123  0.0691  0.4351  0.1965
11127SOL    HW134321   1.166   2.005   3.148  0.5982  0.2165  0.3187
11127SOL    HW234322   1.141   2.154   3.148 -0.8392  0.0058 -0.8716
11128SOL     OW34323   0.793   2.396   1.984  0.2022  0.4407  0.0333
11128SOL    HW134324   0.857   2.345   1.935  0.2727  0.1832  0.3891
11128SOL    HW234325   0.840   2.475   2.011  0.7425 -0.2923  1.3235
11129SOL     OW34326   6.032   0.183   4.370 -0.0303  0.6876 -0.5463
11129SOL    HW134327   5.955   0.132   4.395  0.7210  0.1737  0.8093
11129SOL    HW234328   6.087   0.122   4.320 -0.1181  0.8158 -0.8035
11130SOL     OW34329   2.927   4.176   3.159 -0.1546  0.0692 -0.7220
11130SOL    HW134330   2.834   4.186   3.177 -0.3810  2.8598 -2.7977
11130SOL    HW234331   2.971   4.220   3.232 -0.4333 -0.7091 -0.0638
11131SOL     OW34332   7.065   5.513   0.408  0.0280  0.3163  0.6782
11131SOL    HW134333   6.996   5.559   0.457 -1.6629  1.2654 -2.2998
11131SOL    HW234334   7.029   5.426   0.391 -0.6067  0.8605 -1.0059
11132SOL     OW34335   3.328   2.795   6.593  0.0829 -0.0357 -0.0463
11132SOL    HW134336   3.363   2.706   6.604 -0.7519 -0.5118 -1.1359
11132SOL    HW234337   3.264   2.787   6.523  0.4391  1.5660 -0.5802
11133SOL     OW34338   2.994   1.412   7.357  0.4588  0.1884 -0.0652
11133SOL    HW134339   2.979   1.430   7.264 -0.6653 -0.2648  0.0022
11133SOL    HW234340   3.013   1.318   7.360  1.2300  0.3452  0.0926
11134SOL     OW34341   1.852   3.270   2.373 -0.0222 -0.4798 -0.5449
11134SOL    HW134342   1.896   3.226   2.445 -0.4741  0.6305  0.4361
11134SOL    HW234343   1.915   3.334   2.341 -0.2608 -0.1481 -0.3494
11135SOL     OW34344   1.534   6.984   5.536 -0.1468 -0.8111  0.4630
11135SOL    HW134345   1.591   7.045   5.583 -1.4399  0.2420  0.7044
11135SOL    HW234346   1.525   6.909   5.595 -1.5801  0.3992  1.8769
11136SOL     OW34347   5.380   2.070   5.858  0.0988 -0.6003 -0.5146
11136SOL    HW134348   5.318   2.009   5.899 -1.3976  0.4200 -1.1585
11136SOL    HW234349   5.463   2.052   5.900 -0.7467 -1.6815  0.7659
11137SOL     OW34350   2.173   7.075   4.994  0.1246  0.0861 -0.1930
11137SOL    HW134351   2.258   7.084   5.036  0.4114  1.5521 -1.0346
11137SOL    HW234352   2.149   7.163   4.967 -1.1958 -0.4478 -0.9028
11138SOL     OW34353   7.164   2.562   6.805 -0.2013 -0.4604 -0.5157
11138SOL    HW134354   7.238   2.503   6.790  0.4649  0.3037 -0.3053
11138SOL    HW234355   7.199   2.649   6.784 -0.9132 -0.0423  0.0245
11139SOL     OW34356   4.838   0.255   6.094 -0.2137 -0.3618  0.0835
11139SOL    HW134357   4.801   0.278   6.008 -1.7830  1.1436  1.0895
11139SOL    HW234358   4.771   0.202   6.136  1.0217 -2.0554 -0.0049
11140SOL     OW34359   1.414   0.251   6.801 -0.1359  0.0725 -0.5257
11140SOL    HW134360   1.496   0.298   6.817  0.9829 -1.7166 -0.7809
11140SOL    HW234361   1.403   0.194   6.878 -1.0794  0.1979 -0.5561
11141SOL     OW34362   4.392   5.584   0.032 -0.0984 -0.0678 -0.4933
11141SOL    HW134363   4.395   5.489   0.045  2.1832 -0.1162 -0.9646
11141SOL    HW234364   4.473   5.616   0.071 -1.4925  1.9105  0.9831
11142SOL     OW34365   2.698   5.181   6.222  0.4469 -0.1967  0.4798
11142SOL    HW134366   2.625   5.243   6.230  0.3066 -0.5283  2.1911
11142SOL    HW234367   2.775   5.237   6.211  0.0720  0.1903 -0.2566
11143SOL     OW34368   2.098   2.203   0.237 -0.0428  0.1123  0.2830
11143SOL    HW134369   2.165   2.240   0.179 -0.0564 -0.1305  0.1074
11143SOL    HW234370   2.015   2.222   0.192 -0.0335 -0.3758  0.0424
11144SOL     OW34371   4.623   6.769   6.216 -0.3665  0.2755  0.3954
11144SOL    HW134372   4.702   6.807   6.178  0.3179 -1.0046  0.4607
11144SOL    HW234373   4.569   6.746   6.141  0.4743 -1.1833  0.1883
11145SOL     OW34374   0.547   2.281   6.946 -0.5886 -0.2549  0.0677
11145SOL    HW134375   0.598   2.300   6.867  0.0036  0.2097  0.5510
11145SOL    HW234376   0.467   2.331   6.935  0.0371  0.8297  0.3320
11146SOL     OW34377   4.347   1.602   2.871 -0.5893 -0.2551 -0.2733
11146SOL    HW134378   4.434   1.599   2.909 -0.8850  1.6167  0.6382
11146SOL    HW234379   4.331   1.695   2.854 -1.8419 -0.6985 -1.7833
11147SOL     OW34380   3.558   5.936   5.963  0.1065  0.3049 -0.0819
11147SOL    HW134381   3.646   5.900   5.963  0.6646  1.6109 -0.6076
11147SOL    HW234382   3.528   5.926   6.053  1.7926  2.1240  0.7622
11148SOL     OW34383   2.596   3.444   0.952  0.3957  0.2892 -0.1501
11148SOL    HW134384   2.613   3.511   1.019  0.9337 -0.9349  0.9939
11148SOL    HW234385   2.523   3.393   0.988  0.0750  0.1843 -0.9448
11149SOL     OW34386   2.321   5.523   1.963 -0.3962  0.4634 -0.1762
11149SOL    HW134387   2.382   5.464   2.008 -1.7771 -0.2906  0.8032
11149SOL    HW234388   2.246   5.528   2.022 -2.1803 -0.3216 -2.2477
11150SOL     OW34389   6.291   4.033   4.240  0.0807 -0.2026 -0.1514
11150SOL    HW134390   6.279   4.122   4.273 -0.1824 -0.4553  0.4474
11150SOL    HW234391   6.363   3.997   4.292  0.9907  0.0504 -1.1981
11151SOL     OW34392   3.327   2.246   2.603  0.2465  0.3834 -0.0258
11151SOL    HW134393   3.356   2.232   2.693  0.2267  0.2299 -0.0443
11151SOL    HW234394   3.388   2.196   2.549 -0.1888 -0.1255 -0.0511
11152SOL     OW34395   3.863   5.746   4.796 -0.0651  0.3023 -0.1768
11152SOL    HW134396   3.791   5.694   4.831 -0.7692  1.6653  0.4996
11152SOL    HW234397   3.820   5.819   4.750  0.8816  0.1926 -1.2980
11153SOL     OW34398   7.383   0.364   6.690 -0.1034  0.6479 -0.0285
11153SOL    HW134399   7.308   0.401   6.644  0.0026  0.2373 -0.5402
11153SOL    HW234400   7.449   0.350   6.622 -0.0230 -0.1743  0.2041
11154SOL     OW34401   2.698   6.491   6.387  0.6501 -0.1475 -0.5312
11154SOL    HW134402   2.710   6.580   6.422  1.2141 -0.4570  0.0989
11154SOL    HW234403   2.622   6.457   6.434  2.7591 -1.4146  2.3118
11155SOL     OW34404   4.284   5.891   4.257 -0.1733 -0.4064 -0.0499
11155SOL    HW134405   4.192   5.866   4.249 -0.3392  0.2930 -0.3841
11155SOL    HW234406   4.285   5.986   4.248  0.1495  0.1146  3.7517
11156SOL     OW34407   4.819   1.179   6.254 -0.8090  0.2758 -0.4365
11156SOL    HW134408   4.789   1.249   6.312 -1.5888 -0.5848  0.2335
11156SOL    HW234409   4.769   1.102   6.281 -1.8134  0.0030 -2.7689
11157SOL     OW34410   5.515   1.538   6.258  0.6438  0.5004 -0.2083
11157SOL    HW134411   5.439   1.532   6.316  0.5612 -1.9644 -0.4505
11157SOL    HW234412   5.484   1.588   6.183 -0.0119  1.5409  0.7263
11158SOL     OW34413   2.278   0.622   5.271  0.1910 -0.3979 -0.1883
11158SOL    HW134414   2.346   0.623   5.339  0.6964  0.3258 -0.6837
11158SOL    HW234415   2.219   0.694   5.295 -0.1572 -0.7468  0.0016
11159SOL     OW34416   3.606   6.077   6.699  0.4783  0.1834  0.0318
11159SOL    HW134417   3.537   6.092   6.634  0.8641  2.2429  0.0159
11159SOL    HW234418   3.685   6.063   6.647  0.8635  2.2319 -0.0033
11160SOL     OW34419   6.590   5.285   6.310  0.2409  0.3731  0.1197
11160SOL    HW134420   6.668   5.234   6.286 -0.7526 -1.3012  0.3650
11160SOL    HW234421   6.559   5.321   6.227 -0.7554 -1.9342 -0.5801
11161SOL     OW34422   4.710   3.925   0.688  0.4957 -0.4686  0.1801
11161SOL    HW134423   4.759   3.984   0.745 -0.2241  1.9654 -1.5708
11161SOL    HW234424   4.630   3.905   0.737  0.3704  0.7025  0.4842
11162SOL     OW34425   2.331   2.539   0.563  0.0930 -0.1209 -0.5201
11162SOL    HW134426   2.414   2.534   0.612  0.4029 -0.0513 -1.0339
11162SOL    HW234427   2.294   2.451   0.570 -0.7589  0.3335  1.3671
11163SOL     OW34428   1.057   0.676   4.552 -0.2299 -0.3376  0.0310
11163SOL    HW134429   1.083   0.587   4.578 -0.1817 -0.9250 -1.8612
11163SOL    HW234430   1.002   0.707   4.624  0.5329 -1.5319  1.1611
11164SOL     OW34431   6.967   5.142   2.661  0.5008  0.0659  0.0257
11164SOL    HW134432   6.913   5.065   2.646 -0.1194  0.2234  1.3131
11164SOL    HW234433   6.983   5.142   2.756 -0.7402  2.2921  0.2954
11165SOL     OW34434   6.376   1.478   4.009  0.1564  0.7849  0.0362
11165SOL    HW134435   6.431   1.541   4.056  1.7253 -0.3685 -0.1529
11165SOL    HW234436   6.343   1.420   4.077  2.8697 -1.2190 -0.1766
11166SOL     OW34437   3.871   5.087   4.541  0.1100 -0.4812 -0.1689
11166SOL    HW134438   3.868   5.019   4.474 -0.1271 -0.3842 -0.2572
11166SOL    HW234439   3.786   5.131   4.535 -0.0414 -0.6851  0.4124
11167SOL     OW34440   6.835   4.822   5.535  0.7849  0.3968  0.2715
11167SOL    HW134441   6.882   4.749   5.495  0.4862  0.0462  0.5388
11167SOL    HW234442   6.830   4.798   5.628  1.9403  1.4538  0.6225
11168SOL     OW34443   0.661   4.602   5.098  0.3475 -0.2612 -0.6901
11168SOL    HW134444   0.730   4.614   5.163  1.0350 -1.2766 -1.1984
11168SOL    HW234445   0.593   4.664   5.123  2.4260  2.5610 -1.5387
11169SOL     OW34446   5.564   3.678   1.236 -0.5636 -0.9172 -0.0959
11169SOL    HW134447   5.646   3.695   1.282  0.4107 -2.3517 -1.2140
11169SOL    HW234448   5.550   3.755   1.182 -0.0898 -0.5533  0.2955
11170SOL     OW34449   2.843   6.284   0.761 -0.2821  0.3372  0.0354
11170SOL    HW134450   2.914   6.314   0.705  0.2500 -2.3736 -0.8863
11170SOL    HW234451   2.775   6.255   0.700 -0.4901 -0.8715  0.8083
11171SOL     OW34452   2.302   2.339   4.131  0.5515  0.7110 -0.3737
11171SOL    HW134453   2.228   2.394   4.156 -0.4062  0.2473 -2.0606
11171SOL    HW234454   2.263   2.268   4.080  2.2457  1.1385 -2.4047
11172SOL     OW34455   1.895   2.692   1.512  0.4858  0.0973  0.1617
11172SOL    HW134456   1.810   2.650   1.523 -0.0957 -0.1362 -3.8297
11172SOL    HW234457   1.878   2.784   1.534 -0.7836  0.0420 -0.4846
11173SOL     OW34458   0.634   5.291   0.643  0.2427  0.9078  0.0234
11173SOL    HW134459   0.559   5.347   0.622 -0.4456  0.2375  0.6334
11173SOL    HW234460   0.665   5.261   0.558 -2.7921 -2.1560 -0.2409
11174SOL     OW34461   1.961   0.718   4.356  0.2981 -0.2805 -0.3238
11174SOL    HW134462   1.973   0.681   4.268 -0.4184 -0.9499 -0.1502
11174SOL    HW234463   1.950   0.641   4.412  1.5595  0.1086  0.4913
11175SOL     OW34464   0.451   6.945   4.279  0.1169  0.4356 -0.2072
11175SOL    HW134465   0.405   7.002   4.342  0.7136 -0.5944  1.2071
11175SOL    HW234466   0.524   6.998   4.248 -0.5676  1.1946 -0.5627
11176SOL     OW34467   5.897   3.507   2.024 -0.2889  0.0837  0.3671
11176SOL    HW134468   5.867   3.587   2.066 -0.3841  0.1989  0.0765
11176SOL    HW234469   5.827   3.482   1.964  0.2230  0.4016 -0.3727
11177SOL     OW34470   3.669   6.612   4.376 -0.7692 -0.3223  0.2354
11177SOL    HW134471   3.589   6.561   4.391 -0.3118 -0.8670  0.8972
11177SOL    HW234472   3.723   6.594   4.453 -0.3395  0.6728  0.1729
11178SOL     OW34473   4.861   7.323   4.346 -0.2691  0.1806 -0.3156
11178SOL    HW134474   4.774   7.298   4.315  0.2079 -1.3707 -0.4978
11178SOL    HW234475   4.856   7.417   4.359 -2.0802  0.0662  0.0158
11179SOL     OW34476   5.043   5.949   6.366 -0.2765  0.2011  0.6325
11179SOL    HW134477   5.101   5.923   6.438 -0.2488 -1.8193 -0.0563
11179SOL    HW234478   4.956   5.951   6.406 -0.3443 -1.4729  0.6610
11180SOL     OW34479   2.238   1.900   5.300 -0.6103 -0.0923  0.2825
11180SOL    HW134480   2.156   1.865   5.265 -0.1339 -0.8357 -0.1217
11180SOL    HW234481   2.232   1.994   5.285 -1.3940 -0.1411  0.2651
11181SOL     OW34482   1.066   6.067   6.929 -0.1536  0.1639 -0.5938
11181SOL    HW134483   1.057   6.058   6.834 -0.1113 -0.2701 -0.5571
11181SOL    HW234484   1.029   5.986   6.965  0.4396  0.0306 -0.2724
11182SOL     OW34485   6.350   5.605   3.858 -0.0487 -0.6672  0.3326
11182SOL    HW134486   6.332   5.679   3.915  2.8220 -0.1101  0.6770
11182SOL    HW234487   6.359   5.531   3.918  0.8493 -0.5075  0.4074
11183SOL     OW34488   5.659   4.518   2.101 -0.0304  0.2587  0.0689
11183SOL    HW134489   5.696   4.546   2.185 -0.2029 -0.7356  0.4911
11183SOL    HW234490   5.734   4.489   2.050 -0.2516 -3.5955  1.6226
11184SOL     OW34491   7.037   2.754   4.122 -0.2882  0.1384  0.1085
11184SOL    HW134492   6.950   2.713   4.116  0.6338 -1.8406 -0.7517
11184SOL    HW234493   7.087   2.711   4.053  1.0270  2.2054 -0.2925
11185SOL     OW34494   2.966   4.584   0.470 -0.4791  0.0457 -0.4863
11185SOL    HW134495   2.956   4.531   0.390  0.0655  0.1800 -0.6441
11185SOL    HW234496   2.916   4.664   0.451 -0.6585 -0.0775 -0.5451
11186SOL     OW34497   3.457   4.101   6.737 -0.2958 -0.9333 -0.0796
11186SOL    HW134498   3.395   4.135   6.673 -0.4301  1.0635  1.0459
11186SOL    HW234499   3.405   4.087   6.816  0.5166 -0.0342  0.6302
11187SOL     OW34500   4.956   3.304   6.998 -0.0508 -0.1310 -0.8644
11187SOL    HW134501   5.021   3.239   7.023  0.9042  1.0703 -0.1119
11187SOL    HW234502   4.990   3.343   6.918  0.3886  0.7899 -0.2429
11188SOL     OW34503   3.974   0.569   3.057 -0.2670  0.4117 -0.4165
11188SOL    HW134504   3.909   0.558   3.127 -0.5562 -0.2458 -0.7860
11188SOL    HW234505   3.950   0.504   2.991  0.3045  0.6914 -0.9071
11189SOL     OW34506   2.207   3.694   6.627 -0.2952 -0.1723  0.2080
11189SOL    HW134507   2.234   3.688   6.718 -0.2917  0.7565  0.2787
11189SOL    HW234508   2.179   3.606   6.604 -0.3763 -0.3935  1.1317
11190SOL     OW34509   0.707   6.229   3.456 -0.1833  0.1897  0.0345
11190SOL    HW134510   0.772   6.262   3.518  1.0879 -0.6584 -0.7950
11190SOL    HW234511   0.700   6.135   3.476 -0.6929  0.1554 -0.2866
11191SOL     OW34512   6.021   4.399   5.381  0.3727  1.0992 -0.3654
11191SOL    HW134513   6.058   4.469   5.435  1.0953  0.5135 -0.0806
11191SOL    HW234514   5.961   4.353   5.440  0.8109  0.7419 -0.1988
11192SOL     OW34515   4.203   2.557   1.867 -0.3925  0.1830 -0.5518
11192SOL    HW134516   4.241   2.602   1.792 -0.0783 -1.6368 -1.5399
11192SOL    HW234517   4.277   2.540   1.925 -0.0011 -1.4937 -1.4930
11193SOL     OW34518   3.337   1.729   2.894  0.1714  0.2576 -0.8198
11193SOL    HW134519   3.257   1.765   2.856  0.0782  1.3261  0.3329
11193SOL    HW234520   3.385   1.806   2.925  1.1244 -0.4507 -0.4920
11194SOL     OW34521   3.655   3.010   4.942 -0.1770  0.4210  0.1443
11194SOL    HW134522   3.564   3.025   4.918  0.0690  0.2864 -0.9129
11194SOL    HW234523   3.651   2.975   5.031 -1.2112 -0.2525 -0.1488
11195SOL     OW34524   0.151   6.831   0.774 -0.4194  0.6495  0.2631
11195SOL    HW134525   0.075   6.858   0.723 -0.4061  0.3473  0.0828
11195SOL    HW234526   0.115   6.807   0.860 -0.3688  1.7287  0.6006
11196SOL     OW34527   5.369   6.179   2.975 -0.1449  0.1121  0.0719
11196SOL    HW134528   5.440   6.131   2.933 -0.5488  0.4029 -0.9647
11196SOL    HW234529   5.293   6.164   2.919 -0.8171  0.1158  0.9636
11197SOL     OW34530   1.806   1.527   2.156  0.3392  0.4448 -0.9589
11197SOL    HW134531   1.876   1.499   2.215 -0.4143  1.0424  0.2495
11197SOL    HW234532   1.749   1.450   2.147  0.8320  0.1307 -1.5082
11198SOL     OW34533   5.710   6.056   4.342  0.2160 -0.0997 -0.2321
11198SOL    HW134534   5.697   5.983   4.281 -1.8051  1.5750 -1.9654
11198SOL    HW234535   5.629   6.059   4.393  1.2338 -0.4516  1.4983
11199SOL     OW34536   2.146   0.341   5.220 -0.4035 -0.2716 -0.2753
11199SOL    HW134537   2.185   0.428   5.226 -0.0689 -0.4465  0.2132
11199SOL    HW234538   2.197   0.288   5.282 -2.5727 -0.0651  1.8702
11200SOL     OW34539   7.288   7.420   4.067  0.6625  0.1305  0.2684
11200SOL    HW134540   7.319   7.334   4.094  2.2229  1.0230  1.4290
11200SOL    HW234541   7.211   7.436   4.122  1.2953  0.1297  1.1638
11201SOL     OW34542   2.196   5.158   2.127 -0.2446 -0.3881  0.2851
11201SOL    HW134543   2.210   5.065   2.144 -3.3516 -1.4354 -1.9133
11201SOL    HW234544   2.274   5.186   2.080  0.0190 -2.3736 -0.5403
11202SOL     OW34545   1.084   3.180   6.644 -0.3650 -0.5793  0.3542
11202SOL    HW134546   1.007   3.148   6.595  0.2754 -0.7311 -0.5893
11202SOL    HW234547   1.157   3.167   6.583 -0.0684  2.9064 -0.2277
11203SOL     OW34548   6.539   5.006   6.288  0.4864  0.2921  0.1175
11203SOL    HW134549   6.466   5.056   6.325  2.3435  3.0449  0.3421
11203SOL    HW234550   6.601   4.996   6.361 -0.2154 -3.5364  0.4358
11204SOL     OW34551   2.960   0.920   0.003 -0.0001  0.1733 -0.3578
11204SOL    HW134552   3.029   0.858  -0.017 -0.4719 -0.6821  0.5572
11204SOL    HW234553   2.892   0.902  -0.062 -0.9844 -1.6995  1.0936
11205SOL     OW34554   7.127   4.145   4.025 -0.5601 -0.2537  0.0848
11205SOL    HW134555   7.166   4.060   4.001  2.3677  0.3705  2.0874
11205SOL    HW234556   7.052   4.122   4.081  0.9537 -1.6215  1.6924
11206SOL     OW34557   5.989   0.279   0.798  0.1023 -0.2380 -0.2305
11206SOL    HW134558   6.051   0.303   0.729 -0.0779  1.1294  0.0594
11206SOL    HW234559   5.911   0.249   0.752  0.5702 -0.9133 -0.5990
11207SOL     OW34560   3.402   5.228   6.355 -0.2690  0.0887  0.1068
11207SOL    HW134561   3.428   5.209   6.265  0.5533  0.1721  0.3099
11207SOL    HW234562   3.482   5.213   6.406 -0.8522 -0.4431  0.8909
11208SOL     OW34563   2.041   2.069   3.413 -0.3301  0.1557 -0.9952
11208SOL    HW134564   2.107   2.003   3.433 -0.6093  0.3652  0.7053
11208SOL    HW234565   1.998   2.036   3.334 -0.3677 -1.6241 -0.2769
11209SOL     OW34566   4.009   6.312   5.220 -0.4074  0.1427  0.4647
11209SOL    HW134567   4.049   6.353   5.144 -0.0487 -3.1409 -1.3213
11209SOL    HW234568   3.920   6.347   5.222 -0.7633 -0.3946 -2.1782
11210SOL     OW34569   6.296   2.438   4.083 -0.0740 -0.3114 -0.0201
11210SOL    HW134570   6.376   2.412   4.129 -0.6076  0.0461  1.1548
11210SOL    HW234571   6.229   2.379   4.115 -0.3612 -0.3879 -0.7428
11211SOL     OW34572   5.102   2.095   0.190  0.4640 -0.0808  0.1624
11211SOL    HW134573   5.141   2.080   0.104  2.8361  1.2452  0.9155
11211SOL    HW234574   5.030   2.157   0.173  1.5280  0.9396 -0.7895
11212SOL     OW34575   0.532   6.023   1.907 -0.1344 -0.0469 -0.0264
11212SOL    HW134576   0.572   6.065   1.984  0.5079 -0.0598 -0.3463
11212SOL    HW234577   0.458   5.974   1.943 -0.6279  0.9871  0.4104
11213SOL     OW34578   4.714   6.563   0.631  0.1888  0.1183  0.3969
11213SOL    HW134579   4.626   6.594   0.655  0.5749  0.3048  1.6517
11213SOL    HW234580   4.745   6.626   0.568 -0.6201 -0.0058 -0.1441
11214SOL     OW34581   2.680   0.781   5.907 -0.3449 -0.2544 -0.2846
11214SOL    HW134582   2.588   0.796   5.927 -0.1142 -0.0927  0.7530
11214SOL    HW234583   2.725   0.860   5.940  0.4721 -1.5230  1.8638
11215SOL     OW34584   1.062   5.015   7.428 -0.0891 -0.0042 -0.1452
11215SOL    HW134585   1.061   5.044   7.519  0.0295 -2.6448  0.7795
11215SOL    HW234586   1.123   5.074   7.384  1.6688 -0.1238  2.0235
11216SOL     OW34587   1.533   1.606   4.423 -0.1999 -0.5800 -0.0666
11216SOL    HW134588   1.512   1.567   4.508 -3.4891 -0.9071 -0.8984
11216SOL    HW234589   1.463   1.669   4.407  0.3716 -0.4626 -2.4844
11217SOL     OW34590   3.970   6.497   3.291 -0.0566 -0.2282  0.0808
11217SOL    HW134591   3.945   6.475   3.381  1.3843  0.4341  0.6789
11217SOL    HW234592   4.060   6.466   3.283  0.6177  1.7096 -0.3890
11218SOL     OW34593   2.818   5.194   7.291  0.2451 -0.1224  0.2976
11218SOL    HW134594   2.899   5.145   7.307  1.0403  1.9487  3.5291
11218SOL    HW234595   2.753   5.153   7.349 -0.7467 -0.9261 -1.3004
11219SOL     OW34596   4.766   0.057   1.801 -0.1607 -0.0741 -0.3645
11219SOL    HW134597   4.775  -0.002   1.726  1.4766 -0.1266 -0.1672
11219SOL    HW234598   4.676   0.045   1.831 -1.0673  0.3826 -2.6699
11220SOL     OW34599   6.763   2.632   4.108  0.1940 -1.2605 -0.0239
11220SOL    HW134600   6.726   2.550   4.076 -1.7716 -0.9204  1.2332
11220SOL    HW234601   6.688   2.689   4.123  1.3630  0.1316  0.8968
11221SOL     OW34602   5.108   4.201   1.211  0.1479 -0.3235 -0.3078
11221SOL    HW134603   5.168   4.163   1.275 -1.7716 -0.2779  1.6323
11221SOL    HW234604   5.026   4.154   1.224 -1.3282  2.0694 -0.2095
11222SOL     OW34605   1.407   6.848   7.091 -0.4565  0.2776  0.2942
11222SOL    HW134606   1.464   6.840   7.015 -2.1795  0.0693 -1.0391
11222SOL    HW234607   1.393   6.942   7.101  0.9039  0.3922  1.2584
11223SOL     OW34608   2.589   5.895   0.797 -0.3259 -0.8701  0.1274
11223SOL    HW134609   2.626   5.821   0.749  0.3366 -0.9061  0.6889
11223SOL    HW234610   2.496   5.895   0.771  0.2726  0.0363 -2.3140
11224SOL     OW34611   1.911   2.121   5.344 -0.6403 -0.0314  0.3428
11224SOL    HW134612   1.853   2.046   5.329 -0.6351 -0.2576  1.3924
11224SOL    HW234613   1.871   2.168   5.417  0.4882 -0.1883  1.0862
11225SOL     OW34614   3.669   3.224   0.437  0.1055  0.2532  0.4297
11225SOL    HW134615   3.585   3.184   0.415  0.9051 -0.0021 -2.6938
11225SOL    HW234616   3.647   3.316   0.454 -0.8818  0.0339  0.4457
11226SOL     OW34617   5.546   1.525   1.737 -0.2337  0.2449 -0.2509
11226SOL    HW134618   5.527   1.489   1.823  0.7339  0.7784  0.1973
11226SOL    HW234619   5.640   1.540   1.737 -0.1976  0.0951 -1.4638
11227SOL     OW34620   6.067   4.352   5.725 -0.6211  0.6511 -0.0994
11227SOL    HW134621   6.140   4.316   5.675 -0.2839  0.5919  0.4286
11227SOL    HW234622   6.108   4.416   5.784 -0.9558  0.4270  0.3819
11228SOL     OW34623   3.530   4.546   1.219 -0.1355  0.1231  0.6906
11228SOL    HW134624   3.533   4.641   1.234  2.2055  0.6735 -2.2871
11228SOL    HW234625   3.610   4.513   1.261 -0.1559 -0.2908  0.4066
11229SOL     OW34626   4.604   0.241   1.139 -0.6587 -0.3276  0.0339
11229SOL    HW134627   4.690   0.198   1.135 -1.0604 -1.4160  1.8954
11229SOL    HW234628   4.561   0.200   1.214 -3.0546 -0.2120 -1.2160
11230SOL     OW34629   6.103   5.046   2.039 -0.4006  0.1521  0.6119
11230SOL    HW134630   6.053   4.987   2.096  0.7263 -0.1364  1.3262
11230SOL    HW234631   6.159   4.988   1.987 -2.1636  0.3117 -1.6389
11231SOL     OW34632   3.410   1.075   6.250  0.2379 -0.3014  0.2028
11231SOL    HW134633   3.481   1.021   6.215 -0.6586  0.1122 -2.5070
11231SOL    HW234634   3.331   1.040   6.209 -0.9545  0.2773  1.8868
11232SOL     OW34635   0.666   2.754   4.467 -0.0071 -0.5087  0.0529
11232SOL    HW134636   0.750   2.710   4.472 -0.1793 -0.7390  1.0805
11232SOL    HW234637   0.620   2.728   4.547 -1.1981 -0.6909 -0.6632
11233SOL     OW34638   5.214   1.181   0.241  0.1448  0.1558  0.1583
11233SOL    HW134639   5.274   1.238   0.194 -0.6828 -0.1380 -1.3122
11233SOL    HW234640   5.192   1.228   0.321  2.7489  0.0191  1.0174
11234SOL     OW34641   4.670   7.422   0.072 -0.0501 -0.2025  0.8552
11234SOL    HW134642   4.728   7.474   0.017 -0.4743 -0.8372 -0.2252
11234SOL    HW234643   4.671   7.466   0.157  1.3422  0.2676  0.6110
11235SOL     OW34644   6.885   4.912   2.027  0.6429  0.4317 -0.9146
11235SOL    HW134645   6.815   4.933   2.090 -0.0828 -0.2785 -1.4663
11235SOL    HW234646   6.872   4.820   2.007 -0.1984  1.0013 -3.3528
11236SOL     OW34647   7.161   5.241   3.658 -0.7156 -0.7178  0.0407
11236SOL    HW134648   7.191   5.164   3.706 -0.7936  0.0840  1.4087
11236SOL    HW234649   7.190   5.225   3.568 -0.2966 -2.1080  0.3963
11237SOL     OW34650   3.339   0.513   5.291 -0.3055  0.0952  0.1450
11237SOL    HW134651   3.342   0.484   5.382 -0.8536  1.2585  0.5545
11237SOL    HW234652   3.246   0.509   5.268 -0.0915 -0.8770 -0.6080
11238SOL     OW34653   6.273   1.048   5.174  0.6070 -0.1678  0.5134
11238SOL    HW134654   6.267   1.143   5.163  0.8013  0.1032  2.3421
11238SOL    HW234655   6.331   1.037   5.250  1.8471 -1.8021 -0.6027
11239SOL     OW34656   5.683   0.320   1.352  0.0351  0.1638 -0.3696
11239SOL    HW134657   5.623   0.393   1.334 -0.5396 -0.3411 -0.5326
11239SOL    HW234658   5.626   0.244   1.363  0.5400 -0.0474  0.9992
11240SOL     OW34659   4.520   1.990   3.871  0.2109  0.2858 -0.4550
11240SOL    HW134660   4.482   1.972   3.957 -0.6135 -2.0457 -1.2263
11240SOL    HW234661   4.524   2.086   3.866 -0.3027  0.4915  1.9007
11241SOL     OW34662   3.844   3.055   4.774  0.4186 -0.3973  0.8905
11241SOL    HW134663   3.838   3.148   4.754  0.8030 -1.0999 -3.3576
11241SOL    HW234664   3.763   3.036   4.822 -0.6906  1.7628  0.0267
11242SOL     OW34665   4.090   1.894   6.814 -0.0819  0.3536 -0.2263
11242SOL    HW134666   4.096   1.808   6.773  0.7331  0.5500 -0.5394
11242SOL    HW234667   4.001   1.923   6.795  0.0401  0.1203 -1.2246
11243SOL     OW34668   0.295   1.558   1.074  0.0819  0.4784 -0.5218
11243SOL    HW134669   0.264   1.574   1.164 -0.0297  0.7455 -0.6091
11243SOL    HW234670   0.309   1.645   1.037 -1.3577  0.4256 -1.2800
11244SOL     OW34671   6.448   3.841   5.095 -0.0040  0.2213  0.3920
11244SOL    HW134672   6.410   3.902   5.158  0.2237  0.0235  0.7205
11244SOL    HW234673   6.533   3.878   5.073 -0.1863  0.4225  0.0049
11245SOL     OW34674   1.148   2.562   5.469 -0.5486 -0.1723  0.6367
11245SOL    HW134675   1.074   2.588   5.413  0.6777  1.2647 -0.3881
11245SOL    HW234676   1.190   2.490   5.420 -1.3492 -1.1358  1.3223
11246SOL     OW34677   6.691   3.185   5.177 -0.3078 -0.2727 -0.5335
11246SOL    HW134678   6.735   3.232   5.106  2.2122  0.8903  1.6021
11246SOL    HW234679   6.746   3.108   5.191 -1.1158 -0.8008 -0.1979
11247SOL     OW34680   4.670   0.420   5.197  0.3013  0.4016  0.4949
11247SOL    HW134681   4.595   0.478   5.180  1.4570  2.0009  0.6134
11247SOL    HW234682   4.688   0.379   5.112 -0.0414  0.8321  0.2074
11248SOL     OW34683   3.087   4.147   3.594  0.0633  0.1311 -0.4751
11248SOL    HW134684   3.104   4.067   3.645 -1.0074  0.8932  1.1583
11248SOL    HW234685   3.027   4.198   3.649 -0.0831  1.6072 -1.9429
11249SOL     OW34686   1.075   1.958   0.962 -0.7662  0.3774 -0.1111
11249SOL    HW134687   1.098   1.866   0.950  0.3316  0.6011  0.1821
11249SOL    HW234688   1.089   1.975   1.055 -0.5905  0.9397 -0.2366
11250SOL     OW34689   3.574   5.508   1.935 -0.6741 -0.6084 -0.3338
11250SOL    HW134690   3.627   5.467   2.003  0.0468 -0.2243 -0.6405
11250SOL    HW234691   3.501   5.448   1.921  0.3329 -1.7897 -0.7622
11251SOL     OW34692   1.892   2.830   7.362  0.2004 -0.1406  0.0438
11251SOL    HW134693   1.892   2.877   7.279  0.6272  0.5621  0.4322
11251SOL    HW234694   1.800   2.826   7.388  0.1393  0.2703 -0.1094
11252SOL     OW34695   2.492   4.592   1.945  0.1362  0.1335 -0.5480
11252SOL    HW134696   2.550   4.646   1.891  0.2619 -0.3357 -0.8888
11252SOL    HW234697   2.530   4.504   1.941 -0.7381 -0.2410 -0.9918
11253SOL     OW34698   2.841   4.532   2.827 -0.2620  0.4276 -0.1548
11253SOL    HW134699   2.882   4.514   2.742 -0.3451 -0.2138 -0.0623
11253SOL    HW234700   2.912   4.524   2.890 -0.0983  1.3682 -0.2004
11254SOL     OW34701   0.489   6.930   0.081  0.4349  0.0360  0.2287
11254SOL    HW134702   0.406   6.888   0.060  0.4723  0.4234 -0.7149
11254SOL    HW234703   0.521   6.882   0.158 -1.7873  1.4105  2.1506
11255SOL     OW34704   3.135   5.149   6.192 -0.2747  0.4245 -0.4134
11255SOL    HW134705   3.174   5.062   6.182 -0.6713 -0.0610  1.7327
11255SOL    HW234706   3.208   5.205   6.218 -0.1791  0.5286 -0.9104
11256SOL     OW34707   3.885   7.003   4.549  0.4254  0.2513 -0.2305
11256SOL    HW134708   3.954   6.948   4.583  0.2085 -0.2217 -0.5461
11256SOL    HW234709   3.883   6.985   4.455 -0.4361 -0.0975 -0.1566
11257SOL     OW34710   1.611   4.281   5.991  0.0974 -0.4301 -0.2302
11257SOL    HW134711   1.517   4.298   5.994  0.1930  0.1840 -0.4974
11257SOL    HW234712   1.647   4.354   5.940  0.8485 -0.0603  0.7698
11258SOL     OW34713   6.242   3.633   0.570  0.6611 -0.4271  0.1036
11258SOL    HW134714   6.206   3.722   0.574  0.6704 -0.4476  0.9180
11258SOL    HW234715   6.166   3.576   0.584  1.1421 -0.4384  3.5835
11259SOL     OW34716   7.153   1.381   0.832 -0.1742 -0.3999  0.2666
11259SOL    HW134717   7.120   1.350   0.916 -1.5144  0.2111 -0.0084
11259SOL    HW234718   7.127   1.315   0.769 -1.1473  0.2151  0.0062
11260SOL     OW34719   3.269   3.458   0.011 -0.4333 -0.1768  0.5089
11260SOL    HW134720   3.291   3.506  -0.069  0.2839 -0.6809  0.4017
11260SOL    HW234721   3.219   3.522   0.064 -1.2541  0.0343 -0.4932
11261SOL     OW34722   3.890   3.801   5.963  0.3338  0.1458 -0.0462
11261SOL    HW134723   3.979   3.827   5.939  0.8296  0.0822  1.5407
11261SOL    HW234724   3.846   3.783   5.880  1.0523  2.5096 -1.0458
11262SOL     OW34725   3.451   4.774   6.029  0.6400 -0.0835 -0.1271
11262SOL    HW134726   3.473   4.720   5.953  0.8193  0.6755 -0.6286
11262SOL    HW234727   3.496   4.732   6.102  1.6241 -0.0336 -0.6879
11263SOL     OW34728   6.092   5.977   1.857 -0.1899 -0.6470 -0.6407
11263SOL    HW134729   6.013   5.932   1.827 -2.0946  0.2807  2.4818
11263SOL    HW234730   6.127   5.920   1.926 -0.6140  0.8613  0.9013
11264SOL     OW34731   1.099   2.209   5.480 -0.3506 -0.0917  0.5310
11264SOL    HW134732   1.130   2.294   5.449  1.3146 -0.6709  0.5135
11264SOL    HW234733   1.043   2.229   5.554  1.4492  0.9627  1.6617
11265SOL     OW34734   3.771   3.091   0.040 -0.2954  0.0118 -0.0171
11265SOL    HW134735   3.719   3.110  -0.038  1.1476  1.3921 -0.7104
11265SOL    HW234736   3.858   3.124   0.019  1.0483 -2.6158  0.8769
11266SOL     OW34737   7.058   5.017   6.319 -0.1768  0.3329 -0.7921
11266SOL    HW134738   7.150   5.005   6.343 -0.1857  0.4182 -0.7113
11266SOL    HW234739   7.044   5.112   6.328  0.3277  0.6696 -2.9680
11267SOL     OW34740   4.004   6.907   5.777 -0.0751  0.6008  0.2210
11267SOL    HW134741   4.076   6.919   5.716  0.3015 -1.1165  0.2886
11267SOL    HW234742   3.954   6.834   5.742 -0.0675 -0.1812  1.7408
11268SOL     OW34743   6.053   0.030   0.356 -0.0818  0.4619 -0.5249
11268SOL    HW134744   5.977   0.059   0.407 -1.8319 -1.6627 -1.7324
11268SOL    HW234745   6.100  -0.029   0.416 -0.4322  0.3347 -0.3714
11269SOL     OW34746   5.347   6.622   1.593 -0.0719  0.4027 -0.1977
11269SOL    HW134747   5.370   6.697   1.539 -1.6720  1.0962  0.0202
11269SOL    HW234748   5.415   6.619   1.661 -0.2814  2.0112  0.1150
11270SOL     OW34749   3.287   4.494   2.739  0.9698 -0.1658 -0.1920
11270SOL    HW134750   3.311   4.421   2.681  0.5686  0.6004 -1.3538
11270SOL    HW234751   3.206   4.529   2.701  1.1653  0.8944  0.3375
11271SOL     OW34752   4.002   1.465   0.599  0.1913 -0.2442  0.3883
11271SOL    HW134753   3.915   1.442   0.568 -0.1238  1.5452 -0.2295
11271SOL    HW234754   4.059   1.452   0.523  0.3151 -0.5797  0.5357
11272SOL     OW34755   5.813   0.369   1.140  0.0710 -0.3354 -0.2744
11272SOL    HW134756   5.854   0.288   1.109  0.8671 -0.3588  0.7948
11272SOL    HW234757   5.770   0.345   1.222 -0.4484  0.1311 -0.4005
11273SOL     OW34758   3.884   6.056   1.600  0.3681 -0.4037  0.1885
11273SOL    HW134759   3.933   6.032   1.521 -1.1623  0.4829 -1.1098
11273SOL    HW234760   3.944   6.039   1.672  1.8237 -1.2804 -1.1623
11274SOL     OW34761   4.174   5.183   5.373  0.0786 -0.4032  0.6773
11274SOL    HW134762   4.126   5.254   5.330  0.1267 -0.8125 -0.0513
11274SOL    HW234763   4.252   5.171   5.320  0.5634 -0.3411  1.3582
11275SOL     OW34764   2.873   3.433   6.303  0.0132 -0.0010 -0.2060
11275SOL    HW134765   2.799   3.405   6.357 -0.9834  2.5776 -0.1001
11275SOL    HW234766   2.876   3.370   6.232 -1.2863 -1.0519  0.6251
11276SOL     OW34767   5.769   5.861   4.058  0.0467  0.0398  0.2247
11276SOL    HW134768   5.763   5.867   3.963  0.6273  2.4602  0.2664
11276SOL    HW234769   5.679   5.867   4.089 -0.0159  1.1433 -0.1383
11277SOL     OW34770   3.540   1.913   1.745 -0.1465  0.5523 -0.3825
11277SOL    HW134771   3.516   2.006   1.750 -0.3956  0.4865 -0.3647
11277SOL    HW234772   3.634   1.914   1.726 -0.0692  0.8099 -0.0004
11278SOL     OW34773   0.156   6.436   2.618 -0.4643 -0.3062 -0.4561
11278SOL    HW134774   0.150   6.522   2.576 -0.9398 -0.0502  0.1343
11278SOL    HW234775   0.247   6.408   2.601  0.2945  1.1436  0.9675
11279SOL     OW34776   6.488   1.676   5.771  0.0655  0.0174  0.0066
11279SOL    HW134777   6.583   1.675   5.777  0.1339 -0.6225 -1.0038
11279SOL    HW234778   6.468   1.639   5.685 -0.9891  3.9300 -1.6376
11280SOL     OW34779   4.413   0.936   1.824 -0.5927  0.3572  0.1090
11280SOL    HW134780   4.399   1.010   1.766  0.4301 -0.7027 -1.5809
11280SOL    HW234781   4.500   0.952   1.863 -1.2704  1.0605  1.4056
11281SOL     OW34782   1.711   6.608   0.049  0.6272 -0.0276 -0.2508
11281SOL    HW134783   1.622   6.642   0.034  1.5705  1.7853 -2.2572
11281SOL    HW234784   1.704   6.515   0.028 -1.3971 -0.6280  2.5268
11282SOL     OW34785   3.204   0.347   5.766  0.1399  0.1943 -0.6059
11282SOL    HW134786   3.195   0.255   5.790 -2.4608  0.8345  1.3061
11282SOL    HW234787   3.273   0.380   5.824 -0.6209 -0.0507  0.4789
11283SOL     OW34788   2.867   1.438   2.501  0.5083 -0.0226  0.0814
11283SOL    HW134789   2.909   1.488   2.431  1.4350  0.0144  0.6444
11283SOL    HW234790   2.937   1.382   2.535  0.0435 -0.0956  0.9295
11284SOL     OW34791   0.556   5.997   5.664 -0.3772 -0.2046 -0.2879
11284SOL    HW134792   0.470   6.015   5.625 -1.2470  0.4184  1.8080
11284SOL    HW234793   0.613   6.066   5.629 -1.0518  0.1760 -0.6662
11285SOL     OW34794   4.105   1.106   5.014  1.1495 -0.7891  0.7378
11285SOL    HW134795   4.141   1.183   4.969  3.4779 -2.8411 -1.1527
11285SOL    HW234796   4.147   1.106   5.100 -1.2122  1.6148  2.0505
11286SOL     OW34797   1.752   2.725   6.644  0.9777 -0.6852 -0.5926
11286SOL    HW134798   1.691   2.651   6.643 -1.0104  0.8351 -1.7287
11286SOL    HW234799   1.809   2.711   6.569  0.2170 -0.7943 -1.1653
11287SOL     OW34800   4.760   1.172   7.182  0.4961 -0.1381 -0.0608
11287SOL    HW134801   4.687   1.115   7.204 -0.7763  1.4994  0.1783
11287SOL    HW234802   4.804   1.128   7.110 -0.9903 -0.9721 -0.5004
11288SOL     OW34803   0.035   3.401   0.947  0.1261  0.1776  0.0125
11288SOL    HW134804   0.049   3.312   0.913 -0.1432 -1.0416  2.7792
11288SOL    HW234805  -0.012   3.446   0.878  0.7694 -1.6449 -1.7271
11289SOL     OW34806   3.835   5.250   7.025 -0.2616  0.2078  0.4819
11289SOL    HW134807   3.772   5.239   6.954 -0.8587 -0.6589  1.1183
11289SOL    HW234808   3.823   5.172   7.079  1.4041 -0.0045  0.5938
11290SOL     OW34809   5.669   2.274   2.130  0.0904 -0.4678  0.1852
11290SOL    HW134810   5.630   2.349   2.176  0.5513 -0.0541 -0.0880
11290SOL    HW234811   5.762   2.296   2.123  0.3649 -1.3883  0.7325
11291SOL     OW34812   1.494   3.944   3.017 -0.3638 -0.5567  0.1453
11291SOL    HW134813   1.437   3.996   2.961 -2.1039 -1.1189  1.3125
11291SOL    HW234814   1.519   3.869   2.963  2.1346  1.3076 -1.5387
11292SOL     OW34815   4.579   4.744   6.235  0.1113 -0.4692  0.1760
11292SOL    HW134816   4.651   4.723   6.176  0.4320  0.5988  0.1772
11292SOL    HW234817   4.619   4.796   6.305 -0.5033 -0.6147  0.6458
11293SOL     OW34818   1.128   5.296   5.279  0.2356 -0.0391  0.6310
11293SOL    HW134819   1.207   5.254   5.314 -1.5193 -2.2089  2.3384
11293SOL    HW234820   1.090   5.340   5.355 -0.6431  0.2318  0.0422
11294SOL     OW34821   1.029   0.876   6.313  0.2625  0.1585 -0.2282
11294SOL    HW134822   0.960   0.939   6.291 -2.4769 -3.5571 -3.7013
11294SOL    HW234823   0.986   0.814   6.371  0.5788 -2.1313 -2.2920
11295SOL     OW34824   0.474   0.245   5.273 -0.2738  0.1535  0.4455
11295SOL    HW134825   0.497   0.187   5.200  0.0176 -0.0345  0.6870
11295SOL    HW234826   0.487   0.193   5.351 -1.3661  0.1026  0.6068
11296SOL     OW34827   1.272   3.036   1.668  0.0020  0.4413  0.0658
11296SOL    HW134828   1.352   3.043   1.615 -1.1402 -0.3805 -1.8975
11296SOL    HW234829   1.208   3.091   1.622 -0.3056  2.0510  2.2516
11297SOL     OW34830   6.380   0.147   1.922  0.0274 -0.2715  0.0938
11297SOL    HW134831   6.453   0.109   1.970  0.6450  1.4718  0.5871
11297SOL    HW234832   6.353   0.223   1.974 -1.7859 -0.5564 -0.3653
11298SOL     OW34833   1.973   2.563   3.389 -0.2948 -0.6769  0.4121
11298SOL    HW134834   2.061   2.543   3.423 -0.1119 -1.1848 -0.3266
11298SOL    HW234835   1.979   2.654   3.361  0.3116 -0.9808 -0.5256
11299SOL     OW34836   3.665   4.545   7.198 -0.0722 -0.0107  0.5609
11299SOL    HW134837   3.706   4.458   7.207  1.4867  0.6367  0.1280
11299SOL    HW234838   3.719   4.589   7.132 -1.4208  0.9716  0.0836
11300SOL     OW34839   7.129   2.881   5.843  0.4645 -0.2868  0.4101
11300SOL    HW134840   7.191   2.833   5.898  1.9295  0.5913 -0.3871
11300SOL    HW234841   7.182   2.950   5.804 -1.3261  1.2797  0.6460
11301SOL     OW34842   0.852   3.253   1.207  0.0713  0.3591 -0.1889
11301SOL    HW134843   0.825   3.342   1.227  1.1861  0.5609  0.4864
11301SOL    HW234844   0.787   3.197   1.249  0.3688  0.8370  0.9283
11302SOL     OW34845   4.882   6.238   3.031  0.5400  0.1089 -0.6942
11302SOL    HW134846   4.874   6.235   2.936 -0.5514 -2.8450 -0.6310
11302SOL    HW234847   4.953   6.178   3.051  0.4845  0.3793  0.3777
11303SOL     OW34848   1.999   4.858   3.532  0.3331  0.0660  0.2667
11303SOL    HW134849   2.044   4.881   3.451 -0.1199 -1.6412 -0.5253
11303SOL    HW234850   1.916   4.906   3.527 -0.5776 -1.5363 -1.3177
11304SOL     OW34851   7.083   3.127   4.901  0.1735 -0.8445 -0.0470
11304SOL    HW134852   7.143   3.197   4.876 -0.7308  0.0110  0.1369
11304SOL    HW234853   7.140   3.053   4.922  1.3891  0.7242  2.8072
11305SOL     OW34854   5.146   0.065   5.352  0.2266  0.0715 -0.0910
11305SOL    HW134855   5.086   0.140   5.344 -0.4398 -0.5795 -1.3670
11305SOL    HW234856   5.095  -0.001   5.399  0.2247 -0.1927 -0.4656
11306SOL     OW34857   6.106   1.319   0.417  0.0493  0.3993 -0.0962
11306SOL    HW134858   6.098   1.319   0.321 -0.0172  0.1741 -0.0915
11306SOL    HW234859   6.095   1.228   0.442  0.9325  0.3239  0.0594
11307SOL     OW34860   6.577   1.533   2.594 -0.2561 -0.1337  0.5106
11307SOL    HW134861   6.603   1.573   2.677 -0.5109 -0.5512  0.7969
11307SOL    HW234862   6.656   1.493   2.560  0.0108  0.6314  0.2053
11308SOL     OW34863   0.559   0.055   6.837  0.0488  0.3420 -0.1493
11308SOL    HW134864   0.571  -0.005   6.764 -0.3246  0.4633 -0.3128
11308SOL    HW234865   0.480   0.105   6.815 -0.0938  0.3482  0.3558
11309SOL     OW34866   2.300   5.725   2.190  0.3576 -0.1870 -0.0915
11309SOL    HW134867   2.343   5.753   2.110 -0.8686  1.1477 -0.3465
11309SOL    HW234868   2.209   5.708   2.164  0.1195 -0.4760  0.8654
11310SOL     OW34869   0.517   1.990   7.239 -0.1027 -0.0657 -1.2021
11310SOL    HW134870   0.580   2.061   7.244 -0.0683 -0.1725  1.0930
11310SOL    HW234871   0.467   2.007   7.159  0.3944  2.1068 -1.1102
11311SOL     OW34872   0.753   3.882   5.506 -0.1392 -0.0008 -0.4949
11311SOL    HW134873   0.741   3.951   5.442  0.9419  0.5441 -0.1419
11311SOL    HW234874   0.739   3.924   5.591  1.3899  0.0522 -0.2233
11312SOL     OW34875   5.056   5.385   2.706  0.7955 -0.2898  0.3723
11312SOL    HW134876   4.972   5.364   2.747  0.3009  0.8282 -0.0483
11312SOL    HW234877   5.086   5.302   2.669 -0.7783 -0.4475 -0.6453
11313SOL     OW34878   5.986   4.416   3.404 -0.3103 -0.2676  0.0283
11313SOL    HW134879   6.051   4.364   3.452  0.1472 -0.0841 -0.3848
11313SOL    HW234880   6.038   4.484   3.360 -0.7631 -0.2411 -0.4695
11314SOL     OW34881   5.376   1.959   1.647  0.7628 -0.0322 -0.2863
11314SOL    HW134882   5.462   1.920   1.661  1.0775  1.0151  0.8415
11314SOL    HW234883   5.357   2.006   1.728 -1.1282 -0.6934 -0.2957
11315SOL     OW34884   0.262   1.249   2.550  0.1778 -0.2712  0.4570
11315SOL    HW134885   0.250   1.319   2.614  0.0056  0.7514 -0.6551
11315SOL    HW234886   0.174   1.231   2.517  0.4450  0.3711 -0.6567
11316SOL     OW34887   5.134   3.609   2.849 -0.3009 -0.2718  0.5207
11316SOL    HW134888   5.040   3.593   2.847 -0.4756  0.3580  2.1325
11316SOL    HW234889   5.165   3.561   2.926  0.4913  0.4633  0.6829
11317SOL     OW34890   6.288   5.274   0.232  0.4802 -0.0847 -0.0846
11317SOL    HW134891   6.254   5.354   0.272  0.0880  0.8065 -2.0832
11317SOL    HW234892   6.297   5.295   0.139  0.8540 -2.2123 -0.5909
11318SOL     OW34893   2.838   4.807   0.389  0.1824 -0.7046  0.4320
11318SOL    HW134894   2.903   4.831   0.322  0.0623 -1.4167  0.0452
11318SOL    HW234895   2.755   4.803   0.341 -0.4135  1.4691  1.1686
11319SOL     OW34896   5.403   1.397   4.170 -0.0401 -0.1644 -0.1290
11319SOL    HW134897   5.434   1.474   4.218  1.1780  0.4120 -1.7601
11319SOL    HW234898   5.432   1.323   4.223  1.4162  0.4537 -0.0062
11320SOL     OW34899   1.785   5.532   0.813  0.1702 -0.5141  0.0576
11320SOL    HW134900   1.855   5.591   0.786  1.3366 -1.7330  0.3076
11320SOL    HW234901   1.770   5.476   0.737  0.8172 -1.4955  0.6317
11321SOL     OW34902   0.293   2.006   3.889 -0.1792 -0.2161 -0.1412
11321SOL    HW134903   0.356   2.052   3.944  1.2801  0.1982 -2.0311
11321SOL    HW234904   0.255   2.074   3.833 -1.5556 -0.6276  0.2461
11322SOL     OW34905   0.546   6.132   1.622  0.1050  0.3592  0.1777
11322SOL    HW134906   0.514   6.077   1.550  1.8760  0.0773 -0.4438
11322SOL    HW234907   0.523   6.083   1.701  0.1802 -0.4851 -0.3060
11323SOL     OW34908   6.313   6.857   6.125 -0.4589 -0.2514 -0.2105
11323SOL    HW134909   6.266   6.780   6.158 -0.1705 -0.4324 -0.2220
11323SOL    HW234910   6.252   6.929   6.140 -1.3440 -0.6803 -1.5509
11324SOL     OW34911   5.981   0.645   4.119 -0.2795  0.2736 -0.0154
11324SOL    HW134912   5.995   0.637   4.025 -1.1649  0.3672 -0.1700
11324SOL    HW234913   6.068   0.638   4.158  0.0661 -0.0101 -0.8244
11325SOL     OW34914   0.717   2.318   4.678  0.0079 -0.8517 -0.0138
11325SOL    HW134915   0.801   2.288   4.643  0.1886  0.3500 -0.6432
11325SOL    HW234916   0.665   2.342   4.601  0.1560  1.1487  0.4515
11326SOL     OW34917   2.037   3.019   0.688  0.3460  0.2640  0.7185
11326SOL    HW134918   1.964   2.969   0.724  0.4809 -1.2765 -1.0178
11326SOL    HW234919   2.110   3.002   0.748 -0.7403  2.1655  2.7176
11327SOL     OW34920   1.198   0.558   3.498  0.9325 -0.1568  0.5400
11327SOL    HW134921   1.225   0.642   3.462 -2.5187  0.5364 -0.7867
11327SOL    HW234922   1.166   0.578   3.586  2.0824 -0.5138  1.0634
11328SOL     OW34923   4.391   5.171   2.669 -0.4120  0.1088  0.0574
11328SOL    HW134924   4.395   5.200   2.760  1.3704 -1.0752  0.4189
11328SOL    HW234925   4.470   5.119   2.657 -0.3893  0.5673 -2.3158
11329SOL     OW34926   5.693   3.919   7.267 -0.7488  0.1413  0.0052
11329SOL    HW134927   5.613   3.971   7.264 -1.6184 -1.0279  1.4944
11329SOL    HW234928   5.711   3.898   7.176 -1.9585  0.7051 -0.3858
11330SOL     OW34929   3.972   1.161   1.827  0.5627 -0.6246  0.6522
11330SOL    HW134930   4.034   1.234   1.817 -0.5000  0.8352  3.7044
11330SOL    HW234931   3.897   1.187   1.773  0.3077  0.4507  1.4892
11331SOL     OW34932   3.497   3.123   1.968  0.4916 -0.4690 -0.4381
11331SOL    HW134933   3.436   3.130   1.894 -0.9285 -2.4094  0.4612
11331SOL    HW234934   3.544   3.206   1.968 -1.0152  0.4669 -2.1695
11332SOL     OW34935   4.862   3.795   5.295 -0.1869 -0.2068 -0.1058
11332SOL    HW134936   4.927   3.818   5.229  0.3675 -1.4485 -0.0116
11332SOL    HW234937   4.830   3.880   5.327 -0.0347  0.4127 -1.5239
11333SOL     OW34938   6.383   4.174   3.712  0.2202 -0.0591  0.0549
11333SOL    HW134939   6.435   4.208   3.785 -0.3826  1.8030 -0.3281
11333SOL    HW234940   6.299   4.151   3.752  0.5284 -0.8227  0.2662
11334SOL     OW34941   0.513   4.710   4.577  0.1930  0.2685  0.4432
11334SOL    HW134942   0.553   4.670   4.499 -0.6507  2.0292 -0.9549
11334SOL    HW234943   0.419   4.701   4.563 -0.0343 -1.6286  2.5398
11335SOL     OW34944   2.770   0.074   2.327 -0.0031  0.0130  0.0847
11335SOL    HW134945   2.821   0.151   2.302 -0.3851  0.0892 -0.4967
11335SOL    HW234946   2.716   0.104   2.401 -1.6734  0.9570 -1.4178
11336SOL     OW34947   5.776   4.368   3.823  0.5469  0.3208 -0.4252
11336SOL    HW134948   5.728   4.337   3.900  2.4239  0.3304  0.8258
11336SOL    HW234949   5.860   4.399   3.858  1.7336 -0.2689 -2.5558
11337SOL     OW34950   1.731   5.505   4.346  0.2355  0.0227 -0.4503
11337SOL    HW134951   1.695   5.419   4.367 -0.6818  0.2399 -1.1101
11337SOL    HW234952   1.766   5.496   4.258  2.0186 -0.2373  0.2399
11338SOL     OW34953   5.516   5.428   5.183  0.1340 -0.5306 -0.4300
11338SOL    HW134954   5.451   5.430   5.254 -1.0711 -0.1024 -1.5009
11338SOL    HW234955   5.572   5.353   5.203  1.6098  1.1598  2.4684
11339SOL     OW34956   2.469   0.849   5.298  0.1711 -0.2658 -0.3795
11339SOL    HW134957   2.558   0.834   5.267  0.8165  0.8019  0.9086
11339SOL    HW234958   2.476   0.850   5.393 -0.9249  1.4921 -0.2837
11340SOL     OW34959   1.543   0.404   6.381  0.7774 -0.2402  0.2916
11340SOL    HW134960   1.512   0.452   6.458 -0.1409 -2.0266  1.0943
11340SOL    HW234961   1.571   0.319   6.416  0.3738 -1.0751 -1.3376
11341SOL     OW34962   2.083   2.890   3.095  0.4681 -0.0499 -0.4428
11341SOL    HW134963   2.017   2.936   3.044  0.2719  0.0030 -0.1412
11341SOL    HW234964   2.033   2.832   3.152  0.7186 -0.8623 -1.0246
11342SOL     OW34965   2.061   4.403   5.857  0.0294  0.2609 -0.7233
11342SOL    HW134966   2.134   4.465   5.860  1.0978 -0.9462 -1.0055
11342SOL    HW234967   2.045   4.389   5.764  0.8501 -1.0713 -0.6774
11343SOL     OW34968   3.850   4.342   0.399 -0.1500  0.1377 -0.0707
11343SOL    HW134969   3.863   4.281   0.472  1.9380 -0.7732 -1.1365
11343SOL    HW234970   3.760   4.326   0.370  0.0217 -1.7213  0.3272
11344SOL     OW34971   3.917   7.183   1.255  0.4987 -0.1329 -0.6182
11344SOL    HW134972   3.973   7.111   1.285 -0.3465 -1.8831 -2.8513
11344SOL    HW234973   3.957   7.212   1.173 -0.9940 -0.4433 -1.5099
11345SOL     OW34974   1.739   7.034   0.888 -0.9708 -0.2402 -0.2717
11345SOL    HW134975   1.701   6.953   0.855  0.6273 -0.4668 -1.6443
11345SOL    HW234976   1.741   7.092   0.812 -0.6404  0.5555  0.3261
11346SOL     OW34977   0.645   4.322   5.065  0.5831  0.0779  0.0250
11346SOL    HW134978   0.647   4.301   5.158  0.2314 -1.4225 -0.2753
11346SOL    HW234979   0.644   4.417   5.062 -0.9683  0.1532  1.5965
11347SOL     OW34980   6.941   3.508   5.179 -0.0687 -0.9399  0.4640
11347SOL    HW134981   6.929   3.437   5.115 -1.1048 -0.9881  0.6927
11347SOL    HW234982   6.858   3.511   5.227 -0.6140  1.4308 -0.5366
11348SOL     OW34983   1.469   0.190   7.316 -0.5465 -0.0567 -0.2138
11348SOL    HW134984   1.513   0.226   7.393 -0.6844  0.1307 -0.2238
11348SOL    HW234985   1.520   0.223   7.242 -0.0398 -0.7355 -0.1848
11349SOL     OW34986   2.273   3.427   6.553  0.3972  0.2029  0.2537
11349SOL    HW134987   2.339   3.397   6.491  1.9012  2.2711  0.7645
11349SOL    HW234988   2.253   3.349   6.606  2.1961 -0.5645 -0.1095
11350SOL     OW34989   1.404   4.197   1.191  0.2930 -0.0705  0.6595
11350SOL    HW134990   1.370   4.236   1.111  0.6847 -0.4035  0.3294
11350SOL    HW234991   1.331   4.203   1.253 -0.2708 -0.5049  0.0544
11351SOL     OW34992   7.271   4.326   3.374 -0.0282 -0.0173 -0.5779
11351SOL    HW134993   7.232   4.247   3.413  0.7856 -1.0967 -1.8458
11351SOL    HW234994   7.296   4.380   3.449 -0.8687 -0.8307  0.3172
11352SOL     OW34995   5.980   1.273   1.622 -0.2525  0.3257 -0.6211
11352SOL    HW134996   6.067   1.300   1.592 -0.5643  2.2158  0.0243
11352SOL    HW234997   5.920   1.326   1.570 -0.8242  3.7801  3.0275
11353SOL     OW34998   4.962   4.606   6.693 -0.0427  1.0450  0.1472
11353SOL    HW134999   4.896   4.596   6.624 -1.0875 -1.4346  1.3856
11353SOL    HW235000   5.006   4.522   6.697  2.0603  2.1064  0.5490
11354SOL     OW35001   4.155   2.721   6.118 -0.0201  0.0702  0.1423
11354SOL    HW135002   4.078   2.732   6.063 -0.7649 -1.7635  0.7521
11354SOL    HW235003   4.146   2.789   6.185 -1.8903 -0.9558  1.0179
11355SOL     OW35004   3.797   1.524   2.192  0.1016  0.7259  0.1857
11355SOL    HW135005   3.814   1.594   2.255 -0.4299  2.2493 -1.2967
11355SOL    HW235006   3.845   1.449   2.227  0.8822  1.8696  1.7118
11356SOL     OW35007   4.989   4.657   1.349 -0.2480 -0.2884  0.3337
11356SOL    HW135008   4.944   4.576   1.373 -0.0838  0.0372  1.8887
11356SOL    HW235009   4.924   4.726   1.363  0.0708 -0.0144  0.4862
11357SOL     OW35010   2.198   6.105   0.415  0.4363 -0.5099  0.2687
11357SOL    HW135011   2.251   6.048   0.359 -1.1325 -0.0551 -1.8069
11357SOL    HW235012   2.149   6.160   0.354 -0.4447  0.9047  2.1509
11358SOL     OW35013   0.061   6.590   5.586 -0.3124 -0.2516 -0.8715
11358SOL    HW135014   0.144   6.633   5.609 -0.3691  0.3234 -1.6906
11358SOL    HW235015  -0.006   6.643   5.628 -0.2441 -1.2285  0.5457
11359SOL     OW35016   6.206   0.756   4.634  0.5745  0.2925 -0.1630
11359SOL    HW135017   6.135   0.783   4.576  1.5088 -1.2603 -2.1590
11359SOL    HW235018   6.188   0.799   4.717 -2.0817  0.8022 -0.9349
11360SOL     OW35019   7.373   1.809   6.739 -0.5229  0.4592  0.7596
11360SOL    HW135020   7.441   1.866   6.773  0.6493 -0.0364 -0.6551
11360SOL    HW235021   7.379   1.730   6.794  0.8419 -0.0345 -0.0465
11361SOL     OW35022   1.696   3.490   6.634 -0.0062 -0.2420  0.2309
11361SOL    HW135023   1.705   3.462   6.543 -1.0396  0.3853 -0.0799
11361SOL    HW235024   1.649   3.573   6.629  0.8354  0.3174  1.2842
11362SOL     OW35025   2.859   2.365   7.183 -0.1282  0.3877 -0.9048
11362SOL    HW135026   2.915   2.401   7.114 -1.2728 -0.1625 -2.1627
11362SOL    HW235027   2.811   2.295   7.140 -0.6911 -0.1358  0.5380
11363SOL     OW35028   4.152   4.165   1.893 -0.1429 -0.1651 -0.3254
11363SOL    HW135029   4.125   4.107   1.823  1.2531 -0.9142 -0.2746
11363SOL    HW235030   4.131   4.118   1.974  3.4089 -1.9480 -0.2439
11364SOL     OW35031   5.001   3.275   4.905 -0.6014 -0.1946 -0.3578
11364SOL    HW135032   5.079   3.277   4.960 -1.8481 -3.2282  1.7908
11364SOL    HW235033   4.936   3.327   4.954 -1.8076 -3.1511  1.4746
11365SOL     OW35034   2.068   1.426   2.923 -0.0796  0.5639  0.7000
11365SOL    HW135035   2.037   1.335   2.919 -0.1806  0.6456 -1.1867
11365SOL    HW235036   2.109   1.441   2.838  1.3497  1.8113  1.5729
11366SOL     OW35037   1.597   4.331   5.415  0.2837 -0.5979  0.7249
11366SOL    HW135038   1.608   4.325   5.510 -1.5263 -0.6355  0.9760
11366SOL    HW235039   1.643   4.255   5.380 -0.1233 -1.3012  1.6865
11367SOL     OW35040   4.189   7.424   3.050  0.2401 -0.1731 -1.0080
11367SOL    HW135041   4.100   7.460   3.050 -0.4058 -1.6473 -2.5775
11367SOL    HW235042   4.246   7.501   3.044 -0.9418  0.7469 -0.8169
11368SOL     OW35043   5.501   1.179   1.585 -0.0376 -0.3356  0.5005
11368SOL    HW135044   5.409   1.155   1.578  0.1730 -0.8396 -1.0507
11368SOL    HW235045   5.549   1.099   1.563  0.7361  0.3040 -0.2299
11369SOL     OW35046   5.187   4.752   0.044  0.6480  0.1506 -0.1480
11369SOL    HW135047   5.102   4.719   0.074  0.5341 -0.5391 -1.1613
11369SOL    HW235048   5.188   4.732  -0.050  2.0124 -0.0414 -0.1094
11370SOL     OW35049   1.258   3.541   5.403  0.6712 -0.3638 -0.3710
11370SOL    HW135050   1.220   3.525   5.489  0.1701 -0.6929 -0.6509
11370SOL    HW235051   1.226   3.470   5.348 -0.2327  0.6483 -1.2058
11371SOL     OW35052   5.379   5.091   0.383 -0.1443 -0.0701  0.0539
11371SOL    HW135053   5.340   5.178   0.374  2.6173  1.1740 -1.4684
11371SOL    HW235054   5.356   5.046   0.301  1.1598  0.5324 -0.6814
11372SOL     OW35055   5.329   0.969   3.350 -0.2383  0.0993 -0.1435
11372SOL    HW135056   5.338   1.044   3.410 -1.1394 -1.7372  2.4495
11372SOL    HW235057   5.261   0.996   3.289 -0.8722  1.2720  1.0172
11373SOL     OW35058   4.948   0.605   6.532 -0.0716 -0.2297  0.2289
11373SOL    HW135059   4.887   0.564   6.471 -0.9211 -0.7769  1.4063
11373SOL    HW235060   4.968   0.690   6.492  2.0538 -1.8370 -2.4774
11374SOL     OW35061   4.473   2.370   4.827 -0.1970 -0.8028  0.1957
11374SOL    HW135062   4.512   2.284   4.814  0.1026 -0.7536  0.7399
11374SOL    HW235063   4.434   2.392   4.742 -0.4145 -1.5364  0.1021
11375SOL     OW35064   3.262   7.100   1.406 -0.2772 -0.2503 -0.0219
11375SOL    HW135065   3.231   7.069   1.321 -2.4191 -0.5964  0.8044
11375SOL    HW235066   3.218   7.184   1.419  1.8503  0.9726 -0.2073
11376SOL     OW35067   5.088   3.465   2.505 -0.4069 -0.1338 -1.0114
11376SOL    HW135068   5.132   3.549   2.492 -0.8612  0.4889  1.0399
11376SOL    HW235069   5.147   3.400   2.467  0.6609  0.9827 -1.3100
11377SOL     OW35070   1.162   5.776   5.637 -0.7898  0.1106  0.0419
11377SOL    HW135071   1.192   5.722   5.564 -2.2821  0.1836 -0.6542
11377SOL    HW235072   1.201   5.734   5.714  0.2820 -0.3474 -0.7177
11378SOL     OW35073   2.705   3.489   3.759 -0.4357  0.4275  0.0539
11378SOL    HW135074   2.729   3.436   3.683  0.5898  1.2405 -0.2175
11378SOL    HW235075   2.610   3.479   3.767 -0.4652 -0.1949 -0.9332
11379SOL     OW35076   3.457   1.995   3.308 -0.2736  0.0287  0.4930
11379SOL    HW135077   3.388   2.058   3.329  0.9709  1.8930 -0.7701
11379SOL    HW235078   3.525   2.011   3.373  0.7869  1.2777 -0.8502
11380SOL     OW35079   5.827   6.089   6.776 -0.2766 -0.5079 -0.3909
11380SOL    HW135080   5.902   6.134   6.815  0.4615 -1.0410 -1.1686
11380SOL    HW235081   5.793   6.035   6.847  0.4353 -0.6972 -0.1802
11381SOL     OW35082   6.302   1.305   5.249 -0.1110  0.3918 -0.3395
11381SOL    HW135083   6.261   1.384   5.285  1.2149  1.0986 -0.3147
11381SOL    HW235084   6.395   1.328   5.240  0.7623 -1.8736  1.7279
11382SOL     OW35085   6.587   4.349   0.943  0.4169 -0.4976  0.3446
11382SOL    HW135086   6.554   4.369   0.855 -1.9445  1.4161  1.5239
11382SOL    HW235087   6.642   4.424   0.965  2.0996 -1.6101  0.0522
11383SOL     OW35088   5.447   0.685   4.008 -0.8107 -0.3422  0.4331
11383SOL    HW135089   5.513   0.623   4.039 -1.3121 -1.0805  0.0546
11383SOL    HW235090   5.466   0.766   4.055  0.9899 -0.2280 -0.4065
11384SOL     OW35091   3.474   6.072   7.282 -0.2001  0.0542 -0.3453
11384SOL    HW135092   3.413   6.013   7.325 -1.4348  1.4721 -0.0832
11384SOL    HW235093   3.511   6.125   7.352 -0.2142  0.5908 -0.7347
11385SOL     OW35094   7.382   2.533   0.921 -0.2179 -0.3501 -0.7111
11385SOL    HW135095   7.338   2.561   1.001 -0.4717 -2.1098 -0.1937
11385SOL    HW235096   7.328   2.568   0.850 -2.0121 -1.7425 -0.0927
11386SOL     OW35097   2.923   5.313   6.161 -0.1407  0.0147 -0.3539
11386SOL    HW135098   2.957   5.402   6.168  0.0833 -0.0577 -0.4885
11386SOL    HW235099   2.999   5.257   6.180 -0.0787 -0.1589 -1.0810
11387SOL     OW35100   1.603   4.535   4.234  0.6258 -0.3477  0.1922
11387SOL    HW135101   1.644   4.499   4.155  0.1541 -1.6082  0.4957
11387SOL    HW235102   1.640   4.485   4.306 -0.8300 -0.9677  0.5361
11388SOL     OW35103   0.019   1.572   0.657 -0.6542 -0.4734  0.3621
11388SOL    HW135104  -0.011   1.658   0.628 -1.3567 -0.8015  0.1085
11388SOL    HW235105   0.110   1.567   0.627 -1.0600 -0.4057 -0.9246
11389SOL     OW35106   6.221   3.387   4.318  0.0641 -0.4779  0.6082
11389SOL    HW135107   6.241   3.401   4.411 -1.0488 -0.7323  0.9034
11389SOL    HW235108   6.170   3.306   4.317 -0.7328  0.0163 -0.1201
11390SOL     OW35109   4.178   3.510   5.486  0.8694  0.4186  0.6795
11390SOL    HW135110   4.162   3.582   5.547  0.3791  0.8483  0.0617
11390SOL    HW235111   4.210   3.553   5.407  0.5163 -0.0382  0.2841
11391SOL     OW35112   0.672   7.280   3.369  0.3736 -0.2509 -0.0825
11391SOL    HW135113   0.695   7.193   3.335 -1.6901 -1.3044  1.0090
11391SOL    HW235114   0.644   7.329   3.291 -0.5784 -1.3306 -0.4592
11392SOL     OW35115   5.634   2.137   3.326  0.3416  0.5235  0.2968
11392SOL    HW135116   5.729   2.139   3.319  0.3432  1.1767  0.4203
11392SOL    HW235117   5.613   2.212   3.381 -0.4248  2.1178 -2.0087
11393SOL     OW35118   4.333   1.919   4.105  0.3019 -0.4466  0.3212
11393SOL    HW135119   4.341   2.012   4.129 -1.6727 -0.1549  0.0240
11393SOL    HW235120   4.316   1.874   4.188  2.1795 -0.7207  0.6028
11394SOL     OW35121   0.506   2.626   4.030 -0.1278  0.5684 -0.4451
11394SOL    HW135122   0.430   2.648   4.083 -0.5343  1.5904 -1.4085
11394SOL    HW235123   0.555   2.562   4.082 -0.4914  1.5668  1.1692
11395SOL     OW35124   2.851   3.558   6.719  0.0351  0.0268  0.0586
11395SOL    HW135125   2.792   3.632   6.735 -0.1873 -0.2618  0.6236
11395SOL    HW235126   2.870   3.523   6.807  0.6774 -0.1693 -0.1536
11396SOL     OW35127   5.749   0.616   2.745 -0.3946 -0.1961 -0.2049
11396SOL    HW135128   5.756   0.522   2.763  1.5366 -0.5656 -2.3869
11396SOL    HW235129   5.803   0.657   2.812 -1.0289 -0.6256  0.5979
11397SOL     OW35130   0.514   3.433   2.262 -0.1691 -0.3656  0.1527
11397SOL    HW135131   0.569   3.360   2.233 -1.2830 -1.4009  0.5535
11397SOL    HW235132   0.553   3.510   2.221  1.5268 -1.0595  0.3686
11398SOL     OW35133   1.074   4.922   2.767  0.1528 -0.1850  0.2113
11398SOL    HW135134   1.059   4.895   2.677 -2.2430  0.0084  0.4765
11398SOL    HW235135   1.038   5.011   2.772 -0.3705 -0.4442  1.5002
11399SOL     OW35136   7.211   4.927   0.773  0.3718  0.1863 -0.1401
11399SOL    HW135137   7.138   4.907   0.830  0.9193 -3.8405 -0.5449
11399SOL    HW235138   7.287   4.931   0.831  0.0292  5.9008  0.5265
11400SOL     OW35139   3.692   3.325   5.133 -0.1382 -0.4169  0.2808
11400SOL    HW135140   3.699   3.261   5.203  0.8402 -2.0491 -1.2083
11400SOL    HW235141   3.670   3.274   5.055 -1.0317  1.2890 -0.6529
11401SOL     OW35142   2.650   5.116   0.493  0.1862  0.0711  0.2782
11401SOL    HW135143   2.689   5.045   0.442  0.9651  0.0865  0.8229
11401SOL    HW235144   2.711   5.190   0.480  0.0489  0.2609  0.7105
11402SOL     OW35145   6.524   3.181   6.607  0.0809  0.5081  0.1980
11402SOL    HW135146   6.508   3.176   6.702  1.0781  0.4613  0.3810
11402SOL    HW235147   6.535   3.090   6.580  1.6570  0.6002  0.4097
11403SOL     OW35148   7.106   2.813   2.105 -0.2896 -0.0024 -0.6547
11403SOL    HW135149   7.128   2.764   2.026  0.2669 -0.0358 -0.4838
11403SOL    HW235150   7.190   2.849   2.134 -0.8954  2.3670 -1.6418
11404SOL     OW35151   4.427   3.408   6.033  0.1638  0.0117 -0.0882
11404SOL    HW135152   4.464   3.337   5.982 -0.4235 -0.0225 -0.4785
11404SOL    HW235153   4.335   3.383   6.045 -0.0048  0.6222 -0.0836
11405SOL     OW35154   2.574   2.822   1.458  0.2402 -0.1181 -0.1833
11405SOL    HW135155   2.626   2.804   1.380  0.8269 -1.0826  0.4087
11405SOL    HW235156   2.603   2.757   1.522 -0.5293  0.3825  0.7042
11406SOL     OW35157   4.238   0.307   6.995 -0.3096 -0.1946 -0.0419
11406SOL    HW135158   4.256   0.309   6.901  2.4313  1.1288  0.4025
11406SOL    HW235159   4.220   0.215   7.014  1.5753 -0.9292 -1.5092
11407SOL     OW35160   6.310   4.935   2.796  0.8140 -0.3515 -0.8184
11407SOL    HW135161   6.241   5.001   2.805  0.7011 -0.3393 -1.6677
11407SOL    HW235162   6.333   4.912   2.886  0.0194 -0.0263 -0.5227
11408SOL     OW35163   5.800   5.828   0.594  0.3441 -0.8239 -0.8424
11408SOL    HW135164   5.764   5.902   0.545  0.3773 -1.4567 -1.8506
11408SOL    HW235165   5.846   5.868   0.668 -3.1619  0.0366  1.1052
11409SOL     OW35166   6.176   6.905   4.388  0.0255 -0.0560 -0.5566
11409SOL    HW135167   6.269   6.889   4.371 -0.2904 -1.2401 -1.2958
11409SOL    HW235168   6.156   6.986   4.342  0.5476 -0.1372 -0.9329
11410SOL     OW35169   0.016   5.922   1.235 -0.2965 -0.0523 -0.3337
11410SOL    HW135170  -0.008   5.981   1.163 -1.4782  0.1126  0.1684
11410SOL    HW235171   0.111   5.925   1.238 -0.2963  3.4856  1.0214
11411SOL     OW35172   0.889   5.871   2.636  0.3399 -0.4901 -0.5944
11411SOL    HW135173   0.881   5.817   2.557  0.1799 -0.4095 -0.6343
11411SOL    HW235174   0.804   5.862   2.680  0.2550 -0.1420 -0.6839
11412SOL     OW35175   0.557   5.926   0.752 -0.0808 -0.3301 -0.6159
11412SOL    HW135176   0.477   5.956   0.796 -0.0364 -0.4461 -0.4585
11412SOL    HW235177   0.603   6.007   0.730 -0.8843 -0.1796 -1.9304
11413SOL     OW35178   1.681   0.699   3.793  0.1908 -0.0479  0.2518
11413SOL    HW135179   1.711   0.748   3.870  0.5148 -1.5377  1.1260
11413SOL    HW235180   1.687   0.607   3.820 -1.5699 -0.5505 -0.8791
11414SOL     OW35181   7.406   2.847   3.777 -0.5326 -0.2870 -0.2385
11414SOL    HW135182   7.458   2.766   3.778  1.5566  0.9603  2.0345
11414SOL    HW235183   7.430   2.889   3.694 -0.2947 -1.1725 -0.6363
11415SOL     OW35184   4.957   7.293   7.363 -0.1184 -0.0613  0.1876
11415SOL    HW135185   5.019   7.251   7.423  0.9943  1.1325 -0.1024
11415SOL    HW235186   4.928   7.222   7.306  0.4317 -0.7887  0.7893
11416SOL     OW35187   1.728   2.866   4.116 -0.0837  0.2134  0.1920
11416SOL    HW135188   1.684   2.848   4.033 -0.1430 -0.5579  0.3871
11416SOL    HW235189   1.661   2.855   4.183  0.1214  0.2056  0.3980
11417SOL     OW35190   3.925   6.248   0.909 -0.3874 -0.2387 -0.0414
11417SOL    HW135191   3.911   6.332   0.865  2.1680 -0.1114 -0.7926
11417SOL    HW235192   3.943   6.187   0.837 -1.9848 -1.4187  0.5105
11418SOL     OW35193   1.703   3.846   2.039  0.3089 -0.3807  0.3859
11418SOL    HW135194   1.648   3.770   2.056 -1.3174 -0.1773 -2.9717
11418SOL    HW235195   1.641   3.919   2.033  1.4934  0.6852  0.7655
11419SOL     OW35196   0.887   4.510   0.675 -0.0792  0.1713  0.2590
11419SOL    HW135197   0.953   4.470   0.731  2.1080  2.6610 -0.3642
11419SOL    HW235198   0.873   4.446   0.605 -0.2710 -1.4683  1.7098
11420SOL     OW35199   3.776   3.156   2.717 -0.4785  0.0978  0.2189
11420SOL    HW135200   3.844   3.154   2.649 -0.4169  1.3092  0.2132
11420SOL    HW235201   3.772   3.066   2.750 -1.4316 -0.8487 -2.2624
11421SOL     OW35202   0.942   4.719   6.535 -0.2253 -0.2911  0.6323
11421SOL    HW135203   0.954   4.692   6.444 -0.8491 -1.9982  1.0299
11421SOL    HW235204   0.848   4.736   6.543  0.2503  3.4627  0.0701
11422SOL     OW35205   2.765   5.054   3.299 -0.9275 -0.3319 -0.2023
11422SOL    HW135206   2.722   5.031   3.217 -0.1580 -1.3996 -0.3201
11422SOL    HW235207   2.833   5.117   3.273  1.0987 -2.6184 -0.8545
11423SOL     OW35208   1.538   4.056   2.018 -0.1461 -0.0946 -0.1741
11423SOL    HW135209   1.466   4.081   1.961  0.5361 -0.1974 -1.1064
11423SOL    HW235210   1.510   4.084   2.106 -0.2550  2.1596 -0.8595
11424SOL     OW35211   6.025   6.973   1.252 -0.7146 -0.4826  0.2701
11424SOL    HW135212   5.975   6.926   1.319 -2.3760 -0.0798 -0.6282
11424SOL    HW235213   5.963   7.038   1.217  0.7877  0.7841 -0.1557
11425SOL     OW35214   7.357   6.905   2.879  0.5786 -0.1273 -0.5436
11425SOL    HW135215   7.389   6.995   2.892  0.5052 -0.1295 -0.3473
11425SOL    HW235216   7.338   6.900   2.785  1.0230 -0.0804 -0.6408
11426SOL     OW35217   0.427   4.184   3.329  0.4978 -0.2889  0.0305
11426SOL    HW135218   0.391   4.227   3.406  2.9615  0.3547  0.9184
11426SOL    HW235219   0.519   4.212   3.327  0.8389 -1.3453 -2.3974
11427SOL     OW35220   6.795   4.326   4.574 -0.1922  0.3687 -0.2264
11427SOL    HW135221   6.809   4.238   4.538  1.8232 -0.0739  1.3955
11427SOL    HW235222   6.711   4.320   4.619 -0.2942 -0.5937 -0.5046
11428SOL     OW35223   0.229   1.052   3.831 -0.8926 -0.7318 -0.4248
11428SOL    HW135224   0.137   1.037   3.856 -0.6530 -1.1115  0.2808
11428SOL    HW235225   0.243   1.145   3.846 -1.6074 -0.3138 -2.1057
11429SOL     OW35226   3.720   0.953   5.105  0.0385  0.6448  0.1970
11429SOL    HW135227   3.700   1.038   5.144 -0.1959  0.2868  0.8803
11429SOL    HW235228   3.770   0.907   5.173 -1.6652 -0.5462  0.7143
11430SOL     OW35229   5.235   0.967   5.290  1.0151  0.0293  0.6202
11430SOL    HW135230   5.328   0.966   5.314  1.0063 -0.5429  0.6314
11430SOL    HW235231   5.236   0.971   5.194  1.0434  0.8925  0.6406
11431SOL     OW35232   5.171   5.812   2.470 -0.3856 -0.3191 -0.3205
11431SOL    HW135233   5.185   5.721   2.499 -1.7689 -1.0227 -1.7508
11431SOL    HW235234   5.162   5.861   2.551  0.6969 -1.3954  0.4947
11432SOL     OW35235   4.610   3.088   6.024 -0.2266 -0.4703 -0.0060
11432SOL    HW135236   4.543   3.042   5.973 -0.6361 -0.3935  0.4550
11432SOL    HW235237   4.684   3.097   5.964 -0.4154 -1.0716 -0.3364
11433SOL     OW35238   6.564   2.637   3.265 -0.2285  0.6920 -0.0930
11433SOL    HW135239   6.529   2.594   3.188  1.2877 -2.1871  0.6945
11433SOL    HW235240   6.517   2.598   3.339  0.3629  1.2657  0.6031
11434SOL     OW35241   6.961   5.566   7.361  0.3115 -0.0264  0.2018
11434SOL    HW135242   6.944   5.647   7.409 -0.4753 -0.2621  0.3325
11434SOL    HW235243   6.876   5.524   7.354  0.5079 -0.2792 -0.9082
11435SOL     OW35244   1.970   6.499   4.329 -0.0564 -0.0593 -0.2721
11435SOL    HW135245   1.988   6.574   4.273 -1.1041 -0.4043 -1.1091
11435SOL    HW235246   2.029   6.509   4.404 -0.9332  2.1737  0.1855
11436SOL     OW35247   2.909   5.909   0.550 -0.4913 -0.5648  0.4099
11436SOL    HW135248   2.866   5.984   0.511  0.0916  0.7278  2.1329
11436SOL    HW235249   2.892   5.918   0.644 -0.4036 -2.5971  0.6751
11437SOL     OW35250   7.065   0.877   2.936  0.1576  0.0668  0.1904
11437SOL    HW135251   7.051   0.972   2.937  1.4580  0.3253 -1.3011
11437SOL    HW235252   7.074   0.853   3.028  1.1984  1.6453  0.5421
11438SOL     OW35253   0.724   4.197   4.598  0.2104  0.3699  0.1712
11438SOL    HW135254   0.801   4.154   4.562  0.3838 -1.2194  2.2004
11438SOL    HW235255   0.759   4.263   4.658  0.1576 -1.5457  2.4708
11439SOL     OW35256   5.147   4.435   4.480 -0.5609 -0.0155  0.1595
11439SOL    HW135257   5.204   4.512   4.480  0.8236 -0.9770  1.4870
11439SOL    HW235258   5.064   4.467   4.513 -0.4160  1.1578 -0.5453
11440SOL     OW35259   4.774   2.939   3.603 -0.0580 -0.0395  0.2386
11440SOL    HW135260   4.742   3.029   3.595  1.5324  0.5406 -0.0336
11440SOL    HW235261   4.729   2.892   3.533  1.1906  1.2264 -1.5017
11441SOL     OW35262   5.837   1.274   7.308  0.1623 -0.4231 -0.3564
11441SOL    HW135263   5.761   1.217   7.297  0.0637 -0.1219 -1.3534
11441SOL    HW235264   5.835   1.300   7.400 -0.3373 -1.2465 -0.1243
11442SOL     OW35265   3.440   1.846   5.406  0.1940  0.0979  0.3171
11442SOL    HW135266   3.403   1.801   5.330 -1.7184 -0.7145  1.6575
11442SOL    HW235267   3.514   1.792   5.433 -0.7540 -1.0898  0.6090
11443SOL     OW35268   3.311   2.709   6.074 -0.2629 -0.5485 -0.1993
11443SOL    HW135269   3.229   2.733   6.030  0.5160  0.2745 -1.2622
11443SOL    HW235270   3.364   2.789   6.070 -0.3920 -0.2039  2.8698
11444SOL     OW35271   5.190   2.329   4.831 -0.2659 -0.0361 -0.0077
11444SOL    HW135272   5.215   2.262   4.895  1.6258 -0.4931 -1.1496
11444SOL    HW235273   5.270   2.347   4.783 -0.9424  2.4314 -0.3499
11445SOL     OW35274   2.941   3.615   1.901  0.2799  0.2307  0.3988
11445SOL    HW135275   3.019   3.620   1.845  0.5880  0.8105  0.8745
11445SOL    HW235276   2.872   3.655   1.848  0.5158  0.5606  0.3363
11446SOL     OW35277   5.365   0.610   3.767 -0.1475  0.0759  0.0796
11446SOL    HW135278   5.389   0.652   3.849 -1.1772  0.2620  0.3007
11446SOL    HW235279   5.283   0.565   3.786 -0.5859  0.4038 -0.9390
11447SOL     OW35280   6.576   2.489   7.310 -0.0736  0.0209  0.3573
11447SOL    HW135281   6.482   2.477   7.299 -0.1066  1.9812 -3.0629
11447SOL    HW235282   6.584   2.552   7.382 -1.4803  0.6380  0.0135
11448SOL     OW35283   1.092   1.176   5.106 -0.2753  0.2373 -0.2099
11448SOL    HW135284   1.163   1.239   5.120 -1.2817  0.9236  2.4441
11448SOL    HW235285   1.126   1.093   5.140  0.2206 -0.1537 -1.5843
11449SOL     OW35286   6.989   4.039   3.071 -0.3276  0.3257  0.6534
11449SOL    HW135287   7.060   3.986   3.108  1.0599  1.4888 -0.2511
11449SOL    HW235288   7.000   4.032   2.977  1.6744  4.2822  0.3645
11450SOL     OW35289   0.555   4.036   4.979 -0.6626  0.2787 -0.2996
11450SOL    HW135290   0.476   3.987   4.958  0.3349 -1.2169 -0.7130
11450SOL    HW235291   0.531   4.089   5.056 -2.2855  0.5174 -0.9395
11451SOL     OW35292   2.010   6.545   3.783 -0.9166  0.1914  0.2714
11451SOL    HW135293   2.021   6.623   3.728  0.1247  0.3586  0.6965
11451SOL    HW235294   2.013   6.472   3.722  1.3222  0.3014  0.1580
11452SOL     OW35295   3.504   3.393   1.965 -0.4024 -0.2005  0.0795
11452SOL    HW135296   3.422   3.433   1.995  0.7543  1.4949  1.1418
11452SOL    HW235297   3.552   3.464   1.922  0.5373 -1.1475 -0.4982
11453SOL     OW35298   3.872   3.680   6.546  0.2292  0.1208 -0.3207
11453SOL    HW135299   3.803   3.679   6.613  0.1206  0.3191 -0.4288
11453SOL    HW235300   3.952   3.700   6.593  0.5628 -2.0340  0.1359
11454SOL     OW35301   0.586   1.539   0.303  0.7715 -0.1834 -0.2731
11454SOL    HW135302   0.628   1.618   0.267  1.6197  0.0150  1.0924
11454SOL    HW235303   0.497   1.542   0.269  1.1293  0.7416 -1.1917
11455SOL     OW35304   1.083   4.971   7.141  0.5452 -0.2280  0.1339
11455SOL    HW135305   1.075   5.012   7.228 -0.8977 -1.6775  0.7301
11455SOL    HW235306   0.993   4.950   7.116  0.9957 -0.3252 -1.4919
11456SOL     OW35307   1.415   7.382   4.447 -0.1382  0.2904  0.6772
11456SOL    HW135308   1.352   7.315   4.422 -0.7862  0.9487  0.5072
11456SOL    HW235309   1.486   7.334   4.491  0.4510 -0.7541 -1.2965
11457SOL     OW35310   4.131   5.407   1.540 -0.2325  0.3511  0.2645
11457SOL    HW135311   4.099   5.410   1.450 -1.1454  1.3623  0.6024
11457SOL    HW235312   4.098   5.325   1.575 -2.9486  1.5224  0.7237
11458SOL     OW35313   0.932   6.053   3.691  0.0479  0.5368  0.0444
11458SOL    HW135314   0.917   5.965   3.657  1.3445  0.5670 -0.6677
11458SOL    HW235315   0.987   6.095   3.625  1.4317  1.0840  1.4804
11459SOL     OW35316   4.515   6.779   5.232 -0.2041  0.1153 -0.1379
11459SOL    HW135317   4.520   6.694   5.274  0.4431 -0.0757 -0.5796
11459SOL    HW235318   4.578   6.833   5.279 -0.0743  0.1341 -0.3305
11460SOL     OW35319   4.595   2.139   2.228 -0.1714 -0.6765 -0.4196
11460SOL    HW135320   4.618   2.098   2.145 -0.9108  0.1922 -1.0742
11460SOL    HW235321   4.532   2.208   2.205  0.4713  0.3427  0.7132
11461SOL     OW35322   6.545   3.100   3.706 -0.4182 -0.1539  0.1763
11461SOL    HW135323   6.584   3.092   3.619 -0.7385 -2.7342  0.1899
11461SOL    HW235324   6.607   3.056   3.765 -0.6668  0.6961  1.1066
11462SOL     OW35325   4.255   0.234   7.425  0.1327  0.2175  0.3436
11462SOL    HW135326   4.202   0.237   7.504 -1.6147 -0.4698 -0.7421
11462SOL    HW235327   4.265   0.141   7.406  0.4981  0.3715 -0.2672
11463SOL     OW35328   6.748   6.810   2.390 -0.5180  0.2601  0.1961
11463SOL    HW135329   6.699   6.754   2.330  2.0228 -0.5327 -1.3158
11463SOL    HW235330   6.760   6.892   2.342 -1.4278  0.9183  1.0702
11464SOL     OW35331   7.282   5.120   3.911  0.1301  0.0355  0.0000
11464SOL    HW135332   7.244   5.155   3.992  1.5778 -0.9579  1.1764
11464SOL    HW235333   7.307   5.031   3.934  0.8500 -0.1559 -1.4619
11465SOL     OW35334   1.736   0.128   2.905 -1.1365 -0.7361  0.3086
11465SOL    HW135335   1.802   0.059   2.901 -0.0919  0.0066  2.8362
11465SOL    HW235336   1.685   0.117   2.825  2.6938 -0.6849 -2.3965
11466SOL     OW35337   6.349   6.450   0.675 -0.3270  0.2220 -0.3677
11466SOL    HW135338   6.435   6.462   0.717  0.1930 -0.7870 -1.0965
11466SOL    HW235339   6.318   6.365   0.707 -0.3204 -0.1557 -1.3248
11467SOL     OW35340   4.528   5.748   1.341  0.2848  0.3812  0.4003
11467SOL    HW135341   4.466   5.687   1.382  0.7358  1.1265  2.2582
11467SOL    HW235342   4.563   5.800   1.413  2.8238  0.2502 -0.6526
11468SOL     OW35343   0.044   5.916   6.929  0.4287  0.1892  0.4655
11468SOL    HW135344   0.133   5.918   6.894 -0.2871  3.5034 -1.6360
11468SOL    HW235345   0.044   5.981   6.999 -0.5799  1.2461 -0.4642
11469SOL     OW35346   3.422   4.594   5.011  0.2071  0.0386  0.1659
11469SOL    HW135347   3.433   4.688   4.999 -2.6673  0.6373  1.3308
11469SOL    HW235348   3.381   4.585   5.097  1.0582 -2.3723  0.4046
11470SOL     OW35349   2.072   2.670   2.479 -0.2283  0.1611 -0.1405
11470SOL    HW135350   2.074   2.698   2.387  0.3098  0.8689  0.0699
11470SOL    HW235351   2.162   2.684   2.509 -0.3397 -0.3191  0.4215
11471SOL     OW35352   1.308   1.809   2.168  0.5748 -0.1750 -1.5993
11471SOL    HW135353   1.282   1.889   2.214 -0.6204  0.9780 -4.0779
11471SOL    HW235354   1.384   1.777   2.217  2.4043  3.5919 -1.5890
11472SOL     OW35355   4.797   1.440   7.183  0.5187 -0.0618  0.3767
11472SOL    HW135356   4.885   1.446   7.146  0.7976 -1.1633  0.8344
11472SOL    HW235357   4.779   1.346   7.188 -2.2707  0.0205 -3.3789
11473SOL     OW35358   0.207   1.364   3.589 -0.0577 -0.3628 -0.2738
11473SOL    HW135359   0.124   1.347   3.633  0.7767 -1.3072  1.0101
11473SOL    HW235360   0.205   1.310   3.510 -0.7212 -0.2494 -0.3371
11474SOL     OW35361   5.410   6.333   5.098  0.2492 -0.2377  0.0621
11474SOL    HW135362   5.328   6.294   5.127 -0.9541  2.3543  0.4606
11474SOL    HW235363   5.442   6.274   5.030 -2.8108 -0.5671 -1.2689
11475SOL     OW35364   1.032   0.724   0.192  0.4529 -0.2397 -0.4512
11475SOL    HW135365   1.087   0.802   0.192  0.7159 -0.3940 -2.0638
11475SOL    HW235366   0.942   0.757   0.194  0.5699  0.0451  0.6333
11476SOL     OW35367   5.602   0.302   4.359  0.2632 -0.2355 -0.0933
11476SOL    HW135368   5.639   0.215   4.343  2.5065  0.5708  0.4489
11476SOL    HW235369   5.510   0.293   4.335 -0.1548 -3.3909  2.0343
11477SOL     OW35370   4.573   2.121   6.399  0.5140  0.1436  0.1417
11477SOL    HW135371   4.519   2.200   6.396  1.9266  1.1837 -3.8686
11477SOL    HW235372   4.511   2.050   6.417 -1.6661  1.6255 -1.1000
11478SOL     OW35373   6.484   5.162   3.301  0.0373  0.3088 -0.0300
11478SOL    HW135374   6.578   5.176   3.312  0.2267 -0.4350 -0.6379
11478SOL    HW235375   6.452   5.246   3.269  0.5941  0.3943 -0.3783
11479SOL     OW35376   1.695   4.528   5.877  0.3364  0.4358 -0.4170
11479SOL    HW135377   1.737   4.566   5.799  3.1259 -1.1194  0.2118
11479SOL    HW235378   1.757   4.544   5.948 -1.3528  0.2566  1.1809
11480SOL     OW35379   3.062   3.153   1.306 -0.5501 -0.9222 -0.3335
11480SOL    HW135380   3.035   3.134   1.396  0.3889 -1.4426 -0.1464
11480SOL    HW235381   3.147   3.110   1.297  0.7515  1.5256 -0.5299
11481SOL     OW35382   0.530   4.958   1.730  0.0000 -0.7201 -0.1170
11481SOL    HW135383   0.519   5.043   1.686  0.0927  0.1494  1.4490
11481SOL    HW235384   0.442   4.923   1.738 -0.0481 -0.7379 -0.6968
11482SOL     OW35385   6.032   0.851   0.728 -0.6021  0.1776  0.1942
11482SOL    HW135386   5.998   0.923   0.674 -1.5572 -0.3147  0.1209
11482SOL    HW235387   6.025   0.774   0.673  0.2422 -0.0147  0.3446
11483SOL     OW35388   4.058   3.010   1.068  0.4257  0.3945 -0.2793
11483SOL    HW135389   4.061   2.926   1.112  0.2544  1.4643  1.9237
11483SOL    HW235390   3.965   3.027   1.053  0.4039  0.5510  0.0283
11484SOL     OW35391   6.936   3.446   2.793 -0.1990  0.1738 -0.3588
11484SOL    HW135392   6.996   3.432   2.720 -0.9912 -1.2872 -0.7831
11484SOL    HW235393   6.959   3.378   2.856 -0.9904 -0.0269 -0.2701
11485SOL     OW35394   4.396   2.971   5.859 -0.1917 -0.3499 -0.1058
11485SOL    HW135395   4.360   2.886   5.886 -0.3642 -0.5938 -1.0490
11485SOL    HW235396   4.453   2.950   5.785 -1.5084  0.5193 -1.4238
11486SOL     OW35397   3.769   7.273   5.872  0.5525  0.0460  0.5083
11486SOL    HW135398   3.715   7.220   5.931  0.9856 -0.6773  0.2613
11486SOL    HW235399   3.855   7.231   5.873  0.1623 -0.9850 -1.8710
11487SOL     OW35400   5.486   6.222   4.146 -0.1995 -0.0226  0.3862
11487SOL    HW135401   5.435   6.151   4.106 -0.6480 -0.7420  2.1259
11487SOL    HW235402   5.577   6.197   4.131 -0.3518 -0.2069 -0.2681
11488SOL     OW35403   1.101   1.200   0.222  0.0862  0.4540  0.0634
11488SOL    HW135404   1.146   1.275   0.184  1.0072 -0.4287 -0.6407
11488SOL    HW235405   1.120   1.205   0.316  0.3625  0.9386 -0.0174
11489SOL     OW35406   2.192   5.642   5.942 -0.4446 -0.5017 -0.3315
11489SOL    HW135407   2.173   5.554   5.909 -0.2468 -0.8988  0.5958
11489SOL    HW235408   2.156   5.643   6.030  0.4994 -0.0118  0.0607
11490SOL     OW35409   3.963   5.633   6.711 -0.5290 -0.3430  0.4308
11490SOL    HW135410   3.931   5.573   6.643 -0.5587  1.8271 -1.6145
11490SOL    HW235411   4.058   5.625   6.707 -0.4272  0.9335 -1.1439
11491SOL     OW35412   6.686   1.016   0.419 -0.4479  0.0825 -0.6137
11491SOL    HW135413   6.697   0.961   0.341  1.1843  1.1939 -1.2354
11491SOL    HW235414   6.649   1.098   0.385 -2.6054 -0.4688  0.2592
11492SOL     OW35415   4.968   6.265   7.193 -0.7214  0.1542  0.1772
11492SOL    HW135416   5.059   6.292   7.180 -1.0487  0.6649 -1.1717
11492SOL    HW235417   4.916   6.329   7.143 -1.7027 -1.2146 -0.6221
11493SOL     OW35418   4.748   3.165   4.770 -0.2217 -0.0874 -0.4835
11493SOL    HW135419   4.677   3.157   4.833  0.4558 -0.7350  0.2203
11493SOL    HW235420   4.789   3.249   4.792  0.1935 -0.4465  0.1460
11494SOL     OW35421   3.950   2.783   4.536  0.3713  0.5703  0.6366
11494SOL    HW135422   3.864   2.811   4.504  0.4411 -1.4697 -1.5785
11494SOL    HW235423   4.010   2.801   4.464  1.2156 -0.8827  0.9297
11495SOL     OW35424   5.885   2.995   3.909 -0.1538 -0.1996  0.0111
11495SOL    HW135425   5.975   3.017   3.886  0.1994 -1.9408 -0.4420
11495SOL    HW235426   5.890   2.905   3.940 -1.4257  0.3862  2.0964
11496SOL     OW35427   3.862   5.859   6.304  0.0157 -0.2329  0.8600
11496SOL    HW135428   3.771   5.830   6.311 -0.5817  1.1181 -0.7596
11496SOL    HW235429   3.876   5.871   6.210  1.8564 -0.3195  1.0851
11497SOL     OW35430   0.812   6.615   2.533 -0.5297 -0.7141 -0.2915
11497SOL    HW135431   0.838   6.549   2.597  0.0203 -0.3793 -0.1598
11497SOL    HW235432   0.736   6.658   2.572 -0.9965 -1.3755 -0.4565
11498SOL     OW35433   5.901   2.254   7.276 -0.5333 -0.3585  0.0178
11498SOL    HW135434   5.839   2.181   7.271  0.2165 -1.0478  0.4301
11498SOL    HW235435   5.975   2.219   7.325  0.9778 -0.1123 -1.9571
11499SOL     OW35436   4.068   3.811   5.204 -0.3926  0.2224  0.6140
11499SOL    HW135437   4.041   3.758   5.129  0.8971  0.9348 -0.3949
11499SOL    HW235438   3.989   3.858   5.229 -0.8602 -0.0579 -0.2731
11500SOL     OW35439   3.015   7.185   6.789 -0.0355  0.3866 -0.0903
11500SOL    HW135440   3.105   7.153   6.777  0.2659  1.7555 -1.7974
11500SOL    HW235441   2.993   7.227   6.706 -2.1654  0.3480  0.4000
11501SOL     OW35442   1.091   4.932   4.018 -0.5326 -0.5808 -0.3213
11501SOL    HW135443   1.108   4.902   3.929 -2.4710 -0.8939 -0.6440
11501SOL    HW235444   1.127   4.864   4.075 -2.3366 -2.1546 -0.9818
11502SOL     OW35445   2.407   1.009   0.427  0.5967 -0.0766  0.1800
11502SOL    HW135446   2.410   0.916   0.447 -0.3862 -0.3102 -0.6510
11502SOL    HW235447   2.319   1.036   0.453  0.9680  0.6934  0.6785
11503SOL     OW35448   3.659   5.930   7.099 -0.1720  0.0235  0.3381
11503SOL    HW135449   3.589   5.882   7.056 -0.0719 -1.5853  1.8525
11503SOL    HW235450   3.613   5.991   7.158 -0.2973  1.9063 -1.5699
11504SOL     OW35451   5.306   2.847   5.948 -0.0103  0.0687 -0.5887
11504SOL    HW135452   5.355   2.767   5.969 -0.1689  0.3069  0.7643
11504SOL    HW235453   5.347   2.915   6.001  0.2120  0.9386 -1.8390
11505SOL     OW35454   6.092   3.133   4.255  0.5269  0.3184  0.0275
11505SOL    HW135455   6.103   3.075   4.330 -2.4690  0.5682  0.7512
11505SOL    HW235456   6.097   3.075   4.179 -1.6351 -0.8590  0.7052
11506SOL     OW35457   5.837   2.087   1.451  0.2415  0.0281  0.2852
11506SOL    HW135458   5.857   2.059   1.362 -0.1158  1.0418 -0.1332
11506SOL    HW235459   5.784   2.017   1.488  0.0880 -0.2401 -0.4289
11507SOL     OW35460   0.728   5.535   4.959 -0.1598 -0.2002 -0.6767
11507SOL    HW135461   0.677   5.601   5.007  1.0596  0.1755  0.1518
11507SOL    HW235462   0.819   5.554   4.983  0.2879 -1.5208 -1.2790
11508SOL     OW35463   4.648   2.393   5.693  0.0310 -0.0322  0.2982
11508SOL    HW135464   4.629   2.482   5.721  1.4353  0.3443  0.1411
11508SOL    HW235465   4.727   2.369   5.743  1.3156 -0.1357 -1.6716
11509SOL     OW35466   0.291   1.409   6.249 -0.5370 -0.4290  0.3227
11509SOL    HW135467   0.267   1.320   6.223  0.7873 -0.4449 -0.9903
11509SOL    HW235468   0.335   1.398   6.333 -1.4809 -0.8653  0.7650
11510SOL     OW35469   4.887   5.297   2.896  0.4831  0.3617  0.9107
11510SOL    HW135470   4.797   5.296   2.930  0.8367  1.2595  1.9464
11510SOL    HW235471   4.926   5.218   2.933 -0.2966 -0.8784 -0.8176
11511SOL     OW35472   6.554   4.713   7.141  0.1736 -0.1030 -0.4820
11511SOL    HW135473   6.615   4.704   7.068 -1.3410 -0.5455 -1.7460
11511SOL    HW235474   6.531   4.623   7.164 -1.2187  0.0657 -1.1146
11512SOL     OW35475   4.454   3.864   0.765  0.0840 -0.3290 -0.0965
11512SOL    HW135476   4.449   3.770   0.748 -0.1313 -0.3180 -0.1030
11512SOL    HW235477   4.432   3.873   0.858  0.5171 -0.3229  0.0063
11513SOL     OW35478   6.119   3.630   3.440 -0.2770  0.1239 -0.1948
11513SOL    HW135479   6.066   3.551   3.428 -2.0632  1.0014  1.3449
11513SOL    HW235480   6.113   3.675   3.355 -2.0441  0.1638 -0.1000
11514SOL     OW35481   4.053   4.111   5.150 -0.4291  0.2608 -0.4870
11514SOL    HW135482   4.035   4.026   5.109  2.0375 -1.3152  1.3721
11514SOL    HW235483   3.968   4.141   5.181 -1.1176 -3.3406  1.8507
11515SOL     OW35484   0.628   3.414   5.664 -0.5145  0.1786  0.1104
11515SOL    HW135485   0.550   3.466   5.679 -0.8089  0.0384 -0.8559
11515SOL    HW235486   0.596   3.331   5.628  0.0654  0.0788 -0.1947
11516SOL     OW35487   5.268   5.218   5.885 -0.2678 -0.2837  0.0020
11516SOL    HW135488   5.301   5.138   5.842  2.0202 -0.0515  1.1593
11516SOL    HW235489   5.290   5.207   5.977 -0.3179  1.4861  0.2656
11517SOL     OW35490   4.524   0.015   2.587  0.2061 -0.5532 -0.0287
11517SOL    HW135491   4.574  -0.067   2.588 -0.5637 -1.0369 -0.1566
11517SOL    HW235492   4.488   0.020   2.498  1.2059  0.5269 -0.3898
11518SOL     OW35493   5.643   1.231   6.050  0.5465  0.4283  0.4648
11518SOL    HW135494   5.649   1.234   6.145 -1.0889 -2.8280  0.8138
11518SOL    HW235495   5.554   1.260   6.030  1.6508  3.6240 -0.4367
11519SOL     OW35496   3.597   0.852   0.526  0.0133 -0.3318  0.1547
11519SOL    HW135497   3.631   0.868   0.438  0.1756  1.8907  0.5426
11519SOL    HW235498   3.507   0.823   0.512 -0.3307  1.0361 -0.7814
11520SOL     OW35499   7.146   1.037   6.042 -0.6249  0.2347  0.2557
11520SOL    HW135500   7.056   1.069   6.043 -0.7391 -0.0790  0.9969
11520SOL    HW235501   7.192   1.094   5.980 -0.8586  1.6955  1.3676
11521SOL     OW35502   5.397   1.654   1.344  0.1392  0.4159  0.0563
11521SOL    HW135503   5.314   1.691   1.374 -0.3761 -1.5406  1.2813
11521SOL    HW235504   5.418   1.587   1.410  1.7154 -0.4340 -1.2361
11522SOL     OW35505   4.819   2.937   5.543  0.2846  0.7207 -0.2409
11522SOL    HW135506   4.781   2.893   5.468 -1.0940  0.2246  0.7077
11522SOL    HW235507   4.853   3.019   5.508 -3.1597  2.0126 -0.9332
11523SOL     OW35508   1.461   5.269   1.979  0.2815 -0.2991  0.5615
11523SOL    HW135509   1.489   5.278   1.888 -1.3896 -2.4627 -0.2547
11523SOL    HW235510   1.542   5.253   2.027  1.1290  0.2846 -0.6144
11524SOL     OW35511   4.849   2.759   7.178  0.0496  0.0034  0.7962
11524SOL    HW135512   4.866   2.728   7.089 -0.6489  1.5571  0.0830
11524SOL    HW235513   4.754   2.768   7.183  0.1383  0.7372  1.3989
11525SOL     OW35514   6.216   4.840   1.889  0.0316 -0.3359 -0.7449
11525SOL    HW135515   6.140   4.788   1.866  1.1859 -1.0479 -3.3059
11525SOL    HW235516   6.283   4.776   1.913  0.3492  0.2045 -0.1269
11526SOL     OW35517   1.901   1.258   4.207 -0.1240  0.5556 -0.8196
11526SOL    HW135518   1.838   1.322   4.240 -1.9748 -0.7969 -1.5715
11526SOL    HW235519   1.920   1.203   4.283  0.2186  1.0040 -0.5742
11527SOL     OW35520   0.235   3.393   3.136 -0.0322 -0.0916 -0.5147
11527SOL    HW135521   0.142   3.392   3.159  0.2338  0.0023  0.5814
11527SOL    HW235522   0.253   3.304   3.106 -0.7303  0.1807 -1.8754
11528SOL     OW35523   4.230   1.509   3.220 -0.2961  0.3678  0.2922
11528SOL    HW135524   4.211   1.564   3.296  0.4302 -0.5025  1.1313
11528SOL    HW235525   4.324   1.491   3.226 -0.2077  0.3787 -0.8884
11529SOL     OW35526   4.142   1.123   2.632 -0.0998  0.1441  0.2291
11529SOL    HW135527   4.238   1.116   2.637 -0.1424 -0.9481 -0.1169
11529SOL    HW235528   4.119   1.186   2.699  0.9630  1.3215 -0.4556
11530SOL     OW35529   4.890   6.151   6.716 -0.0853 -0.6573  0.5429
11530SOL    HW135530   4.965   6.210   6.715 -1.3219  0.9949  1.4747
11530SOL    HW235531   4.815   6.206   6.696 -1.1746 -2.1424  0.3227
11531SOL     OW35532   3.206   1.836   0.228 -0.6242 -0.7843 -0.2412
11531SOL    HW135533   3.297   1.847   0.254 -0.0070 -2.2985 -1.6067
11531SOL    HW235534   3.158   1.901   0.280  1.5733  2.4200 -1.9256
11532SOL     OW35535   3.241   3.837   5.891  0.0904 -0.3230 -0.0806
11532SOL    HW135536   3.221   3.864   5.802 -0.8960  2.2424  0.7905
11532SOL    HW235537   3.316   3.891   5.916  0.7229 -1.4286  0.4707
11533SOL     OW35538   6.444   5.789   1.270  0.4881  0.6416  0.2237
11533SOL    HW135539   6.387   5.861   1.296  1.0557  0.3872  2.4572
11533SOL    HW235540   6.408   5.713   1.314  0.4300 -0.2845 -1.3626
11534SOL     OW35541   5.562   4.284   2.635  0.1825  0.1129 -0.5272
11534SOL    HW135542   5.623   4.349   2.670 -0.5607  0.7502 -0.3891
11534SOL    HW235543   5.492   4.335   2.595  0.1185 -0.6088 -1.3750
11535SOL     OW35544   1.226   6.393   6.662 -0.4386 -0.2542  0.2600
11535SOL    HW135545   1.274   6.476   6.668  0.4925 -0.6879 -0.9668
11535SOL    HW235546   1.154   6.411   6.601 -0.1171 -0.4041 -0.1637
11536SOL     OW35547   5.427   0.281   5.384 -0.0098 -0.0415 -0.0209
11536SOL    HW135548   5.518   0.266   5.411 -0.5681 -1.6218  1.1505
11536SOL    HW235549   5.381   0.304   5.465 -0.6565  0.8551 -0.6183
11537SOL     OW35550   4.718   5.310   7.385 -0.2816  0.4885  0.1800
11537SOL    HW135551   4.810   5.295   7.367 -0.2870  1.1815 -0.4958
11537SOL    HW235552   4.716   5.389   7.439 -0.5107  0.9186 -0.4426
11538SOL     OW35553   0.440   5.308   5.748 -0.2021 -0.4041 -0.6541
11538SOL    HW135554   0.517   5.340   5.702 -0.6607  0.7980 -0.6139
11538SOL    HW235555   0.393   5.256   5.682  1.1198 -2.0320 -0.3954
11539SOL     OW35556   2.338   5.667   0.154 -0.4565  0.2719 -0.1165
11539SOL    HW135557   2.365   5.607   0.223 -0.9648  0.5203  0.3007
11539SOL    HW235558   2.415   5.675   0.097 -0.9398 -2.2370 -1.2576
11540SOL     OW35559   0.473   5.373   4.665 -0.3830 -0.1691 -0.0726
11540SOL    HW135560   0.567   5.377   4.683 -0.3388  0.3614 -0.4063
11540SOL    HW235561   0.468   5.358   4.570 -0.6252 -1.6544  0.1465
11541SOL     OW35562   4.448   3.177   2.166  0.3602 -0.7469 -0.8009
11541SOL    HW135563   4.478   3.138   2.248 -0.2530 -0.7642 -0.5804
11541SOL    HW235564   4.418   3.264   2.190 -0.1656 -0.8880 -0.9428
11542SOL     OW35565   7.065   6.231   1.446  0.1394 -0.2099 -0.2924
11542SOL    HW135566   7.013   6.243   1.366 -0.1864  1.0707  0.0825
11542SOL    HW235567   7.128   6.163   1.424 -2.4598 -2.7972 -0.3887
11543SOL     OW35568   5.536   5.449   0.771  0.1995 -0.2813 -0.2683
11543SOL    HW135569   5.452   5.447   0.817 -0.3454 -0.1751 -1.2383
11543SOL    HW235570   5.554   5.542   0.756 -0.1114 -0.3581 -1.1346
11544SOL     OW35571   1.134   6.705   3.268  0.4055 -0.3092  0.1538
11544SOL    HW135572   1.143   6.790   3.311 -1.0970 -0.3784  0.6664
11544SOL    HW235573   1.141   6.724   3.174  1.1390  0.2054  0.3006
11545SOL     OW35574   3.207   2.749   4.540  0.0130  0.9939  0.1418
11545SOL    HW135575   3.213   2.800   4.459  1.1990 -1.2210 -1.2747
11545SOL    HW235576   3.271   2.679   4.528 -1.0797 -0.4487  2.2462
11546SOL     OW35577   3.925   1.308   0.165  0.2596  0.0360  0.4948
11546SOL    HW135578   3.844   1.330   0.210  0.5735 -0.0597  1.1184
11546SOL    HW235579   3.939   1.215   0.183  1.2506  0.3764  1.6225
11547SOL     OW35580   0.020   2.609   3.450 -0.1812 -0.1716  0.3370
11547SOL    HW135581  -0.010   2.578   3.536  0.0355 -0.5742  0.2697
11547SOL    HW235582   0.115   2.612   3.458 -0.0848 -1.2618 -0.2336
11548SOL     OW35583   5.631   0.708   1.865  0.5630  0.0505  0.4154
11548SOL    HW135584   5.672   0.681   1.783  1.6756  0.0869  0.9434
11548SOL    HW235585   5.641   0.633   1.923  1.1920  0.5779  1.0086
11549SOL     OW35586   0.625   0.610   5.578 -0.6189 -0.1906 -0.2886
11549SOL    HW135587   0.605   0.698   5.608 -3.2405 -0.4222 -1.0714
11549SOL    HW235588   0.696   0.622   5.515  1.6978  0.8210  2.3025
11550SOL     OW35589   3.654   0.591   3.958 -0.6900  0.2331  0.5076
11550SOL    HW135590   3.671   0.612   3.866  0.4573  2.5708  1.1716
11550SOL    HW235591   3.730   0.541   3.986  0.6357  2.3365  0.9471
11551SOL     OW35592   3.229   1.878   1.257 -0.0637  0.2434  0.0028
11551SOL    HW135593   3.290   1.878   1.331  1.1849  1.2623 -0.9712
11551SOL    HW235594   3.262   1.947   1.199 -1.6664  0.2354 -0.9788
11552SOL     OW35595   6.147   0.150   6.657 -0.4910 -0.0941  0.0572
11552SOL    HW135596   6.052   0.151   6.649 -0.5249 -0.0184  0.4291
11552SOL    HW235597   6.174   0.241   6.641 -0.2933 -0.4725 -2.0181
11553SOL     OW35598   7.372   1.617   5.433  0.6239  0.6809 -0.0743
11553SOL    HW135599   7.305   1.676   5.469 -0.2716  0.8616 -1.9103
11553SOL    HW235600   7.444   1.676   5.407 -0.1150  0.9748 -1.5632
11554SOL     OW35601   2.833   2.572   1.852  0.1352 -0.2756  0.1997
11554SOL    HW135602   2.825   2.477   1.864  1.2724 -0.2140  1.7394
11554SOL    HW235603   2.785   2.609   1.926 -2.0155  0.4418 -1.4600
11555SOL     OW35604   6.575   5.787   1.874 -0.6030 -0.2052  0.2887
11555SOL    HW135605   6.565   5.703   1.828  0.3122 -0.7897  1.1136
11555SOL    HW235606   6.668   5.809   1.863 -0.6521  0.2754  0.7940
11556SOL     OW35607   2.223   4.880   4.337  0.7813 -0.1551  0.1729
11556SOL    HW135608   2.219   4.939   4.262 -0.0951  1.1807  1.2216
11556SOL    HW235609   2.315   4.856   4.343  0.7283 -1.0475 -1.8696
11557SOL     OW35610   5.403   7.237   1.742 -0.1868 -0.1435  0.0758
11557SOL    HW135611   5.438   7.322   1.771  0.9240  0.0753 -1.7219
11557SOL    HW235612   5.311   7.238   1.768 -0.2845  1.7741 -0.1916
11558SOL     OW35613   3.462   5.340   6.718  0.3254  0.0069  0.3251
11558SOL    HW135614   3.384   5.285   6.711  1.4560 -1.8823  1.4299
11558SOL    HW235615   3.431   5.429   6.703 -1.6630 -0.8827 -1.3053
11559SOL     OW35616   0.974   0.303   0.771  0.1041 -0.2741 -0.1336
11559SOL    HW135617   1.023   0.254   0.705  2.7515  1.6200  0.2532
11559SOL    HW235618   0.961   0.390   0.732  0.1398  0.3242  1.1180
11560SOL     OW35619   0.679   1.770   2.773 -0.2843  0.5292  0.3420
11560SOL    HW135620   0.675   1.779   2.678 -0.2055 -3.5326 -0.2331
11560SOL    HW235621   0.593   1.734   2.797  0.2025  0.1161  1.5636
11561SOL     OW35622   3.990   6.605   3.851  0.2056 -0.2671 -0.1945
11561SOL    HW135623   3.900   6.580   3.831 -1.0114  2.1364  1.7181
11561SOL    HW235624   4.018   6.544   3.918 -0.2919 -0.5526 -0.2417
11562SOL     OW35625   1.911   2.301   6.491 -0.2150 -0.3958 -0.7170
11562SOL    HW135626   1.956   2.246   6.427 -1.3211 -1.8156 -0.3306
11562SOL    HW235627   1.981   2.339   6.543  0.6757  0.2787 -2.3404
11563SOL     OW35628   7.247   1.104   1.874  0.7399 -0.2661  0.0944
11563SOL    HW135629   7.200   1.177   1.834 -1.5345 -1.2713  0.8036
11563SOL    HW235630   7.330   1.142   1.902  1.1511  1.2052 -2.6942
11564SOL     OW35631   4.526   0.473   6.456 -0.6584  0.0728 -0.3918
11564SOL    HW135632   4.616   0.489   6.429 -0.7691  2.6403  0.4472
11564SOL    HW235633   4.472   0.506   6.383 -0.8862  1.3520  0.3103
11565SOL     OW35634   2.494   1.824   5.119  0.4075 -0.6780 -0.0061
11565SOL    HW135635   2.443   1.763   5.173  0.3969 -0.7675 -0.1172
11565SOL    HW235636   2.585   1.808   5.145  0.4364 -1.0127 -0.3116
11566SOL     OW35637   7.158   2.802   4.827 -0.6328 -0.1817  0.2275
11566SOL    HW135638   7.089   2.819   4.763  0.6363 -2.1364 -1.8054
11566SOL    HW235639   7.195   2.717   4.801  2.9700  1.0352  0.7655
11567SOL     OW35640   5.394   0.283   2.118 -0.3381  0.7520  0.3420
11567SOL    HW135641   5.359   0.241   2.196 -1.1233 -0.5777 -0.6623
11567SOL    HW235642   5.317   0.313   2.070  0.1633  2.3263  0.4545
11568SOL     OW35643   3.891   4.375   4.726 -0.0857  0.3488 -0.1548
11568SOL    HW135644   3.865   4.294   4.681  2.9817 -1.4826  1.0526
11568SOL    HW235645   3.831   4.382   4.800  0.1389 -1.3810  0.2302
11569SOL     OW35646   1.225   0.919   4.467 -0.6218 -0.2545  0.2751
11569SOL    HW135647   1.199   0.840   4.515  1.8078 -0.1381  1.9599
11569SOL    HW235648   1.218   0.990   4.531 -0.9999  0.6058 -0.6949
11570SOL     OW35649   3.683   5.252   1.963 -0.1334 -0.0021 -0.0311
11570SOL    HW135650   3.697   5.280   1.872 -0.6318  0.5545  0.0550
11570SOL    HW235651   3.608   5.193   1.958 -1.2724  1.3689  0.2256
11571SOL     OW35652   0.841   2.723   1.594 -0.3071 -0.3862  0.7286
11571SOL    HW135653   0.801   2.793   1.645  0.3054 -0.7375  1.7120
11571SOL    HW235654   0.930   2.753   1.577 -0.7526  0.1157 -0.9146
11572SOL     OW35655   2.301   6.822   2.622 -0.2702 -0.1078  0.0088
11572SOL    HW135656   2.231   6.804   2.559  0.1302 -1.2109 -0.1413
11572SOL    HW235657   2.271   6.900   2.669 -0.6863  0.5968 -1.3750
11573SOL     OW35658   0.400   5.360   3.241  0.0191  0.4406 -0.6114
11573SOL    HW135659   0.476   5.368   3.183 -0.0440  1.0615 -0.6118
11573SOL    HW235660   0.405   5.437   3.298  0.3529 -0.3901  0.5378
11574SOL     OW35661   2.869   5.651   4.697 -0.1602  0.1147 -0.2549
11574SOL    HW135662   2.775   5.642   4.682 -0.2400 -0.7590  0.6458
11574SOL    HW235663   2.879   5.740   4.730 -0.1180  1.6697 -4.0099
11575SOL     OW35664   2.062   0.148   3.188  0.2236 -0.1190  0.4011
11575SOL    HW135665   2.045   0.241   3.176 -0.2340  0.2631  3.1871
11575SOL    HW235666   2.152   0.144   3.221  0.8395 -0.8631 -1.2647
11576SOL     OW35667   3.388   0.517   4.488  0.2811 -0.6507 -0.0329
11576SOL    HW135668   3.304   0.534   4.530  0.5729 -1.9206  1.1612
11576SOL    HW235669   3.449   0.576   4.531  0.0370  0.2207 -0.8497
11577SOL     OW35670   1.124   4.174   3.470 -0.8929  0.4858  0.1659
11577SOL    HW135671   1.134   4.162   3.375 -0.3819 -1.3903  0.4073
11577SOL    HW235672   1.081   4.093   3.499 -0.0719  0.5621  1.6723
11578SOL     OW35673   3.160   2.821   5.763  0.0777  0.3566  0.7147
11578SOL    HW135674   3.236   2.878   5.773 -0.2587  1.4571 -1.9372
11578SOL    HW235675   3.182   2.766   5.688 -1.7077  0.7522 -0.1567
11579SOL     OW35676   0.233   6.292   3.166  0.3773  0.0244  0.2541
11579SOL    HW135677   0.308   6.239   3.194 -0.2306 -0.4184  1.0985
11579SOL    HW235678   0.272   6.370   3.126  1.3117  0.3446  1.7045
11580SOL     OW35679   1.914   2.127   6.891 -0.1878  0.1682 -0.2267
11580SOL    HW135680   1.836   2.182   6.895  0.3962  0.9528  1.0949
11580SOL    HW235681   1.884   2.041   6.917 -0.7098  0.3442 -0.2345
11581SOL     OW35682   6.101   7.412   3.524  0.3927  0.0777  0.0051
11581SOL    HW135683   6.126   7.392   3.614  0.7596 -1.2578 -0.3835
11581SOL    HW235684   6.110   7.330   3.477 -1.2333  0.3975 -0.9492
11582SOL     OW35685   2.246   0.431   4.687  0.0857  0.5503  0.1680
11582SOL    HW135686   2.235   0.346   4.730  1.4871 -0.0289 -0.5869
11582SOL    HW235687   2.187   0.489   4.735 -0.8712 -0.8251  0.7221
11583SOL     OW35688   0.334   7.157   4.420 -0.0419 -0.4350  0.2201
11583SOL    HW135689   0.348   7.243   4.380  0.0809 -0.0228  1.1263
11583SOL    HW235690   0.242   7.158   4.447 -0.3873 -1.0773 -0.8878
11584SOL     OW35691   6.396   5.160   6.475  0.4612  0.4902 -0.1700
11584SOL    HW135692   6.429   5.243   6.440  2.1289 -0.3969 -0.8424
11584SOL    HW235693   6.448   5.145   6.554 -0.4500  0.4945  0.4442
11585SOL     OW35694   7.318   1.090   2.736 -0.0509 -0.0220 -0.2071
11585SOL    HW135695   7.314   1.185   2.743  0.8905  0.0283 -0.2551
11585SOL    HW235696   7.241   1.067   2.684 -0.4691  0.6766  0.0844
11586SOL     OW35697   0.048   3.032   3.573  0.4636  0.3522 -0.3901
11586SOL    HW135698   0.022   3.015   3.482 -0.6773 -1.3912  0.2199
11586SOL    HW235699   0.141   3.007   3.576  0.4785  0.3069 -1.0331
11587SOL     OW35700   4.272   0.735   0.222  0.2883  0.0795  0.2603
11587SOL    HW135701   4.285   0.675   0.149 -0.2017 -0.6703  0.7752
11587SOL    HW235702   4.350   0.725   0.276 -0.3386 -1.0604  1.0020
11588SOL     OW35703   1.985   0.629   0.495 -0.2768 -0.0444  0.0626
11588SOL    HW135704   1.932   0.571   0.441 -0.9196 -0.2187  0.8523
11588SOL    HW235705   1.928   0.705   0.511 -0.2767 -0.2067  0.8675
11589SOL     OW35706   5.216   0.676   7.133  0.2152 -0.2301 -0.2077
11589SOL    HW135707   5.260   0.597   7.166 -1.1140 -1.0062 -0.2290
11589SOL    HW235708   5.156   0.644   7.066 -0.9008  0.7021  0.3109
11590SOL     OW35709   2.957   4.632   4.048 -0.8795 -0.0590  0.2565
11590SOL    HW135710   3.032   4.631   4.108 -3.1261  0.2049  3.3019
11590SOL    HW235711   2.949   4.542   4.017  0.1536 -0.2696  0.5698
11591SOL     OW35712   3.234   2.177   3.379 -0.4619  0.4334 -0.0526
11591SOL    HW135713   3.160   2.141   3.330 -0.3969  0.0726  0.1070
11591SOL    HW235714   3.260   2.255   3.331 -1.3554  0.9243  0.2440
11592SOL     OW35715   3.635   6.185   4.143 -0.4972 -0.7133 -0.1246
11592SOL    HW135716   3.628   6.091   4.154  0.1294 -0.6173  1.2767
11592SOL    HW235717   3.696   6.213   4.212 -0.4488  0.6732 -0.6952
11593SOL     OW35718   2.096   2.462   1.677  0.5022  0.0980 -0.6120
11593SOL    HW135719   2.037   2.526   1.716  0.0882 -0.3556 -0.4912
11593SOL    HW235720   2.179   2.508   1.669  1.5623 -0.6499  3.6877
11594SOL     OW35721   5.609   0.011   7.306 -0.1809 -0.5088 -0.2783
11594SOL    HW135722   5.638  -0.019   7.393  0.4651 -2.7797 -1.2116
11594SOL    HW235723   5.515  -0.006   7.305 -0.4899  0.9738  0.4857
11595SOL     OW35724   3.097   2.852   0.120  0.1538  0.1211 -0.0912
11595SOL    HW135725   3.136   2.927   0.074 -0.8342  0.4452 -0.4099
11595SOL    HW235726   3.033   2.817   0.059 -1.1986  0.5708  1.0115
11596SOL     OW35727   4.340   3.661   1.458  0.0907 -0.2400 -0.2979
11596SOL    HW135728   4.329   3.673   1.552  1.9470 -0.4451 -0.0249
11596SOL    HW235729   4.305   3.741   1.419  0.0088  0.1772  0.6042
11597SOL     OW35730   1.656   7.132   5.732  0.0090 -1.1104  0.0400
11597SOL    HW135731   1.742   7.147   5.692 -0.6407  0.3025 -0.9057
11597SOL    HW235732   1.675   7.117   5.824  1.1919  0.4340  0.0799
11598SOL     OW35733   4.567   5.625   4.392 -0.3815 -0.0495  0.0728
11598SOL    HW135734   4.510   5.658   4.462  1.0313  0.2332  1.1414
11598SOL    HW235735   4.632   5.694   4.380  1.3933 -1.5057  0.8753
11599SOL     OW35736   7.309   2.270   3.330 -0.2133 -0.4121 -0.1811
11599SOL    HW135737   7.320   2.361   3.303  2.6395 -0.0268  1.7428
11599SOL    HW235738   7.308   2.220   3.249  0.9462  1.1460 -1.2058
11600SOL     OW35739   4.863   5.933   4.173 -0.1923 -0.1366  0.1619
11600SOL    HW135740   4.792   5.898   4.226 -0.4737  0.8859  0.4850
11600SOL    HW235741   4.819   5.967   4.095 -0.4048  2.5619  1.3597
11601SOL     OW35742   4.155   2.567   0.017 -0.2056 -0.1057 -0.0858
11601SOL    HW135743   4.083   2.602  -0.037 -1.7737 -3.1257 -0.1688
11601SOL    HW235744   4.198   2.503  -0.040 -0.4586 -1.7373  1.5048
11602SOL     OW35745   1.003   1.763   0.374  0.0746  0.5383 -0.4735
11602SOL    HW135746   0.919   1.729   0.343 -0.0540 -0.1456  0.5922
11602SOL    HW235747   1.041   1.806   0.297 -0.9571  0.2955 -1.1371
11603SOL     OW35748   1.486   2.779   5.852  0.0705 -0.6314 -0.0657
11603SOL    HW135749   1.492   2.688   5.883  0.6461 -0.6050 -0.0983
11603SOL    HW235750   1.539   2.829   5.913 -2.2340  0.0936  1.4636
11604SOL     OW35751   6.533   2.685   4.290  0.1533 -0.0733  0.2268
11604SOL    HW135752   6.494   2.742   4.356  0.5105  1.1130 -0.5606
11604SOL    HW235753   6.535   2.598   4.331  1.0449  0.7619  2.0595
11605SOL     OW35754   5.299   5.680   1.367  0.0985  0.1453  0.3882
11605SOL    HW135755   5.248   5.599   1.366  2.4725 -1.4540  0.3643
11605SOL    HW235756   5.328   5.691   1.276 -0.1191  0.9861  0.4131
11606SOL     OW35757   6.252   2.366   4.456  0.2495  1.0222  0.0679
11606SOL    HW135758   6.246   2.349   4.550 -0.4985  0.1448 -0.1203
11606SOL    HW235759   6.344   2.351   4.435 -0.0338 -1.4041  0.2175
11607SOL     OW35760   6.266   2.446   4.874  0.4270 -0.3209 -0.1457
11607SOL    HW135761   6.277   2.539   4.852  2.7232 -1.0069 -2.4222
11607SOL    HW235762   6.272   2.443   4.969 -0.9985  1.9564  0.1000
11608SOL     OW35763   7.307   0.827   4.361  0.7863 -0.5057  0.0268
11608SOL    HW135764   7.369   0.848   4.431 -0.2722  0.5646  0.6741
11608SOL    HW235765   7.338   0.743   4.326  1.7412 -0.7198  1.3089
11609SOL     OW35766   1.194   6.310   7.188 -0.0795  0.4893  0.3975
11609SOL    HW135767   1.202   6.226   7.234  0.3682 -0.3938 -1.1890
11609SOL    HW235768   1.152   6.287   7.105  2.9981  1.2062 -1.5185
11610SOL     OW35769   0.669   1.775   5.318  0.3024 -0.3611  0.3104
11610SOL    HW135770   0.712   1.710   5.262  0.9377 -0.4240  0.8543
11610SOL    HW235771   0.577   1.772   5.293  0.1512 -2.1391  0.9548
11611SOL     OW35772   6.815   3.610   6.284 -0.1612  0.4084 -0.1287
11611SOL    HW135773   6.877   3.682   6.296 -0.9783  1.1675 -0.3110
11611SOL    HW235774   6.740   3.635   6.338  0.5900 -1.6666  2.0673
11612SOL     OW35775   1.065   2.511   7.224  0.8023  0.6890 -0.0626
11612SOL    HW135776   1.089   2.488   7.314 -1.4999  0.6971  0.6345
11612SOL    HW235777   1.072   2.429   7.175 -0.0479  0.1593  0.6649
11613SOL     OW35778   4.747   2.550   2.500 -0.4568  0.1903 -0.2804
11613SOL    HW135779   4.809   2.608   2.457  0.0228 -0.4428 -0.4523
11613SOL    HW235780   4.783   2.537   2.588 -1.0995  0.9634  0.1170
11614SOL     OW35781   5.180   1.197   6.578  0.7029 -0.5246 -0.2128
11614SOL    HW135782   5.144   1.274   6.534 -1.3965 -0.7854  0.9244
11614SOL    HW235783   5.275   1.203   6.563  0.5123  1.8160 -0.8394
11615SOL     OW35784   1.553   4.474   1.255 -0.3912 -0.6651 -0.1489
11615SOL    HW135785   1.633   4.526   1.260 -1.8172  1.7002 -0.2492
11615SOL    HW235786   1.563   4.422   1.176  0.9921 -0.3268 -0.2150
11616SOL     OW35787   4.214   3.768   1.750  0.6587 -0.3243 -0.6010
11616SOL    HW135788   4.276   3.762   1.823  0.8268  0.0249 -0.7141
11616SOL    HW235789   4.131   3.790   1.792  0.8460  0.3037 -0.5506
11617SOL     OW35790   3.528   3.051   5.508  0.0192  0.8176 -0.1359
11617SOL    HW135791   3.529   2.988   5.580  0.7972 -0.5555 -1.3067
11617SOL    HW235792   3.435   3.065   5.490 -0.1762  0.8597  0.8530
11618SOL     OW35793   5.941   6.940   7.212 -0.0408  0.1895  0.0703
11618SOL    HW135794   5.893   6.964   7.291 -0.7127 -0.4129 -0.1493
11618SOL    HW235795   5.874   6.910   7.151  0.4378  0.8712 -0.8184
11619SOL     OW35796   5.587   4.290   1.058 -0.0557  0.6976  0.5093
11619SOL    HW135797   5.621   4.266   1.144 -1.6090  0.9838  1.2401
11619SOL    HW235798   5.538   4.370   1.073  1.3960  1.9548 -1.0761
11620SOL     OW35799   6.602   6.079   2.761 -0.0376  0.2900  0.0125
11620SOL    HW135800   6.543   6.004   2.773  0.5574  0.0182  1.3677
11620SOL    HW235801   6.544   6.155   2.762 -0.3501  0.0916  2.1810
11621SOL     OW35802   4.150   5.068   1.436  0.1229 -0.0479 -0.0589
11621SOL    HW135803   4.151   5.002   1.505  0.8102  1.0672  1.0222
11621SOL    HW235804   4.059   5.098   1.433 -0.0896 -0.6940 -0.2326
11622SOL     OW35805   2.185   1.933   1.025  0.5055 -0.4074  0.0400
11622SOL    HW135806   2.211   2.016   1.065  1.6878 -1.3471  1.3002
11622SOL    HW235807   2.190   1.950   0.930 -1.2280  1.5157  0.2150
11623SOL     OW35808   5.715   5.652   1.209 -0.2474 -0.1575  0.5827
11623SOL    HW135809   5.788   5.682   1.155 -1.4022  0.6295 -0.5998
11623SOL    HW235810   5.752   5.645   1.297  1.5640 -1.0084 -0.1879
11624SOL     OW35811   6.855   1.432   1.798 -0.2692 -0.1672 -0.0559
11624SOL    HW135812   6.810   1.512   1.826  0.7421  0.3357  0.2224
11624SOL    HW235813   6.861   1.440   1.703 -2.4686 -1.1981 -0.3416
11625SOL     OW35814   3.503   1.039   1.548  0.1481  0.0336  0.2773
11625SOL    HW135815   3.566   0.984   1.502  2.7772  2.3878  0.7519
11625SOL    HW235816   3.495   1.000   1.635 -0.2148 -1.1067 -0.2555
11626SOL     OW35817   2.756   0.909   7.260  0.7739 -0.1160 -0.1825
11626SOL    HW135818   2.727   0.984   7.208 -0.5781 -0.7526 -0.3947
11626SOL    HW235819   2.736   0.833   7.205 -1.7249 -0.8896  1.6236
11627SOL     OW35820   3.752   2.932   0.308 -0.5754 -0.1301  0.1118
11627SOL    HW135821   3.799   2.896   0.233  0.6994 -0.4219  1.0072
11627SOL    HW235822   3.740   3.024   0.286  3.3751  0.8283  1.1049
11628SOL     OW35823   5.196   3.972   1.560  0.8598  0.6744  0.1208
11628SOL    HW135824   5.227   4.059   1.538  1.9927  1.5353  4.3003
11628SOL    HW235825   5.225   3.917   1.487  1.8859  3.3998 -1.6731
11629SOL     OW35826   2.600   0.354   0.420  0.3740  0.4976  0.2418
11629SOL    HW135827   2.537   0.420   0.450  2.1273  2.3358  0.1032
11629SOL    HW235828   2.621   0.304   0.499 -0.6603  0.3729  0.4489
11630SOL     OW35829   1.901   4.983   4.139 -0.3420  0.3499  0.3057
11630SOL    HW135830   1.901   5.027   4.225  1.2978  0.8792  0.0601
11630SOL    HW235831   1.991   4.992   4.107  0.3355 -3.7308  0.5028
11631SOL     OW35832   3.191   3.322   5.077  0.6044  0.1829 -0.1628
11631SOL    HW135833   3.139   3.401   5.061 -1.4195 -0.4298  2.6933
11631SOL    HW235834   3.241   3.342   5.155  0.7150 -1.0657  0.1027
11632SOL     OW35835   4.086   4.544   5.732  0.5483  0.0447 -0.3781
11632SOL    HW135836   4.171   4.590   5.731  0.7227 -0.2649 -1.9488
11632SOL    HW235837   4.036   4.588   5.800  0.8703  2.3303 -1.5128
11633SOL     OW35838   6.027   0.890   4.443 -0.0356  0.6604 -0.2985
11633SOL    HW135839   6.106   0.902   4.391  0.1876  0.3578 -0.0248
11633SOL    HW235840   5.972   0.966   4.420 -0.0689  0.3791 -1.2097
11634SOL     OW35841   4.345   5.970   0.726  0.3835  0.5026  0.0286
11634SOL    HW135842   4.346   6.029   0.801  4.8802  1.4926 -0.4747
11634SOL    HW235843   4.365   6.026   0.651  0.8187 -1.0704 -1.0986
11635SOL     OW35844   2.457   1.293   7.206  0.3502  0.2429 -0.0621
11635SOL    HW135845   2.474   1.275   7.114 -1.3329  2.2852 -0.8516
11635SOL    HW235846   2.361   1.297   7.213  0.3870 -0.8261  2.0110
11636SOL     OW35847   2.659   3.726   4.225  0.5400 -0.0507  0.0939
11636SOL    HW135848   2.714   3.777   4.284  1.4066  0.2600 -0.9540
11636SOL    HW235849   2.572   3.730   4.264  1.2816 -0.7525  1.9163
11637SOL     OW35850   5.829   7.223   0.468  0.5866 -0.3181 -0.0749
11637SOL    HW135851   5.921   7.197   0.458  0.2549 -0.9096 -2.1111
11637SOL    HW235852   5.783   7.141   0.485 -0.0241 -0.7414 -3.1464
11638SOL     OW35853   4.529   0.401   0.021  0.1327 -0.2437  0.1957
11638SOL    HW135854   4.473   0.328  -0.006 -0.7820  0.5896 -0.2162
11638SOL    HW235855   4.567   0.433  -0.061 -1.9290  1.7077 -0.0935
11639SOL     OW35856   3.809   2.293   5.677 -0.0986 -0.0922 -0.3242
11639SOL    HW135857   3.885   2.350   5.663 -0.2131  0.7415  1.9776
11639SOL    HW235858   3.842   2.223   5.734 -1.1355  0.6573  1.2812
11640SOL     OW35859   5.983   4.161   4.091  0.1723  0.5440  0.5684
11640SOL    HW135860   5.982   4.069   4.118  0.3850 -0.1215 -1.5243
11640SOL    HW235861   6.042   4.203   4.153  0.8395 -0.9397  0.9846
11641SOL     OW35862   5.600   2.947   6.276 -0.3466 -0.8548 -0.5931
11641SOL    HW135863   5.693   2.932   6.259 -0.1786 -0.9549  0.3883
11641SOL    HW235864   5.567   2.985   6.195  0.4625 -1.1897 -1.0917
11642SOL     OW35865   3.238   2.926   4.754  0.5389  0.6589 -0.8541
11642SOL    HW135866   3.324   2.891   4.778  0.2021 -0.3164 -1.0494
11642SOL    HW235867   3.204   2.865   4.688  0.1584  1.6399 -1.5940
11643SOL     OW35868   6.246   0.766   5.623  0.6019  0.1662  0.4373
11643SOL    HW135869   6.287   0.846   5.657 -1.6028  1.1354  1.0063
11643SOL    HW235870   6.195   0.795   5.548  0.8612 -0.9792 -0.2088
11644SOL     OW35871   4.498   6.109   3.742  0.2509  0.4924 -0.0956
11644SOL    HW135872   4.433   6.166   3.782  0.7987  0.3368  1.0571
11644SOL    HW235873   4.486   6.024   3.784  0.9654  0.3757 -0.1040
11645SOL     OW35874   6.603   2.296   6.029 -0.2910  0.1102  0.1104
11645SOL    HW135875   6.657   2.373   6.044 -1.1038  0.7317 -0.0812
11645SOL    HW235876   6.600   2.286   5.934 -0.4636  0.0479  0.1208
11646SOL     OW35877   5.897   2.488   3.487  0.2134 -0.1805 -1.0313
11646SOL    HW135878   5.895   2.422   3.418  2.0723 -0.8187 -0.5497
11646SOL    HW235879   5.991   2.508   3.497 -0.1561  1.0885  0.1905
11647SOL     OW35880   3.209   1.466   5.412  0.2572  0.1722 -0.1288
11647SOL    HW135881   3.280   1.428   5.360  0.7699  1.7643 -0.6485
11647SOL    HW235882   3.248   1.484   5.497  0.0331 -0.3629  0.0941
11648SOL     OW35883   0.343   2.846   6.976 -0.1074  0.3764 -0.5868
11648SOL    HW135884   0.278   2.885   7.034  0.5083  0.9715 -0.2834
11648SOL    HW235885   0.292   2.801   6.909 -0.8248 -0.2172  0.3513
11649SOL     OW35886   1.832   1.431   3.470 -0.4177  0.7090 -0.0051
11649SOL    HW135887   1.775   1.390   3.405 -2.5561  0.6533  1.7648
11649SOL    HW235888   1.862   1.358   3.524 -0.4346  0.9643  0.3517
11650SOL     OW35889   5.709   5.903   6.935 -0.0451  0.3124 -0.1914
11650SOL    HW135890   5.617   5.930   6.929 -0.0468  0.5120  0.6630
11650SOL    HW235891   5.718   5.866   7.023  0.6820  0.2569 -0.2837
11651SOL     OW35892   0.400   1.493   5.208  0.1361 -0.1075  0.2634
11651SOL    HW135893   0.462   1.432   5.249  0.0001  0.1110  0.7986
11651SOL    HW235894   0.406   1.473   5.114  0.3891 -0.6680  0.3933
11652SOL     OW35895   2.218   6.477   4.944  0.4787 -0.1842 -0.5004
11652SOL    HW135896   2.161   6.522   4.882  2.3968  1.9963 -0.8267
11652SOL    HW235897   2.227   6.538   5.017  0.4235 -1.5523  0.6974
11653SOL     OW35898   6.118   3.702   2.610  0.0077 -0.5147  0.8346
11653SOL    HW135899   6.163   3.624   2.642  0.0056 -0.3576  1.2278
11653SOL    HW235900   6.047   3.668   2.556 -0.2219 -0.7967  1.3053
11654SOL     OW35901   3.183   1.555   0.942 -0.5278  0.2496  0.5200
11654SOL    HW135902   3.215   1.644   0.959 -0.7688  0.4585 -0.0645
11654SOL    HW235903   3.179   1.513   1.028 -1.8960  1.2998  0.9976
11655SOL     OW35904   1.930   7.365   3.063 -0.2223  0.4537  0.3045
11655SOL    HW135905   1.973   7.450   3.069 -0.6841  0.8676 -1.6129
11655SOL    HW235906   1.979   7.318   2.995  0.5642 -1.1914  1.9000
11656SOL     OW35907   5.629   1.991   6.010  0.2123 -0.2059 -0.1257
11656SOL    HW135908   5.712   1.946   6.029  0.5320  0.5412  0.2730
11656SOL    HW235909   5.627   2.065   6.070 -0.8928 -0.3759  0.0702
11657SOL     OW35910   2.129   1.888   6.188 -0.3138  0.6832 -0.0929
11657SOL    HW135911   2.170   1.838   6.118 -0.3970  1.4696 -0.7153
11657SOL    HW235912   2.184   1.871   6.265  0.8002  1.2024 -0.7626
11658SOL     OW35913   0.435   0.729   2.958 -0.1524 -0.1266  0.0883
11658SOL    HW135914   0.429   0.738   3.053  2.2142 -1.7962  0.4758
11658SOL    HW235915   0.357   0.775   2.925 -1.8224 -0.7233  2.8554
11659SOL     OW35916   1.845   5.540   5.926  0.1041  0.3873 -0.8312
11659SOL    HW135917   1.775   5.578   5.979  0.0395  1.4630 -1.6426
11659SOL    HW235918   1.881   5.614   5.877  2.1011 -0.0465 -0.1378
11660SOL     OW35919   2.452   4.671   3.660 -0.1587 -0.3500 -0.6942
11660SOL    HW135920   2.430   4.710   3.575 -0.9719 -0.0727 -0.3690
11660SOL    HW235921   2.527   4.722   3.691 -0.6645  0.4038 -0.6720
11661SOL     OW35922   5.460   1.154   4.350 -0.2001  0.2677  0.2805
11661SOL    HW135923   5.482   1.093   4.279 -0.3459 -0.0414  0.5004
11661SOL    HW235924   5.379   1.119   4.388  1.3127 -1.1700  2.4231
11662SOL     OW35925   2.685   0.624   0.007  0.0938 -0.0459  0.5195
11662SOL    HW135926   2.642   0.706   0.031  1.2958  0.0259  2.7088
11662SOL    HW235927   2.694   0.576   0.090  1.3916 -1.4181 -0.3508
11663SOL     OW35928   5.244   2.299   0.763 -0.0177  0.6049 -0.0870
11663SOL    HW135929   5.250   2.233   0.694  5.1015 -2.4595  2.6076
11663SOL    HW235930   5.319   2.357   0.747 -1.9568  3.3543  0.0320
11664SOL     OW35931   7.237   2.854   5.280 -0.3231  0.1090 -0.4603
11664SOL    HW135932   7.227   2.942   5.316  0.1833 -0.0377  0.0287
11664SOL    HW235933   7.147   2.824   5.265 -0.5451  1.7997 -3.3361
11665SOL     OW35934   0.716   6.628   4.211  0.0875 -0.5361 -0.1957
11665SOL    HW135935   0.638   6.661   4.166 -1.3867 -0.0649  2.4481
11665SOL    HW235936   0.738   6.697   4.275  1.0072 -1.8143  0.9363
11666SOL     OW35937   5.896   1.515   4.430  0.3286 -0.3240  0.2246
11666SOL    HW135938   5.972   1.539   4.484  0.2421  1.5563 -0.4243
11666SOL    HW235939   5.934   1.476   4.351  0.6994  1.5032 -0.5303
11667SOL     OW35940   2.689   2.369   1.506 -0.5453  0.1281  0.2643
11667SOL    HW135941   2.753   2.423   1.460 -0.9961  0.5357  0.1110
11667SOL    HW235942   2.733   2.285   1.519  1.0513  1.2079  2.5435
11668SOL     OW35943   7.388   5.857   0.483  0.3512  0.5301 -0.0423
11668SOL    HW135944   7.469   5.897   0.516  2.1087 -2.0655 -0.9025
11668SOL    HW235945   7.415   5.808   0.406 -1.9029 -1.0600  0.0776
11669SOL     OW35946   5.793   3.280   5.853  0.6289 -0.1614  0.0427
11669SOL    HW135947   5.717   3.333   5.878  0.7716  0.8289 -1.4912
11669SOL    HW235948   5.756   3.209   5.799  0.7528  0.2278 -0.5680
11670SOL     OW35949   3.977   1.462   4.011  0.0440 -0.1802  0.2854
11670SOL    HW135950   4.040   1.533   4.000  0.1552 -0.5886 -2.6186
11670SOL    HW235951   3.962   1.429   3.922 -0.7774 -3.1358  1.3896
11671SOL     OW35952   4.302   1.935   7.348 -0.0905 -0.2875  0.3840
11671SOL    HW135953   4.386   1.961   7.385  0.8706 -1.7028 -0.7092
11671SOL    HW235954   4.246   1.920   7.424  1.4348 -1.8588  1.2700
11672SOL     OW35955   4.908   6.043   0.426 -0.3437 -0.0198  0.4752
11672SOL    HW135956   4.958   6.121   0.403 -0.8945  0.6248  1.4105
11672SOL    HW235957   4.837   6.075   0.481 -1.2785 -1.0344 -0.0991
11673SOL     OW35958   7.003   1.942   6.898 -0.0975 -0.4749 -0.1407
11673SOL    HW135959   7.056   1.887   6.955 -0.9516 -0.3053  0.8325
11673SOL    HW235960   6.915   1.907   6.904 -0.6945  1.0747  0.6284
11674SOL     OW35961   5.946   1.670   0.071 -0.4502  0.3748  0.0252
11674SOL    HW135962   5.877   1.607   0.052 -1.7710  0.6568  3.2758
11674SOL    HW235963   5.954   1.722  -0.009 -3.0417 -0.5420 -0.9278
11675SOL     OW35964   4.735   0.888   0.472 -0.1088 -0.2999 -0.0635
11675SOL    HW135965   4.713   0.937   0.551  1.0587  0.2724 -0.0725
11675SOL    HW235966   4.830   0.876   0.477 -0.2812 -2.0892 -0.3467
11676SOL     OW35967   1.542   7.328   2.499 -0.2861  0.2263 -0.3300
11676SOL    HW135968   1.491   7.349   2.420  0.8483 -0.7153 -1.3479
11676SOL    HW235969   1.503   7.248   2.532  1.4875 -1.4611 -2.0765
11677SOL     OW35970   2.039   3.254   4.895 -0.3171 -0.2447 -0.3618
11677SOL    HW135971   2.047   3.349   4.891 -0.0445 -0.2029  0.8764
11677SOL    HW235972   1.953   3.238   4.933 -0.8189 -0.5280 -1.5609
11678SOL     OW35973   7.230   4.018   4.896 -0.0543  0.5204  0.4559
11678SOL    HW135974   7.266   4.079   4.960 -0.9919  0.5478  0.9748
11678SOL    HW235975   7.157   4.065   4.857  0.6268  0.5784 -0.7900
11679SOL     OW35976   3.446   0.606   3.607 -0.1954 -0.4905  0.2977
11679SOL    HW135977   3.454   0.554   3.527 -1.9576 -1.0839  0.4524
11679SOL    HW235978   3.364   0.655   3.595  1.9231  3.2360 -0.3510
11680SOL     OW35979   0.358   3.751   1.878  0.6989  0.3790 -0.1224
11680SOL    HW135980   0.356   3.821   1.813 -0.9756  2.0851  1.6294
11680SOL    HW235981   0.443   3.760   1.921 -0.4504  3.0862  1.7832
11681SOL     OW35982   1.551   1.086   4.188  0.3062 -0.0385 -0.5538
11681SOL    HW135983   1.567   1.063   4.097 -1.1711  0.6428 -1.0170
11681SOL    HW235984   1.589   1.173   4.198  0.9088 -0.3143 -0.3593
11682SOL     OW35985   1.050   6.013   1.843 -0.0742  0.3954 -0.1864
11682SOL    HW135986   0.970   6.017   1.791  0.0757 -2.0116 -0.7243
11682SOL    HW235987   1.022   5.988   1.931  0.1043 -1.9214 -0.7163
11683SOL     OW35988   2.164   0.861   0.575 -0.6030  0.5926 -0.4492
11683SOL    HW135989   2.132   0.831   0.490 -1.5949 -2.2119  0.8089
11683SOL    HW235990   2.089   0.905   0.615 -1.7068 -2.1535  0.7360
11684SOL     OW35991   3.060   6.501   4.911  0.0641  0.6708  1.0621
11684SOL    HW135992   3.005   6.477   4.986 -0.4479  1.6592  1.0157
11684SOL    HW235993   3.132   6.551   4.950  0.9651 -0.6331  1.1246
11685SOL     OW35994   2.952   4.923   1.315  0.0706 -0.7633  0.2382
11685SOL    HW135995   2.873   4.871   1.309  0.1121 -0.9175  0.9961
11685SOL    HW235996   3.010   4.887   1.248 -0.3363 -0.9281 -0.0235
11686SOL     OW35997   3.260   2.121   2.833  0.4995 -0.0986  0.3467
11686SOL    HW135998   3.313   2.056   2.879 -0.1024 -0.2534  0.8285
11686SOL    HW235999   3.199   2.069   2.780 -1.4919 -0.0323  2.3884
11687SOL     OW36000   6.953   6.962   6.139 -0.1034 -0.0477  0.4864
11687SOL    HW136001   7.046   6.953   6.117 -0.0444 -0.3148  0.8372
11687SOL    HW236002   6.911   6.887   6.097 -0.5565  1.3798 -1.7800
11688SOL     OW36003   5.857   7.296   6.428  0.2341 -0.3552  0.1173
11688SOL    HW136004   5.904   7.290   6.345  0.1189  0.2328  0.0029
11688SOL    HW236005   5.778   7.347   6.407 -1.2523 -2.5953 -0.0414
11689SOL     OW36006   4.539   0.461   0.653  0.1830  0.7294 -0.1546
11689SOL    HW136007   4.562   0.380   0.697  0.9726 -0.1266 -2.0219
11689SOL    HW236008   4.623   0.507   0.642  0.1702  0.4760 -1.5368
11690SOL     OW36009   7.023   4.006   2.812 -0.3150  0.0750  0.3899
11690SOL    HW136010   6.999   3.914   2.816 -2.1437  0.5594  1.4913
11690SOL    HW236011   6.983   4.039   2.732  1.0172 -0.2281 -0.4351
11691SOL     OW36012   3.474   1.786   4.987 -0.6794 -0.2634  0.9647
11691SOL    HW136013   3.463   1.872   4.948  0.9413  0.0009  1.0253
11691SOL    HW236014   3.564   1.761   4.967 -1.4114 -2.4266  0.0372
11692SOL     OW36015   1.650   5.227   7.065 -0.4435  0.1850  0.4249
11692SOL    HW136016   1.634   5.224   7.160  0.7736 -0.2101  0.6364
11692SOL    HW236017   1.658   5.135   7.040  0.9617  0.3376  0.2644
11693SOL     OW36018   3.554   6.479   6.460  0.2277 -0.4108  0.0366
11693SOL    HW136019   3.505   6.561   6.460  0.7504 -0.0956  0.2749
11693SOL    HW236020   3.508   6.424   6.522  0.7695  0.2518  1.0510
11694SOL     OW36021   1.837   2.921   2.241  0.0191 -0.4217  0.0874
11694SOL    HW136022   1.815   2.936   2.332  1.3211 -1.7009  0.6491
11694SOL    HW236023   1.800   2.996   2.194 -2.3096 -0.6782  1.3826
11695SOL     OW36024   6.322   0.432   5.915  0.3746 -0.3512 -0.0510
11695SOL    HW136025   6.301   0.424   6.008  3.0825 -1.4567  0.5390
11695SOL    HW236026   6.416   0.449   5.913  0.3202  0.0130 -2.6046
11696SOL     OW36027   1.352   2.743   0.553 -0.4298 -0.9500 -0.0390
11696SOL    HW136028   1.424   2.797   0.585 -1.3290  0.8529 -0.8712
11696SOL    HW236029   1.273   2.786   0.588 -1.1704 -2.1668 -0.1455
11697SOL     OW36030   3.502   4.997   3.882  0.3700 -0.5676 -0.0381
11697SOL    HW136031   3.583   5.034   3.916 -1.4673  1.6057  2.4026
11697SOL    HW236032   3.494   4.912   3.927  1.2905 -0.8411 -0.3702
11698SOL     OW36033   5.634   6.645   5.266  0.1016  0.0235 -0.5999
11698SOL    HW136034   5.712   6.672   5.314 -0.1657 -0.5194  0.1673
11698SOL    HW236035   5.619   6.554   5.294 -1.7385  0.6307  0.5613
11699SOL     OW36036   0.120   0.758   6.146 -0.4714  0.3829 -0.0222
11699SOL    HW136037   0.079   0.816   6.082  1.2884  2.1005  0.3232
11699SOL    HW236038   0.081   0.783   6.230 -1.1389 -0.3154 -0.1163
11700SOL     OW36039   6.485   2.885   3.367 -0.0253 -0.0598  0.2733
11700SOL    HW136040   6.527   2.805   3.334 -0.6541 -0.4917  0.4968
11700SOL    HW236041   6.476   2.870   3.461  0.6313  0.6446  0.4533
11701SOL     OW36042   6.535   2.959   6.230 -0.2621  0.0865 -0.2029
11701SOL    HW136043   6.627   2.983   6.245 -0.0720 -1.1698  0.7575
11701SOL    HW236044   6.503   3.025   6.169  1.2475  0.6138 -0.4589
11702SOL     OW36045   5.760   4.051   4.951  0.5963 -0.3253  0.3145
11702SOL    HW136046   5.745   4.074   5.043  1.4231  1.7049 -0.0187
11702SOL    HW236047   5.836   4.102   4.925 -0.0472 -0.3124 -1.7134
11703SOL     OW36048   2.338   0.598   2.590 -0.3051 -0.3173 -0.2396
11703SOL    HW136049   2.406   0.594   2.657 -0.7049  2.9064  0.5024
11703SOL    HW236050   2.384   0.629   2.512 -0.6680  0.6564 -0.0777
11704SOL     OW36051   6.395   7.189   1.970  0.0726  0.3960 -0.1814
11704SOL    HW136052   6.362   7.100   1.977 -0.3102  0.0569 -3.9855
11704SOL    HW236053   6.317   7.243   1.961  0.2988  0.5390 -1.7112
11705SOL     OW36054   1.413   5.306   1.028  0.4130 -0.7345 -0.0965
11705SOL    HW136055   1.324   5.272   1.013  0.4182 -0.1667 -1.5286
11705SOL    HW236056   1.460   5.286   0.948  0.9658  0.9030 -0.2171
11706SOL     OW36057   2.407   4.377   2.252 -0.0041 -0.4174 -0.0492
11706SOL    HW136058   2.379   4.468   2.255 -0.2183 -0.4925  0.3765
11706SOL    HW236059   2.501   4.382   2.231  0.0420 -0.0860  0.2152
11707SOL     OW36060   5.055   6.377   6.708  0.1084  0.1316 -0.3145
11707SOL    HW136061   4.996   6.417   6.644  0.9652  0.6950 -0.7685
11707SOL    HW236062   5.123   6.443   6.723  0.1540 -0.1641  0.8624
11708SOL     OW36063   6.535   1.419   4.834  0.4991 -0.3922 -0.0695
11708SOL    HW136064   6.489   1.340   4.862  0.4042 -0.4839 -0.4768
11708SOL    HW236065   6.602   1.433   4.901 -0.5704  0.1438  0.9107
11709SOL     OW36066   3.812   3.847   2.629  0.3510  0.2452 -0.0517
11709SOL    HW136067   3.760   3.767   2.641  1.2632 -0.2578  0.6336
11709SOL    HW236068   3.799   3.870   2.537  1.0352 -1.3887 -0.6063
11710SOL     OW36069   6.748   5.212   5.576 -0.6432 -0.1825  0.3535
11710SOL    HW136070   6.709   5.137   5.621  2.1270 -2.5879 -0.9321
11710SOL    HW236071   6.772   5.272   5.646 -3.5037 -0.0650  1.3808
11711SOL     OW36072   4.160   4.342   3.694 -0.5701 -0.1673  0.7549
11711SOL    HW136073   4.221   4.320   3.624 -1.0574  1.0770 -0.0828
11711SOL    HW236074   4.121   4.258   3.718 -1.2882 -0.4776 -1.3214
11712SOL     OW36075   0.581   5.325   1.385 -0.1266 -0.0399  0.4612
11712SOL    HW136076   0.535   5.366   1.312 -0.5106 -0.5516  0.4080
11712SOL    HW236077   0.673   5.343   1.368 -0.2049 -0.2011 -0.1820
11713SOL     OW36078   0.624   1.092   3.356  0.3942  0.0715  0.2174
11713SOL    HW136079   0.681   1.021   3.329  0.2998 -0.1258  0.5273
11713SOL    HW236080   0.676   1.141   3.420  1.9602  2.5634 -2.6906
11714SOL     OW36081   4.487   4.262   0.598  0.0382  0.3185 -0.8096
11714SOL    HW136082   4.497   4.345   0.645  1.1425  0.3869 -1.1490
11714SOL    HW236083   4.555   4.205   0.634 -0.2652 -0.2129 -1.0643
11715SOL     OW36084   7.314   3.619   2.340 -0.3862 -0.3757  1.4125
11715SOL    HW136085   7.354   3.571   2.267  0.9902  0.7336  1.3866
11715SOL    HW236086   7.373   3.604   2.414 -0.6151  0.2514  1.7284
11716SOL     OW36087   6.326   4.650   0.728 -0.0624  0.1720 -0.1028
11716SOL    HW136088   6.384   4.724   0.743 -0.9186  1.1403 -1.3241
11716SOL    HW236089   6.239   4.681   0.755 -0.3842 -0.4769 -0.3486
11717SOL     OW36090   5.820   1.598   4.004  0.0688 -0.3565  0.3675
11717SOL    HW136091   5.777   1.569   3.924  0.3439  1.1807 -0.3664
11717SOL    HW236092   5.869   1.676   3.979  0.6166 -0.1622  1.9124
11718SOL     OW36093   7.300   4.820   3.128  0.4592  0.6853  0.4424
11718SOL    HW136094   7.230   4.759   3.103  0.5932  0.4318  0.6761
11718SOL    HW236095   7.266   4.866   3.204 -0.2460  1.9846 -0.6144
11719SOL     OW36096   0.346   5.523   1.984 -0.3650 -0.3268 -0.5318
11719SOL    HW136097   0.435   5.489   1.993 -0.0152  0.6802 -0.1183
11719SOL    HW236098   0.325   5.510   1.891 -0.4376 -2.0948 -0.3054
11720SOL     OW36099   5.484   5.658   5.398  0.1288 -0.5314 -0.2861
11720SOL    HW136100   5.525   5.654   5.312 -0.0530  0.7795 -0.4580
11720SOL    HW236101   5.556   5.669   5.459  0.1935 -0.5812 -0.3542
11721SOL     OW36102   4.004   5.699   4.344  0.4839 -0.2678 -0.1073
11721SOL    HW136103   4.055   5.649   4.409 -0.2055 -1.3531 -0.3780
11721SOL    HW236104   3.931   5.734   4.394  0.5943 -0.1082 -0.0578
11722SOL     OW36105   0.512   2.160   5.546 -0.5606  0.3122 -0.3102
11722SOL    HW136106   0.549   2.187   5.631 -0.7461  1.1040 -0.4695
11722SOL    HW236107   0.502   2.242   5.498  0.3355 -0.2042 -1.4287
11723SOL     OW36108   3.997   5.608   1.245 -0.0422  0.4832  0.2769
11723SOL    HW136109   3.902   5.615   1.230 -0.3457 -1.2127  1.1323
11723SOL    HW236110   4.017   5.516   1.226  1.2361  0.5611  1.1508
11724SOL     OW36111   4.981   4.123   2.549  0.0755 -0.2386  0.0454
11724SOL    HW136112   5.010   4.090   2.634  1.0936  1.6248  0.4739
11724SOL    HW236113   4.919   4.193   2.570  1.8991  1.6918 -0.5942
11725SOL     OW36114   1.773   3.383   1.072  0.0419 -0.1060 -0.3353
11725SOL    HW136115   1.848   3.407   1.127  0.8416 -0.6699 -1.1396
11725SOL    HW236116   1.788   3.429   0.989  0.4743 -1.6118 -1.1341
11726SOL     OW36117   2.821   3.671   2.419 -0.3999 -0.7499 -0.1032
11726SOL    HW136118   2.808   3.600   2.355 -2.2125  0.2259 -0.8886
11726SOL    HW236119   2.832   3.749   2.365  1.4935 -0.3730  0.7552
11727SOL     OW36120   5.703   2.973   5.325  0.1083 -0.6045  0.6054
11727SOL    HW136121   5.790   2.955   5.359  0.2197 -2.2176 -0.4108
11727SOL    HW236122   5.718   3.019   5.242 -0.0691  0.3073  1.0617
11728SOL     OW36123   1.337   0.014   0.273  0.0784  0.3632 -0.1125
11728SOL    HW136124   1.284   0.089   0.302 -0.3004 -0.0682  0.3291
11728SOL    HW236125   1.416   0.018   0.326  0.4481  0.9359 -0.6852
11729SOL     OW36126   7.131   1.472   7.126 -0.0737  0.0772 -0.1961
11729SOL    HW136127   7.083   1.397   7.092  0.2716  0.4934 -1.7026
11729SOL    HW236128   7.177   1.439   7.203 -1.7780 -0.6343  0.5619
11730SOL     OW36129   0.500   5.720   5.054 -0.3852 -0.0975  0.5299
11730SOL    HW136130   0.426   5.775   5.081 -0.7764 -0.3203 -0.0737
11730SOL    HW236131   0.463   5.661   4.989 -0.1209 -1.4709  1.5728
11731SOL     OW36132   6.182   5.060   5.836  0.8339  0.1428 -0.4075
11731SOL    HW136133   6.134   5.071   5.753 -3.5521  1.2000  1.9446
11731SOL    HW236134   6.223   5.144   5.852 -1.1364  1.0961 -0.0528
11732SOL     OW36135   0.911   2.641   6.040  0.0583 -0.1123  0.1320
11732SOL    HW136136   0.936   2.569   6.098  1.5524  0.8931  0.8052
11732SOL    HW236137   0.888   2.713   6.098 -2.2359 -0.2426 -0.5233
11733SOL     OW36138   4.238   0.580   3.201 -0.2070 -0.5306  0.2260
11733SOL    HW136139   4.283   0.664   3.207  1.1371 -1.1558 -0.6082
11733SOL    HW236140   4.159   0.599   3.149 -1.0554  0.6101  1.8496
11734SOL     OW36141   5.954   1.852   3.775 -0.2957  0.3871 -0.3781
11734SOL    HW136142   5.885   1.842   3.710 -2.1563 -0.7211  1.6395
11734SOL    HW236143   5.923   1.922   3.833 -0.0175 -0.4743  0.8515
11735SOL     OW36144   3.027   3.500   5.916  0.1738 -0.0184 -0.1580
11735SOL    HW136145   2.980   3.549   5.848  1.2811 -0.3881 -1.2300
11735SOL    HW236146   2.974   3.422   5.930 -0.5090  0.4676  0.0425
11736SOL     OW36147   6.781   1.406   6.894 -0.2272  0.5599  0.0188
11736SOL    HW136148   6.846   1.349   6.935 -0.1057  1.2468  0.8099
11736SOL    HW236149   6.832   1.472   6.848 -0.3606  1.0640  0.5878
11737SOL     OW36150   2.592   2.969   2.771  0.1259  0.7044 -0.3772
11737SOL    HW136151   2.577   2.876   2.756  2.4878  0.1764  0.0385
11737SOL    HW236152   2.622   3.002   2.686 -0.1466  0.9587 -0.3745
11738SOL     OW36153   4.241   3.423   3.016 -0.5684  0.6254  0.5509
11738SOL    HW136154   4.289   3.427   2.933  1.1919  2.4228  1.5691
11738SOL    HW236155   4.178   3.352   3.004  0.9344 -0.4430 -1.6136
11739SOL     OW36156   3.889   3.386   3.669  0.0321  0.3121  0.7605
11739SOL    HW136157   3.955   3.317   3.670 -1.7024 -1.6437 -1.9568
11739SOL    HW236158   3.937   3.465   3.645  1.4750 -1.0089 -1.0237
11740SOL     OW36159   1.358   2.526   3.078 -0.7798 -0.8816 -0.3379
11740SOL    HW136160   1.397   2.442   3.104  1.0976  0.4368  1.3906
11740SOL    HW236161   1.406   2.552   3.000  0.2956 -0.3521  0.4727
11741SOL     OW36162   6.707   0.907   7.166 -0.3046  0.5126  0.3421
11741SOL    HW136163   6.660   0.855   7.101  3.0411 -1.3549 -0.8137
11741SOL    HW236164   6.638   0.953   7.214 -3.3655 -2.8530 -0.4021
11742SOL     OW36165   0.395   2.723   6.639 -0.3113  0.2223 -0.4030
11742SOL    HW136166   0.346   2.801   6.614 -1.6834 -1.1148 -2.1041
11742SOL    HW236167   0.479   2.757   6.672 -1.3816  2.4410  0.2097
11743SOL     OW36168   5.991   6.280   2.567 -0.4489 -0.2042  0.3808
11743SOL    HW136169   6.004   6.200   2.617 -1.7481 -0.4274  0.3923
11743SOL    HW236170   5.929   6.256   2.498 -0.3834  0.6382  0.0079
11744SOL     OW36171   4.847   5.898   6.819  0.1635 -0.4262 -0.1474
11744SOL    HW136172   4.835   5.925   6.910  0.2956  1.2185 -0.5938
11744SOL    HW236173   4.853   5.980   6.769  0.0853 -1.2853 -1.6486
11745SOL     OW36174   3.761   3.701   5.749 -0.1954 -0.1511 -0.1845
11745SOL    HW136175   3.666   3.699   5.759 -0.3747  0.7744 -1.4239
11745SOL    HW236176   3.774   3.709   5.654  1.0684  1.3477  0.0780
11746SOL     OW36177   2.040   0.410   1.764 -0.2536 -0.2153 -0.8268
11746SOL    HW136178   1.963   0.374   1.720  1.7884 -0.2286 -4.8264
11746SOL    HW236179   2.099   0.336   1.773  0.3616  0.3199 -0.4030
11747SOL     OW36180   6.778   1.795   7.275  0.1731  0.6251  0.2569
11747SOL    HW136181   6.836   1.864   7.306  1.6832 -0.6598  0.3562
11747SOL    HW236182   6.831   1.716   7.276 -0.9681 -0.2342 -1.5680
11748SOL     OW36183   4.865   6.101   5.128  0.2865 -0.2859  0.9555
11748SOL    HW136184   4.826   6.169   5.183  2.1858  2.1992 -0.5900
11748SOL    HW236185   4.933   6.062   5.182 -0.0119 -0.1265  1.4495
11749SOL     OW36186   0.420   6.195   6.232  0.2875  0.0242 -0.5043
11749SOL    HW136187   0.397   6.149   6.152  1.1802 -1.3062 -0.0316
11749SOL    HW236188   0.337   6.212   6.275 -0.0572 -2.0628 -0.2305
11750SOL     OW36189   3.332   0.541   2.074 -0.4925 -0.0577 -0.2267
11750SOL    HW136190   3.399   0.554   2.007  1.1873 -1.5375  1.0649
11750SOL    HW236191   3.342   0.615   2.133  0.6543 -0.7127  0.4339
11751SOL     OW36192   3.909   6.057   6.828 -0.0458  0.6516 -0.3972
11751SOL    HW136193   3.920   6.019   6.741  1.0323 -0.2077  0.0878
11751SOL    HW236194   3.920   6.151   6.814  1.8704  0.3924 -0.9612
11752SOL     OW36195   1.802   6.323   6.731 -0.1803  0.2293 -0.8031
11752SOL    HW136196   1.840   6.408   6.749 -0.3253 -0.0351  0.8665
11752SOL    HW236197   1.869   6.277   6.680  1.0409  0.3959  0.5908
11753SOL     OW36198   0.717   2.556   2.239  0.4433 -0.6863  0.4639
11753SOL    HW136199   0.730   2.640   2.196  0.8160 -1.4642 -1.0080
11753SOL    HW236200   0.626   2.558   2.269  0.3752  0.1411  0.2152
11754SOL     OW36201   4.273   0.180   4.104 -0.1579  0.1075 -0.3757
11754SOL    HW136202   4.269   0.180   4.008 -0.9295 -1.3906 -0.3726
11754SOL    HW236203   4.199   0.127   4.131 -0.8431  1.7159  1.1336
11755SOL     OW36204   4.762   6.380   6.031 -0.8232 -0.5203 -0.0182
11755SOL    HW136205   4.672   6.410   6.021 -0.1924  0.9478 -2.1097
11755SOL    HW236206   4.780   6.332   5.950  0.5966  0.2076 -0.1644
11756SOL     OW36207   4.646   4.405   2.028 -0.5090 -0.1846  0.7335
11756SOL    HW136208   4.598   4.406   1.945 -1.7201 -0.3219  1.4243
11756SOL    HW236209   4.698   4.324   2.024  1.7347  1.1864 -1.1197
11757SOL     OW36210   5.394   1.768   7.206 -0.3757 -0.1764  0.0983
11757SOL    HW136211   5.393   1.677   7.177 -1.3327 -0.1166 -0.0955
11757SOL    HW236212   5.311   1.779   7.254 -0.1564  0.5179  0.3318
11758SOL     OW36213   0.102   5.083   5.310  0.5892  0.7937 -0.5232
11758SOL    HW136214   0.144   5.163   5.342 -0.0439  0.9847 -0.1452
11758SOL    HW236215   0.083   5.101   5.218  1.5157  0.6227 -0.7559
11759SOL     OW36216   0.085   5.584   6.016 -0.2806  0.1637 -0.2799
11759SOL    HW136217   0.119   5.599   6.104  0.5565 -0.0432 -0.5567
11759SOL    HW236218   0.140   5.515   5.980  0.6780  1.5524 -1.6499
11760SOL     OW36219   7.010   2.635   7.019 -0.0486  0.4124 -0.0104
11760SOL    HW136220   7.084   2.596   6.973  0.3146 -0.2680  1.1248
11760SOL    HW236221   6.939   2.571   7.009 -0.1584  0.5482 -0.1259
11761SOL     OW36222   1.952   1.362   2.312 -0.4564 -1.2282  0.4281
11761SOL    HW136223   1.909   1.378   2.396  1.4295 -0.8424  1.3716
11761SOL    HW236224   2.037   1.406   2.320 -1.0285  0.6832 -2.4888
11762SOL     OW36225   1.914   0.405   3.492 -0.3171 -0.3813 -0.1477
11762SOL    HW136226   1.916   0.314   3.521  0.8929  0.0667  1.2832
11762SOL    HW236227   2.000   0.421   3.453 -0.2683  0.3281  0.2302
11763SOL     OW36228   3.567   0.949   2.679 -0.0020 -0.2258  0.4089
11763SOL    HW136229   3.547   0.883   2.613 -1.0729  0.2442  0.2356
11763SOL    HW236230   3.534   0.913   2.761 -0.3022 -0.0534  0.3676
11764SOL     OW36231   7.370   3.417   0.058  0.2564  0.4277 -0.2258
11764SOL    HW136232   7.377   3.365   0.138  0.5579  0.2746 -0.3504
11764SOL    HW236233   7.277   3.413   0.035  0.6024 -2.0415 -1.5270
11765SOL     OW36234   2.254   1.981   0.336  0.0315 -0.3143  0.6984
11765SOL    HW136235   2.219   2.051   0.281  0.8205  0.2505  0.9034
11765SOL    HW236236   2.184   1.915   0.338 -0.5362  0.2568  0.1296
11766SOL     OW36237   4.382   6.053   1.247  0.1765 -0.0410  0.2099
11766SOL    HW136238   4.309   6.000   1.278  0.2218 -0.4930 -0.4618
11766SOL    HW236239   4.390   6.122   1.313  0.5265 -1.2130  1.4464
11767SOL     OW36240   4.259   6.885   3.413  0.0038  0.4713 -0.3622
11767SOL    HW136241   4.252   6.851   3.323  0.7547 -2.0316  0.4398
11767SOL    HW236242   4.225   6.974   3.407 -2.4174 -0.4552 -2.6468
11768SOL     OW36243   4.534   1.226   2.041 -0.1069 -0.8650 -0.3917
11768SOL    HW136244   4.571   1.314   2.026 -1.1495  0.2846  2.8462
11768SOL    HW236245   4.440   1.240   2.044 -0.2026 -1.4182  3.0410
11769SOL     OW36246   2.080   3.386   6.095  0.6136  0.4004  0.7373
11769SOL    HW136247   2.144   3.318   6.114 -0.1449 -0.2376  1.0417
11769SOL    HW236248   2.065   3.378   6.000  1.7909  1.2907  0.4435
11770SOL     OW36249   2.257   0.218   1.363  0.4738 -0.0844 -0.1973
11770SOL    HW136250   2.288   0.138   1.320 -0.2647  0.0541 -1.0050
11770SOL    HW236251   2.270   0.287   1.298  1.8995  0.6270  0.7947
11771SOL     OW36252   1.831   1.346   2.532  0.1703  0.2261 -0.6302
11771SOL    HW136253   1.770   1.412   2.565 -0.3823 -0.6100  0.0593
11771SOL    HW236254   1.873   1.310   2.610  1.1780  0.4182 -1.0640
11772SOL     OW36255   3.834   5.161   2.344 -0.0864  0.1224 -0.0216
11772SOL    HW136256   3.767   5.112   2.392 -0.0585  1.6260  1.6338
11772SOL    HW236257   3.797   5.249   2.335  0.4550  0.2125 -1.6868
11773SOL     OW36258   7.047   3.200   1.054 -0.0801 -0.1231  0.2789
11773SOL    HW136259   6.951   3.194   1.046 -0.2260  0.2378  1.5031
11773SOL    HW236260   7.061   3.243   1.138  1.1735 -0.6550  0.3604
11774SOL     OW36261   2.257   7.164   4.014 -0.2656 -0.9043 -0.1791
11774SOL    HW136262   2.323   7.126   3.956  0.1969  1.0081 -0.9755
11774SOL    HW236263   2.176   7.163   3.963 -0.0201  0.1036 -0.6091
11775SOL     OW36264   1.390   1.551   6.767 -0.2480 -0.1429  0.0112
11775SOL    HW136265   1.479   1.574   6.795  0.4082 -0.5611 -1.5966
11775SOL    HW236266   1.365   1.621   6.707 -0.1631 -1.0586 -1.1389
11776SOL     OW36267   2.101   3.961   0.087  0.1589  0.2336 -0.2169
11776SOL    HW136268   2.020   3.923   0.120 -0.3692  0.8025 -0.8130
11776SOL    HW236269   2.158   3.887   0.070 -0.0793 -0.1458  0.6250
11777SOL     OW36270   4.229   1.207   3.929 -0.0845  0.1650 -0.3909
11777SOL    HW136271   4.291   1.160   3.985 -1.6576 -2.3242 -0.5935
11777SOL    HW236272   4.144   1.192   3.970 -1.1708 -0.9748 -2.8768
11778SOL     OW36273   1.276   0.791   4.881  0.4406 -0.2452 -1.0078
11778SOL    HW136274   1.225   0.717   4.914 -0.3117  1.3063  1.6293
11778SOL    HW236275   1.349   0.751   4.834 -0.6748 -2.6122 -0.8661
11779SOL     OW36276   6.169   2.974   1.838 -0.3202  0.1803  0.2586
11779SOL    HW136277   6.202   2.972   1.928  2.3232  0.1090 -0.6269
11779SOL    HW236278   6.145   3.066   1.823  1.6545  0.7331  0.2747
11780SOL     OW36279   5.273   2.269   6.131  0.0056 -0.0804  0.1517
11780SOL    HW136280   5.239   2.182   6.156  1.1849 -0.4072  0.6697
11780SOL    HW236281   5.366   2.264   6.149  0.1156  1.2525  0.0046
11781SOL     OW36282   1.353   6.413   0.723 -0.0098  0.0766 -0.1561
11781SOL    HW136283   1.368   6.506   0.744 -3.6795  0.5421  1.0279
11781SOL    HW236284   1.362   6.409   0.628  0.8387  1.4721 -0.1730
11782SOL     OW36285   6.216   4.951   6.581  0.2016  0.0780 -0.3109
11782SOL    HW136286   6.288   4.889   6.584 -0.2078 -0.4145 -0.5411
11782SOL    HW236287   6.256   5.034   6.556  0.5927 -0.3317 -1.0594
11783SOL     OW36288   4.235   0.832   0.977  0.0907 -0.1324  0.0469
11783SOL    HW136289   4.169   0.898   0.960  0.7122  0.6406  0.5589
11783SOL    HW236290   4.267   0.807   0.890  0.4117  0.8260 -0.1133
11784SOL     OW36291   5.044   0.099   0.961  0.6150 -0.1800 -0.6542
11784SOL    HW136292   5.085   0.163   0.903 -0.9677 -0.6413 -2.3505
11784SOL    HW236293   5.076   0.015   0.931  2.5509 -0.3070  1.4606
11785SOL     OW36294   0.244   1.195   0.816  0.3958 -0.0637  0.0145
11785SOL    HW136295   0.204   1.163   0.897 -1.4404  0.6769 -0.5203
11785SOL    HW236296   0.170   1.233   0.767  1.9161  2.3090 -0.6331
11786SOL     OW36297   1.269   0.928   6.436  0.0209  0.4676  0.5020
11786SOL    HW136298   1.176   0.911   6.429  0.0176  0.7331 -0.2250
11786SOL    HW236299   1.310   0.862   6.380  0.1971  0.9618  0.0397
11787SOL     OW36300   0.123   4.474   3.281 -0.0064  0.6829  0.1349
11787SOL    HW136301   0.154   4.559   3.249  0.1962  0.9135  0.9227
11787SOL    HW236302   0.135   4.479   3.376  1.7043 -0.8847  0.0596
11788SOL     OW36303   2.116   1.800   3.294  0.2155 -0.2517 -0.1854
11788SOL    HW136304   2.130   1.743   3.219  2.0857 -0.7547  0.4856
11788SOL    HW236305   2.196   1.851   3.301 -0.9089  1.5894 -0.0032
11789SOL     OW36306   4.248   4.028   0.994 -0.0920 -0.0561 -0.5195
11789SOL    HW136307   4.233   3.943   1.034  0.1289 -0.6584 -1.6704
11789SOL    HW236308   4.341   4.047   1.012 -0.6139  0.8718  1.4078
11790SOL     OW36309   1.391   4.935   2.762 -0.3012 -0.4001  0.5648
11790SOL    HW136310   1.296   4.940   2.747 -0.1600  1.2662 -0.0462
11790SOL    HW236311   1.426   4.891   2.685 -0.5398 -0.6288  0.5877
11791SOL     OW36312   7.034   7.218   3.223 -0.3499 -0.1318 -0.3984
11791SOL    HW136313   7.070   7.213   3.312 -0.4333 -1.3021 -0.4161
11791SOL    HW236314   7.099   7.268   3.174 -0.4106  0.7098  0.3684
11792SOL     OW36315   5.343   6.280   4.389  0.2970 -0.7600  0.0476
11792SOL    HW136316   5.262   6.331   4.391  0.1505 -1.0147  1.0656
11792SOL    HW236317   5.365   6.273   4.296  0.5288  1.4778 -0.1207
11793SOL     OW36318   4.869   1.228   3.055  0.1685 -0.0188  0.4513
11793SOL    HW136319   4.791   1.280   3.075 -0.1683 -1.4619  3.5562
11793SOL    HW236320   4.844   1.138   3.073  1.8711 -0.8432 -0.9446
11794SOL     OW36321   5.662   4.724   6.598 -0.1398  0.5549 -0.1088
11794SOL    HW136322   5.622   4.790   6.654 -0.5541  1.6828 -1.6850
11794SOL    HW236323   5.736   4.690   6.650 -1.1439  0.7589  1.5320
11795SOL     OW36324   1.328   6.652   5.020  0.3547  0.9469 -0.4192
11795SOL    HW136325   1.268   6.633   5.093  1.2821 -0.3376  0.0478
11795SOL    HW236326   1.410   6.610   5.045  1.5955  2.9363 -0.8966
11796SOL     OW36327   4.801   3.960   1.010  0.4774 -0.4679  0.1663
11796SOL    HW136328   4.886   3.924   0.984  0.1979 -0.3664 -0.9173
11796SOL    HW236329   4.790   4.038   0.957 -0.3322 -0.5206  0.2360
11797SOL     OW36330   4.183   2.200   4.445 -0.0564  0.3717 -0.5033
11797SOL    HW136331   4.266   2.175   4.487  0.2747 -0.4776 -1.6156
11797SOL    HW236332   4.188   2.162   4.357 -1.9144 -0.2774 -0.3751
11798SOL     OW36333   4.651   1.867   0.340 -0.3418 -0.0810 -0.0792
11798SOL    HW136334   4.734   1.860   0.293  0.6869 -1.4961  1.8409
11798SOL    HW236335   4.587   1.825   0.282  0.4753  0.0461 -1.0932
11799SOL     OW36336   6.548   7.375   6.131 -0.1941 -0.8526  0.0901
11799SOL    HW136337   6.546   7.427   6.051 -0.0966 -1.2617 -0.1820
11799SOL    HW236338   6.541   7.284   6.100 -3.2230 -0.9359  0.6641
11800SOL     OW36339   1.660   5.483   7.047  0.0717 -0.5081  0.4660
11800SOL    HW136340   1.643   5.389   7.043  1.7453 -0.8013 -1.7466
11800SOL    HW236341   1.659   5.511   6.955 -0.8348  1.7421  1.1075
11801SOL     OW36342   4.390   2.072   4.564  0.2308  0.6098  0.1317
11801SOL    HW136343   4.479   2.069   4.601  1.2239 -2.8929 -2.0520
11801SOL    HW236344   4.332   2.064   4.640  1.9782 -1.3297  1.3650
11802SOL     OW36345   1.700   1.834   4.112 -0.3287  0.0047  0.1413
11802SOL    HW136346   1.616   1.790   4.127  0.6404 -1.2949  2.2128
11802SOL    HW236347   1.759   1.763   4.085  0.9854  0.1589  2.4229
11803SOL     OW36348   1.336   1.788   4.404  0.1337  0.0986  0.5688
11803SOL    HW136349   1.256   1.794   4.353  2.0907  1.5187 -2.6406
11803SOL    HW236350   1.345   1.873   4.446  2.8110  2.5872 -4.1923
11804SOL     OW36351   4.866   3.347   7.270  0.1631  0.1514  0.0033
11804SOL    HW136352   4.839   3.302   7.189 -0.7617  0.7947 -0.0632
11804SOL    HW236353   4.800   3.321   7.334  1.0031 -0.5057  0.6118
11805SOL     OW36354   5.550   3.560   4.969  0.4268  0.0009 -0.2385
11805SOL    HW136355   5.622   3.622   4.985  1.7748 -1.6075  0.1585
11805SOL    HW236356   5.498   3.602   4.901  1.1423  1.6872  0.1925
11806SOL     OW36357   4.589   3.466   1.633 -0.0784  0.2899 -0.0691
11806SOL    HW136358   4.622   3.556   1.626 -0.9673  0.5765 -0.7339
11806SOL    HW236359   4.643   3.427   1.702  0.9557  1.0366 -0.4158
11807SOL     OW36360   6.144   4.636   4.535  0.5910 -0.3786 -0.3256
11807SOL    HW136361   6.133   4.731   4.539 -1.1794 -0.5881  1.8664
11807SOL    HW236362   6.215   4.622   4.472 -0.4127  2.2682 -2.1939
11808SOL     OW36363   4.451   4.731   4.425 -0.1882  0.0836  0.7931
11808SOL    HW136364   4.523   4.784   4.459 -0.5405  0.6396  0.6904
11808SOL    HW236365   4.421   4.680   4.500  1.0625 -1.0253  0.5658
11809SOL     OW36366   4.717   6.225   1.409 -0.1595 -0.2993  0.1754
11809SOL    HW136367   4.704   6.274   1.490  0.4731  2.3638 -1.2433
11809SOL    HW236368   4.794   6.171   1.426  0.2027  0.4986  1.2128
11810SOL     OW36369   3.913   1.817   3.135 -0.6495 -0.1453  0.5230
11810SOL    HW136370   3.970   1.876   3.085 -1.5831 -0.7002 -1.2988
11810SOL    HW236371   3.959   1.733   3.133 -0.5953 -0.1204  0.7626
11811SOL     OW36372   0.386   0.537   4.996 -0.5148 -0.6215  0.1225
11811SOL    HW136373   0.434   0.578   5.068 -1.5690 -1.5441  1.4086
11811SOL    HW236374   0.434   0.562   4.918  1.2594 -0.3875  1.2303
11812SOL     OW36375   7.013   1.894   7.359 -0.0346  0.3263 -0.1328
11812SOL    HW136376   7.082   1.828   7.352  1.0855  1.2926  1.1655
11812SOL    HW236377   6.983   1.888   7.450 -1.1757  0.4166 -0.4858
11813SOL     OW36378   5.579   0.091   2.818 -0.4598 -0.2834  0.1964
11813SOL    HW136379   5.640   0.080   2.746  0.2462 -1.0467  0.8922
11813SOL    HW236380   5.498   0.050   2.788  0.2068 -1.7291  0.2897
11814SOL     OW36381   3.473   7.164   1.160 -0.0779 -0.0946 -0.1114
11814SOL    HW136382   3.418   7.209   1.095  0.3101 -0.0240 -0.3921
11814SOL    HW236383   3.492   7.230   1.226  0.8398  0.2705 -0.7383
11815SOL     OW36384   6.158   7.313   1.122  0.5742 -0.2550  0.1496
11815SOL    HW136385   6.177   7.344   1.033 -1.0418 -1.1114 -0.5203
11815SOL    HW236386   6.069   7.278   1.118  0.1133  0.4798  2.3308
11816SOL     OW36387   0.385   3.866   5.694 -0.6428  0.1362 -0.6878
11816SOL    HW136388   0.315   3.803   5.679 -2.2677  1.7038 -0.0780
11816SOL    HW236389   0.356   3.916   5.771  1.6083  0.2483  0.1688
11817SOL     OW36390   5.631   3.900   3.293  0.2837  0.7595  0.2158
11817SOL    HW136391   5.588   3.919   3.377  0.3046  0.9033  0.1941
11817SOL    HW236392   5.664   3.811   3.303 -0.6535  0.3655 -0.0253
11818SOL     OW36393   4.043   0.143   3.947 -0.1070 -0.2295 -0.0222
11818SOL    HW136394   4.051   0.232   3.982  1.1380 -0.2213 -0.2547
11818SOL    HW236395   3.959   0.112   3.978 -0.2998  0.8214  0.5564
11819SOL     OW36396   2.631   3.106   7.367  0.4065 -0.0400 -0.0994
11819SOL    HW136397   2.587   3.045   7.307  1.3874 -1.7012  0.8042
11819SOL    HW236398   2.563   3.130   7.430 -0.4127  1.0790 -1.3495
11820SOL     OW36399   3.217   4.296   0.526 -0.7359 -0.1997  0.2082
11820SOL    HW136400   3.277   4.238   0.478 -0.5693 -0.2062  0.4225
11820SOL    HW236401   3.207   4.372   0.469 -1.3430 -0.6472 -0.3011
11821SOL     OW36402   7.204   1.656   4.365 -0.3281  0.4487 -0.5358
11821SOL    HW136403   7.140   1.585   4.361 -0.7273  0.6878  0.9688
11821SOL    HW236404   7.209   1.689   4.275 -1.6501 -0.1738 -0.8642
11822SOL     OW36405   4.939   0.853   0.663 -0.0112  0.0342  0.2431
11822SOL    HW136406   4.949   0.805   0.746 -1.1362  0.7600  0.8149
11822SOL    HW236407   5.010   0.917   0.665 -1.0324  1.1887  1.4827
11823SOL     OW36408   3.688   3.636   4.659 -0.4383 -0.0782 -0.6617
11823SOL    HW136409   3.679   3.642   4.754  2.3468  2.0610 -0.3790
11823SOL    HW236410   3.600   3.617   4.627 -1.5551 -0.3890  2.2901
11824SOL     OW36411   6.121   2.312   1.473  0.3955 -0.0457  0.4268
11824SOL    HW136412   6.162   2.397   1.454 -1.1658  1.1312  2.0592
11824SOL    HW236413   6.088   2.282   1.388 -2.6617  3.0322  0.2946
11825SOL     OW36414   6.937   3.309   2.483  0.1972  0.4449  0.3206
11825SOL    HW136415   6.981   3.305   2.398 -0.4474 -0.6879  0.0042
11825SOL    HW236416   6.989   3.370   2.535  0.5057  1.3001 -0.9418
11826SOL     OW36417   6.890   2.159   6.439  0.3533  0.0032 -0.3599
11826SOL    HW136418   6.916   2.251   6.429  1.5057 -0.2385  0.2293
11826SOL    HW236419   6.866   2.151   6.531  0.0365 -0.2332 -0.4641
11827SOL     OW36420   1.755   5.255   6.755  0.3200  0.6087  0.3680
11827SOL    HW136421   1.747   5.275   6.849  0.1542  0.3733  0.4036
11827SOL    HW236422   1.681   5.198   6.736  0.3092  0.7188  0.0749
11828SOL     OW36423   1.071   5.118   0.265  0.6844 -0.1646  0.2380
11828SOL    HW136424   1.040   5.201   0.228  1.2209 -0.5477 -1.1295
11828SOL    HW236425   1.143   5.143   0.323 -0.1379  0.4527  1.0081
11829SOL     OW36426   4.110   5.901   3.744  0.0913 -0.4933 -0.0265
11829SOL    HW136427   4.089   5.816   3.705 -2.3179  0.6103 -1.3421
11829SOL    HW236428   4.098   5.887   3.838  4.1636 -2.7040  0.3560
11830SOL     OW36429   0.873   7.412   6.239 -0.7193 -0.3605 -0.0669
11830SOL    HW136430   0.872   7.324   6.200  0.4961 -0.4978  0.1751
11830SOL    HW236431   0.817   7.464   6.182 -0.8388 -1.1153 -0.6535
11831SOL     OW36432   4.650   5.441   1.594  0.0323  0.4487 -0.2969
11831SOL    HW136433   4.722   5.384   1.624  1.1079  0.0973 -3.1744
11831SOL    HW236434   4.571   5.400   1.629  0.9122 -1.8995 -0.8357
11832SOL     OW36435   2.261   1.529   6.227  0.0377 -0.4984  0.2378
11832SOL    HW136436   2.246   1.582   6.148 -0.4121 -2.0786 -0.7896
11832SOL    HW236437   2.302   1.589   6.289 -0.7185  1.1173 -0.7587
11833SOL     OW36438   1.704   0.864   1.934 -0.2075 -0.5277 -0.1954
11833SOL    HW136439   1.622   0.913   1.939 -0.3488 -0.8536  1.0158
11833SOL    HW236440   1.695   0.794   1.999  1.1285 -0.4118  0.1593
11834SOL     OW36441   5.008   3.989   3.669 -0.3785 -0.1775  0.0876
11834SOL    HW136442   5.019   4.082   3.655  1.0433 -0.2187  0.7515
11834SOL    HW236443   4.980   3.981   3.761 -2.6100 -0.3107 -0.5464
11835SOL     OW36444   5.572   1.040   2.784 -0.0746  0.3631 -0.5278
11835SOL    HW136445   5.486   1.045   2.744 -0.4047  0.6670  0.1965
11835SOL    HW236446   5.555   1.014   2.875  0.6703 -0.5802 -0.6393
11836SOL     OW36447   6.504   5.825   6.454  0.2741 -0.1750  0.2027
11836SOL    HW136448   6.543   5.788   6.533 -0.0641  0.7634  0.8264
11836SOL    HW236449   6.465   5.908   6.482  0.2118  0.2207 -0.9631
11837SOL     OW36450   1.191   1.392   2.564 -0.0106  0.8222  0.1484
11837SOL    HW136451   1.254   1.320   2.555 -1.2594 -0.3723  0.7148
11837SOL    HW236452   1.245   1.471   2.563  1.5904 -0.1925  1.4039
11838SOL     OW36453   0.649   1.573   3.937  0.5979  0.0841  0.1656
11838SOL    HW136454   0.719   1.513   3.964  1.5028  0.9901 -0.0852
11838SOL    HW236455   0.624   1.544   3.849  0.6552 -0.2528  0.2609
11839SOL     OW36456   6.938   3.428   3.994  0.8418 -0.5360 -0.1017
11839SOL    HW136457   6.866   3.371   4.022  0.8410  0.0598  1.1546
11839SOL    HW236458   7.015   3.372   3.995  0.5921 -0.8881 -0.3275
11840SOL     OW36459   6.447   4.874   1.302  0.4563 -0.0852  0.2172
11840SOL    HW136460   6.528   4.893   1.254 -0.3143  0.7010 -0.8296
11840SOL    HW236461   6.382   4.859   1.233 -1.1625  2.9969  0.9002
11841SOL     OW36462   1.980   5.828   2.054 -0.0841 -0.3458 -0.3136
11841SOL    HW136463   1.997   5.891   1.984 -0.8371 -1.4225 -1.4841
11841SOL    HW236464   1.981   5.743   2.012 -0.7650 -1.0106  0.9471
11842SOL     OW36465   5.392   0.151   3.457  0.0946 -0.2846 -0.1967
11842SOL    HW136466   5.488   0.143   3.462  0.1334  0.5518  0.5513
11842SOL    HW236467   5.361   0.061   3.446  1.0106 -0.4957 -1.2918
11843SOL     OW36468   0.483   2.072   3.076 -0.6097 -0.6771  0.1104
11843SOL    HW136469   0.469   2.017   3.154  3.0353  1.5184  2.6401
11843SOL    HW236470   0.560   2.034   3.033  0.5221  0.9636  0.5799
11844SOL     OW36471   0.795   2.653   1.219  0.6888  0.1908  0.2318
11844SOL    HW136472   0.841   2.616   1.295  1.9900  0.3421 -0.4553
11844SOL    HW236473   0.790   2.581   1.157 -1.4192 -0.2754  0.8602
11845SOL     OW36474   4.824   0.248   2.315 -0.2036  0.1699  0.2088
11845SOL    HW136475   4.900   0.286   2.359 -0.0880  0.1810 -0.0002
11845SOL    HW236476   4.841   0.261   2.222 -0.1864 -0.3593  0.1390
11846SOL     OW36477   3.746   1.778   0.167  0.4463  0.6751 -0.3817
11846SOL    HW136478   3.752   1.684   0.147 -1.0581  0.0564  1.7395
11846SOL    HW236479   3.792   1.820   0.095 -1.5230 -1.5096 -3.1678
11847SOL     OW36480   5.554   0.782   3.310 -0.4370  0.3295 -0.4220
11847SOL    HW136481   5.481   0.843   3.311  1.3613  2.6536  0.9383
11847SOL    HW236482   5.547   0.736   3.394 -0.2662  0.7005 -0.1980
11848SOL     OW36483   0.142   1.851   6.467 -0.2620 -0.1457  0.4376
11848SOL    HW136484   0.112   1.941   6.478  2.2750  0.7197  0.9850
11848SOL    HW236485   0.168   1.845   6.375 -1.4697 -0.6908  0.1203
11849SOL     OW36486   4.912   7.406   0.630  0.1353  0.3985  0.7916
11849SOL    HW136487   4.925   7.343   0.701 -0.0061  0.9647  1.3280
11849SOL    HW236488   4.817   7.411   0.620  0.0547  1.8416  1.9699
11850SOL     OW36489   4.350   2.169   0.671 -0.1605 -0.0526  0.2988
11850SOL    HW136490   4.315   2.211   0.592  0.8410 -0.6595 -0.4969
11850SOL    HW236491   4.436   2.210   0.684  0.5489 -1.3462 -0.1140
11851SOL     OW36492   4.108   4.617   5.293  0.3934 -0.1449 -0.2032
11851SOL    HW136493   4.068   4.703   5.295  0.0776 -0.3041  0.3530
11851SOL    HW236494   4.038   4.558   5.266  0.3909 -0.3421  0.2216
11852SOL     OW36495   3.629   4.223   1.374 -0.0332 -0.3158 -0.0123
11852SOL    HW136496   3.691   4.202   1.444 -0.2352  0.8676  0.5329
11852SOL    HW236497   3.674   4.286   1.318 -1.8803  3.5261  2.4077
11853SOL     OW36498   0.629   6.988   5.033 -0.4039  0.4000 -0.0842
11853SOL    HW136499   0.564   7.057   5.036 -1.0964 -0.1925 -0.9723
11853SOL    HW236500   0.581   6.908   5.054  0.0468 -0.0369 -0.6746
11854SOL     OW36501   4.992   2.725   1.684 -0.4711  0.2860 -0.1536
11854SOL    HW136502   4.978   2.733   1.778  1.0901  1.4217  0.0176
11854SOL    HW236503   4.908   2.749   1.645 -0.3195  2.7589  0.8941
11855SOL     OW36504   5.934   5.485   5.807 -0.3571  0.7060  0.4100
11855SOL    HW136505   6.014   5.492   5.755 -0.8733 -2.9530 -1.2076
11855SOL    HW236506   5.955   5.420   5.874 -1.4504  1.1036  1.1694
11856SOL     OW36507   6.161   2.849   2.645  0.0326  0.3640  0.3907
11856SOL    HW136508   6.186   2.793   2.572 -0.7108  1.6444 -0.8898
11856SOL    HW236509   6.231   2.914   2.650  0.3642 -0.0356  1.2051
11857SOL     OW36510   1.361   5.471   1.225 -0.0041 -0.0776  0.3109
11857SOL    HW136511   1.411   5.547   1.197 -0.5835 -0.0632 -0.7347
11857SOL    HW236512   1.388   5.401   1.166 -0.3200 -0.3903  0.5306
11858SOL     OW36513   6.576   5.475   5.664  0.2897 -0.3160 -0.6912
11858SOL    HW136514   6.642   5.420   5.706 -1.8354 -0.8544  2.2406
11858SOL    HW236515   6.524   5.414   5.611  1.0347 -0.1680 -1.6313
11859SOL     OW36516   2.225   3.483   2.119 -0.1553 -0.1216 -0.2298
11859SOL    HW136517   2.320   3.496   2.127 -0.3972  1.3120  0.6492
11859SOL    HW236518   2.196   3.552   2.060 -1.0048  1.3089  1.7406
11860SOL     OW36519   1.143   6.547   1.214  0.6136  1.0273 -0.0163
11860SOL    HW136520   1.057   6.573   1.246  0.4446  0.3948  0.0612
11860SOL    HW236521   1.140   6.562   1.119 -1.0078 -2.6217 -0.7208
11861SOL     OW36522   2.634   4.087   3.939  0.2356  0.0442  0.2614
11861SOL    HW136523   2.598   4.168   3.975  0.6378 -0.4449  1.8699
11861SOL    HW236524   2.566   4.022   3.953 -0.0247  0.0501 -0.8879
11862SOL     OW36525   1.133   6.758   3.616 -0.0237 -0.1559 -0.3396
11862SOL    HW136526   1.059   6.804   3.576 -1.9182 -2.3979  0.4135
11862SOL    HW236527   1.205   6.821   3.609 -2.2959  2.7944  0.2847
11863SOL     OW36528   2.146   3.677   6.921 -0.1069  0.6960 -0.6602
11863SOL    HW136529   2.190   3.661   7.004 -1.0521  1.1520 -0.0484
11863SOL    HW236530   2.162   3.770   6.903 -1.4579  1.0802 -0.0127
11864SOL     OW36531   1.713   2.610   3.052  0.1572 -0.3578 -0.5019
11864SOL    HW136532   1.712   2.572   3.139 -1.3054  0.4092 -0.1395
11864SOL    HW236533   1.798   2.654   3.046  1.9757 -3.6115 -0.9987
11865SOL     OW36534   0.455   0.583   4.748 -0.1610 -0.2023 -0.4505
11865SOL    HW136535   0.373   0.539   4.725  0.7387 -1.6270 -1.0431
11865SOL    HW236536   0.488   0.617   4.665 -0.1480  0.3854 -0.2080
11866SOL     OW36537   4.659   4.439   5.514  0.0437 -0.1175  0.2392
11866SOL    HW136538   4.667   4.502   5.442 -1.1976  0.1214  0.2907
11866SOL    HW236539   4.749   4.411   5.531  0.4150  0.2270 -1.0378
11867SOL     OW36540   3.092   1.507   3.202  0.2575 -0.1054 -0.0149
11867SOL    HW136541   3.176   1.554   3.197 -0.3790  1.2957  1.4582
11867SOL    HW236542   3.031   1.571   3.239 -1.7226 -0.8035 -1.8720
11868SOL     OW36543   7.020   2.591   5.287  0.4236  0.2945  0.5248
11868SOL    HW136544   7.005   2.617   5.196  2.0620 -0.3609  0.0286
11868SOL    HW236545   7.011   2.672   5.336 -0.9000  0.5863 -0.1537
11869SOL     OW36546   2.923   2.179   7.424  0.0161 -0.3613 -0.2849
11869SOL    HW136547   2.985   2.247   7.396 -0.5576 -0.2753 -1.3966
11869SOL    HW236548   2.865   2.167   7.349 -1.8733  0.1762  1.0269
11870SOL     OW36549   1.526   5.086   6.740  0.0147  0.5682  0.2586
11870SOL    HW136550   1.535   5.007   6.793  0.1043  0.4799  0.1120
11870SOL    HW236551   1.432   5.106   6.743  0.0312  0.6177  0.5252
11871SOL     OW36552   6.960   5.985   3.111  0.6539  0.2288  0.1567
11871SOL    HW136553   6.989   5.955   3.197 -0.0875 -2.5227 -0.4427
11871SOL    HW236554   6.865   5.992   3.118  0.7235  1.5367 -0.0276
11872SOL     OW36555   4.308   0.223   1.627  0.0059 -0.0329 -0.0796
11872SOL    HW136556   4.286   0.274   1.705 -1.2960 -1.3821  0.4830
11872SOL    HW236557   4.290   0.282   1.554  1.7001  1.4247  0.5973
11873SOL     OW36558   6.512   0.528   4.283 -0.0214  0.0486  0.0788
11873SOL    HW136559   6.520   0.538   4.378  0.7638  0.4818 -0.0202
11873SOL    HW236560   6.472   0.610   4.254  1.0095  0.4982 -0.1056
11874SOL     OW36561   0.469   3.448   5.299 -0.3750 -0.4446 -0.0329
11874SOL    HW136562   0.382   3.458   5.261  0.2824  2.1308 -1.0495
11874SOL    HW236563   0.525   3.507   5.248  1.4545 -0.1397  2.1717
11875SOL     OW36564   0.575   6.111   6.630 -0.2071  0.2777 -0.6121
11875SOL    HW136565   0.599   6.097   6.722 -1.5389 -1.6153 -0.4924
11875SOL    HW236566   0.639   6.059   6.581  0.2848  1.0014 -0.7480
11876SOL     OW36567   3.689   0.909   3.806  0.2294  0.0118 -0.0661
11876SOL    HW136568   3.603   0.867   3.805 -0.0532  0.5935 -0.4815
11876SOL    HW236569   3.744   0.848   3.856 -0.5334 -0.1444  0.6191
11877SOL     OW36570   3.222   4.776   5.781 -0.7167  0.4413 -0.3401
11877SOL    HW136571   3.212   4.801   5.689 -1.1750  1.8514  0.0618
11877SOL    HW236572   3.227   4.859   5.828  0.4402 -0.2490  0.8347
11878SOL     OW36573   1.728   6.247   2.268  0.2526 -0.4114  0.5617
11878SOL    HW136574   1.787   6.301   2.322 -1.0969 -0.8089  2.5422
11878SOL    HW236575   1.663   6.308   2.235 -0.7486 -0.6363  2.0517
11879SOL     OW36576   2.721   3.670   4.713 -0.6015 -0.2406 -0.4679
11879SOL    HW136577   2.752   3.607   4.647  0.9147  0.5201 -0.5081
11879SOL    HW236578   2.748   3.631   4.797  0.7382  0.5274 -0.5148
11880SOL     OW36579   1.123   3.832   2.964  0.2082 -0.2054 -0.8179
11880SOL    HW136580   1.162   3.748   2.988  0.3251  0.1688  0.3253
11880SOL    HW236581   1.197   3.885   2.935  0.5999  0.4869  1.3004
11881SOL     OW36582   5.759   0.907   2.070 -0.1011 -0.2125 -0.2759
11881SOL    HW136583   5.752   0.813   2.052  0.0717 -0.3024  0.1201
11881SOL    HW236584   5.829   0.914   2.135 -2.9357 -0.2458  3.0589
11882SOL     OW36585   0.515   6.977   1.282 -0.1024 -0.0044  0.3673
11882SOL    HW136586   0.553   7.029   1.354 -0.3610  1.1628 -0.3045
11882SOL    HW236587   0.591   6.937   1.240  0.0582 -0.6503  1.2411
11883SOL     OW36588   5.387   2.637   7.419  0.0936  0.5730 -0.6996
11883SOL    HW136589   5.379   2.576   7.492 -1.1066  1.9777  0.3962
11883SOL    HW236590   5.346   2.592   7.345 -2.4489  0.6905  0.5407
11884SOL     OW36591   2.644   7.163   2.666 -0.6272  0.4108  0.3781
11884SOL    HW136592   2.685   7.244   2.638 -0.0901 -0.4842 -1.5428
11884SOL    HW236593   2.707   7.095   2.644 -0.9497 -0.5467  2.2032
11885SOL     OW36594   1.487   0.213   5.094 -0.3407  0.3206 -0.1317
11885SOL    HW136595   1.424   0.160   5.045  0.3699 -0.4999 -0.1927
11885SOL    HW236596   1.553   0.237   5.029  0.4070 -0.4543  0.3158
11886SOL     OW36597   1.102   4.499   3.505  0.5393  0.2264 -0.1710
11886SOL    HW136598   1.161   4.432   3.539 -0.4804 -1.5188 -1.6666
11886SOL    HW236599   1.159   4.560   3.458  1.1979 -1.8874 -2.3170
11887SOL     OW36600   5.565   1.288   4.743  0.1384 -0.1115  0.3708
11887SOL    HW136601   5.558   1.377   4.708  0.1723 -0.2042  0.1223
11887SOL    HW236602   5.476   1.252   4.735 -0.0516  0.1552  1.1804
11888SOL     OW36603   6.007   3.045   5.337  0.7061 -0.8153 -0.1410
11888SOL    HW136604   6.081   3.095   5.373  1.3425 -1.0336 -1.1106
11888SOL    HW236605   5.951   3.111   5.296 -0.5280 -0.4385  2.0072
11889SOL     OW36606   5.220   3.106   4.120 -0.3590 -0.0697  0.1877
11889SOL    HW136607   5.292   3.066   4.072  0.0307 -0.6102  1.1995
11889SOL    HW236608   5.177   3.032   4.164 -0.2306  0.5030  1.2914
11890SOL     OW36609   0.409   3.162   1.320 -0.2242  0.2703 -0.1293
11890SOL    HW136610   0.401   3.077   1.364  0.8680  0.7364  1.0389
11890SOL    HW236611   0.329   3.208   1.342 -0.1226  0.1218  0.5672
11891SOL     OW36612   0.480   4.116   2.507  0.4849  0.0652 -0.0621
11891SOL    HW136613   0.553   4.155   2.555  0.0770  0.4773  0.2335
11891SOL    HW236614   0.502   4.023   2.501  0.1923 -0.1469  1.5938
11892SOL     OW36615   4.778   6.051   1.768 -0.4158  0.0622 -0.6128
11892SOL    HW136616   4.748   6.126   1.716 -3.7770 -0.2248  0.6877
11892SOL    HW236617   4.769   6.080   1.858  0.6417 -1.1040 -0.1083
11893SOL     OW36618   4.612   4.624   5.812  0.3157  0.6931 -0.0737
11893SOL    HW136619   4.631   4.650   5.903 -0.5825 -1.5152  0.8238
11893SOL    HW236620   4.679   4.558   5.792  0.4666  1.1211 -1.0236
11894SOL     OW36621   0.753   1.109   0.230  0.0286  0.0100 -0.1364
11894SOL    HW136622   0.771   1.187   0.283 -0.6299 -1.1067  1.8683
11894SOL    HW236623   0.720   1.045   0.294 -1.8607 -1.0844 -2.0925
11895SOL     OW36624   4.277   4.819   3.651  0.4303  0.0762  0.0498
11895SOL    HW136625   4.230   4.898   3.678 -0.4398  0.0676 -1.3550
11895SOL    HW236626   4.220   4.747   3.678  0.7406 -0.0343  0.4167
11896SOL     OW36627   0.840   3.287   2.486  0.2616 -0.5405  0.8111
11896SOL    HW136628   0.772   3.330   2.538  0.1909  0.0808  0.2289
11896SOL    HW236629   0.796   3.266   2.403  1.1938  1.4281 -0.2519
11897SOL     OW36630   4.847   0.708   1.659 -0.2846 -0.2178  0.5120
11897SOL    HW136631   4.898   0.647   1.605  0.2897  1.9310 -1.5366
11897SOL    HW236632   4.758   0.673   1.655 -0.0334 -0.8117 -0.8484
11898SOL     OW36633   1.181   4.277   1.333 -0.1073 -0.0865  0.1596
11898SOL    HW136634   1.132   4.342   1.284 -0.3730 -0.1250  0.3713
11898SOL    HW236635   1.177   4.306   1.424  1.0532  0.4067  0.0660
11899SOL     OW36636   5.174   5.856   2.742 -0.4187 -0.2739 -0.3679
11899SOL    HW136637   5.086   5.833   2.772 -0.2531  1.6725  1.8523
11899SOL    HW236638   5.232   5.832   2.814  0.8428 -1.0803 -1.6008
11900SOL     OW36639   0.675   6.977   3.774 -0.3402 -0.3972  0.4036
11900SOL    HW136640   0.728   6.911   3.819 -0.6347 -0.9855 -0.1044
11900SOL    HW236641   0.696   6.967   3.682 -0.5712  0.0576  0.2981
11901SOL     OW36642   1.079   2.479   4.899 -0.2767 -0.2346  0.2739
11901SOL    HW136643   1.146   2.438   4.845  2.7957  0.8396  2.9429
11901SOL    HW236644   1.107   2.462   4.989 -2.6867  1.7606  1.5241
11902SOL     OW36645   0.885   5.369   2.744 -0.4681  0.8210  0.2026
11902SOL    HW136646   0.793   5.373   2.770 -0.7451  2.4407 -0.8567
11902SOL    HW236647   0.889   5.420   2.663  0.9399 -1.2283 -1.1096
11903SOL     OW36648   3.930   6.862   6.387  0.1342 -0.3833 -0.9363
11903SOL    HW136649   3.944   6.803   6.462 -0.8522  1.1720  0.5404
11903SOL    HW236650   3.866   6.926   6.418  0.4067  0.8882 -2.8175
11904SOL     OW36651   2.830   6.477   1.186 -0.1485  0.1803  0.1048
11904SOL    HW136652   2.848   6.570   1.200 -2.2858  0.2867  2.9929
11904SOL    HW236653   2.881   6.432   1.253 -1.6296 -0.3875  0.9041
11905SOL     OW36654   0.807   5.188   1.616  0.4214  0.0822  0.1219
11905SOL    HW136655   0.725   5.207   1.571  0.5041  0.4016  0.1001
11905SOL    HW236656   0.868   5.162   1.547  0.3480 -0.1257  0.1345
11906SOL     OW36657   3.658   7.418   1.975  0.3595 -0.6423 -0.3902
11906SOL    HW136658   3.642   7.350   1.910 -1.0076 -0.2915 -0.4405
11906SOL    HW236659   3.587   7.408   2.038  1.5411 -0.8472  0.9739
11907SOL     OW36660   6.002   3.531   0.635 -0.6664  0.4924 -0.3027
11907SOL    HW136661   5.917   3.490   0.624 -0.5709  0.3042 -0.3286
11907SOL    HW236662   5.981   3.620   0.666 -0.8609  0.3462 -0.0116
11908SOL     OW36663   7.202   6.648   3.684  0.3707 -0.3641 -0.1482
11908SOL    HW136664   7.164   6.683   3.604  0.0732  1.8759  0.8646
11908SOL    HW236665   7.201   6.553   3.673 -1.3974 -0.1915 -1.9853
11909SOL     OW36666   4.227   2.663   2.309  0.0870  0.6205 -0.5757
11909SOL    HW136667   4.161   2.595   2.294 -0.4753  0.8797  0.6272
11909SOL    HW236668   4.228   2.714   2.228  1.3532 -1.4711 -1.9896
11910SOL     OW36669   5.826   1.013   3.577 -0.1776 -0.4845  0.1463
11910SOL    HW136670   5.743   0.968   3.590 -0.3272 -0.4309 -0.6053
11910SOL    HW236671   5.802   1.106   3.571 -0.2009 -0.5601 -1.1787
11911SOL     OW36672   0.782   4.125   3.361 -0.2336 -0.6079  0.1223
11911SOL    HW136673   0.840   4.049   3.356 -1.4585 -1.6685  1.1145
11911SOL    HW236674   0.783   4.163   3.274  1.2067 -1.1529 -0.1183
11912SOL     OW36675   3.243   4.717   4.080 -0.1580 -0.1800 -0.1406
11912SOL    HW136676   3.285   4.691   3.998 -0.9708 -0.1993 -0.5661
11912SOL    HW236677   3.214   4.635   4.119  0.5719 -0.2058  0.3739
11913SOL     OW36678   6.002   4.815   5.112 -0.6973  0.0460 -0.0849
11913SOL    HW136679   6.012   4.868   5.191  2.2672  1.9524 -1.5317
11913SOL    HW236680   6.070   4.749   5.118 -1.5302 -0.8509 -0.3190
11914SOL     OW36681   4.836   0.814   7.136 -0.2461 -0.1734  0.0394
11914SOL    HW136682   4.884   0.841   7.215 -1.0162  0.7818  0.1931
11914SOL    HW236683   4.868   0.872   7.067 -0.7022  0.0338 -0.0007
11915SOL     OW36684   0.044   3.444   6.278 -0.0191 -0.0959 -0.5287
11915SOL    HW136685   0.131   3.478   6.257  0.7999 -1.3977  0.5969
11915SOL    HW236686   0.023   3.483   6.363 -1.2374  1.3979 -1.4576
11916SOL     OW36687   3.350   0.767   0.491  0.5603  0.8811  0.1577
11916SOL    HW136688   3.282   0.834   0.488 -0.4735 -0.1483 -0.2496
11916SOL    HW236689   3.319   0.698   0.432  1.1280 -0.3682  1.2619
11917SOL     OW36690   1.967   6.344   0.724  0.6539  0.4344  0.0093
11917SOL    HW136691   1.904   6.321   0.792  2.2489 -1.2750  0.9772
11917SOL    HW236692   1.959   6.275   0.659 -0.3804  1.7002 -1.2860
11918SOL     OW36693   0.492   2.997   5.951 -0.2981 -0.5695  0.3243
11918SOL    HW136694   0.514   3.059   5.882 -0.3509  0.4520  1.2096
11918SOL    HW236695   0.525   2.913   5.919  0.0431 -0.0386 -0.7542
11919SOL     OW36696   5.068   5.194   1.338 -0.1531 -0.6570 -0.5663
11919SOL    HW136697   5.059   5.129   1.269  1.2480 -2.3713  0.7890
11919SOL    HW236698   5.047   5.147   1.419  0.1005  0.7862  0.3871
11920SOL     OW36699   4.086   3.833   3.441  0.2392  0.0351  0.1181
11920SOL    HW136700   4.003   3.810   3.398 -0.4938  0.0971  1.4307
11920SOL    HW236701   4.060   3.880   3.520  1.5158 -0.2554  0.7455
11921SOL     OW36702   2.185   7.304   4.455  0.4171 -0.5336  0.6341
11921SOL    HW136703   2.124   7.305   4.382  2.8876  0.4769 -1.5747
11921SOL    HW236704   2.241   7.228   4.439  1.3534  0.0238  1.1333
11922SOL     OW36705   0.358   1.604   7.332 -0.2072  0.6535  0.4548
11922SOL    HW136706   0.310   1.532   7.291  0.9190  0.0094  0.2294
11922SOL    HW236707   0.338   1.680   7.279  0.3222  0.0586 -0.6205
11923SOL     OW36708   4.846   2.950   0.816  0.5830  0.6954 -0.1188
11923SOL    HW136709   4.881   2.873   0.860  2.8283  0.6740 -1.7600
11923SOL    HW236710   4.762   2.922   0.780  1.7409 -1.3177 -1.4277
11924SOL     OW36711   6.472   0.616   0.847 -0.2847 -0.0538 -0.1777
11924SOL    HW136712   6.416   0.693   0.846 -2.9703 -1.8911  0.4226
11924SOL    HW236713   6.447   0.568   0.926  2.7218 -0.6193  0.5635
11925SOL     OW36714   3.476   6.896   1.267 -0.1993  0.0291  0.0561
11925SOL    HW136715   3.459   6.981   1.226  0.1874 -0.2338 -0.6548
11925SOL    HW236716   3.494   6.918   1.359  0.6811  0.8072 -0.2862
11926SOL     OW36717   2.290   3.892   3.403 -1.0500 -0.5140  0.5072
11926SOL    HW136718   2.239   3.902   3.483  0.7656 -0.2237  1.6807
11926SOL    HW236719   2.278   3.976   3.357 -0.4870  0.1257  1.4829
11927SOL     OW36720   3.648   1.906   2.327  0.3800  0.0908 -0.4522
11927SOL    HW136721   3.727   1.935   2.372 -0.5169  1.7528  0.1243
11927SOL    HW236722   3.646   1.811   2.341  0.6998  0.3917  2.1169
11928SOL     OW36723   3.841   3.564   3.021  0.3946  0.1484  0.0217
11928SOL    HW136724   3.787   3.489   2.997  1.1768 -0.6249  0.6250
11928SOL    HW236725   3.781   3.638   3.020 -0.6393 -0.6597  0.5137
11929SOL     OW36726   5.332   4.136   4.027  0.2285 -1.0213  0.1493
11929SOL    HW136727   5.241   4.107   4.031  0.1143 -1.0238 -1.6329
11929SOL    HW236728   5.375   4.071   3.970  0.9700 -0.1520 -0.3052
11930SOL     OW36729   5.563   6.682   4.750  0.4108  0.0694 -0.3245
11930SOL    HW136730   5.588   6.614   4.812  0.9541 -0.3491 -0.9798
11930SOL    HW236731   5.523   6.751   4.803 -2.1331 -1.6595  0.1738
11931SOL     OW36732   0.690   1.740   5.033 -0.1202 -0.1744 -0.4644
11931SOL    HW136733   0.624   1.779   5.090  0.0112 -0.8272  0.1422
11931SOL    HW236734   0.651   1.656   5.005  0.9426 -1.1735  0.9190
11932SOL     OW36735   1.837   4.920   5.736 -0.4126 -0.4497  0.6583
11932SOL    HW136736   1.745   4.934   5.756 -0.3184 -1.3668  1.8874
11932SOL    HW236737   1.842   4.828   5.710  0.0813 -0.2645  0.0746
11933SOL     OW36738   1.947   3.915   6.415  0.1160  0.4969 -0.2146
11933SOL    HW136739   1.923   3.846   6.477  1.5486 -1.3280 -1.5466
11933SOL    HW236740   2.042   3.921   6.422  0.1361  1.4185 -1.0828
11934SOL     OW36741   5.920   6.068   6.528 -0.5017 -0.5555 -0.0015
11934SOL    HW136742   5.904   6.098   6.617  2.0017 -0.9778  0.6971
11934SOL    HW236743   5.912   6.146   6.474 -3.4717 -0.5517  0.3122
11935SOL     OW36744   7.076   1.605   2.831 -0.0703 -0.2380  0.6319
11935SOL    HW136745   7.095   1.645   2.747 -1.6154  3.2617  1.7685
11935SOL    HW236746   7.134   1.649   2.893 -0.2463 -1.4236  1.6878
11936SOL     OW36747   4.575   1.491   7.035  0.0423  0.2321  0.2374
11936SOL    HW136748   4.662   1.491   7.075  0.3785 -1.6515 -0.3874
11936SOL    HW236749   4.516   1.514   7.106  0.8380 -0.8997  1.3085
11937SOL     OW36750   2.675   0.729   5.477 -0.4292  0.1551  0.2487
11937SOL    HW136751   2.732   0.774   5.539 -0.5055 -1.5316  1.5957
11937SOL    HW236752   2.733   0.670   5.429 -0.6745  0.0868  0.0326
11938SOL     OW36753   1.213   2.026   4.600  0.0942 -0.0019  0.3639
11938SOL    HW136754   1.189   2.112   4.634  0.7289  1.0280 -1.6787
11938SOL    HW236755   1.145   1.968   4.635 -1.7724  1.7333 -0.1690
11939SOL     OW36756   4.270   1.338   1.105 -0.2700 -0.1819  0.0622
11939SOL    HW136757   4.270   1.242   1.099  0.6585 -0.2816  1.3477
11939SOL    HW236758   4.183   1.360   1.137 -0.7997 -0.5135 -1.0892
11940SOL     OW36759   4.864   3.972   4.181 -0.1119  0.0470 -0.3232
11940SOL    HW136760   4.859   3.882   4.215 -0.2151  0.3746  0.5475
11940SOL    HW236761   4.865   4.027   4.259  0.2105  0.7975 -0.8457
11941SOL     OW36762   4.005   3.447   2.397 -0.4763  0.3537 -0.3638
11941SOL    HW136763   4.030   3.361   2.363 -1.3921 -0.0144 -0.1252
11941SOL    HW236764   4.085   3.480   2.440  0.2464  0.1711 -1.5206
11942SOL     OW36765   0.276   2.137   0.532  0.1288 -0.5614 -0.2924
11942SOL    HW136766   0.245   2.141   0.622  3.7149 -2.2339  1.2124
11942SOL    HW236767   0.333   2.213   0.523 -2.5167  1.3635 -2.3303
11943SOL     OW36768   5.775   6.450   6.932  0.2613  0.0402  0.5267
11943SOL    HW136769   5.789   6.359   6.960 -2.2617  0.1094  2.3333
11943SOL    HW236770   5.805   6.503   7.006  1.6918  0.7376 -0.5045
11944SOL     OW36771   2.178   1.696   2.151  0.0853  0.2489  0.7728
11944SOL    HW136772   2.103   1.722   2.204 -0.3830  3.0836 -1.0431
11944SOL    HW236773   2.214   1.619   2.195 -1.4944  1.1568  3.9260
11945SOL     OW36774   2.749   4.291   3.775 -0.3164 -0.3123 -0.3786
11945SOL    HW136775   2.706   4.229   3.834  1.0509  1.6095  2.9569
11945SOL    HW236776   2.683   4.358   3.757 -0.9520 -1.2589 -1.7021
11946SOL     OW36777   3.429   4.025   6.237 -0.2346 -0.4721 -0.3580
11946SOL    HW136778   3.512   4.012   6.191  0.8330  0.6012  1.1319
11946SOL    HW236779   3.365   3.977   6.186  1.0137 -0.0588 -2.4395
11947SOL     OW36780   5.522   2.568   4.589  0.4385 -0.7982 -0.9917
11947SOL    HW136781   5.573   2.647   4.572 -1.2502  0.2102 -1.6847
11947SOL    HW236782   5.458   2.595   4.655  2.0229 -2.5909  1.4571
11948SOL     OW36783   7.036   6.179   2.551  0.2020  0.2396  0.3112
11948SOL    HW136784   7.046   6.091   2.515 -1.3087  0.1513  0.0500
11948SOL    HW236785   7.122   6.200   2.587  1.0066 -0.7513 -0.9241
11949SOL     OW36786   2.778   5.151   4.704 -0.0777 -0.1055 -0.2424
11949SOL    HW136787   2.765   5.057   4.713  2.0623 -0.5861 -1.4023
11949SOL    HW236788   2.834   5.175   4.778 -1.4125  0.4828  0.6093
11950SOL     OW36789   1.066   6.039   6.192  0.2426 -0.1592  0.2401
11950SOL    HW136790   1.157   6.009   6.184 -0.3746 -2.2095  0.2435
11950SOL    HW236791   1.041   6.063   6.103  0.5278 -0.4421  0.0816
11951SOL     OW36792   0.297   2.293   3.082 -0.5302  0.3730 -0.6563
11951SOL    HW136793   0.330   2.203   3.074  0.1873  0.6932 -1.3930
11951SOL    HW236794   0.361   2.346   3.035 -0.5714  1.3626  0.3546
11952SOL     OW36795   3.214   3.593   6.663  0.0450  0.1397 -0.6965
11952SOL    HW136796   3.300   3.590   6.620  1.0314  1.4790  1.0367
11952SOL    HW236797   3.191   3.501   6.677  1.1661 -0.2461 -1.2638
11953SOL     OW36798   0.336   5.749   6.469 -0.5899 -0.5984  0.2142
11953SOL    HW136799   0.364   5.776   6.557 -1.1942  0.0529  0.2149
11953SOL    HW236800   0.400   5.788   6.410 -1.3071  0.6390  0.2345
11954SOL     OW36801   0.192   5.958   0.587  0.5399  0.1502  0.2253
11954SOL    HW136802   0.218   5.936   0.677 -0.6104 -0.9124  0.3311
11954SOL    HW236803   0.223   5.885   0.534 -3.0301 -1.8441  0.5264
11955SOL     OW36804   6.219   2.968   5.647  0.4784  0.2331 -0.0298
11955SOL    HW136805   6.153   2.902   5.669  0.1764  0.1554 -1.1367
11955SOL    HW236806   6.257   2.992   5.732 -0.1643 -0.5606  0.5021
11956SOL     OW36807   4.873   5.813   5.870  0.2279  0.9265  0.0877
11956SOL    HW136808   4.938   5.746   5.894  0.2777  1.4688  1.5273
11956SOL    HW236809   4.792   5.784   5.913 -0.7387 -0.1089 -2.2331
11957SOL     OW36810   3.634   4.748   5.211  0.4062 -0.2955 -0.1996
11957SOL    HW136811   3.688   4.759   5.290 -1.3524  1.0827  0.8821
11957SOL    HW236812   3.682   4.797   5.143  1.7826 -1.2274  0.0532
11958SOL     OW36813   0.518   4.885   3.640 -0.6375 -0.0682 -0.0474
11958SOL    HW136814   0.591   4.898   3.700  0.0115  0.7065 -0.9647
11958SOL    HW236815   0.548   4.923   3.557 -1.4522 -1.2018 -0.9020
11959SOL     OW36816   0.775   5.032   1.196  0.1453 -0.3422  0.1881
11959SOL    HW136817   0.690   5.001   1.229 -0.2500  0.8135  0.2882
11959SOL    HW236818   0.830   5.040   1.274 -0.0166  0.0092  0.2680
11960SOL     OW36819   2.055   5.408   3.296  0.3055 -0.8601  0.1898
11960SOL    HW136820   2.086   5.479   3.240 -3.1151 -0.3383 -1.2325
11960SOL    HW236821   2.077   5.436   3.384  1.5587  0.5689 -0.5260
11961SOL     OW36822   0.206   6.208   4.888 -0.1772 -0.4019 -0.4328
11961SOL    HW136823   0.206   6.140   4.821 -0.3088  0.8849 -1.7873
11961SOL    HW236824   0.194   6.290   4.840  0.6800  0.6681  1.0681
11962SOL     OW36825   3.879   4.910   1.992  0.5142 -0.0641  0.0866
11962SOL    HW136826   3.785   4.907   2.013  0.4217 -1.6001 -0.3571
11962SOL    HW236827   3.903   5.002   1.999 -1.1733  0.4557 -0.3932
11963SOL     OW36828   7.235   6.982   4.873 -0.2342 -0.2188 -0.3610
11963SOL    HW136829   7.230   7.008   4.965  3.6168 -1.1351  0.2989
11963SOL    HW236830   7.249   7.064   4.826 -2.6183  0.3074 -0.3108
11964SOL     OW36831   1.642   5.160   5.708  0.0795  0.2612 -0.2640
11964SOL    HW136832   1.618   5.126   5.794 -1.2001 -0.1684 -0.7686
11964SOL    HW236833   1.645   5.255   5.720  0.0401  0.1971  0.2827
11965SOL     OW36834   4.753   6.717   1.297  0.7663 -0.5751 -0.4740
11965SOL    HW136835   4.687   6.648   1.293  0.2908 -0.1963  0.5415
11965SOL    HW236836   4.728   6.777   1.227  0.3249 -0.6905 -0.4195
11966SOL     OW36837   2.685   7.062   5.968  0.1692  0.0532  0.0220
11966SOL    HW136838   2.679   6.973   5.934  0.1243 -0.1335  0.5111
11966SOL    HW236839   2.697   7.117   5.890 -4.5956  0.2191 -0.9060
11967SOL     OW36840   6.062   2.910   4.997 -0.1347 -0.0669  0.3173
11967SOL    HW136841   6.135   2.971   4.996 -1.0007  1.0075  0.2850
11967SOL    HW236842   5.987   2.962   4.966 -0.7694 -1.3191 -0.3359
11968SOL     OW36843   1.142   6.019   5.042 -0.3576 -0.0080 -0.1063
11968SOL    HW136844   1.227   6.031   5.002 -0.2626  0.9738  0.3388
11968SOL    HW236845   1.086   5.985   4.972 -0.3176  2.0813 -1.2421
11969SOL     OW36846   2.869   4.079   2.034 -0.0652  0.2741  0.4455
11969SOL    HW136847   2.879   4.174   2.041  1.9659  0.2623 -1.1791
11969SOL    HW236848   2.794   4.068   1.976 -0.0701  0.9306  0.3111
11970SOL     OW36849   0.309   6.677   5.688 -0.7401 -0.6147 -0.2536
11970SOL    HW136850   0.331   6.585   5.700 -0.1279 -0.4393  0.0135
11970SOL    HW236851   0.382   6.712   5.636 -1.2936 -0.4271 -0.9161
11971SOL     OW36852   2.458   2.308   6.868  0.0420 -0.7857  0.0766
11971SOL    HW136853   2.375   2.279   6.830 -0.8167  2.2876 -0.6850
11971SOL    HW236854   2.437   2.326   6.959 -0.3056  0.5290 -0.2519
11972SOL     OW36855   7.226   4.747   5.401 -0.1908 -0.3636 -0.0377
11972SOL    HW136856   7.174   4.749   5.321  1.5558 -1.1187 -1.2319
11972SOL    HW236857   7.315   4.731   5.372  0.6175  0.0910  2.0177
11973SOL     OW36858   5.126   0.130   7.404  0.0677 -0.0584  0.0282
11973SOL    HW136859   5.104   0.171   7.321  2.2070 -0.3782 -0.7771
11973SOL    HW236860   5.088   0.042   7.399  0.1450 -0.0560 -0.5996
11974SOL     OW36861   0.209   3.134   3.055 -0.5539  0.2129 -0.1584
11974SOL    HW136862   0.197   3.153   2.962  1.6118 -1.7986 -0.9513
11974SOL    HW236863   0.146   3.064   3.073 -0.9590  0.5884 -0.0793
11975SOL     OW36864   3.736   0.256   1.305 -0.0364 -0.3542 -0.3622
11975SOL    HW136865   3.807   0.304   1.263  0.1566  0.0432  0.4184
11975SOL    HW236866   3.766   0.165   1.307  0.3943 -0.2083 -0.1463
11976SOL     OW36867   2.209   0.151   4.806 -0.0723 -0.3077  0.1008
11976SOL    HW136868   2.167   0.173   4.889  0.2862 -0.1933  0.2577
11976SOL    HW236869   2.200   0.056   4.798  0.7406 -0.4565  0.7576
11977SOL     OW36870   3.105   3.878   2.413  0.0568  0.2194 -0.6456
11977SOL    HW136871   3.036   3.944   2.424  0.3850  0.5618 -0.6173
11977SOL    HW236872   3.154   3.908   2.336  0.3008  0.0887 -0.5416
11978SOL     OW36873   1.704   1.234   5.827 -0.0200 -0.6553 -0.4722
11978SOL    HW136874   1.779   1.288   5.803 -0.5306  0.7581  0.9872
11978SOL    HW236875   1.630   1.294   5.829 -0.4835 -1.1916  1.9183
11979SOL     OW36876   2.399   5.138   1.221 -0.2745  0.5750 -0.3990
11979SOL    HW136877   2.472   5.081   1.244 -1.4257  0.0009  2.2169
11979SOL    HW236878   2.407   5.211   1.282  0.5070  2.7761 -2.9321
11980SOL     OW36879   0.004   0.642   2.350  0.0555  0.3192  0.2352
11980SOL    HW136880  -0.069   0.609   2.402 -0.8459 -1.1495 -1.8162
11980SOL    HW236881  -0.002   0.737   2.358 -3.0468  0.3492 -1.0005
11981SOL     OW36882   0.853   7.330   0.761  0.2814 -0.9581  0.3453
11981SOL    HW136883   0.932   7.340   0.708  0.6501 -1.4891  0.7848
11981SOL    HW236884   0.846   7.236   0.778 -0.6762 -0.9698 -0.0300
11982SOL     OW36885   2.337   2.841   1.258  0.6486 -0.0867  0.4036
11982SOL    HW136886   2.394   2.918   1.244  1.2057 -0.7961 -1.6674
11982SOL    HW236887   2.311   2.816   1.169 -1.2947 -1.0027  1.2033
11983SOL     OW36888   4.791   0.613   0.625 -0.2195 -0.4679 -0.9120
11983SOL    HW136889   4.843   0.542   0.662  0.1174 -1.1263 -2.5822
11983SOL    HW236890   4.852   0.686   0.618 -0.3093 -0.3076 -0.1220
11984SOL     OW36891   6.732   7.208   0.992 -0.2386 -0.2191  0.0430
11984SOL    HW136892   6.704   7.260   1.067  2.3846  1.9805 -0.3362
11984SOL    HW236893   6.652   7.190   0.943 -1.6598  0.6104  1.9608
11985SOL     OW36894   0.737   5.110   5.701 -0.2044  0.1021  0.5548
11985SOL    HW136895   0.805   5.125   5.636 -0.0799 -0.3080  0.5860
11985SOL    HW236896   0.768   5.155   5.779 -0.2383  0.3892  0.4037
11986SOL     OW36897   2.549   0.042   1.836  0.3001 -0.1534  0.1911
11986SOL    HW136898   2.602  -0.036   1.818 -0.2407 -0.3582 -0.5983
11986SOL    HW236899   2.461   0.017   1.807  0.1543  0.8102 -0.2187
11987SOL     OW36900   0.432   6.340   1.928 -0.5784 -0.0376 -0.2247
11987SOL    HW136901   0.492   6.266   1.923  0.0222  0.5130 -1.6956
11987SOL    HW236902   0.483   6.410   1.968 -0.3479  0.3244 -1.1439
11988SOL     OW36903   4.841   5.399   6.980  0.1523  0.5408 -0.4421
11988SOL    HW136904   4.916   5.377   6.925  0.6660  1.6263 -0.2230
11988SOL    HW236905   4.838   5.495   6.979 -0.6781  0.5424  0.2920
11989SOL     OW36906   6.268   0.318   1.623  0.2054 -1.0393 -0.5891
11989SOL    HW136907   6.271   0.314   1.527  0.9191 -0.4051 -0.6010
11989SOL    HW236908   6.312   0.238   1.651  1.6461 -0.3531 -0.8065
11990SOL     OW36909   0.794   1.201   3.545 -0.6274  0.2561  0.4169
11990SOL    HW136910   0.856   1.251   3.492  0.1821 -0.4254  0.7112
11990SOL    HW236911   0.847   1.135   3.590 -1.5155 -0.1405  0.9182
11991SOL     OW36912   0.843   3.425   4.618 -0.4125  0.6183  0.7320
11991SOL    HW136913   0.850   3.518   4.600 -0.1770  0.6257  0.8621
11991SOL    HW236914   0.914   3.407   4.680  2.0980 -0.3992 -2.1701
11992SOL     OW36915   5.601   4.497   6.476  0.3358  0.4731  0.4629
11992SOL    HW136916   5.592   4.573   6.534 -0.6546  2.2740 -1.9064
11992SOL    HW236917   5.696   4.486   6.466  0.4988  1.4243  0.8226
11993SOL     OW36918   4.991   5.797   0.528  0.0072  0.3765  0.5376
11993SOL    HW136919   5.081   5.778   0.503 -0.3929 -0.0183 -0.7110
11993SOL    HW236920   4.962   5.863   0.465 -1.4705 -1.6392 -1.0602
11994SOL     OW36921   3.360   1.112   0.846  0.5558  0.1460 -0.0682
11994SOL    HW136922   3.376   1.017   0.843  0.5451  0.1424 -0.0121
11994SOL    HW236923   3.343   1.136   0.755  1.3615  0.2348 -0.2050
11995SOL     OW36924   3.874   2.933   5.376  0.4088  0.2247 -0.4215
11995SOL    HW136925   3.948   2.994   5.368  1.6051 -1.1371 -0.1610
11995SOL    HW236926   3.912   2.855   5.417 -1.0543 -0.7373 -0.8357
11996SOL     OW36927   7.181   1.507   3.554 -0.2994 -0.2614  0.3073
11996SOL    HW136928   7.095   1.547   3.544 -0.4620 -0.4092  1.0277
11996SOL    HW236929   7.242   1.571   3.516 -0.6470  0.2365  0.5673
11997SOL     OW36930   7.102   6.196   3.377 -0.2607  0.3214  0.7774
11997SOL    HW136931   7.018   6.156   3.355  0.6241  0.0474 -2.8244
11997SOL    HW236932   7.090   6.289   3.357 -0.0377  0.4986  1.4449
11998SOL     OW36933   1.513   3.860   7.082 -0.2912  0.0076  0.5784
11998SOL    HW136934   1.509   3.917   7.158  0.1226  0.1671  0.4826
11998SOL    HW236935   1.486   3.774   7.115  1.7756 -0.3935  1.3750
11999SOL     OW36936   1.226   2.326   4.634 -0.1380  0.6120  0.2178
11999SOL    HW136937   1.309   2.371   4.617  0.2783  0.6499  2.1253
11999SOL    HW236938   1.160   2.395   4.625 -0.0846  0.4454 -1.9673
12000SOL     OW36939   5.509   0.944   4.684 -0.3529  0.5855 -0.0499
12000SOL    HW136940   5.498   1.039   4.680 -0.4144  0.5741 -0.1612
12000SOL    HW236941   5.603   0.931   4.697 -0.2336  0.6474 -0.7716
12001SOL     OW36942   0.316   4.097   7.141  0.3421 -0.0668  0.4373
12001SOL    HW136943   0.298   4.011   7.179  1.1362  0.2190  1.4695
12001SOL    HW236944   0.336   4.078   7.049 -2.2193 -0.7004 -0.0751
12002SOL     OW36945   7.207   1.500   4.812 -0.0685 -0.8780  0.1281
12002SOL    HW136946   7.186   1.461   4.896  1.4879 -1.0354  0.4802
12002SOL    HW236947   7.300   1.479   4.798 -0.0139  0.0467 -1.1260
12003SOL     OW36948   3.019   4.666   1.466  0.2010  0.0015  0.0481
12003SOL    HW136949   2.950   4.666   1.400  0.6459  1.5195 -0.4492
12003SOL    HW236950   3.053   4.577   1.465 -0.7222 -0.3579 -0.7782
12004SOL     OW36951   0.417   2.944   1.477  0.3052 -0.0129 -0.2296
12004SOL    HW136952   0.484   2.876   1.486  3.1336  2.6374  0.5803
12004SOL    HW236953   0.350   2.921   1.542  2.7735 -0.3995  2.3610
12005SOL     OW36954   1.094   1.885   4.258  0.0142 -0.1623  0.3072
12005SOL    HW136955   1.030   1.821   4.289 -0.9355 -0.2743 -1.7289
12005SOL    HW236956   1.051   1.970   4.269  0.6103  0.0069  1.4421
12006SOL     OW36957   0.455   5.290   5.191 -0.2744  0.9831 -0.0893
12006SOL    HW136958   0.514   5.260   5.122 -1.0560 -1.5334  0.2217
12006SOL    HW236959   0.486   5.246   5.270 -3.4561 -2.0300 -0.2293
12007SOL     OW36960   2.836   6.167   1.926  0.2384 -0.0114 -0.2336
12007SOL    HW136961   2.899   6.187   1.995 -0.8237  1.8639  0.2710
12007SOL    HW236962   2.771   6.111   1.968 -0.9350  1.9126  0.6576
12008SOL     OW36963   3.489   2.335   3.432  0.0494  0.2923 -0.4170
12008SOL    HW136964   3.410   2.365   3.386  0.2225  2.0748  0.3774
12008SOL    HW236965   3.461   2.327   3.523  0.5523  0.0110 -0.2875
12009SOL     OW36966   4.371   6.376   2.700 -0.1022 -0.8494  0.2688
12009SOL    HW136967   4.413   6.292   2.683  0.4036 -0.6860  0.6773
12009SOL    HW236968   4.444   6.439   2.703 -0.6234 -0.0082 -2.2328
12010SOL     OW36969   6.234   4.346   4.969  0.3425  0.0321  0.1522
12010SOL    HW136970   6.180   4.286   4.917  0.0095 -1.5827  2.2096
12010SOL    HW236971   6.323   4.331   4.938  0.0083  0.1247 -0.8757
12011SOL     OW36972   1.952   6.551   2.186  0.0776 -0.3043  0.4599
12011SOL    HW136973   2.021   6.504   2.139  0.5039  0.8218 -0.0897
12011SOL    HW236974   1.939   6.631   2.135  0.4213  0.8803  2.1601
12012SOL     OW36975   3.206   5.057   6.705 -0.2257  0.1322 -0.1263
12012SOL    HW136976   3.113   5.037   6.716 -0.1320 -0.5735 -0.5687
12012SOL    HW236977   3.250   5.005   6.772 -0.1107  0.1200 -0.2111
12013SOL     OW36978   5.155   6.496   0.403  0.0207  0.5560  0.0927
12013SOL    HW136979   5.127   6.429   0.466 -0.7158  1.5168  0.8190
12013SOL    HW236980   5.101   6.572   0.424  1.8677  1.8826  0.2776
12014SOL     OW36981   5.833   1.303   3.586  0.2428 -0.5223  0.1128
12014SOL    HW136982   5.923   1.296   3.619  0.8295  0.0559 -1.2850
12014SOL    HW236983   5.813   1.396   3.595  0.2142 -0.4509 -0.6114
12015SOL     OW36984   6.840   4.628   0.433  0.1240 -0.7351  0.3353
12015SOL    HW136985   6.897   4.551   0.439  3.3451  1.5022  0.8166
12015SOL    HW236986   6.875   4.678   0.360 -2.2700  0.1129 -0.3448
12016SOL     OW36987   2.776   4.122   0.109 -0.3619  0.9674  0.1297
12016SOL    HW136988   2.786   4.143   0.202  0.6651  2.2991 -0.2471
12016SOL    HW236989   2.681   4.113   0.096 -0.5022  0.5912  1.3303
12017SOL     OW36990   1.853   3.572   6.157 -0.0199 -0.0699  0.0653
12017SOL    HW136991   1.946   3.553   6.147  0.1490  0.1841  1.0541
12017SOL    HW236992   1.848   3.666   6.173 -0.6837  0.4224 -2.5438
12018SOL     OW36993   5.320   1.185   2.074 -0.9993  0.3410  0.1566
12018SOL    HW136994   5.396   1.131   2.054 -0.6847  0.9554 -0.3578
12018SOL    HW236995   5.294   1.159   2.162 -1.4530 -1.3447 -0.4338
12019SOL     OW36996   0.449   2.023   4.894 -0.1081  0.7144 -0.3562
12019SOL    HW136997   0.531   2.068   4.916 -0.6737  0.4554  2.8582
12019SOL    HW236998   0.475   1.931   4.881  0.4113  1.0768 -2.0799
12020SOL     OW36999   2.751   6.781   5.635 -0.0205  0.3891  0.3573
12020SOL    HW137000   2.740   6.788   5.730 -1.3106  1.4981  0.1596
12020SOL    HW237001   2.758   6.872   5.605  1.7315  0.0033 -0.4861
12021SOL     OW37002   5.904   5.805   6.496  0.3642 -0.3851 -0.0682
12021SOL    HW137003   5.879   5.897   6.505 -0.4330 -0.1730 -3.1396
12021SOL    HW237004   5.929   5.796   6.404  1.4579 -3.0247  0.3864
12022SOL     OW37005   4.761   2.732   6.809  0.1838  0.1991  0.3427
12022SOL    HW137006   4.766   2.684   6.892 -1.4286 -0.3349  0.1740
12022SOL    HW237007   4.803   2.674   6.746 -1.7873 -1.1158  0.1328
12023SOL     OW37008   7.320   6.159   5.437 -0.4770 -0.1853 -0.1726
12023SOL    HW137009   7.397   6.103   5.445  0.8404  1.2948 -1.6792
12023SOL    HW237010   7.249   6.109   5.477  1.3074 -1.4835  1.5056
12024SOL     OW37011   3.788   4.749   5.427  0.0436 -0.1210  0.0350
12024SOL    HW137012   3.860   4.810   5.438 -0.8787  0.9287  0.3912
12024SOL    HW237013   3.822   4.666   5.462  0.2273  0.9582  2.6658
12025SOL     OW37014   5.993   1.211   4.015  0.2845  0.0100 -0.5069
12025SOL    HW137015   6.045   1.132   4.028 -1.0916 -0.6885  0.9920
12025SOL    HW237016   5.998   1.258   4.098 -0.6070  0.4465 -0.6817
12026SOL     OW37017   2.314   4.261   7.220  0.1940  0.2212 -0.4321
12026SOL    HW137018   2.390   4.260   7.162 -0.8579  0.2700 -1.8522
12026SOL    HW237019   2.302   4.354   7.242 -0.6507  0.4709 -1.8585
12027SOL     OW37020   3.433   0.436   3.335 -0.1235 -0.5907  0.1917
12027SOL    HW137021   3.394   0.375   3.273  0.0727 -0.5844  0.0632
12027SOL    HW237022   3.478   0.501   3.281 -0.7215 -0.0619  0.3085
12028SOL     OW37023   1.266   4.095   6.997 -0.1239 -0.2840 -0.4067
12028SOL    HW137024   1.319   4.049   7.062  0.2192  0.3965 -0.1990
12028SOL    HW237025   1.307   4.073   6.913  0.9950  0.8735 -0.1919
12029SOL     OW37026   4.517   6.939   6.412 -0.7536 -0.1127 -0.5225
12029SOL    HW137027   4.545   6.907   6.327  0.5727  2.7299 -1.2808
12029SOL    HW237028   4.480   7.026   6.394 -2.4046 -0.2866  1.5624
12030SOL     OW37029   4.226   0.619   5.432 -0.0133 -0.3247  0.2282
12030SOL    HW137030   4.170   0.648   5.360 -0.0727  2.3886  1.2639
12030SOL    HW237031   4.174   0.634   5.510  0.9355 -0.9945  1.0122
12031SOL     OW37032   2.210   5.499   3.751  0.0263 -0.3220  0.1959
12031SOL    HW137033   2.285   5.519   3.808 -0.7720 -0.9372  1.5092
12031SOL    HW237034   2.247   5.441   3.684  1.2154  1.2540 -0.5742
12032SOL     OW37035   4.941   6.488   0.844 -0.3866 -0.2191 -0.2417
12032SOL    HW137036   4.904   6.504   0.930  0.0382  2.5733 -0.4898
12032SOL    HW237037   4.914   6.564   0.792  0.7313 -1.0270 -2.0931
12033SOL     OW37038   6.878   4.362   4.194  0.0253 -0.3302  0.0940
12033SOL    HW137039   6.858   4.270   4.174  0.1398 -0.7252  1.6557
12033SOL    HW237040   6.965   4.359   4.234 -0.0804  0.4283  0.3832
12034SOL     OW37041   2.280   5.112   5.089  0.0754 -0.1395  0.3547
12034SOL    HW137042   2.369   5.144   5.075 -0.6741  2.3071  0.7368
12034SOL    HW237043   2.239   5.114   5.002 -0.2146  0.7862  0.5050
12035SOL     OW37044   6.151   6.335   7.153 -0.3903 -0.2216 -0.0941
12035SOL    HW137045   6.174   6.425   7.178  0.5560 -0.5387  0.1911
12035SOL    HW237046   6.067   6.344   7.109  0.1602  0.9402 -0.9520
12036SOL     OW37047   1.997   3.146   2.579 -0.2722 -0.2290  0.1752
12036SOL    HW137048   2.050   3.103   2.511  0.4144  2.1400 -0.8781
12036SOL    HW237049   1.944   3.075   2.616  0.4984 -1.8933 -1.7234
12037SOL     OW37050   2.898   1.164   0.680  0.9866 -0.4000  0.2769
12037SOL    HW137051   2.954   1.215   0.620 -0.1023 -0.0682 -0.5046
12037SOL    HW237052   2.889   1.220   0.757 -1.0426  1.1777 -0.9785
12038SOL     OW37053   1.723   4.085   3.103  0.5254 -0.6012  0.1384
12038SOL    HW137054   1.785   4.018   3.074  0.8734 -0.4712  0.5676
12038SOL    HW237055   1.637   4.047   3.087  0.7118 -0.7156 -0.6264
12039SOL     OW37056   1.301   4.925   2.186  0.4425 -0.2219 -0.6450
12039SOL    HW137057   1.387   4.887   2.167 -0.2632 -1.2751 -1.9001
12039SOL    HW237058   1.255   4.859   2.237  1.1238  1.2691  2.1138
12040SOL     OW37059   1.165   7.062   1.884 -0.0244  0.2583 -0.7463
12040SOL    HW137060   1.159   7.153   1.855  1.7552 -0.1089 -2.4758
12040SOL    HW237061   1.169   7.011   1.803  0.4822 -1.2376  0.1702
12041SOL     OW37062   2.348   3.385   4.774 -0.3481  0.1346 -0.0466
12041SOL    HW137063   2.269   3.399   4.721 -0.3786  0.2737  0.0342
12041SOL    HW237064   2.318   3.397   4.864  0.3602  3.2571 -0.1143
12042SOL     OW37065   4.925   2.785   1.927 -0.1842  0.1285 -0.6105
12042SOL    HW137066   4.918   2.729   2.004  1.6930 -0.2507 -0.6498
12042SOL    HW237067   4.842   2.833   1.924 -1.4781 -1.9452 -0.0394
12043SOL     OW37068   0.541   0.110   6.489  0.2532  0.3861 -0.0303
12043SOL    HW137069   0.497   0.148   6.565 -1.2947  1.5280 -1.4474
12043SOL    HW237070   0.584   0.184   6.446  0.9325 -0.2162 -0.4118
12044SOL     OW37071   2.729   1.447   5.258  0.0890  0.2114  0.7459
12044SOL    HW137072   2.784   1.378   5.296 -0.4725 -1.2880 -1.0708
12044SOL    HW237073   2.778   1.477   5.182 -0.9759 -0.2256 -0.1344
12045SOL     OW37074   5.961   6.169   6.137  0.4933 -0.5054  0.0607
12045SOL    HW137075   5.943   6.226   6.061  0.4164 -1.6912 -0.8334
12045SOL    HW237076   5.875   6.158   6.179  0.4460 -0.2530  0.0331
12046SOL     OW37077   6.500   2.573   3.534  0.8195  0.1902  0.0486
12046SOL    HW137078   6.497   2.651   3.590  2.1053  0.3438 -0.0862
12046SOL    HW237079   6.591   2.545   3.536  0.3619 -1.3712  0.1513
12047SOL     OW37080   0.617   4.189   6.924  0.3476 -0.1934  0.0881
12047SOL    HW137081   0.529   4.198   6.887  0.8567  1.0873 -0.8928
12047SOL    HW237082   0.613   4.108   6.974 -1.6185  0.2349  0.7328
12048SOL     OW37083   1.533   1.396   4.659  0.0284  0.1173  0.2416
12048SOL    HW137084   1.573   1.319   4.619  0.4579 -0.5380  1.8407
12048SOL    HW237085   1.584   1.411   4.738 -1.0851  1.0443  0.8155
12049SOL     OW37086   1.467   0.182   3.287 -0.1716 -0.6039 -0.0619
12049SOL    HW137087   1.461   0.087   3.288  1.3175 -0.7337 -0.7654
12049SOL    HW237088   1.450   0.208   3.377  0.5470 -1.6282  0.3877
12050SOL     OW37089   6.643   4.113   4.813  0.2099 -0.0600  0.7367
12050SOL    HW137090   6.577   4.054   4.777 -1.0451  1.0532  1.1211
12050SOL    HW237091   6.726   4.078   4.783 -0.6860 -0.1143 -1.8771
12051SOL     OW37092   7.057   5.338   4.369 -0.4098 -0.0815  0.1809
12051SOL    HW137093   7.140   5.326   4.416  0.1764  2.9946  0.1662
12051SOL    HW237094   7.007   5.398   4.424  0.0596  3.2247 -2.6236
12052SOL     OW37095   4.010   7.429   6.874 -0.0039 -0.2475 -0.2885
12052SOL    HW137096   4.087   7.434   6.931  0.5910  0.5497 -1.1303
12052SOL    HW237097   4.016   7.342   6.833  0.4307 -0.1987 -0.3294
12053SOL     OW37098   5.110   2.352   4.565 -0.3302 -0.0793 -0.5381
12053SOL    HW137099   5.069   2.436   4.581 -0.7445 -0.1779 -1.0609
12053SOL    HW237100   5.162   2.335   4.644 -0.2410  0.6610 -0.4348
12054SOL     OW37101   7.296   2.717   5.991  0.1455  0.8693 -0.4042
12054SOL    HW137102   7.241   2.675   6.057 -1.8316 -0.1203 -2.5673
12054SOL    HW237103   7.385   2.706   6.024 -0.7555  0.4038  2.0554
12055SOL     OW37104   1.583   1.300   3.914  0.1157  0.1068  0.2764
12055SOL    HW137105   1.594   1.205   3.915  0.0538  0.0601 -1.3237
12055SOL    HW237106   1.595   1.324   3.822 -4.1136  1.1448 -0.1742
12056SOL     OW37107   5.609   4.755   5.744  0.2742 -0.1659 -0.0986
12056SOL    HW137108   5.687   4.702   5.757  0.8931  1.0748  1.5578
12056SOL    HW237109   5.641   4.845   5.741 -0.9502  0.2793 -0.8269
12057SOL     OW37110   7.250   0.190   5.162  0.3799 -0.2960 -0.4118
12057SOL    HW137111   7.241   0.254   5.092  1.9063 -1.1684 -1.4726
12057SOL    HW237112   7.287   0.239   5.235  0.5092  0.2474 -0.8342
12058SOL     OW37113   3.085   6.698   0.635  0.1422 -0.1715 -0.0902
12058SOL    HW137114   3.166   6.690   0.686 -0.3494  1.6788  1.1169
12058SOL    HW237115   3.103   6.767   0.571  0.1861 -1.2730 -1.3008
12059SOL     OW37116   4.775   4.649   6.056  1.2852  0.0769  0.4586
12059SOL    HW137117   4.788   4.555   6.070 -0.1560 -0.2528 -0.1941
12059SOL    HW237118   4.863   4.686   6.059  1.8247 -1.1882  1.3966
12060SOL     OW37119   6.916   5.733   2.388  0.8462 -0.0987 -0.1533
12060SOL    HW137120   6.866   5.678   2.327  0.2844  0.6755 -0.4080
12060SOL    HW237121   6.850   5.781   2.437  1.3186 -0.0715  0.4756
12061SOL     OW37122   2.017   1.827   2.335 -0.6056  0.2313 -0.2265
12061SOL    HW137123   2.028   1.787   2.421  1.8834 -0.2365 -0.6916
12061SOL    HW237124   2.009   1.921   2.353 -1.3104  0.0267  0.5745
12062SOL     OW37125   4.789   1.229   1.648 -0.0586  0.3373  0.2714
12062SOL    HW137126   4.809   1.282   1.725  0.3658  1.1078 -0.3581
12062SOL    HW237127   4.864   1.170   1.640 -0.4310 -0.2232  0.8472
12063SOL     OW37128   2.410   3.116   0.153  0.0751 -0.1352  0.0429
12063SOL    HW137129   2.340   3.163   0.108 -1.1670 -1.9807 -0.1000
12063SOL    HW237130   2.385   3.119   0.246 -0.3924 -1.0219 -0.0358
12064SOL     OW37131   3.484   0.718   7.323 -0.2308  0.3490 -0.3808
12064SOL    HW137132   3.478   0.768   7.404  0.3376  1.1322 -0.8060
12064SOL    HW237133   3.481   0.784   7.253 -0.8758 -0.3213 -1.0085
12065SOL     OW37134   6.597   1.189   4.309  0.1796 -0.0368  0.7997
12065SOL    HW137135   6.625   1.203   4.400 -0.1803 -0.3703  0.9641
12065SOL    HW237136   6.672   1.145   4.268 -0.4065 -1.7591  1.4732
12066SOL     OW37137   6.965   7.114   1.273  0.1729  0.0996 -0.2161
12066SOL    HW137138   7.000   7.152   1.354 -0.0996 -1.9516  0.9395
12066SOL    HW237139   6.905   7.046   1.303  0.7981 -1.3913 -2.1523
12067SOL     OW37140   4.060   0.537   6.367  0.3313  0.0547  0.4271
12067SOL    HW137141   4.000   0.578   6.304 -0.8432 -0.2500  1.3214
12067SOL    HW237142   4.016   0.455   6.391  1.2175 -0.2787  0.9360
12068SOL     OW37143   1.685   2.410   4.865 -0.3278 -0.0222 -0.4541
12068SOL    HW137144   1.670   2.500   4.838 -0.5122 -0.4663 -1.9508
12068SOL    HW237145   1.713   2.416   4.956  2.2087  1.7758 -1.2318
12069SOL     OW37146   2.968   0.393   4.219  0.0787  0.2306  0.2587
12069SOL    HW137147   3.045   0.444   4.245 -0.9631  0.9669  2.0988
12069SOL    HW237148   3.005   0.319   4.171  1.7653  1.6724 -0.8039
12070SOL     OW37149   0.363   1.872   1.531 -0.0747  0.0595  0.5061
12070SOL    HW137150   0.424   1.825   1.476 -0.6982  0.5366 -0.6193
12070SOL    HW237151   0.313   1.928   1.471 -2.1195 -0.8417  1.2690
12071SOL     OW37152   1.724   2.453   3.366 -0.4768  0.3104  0.5518
12071SOL    HW137153   1.726   2.379   3.307 -0.9981  0.1575  0.7179
12071SOL    HW237154   1.816   2.480   3.375 -0.5162  1.5007 -1.7643
12072SOL     OW37155   6.556   5.165   4.951  0.4312  0.3033  0.2547
12072SOL    HW137156   6.543   5.229   5.021 -0.7396 -1.4420  1.7215
12072SOL    HW237157   6.470   5.125   4.940  1.2058 -1.2431 -0.3782
12073SOL     OW37158   4.238   0.711   1.231 -0.0283  0.4817  0.1545
12073SOL    HW137159   4.149   0.747   1.236 -0.1326  0.1917  0.3617
12073SOL    HW237160   4.267   0.732   1.142  0.1437  1.6317  0.4660
12074SOL     OW37161   4.330   0.788   0.673  0.1808  0.1641  0.9444
12074SOL    HW137162   4.353   0.774   0.581 -0.8074 -0.4827  0.7739
12074SOL    HW237163   4.414   0.794   0.718  0.6887  1.2315 -0.0960
12075SOL     OW37164   5.567   6.767   6.720 -0.1162  0.2318 -0.1666
12075SOL    HW137165   5.595   6.675   6.722  0.3840  0.3889  0.1909
12075SOL    HW237166   5.545   6.786   6.811 -0.4491  0.3979 -0.2827
12076SOL     OW37167   2.658   1.640   4.266 -0.0737  0.2294  0.3512
12076SOL    HW137168   2.703   1.607   4.344 -1.2845 -1.3703  0.4256
12076SOL    HW237169   2.682   1.732   4.262 -0.0009  0.3760  2.6508
12077SOL     OW37170   7.404   3.910   2.023 -0.0709  0.0301  0.0037
12077SOL    HW137171   7.485   3.900   2.072  0.0345  1.0368  0.0487
12077SOL    HW237172   7.347   3.960   2.081 -1.8473 -3.1260  1.2337
12078SOL     OW37173   6.231   4.064   6.701 -0.1518 -0.3244 -0.3866
12078SOL    HW137174   6.315   4.109   6.690 -0.3327  0.4326  1.0672
12078SOL    HW237175   6.246   4.001   6.771 -0.8260 -0.0799 -0.0073
12079SOL     OW37176   5.044   0.970   2.178 -0.4114  0.5539  0.3211
12079SOL    HW137177   5.131   0.937   2.200 -0.5188  0.8851  1.3109
12079SOL    HW237178   4.987   0.893   2.183  0.1054 -0.0835 -2.3157
12080SOL     OW37179   2.363   2.706   6.186 -0.1642 -0.4097 -0.2285
12080SOL    HW137180   2.267   2.702   6.178 -0.2927  0.5068  0.6139
12080SOL    HW237181   2.384   2.633   6.245 -0.5065  0.2155  0.6909
12081SOL     OW37182   3.109   7.369   0.284  0.2889 -0.0707  0.2285
12081SOL    HW137183   3.189   7.375   0.231  0.1145  0.9635  0.0573
12081SOL    HW237184   3.068   7.454   0.274 -1.1018 -0.7573 -0.0857
12082SOL     OW37185   3.126   6.839   5.794  0.1795  0.2857  0.0562
12082SOL    HW137186   3.196   6.778   5.771  1.4519  1.6077  0.3020
12082SOL    HW237187   3.115   6.894   5.717  1.3368  1.8366  0.9595
12083SOL     OW37188   5.023   4.870   0.443 -0.5290  0.2406 -0.3501
12083SOL    HW137189   4.952   4.865   0.507 -0.7031  0.2797 -0.5396
12083SOL    HW237190   4.986   4.919   0.369 -0.2133  0.5250 -0.3252
12084SOL     OW37191   0.443   2.462   5.787  0.2410  0.7473  0.0719
12084SOL    HW137192   0.522   2.460   5.840 -0.5411 -1.4657  1.3002
12084SOL    HW237193   0.471   2.432   5.700  0.3570 -3.2873  1.3073
12085SOL     OW37194   6.547   1.182   0.971  0.4754 -0.3050  0.1198
12085SOL    HW137195   6.524   1.111   0.911 -2.2362  0.9641 -0.5346
12085SOL    HW237196   6.585   1.250   0.916 -1.2490  0.5325 -0.1036
12086SOL     OW37197   1.026   0.472   5.734  0.1681  0.5826 -0.2656
12086SOL    HW137198   1.089   0.534   5.770  0.5783 -0.3267  0.5964
12086SOL    HW237199   1.002   0.416   5.807  0.8929 -1.2133 -1.3542
12087SOL     OW37200   2.991   2.319   5.665 -0.4101 -0.9285 -0.0988
12087SOL    HW137201   2.921   2.382   5.680  0.6042  0.2114 -0.0109
12087SOL    HW237202   3.027   2.343   5.579  0.9508 -0.4279  0.5909
12088SOL     OW37203   2.146   5.945   7.347  0.5188 -0.0998  0.1502
12088SOL    HW137204   2.106   5.873   7.298  0.3194  0.0970  0.0236
12088SOL    HW237205   2.100   5.946   7.431  0.7255 -0.3102  0.2670
12089SOL     OW37206   0.046   4.251   6.814  0.6830  0.3974  0.2238
12089SOL    HW137207   0.101   4.296   6.750  2.9930 -0.0872  1.7801
12089SOL    HW237208   0.041   4.161   6.782  1.5892  0.2255  0.5410
12090SOL     OW37209   6.765   4.333   7.024 -0.5069 -0.1058  0.0480
12090SOL    HW137210   6.853   4.336   6.989 -0.1069 -1.8001  0.8404
12090SOL    HW237211   6.775   4.355   7.117 -0.6331 -2.0785  0.5650
12091SOL     OW37212   3.797   3.387   6.645 -0.4593 -0.0646  0.1064
12091SOL    HW137213   3.864   3.359   6.582 -1.1976  0.0648 -0.7531
12091SOL    HW237214   3.838   3.459   6.692 -0.3414  0.6965 -1.1069
12092SOL     OW37215   2.762   5.443   2.110  0.5531 -0.2851  0.1720
12092SOL    HW137216   2.733   5.358   2.143 -2.6352  0.3064 -0.7885
12092SOL    HW237217   2.752   5.503   2.183  0.2168 -0.2448  0.0925
12093SOL     OW37218   5.699   2.291   6.493 -0.2713  0.4243 -0.1401
12093SOL    HW137219   5.682   2.209   6.540  0.1930 -0.0845 -0.8451
12093SOL    HW237220   5.677   2.360   6.556  1.7312 -0.2364  1.3960
12094SOL     OW37221   1.286   7.376   5.617  0.5426 -0.7468 -0.0743
12094SOL    HW137222   1.293   7.305   5.553 -0.3472 -0.5540 -0.3962
12094SOL    HW237223   1.193   7.400   5.616  1.1840  2.1252 -1.8123
12095SOL     OW37224   1.195   5.170   3.288 -0.0505  0.7721  0.5397
12095SOL    HW137225   1.176   5.125   3.206 -0.9545  0.1228  1.0868
12095SOL    HW237226   1.191   5.263   3.266  0.8881  0.5983 -0.3971
12096SOL     OW37227   5.117   5.483   1.364  0.7826  0.1247 -1.0883
12096SOL    HW137228   5.111   5.388   1.359 -1.4281  0.2030 -0.6164
12096SOL    HW237229   5.066   5.508   1.441  1.8857  1.6728 -0.7940
12097SOL     OW37230   4.940   7.331   6.915 -0.4693 -0.3162  0.6131
12097SOL    HW137231   4.878   7.360   6.847  1.2370  1.6540 -0.2054
12097SOL    HW237232   4.944   7.236   6.905 -1.7547 -0.2698 -0.7095
12098SOL     OW37233   3.644   1.233   1.915 -0.4766 -0.5461  0.4274
12098SOL    HW137234   3.606   1.314   1.950 -1.8155 -0.9097 -0.1295
12098SOL    HW237235   3.607   1.225   1.828  0.2235 -1.3968  0.1913
12099SOL     OW37236   7.329   4.752   6.729 -0.0472  0.0512  0.0330
12099SOL    HW137237   7.423   4.759   6.741 -0.0783 -0.4520  0.6706
12099SOL    HW237238   7.292   4.776   6.814 -0.4499 -0.5864  0.0507
12100SOL     OW37239   0.172   0.456   3.741  0.0702  0.1581  0.1648
12100SOL    HW137240   0.095   0.463   3.684  0.4189 -0.9156 -0.4719
12100SOL    HW237241   0.242   0.497   3.690 -0.1491  1.5237  0.9235
12101SOL     OW37242   1.895   2.937   3.598  0.1689 -0.5630 -0.4570
12101SOL    HW137243   1.812   2.904   3.564  0.2057 -0.8810 -0.2338
12101SOL    HW237244   1.908   2.892   3.681  1.4859 -1.9449 -1.3571
12102SOL     OW37245   3.366   6.175   0.427  0.2519 -0.3348  0.2862
12102SOL    HW137246   3.447   6.166   0.376  0.1788  0.4120  0.0199
12102SOL    HW237247   3.381   6.253   0.481 -0.3662 -0.0751  0.0867
12103SOL     OW37248   0.660   3.970   4.740  0.0454  0.1192 -0.0581
12103SOL    HW137249   0.681   4.054   4.699 -0.7556  1.5722  2.2860
12103SOL    HW237250   0.640   3.992   4.831  1.9528 -2.9020  1.2717
12104SOL     OW37251   5.470   0.883   3.011  0.5945  0.0171  0.0209
12104SOL    HW137252   5.383   0.869   3.050 -0.1279 -0.6145 -1.6903
12104SOL    HW237253   5.461   0.849   2.922  2.4163  0.5912 -0.4130
12105SOL     OW37254   1.139   1.375   5.474 -0.5469  0.4068  0.2400
12105SOL    HW137255   1.204   1.400   5.539 -1.2002  0.2293  0.9746
12105SOL    HW237256   1.137   1.449   5.412  1.0832 -0.0461 -0.3951
12106SOL     OW37257   3.589   2.042   4.325  0.1062 -0.0658  0.1551
12106SOL    HW137258   3.529   2.037   4.250 -0.2820  1.8875  0.2847
12106SOL    HW237259   3.532   2.037   4.402  0.2457  0.3090  0.2880
12107SOL     OW37260   5.646   0.677   6.708 -0.4212 -0.7887  0.1300
12107SOL    HW137261   5.630   0.593   6.752 -1.3862 -0.0918  1.1886
12107SOL    HW237262   5.740   0.691   6.716 -0.4317 -1.1739  1.1106
12108SOL     OW37263   1.997   6.445   5.149  0.4558  0.1575  0.6753
12108SOL    HW137264   1.936   6.432   5.222 -1.4311 -0.4436 -0.9233
12108SOL    HW237265   2.037   6.531   5.167  0.8366 -0.4037  2.9013
12109SOL     OW37266   6.901   5.934   2.125 -0.2130 -0.6189  0.5005
12109SOL    HW137267   6.829   5.980   2.170 -0.0751 -0.8316  0.9469
12109SOL    HW237268   6.951   6.004   2.083 -1.0421 -0.5248 -0.3437
12110SOL     OW37269   1.185   0.647   2.936  0.1500 -0.4685  0.2445
12110SOL    HW137270   1.222   0.618   3.020  0.1518 -0.0301  0.3978
12110SOL    HW237271   1.169   0.566   2.888 -1.2305 -0.8344  1.2494
12111SOL     OW37272   5.071   2.051   6.208  0.1005 -0.1262  0.4643
12111SOL    HW137273   5.011   1.988   6.168  0.2370  0.9561 -1.5464
12111SOL    HW237274   5.014   2.110   6.257 -0.4098  0.3108 -0.6293
12112SOL     OW37275   1.049   2.052   1.687  0.2696 -0.1664  0.4347
12112SOL    HW137276   0.985   1.982   1.677  1.7480 -1.5096 -0.0152
12112SOL    HW237277   0.998   2.127   1.716 -1.2648 -1.6172  1.6753
12113SOL     OW37278   0.303   4.523   7.097 -0.0307  0.2214 -0.1574
12113SOL    HW137279   0.301   4.554   7.006  0.8691  0.1056 -0.2283
12113SOL    HW237280   0.246   4.447   7.098  0.7910 -0.4304 -0.8896
12114SOL     OW37281   2.796   1.653   6.116  0.3000  0.3871 -0.3831
12114SOL    HW137282   2.797   1.558   6.100 -1.3926  0.5739 -2.0052
12114SOL    HW237283   2.867   1.687   6.062  0.1620  0.1390 -0.7272
12115SOL     OW37284   1.798   5.473   2.201  0.1278  0.2838  0.2623
12115SOL    HW137285   1.838   5.403   2.253  2.1495  1.6714  0.6768
12115SOL    HW237286   1.733   5.512   2.260  1.4691  0.9814  1.3437
12116SOL     OW37287   2.100   3.569   5.476  0.3257  0.2091  0.3140
12116SOL    HW137288   2.135   3.486   5.446  1.7814  1.1299 -0.6375
12116SOL    HW237289   2.163   3.634   5.447 -1.3298  1.7768  0.0549
12117SOL     OW37290   6.460   1.476   0.171 -0.2722  0.4434  0.1788
12117SOL    HW137291   6.554   1.492   0.178 -0.0499 -0.3334 -0.8021
12117SOL    HW237292   6.430   1.533   0.100 -0.6873  1.1837  0.9241
12118SOL     OW37293   0.659   3.062   4.694  0.1669  0.0264 -0.5607
12118SOL    HW137294   0.676   3.124   4.623 -0.9172  1.3077  0.2479
12118SOL    HW237295   0.639   2.980   4.649  0.2046  0.6230 -1.7180
12119SOL     OW37296   0.208   1.592   3.458  0.3800 -0.2525  0.5553
12119SOL    HW137297   0.217   1.514   3.512  0.4378 -0.4723  0.2355
12119SOL    HW237298   0.231   1.562   3.370 -1.0527 -0.2462  0.1443
12120SOL     OW37299   0.649   0.469   0.649  0.4855 -0.0387  0.2979
12120SOL    HW137300   0.579   0.406   0.640 -0.1841  0.6547  0.5538
12120SOL    HW237301   0.725   0.418   0.678  0.0045 -0.7391  0.3177
12121SOL     OW37302   6.471   2.114   5.379 -0.3725 -0.0825 -0.4188
12121SOL    HW137303   6.521   2.195   5.390  0.8923 -0.9395  0.4040
12121SOL    HW237304   6.389   2.142   5.339  0.9073  1.3332 -2.2332
12122SOL     OW37305   7.380   5.238   6.214  0.5171 -0.4076  0.0844
12122SOL    HW137306   7.394   5.282   6.298 -0.3098  0.9210 -0.4524
12122SOL    HW237307   7.469   5.219   6.182  0.9412  1.7105 -0.0964
12123SOL     OW37308   2.815   1.711   3.767  0.3946 -0.3863  0.1799
12123SOL    HW137309   2.787   1.761   3.844  0.5445 -0.5336  0.3302
12123SOL    HW237310   2.804   1.771   3.694  0.4656 -0.1719  0.3452
12124SOL     OW37311   2.462   7.174   4.187 -0.3400 -0.0308 -0.3475
12124SOL    HW137312   2.431   7.182   4.277 -0.2015 -0.6308 -0.2441
12124SOL    HW237313   2.383   7.165   4.135 -0.5061  1.6140 -0.4495
12125SOL     OW37314   5.188   1.359   2.969 -0.3219  0.0459 -0.2395
12125SOL    HW137315   5.226   1.410   3.040 -1.0412 -0.2188  0.3572
12125SOL    HW237316   5.103   1.330   3.004 -0.1312 -1.1524 -0.7330
12126SOL     OW37317   0.930   1.646   0.663 -0.1265 -0.6694  0.0459
12126SOL    HW137318   0.992   1.711   0.698 -0.0450 -0.9863  0.5120
12126SOL    HW237319   0.949   1.643   0.569  1.1782 -1.3887  0.3030
12127SOL     OW37320   4.750   3.726   4.161  0.1939  0.1727 -0.0190
12127SOL    HW137321   4.672   3.750   4.211  0.1196  0.9380 -0.4842
12127SOL    HW237322   4.716   3.698   4.076  0.2864 -1.5420  0.4736
12128SOL     OW37323   3.553   4.666   4.659 -0.5024  0.5771 -0.6827
12128SOL    HW137324   3.477   4.682   4.716 -0.5366 -0.6026 -0.3712
12128SOL    HW237325   3.628   4.676   4.717 -0.6009 -2.6342  0.1494
12129SOL     OW37326   2.578   0.351   5.371 -0.1109  0.1412  0.5413
12129SOL    HW137327   2.569   0.424   5.434 -1.3197 -1.4711  2.3683
12129SOL    HW237328   2.533   0.278   5.413 -2.1072 -0.7436 -2.7851
12130SOL     OW37329   2.174   6.695   7.241 -0.9812 -0.1195 -1.0886
12130SOL    HW137330   2.152   6.680   7.333  0.8732  0.8593 -0.4259
12130SOL    HW237331   2.210   6.784   7.239 -3.0232  0.7618 -3.1797
12131SOL     OW37332   6.569   7.232   2.189 -0.5667  0.4293  0.5588
12131SOL    HW137333   6.523   7.304   2.232 -1.2726  1.2242 -1.4177
12131SOL    HW237334   6.523   7.220   2.106  0.3768 -1.4257  0.2423
12132SOL     OW37335   3.257   3.068   6.000  0.0590  0.8352 -0.0365
12132SOL    HW137336   3.225   3.152   6.032 -2.0927 -0.4689  1.4420
12132SOL    HW237337   3.275   3.083   5.907  0.3123  3.0406  0.3082
12133SOL     OW37338   3.889   3.689   1.130 -0.1708  0.7656  0.5852
12133SOL    HW137339   3.982   3.679   1.110 -0.3551  0.9184 -0.4087
12133SOL    HW237340   3.886   3.729   1.217  0.6690 -0.8290  1.3783
12134SOL     OW37341   2.446   0.904   5.694 -0.5431 -0.3935  0.3981
12134SOL    HW137342   2.516   0.963   5.722 -0.5398 -0.8091  1.2647
12134SOL    HW237343   2.409   0.947   5.616  0.2145  0.1702  0.3369
12135SOL     OW37344   4.563   3.185   5.124  0.2679 -0.0928 -0.2396
12135SOL    HW137345   4.539   3.274   5.150 -0.1960  0.2720 -1.7730
12135SOL    HW237346   4.486   3.152   5.077  0.7848 -0.9459 -0.5272
12136SOL     OW37347   6.436   1.458   4.304 -0.6468 -0.4991  0.0133
12136SOL    HW137348   6.471   1.532   4.354  1.8833 -1.0276 -0.8317
12136SOL    HW237349   6.483   1.382   4.337 -1.6447 -1.4145 -0.6087
12137SOL     OW37350   1.550   1.364   0.354 -0.1464 -0.6297 -0.2754
12137SOL    HW137351   1.517   1.448   0.321 -0.1123 -1.0843 -1.5285
12137SOL    HW237352   1.640   1.360   0.321  0.3517 -0.5133  1.0226
12138SOL     OW37353   3.614   3.366   1.680 -0.0192 -0.4185  0.6664
12138SOL    HW137354   3.601   3.433   1.612  1.5924  0.1569  0.8794
12138SOL    HW237355   3.542   3.381   1.742 -0.3473  0.3703  0.1187
12139SOL     OW37356   4.816   3.793   2.225  0.7171 -0.2560 -0.2032
12139SOL    HW137357   4.833   3.806   2.318  0.3256 -0.9724 -0.0287
12139SOL    HW237358   4.875   3.724   2.198 -1.2607 -2.2324  0.2374
12140SOL     OW37359   0.593   3.133   6.207 -0.7049  0.3299  0.4280
12140SOL    HW137360   0.535   3.071   6.164  0.9078 -0.4484 -0.7593
12140SOL    HW237361   0.619   3.193   6.138  0.9125 -0.1482  0.5709
12141SOL     OW37362   3.930   4.187   1.431  0.1341  0.8439  0.0893
12141SOL    HW137363   3.891   4.107   1.466  0.1473  0.9036  0.2365
12141SOL    HW237364   4.022   4.182   1.457  0.8100 -0.4361 -2.1672
12142SOL     OW37365   0.097   4.061   0.694 -0.0057 -0.4702 -0.4268
12142SOL    HW137366   0.029   4.099   0.750 -1.4492 -1.6361 -1.2907
12142SOL    HW237367   0.073   3.968   0.688  1.0893 -0.7066 -1.6005
12143SOL     OW37368   4.248   6.527   4.685  0.1302 -0.1361  0.1766
12143SOL    HW137369   4.208   6.490   4.764 -0.0293 -0.9611 -0.2672
12143SOL    HW237370   4.337   6.490   4.684  0.0884 -0.2326 -0.0877
12144SOL     OW37371   0.307   3.397   2.500 -0.3023  0.8485  0.6272
12144SOL    HW137372   0.310   3.441   2.585  3.8093 -1.7120  2.0680
12144SOL    HW237373   0.396   3.405   2.465  0.6469 -5.1223  0.6171
12145SOL     OW37374   1.292   7.143   3.130 -0.1788 -0.1860 -0.1516
12145SOL    HW137375   1.223   7.078   3.142  0.4475 -0.8887 -0.3107
12145SOL    HW237376   1.267   7.214   3.189 -0.2241 -1.0966  0.9715
12146SOL     OW37377   3.421   2.733   4.193 -0.0219  0.0131 -0.0696
12146SOL    HW137378   3.421   2.682   4.274  0.6741 -1.3465 -0.8813
12146SOL    HW237379   3.350   2.696   4.141  0.7885 -0.4855 -0.8612
12147SOL     OW37380   6.427   7.422   2.324 -0.1213  0.3340 -0.8239
12147SOL    HW137381   6.447   7.515   2.334 -0.2580  0.1590  1.7319
12147SOL    HW237382   6.404   7.393   2.412  0.9872 -2.3738 -1.3363
12148SOL     OW37383   4.650   3.344   0.839 -0.8813  0.1487  0.6181
12148SOL    HW137384   4.717   3.277   0.847 -1.9462 -0.9963  0.2439
12148SOL    HW237385   4.682   3.417   0.892  1.5767  0.4273 -1.0878
12149SOL     OW37386   6.159   3.537   2.334 -0.0666 -0.0814 -0.2099
12149SOL    HW137387   6.200   3.516   2.417  1.6690 -0.9100 -1.2162
12149SOL    HW237388   6.070   3.565   2.357  0.2936 -0.5050  1.8728
12150SOL     OW37389   6.855   2.431   6.062 -0.1173  0.4644 -0.1623
12150SOL    HW137390   6.871   2.363   5.997 -2.2690  1.7322 -2.1767
12150SOL    HW237391   6.939   2.477   6.069  0.8416 -1.2044 -0.1350
12151SOL     OW37392   5.701   3.342   6.545  0.5422  0.7019  0.2514
12151SOL    HW137393   5.678   3.336   6.453 -0.0971 -2.1046  0.5201
12151SOL    HW237394   5.657   3.422   6.575  0.0906  1.2245 -1.6588
12152SOL     OW37395   0.863   5.396   6.792  0.0676 -0.1263  0.1895
12152SOL    HW137396   0.783   5.367   6.749  0.0634 -0.4404  0.4038
12152SOL    HW237397   0.902   5.316   6.826  1.2430 -0.1735 -1.1874
12153SOL     OW37398   4.123   6.185   3.293  0.5861  0.7704 -0.0402
12153SOL    HW137399   4.151   6.114   3.351  0.0628 -0.3710 -1.1424
12153SOL    HW237400   4.028   6.178   3.291  0.6627 -1.2253 -3.3721
12154SOL     OW37401   0.474   3.724   0.332  0.3218  0.3962  0.3043
12154SOL    HW137402   0.561   3.747   0.363  1.2494  0.2747 -2.0466
12154SOL    HW237403   0.440   3.804   0.293  0.2635 -0.1018 -0.6892
12155SOL     OW37404   1.205   2.023   2.728  0.2399 -0.1717 -0.2011
12155SOL    HW137405   1.292   2.022   2.767 -0.2081 -0.2475  0.8365
12155SOL    HW237406   1.158   2.092   2.776  0.0513  0.6336 -1.4999
12156SOL     OW37407   3.056   6.078   2.693  0.0497  0.1374  0.3097
12156SOL    HW137408   3.128   6.023   2.722  0.5118  0.4760 -0.1530
12156SOL    HW237409   2.979   6.022   2.695  0.9204 -1.4133 -2.7286
12157SOL     OW37410   6.566   1.902   4.843  0.1162 -0.3585  0.3435
12157SOL    HW137411   6.660   1.887   4.853  0.1852  0.0626  0.3489
12157SOL    HW237412   6.535   1.831   4.787  1.0779  1.4110 -2.6913
12158SOL     OW37413   1.084   3.508   1.789 -0.1057  0.2323  0.2756
12158SOL    HW137414   1.107   3.415   1.778 -0.5106 -0.0618  1.7239
12158SOL    HW237415   1.117   3.550   1.710  2.2118 -0.7579  0.6310
12159SOL     OW37416   0.287   5.945   5.091  0.0878  0.1995 -0.0451
12159SOL    HW137417   0.204   5.900   5.075  0.5986 -0.8276  0.1726
12159SOL    HW237418   0.300   5.998   5.012  1.2073 -2.7029 -1.9444
12160SOL     OW37419   6.093   7.045   6.430 -0.1718  0.0844  0.6491
12160SOL    HW137420   6.090   6.957   6.468 -0.2644  0.1703  0.8384
12160SOL    HW237421   6.012   7.051   6.378  0.5702 -0.5148 -0.6333
12161SOL     OW37422   2.469   6.115   4.144 -0.0233  0.0479 -0.3633
12161SOL    HW137423   2.380   6.152   4.149  0.0972  0.2525  0.3275
12161SOL    HW237424   2.455   6.024   4.117 -0.4845 -0.0894  0.3107
12162SOL     OW37425   2.770   3.315   5.833  0.4634  0.2952 -0.6850
12162SOL    HW137426   2.797   3.342   5.745 -1.9828  0.2694 -1.4993
12162SOL    HW237427   2.681   3.349   5.843 -0.4695 -2.2710  0.5954
12163SOL     OW37428   4.797   5.237   1.093 -0.1366 -0.6238 -0.0710
12163SOL    HW137429   4.792   5.289   1.173  0.8157  0.1924 -0.5202
12163SOL    HW237430   4.709   5.242   1.056 -0.1670  0.3438  0.0993
12164SOL     OW37431   6.474   0.107   5.920  0.1625 -0.4247 -0.0563
12164SOL    HW137432   6.400   0.167   5.932  1.6802  1.1328  2.6273
12164SOL    HW237433   6.522   0.144   5.846 -0.1671  0.3267  0.0928
12165SOL     OW37434   2.901   5.713   3.475 -0.1483  0.1951 -0.2076
12165SOL    HW137435   2.835   5.649   3.447  1.3935 -1.2461 -0.6683
12165SOL    HW237436   2.854   5.797   3.476 -2.8093 -1.1362  2.3731
12166SOL     OW37437   0.816   0.648   5.911 -0.6080 -0.2034 -0.5508
12166SOL    HW137438   0.774   0.577   5.863 -0.1605 -0.4640 -0.5582
12166SOL    HW237439   0.906   0.649   5.880 -0.2138 -0.6103  0.5219
12167SOL     OW37440   6.620   2.807   1.989  0.0966  0.0255 -0.4837
12167SOL    HW137441   6.634   2.899   2.013 -0.9168 -0.1028  0.6941
12167SOL    HW237442   6.598   2.764   2.071 -0.4858 -1.0614 -1.1906
12168SOL     OW37443   6.450   3.417   0.081 -0.2904 -0.2084  0.6151
12168SOL    HW137444   6.364   3.410   0.123 -0.0395 -0.0226  1.1714
12168SOL    HW237445   6.430   3.426  -0.012 -0.8828 -0.0159  0.7543
12169SOL     OW37446   5.027   1.972   3.302  0.0967  0.0697  0.1572
12169SOL    HW137447   5.075   2.006   3.226 -0.8906  0.7883 -0.1709
12169SOL    HW237448   5.013   1.879   3.282  0.8533 -0.0153 -0.0009
12170SOL     OW37449   1.134   2.750   2.413 -0.7697  0.6725 -0.1121
12170SOL    HW137450   1.054   2.770   2.463 -0.9382  1.4152 -0.6799
12170SOL    HW237451   1.163   2.834   2.379  0.6734  0.5216  0.6753
12171SOL     OW37452   3.856   1.187   2.096 -0.2227 -1.0713 -0.3609
12171SOL    HW137453   3.921   1.169   2.028 -1.4079 -2.2035 -1.2410
12171SOL    HW237454   3.788   1.238   2.052 -0.3290 -0.5815  0.3487
12172SOL     OW37455   3.985   0.689   4.715 -0.4707 -0.2270 -0.0090
12172SOL    HW137456   4.066   0.726   4.679 -1.1387  0.9856 -0.2958
12172SOL    HW237457   3.945   0.762   4.763 -1.4695 -0.7762  0.0062
12173SOL     OW37458   4.653   2.741   4.366 -0.0809 -0.1847  0.2003
12173SOL    HW137459   4.626   2.688   4.441 -0.8493  0.4661  0.3904
12173SOL    HW237460   4.616   2.827   4.383 -0.3637 -0.0588 -0.9947
12174SOL     OW37461   4.808   1.549   1.402 -0.3029 -1.0295  0.3773
12174SOL    HW137462   4.829   1.625   1.457 -0.5759 -3.0431  3.5524
12174SOL    HW237463   4.883   1.491   1.413 -1.3577 -2.4158  0.4142
12175SOL     OW37464   2.194   6.146   0.876  0.0688  0.0299 -0.0026
12175SOL    HW137465   2.166   6.231   0.911  0.6278  0.0109  0.5070
12175SOL    HW237466   2.286   6.138   0.903  0.3877 -0.1991 -1.0784
12176SOL     OW37467   2.902   2.551   6.268  0.6204 -0.1068 -0.3729
12176SOL    HW137468   2.926   2.552   6.360  1.0287  0.5095 -0.4788
12176SOL    HW237469   2.980   2.520   6.222  0.4026 -0.4629 -0.5080
12177SOL     OW37470   4.375   4.621   4.662 -0.2942 -0.1465  0.2461
12177SOL    HW137471   4.430   4.667   4.725  0.3935 -1.6273  0.7639
12177SOL    HW237472   4.311   4.574   4.716 -0.6876 -0.1792 -0.2422
12178SOL     OW37473   4.364   4.045   7.200 -0.1890  0.1086 -0.1386
12178SOL    HW137474   4.389   3.979   7.263  0.2709  2.1584  1.9525
12178SOL    HW237475   4.446   4.087   7.174 -0.5494  0.4760 -0.7294
12179SOL     OW37476   6.914   4.863   2.715 -0.0301 -0.1511  0.5371
12179SOL    HW137477   6.902   4.865   2.810  1.1672  1.0857  0.7021
12179SOL    HW237478   7.009   4.852   2.704 -0.2169 -0.7861 -0.5281
12180SOL     OW37479   3.305   4.473   2.323 -0.7455 -0.1432  0.1817
12180SOL    HW137480   3.391   4.430   2.331 -0.8637 -0.3471  0.3615
12180SOL    HW237481   3.242   4.402   2.335 -0.9425 -0.1792 -0.9648
12181SOL     OW37482   1.480   4.148   3.560 -0.0798 -0.2049 -0.0123
12181SOL    HW137483   1.449   4.204   3.489  0.6271  0.6717  0.3478
12181SOL    HW237484   1.478   4.059   3.524 -1.2792  0.0361 -0.5699
12182SOL     OW37485   2.100   0.516   5.617 -0.1149  0.1105 -0.1874
12182SOL    HW137486   2.125   0.426   5.598  0.8327  0.0685  1.1310
12182SOL    HW237487   2.173   0.551   5.668  1.1411  2.6995 -3.4147
12183SOL     OW37488   0.375   2.345   2.475 -0.4168 -0.3659  0.3168
12183SOL    HW137489   0.380   2.271   2.536 -2.1423 -0.8039 -0.0094
12183SOL    HW237490   0.310   2.403   2.513 -0.4894  0.0390 -0.4081
12184SOL     OW37491   4.287   3.187   1.219 -0.3183  0.1287 -0.1471
12184SOL    HW137492   4.329   3.110   1.178  0.4351  0.7220 -0.5263
12184SOL    HW237493   4.193   3.169   1.213 -0.2495  0.2351 -2.2728
12185SOL     OW37494   5.843   0.756   0.256 -0.0658 -0.1984  0.2477
12185SOL    HW137495   5.917   0.799   0.212  1.0450 -0.9113  1.3712
12185SOL    HW237496   5.840   0.796   0.343 -1.0175 -0.1849  0.2215
12186SOL     OW37497   2.084   2.341   0.746  0.6809 -0.2999  0.2747
12186SOL    HW137498   2.108   2.284   0.673  1.2886 -0.1060  0.3178
12186SOL    HW237499   1.989   2.348   0.741  0.6519 -0.8613 -0.0713
12187SOL     OW37500   4.760   6.434   7.123 -0.5698 -0.5010  0.2879
12187SOL    HW137501   4.767   6.481   7.206  3.6314 -0.3744  0.0846
12187SOL    HW237502   4.789   6.497   7.057 -0.7555 -1.5460 -0.8242
12188SOL     OW37503   5.129   1.519   0.935  0.0591  0.4400  0.8392
12188SOL    HW137504   5.053   1.512   0.877 -0.3796 -0.4896  1.5114
12188SOL    HW237505   5.096   1.565   1.012 -0.1946 -1.1771  1.7234
12189SOL     OW37506   4.408   0.412   3.597 -0.6186 -0.4391  0.5136
12189SOL    HW137507   4.348   0.467   3.546  1.2771  1.0917 -0.2098
12189SOL    HW237508   4.413   0.455   3.682 -0.5528 -0.5599  0.5702
12190SOL     OW37509   4.911   4.123   5.304  0.0495 -0.1333  0.1084
12190SOL    HW137510   4.933   4.211   5.272 -0.7577 -0.1767 -0.6019
12190SOL    HW237511   4.913   4.131   5.400  0.1313  0.6258  0.0480
12191SOL     OW37512   6.788   4.040   1.933  0.4244 -0.2100 -0.1953
12191SOL    HW137513   6.710   4.070   1.886 -0.4863 -1.0483  0.7157
12191SOL    HW237514   6.773   4.066   2.024  0.7262 -1.2674  0.1756
12192SOL     OW37515   2.761   3.430   2.297 -0.4123  0.0626 -0.3000
12192SOL    HW137516   2.794   3.345   2.326 -1.5661  0.0639  1.0703
12192SOL    HW237517   2.774   3.429   2.202  0.0940 -1.4127 -0.2392
12193SOL     OW37518   4.528   4.941   6.521 -0.1523 -0.3904 -0.9325
12193SOL    HW137519   4.535   4.848   6.544  0.0020  0.0303  0.8356
12193SOL    HW237520   4.618   4.968   6.504 -0.1479 -0.4424 -0.9943
12194SOL     OW37521   5.609   5.462   2.598 -0.3643  0.5688  0.3190
12194SOL    HW137522   5.552   5.387   2.614 -0.4665 -0.0614 -2.4540
12194SOL    HW237523   5.550   5.530   2.567 -0.0521  1.2344  1.1645
12195SOL     OW37524   7.051   5.845   1.518 -0.2375 -0.1976  0.1774
12195SOL    HW137525   7.090   5.761   1.494 -1.4123 -0.1496 -2.1587
12195SOL    HW237526   7.125   5.902   1.535  0.8379 -0.3189 -3.3296
12196SOL     OW37527   5.311   1.434   4.883 -0.2231 -0.0827  0.0156
12196SOL    HW137528   5.299   1.371   4.954  2.0314 -0.3648  0.2078
12196SOL    HW237529   5.294   1.384   4.803 -1.0207 -0.2274  0.2683
12197SOL     OW37530   0.252   4.680   2.266  0.2188  0.1133 -0.1076
12197SOL    HW137531   0.332   4.627   2.267  1.1120  1.2216 -2.9756
12197SOL    HW237532   0.204   4.652   2.344  2.3069 -2.2501  0.4707
12198SOL     OW37533   5.469   3.608   0.548 -0.0094  0.1902 -0.0081
12198SOL    HW137534   5.506   3.673   0.608  0.3393  1.2938 -1.3811
12198SOL    HW237535   5.513   3.624   0.465  0.0177 -1.7534 -0.4227
12199SOL     OW37536   7.208   1.181   0.185  0.0339 -0.0815 -0.1541
12199SOL    HW137537   7.138   1.136   0.137  1.0319 -1.4315 -0.4120
12199SOL    HW237538   7.265   1.216   0.116 -0.0945  0.5223  0.0490
12200SOL     OW37539   4.100   7.100   2.770  0.3493 -0.1364  0.7070
12200SOL    HW137540   4.143   7.181   2.797 -0.9876  1.1253 -0.6589
12200SOL    HW237541   4.166   7.054   2.718  0.6720  0.8337  0.2239
12201SOL     OW37542   5.174   2.609   7.232  0.3581  0.0650 -0.3018
12201SOL    HW137543   5.143   2.528   7.190  0.2638 -0.8494  1.4304
12201SOL    HW237544   5.111   2.626   7.302  0.4557  1.5813 -0.5473
12202SOL     OW37545   5.301   5.896   2.992  0.3317 -0.3715  0.1961
12202SOL    HW137546   5.270   5.854   3.072 -0.1301  0.3289  0.3914
12202SOL    HW237547   5.395   5.876   2.989 -0.0574 -2.3682 -0.3102
12203SOL     OW37548   1.424   1.186   6.200  0.3182  0.1447 -0.2612
12203SOL    HW137549   1.441   1.132   6.123 -1.9391 -0.0717 -0.6702
12203SOL    HW237550   1.386   1.126   6.264  3.3384  0.0212  1.6408
12204SOL     OW37551   3.904   7.347   4.387 -0.9199 -0.4745  0.1271
12204SOL    HW137552   3.917   7.302   4.471 -0.5698  0.4207  0.5645
12204SOL    HW237553   3.813   7.375   4.389 -0.6635  0.3464  0.6180
12205SOL     OW37554   5.543   0.068   7.006 -0.0116  0.2417  0.0517
12205SOL    HW137555   5.494   0.010   7.065 -0.4515  0.6635  0.1133
12205SOL    HW237556   5.537   0.154   7.047 -0.4053  0.5625 -0.6450
12206SOL     OW37557   6.055   6.414   2.288 -0.4282 -0.0193 -0.6660
12206SOL    HW137558   6.050   6.319   2.290  1.8106 -0.2151 -1.2577
12206SOL    HW237559   6.019   6.438   2.202 -1.1538 -0.3024 -0.4461
12207SOL     OW37560   1.267   7.154   4.401  0.1800 -0.2604 -0.6023
12207SOL    HW137561   1.206   7.109   4.460  1.4737  0.5720  1.4755
12207SOL    HW237562   1.323   7.084   4.368  0.8815 -0.5170  1.0089
12208SOL     OW37563   2.326   2.298   4.640  0.1928 -0.0378  0.4020
12208SOL    HW137564   2.294   2.248   4.565  0.2903 -0.3646  0.5754
12208SOL    HW237565   2.422   2.294   4.632  0.1987  0.6719  0.0580
12209SOL     OW37566   5.946   2.666   4.915  0.3855  0.2368  0.5184
12209SOL    HW137567   5.884   2.719   4.864 -1.1827 -1.0937  0.9590
12209SOL    HW237568   5.984   2.729   4.977  0.9512  1.4844 -1.0394
12210SOL     OW37569   4.840   3.463   6.707  0.2775 -0.3842 -0.0537
12210SOL    HW137570   4.818   3.394   6.645  2.0747 -0.2099 -0.9757
12210SOL    HW237571   4.928   3.440   6.738  0.3100  0.7118  0.7379
12211SOL     OW37572   2.686   4.047   5.736 -0.0808  0.2330 -0.3256
12211SOL    HW137573   2.773   4.009   5.726 -0.6132 -1.4587  0.9093
12211SOL    HW237574   2.696   4.111   5.807 -0.2161 -1.4863  1.3252
12212SOL     OW37575   3.820   4.957   3.878 -0.3230  0.3717  0.7643
12212SOL    HW137576   3.875   4.898   3.930 -1.2010 -0.0870  1.1980
12212SOL    HW237577   3.778   4.899   3.814 -0.5921  0.6534  0.6873
12213SOL     OW37578   3.160   6.600   3.320 -0.6603  0.2722 -0.5551
12213SOL    HW137579   3.150   6.579   3.228  0.8230 -0.3628 -0.6022
12213SOL    HW237580   3.146   6.695   3.325 -1.8263  0.1495 -1.2346
12214SOL     OW37581   1.461   7.304   5.829 -0.2665  0.5582  0.3916
12214SOL    HW137582   1.398   7.306   5.757 -0.5927 -2.6324  0.4329
12214SOL    HW237583   1.541   7.267   5.790  0.0360  0.2055  1.3136
12215SOL     OW37584   1.897   6.481   7.162  0.0908 -0.1494  0.7029
12215SOL    HW137585   1.911   6.469   7.256 -0.0479  1.4616  0.9714
12215SOL    HW237586   1.906   6.576   7.149 -0.5177 -0.2696 -0.8095
12216SOL     OW37587   0.114   6.627   1.391  0.1981 -0.4986 -0.0721
12216SOL    HW137588   0.108   6.585   1.305  0.6056 -1.2755  0.2707
12216SOL    HW237589   0.102   6.556   1.454  1.1978 -0.1608  0.5254
12217SOL     OW37590   1.952   4.834   4.674  0.4458  0.3158 -0.0480
12217SOL    HW137591   1.968   4.829   4.580  2.1321  0.3700  0.1984
12217SOL    HW237592   2.006   4.907   4.704 -1.5131  1.5099  0.7140
12218SOL     OW37593   0.943   6.396   0.839  0.0925  0.3437  0.0240
12218SOL    HW137594   0.988   6.456   0.780  2.4515 -2.0334 -0.7600
12218SOL    HW237595   1.010   6.335   0.868 -1.8039 -0.8622  2.2432
12219SOL     OW37596   1.459   5.785   5.111  0.1306  0.3562 -0.0383
12219SOL    HW137597   1.424   5.843   5.179 -0.1914 -0.1978  0.2716
12219SOL    HW237598   1.409   5.704   5.120 -3.1709  1.6576 -3.8294
12220SOL     OW37599   3.303   4.950   4.565  0.3373  0.2777  0.2943
12220SOL    HW137600   3.263   5.001   4.494 -0.9916 -2.6546 -1.2350
12220SOL    HW237601   3.353   4.882   4.520  2.7189  0.6293  2.2474
12221SOL     OW37602   2.249   4.920   2.261  0.1938  0.4312  0.7152
12221SOL    HW137603   2.312   4.991   2.275 -1.5551  2.1216  0.4341
12221SOL    HW237604   2.303   4.843   2.244  2.1793  1.7591  0.6711
12222SOL     OW37605   4.797   6.777   4.685 -0.1753  0.1515  0.0472
12222SOL    HW137606   4.825   6.861   4.721  1.6280 -0.3109 -0.2180
12222SOL    HW237607   4.794   6.791   4.590  0.8970 -0.2914 -0.0596
12223SOL     OW37608   0.157   0.977   5.948 -0.5372  0.6916  0.4140
12223SOL    HW137609   0.239   1.007   5.910 -0.6716 -0.9092 -1.3014
12223SOL    HW237610   0.089   1.027   5.902 -0.6339 -0.2787 -0.5473
12224SOL     OW37611   1.346   4.679   0.973  0.3159 -0.1444 -0.0239
12224SOL    HW137612   1.251   4.665   0.972  0.1934  0.3412  1.8630
12224SOL    HW237613   1.364   4.716   1.059  2.4223 -1.6846  0.2795
12225SOL     OW37614   1.819   4.908   0.910 -0.4204  0.0090  0.1131
12225SOL    HW137615   1.903   4.903   0.865 -0.7991  2.5119 -1.0670
12225SOL    HW237616   1.842   4.925   1.002  0.3991  0.7088 -0.2060
12226SOL     OW37617   2.097   5.262   7.339  0.0690  0.3444  0.2915
12226SOL    HW137618   2.137   5.177   7.354  0.7768  0.2037 -2.0062
12226SOL    HW237619   2.171   5.322   7.328 -0.4063  1.0098  0.6082
12227SOL     OW37620   3.261   2.404   6.503 -0.2687 -0.0847  0.0923
12227SOL    HW137621   3.209   2.331   6.536  0.0424 -0.2475  0.2218
12227SOL    HW237622   3.294   2.373   6.419  0.3305 -0.3098  0.4066
12228SOL     OW37623   2.751   5.784   4.171 -1.1997  0.3296 -0.8042
12228SOL    HW137624   2.771   5.692   4.189 -2.0512  0.3500  0.4077
12228SOL    HW237625   2.736   5.787   4.077  0.1520 -0.4954 -1.0703
12229SOL     OW37626   5.260   4.204   2.957 -0.0771  0.0692  0.2078
12229SOL    HW137627   5.290   4.140   3.021 -0.3554 -1.5179 -1.1939
12229SOL    HW237628   5.321   4.277   2.967  1.8362 -1.4369  0.1529
12230SOL     OW37629   4.189   4.775   0.655 -0.1865 -0.2056  0.2629
12230SOL    HW137630   4.251   4.792   0.726  2.2153 -2.1547 -1.2173
12230SOL    HW237631   4.214   4.837   0.586  0.5305 -1.3469 -0.5350
12231SOL     OW37632   6.456   6.134   3.755  0.0073 -0.2558 -0.1475
12231SOL    HW137633   6.368   6.171   3.768 -0.7943 -2.1763  0.2906
12231SOL    HW237634   6.515   6.210   3.757 -1.7052  1.2095 -1.4322
12232SOL     OW37635   4.286   4.356   0.986 -0.7241  0.5718  0.7848
12232SOL    HW137636   4.254   4.442   1.012 -0.5117  0.3717  1.7449
12232SOL    HW237637   4.222   4.323   0.923 -1.3552  0.9911  1.2076
12233SOL     OW37638   4.343   7.397   6.572  0.3388 -0.2688 -0.3853
12233SOL    HW137639   4.264   7.447   6.593  0.0552 -1.3430  1.3509
12233SOL    HW237640   4.415   7.458   6.591 -0.0382  0.6362 -1.7525
12234SOL     OW37641   3.698   6.502   5.770 -0.0196  0.5032 -0.2061
12234SOL    HW137642   3.731   6.435   5.830 -0.9440  0.4578  0.2759
12234SOL    HW237643   3.637   6.456   5.713  1.0013  0.5107 -1.3303
12235SOL     OW37644   0.823   2.494   6.527 -0.3986  0.1203 -0.3132
12235SOL    HW137645   0.835   2.402   6.505 -0.9171 -0.0840  0.2422
12235SOL    HW237646   0.729   2.508   6.519 -0.5910  0.0763  1.5993
12236SOL     OW37647   4.837   4.405   1.446 -0.0196  0.1668 -0.1794
12236SOL    HW137648   4.807   4.447   1.527 -1.5425 -1.5494  0.2058
12236SOL    HW237649   4.903   4.343   1.474 -0.7176 -0.5988 -0.2022
12237SOL     OW37650   2.877   5.174   4.958 -0.0248 -0.0523 -0.2122
12237SOL    HW137651   2.831   5.250   4.994  0.2139  0.4750 -0.9944
12237SOL    HW237652   2.847   5.100   5.011  0.0135  0.6336  0.8033
12238SOL     OW37653   3.072   5.300   0.032 -0.1575 -0.3902 -0.2598
12238SOL    HW137654   2.990   5.263   0.064 -2.2957  1.3138 -3.3281
12238SOL    HW237655   3.111   5.341   0.110 -3.4590  0.8549  0.9376
12239SOL     OW37656   2.226   7.310   2.416  0.8823  0.3450  0.1966
12239SOL    HW137657   2.209   7.225   2.376  2.1989  0.3216 -0.3776
12239SOL    HW237658   2.258   7.289   2.504  1.6228  0.2154 -0.0977
12240SOL     OW37659   3.070   3.912   3.742  0.0582  0.3125  0.2720
12240SOL    HW137660   3.069   3.879   3.652  0.3999 -2.9754  1.3499
12240SOL    HW237661   2.979   3.936   3.759  0.0944  1.5734 -1.0781
12241SOL     OW37662   1.978   0.817   2.397 -0.2678  0.6800 -0.1181
12241SOL    HW137663   2.001   0.735   2.441 -0.3060  0.1242 -1.1157
12241SOL    HW237664   2.063   0.855   2.372 -0.1805  1.5586  1.3870
12242SOL     OW37665   3.700   0.630   3.665  0.0696 -0.0223  0.3661
12242SOL    HW137666   3.717   0.684   3.587  1.3697 -1.0770 -0.1249
12242SOL    HW237667   3.606   0.616   3.665  0.0271  0.1593 -0.9122
12243SOL     OW37668   3.773   3.423   2.119 -0.4905 -0.6370  0.0740
12243SOL    HW137669   3.700   3.433   2.180  0.0733 -0.0841  0.6761
12243SOL    HW237670   3.841   3.380   2.171  0.5970  1.3165  0.3642
12244SOL     OW37671   0.210   6.532   5.109 -0.4628 -0.1712  0.3206
12244SOL    HW137672   0.120   6.550   5.135 -2.1424  0.0462 -4.5575
12244SOL    HW237673   0.226   6.590   5.034  1.8570 -3.5441 -2.1133
12245SOL     OW37674   3.041   0.325   4.965 -0.1233 -0.8018 -0.0602
12245SOL    HW137675   3.125   0.335   4.919  0.2061 -2.7502  0.0159
12245SOL    HW237676   2.975   0.350   4.901  0.4525 -0.8209 -0.6675
12246SOL     OW37677   4.564   3.386   7.088  0.4757 -0.2645 -0.1010
12246SOL    HW137678   4.599   3.354   7.005 -1.5792 -0.5311 -0.9329
12246SOL    HW237679   4.469   3.373   7.080  0.1244  0.7849  1.8288
12247SOL     OW37680   2.438   0.737   0.456  0.0443 -0.4084 -0.7346
12247SOL    HW137681   2.457   0.681   0.531 -0.5294  0.3103 -0.0509
12247SOL    HW237682   2.355   0.705   0.421 -0.5095  0.2883 -0.0740
12248SOL     OW37683   4.607   6.143   6.215 -0.3622 -0.0135 -0.4292
12248SOL    HW137684   4.621   6.183   6.129 -1.3764  2.4247  0.4404
12248SOL    HW237685   4.666   6.190   6.273 -1.6837  0.3471  0.6752
12249SOL     OW37686   5.055   6.288   0.117 -0.4744 -0.3281 -0.0633
12249SOL    HW137687   5.126   6.285   0.053  0.7007 -0.2614  1.1971
12249SOL    HW237688   5.098   6.272   0.201 -1.9544 -0.2548  0.7323
12250SOL     OW37689   5.212   0.606   3.095 -0.8954  0.0665 -0.1479
12250SOL    HW137690   5.158   0.582   3.170 -1.9715  3.3353  0.2687
12250SOL    HW237691   5.154   0.657   3.039  0.7583  0.4624 -1.5849
12251SOL     OW37692   3.564   2.830   1.879 -0.8823  0.3632  0.3855
12251SOL    HW137693   3.540   2.922   1.883 -0.4037  0.5118 -0.0206
12251SOL    HW237694   3.554   2.798   1.969 -2.7771  0.3489  0.2188
12252SOL     OW37695   4.388   4.236   2.020 -0.2076  0.7762 -0.3254
12252SOL    HW137696   4.336   4.197   1.950 -1.2489  0.4542  0.5967
12252SOL    HW237697   4.478   4.210   2.000 -0.7088 -0.9395 -0.5146
12253SOL     OW37698   0.926   6.309   5.754  0.5774 -0.0754  0.7198
12253SOL    HW137699   0.892   6.237   5.701  0.7375 -0.3373  0.9705
12253SOL    HW237700   0.909   6.387   5.701  1.9040 -0.4444 -0.3156
12254SOL     OW37701   4.776   5.349   6.378 -0.2280  0.1716  0.1502
12254SOL    HW137702   4.755   5.292   6.452  0.3932  0.9948  0.9822
12254SOL    HW237703   4.693   5.386   6.351 -0.5430 -0.5951  0.0308
12255SOL     OW37704   4.476   3.833   4.265  0.0147  0.3368 -0.8452
12255SOL    HW137705   4.492   3.921   4.296  1.7262 -0.0530 -0.5398
12255SOL    HW237706   4.387   3.836   4.229 -0.7140  1.6598  0.9480
12256SOL     OW37707   6.458   4.613   6.110 -0.0107  0.4274 -0.2422
12256SOL    HW137708   6.545   4.628   6.145 -0.6355  1.8383  0.7822
12256SOL    HW237709   6.424   4.700   6.092 -1.5990 -0.0395  0.3519
12257SOL     OW37710   5.468   1.530   3.470 -0.2481  0.6779  0.3693
12257SOL    HW137711   5.466   1.482   3.387 -0.9655  0.5620  0.4485
12257SOL    HW237712   5.509   1.470   3.532 -0.2365  0.5478  0.2345
12258SOL     OW37713   5.350   4.940   2.151  0.3047  0.3202  0.2285
12258SOL    HW137714   5.259   4.924   2.176 -0.2106  0.6502 -1.3544
12258SOL    HW237715   5.375   5.019   2.199 -0.2186  0.1975  0.7117
12259SOL     OW37716   0.711   1.181   7.242  0.2588 -0.3274 -0.1064
12259SOL    HW137717   0.786   1.130   7.271  1.3755  0.6984 -1.0733
12259SOL    HW237718   0.635   1.127   7.264  1.3087 -1.7106  0.2502
12260SOL     OW37719   0.669   5.068   7.246  0.3446  0.4647 -0.0019
12260SOL    HW137720   0.641   5.159   7.234 -3.7645 -0.7733 -1.6849
12260SOL    HW237721   0.602   5.030   7.303  0.5372 -2.0766 -1.3447
12261SOL     OW37722   1.955   3.122   1.678 -0.4997  0.1845 -0.3817
12261SOL    HW137723   2.005   3.077   1.746 -2.4162  0.5526  1.3871
12261SOL    HW237724   1.898   3.054   1.642 -1.1792  0.4883  0.0977
12262SOL     OW37725   4.438   4.303   3.875 -0.3649  0.1758 -0.0746
12262SOL    HW137726   4.351   4.293   3.914  0.1213  0.7830  1.2244
12262SOL    HW237727   4.490   4.234   3.917  0.5270  1.7308  1.5188
12263SOL     OW37728   1.142   0.193   0.552 -0.1120 -0.0584  0.0909
12263SOL    HW137729   1.223   0.242   0.566 -0.7791  0.9945  0.3359
12263SOL    HW237730   1.114   0.218   0.464  0.6473 -1.6657 -0.6605
12264SOL     OW37731   6.837   5.591   4.245  0.2294 -0.4801  0.0516
12264SOL    HW137732   6.881   5.567   4.327  1.4849 -1.2106 -0.7978
12264SOL    HW237733   6.898   5.652   4.203 -0.0920 -0.6287 -0.6430
12265SOL     OW37734   6.363   5.018   4.511 -0.3029 -0.0526  0.3231
12265SOL    HW137735   6.427   4.950   4.533  0.9224 -0.0564 -2.7410
12265SOL    HW237736   6.412   5.100   4.520 -0.3141  0.0547 -0.5019
12266SOL     OW37737   3.611   1.624   0.471 -0.4141 -0.4899 -0.2935
12266SOL    HW137738   3.626   1.603   0.563 -0.3350 -1.8901 -0.6047
12266SOL    HW237739   3.647   1.712   0.460 -2.1350  0.5057  1.4399
12267SOL     OW37740   4.908   2.169   3.432  0.1401 -0.0383  0.0367
12267SOL    HW137741   4.893   2.184   3.339 -0.9000  0.0009  0.1943
12267SOL    HW237742   4.944   2.080   3.437  2.2624  0.7324 -0.5529
12268SOL     OW37743   5.652   1.214   1.842 -0.2509 -0.0310  0.3840
12268SOL    HW137744   5.723   1.169   1.797  0.2422 -0.1811  1.2752
12268SOL    HW237745   5.579   1.213   1.780  0.3439 -0.3796 -0.3256
12269SOL     OW37746   1.134   5.817   0.621  0.7065  0.6628  0.1086
12269SOL    HW137747   1.152   5.911   0.619  1.1997  0.5988  1.0455
12269SOL    HW237748   1.064   5.807   0.685  1.2161  0.3151  0.6239
12270SOL     OW37749   0.362   3.517   6.923  0.3087 -0.0843  0.0814
12270SOL    HW137750   0.301   3.443   6.912 -1.1019  0.6612  2.3232
12270SOL    HW237751   0.430   3.483   6.981  0.7868 -0.1990 -0.5313
12271SOL     OW37752   3.943   7.097   1.849  0.5795  0.5225  0.5723
12271SOL    HW137753   3.938   7.009   1.885 -1.7435  0.4099  0.0766
12271SOL    HW237754   3.916   7.155   1.921  2.6054  0.9603  1.0709
12272SOL     OW37755   0.367   0.730   6.067 -0.1844  0.0572  0.2890
12272SOL    HW137756   0.379   0.640   6.037 -0.5601  0.3860 -0.9067
12272SOL    HW237757   0.272   0.737   6.082  0.0438 -0.2345  2.0725
12273SOL     OW37758   3.970   1.158   4.764 -0.6609  0.3175 -0.0078
12273SOL    HW137759   4.063   1.180   4.765 -0.6989  0.5128  1.4836
12273SOL    HW237760   3.960   1.090   4.830 -1.3846 -0.6202 -1.0415
12274SOL     OW37761   6.731   0.144   2.211 -0.7926  0.2690  0.1742
12274SOL    HW137762   6.712   0.117   2.301  0.5553  0.5196  0.5576
12274SOL    HW237763   6.697   0.233   2.204 -0.8638  0.2627  0.4534
12275SOL     OW37764   0.733   4.447   6.889 -0.5652  0.5183 -0.6434
12275SOL    HW137765   0.706   4.356   6.896  0.5108  0.1304 -1.3061
12275SOL    HW237766   0.693   4.490   6.965 -0.0514 -0.7537  0.3747
12276SOL     OW37767   3.621   2.309   3.105 -0.0173 -0.4548 -0.7591
12276SOL    HW137768   3.658   2.357   3.178  1.8362 -1.4261 -0.9986
12276SOL    HW237769   3.530   2.292   3.130  1.1092 -2.6880  2.3671
12277SOL     OW37770   5.000   3.601   5.033 -0.7107  0.2038 -0.3139
12277SOL    HW137771   4.919   3.552   5.019 -0.3417 -0.6582  0.4497
12277SOL    HW237772   5.033   3.619   4.945 -0.0916 -2.2530 -0.6522
12278SOL     OW37773   1.191   1.586   5.311 -0.0312  0.3603  0.0059
12278SOL    HW137774   1.273   1.635   5.318  0.3932 -0.4913  1.3304
12278SOL    HW237775   1.143   1.630   5.241  1.0700  1.5760 -0.0262
12279SOL     OW37776   6.455   6.888   4.378 -0.4880 -0.2375  0.3188
12279SOL    HW137777   6.445   6.978   4.348  0.8568 -0.2733 -0.3000
12279SOL    HW237778   6.539   6.860   4.343 -1.3514 -2.0985 -0.3899
12280SOL     OW37779   5.651   4.899   2.813  0.0188 -0.2769 -0.2027
12280SOL    HW137780   5.701   4.977   2.837  0.5073 -0.7892  0.4621
12280SOL    HW237781   5.632   4.911   2.720  1.3965 -0.0806 -0.4785
12281SOL     OW37782   3.036   2.358   6.845  0.0743  0.4120  0.1871
12281SOL    HW137783   2.955   2.406   6.827  0.1550  0.7954  0.8073
12281SOL    HW237784   3.080   2.410   6.912  0.2109 -0.4742  0.8154
12282SOL     OW37785   1.108   2.530   2.928 -0.3713  0.1426  0.3738
12282SOL    HW137786   1.065   2.444   2.932 -1.4207  0.6595  0.6084
12282SOL    HW237787   1.201   2.510   2.916 -0.5079 -1.0434  1.1325
12283SOL     OW37788   6.412   3.890   2.116 -0.0804  0.2479 -0.7158
12283SOL    HW137789   6.415   3.973   2.164 -2.2146  0.2602 -0.5387
12283SOL    HW237790   6.441   3.913   2.028 -2.0766  1.5336 -1.0916
12284SOL     OW37791   2.813   1.017   4.040  0.5860  0.9343 -0.5197
12284SOL    HW137792   2.798   1.102   4.000  0.5686  3.2787  3.7989
12284SOL    HW237793   2.908   1.011   4.051  0.5639  0.5739 -0.4859
12285SOL     OW37794   6.021   2.387   4.125 -0.3357  0.0434  0.0484
12285SOL    HW137795   6.035   2.479   4.145  0.5117  0.0325 -0.4093
12285SOL    HW237796   5.955   2.358   4.188  2.3708 -0.0741  3.1346
12286SOL     OW37797   3.580   4.248   4.628  0.5050  0.1284  0.4884
12286SOL    HW137798   3.567   4.326   4.682  0.5937 -0.7015  1.7482
12286SOL    HW237799   3.507   4.191   4.650  1.9100 -1.3021  1.7267
12287SOL     OW37800   7.316   5.149   7.269 -0.6968  0.4365 -0.2462
12287SOL    HW137801   7.282   5.212   7.334 -1.7724 -0.5074  0.1352
12287SOL    HW237802   7.253   5.077   7.271 -0.8072  0.4330 -2.4457
12288SOL     OW37803   2.993   0.355   0.182  0.1383 -0.0543 -0.4001
12288SOL    HW137804   3.038   0.376   0.264 -0.8800  0.1373  0.1290
12288SOL    HW237805   2.908   0.399   0.189 -0.3426 -0.8270 -1.1417
12289SOL     OW37806   2.208   6.659   5.172  0.4527 -0.2464  0.3860
12289SOL    HW137807   2.272   6.692   5.235  1.6020 -0.0878 -0.8324
12289SOL    HW237808   2.139   6.726   5.171  1.6922  1.0800 -0.4259
12290SOL     OW37809   2.131   5.243   3.562  0.5563 -0.0889 -0.3480
12290SOL    HW137810   2.151   5.166   3.615  2.4128  1.2240  0.9534
12290SOL    HW237811   2.070   5.294   3.616 -0.6158 -0.5414 -1.1784
12291SOL     OW37812   3.152   4.828   2.791  0.6770  0.0061 -0.4143
12291SOL    HW137813   3.245   4.806   2.791  0.5813 -0.4441 -1.3825
12291SOL    HW237814   3.146   4.908   2.739  0.7124  0.9772  1.0244
12292SOL     OW37815   3.490   1.474   4.260  0.4883 -0.3652 -0.3294
12292SOL    HW137816   3.528   1.562   4.268  0.7399 -0.4586 -0.5008
12292SOL    HW237817   3.458   1.454   4.348  0.3583 -0.0683 -0.3081
12293SOL     OW37818   5.781   1.472   5.956 -0.5801  0.1028  0.4615
12293SOL    HW137819   5.731   1.527   5.896 -0.4873  0.4334  0.6842
12293SOL    HW237820   5.722   1.400   5.977 -0.0631 -0.8501 -1.2280
12294SOL     OW37821   0.425   6.384   7.367  0.1755 -0.0583 -0.2432
12294SOL    HW137822   0.455   6.458   7.420 -2.5941  0.8436  0.2113
12294SOL    HW237823   0.474   6.309   7.401 -0.9640  0.5843  3.2335
12295SOL     OW37824   5.913   0.734   5.897 -0.0845 -0.0358 -0.4131
12295SOL    HW137825   5.955   0.816   5.872  0.1388 -0.7611 -2.7279
12295SOL    HW237826   5.981   0.667   5.883  0.1551 -0.5470  2.6755
12296SOL     OW37827   2.476   7.368   3.921  0.1048  0.7383  0.1086
12296SOL    HW137828   2.508   7.452   3.952  1.0953  0.3801  0.1152
12296SOL    HW237829   2.502   7.306   3.989 -4.5535  0.9196  2.4618
12297SOL     OW37830   6.159   5.578   6.824  0.6606 -0.4977 -0.3531
12297SOL    HW137831   6.074   5.534   6.829  0.1856  0.2929 -1.3303
12297SOL    HW237832   6.159   5.623   6.740  1.1011  1.4414  0.6250
12298SOL     OW37833   5.196   2.996   6.329 -0.6246 -0.2229 -0.6296
12298SOL    HW137834   5.261   3.066   6.325 -0.0201 -0.7752 -0.7156
12298SOL    HW237835   5.245   2.917   6.305 -1.4321 -0.5818 -1.1217
12299SOL     OW37836   0.589   5.328   6.761 -0.2518 -0.5718  0.5456
12299SOL    HW137837   0.568   5.387   6.834  0.3731  0.9430 -0.4361
12299SOL    HW237838   0.509   5.279   6.745 -0.9403  0.3267  1.1417
12300SOL     OW37839   2.231   5.298   2.409 -0.5803 -0.0172  0.5781
12300SOL    HW137840   2.195   5.265   2.327  0.7422 -0.6946  0.2563
12300SOL    HW237841   2.258   5.220   2.457 -0.9928  0.3962  1.5087
12301SOL     OW37842   1.813   3.160   5.772 -0.1264  0.2880 -0.1721
12301SOL    HW137843   1.842   3.178   5.683 -0.4578 -0.0862 -0.3617
12301SOL    HW237844   1.723   3.193   5.775 -0.2804 -0.1285 -0.1243
12302SOL     OW37845   0.626   0.721   3.649  0.3185  0.1706 -0.9369
12302SOL    HW137846   0.574   0.797   3.675  0.5335 -0.4452  1.4910
12302SOL    HW237847   0.561   0.657   3.620 -0.1791  0.0176  0.4481
12303SOL     OW37848   4.524   3.364   0.615  0.0639 -0.0040 -0.3392
12303SOL    HW137849   4.572   3.348   0.695  0.8453  0.3995 -0.7176
12303SOL    HW237850   4.546   3.290   0.558 -1.4677 -0.9537  0.2394
12304SOL     OW37851   5.847   6.160   1.788 -0.1404 -0.0141  0.1124
12304SOL    HW137852   5.922   6.105   1.809 -0.9281 -0.9159  0.7118
12304SOL    HW237853   5.883   6.247   1.773  1.0959 -0.5936 -0.3989
12305SOL     OW37854   3.368   6.569   4.143  0.3749 -0.6106 -0.4340
12305SOL    HW137855   3.388   6.571   4.237  0.9528 -4.0230 -0.3374
12305SOL    HW237856   3.412   6.645   4.107  1.2053  0.0933  1.8844
12306SOL     OW37857   6.686   4.713   3.987  0.0284 -0.1072 -0.4820
12306SOL    HW137858   6.775   4.680   3.999 -0.4360 -1.5117 -0.7828
12306SOL    HW237859   6.629   4.645   4.023 -0.9468  0.7088 -0.4169
12307SOL     OW37860   7.158   5.892   4.571  0.0669  0.1371 -0.7838
12307SOL    HW137861   7.214   5.818   4.546  2.1442  0.5542  2.1527
12307SOL    HW237862   7.078   5.851   4.603  0.3430 -0.7333 -1.1574
12308SOL     OW37863   6.404   6.080   1.460  0.2292  0.0475  0.5088
12308SOL    HW137864   6.479   6.023   1.475  0.0515 -0.0013  1.2497
12308SOL    HW237865   6.371   6.100   1.548 -1.2274 -0.7484  0.1879
12309SOL     OW37866   1.228   1.740   6.052 -0.2895  0.0587 -0.0801
12309SOL    HW137867   1.241   1.762   5.960 -1.6859  0.9212 -0.0965
12309SOL    HW237868   1.153   1.680   6.052 -0.8208  0.6950  0.5358
12310SOL     OW37869   7.328   5.934   5.216  0.2530 -0.0482 -0.1431
12310SOL    HW137870   7.287   6.012   5.178 -2.4635 -1.0792  0.4605
12310SOL    HW237871   7.353   5.880   5.141  0.1642  0.4332 -0.5208
12311SOL     OW37872   1.004   2.530   1.362 -0.0670  0.2850  0.1583
12311SOL    HW137873   1.004   2.454   1.303  2.0443 -0.3183  0.8385
12311SOL    HW237874   1.092   2.567   1.354 -0.6160  1.8437  0.8993
12312SOL     OW37875   6.885   5.835   2.846  0.4793  0.1165  0.2549
12312SOL    HW137876   6.862   5.928   2.848 -0.4819 -0.1188  1.0591
12312SOL    HW237877   6.979   5.834   2.860  0.6820  1.0175 -0.9217
12313SOL     OW37878   1.272   6.672   5.774 -0.4263  0.3414  0.3971
12313SOL    HW137879   1.207   6.723   5.727 -1.4365 -0.5747  0.7410
12313SOL    HW237880   1.245   6.679   5.866 -0.1103 -0.1491  0.5294
12314SOL     OW37881   1.159   5.682   2.035  0.0564  0.3534  0.3266
12314SOL    HW137882   1.196   5.643   1.956  1.8515 -0.7684  1.6508
12314SOL    HW237883   1.109   5.611   2.076 -1.4812  1.1323 -0.1188
12315SOL     OW37884   3.724   1.589   6.546  0.0902  0.0400  0.4661
12315SOL    HW137885   3.734   1.522   6.614 -0.8418  0.3825  0.9422
12315SOL    HW237886   3.802   1.578   6.491 -0.7118 -2.3970 -0.3234
12316SOL     OW37887   2.919   2.900   1.162 -0.1659 -0.0765  0.0022
12316SOL    HW137888   2.924   2.986   1.120 -0.7716 -0.5108 -0.9889
12316SOL    HW237889   2.963   2.841   1.102  0.5595 -0.4187  0.8432
12317SOL     OW37890   6.399   3.680   0.267  0.4674 -0.4309  0.2798
12317SOL    HW137891   6.383   3.609   0.205  0.6541 -0.8962  0.7540
12317SOL    HW237892   6.414   3.635   0.351 -0.7536  0.2040  0.8741
12318SOL     OW37893   3.685   6.748   1.651  0.5069  0.2222 -0.0590
12318SOL    HW137894   3.759   6.757   1.592  1.0789  1.1047  0.7536
12318SOL    HW237895   3.721   6.704   1.728  0.2506  0.8428  0.4281
12319SOL     OW37896   3.516   6.643   2.050  0.0557 -0.5392 -0.6319
12319SOL    HW137897   3.492   6.721   2.000 -0.7115 -1.9564 -2.6040
12319SOL    HW237898   3.482   6.570   1.998 -1.0833 -2.1433  2.1299
12320SOL     OW37899   5.480   6.929   5.670 -0.0078  0.2798  0.0123
12320SOL    HW137900   5.463   7.008   5.619 -0.7437  1.6996  2.3244
12320SOL    HW237901   5.401   6.876   5.660  0.2759  0.0456 -1.1213
12321SOL     OW37902   3.559   4.271   7.220  0.4264  0.4023  0.1539
12321SOL    HW137903   3.527   4.340   7.278  0.4181  0.4894  0.0458
12321SOL    HW237904   3.544   4.190   7.269  0.8446  0.5072  0.4713
12322SOL     OW37905   0.840   0.965   5.836 -0.0709  0.5271 -0.0693
12322SOL    HW137906   0.926   1.007   5.843  0.6073 -0.1101 -3.0011
12322SOL    HW237907   0.861   0.872   5.828 -1.2122  0.1444  1.0662
12323SOL     OW37908   0.589   2.364   5.066  0.1739 -0.8621  0.7300
12323SOL    HW137909   0.624   2.453   5.069  0.7412 -1.0761  0.5629
12323SOL    HW237910   0.523   2.362   5.136  1.3550 -0.8052  1.8657
12324SOL     OW37911   1.546   0.621   4.483 -0.0105 -0.1204 -0.0385
12324SOL    HW137912   1.492   0.604   4.560  0.9448  0.1573  0.7013
12324SOL    HW237913   1.615   0.555   4.487 -1.2310 -1.6310 -1.9335
12325SOL     OW37914   2.517   4.872   2.786  0.0053  0.6350 -0.2804
12325SOL    HW137915   2.581   4.879   2.857  0.8316 -0.7173 -0.8600
12325SOL    HW237916   2.445   4.928   2.813  0.3193  0.1744  1.6121
12326SOL     OW37917   6.760   5.401   7.159 -0.0569  0.1606 -0.6397
12326SOL    HW137918   6.722   5.430   7.242  0.0221 -0.9026 -0.2173
12326SOL    HW237919   6.787   5.482   7.116 -0.3397  0.7496  0.2532
12327SOL     OW37920   0.965   2.171   3.716 -0.3768 -0.1773  0.0938
12327SOL    HW137921   0.944   2.257   3.753 -2.9843 -0.2737 -0.9566
12327SOL    HW237922   0.880   2.132   3.696  0.7866 -2.4042 -0.8300
12328SOL     OW37923   1.731   4.586   5.189  0.4542  0.4043  0.1476
12328SOL    HW137924   1.668   4.515   5.179  1.3937 -0.2853 -1.2476
12328SOL    HW237925   1.682   4.665   5.168 -0.1914 -0.0183  0.0382
12329SOL     OW37926   1.630   4.063   4.294  0.0264  0.0682  0.4435
12329SOL    HW137927   1.714   4.061   4.249 -1.0173 -0.1698 -1.6031
12329SOL    HW237928   1.635   3.992   4.358  1.0516 -0.5032 -0.2482
12330SOL     OW37929   4.803   4.362   5.170 -0.2385  0.4439 -0.5948
12330SOL    HW137930   4.886   4.398   5.140 -0.1875  0.7577 -0.0785
12330SOL    HW237931   4.756   4.436   5.206 -0.5587  0.1843 -0.4751
12331SOL     OW37932   1.417   7.028   6.797 -0.2516  0.0619  0.6038
12331SOL    HW137933   1.384   7.067   6.877 -1.9254  1.4836 -0.6958
12331SOL    HW237934   1.349   7.045   6.732 -0.0329 -3.0381 -0.6288
12332SOL     OW37935   0.410   6.346   1.379 -0.3479 -0.1795 -0.0405
12332SOL    HW137936   0.460   6.266   1.399  0.5391  0.2782 -0.4043
12332SOL    HW237937   0.357   6.323   1.303  1.4575  0.1891 -1.4648
12333SOL     OW37938   0.478   4.057   2.193  0.0375 -0.3213 -0.4466
12333SOL    HW137939   0.543   4.115   2.152  0.4207 -0.5510 -0.1742
12333SOL    HW237940   0.474   4.087   2.284 -1.6261  0.9116 -0.8740
12334SOL     OW37941   0.585   4.550   7.097  0.3170  0.2618 -0.0220
12334SOL    HW137942   0.494   4.543   7.124  0.1797 -0.4118 -0.6433
12334SOL    HW237943   0.592   4.638   7.059 -0.5720 -0.3416 -1.7115
12335SOL     OW37944   1.044   5.378   0.497 -0.4341  0.0601  0.6880
12335SOL    HW137945   0.961   5.412   0.531 -0.6140  0.3242 -0.0177
12335SOL    HW237946   1.033   5.376   0.402  1.0167  1.8304  0.4311
12336SOL     OW37947   0.151   6.996   6.056 -0.0481  0.5760  0.2484
12336SOL    HW137948   0.241   6.996   6.089  0.0513 -1.3802  0.0787
12336SOL    HW237949   0.147   6.921   5.997 -1.3602  1.6156 -1.0480
12337SOL     OW37950   2.917   4.713   1.731  0.4930 -0.4145 -0.4741
12337SOL    HW137951   2.824   4.712   1.705  0.7279  0.9721 -1.4566
12337SOL    HW237952   2.964   4.686   1.652  1.0261  0.6915 -0.5492
12338SOL     OW37953   2.733   6.514   4.699  0.6578 -0.6916 -0.2254
12338SOL    HW137954   2.824   6.517   4.669  0.4361  1.0208 -0.8811
12338SOL    HW237955   2.682   6.503   4.618  0.1777  1.4424 -0.2989
12339SOL     OW37956   0.250   2.762   1.204 -0.0245  0.4629 -0.1099
12339SOL    HW137957   0.241   2.713   1.286 -0.0225 -2.3629 -1.6780
12339SOL    HW237958   0.339   2.743   1.174  0.2200  2.0232 -0.4917
12340SOL     OW37959   2.733   7.313   3.003 -0.0726  0.2987 -0.5861
12340SOL    HW137960   2.814   7.323   3.052  0.0497  0.5421 -0.8319
12340SOL    HW237961   2.679   7.254   3.056  0.4548 -0.2506 -0.6610
12341SOL     OW37962   2.327   3.418   0.095 -0.5004  0.6801  0.2050
12341SOL    HW137963   2.283   3.402   0.179  1.4094 -1.0604  0.9699
12341SOL    HW237964   2.282   3.495   0.059 -2.6835  0.3078  1.8745
12342SOL     OW37965   6.839   3.742   0.925  0.0501 -0.3276 -0.0867
12342SOL    HW137966   6.858   3.759   1.017  0.8130 -2.9374  0.3160
12342SOL    HW237967   6.880   3.658   0.907 -0.8484 -0.3134 -2.5905
12343SOL     OW37968   3.299   2.167   1.824  0.0213 -0.2876  0.7067
12343SOL    HW137969   3.318   2.087   1.873  0.8690 -0.0538  0.7743
12343SOL    HW237970   3.204   2.180   1.835  0.2749  0.1405  2.8697
12344SOL     OW37971   1.502   0.768   7.289 -0.2005 -0.2624 -0.6259
12344SOL    HW137972   1.501   0.746   7.383  1.8491 -1.0771 -0.7541
12344SOL    HW237973   1.449   0.847   7.283 -0.4109 -0.2175  1.2127
12345SOL     OW37974   0.240   3.036   4.838  0.3792 -0.1239 -0.2554
12345SOL    HW137975   0.149   3.038   4.868  0.3685 -1.2137 -0.1849
12345SOL    HW237976   0.273   3.124   4.856 -0.2806 -0.0948  0.9065
12346SOL     OW37977   6.448   3.716   1.630  0.2015 -0.1546 -0.5574
12346SOL    HW137978   6.488   3.682   1.550  2.3496  1.5704 -0.2837
12346SOL    HW237979   6.513   3.699   1.698 -1.4566 -1.3059  0.8188
12347SOL     OW37980   5.009   2.793   6.523  0.2873 -0.2386 -0.0624
12347SOL    HW137981   4.947   2.731   6.560  0.3723  0.5994  1.5713
12347SOL    HW237982   5.089   2.782   6.574  0.9912 -0.2198 -1.1251
12348SOL     OW37983   2.786   6.531   3.635  0.1004  0.4631 -0.0780
12348SOL    HW137984   2.768   6.448   3.679 -2.2146  0.3969 -1.0100
12348SOL    HW237985   2.817   6.589   3.704 -2.5903  0.1071  1.5639
12349SOL     OW37986   3.934   6.492   7.211 -0.0328 -0.5020 -0.1427
12349SOL    HW137987   3.858   6.550   7.220 -0.1201 -0.2377 -2.0523
12349SOL    HW237988   3.959   6.501   7.119  1.7388 -1.3214  0.2334
12350SOL     OW37989   6.136   0.858   2.801  0.7897 -0.0494 -0.2660
12350SOL    HW137990   6.059   0.802   2.810  0.4905 -0.1212 -2.6822
12350SOL    HW237991   6.139   0.907   2.883  0.7041 -3.0561  1.7110
12351SOL     OW37992   6.420   1.658   1.726 -0.3629  0.1950 -0.3393
12351SOL    HW137993   6.477   1.582   1.717 -0.1761  0.0322  1.7602
12351SOL    HW237994   6.349   1.629   1.783 -1.5056  0.9731 -1.3097
12352SOL     OW37995   4.517   4.820   2.057 -0.0769 -0.1583 -0.0659
12352SOL    HW137996   4.465   4.752   2.100 -0.3259  1.1972  1.8849
12352SOL    HW237997   4.469   4.901   2.073  1.0912  0.7192 -0.8551
12353SOL     OW37998   1.820   3.655   4.930  0.2430  0.0099  0.8554
12353SOL    HW137999   1.801   3.722   4.996  1.7723  0.8926  0.4357
12353SOL    HW238000   1.870   3.700   4.862 -0.8155 -1.0001 -0.6828
12354SOL     OW38001   7.320   1.331   1.529  0.3042 -0.0001 -0.1249
12354SOL    HW138002   7.408   1.297   1.547  0.4299 -0.5194 -1.5772
12354SOL    HW238003   7.330   1.426   1.534  1.3798  0.0307 -1.8790
12355SOL     OW38004   0.707   0.431   2.733  0.3146  0.1885  0.2118
12355SOL    HW138005   0.654   0.497   2.688 -1.0013  0.5257  2.1189
12355SOL    HW238006   0.644   0.366   2.764  1.1299 -0.0482  1.4701
12356SOL     OW38007   1.568   4.448   6.528  0.0535 -0.1360 -0.7030
12356SOL    HW138008   1.589   4.541   6.538  1.4796 -0.4165 -0.7402
12356SOL    HW238009   1.475   4.446   6.509 -0.1047  1.2531 -0.2023
12357SOL     OW38010   2.422   3.490   5.637  0.0893 -0.4663  0.9182
12357SOL    HW138011   2.349   3.432   5.657 -0.4215 -0.6334 -1.2209
12357SOL    HW238012   2.488   3.433   5.596  0.4258  0.1164  0.6368
12358SOL     OW38013   4.967   7.366   4.737 -0.3859  0.6710 -0.1346
12358SOL    HW138014   4.900   7.336   4.675  1.0012  1.0270 -1.8957
12358SOL    HW238015   5.042   7.310   4.719  1.6146  3.6881 -2.1285
12359SOL     OW38016   4.607   0.414   7.181 -0.1272 -0.1331  0.7026
12359SOL    HW138017   4.660   0.493   7.167 -0.3660 -0.0261  0.3806
12359SOL    HW238018   4.671   0.343   7.182 -0.0431 -0.0979 -0.5479
12360SOL     OW38019   5.945   5.134   1.801  0.4455 -0.4221  0.4512
12360SOL    HW138020   6.034   5.156   1.830  1.1802 -1.9681 -0.5227
12360SOL    HW238021   5.943   5.159   1.709 -0.7530  1.2712  0.8965
12361SOL     OW38022   1.132   3.854   4.181  0.6912 -0.1680 -0.5617
12361SOL    HW138023   1.189   3.797   4.232 -1.6167 -2.1801 -0.0786
12361SOL    HW238024   1.114   3.928   4.239 -0.0583 -1.3081  0.7202
12362SOL     OW38025   2.393   0.006   2.871  0.4669 -0.4101  0.7944
12362SOL    HW138026   2.396  -0.066   2.935 -0.1041 -1.1927 -0.0371
12362SOL    HW238027   2.484   0.035   2.864  0.7627 -1.2518  0.9363
12363SOL     OW38028   4.345   6.662   5.556  0.2138  0.9447 -0.0946
12363SOL    HW138029   4.424   6.659   5.611 -0.2030  1.4957  0.5518
12363SOL    HW238030   4.377   6.644   5.467  1.1875  1.8512  0.0481
12364SOL     OW38031   0.951   3.700   5.449 -0.1739  0.7611 -0.3349
12364SOL    HW138032   0.924   3.646   5.523 -1.2141 -0.1212 -1.3024
12364SOL    HW238033   0.895   3.777   5.454 -0.9822  0.2214 -0.7593
12365SOL     OW38034   0.810   2.822   3.456 -0.1235 -0.0298 -0.2924
12365SOL    HW138035   0.893   2.821   3.504 -1.2350 -0.6038  1.7301
12365SOL    HW238036   0.760   2.894   3.495 -0.2929  0.8939 -2.0908
12366SOL     OW38037   7.039   7.201   1.508  0.5326  0.0269 -0.2909
12366SOL    HW138038   7.097   7.179   1.581  0.9183 -2.6825 -1.3130
12366SOL    HW238039   6.978   7.266   1.545  2.7322  1.2430  1.4530
12367SOL     OW38040   4.894   0.008   2.655  0.0218 -0.7019  0.0260
12367SOL    HW138041   4.911   0.056   2.735 -1.1665 -0.1880 -0.0071
12367SOL    HW238042   4.834  -0.062   2.682  0.3093 -1.0618 -0.2571
12368SOL     OW38043   4.448   5.228   4.160 -0.1701 -0.3084 -0.1396
12368SOL    HW138044   4.396   5.150   4.143 -0.7370  0.3503 -1.5046
12368SOL    HW238045   4.440   5.281   4.081  2.2223  0.0166 -0.2478
12369SOL     OW38046   6.698   3.919   5.072  0.3973  0.5871 -0.0022
12369SOL    HW138047   6.757   3.900   5.144  0.4428 -0.3458 -0.2698
12369SOL    HW238048   6.733   3.999   5.032  3.1604 -1.3575 -1.8446
12370SOL     OW38049   2.720   2.370   1.140  0.3146 -0.6054 -0.2492
12370SOL    HW138050   2.733   2.438   1.206 -2.2788 -0.0287 -0.2583
12370SOL    HW238051   2.746   2.411   1.058  1.2196 -0.5259  0.0595
12371SOL     OW38052   7.197   5.767   3.782  0.0284 -0.8045  0.4030
12371SOL    HW138053   7.210   5.673   3.770  1.0687 -0.5669 -0.4828
12371SOL    HW238054   7.276   5.797   3.825 -0.3041 -0.3319  0.6892
12372SOL     OW38055   5.807   3.643   3.259 -0.3086 -0.0729  0.2817
12372SOL    HW138056   5.812   3.547   3.258  0.0968 -0.0648  0.8665
12372SOL    HW238057   5.802   3.666   3.352 -0.0583  0.4918  0.1610
12373SOL     OW38058   5.082   1.263   6.827 -0.6077 -0.2258 -0.0447
12373SOL    HW138059   5.121   1.233   6.745 -0.7502 -1.0716  0.1797
12373SOL    HW238060   5.030   1.339   6.802  0.8820  0.7211 -0.4033
12374SOL     OW38061   1.527   3.407   4.256 -0.0337 -0.2237  0.2260
12374SOL    HW138062   1.472   3.485   4.248 -1.7035 -1.1461  1.9150
12374SOL    HW238063   1.580   3.422   4.333  0.5882 -0.2281 -0.1933
12375SOL     OW38064   5.762   1.836   5.646 -0.2851  0.2466 -0.3449
12375SOL    HW138065   5.819   1.786   5.704 -1.5511  0.2870  1.0044
12375SOL    HW238066   5.781   1.928   5.667 -2.3662  0.2877  1.8132
12376SOL     OW38067   5.564   0.483   7.384  0.2805  0.3509  0.1131
12376SOL    HW138068   5.592   0.574   7.370  0.6910  0.4184  1.3105
12376SOL    HW238069   5.492   0.471   7.321 -0.1560  1.6788  0.3180
12377SOL     OW38070   4.390   6.965   4.339 -0.0007 -0.5924  0.8071
12377SOL    HW138071   4.386   7.010   4.424  2.3476  0.9006  0.2027
12377SOL    HW238072   4.327   7.012   4.284  2.0910  1.8123  0.3186
12378SOL     OW38073   6.609   3.120   3.248 -0.3284  0.4442 -0.8205
12378SOL    HW138074   6.574   3.032   3.258  0.6866  0.1302  0.1682
12378SOL    HW238075   6.650   3.140   3.332  2.1049  0.6475 -1.9534
12379SOL     OW38076   3.351   5.880   4.472 -0.1399  0.6122 -0.5503
12379SOL    HW138077   3.266   5.852   4.438 -0.9501  0.1632  1.6686
12379SOL    HW238078   3.415   5.848   4.408 -1.5812  0.3139 -1.8830
12380SOL     OW38079   4.134   3.035   0.787  0.3883 -0.1036 -0.3289
12380SOL    HW138080   4.094   3.011   0.871  1.0577 -0.1715 -0.0272
12380SOL    HW238081   4.123   3.130   0.782 -1.6502 -0.3338 -1.2100
12381SOL     OW38082   6.677   3.131   6.899 -0.8005 -0.1032  0.0766
12381SOL    HW138083   6.703   3.113   6.989 -2.0629  0.3614  0.5580
12381SOL    HW238084   6.610   3.065   6.879 -0.7376 -0.0211 -0.4160
12382SOL     OW38085   6.794   4.866   4.288 -0.2227 -0.2695  0.4107
12382SOL    HW138086   6.708   4.856   4.247  0.3695 -0.8591 -0.7553
12382SOL    HW238087   6.794   4.955   4.322 -1.2443 -0.2209  0.3276
12383SOL     OW38088   2.444   6.692   6.283 -0.3122  0.4137  0.0158
12383SOL    HW138089   2.531   6.733   6.289  0.2602 -0.8624  0.8199
12383SOL    HW238090   2.416   6.684   6.375 -1.4149  1.0652 -0.2504
12384SOL     OW38091   0.634   3.058   1.139  0.0715  0.1928 -0.2584
12384SOL    HW138092   0.573   3.129   1.158  0.8707  0.6701  0.5865
12384SOL    HW238093   0.583   2.978   1.155 -0.7133  0.5580 -0.8360
12385SOL     OW38094   5.834   2.027   6.386  0.4934 -0.4116 -0.3223
12385SOL    HW138095   5.773   2.086   6.432  1.3269 -0.0798  0.4037
12385SOL    HW238096   5.778   1.974   6.330 -0.7149 -1.4375  1.7082
12386SOL     OW38097   5.376   3.585   6.608  0.5479 -0.0873 -0.6574
12386SOL    HW138098   5.348   3.671   6.577 -1.6054  0.2458  1.8463
12386SOL    HW238099   5.456   3.603   6.657 -0.1361  0.6172  0.2453
12387SOL     OW38100   5.627   3.446   7.247  0.1229  0.1540  0.2269
12387SOL    HW138101   5.687   3.379   7.279 -0.1052  0.2961  0.9650
12387SOL    HW238102   5.546   3.398   7.229 -0.5051  0.4408  2.1257
12388SOL     OW38103   5.602   4.289   2.274  0.3123 -0.5726  0.1504
12388SOL    HW138104   5.639   4.319   2.191 -1.3551 -0.2370 -0.5009
12388SOL    HW238105   5.556   4.366   2.309  1.1133 -0.6610  1.4891
12389SOL     OW38106   6.945   3.816   6.385 -0.5262  0.1462  0.6578
12389SOL    HW138107   7.027   3.856   6.412 -1.0852  0.6338  1.6963
12389SOL    HW238108   6.877   3.866   6.430 -1.4449  0.1244 -0.6263
12390SOL     OW38109   4.493   0.681   4.726 -0.3622  0.8617 -0.3217
12390SOL    HW138110   4.543   0.733   4.664 -0.3888  0.7170 -0.4665
12390SOL    HW238111   4.539   0.691   4.809  0.2570  0.2527 -0.5819
12391SOL     OW38112   6.378   1.119   7.009 -0.1645 -0.1897 -0.3045
12391SOL    HW138113   6.337   1.050   7.062 -1.2302  0.2645 -0.5088
12391SOL    HW238114   6.423   1.072   6.939  0.2829 -0.7342  0.3334
12392SOL     OW38115   2.539   7.108   0.639 -0.5407 -0.6357 -0.3718
12392SOL    HW138116   2.576   7.179   0.690  0.8183 -0.8713 -0.9691
12392SOL    HW238117   2.483   7.060   0.700 -1.2151  0.7251  0.1162
12393SOL     OW38118   3.524   6.589   3.123  0.1662 -0.2361  0.2164
12393SOL    HW138119   3.457   6.567   3.059  1.0023  0.1115 -0.8179
12393SOL    HW238120   3.489   6.665   3.169 -0.1698 -0.0740 -0.2901
12394SOL     OW38121   3.408   5.864   3.698 -0.2869  0.0807 -0.1523
12394SOL    HW138122   3.499   5.833   3.700  0.0625  1.0847  1.4803
12394SOL    HW238123   3.361   5.803   3.755 -0.6742 -0.5227 -1.1113
12395SOL     OW38124   2.205   0.436   1.145 -0.0623  0.2481  0.4797
12395SOL    HW138125   2.117   0.455   1.178 -0.0829  1.2132 -0.0912
12395SOL    HW238126   2.232   0.517   1.101  0.6049 -0.4704 -0.4682
12396SOL     OW38127   2.004   4.426   0.998 -0.2360  0.6328 -0.4093
12396SOL    HW138128   1.914   4.435   0.967 -0.6353  1.6962  0.9557
12396SOL    HW238129   2.000   4.356   1.064  0.1783 -0.1117 -1.1561
12397SOL     OW38130   7.186   5.676   5.458 -0.1447  0.3252 -0.0714
12397SOL    HW138131   7.133   5.756   5.455  0.7183  0.9072 -0.1752
12397SOL    HW238132   7.185   5.650   5.550 -1.4226 -0.2379 -0.2295
12398SOL     OW38133   3.269   5.790   6.372  1.0290 -0.1764  0.5042
12398SOL    HW138134   3.193   5.792   6.430  0.1879 -2.1042 -0.4463
12398SOL    HW238135   3.331   5.731   6.414  0.0914 -2.2191 -0.8484
12399SOL     OW38136   5.748   3.233   0.788 -0.2366  0.2136 -0.2075
12399SOL    HW138137   5.678   3.172   0.766  0.3524 -0.0425 -1.4740
12399SOL    HW238138   5.797   3.190   0.858  0.9404 -1.4318 -1.9384
12400SOL     OW38139   0.536   0.978   4.361 -0.1162 -0.0988 -0.3021
12400SOL    HW138140   0.612   0.924   4.343 -1.1893 -2.0573  0.7492
12400SOL    HW238141   0.479   0.967   4.285 -0.6936 -1.1406  0.2666
12401SOL     OW38142   5.810   3.350   4.955  0.6111  0.0118  0.0506
12401SOL    HW138143   5.848   3.421   5.007  1.3306  0.1965 -0.7044
12401SOL    HW238144   5.739   3.391   4.906 -0.0139 -0.1447  0.7927
12402SOL     OW38145   3.032   6.145   7.120  0.4031  0.3295 -0.7777
12402SOL    HW138146   3.122   6.116   7.110  0.5278  0.2514  0.4517
12402SOL    HW238147   3.038   6.222   7.177 -0.3817 -0.2832  0.1633
12403SOL     OW38148   0.179   3.821   5.391 -0.0220 -0.2638 -0.2411
12403SOL    HW138149   0.246   3.816   5.323 -0.5665  1.4106 -0.9473
12403SOL    HW238150   0.203   3.752   5.453  2.6454  0.5985 -0.1913
12404SOL     OW38151   3.428   2.142   0.731 -0.2782  0.3158  0.3022
12404SOL    HW138152   3.339   2.112   0.747  0.0628  0.1963  2.2134
12404SOL    HW238153   3.444   2.209   0.797  0.1715  2.3137 -1.6977
12405SOL     OW38154   1.773   4.636   7.056  0.4190 -0.1388 -0.3024
12405SOL    HW138155   1.851   4.664   7.104  1.1981 -1.0294 -1.0092
12405SOL    HW238156   1.701   4.682   7.099  1.0631 -0.9033  1.7677
12406SOL     OW38157   1.731   3.570   7.198 -0.1273 -0.3029  0.2099
12406SOL    HW138158   1.764   3.514   7.128  0.2027 -1.0801  0.9543
12406SOL    HW238159   1.801   3.634   7.214 -0.2168 -0.1067 -0.1892
12407SOL     OW38160   6.748   3.959   6.481 -0.0264  0.2789  0.6395
12407SOL    HW138161   6.673   3.972   6.540  0.4056  2.1901  0.8602
12407SOL    HW238162   6.712   3.969   6.393 -0.0303  1.4714  0.7533
12408SOL     OW38163   4.366   3.760   1.980  0.3548 -0.3761 -0.1841
12408SOL    HW138164   4.327   3.772   2.066 -1.2763 -1.5243 -0.6976
12408SOL    HW238165   4.457   3.786   1.990  0.1844 -0.4412  1.8687
12409SOL     OW38166   0.111   2.846   1.921 -0.2517 -0.5222  0.7872
12409SOL    HW138167   0.116   2.927   1.971  0.3918 -0.6691  0.9811
12409SOL    HW238168   0.063   2.786   1.978 -2.9704  0.4132 -0.3686
12410SOL     OW38169   4.700   1.385   5.566 -0.2250 -0.1466  0.4170
12410SOL    HW138170   4.714   1.357   5.475  2.2222  4.6107 -0.9805
12410SOL    HW238171   4.607   1.409   5.569 -0.1575  0.4562 -1.1837
12411SOL     OW38172   5.878   2.107   5.678 -0.0527  0.2076  0.0334
12411SOL    HW138173   5.926   2.108   5.761 -1.1443  0.0980  0.6869
12411SOL    HW238174   5.907   2.186   5.632  1.3746 -0.3009  0.0380
12412SOL     OW38175   6.703   1.689   6.731 -0.2386 -0.1466  0.1378
12412SOL    HW138176   6.766   1.692   6.803  0.2166  0.5486 -0.2752
12412SOL    HW238177   6.655   1.607   6.744 -0.1264 -0.0586  1.1935
12413SOL     OW38178   1.372   6.186   5.757 -0.3644 -0.3622  0.4099
12413SOL    HW138179   1.343   6.180   5.848  0.8781 -0.3125  0.8197
12413SOL    HW238180   1.386   6.280   5.742  0.4240 -0.4584  0.4967
12414SOL     OW38181   7.150   1.586   0.623 -0.1611 -0.7689  0.1127
12414SOL    HW138182   7.234   1.625   0.597  0.6566 -3.0779 -0.9912
12414SOL    HW238183   7.160   1.568   0.717  0.1529 -0.0486  0.2235
12415SOL     OW38184   3.880   5.226   2.639 -0.0008 -0.0136 -0.2444
12415SOL    HW138185   3.899   5.270   2.557 -2.6367  0.5373 -0.6628
12415SOL    HW238186   3.795   5.184   2.625  0.2821 -1.3725  1.6409
12416SOL     OW38187   5.817   6.413   0.478  0.7058  0.0776  0.1750
12416SOL    HW138188   5.747   6.451   0.530  0.5375  0.7718 -0.5412
12416SOL    HW238189   5.775   6.385   0.397  0.9505 -1.0643  0.4328
12417SOL     OW38190   3.850   5.746   0.318 -0.1605 -1.0629  0.1157
12417SOL    HW138191   3.791   5.808   0.275  1.7628  0.4085 -0.5137
12417SOL    HW238192   3.824   5.660   0.284 -0.1787 -0.1769 -2.2806
12418SOL     OW38193   1.603   1.676   0.068  0.3134  0.1035  0.0359
12418SOL    HW138194   1.541   1.740   0.103  0.4811  0.4622 -0.3161
12418SOL    HW238195   1.689   1.707   0.096  0.2134 -2.0336  3.2164
12419SOL     OW38196   2.827   6.950   4.083 -0.6772 -0.0284  0.1242
12419SOL    HW138197   2.749   6.901   4.058  0.3252 -0.7756 -1.8279
12419SOL    HW238198   2.833   6.939   4.178 -1.8962 -1.5575  0.0679
12420SOL     OW38199   3.264   1.800   1.721 -0.2235  0.2666 -0.1804
12420SOL    HW138200   3.268   1.706   1.702  0.3196 -0.0149  1.2297
12420SOL    HW238201   3.354   1.823   1.745 -0.5907  0.8827  0.6471
12421SOL     OW38202   6.338   3.810   5.896  0.3853 -0.2057 -0.8041
12421SOL    HW138203   6.262   3.792   5.840  0.1330  0.8508 -0.8245
12421SOL    HW238204   6.342   3.736   5.956 -0.5563 -0.3616 -0.9242
12422SOL     OW38205   3.353   5.242   3.554 -0.6199  0.1595 -1.3085
12422SOL    HW138206   3.290   5.260   3.485 -0.5468  2.3845 -0.8785
12422SOL    HW238207   3.388   5.328   3.578 -0.8563 -0.4625  1.6749
12423SOL     OW38208   1.074   6.586   0.680 -0.0001  0.0555 -0.1414
12423SOL    HW138209   1.108   6.675   0.686 -3.0083  1.3801 -0.9905
12423SOL    HW238210   1.093   6.559   0.590  0.9090 -0.2171  0.1151
12424SOL     OW38211   1.389   3.851   4.874 -0.6846  0.0188 -0.0961
12424SOL    HW138212   1.398   3.770   4.824 -0.1737 -0.7537  1.2021
12424SOL    HW238213   1.295   3.863   4.885 -0.8731  0.7107 -1.9853
12425SOL     OW38214   3.871   5.447   0.538  0.5179  0.7263 -0.3135
12425SOL    HW138215   3.947   5.478   0.489  0.7252  1.0572  0.2089
12425SOL    HW238216   3.906   5.382   0.599  0.3473  0.7255 -0.2159
12426SOL     OW38217   7.113   0.920   0.887 -0.4016  0.3114 -0.4765
12426SOL    HW138218   7.110   0.831   0.853  1.8928 -0.2122  0.5053
12426SOL    HW238219   7.146   0.972   0.813  0.3235 -0.0400 -0.4062
12427SOL     OW38220   1.011   3.389   4.822  0.0621 -0.3213 -0.2299
12427SOL    HW138221   0.962   3.384   4.904  0.2216 -1.0852 -0.1760
12427SOL    HW238222   1.034   3.298   4.802  1.1456 -0.0144 -0.4418
12428SOL     OW38223   5.445   4.282   0.510  0.1767 -0.1952  0.5213
12428SOL    HW138224   5.535   4.250   0.518  0.2656  0.1319  0.8527
12428SOL    HW238225   5.409   4.272   0.598  0.1775  0.5212  0.6111
12429SOL     OW38226   3.945   1.027   2.851  0.0129  0.5249  0.0242
12429SOL    HW138227   3.990   1.101   2.811 -0.2926  0.8477  0.2704
12429SOL    HW238228   3.891   1.066   2.920 -0.0857  0.0644  0.2120
12430SOL     OW38229   4.759   6.216   3.730  0.0493 -0.2924 -0.2431
12430SOL    HW138230   4.667   6.191   3.724  0.0929 -1.1847  2.0128
12430SOL    HW238231   4.762   6.280   3.801  0.9341  1.1819 -1.5421
12431SOL     OW38232   1.936   5.234   1.584 -0.3655  0.3044 -0.2129
12431SOL    HW138233   1.935   5.324   1.614 -2.0241  0.5875 -0.9942
12431SOL    HW238234   1.845   5.216   1.557 -0.6568 -2.3221  2.0392
12432SOL     OW38235   0.367   2.017   7.003 -0.0123 -0.1474 -0.3695
12432SOL    HW138236   0.434   2.004   6.937  0.6362  3.0054 -0.4906
12432SOL    HW238237   0.328   2.102   6.982  0.4130  1.1564  3.3549
12433SOL     OW38238   1.295   5.284   4.325  0.1417  0.3630 -0.4464
12433SOL    HW138239   1.255   5.197   4.318  0.0686  0.0785  2.3407
12433SOL    HW238240   1.257   5.334   4.253 -2.2977 -1.0078 -0.2291
12434SOL     OW38241   4.549   3.656   4.625 -0.1318 -0.4515 -0.4482
12434SOL    HW138242   4.491   3.708   4.569 -0.6537 -0.5958 -0.0456
12434SOL    HW238243   4.624   3.714   4.641  0.2433 -0.5633 -1.6519
12435SOL     OW38244   0.617   2.299   6.700  0.0149  0.4417  0.4408
12435SOL    HW138245   0.617   2.254   6.615 -1.8784  1.0200  0.0862
12435SOL    HW238246   0.538   2.353   6.698  0.5846  1.4037  2.1045
12436SOL     OW38247   0.681   0.097   6.035 -0.2897 -1.0617  0.9159
12436SOL    HW138248   0.601   0.105   6.086 -1.8715 -0.2106 -1.4865
12436SOL    HW238249   0.671   0.162   5.965  3.4014  0.4392  1.5832
12437SOL     OW38250   1.269   2.867   6.362 -0.6468  0.0404  0.1355
12437SOL    HW138251   1.266   2.865   6.267 -1.6151  0.4845  0.1437
12437SOL    HW238252   1.193   2.814   6.389 -0.9093  0.6637  0.6455
12438SOL     OW38253   5.416   7.362   5.668  0.7731 -0.3431  0.2398
12438SOL    HW138254   5.423   7.276   5.628 -0.8881 -1.1164  1.5069
12438SOL    HW238255   5.361   7.349   5.745  0.5075  1.8313  0.4930
12439SOL     OW38256   3.483   2.932   6.095 -0.1226 -0.4330  0.0892
12439SOL    HW138257   3.404   2.974   6.062 -1.6233 -0.5026  3.2126
12439SOL    HW238258   3.502   2.977   6.177  2.3739 -1.2612  0.0516
12440SOL     OW38259   5.952   2.121   4.946 -0.5451  0.4817  0.3345
12440SOL    HW138260   5.932   2.215   4.944 -1.0146  0.3807 -1.1471
12440SOL    HW238261   5.899   2.087   5.019  0.4946  1.5194  1.6164
12441SOL     OW38262   4.196   6.421   5.390 -0.1736 -0.6302  0.1760
12441SOL    HW138263   4.174   6.513   5.375  1.3620 -0.2703 -0.1093
12441SOL    HW238264   4.129   6.372   5.343 -1.7053  0.2954  1.3197
12442SOL     OW38265   2.264   3.532   0.560  0.1892  0.4274 -0.2744
12442SOL    HW138266   2.236   3.456   0.612 -0.7138  0.0348 -1.2713
12442SOL    HW238267   2.328   3.577   0.614  0.5409 -0.9078  0.4569
12443SOL     OW38268   1.736   5.976   1.135  0.3742  0.3281  0.3753
12443SOL    HW138269   1.709   5.968   1.227  1.2851  1.0262  0.7220
12443SOL    HW238270   1.813   5.919   1.129  0.1818  0.1072 -0.0220
12444SOL     OW38271   0.163   2.283   4.887  0.7202  0.1941  0.7084
12444SOL    HW138272   0.115   2.323   4.959 -2.3182  0.4210 -1.2374
12444SOL    HW238273   0.198   2.357   4.838 -0.6362  0.3279 -0.1375
12445SOL     OW38274   2.135   4.670   1.010 -0.1475 -0.2215 -0.2934
12445SOL    HW138275   2.112   4.752   0.968 -0.5192  0.4128  1.0848
12445SOL    HW238276   2.052   4.634   1.042  0.0314 -1.0580 -0.7360
12446SOL     OW38277   1.349   2.669   7.341  0.4363  0.2822  0.0755
12446SOL    HW138278   1.325   2.707   7.257  1.6104  1.8555  0.3900
12446SOL    HW238279   1.303   2.723   7.406  0.7676  0.0971  0.4740
12447SOL     OW38280   0.270   6.033   3.638 -0.1414  0.2925 -0.6771
12447SOL    HW138281   0.355   6.007   3.674 -0.1218 -1.2997 -1.7468
12447SOL    HW238282   0.219   5.952   3.638 -1.0141  0.8191 -1.7796
12448SOL     OW38283   1.665   2.477   6.550  0.1403 -0.1371 -0.2360
12448SOL    HW138284   1.747   2.484   6.501  0.6457 -0.3019  0.5789
12448SOL    HW238285   1.616   2.409   6.503 -0.0207  0.7292 -1.3839
12449SOL     OW38286   0.236   5.572   0.651  0.2724 -0.1901 -0.2723
12449SOL    HW138287   0.263   5.591   0.741  0.5018  2.1540 -0.7636
12449SOL    HW238288   0.144   5.547   0.659  0.0177  0.9253  0.5589
12450SOL     OW38289   1.852   6.158   6.978 -0.0823 -0.2590  0.0330
12450SOL    HW138290   1.826   6.184   6.889  1.8869  1.3089 -0.1448
12450SOL    HW238291   1.809   6.222   7.035  1.5371  1.0308 -0.1131
12451SOL     OW38292   7.293   5.055   0.522  0.1515 -0.2378 -0.7145
12451SOL    HW138293   7.261   5.013   0.601  0.6854 -0.8071 -0.7936
12451SOL    HW238294   7.300   5.148   0.545 -0.0526 -0.3444 -0.2177
12452SOL     OW38295   4.069   3.458   7.263 -0.4077 -0.0780  0.0282
12452SOL    HW138296   3.976   3.473   7.251 -0.5447 -0.9879 -0.0724
12452SOL    HW238297   4.094   3.398   7.193  0.3829  0.5952 -0.2987
12453SOL     OW38298   3.885   6.683   0.151  0.7073  0.0483 -0.1786
12453SOL    HW138299   3.957   6.682   0.214  0.9151 -0.5826 -0.4195
12453SOL    HW238300   3.926   6.709   0.069  0.4547  0.7691 -0.0838
12454SOL     OW38301   4.432   4.029   1.354 -0.1295  0.2866  0.0577
12454SOL    HW138302   4.434   4.032   1.258 -0.8303  0.4080  0.0412
12454SOL    HW238303   4.473   4.110   1.382 -2.7363  1.8093 -0.1928
12455SOL     OW38304   5.587   0.587   5.325  0.2860  0.3404  0.4623
12455SOL    HW138305   5.590   0.527   5.400  1.9022  0.4313  0.5145
12455SOL    HW238306   5.674   0.626   5.323  0.4417 -0.0207 -1.7729
12456SOL     OW38307   6.726   3.376   4.251 -0.2155 -0.0747 -0.1448
12456SOL    HW138308   6.688   3.441   4.193 -0.9528 -0.9998 -0.7127
12456SOL    HW238309   6.657   3.357   4.314  0.5390  0.8475  1.0262
12457SOL     OW38310   1.711   0.953   4.959 -0.4698  0.2668  0.2528
12457SOL    HW138311   1.799   0.931   4.927 -0.4867 -1.3577  1.1939
12457SOL    HW238312   1.683   0.875   5.007 -1.7599  1.3707  1.3891
12458SOL     OW38313   5.771   6.760   2.079  0.1908  0.0134 -0.6103
12458SOL    HW138314   5.676   6.765   2.070 -0.1334 -2.2806  0.7700
12458SOL    HW238315   5.789   6.790   2.168  0.6549 -0.3949 -0.5597
12459SOL     OW38316   0.760   0.285   5.528 -0.0976  0.1081 -0.2053
12459SOL    HW138317   0.798   0.358   5.480 -0.0869  0.6485  0.6081
12459SOL    HW238318   0.734   0.222   5.460 -1.4876  1.5161 -1.0517
12460SOL     OW38319   3.479   1.206   2.746 -0.8492  0.4764  0.3583
12460SOL    HW138320   3.494   1.112   2.739 -1.0606  0.4660  0.0132
12460SOL    HW238321   3.567   1.244   2.746 -0.7370  0.2326  1.2605
12461SOL     OW38322   0.293   4.342   0.280  0.1637  0.1571  0.1349
12461SOL    HW138323   0.227   4.303   0.337  1.0408 -1.6441 -0.0073
12461SOL    HW238324   0.341   4.403   0.336 -0.3837  0.0454  0.7269
12462SOL     OW38325   0.272   6.401   7.109  0.3485 -0.4555 -0.0629
12462SOL    HW138326   0.301   6.375   7.196  0.5018  0.2675  0.1108
12462SOL    HW238327   0.325   6.479   7.089 -0.3908 -0.0290 -0.3800
12463SOL     OW38328   2.121   5.608   3.479 -0.0343  0.3955 -0.0665
12463SOL    HW138329   2.096   5.696   3.451  0.0094  1.0416  1.7902
12463SOL    HW238330   2.215   5.615   3.499 -0.4141  0.4910  1.9197
12464SOL     OW38331   6.168   4.434   0.241  0.0806  0.0166  0.5184
12464SOL    HW138332   6.183   4.413   0.333 -2.6618 -0.1627  1.0242
12464SOL    HW238333   6.120   4.358   0.207  0.8661  0.1759 -1.0247
12465SOL     OW38334   3.674   3.702   6.139  0.0444  0.0960  0.2412
12465SOL    HW138335   3.671   3.691   6.044 -0.0447  0.9341  0.1428
12465SOL    HW238336   3.741   3.639   6.168  0.2763  0.0389 -0.4066
12466SOL     OW38337   4.177   6.607   3.486  0.0256  0.6457 -0.5101
12466SOL    HW138338   4.191   6.699   3.464  0.5311  0.5001 -0.8004
12466SOL    HW238339   4.122   6.609   3.565  2.0005  1.2424  0.9318
12467SOL     OW38340   7.157   3.579   4.736  0.0924  0.7224 -0.2305
12467SOL    HW138341   7.161   3.647   4.669  0.3590 -0.0351 -1.0017
12467SOL    HW238342   7.195   3.619   4.814  1.8045  0.9437 -1.1273
12468SOL     OW38343   5.687   4.731   3.580 -0.1048 -0.0847  0.0884
12468SOL    HW138344   5.700   4.649   3.627  1.6092 -0.1465 -0.4268
12468SOL    HW238345   5.600   4.723   3.541  0.5982 -2.3097 -1.1574
12469SOL     OW38346   1.063   4.346   1.595 -0.2684  0.3794 -0.3205
12469SOL    HW138347   1.001   4.337   1.668 -2.0642  1.1210 -1.6575
12469SOL    HW238348   1.090   4.438   1.598  2.0327 -0.2593  1.1368
12470SOL     OW38349   4.017   2.498   2.243  0.9519 -0.3828 -0.3579
12470SOL    HW138350   3.972   2.415   2.229  1.1517 -0.4135 -0.8501
12470SOL    HW238351   3.982   2.556   2.176  0.1660  0.2069  0.5290
12471SOL     OW38352   6.982   4.510   4.573  0.0158 -0.5616  0.0374
12471SOL    HW138353   7.061   4.483   4.528  0.2294 -0.8617  0.5836
12471SOL    HW238354   6.921   4.438   4.560  0.0579 -0.6225  0.1764
12472SOL     OW38355   1.181   6.646   6.049  0.1939 -0.0615  0.3323
12472SOL    HW138356   1.150   6.561   6.019  0.0782 -0.1909  0.8182
12472SOL    HW238357   1.159   6.649   6.142  0.6779  0.2800  0.4400
12473SOL     OW38358   5.926   0.278   5.154  0.6225  0.3332  0.2920
12473SOL    HW138359   5.849   0.236   5.192 -0.4043  1.1874 -0.7745
12473SOL    HW238360   5.988   0.206   5.139  0.1669 -0.3205  1.4244
12474SOL     OW38361   3.672   6.613   2.782  0.2211  0.2428  0.4471
12474SOL    HW138362   3.621   6.538   2.751  0.3283  0.8563 -1.3421
12474SOL    HW238363   3.730   6.576   2.849 -1.1521 -0.8415  1.0935
12475SOL     OW38364   1.455   3.614   7.223  0.1931 -0.2524  0.4867
12475SOL    HW138365   1.548   3.595   7.208  0.4029 -0.9594  2.3604
12475SOL    HW238366   1.412   3.529   7.218  0.2850 -0.5852  3.3580
12476SOL     OW38367   4.083   4.277   5.798 -0.0282  0.4092 -0.1900
12476SOL    HW138368   4.090   4.369   5.772  0.3337  0.7176  0.9444
12476SOL    HW238369   4.165   4.259   5.843 -0.1488 -0.4452 -0.3044
12477SOL     OW38370   0.341   2.464   6.922  0.0529 -0.3332 -0.7350
12477SOL    HW138371   0.409   2.530   6.929 -0.6343  0.2282  1.7201
12477SOL    HW238372   0.268   2.509   6.878  0.4930 -0.2818 -1.4209
12478SOL     OW38373   5.782   1.459   6.565 -0.4176 -0.1771  0.6098
12478SOL    HW138374   5.850   1.510   6.520 -1.2572 -0.3062 -0.8691
12478SOL    HW238375   5.822   1.374   6.581 -0.0363 -0.0644  0.2685
12479SOL     OW38376   4.217   1.066   0.646  0.1436 -0.4829 -0.1210
12479SOL    HW138377   4.286   1.112   0.598 -0.9022  0.2229 -0.9735
12479SOL    HW238378   4.247   0.975   0.648  1.3319 -0.1072 -0.0443
12480SOL     OW38379   0.091   3.396   4.423  0.7909 -0.0058 -0.3505
12480SOL    HW138380   0.128   3.428   4.506 -0.2947 -1.2120  0.6425
12480SOL    HW238381   0.007   3.443   4.416  0.1272 -1.0754  0.0975
12481SOL     OW38382   2.896   0.297   2.088  0.2552 -0.3268 -0.4191
12481SOL    HW138383   2.802   0.282   2.080  0.1715  0.3002 -0.7036
12481SOL    HW238384   2.904   0.365   2.155  0.4644 -0.0298 -0.7372
12482SOL     OW38385   3.224   2.442   0.617  0.3901 -0.0086 -0.1728
12482SOL    HW138386   3.254   2.380   0.551 -0.3361  0.3810 -0.8810
12482SOL    HW238387   3.279   2.520   0.602  0.4830 -0.0524 -0.0644
12483SOL     OW38388   2.712   6.858   6.767  0.8497  0.4272 -0.3856
12483SOL    HW138389   2.706   6.764   6.778 -3.2175  0.6002  0.6223
12483SOL    HW238390   2.635   6.881   6.713  0.8533  3.2656  0.6440
12484SOL     OW38391   3.474   5.069   1.933 -0.1962 -0.0595 -0.4092
12484SOL    HW138392   3.512   4.989   1.896  1.0410 -0.0148  0.7008
12484SOL    HW238393   3.385   5.072   1.897 -0.5658 -2.3789  0.1658
12485SOL     OW38394   3.909   6.450   1.520 -0.1925  0.0718  0.2560
12485SOL    HW138395   3.876   6.539   1.538  1.7619  0.9393 -0.2026
12485SOL    HW238396   3.945   6.421   1.604 -0.8171 -0.3083  0.4014
12486SOL     OW38397   6.323   6.587   1.899 -0.2361  0.7627 -0.8058
12486SOL    HW138398   6.417   6.602   1.894 -0.2059  1.3725  1.0387
12486SOL    HW238399   6.304   6.583   1.992 -1.7175 -1.5132 -1.1083
12487SOL     OW38400   0.589   4.805   6.913 -0.0212 -0.1583  0.0877
12487SOL    HW138401   0.579   4.806   6.818 -0.0464  0.5591  0.0949
12487SOL    HW238402   0.553   4.888   6.943  0.2898 -0.2307  0.6942
12488SOL     OW38403   0.809   3.223   1.911 -0.2731  0.4523  0.3051
12488SOL    HW138404   0.821   3.222   2.006 -0.2511  0.1754  0.3021
12488SOL    HW238405   0.743   3.155   1.895  1.4478 -1.2262 -0.0845
12489SOL     OW38406   1.273   0.565   2.526 -0.1220 -0.4985 -0.3686
12489SOL    HW138407   1.217   0.510   2.472  0.1439 -1.1076 -0.0396
12489SOL    HW238408   1.315   0.625   2.464 -0.5823 -0.5244 -0.7061
12490SOL     OW38409   1.447   5.768   3.206 -0.1807  0.8085 -0.1342
12490SOL    HW138410   1.533   5.807   3.189  1.0516 -1.5843  0.1830
12490SOL    HW238411   1.459   5.675   3.185 -2.6471  0.3751  0.1586
12491SOL     OW38412   5.674   5.981   0.220  0.6624  0.1364  0.0438
12491SOL    HW138413   5.746   5.919   0.227 -0.7687 -1.5953  0.3030
12491SOL    HW238414   5.632   5.959   0.137  0.0296  0.6567  0.2186
12492SOL     OW38415   2.086   0.596   2.529  0.4802 -0.2255 -0.4396
12492SOL    HW138416   2.178   0.576   2.548 -0.2538 -3.1811  0.4558
12492SOL    HW238417   2.063   0.538   2.456 -0.9289 -0.1971 -0.0491
12493SOL     OW38418   1.878   1.723   0.111 -0.3408 -0.3781  0.0179
12493SOL    HW138419   1.911   1.788   0.173  1.4623 -0.3917 -0.8869
12493SOL    HW238420   1.945   1.655   0.108 -2.7463 -3.0827  1.9571
12494SOL     OW38421   4.064   1.696   5.720  0.4854 -0.0596  0.2125
12494SOL    HW138422   4.114   1.764   5.674 -0.1654  0.3112  0.0452
12494SOL    HW238423   4.113   1.680   5.800  0.3450  1.0091  0.5201
12495SOL     OW38424   3.812   6.668   4.153  0.6165  0.5051 -0.1691
12495SOL    HW138425   3.763   6.635   4.228  0.0200  0.4203 -0.5900
12495SOL    HW238426   3.799   6.601   4.085 -1.1192  1.8534 -1.2527
12496SOL     OW38427   4.483   3.031   1.787 -0.5875  0.6988  0.1446
12496SOL    HW138428   4.446   3.091   1.723 -0.5687  1.3374  0.7276
12496SOL    HW238429   4.409   3.003   1.840 -0.1677  2.6703  1.8845
12497SOL     OW38430   1.805   6.294   4.944 -0.1772 -0.3638 -0.3091
12497SOL    HW138431   1.798   6.237   4.868  0.9934 -0.1993 -0.5581
12497SOL    HW238432   1.733   6.268   5.001 -0.5976 -1.0116 -1.1295
12498SOL     OW38433   1.841   2.893   5.810 -0.3043 -0.1817 -0.4000
12498SOL    HW138434   1.808   2.876   5.722 -1.9568  1.6359 -0.2220
12498SOL    HW238435   1.833   2.988   5.820 -0.5249 -0.3773  1.8401
12499SOL     OW38436   3.932   5.735   0.639  0.3222 -0.3229 -0.3054
12499SOL    HW138437   3.927   5.641   0.626 -0.7138  0.0006 -2.7510
12499SOL    HW238438   4.011   5.762   0.591 -0.4562  0.2598 -1.2924
12500SOL     OW38439   3.608   2.361   6.717 -0.0237  0.1937  0.7434
12500SOL    HW138440   3.566   2.309   6.785  1.1056  0.1409  1.4284
12500SOL    HW238441   3.666   2.299   6.671  0.4909  0.5892  0.8422
12501SOL     OW38442   3.336   4.194   1.501  0.2373 -0.4868  0.4001
12501SOL    HW138443   3.367   4.256   1.435 -0.8496  0.1253  0.4492
12501SOL    HW238444   3.336   4.110   1.455  0.8937 -0.3219  0.0721
12502SOL     OW38445   1.489   3.636   5.580 -0.0032 -0.5646 -0.5908
12502SOL    HW138446   1.545   3.681   5.517  0.2790 -1.8940 -1.3259
12502SOL    HW238447   1.541   3.562   5.609 -0.1377 -0.0051  1.2146
12503SOL     OW38448   2.135   0.780   3.956 -0.0166  0.0721  0.0562
12503SOL    HW138449   2.130   0.870   3.988  0.9266  0.1738 -0.0529
12503SOL    HW238450   2.063   0.735   4.000 -1.1927  1.1191 -0.7126
12504SOL     OW38451   4.267   1.995   5.568 -0.2174 -0.8147  0.0022
12504SOL    HW138452   4.301   1.907   5.587 -0.5060 -0.9066  0.0980
12504SOL    HW238453   4.283   2.007   5.475 -2.8023 -2.1465 -0.6921
12505SOL     OW38454   6.030   1.078   0.549 -0.0128  0.0071 -0.2787
12505SOL    HW138455   5.974   1.027   0.491 -1.2186 -0.2579  1.0798
12505SOL    HW238456   5.972   1.108   0.619  1.5211 -0.2448  1.1674
12506SOL     OW38457   3.191   4.879   1.425 -0.0069  0.3069 -0.8593
12506SOL    HW138458   3.104   4.913   1.406 -1.2153 -0.8353  1.9892
12506SOL    HW238459   3.175   4.789   1.455  2.1888 -0.0317 -0.5567
12507SOL     OW38460   1.365   6.315   3.999 -0.8196 -0.2520 -0.0502
12507SOL    HW138461   1.425   6.247   4.030  0.0062  0.5046  0.0720
12507SOL    HW238462   1.327   6.352   4.079 -0.7062 -0.0859 -0.0715
12508SOL     OW38463   2.073   5.138   3.229 -0.0888 -0.3152 -0.0128
12508SOL    HW138464   2.085   5.224   3.269  0.9028  1.2217 -3.3079
12508SOL    HW238465   2.140   5.083   3.269  0.7500  1.0567  0.5427
12509SOL     OW38466   3.471   7.252   4.204 -0.4720 -0.3460 -0.8126
12509SOL    HW138467   3.516   7.212   4.129  2.0886  1.1461 -0.1926
12509SOL    HW238468   3.541   7.291   4.256 -2.0241 -2.1780  2.9956
12510SOL     OW38469   6.225   3.115   3.121 -0.4904  0.6028  0.1140
12510SOL    HW138470   6.154   3.121   3.186  0.1954  0.5357  0.8816
12510SOL    HW238471   6.186   3.064   3.049 -0.9879 -0.1259  0.8680
12511SOL     OW38472   4.086   5.849   3.137 -0.2236  0.1543 -0.0983
12511SOL    HW138473   4.173   5.861   3.098  0.0126  0.9334  0.6215
12511SOL    HW238474   4.047   5.777   3.088  0.0880  1.0422 -1.7049
12512SOL     OW38475   4.744   2.864   5.242 -0.1892  0.2026 -0.0539
12512SOL    HW138476   4.697   2.826   5.168 -0.1050  0.3553 -0.1881
12512SOL    HW238477   4.826   2.814   5.247 -0.3666 -0.0603  0.1769
12513SOL     OW38478   3.944   0.410   4.972 -0.1279 -0.2528  0.2280
12513SOL    HW138479   3.952   0.429   5.066  0.7259  0.2502  0.0606
12513SOL    HW238480   4.015   0.460   4.931  0.5133 -1.7166 -0.5142
12514SOL     OW38481   3.521   5.110   5.663  0.6962 -0.1388 -0.5890
12514SOL    HW138482   3.426   5.117   5.667  0.7473  1.4278 -1.2336
12514SOL    HW238483   3.538   5.017   5.646 -0.7352 -0.3101 -1.2135
12515SOL     OW38484   2.540   1.100   3.898  0.6188 -0.0345 -0.1861
12515SOL    HW138485   2.502   1.171   3.949 -1.0054 -1.0742  0.1017
12515SOL    HW238486   2.520   1.122   3.807  2.1202  1.0003 -0.3050
12516SOL     OW38487   4.010   2.684   1.710  0.4368  0.1067 -0.0264
12516SOL    HW138488   3.994   2.635   1.629 -0.3400 -0.3380  0.3841
12516SOL    HW238489   4.062   2.624   1.764  0.1488  0.0333  0.1708
12517SOL     OW38490   5.578   7.323   6.011  0.0243 -0.7151  0.4599
12517SOL    HW138491   5.484   7.303   6.005 -0.0842 -0.3320  0.8421
12517SOL    HW238492   5.618   7.269   5.943 -0.6803  0.4560 -0.9517
12518SOL     OW38493   4.394   0.787   3.895 -0.0008 -0.1625  0.0619
12518SOL    HW138494   4.399   0.867   3.947 -1.2288  0.2507 -0.4226
12518SOL    HW238495   4.302   0.780   3.870  0.3749 -0.9060 -1.1876
12519SOL     OW38496   5.428   3.120   7.045  0.1091  0.1234  0.4459
12519SOL    HW138497   5.473   3.048   7.088 -2.0301 -0.9022  1.1316
12519SOL    HW238498   5.372   3.158   7.113 -0.6290  0.8219 -0.5194
12520SOL     OW38499   4.996   1.065   1.718 -0.2926  0.2326 -0.6596
12520SOL    HW138500   4.990   0.971   1.739  1.4899 -0.6062 -3.4514
12520SOL    HW238501   4.994   1.108   1.804 -0.2612 -2.3962  0.7771
12521SOL     OW38502   4.440   5.131   5.338 -0.8840 -0.4193  0.2651
12521SOL    HW138503   4.531   5.119   5.309 -0.9448  0.8840 -0.5520
12521SOL    HW238504   4.447   5.147   5.432  0.2542  3.8770 -0.3328
12522SOL     OW38505   2.597   4.984   6.431 -0.4208  0.6679  0.1041
12522SOL    HW138506   2.666   4.919   6.415  1.0637  2.1002  0.3423
12522SOL    HW238507   2.635   5.066   6.398 -2.3170  1.3919 -0.3817
12523SOL     OW38508   6.468   4.065   2.351  0.1657  0.9841 -0.3952
12523SOL    HW138509   6.423   4.147   2.369 -0.4928  0.4716  0.3450
12523SOL    HW238510   6.457   4.013   2.430  0.9142  0.3290 -0.7056
12524SOL     OW38511   2.823   4.268   2.633 -0.3720 -0.1224  0.0795
12524SOL    HW138512   2.758   4.197   2.629 -0.5106 -0.0358  0.6894
12524SOL    HW238513   2.780   4.336   2.685 -0.6721  0.8710 -1.4078
12525SOL     OW38514   5.010   6.347   2.185 -0.3601 -0.2275 -0.0510
12525SOL    HW138515   4.941   6.374   2.246  1.3861  1.3254  1.3688
12525SOL    HW238516   5.033   6.258   2.213 -1.6816 -0.7295 -0.4865
12526SOL     OW38517   0.974   2.222   5.892  0.1573 -0.1304 -0.1463
12526SOL    HW138518   1.035   2.295   5.883  0.1787 -0.0316  0.7884
12526SOL    HW238519   1.029   2.149   5.922  0.2654 -0.7395 -1.6994
12527SOL     OW38520   5.268   0.541   3.404 -0.0130 -0.2055  0.1137
12527SOL    HW138521   5.337   0.509   3.461  0.3585  1.2577  0.5320
12527SOL    HW238522   5.188   0.501   3.437  0.3430 -0.1926  1.0084
12528SOL     OW38523   7.225   2.091   1.889  0.3528 -0.1553  0.1443
12528SOL    HW138524   7.250   2.122   1.976 -1.6256 -0.3426  0.8322
12528SOL    HW238525   7.278   2.143   1.829  2.2873 -0.5147  1.4481
12529SOL     OW38526   0.844   1.074   3.135 -0.2057  0.6152  0.0442
12529SOL    HW138527   0.881   1.071   3.046  0.7616 -2.1218  0.4333
12529SOL    HW238528   0.912   1.113   3.188  1.0664 -1.7024  0.2441
12530SOL     OW38529   5.361   1.763   6.702 -0.1202 -0.7596  0.2921
12530SOL    HW138530   5.313   1.809   6.633 -0.5145 -0.3707  0.8098
12530SOL    HW238531   5.399   1.687   6.659 -2.5838 -2.0456  0.1734
12531SOL     OW38532   6.701   4.898   4.796 -0.3959  0.5128  0.1000
12531SOL    HW138533   6.751   4.960   4.849 -0.4261  0.0653  0.6630
12531SOL    HW238534   6.637   4.860   4.856 -0.1400 -0.3244 -0.1343
12532SOL     OW38535   6.010   0.265   6.357 -0.3949 -0.1451  0.6911
12532SOL    HW138536   6.031   0.349   6.316  1.4428 -0.5959  0.6040
12532SOL    HW238537   6.055   0.269   6.442  0.7851 -1.4915  0.1751
12533SOL     OW38538   2.190   2.975   6.260 -0.2956  0.1680  0.4586
12533SOL    HW138539   2.156   2.916   6.328  0.3502 -1.4289 -0.5506
12533SOL    HW238540   2.117   2.985   6.199 -0.3754  0.3366  0.5814
12534SOL     OW38541   2.436   3.901   1.150 -0.4514  0.1299 -0.6926
12534SOL    HW138542   2.465   3.815   1.179 -0.7191  0.3241  0.1516
12534SOL    HW238543   2.341   3.897   1.155 -0.4546  0.5502 -0.4430
12535SOL     OW38544   2.543   3.196   5.723 -0.4492 -0.2985  0.0883
12535SOL    HW138545   2.549   3.103   5.742 -2.5015 -0.7693 -1.2573
12535SOL    HW238546   2.570   3.203   5.631 -0.3323  0.4343  0.1730
12536SOL     OW38547   1.542   6.795   5.725  0.2657 -0.4189 -0.6822
12536SOL    HW138548   1.461   6.748   5.747  0.3859 -0.2893  0.0742
12536SOL    HW238549   1.574   6.827   5.809  0.8858 -0.1103 -1.0317
12537SOL     OW38550   1.907   0.841   0.315 -0.0685 -0.3488  0.4036
12537SOL    HW138551   1.949   0.828   0.230 -0.4117  1.2390 -0.0417
12537SOL    HW238552   1.905   0.936   0.326 -2.4783 -0.4006  0.9188
12538SOL     OW38553   6.784   3.704   6.727  0.2499  0.3002  0.1251
12538SOL    HW138554   6.759   3.694   6.819  1.8168 -0.0372  0.5363
12538SOL    HW238555   6.823   3.791   6.722 -0.1717  0.4710 -0.3229
12539SOL     OW38556   0.714   5.202   0.390 -0.3141  0.0126  0.0594
12539SOL    HW138557   0.753   5.289   0.397  2.5086 -1.1014 -0.4089
12539SOL    HW238558   0.673   5.201   0.303  2.0767  0.0695 -1.1668
12540SOL     OW38559   1.841   3.760   5.847 -0.1612  0.2093  0.4238
12540SOL    HW138560   1.776   3.700   5.884  0.0677 -0.2051  0.1569
12540SOL    HW238561   1.917   3.752   5.906  0.8279 -1.6865 -0.9988
12541SOL     OW38562   6.144   0.299   1.314 -0.2785  0.1424  0.0751
12541SOL    HW138563   6.080   0.369   1.302 -0.9204 -0.5057 -0.3969
12541SOL    HW238564   6.215   0.320   1.254 -1.3792 -0.6435 -1.5733
12542SOL     OW38565   6.841   7.066   7.279 -0.3321 -0.0663  0.4350
12542SOL    HW138566   6.836   7.029   7.192  0.0776 -1.4706  0.9830
12542SOL    HW238567   6.750   7.074   7.308 -0.4270 -1.8875  0.7785
12543SOL     OW38568   7.342   3.336   2.737  0.2519  0.0659 -0.2102
12543SOL    HW138569   7.313   3.358   2.826  1.1216  0.9169 -0.1212
12543SOL    HW238570   7.393   3.256   2.747 -0.4697 -0.3832 -0.0893
12544SOL     OW38571   3.552   1.572   5.441 -0.3720 -0.1046  0.2216
12544SOL    HW138572   3.522   1.572   5.350 -0.9846  0.2843  0.4174
12544SOL    HW238573   3.647   1.561   5.435 -0.2538  1.1373 -0.5260
12545SOL     OW38574   5.393   4.124   1.379 -0.0690 -0.2067  0.3077
12545SOL    HW138575   5.478   4.085   1.399 -0.9681 -1.3467  2.2204
12545SOL    HW238576   5.411   4.218   1.375  1.7448 -0.5534 -2.2733
12546SOL     OW38577   5.427   1.367   2.750 -0.2725  0.1537 -1.1773
12546SOL    HW138578   5.380   1.361   2.833 -1.1456  1.4827 -1.5357
12546SOL    HW238579   5.485   1.442   2.761  2.1914 -1.7429 -0.5771
12547SOL     OW38580   6.822   2.956   6.222 -0.0681  0.6689  0.1799
12547SOL    HW138581   6.894   3.014   6.245  0.2752  0.3191 -0.0033
12547SOL    HW238582   6.864   2.873   6.198 -0.5214  0.5001 -0.0519
12548SOL     OW38583   4.125   1.690   0.705 -0.1149 -0.0672  0.0854
12548SOL    HW138584   4.082   1.617   0.659  0.2070 -1.4662  1.8760
12548SOL    HW238585   4.128   1.760   0.641 -2.0936 -1.0099 -1.1569
12549SOL     OW38586   3.100   0.073   4.903 -0.4269  0.0898 -0.1425
12549SOL    HW138587   3.029   0.018   4.934  0.5790 -0.9497  0.4011
12549SOL    HW238588   3.079   0.161   4.936 -1.5960 -0.1330 -0.2640
12550SOL     OW38589   1.327   4.393   0.744 -0.4896 -0.2595 -0.3072
12550SOL    HW138590   1.301   4.302   0.749 -0.7077 -0.2090 -0.5384
12550SOL    HW238591   1.300   4.431   0.828  0.7533 -0.7039  0.3206
12551SOL     OW38592   0.956   3.434   5.103  0.2946  0.0167 -0.2379
12551SOL    HW138593   0.929   3.520   5.136 -0.3519  0.1609 -1.1320
12551SOL    HW238594   1.005   3.395   5.176 -0.3705  0.6797  0.5790
12552SOL     OW38595   0.900   5.301   3.592  0.3698 -0.2281 -0.0607
12552SOL    HW138596   0.886   5.289   3.686  0.7847 -1.1267 -0.1011
12552SOL    HW238597   0.818   5.340   3.560 -0.3859 -1.3811  0.4186
12553SOL     OW38598   4.870   1.085   2.744 -0.1622 -0.2805 -0.4635
12553SOL    HW138599   4.945   1.144   2.750  0.2801 -0.8234 -0.5876
12553SOL    HW238600   4.794   1.143   2.740 -0.0778  0.3125  3.1804
12554SOL     OW38601   1.115   0.616   6.842 -0.7669 -0.7013 -0.4339
12554SOL    HW138602   1.206   0.644   6.836  0.0944 -1.1256  5.0057
12554SOL    HW238603   1.065   0.688   6.804  1.7505  0.9582 -0.8450
12555SOL     OW38604   4.146   5.812   1.660  0.4038  0.6788  0.0284
12555SOL    HW138605   4.115   5.873   1.726  1.2635  0.2491  0.8685
12555SOL    HW238606   4.079   5.813   1.592  0.1495  2.1426  0.2665
12556SOL     OW38607   0.096   1.622   0.338 -0.1680  0.0076 -0.4491
12556SOL    HW138608   0.008   1.626   0.300  0.4113  1.5429 -1.7691
12556SOL    HW238609   0.103   1.534   0.374 -2.6089  0.1839  0.6512
12557SOL     OW38610   4.021   5.456   6.300 -0.4494 -0.1885 -0.2236
12557SOL    HW138611   3.993   5.421   6.384  1.4212 -1.5294 -0.1027
12557SOL    HW238612   4.114   5.431   6.293  0.1568  2.1144 -1.5246
12558SOL     OW38613   5.740   2.855   5.972  0.4909  0.3866  0.1708
12558SOL    HW138614   5.828   2.892   5.977  0.6637 -0.0222  0.1840
12558SOL    HW238615   5.748   2.768   6.010  0.3024 -0.0392 -0.7328
12559SOL     OW38616   1.912   3.752   1.222 -0.6864 -0.9659 -0.4678
12559SOL    HW138617   1.873   3.685   1.278 -1.0563 -0.9507 -0.7014
12559SOL    HW238618   1.911   3.713   1.134 -2.0116 -0.2136 -0.8225
12560SOL     OW38619   5.733   3.287   3.523  0.1121  0.8350  0.1892
12560SOL    HW138620   5.741   3.191   3.523  0.8947  0.8650 -1.0521
12560SOL    HW238621   5.720   3.311   3.614 -0.4385 -0.4873  0.4733
12561SOL     OW38622   4.118   2.206   1.887  0.0593  0.6222  0.0681
12561SOL    HW138623   4.063   2.255   1.826 -1.1410 -0.9374 -0.1539
12561SOL    HW238624   4.204   2.246   1.879 -1.0021  3.2356  0.5082
12562SOL     OW38625   0.955   1.248   4.785  0.3108 -0.0681 -0.3606
12562SOL    HW138626   1.023   1.315   4.787  0.4872 -0.0244 -3.5415
12562SOL    HW238627   0.991   1.176   4.838  1.5400  1.0653  0.4089
12563SOL     OW38628   3.010   2.506   1.602  0.6348  0.4271  0.6302
12563SOL    HW138629   2.957   2.525   1.679  1.3762  0.3323  1.1701
12563SOL    HW238630   3.084   2.566   1.608  1.0612 -0.0629  0.3698
12564SOL     OW38631   3.227   6.241   6.838 -0.0687 -0.1471  0.2696
12564SOL    HW138632   3.150   6.297   6.839 -0.6861 -0.9545 -0.7092
12564SOL    HW238633   3.195   6.155   6.813  0.7844 -1.0966  2.2698
12565SOL     OW38634   4.327   2.853   0.986 -0.0891 -0.0871  0.2144
12565SOL    HW138635   4.306   2.769   0.946 -2.2955  1.5250 -2.3846
12565SOL    HW238636   4.267   2.915   0.944 -0.6861  2.3544  4.0916
12566SOL     OW38637   5.042   6.326   0.632 -0.3921  0.7282  0.3039
12566SOL    HW138638   4.988   6.387   0.682  0.4320  0.5832  1.4026
12566SOL    HW238639   5.055   6.251   0.690 -0.1640  0.1459 -0.4713
12567SOL     OW38640   4.137   1.666   6.593  0.0421  0.1095  0.0178
12567SOL    HW138641   4.132   1.578   6.629 -1.2050  0.5574  1.0572
12567SOL    HW238642   4.230   1.686   6.588  0.3177 -1.1248  0.1086
12568SOL     OW38643   3.165   5.491   1.318 -0.1969 -0.2546 -1.0093
12568SOL    HW138644   3.188   5.408   1.359 -2.2165 -1.2014 -1.6696
12568SOL    HW238645   3.136   5.546   1.390  0.1597 -0.4782 -0.6907
12569SOL     OW38646   1.088   2.976   4.114 -0.1283 -0.2387  0.1952
12569SOL    HW138647   1.009   2.960   4.061 -0.8221  2.1354  0.3870
12569SOL    HW238648   1.057   2.975   4.204  0.2668 -0.2291  0.3327
12570SOL     OW38649   3.344   1.891   6.473  0.0861  0.7060 -0.0221
12570SOL    HW138650   3.260   1.853   6.448  0.9379 -1.5993  0.3540
12570SOL    HW238651   3.382   1.921   6.391 -0.5998  0.6963 -0.3509
12571SOL     OW38652   1.593   1.482   0.672  0.0733  0.1989  0.0301
12571SOL    HW138653   1.643   1.420   0.726 -1.2348 -0.1778  0.8813
12571SOL    HW238654   1.648   1.497   0.595  0.7718 -1.4339  0.1601
12572SOL     OW38655   0.203   2.360   2.139 -0.0610 -0.2198  0.1830
12572SOL    HW138656   0.225   2.442   2.093 -1.0097 -0.6170 -1.0336
12572SOL    HW238657   0.145   2.388   2.210 -0.5427  0.1529 -0.3467
12573SOL     OW38658   5.474   2.503   5.814  0.1900  0.0136 -0.6366
12573SOL    HW138659   5.539   2.443   5.850 -1.1950 -1.6090 -0.7235
12573SOL    HW238660   5.394   2.451   5.808 -1.5027  2.3022  0.7073
12574SOL     OW38661   5.042   1.098   0.793 -0.2729  0.0847  0.1558
12574SOL    HW138662   5.106   1.141   0.737 -0.7375  0.4178 -0.1324
12574SOL    HW238663   5.053   1.139   0.879  1.3866 -1.3906  0.7009
12575SOL     OW38664   7.170   7.020   5.528 -0.0556 -0.0115 -0.1586
12575SOL    HW138665   7.097   6.962   5.552  0.8529 -1.1505 -0.0744
12575SOL    HW238666   7.219   7.031   5.609 -0.2492  0.9400 -0.1644
12576SOL     OW38667   1.663   6.671   3.007 -0.1029  0.1442  0.3421
12576SOL    HW138668   1.709   6.599   2.963 -0.4755  0.0341  0.1254
12576SOL    HW238669   1.732   6.734   3.028  0.0830  0.2078 -0.4240
12577SOL     OW38670   5.036   4.113   6.193 -0.3327 -0.4538 -0.2698
12577SOL    HW138671   4.972   4.106   6.122 -1.1294  0.0387  0.3717
12577SOL    HW238672   5.112   4.155   6.154 -0.2229 -1.4368 -1.1518
12578SOL     OW38673   4.897   5.570   5.226 -0.2494 -0.2260 -0.0179
12578SOL    HW138674   4.851   5.635   5.174  0.9333  2.1761  1.7120
12578SOL    HW238675   4.930   5.506   5.163 -1.7907  0.6297 -1.7574
12579SOL     OW38676   0.208   2.386   4.201  0.6694  0.0695  0.3665
12579SOL    HW138677   0.180   2.392   4.110 -0.8350 -1.2174  0.7080
12579SOL    HW238678   0.248   2.471   4.219 -0.2593  0.8532 -1.0850
12580SOL     OW38679   5.626   0.048   4.259  0.4811  0.0745  0.3248
12580SOL    HW138680   5.584   0.088   4.183 -0.6071  0.0970  0.9150
12580SOL    HW238681   5.567  -0.024   4.283 -0.0814  1.0657  2.1108
12581SOL     OW38682   4.851   4.973   0.815 -0.0294  0.0140  0.0218
12581SOL    HW138683   4.925   5.035   0.816  0.4733 -0.5712 -0.5206
12581SOL    HW238684   4.835   4.954   0.908 -0.4895  1.2973  0.2280
12582SOL     OW38685   1.065   5.251   6.953 -0.0625  0.5193  0.4309
12582SOL    HW138686   1.128   5.322   6.958  1.9214 -1.2058  1.8406
12582SOL    HW238687   1.031   5.243   7.042  0.2406 -0.6694  0.4575
12583SOL     OW38688   4.442   1.421   5.553 -0.0560  0.2210  0.2749
12583SOL    HW138689   4.432   1.516   5.552  0.0352  0.2318 -0.5591
12583SOL    HW238690   4.425   1.394   5.463  1.7401 -0.3531  0.0634
12584SOL     OW38691   6.394   2.952   2.294  0.1863  0.3128  0.0171
12584SOL    HW138692   6.466   2.926   2.351 -0.2454  0.6347  0.7220
12584SOL    HW238693   6.436   2.992   2.218  0.7722 -0.3742 -0.0260
12585SOL     OW38694   2.910   3.179   2.731 -0.1376  0.6972 -0.1756
12585SOL    HW138695   2.928   3.272   2.723 -2.1396  1.0514 -1.0964
12585SOL    HW238696   2.867   3.155   2.649 -0.7843 -0.7479  0.5439
12586SOL     OW38697   2.094   7.412   1.580  0.5955 -0.4684 -0.1560
12586SOL    HW138698   2.096   7.441   1.489 -1.1510  1.0770  0.2191
12586SOL    HW238699   2.008   7.370   1.590  1.6630 -2.6843  0.2475
12587SOL     OW38700   2.146   3.512   3.640  0.5182  0.3379  0.7335
12587SOL    HW138701   2.122   3.605   3.637 -0.3336  0.1558  1.6158
12587SOL    HW238702   2.086   3.470   3.579 -2.0361 -0.2128  3.4040
12588SOL     OW38703   1.375   7.391   2.302  0.3974  0.1886 -0.1397
12588SOL    HW138704   1.421   7.314   2.267 -0.9047 -0.0541 -1.4020
12588SOL    HW238705   1.283   7.377   2.278  0.0947  2.0192 -0.1703
12589SOL     OW38706   0.613   4.705   3.117 -0.5584 -0.6581 -0.5499
12589SOL    HW138707   0.680   4.669   3.176  1.8561  0.1231 -2.6272
12589SOL    HW238708   0.557   4.630   3.096  0.7390 -1.8006 -0.1141
12590SOL     OW38709   0.149   4.102   1.893  0.0191 -0.2605  0.0420
12590SOL    HW138710   0.131   4.072   1.982 -1.3617  0.3946  0.0189
12590SOL    HW238711   0.241   4.128   1.894  0.3011 -1.2311  0.9845
12591SOL     OW38712   0.492   3.704   1.287 -0.1437  0.1828  0.0602
12591SOL    HW138713   0.459   3.711   1.377 -3.2765  2.5174 -1.0591
12591SOL    HW238714   0.534   3.788   1.271  0.5443 -0.2855 -0.6165
12592SOL     OW38715   2.168   6.572   0.895 -0.0966  0.4650 -0.1237
12592SOL    HW138716   2.246   6.626   0.907  0.9484 -0.9723 -0.2160
12592SOL    HW238717   2.154   6.571   0.801  2.8029 -3.1993 -0.7613
12593SOL     OW38718   6.998   3.763   5.052  0.0733 -0.4772 -0.2832
12593SOL    HW138719   7.081   3.741   5.009  0.1677  1.2480 -1.0922
12593SOL    HW238720   6.980   3.689   5.109  0.7557 -2.1514 -2.1326
12594SOL     OW38721   1.232   2.546   6.133 -0.0883  0.0654 -0.5106
12594SOL    HW138722   1.157   2.545   6.193 -1.0459 -0.2646 -1.6662
12594SOL    HW238723   1.219   2.470   6.077  0.4490  0.6844 -1.5189
12595SOL     OW38724   3.048   4.372   1.106 -0.3251  0.0653  0.1056
12595SOL    HW138725   2.991   4.397   1.179 -0.7481 -0.7746  0.0646
12595SOL    HW238726   2.999   4.395   1.028 -1.0778 -1.6060  0.0499
12596SOL     OW38727   3.599   6.341   4.645  0.5431 -0.0303 -0.4038
12596SOL    HW138728   3.563   6.284   4.578  1.4289 -1.4729  0.3039
12596SOL    HW238729   3.523   6.387   4.681 -0.9948 -3.8895  1.9370
12597SOL     OW38730   5.430   7.392   2.424 -0.4627  0.1777  0.6674
12597SOL    HW138731   5.379   7.467   2.393 -0.3883 -0.2796 -0.6097
12597SOL    HW238732   5.483   7.366   2.349 -1.5656 -2.0712  0.5681
12598SOL     OW38733   1.278   1.355   4.794 -0.4466 -0.6444  0.2959
12598SOL    HW138734   1.228   1.388   4.719 -1.6634 -1.2943  0.7879
12598SOL    HW238735   1.308   1.268   4.766  0.6501 -0.1471 -0.0952
12599SOL     OW38736   6.939   6.525   4.596 -0.1906 -0.3057 -1.1488
12599SOL    HW138737   6.904   6.447   4.553 -0.9929 -0.1044 -0.8688
12599SOL    HW238738   7.034   6.517   4.586 -0.1717 -2.0012  0.0366
12600SOL     OW38739   6.772   1.719   1.841  0.3815 -0.5143  0.1007
12600SOL    HW138740   6.838   1.752   1.903 -1.7553 -1.5748  3.1783
12600SOL    HW238741   6.719   1.796   1.820  0.9080 -0.2135 -0.1477
12601SOL     OW38742   5.390   3.345   7.214  0.2609  0.0792 -0.6620
12601SOL    HW138743   5.296   3.356   7.200  0.3119  3.8792  0.8200
12601SOL    HW238744   5.397   3.305   7.301 -0.0698  2.0195  0.3025
12602SOL     OW38745   1.110   2.378   0.404  0.8045  0.0053 -0.1251
12602SOL    HW138746   1.015   2.374   0.391  0.8379 -0.5011 -0.2368
12602SOL    HW238747   1.147   2.359   0.318  1.0155 -2.4173  0.4314
12603SOL     OW38748   5.202   6.572   3.935  0.1788  0.4057 -0.0232
12603SOL    HW138749   5.286   6.541   3.900  0.6208  1.0603  0.4322
12603SOL    HW238750   5.204   6.667   3.923 -0.9904  0.3245 -1.0475
12604SOL     OW38751   4.502   1.055   7.119 -0.2514  0.2491  0.2826
12604SOL    HW138752   4.432   1.083   7.060  0.1938 -1.0590 -0.9193
12604SOL    HW238753   4.520   0.964   7.094  2.1073  0.6432  0.3046
12605SOL     OW38754   0.278   6.134   3.389 -0.5615 -0.0032  0.0288
12605SOL    HW138755   0.267   6.096   3.476  0.2713  0.9428  0.5728
12605SOL    HW238756   0.197   6.113   3.343 -0.5711 -1.4492  0.6654
12606SOL     OW38757   2.674   6.776   4.851 -0.1621  0.2093 -0.3094
12606SOL    HW138758   2.655   6.684   4.832  0.5784 -0.3631  1.5816
12606SOL    HW238759   2.752   6.796   4.799  0.8411 -0.8268  0.7538
12607SOL     OW38760   5.577   7.329   2.212 -0.8538  0.6770 -0.5387
12607SOL    HW138761   5.597   7.244   2.174 -0.8460  0.3761  0.1262
12607SOL    HW238762   5.658   7.379   2.203 -1.1451  0.9536 -1.8029
12608SOL     OW38763   5.752   3.801   1.426 -0.4120  0.5139  0.3625
12608SOL    HW138764   5.756   3.730   1.490 -0.5820 -0.3950 -0.6010
12608SOL    HW238765   5.824   3.781   1.365 -0.6999  0.9604 -0.1254
12609SOL     OW38766   2.576   1.344   5.617 -0.3861  0.1646 -0.0292
12609SOL    HW138767   2.526   1.339   5.535 -0.7678  0.2884  0.1915
12609SOL    HW238768   2.636   1.417   5.604  0.3983 -0.5803 -0.6513
12610SOL     OW38769   6.046   4.821   7.260 -0.4199 -0.0066 -0.7161
12610SOL    HW138770   6.120   4.802   7.202 -1.8130 -1.1168 -2.2435
12610SOL    HW238771   6.059   4.765   7.336  0.2173 -0.3349 -1.0597
12611SOL     OW38772   6.326   1.095   4.247 -0.4408  0.7207 -0.1796
12611SOL    HW138773   6.287   1.104   4.159  1.3568 -0.0942 -1.1028
12611SOL    HW238774   6.420   1.103   4.232  0.0191 -1.2178  1.4202
12612SOL     OW38775   6.198   2.137   6.732 -0.5435 -0.2295  0.3894
12612SOL    HW138776   6.236   2.077   6.667 -1.9207  1.2847 -1.9430
12612SOL    HW238777   6.264   2.206   6.742 -1.0820  0.5257 -0.9360
12613SOL     OW38778   3.190   5.981   0.308 -0.4868 -0.0877 -0.2633
12613SOL    HW138779   3.235   6.056   0.348 -2.6976  0.7961  0.7535
12613SOL    HW238780   3.195   5.997   0.214 -0.5726  1.1390 -0.0746
12614SOL     OW38781   2.871   5.564   4.968 -0.2868 -0.3294 -0.7549
12614SOL    HW138782   2.887   5.579   4.875 -2.2393 -0.8987 -1.2228
12614SOL    HW238783   2.944   5.609   5.012  1.0578 -0.6251 -2.5475
12615SOL     OW38784   2.285   1.900   2.555 -0.4906 -0.3166  0.4214
12615SOL    HW138785   2.347   1.843   2.599 -2.6003 -1.0807  2.6358
12615SOL    HW238786   2.282   1.979   2.609 -0.3059  0.3690 -0.5509
12616SOL     OW38787   5.680   5.351   4.818 -0.2210 -0.5382 -0.2429
12616SOL    HW138788   5.711   5.427   4.866  0.3179 -0.5362 -0.5766
12616SOL    HW238789   5.705   5.368   4.727 -0.1458 -1.0774 -0.3309
12617SOL     OW38790   5.611   3.242   4.387 -0.0472 -0.3759  0.5247
12617SOL    HW138791   5.704   3.241   4.412  0.4445 -0.3025 -1.1392
12617SOL    HW238792   5.574   3.313   4.439  1.7414  2.2766 -1.5132
12618SOL     OW38793   3.128   3.070   2.555 -0.2323  0.3733  0.6576
12618SOL    HW138794   3.146   2.991   2.606  0.3157  0.0917  0.0271
12618SOL    HW238795   3.046   3.104   2.592 -0.6673 -0.6859  0.6885
12619SOL     OW38796   1.312   0.092   4.926 -0.5172 -0.2197  0.2130
12619SOL    HW138797   1.337   0.132   4.843  0.0336 -0.1546  0.4047
12619SOL    HW238798   1.295   0.000   4.904 -0.6805 -0.1330 -0.0250
12620SOL     OW38799   7.009   5.417   3.870 -0.2122  0.1399  0.1037
12620SOL    HW138800   7.057   5.451   3.946 -1.0003  0.7279  0.3478
12620SOL    HW238801   7.072   5.361   3.825  0.1351 -0.6013  1.4553
12621SOL     OW38802   1.536   4.152   6.270  0.0002  0.2285  0.3771
12621SOL    HW138803   1.483   4.215   6.320  0.5565  1.4499 -0.5202
12621SOL    HW238804   1.563   4.087   6.335 -1.8644  0.0398  1.0329
12622SOL     OW38805   6.846   5.902   0.945 -0.7494  0.3164  0.1801
12622SOL    HW138806   6.807   5.815   0.936  1.7534 -1.1038  1.7488
12622SOL    HW238807   6.873   5.907   1.037 -0.1409  2.4541 -0.0472
12623SOL     OW38808   1.957   6.868   2.876  0.4717 -0.2940 -0.1400
12623SOL    HW138809   1.902   6.935   2.835 -1.7066 -0.8791  1.6460
12623SOL    HW238810   1.922   6.859   2.964  1.7539 -2.6357  0.1999
12624SOL     OW38811   6.067   1.766   6.916 -0.4027 -0.4324 -0.0722
12624SOL    HW138812   6.029   1.712   6.847  1.2090 -1.9092  0.1199
12624SOL    HW238813   6.114   1.703   6.972 -0.2477  0.9319  1.3887
12625SOL     OW38814   6.609   1.835   6.288 -0.0692 -0.5794  0.0736
12625SOL    HW138815   6.651   1.876   6.213 -0.5610 -1.1225 -0.5127
12625SOL    HW238816   6.516   1.832   6.264 -0.1174 -1.5042  0.3499
12626SOL     OW38817   1.540   6.150   1.058  0.5049  0.4707  0.4084
12626SOL    HW138818   1.606   6.083   1.078  2.4303  2.0846 -0.1670
12626SOL    HW238819   1.570   6.228   1.105 -2.3952  0.6739  2.1505
12627SOL     OW38820   6.665   3.071   0.423 -0.2851 -0.0317  0.3854
12627SOL    HW138821   6.674   3.156   0.379  0.2437 -0.1163  0.3265
12627SOL    HW238822   6.722   3.078   0.500 -1.2676  0.1479  1.1187
12628SOL     OW38823   1.959   1.377   5.770 -0.4401 -0.5015 -0.6320
12628SOL    HW138824   1.963   1.434   5.693 -0.6805 -0.5608 -0.6930
12628SOL    HW238825   1.923   1.432   5.839 -0.9884 -0.6631 -0.7792
12629SOL     OW38826   3.938   4.466   3.546  0.1023 -0.1123  0.0322
12629SOL    HW138827   4.031   4.480   3.524 -0.5414  0.7668 -2.4564
12629SOL    HW238828   3.890   4.517   3.480 -2.1612  0.0460  1.7082
12630SOL     OW38829   3.757   6.330   1.327  0.1198 -0.4097  0.1334
12630SOL    HW138830   3.795   6.248   1.297  0.1261 -0.1312 -0.6459
12630SOL    HW238831   3.820   6.364   1.390  0.6503 -0.4766 -0.3511
12631SOL     OW38832   5.562   5.214   1.700 -0.0077 -0.2715 -1.3234
12631SOL    HW138833   5.597   5.296   1.735 -2.1980  1.0001 -1.9227
12631SOL    HW238834   5.585   5.216   1.607  0.2267 -0.5177 -1.2726
12632SOL     OW38835   1.539   4.313   1.484 -0.0021 -0.1224 -0.2316
12632SOL    HW138836   1.515   4.348   1.398  0.7089 -0.3377 -0.5194
12632SOL    HW238837   1.587   4.384   1.526  0.5647 -0.3815 -0.4269
12633SOL     OW38838   3.119   6.586   4.394  0.3668 -0.2226  0.8187
12633SOL    HW138839   3.046   6.528   4.373 -1.2130  0.9042  2.8169
12633SOL    HW238840   3.104   6.612   4.485  2.4582  1.2428  0.8289
12634SOL     OW38841   3.713   2.904   0.584 -0.2485  0.1520  0.6776
12634SOL    HW138842   3.632   2.863   0.553  0.4563  0.1611 -1.3722
12634SOL    HW238843   3.752   2.942   0.505  0.4973  2.3978  2.0559
12635SOL     OW38844   0.367   5.805   1.979 -0.0640 -0.0268  0.9491
12635SOL    HW138845   0.286   5.831   1.936  0.5767 -1.8105 -1.5892
12635SOL    HW238846   0.349   5.717   2.013  0.1754  0.4223  2.2771
12636SOL     OW38847   3.579   6.346   0.791  0.2138  0.3293 -0.6313
12636SOL    HW138848   3.577   6.289   0.868  0.3581 -0.8410 -1.4635
12636SOL    HW238849   3.634   6.299   0.728 -0.6801  0.7947 -1.7978
12637SOL     OW38850   3.231   6.002   6.142  0.3820 -0.1666  0.0147
12637SOL    HW138851   3.205   5.962   6.225  1.4380 -1.2827 -0.1565
12637SOL    HW238852   3.326   6.015   6.151  0.4068  0.2629 -0.7815
12638SOL     OW38853   0.343   7.166   0.087 -0.4660 -0.1060 -0.0465
12638SOL    HW138854   0.392   7.217   0.023 -1.3418  1.3905  0.4081
12638SOL    HW238855   0.354   7.075   0.060 -0.0384  0.4166 -1.7585
12639SOL     OW38856   6.221   6.369   0.214 -0.4531 -0.8311 -0.2356
12639SOL    HW138857   6.165   6.292   0.216 -0.8112 -0.7166 -2.5396
12639SOL    HW238858   6.271   6.360   0.132  1.7737 -0.1315  0.9555
12640SOL     OW38859   5.920   6.736   2.735  0.1046  0.2476  0.4413
12640SOL    HW138860   5.888   6.822   2.761  1.0996  0.7891 -0.0796
12640SOL    HW238861   5.930   6.741   2.640 -3.1608 -1.5881 -0.1662
12641SOL     OW38862   4.878   0.834   3.082 -0.2290  0.0999 -0.0245
12641SOL    HW138863   4.788   0.862   3.064 -0.3477 -1.2424 -1.7976
12641SOL    HW238864   4.873   0.786   3.165 -1.0348  0.4860  0.1606
12642SOL     OW38865   2.346   6.693   2.057 -0.3123 -0.0027  0.0961
12642SOL    HW138866   2.437   6.670   2.078 -0.4966 -0.3323  0.5568
12642SOL    HW238867   2.306   6.711   2.142 -0.6031  0.4384 -0.1307
12643SOL     OW38868   0.860   0.508   6.231 -0.2671 -0.1129 -0.2719
12643SOL    HW138869   0.839   0.601   6.220 -1.9896 -0.6783 -2.4434
12643SOL    HW238870   0.915   0.487   6.156 -0.9491 -1.1076 -0.5170
12644SOL     OW38871   0.828   4.875   3.593 -0.1621  0.5864  0.4537
12644SOL    HW138872   0.790   4.905   3.675  0.2564  0.8804  0.5404
12644SOL    HW238873   0.869   4.791   3.615 -2.1640 -0.5601 -0.0000
12645SOL     OW38874   4.597   2.431   2.258  0.7771 -0.1368  0.2694
12645SOL    HW138875   4.554   2.455   2.340  0.1126  0.5690 -0.2685
12645SOL    HW238876   4.688   2.418   2.282  1.0657  2.2799  0.7498
12646SOL     OW38877   0.474   4.463   3.018 -0.2232  0.3833  0.3682
12646SOL    HW138878   0.379   4.472   3.014 -0.3940 -1.4306 -2.1638
12646SOL    HW238879   0.489   4.369   3.011  1.7827  0.5996  1.1196
12647SOL     OW38880   6.294   5.990   6.509 -0.4146 -0.1449  0.4784
12647SOL    HW138881   6.288   6.086   6.506 -0.0551 -0.1319 -0.1494
12647SOL    HW238882   6.235   5.961   6.439  0.7707 -0.3039 -0.4919
12648SOL     OW38883   6.228   5.948   1.307 -0.1227  0.2003 -0.1576
12648SOL    HW138884   6.271   6.015   1.361  0.0092  0.1056 -0.1437
12648SOL    HW238885   6.156   5.917   1.362  0.7965 -0.8239  0.5151
12649SOL     OW38886   0.609   3.356   1.386  0.3221 -0.4704 -0.4404
12649SOL    HW138887   0.526   3.363   1.339  0.8687  1.9739 -1.1962
12649SOL    HW238888   0.610   3.267   1.420  0.0552 -2.6414 -5.3680
12650SOL     OW38889   5.450   6.463   3.831  0.2259 -0.0629  0.3040
12650SOL    HW138890   5.515   6.534   3.839 -0.0082  0.8914 -3.9994
12650SOL    HW238891   5.477   6.414   3.754 -0.8087 -3.5843  1.9443
12651SOL     OW38892   3.325   3.969   4.003 -0.0653  0.2056 -0.4863
12651SOL    HW138893   3.249   3.942   4.055  0.3943 -1.8869 -0.8193
12651SOL    HW238894   3.398   3.918   4.038  0.9745  1.2817 -0.9771
12652SOL     OW38895   0.325   5.245   2.382 -0.1007 -0.8104 -0.1618
12652SOL    HW138896   0.370   5.167   2.349 -1.6999 -1.7153 -0.2937
12652SOL    HW238897   0.275   5.277   2.306  0.3044  0.1871 -0.0258
12653SOL     OW38898   3.074   3.427   0.720 -0.0592  0.1065  0.4350
12653SOL    HW138899   3.055   3.518   0.740 -0.5087  0.1443 -0.1569
12653SOL    HW238900   3.000   3.397   0.668 -0.3758 -0.8574  1.3791
12654SOL     OW38901   0.102   7.121   4.591 -0.2107 -0.0987 -0.1678
12654SOL    HW138902   0.123   7.065   4.665  0.7922 -0.4474 -0.7023
12654SOL    HW238903   0.088   7.207   4.629 -1.4081 -0.6194  0.6171
12655SOL     OW38904   0.209   0.326   5.321 -0.5504 -0.0893  0.0626
12655SOL    HW138905   0.296   0.321   5.282 -0.9216 -0.4801 -0.7424
12655SOL    HW238906   0.216   0.394   5.387  0.5710 -0.6543  0.5467
12656SOL     OW38907   0.970   0.818   0.641  0.3074  0.0710  0.0409
12656SOL    HW138908   0.983   0.853   0.553  0.7397 -0.1913 -0.0020
12656SOL    HW238909   0.977   0.895   0.698  2.6441 -0.1038  0.0738
12657SOL     OW38910   4.413   1.620   7.239  1.0428  0.3952 -0.0520
12657SOL    HW138911   4.448   1.689   7.294  0.5704  0.4752  0.1557
12657SOL    HW238912   4.318   1.622   7.254  0.7834  1.0408 -1.5833
12658SOL     OW38913   5.374   1.176   5.949 -0.3101 -0.8241 -0.3259
12658SOL    HW138914   5.309   1.157   5.881 -0.9566  0.2392 -0.0390
12658SOL    HW238915   5.443   1.112   5.936 -1.0568 -1.4783 -1.1452
12659SOL     OW38916   6.671   4.398   2.776 -0.6817  0.0479 -0.4195
12659SOL    HW138917   6.662   4.488   2.744 -0.4980  0.1448 -0.2010
12659SOL    HW238918   6.723   4.353   2.709 -0.8385  0.0847 -0.5662
12660SOL     OW38919   1.685   6.994   6.738  0.1328  0.3147 -0.4660
12660SOL    HW138920   1.748   7.052   6.695 -0.9018  0.7307 -1.4803
12660SOL    HW238921   1.607   7.048   6.750  0.3876  0.2497  2.0814
12661SOL     OW38922   6.719   5.610   4.970 -0.7748  0.2211  0.5495
12661SOL    HW138923   6.710   5.619   5.065 -0.0595  0.5800  0.5936
12661SOL    HW238924   6.739   5.699   4.940  1.2337 -0.2606  0.3460
12662SOL     OW38925   4.065   1.532   5.970  0.4115  0.2002  0.2951
12662SOL    HW138926   4.094   1.565   6.055  1.1803 -1.4635  0.7194
12662SOL    HW238927   4.049   1.439   5.985  1.1609 -0.2649 -1.5187
12663SOL     OW38928   4.611   2.254   3.947 -0.5513  0.3341  0.0051
12663SOL    HW138929   4.707   2.252   3.944 -0.4147  1.9568  1.3819
12663SOL    HW238930   4.591   2.326   4.006 -2.6646  1.7724 -2.2592
12664SOL     OW38931   4.594   4.139   4.654  0.1704  0.2547  0.4894
12664SOL    HW138932   4.641   4.163   4.734  0.9627 -0.3029  0.1922
12664SOL    HW238933   4.600   4.217   4.599  1.0745  0.0673  0.3069
12665SOL     OW38934   1.719   6.960   1.301  0.2720  0.0561 -0.1794
12665SOL    HW138935   1.789   7.004   1.350 -0.5625  0.3348  0.7917
12665SOL    HW238936   1.711   6.874   1.343 -0.9173  0.5551  0.6618
12666SOL     OW38937   6.543   5.623   6.054 -0.3302 -0.4389  0.0514
12666SOL    HW138938   6.489   5.625   5.975 -1.5018 -0.4096  0.8232
12666SOL    HW238939   6.561   5.716   6.073  0.7243 -0.4725 -0.6563
12667SOL     OW38940   0.345   3.470   5.540  0.0316  0.0972 -0.0125
12667SOL    HW138941   0.394   3.447   5.461  0.3618 -0.1255  0.2574
12667SOL    HW238942   0.319   3.386   5.577  2.0949  0.0648  1.5246
12668SOL     OW38943   3.029   1.578   4.147  0.6370 -0.1810 -0.1141
12668SOL    HW138944   3.105   1.544   4.100 -0.7922 -0.5554 -2.3510
12668SOL    HW238945   2.974   1.501   4.161 -0.0332  0.3154  0.0079
12669SOL     OW38946   1.368   0.309   0.635 -0.2429 -0.7660 -0.2006
12669SOL    HW138947   1.436   0.360   0.590 -0.8271 -0.3881 -0.6732
12669SOL    HW238948   1.342   0.365   0.708  1.1092 -1.6247  0.9820
12670SOL     OW38949   6.007   0.138   5.430 -0.3428  0.6243  0.1258
12670SOL    HW138950   6.037   0.078   5.362 -2.3938 -1.1125  0.6576
12670SOL    HW238951   5.966   0.210   5.382  1.4463  1.2836 -0.4998
12671SOL     OW38952   2.881   4.354   2.376  0.3489  0.2847  0.2849
12671SOL    HW138953   2.876   4.337   2.470 -1.6997 -1.1426 -0.0022
12671SOL    HW238954   2.968   4.323   2.351  0.8604  0.5297  1.6722
12672SOL     OW38955   5.275   4.210   4.552  0.0391 -0.0821 -0.2745
12672SOL    HW138956   5.315   4.221   4.639 -0.9089 -1.8702  0.4448
12672SOL    HW238957   5.258   4.299   4.522  2.6230  0.6975  0.2648
12673SOL     OW38958   1.502   0.543   2.908 -0.0701 -0.8175 -0.2613
12673SOL    HW138959   1.455   0.518   2.828 -0.4464 -1.7990  0.2475
12673SOL    HW238960   1.521   0.460   2.952  1.6760 -0.3983 -0.1774
12674SOL     OW38961   2.249   0.432   4.174 -0.0261 -0.8685  0.4842
12674SOL    HW138962   2.179   0.493   4.198 -0.6044 -2.1058  2.1391
12674SOL    HW238963   2.310   0.436   4.248  2.3271  1.0246 -1.4098
12675SOL     OW38964   7.197   1.315   2.374 -0.2349 -0.0817 -0.2086
12675SOL    HW138965   7.168   1.385   2.316  0.9267 -0.2799 -1.0757
12675SOL    HW238966   7.167   1.341   2.461  0.3979  1.6408 -0.4674
12676SOL     OW38967   1.846   5.005   3.330  0.1562  0.3550  0.8491
12676SOL    HW138968   1.927   5.054   3.314 -0.2715  0.9126  0.3562
12676SOL    HW238969   1.780   5.073   3.346  0.2615 -0.0973  3.8383
12677SOL     OW38970   7.317   6.754   5.697  0.2579  0.8774 -0.1271
12677SOL    HW138971   7.305   6.827   5.757  0.2519  0.7857 -0.0165
12677SOL    HW238972   7.246   6.764   5.634 -0.5394  0.2337  0.6372
12678SOL     OW38973   6.373   0.732   0.165  0.1933  0.4448 -0.5954
12678SOL    HW138974   6.462   0.696   0.168 -0.0401 -0.2145 -1.3585
12678SOL    HW238975   6.350   0.746   0.257  0.2110 -1.5590 -0.2364
12679SOL     OW38976   3.385   0.412   0.541 -0.2374 -0.4593 -0.3428
12679SOL    HW138977   3.433   0.454   0.613 -0.3610 -0.7914 -0.0604
12679SOL    HW238978   3.411   0.320   0.545 -0.5661 -0.5613 -0.4528
12680SOL     OW38979   5.284   0.957   7.043  0.1096  0.2395 -1.0034
12680SOL    HW138980   5.235   0.878   7.067 -0.9828  0.9005 -0.9915
12680SOL    HW238981   5.273   0.963   6.948  2.5212 -1.1134 -1.4662
12681SOL     OW38982   7.157   3.268   0.814 -0.2722 -0.3152  0.5782
12681SOL    HW138983   7.125   3.237   0.899 -3.4315  0.9912 -0.0147
12681SOL    HW238984   7.097   3.229   0.751  0.9347  0.1963 -0.9362
12682SOL     OW38985   0.118   5.103   0.384 -0.3013  0.1758  0.1584
12682SOL    HW138986   0.098   5.064   0.299  1.1723 -1.1175  0.3557
12682SOL    HW238987   0.047   5.072   0.442  0.1714 -1.2569  0.0166
12683SOL     OW38988   5.728   4.271   0.484  0.0874  0.2817 -0.4423
12683SOL    HW138989   5.764   4.183   0.489  0.6730  0.4533 -1.3603
12683SOL    HW238990   5.797   4.326   0.523  0.4819  0.5218 -1.4619
12684SOL     OW38991   4.965   3.036   0.455  0.2148 -0.0160  0.4567
12684SOL    HW138992   4.908   3.070   0.386  1.5768 -1.8920 -1.7310
12684SOL    HW238993   4.910   3.037   0.534 -1.6881  1.4196 -0.7820
12685SOL     OW38994   1.324   3.652   0.031 -0.1686  0.1594 -0.2459
12685SOL    HW138995   1.338   3.563   0.063  1.6854  0.9601  1.4023
12685SOL    HW238996   1.372   3.656  -0.052 -0.2053 -0.3550 -0.2939
12686SOL     OW38997   5.402   4.746   3.519 -0.0869 -1.0231  0.1758
12686SOL    HW138998   5.335   4.742   3.587  1.2450 -0.2438  1.5902
12686SOL    HW238999   5.359   4.710   3.441 -3.1855  2.1420  0.1498
12687SOL     OW39000   1.533   0.128   1.665 -0.0588  0.1206 -0.2095
12687SOL    HW139001   1.487   0.210   1.648 -0.8877  0.2302  2.1805
12687SOL    HW239002   1.620   0.141   1.629 -0.9282  1.0827 -2.0758
12688SOL     OW39003   0.113   4.238   0.467 -0.4640 -0.0060 -0.8017
12688SOL    HW139004   0.125   4.163   0.525 -1.0351  0.0965 -0.5421
12688SOL    HW239005   0.079   4.307   0.525 -0.0445  0.4201 -1.0544
12689SOL     OW39006   3.881   1.472   4.310 -0.4415  0.6583 -0.1187
12689SOL    HW139007   3.904   1.557   4.273  2.9122  0.2731  0.7092
12689SOL    HW239008   3.943   1.461   4.382 -2.7276 -1.2435  1.7176
12690SOL     OW39009   0.990   6.069   0.023  0.4114  0.5974 -0.4035
12690SOL    HW139010   1.021   6.036  -0.061 -0.7832 -0.5299 -0.4367
12690SOL    HW239011   1.069   6.070   0.078  1.0784  0.7073 -1.3293
12691SOL     OW39012   0.211   6.035   3.016  0.2217 -1.0770 -0.1928
12691SOL    HW139013   0.173   6.123   3.012 -0.5544 -1.4162 -0.3243
12691SOL    HW239014   0.173   5.989   2.941 -0.5222 -1.9722  0.7129
12692SOL     OW39015   5.708   4.724   1.787  0.1522  0.6060 -0.2522
12692SOL    HW139016   5.696   4.818   1.803 -0.5359  0.4746 -0.0036
12692SOL    HW239017   5.625   4.684   1.811  0.4940 -0.0932 -0.2123
12693SOL     OW39018   5.653   5.564   5.682 -0.1148  0.5099  0.0111
12693SOL    HW139019   5.671   5.656   5.663  0.8547  0.3948  0.3222
12693SOL    HW239020   5.705   5.545   5.760  1.4652 -0.8744 -1.2908
12694SOL     OW39021   2.203   2.200   4.419 -0.4763  0.4308 -0.3697
12694SOL    HW139022   2.191   2.246   4.336  0.0322  1.5908  0.1671
12694SOL    HW239023   2.197   2.108   4.396  1.3011  0.6479 -1.9992
12695SOL     OW39024   1.573   0.109   5.903  0.4196 -0.2798  0.2770
12695SOL    HW139025   1.661   0.071   5.903  0.1686 -0.8630  0.1741
12695SOL    HW239026   1.517   0.041   5.867  0.0651  0.4216 -0.5505
12696SOL     OW39027   1.497   2.304   7.023  0.0121  0.4842 -0.0052
12696SOL    HW139028   1.484   2.323   6.930 -0.3291  0.3179  0.0046
12696SOL    HW239029   1.431   2.238   7.043  0.3518  0.2189  0.2590
12697SOL     OW39030   2.996   1.384   5.574 -0.0038 -0.4409  0.1368
12697SOL    HW139031   3.051   1.306   5.579 -0.2269 -0.6799 -0.9337
12697SOL    HW239032   3.056   1.455   5.553  0.0043 -0.5740 -0.2972
12698SOL     OW39033   7.360   4.095   7.343 -0.1774 -0.0034 -0.1051
12698SOL    HW139034   7.324   4.029   7.402  2.4344 -1.2977  0.1702
12698SOL    HW239035   7.351   4.056   7.256  1.2269 -0.7385  0.0443
12699SOL     OW39036   2.042   7.283   0.965 -0.3594 -0.2336 -0.1696
12699SOL    HW139037   2.003   7.366   0.938 -0.8484 -0.9101 -1.6769
12699SOL    HW239038   2.130   7.306   0.994  0.1722  0.6292 -2.2346
12700SOL     OW39039   7.379   0.782   2.074 -0.1341 -0.1477 -0.0676
12700SOL    HW139040   7.334   0.727   2.139  1.0995 -2.9954 -1.4801
12700SOL    HW239041   7.397   0.864   2.121 -1.8118 -1.0007  2.2528
12701SOL     OW39042   7.238   3.737   2.726  0.7368 -0.3900  0.0738
12701SOL    HW139043   7.151   3.711   2.755  1.5489 -1.0247  2.0965
12701SOL    HW239044   7.274   3.788   2.799  0.6308  3.4178 -2.2462
12702SOL     OW39045   1.434   2.581   7.012 -0.1022 -0.0084 -0.2838
12702SOL    HW139046   1.360   2.630   7.048  1.7996  1.6513  1.6660
12702SOL    HW239047   1.419   2.491   7.040 -1.0612  0.4104  0.6371
12703SOL     OW39048   1.622   2.890   6.043  0.1364 -0.2433  0.5400
12703SOL    HW139049   1.700   2.941   6.064  0.9423 -0.6383 -1.2841
12703SOL    HW239050   1.603   2.840   6.122  1.1254  0.6208  1.3488
12704SOL     OW39051   1.254   2.773   4.008  0.1360  0.4706 -0.2946
12704SOL    HW139052   1.199   2.713   4.057 -0.1928 -1.1971 -2.5386
12704SOL    HW239053   1.223   2.860   4.031  0.1622 -0.1888  2.5303
12705SOL     OW39054   3.174   7.314   3.573  0.1775  0.1028 -0.1144
12705SOL    HW139055   3.096   7.366   3.592 -2.5187 -3.0501 -1.5028
12705SOL    HW239056   3.223   7.311   3.655  0.3303  4.3072  0.1172
12706SOL     OW39057   5.447   1.920   4.949 -0.2259  0.1476 -0.2944
12706SOL    HW139058   5.427   1.841   4.899  0.3414 -1.0042  1.2309
12706SOL    HW239059   5.453   1.891   5.040 -0.7889  2.0927  0.4317
12707SOL     OW39060   1.140   2.442   3.281  0.1786 -0.5809  0.9491
12707SOL    HW139061   1.173   2.472   3.366 -1.0867 -1.4589  1.7971
12707SOL    HW239062   1.204   2.474   3.217  1.6758 -0.7124  2.3204
12708SOL     OW39063   4.903   4.422   7.199  0.7137 -0.1705  0.3384
12708SOL    HW139064   4.882   4.334   7.168 -1.8752  0.0389  1.2366
12708SOL    HW239065   4.907   4.476   7.120  0.0267 -0.7009 -0.0699
12709SOL     OW39066   5.773   4.988   0.866 -0.2523  0.0500 -0.4342
12709SOL    HW139067   5.719   4.957   0.792 -1.0275  0.5787 -0.1035
12709SOL    HW239068   5.823   5.061   0.830 -1.4226  1.0080 -0.1907
12710SOL     OW39069   7.270   2.880   6.854 -0.1065 -0.4658 -0.3065
12710SOL    HW139070   7.311   2.948   6.801 -1.6312  0.3937 -0.4552
12710SOL    HW239071   7.248   2.923   6.936 -0.9081 -0.8123 -0.3225
12711SOL     OW39072   6.189   2.564   1.431  0.3433  0.5494 -0.1153
12711SOL    HW139073   6.221   2.606   1.511  0.8697  0.4055 -0.2446
12711SOL    HW239074   6.135   2.631   1.389  0.8633  0.9743 -0.1260
12712SOL     OW39075   3.981   0.761   6.963  0.1391 -0.5434  0.5486
12712SOL    HW139076   3.909   0.700   6.951 -0.3776 -0.3152  2.2799
12712SOL    HW239077   3.988   0.773   7.057  0.3177  1.9571  0.2870
12713SOL     OW39078   5.306   3.913   0.672 -0.2316  0.1978  0.3049
12713SOL    HW139079   5.366   3.866   0.728 -0.9416 -1.3709 -0.1997
12713SOL    HW239080   5.317   4.005   0.697  0.6625 -0.2850  1.8202
12714SOL     OW39081   1.302   5.827   0.022  0.5436 -0.6524  0.4467
12714SOL    HW139082   1.318   5.841   0.115  1.6462 -3.7944  0.8489
12714SOL    HW239083   1.385   5.851  -0.020  0.7627 -1.2255  0.5441
12715SOL     OW39084   5.542   0.451   6.854 -0.0614  0.3019  0.0870
12715SOL    HW139085   5.493   0.420   6.778 -0.1375 -1.4350  0.8089
12715SOL    HW239086   5.609   0.384   6.868  0.4694  1.0204  1.0631
12716SOL     OW39087   4.544   5.547   5.578  0.4324  0.5374 -0.3732
12716SOL    HW139088   4.547   5.579   5.668  2.0688 -0.7237  0.0676
12716SOL    HW239089   4.634   5.519   5.559 -0.4219 -1.7795 -1.4061
12717SOL     OW39090   2.065   0.337   2.392 -0.0786  0.0447  0.0380
12717SOL    HW139091   2.000   0.308   2.456 -3.3991 -1.9399 -3.7809
12717SOL    HW239092   2.138   0.276   2.403 -1.6925 -1.9449  0.2830
12718SOL     OW39093   5.474   1.813   5.192 -0.4301 -0.4774  0.8589
12718SOL    HW139094   5.410   1.800   5.262  0.4134  0.0980  1.7692
12718SOL    HW239095   5.557   1.784   5.230  0.8425  3.5921  1.6321
12719SOL     OW39096   1.518   3.792   4.012 -0.0939  0.7197 -0.7488
12719SOL    HW139097   1.433   3.837   4.008 -0.4615  0.0399 -0.7652
12719SOL    HW239098   1.539   3.774   3.921 -0.1063  0.5571 -0.7182
12720SOL     OW39099   6.362   7.027   3.389  0.0533  0.1473  0.1052
12720SOL    HW139100   6.400   6.959   3.445  1.1106 -0.4428 -1.2675
12720SOL    HW239101   6.428   7.096   3.386 -0.7216  0.9596  0.9180
12721SOL     OW39102   0.345   3.486   1.243  0.2528 -0.4609 -0.1925
12721SOL    HW139103   0.392   3.558   1.285 -0.0660  0.1502 -0.8610
12721SOL    HW239104   0.288   3.450   1.312 -1.4807  1.5725 -0.4780
12722SOL     OW39105   6.070   6.744   5.058  0.2913  0.7351 -0.1126
12722SOL    HW139106   5.987   6.713   5.022  0.0399  1.4010 -0.1188
12722SOL    HW239107   6.058   6.838   5.069  0.5333  0.6308  1.2235
12723SOL     OW39108   1.042   6.938   6.731 -0.0725 -0.1174 -0.0215
12723SOL    HW139109   1.098   7.016   6.724  0.0557 -0.2533 -0.5074
12723SOL    HW239110   1.037   6.922   6.826  0.3809  0.1342  0.0507
12724SOL     OW39111   4.806   3.413   5.945  0.2820 -0.4575 -0.0129
12724SOL    HW139112   4.809   3.318   5.929 -1.0388 -0.3928 -0.6996
12724SOL    HW239113   4.760   3.449   5.869 -0.5401  0.5707  0.9538
12725SOL     OW39114   2.640   4.484   4.961  0.2890 -0.3159 -0.4431
12725SOL    HW139115   2.645   4.514   5.052 -0.2342 -1.9331  0.1559
12725SOL    HW239116   2.547   4.485   4.941  0.4088  0.0796 -0.9899
12726SOL     OW39117   5.127   1.682   1.423  0.0095  0.5490 -0.0393
12726SOL    HW139118   5.125   1.594   1.462  1.4014  0.7442  0.5214
12726SOL    HW239119   5.068   1.734   1.478  1.5805  0.7027  1.5908
12727SOL     OW39120   6.528   0.711   6.393 -0.0769 -0.0127  0.7143
12727SOL    HW139121   6.466   0.772   6.433 -1.4638 -1.5228  0.9812
12727SOL    HW239122   6.563   0.661   6.467  0.6017  0.0493  0.4415
12728SOL     OW39123   3.233   7.328   6.332 -0.3054  0.0238  0.3263
12728SOL    HW139124   3.196   7.290   6.252  2.4099  0.3691 -1.2054
12728SOL    HW239125   3.316   7.282   6.345  1.2562  2.7002  0.5903
12729SOL     OW39126   3.384   1.287   0.318  0.4249  0.0898  0.3397
12729SOL    HW139127   3.313   1.229   0.291 -0.8687  1.2101  1.1669
12729SOL    HW239128   3.354   1.374   0.293  0.8956  0.7302  1.8662
12730SOL     OW39129   0.543   4.812   2.871 -0.0592  0.3725 -0.7953
12730SOL    HW139130   0.557   4.786   2.962  1.3958  3.3704 -0.0019
12730SOL    HW239131   0.449   4.830   2.864 -0.2404 -0.2604 -0.0065
12731SOL     OW39132   3.908   5.911   6.587  0.7684 -0.1992  0.5641
12731SOL    HW139133   3.889   5.901   6.494 -0.7239  1.2548  0.6555
12731SOL    HW239134   3.902   5.823   6.623  0.2316 -0.6295 -0.5352
12732SOL     OW39135   5.198   6.291   5.939 -0.1234 -0.8365  0.3159
12732SOL    HW139136   5.218   6.375   5.899  1.5876 -1.9309 -1.2909
12732SOL    HW239137   5.115   6.304   5.984 -0.5004  1.3561 -0.9254
12733SOL     OW39138   2.749   0.675   3.290 -0.1937 -0.2312 -0.1597
12733SOL    HW139139   2.793   0.686   3.374 -1.4070 -1.4623  0.6977
12733SOL    HW239140   2.687   0.747   3.286  1.7850  1.5141 -1.3760
12734SOL     OW39141   3.454   3.560   4.538 -0.1707 -0.1283  0.0349
12734SOL    HW139142   3.379   3.579   4.482 -1.4237 -0.4728  1.5102
12734SOL    HW239143   3.487   3.476   4.508 -1.9206 -1.1625  0.8682
12735SOL     OW39144   1.695   6.575   1.799  0.1612  0.2674 -0.6136
12735SOL    HW139145   1.617   6.590   1.746 -0.1562  0.0356 -0.2227
12735SOL    HW239146   1.767   6.569   1.736  0.1603  2.2708 -0.8712
12736SOL     OW39147   7.192   7.208   1.741 -0.6724 -0.0436 -0.0970
12736SOL    HW139148   7.154   7.296   1.741 -1.5453 -0.3950 -1.2741
12736SOL    HW239149   7.268   7.215   1.798 -1.1587  1.2848  0.4223
12737SOL     OW39150   3.192   6.254   4.290 -0.6213  0.0707  0.3311
12737SOL    HW139151   3.144   6.318   4.238 -0.9354 -1.8019 -1.8557
12737SOL    HW239152   3.284   6.278   4.280 -0.6846 -0.2001 -1.0769
12738SOL     OW39153   1.365   6.837   2.445 -0.5265 -0.4156 -0.0206
12738SOL    HW139154   1.384   6.746   2.466 -0.0482 -0.2757  0.1671
12738SOL    HW239155   1.332   6.874   2.527  1.0981  0.0641  0.4608
12739SOL     OW39156   3.735   6.966   0.264 -0.1927 -0.2617  0.4867
12739SOL    HW139157   3.775   7.052   0.252  1.0638 -0.9646 -0.6161
12739SOL    HW239158   3.724   6.932   0.175 -3.7877  0.0772  0.6784
12740SOL     OW39159   1.109   4.657   2.814 -0.8138 -0.2911 -0.2012
12740SOL    HW139160   1.086   4.745   2.785  2.2243  0.0155 -2.0013
12740SOL    HW239161   1.092   4.601   2.739  0.3622 -0.6732 -0.2062
12741SOL     OW39162   6.782   2.942   3.492  0.1280  0.3990  0.2575
12741SOL    HW139163   6.804   2.882   3.563 -2.0544 -0.2016  0.5093
12741SOL    HW239164   6.791   2.890   3.412  0.5723  0.4517  0.2742
12742SOL     OW39165   4.358   2.752   5.437 -0.0182  0.4114  0.3507
12742SOL    HW139166   4.414   2.688   5.392  0.3336  1.1707 -0.3201
12742SOL    HW239167   4.379   2.835   5.395 -3.0940  0.4645 -1.3859
12743SOL     OW39168   2.200   4.098   1.610  0.2421 -0.7898  0.3330
12743SOL    HW139169   2.268   4.164   1.624 -2.0931  1.7910  0.3582
12743SOL    HW239170   2.177   4.106   1.517  0.2652 -1.9834  0.2026
12744SOL     OW39171   1.427   5.954   0.229 -0.3250 -0.3163  0.3670
12744SOL    HW139172   1.482   5.884   0.192  0.8320  1.5581 -1.7548
12744SOL    HW239173   1.489   6.023   0.252 -1.5420  0.6162  0.9420
12745SOL     OW39174   6.051   5.188   4.198  0.2332 -0.3548  0.1410
12745SOL    HW139175   5.972   5.155   4.156 -0.5566  1.0619  0.4546
12745SOL    HW239176   6.081   5.116   4.253 -0.0198 -1.4086 -1.0518
12746SOL     OW39177   2.996   2.753   2.162 -0.1358  0.1643  0.5044
12746SOL    HW139178   3.000   2.657   2.166 -0.9527  0.0584 -0.7165
12746SOL    HW239179   3.083   2.778   2.130 -0.0402 -0.1898  0.4745
12747SOL     OW39180   0.931   5.491   1.987 -0.7154  0.2991 -0.1433
12747SOL    HW139181   0.902   5.474   2.077  0.1847 -0.2342  0.0533
12747SOL    HW239182   0.856   5.467   1.933 -1.0569  0.0562  0.4267
12748SOL     OW39183   4.177   1.608   3.959  0.5416  0.3931  0.6015
12748SOL    HW139184   4.255   1.594   4.013  0.5788 -0.2782  0.3851
12748SOL    HW239185   4.180   1.700   3.934  0.3818  0.7989  1.9738
12749SOL     OW39186   1.766   6.428   3.471  0.8899 -0.1218 -0.4332
12749SOL    HW139187   1.709   6.368   3.423 -0.2601  0.3037  0.3447
12749SOL    HW239188   1.722   6.513   3.464  1.6600  0.3067 -0.1744
12750SOL     OW39189   5.198   3.513   1.365  0.1278  0.6532  0.6422
12750SOL    HW139190   5.165   3.598   1.339 -2.7183 -0.4493  0.2731
12750SOL    HW239191   5.293   3.524   1.369  0.0747  3.1106 -1.8961
12751SOL     OW39192   2.346   6.281   4.582 -0.7590 -0.4913  0.5851
12751SOL    HW139193   2.376   6.229   4.507 -0.4666  0.8779 -0.2786
12751SOL    HW239194   2.391   6.243   4.657  0.1877 -0.8855 -0.1633
12752SOL     OW39195   7.120   5.655   6.423 -0.2659 -0.2759 -0.7941
12752SOL    HW139196   7.027   5.634   6.433 -0.4178 -0.0518 -1.6442
12752SOL    HW239197   7.166   5.574   6.446 -0.5095  0.3002  2.0905
12753SOL     OW39198   1.873   3.199   7.417 -0.3749 -0.3630 -0.2818
12753SOL    HW139199   1.941   3.208   7.350 -0.0216  1.0138  0.2203
12753SOL    HW239200   1.913   3.143   7.484  0.3346  0.5199  0.0607
12754SOL     OW39201   7.007   6.767   2.436 -0.0767  0.5681 -0.5214
12754SOL    HW139202   6.918   6.792   2.410  0.0151  0.2278 -1.1755
12754SOL    HW239203   7.003   6.761   2.532 -0.9853 -0.2807 -0.5925
12755SOL     OW39204   4.149   0.830   1.684 -0.2856  0.3457 -0.3571
12755SOL    HW139205   4.145   0.925   1.689  0.7490  0.3765 -0.0405
12755SOL    HW239206   4.234   0.807   1.722  0.5078 -0.5447 -2.5136
12756SOL     OW39207   3.167   0.678   4.597 -0.3659  0.3560 -0.1049
12756SOL    HW139208   3.092   0.735   4.615 -0.4401 -0.6784  3.9812
12756SOL    HW239209   3.233   0.736   4.559 -1.4615  2.5433  1.1319
12757SOL     OW39210   5.367   0.501   5.933  0.4725  0.2635 -0.2979
12757SOL    HW139211   5.299   0.563   5.959  0.4274  0.2247 -0.3225
12757SOL    HW239212   5.434   0.509   6.000 -0.5523 -1.3208  0.9964
12758SOL     OW39213   4.886   4.438   2.360 -0.0793  0.0676 -0.0937
12758SOL    HW139214   4.959   4.384   2.331 -0.9250 -0.8123 -0.6464
12758SOL    HW239215   4.886   4.512   2.300 -0.4187 -0.5830 -0.9045
12759SOL     OW39216   4.735   4.617   4.690  0.0358 -0.1212 -0.0793
12759SOL    HW139217   4.657   4.661   4.659 -0.7697 -0.5437  1.2627
12759SOL    HW239218   4.779   4.586   4.611 -1.1954  0.0504 -0.8526
12760SOL     OW39219   6.478   2.016   6.637 -0.1013 -0.0169  0.1309
12760SOL    HW139220   6.407   1.986   6.580 -1.4141 -1.1435  2.2337
12760SOL    HW239221   6.554   1.964   6.609 -1.0880 -1.6314  0.3043
12761SOL     OW39222   0.850   2.148   1.380  0.5494 -0.1765 -0.4130
12761SOL    HW139223   0.847   2.054   1.368  1.1575 -0.2156 -0.2887
12761SOL    HW239224   0.758   2.175   1.384  0.3488 -0.5806 -1.8104
12762SOL     OW39225   0.365   0.292   3.836  0.2448 -0.1050  0.3735
12762SOL    HW139226   0.396   0.242   3.760  1.8789  0.3717  0.6970
12762SOL    HW239227   0.304   0.356   3.799 -0.3102 -0.9898 -0.2981
12763SOL     OW39228   4.532   7.009   1.658 -0.3170 -0.2105  0.0877
12763SOL    HW139229   4.617   6.979   1.628  0.3152 -1.0219  2.4263
12763SOL    HW239230   4.549   7.094   1.698 -0.6469 -0.2401  0.2973
12764SOL     OW39231   1.320   1.815   5.024  0.5115  0.0814 -0.3341
12764SOL    HW139232   1.256   1.861   4.970 -1.0995 -0.1552  1.3010
12764SOL    HW239233   1.297   1.723   5.014 -1.4021  0.1416  2.5530
12765SOL     OW39234   5.560   4.428   3.384  0.6596  0.3094  0.4131
12765SOL    HW139235   5.576   4.446   3.477  0.2743 -4.7160  1.7250
12765SOL    HW239236   5.645   4.400   3.350  0.3583  0.0720 -0.1537
12766SOL     OW39237   5.238   6.528   5.838 -0.6320  0.1271  0.1211
12766SOL    HW139238   5.279   6.594   5.893  1.1162 -1.5486  0.9247
12766SOL    HW239239   5.223   6.572   5.754 -0.6406  1.8626  1.0066
12767SOL     OW39240   0.668   7.216   4.673 -0.1264  0.3255 -0.2470
12767SOL    HW139241   0.753   7.256   4.658 -1.3675  2.9735 -0.9031
12767SOL    HW239242   0.605   7.282   4.644 -2.4195 -1.6913 -0.2086
12768SOL     OW39243   6.247   3.901   1.012  0.4860  0.4022 -0.0916
12768SOL    HW139244   6.308   3.852   0.958  1.4929  2.1339 -0.5982
12768SOL    HW239245   6.298   3.975   1.045 -0.9185  1.0313  0.7726
12769SOL     OW39246   4.615   6.981   2.130  0.6790  0.6475  0.7524
12769SOL    HW139247   4.663   6.951   2.053  0.3226  0.7671  0.4809
12769SOL    HW239248   4.566   6.905   2.160  0.2913  0.7748  0.4561
12770SOL     OW39249   0.231   4.862   5.367  0.1566 -0.2826  0.1909
12770SOL    HW139250   0.302   4.905   5.320  0.0624  0.5336  0.7752
12770SOL    HW239251   0.161   4.927   5.369 -0.2899 -0.7600  0.3822
12771SOL     OW39252   2.660   4.360   2.158 -0.1681  0.2094  0.6436
12771SOL    HW139253   2.717   4.412   2.102  0.3928 -0.4177  0.6248
12771SOL    HW239254   2.717   4.331   2.229 -0.4300 -0.5388  0.5513
12772SOL     OW39255   7.373   0.902   2.342  0.3221 -0.6251  0.2349
12772SOL    HW139256   7.418   0.955   2.408 -0.6280  0.2890  0.1623
12772SOL    HW239257   7.296   0.953   2.317  1.3514 -0.2395 -2.6190
12773SOL     OW39258   2.040   0.407   3.122  0.4230  0.6791  0.1386
12773SOL    HW139259   1.968   0.469   3.117  1.5219  2.0469  0.6054
12773SOL    HW239260   2.078   0.406   3.034  0.8892  1.2942  0.3254
12774SOL     OW39261   0.384   6.167   2.178  0.1244 -0.1503 -0.4437
12774SOL    HW139262   0.396   6.260   2.199  0.0574 -0.1976 -0.1933
12774SOL    HW239263   0.455   6.123   2.225 -0.5283 -0.3460  0.3779
12775SOL     OW39264   6.089   1.471   3.561 -0.4088 -0.2420 -0.0253
12775SOL    HW139265   5.998   1.496   3.578 -0.3123  0.4700 -0.5046
12775SOL    HW239266   6.139   1.517   3.629 -0.3485 -0.1054 -0.1614
12776SOL     OW39267   1.111   1.843   0.137 -0.0395 -0.2879  0.3453
12776SOL    HW139268   1.167   1.767   0.122  0.5001  0.1695  0.0087
12776SOL    HW239269   1.120   1.896   0.058 -0.1372  0.2963  0.7195
12777SOL     OW39270   4.941   0.275   0.095 -0.1989 -0.1196 -0.7721
12777SOL    HW139271   5.022   0.227   0.111  0.1938  0.6400 -0.4165
12777SOL    HW239272   4.906   0.236   0.015 -0.3884 -1.6178  0.0071
12778SOL     OW39273   1.463   1.750   5.666 -0.3598 -0.2907  0.0667
12778SOL    HW139274   1.484   1.790   5.750  0.1478  0.2415 -0.3039
12778SOL    HW239275   1.545   1.753   5.617 -0.6079 -0.7543 -0.3850
12779SOL     OW39276   3.910   1.150   4.336  0.0260  0.1963  0.6687
12779SOL    HW139277   3.834   1.094   4.318  0.1385 -0.3424  1.7737
12779SOL    HW239278   3.906   1.165   4.431 -0.3908  2.6403  0.3326
12780SOL     OW39279   2.028   3.913   1.673  0.2069 -0.2429 -0.0359
12780SOL    HW139280   2.067   4.000   1.679 -0.2244  0.0392 -1.0273
12780SOL    HW239281   2.035   3.877   1.761  1.1543  0.4622  0.1860
12781SOL     OW39282   3.574   3.084   1.607 -0.0320  0.0041 -0.4157
12781SOL    HW139283   3.558   3.176   1.628  0.4407 -0.0878  0.3749
12781SOL    HW239284   3.666   3.080   1.584 -0.2684 -0.1132 -1.4037
12782SOL     OW39285   1.384   5.968   5.296  0.0023 -0.1205 -0.3863
12782SOL    HW139286   1.473   5.957   5.330 -0.1780  0.3598  0.2447
12782SOL    HW239287   1.334   6.003   5.370 -0.4368  0.7473 -1.0750
12783SOL     OW39288   2.438   0.188   0.577  0.0441  0.4185  0.0248
12783SOL    HW139289   2.343   0.180   0.589 -0.1510  3.0975  0.8462
12783SOL    HW239290   2.462   0.110   0.526 -2.1516 -1.7121  1.9417
12784SOL     OW39291   0.522   2.129   4.037  0.4883 -0.5199  0.5470
12784SOL    HW139292   0.555   2.047   4.002  2.4767  0.1654  0.6767
12784SOL    HW239293   0.600   2.174   4.070 -0.0887  2.4541 -1.6780
12785SOL     OW39294   0.941   5.029   0.565 -0.3217  0.1530  0.1118
12785SOL    HW139295   0.955   5.074   0.482  2.1572  0.3670  0.5593
12785SOL    HW239296   0.970   4.939   0.550 -2.3088 -0.5513  0.0955
12786SOL     OW39297   3.330   3.231   6.408  0.0983 -0.0556  0.1680
12786SOL    HW139298   3.336   3.325   6.395  0.8975 -0.0224  0.6492
12786SOL    HW239299   3.237   3.211   6.403 -0.0133  0.6312 -0.7484
12787SOL     OW39300   4.426   2.815   0.360  0.4413 -1.2401 -0.3679
12787SOL    HW139301   4.488   2.816   0.287  0.6638  2.7351 -0.3350
12787SOL    HW239302   4.361   2.881   0.337 -0.4458 -1.0970  2.2589
12788SOL     OW39303   1.245   2.064   1.169  0.1958 -0.2731  0.0639
12788SOL    HW139304   1.336   2.032   1.171  0.9756  1.8226  0.1789
12788SOL    HW239305   1.220   2.070   1.262  0.4081  0.3853  0.0811
12789SOL     OW39306   0.505   7.179   3.879 -0.2451 -0.1737 -0.2819
12789SOL    HW139307   0.538   7.090   3.872  1.2019  0.2674  0.6745
12789SOL    HW239308   0.536   7.210   3.964  0.2772  1.6365 -1.0897
12790SOL     OW39309   6.353   6.453   4.664 -0.7548 -0.2162  0.8729
12790SOL    HW139310   6.370   6.532   4.613 -1.2128  0.3180  1.5424
12790SOL    HW239311   6.421   6.391   4.635  0.7360  0.9964  1.6001
12791SOL     OW39312   5.781   3.606   6.138 -0.2464 -0.1233  0.1602
12791SOL    HW139313   5.791   3.659   6.059  1.7386 -1.4230 -0.5514
12791SOL    HW239314   5.855   3.545   6.135 -1.0085 -1.2472  2.2317
12792SOL     OW39315   1.125   3.836   4.964 -0.5389 -0.2517  0.3634
12792SOL    HW139316   1.047   3.854   4.911 -2.2840 -0.2549  2.7350
12792SOL    HW239317   1.091   3.830   5.053  2.0847 -1.2224  1.3792
12793SOL     OW39318   1.505   2.185   3.926 -0.8800 -0.2406  0.6718
12793SOL    HW139319   1.500   2.117   3.859  0.8960 -1.4357  1.6645
12793SOL    HW239320   1.533   2.139   4.005  1.7707  1.7966  1.0561
12794SOL     OW39321   4.897   2.857   1.321  0.5100  0.2913  0.3630
12794SOL    HW139322   4.855   2.856   1.407  1.5508  0.2443  0.8829
12794SOL    HW239323   4.828   2.830   1.261 -0.5038  1.2818  1.0456
12795SOL     OW39324   6.174   6.004   2.881 -0.0874  0.6043 -0.3360
12795SOL    HW139325   6.259   6.003   2.837 -0.2053  1.8965 -0.6239
12795SOL    HW239326   6.192   5.979   2.971  0.7345  1.6962 -0.1850
12796SOL     OW39327   4.282   0.397   1.432  0.1759  0.0210  0.0282
12796SOL    HW139328   4.213   0.435   1.378 -0.0949 -0.8653 -0.2760
12796SOL    HW239329   4.362   0.411   1.381  0.2823  1.2901  0.5054
12797SOL     OW39330   0.259   6.236   1.186 -0.7605  0.0730  0.3522
12797SOL    HW139331   0.177   6.240   1.138  0.3885  0.0320 -1.7291
12797SOL    HW239332   0.317   6.183   1.130  1.0177  1.0186  1.2137
12798SOL     OW39333   6.517   5.347   2.826  0.2540 -0.0025 -0.4813
12798SOL    HW139334   6.470   5.365   2.745  0.7653 -1.2503 -1.0947
12798SOL    HW239335   6.588   5.288   2.800 -0.6980 -1.9993  1.1286
12799SOL     OW39336   2.942   5.978   6.648  0.0124 -0.6853  0.0813
12799SOL    HW139337   2.861   5.932   6.670  0.1792 -1.2717 -0.4831
12799SOL    HW239338   2.925   6.069   6.670 -1.0142 -0.7022 -0.5636
12800SOL     OW39339   4.499   0.509   2.376 -0.5553 -0.2404  0.0002
12800SOL    HW139340   4.530   0.419   2.391  0.6316  0.1416 -0.0830
12800SOL    HW239341   4.571   0.564   2.405 -0.8708  0.6683 -0.8897
12801SOL     OW39342   0.184   4.435   0.801 -0.5555  0.5379 -0.2908
12801SOL    HW139343   0.221   4.350   0.825  0.6255  0.9044 -0.7599
12801SOL    HW239344   0.109   4.446   0.860  0.6756  0.2273  1.4047
12802SOL     OW39345   5.271   7.128   1.519 -0.5077 -0.0376  0.0884
12802SOL    HW139346   5.176   7.144   1.523 -0.1584  2.3564  0.2923
12802SOL    HW239347   5.308   7.188   1.583  1.2686  0.3334 -1.2024
12803SOL     OW39348   1.784   6.876   4.700  0.0365 -0.1983  0.0286
12803SOL    HW139349   1.753   6.895   4.788  0.2388  1.1739 -0.1653
12803SOL    HW239350   1.845   6.803   4.711  0.6854  0.4759  1.1513
12804SOL     OW39351   6.513   0.712   1.539 -0.1211  0.3156 -0.4773
12804SOL    HW139352   6.472   0.657   1.606 -0.0687  1.6689  0.7127
12804SOL    HW239353   6.465   0.691   1.459 -1.6696  0.2196  0.4234
12805SOL     OW39354   0.761   0.831   3.237  1.1643 -0.2860  0.2501
12805SOL    HW139355   0.797   0.912   3.201  0.7721  0.4103  1.3855
12805SOL    HW239356   0.778   0.836   3.331  2.5432 -2.2630  0.1676
12806SOL     OW39357   3.361   0.145   6.752 -0.8817 -0.4358 -0.2324
12806SOL    HW139358   3.400   0.218   6.801 -1.5257  0.7604 -1.4320
12806SOL    HW239359   3.343   0.079   6.818 -1.6099  1.0777  1.1688
12807SOL     OW39360   6.315   7.422   7.422 -0.6910  0.3085 -0.4876
12807SOL    HW139361   6.353   7.350   7.473 -1.3062  0.4440  0.1805
12807SOL    HW239362   6.239   7.450   7.473  0.1742  2.2008 -0.1129
12808SOL     OW39363   0.232   4.046   2.441  0.2890  0.2391 -0.1666
12808SOL    HW139364   0.307   4.094   2.476  0.2752 -0.0947  0.3207
12808SOL    HW239365   0.219   3.973   2.500  0.2474 -0.3260 -0.8595
12809SOL     OW39366   2.635   1.100   2.983  0.5036 -0.7131  0.1448
12809SOL    HW139367   2.709   1.121   3.040 -0.8462  2.6048  0.8758
12809SOL    HW239368   2.667   1.118   2.894  1.2607 -1.6918  0.1952
12810SOL     OW39369   5.059   3.515   5.723  0.1358 -0.1477  0.0324
12810SOL    HW139370   5.035   3.520   5.816  1.5487  1.6451  0.3325
12810SOL    HW239371   4.994   3.569   5.679  1.0333  1.2452  0.3459
12811SOL     OW39372   6.722   0.628   2.052  0.1721 -0.3929  0.6994
12811SOL    HW139373   6.647   0.688   2.047  0.6369  0.0774 -1.2348
12811SOL    HW239374   6.739   0.620   2.146 -1.7830  0.1167  1.1597
12812SOL     OW39375   3.687   0.555   0.437 -0.4628 -0.1898  0.5211
12812SOL    HW139376   3.715   0.642   0.409 -0.9378  0.0339  0.7448
12812SOL    HW239377   3.621   0.529   0.373 -0.3483 -0.3754  0.4756
12813SOL     OW39378   2.176   4.631   2.494  0.0047  0.5356 -0.0991
12813SOL    HW139379   2.112   4.559   2.487  1.5433 -1.0566  1.3765
12813SOL    HW239380   2.161   4.669   2.580  0.0013  1.2037 -0.3907
12814SOL     OW39381   3.395   0.191   1.126 -0.6177  0.2166 -0.2353
12814SOL    HW139382   3.478   0.194   1.078 -1.1766 -1.7140 -1.4365
12814SOL    HW239383   3.395   0.270   1.179  1.3406  0.9876 -1.2901
12815SOL     OW39384   0.890   4.782   1.898 -0.0150 -0.1434  0.5765
12815SOL    HW139385   0.929   4.869   1.904 -0.7896  0.1719  1.2963
12815SOL    HW239386   0.813   4.787   1.954 -0.0440 -1.3126  0.6579
12816SOL     OW39387   2.992   1.480   3.818  0.5870 -0.1965  0.2300
12816SOL    HW139388   2.927   1.440   3.760 -0.1939 -0.5447  1.3057
12816SOL    HW239389   2.950   1.560   3.850  0.7731 -0.3054  0.7556
12817SOL     OW39390   6.829   4.695   6.665 -0.0403  0.2817 -0.0539
12817SOL    HW139391   6.874   4.770   6.704 -1.6362  1.8245 -1.0557
12817SOL    HW239392   6.764   4.669   6.731 -1.5413  1.7722 -0.8657
12818SOL     OW39393   2.172   1.800   4.929 -0.5978  0.5313 -0.2557
12818SOL    HW139394   2.243   1.748   4.890  0.8047  1.2323  1.2295
12818SOL    HW239395   2.142   1.857   4.859  0.3560  0.2475 -0.9090
12819SOL     OW39396   5.464   0.167   4.070 -0.4396 -0.2053  0.1684
12819SOL    HW139397   5.385   0.125   4.035  0.2288 -2.2440  0.9795
12819SOL    HW239398   5.431   0.247   4.113 -1.6220  0.7952 -2.3437
12820SOL     OW39399   4.960   2.710   0.935  0.2458  0.2411 -0.2397
12820SOL    HW139400   5.045   2.720   0.978 -0.4118  2.6265  0.6588
12820SOL    HW239401   4.901   2.678   1.003  0.1953 -0.4173 -0.5889
12821SOL     OW39402   6.159   0.997   3.998  0.1251  0.2112 -0.3895
12821SOL    HW139403   6.243   0.952   4.008 -0.1025 -0.2166 -0.4080
12821SOL    HW239404   6.120   0.958   3.920 -0.0807  0.4317 -0.3985
12822SOL     OW39405   2.827   5.296   6.841 -0.2637  0.0299 -0.2310
12822SOL    HW139406   2.773   5.375   6.835  0.6543  0.6202 -0.9176
12822SOL    HW239407   2.891   5.306   6.771  0.0810 -1.1646 -0.0924
12823SOL     OW39408   1.717   7.374   3.483 -0.3331 -0.4740  0.4659
12823SOL    HW139409   1.782   7.328   3.430  1.2917  0.1522  1.8314
12823SOL    HW239410   1.725   7.336   3.570 -0.2009  1.1324  1.2015
12824SOL     OW39411   1.732   5.419   1.062  0.1741  0.0914  0.9788
12824SOL    HW139412   1.720   5.457   0.975  0.9596  0.4698  1.0231
12824SOL    HW239413   1.645   5.389   1.087  0.0195 -0.4615 -0.1343
12825SOL     OW39414   7.143   5.014   2.108 -0.0742 -0.2860 -0.1575
12825SOL    HW139415   7.210   4.956   2.145  0.6156 -1.7096 -3.2449
12825SOL    HW239416   7.071   4.955   2.084 -0.8432  0.6711 -0.2601
12826SOL     OW39417   5.051   3.235   5.909  0.7600  0.5273  0.8823
12826SOL    HW139418   5.128   3.278   5.947 -0.6651  2.7027  1.4900
12826SOL    HW239419   5.050   3.262   5.818  0.9188  0.1588  0.7679
12827SOL     OW39420   3.549   7.129   3.949  0.3399 -0.1923 -0.1403
12827SOL    HW139421   3.565   7.042   3.912 -0.8470  0.0120 -1.1791
12827SOL    HW239422   3.634   7.156   3.983  0.7022 -1.8164  0.3556
12828SOL     OW39423   3.048   3.201   5.784  0.2116  0.2888  0.3584
12828SOL    HW139424   2.980   3.238   5.728  0.4558  1.7364  1.0012
12828SOL    HW239425   3.126   3.252   5.764  0.9025 -0.7449  0.3155
12829SOL     OW39426   3.527   2.364   5.695  0.2719  0.0087 -0.2416
12829SOL    HW139427   3.611   2.323   5.677  0.8370 -0.1979  2.4004
12829SOL    HW239428   3.467   2.291   5.709 -0.2883  0.1574 -1.6800
12830SOL     OW39429   4.645   1.640   6.765  0.0060 -0.8899  0.1794
12830SOL    HW139430   4.562   1.683   6.783  0.2587 -0.5495  0.5578
12830SOL    HW239431   4.665   1.591   6.845  1.0423  0.4797  0.7936
12831SOL     OW39432   5.457   4.900   6.162 -0.0124  0.1768 -0.3117
12831SOL    HW139433   5.550   4.909   6.142  0.0932  2.8071  0.8781
12831SOL    HW239434   5.455   4.867   6.252 -0.2621 -0.7931 -0.6653
12832SOL     OW39435   4.954   6.103   1.447  0.4268  0.0603 -0.3147
12832SOL    HW139436   4.993   6.104   1.360  2.2723  2.0765  0.4463
12832SOL    HW239437   4.976   6.017   1.482  1.8026  0.1105 -0.9778
12833SOL     OW39438   2.418   6.986   0.907  0.1387 -0.6198  0.1660
12833SOL    HW139439   2.326   7.008   0.923  0.0808 -0.4868 -0.3064
12833SOL    HW239440   2.465   7.021   0.982 -0.0717  0.2740 -0.1059
12834SOL     OW39441   2.842   7.075   4.795 -0.3032  0.1323  1.0548
12834SOL    HW139442   2.934   7.100   4.786 -0.2313 -0.3599  0.3606
12834SOL    HW239443   2.810   7.068   4.705 -0.4282 -1.8618  1.2070
12835SOL     OW39444   4.595   2.658   6.366 -0.1150 -0.4691 -0.4315
12835SOL    HW139445   4.587   2.697   6.279 -2.4934 -0.1410 -0.1355
12835SOL    HW239446   4.528   2.702   6.418  1.5862 -0.3123  1.7336
12836SOL     OW39447   6.957   0.081   4.748 -0.2561  0.0293  0.1932
12836SOL    HW139448   6.944  -0.010   4.774  0.5633  0.1215  0.9678
12836SOL    HW239449   6.935   0.132   4.826  0.2110  0.4304  0.0708
12837SOL     OW39450   7.149   5.522   2.170 -0.1948 -0.0899  0.4349
12837SOL    HW139451   7.060   5.502   2.198 -0.0356  0.6778  1.5561
12837SOL    HW239452   7.201   5.448   2.202 -0.1837  0.2633  1.2675
12838SOL     OW39453   5.944   3.458   3.571  0.1300 -0.1519  0.0400
12838SOL    HW139454   5.872   3.400   3.544  0.3963  0.8662 -3.3766
12838SOL    HW239455   6.002   3.401   3.621 -0.6128 -2.3735 -1.4344
12839SOL     OW39456   4.422   1.358   6.584  0.1483  0.1731  0.5573
12839SOL    HW139457   4.406   1.264   6.597 -1.3110  0.3765  0.3852
12839SOL    HW239458   4.501   1.376   6.635  1.0578 -1.3474 -0.2297
12840SOL     OW39459   4.368   5.113   5.637 -0.5806 -0.6041  0.3980
12840SOL    HW139460   4.287   5.146   5.597  0.1957  0.8933 -0.0031
12840SOL    HW239461   4.373   5.156   5.722  0.2710  0.0615  0.0203
12841SOL     OW39462   5.428   3.974   3.489 -0.4725 -0.7306 -0.2090
12841SOL    HW139463   5.433   4.050   3.548  0.9966 -0.0061 -1.2024
12841SOL    HW239464   5.374   3.911   3.536 -0.8764  0.5302  1.1029
12842SOL     OW39465   6.286   6.607   2.855 -0.3342  0.1005 -0.4437
12842SOL    HW139466   6.290   6.570   2.942  0.8613  0.0670 -0.4951
12842SOL    HW239467   6.224   6.552   2.807 -0.6091 -0.1834  0.2379
12843SOL     OW39468   5.607   2.995   0.718 -0.1792 -0.0517  0.6264
12843SOL    HW139469   5.578   2.969   0.806  2.5842 -2.1592  1.0665
12843SOL    HW239470   5.601   2.915   0.666  1.4414  0.3021 -0.1589
12844SOL     OW39471   3.477   4.716   6.467 -0.3549  0.8394 -0.2173
12844SOL    HW139472   3.417   4.791   6.469  0.3593  1.4231  0.9689
12844SOL    HW239473   3.529   4.726   6.547 -1.0146 -1.5899  0.5790
12845SOL     OW39474   5.152   4.030   2.758  0.0503 -0.5897 -0.2435
12845SOL    HW139475   5.170   3.941   2.790 -1.5865 -0.5412  0.9497
12845SOL    HW239476   5.188   4.087   2.825 -1.4066 -0.4390  0.4461
12846SOL     OW39477   3.006   3.984   6.672 -0.4725 -0.3790 -0.5333
12846SOL    HW139478   3.046   3.955   6.754 -1.4378  0.5142  0.2815
12846SOL    HW239479   3.059   4.058   6.643 -1.3663  0.6513  0.4174
12847SOL     OW39480   0.311   1.854   6.245  0.3232  0.1756  0.5588
12847SOL    HW139481   0.382   1.808   6.290  2.0571  0.1316 -1.9849
12847SOL    HW239482   0.279   1.791   6.180 -0.6392  0.9271  0.2748
12848SOL     OW39483   0.060   5.014   2.086 -0.6771 -0.0951  0.2240
12848SOL    HW139484  -0.008   4.980   2.144 -0.7786 -1.3263 -0.5841
12848SOL    HW239485   0.141   5.007   2.137 -0.8155 -0.8192  0.3558
12849SOL     OW39486   0.629   3.197   4.941  0.5046 -0.0221 -0.3966
12849SOL    HW139487   0.669   3.174   4.857  1.3440 -0.5347  0.1252
12849SOL    HW239488   0.701   3.188   5.004 -0.6537 -2.0175  0.7428
12850SOL     OW39489   5.692   4.124   5.227 -0.0159 -0.0711 -0.4887
12850SOL    HW139490   5.664   4.213   5.248 -0.4348  0.1246 -1.8065
12850SOL    HW239491   5.785   4.121   5.253 -0.5022  0.0873  1.4376
12851SOL     OW39492   2.348   4.330   1.603  0.4151  0.3918 -0.0575
12851SOL    HW139493   2.291   4.402   1.576  0.0398 -0.7115 -2.5164
12851SOL    HW239494   2.421   4.333   1.541  0.6861 -0.9639  0.1677
12852SOL     OW39495   1.172   3.277   1.978  0.4125  0.2241 -0.1152
12852SOL    HW139496   1.153   3.212   1.911 -0.4014  1.6093 -1.2737
12852SOL    HW239497   1.252   3.246   2.020  0.6644 -0.9141 -1.3961
12853SOL     OW39498   3.295   6.081   7.086 -0.2989  0.3187 -0.2794
12853SOL    HW139499   3.360   6.074   7.156 -1.5267 -1.0743  0.7973
12853SOL    HW239500   3.343   6.117   7.012  1.3590  0.6143  0.8809
12854SOL     OW39501   3.417   2.521   7.188 -0.1854 -0.2636 -1.1293
12854SOL    HW139502   3.461   2.551   7.109  1.2954  0.9076  0.0876
12854SOL    HW239503   3.441   2.584   7.256 -3.1956  0.0421 -0.1943
12855SOL     OW39504   6.676   2.255   7.198  0.0203  0.1137  0.2142
12855SOL    HW139505   6.617   2.317   7.241 -0.1732 -0.5167  0.8552
12855SOL    HW239506   6.649   2.169   7.229  0.9397 -0.2274  0.1053
12856SOL     OW39507   3.391   4.637   5.284  0.0308  0.1125 -0.1270
12856SOL    HW139508   3.341   4.705   5.328  1.3087  0.7077  0.4626
12856SOL    HW239509   3.477   4.677   5.269  0.4375 -0.9791 -0.8159
12857SOL     OW39510   2.600   1.904   2.188 -0.3997 -0.0672 -0.0981
12857SOL    HW139511   2.666   1.874   2.250 -1.1569  1.7206  1.7105
12857SOL    HW239512   2.519   1.908   2.239 -1.0284  1.6324 -1.1345
12858SOL     OW39513   3.830   3.037   3.580 -0.0837 -0.0474  0.3559
12858SOL    HW139514   3.905   3.083   3.543  0.1756 -0.9520 -0.2641
12858SOL    HW239515   3.855   3.019   3.671 -0.2899  1.2244  0.6924
12859SOL     OW39516   5.017   0.982   6.570 -0.2687  0.3524  0.2620
12859SOL    HW139517   5.011   0.949   6.480  1.6530 -0.1022  0.2608
12859SOL    HW239518   5.068   1.063   6.563 -0.7150  0.7045  0.8794
12860SOL     OW39519   7.046   7.298   6.269 -0.1027 -0.3454 -0.2171
12860SOL    HW139520   6.950   7.288   6.272 -0.1066 -0.1222  0.3748
12860SOL    HW239521   7.059   7.386   6.234 -0.1372  0.2932  1.3324
12861SOL     OW39522   6.133   5.728   3.720 -0.2907 -0.0556 -0.2934
12861SOL    HW139523   6.153   5.701   3.810  0.6753  0.3720 -0.3608
12861SOL    HW239524   6.118   5.646   3.673  1.4145 -0.4575 -0.2278
12862SOL     OW39525   2.673   0.055   1.498 -0.1002 -0.0708 -0.2646
12862SOL    HW139526   2.752   0.073   1.549  0.5543 -0.7760 -1.0046
12862SOL    HW239527   2.668  -0.040   1.496 -1.2203 -0.0286  0.1304
12863SOL     OW39528   1.817   6.435   6.319  0.2401 -0.0242 -0.1054
12863SOL    HW139529   1.838   6.363   6.379  1.7352  0.6201  0.2145
12863SOL    HW239530   1.722   6.440   6.319  0.1074 -1.9529 -0.0933
12864SOL     OW39531   0.048   0.278   4.747  0.3448  0.4605  0.0501
12864SOL    HW139532  -0.034   0.282   4.697  0.8259  0.9527 -0.7264
12864SOL    HW239533   0.036   0.205   4.808 -0.7092  0.5903  0.0183
12865SOL     OW39534   1.681   2.649   3.739  0.0144 -0.0456 -0.2159
12865SOL    HW139535   1.668   2.736   3.778 -0.8532 -0.1904 -0.1667
12865SOL    HW239536   1.746   2.607   3.796 -1.1944 -0.2368  1.0782
12866SOL     OW39537   6.117   5.909   4.547  0.3513 -0.2142  0.4221
12866SOL    HW139538   6.073   5.848   4.487  0.4734  1.6941 -1.7147
12866SOL    HW239539   6.102   5.871   4.634 -1.6244 -2.0178 -0.6071
12867SOL     OW39540   1.399   0.103   7.019 -0.5208  0.4039 -0.2444
12867SOL    HW139541   1.341   0.065   7.085 -1.5280  1.6260 -0.3856
12867SOL    HW239542   1.454   0.165   7.068  1.4830 -1.5109  0.0803
12868SOL     OW39543   3.093   6.497   6.818  0.2374  0.2341 -0.2522
12868SOL    HW139544   3.026   6.543   6.768 -0.0955  1.3284  1.1247
12868SOL    HW239545   3.052   6.479   6.903  0.6490 -1.9010 -0.4489
12869SOL     OW39546   6.594   7.128   7.358 -0.0872 -0.0358 -0.1994
12869SOL    HW139547   6.518   7.151   7.412 -0.0546 -0.0926 -0.1295
12869SOL    HW239548   6.599   7.197   7.293  1.2147  1.2885  1.2284
12870SOL     OW39549   0.174   2.231   6.905 -0.1376 -0.2087 -0.3889
12870SOL    HW139550   0.093   2.265   6.867  0.3607  1.3738 -0.1119
12870SOL    HW239551   0.228   2.309   6.920  1.8410 -1.2865 -1.4692
12871SOL     OW39552   0.190   6.412   1.582 -0.1642 -0.2272  0.4301
12871SOL    HW139553   0.263   6.388   1.525 -0.3538  1.3033 -0.5203
12871SOL    HW239554   0.232   6.455   1.658 -0.0216 -0.1525  0.3103
12872SOL     OW39555   0.453   7.271   6.245  0.2382  0.1963  0.0900
12872SOL    HW139556   0.501   7.190   6.263  0.7098  0.1636 -1.1975
12872SOL    HW239557   0.456   7.319   6.328  1.1658 -0.4918  0.4793
12873SOL     OW39558   2.599   1.643   6.567 -0.0127  0.6705  0.0688
12873SOL    HW139559   2.510   1.672   6.587 -0.2800  0.2463 -0.4600
12873SOL    HW239560   2.617   1.678   6.480  0.1910  0.4272  0.0118
12874SOL     OW39561   1.310   6.961   3.637  0.4327  0.3769  0.0480
12874SOL    HW139562   1.372   6.985   3.567 -1.6039  0.2935 -1.8864
12874SOL    HW239563   1.261   7.041   3.654  0.5223  0.2384  1.0045
12875SOL     OW39564   0.003   3.328   3.234  0.0413 -0.0672 -0.7404
12875SOL    HW139565  -0.014   3.234   3.220  0.9675 -0.0617 -2.0969
12875SOL    HW239566   0.025   3.334   3.327 -1.1390 -1.0115 -0.3694
12876SOL     OW39567   3.663   2.127   3.434  0.1464  0.0769  0.3666
12876SOL    HW139568   3.606   2.203   3.449  0.9935  0.9136 -0.5460
12876SOL    HW239569   3.745   2.151   3.478  0.0446 -0.8239  1.0726
12877SOL     OW39570   7.004   1.501   3.299  0.5970  0.1888 -0.3116
12877SOL    HW139571   7.035   1.581   3.256  0.5652 -0.2577 -1.1825
12877SOL    HW239572   7.068   1.434   3.275  0.0674 -0.2793 -0.4488
12878SOL     OW39573   2.408   7.063   0.088 -0.5805 -0.3698  0.3842
12878SOL    HW139574   2.365   7.148   0.077  3.1297  1.4254 -2.4218
12878SOL    HW239575   2.454   7.069   0.172  2.2587  1.9344 -1.1598
12879SOL     OW39576   5.093   7.348   3.693  0.3768 -0.2697  0.3551
12879SOL    HW139577   5.123   7.378   3.779  2.2583 -0.8000 -0.0569
12879SOL    HW239578   5.032   7.277   3.712  0.0075  0.2740  1.2598
12880SOL     OW39579   4.545   7.323   7.132 -0.1628 -0.6032  0.2366
12880SOL    HW139580   4.608   7.376   7.083 -0.7738  0.0359  0.1148
12880SOL    HW239581   4.460   7.358   7.106 -0.5347 -0.8813  1.0475
12881SOL     OW39582   3.621   5.248   1.151  0.1187  0.8092  0.4967
12881SOL    HW139583   3.587   5.337   1.152  0.7618  1.0818 -0.2199
12881SOL    HW239584   3.703   5.253   1.199  1.0701  1.0233 -1.0774
12882SOL     OW39585   4.396   2.282   5.220 -0.2065 -0.6056 -1.0148
12882SOL    HW139586   4.351   2.228   5.155 -0.0153 -1.0812 -0.7564
12882SOL    HW239587   4.428   2.220   5.285  1.9796 -0.4070 -1.8479
12883SOL     OW39588   3.535   1.911   0.789  0.4699  0.1272 -0.7838
12883SOL    HW139589   3.623   1.923   0.826  0.1256  1.4943 -0.3419
12883SOL    HW239590   3.521   1.989   0.736 -1.0323  0.6507  0.3111
12884SOL     OW39591   6.894   3.496   2.208  0.0217  0.9045  0.0224
12884SOL    HW139592   6.858   3.413   2.177 -0.5001  0.6792  1.1901
12884SOL    HW239593   6.863   3.504   2.298  1.0833  1.7765  0.3336
12885SOL     OW39594   3.402   1.454   1.152 -0.1904 -0.1357  0.3531
12885SOL    HW139595   3.350   1.521   1.196  0.7390 -0.3922  1.9217
12885SOL    HW239596   3.490   1.492   1.146 -0.2334 -0.2034 -1.1207
12886SOL     OW39597   0.168   3.235   1.162 -0.1578  0.7929 -0.0007
12886SOL    HW139598   0.094   3.288   1.131 -0.0790  0.8432 -0.1027
12886SOL    HW239599   0.245   3.276   1.122 -0.2682 -0.7711 -1.9780
12887SOL     OW39600   4.285   2.983   2.035 -0.0808  0.1925  0.6491
12887SOL    HW139601   4.203   3.031   2.024  0.0432  0.4974  1.0177
12887SOL    HW239602   4.345   3.047   2.075  0.4579  0.0930  0.0059
12888SOL     OW39603   0.033   4.626   5.049 -0.1908 -0.0646  0.1614
12888SOL    HW139604   0.001   4.536   5.060  0.0045 -0.6686 -3.1151
12888SOL    HW239605   0.101   4.619   4.982  0.8823  2.3824  0.8684
12889SOL     OW39606   6.097   1.368   3.285  0.2196 -0.4934  0.1802
12889SOL    HW139607   6.004   1.372   3.261  0.1885  0.3122  0.4173
12889SOL    HW239608   6.097   1.354   3.379  0.3185  1.2612  0.4679
12890SOL     OW39609   1.055   3.404   6.816  0.0738 -0.0913 -0.5770
12890SOL    HW139610   1.118   3.375   6.882  1.8359  0.5833 -1.8803
12890SOL    HW239611   1.055   3.334   6.751 -0.7891 -0.2192 -0.4552
12891SOL     OW39612   1.685   4.302   3.271 -0.0751  0.4638  0.0656
12891SOL    HW139613   1.701   4.217   3.231 -0.5124  0.1639  0.5126
12891SOL    HW239614   1.592   4.301   3.294 -0.3470  1.4837 -0.9126
12892SOL     OW39615   2.279   3.233   7.306 -0.3324  0.1446  0.3427
12892SOL    HW139616   2.212   3.295   7.277 -0.4087  0.2071  0.6551
12892SOL    HW239617   2.328   3.280   7.374  1.3353  0.8724 -1.2727
12893SOL     OW39618   2.864   6.726   3.466  0.3390 -1.1534 -0.2127
12893SOL    HW139619   2.851   6.653   3.526  1.0598 -0.7157  0.4810
12893SOL    HW239620   2.918   6.789   3.514 -1.3112  0.4364 -0.2931
12894SOL     OW39621   3.424   0.443   0.856  0.2914  0.5800  0.0292
12894SOL    HW139622   3.457   0.479   0.938  1.1514  1.1021 -0.5311
12894SOL    HW239623   3.475   0.487   0.788  0.6679 -0.9400 -0.7238
12895SOL     OW39624   3.975   3.949   4.884  0.0918  0.3567  0.0124
12895SOL    HW139625   3.976   3.869   4.936 -0.6135 -0.6966 -1.5212
12895SOL    HW239626   3.884   3.957   4.854  0.0124  2.0733  0.6244
12896SOL     OW39627   3.515   1.150   4.370 -0.0830  0.0011  0.4360
12896SOL    HW139628   3.443   1.087   4.362 -0.9390  1.1734 -2.2583
12896SOL    HW239629   3.567   1.138   4.291  0.3492  1.9208  0.3746
12897SOL     OW39630   1.878   1.772   2.036  0.3965 -0.5825 -0.7697
12897SOL    HW139631   1.837   1.781   1.950 -1.0663  0.7834  0.0239
12897SOL    HW239632   1.843   1.689   2.070 -2.9247  1.1018  0.3972
12898SOL     OW39633   6.129   6.662   0.753  0.0906 -0.1556  0.0229
12898SOL    HW139634   6.208   6.610   0.739 -0.3071 -0.5428 -0.8318
12898SOL    HW239635   6.058   6.598   0.752 -0.1075 -0.1534  3.0006
12899SOL     OW39636   0.341   1.524   4.475 -0.8615  0.5092  0.4847
12899SOL    HW139637   0.283   1.472   4.421 -1.0255 -1.0260  2.0440
12899SOL    HW239638   0.286   1.554   4.548  0.3063 -1.3815  2.2573
12900SOL     OW39639   3.935   3.138   1.663  0.5380 -0.3075  0.0585
12900SOL    HW139640   4.001   3.074   1.688 -0.1261 -0.9237  0.2536
12900SOL    HW239641   3.886   3.155   1.744  0.2251 -0.1339 -0.1625
12901SOL     OW39642   2.008   1.814   5.135 -0.2341  0.0788  0.1116
12901SOL    HW139643   2.073   1.808   5.064 -0.7183 -2.0361 -0.2265
12901SOL    HW239644   1.925   1.829   5.089 -0.2011  1.3593  0.4446
12902SOL     OW39645   1.343   2.766   5.521 -0.3099  0.3742 -0.4853
12902SOL    HW139646   1.383   2.747   5.436 -1.1013  0.5251 -0.9125
12902SOL    HW239647   1.269   2.705   5.527 -0.1196  0.2050  0.2072
12903SOL     OW39648   1.855   3.521   4.019 -0.1399 -0.1026  0.0566
12903SOL    HW139649   1.856   3.502   3.926  0.2190  1.0574 -0.1928
12903SOL    HW239650   1.944   3.504   4.048  0.0270  0.5654 -0.0445
12904SOL     OW39651   5.638   5.312   1.442  0.0484 -0.4905  0.6109
12904SOL    HW139652   5.644   5.285   1.350 -0.4694 -1.5313  0.8720
12904SOL    HW239653   5.591   5.395   1.439 -0.0132 -0.5410 -0.0566
12905SOL     OW39654   5.788   5.509   5.415  0.3292 -0.1694  0.1925
12905SOL    HW139655   5.882   5.529   5.409  0.2967  0.0027  0.2536
12905SOL    HW239656   5.766   5.528   5.506  0.3473 -0.6995  0.3082
12906SOL     OW39657   2.304   5.179   5.772 -0.0187 -0.2599 -0.2709
12906SOL    HW139658   2.340   5.189   5.684 -0.6826 -1.4754 -0.6939
12906SOL    HW239659   2.379   5.189   5.830  0.4173  0.6091 -0.9580
12907SOL     OW39660   4.639   1.086   0.022 -0.0738 -0.2449 -0.0041
12907SOL    HW139661   4.634   1.045   0.108  0.3608  0.6481  0.4599
12907SOL    HW239662   4.733   1.102   0.008 -0.2742  1.0172  0.0364
12908SOL     OW39663   5.521   6.490   1.772 -0.8276 -0.0252 -0.4341
12908SOL    HW139664   5.446   6.472   1.829  0.2411 -0.5214  0.8566
12908SOL    HW239665   5.557   6.404   1.752 -0.1354  0.2491 -0.3960
12909SOL     OW39666   1.761   1.793   1.789 -0.5477 -0.1056 -0.0112
12909SOL    HW139667   1.667   1.813   1.784 -0.8316 -1.4825 -0.6392
12909SOL    HW239668   1.801   1.850   1.724 -1.1101 -0.3594 -0.5878
12910SOL     OW39669   2.474   0.730   6.263  0.5696 -0.6093 -0.1767
12910SOL    HW139670   2.455   0.813   6.219  0.0184 -1.0894 -0.8508
12910SOL    HW239671   2.439   0.742   6.352  0.3299 -0.1835 -0.3238
12911SOL     OW39672   6.603   6.875   6.468 -0.2574 -0.3907 -0.0243
12911SOL    HW139673   6.690   6.862   6.431  0.7819  0.4068  2.0095
12911SOL    HW239674   6.582   6.791   6.509 -1.1612 -1.0845 -1.7916
12912SOL     OW39675   1.509   5.816   5.794  0.1446  0.0786 -0.4390
12912SOL    HW139676   1.423   5.776   5.807 -0.7206  1.7127 -0.8541
12912SOL    HW239677   1.555   5.756   5.736 -1.2359 -0.1503 -1.3431
12913SOL     OW39678   5.166   6.228   5.168  0.1059  0.0170  0.1730
12913SOL    HW139679   5.115   6.285   5.226  0.5647 -0.9814  1.6060
12913SOL    HW239680   5.131   6.247   5.080 -0.4063  1.7806  0.7034
12914SOL     OW39681   5.689   2.570   4.103  0.1810 -0.3591  0.1310
12914SOL    HW139682   5.677   2.576   4.009 -1.4623 -1.8902  0.1955
12914SOL    HW239683   5.669   2.658   4.136  0.0126 -0.0149 -0.8625
12915SOL     OW39684   3.562   4.360   6.924  0.2409 -0.1523 -0.5939
12915SOL    HW139685   3.533   4.378   7.013 -1.0880 -0.3060 -0.9825
12915SOL    HW239686   3.649   4.321   6.935 -0.7050 -2.0439  0.7822
12916SOL     OW39687   7.342   4.149   2.655  0.2647  0.5632  0.6528
12916SOL    HW139688   7.351   4.128   2.748  2.1588  0.4714  0.4958
12916SOL    HW239689   7.430   4.137   2.619 -0.5460  0.0374 -1.2839
12917SOL     OW39690   1.882   4.599   6.511  0.0992  0.1125 -0.0153
12917SOL    HW139691   1.932   4.661   6.458 -2.7928 -0.2973 -3.6286
12917SOL    HW239692   1.804   4.647   6.538 -0.0453 -0.7026  1.1046
12918SOL     OW39693   4.500   0.809   6.704 -0.0894 -0.0320  0.5030
12918SOL    HW139694   4.456   0.808   6.618 -2.1929 -1.1018  1.5193
12918SOL    HW239695   4.591   0.788   6.684 -0.3164  0.6635 -1.5556
12919SOL     OW39696   1.288   3.849   1.844  0.6325  0.8538 -0.2605
12919SOL    HW139697   1.202   3.892   1.841 -1.1469 -2.1739  2.0542
12919SOL    HW239698   1.338   3.899   1.909 -0.1630  1.3679 -0.0346
12920SOL     OW39699   4.217   1.709   2.408  0.4180 -0.0888  0.0322
12920SOL    HW139700   4.287   1.774   2.410 -0.7473  1.3480 -2.0265
12920SOL    HW239701   4.151   1.742   2.469  0.5040 -0.1688  0.1681
12921SOL     OW39702   0.134   5.936   1.909  0.7069 -0.1045  0.1109
12921SOL    HW139703   0.039   5.943   1.916  0.7973  0.0917  1.2701
12921SOL    HW239704   0.156   5.986   1.830 -0.0173  1.0111  0.6019
12922SOL     OW39705   4.681   5.925   1.488 -0.3146  0.4474 -0.5442
12922SOL    HW139706   4.655   6.012   1.459  0.5381  1.0376  0.3905
12922SOL    HW239707   4.776   5.923   1.480 -0.2777 -0.2247 -0.1204
12923SOL     OW39708   5.443   4.511   6.793 -0.2970 -0.1877  0.1284
12923SOL    HW139709   5.527   4.467   6.785 -0.0539  0.3953 -0.6179
12923SOL    HW239710   5.425   4.512   6.887  1.4199  1.2856  0.5017
12924SOL     OW39711   2.947   4.752   4.983  0.1195  0.6878 -0.6079
12924SOL    HW139712   3.005   4.825   4.964 -0.6467  0.7045 -3.2969
12924SOL    HW239713   2.858   4.788   4.976 -0.2595 -0.0089  0.3290
12925SOL     OW39714   5.720   4.906   5.093 -0.2194  0.5870 -0.1255
12925SOL    HW139715   5.726   4.971   5.023  1.0708 -0.3590 -0.9366
12925SOL    HW239716   5.807   4.865   5.096 -0.1965  0.6486  2.1014
12926SOL     OW39717   4.013   2.307   7.384 -0.3348  0.0054  0.0776
12926SOL    HW139718   3.936   2.362   7.371  0.8125  1.3394 -1.6691
12926SOL    HW239719   3.985   2.239   7.445 -2.3379  1.5037  0.9323
12927SOL     OW39720   6.183   2.329   6.303  0.2436  0.0714 -0.1260
12927SOL    HW139721   6.185   2.281   6.220 -1.3035  0.6159 -0.5038
12927SOL    HW239722   6.091   2.330   6.328  0.3649  1.9317  0.3965
12928SOL     OW39723   7.088   7.368   2.279  0.9763 -0.5680  0.5794
12928SOL    HW139724   7.131   7.453   2.290  0.9212 -0.6721  1.6523
12928SOL    HW239725   7.006   7.377   2.327  0.5318 -0.9173 -0.1019
12929SOL     OW39726   4.399   6.903   2.357 -0.4756 -0.0397 -0.3722
12929SOL    HW139727   4.415   6.823   2.306 -0.2400  0.2815 -0.8157
12929SOL    HW239728   4.484   6.947   2.359 -0.3078 -0.4095  0.9488
12930SOL     OW39729   4.985   2.646   3.098 -0.0589  0.5652 -0.6642
12930SOL    HW139730   4.921   2.579   3.073 -1.7448  1.9708 -0.3076
12930SOL    HW239731   4.934   2.712   3.143  2.1813  0.1894  2.7602
12931SOL     OW39732   5.820   2.822   4.723  0.3907 -0.1884  0.2564
12931SOL    HW139733   5.727   2.843   4.719 -0.0423 -2.0714 -0.5883
12931SOL    HW239734   5.860   2.877   4.655  0.0603  1.2058  1.1488
12932SOL     OW39735   4.401   0.949   7.411 -0.0720  0.6094  0.0113
12932SOL    HW139736   4.381   0.905   7.328 -0.5159  2.4358 -0.8991
12932SOL    HW239737   4.495   0.964   7.408 -0.0131  0.2602  0.0590
12933SOL     OW39738   5.661   5.638   3.192  0.6873 -0.4169  0.0635
12933SOL    HW139739   5.659   5.731   3.171 -0.7698 -0.1757  1.1432
12933SOL    HW239740   5.632   5.594   3.112 -1.0804  0.2410  0.2989
12934SOL     OW39741   6.529   7.269   6.898  0.4898  0.8892  0.4460
12934SOL    HW139742   6.463   7.209   6.932  0.6862 -0.5716 -1.6090
12934SOL    HW239743   6.480   7.327   6.839  0.8043  0.6644 -0.0451
12935SOL     OW39744   6.785   5.561   3.293 -0.1187 -0.4345 -0.5729
12935SOL    HW139745   6.803   5.546   3.200 -1.5216  1.0589 -1.1465
12935SOL    HW239746   6.709   5.506   3.311 -0.7066  0.3121 -0.7110
12936SOL     OW39747   6.079   5.011   0.524  0.4843 -0.4448 -0.2612
12936SOL    HW139748   6.023   4.977   0.454  0.2827  0.7129 -0.6909
12936SOL    HW239749   6.168   5.001   0.490  0.4746 -1.0929 -0.1189
12937SOL     OW39750   2.823   4.663   1.290  0.5090 -0.3866 -0.6475
12937SOL    HW139751   2.760   4.705   1.232  0.3957  0.0747 -0.1938
12937SOL    HW239752   2.809   4.569   1.276 -0.7282 -0.3047 -0.0688
12938SOL     OW39753   2.491   4.137   0.041  0.4922 -0.0281 -0.3175
12938SOL    HW139754   2.456   4.167   0.125  0.4769 -0.9921  0.0319
12938SOL    HW239755   2.456   4.198  -0.023  2.3719  2.1921  0.6089
12939SOL     OW39756   1.483   6.610   4.500  0.1506  0.7696 -0.1654
12939SOL    HW139757   1.571   6.648   4.490  0.7708 -0.3862  0.5765
12939SOL    HW239758   1.483   6.534   4.442 -1.6546  2.7313 -2.9182
12940SOL     OW39759   5.273   5.471   3.611 -0.1374 -0.6100 -0.6841
12940SOL    HW139760   5.225   5.440   3.688 -0.2665 -0.2829 -0.6340
12940SOL    HW239761   5.364   5.446   3.627 -0.1610 -0.5224 -0.4173
12941SOL     OW39762   0.797   3.476   2.951  0.2532  0.6296  0.6553
12941SOL    HW139763   0.862   3.489   2.882  0.5130  0.6367  0.8972
12941SOL    HW239764   0.790   3.562   2.994  0.9251  0.3598  1.3488
12942SOL     OW39765   2.873   0.688   6.195  0.1485 -0.0855 -0.2276
12942SOL    HW139766   2.922   0.707   6.275  0.4984  1.5439 -0.7874
12942SOL    HW239767   2.794   0.643   6.226  0.9369 -0.7420  0.8876
12943SOL     OW39768   0.001   2.449   2.324 -0.0206  0.0365 -0.2404
12943SOL    HW139769  -0.008   2.382   2.391 -0.1779  0.5212  0.2303
12943SOL    HW239770  -0.083   2.495   2.325 -0.6659 -1.0131 -1.9444
12944SOL     OW39771   5.598   1.208   0.091 -0.5487 -0.2394  0.4584
12944SOL    HW139772   5.618   1.163   0.009 -0.9615  0.1882  0.1180
12944SOL    HW239773   5.639   1.154   0.158  3.4091  1.4774 -0.2777
12945SOL     OW39774   1.566   1.877   3.450 -0.1267  0.4835  0.4237
12945SOL    HW139775   1.560   1.939   3.378  2.8149 -0.5546 -0.8262
12945SOL    HW239776   1.521   1.799   3.418 -0.7209  0.7444  0.6045
12946SOL     OW39777   6.556   2.566   6.138 -0.2102 -0.3227 -0.1136
12946SOL    HW139778   6.477   2.526   6.173 -0.9223  0.6256 -0.5990
12946SOL    HW239779   6.593   2.614   6.212 -1.0776  0.7108 -0.3244
12947SOL     OW39780   0.689   2.481   5.934 -0.0142 -0.0175  0.3016
12947SOL    HW139781   0.769   2.533   5.942  0.1369  0.0396 -1.3276
12947SOL    HW239782   0.644   2.494   6.017  0.2681  2.3226  0.1460
12948SOL     OW39783   3.199   6.166   3.477 -0.4902  0.2264 -0.4968
12948SOL    HW139784   3.131   6.116   3.432 -0.0834 -0.0948 -0.7613
12948SOL    HW239785   3.153   6.243   3.511 -0.7431  0.6750 -1.7811
12949SOL     OW39786   3.609   0.122   0.221 -0.5732 -0.0838 -0.1655
12949SOL    HW139787   3.698   0.089   0.208 -0.9905 -1.0727 -0.5955
12949SOL    HW239788   3.614   0.215   0.200  0.6939  0.2380  1.3625
12950SOL     OW39789   2.916   6.375   0.372  0.2185  0.1051  0.1293
12950SOL    HW139790   2.978   6.361   0.301 -0.0426 -0.2906 -0.0240
12950SOL    HW239791   2.970   6.377   0.451  0.8053  2.8796 -0.2565
12951SOL     OW39792   4.499   4.411   3.321  0.2982  0.0146 -0.6214
12951SOL    HW139793   4.505   4.342   3.255  0.5306  0.6412 -1.2732
12951SOL    HW239794   4.458   4.484   3.275  0.6506  0.5313 -0.1269
12952SOL     OW39795   5.733   1.091   5.672 -0.5582 -0.1469  0.0473
12952SOL    HW139796   5.752   1.004   5.638  1.0851 -0.0588  0.6503
12952SOL    HW239797   5.748   1.084   5.766 -1.8543  0.4262  0.3113
12953SOL     OW39798   2.124   4.943   6.658  0.7872 -0.1266  0.1224
12953SOL    HW139799   2.063   4.885   6.703 -0.9421  2.2919  1.0971
12953SOL    HW239800   2.086   4.957   6.572  1.5505 -0.8733 -0.3624
12954SOL     OW39801   4.030   2.554   1.444 -0.2641  0.2065 -0.1171
12954SOL    HW139802   3.981   2.634   1.424 -0.5189  0.3732  1.0593
12954SOL    HW239803   4.059   2.521   1.359 -3.5557 -0.6264 -1.0620
12955SOL     OW39804   1.438   5.046   3.277 -0.2830  0.5703  0.0882
12955SOL    HW139805   1.450   5.007   3.191  2.4543  3.3167 -0.9534
12955SOL    HW239806   1.356   5.096   3.269  0.5640  1.7940 -1.4040
12956SOL     OW39807   0.125   1.598   1.286 -0.4044  0.0728 -0.4369
12956SOL    HW139808   0.066   1.573   1.357 -0.7315  0.9281 -0.3967
12956SOL    HW239809   0.118   1.694   1.281  2.5398  0.4863  0.9742
12957SOL     OW39810   5.128   1.384   3.492  0.3587  0.2250 -0.7851
12957SOL    HW139811   5.060   1.344   3.437 -0.1985 -1.6044  1.0762
12957SOL    HW239812   5.085   1.396   3.577  2.1321 -0.2831  0.2316
12958SOL     OW39813   4.097   4.018   4.303  0.0802  0.2334 -0.1120
12958SOL    HW139814   4.115   3.955   4.373 -0.2487 -0.3191 -0.5148
12958SOL    HW239815   4.140   3.980   4.226 -0.6914  0.1542 -0.5119
12959SOL     OW39816   2.780   6.424   1.563 -0.6304 -0.2412 -0.0130
12959SOL    HW139817   2.854   6.404   1.505 -0.1810  0.7000  0.2172
12959SOL    HW239818   2.729   6.489   1.515 -1.2108 -0.7406 -0.0822
12960SOL     OW39819   4.059   6.971   1.287  0.1393  0.4487 -0.2299
12960SOL    HW139820   4.008   6.941   1.212 -1.6144 -0.5715  1.2931
12960SOL    HW239821   4.150   6.956   1.262 -0.5020 -3.0941 -0.8813
12961SOL     OW39822   6.388   1.992   0.276  0.0187 -0.3454 -0.2009
12961SOL    HW139823   6.294   2.001   0.259 -0.3990 -1.5631  1.2731
12961SOL    HW239824   6.415   2.079   0.305 -0.8283 -0.1824  0.1282
12962SOL     OW39825   4.788   6.737   6.445  0.3808  0.2301  0.3526
12962SOL    HW139826   4.722   6.731   6.376  1.6865 -2.8870 -0.7643
12962SOL    HW239827   4.853   6.798   6.411  0.8788 -1.0701 -1.1218
12963SOL     OW39828   7.053   0.467   3.393  0.2209 -0.2569 -0.1487
12963SOL    HW139829   7.126   0.426   3.346  1.1731 -0.2117  1.2278
12963SOL    HW239830   7.005   0.516   3.326  0.9609 -0.9701 -1.2328
12964SOL     OW39831   2.186   4.031   2.709  0.3682 -0.1895 -0.0657
12964SOL    HW139832   2.116   4.063   2.651  1.1712  1.0425 -0.3911
12964SOL    HW239833   2.161   3.941   2.729 -0.9213 -0.0195 -0.7845
12965SOL     OW39834   2.529   0.288   1.505 -0.1072  0.4355  0.3311
12965SOL    HW139835   2.596   0.221   1.496  1.6956  2.2455 -0.4890
12965SOL    HW239836   2.448   0.245   1.478  0.9547 -1.4395 -0.0087
12966SOL     OW39837   4.666   3.267   6.858 -0.1543 -0.6573 -0.1751
12966SOL    HW139838   4.695   3.177   6.871  2.4506  0.0338 -0.7287
12966SOL    HW239839   4.736   3.321   6.895 -0.8010  1.1470 -1.4336
12967SOL     OW39840   0.440   3.017   2.980 -0.2946  0.0268 -0.3956
12967SOL    HW139841   0.527   3.056   2.984  0.3317 -1.2836 -0.8768
12967SOL    HW239842   0.382   3.087   3.010  0.8302  1.1740 -0.7822
12968SOL     OW39843   1.247   6.997   1.621 -0.3388 -0.5524  0.0067
12968SOL    HW139844   1.226   6.998   1.527 -0.0637  2.6702 -0.1256
12968SOL    HW239845   1.339   6.971   1.624  0.6048  2.2243 -1.0144
12969SOL     OW39846   4.100   2.854   5.052  0.1226 -0.0881 -0.6812
12969SOL    HW139847   4.050   2.827   4.975  1.7591 -0.0199 -1.8312
12969SOL    HW239848   4.038   2.847   5.125 -1.3978 -0.4383 -1.9474
12970SOL     OW39849   5.216   7.008   0.524 -0.1706 -0.1026  0.6740
12970SOL    HW139850   5.124   6.993   0.502  0.0991  0.6219 -1.1068
12970SOL    HW239851   5.213   7.072   0.595 -1.0424  1.7501 -0.9435
12971SOL     OW39852   2.487   6.619   3.704 -0.4154  0.1018  0.1906
12971SOL    HW139853   2.572   6.576   3.688  0.4760  1.8284 -0.0110
12971SOL    HW239854   2.483   6.629   3.799  0.7498  2.0436  0.1068
12972SOL     OW39855   2.559   5.130   3.452  0.4162  0.2359 -0.1634
12972SOL    HW139856   2.640   5.110   3.406  1.5134  0.1345  1.7181
12972SOL    HW239857   2.560   5.226   3.462  0.5352  0.1874  0.2792
12973SOL     OW39858   4.378   1.038   4.074 -0.3058  0.4645  0.0296
12973SOL    HW139859   4.347   1.057   4.162 -1.0094 -1.0457  0.1344
12973SOL    HW239860   4.470   1.066   4.074 -0.4104  0.8454  1.1123
12974SOL     OW39861   0.984   2.010   3.353  0.4680 -0.7224 -0.1323
12974SOL    HW139862   0.910   1.949   3.354  2.2061 -2.9828 -0.7337
12974SOL    HW239863   0.972   2.060   3.272 -0.3387 -1.1049 -0.2651
12975SOL     OW39864   1.632   1.195   3.628 -0.1893 -0.1979 -0.3169
12975SOL    HW139865   1.646   1.230   3.540 -0.2578  0.5545 -0.0417
12975SOL    HW239866   1.719   1.165   3.656  0.1053  0.7577 -0.1540
12976SOL     OW39867   4.879   1.070   6.945  0.0628  0.2638 -0.0901
12976SOL    HW139868   4.946   1.124   6.904  0.6377  0.7953  1.4573
12976SOL    HW239869   4.814   1.056   6.877  1.6687 -0.1700 -1.6013
12977SOL     OW39870   2.828   3.551   4.939 -0.0999  0.2009  0.0660
12977SOL    HW139871   2.919   3.577   4.925 -0.9238  3.9613  0.4784
12977SOL    HW239872   2.809   3.578   5.029 -1.8175  0.2177 -0.2619
12978SOL     OW39873   1.318   4.173   1.906 -0.1649 -0.2038  0.0685
12978SOL    HW139874   1.298   4.137   1.820  1.4704 -1.1158  0.0230
12978SOL    HW239875   1.366   4.253   1.889 -1.1414  0.4187  0.1622
12979SOL     OW39876   0.169   1.165   6.170 -0.5425  0.1367 -0.1638
12979SOL    HW139877   0.094   1.157   6.229  0.1699 -0.9742  0.6358
12979SOL    HW239878   0.133   1.146   6.083 -1.7197  2.3580 -0.2218
12980SOL     OW39879   3.592   6.254   3.677  0.3134 -0.0182 -0.1175
12980SOL    HW139880   3.626   6.197   3.746 -0.3459 -0.7330 -0.3708
12980SOL    HW239881   3.628   6.340   3.698 -1.3752  0.2140  2.2142
12981SOL     OW39882   2.513   1.192   6.955  0.2828  0.0322  0.4022
12981SOL    HW139883   2.447   1.219   6.891  0.2880  1.0510  0.8110
12981SOL    HW239884   2.492   1.101   6.973 -0.1594 -0.0631 -0.5156
12982SOL     OW39885   5.901   6.281   2.936  0.0737  0.1673  0.3544
12982SOL    HW139886   5.987   6.324   2.934  0.1382  0.0723 -1.6939
12982SOL    HW239887   5.916   6.198   2.891 -0.9497 -0.1780  0.6286
12983SOL     OW39888   4.720   2.701   1.070 -0.1741  0.3417  0.1493
12983SOL    HW139889   4.676   2.728   0.989 -0.1579 -0.8738 -0.2824
12983SOL    HW239890   4.658   2.724   1.139 -0.2984  1.1628 -0.2180
12984SOL     OW39891   4.512   3.547   1.248  0.1120 -0.1788 -0.4165
12984SOL    HW139892   4.470   3.564   1.333 -0.5487 -0.2428 -0.7209
12984SOL    HW239893   4.554   3.630   1.226 -0.4078  0.0958 -0.4038
12985SOL     OW39894   0.595   6.102   5.372  0.0694  0.3620  0.5694
12985SOL    HW139895   0.663   6.164   5.346 -0.7580  0.5125 -1.4318
12985SOL    HW239896   0.639   6.017   5.376  0.4710  0.5298 -0.2303
12986SOL     OW39897   0.827   3.591   1.614 -0.1822  0.3638  0.6658
12986SOL    HW139898   0.910   3.550   1.589  0.1960  0.8288  1.1337
12986SOL    HW239899   0.808   3.557   1.701 -1.1611 -0.7438  0.0401
12987SOL     OW39900   2.139   6.784   1.875 -0.0733 -0.4731  0.0827
12987SOL    HW139901   2.135   6.694   1.842 -0.2293 -0.6663  0.6136
12987SOL    HW239902   2.186   6.776   1.958 -0.8463 -0.1915  0.5571
12988SOL     OW39903   6.202   5.166   4.696 -0.2146  0.2595 -0.0049
12988SOL    HW139904   6.241   5.112   4.627 -0.7917  1.7576 -1.5728
12988SOL    HW239905   6.233   5.255   4.677 -2.6798  1.1616 -0.0936
12989SOL     OW39906   1.315   6.315   0.474  0.6920  0.4018  0.1519
12989SOL    HW139907   1.253   6.387   0.473 -0.0189 -0.1884  0.5396
12989SOL    HW239908   1.359   6.320   0.389 -0.7428  0.1073 -0.6511
12990SOL     OW39909   5.180   0.100   4.364  0.6328  0.3862 -0.2748
12990SOL    HW139910   5.098   0.135   4.328  0.9382  0.5492 -0.8301
12990SOL    HW239911   5.174   0.116   4.458 -0.1248  0.0792 -0.2589
12991SOL     OW39912   3.488   1.687   6.655 -0.0497 -0.2205  0.3946
12991SOL    HW139913   3.455   1.758   6.600  0.5366 -0.9896 -0.9744
12991SOL    HW239914   3.567   1.657   6.611 -0.5538 -2.0604  0.6676
12992SOL     OW39915   1.153   4.211   0.502  0.1206  0.3085  0.2549
12992SOL    HW139916   1.185   4.285   0.450 -0.0895  0.9027  0.9512
12992SOL    HW239917   1.085   4.249   0.558 -0.9377 -0.6842 -0.3196
12993SOL     OW39918   5.222   3.113   4.882 -0.4388 -0.2439 -0.2010
12993SOL    HW139919   5.127   3.127   4.876 -0.5029  0.4533  1.7280
12993SOL    HW239920   5.231   3.038   4.941  0.2148 -0.0884 -0.1005
12994SOL     OW39921   2.866   4.582   6.815  0.0656  0.0049  0.1215
12994SOL    HW139922   2.804   4.605   6.745  0.6796 -0.2097 -0.5080
12994SOL    HW239923   2.922   4.659   6.824  0.6576 -0.3625 -0.3691
12995SOL     OW39924   2.058   1.532   5.575  0.0065 -0.5552  0.4767
12995SOL    HW139925   2.130   1.488   5.531 -0.4771 -1.5097  0.6144
12995SOL    HW239926   2.003   1.565   5.504  0.4574 -0.0265  0.3713
12996SOL     OW39927   3.454   7.399   2.163 -0.0826 -0.6842  0.1074
12996SOL    HW139928   3.365   7.399   2.127 -1.0578 -0.7596  2.3228
12996SOL    HW239929   3.449   7.459   2.237  2.2577  0.7780 -0.8439
12997SOL     OW39930   6.353   7.326   3.751 -0.0138  0.1462  0.0224
12997SOL    HW139931   6.414   7.273   3.699 -2.0064 -0.6392 -1.6562
12997SOL    HW239932   6.381   7.416   3.736  0.6895 -0.1820 -0.7456
12998SOL     OW39933   2.295   4.406   3.820  0.3263  0.2037 -0.0155
12998SOL    HW139934   2.390   4.408   3.825  0.4405 -0.9391 -1.2936
12998SOL    HW239935   2.271   4.493   3.786  0.9130  0.4346  0.1423
12999SOL     OW39936   3.857   1.599   4.634 -0.3011  0.0806 -0.0274
12999SOL    HW139937   3.932   1.654   4.656 -0.2240  0.6860 -1.6435
12999SOL    HW239938   3.894   1.512   4.618 -0.3217 -0.2860  1.7754
13000SOL     OW39939   0.509   1.218   0.500  0.1735  0.2158 -0.2234
13000SOL    HW139940   0.506   1.173   0.416  2.4533  0.0930 -0.3024
13000SOL    HW239941   0.417   1.222   0.529 -0.5070 -0.9033 -2.0682
13001SOL     OW39942   5.328   0.958   0.107  0.0404  0.1757  0.3308
13001SOL    HW139943   5.393   0.936   0.174 -0.1404 -0.2593  0.3700
13001SOL    HW239944   5.305   1.049   0.124 -0.3129 -0.0539  1.1209
13002SOL     OW39945   1.186   1.567   4.953 -0.2154  0.2635 -0.5183
13002SOL    HW139946   1.121   1.624   4.912 -3.0377 -1.9803  0.4770
13002SOL    HW239947   1.201   1.498   4.889 -1.6219 -1.1226  0.5659
13003SOL     OW39948   0.841   2.663   5.678  0.0598  0.0564  0.2198
13003SOL    HW139949   0.861   2.576   5.642 -1.3024  0.1499 -0.8303
13003SOL    HW239950   0.781   2.702   5.614  0.9887  1.9564  0.4496
13004SOL     OW39951   5.070   5.732   5.036  0.0319  0.2653 -0.1961
13004SOL    HW139952   5.119   5.748   5.117  0.1382 -0.1668 -0.1710
13004SOL    HW239953   4.982   5.762   5.055  0.1339  0.4621 -0.0262
13005SOL     OW39954   0.329   4.941   2.718  0.4975 -0.3541  0.4090
13005SOL    HW139955   0.247   4.978   2.685  0.9648  0.5425  0.2441
13005SOL    HW239956   0.395   4.969   2.655  0.9889 -0.8177  0.7094
13006SOL     OW39957   4.311   3.581   3.357  0.7590  0.2681  0.2734
13006SOL    HW139958   4.298   3.665   3.399  2.6551  0.9470 -0.3795
13006SOL    HW239959   4.239   3.574   3.293  0.5740  1.3811  0.3440
13007SOL     OW39960   4.399   2.152   2.529 -0.0620 -0.0129 -0.5565
13007SOL    HW139961   4.401   2.159   2.624  0.4248  2.2140 -0.6721
13007SOL    HW239962   4.374   2.240   2.499  3.5115  0.4978 -2.5773
13008SOL     OW39963   4.989   2.497   0.735 -0.0505 -0.3524  0.1581
13008SOL    HW139964   5.059   2.450   0.779 -1.0077 -1.6867  0.3411
13008SOL    HW239965   4.962   2.565   0.797 -0.5452 -1.4100  1.1378
13009SOL     OW39966   2.585   4.600   0.533  0.5710 -0.4719  0.3066
13009SOL    HW139967   2.606   4.693   0.532 -1.3361  0.0424  1.7562
13009SOL    HW239968   2.576   4.576   0.440  1.6667  0.6238 -0.1019
13010SOL     OW39969   2.612   0.417   5.823 -0.0112  0.6916  0.2491
13010SOL    HW139970   2.550   0.346   5.841  0.9000  0.2055  1.5703
13010SOL    HW239971   2.578   0.491   5.874 -0.3755  0.9065 -0.2950
13011SOL     OW39972   3.002   6.064   1.710  0.0172  0.2351  0.3992
13011SOL    HW139973   3.056   6.140   1.690  0.1250  0.1142  0.2189
13011SOL    HW239974   2.960   6.084   1.794  0.8224  0.0651  0.8439
13012SOL     OW39975   6.274   5.367   4.060 -0.1363  0.5695 -0.6196
13012SOL    HW139976   6.247   5.337   3.973 -0.3840 -0.6978 -0.1243
13012SOL    HW239977   6.220   5.316   4.121  1.2172  0.2308  0.3291
13013SOL     OW39978   1.140   6.690   2.949  0.0980  0.1779  0.8900
13013SOL    HW139979   1.226   6.695   2.990  0.5425 -0.3425  0.0501
13013SOL    HW239980   1.158   6.673   2.857 -0.8480  2.1128  0.2928
13014SOL     OW39981   3.316   2.144   5.139  0.2688  0.0341 -0.2288
13014SOL    HW139982   3.374   2.118   5.067  0.0385 -1.5568  0.1097
13014SOL    HW239983   3.240   2.087   5.129 -0.5088  0.9675  0.2917
13015SOL     OW39984   6.468   0.181   3.438 -0.6276 -0.1763 -0.8701
13015SOL    HW139985   6.379   0.210   3.419 -0.4293  2.3114  1.4203
13015SOL    HW239986   6.465   0.154   3.530  0.9260 -0.3505 -0.8470
13016SOL     OW39987   0.810   5.668   4.336  0.6020  0.1558  0.0398
13016SOL    HW139988   0.851   5.753   4.320  0.0087  0.4379 -0.0406
13016SOL    HW239989   0.880   5.604   4.324  1.5064  0.7394  1.8549
13017SOL     OW39990   2.749   3.383   3.496  0.2668  0.2127  0.3795
13017SOL    HW139991   2.838   3.365   3.466  0.7538  1.3265  1.0745
13017SOL    HW239992   2.702   3.411   3.417 -0.0168 -2.1337 -0.3564
13018SOL     OW39993   4.622   2.095   0.540 -0.3319 -0.0320  0.2249
13018SOL    HW139994   4.564   2.145   0.484 -1.3701  0.2583  1.5055
13018SOL    HW239995   4.700   2.150   0.549 -1.2465  1.1800  1.1906
13019SOL     OW39996   5.355   4.553   2.646  0.3026  0.3270 -0.8150
13019SOL    HW139997   5.268   4.537   2.609  1.0691  1.1039 -3.1544
13019SOL    HW239998   5.339   4.569   2.739 -1.9081 -0.6757 -0.9550
13020SOL     OW39999   0.892   4.006   2.899  0.7025  0.6613  0.8360
13020SOL    HW140000   0.970   3.952   2.884  1.5506  1.7992  0.9542
13020SOL    HW240001   0.871   3.993   2.992 -0.8910 -1.6982  0.2202
13021SOL     OW40002   5.592   7.296   5.325 -0.1069  0.1280 -0.2347
13021SOL    HW140003   5.614   7.353   5.399  0.2579  0.3788 -0.5319
13021SOL    HW240004   5.502   7.318   5.303 -0.6719 -0.8677  0.9613
13022SOL     OW40005   2.524   4.424   3.673  0.2134  0.1716  0.0037
13022SOL    HW140006   2.494   4.513   3.691  0.3571  0.3663 -0.6950
13022SOL    HW240007   2.575   4.431   3.592 -1.4282 -0.8542 -1.1942
13023SOL     OW40008   2.258   3.140   1.212 -0.0990 -0.6194  0.0495
13023SOL    HW140009   2.318   3.126   1.286 -0.2903  2.5500  0.9542
13023SOL    HW240010   2.171   3.130   1.250 -0.1855  0.2893  0.1093
13024SOL     OW40011   4.436   0.803   5.871  0.0555  0.5459 -0.0490
13024SOL    HW140012   4.490   0.725   5.855  0.2105  0.9291 -1.5048
13024SOL    HW240013   4.409   0.832   5.784  1.1120  2.8971  0.3227
13025SOL     OW40014   0.764   0.112   0.868 -0.0736  0.8425  0.5918
13025SOL    HW140015   0.795   0.024   0.846 -0.7295  1.0999 -1.5734
13025SOL    HW240016   0.817   0.171   0.813 -1.2102  1.6232  0.2982
13026SOL     OW40017   4.283   4.240   3.356  0.0737 -0.3762 -0.3194
13026SOL    HW140018   4.333   4.217   3.435  0.8603 -0.1198 -0.7370
13026SOL    HW240019   4.192   4.219   3.379 -0.0424  1.7369  1.4724
13027SOL     OW40020   0.206   1.164   4.853 -0.2164 -0.0856  0.2585
13027SOL    HW140021   0.187   1.146   4.761 -0.6175 -1.2489  0.5529
13027SOL    HW240022   0.255   1.088   4.882 -0.7981 -0.1093  1.2166
13028SOL     OW40023   7.343   0.611   4.207 -0.1025 -0.1986  0.7101
13028SOL    HW140024   7.413   0.588   4.146 -1.7337  0.4883 -1.5307
13028SOL    HW240025   7.294   0.530   4.219 -0.9224  0.0927 -0.5045
13029SOL     OW40026   3.978   1.412   2.620  0.1077 -0.4362  0.4428
13029SOL    HW140027   4.073   1.400   2.620 -0.0214 -1.6499  0.7414
13029SOL    HW240028   3.949   1.373   2.538 -0.4632 -3.6319  2.0023
13030SOL     OW40029   5.424   4.846   2.512 -0.1804  0.0122  0.1402
13030SOL    HW140030   5.337   4.847   2.471 -0.2929 -0.8441  0.3334
13030SOL    HW240031   5.420   4.773   2.573  0.9872 -0.6601 -0.5545
13031SOL     OW40032   6.362   2.178   7.398 -0.0934  0.0703 -0.1169
13031SOL    HW140033   6.384   2.120   7.325  0.0097  1.1668 -0.9734
13031SOL    HW240034   6.441   2.178   7.453  0.4072  0.4525 -0.8226
13032SOL     OW40035   0.659   1.349   0.714 -0.1148  0.0855  0.2231
13032SOL    HW140036   0.612   1.307   0.642 -1.0454 -0.9352  1.3624
13032SOL    HW240037   0.598   1.343   0.788  0.7500  1.2257  1.0562
13033SOL     OW40038   2.404   4.548   3.078 -0.1480  0.2739 -0.0852
13033SOL    HW140039   2.313   4.560   3.106 -0.4890 -1.3437 -0.3754
13033SOL    HW240040   2.404   4.573   2.985 -0.3013  0.2734 -0.0854
13034SOL     OW40041   4.205   6.958   6.563  0.3199  0.1954  0.3759
13034SOL    HW140042   4.273   7.023   6.582 -0.6763  1.1774  0.7073
13034SOL    HW240043   4.173   6.931   6.649  0.6821 -0.7142  0.2390
13035SOL     OW40044   1.299   5.409   6.912 -0.0569 -0.2599 -0.5003
13035SOL    HW140045   1.369   5.409   6.847 -0.1282 -0.6797 -0.5818
13035SOL    HW240046   1.333   5.460   6.985  0.3927 -0.6069 -0.4695
13036SOL     OW40047   4.995   4.550   4.698 -0.3234 -0.4986  0.4734
13036SOL    HW140048   4.908   4.572   4.731  0.0165  0.4258  0.7772
13036SOL    HW240049   5.051   4.621   4.729  0.0717  0.2829 -1.7900
13037SOL     OW40050   1.597   3.946   5.526 -0.1047 -0.1105  0.4557
13037SOL    HW140051   1.617   3.857   5.497 -0.8780  0.3071 -1.5063
13037SOL    HW240052   1.587   3.996   5.445  0.3032  1.7779  1.5139
13038SOL     OW40053   1.303   5.957   1.111 -0.1859 -0.7818 -0.0885
13038SOL    HW140054   1.352   5.967   1.029  0.8126 -0.5694  0.5162
13038SOL    HW240055   1.248   6.035   1.116  0.6734 -0.1700  0.0438
13039SOL     OW40056   3.492   6.016   6.204 -0.1727 -0.2797 -0.0238
13039SOL    HW140057   3.518   5.966   6.280 -1.1661 -1.8412 -0.6712
13039SOL    HW240058   3.572   6.062   6.177  0.3042 -0.0690  1.6347
13040SOL     OW40059   3.073   5.690   3.273  0.3164 -0.2588 -0.2106
13040SOL    HW140060   3.010   5.701   3.345  2.5148 -0.0036  1.7965
13040SOL    HW240061   3.052   5.605   3.235 -1.9230  0.3104 -0.3716
13041SOL     OW40062   1.762   4.056   6.670 -0.0470  0.6188  0.2378
13041SOL    HW140063   1.853   4.064   6.698 -0.2677  1.2959  0.8029
13041SOL    HW240064   1.732   4.147   6.661 -0.5036  0.4046 -0.4894
13042SOL     OW40065   5.060   5.591   5.860  0.1860 -0.2342 -0.3008
13042SOL    HW140066   5.124   5.569   5.793 -0.4478 -0.4803 -0.8404
13042SOL    HW240067   5.034   5.506   5.896  0.9913 -0.0655  0.7121
13043SOL     OW40068   4.083   6.874   6.827 -0.0624  0.0240 -1.0104
13043SOL    HW140069   4.162   6.869   6.882  0.4098 -0.7818 -1.7269
13043SOL    HW240070   4.042   6.956   6.852 -0.6324 -0.9461  1.5669
13044SOL     OW40071   2.084   3.964   4.990  0.0433 -0.0895  0.5735
13044SOL    HW140072   2.170   3.929   4.967 -0.7720 -0.7945 -1.5915
13044SOL    HW240073   2.072   4.040   4.934 -0.1414  0.9649  1.9744
13045SOL     OW40074   7.400   4.030   4.517  0.6610 -0.1683 -0.4505
13045SOL    HW140075   7.333   4.013   4.451 -1.6197  1.8571  1.1637
13045SOL    HW240076   7.434   4.117   4.495  0.6260  0.0732  0.4183
13046SOL     OW40077   7.152   0.548   7.353 -0.1061  0.5414  0.6301
13046SOL    HW140078   7.244   0.573   7.361  0.0386 -0.2278  1.6162
13046SOL    HW240079   7.144   0.510   7.266  0.8582 -0.6564  1.0282
13047SOL     OW40080   6.165   3.929   4.606 -0.1386  0.0840 -0.1712
13047SOL    HW140081   6.217   3.849   4.613 -1.5848 -0.8201  0.8286
13047SOL    HW240082   6.112   3.916   4.527  0.2128  0.4307 -0.4669
13048SOL     OW40083   4.405   1.374   0.397  0.4504 -0.2180 -0.0920
13048SOL    HW140084   4.411   1.440   0.466  1.4666 -0.4825  0.0936
13048SOL    HW240085   4.409   1.291   0.443 -0.6905 -0.4235 -0.3374
13049SOL     OW40086   0.750   6.668   6.265 -0.4048 -0.4587  0.2625
13049SOL    HW140087   0.786   6.622   6.189 -0.6218  0.4926 -0.4331
13049SOL    HW240088   0.723   6.598   6.324  0.8398 -1.2135 -0.0170
13050SOL     OW40089   2.110   0.179   7.071  0.2380  0.3916  0.2303
13050SOL    HW140090   2.197   0.147   7.094 -0.6130 -1.9278  0.5578
13050SOL    HW240091   2.121   0.222   6.986  1.5698 -0.6543 -0.1574
13051SOL     OW40092   5.675   4.965   2.535  0.4653 -0.7073 -0.2003
13051SOL    HW140093   5.742   4.898   2.548 -1.6488 -2.4952  2.5775
13051SOL    HW240094   5.614   4.927   2.473  2.0226  1.0609 -3.0036
13052SOL     OW40095   2.724   2.791   5.304 -0.0597 -0.3127 -0.3502
13052SOL    HW140096   2.702   2.839   5.224 -0.3403 -1.8800 -1.2476
13052SOL    HW240097   2.819   2.782   5.301 -0.0248  0.0161 -0.2714
13053SOL     OW40098   4.709   6.289   6.436  0.6985 -0.3248 -0.8797
13053SOL    HW140099   4.663   6.270   6.517 -0.4173  0.7109 -1.2333
13053SOL    HW240100   4.771   6.359   6.459  1.2731 -0.9052 -0.6547
13054SOL     OW40101   0.818   5.782   3.816 -0.1365  0.5215  0.3061
13054SOL    HW140102   0.724   5.779   3.801 -0.3576  2.0338  1.1981
13054SOL    HW240103   0.857   5.763   3.730 -1.2242 -0.3039 -0.0286
13055SOL     OW40104   2.473   6.727   1.165 -0.0019  0.0436 -0.4710
13055SOL    HW140105   2.546   6.754   1.221  1.2964 -1.2218 -1.4468
13055SOL    HW240106   2.413   6.681   1.224 -0.9363  2.5838  0.6816
13056SOL     OW40107   5.857   2.249   3.643  0.2231 -0.1768  0.2041
13056SOL    HW140108   5.816   2.332   3.618  0.6617 -0.8006 -3.0687
13056SOL    HW240109   5.896   2.266   3.729  0.1862  2.9446 -0.2850
13057SOL     OW40110   5.696   4.993   1.847  0.0750 -0.3988 -0.0286
13057SOL    HW140111   5.784   5.029   1.852  0.0137  0.0953 -1.8889
13057SOL    HW240112   5.652   5.044   1.779 -0.3369 -3.2399 -2.1071
13058SOL     OW40113   6.754   6.539   0.118  0.6222 -0.9184 -0.1196
13058SOL    HW140114   6.773   6.571   0.206 -1.8582  0.2462  0.0731
13058SOL    HW240115   6.831   6.563   0.067  1.3619 -0.0247  1.3439
13059SOL     OW40116   6.308   2.381   2.579  0.0107 -0.3360 -0.6664
13059SOL    HW140117   6.392   2.372   2.535  0.2532 -2.1770  0.1176
13059SOL    HW240118   6.324   2.445   2.648  0.6912 -0.4803 -0.6851
13060SOL     OW40119   6.580   5.756   5.550  0.1619 -0.2385 -0.2528
13060SOL    HW140120   6.662   5.786   5.511 -0.7378  1.9178 -0.6236
13060SOL    HW240121   6.586   5.660   5.548  3.3637 -0.1954  1.2785
13061SOL     OW40122   1.023   3.449   1.489  0.0347 -0.0131  0.6347
13061SOL    HW140123   1.016   3.368   1.540  1.3945  0.5348  1.7653
13061SOL    HW240124   1.082   3.427   1.417 -1.0516 -0.4974 -0.1422
13062SOL     OW40125   3.565   1.368   0.035 -0.9912 -0.3223  0.1242
13062SOL    HW140126   3.621   1.356   0.112 -1.6128  0.1265  0.6609
13062SOL    HW240127   3.567   1.462   0.019  0.9642 -0.6237 -1.8443
13063SOL     OW40128   2.867   1.952   4.687 -0.1894  0.1079 -0.5492
13063SOL    HW140129   2.793   1.953   4.747 -1.0711  0.0895 -1.6112
13063SOL    HW240130   2.901   2.041   4.690  0.3097 -0.1003  0.5948
13064SOL     OW40131   3.948   1.062   0.536  0.0592 -0.0522  0.4767
13064SOL    HW140132   3.999   1.109   0.470 -0.1339  0.9071  1.0011
13064SOL    HW240133   4.013   1.018   0.590  0.3183  0.8045  0.8709
13065SOL     OW40134   4.667   2.585   3.321 -0.5737  0.1379 -0.3435
13065SOL    HW140135   4.755   2.619   3.341 -0.0566 -0.9007 -0.7721
13065SOL    HW240136   4.618   2.662   3.291 -0.3076  1.0365  1.4117
13066SOL     OW40137   1.230   5.170   7.301  0.1597  0.2156  0.5903
13066SOL    HW140138   1.292   5.239   7.326 -0.5407  1.9112 -1.9344
13066SOL    HW240139   1.252   5.151   7.209 -0.9670 -1.5327  0.6458
13067SOL     OW40140   2.467   4.849   4.084 -0.2111  0.0451  0.1964
13067SOL    HW140141   2.482   4.866   3.991  0.9605  1.0916  0.5588
13067SOL    HW240142   2.408   4.774   4.085 -1.0856  0.6547 -1.4079
13068SOL     OW40143   5.514   2.771   3.527 -0.4129  1.0969 -0.2092
13068SOL    HW140144   5.537   2.770   3.434 -0.4165 -0.6447 -0.2346
13068SOL    HW240145   5.583   2.721   3.570 -0.1093  2.3568  0.8373
13069SOL     OW40146   3.320   5.097   0.415  0.1990 -0.0875  0.3954
13069SOL    HW140147   3.343   5.040   0.489  2.1061 -0.2708 -0.2806
13069SOL    HW240148   3.386   5.166   0.418  1.0525 -0.7361 -1.8096
13070SOL     OW40149   0.655   0.891   0.435  0.1481  0.0332 -0.4564
13070SOL    HW140150   0.569   0.894   0.476 -0.3240 -1.2254 -1.2815
13070SOL    HW240151   0.675   0.797   0.428  1.6322  0.2937 -0.1976
13071SOL     OW40152   1.787   4.154   7.387  0.3637 -0.1430 -0.1081
13071SOL    HW140153   1.809   4.131   7.297 -0.9054  0.8648 -0.7021
13071SOL    HW240154   1.792   4.250   7.389  0.3792 -0.1541  0.9058
13072SOL     OW40155   3.313   5.809   2.057  0.4685 -0.0125  0.2919
13072SOL    HW140156   3.316   5.718   2.028  0.9174  0.0424  0.1698
13072SOL    HW240157   3.383   5.852   2.009 -0.0917  0.5221 -0.0723
13073SOL     OW40158   6.608   6.027   0.261  0.3289  0.0073 -0.0611
13073SOL    HW140159   6.600   6.100   0.200 -0.4749 -0.0774 -0.0636
13073SOL    HW240160   6.608   5.949   0.206 -1.6442 -0.1380  0.0980
13074SOL     OW40161   1.823   0.919   4.655  0.2277  0.1488  0.8523
13074SOL    HW140162   1.902   0.929   4.707  0.2181 -1.3394  1.2013
13074SOL    HW240163   1.841   0.968   4.574  0.8120  1.2436  1.6174
13075SOL     OW40164   5.216   2.139   0.476 -0.1185 -0.1889  0.1042
13075SOL    HW140165   5.165   2.145   0.395  0.2943 -0.3180 -0.1695
13075SOL    HW240166   5.303   2.170   0.451 -0.3794  1.2278  0.8551
13076SOL     OW40167   1.732   7.065   3.233  0.0795  0.8483 -0.2551
13076SOL    HW140168   1.693   7.141   3.190  0.7826  1.0306 -0.5831
13076SOL    HW240169   1.807   7.100   3.281 -0.5403  0.6073  0.9268
13077SOL     OW40170   3.842   2.257   2.234 -0.3774  0.3849  0.0853
13077SOL    HW140171   3.791   2.268   2.314 -0.6984  1.4462 -0.2545
13077SOL    HW240172   3.779   2.267   2.163 -0.2750 -1.4576 -0.3290
13078SOL     OW40173   0.736   3.124   7.316 -0.2161  0.6486 -0.4488
13078SOL    HW140174   0.708   3.215   7.307  0.3825  1.0780  1.5841
13078SOL    HW240175   0.659   3.079   7.352  0.1776  0.8595  0.7078
13079SOL     OW40176   3.606   2.691   3.591 -0.3150  0.7245  0.2309
13079SOL    HW140177   3.578   2.625   3.527  0.0345 -0.9452  1.7325
13079SOL    HW240178   3.536   2.757   3.589 -2.1992 -1.1422  0.7180
13080SOL     OW40179   2.661   3.699   6.340 -0.1007 -0.3031 -0.0820
13080SOL    HW140180   2.731   3.696   6.405 -0.2422 -0.2721  0.0722
13080SOL    HW240181   2.581   3.680   6.389 -0.6719  2.7775  0.4136
13081SOL     OW40182   4.951   0.968   1.117 -0.1526  0.2367  0.0468
13081SOL    HW140183   5.045   0.977   1.134 -0.1093  0.3227 -0.2426
13081SOL    HW240184   4.913   1.052   1.143 -0.4360 -0.4730  2.0994
13082SOL     OW40185   5.158   0.318   2.977 -0.1035  0.2112  0.2882
13082SOL    HW140186   5.066   0.338   2.964 -0.3432 -1.2253 -0.4294
13082SOL    HW240187   5.160   0.258   3.052  0.0434 -1.0673 -0.6982
13083SOL     OW40188   6.403   4.513   3.460  0.0262  0.3594 -0.0187
13083SOL    HW140189   6.358   4.429   3.458 -1.5092  1.1362  0.3351
13083SOL    HW240190   6.422   4.533   3.368 -0.0084 -0.1608 -0.1395
13084SOL     OW40191   7.338   7.034   7.174  0.4341 -0.1704 -0.1965
13084SOL    HW140192   7.401   7.105   7.161 -1.2072  0.8687 -3.8663
13084SOL    HW240193   7.254   7.078   7.187 -0.2281 -1.4840  0.2326
13085SOL     OW40194   5.230   5.662   0.795 -0.0039 -0.3619  0.2778
13085SOL    HW140195   5.231   5.575   0.836  1.1505  0.0526  1.1984
13085SOL    HW240196   5.189   5.718   0.861 -0.6559 -0.1804 -0.2754
13086SOL     OW40197   6.030   5.537   5.060 -0.1391  0.5087 -0.1527
13086SOL    HW140198   5.960   5.505   5.117  0.2210 -1.5744 -0.8002
13086SOL    HW240199   5.989   5.544   4.973  0.7338 -2.3312 -0.9091
13087SOL     OW40200   5.943   4.463   1.004 -0.7444 -0.0338 -0.4148
13087SOL    HW140201   5.894   4.410   1.067 -0.5789 -0.9645 -1.0510
13087SOL    HW240202   5.881   4.482   0.934 -0.9615  1.1010  0.0604
13088SOL     OW40203   2.324   6.147   4.902 -0.1911  0.1013 -0.4296
13088SOL    HW140204   2.336   6.190   4.987 -0.2848 -0.3086 -0.2060
13088SOL    HW240205   2.396   6.181   4.848 -0.6365  1.0249 -0.4598
13089SOL     OW40206   4.577   1.728   5.887 -0.4562  0.1117 -0.0609
13089SOL    HW140207   4.592   1.645   5.840 -0.5189  0.4113 -0.6114
13089SOL    HW240208   4.664   1.769   5.890 -0.6175  0.5051 -0.7009
13090SOL     OW40209   4.655   4.613   2.921  0.2255  0.0110  0.1132
13090SOL    HW140210   4.660   4.527   2.878  1.5282 -0.0638  0.3542
13090SOL    HW240211   4.714   4.605   2.997  0.1135  1.0112  0.3193
13091SOL     OW40212   0.617   3.446   2.556  0.5444  0.1039  0.1390
13091SOL    HW140213   0.615   3.509   2.628  1.5417  0.6623 -0.2884
13091SOL    HW240214   0.640   3.499   2.479 -0.7905 -0.4228 -0.6582
13092SOL     OW40215   5.280   0.307   5.630  0.9459 -0.1105 -0.0927
13092SOL    HW140216   5.307   0.224   5.668 -0.8200 -0.5074  0.3576
13092SOL    HW240217   5.185   0.310   5.641  0.9133  1.8018 -0.4333
13093SOL     OW40218   4.208   3.166   6.745  0.9124 -0.0686  0.7061
13093SOL    HW140219   4.277   3.214   6.699 -0.5641  0.2437 -1.3533
13093SOL    HW240220   4.253   3.095   6.790  2.5333 -0.0304 -0.7736
13094SOL     OW40221   4.020   3.583   6.820  0.2420  0.1368 -0.2847
13094SOL    HW140222   4.077   3.628   6.758  2.5702 -0.8783  0.9964
13094SOL    HW240223   4.076   3.566   6.896 -1.2069 -2.6804  0.2800
13095SOL     OW40224   5.446   4.959   3.767 -0.3417 -0.0806 -0.1670
13095SOL    HW140225   5.479   4.944   3.855 -1.1205  0.4857  0.2339
13095SOL    HW240226   5.453   4.873   3.724  0.4837 -0.2466  0.2820
13096SOL     OW40227   0.812   2.406   2.760 -0.0287  0.1653 -0.1799
13096SOL    HW140228   0.792   2.359   2.841  1.7662 -0.8217 -0.2487
13096SOL    HW240229   0.783   2.495   2.776  2.7179  0.7330  2.6908
13097SOL     OW40230   2.180   1.345   4.377  0.6024  0.2201  0.1543
13097SOL    HW140231   2.214   1.402   4.307  1.3015  0.3448  0.5851
13097SOL    HW240232   2.133   1.405   4.435 -0.0710  0.1004 -0.2551
13098SOL     OW40233   1.184   6.549   1.513  0.0034 -0.0331 -0.2731
13098SOL    HW140234   1.169   6.546   1.419  0.3425 -0.4312 -0.3178
13098SOL    HW240235   1.171   6.459   1.542 -0.9270  0.2421  0.1964
13099SOL     OW40236   2.906   2.956   4.513  0.0658 -0.2311  0.0100
13099SOL    HW140237   2.969   2.934   4.581  0.0522 -0.6930 -0.1228
13099SOL    HW240238   2.836   2.891   4.522  0.9502 -1.5035 -1.6190
13100SOL     OW40239   3.295   0.691   1.261 -0.3247 -0.1100  0.0135
13100SOL    HW140240   3.230   0.679   1.191 -0.3719  0.2802 -0.0131
13100SOL    HW240241   3.376   0.712   1.214  0.3870 -2.6944 -0.0866
13101SOL     OW40242   7.398   5.741   6.667  0.1319  0.2644  0.0606
13101SOL    HW140243   7.419   5.795   6.744 -1.0517  1.1433 -0.1888
13101SOL    HW240244   7.312   5.703   6.688 -0.1878  0.4901 -0.7942
13102SOL     OW40245   3.754   6.089   5.613  0.8809  0.1934  0.0380
13102SOL    HW140246   3.808   6.101   5.534 -0.1464  1.0695 -0.5640
13102SOL    HW240247   3.726   5.997   5.609 -1.3002  0.8292 -2.1059
13103SOL     OW40248   5.968   3.907   5.719  0.0760 -0.0025 -0.3343
13103SOL    HW140249   5.927   3.876   5.800  0.5188 -0.9362 -0.4452
13103SOL    HW240250   6.056   3.868   5.721  0.5011  0.9071 -0.7181
13104SOL     OW40251   4.186   0.208   4.686  0.1811  0.6849  0.4336
13104SOL    HW140252   4.184   0.113   4.696  0.0687  0.5204 -0.9281
13104SOL    HW240253   4.213   0.241   4.771  0.2424 -0.5715  0.9168
13105SOL     OW40254   3.800   2.329   2.690 -0.6013  0.2424 -0.5382
13105SOL    HW140255   3.799   2.310   2.784 -2.4661  1.2266 -0.3330
13105SOL    HW240256   3.889   2.362   2.674 -0.2611  0.0945  0.8640
13106SOL     OW40257   1.818   3.365   7.044  0.3041 -0.5558  0.5816
13106SOL    HW140258   1.864   3.397   6.966 -0.2923 -0.0258  0.4335
13106SOL    HW240259   1.737   3.326   7.010 -0.4046  0.5133  0.9808
13107SOL     OW40260   5.173   6.967   4.412  0.2134  0.2182  0.3969
13107SOL    HW140261   5.257   7.003   4.439  1.6799  0.0288 -3.3377
13107SOL    HW240262   5.135   7.033   4.354 -2.7538  0.6812  2.6252
13108SOL     OW40263   4.973   3.764   3.166 -0.0737  0.0534  0.0710
13108SOL    HW140264   5.053   3.813   3.182  0.1584 -0.1764 -0.3834
13108SOL    HW240265   4.992   3.676   3.200 -0.2597  0.0937  0.2851
13109SOL     OW40266   6.383   6.851   5.844 -0.1650 -0.7549 -0.2207
13109SOL    HW140267   6.374   6.877   5.936  0.1975 -0.0504 -0.3813
13109SOL    HW240268   6.303   6.802   5.825 -0.9144  0.3188  0.0667
13110SOL     OW40269   6.317   2.094   2.433  0.4745 -0.4508 -0.3728
13110SOL    HW140270   6.331   2.082   2.339  1.7563 -1.7470 -0.0380
13110SOL    HW240271   6.404   2.087   2.472 -0.1180 -0.5802  0.9904
13111SOL     OW40272   4.322   5.963   2.224 -0.4637  0.0611 -0.3833
13111SOL    HW140273   4.350   6.025   2.291 -1.8127  0.5903 -0.2631
13111SOL    HW240274   4.290   5.887   2.272  0.3785 -0.3808 -0.5048
13112SOL     OW40275   1.447   7.200   1.794  0.6893  0.7622  0.3409
13112SOL    HW140276   1.433   7.117   1.840 -0.1168  0.7828  0.1348
13112SOL    HW240277   1.542   7.211   1.794  0.9321 -0.9949 -1.0893
13113SOL     OW40278   2.454   0.656   2.869 -0.4447 -0.0539 -0.3538
13113SOL    HW140279   2.381   0.594   2.866 -0.7099  0.0536  1.8582
13113SOL    HW240280   2.455   0.687   2.960  2.7447 -0.5202 -0.1277
13114SOL     OW40281   6.816   0.057   5.906  0.1076 -0.2099 -0.2657
13114SOL    HW140282   6.907   0.081   5.887  0.1073  0.3159  0.3460
13114SOL    HW240283   6.816  -0.039   5.906  0.3307 -0.2347 -1.7554
13115SOL     OW40284   5.073   4.852   2.204 -0.1050 -0.0421  0.0667
13115SOL    HW140285   5.073   4.839   2.109  0.7420 -1.9175  0.2886
13115SOL    HW240286   4.980   4.864   2.226 -0.4074 -0.5222 -0.8922
13116SOL     OW40287   0.088   2.612   4.618  0.5817  0.6904  0.0572
13116SOL    HW140288   0.183   2.600   4.613  0.3097 -1.4423 -2.2337
13116SOL    HW240289   0.067   2.667   4.543 -0.3768 -3.3637 -2.9785
13117SOL     OW40290   6.793   6.268   3.607 -0.3053 -0.4252  0.2199
13117SOL    HW140291   6.728   6.298   3.670  0.1787  1.0795  0.0426
13117SOL    HW240292   6.813   6.178   3.634 -1.6942 -0.5621  0.8750
13118SOL     OW40293   4.885   0.502   4.872 -0.3486 -0.2818 -0.4075
13118SOL    HW140294   4.930   0.455   4.942  0.7208 -0.1711 -1.0000
13118SOL    HW240295   4.799   0.460   4.866 -1.2261  0.9639  2.2573
13119SOL     OW40296   4.503   7.252   7.377  0.4247 -0.5073 -0.4477
13119SOL    HW140297   4.506   7.271   7.283  0.9453  0.8248 -0.1765
13119SOL    HW240298   4.581   7.293   7.413 -0.4116  0.0932  0.7574
13120SOL     OW40299   3.004   6.482   1.769  0.4754  0.0889 -0.2919
13120SOL    HW140300   3.082   6.439   1.733  0.0795 -0.3502 -0.6394
13120SOL    HW240301   2.938   6.474   1.700  0.1408  0.5196 -0.0296
13121SOL     OW40302   1.699   4.017   6.952  0.1298  0.0292 -0.1226
13121SOL    HW140303   1.668   4.017   6.862 -0.2430 -1.4281 -0.0261
13121SOL    HW240304   1.628   3.975   7.002  0.4475  0.5602  0.8019
13122SOL     OW40305   1.375   5.596   2.544  0.0819 -0.5314  0.0834
13122SOL    HW140306   1.405   5.676   2.586 -2.2858  0.6698 -0.3042
13122SOL    HW240307   1.357   5.536   2.617  2.3943 -0.9970  0.3512
13123SOL     OW40308   4.873   6.016   7.089  0.0004  0.0461 -0.5606
13123SOL    HW140309   4.807   5.975   7.145 -1.1715  0.5571 -1.5173
13123SOL    HW240310   4.879   6.106   7.121  0.5962 -0.1303 -0.1680
13124SOL     OW40311   5.010   4.614   4.178  0.0649  0.3521  0.0310
13124SOL    HW140312   5.006   4.688   4.239 -0.0443 -0.5358  1.1235
13124SOL    HW240313   4.968   4.647   4.098 -2.1096  0.7438  1.2775
13125SOL     OW40314   5.634   6.076   6.148  0.5899  0.6185 -0.5165
13125SOL    HW140315   5.657   6.006   6.087 -0.7815  0.4489 -0.8805
13125SOL    HW240316   5.545   6.102   6.122  0.8058  2.0001  0.0739
13126SOL     OW40317   1.322   3.278   3.575  0.0094  0.2454  0.0860
13126SOL    HW140318   1.358   3.362   3.601  2.4163 -0.1673 -1.5847
13126SOL    HW240319   1.372   3.214   3.626 -0.8597 -0.2354  0.3493
13127SOL     OW40320   1.863   7.286   1.524 -0.2005 -0.2201 -0.4537
13127SOL    HW140321   1.864   7.191   1.508  0.8691 -0.2047 -0.5121
13127SOL    HW240322   1.808   7.321   1.454 -1.1010 -0.8502 -0.0841
13128SOL     OW40323   6.161   3.303   4.596 -0.0521 -0.2813  0.0381
13128SOL    HW140324   6.227   3.243   4.631 -0.5429  0.0347  1.5849
13128SOL    HW240325   6.169   3.382   4.649  0.1708  0.8397 -1.5682
13129SOL     OW40326   4.538   1.723   0.114  0.0888 -0.0879 -0.7209
13129SOL    HW140327   4.593   1.657   0.072  2.3222  0.2814  1.3939
13129SOL    HW240328   4.571   1.806   0.080 -0.9217  0.0875 -1.3324
13130SOL     OW40329   1.493   4.883   6.092  0.3682  0.1784  0.2265
13130SOL    HW140330   1.538   4.936   6.026 -1.3682 -0.5750 -1.6446
13130SOL    HW240331   1.424   4.940   6.126 -0.4273 -0.2823 -0.5708
13131SOL     OW40332   5.918   1.334   2.360  0.5531 -0.2113 -0.1906
13131SOL    HW140333   5.915   1.360   2.268  0.1049 -1.1559 -0.4617
13131SOL    HW240334   5.826   1.324   2.385  0.5024  2.6325  1.1720
13132SOL     OW40335   0.687   1.105   0.984  0.6785 -0.2280 -0.3511
13132SOL    HW140336   0.614   1.065   0.937  2.2977 -0.3436 -3.0250
13132SOL    HW240337   0.659   1.194   1.003 -0.2358 -0.3436 -1.1089
13133SOL     OW40338   3.373   3.669   2.752  0.2990 -0.8371  0.1462
13133SOL    HW140339   3.331   3.695   2.834 -0.8061 -0.9235 -0.3843
13133SOL    HW240340   3.351   3.739   2.690 -0.5028 -1.7206 -0.5911
13134SOL     OW40341   5.165   1.531   3.206 -0.2784  0.3526 -0.1088
13134SOL    HW140342   5.169   1.477   3.285 -1.2163 -2.2574 -1.7117
13134SOL    HW240343   5.253   1.526   3.170 -0.1234  0.6485  0.2306
13135SOL     OW40344   4.191   2.489   5.304  0.6135  0.1471  0.0730
13135SOL    HW140345   4.123   2.422   5.298  1.3776 -0.5413 -2.5697
13135SOL    HW240346   4.273   2.440   5.306  1.1191  0.9885  0.6503
13136SOL     OW40347   2.169   1.160   3.579 -0.8496 -0.1433  0.7507
13136SOL    HW140348   2.262   1.153   3.601 -0.8086  1.7186  1.3557
13136SOL    HW240349   2.165   1.145   3.484 -0.1367 -1.5950  0.9301
13137SOL     OW40350   6.475   2.766   5.959 -0.1849 -0.5481  0.2612
13137SOL    HW140351   6.441   2.734   5.876  1.7824 -0.5825 -0.5832
13137SOL    HW240352   6.511   2.688   6.001  0.2195 -0.2655  0.4394
13138SOL     OW40353   6.053   2.219   1.243 -0.3945 -0.7449 -0.0651
13138SOL    HW140354   6.108   2.141   1.241 -1.8227 -1.9708  2.9116
13138SOL    HW240355   5.979   2.198   1.185 -0.3348 -1.2383  0.0374
13139SOL     OW40356   5.572   0.455   6.094 -0.3908  0.9927  0.1754
13139SOL    HW140357   5.615   0.483   6.175 -1.2290  2.4661  0.1470
13139SOL    HW240358   5.644   0.443   6.032  0.3835 -1.2494  1.3752
13140SOL     OW40359   3.758   1.870   0.432 -0.1979 -0.4948 -0.5297
13140SOL    HW140360   3.699   1.939   0.402  0.2329 -0.7669 -2.0600
13140SOL    HW240361   3.777   1.818   0.354  0.7451 -1.4106  0.2733
13141SOL     OW40362   7.257   3.379   3.018 -0.2763  0.0921 -0.3172
13141SOL    HW140363   7.312   3.351   3.091  0.0706 -1.0228 -0.9772
13141SOL    HW240364   7.258   3.475   3.021 -0.7225  0.0629  1.4636
13142SOL     OW40365   1.913   3.797   5.238 -0.7466 -0.1735 -0.2901
13142SOL    HW140366   1.876   3.865   5.182 -1.8078 -1.0546 -0.6893
13142SOL    HW240367   1.850   3.787   5.309 -0.9302 -1.1728 -0.5776
13143SOL     OW40368   6.594   6.841   2.625  0.2961 -0.1623 -0.1828
13143SOL    HW140369   6.678   6.799   2.605  0.7208  0.9493 -0.8461
13143SOL    HW240370   6.577   6.818   2.716  0.4173 -1.8895 -0.5574
13144SOL     OW40371   3.190   2.789   1.899 -0.5181 -0.0734 -0.6208
13144SOL    HW140372   3.250   2.818   1.830 -1.8255  1.7620 -1.0924
13144SOL    HW240373   3.245   2.778   1.976  0.6812 -0.1868 -1.4733
13145SOL     OW40374   4.443   1.035   4.912 -0.0260 -0.5403  0.2987
13145SOL    HW140375   4.493   1.034   4.831 -2.1507 -0.9719 -1.0837
13145SOL    HW240376   4.463   0.950   4.953  2.6772  0.5041  1.3785
13146SOL     OW40377   2.058   7.036   4.565 -0.0772  0.3187 -0.9319
13146SOL    HW140378   2.082   6.973   4.497 -0.5674  0.6346 -1.4086
13146SOL    HW240379   2.135   7.042   4.621  0.9387  1.2464 -2.3638
13147SOL     OW40380   0.118   2.429   0.581  0.2568 -0.6140 -0.6858
13147SOL    HW140381   0.196   2.460   0.626  0.9008 -1.9206 -0.8653
13147SOL    HW240382   0.151   2.387   0.502 -0.7010 -0.4243 -1.2021
13148SOL     OW40383   6.794   2.422   6.324 -0.4840 -0.1077 -0.0297
13148SOL    HW140384   6.791   2.454   6.234 -1.2491 -0.4719 -0.1385
13148SOL    HW240385   6.727   2.354   6.328 -0.0621 -0.4978  0.6627
13149SOL     OW40386   0.903   3.985   4.436 -0.5096  0.0903  0.8047
13149SOL    HW140387   0.980   3.956   4.485 -0.2987 -1.9223 -0.5711
13149SOL    HW240388   0.832   3.928   4.466 -0.8176  0.1334  0.1802
13150SOL     OW40389   1.833   6.343   1.941 -0.2746  0.2248 -0.3112
13150SOL    HW140390   1.825   6.437   1.955  0.1237 -0.0852  2.7116
13150SOL    HW240391   1.743   6.310   1.951 -0.2363  0.1771 -0.1130
13151SOL     OW40392   0.088   1.927   3.309 -0.7415  0.5337  0.7006
13151SOL    HW140393   0.094   1.908   3.402 -0.4878 -0.2318  0.5303
13151SOL    HW240394   0.003   1.969   3.298 -2.3637 -2.5414  0.7453
13152SOL     OW40395   3.249   0.997   3.803  0.0259  0.3465 -0.3993
13152SOL    HW140396   3.253   0.936   3.729  0.6681  2.4341 -2.2063
13152SOL    HW240397   3.340   1.021   3.819 -0.2805  1.8500 -0.7061
13153SOL     OW40398   4.639   4.119   2.050 -0.0640 -0.3072  0.2891
13153SOL    HW140399   4.643   4.025   2.031  0.5242  0.0872 -1.7659
13153SOL    HW240400   4.636   4.124   2.146 -0.0913 -2.4130  0.4405
13154SOL     OW40401   2.035   7.171   2.849 -0.5079 -0.5375  0.1034
13154SOL    HW140402   2.100   7.101   2.856  0.0607 -0.3309 -2.2343
13154SOL    HW240403   1.974   7.139   2.783 -2.2979 -0.3104  1.5908
13155SOL     OW40404   5.528   1.744   0.088 -0.1534 -0.0399  0.1665
13155SOL    HW140405   5.517   1.831   0.125 -2.3151  0.7013 -1.9423
13155SOL    HW240406   5.580   1.759   0.008  0.2813 -0.8543  0.2852
13156SOL     OW40407   6.626   0.152   6.730  0.0751  0.5645 -0.0411
13156SOL    HW140408   6.563   0.084   6.709 -0.0377 -0.4204  3.0049
13156SOL    HW240409   6.710   0.117   6.701 -0.2289  0.0116 -0.2626
13157SOL     OW40410   5.624   4.451   5.871 -0.1812 -0.5334 -0.7050
13157SOL    HW140411   5.710   4.472   5.834 -0.0261  1.0324  0.4581
13157SOL    HW240412   5.601   4.528   5.923 -2.3381 -0.8939 -1.0449
13158SOL     OW40413   2.609   4.948   6.079 -0.5327  0.4303 -0.5217
13158SOL    HW140414   2.616   5.022   6.139 -0.7778  1.6093 -1.8830
13158SOL    HW240415   2.618   4.987   5.992  0.2003 -1.2678 -1.2571
13159SOL     OW40416   3.674   0.580   5.277 -0.7404  0.4963 -0.2215
13159SOL    HW140417   3.637   0.580   5.189 -1.0827 -0.7958 -0.1011
13159SOL    HW240418   3.627   0.649   5.323 -0.3724  1.3726 -1.1130
13160SOL     OW40419   6.018   6.932   6.759 -0.0312 -0.0218 -0.3140
13160SOL    HW140420   5.981   6.997   6.699  1.9211  1.3815 -0.0849
13160SOL    HW240421   6.033   6.855   6.704 -2.4867 -0.4064 -0.5619
13161SOL     OW40422   4.764   6.380   4.228 -0.5861  0.1451  0.0270
13161SOL    HW140423   4.762   6.412   4.318 -0.9700  1.9219 -0.5738
13161SOL    HW240424   4.857   6.367   4.208 -0.3115  2.0632 -0.0703
13162SOL     OW40425   6.782   2.795   2.787  0.0428  0.5999  0.3482
13162SOL    HW140426   6.848   2.843   2.837 -0.3101  1.6633 -0.1683
13162SOL    HW240427   6.831   2.725   2.744  0.8541  1.3463  0.0013
13163SOL     OW40428   2.083   1.826   1.433 -0.1001  0.6308  0.0248
13163SOL    HW140429   2.075   1.919   1.409  0.4675  1.0942  1.5089
13163SOL    HW240430   2.172   1.817   1.465 -0.6729 -0.0202  1.5076
13164SOL     OW40431   2.211   2.235   1.932  0.3525  0.3783 -0.0174
13164SOL    HW140432   2.161   2.174   1.986  0.9111 -0.1086 -0.0378
13164SOL    HW240433   2.205   2.319   1.977 -1.1061  0.5055 -0.4134
13165SOL     OW40434   4.254   2.689   4.651  0.4899  0.0539 -0.0242
13165SOL    HW140435   4.221   2.673   4.739 -0.0895 -1.2082 -0.4426
13165SOL    HW240436   4.175   2.694   4.596  0.8580  0.4825 -0.5340
13166SOL     OW40437   2.093   6.854   4.863  0.1958  0.3045  0.3691
13166SOL    HW140438   2.173   6.862   4.811  2.2534 -0.0301  3.2357
13166SOL    HW240439   2.085   6.938   4.909 -1.3313  0.4661 -0.1309
13167SOL     OW40440   4.958   3.208   5.638  0.3151  0.5042 -0.0148
13167SOL    HW140441   5.020   3.156   5.586  0.8040  1.3447 -0.2834
13167SOL    HW240442   4.910   3.260   5.573  0.8378  1.4650  0.3572
13168SOL     OW40443   2.881   4.894   7.094  0.0424 -0.1472  0.5941
13168SOL    HW140444   2.796   4.852   7.109  0.8361 -2.0614  0.0210
13168SOL    HW240445   2.943   4.821   7.087  1.2717  1.0162 -1.9325
13169SOL     OW40446   3.753   0.319   0.882  0.0281 -0.3253 -0.1363
13169SOL    HW140447   3.668   0.361   0.888  1.0974  1.7360  3.4003
13169SOL    HW240448   3.795   0.360   0.806 -1.7223 -0.7870 -1.4289
13170SOL     OW40449   0.116   5.531   4.304  0.1057  0.0170  0.4704
13170SOL    HW140450   0.021   5.536   4.290 -0.0573 -0.6698  1.2696
13170SOL    HW240451   0.142   5.448   4.264  0.0120 -0.8325  2.1251
13171SOL     OW40452   5.968   4.265   0.132  0.2575 -0.9937 -0.0385
13171SOL    HW140453   5.949   4.172   0.141 -2.4828 -0.4962  0.0812
13171SOL    HW240454   5.970   4.281   0.038  2.1254 -1.3597 -0.1055
13172SOL     OW40455   6.298   7.349   2.598  0.0916  0.2979  0.5497
13172SOL    HW140456   6.265   7.265   2.566 -0.3821  0.7737 -0.2619
13172SOL    HW240457   6.325   7.332   2.688 -0.9931 -0.4789  0.7527
13173SOL     OW40458   2.689   3.137   2.054 -0.1081  0.1321  0.0262
13173SOL    HW140459   2.734   3.059   2.087  0.8453  1.1266  1.1984
13173SOL    HW240460   2.758   3.189   2.013  0.0185  1.8964  2.2459
13174SOL     OW40461   3.468   4.430   6.674 -0.0184  0.4893  0.0826
13174SOL    HW140462   3.469   4.394   6.762 -0.3092  1.2637  0.4041
13174SOL    HW240463   3.525   4.371   6.624 -1.1348 -0.9352  0.3977
13175SOL     OW40464   5.570   3.454   5.951 -0.2493  0.3960  0.3780
13175SOL    HW140465   5.529   3.541   5.948 -1.2971 -0.0773  0.6454
13175SOL    HW240466   5.498   3.393   5.933  0.3543 -0.4566  0.7941
13176SOL     OW40467   7.273   5.769   1.736 -0.1001  0.1517 -0.1249
13176SOL    HW140468   7.219   5.696   1.765  0.3641  0.0818  0.5748
13176SOL    HW240469   7.357   5.756   1.779  0.0709  0.9578 -0.1984
13177SOL     OW40470   2.123   5.611   3.127  0.0053 -0.6840 -0.1448
13177SOL    HW140471   2.056   5.679   3.119  0.6431 -0.1053 -0.7221
13177SOL    HW240472   2.146   5.590   3.037 -0.5946 -2.0894  0.0192
13178SOL     OW40473   3.575   4.082   1.914  0.4248 -0.3611 -0.4686
13178SOL    HW140474   3.537   3.997   1.892  1.1848 -0.9848  0.5317
13178SOL    HW240475   3.555   4.138   1.839 -1.0413 -1.1070 -0.6593
13179SOL     OW40476   6.738   6.057   2.360 -0.1754 -0.2429 -0.7083
13179SOL    HW140477   6.667   6.120   2.376  1.2421  0.8854  1.6877
13179SOL    HW240478   6.732   5.996   2.433  2.3695  0.9765  0.6375
13180SOL     OW40479   4.893   2.433   1.569  0.1880 -0.6066 -0.6459
13180SOL    HW140480   4.815   2.489   1.579  0.7474  0.3133 -1.2530
13180SOL    HW240481   4.861   2.355   1.525 -0.8367 -1.3207  1.2502
13181SOL     OW40482   1.472   6.267   7.356  0.1301 -0.4104 -0.0179
13181SOL    HW140483   1.392   6.307   7.390 -0.6020 -1.2597 -0.6867
13181SOL    HW240484   1.541   6.294   7.417 -0.3826  1.5574 -0.2516
13182SOL     OW40485   6.898   4.326   5.639 -0.1248 -0.5228  0.1909
13182SOL    HW140486   6.968   4.372   5.687 -0.6972 -0.8647  1.4062
13182SOL    HW240487   6.929   4.322   5.549  0.2118  1.7078  0.1615
13183SOL     OW40488   3.866   3.712   0.014  0.2903  0.3243  0.1697
13183SOL    HW140489   3.875   3.632   0.066  0.0727  0.4792  0.4542
13183SOL    HW240490   3.774   3.711  -0.013  0.2834  0.4864  0.1903
13184SOL     OW40491   4.941   3.091   6.482 -0.0254 -0.0105  0.4585
13184SOL    HW140492   4.899   3.177   6.470  0.7976  0.2553 -0.6599
13184SOL    HW240493   4.999   3.103   6.557  1.4621  0.9954 -0.7849
13185SOL     OW40494   6.479   2.600   3.876  0.0634 -0.1681  0.3180
13185SOL    HW140495   6.401   2.552   3.847 -0.6106  0.8585  0.3839
13185SOL    HW240496   6.542   2.532   3.899 -0.6871 -1.0142 -0.0829
13186SOL     OW40497   2.770   3.472   4.508  0.0572 -0.7031  0.6358
13186SOL    HW140498   2.709   3.463   4.435 -0.8003 -0.2930  1.3012
13186SOL    HW240499   2.799   3.382   4.525 -0.6168 -0.9454  0.5405
13187SOL     OW40500   5.553   2.145   2.627 -0.2938 -0.1435  0.3252
13187SOL    HW140501   5.637   2.183   2.601  0.3827 -1.7502  0.0001
13187SOL    HW240502   5.577   2.072   2.684 -1.3334 -1.7477 -1.1757
13188SOL     OW40503   6.743   4.467   7.298  0.0714  0.0460 -0.2049
13188SOL    HW140504   6.747   4.539   7.361  0.9402 -0.5850  0.4769
13188SOL    HW240505   6.649   4.449   7.289 -0.0724  0.1135  0.9579
13189SOL     OW40506   3.856   1.497   1.914 -0.5043  0.6133  0.3578
13189SOL    HW140507   3.833   1.503   2.006  1.0632 -2.9311  1.1179
13189SOL    HW240508   3.920   1.568   1.901 -2.7808  2.9715  1.1248
13190SOL     OW40509   2.867   0.551   3.078  0.4286  0.8650  0.2328
13190SOL    HW140510   2.958   0.580   3.074  1.3342 -1.1855  2.8541
13190SOL    HW240511   2.831   0.597   3.154  0.0010 -0.0559  0.6026
13191SOL     OW40512   1.412   3.468   0.342 -0.6042 -0.1108 -0.0653
13191SOL    HW140513   1.502   3.454   0.370 -0.6987  0.4863  0.5725
13191SOL    HW240514   1.413   3.458   0.247  0.1990  0.2473 -0.0965
13192SOL     OW40515   0.378   4.736   0.916  0.0544  0.1663 -0.2415
13192SOL    HW140516   0.296   4.729   0.966  0.7493 -0.2743  0.8904
13192SOL    HW240517   0.395   4.647   0.886  0.1910  0.2254 -0.3376
13193SOL     OW40518   4.208   3.214   7.215 -0.2438 -0.6282 -0.1310
13193SOL    HW140519   4.243   3.253   7.135  1.1794 -1.4799  0.0389
13193SOL    HW240520   4.186   3.124   7.191  2.9249 -1.8608  1.0051
13194SOL     OW40521   4.385   1.084   0.421 -0.4754  0.1284  0.3084
13194SOL    HW140522   4.328   1.067   0.346 -1.3087 -0.2870  1.0203
13194SOL    HW240523   4.473   1.077   0.385 -0.7382 -3.3747 -0.0307
13195SOL     OW40524   3.402   2.842   2.842  0.2153 -0.1673 -0.2147
13195SOL    HW140525   3.355   2.880   2.916  1.1506 -0.0584  0.3408
13195SOL    HW240526   3.335   2.796   2.791 -0.1103 -2.5925  2.1582
13196SOL     OW40527   2.355   2.641   6.560 -0.4810 -0.0163 -0.2175
13196SOL    HW140528   2.416   2.703   6.520 -2.1628  1.8246 -0.1263
13196SOL    HW240529   2.372   2.558   6.516  1.8145  0.4970 -0.4065
13197SOL     OW40530   6.655   3.751   2.851  0.3111 -0.2442 -0.1307
13197SOL    HW140531   6.646   3.835   2.896  0.3888  0.3283 -1.1374
13197SOL    HW240532   6.648   3.685   2.920  2.8887  0.6347  1.1180
13198SOL     OW40533   4.441   2.852   3.557  0.6208 -0.0345 -0.2671
13198SOL    HW140534   4.465   2.760   3.563  1.4174  0.2322  1.0706
13198SOL    HW240535   4.483   2.893   3.632  0.3097  1.4345 -0.8478
13199SOL     OW40536   0.342   5.170   2.016  0.1297 -0.1981 -0.3452
13199SOL    HW140537   0.302   5.235   2.073 -0.1255  0.2768 -1.0527
13199SOL    HW240538   0.269   5.136   1.964  0.3402 -0.7149 -0.3068
13200SOL     OW40539   7.093   4.854   1.264 -0.7392  0.5132 -0.3412
13200SOL    HW140540   7.022   4.909   1.229 -2.3819  0.8281  3.0626
13200SOL    HW240541   7.061   4.764   1.251 -0.3334  0.5256 -1.5034
13201SOL     OW40542   3.494   6.818   4.722 -0.0985  0.1783  0.3386
13201SOL    HW140543   3.523   6.844   4.635 -0.1301 -0.2426  0.2022
13201SOL    HW240544   3.519   6.892   4.778 -0.4672  0.6373 -0.0941
13202SOL     OW40545   2.543   2.529   0.773  0.2005 -0.1081  1.0339
13202SOL    HW140546   2.596   2.602   0.741 -0.6800  0.0444 -0.1594
13202SOL    HW240547   2.592   2.451   0.750 -0.4857 -0.0201 -1.0064
13203SOL     OW40548   0.928   2.189   0.937 -0.1722 -0.5323  0.2495
13203SOL    HW140549   0.985   2.233   0.874  2.7698  0.0369  3.0464
13203SOL    HW240550   0.949   2.096   0.928 -0.4000 -0.5359 -0.2198
13204SOL     OW40551   5.377   0.426   2.472 -0.6387 -0.3002 -0.0963
13204SOL    HW140552   5.452   0.464   2.519  1.6306 -0.1906 -3.4293
13204SOL    HW240553   5.303   0.482   2.495  0.9873  1.5399  0.9685
13205SOL     OW40554   4.370   7.354   0.353  0.4074 -0.0483  0.3989
13205SOL    HW140555   4.438   7.343   0.287  0.1209  3.7515 -0.8123
13205SOL    HW240556   4.288   7.341   0.305  0.2163 -1.0158  0.9678
13206SOL     OW40557   4.854   3.550   0.160  0.0528 -0.2485 -0.4906
13206SOL    HW140558   4.770   3.525   0.120  0.5836 -0.9326 -1.2042
13206SOL    HW240559   4.847   3.645   0.174 -0.3405 -0.0715 -1.7748
13207SOL     OW40560   1.395   0.428   2.703  0.1049 -0.1906  0.1859
13207SOL    HW140561   1.333   0.357   2.718 -0.1849  0.2858  1.3188
13207SOL    HW240562   1.354   0.482   2.635 -0.4697 -0.1760  0.5414
13208SOL     OW40563   1.114   5.684   0.219  0.1144 -0.0026  0.1166
13208SOL    HW140564   1.173   5.647   0.284 -0.5831  1.2899  1.5394
13208SOL    HW240565   1.167   5.691   0.139  0.9629 -1.6596  0.4948
13209SOL     OW40566   2.928   5.006   6.710 -0.2847  0.5174  0.5618
13209SOL    HW140567   2.923   5.089   6.664  1.1516 -0.3387 -1.2741
13209SOL    HW240568   2.837   4.975   6.714 -0.7282  1.7824  0.5688
13210SOL     OW40569   4.301   7.011   1.207  0.6182  0.1706  0.0848
13210SOL    HW140570   4.312   7.038   1.298  3.3989 -0.2069 -0.0305
13210SOL    HW240571   4.278   7.091   1.160 -0.8501  0.3646  1.0824
13211SOL     OW40572   2.066   1.318   6.634  0.5369  0.2903 -0.3444
13211SOL    HW140573   2.008   1.371   6.688  1.2161 -0.3448  1.0938
13211SOL    HW240574   2.052   1.349   6.545 -1.2870  0.7959  0.0721
13212SOL     OW40575   3.772   4.427   1.260 -0.5685  0.5546 -0.2404
13212SOL    HW140576   3.839   4.422   1.192 -1.7661  2.7283 -1.6682
13212SOL    HW240577   3.814   4.478   1.330 -0.4859  1.3830 -0.8713
13213SOL     OW40578   0.804   5.849   5.904  0.0942 -0.1013  0.2452
13213SOL    HW140579   0.819   5.790   5.978 -0.9275 -1.5500 -0.6430
13213SOL    HW240580   0.732   5.905   5.932 -0.4214 -0.7760  0.3020
13214SOL     OW40581   3.693   4.424   0.673 -0.3328 -0.0085 -0.3071
13214SOL    HW140582   3.780   4.400   0.642 -0.7965 -1.4652 -0.5759
13214SOL    HW240583   3.702   4.435   0.767 -0.4546 -3.5516  0.2715
13215SOL     OW40584   4.614   0.846   5.607 -1.1777 -0.1182 -0.6279
13215SOL    HW140585   4.636   0.791   5.532 -0.3932  0.3183 -0.7367
13215SOL    HW240586   4.680   0.915   5.605 -2.4404  1.1077 -0.7754
13216SOL     OW40587   2.209   2.109   3.969 -0.1028 -0.1441  0.0113
13216SOL    HW140588   2.195   2.083   3.877  0.6306 -1.3462  0.2144
13216SOL    HW240589   2.123   2.098   4.010 -0.2744 -0.2813 -0.3734
13217SOL     OW40590   4.992   6.940   0.161  0.0580  0.2759  0.2180
13217SOL    HW140591   4.933   6.890   0.105  1.2328  0.0123 -0.8423
13217SOL    HW240592   5.001   7.025   0.118 -0.8173  0.9264  1.2600
13218SOL     OW40593   1.997   3.513   6.509  0.3837 -0.2750 -0.1346
13218SOL    HW140594   2.021   3.455   6.582  2.2222  2.1091  1.2889
13218SOL    HW240595   1.949   3.584   6.550  0.1875  0.3972 -1.4895
13219SOL     OW40596   2.828   2.142   6.342  0.0094  0.1410  0.1530
13219SOL    HW140597   2.833   2.052   6.374  1.3052  0.3360  0.5274
13219SOL    HW240598   2.794   2.192   6.416  1.6146  0.3473  0.7834
13220SOL     OW40599   5.748   4.851   1.463  0.0157  0.2025  0.7401
13220SOL    HW140600   5.676   4.912   1.448 -1.2807 -1.2599  0.8647
13220SOL    HW240601   5.711   4.765   1.448  2.1758 -0.5385 -0.8348
13221SOL     OW40602   2.901   2.874   4.790 -0.0506  0.0015 -0.1444
13221SOL    HW140603   2.828   2.936   4.785 -0.4011 -0.1915  1.7160
13221SOL    HW240604   2.867   2.792   4.755 -0.0590  0.4359 -1.1928
13222SOL     OW40605   4.266   7.337   2.799  0.2010  0.3389 -0.1790
13222SOL    HW140606   4.223   7.381   2.725 -0.6739 -1.0473 -0.5343
13222SOL    HW240607   4.232   7.382   2.876 -0.3670  0.5646 -0.5511
13223SOL     OW40608   1.419   4.231   4.309  0.2867  0.3615 -0.2533
13223SOL    HW140609   1.451   4.283   4.382 -1.2802 -1.4869  1.9062
13223SOL    HW240610   1.493   4.175   4.284  0.5784  0.3899  0.5423
13224SOL     OW40611   2.422   7.040   6.203 -0.7284 -0.0877  0.3606
13224SOL    HW140612   2.443   6.947   6.205  0.8318  0.2517  0.6600
13224SOL    HW240613   2.355   7.051   6.271 -2.5952 -1.3252 -1.1698
13225SOL     OW40614   2.306   2.644   3.044 -0.4651 -0.0719 -0.4227
13225SOL    HW140615   2.261   2.715   3.091  1.8740  0.7163  0.7546
13225SOL    HW240616   2.309   2.572   3.107 -0.1499 -0.1412 -0.5177
13226SOL     OW40617   0.326   3.286   0.801 -0.0503  0.1952 -0.5983
13226SOL    HW140618   0.361   3.300   0.889  0.1481  0.0922 -0.6608
13226SOL    HW240619   0.312   3.374   0.767  0.6380  0.2431 -0.7667
13227NA      NA40620   0.157   4.696   6.239  0.1195  0.3471 -0.7926
13228NA      NA40621   5.468   6.687   4.566  0.4558 -0.1911  0.1540
13229NA      NA40622   0.948   3.169   7.356 -0.5680 -0.2636  0.1017
13230NA      NA40623   2.031   6.338   4.968  0.3634 -0.3198 -0.0765
13231NA      NA40624   5.286   0.423   0.252 -0.2638 -0.7843  0.7958
13232NA      NA40625   0.575   0.974   5.604  0.1043  0.1909  0.1207
13233NA      NA40626   3.307   6.013   3.586 -0.1095  0.1555 -0.0031
13234NA      NA40627   3.316   7.377   2.904  0.2465 -0.3955 -0.4169
13235NA      NA40628   4.484   4.778   3.572  0.2606 -0.0354  0.4600
13236NA      NA40629   0.211   4.357   0.041  0.2453  0.1490  0.4422
13237NA      NA40630   3.072   1.836   2.523  0.5886  0.1831  0.0292
13238NA      NA40631   4.998   2.914   6.352 -0.5321 -0.2517 -0.3449
13239NA      NA40632   3.869   5.157   3.888 -0.3428  0.0572 -0.5860
13240NA      NA40633   1.538   4.033   1.197  0.3750 -0.1769  0.0027
13241NA      NA40634   1.291   0.499   5.399 -0.1082 -0.1948 -0.1003
13242NA      NA40635   0.827   1.483   0.738 -0.1480 -0.1743  0.3877
13243NA      NA40636   5.857   5.222   0.128  0.6148  0.1068 -0.1701
13244NA      NA40637   5.199   2.695   1.624 -0.0301 -0.1576 -0.1829
13245NA      NA40638   3.424   1.244   6.381  0.3624  0.0412  0.3470
13246NA      NA40639   2.861   3.505   3.047 -0.3095 -0.3068  0.3041
13247NA      NA40640   0.633   2.306   2.090 -0.3517 -0.2233  0.0383
13248NA      NA40641   5.170   6.542   1.798 -0.2482  0.4724 -0.4252
13249NA      NA40642   1.042   4.083   6.947  0.0964  0.2268 -0.1477
13250NA      NA40643   0.841   4.994   3.429 -0.2178 -0.2631 -0.1990
13251NA      NA40644   1.707   7.058   1.103 -0.0319  0.1837 -0.2047
13252NA      NA40645   5.535   4.344   0.107 -0.0374  0.0135  0.4096
13253NA      NA40646   5.155   5.649   6.643 -0.0561  0.1281 -0.3360
13254NA      NA40647   5.036   0.600   4.507 -0.2328  0.2245 -0.1947
13255NA      NA40648   1.717   4.214   6.155  0.0079  0.1278 -0.2249
13256NA      NA40649   3.871   5.154   6.000  0.2729  0.1438 -0.2883
13257NA      NA40650   3.591   2.784   2.790 -0.4339 -0.2026  0.3734
13258NA      NA40651   6.847   0.563   2.705  0.2956  0.1479  0.5089
13259NA      NA40652   2.832   6.576   0.317 -0.3284  0.4055 -0.3444
13260NA      NA40653   4.153   4.012   0.167 -0.1526  0.7366  0.1010
13261NA      NA40654   2.406   3.701   5.642 -0.5226  0.3161  0.0957
13262NA      NA40655   3.911   1.324   4.160  0.0972  0.1946  0.3079
13263NA      NA40656   4.616   1.146   2.232  0.7487 -0.0305  0.1655
13264NA      NA40657   3.930   5.988   7.052  0.2214 -0.2522  0.5915
13265NA      NA40658   2.950   2.625   3.140 -0.3015  0.4934 -0.1322
13266NA      NA40659   5.344   0.464   3.014 -0.0434  0.1996  0.3036
13267CL      CL40660   6.183   0.448   6.598  0.2635  0.0046 -0.0176
13268CL      CL40661   2.654   4.943   3.050  0.1749 -0.0497  0.0192
13269CL      CL40662   7.230   2.125   3.047 -0.0965  0.0741 -0.0227
13270CL      CL40663   4.604   5.829   0.178  0.0817 -0.5265  0.2791
13271CL      CL40664   3.965   3.646   4.964 -0.1425 -0.2165  0.1133
13272CL      CL40665   1.275   2.670   1.357 -0.1598 -0.1390  0.3009
13273CL      CL40666   3.787   5.231   1.412 -0.1140  0.1757  0.0215
13274CL      CL40667   6.747   3.003   0.734  0.0154  0.3790 -0.1340
13275CL      CL40668   2.468   0.768   2.350 -0.1124 -0.1490  0.1688
13276CL      CL40669   0.368   6.066   0.943  0.8259  0.4160  0.0668
13277CL      CL40670   4.143   6.453   4.962  0.0835  0.3445  0.1061
13278CL      CL40671   6.849   4.060   4.124  0.0242 -0.0560 -0.0711
13279CL      CL40672   2.963   1.203   6.218  0.3807 -0.5029  0.2940
13280CL      CL40673   5.177   3.089   2.575  0.1793  0.3018 -0.0484
13281CL      CL40674   1.046   5.437   6.236 -0.1688 -0.2079 -0.2055
13282CL      CL40675   3.896   3.837   1.844 -0.1255 -0.3236 -0.2019
13283CL      CL40676   1.269   1.934   7.313  0.3280 -0.3374 -0.1271
13284CL      CL40677   0.971   7.354   1.284  0.3085  0.3339  0.0973
13285CL      CL40678   5.524   0.868   0.523  0.2336  0.1045 -0.1827
13286CL      CL40679   1.491   6.064   3.665 -0.1915 -0.1067 -0.1977
13287CL      CL40680   0.727   6.523   2.850  0.1002  0.1075  0.0227
13288CL      CL40681   5.474   2.269   0.413  0.0107 -0.3497 -0.4385
13289CL      CL40682   6.538   4.111   6.689  0.2284 -0.0485 -0.6313
13290CL      CL40683   2.704   4.940   5.127 -0.0280 -0.0176  0.2472
13291CL      CL40684   5.529   5.258   7.163 -0.1141  0.1374 -0.1214
13292CL      CL40685   2.636   1.658   3.344 -0.0491  0.2239  0.0405
13293CL      CL40686   7.367   2.454   1.460 -0.1320 -0.2010 -0.1961
13294CL      CL40687   1.095   6.522   0.370 -0.0033 -0.0459 -0.4196
13295CL      CL40688   3.107   1.849   2.756 -0.0719 -0.0608  0.1864
13296CL      CL40689   5.922   3.128   1.017 -0.2371  0.5287  0.0815
13297CL      CL40690   2.580   4.802   0.257 -0.1983 -0.2537 -0.1096
13298CL      CL40691   0.476   5.516   6.967  0.5722 -0.3901 -0.1549
13299CL      CL40692   5.618   1.338   0.547 -0.2587 -0.1303  0.0318
13300CL      CL40693   2.643   6.613   0.159 -0.1424  0.1012 -0.0308
13301CL      CL40694   1.684   1.185   3.323 -0.0421 -0.5222  0.1218
13302CL      CL40695   1.167   6.959   0.957 -0.0745 -0.0040 -0.0045
13303CL      CL40696   6.380   5.355   2.544  0.1546 -0.0879  0.1130
13304CL      CL40697   2.559   6.581   4.026  0.2868 -0.3727 -0.1324
13305CL      CL40698   5.198   5.947   2.002 -0.0695  0.5819 -0.1318
13306CL      CL40699   4.089   5.221   3.872  0.0894 -0.3781 -0.0712
13307CL      CL40700   1.291   2.847   4.920 -0.1330  0.1655  0.3533
13308CL      CL40701   4.768   7.339   5.649 -0.1841  0.3661 -0.3059
13309CL      CL40702   3.365   7.372   3.129 -0.1659  0.1868  0.4574
13310CL      CL40703   2.154   1.616   7.193 -0.0971  0.5954 -0.1683
13311CL      CL40704   6.565   4.278   0.082 -0.0594  0.4795 -0.2261
13312CL      CL40705   3.418   4.054   5.015  0.2449 -0.0795 -0.1136
13313CL      CL40706   4.287   0.369   1.900 -0.0118  0.0988 -0.1514
13314CL      CL40707   5.674   1.840   1.643  0.3869 -0.3043 -0.3853
13315CL      CL40708   4.232   1.307   4.777  0.1269 -0.0148 -0.1058
13316CL      CL40709   5.109   1.407   2.463  0.0265 -0.2714 -0.0159
13317CL      CL40710   0.564   4.560   2.259  0.5033  0.0829  0.2747
13318CL      CL40711   4.261   7.426   7.040 -0.3138  0.1159  0.0789
13319CL      CL40712   6.205   0.379   0.616  0.0571 -0.0174 -0.1096
13320CL      CL40713   1.269   2.132   2.280  0.0117 -0.1364  0.1630
13321CL      CL40714   2.878   1.860   2.384 -0.4549  0.2560  0.1315
13322CL      CL40715   5.781   7.157   2.412  0.0566  0.5538 -0.5089
13323CL      CL40716   1.064   0.399   4.759 -0.0609  0.2840  0.0718
13324CL      CL40717   0.730   3.214   2.209 -0.2707  0.0478  0.4836
13325CL      CL40718   2.929   1.525   1.976  0.4452  0.1289 -0.0571
13326CL      CL40719   0.899   7.268   7.413 -0.1728  0.1695 -0.1432
13327CL      CL40720   5.213   6.799   6.988  0.1758 -0.0398  0.1340
13328CL      CL40721   1.842   0.226   0.049 -0.7678  0.1306 -0.0812
13329CL      CL40722   5.820   2.620   6.181 -0.2059 -0.1225 -0.1269
13330CL      CL40723   0.719   3.137   3.102 -0.3769  0.0388  0.2544
13331CL      CL40724   6.947   3.803   0.453 -0.2518  0.3201  0.2064
13332CL      CL40725   6.792   0.458   1.281 -0.5274 -0.0759  0.2005
13333CL      CL40726   0.409   0.546   0.083  0.1094 -0.1088 -0.3451
13334CL      CL40727   0.376   1.713   2.873  0.2404  0.5727 -0.1587
13335CL      CL40728   6.707   0.493   2.532  0.2109 -0.0930  0.0302
13336CL      CL40729   6.452   6.474   6.846  0.0245 -0.0393 -0.3374
13337CL      CL40730   0.436   4.778   6.615 -0.0339  0.0116 -0.5507
13338CL      CL40731   3.886   0.664   6.114 -0.2037  0.2385 -0.5288
   7.42980   7.42980   7.42980
