;
;   File g2.5Ncore_coo-petim.itp  was generated
;   By user: sairam (1000)
;   On host: sairam
;   At date: Thu. August  4 10:40:49 2023
;
;   This is a standalone topology file
;
;   Created by:
;   ParmEd:       amb2gro_top_gro.py, VERSION 3.4.1
;   Executable:   amb2gro_top_gro.py
;   Library dir:  /usr/local/gromacs/share/gromacs/top
;   Command line:
;     ./amb2gro_top_gro.py -p g2.5Ncore_coo-petim.prmtop -c g2.5Ncore_coo-petim.inpcrd -t g2.5Ncore_coo-petim.itp -g g2.5Ncore_coo-petim.gro -b g2.5Ncore_coo-petim.pdb
;

;[ defaults ]
;; nbfunc        comb-rule       gen-pairs       fudgeLJ fudgeQQ
;1               2               yes             0.5          0.83333333  
;
;[ atomtypes ]
;; name    at.num    mass    charge ptype  sigma      epsilon
;n3             7  14.010000  0.00000000  A     0.32499985        0.71128
;c3             6  12.010000  0.00000000  A     0.33996695      0.4577296
;h1             1   1.008000  0.00000000  A      0.2471353      0.0656888
;hc             1   1.008000  0.00000000  A     0.26495328      0.0656888
;os             8  16.000000  0.00000000  A     0.30000123        0.71128
;c              6  12.010000  0.00000000  A     0.33996695       0.359824
;o              8  16.000000  0.00000000  A     0.29599219        0.87864


[ moleculetype ]
; Name            nrexcl
g2.5Ncore_coo-petim    3

[ atoms ]
;   nr       type  resnr residue  atom   cgnr    charge       mass  typeB    chargeB      massB
; residue    1 aaa rtp aaa q 0.0
    1         n3      1    aaa     N1      1 -0.65416500  14.010000   ; qtot -0.654165
    2         c3      1    aaa     C1      2 0.05178400  12.010000   ; qtot -0.602381
    3         h1      1    aaa     H1      3 0.06475500   1.008000   ; qtot -0.537626
    4         h1      1    aaa     H2      4 0.06475500   1.008000   ; qtot -0.472871
    5         c3      1    aaa     C2      5 0.05178400  12.010000   ; qtot -0.421087
    6         h1      1    aaa     H3      6 0.06475500   1.008000   ; qtot -0.356332
    7         h1      1    aaa     H4      7 0.06475500   1.008000   ; qtot -0.291577
    8         c3      1    aaa     C3      8 0.05178400  12.010000   ; qtot -0.239793
    9         h1      1    aaa     H5      9 0.06475500   1.008000   ; qtot -0.175038
   10         h1      1    aaa     H6     10 0.06475500   1.008000   ; qtot -0.110283
   11         c3      1    aaa     C4     11 0.07871100  12.010000   ; qtot -0.031572
   12         hc      1    aaa     H7     12 0.08683700   1.008000   ; qtot 0.055265
   13         hc      1    aaa     H8     13 0.08683700   1.008000   ; qtot 0.142102
   14         c3      1    aaa     C5     14 0.07871100  12.010000   ; qtot 0.220813
   15         hc      1    aaa     H9     15 0.08683700   1.008000   ; qtot 0.307650
   16         hc      1    aaa    H10     16 0.08683700   1.008000   ; qtot 0.394487
   17         c3      1    aaa     C6     17 0.07871100  12.010000   ; qtot 0.473198
   18         hc      1    aaa    H11     18 0.08683700   1.008000   ; qtot 0.560035
   19         hc      1    aaa    H12     19 0.08683700   1.008000   ; qtot 0.646872
   20         c3      1    aaa     C7     20 -0.74941200  12.010000   ; qtot -0.102540
   21         h1      1    aaa    H13     21 0.26689400   1.008000   ; qtot 0.164354
   22         h1      1    aaa    H14     22 0.26689400   1.008000   ; qtot 0.431248
   23         c3      1    aaa     C8     23 -0.74941200  12.010000   ; qtot -0.318164
   24         h1      1    aaa    H15     24 0.26689400   1.008000   ; qtot -0.051270
   25         h1      1    aaa    H16     25 0.26689400   1.008000   ; qtot 0.215624
   26         c3      1    aaa     C9     26 -0.74941200  12.010000   ; qtot -0.533788
   27         h1      1    aaa    H17     27 0.26689400   1.008000   ; qtot -0.266894
   28         h1      1    aaa    H18     28 0.26689400   1.008000   ; qtot 0.000000
; residue    2 bbb rtp bbb q -0.0
   29         n3      2    bbb     N1     29 -0.59685800  14.010000   ; qtot -0.596858
   30         c3      2    bbb     C1     30 0.10137000  12.010000   ; qtot -0.495488
   31         h1      2    bbb     H1     31 0.04411300   1.008000   ; qtot -0.451375
   32         h1      2    bbb     H2     32 0.04411300   1.008000   ; qtot -0.407262
   33         c3      2    bbb     C2     33 0.10137000  12.010000   ; qtot -0.305892
   34         h1      2    bbb     H3     34 0.04411300   1.008000   ; qtot -0.261779
   35         h1      2    bbb     H4     35 0.04411300   1.008000   ; qtot -0.217666
   36         c3      2    bbb     C3     36 -0.00195300  12.010000   ; qtot -0.219619
   37         h1      2    bbb     H5     37 0.05064400   1.008000   ; qtot -0.168975
   38         h1      2    bbb     H6     38 0.05064400   1.008000   ; qtot -0.118331
   39         c3      2    bbb     C4     39 -0.01612100  12.010000   ; qtot -0.134452
   40         hc      2    bbb     H7     40 0.04936100   1.008000   ; qtot -0.085091
   41         hc      2    bbb     H8     41 0.04936100   1.008000   ; qtot -0.035730
   42         c3      2    bbb     C5     42 0.11363000  12.010000   ; qtot 0.077900
   43         hc      2    bbb     H9     43 0.06265900   1.008000   ; qtot 0.140559
   44         hc      2    bbb    H10     44 0.06265900   1.008000   ; qtot 0.203218
   45         c3      2    bbb     C6     45 0.11363000  12.010000   ; qtot 0.316848
   46         hc      2    bbb    H11     46 0.06265900   1.008000   ; qtot 0.379507
   47         hc      2    bbb    H12     47 0.06265900   1.008000   ; qtot 0.442166
   48         c3      2    bbb     C7     48 0.05858200  12.010000   ; qtot 0.500748
   49         h1      2    bbb    H13     49 0.06123400   1.008000   ; qtot 0.561982
   50         h1      2    bbb    H14     50 0.06123400   1.008000   ; qtot 0.623216
   51         c3      2    bbb     C8     51 -0.72423400  12.010000   ; qtot -0.101018
   52         h1      2    bbb    H15     52 0.25637600   1.008000   ; qtot 0.155358
   53         h1      2    bbb    H16     53 0.25637600   1.008000   ; qtot 0.411734
   54         c3      2    bbb     C9     54 -0.72423400  12.010000   ; qtot -0.312500
   55         h1      2    bbb    H17     55 0.25637600   1.008000   ; qtot -0.056124
   56         h1      2    bbb    H18     56 0.25637600   1.008000   ; qtot 0.200252
   57         os      2    bbb     O1     57 -0.20025300  16.000000   ; qtot -0.000001
; residue    3 bbb rtp bbb q -0.0
   58         n3      3    bbb     N1     58 -0.59685800  14.010000   ; qtot -0.596859
   59         c3      3    bbb     C1     59 0.10137000  12.010000   ; qtot -0.495489
   60         h1      3    bbb     H1     60 0.04411300   1.008000   ; qtot -0.451376
   61         h1      3    bbb     H2     61 0.04411300   1.008000   ; qtot -0.407263
   62         c3      3    bbb     C2     62 0.10137000  12.010000   ; qtot -0.305893
   63         h1      3    bbb     H3     63 0.04411300   1.008000   ; qtot -0.261780
   64         h1      3    bbb     H4     64 0.04411300   1.008000   ; qtot -0.217667
   65         c3      3    bbb     C3     65 -0.00195300  12.010000   ; qtot -0.219620
   66         h1      3    bbb     H5     66 0.05064400   1.008000   ; qtot -0.168976
   67         h1      3    bbb     H6     67 0.05064400   1.008000   ; qtot -0.118332
   68         c3      3    bbb     C4     68 -0.01612100  12.010000   ; qtot -0.134453
   69         hc      3    bbb     H7     69 0.04936100   1.008000   ; qtot -0.085092
   70         hc      3    bbb     H8     70 0.04936100   1.008000   ; qtot -0.035731
   71         c3      3    bbb     C5     71 0.11363000  12.010000   ; qtot 0.077899
   72         hc      3    bbb     H9     72 0.06265900   1.008000   ; qtot 0.140558
   73         hc      3    bbb    H10     73 0.06265900   1.008000   ; qtot 0.203217
   74         c3      3    bbb     C6     74 0.11363000  12.010000   ; qtot 0.316847
   75         hc      3    bbb    H11     75 0.06265900   1.008000   ; qtot 0.379506
   76         hc      3    bbb    H12     76 0.06265900   1.008000   ; qtot 0.442165
   77         c3      3    bbb     C7     77 0.05858200  12.010000   ; qtot 0.500747
   78         h1      3    bbb    H13     78 0.06123400   1.008000   ; qtot 0.561981
   79         h1      3    bbb    H14     79 0.06123400   1.008000   ; qtot 0.623215
   80         c3      3    bbb     C8     80 -0.72423400  12.010000   ; qtot -0.101019
   81         h1      3    bbb    H15     81 0.25637600   1.008000   ; qtot 0.155357
   82         h1      3    bbb    H16     82 0.25637600   1.008000   ; qtot 0.411733
   83         c3      3    bbb     C9     83 -0.72423400  12.010000   ; qtot -0.312501
   84         h1      3    bbb    H17     84 0.25637600   1.008000   ; qtot -0.056125
   85         h1      3    bbb    H18     85 0.25637600   1.008000   ; qtot 0.200251
   86         os      3    bbb     O1     86 -0.20025300  16.000000   ; qtot -0.000002
; residue    4 bbb rtp bbb q -0.0
   87         n3      4    bbb     N1     87 -0.59685800  14.010000   ; qtot -0.596860
   88         c3      4    bbb     C1     88 0.10137000  12.010000   ; qtot -0.495490
   89         h1      4    bbb     H1     89 0.04411300   1.008000   ; qtot -0.451377
   90         h1      4    bbb     H2     90 0.04411300   1.008000   ; qtot -0.407264
   91         c3      4    bbb     C2     91 0.10137000  12.010000   ; qtot -0.305894
   92         h1      4    bbb     H3     92 0.04411300   1.008000   ; qtot -0.261781
   93         h1      4    bbb     H4     93 0.04411300   1.008000   ; qtot -0.217668
   94         c3      4    bbb     C3     94 -0.00195300  12.010000   ; qtot -0.219621
   95         h1      4    bbb     H5     95 0.05064400   1.008000   ; qtot -0.168977
   96         h1      4    bbb     H6     96 0.05064400   1.008000   ; qtot -0.118333
   97         c3      4    bbb     C4     97 -0.01612100  12.010000   ; qtot -0.134454
   98         hc      4    bbb     H7     98 0.04936100   1.008000   ; qtot -0.085093
   99         hc      4    bbb     H8     99 0.04936100   1.008000   ; qtot -0.035732
  100         c3      4    bbb     C5    100 0.11363000  12.010000   ; qtot 0.077898
  101         hc      4    bbb     H9    101 0.06265900   1.008000   ; qtot 0.140557
  102         hc      4    bbb    H10    102 0.06265900   1.008000   ; qtot 0.203216
  103         c3      4    bbb     C6    103 0.11363000  12.010000   ; qtot 0.316846
  104         hc      4    bbb    H11    104 0.06265900   1.008000   ; qtot 0.379505
  105         hc      4    bbb    H12    105 0.06265900   1.008000   ; qtot 0.442164
  106         c3      4    bbb     C7    106 0.05858200  12.010000   ; qtot 0.500746
  107         h1      4    bbb    H13    107 0.06123400   1.008000   ; qtot 0.561980
  108         h1      4    bbb    H14    108 0.06123400   1.008000   ; qtot 0.623214
  109         c3      4    bbb     C8    109 -0.72423400  12.010000   ; qtot -0.101020
  110         h1      4    bbb    H15    110 0.25637600   1.008000   ; qtot 0.155356
  111         h1      4    bbb    H16    111 0.25637600   1.008000   ; qtot 0.411732
  112         c3      4    bbb     C9    112 -0.72423400  12.010000   ; qtot -0.312502
  113         h1      4    bbb    H17    113 0.25637600   1.008000   ; qtot -0.056126
  114         h1      4    bbb    H18    114 0.25637600   1.008000   ; qtot 0.200250
  115         os      4    bbb     O1    115 -0.20025300  16.000000   ; qtot -0.000003
; residue    5 bbb rtp bbb q -0.0
  116         n3      5    bbb     N1    116 -0.59685800  14.010000   ; qtot -0.596861
  117         c3      5    bbb     C1    117 0.10137000  12.010000   ; qtot -0.495491
  118         h1      5    bbb     H1    118 0.04411300   1.008000   ; qtot -0.451378
  119         h1      5    bbb     H2    119 0.04411300   1.008000   ; qtot -0.407265
  120         c3      5    bbb     C2    120 0.10137000  12.010000   ; qtot -0.305895
  121         h1      5    bbb     H3    121 0.04411300   1.008000   ; qtot -0.261782
  122         h1      5    bbb     H4    122 0.04411300   1.008000   ; qtot -0.217669
  123         c3      5    bbb     C3    123 -0.00195300  12.010000   ; qtot -0.219622
  124         h1      5    bbb     H5    124 0.05064400   1.008000   ; qtot -0.168978
  125         h1      5    bbb     H6    125 0.05064400   1.008000   ; qtot -0.118334
  126         c3      5    bbb     C4    126 -0.01612100  12.010000   ; qtot -0.134455
  127         hc      5    bbb     H7    127 0.04936100   1.008000   ; qtot -0.085094
  128         hc      5    bbb     H8    128 0.04936100   1.008000   ; qtot -0.035733
  129         c3      5    bbb     C5    129 0.11363000  12.010000   ; qtot 0.077897
  130         hc      5    bbb     H9    130 0.06265900   1.008000   ; qtot 0.140556
  131         hc      5    bbb    H10    131 0.06265900   1.008000   ; qtot 0.203215
  132         c3      5    bbb     C6    132 0.11363000  12.010000   ; qtot 0.316845
  133         hc      5    bbb    H11    133 0.06265900   1.008000   ; qtot 0.379504
  134         hc      5    bbb    H12    134 0.06265900   1.008000   ; qtot 0.442163
  135         c3      5    bbb     C7    135 0.05858200  12.010000   ; qtot 0.500745
  136         h1      5    bbb    H13    136 0.06123400   1.008000   ; qtot 0.561979
  137         h1      5    bbb    H14    137 0.06123400   1.008000   ; qtot 0.623213
  138         c3      5    bbb     C8    138 -0.72423400  12.010000   ; qtot -0.101021
  139         h1      5    bbb    H15    139 0.25637600   1.008000   ; qtot 0.155355
  140         h1      5    bbb    H16    140 0.25637600   1.008000   ; qtot 0.411731
  141         c3      5    bbb     C9    141 -0.72423400  12.010000   ; qtot -0.312503
  142         h1      5    bbb    H17    142 0.25637600   1.008000   ; qtot -0.056127
  143         h1      5    bbb    H18    143 0.25637600   1.008000   ; qtot 0.200249
  144         os      5    bbb     O1    144 -0.20025300  16.000000   ; qtot -0.000004
; residue    6 bbb rtp bbb q -0.0
  145         n3      6    bbb     N1    145 -0.59685800  14.010000   ; qtot -0.596862
  146         c3      6    bbb     C1    146 0.10137000  12.010000   ; qtot -0.495492
  147         h1      6    bbb     H1    147 0.04411300   1.008000   ; qtot -0.451379
  148         h1      6    bbb     H2    148 0.04411300   1.008000   ; qtot -0.407266
  149         c3      6    bbb     C2    149 0.10137000  12.010000   ; qtot -0.305896
  150         h1      6    bbb     H3    150 0.04411300   1.008000   ; qtot -0.261783
  151         h1      6    bbb     H4    151 0.04411300   1.008000   ; qtot -0.217670
  152         c3      6    bbb     C3    152 -0.00195300  12.010000   ; qtot -0.219623
  153         h1      6    bbb     H5    153 0.05064400   1.008000   ; qtot -0.168979
  154         h1      6    bbb     H6    154 0.05064400   1.008000   ; qtot -0.118335
  155         c3      6    bbb     C4    155 -0.01612100  12.010000   ; qtot -0.134456
  156         hc      6    bbb     H7    156 0.04936100   1.008000   ; qtot -0.085095
  157         hc      6    bbb     H8    157 0.04936100   1.008000   ; qtot -0.035734
  158         c3      6    bbb     C5    158 0.11363000  12.010000   ; qtot 0.077896
  159         hc      6    bbb     H9    159 0.06265900   1.008000   ; qtot 0.140555
  160         hc      6    bbb    H10    160 0.06265900   1.008000   ; qtot 0.203214
  161         c3      6    bbb     C6    161 0.11363000  12.010000   ; qtot 0.316844
  162         hc      6    bbb    H11    162 0.06265900   1.008000   ; qtot 0.379503
  163         hc      6    bbb    H12    163 0.06265900   1.008000   ; qtot 0.442162
  164         c3      6    bbb     C7    164 0.05858200  12.010000   ; qtot 0.500744
  165         h1      6    bbb    H13    165 0.06123400   1.008000   ; qtot 0.561978
  166         h1      6    bbb    H14    166 0.06123400   1.008000   ; qtot 0.623212
  167         c3      6    bbb     C8    167 -0.72423400  12.010000   ; qtot -0.101022
  168         h1      6    bbb    H15    168 0.25637600   1.008000   ; qtot 0.155354
  169         h1      6    bbb    H16    169 0.25637600   1.008000   ; qtot 0.411730
  170         c3      6    bbb     C9    170 -0.72423400  12.010000   ; qtot -0.312504
  171         h1      6    bbb    H17    171 0.25637600   1.008000   ; qtot -0.056128
  172         h1      6    bbb    H18    172 0.25637600   1.008000   ; qtot 0.200248
  173         os      6    bbb     O1    173 -0.20025300  16.000000   ; qtot -0.000005
; residue    7 bbb rtp bbb q -0.0
  174         n3      7    bbb     N1    174 -0.59685800  14.010000   ; qtot -0.596863
  175         c3      7    bbb     C1    175 0.10137000  12.010000   ; qtot -0.495493
  176         h1      7    bbb     H1    176 0.04411300   1.008000   ; qtot -0.451380
  177         h1      7    bbb     H2    177 0.04411300   1.008000   ; qtot -0.407267
  178         c3      7    bbb     C2    178 0.10137000  12.010000   ; qtot -0.305897
  179         h1      7    bbb     H3    179 0.04411300   1.008000   ; qtot -0.261784
  180         h1      7    bbb     H4    180 0.04411300   1.008000   ; qtot -0.217671
  181         c3      7    bbb     C3    181 -0.00195300  12.010000   ; qtot -0.219624
  182         h1      7    bbb     H5    182 0.05064400   1.008000   ; qtot -0.168980
  183         h1      7    bbb     H6    183 0.05064400   1.008000   ; qtot -0.118336
  184         c3      7    bbb     C4    184 -0.01612100  12.010000   ; qtot -0.134457
  185         hc      7    bbb     H7    185 0.04936100   1.008000   ; qtot -0.085096
  186         hc      7    bbb     H8    186 0.04936100   1.008000   ; qtot -0.035735
  187         c3      7    bbb     C5    187 0.11363000  12.010000   ; qtot 0.077895
  188         hc      7    bbb     H9    188 0.06265900   1.008000   ; qtot 0.140554
  189         hc      7    bbb    H10    189 0.06265900   1.008000   ; qtot 0.203213
  190         c3      7    bbb     C6    190 0.11363000  12.010000   ; qtot 0.316843
  191         hc      7    bbb    H11    191 0.06265900   1.008000   ; qtot 0.379502
  192         hc      7    bbb    H12    192 0.06265900   1.008000   ; qtot 0.442161
  193         c3      7    bbb     C7    193 0.05858200  12.010000   ; qtot 0.500743
  194         h1      7    bbb    H13    194 0.06123400   1.008000   ; qtot 0.561977
  195         h1      7    bbb    H14    195 0.06123400   1.008000   ; qtot 0.623211
  196         c3      7    bbb     C8    196 -0.72423400  12.010000   ; qtot -0.101023
  197         h1      7    bbb    H15    197 0.25637600   1.008000   ; qtot 0.155353
  198         h1      7    bbb    H16    198 0.25637600   1.008000   ; qtot 0.411729
  199         c3      7    bbb     C9    199 -0.72423400  12.010000   ; qtot -0.312505
  200         h1      7    bbb    H17    200 0.25637600   1.008000   ; qtot -0.056129
  201         h1      7    bbb    H18    201 0.25637600   1.008000   ; qtot 0.200247
  202         os      7    bbb     O1    202 -0.20025300  16.000000   ; qtot -0.000006
; residue    8 bbb rtp bbb q -0.0
  203         n3      8    bbb     N1    203 -0.59685800  14.010000   ; qtot -0.596864
  204         c3      8    bbb     C1    204 0.10137000  12.010000   ; qtot -0.495494
  205         h1      8    bbb     H1    205 0.04411300   1.008000   ; qtot -0.451381
  206         h1      8    bbb     H2    206 0.04411300   1.008000   ; qtot -0.407268
  207         c3      8    bbb     C2    207 0.10137000  12.010000   ; qtot -0.305898
  208         h1      8    bbb     H3    208 0.04411300   1.008000   ; qtot -0.261785
  209         h1      8    bbb     H4    209 0.04411300   1.008000   ; qtot -0.217672
  210         c3      8    bbb     C3    210 -0.00195300  12.010000   ; qtot -0.219625
  211         h1      8    bbb     H5    211 0.05064400   1.008000   ; qtot -0.168981
  212         h1      8    bbb     H6    212 0.05064400   1.008000   ; qtot -0.118337
  213         c3      8    bbb     C4    213 -0.01612100  12.010000   ; qtot -0.134458
  214         hc      8    bbb     H7    214 0.04936100   1.008000   ; qtot -0.085097
  215         hc      8    bbb     H8    215 0.04936100   1.008000   ; qtot -0.035736
  216         c3      8    bbb     C5    216 0.11363000  12.010000   ; qtot 0.077894
  217         hc      8    bbb     H9    217 0.06265900   1.008000   ; qtot 0.140553
  218         hc      8    bbb    H10    218 0.06265900   1.008000   ; qtot 0.203212
  219         c3      8    bbb     C6    219 0.11363000  12.010000   ; qtot 0.316842
  220         hc      8    bbb    H11    220 0.06265900   1.008000   ; qtot 0.379501
  221         hc      8    bbb    H12    221 0.06265900   1.008000   ; qtot 0.442160
  222         c3      8    bbb     C7    222 0.05858200  12.010000   ; qtot 0.500742
  223         h1      8    bbb    H13    223 0.06123400   1.008000   ; qtot 0.561976
  224         h1      8    bbb    H14    224 0.06123400   1.008000   ; qtot 0.623210
  225         c3      8    bbb     C8    225 -0.72423400  12.010000   ; qtot -0.101024
  226         h1      8    bbb    H15    226 0.25637600   1.008000   ; qtot 0.155352
  227         h1      8    bbb    H16    227 0.25637600   1.008000   ; qtot 0.411728
  228         c3      8    bbb     C9    228 -0.72423400  12.010000   ; qtot -0.312506
  229         h1      8    bbb    H17    229 0.25637600   1.008000   ; qtot -0.056130
  230         h1      8    bbb    H18    230 0.25637600   1.008000   ; qtot 0.200246
  231         os      8    bbb     O1    231 -0.20025300  16.000000   ; qtot -0.000007
; residue    9 bbb rtp bbb q -0.0
  232         n3      9    bbb     N1    232 -0.59685800  14.010000   ; qtot -0.596865
  233         c3      9    bbb     C1    233 0.10137000  12.010000   ; qtot -0.495495
  234         h1      9    bbb     H1    234 0.04411300   1.008000   ; qtot -0.451382
  235         h1      9    bbb     H2    235 0.04411300   1.008000   ; qtot -0.407269
  236         c3      9    bbb     C2    236 0.10137000  12.010000   ; qtot -0.305899
  237         h1      9    bbb     H3    237 0.04411300   1.008000   ; qtot -0.261786
  238         h1      9    bbb     H4    238 0.04411300   1.008000   ; qtot -0.217673
  239         c3      9    bbb     C3    239 -0.00195300  12.010000   ; qtot -0.219626
  240         h1      9    bbb     H5    240 0.05064400   1.008000   ; qtot -0.168982
  241         h1      9    bbb     H6    241 0.05064400   1.008000   ; qtot -0.118338
  242         c3      9    bbb     C4    242 -0.01612100  12.010000   ; qtot -0.134459
  243         hc      9    bbb     H7    243 0.04936100   1.008000   ; qtot -0.085098
  244         hc      9    bbb     H8    244 0.04936100   1.008000   ; qtot -0.035737
  245         c3      9    bbb     C5    245 0.11363000  12.010000   ; qtot 0.077893
  246         hc      9    bbb     H9    246 0.06265900   1.008000   ; qtot 0.140552
  247         hc      9    bbb    H10    247 0.06265900   1.008000   ; qtot 0.203211
  248         c3      9    bbb     C6    248 0.11363000  12.010000   ; qtot 0.316841
  249         hc      9    bbb    H11    249 0.06265900   1.008000   ; qtot 0.379500
  250         hc      9    bbb    H12    250 0.06265900   1.008000   ; qtot 0.442159
  251         c3      9    bbb     C7    251 0.05858200  12.010000   ; qtot 0.500741
  252         h1      9    bbb    H13    252 0.06123400   1.008000   ; qtot 0.561975
  253         h1      9    bbb    H14    253 0.06123400   1.008000   ; qtot 0.623209
  254         c3      9    bbb     C8    254 -0.72423400  12.010000   ; qtot -0.101025
  255         h1      9    bbb    H15    255 0.25637600   1.008000   ; qtot 0.155351
  256         h1      9    bbb    H16    256 0.25637600   1.008000   ; qtot 0.411727
  257         c3      9    bbb     C9    257 -0.72423400  12.010000   ; qtot -0.312507
  258         h1      9    bbb    H17    258 0.25637600   1.008000   ; qtot -0.056131
  259         h1      9    bbb    H18    259 0.25637600   1.008000   ; qtot 0.200245
  260         os      9    bbb     O1    260 -0.20025300  16.000000   ; qtot -0.000008
; residue   10 bbb rtp bbb q -0.0
  261         n3     10    bbb     N1    261 -0.59685800  14.010000   ; qtot -0.596866
  262         c3     10    bbb     C1    262 0.10137000  12.010000   ; qtot -0.495496
  263         h1     10    bbb     H1    263 0.04411300   1.008000   ; qtot -0.451383
  264         h1     10    bbb     H2    264 0.04411300   1.008000   ; qtot -0.407270
  265         c3     10    bbb     C2    265 0.10137000  12.010000   ; qtot -0.305900
  266         h1     10    bbb     H3    266 0.04411300   1.008000   ; qtot -0.261787
  267         h1     10    bbb     H4    267 0.04411300   1.008000   ; qtot -0.217674
  268         c3     10    bbb     C3    268 -0.00195300  12.010000   ; qtot -0.219627
  269         h1     10    bbb     H5    269 0.05064400   1.008000   ; qtot -0.168983
  270         h1     10    bbb     H6    270 0.05064400   1.008000   ; qtot -0.118339
  271         c3     10    bbb     C4    271 -0.01612100  12.010000   ; qtot -0.134460
  272         hc     10    bbb     H7    272 0.04936100   1.008000   ; qtot -0.085099
  273         hc     10    bbb     H8    273 0.04936100   1.008000   ; qtot -0.035738
  274         c3     10    bbb     C5    274 0.11363000  12.010000   ; qtot 0.077892
  275         hc     10    bbb     H9    275 0.06265900   1.008000   ; qtot 0.140551
  276         hc     10    bbb    H10    276 0.06265900   1.008000   ; qtot 0.203210
  277         c3     10    bbb     C6    277 0.11363000  12.010000   ; qtot 0.316840
  278         hc     10    bbb    H11    278 0.06265900   1.008000   ; qtot 0.379499
  279         hc     10    bbb    H12    279 0.06265900   1.008000   ; qtot 0.442158
  280         c3     10    bbb     C7    280 0.05858200  12.010000   ; qtot 0.500740
  281         h1     10    bbb    H13    281 0.06123400   1.008000   ; qtot 0.561974
  282         h1     10    bbb    H14    282 0.06123400   1.008000   ; qtot 0.623208
  283         c3     10    bbb     C8    283 -0.72423400  12.010000   ; qtot -0.101026
  284         h1     10    bbb    H15    284 0.25637600   1.008000   ; qtot 0.155350
  285         h1     10    bbb    H16    285 0.25637600   1.008000   ; qtot 0.411726
  286         c3     10    bbb     C9    286 -0.72423400  12.010000   ; qtot -0.312508
  287         h1     10    bbb    H17    287 0.25637600   1.008000   ; qtot -0.056132
  288         h1     10    bbb    H18    288 0.25637600   1.008000   ; qtot 0.200244
  289         os     10    bbb     O1    289 -0.20025300  16.000000   ; qtot -0.000009
; residue   11 ccc rtp ccc q -2.0
  290         c3     11    ccc     C3    290 -0.04070000  12.010000   ; qtot -0.040709
  291         h1     11    ccc     H5    291 0.04610000   1.008000   ; qtot 0.005391
  292         h1     11    ccc     H6    292 0.04610000   1.008000   ; qtot 0.051491
  293         c3     11    ccc     C2    293 -0.02540000  12.010000   ; qtot 0.026091
  294         hc     11    ccc     H3    294 0.00850000   1.008000   ; qtot 0.034591
  295         hc     11    ccc     H4    295 0.00850000   1.008000   ; qtot 0.043091
  296         c3     11    ccc     C1    296 0.60210000  12.010000   ; qtot 0.645191
  297         h1     11    ccc     H1    297 -0.09250000   1.008000   ; qtot 0.552691
  298         h1     11    ccc     H2    298 -0.09250000   1.008000   ; qtot 0.460191
  299         n3     11    ccc     N1    299 -0.59700000  14.010000   ; qtot -0.136809
  300         c3     11    ccc     C4    300 0.32800000  12.010000   ; qtot 0.191191
  301         h1     11    ccc     H7    301 -0.07120000   1.008000   ; qtot 0.119991
  302         h1     11    ccc     H8    302 -0.07120000   1.008000   ; qtot 0.048791
  303         c3     11    ccc     C5    303 -0.39330000  12.010000   ; qtot -0.344509
  304         hc     11    ccc     H9    304 0.08130000   1.008000   ; qtot -0.263209
  305         hc     11    ccc    H10    305 0.08130000   1.008000   ; qtot -0.181909
  306          c     11    ccc     C6    306 1.08970000  12.010000   ; qtot 0.907791
  307          o     11    ccc     O2    307 -0.96050000  16.000000   ; qtot -0.052709
  308          o     11    ccc     O3    308 -0.96050000  16.000000   ; qtot -1.013209
  309         c3     11    ccc     C7    309 0.32800000  12.010000   ; qtot -0.685209
  310         h1     11    ccc    H11    310 -0.07120000   1.008000   ; qtot -0.756409
  311         h1     11    ccc    H12    311 -0.07120000   1.008000   ; qtot -0.827609
  312         c3     11    ccc     C8    312 -0.39330000  12.010000   ; qtot -1.220909
  313         hc     11    ccc    H13    313 0.08130000   1.008000   ; qtot -1.139609
  314         hc     11    ccc    H14    314 0.08130000   1.008000   ; qtot -1.058309
  315          c     11    ccc     C9    315 1.08970000  12.010000   ; qtot 0.031391
  316          o     11    ccc     O4    316 -0.96050000  16.000000   ; qtot -0.929109
  317          o     11    ccc     O5    317 -0.96050000  16.000000   ; qtot -1.889609
  318         os     11    ccc     O1    318 -0.11060000  16.000000   ; qtot -2.000209
; residue   12 ccc rtp ccc q -2.0
  319         c3     12    ccc     C3    319 -0.04070000  12.010000   ; qtot -2.040909
  320         h1     12    ccc     H5    320 0.04610000   1.008000   ; qtot -1.994809
  321         h1     12    ccc     H6    321 0.04610000   1.008000   ; qtot -1.948709
  322         c3     12    ccc     C2    322 -0.02540000  12.010000   ; qtot -1.974109
  323         hc     12    ccc     H3    323 0.00850000   1.008000   ; qtot -1.965609
  324         hc     12    ccc     H4    324 0.00850000   1.008000   ; qtot -1.957109
  325         c3     12    ccc     C1    325 0.60210000  12.010000   ; qtot -1.355009
  326         h1     12    ccc     H1    326 -0.09250000   1.008000   ; qtot -1.447509
  327         h1     12    ccc     H2    327 -0.09250000   1.008000   ; qtot -1.540009
  328         n3     12    ccc     N1    328 -0.59700000  14.010000   ; qtot -2.137009
  329         c3     12    ccc     C4    329 0.32800000  12.010000   ; qtot -1.809009
  330         h1     12    ccc     H7    330 -0.07120000   1.008000   ; qtot -1.880209
  331         h1     12    ccc     H8    331 -0.07120000   1.008000   ; qtot -1.951409
  332         c3     12    ccc     C5    332 -0.39330000  12.010000   ; qtot -2.344709
  333         hc     12    ccc     H9    333 0.08130000   1.008000   ; qtot -2.263409
  334         hc     12    ccc    H10    334 0.08130000   1.008000   ; qtot -2.182109
  335          c     12    ccc     C6    335 1.08970000  12.010000   ; qtot -1.092409
  336          o     12    ccc     O2    336 -0.96050000  16.000000   ; qtot -2.052909
  337          o     12    ccc     O3    337 -0.96050000  16.000000   ; qtot -3.013409
  338         c3     12    ccc     C7    338 0.32800000  12.010000   ; qtot -2.685409
  339         h1     12    ccc    H11    339 -0.07120000   1.008000   ; qtot -2.756609
  340         h1     12    ccc    H12    340 -0.07120000   1.008000   ; qtot -2.827809
  341         c3     12    ccc     C8    341 -0.39330000  12.010000   ; qtot -3.221109
  342         hc     12    ccc    H13    342 0.08130000   1.008000   ; qtot -3.139809
  343         hc     12    ccc    H14    343 0.08130000   1.008000   ; qtot -3.058509
  344          c     12    ccc     C9    344 1.08970000  12.010000   ; qtot -1.968809
  345          o     12    ccc     O4    345 -0.96050000  16.000000   ; qtot -2.929309
  346          o     12    ccc     O5    346 -0.96050000  16.000000   ; qtot -3.889809
  347         os     12    ccc     O1    347 -0.11060000  16.000000   ; qtot -4.000409
; residue   13 ccc rtp ccc q -2.0
  348         c3     13    ccc     C3    348 -0.04070000  12.010000   ; qtot -4.041109
  349         h1     13    ccc     H5    349 0.04610000   1.008000   ; qtot -3.995009
  350         h1     13    ccc     H6    350 0.04610000   1.008000   ; qtot -3.948909
  351         c3     13    ccc     C2    351 -0.02540000  12.010000   ; qtot -3.974309
  352         hc     13    ccc     H3    352 0.00850000   1.008000   ; qtot -3.965809
  353         hc     13    ccc     H4    353 0.00850000   1.008000   ; qtot -3.957309
  354         c3     13    ccc     C1    354 0.60210000  12.010000   ; qtot -3.355209
  355         h1     13    ccc     H1    355 -0.09250000   1.008000   ; qtot -3.447709
  356         h1     13    ccc     H2    356 -0.09250000   1.008000   ; qtot -3.540209
  357         n3     13    ccc     N1    357 -0.59700000  14.010000   ; qtot -4.137209
  358         c3     13    ccc     C4    358 0.32800000  12.010000   ; qtot -3.809209
  359         h1     13    ccc     H7    359 -0.07120000   1.008000   ; qtot -3.880409
  360         h1     13    ccc     H8    360 -0.07120000   1.008000   ; qtot -3.951609
  361         c3     13    ccc     C5    361 -0.39330000  12.010000   ; qtot -4.344909
  362         hc     13    ccc     H9    362 0.08130000   1.008000   ; qtot -4.263609
  363         hc     13    ccc    H10    363 0.08130000   1.008000   ; qtot -4.182309
  364          c     13    ccc     C6    364 1.08970000  12.010000   ; qtot -3.092609
  365          o     13    ccc     O2    365 -0.96050000  16.000000   ; qtot -4.053109
  366          o     13    ccc     O3    366 -0.96050000  16.000000   ; qtot -5.013609
  367         c3     13    ccc     C7    367 0.32800000  12.010000   ; qtot -4.685609
  368         h1     13    ccc    H11    368 -0.07120000   1.008000   ; qtot -4.756809
  369         h1     13    ccc    H12    369 -0.07120000   1.008000   ; qtot -4.828009
  370         c3     13    ccc     C8    370 -0.39330000  12.010000   ; qtot -5.221309
  371         hc     13    ccc    H13    371 0.08130000   1.008000   ; qtot -5.140009
  372         hc     13    ccc    H14    372 0.08130000   1.008000   ; qtot -5.058709
  373          c     13    ccc     C9    373 1.08970000  12.010000   ; qtot -3.969009
  374          o     13    ccc     O4    374 -0.96050000  16.000000   ; qtot -4.929509
  375          o     13    ccc     O5    375 -0.96050000  16.000000   ; qtot -5.890009
  376         os     13    ccc     O1    376 -0.11060000  16.000000   ; qtot -6.000609
; residue   14 ccc rtp ccc q -2.0
  377         c3     14    ccc     C3    377 -0.04070000  12.010000   ; qtot -6.041309
  378         h1     14    ccc     H5    378 0.04610000   1.008000   ; qtot -5.995209
  379         h1     14    ccc     H6    379 0.04610000   1.008000   ; qtot -5.949109
  380         c3     14    ccc     C2    380 -0.02540000  12.010000   ; qtot -5.974509
  381         hc     14    ccc     H3    381 0.00850000   1.008000   ; qtot -5.966009
  382         hc     14    ccc     H4    382 0.00850000   1.008000   ; qtot -5.957509
  383         c3     14    ccc     C1    383 0.60210000  12.010000   ; qtot -5.355409
  384         h1     14    ccc     H1    384 -0.09250000   1.008000   ; qtot -5.447909
  385         h1     14    ccc     H2    385 -0.09250000   1.008000   ; qtot -5.540409
  386         n3     14    ccc     N1    386 -0.59700000  14.010000   ; qtot -6.137409
  387         c3     14    ccc     C4    387 0.32800000  12.010000   ; qtot -5.809409
  388         h1     14    ccc     H7    388 -0.07120000   1.008000   ; qtot -5.880609
  389         h1     14    ccc     H8    389 -0.07120000   1.008000   ; qtot -5.951809
  390         c3     14    ccc     C5    390 -0.39330000  12.010000   ; qtot -6.345109
  391         hc     14    ccc     H9    391 0.08130000   1.008000   ; qtot -6.263809
  392         hc     14    ccc    H10    392 0.08130000   1.008000   ; qtot -6.182509
  393          c     14    ccc     C6    393 1.08970000  12.010000   ; qtot -5.092809
  394          o     14    ccc     O2    394 -0.96050000  16.000000   ; qtot -6.053309
  395          o     14    ccc     O3    395 -0.96050000  16.000000   ; qtot -7.013809
  396         c3     14    ccc     C7    396 0.32800000  12.010000   ; qtot -6.685809
  397         h1     14    ccc    H11    397 -0.07120000   1.008000   ; qtot -6.757009
  398         h1     14    ccc    H12    398 -0.07120000   1.008000   ; qtot -6.828209
  399         c3     14    ccc     C8    399 -0.39330000  12.010000   ; qtot -7.221509
  400         hc     14    ccc    H13    400 0.08130000   1.008000   ; qtot -7.140209
  401         hc     14    ccc    H14    401 0.08130000   1.008000   ; qtot -7.058909
  402          c     14    ccc     C9    402 1.08970000  12.010000   ; qtot -5.969209
  403          o     14    ccc     O4    403 -0.96050000  16.000000   ; qtot -6.929709
  404          o     14    ccc     O5    404 -0.96050000  16.000000   ; qtot -7.890209
  405         os     14    ccc     O1    405 -0.11060000  16.000000   ; qtot -8.000809
; residue   15 ccc rtp ccc q -2.0
  406         c3     15    ccc     C3    406 -0.04070000  12.010000   ; qtot -8.041509
  407         h1     15    ccc     H5    407 0.04610000   1.008000   ; qtot -7.995409
  408         h1     15    ccc     H6    408 0.04610000   1.008000   ; qtot -7.949309
  409         c3     15    ccc     C2    409 -0.02540000  12.010000   ; qtot -7.974709
  410         hc     15    ccc     H3    410 0.00850000   1.008000   ; qtot -7.966209
  411         hc     15    ccc     H4    411 0.00850000   1.008000   ; qtot -7.957709
  412         c3     15    ccc     C1    412 0.60210000  12.010000   ; qtot -7.355609
  413         h1     15    ccc     H1    413 -0.09250000   1.008000   ; qtot -7.448109
  414         h1     15    ccc     H2    414 -0.09250000   1.008000   ; qtot -7.540609
  415         n3     15    ccc     N1    415 -0.59700000  14.010000   ; qtot -8.137609
  416         c3     15    ccc     C4    416 0.32800000  12.010000   ; qtot -7.809609
  417         h1     15    ccc     H7    417 -0.07120000   1.008000   ; qtot -7.880809
  418         h1     15    ccc     H8    418 -0.07120000   1.008000   ; qtot -7.952009
  419         c3     15    ccc     C5    419 -0.39330000  12.010000   ; qtot -8.345309
  420         hc     15    ccc     H9    420 0.08130000   1.008000   ; qtot -8.264009
  421         hc     15    ccc    H10    421 0.08130000   1.008000   ; qtot -8.182709
  422          c     15    ccc     C6    422 1.08970000  12.010000   ; qtot -7.093009
  423          o     15    ccc     O2    423 -0.96050000  16.000000   ; qtot -8.053509
  424          o     15    ccc     O3    424 -0.96050000  16.000000   ; qtot -9.014009
  425         c3     15    ccc     C7    425 0.32800000  12.010000   ; qtot -8.686009
  426         h1     15    ccc    H11    426 -0.07120000   1.008000   ; qtot -8.757209
  427         h1     15    ccc    H12    427 -0.07120000   1.008000   ; qtot -8.828409
  428         c3     15    ccc     C8    428 -0.39330000  12.010000   ; qtot -9.221709
  429         hc     15    ccc    H13    429 0.08130000   1.008000   ; qtot -9.140409
  430         hc     15    ccc    H14    430 0.08130000   1.008000   ; qtot -9.059109
  431          c     15    ccc     C9    431 1.08970000  12.010000   ; qtot -7.969409
  432          o     15    ccc     O4    432 -0.96050000  16.000000   ; qtot -8.929909
  433          o     15    ccc     O5    433 -0.96050000  16.000000   ; qtot -9.890409
  434         os     15    ccc     O1    434 -0.11060000  16.000000   ; qtot -10.001009
; residue   16 ccc rtp ccc q -2.0
  435         c3     16    ccc     C3    435 -0.04070000  12.010000   ; qtot -10.041709
  436         h1     16    ccc     H5    436 0.04610000   1.008000   ; qtot -9.995609
  437         h1     16    ccc     H6    437 0.04610000   1.008000   ; qtot -9.949509
  438         c3     16    ccc     C2    438 -0.02540000  12.010000   ; qtot -9.974909
  439         hc     16    ccc     H3    439 0.00850000   1.008000   ; qtot -9.966409
  440         hc     16    ccc     H4    440 0.00850000   1.008000   ; qtot -9.957909
  441         c3     16    ccc     C1    441 0.60210000  12.010000   ; qtot -9.355809
  442         h1     16    ccc     H1    442 -0.09250000   1.008000   ; qtot -9.448309
  443         h1     16    ccc     H2    443 -0.09250000   1.008000   ; qtot -9.540809
  444         n3     16    ccc     N1    444 -0.59700000  14.010000   ; qtot -10.137809
  445         c3     16    ccc     C4    445 0.32800000  12.010000   ; qtot -9.809809
  446         h1     16    ccc     H7    446 -0.07120000   1.008000   ; qtot -9.881009
  447         h1     16    ccc     H8    447 -0.07120000   1.008000   ; qtot -9.952209
  448         c3     16    ccc     C5    448 -0.39330000  12.010000   ; qtot -10.345509
  449         hc     16    ccc     H9    449 0.08130000   1.008000   ; qtot -10.264209
  450         hc     16    ccc    H10    450 0.08130000   1.008000   ; qtot -10.182909
  451          c     16    ccc     C6    451 1.08970000  12.010000   ; qtot -9.093209
  452          o     16    ccc     O2    452 -0.96050000  16.000000   ; qtot -10.053709
  453          o     16    ccc     O3    453 -0.96050000  16.000000   ; qtot -11.014209
  454         c3     16    ccc     C7    454 0.32800000  12.010000   ; qtot -10.686209
  455         h1     16    ccc    H11    455 -0.07120000   1.008000   ; qtot -10.757409
  456         h1     16    ccc    H12    456 -0.07120000   1.008000   ; qtot -10.828609
  457         c3     16    ccc     C8    457 -0.39330000  12.010000   ; qtot -11.221909
  458         hc     16    ccc    H13    458 0.08130000   1.008000   ; qtot -11.140609
  459         hc     16    ccc    H14    459 0.08130000   1.008000   ; qtot -11.059309
  460          c     16    ccc     C9    460 1.08970000  12.010000   ; qtot -9.969609
  461          o     16    ccc     O4    461 -0.96050000  16.000000   ; qtot -10.930109
  462          o     16    ccc     O5    462 -0.96050000  16.000000   ; qtot -11.890609
  463         os     16    ccc     O1    463 -0.11060000  16.000000   ; qtot -12.001209
; residue   17 ccc rtp ccc q -2.0
  464         c3     17    ccc     C3    464 -0.04070000  12.010000   ; qtot -12.041909
  465         h1     17    ccc     H5    465 0.04610000   1.008000   ; qtot -11.995809
  466         h1     17    ccc     H6    466 0.04610000   1.008000   ; qtot -11.949709
  467         c3     17    ccc     C2    467 -0.02540000  12.010000   ; qtot -11.975109
  468         hc     17    ccc     H3    468 0.00850000   1.008000   ; qtot -11.966609
  469         hc     17    ccc     H4    469 0.00850000   1.008000   ; qtot -11.958109
  470         c3     17    ccc     C1    470 0.60210000  12.010000   ; qtot -11.356009
  471         h1     17    ccc     H1    471 -0.09250000   1.008000   ; qtot -11.448509
  472         h1     17    ccc     H2    472 -0.09250000   1.008000   ; qtot -11.541009
  473         n3     17    ccc     N1    473 -0.59700000  14.010000   ; qtot -12.138009
  474         c3     17    ccc     C4    474 0.32800000  12.010000   ; qtot -11.810009
  475         h1     17    ccc     H7    475 -0.07120000   1.008000   ; qtot -11.881209
  476         h1     17    ccc     H8    476 -0.07120000   1.008000   ; qtot -11.952409
  477         c3     17    ccc     C5    477 -0.39330000  12.010000   ; qtot -12.345709
  478         hc     17    ccc     H9    478 0.08130000   1.008000   ; qtot -12.264409
  479         hc     17    ccc    H10    479 0.08130000   1.008000   ; qtot -12.183109
  480          c     17    ccc     C6    480 1.08970000  12.010000   ; qtot -11.093409
  481          o     17    ccc     O2    481 -0.96050000  16.000000   ; qtot -12.053909
  482          o     17    ccc     O3    482 -0.96050000  16.000000   ; qtot -13.014409
  483         c3     17    ccc     C7    483 0.32800000  12.010000   ; qtot -12.686409
  484         h1     17    ccc    H11    484 -0.07120000   1.008000   ; qtot -12.757609
  485         h1     17    ccc    H12    485 -0.07120000   1.008000   ; qtot -12.828809
  486         c3     17    ccc     C8    486 -0.39330000  12.010000   ; qtot -13.222109
  487         hc     17    ccc    H13    487 0.08130000   1.008000   ; qtot -13.140809
  488         hc     17    ccc    H14    488 0.08130000   1.008000   ; qtot -13.059509
  489          c     17    ccc     C9    489 1.08970000  12.010000   ; qtot -11.969809
  490          o     17    ccc     O4    490 -0.96050000  16.000000   ; qtot -12.930309
  491          o     17    ccc     O5    491 -0.96050000  16.000000   ; qtot -13.890809
  492         os     17    ccc     O1    492 -0.11060000  16.000000   ; qtot -14.001409
; residue   18 ccc rtp ccc q -2.0
  493         c3     18    ccc     C3    493 -0.04070000  12.010000   ; qtot -14.042109
  494         h1     18    ccc     H5    494 0.04610000   1.008000   ; qtot -13.996009
  495         h1     18    ccc     H6    495 0.04610000   1.008000   ; qtot -13.949909
  496         c3     18    ccc     C2    496 -0.02540000  12.010000   ; qtot -13.975309
  497         hc     18    ccc     H3    497 0.00850000   1.008000   ; qtot -13.966809
  498         hc     18    ccc     H4    498 0.00850000   1.008000   ; qtot -13.958309
  499         c3     18    ccc     C1    499 0.60210000  12.010000   ; qtot -13.356209
  500         h1     18    ccc     H1    500 -0.09250000   1.008000   ; qtot -13.448709
  501         h1     18    ccc     H2    501 -0.09250000   1.008000   ; qtot -13.541209
  502         n3     18    ccc     N1    502 -0.59700000  14.010000   ; qtot -14.138209
  503         c3     18    ccc     C4    503 0.32800000  12.010000   ; qtot -13.810209
  504         h1     18    ccc     H7    504 -0.07120000   1.008000   ; qtot -13.881409
  505         h1     18    ccc     H8    505 -0.07120000   1.008000   ; qtot -13.952609
  506         c3     18    ccc     C5    506 -0.39330000  12.010000   ; qtot -14.345909
  507         hc     18    ccc     H9    507 0.08130000   1.008000   ; qtot -14.264609
  508         hc     18    ccc    H10    508 0.08130000   1.008000   ; qtot -14.183309
  509          c     18    ccc     C6    509 1.08970000  12.010000   ; qtot -13.093609
  510          o     18    ccc     O2    510 -0.96050000  16.000000   ; qtot -14.054109
  511          o     18    ccc     O3    511 -0.96050000  16.000000   ; qtot -15.014609
  512         c3     18    ccc     C7    512 0.32800000  12.010000   ; qtot -14.686609
  513         h1     18    ccc    H11    513 -0.07120000   1.008000   ; qtot -14.757809
  514         h1     18    ccc    H12    514 -0.07120000   1.008000   ; qtot -14.829009
  515         c3     18    ccc     C8    515 -0.39330000  12.010000   ; qtot -15.222309
  516         hc     18    ccc    H13    516 0.08130000   1.008000   ; qtot -15.141009
  517         hc     18    ccc    H14    517 0.08130000   1.008000   ; qtot -15.059709
  518          c     18    ccc     C9    518 1.08970000  12.010000   ; qtot -13.970009
  519          o     18    ccc     O4    519 -0.96050000  16.000000   ; qtot -14.930509
  520          o     18    ccc     O5    520 -0.96050000  16.000000   ; qtot -15.891009
  521         os     18    ccc     O1    521 -0.11060000  16.000000   ; qtot -16.001609
; residue   19 ccc rtp ccc q -2.0
  522         c3     19    ccc     C3    522 -0.04070000  12.010000   ; qtot -16.042309
  523         h1     19    ccc     H5    523 0.04610000   1.008000   ; qtot -15.996209
  524         h1     19    ccc     H6    524 0.04610000   1.008000   ; qtot -15.950109
  525         c3     19    ccc     C2    525 -0.02540000  12.010000   ; qtot -15.975509
  526         hc     19    ccc     H3    526 0.00850000   1.008000   ; qtot -15.967009
  527         hc     19    ccc     H4    527 0.00850000   1.008000   ; qtot -15.958509
  528         c3     19    ccc     C1    528 0.60210000  12.010000   ; qtot -15.356409
  529         h1     19    ccc     H1    529 -0.09250000   1.008000   ; qtot -15.448909
  530         h1     19    ccc     H2    530 -0.09250000   1.008000   ; qtot -15.541409
  531         n3     19    ccc     N1    531 -0.59700000  14.010000   ; qtot -16.138409
  532         c3     19    ccc     C4    532 0.32800000  12.010000   ; qtot -15.810409
  533         h1     19    ccc     H7    533 -0.07120000   1.008000   ; qtot -15.881609
  534         h1     19    ccc     H8    534 -0.07120000   1.008000   ; qtot -15.952809
  535         c3     19    ccc     C5    535 -0.39330000  12.010000   ; qtot -16.346109
  536         hc     19    ccc     H9    536 0.08130000   1.008000   ; qtot -16.264809
  537         hc     19    ccc    H10    537 0.08130000   1.008000   ; qtot -16.183509
  538          c     19    ccc     C6    538 1.08970000  12.010000   ; qtot -15.093809
  539          o     19    ccc     O2    539 -0.96050000  16.000000   ; qtot -16.054309
  540          o     19    ccc     O3    540 -0.96050000  16.000000   ; qtot -17.014809
  541         c3     19    ccc     C7    541 0.32800000  12.010000   ; qtot -16.686809
  542         h1     19    ccc    H11    542 -0.07120000   1.008000   ; qtot -16.758009
  543         h1     19    ccc    H12    543 -0.07120000   1.008000   ; qtot -16.829209
  544         c3     19    ccc     C8    544 -0.39330000  12.010000   ; qtot -17.222509
  545         hc     19    ccc    H13    545 0.08130000   1.008000   ; qtot -17.141209
  546         hc     19    ccc    H14    546 0.08130000   1.008000   ; qtot -17.059909
  547          c     19    ccc     C9    547 1.08970000  12.010000   ; qtot -15.970209
  548          o     19    ccc     O4    548 -0.96050000  16.000000   ; qtot -16.930709
  549          o     19    ccc     O5    549 -0.96050000  16.000000   ; qtot -17.891209
  550         os     19    ccc     O1    550 -0.11060000  16.000000   ; qtot -18.001809
; residue   20 ccc rtp ccc q -2.0
  551         c3     20    ccc     C3    551 -0.04070000  12.010000   ; qtot -18.042509
  552         h1     20    ccc     H5    552 0.04610000   1.008000   ; qtot -17.996409
  553         h1     20    ccc     H6    553 0.04610000   1.008000   ; qtot -17.950309
  554         c3     20    ccc     C2    554 -0.02540000  12.010000   ; qtot -17.975709
  555         hc     20    ccc     H3    555 0.00850000   1.008000   ; qtot -17.967209
  556         hc     20    ccc     H4    556 0.00850000   1.008000   ; qtot -17.958709
  557         c3     20    ccc     C1    557 0.60210000  12.010000   ; qtot -17.356609
  558         h1     20    ccc     H1    558 -0.09250000   1.008000   ; qtot -17.449109
  559         h1     20    ccc     H2    559 -0.09250000   1.008000   ; qtot -17.541609
  560         n3     20    ccc     N1    560 -0.59700000  14.010000   ; qtot -18.138609
  561         c3     20    ccc     C4    561 0.32800000  12.010000   ; qtot -17.810609
  562         h1     20    ccc     H7    562 -0.07120000   1.008000   ; qtot -17.881809
  563         h1     20    ccc     H8    563 -0.07120000   1.008000   ; qtot -17.953009
  564         c3     20    ccc     C5    564 -0.39330000  12.010000   ; qtot -18.346309
  565         hc     20    ccc     H9    565 0.08130000   1.008000   ; qtot -18.265009
  566         hc     20    ccc    H10    566 0.08130000   1.008000   ; qtot -18.183709
  567          c     20    ccc     C6    567 1.08970000  12.010000   ; qtot -17.094009
  568          o     20    ccc     O2    568 -0.96050000  16.000000   ; qtot -18.054509
  569          o     20    ccc     O3    569 -0.96050000  16.000000   ; qtot -19.015009
  570         c3     20    ccc     C7    570 0.32800000  12.010000   ; qtot -18.687009
  571         h1     20    ccc    H11    571 -0.07120000   1.008000   ; qtot -18.758209
  572         h1     20    ccc    H12    572 -0.07120000   1.008000   ; qtot -18.829409
  573         c3     20    ccc     C8    573 -0.39330000  12.010000   ; qtot -19.222709
  574         hc     20    ccc    H13    574 0.08130000   1.008000   ; qtot -19.141409
  575         hc     20    ccc    H14    575 0.08130000   1.008000   ; qtot -19.060109
  576          c     20    ccc     C9    576 1.08970000  12.010000   ; qtot -17.970409
  577          o     20    ccc     O4    577 -0.96050000  16.000000   ; qtot -18.930909
  578          o     20    ccc     O5    578 -0.96050000  16.000000   ; qtot -19.891409
  579         os     20    ccc     O1    579 -0.11060000  16.000000   ; qtot -20.002009
; residue   21 ccc rtp ccc q -2.0
  580         c3     21    ccc     C3    580 -0.04070000  12.010000   ; qtot -20.042709
  581         h1     21    ccc     H5    581 0.04610000   1.008000   ; qtot -19.996609
  582         h1     21    ccc     H6    582 0.04610000   1.008000   ; qtot -19.950509
  583         c3     21    ccc     C2    583 -0.02540000  12.010000   ; qtot -19.975909
  584         hc     21    ccc     H3    584 0.00850000   1.008000   ; qtot -19.967409
  585         hc     21    ccc     H4    585 0.00850000   1.008000   ; qtot -19.958909
  586         c3     21    ccc     C1    586 0.60210000  12.010000   ; qtot -19.356809
  587         h1     21    ccc     H1    587 -0.09250000   1.008000   ; qtot -19.449309
  588         h1     21    ccc     H2    588 -0.09250000   1.008000   ; qtot -19.541809
  589         n3     21    ccc     N1    589 -0.59700000  14.010000   ; qtot -20.138809
  590         c3     21    ccc     C4    590 0.32800000  12.010000   ; qtot -19.810809
  591         h1     21    ccc     H7    591 -0.07120000   1.008000   ; qtot -19.882009
  592         h1     21    ccc     H8    592 -0.07120000   1.008000   ; qtot -19.953209
  593         c3     21    ccc     C5    593 -0.39330000  12.010000   ; qtot -20.346509
  594         hc     21    ccc     H9    594 0.08130000   1.008000   ; qtot -20.265209
  595         hc     21    ccc    H10    595 0.08130000   1.008000   ; qtot -20.183909
  596          c     21    ccc     C6    596 1.08970000  12.010000   ; qtot -19.094209
  597          o     21    ccc     O2    597 -0.96050000  16.000000   ; qtot -20.054709
  598          o     21    ccc     O3    598 -0.96050000  16.000000   ; qtot -21.015209
  599         c3     21    ccc     C7    599 0.32800000  12.010000   ; qtot -20.687209
  600         h1     21    ccc    H11    600 -0.07120000   1.008000   ; qtot -20.758409
  601         h1     21    ccc    H12    601 -0.07120000   1.008000   ; qtot -20.829609
  602         c3     21    ccc     C8    602 -0.39330000  12.010000   ; qtot -21.222909
  603         hc     21    ccc    H13    603 0.08130000   1.008000   ; qtot -21.141609
  604         hc     21    ccc    H14    604 0.08130000   1.008000   ; qtot -21.060309
  605          c     21    ccc     C9    605 1.08970000  12.010000   ; qtot -19.970609
  606          o     21    ccc     O4    606 -0.96050000  16.000000   ; qtot -20.931109
  607          o     21    ccc     O5    607 -0.96050000  16.000000   ; qtot -21.891609
  608         os     21    ccc     O1    608 -0.11060000  16.000000   ; qtot -22.002209
; residue   22 ccc rtp ccc q -2.0
  609         c3     22    ccc     C3    609 -0.04070000  12.010000   ; qtot -22.042909
  610         h1     22    ccc     H5    610 0.04610000   1.008000   ; qtot -21.996809
  611         h1     22    ccc     H6    611 0.04610000   1.008000   ; qtot -21.950709
  612         c3     22    ccc     C2    612 -0.02540000  12.010000   ; qtot -21.976109
  613         hc     22    ccc     H3    613 0.00850000   1.008000   ; qtot -21.967609
  614         hc     22    ccc     H4    614 0.00850000   1.008000   ; qtot -21.959109
  615         c3     22    ccc     C1    615 0.60210000  12.010000   ; qtot -21.357009
  616         h1     22    ccc     H1    616 -0.09250000   1.008000   ; qtot -21.449509
  617         h1     22    ccc     H2    617 -0.09250000   1.008000   ; qtot -21.542009
  618         n3     22    ccc     N1    618 -0.59700000  14.010000   ; qtot -22.139009
  619         c3     22    ccc     C4    619 0.32800000  12.010000   ; qtot -21.811009
  620         h1     22    ccc     H7    620 -0.07120000   1.008000   ; qtot -21.882209
  621         h1     22    ccc     H8    621 -0.07120000   1.008000   ; qtot -21.953409
  622         c3     22    ccc     C5    622 -0.39330000  12.010000   ; qtot -22.346709
  623         hc     22    ccc     H9    623 0.08130000   1.008000   ; qtot -22.265409
  624         hc     22    ccc    H10    624 0.08130000   1.008000   ; qtot -22.184109
  625          c     22    ccc     C6    625 1.08970000  12.010000   ; qtot -21.094409
  626          o     22    ccc     O2    626 -0.96050000  16.000000   ; qtot -22.054909
  627          o     22    ccc     O3    627 -0.96050000  16.000000   ; qtot -23.015409
  628         c3     22    ccc     C7    628 0.32800000  12.010000   ; qtot -22.687409
  629         h1     22    ccc    H11    629 -0.07120000   1.008000   ; qtot -22.758609
  630         h1     22    ccc    H12    630 -0.07120000   1.008000   ; qtot -22.829809
  631         c3     22    ccc     C8    631 -0.39330000  12.010000   ; qtot -23.223109
  632         hc     22    ccc    H13    632 0.08130000   1.008000   ; qtot -23.141809
  633         hc     22    ccc    H14    633 0.08130000   1.008000   ; qtot -23.060509
  634          c     22    ccc     C9    634 1.08970000  12.010000   ; qtot -21.970809
  635          o     22    ccc     O4    635 -0.96050000  16.000000   ; qtot -22.931309
  636          o     22    ccc     O5    636 -0.96050000  16.000000   ; qtot -23.891809
  637         os     22    ccc     O1    637 -0.11060000  16.000000   ; qtot -24.002409

[ bonds ]
;    ai     aj funct         c0         c1         c2         c3
      1      2     1   0.14647 272713.120000
      1      5     1   0.14647 272713.120000
      1      8     1   0.14647 272713.120000
      2     14     1   0.15375 251793.120000
      5     17     1   0.15375 251793.120000
      8     11     1   0.15375 251793.120000
     11     23     1   0.15375 251793.120000
     14     26     1   0.15375 251793.120000
     17     20     1   0.15375 251793.120000
     20     57     1   0.14316 258236.480000
     23     86     1   0.14316 258236.480000
     26    115     1   0.14316 258236.480000
     29     30     1   0.14647 272713.120000
     29     33     1   0.14647 272713.120000
     29     36     1   0.14647 272713.120000
     30     42     1   0.15375 251793.120000
     33     45     1   0.15375 251793.120000
     36     39     1   0.15375 251793.120000
     39     48     1   0.15375 251793.120000
     42     54     1   0.15375 251793.120000
     45     51     1   0.15375 251793.120000
     48     57     1   0.14316 258236.480000
     51    144     1   0.14316 258236.480000
     54    173     1   0.14316 258236.480000
     58     59     1   0.14647 272713.120000
     58     62     1   0.14647 272713.120000
     58     65     1   0.14647 272713.120000
     59     71     1   0.15375 251793.120000
     62     74     1   0.15375 251793.120000
     65     68     1   0.15375 251793.120000
     68     77     1   0.15375 251793.120000
     71     83     1   0.15375 251793.120000
     74     80     1   0.15375 251793.120000
     77     86     1   0.14316 258236.480000
     80    202     1   0.14316 258236.480000
     83    231     1   0.14316 258236.480000
     87     88     1   0.14647 272713.120000
     87     91     1   0.14647 272713.120000
     87     94     1   0.14647 272713.120000
     88    100     1   0.15375 251793.120000
     91    103     1   0.15375 251793.120000
     94     97     1   0.15375 251793.120000
     97    106     1   0.15375 251793.120000
    100    112     1   0.15375 251793.120000
    103    109     1   0.15375 251793.120000
    106    115     1   0.14316 258236.480000
    109    260     1   0.14316 258236.480000
    112    289     1   0.14316 258236.480000
    116    117     1   0.14647 272713.120000
    116    120     1   0.14647 272713.120000
    116    123     1   0.14647 272713.120000
    117    129     1   0.15375 251793.120000
    120    132     1   0.15375 251793.120000
    123    126     1   0.15375 251793.120000
    126    135     1   0.15375 251793.120000
    129    141     1   0.15375 251793.120000
    132    138     1   0.15375 251793.120000
    135    144     1   0.14316 258236.480000
    138    318     1   0.14316 258236.480000
    141    347     1   0.14316 258236.480000
    145    146     1   0.14647 272713.120000
    145    149     1   0.14647 272713.120000
    145    152     1   0.14647 272713.120000
    146    158     1   0.15375 251793.120000
    149    161     1   0.15375 251793.120000
    152    155     1   0.15375 251793.120000
    155    164     1   0.15375 251793.120000
    158    170     1   0.15375 251793.120000
    161    167     1   0.15375 251793.120000
    164    173     1   0.14316 258236.480000
    167    376     1   0.14316 258236.480000
    170    405     1   0.14316 258236.480000
    174    175     1   0.14647 272713.120000
    174    178     1   0.14647 272713.120000
    174    181     1   0.14647 272713.120000
    175    187     1   0.15375 251793.120000
    178    190     1   0.15375 251793.120000
    181    184     1   0.15375 251793.120000
    184    193     1   0.15375 251793.120000
    187    199     1   0.15375 251793.120000
    190    196     1   0.15375 251793.120000
    193    202     1   0.14316 258236.480000
    196    434     1   0.14316 258236.480000
    199    463     1   0.14316 258236.480000
    203    204     1   0.14647 272713.120000
    203    207     1   0.14647 272713.120000
    203    210     1   0.14647 272713.120000
    204    216     1   0.15375 251793.120000
    207    219     1   0.15375 251793.120000
    210    213     1   0.15375 251793.120000
    213    222     1   0.15375 251793.120000
    216    228     1   0.15375 251793.120000
    219    225     1   0.15375 251793.120000
    222    231     1   0.14316 258236.480000
    225    492     1   0.14316 258236.480000
    228    521     1   0.14316 258236.480000
    232    233     1   0.14647 272713.120000
    232    236     1   0.14647 272713.120000
    232    239     1   0.14647 272713.120000
    233    245     1   0.15375 251793.120000
    236    248     1   0.15375 251793.120000
    239    242     1   0.15375 251793.120000
    242    251     1   0.15375 251793.120000
    245    257     1   0.15375 251793.120000
    248    254     1   0.15375 251793.120000
    251    260     1   0.14316 258236.480000
    254    550     1   0.14316 258236.480000
    257    579     1   0.14316 258236.480000
    261    262     1   0.14647 272713.120000
    261    265     1   0.14647 272713.120000
    261    268     1   0.14647 272713.120000
    262    274     1   0.15375 251793.120000
    265    277     1   0.15375 251793.120000
    268    271     1   0.15375 251793.120000
    271    280     1   0.15375 251793.120000
    274    286     1   0.15375 251793.120000
    277    283     1   0.15375 251793.120000
    280    289     1   0.14316 258236.480000
    283    608     1   0.14316 258236.480000
    286    637     1   0.14316 258236.480000
    290    293     1   0.15375 251793.120000
    290    318     1   0.14316 258236.480000
    293    296     1   0.15375 251793.120000
    296    299     1   0.14647 272713.120000
    299    300     1   0.14647 272713.120000
    299    309     1   0.14647 272713.120000
    300    303     1   0.15375 251793.120000
    303    306     1   0.15241 261918.400000
    306    307     1   0.12183 533627.360000
    306    308     1   0.12183 533627.360000
    309    312     1   0.15375 251793.120000
    312    315     1   0.15241 261918.400000
    315    316     1   0.12183 533627.360000
    315    317     1   0.12183 533627.360000
    319    322     1   0.15375 251793.120000
    319    347     1   0.14316 258236.480000
    322    325     1   0.15375 251793.120000
    325    328     1   0.14647 272713.120000
    328    329     1   0.14647 272713.120000
    328    338     1   0.14647 272713.120000
    329    332     1   0.15375 251793.120000
    332    335     1   0.15241 261918.400000
    335    336     1   0.12183 533627.360000
    335    337     1   0.12183 533627.360000
    338    341     1   0.15375 251793.120000
    341    344     1   0.15241 261918.400000
    344    345     1   0.12183 533627.360000
    344    346     1   0.12183 533627.360000
    348    351     1   0.15375 251793.120000
    348    376     1   0.14316 258236.480000
    351    354     1   0.15375 251793.120000
    354    357     1   0.14647 272713.120000
    357    358     1   0.14647 272713.120000
    357    367     1   0.14647 272713.120000
    358    361     1   0.15375 251793.120000
    361    364     1   0.15241 261918.400000
    364    365     1   0.12183 533627.360000
    364    366     1   0.12183 533627.360000
    367    370     1   0.15375 251793.120000
    370    373     1   0.15241 261918.400000
    373    374     1   0.12183 533627.360000
    373    375     1   0.12183 533627.360000
    377    380     1   0.15375 251793.120000
    377    405     1   0.14316 258236.480000
    380    383     1   0.15375 251793.120000
    383    386     1   0.14647 272713.120000
    386    387     1   0.14647 272713.120000
    386    396     1   0.14647 272713.120000
    387    390     1   0.15375 251793.120000
    390    393     1   0.15241 261918.400000
    393    394     1   0.12183 533627.360000
    393    395     1   0.12183 533627.360000
    396    399     1   0.15375 251793.120000
    399    402     1   0.15241 261918.400000
    402    403     1   0.12183 533627.360000
    402    404     1   0.12183 533627.360000
    406    409     1   0.15375 251793.120000
    406    434     1   0.14316 258236.480000
    409    412     1   0.15375 251793.120000
    412    415     1   0.14647 272713.120000
    415    416     1   0.14647 272713.120000
    415    425     1   0.14647 272713.120000
    416    419     1   0.15375 251793.120000
    419    422     1   0.15241 261918.400000
    422    423     1   0.12183 533627.360000
    422    424     1   0.12183 533627.360000
    425    428     1   0.15375 251793.120000
    428    431     1   0.15241 261918.400000
    431    432     1   0.12183 533627.360000
    431    433     1   0.12183 533627.360000
    435    438     1   0.15375 251793.120000
    435    463     1   0.14316 258236.480000
    438    441     1   0.15375 251793.120000
    441    444     1   0.14647 272713.120000
    444    445     1   0.14647 272713.120000
    444    454     1   0.14647 272713.120000
    445    448     1   0.15375 251793.120000
    448    451     1   0.15241 261918.400000
    451    452     1   0.12183 533627.360000
    451    453     1   0.12183 533627.360000
    454    457     1   0.15375 251793.120000
    457    460     1   0.15241 261918.400000
    460    461     1   0.12183 533627.360000
    460    462     1   0.12183 533627.360000
    464    467     1   0.15375 251793.120000
    464    492     1   0.14316 258236.480000
    467    470     1   0.15375 251793.120000
    470    473     1   0.14647 272713.120000
    473    474     1   0.14647 272713.120000
    473    483     1   0.14647 272713.120000
    474    477     1   0.15375 251793.120000
    477    480     1   0.15241 261918.400000
    480    481     1   0.12183 533627.360000
    480    482     1   0.12183 533627.360000
    483    486     1   0.15375 251793.120000
    486    489     1   0.15241 261918.400000
    489    490     1   0.12183 533627.360000
    489    491     1   0.12183 533627.360000
    493    496     1   0.15375 251793.120000
    493    521     1   0.14316 258236.480000
    496    499     1   0.15375 251793.120000
    499    502     1   0.14647 272713.120000
    502    503     1   0.14647 272713.120000
    502    512     1   0.14647 272713.120000
    503    506     1   0.15375 251793.120000
    506    509     1   0.15241 261918.400000
    509    510     1   0.12183 533627.360000
    509    511     1   0.12183 533627.360000
    512    515     1   0.15375 251793.120000
    515    518     1   0.15241 261918.400000
    518    519     1   0.12183 533627.360000
    518    520     1   0.12183 533627.360000
    522    525     1   0.15375 251793.120000
    522    550     1   0.14316 258236.480000
    525    528     1   0.15375 251793.120000
    528    531     1   0.14647 272713.120000
    531    532     1   0.14647 272713.120000
    531    541     1   0.14647 272713.120000
    532    535     1   0.15375 251793.120000
    535    538     1   0.15241 261918.400000
    538    539     1   0.12183 533627.360000
    538    540     1   0.12183 533627.360000
    541    544     1   0.15375 251793.120000
    544    547     1   0.15241 261918.400000
    547    548     1   0.12183 533627.360000
    547    549     1   0.12183 533627.360000
    551    554     1   0.15375 251793.120000
    551    579     1   0.14316 258236.480000
    554    557     1   0.15375 251793.120000
    557    560     1   0.14647 272713.120000
    560    561     1   0.14647 272713.120000
    560    570     1   0.14647 272713.120000
    561    564     1   0.15375 251793.120000
    564    567     1   0.15241 261918.400000
    567    568     1   0.12183 533627.360000
    567    569     1   0.12183 533627.360000
    570    573     1   0.15375 251793.120000
    573    576     1   0.15241 261918.400000
    576    577     1   0.12183 533627.360000
    576    578     1   0.12183 533627.360000
    580    583     1   0.15375 251793.120000
    580    608     1   0.14316 258236.480000
    583    586     1   0.15375 251793.120000
    586    589     1   0.14647 272713.120000
    589    590     1   0.14647 272713.120000
    589    599     1   0.14647 272713.120000
    590    593     1   0.15375 251793.120000
    593    596     1   0.15241 261918.400000
    596    597     1   0.12183 533627.360000
    596    598     1   0.12183 533627.360000
    599    602     1   0.15375 251793.120000
    602    605     1   0.15241 261918.400000
    605    606     1   0.12183 533627.360000
    605    607     1   0.12183 533627.360000
    609    612     1   0.15375 251793.120000
    609    637     1   0.14316 258236.480000
    612    615     1   0.15375 251793.120000
    615    618     1   0.14647 272713.120000
    618    619     1   0.14647 272713.120000
    618    628     1   0.14647 272713.120000
    619    622     1   0.15375 251793.120000
    622    625     1   0.15241 261918.400000
    625    626     1   0.12183 533627.360000
    625    627     1   0.12183 533627.360000
    628    631     1   0.15375 251793.120000
    631    634     1   0.15241 261918.400000
    634    635     1   0.12183 533627.360000
    634    636     1   0.12183 533627.360000
      2      3     1   0.10969 276646.080000
      2      4     1   0.10969 276646.080000
      5      6     1   0.10969 276646.080000
      5      7     1   0.10969 276646.080000
      8      9     1   0.10969 276646.080000
      8     10     1   0.10969 276646.080000
     11     12     1   0.10969 276646.080000
     11     13     1   0.10969 276646.080000
     14     15     1   0.10969 276646.080000
     14     16     1   0.10969 276646.080000
     17     18     1   0.10969 276646.080000
     17     19     1   0.10969 276646.080000
     20     21     1   0.10969 276646.080000
     20     22     1   0.10969 276646.080000
     23     24     1   0.10969 276646.080000
     23     25     1   0.10969 276646.080000
     26     27     1   0.10969 276646.080000
     26     28     1   0.10969 276646.080000
     30     31     1   0.10969 276646.080000
     30     32     1   0.10969 276646.080000
     33     34     1   0.10969 276646.080000
     33     35     1   0.10969 276646.080000
     36     37     1   0.10969 276646.080000
     36     38     1   0.10969 276646.080000
     39     40     1   0.10969 276646.080000
     39     41     1   0.10969 276646.080000
     42     43     1   0.10969 276646.080000
     42     44     1   0.10969 276646.080000
     45     46     1   0.10969 276646.080000
     45     47     1   0.10969 276646.080000
     48     49     1   0.10969 276646.080000
     48     50     1   0.10969 276646.080000
     51     52     1   0.10969 276646.080000
     51     53     1   0.10969 276646.080000
     54     55     1   0.10969 276646.080000
     54     56     1   0.10969 276646.080000
     59     60     1   0.10969 276646.080000
     59     61     1   0.10969 276646.080000
     62     63     1   0.10969 276646.080000
     62     64     1   0.10969 276646.080000
     65     66     1   0.10969 276646.080000
     65     67     1   0.10969 276646.080000
     68     69     1   0.10969 276646.080000
     68     70     1   0.10969 276646.080000
     71     72     1   0.10969 276646.080000
     71     73     1   0.10969 276646.080000
     74     75     1   0.10969 276646.080000
     74     76     1   0.10969 276646.080000
     77     78     1   0.10969 276646.080000
     77     79     1   0.10969 276646.080000
     80     81     1   0.10969 276646.080000
     80     82     1   0.10969 276646.080000
     83     84     1   0.10969 276646.080000
     83     85     1   0.10969 276646.080000
     88     89     1   0.10969 276646.080000
     88     90     1   0.10969 276646.080000
     91     92     1   0.10969 276646.080000
     91     93     1   0.10969 276646.080000
     94     95     1   0.10969 276646.080000
     94     96     1   0.10969 276646.080000
     97     98     1   0.10969 276646.080000
     97     99     1   0.10969 276646.080000
    100    101     1   0.10969 276646.080000
    100    102     1   0.10969 276646.080000
    103    104     1   0.10969 276646.080000
    103    105     1   0.10969 276646.080000
    106    107     1   0.10969 276646.080000
    106    108     1   0.10969 276646.080000
    109    110     1   0.10969 276646.080000
    109    111     1   0.10969 276646.080000
    112    113     1   0.10969 276646.080000
    112    114     1   0.10969 276646.080000
    117    118     1   0.10969 276646.080000
    117    119     1   0.10969 276646.080000
    120    121     1   0.10969 276646.080000
    120    122     1   0.10969 276646.080000
    123    124     1   0.10969 276646.080000
    123    125     1   0.10969 276646.080000
    126    127     1   0.10969 276646.080000
    126    128     1   0.10969 276646.080000
    129    130     1   0.10969 276646.080000
    129    131     1   0.10969 276646.080000
    132    133     1   0.10969 276646.080000
    132    134     1   0.10969 276646.080000
    135    136     1   0.10969 276646.080000
    135    137     1   0.10969 276646.080000
    138    139     1   0.10969 276646.080000
    138    140     1   0.10969 276646.080000
    141    142     1   0.10969 276646.080000
    141    143     1   0.10969 276646.080000
    146    147     1   0.10969 276646.080000
    146    148     1   0.10969 276646.080000
    149    150     1   0.10969 276646.080000
    149    151     1   0.10969 276646.080000
    152    153     1   0.10969 276646.080000
    152    154     1   0.10969 276646.080000
    155    156     1   0.10969 276646.080000
    155    157     1   0.10969 276646.080000
    158    159     1   0.10969 276646.080000
    158    160     1   0.10969 276646.080000
    161    162     1   0.10969 276646.080000
    161    163     1   0.10969 276646.080000
    164    165     1   0.10969 276646.080000
    164    166     1   0.10969 276646.080000
    167    168     1   0.10969 276646.080000
    167    169     1   0.10969 276646.080000
    170    171     1   0.10969 276646.080000
    170    172     1   0.10969 276646.080000
    175    176     1   0.10969 276646.080000
    175    177     1   0.10969 276646.080000
    178    179     1   0.10969 276646.080000
    178    180     1   0.10969 276646.080000
    181    182     1   0.10969 276646.080000
    181    183     1   0.10969 276646.080000
    184    185     1   0.10969 276646.080000
    184    186     1   0.10969 276646.080000
    187    188     1   0.10969 276646.080000
    187    189     1   0.10969 276646.080000
    190    191     1   0.10969 276646.080000
    190    192     1   0.10969 276646.080000
    193    194     1   0.10969 276646.080000
    193    195     1   0.10969 276646.080000
    196    197     1   0.10969 276646.080000
    196    198     1   0.10969 276646.080000
    199    200     1   0.10969 276646.080000
    199    201     1   0.10969 276646.080000
    204    205     1   0.10969 276646.080000
    204    206     1   0.10969 276646.080000
    207    208     1   0.10969 276646.080000
    207    209     1   0.10969 276646.080000
    210    211     1   0.10969 276646.080000
    210    212     1   0.10969 276646.080000
    213    214     1   0.10969 276646.080000
    213    215     1   0.10969 276646.080000
    216    217     1   0.10969 276646.080000
    216    218     1   0.10969 276646.080000
    219    220     1   0.10969 276646.080000
    219    221     1   0.10969 276646.080000
    222    223     1   0.10969 276646.080000
    222    224     1   0.10969 276646.080000
    225    226     1   0.10969 276646.080000
    225    227     1   0.10969 276646.080000
    228    229     1   0.10969 276646.080000
    228    230     1   0.10969 276646.080000
    233    234     1   0.10969 276646.080000
    233    235     1   0.10969 276646.080000
    236    237     1   0.10969 276646.080000
    236    238     1   0.10969 276646.080000
    239    240     1   0.10969 276646.080000
    239    241     1   0.10969 276646.080000
    242    243     1   0.10969 276646.080000
    242    244     1   0.10969 276646.080000
    245    246     1   0.10969 276646.080000
    245    247     1   0.10969 276646.080000
    248    249     1   0.10969 276646.080000
    248    250     1   0.10969 276646.080000
    251    252     1   0.10969 276646.080000
    251    253     1   0.10969 276646.080000
    254    255     1   0.10969 276646.080000
    254    256     1   0.10969 276646.080000
    257    258     1   0.10969 276646.080000
    257    259     1   0.10969 276646.080000
    262    263     1   0.10969 276646.080000
    262    264     1   0.10969 276646.080000
    265    266     1   0.10969 276646.080000
    265    267     1   0.10969 276646.080000
    268    269     1   0.10969 276646.080000
    268    270     1   0.10969 276646.080000
    271    272     1   0.10969 276646.080000
    271    273     1   0.10969 276646.080000
    274    275     1   0.10969 276646.080000
    274    276     1   0.10969 276646.080000
    277    278     1   0.10969 276646.080000
    277    279     1   0.10969 276646.080000
    280    281     1   0.10969 276646.080000
    280    282     1   0.10969 276646.080000
    283    284     1   0.10969 276646.080000
    283    285     1   0.10969 276646.080000
    286    287     1   0.10969 276646.080000
    286    288     1   0.10969 276646.080000
    290    291     1   0.10969 276646.080000
    290    292     1   0.10969 276646.080000
    293    294     1   0.10969 276646.080000
    293    295     1   0.10969 276646.080000
    296    297     1   0.10969 276646.080000
    296    298     1   0.10969 276646.080000
    300    301     1   0.10969 276646.080000
    300    302     1   0.10969 276646.080000
    303    304     1   0.10969 276646.080000
    303    305     1   0.10969 276646.080000
    309    310     1   0.10969 276646.080000
    309    311     1   0.10969 276646.080000
    312    313     1   0.10969 276646.080000
    312    314     1   0.10969 276646.080000
    319    320     1   0.10969 276646.080000
    319    321     1   0.10969 276646.080000
    322    323     1   0.10969 276646.080000
    322    324     1   0.10969 276646.080000
    325    326     1   0.10969 276646.080000
    325    327     1   0.10969 276646.080000
    329    330     1   0.10969 276646.080000
    329    331     1   0.10969 276646.080000
    332    333     1   0.10969 276646.080000
    332    334     1   0.10969 276646.080000
    338    339     1   0.10969 276646.080000
    338    340     1   0.10969 276646.080000
    341    342     1   0.10969 276646.080000
    341    343     1   0.10969 276646.080000
    348    349     1   0.10969 276646.080000
    348    350     1   0.10969 276646.080000
    351    352     1   0.10969 276646.080000
    351    353     1   0.10969 276646.080000
    354    355     1   0.10969 276646.080000
    354    356     1   0.10969 276646.080000
    358    359     1   0.10969 276646.080000
    358    360     1   0.10969 276646.080000
    361    362     1   0.10969 276646.080000
    361    363     1   0.10969 276646.080000
    367    368     1   0.10969 276646.080000
    367    369     1   0.10969 276646.080000
    370    371     1   0.10969 276646.080000
    370    372     1   0.10969 276646.080000
    377    378     1   0.10969 276646.080000
    377    379     1   0.10969 276646.080000
    380    381     1   0.10969 276646.080000
    380    382     1   0.10969 276646.080000
    383    384     1   0.10969 276646.080000
    383    385     1   0.10969 276646.080000
    387    388     1   0.10969 276646.080000
    387    389     1   0.10969 276646.080000
    390    391     1   0.10969 276646.080000
    390    392     1   0.10969 276646.080000
    396    397     1   0.10969 276646.080000
    396    398     1   0.10969 276646.080000
    399    400     1   0.10969 276646.080000
    399    401     1   0.10969 276646.080000
    406    407     1   0.10969 276646.080000
    406    408     1   0.10969 276646.080000
    409    410     1   0.10969 276646.080000
    409    411     1   0.10969 276646.080000
    412    413     1   0.10969 276646.080000
    412    414     1   0.10969 276646.080000
    416    417     1   0.10969 276646.080000
    416    418     1   0.10969 276646.080000
    419    420     1   0.10969 276646.080000
    419    421     1   0.10969 276646.080000
    425    426     1   0.10969 276646.080000
    425    427     1   0.10969 276646.080000
    428    429     1   0.10969 276646.080000
    428    430     1   0.10969 276646.080000
    435    436     1   0.10969 276646.080000
    435    437     1   0.10969 276646.080000
    438    439     1   0.10969 276646.080000
    438    440     1   0.10969 276646.080000
    441    442     1   0.10969 276646.080000
    441    443     1   0.10969 276646.080000
    445    446     1   0.10969 276646.080000
    445    447     1   0.10969 276646.080000
    448    449     1   0.10969 276646.080000
    448    450     1   0.10969 276646.080000
    454    455     1   0.10969 276646.080000
    454    456     1   0.10969 276646.080000
    457    458     1   0.10969 276646.080000
    457    459     1   0.10969 276646.080000
    464    465     1   0.10969 276646.080000
    464    466     1   0.10969 276646.080000
    467    468     1   0.10969 276646.080000
    467    469     1   0.10969 276646.080000
    470    471     1   0.10969 276646.080000
    470    472     1   0.10969 276646.080000
    474    475     1   0.10969 276646.080000
    474    476     1   0.10969 276646.080000
    477    478     1   0.10969 276646.080000
    477    479     1   0.10969 276646.080000
    483    484     1   0.10969 276646.080000
    483    485     1   0.10969 276646.080000
    486    487     1   0.10969 276646.080000
    486    488     1   0.10969 276646.080000
    493    494     1   0.10969 276646.080000
    493    495     1   0.10969 276646.080000
    496    497     1   0.10969 276646.080000
    496    498     1   0.10969 276646.080000
    499    500     1   0.10969 276646.080000
    499    501     1   0.10969 276646.080000
    503    504     1   0.10969 276646.080000
    503    505     1   0.10969 276646.080000
    506    507     1   0.10969 276646.080000
    506    508     1   0.10969 276646.080000
    512    513     1   0.10969 276646.080000
    512    514     1   0.10969 276646.080000
    515    516     1   0.10969 276646.080000
    515    517     1   0.10969 276646.080000
    522    523     1   0.10969 276646.080000
    522    524     1   0.10969 276646.080000
    525    526     1   0.10969 276646.080000
    525    527     1   0.10969 276646.080000
    528    529     1   0.10969 276646.080000
    528    530     1   0.10969 276646.080000
    532    533     1   0.10969 276646.080000
    532    534     1   0.10969 276646.080000
    535    536     1   0.10969 276646.080000
    535    537     1   0.10969 276646.080000
    541    542     1   0.10969 276646.080000
    541    543     1   0.10969 276646.080000
    544    545     1   0.10969 276646.080000
    544    546     1   0.10969 276646.080000
    551    552     1   0.10969 276646.080000
    551    553     1   0.10969 276646.080000
    554    555     1   0.10969 276646.080000
    554    556     1   0.10969 276646.080000
    557    558     1   0.10969 276646.080000
    557    559     1   0.10969 276646.080000
    561    562     1   0.10969 276646.080000
    561    563     1   0.10969 276646.080000
    564    565     1   0.10969 276646.080000
    564    566     1   0.10969 276646.080000
    570    571     1   0.10969 276646.080000
    570    572     1   0.10969 276646.080000
    573    574     1   0.10969 276646.080000
    573    575     1   0.10969 276646.080000
    580    581     1   0.10969 276646.080000
    580    582     1   0.10969 276646.080000
    583    584     1   0.10969 276646.080000
    583    585     1   0.10969 276646.080000
    586    587     1   0.10969 276646.080000
    586    588     1   0.10969 276646.080000
    590    591     1   0.10969 276646.080000
    590    592     1   0.10969 276646.080000
    593    594     1   0.10969 276646.080000
    593    595     1   0.10969 276646.080000
    599    600     1   0.10969 276646.080000
    599    601     1   0.10969 276646.080000
    602    603     1   0.10969 276646.080000
    602    604     1   0.10969 276646.080000
    609    610     1   0.10969 276646.080000
    609    611     1   0.10969 276646.080000
    612    613     1   0.10969 276646.080000
    612    614     1   0.10969 276646.080000
    615    616     1   0.10969 276646.080000
    615    617     1   0.10969 276646.080000
    619    620     1   0.10969 276646.080000
    619    621     1   0.10969 276646.080000
    622    623     1   0.10969 276646.080000
    622    624     1   0.10969 276646.080000
    628    629     1   0.10969 276646.080000
    628    630     1   0.10969 276646.080000
    631    632     1   0.10969 276646.080000
    631    633     1   0.10969 276646.080000

[ pairs ]
;    ai     aj funct         c0         c1         c2         c3
      1     26     1
      1     20     1
      1     23     1
      2     17     1
      2     11     1
      2    115     1
      5     14     1
      5     11     1
      5     57     1
      8     14     1
      8     17     1
      8     86     1
     11     77     1
     14    106     1
     17     48     1
     20     39     1
     23     68     1
     26     97     1
     29     54     1
     29     51     1
     29     48     1
     30     45     1
     30     39     1
     30    173     1
     33     42     1
     33     39     1
     33    144     1
     36     42     1
     36     45     1
     36     57     1
     42    164     1
     45    135     1
     51    126     1
     54    155     1
     58     83     1
     58     80     1
     58     77     1
     59     74     1
     59     68     1
     59    231     1
     62     71     1
     62     68     1
     62    202     1
     65     71     1
     65     74     1
     65     86     1
     71    222     1
     74    193     1
     80    184     1
     83    213     1
     87    112     1
     87    109     1
     87    106     1
     88    103     1
     88     97     1
     88    289     1
     91    100     1
     91     97     1
     91    260     1
     94    100     1
     94    103     1
     94    115     1
    100    280     1
    103    251     1
    109    242     1
    112    271     1
    116    141     1
    116    138     1
    116    135     1
    117    132     1
    117    126     1
    117    347     1
    120    129     1
    120    126     1
    120    318     1
    123    129     1
    123    132     1
    123    144     1
    129    319     1
    132    290     1
    138    293     1
    141    322     1
    145    170     1
    145    167     1
    145    164     1
    146    161     1
    146    155     1
    146    405     1
    149    158     1
    149    155     1
    149    376     1
    152    158     1
    152    161     1
    152    173     1
    158    377     1
    161    348     1
    167    351     1
    170    380     1
    174    199     1
    174    196     1
    174    193     1
    175    190     1
    175    184     1
    175    463     1
    178    187     1
    178    184     1
    178    434     1
    181    187     1
    181    190     1
    181    202     1
    187    435     1
    190    406     1
    196    409     1
    199    438     1
    203    228     1
    203    225     1
    203    222     1
    204    219     1
    204    213     1
    204    521     1
    207    216     1
    207    213     1
    207    492     1
    210    216     1
    210    219     1
    210    231     1
    216    493     1
    219    464     1
    225    467     1
    228    496     1
    232    257     1
    232    254     1
    232    251     1
    233    248     1
    233    242     1
    233    579     1
    236    245     1
    236    242     1
    236    550     1
    239    245     1
    239    248     1
    239    260     1
    245    551     1
    248    522     1
    254    525     1
    257    554     1
    261    286     1
    261    283     1
    261    280     1
    262    277     1
    262    271     1
    262    637     1
    265    274     1
    265    271     1
    265    608     1
    268    274     1
    268    277     1
    268    289     1
    274    609     1
    277    580     1
    283    583     1
    286    612     1
    290    299     1
    293    300     1
    293    309     1
    296    318     1
    296    303     1
    296    312     1
    299    306     1
    299    315     1
    300    312     1
    300    307     1
    300    308     1
    303    309     1
    309    316     1
    309    317     1
    319    328     1
    322    329     1
    322    338     1
    325    332     1
    325    341     1
    325    347     1
    328    335     1
    328    344     1
    329    336     1
    329    337     1
    329    341     1
    332    338     1
    338    345     1
    338    346     1
    348    357     1
    351    358     1
    351    367     1
    354    376     1
    354    361     1
    354    370     1
    357    364     1
    357    373     1
    358    370     1
    358    365     1
    358    366     1
    361    367     1
    367    374     1
    367    375     1
    377    386     1
    380    387     1
    380    396     1
    383    390     1
    383    399     1
    383    405     1
    386    393     1
    386    402     1
    387    394     1
    387    395     1
    387    399     1
    390    396     1
    396    403     1
    396    404     1
    406    415     1
    409    416     1
    409    425     1
    412    434     1
    412    419     1
    412    428     1
    415    422     1
    415    431     1
    416    428     1
    416    423     1
    416    424     1
    419    425     1
    425    432     1
    425    433     1
    435    444     1
    438    445     1
    438    454     1
    441    448     1
    441    457     1
    441    463     1
    444    451     1
    444    460     1
    445    452     1
    445    453     1
    445    457     1
    448    454     1
    454    461     1
    454    462     1
    464    473     1
    467    474     1
    467    483     1
    470    492     1
    470    477     1
    470    486     1
    473    480     1
    473    489     1
    474    486     1
    474    481     1
    474    482     1
    477    483     1
    483    490     1
    483    491     1
    493    502     1
    496    503     1
    496    512     1
    499    506     1
    499    515     1
    499    521     1
    502    509     1
    502    518     1
    503    510     1
    503    511     1
    503    515     1
    506    512     1
    512    519     1
    512    520     1
    522    531     1
    525    532     1
    525    541     1
    528    550     1
    528    535     1
    528    544     1
    531    538     1
    531    547     1
    532    544     1
    532    539     1
    532    540     1
    535    541     1
    541    548     1
    541    549     1
    551    560     1
    554    561     1
    554    570     1
    557    564     1
    557    573     1
    557    579     1
    560    567     1
    560    576     1
    561    568     1
    561    569     1
    561    573     1
    564    570     1
    570    577     1
    570    578     1
    580    589     1
    583    590     1
    583    599     1
    586    608     1
    586    593     1
    586    602     1
    589    596     1
    589    605     1
    590    602     1
    590    597     1
    590    598     1
    593    599     1
    599    606     1
    599    607     1
    609    618     1
    612    619     1
    612    628     1
    615    622     1
    615    631     1
    615    637     1
    618    625     1
    618    634     1
    619    626     1
    619    627     1
    619    631     1
    622    628     1
    628    635     1
    628    636     1
      1     15     1
      1     16     1
      1     18     1
      1     19     1
      1     12     1
      1     13     1
      2      6     1
      2      7     1
      2      9     1
      2     10     1
      2     27     1
      2     28     1
      5      3     1
      8      3     1
      3     26     1
      3     15     1
      3     16     1
      5      4     1
      8      4     1
      4     26     1
      4     15     1
      4     16     1
      5      9     1
      5     10     1
      5     21     1
      5     22     1
      8      6     1
      6     20     1
      6     18     1
      6     19     1
      8      7     1
      7     20     1
      7     18     1
      7     19     1
      8     24     1
      8     25     1
      9     23     1
      9     12     1
      9     13     1
     10     23     1
     10     12     1
     10     13     1
     12     86     1
     12     24     1
     12     25     1
     13     86     1
     13     24     1
     13     25     1
     15    115     1
     15     27     1
     15     28     1
     16    115     1
     16     27     1
     16     28     1
     18     57     1
     18     21     1
     18     22     1
     19     57     1
     19     21     1
     19     22     1
     20     49     1
     20     50     1
     21     48     1
     22     48     1
     23     78     1
     23     79     1
     24     77     1
     25     77     1
     26    107     1
     26    108     1
     27    106     1
     28    106     1
     29     43     1
     29     44     1
     29     46     1
     29     47     1
     29     40     1
     29     41     1
     30     34     1
     30     35     1
     30     37     1
     30     38     1
     30     55     1
     30     56     1
     31     33     1
     31     36     1
     31     54     1
     31     43     1
     31     44     1
     32     33     1
     32     36     1
     32     54     1
     32     43     1
     32     44     1
     33     37     1
     33     38     1
     33     52     1
     33     53     1
     34     36     1
     34     51     1
     34     46     1
     34     47     1
     35     36     1
     35     51     1
     35     46     1
     35     47     1
     36     49     1
     36     50     1
     37     48     1
     37     40     1
     37     41     1
     38     48     1
     38     40     1
     38     41     1
     40     57     1
     40     49     1
     40     50     1
     41     57     1
     41     49     1
     41     50     1
     43    173     1
     43     55     1
     43     56     1
     44    173     1
     44     55     1
     44     56     1
     46    144     1
     46     52     1
     46     53     1
     47    144     1
     47     52     1
     47     53     1
     51    136     1
     51    137     1
     52    135     1
     53    135     1
     54    165     1
     54    166     1
     55    164     1
     56    164     1
     58     72     1
     58     73     1
     58     75     1
     58     76     1
     58     69     1
     58     70     1
     59     63     1
     59     64     1
     59     66     1
     59     67     1
     59     84     1
     59     85     1
     60     62     1
     60     65     1
     60     83     1
     60     72     1
     60     73     1
     61     62     1
     61     65     1
     61     83     1
     61     72     1
     61     73     1
     62     66     1
     62     67     1
     62     81     1
     62     82     1
     63     65     1
     63     80     1
     63     75     1
     63     76     1
     64     65     1
     64     80     1
     64     75     1
     64     76     1
     65     78     1
     65     79     1
     66     77     1
     66     69     1
     66     70     1
     67     77     1
     67     69     1
     67     70     1
     69     86     1
     69     78     1
     69     79     1
     70     86     1
     70     78     1
     70     79     1
     72    231     1
     72     84     1
     72     85     1
     73    231     1
     73     84     1
     73     85     1
     75    202     1
     75     81     1
     75     82     1
     76    202     1
     76     81     1
     76     82     1
     80    194     1
     80    195     1
     81    193     1
     82    193     1
     83    223     1
     83    224     1
     84    222     1
     85    222     1
     87    101     1
     87    102     1
     87    104     1
     87    105     1
     87     98     1
     87     99     1
     88     92     1
     88     93     1
     88     95     1
     88     96     1
     88    113     1
     88    114     1
     89     91     1
     89     94     1
     89    112     1
     89    101     1
     89    102     1
     90     91     1
     90     94     1
     90    112     1
     90    101     1
     90    102     1
     91     95     1
     91     96     1
     91    110     1
     91    111     1
     92     94     1
     92    109     1
     92    104     1
     92    105     1
     93     94     1
     93    109     1
     93    104     1
     93    105     1
     94    107     1
     94    108     1
     95    106     1
     95     98     1
     95     99     1
     96    106     1
     96     98     1
     96     99     1
     98    115     1
     98    107     1
     98    108     1
     99    115     1
     99    107     1
     99    108     1
    101    289     1
    101    113     1
    101    114     1
    102    289     1
    102    113     1
    102    114     1
    104    260     1
    104    110     1
    104    111     1
    105    260     1
    105    110     1
    105    111     1
    109    252     1
    109    253     1
    110    251     1
    111    251     1
    112    281     1
    112    282     1
    113    280     1
    114    280     1
    116    130     1
    116    131     1
    116    133     1
    116    134     1
    116    127     1
    116    128     1
    117    121     1
    117    122     1
    117    124     1
    117    125     1
    117    142     1
    117    143     1
    118    120     1
    118    123     1
    118    141     1
    118    130     1
    118    131     1
    119    120     1
    119    123     1
    119    141     1
    119    130     1
    119    131     1
    120    124     1
    120    125     1
    120    139     1
    120    140     1
    121    123     1
    121    138     1
    121    133     1
    121    134     1
    122    123     1
    122    138     1
    122    133     1
    122    134     1
    123    136     1
    123    137     1
    124    135     1
    124    127     1
    124    128     1
    125    135     1
    125    127     1
    125    128     1
    127    144     1
    127    136     1
    127    137     1
    128    144     1
    128    136     1
    128    137     1
    130    347     1
    130    142     1
    130    143     1
    131    347     1
    131    142     1
    131    143     1
    133    318     1
    133    139     1
    133    140     1
    134    318     1
    134    139     1
    134    140     1
    138    291     1
    138    292     1
    139    290     1
    140    290     1
    141    320     1
    141    321     1
    142    319     1
    143    319     1
    145    159     1
    145    160     1
    145    162     1
    145    163     1
    145    156     1
    145    157     1
    146    150     1
    146    151     1
    146    153     1
    146    154     1
    146    171     1
    146    172     1
    147    149     1
    147    152     1
    147    170     1
    147    159     1
    147    160     1
    148    149     1
    148    152     1
    148    170     1
    148    159     1
    148    160     1
    149    153     1
    149    154     1
    149    168     1
    149    169     1
    150    152     1
    150    167     1
    150    162     1
    150    163     1
    151    152     1
    151    167     1
    151    162     1
    151    163     1
    152    165     1
    152    166     1
    153    164     1
    153    156     1
    153    157     1
    154    164     1
    154    156     1
    154    157     1
    156    173     1
    156    165     1
    156    166     1
    157    173     1
    157    165     1
    157    166     1
    159    405     1
    159    171     1
    159    172     1
    160    405     1
    160    171     1
    160    172     1
    162    376     1
    162    168     1
    162    169     1
    163    376     1
    163    168     1
    163    169     1
    167    349     1
    167    350     1
    168    348     1
    169    348     1
    170    378     1
    170    379     1
    171    377     1
    172    377     1
    174    188     1
    174    189     1
    174    191     1
    174    192     1
    174    185     1
    174    186     1
    175    179     1
    175    180     1
    175    182     1
    175    183     1
    175    200     1
    175    201     1
    176    178     1
    176    181     1
    176    199     1
    176    188     1
    176    189     1
    177    178     1
    177    181     1
    177    199     1
    177    188     1
    177    189     1
    178    182     1
    178    183     1
    178    197     1
    178    198     1
    179    181     1
    179    196     1
    179    191     1
    179    192     1
    180    181     1
    180    196     1
    180    191     1
    180    192     1
    181    194     1
    181    195     1
    182    193     1
    182    185     1
    182    186     1
    183    193     1
    183    185     1
    183    186     1
    185    202     1
    185    194     1
    185    195     1
    186    202     1
    186    194     1
    186    195     1
    188    463     1
    188    200     1
    188    201     1
    189    463     1
    189    200     1
    189    201     1
    191    434     1
    191    197     1
    191    198     1
    192    434     1
    192    197     1
    192    198     1
    196    407     1
    196    408     1
    197    406     1
    198    406     1
    199    436     1
    199    437     1
    200    435     1
    201    435     1
    203    217     1
    203    218     1
    203    220     1
    203    221     1
    203    214     1
    203    215     1
    204    208     1
    204    209     1
    204    211     1
    204    212     1
    204    229     1
    204    230     1
    205    207     1
    205    210     1
    205    228     1
    205    217     1
    205    218     1
    206    207     1
    206    210     1
    206    228     1
    206    217     1
    206    218     1
    207    211     1
    207    212     1
    207    226     1
    207    227     1
    208    210     1
    208    225     1
    208    220     1
    208    221     1
    209    210     1
    209    225     1
    209    220     1
    209    221     1
    210    223     1
    210    224     1
    211    222     1
    211    214     1
    211    215     1
    212    222     1
    212    214     1
    212    215     1
    214    231     1
    214    223     1
    214    224     1
    215    231     1
    215    223     1
    215    224     1
    217    521     1
    217    229     1
    217    230     1
    218    521     1
    218    229     1
    218    230     1
    220    492     1
    220    226     1
    220    227     1
    221    492     1
    221    226     1
    221    227     1
    225    465     1
    225    466     1
    226    464     1
    227    464     1
    228    494     1
    228    495     1
    229    493     1
    230    493     1
    232    246     1
    232    247     1
    232    249     1
    232    250     1
    232    243     1
    232    244     1
    233    237     1
    233    238     1
    233    240     1
    233    241     1
    233    258     1
    233    259     1
    234    236     1
    234    239     1
    234    257     1
    234    246     1
    234    247     1
    235    236     1
    235    239     1
    235    257     1
    235    246     1
    235    247     1
    236    240     1
    236    241     1
    236    255     1
    236    256     1
    237    239     1
    237    254     1
    237    249     1
    237    250     1
    238    239     1
    238    254     1
    238    249     1
    238    250     1
    239    252     1
    239    253     1
    240    251     1
    240    243     1
    240    244     1
    241    251     1
    241    243     1
    241    244     1
    243    260     1
    243    252     1
    243    253     1
    244    260     1
    244    252     1
    244    253     1
    246    579     1
    246    258     1
    246    259     1
    247    579     1
    247    258     1
    247    259     1
    249    550     1
    249    255     1
    249    256     1
    250    550     1
    250    255     1
    250    256     1
    254    523     1
    254    524     1
    255    522     1
    256    522     1
    257    552     1
    257    553     1
    258    551     1
    259    551     1
    261    275     1
    261    276     1
    261    278     1
    261    279     1
    261    272     1
    261    273     1
    262    266     1
    262    267     1
    262    269     1
    262    270     1
    262    287     1
    262    288     1
    263    265     1
    263    268     1
    263    286     1
    263    275     1
    263    276     1
    264    265     1
    264    268     1
    264    286     1
    264    275     1
    264    276     1
    265    269     1
    265    270     1
    265    284     1
    265    285     1
    266    268     1
    266    283     1
    266    278     1
    266    279     1
    267    268     1
    267    283     1
    267    278     1
    267    279     1
    268    281     1
    268    282     1
    269    280     1
    269    272     1
    269    273     1
    270    280     1
    270    272     1
    270    273     1
    272    289     1
    272    281     1
    272    282     1
    273    289     1
    273    281     1
    273    282     1
    275    637     1
    275    287     1
    275    288     1
    276    637     1
    276    287     1
    276    288     1
    278    608     1
    278    284     1
    278    285     1
    279    608     1
    279    284     1
    279    285     1
    283    581     1
    283    582     1
    284    580     1
    285    580     1
    286    610     1
    286    611     1
    287    609     1
    288    609     1
    290    297     1
    290    298     1
    291    296     1
    291    294     1
    291    295     1
    292    296     1
    292    294     1
    292    295     1
    294    318     1
    294    299     1
    294    297     1
    294    298     1
    295    318     1
    295    299     1
    295    297     1
    295    298     1
    296    301     1
    296    302     1
    296    310     1
    296    311     1
    297    300     1
    297    309     1
    298    300     1
    298    309     1
    299    304     1
    299    305     1
    299    313     1
    299    314     1
    300    310     1
    300    311     1
    301    309     1
    301    306     1
    301    304     1
    301    305     1
    302    309     1
    302    306     1
    302    304     1
    302    305     1
    304    307     1
    304    308     1
    305    307     1
    305    308     1
    310    315     1
    310    313     1
    310    314     1
    311    315     1
    311    313     1
    311    314     1
    313    316     1
    313    317     1
    314    316     1
    314    317     1
    319    326     1
    319    327     1
    320    325     1
    320    323     1
    320    324     1
    321    325     1
    321    323     1
    321    324     1
    323    328     1
    323    326     1
    323    327     1
    323    347     1
    324    328     1
    324    326     1
    324    327     1
    324    347     1
    325    330     1
    325    331     1
    325    339     1
    325    340     1
    326    329     1
    326    338     1
    327    329     1
    327    338     1
    328    333     1
    328    334     1
    328    342     1
    328    343     1
    329    339     1
    329    340     1
    330    335     1
    330    333     1
    330    334     1
    330    338     1
    331    335     1
    331    333     1
    331    334     1
    331    338     1
    333    336     1
    333    337     1
    334    336     1
    334    337     1
    339    344     1
    339    342     1
    339    343     1
    340    344     1
    340    342     1
    340    343     1
    342    345     1
    342    346     1
    343    345     1
    343    346     1
    348    355     1
    348    356     1
    349    354     1
    349    352     1
    349    353     1
    350    354     1
    350    352     1
    350    353     1
    352    376     1
    352    357     1
    352    355     1
    352    356     1
    353    376     1
    353    357     1
    353    355     1
    353    356     1
    354    359     1
    354    360     1
    354    368     1
    354    369     1
    355    358     1
    355    367     1
    356    358     1
    356    367     1
    357    362     1
    357    363     1
    357    371     1
    357    372     1
    358    368     1
    358    369     1
    359    367     1
    359    364     1
    359    362     1
    359    363     1
    360    367     1
    360    364     1
    360    362     1
    360    363     1
    362    365     1
    362    366     1
    363    365     1
    363    366     1
    368    373     1
    368    371     1
    368    372     1
    369    373     1
    369    371     1
    369    372     1
    371    374     1
    371    375     1
    372    374     1
    372    375     1
    377    384     1
    377    385     1
    378    383     1
    378    381     1
    378    382     1
    379    383     1
    379    381     1
    379    382     1
    381    386     1
    381    384     1
    381    385     1
    381    405     1
    382    386     1
    382    384     1
    382    385     1
    382    405     1
    383    388     1
    383    389     1
    383    397     1
    383    398     1
    384    387     1
    384    396     1
    385    387     1
    385    396     1
    386    391     1
    386    392     1
    386    400     1
    386    401     1
    387    397     1
    387    398     1
    388    393     1
    388    391     1
    388    392     1
    388    396     1
    389    393     1
    389    391     1
    389    392     1
    389    396     1
    391    394     1
    391    395     1
    392    394     1
    392    395     1
    397    402     1
    397    400     1
    397    401     1
    398    402     1
    398    400     1
    398    401     1
    400    403     1
    400    404     1
    401    403     1
    401    404     1
    406    413     1
    406    414     1
    407    412     1
    407    410     1
    407    411     1
    408    412     1
    408    410     1
    408    411     1
    410    434     1
    410    415     1
    410    413     1
    410    414     1
    411    434     1
    411    415     1
    411    413     1
    411    414     1
    412    417     1
    412    418     1
    412    426     1
    412    427     1
    413    416     1
    413    425     1
    414    416     1
    414    425     1
    415    420     1
    415    421     1
    415    429     1
    415    430     1
    416    426     1
    416    427     1
    417    425     1
    417    422     1
    417    420     1
    417    421     1
    418    425     1
    418    422     1
    418    420     1
    418    421     1
    420    423     1
    420    424     1
    421    423     1
    421    424     1
    426    431     1
    426    429     1
    426    430     1
    427    431     1
    427    429     1
    427    430     1
    429    432     1
    429    433     1
    430    432     1
    430    433     1
    435    442     1
    435    443     1
    436    441     1
    436    439     1
    436    440     1
    437    441     1
    437    439     1
    437    440     1
    439    444     1
    439    442     1
    439    443     1
    439    463     1
    440    444     1
    440    442     1
    440    443     1
    440    463     1
    441    446     1
    441    447     1
    441    455     1
    441    456     1
    442    445     1
    442    454     1
    443    445     1
    443    454     1
    444    449     1
    444    450     1
    444    458     1
    444    459     1
    445    455     1
    445    456     1
    446    451     1
    446    449     1
    446    450     1
    446    454     1
    447    451     1
    447    449     1
    447    450     1
    447    454     1
    449    452     1
    449    453     1
    450    452     1
    450    453     1
    455    460     1
    455    458     1
    455    459     1
    456    460     1
    456    458     1
    456    459     1
    458    461     1
    458    462     1
    459    461     1
    459    462     1
    464    471     1
    464    472     1
    465    470     1
    465    468     1
    465    469     1
    466    470     1
    466    468     1
    466    469     1
    468    492     1
    468    473     1
    468    471     1
    468    472     1
    469    492     1
    469    473     1
    469    471     1
    469    472     1
    470    475     1
    470    476     1
    470    484     1
    470    485     1
    471    474     1
    471    483     1
    472    474     1
    472    483     1
    473    478     1
    473    479     1
    473    487     1
    473    488     1
    474    484     1
    474    485     1
    475    483     1
    475    480     1
    475    478     1
    475    479     1
    476    483     1
    476    480     1
    476    478     1
    476    479     1
    478    481     1
    478    482     1
    479    481     1
    479    482     1
    484    489     1
    484    487     1
    484    488     1
    485    489     1
    485    487     1
    485    488     1
    487    490     1
    487    491     1
    488    490     1
    488    491     1
    493    500     1
    493    501     1
    494    499     1
    494    497     1
    494    498     1
    495    499     1
    495    497     1
    495    498     1
    497    502     1
    497    500     1
    497    501     1
    497    521     1
    498    502     1
    498    500     1
    498    501     1
    498    521     1
    499    504     1
    499    505     1
    499    513     1
    499    514     1
    500    503     1
    500    512     1
    501    503     1
    501    512     1
    502    507     1
    502    508     1
    502    516     1
    502    517     1
    503    513     1
    503    514     1
    504    509     1
    504    507     1
    504    508     1
    504    512     1
    505    509     1
    505    507     1
    505    508     1
    505    512     1
    507    510     1
    507    511     1
    508    510     1
    508    511     1
    513    518     1
    513    516     1
    513    517     1
    514    518     1
    514    516     1
    514    517     1
    516    519     1
    516    520     1
    517    519     1
    517    520     1
    522    529     1
    522    530     1
    523    528     1
    523    526     1
    523    527     1
    524    528     1
    524    526     1
    524    527     1
    526    550     1
    526    531     1
    526    529     1
    526    530     1
    527    550     1
    527    531     1
    527    529     1
    527    530     1
    528    533     1
    528    534     1
    528    542     1
    528    543     1
    529    532     1
    529    541     1
    530    532     1
    530    541     1
    531    536     1
    531    537     1
    531    545     1
    531    546     1
    532    542     1
    532    543     1
    533    541     1
    533    538     1
    533    536     1
    533    537     1
    534    541     1
    534    538     1
    534    536     1
    534    537     1
    536    539     1
    536    540     1
    537    539     1
    537    540     1
    542    547     1
    542    545     1
    542    546     1
    543    547     1
    543    545     1
    543    546     1
    545    548     1
    545    549     1
    546    548     1
    546    549     1
    551    558     1
    551    559     1
    552    557     1
    552    555     1
    552    556     1
    553    557     1
    553    555     1
    553    556     1
    555    560     1
    555    558     1
    555    559     1
    555    579     1
    556    560     1
    556    558     1
    556    559     1
    556    579     1
    557    562     1
    557    563     1
    557    571     1
    557    572     1
    558    561     1
    558    570     1
    559    561     1
    559    570     1
    560    565     1
    560    566     1
    560    574     1
    560    575     1
    561    571     1
    561    572     1
    562    567     1
    562    565     1
    562    566     1
    562    570     1
    563    567     1
    563    565     1
    563    566     1
    563    570     1
    565    568     1
    565    569     1
    566    568     1
    566    569     1
    571    576     1
    571    574     1
    571    575     1
    572    576     1
    572    574     1
    572    575     1
    574    577     1
    574    578     1
    575    577     1
    575    578     1
    580    587     1
    580    588     1
    581    586     1
    581    584     1
    581    585     1
    582    586     1
    582    584     1
    582    585     1
    584    608     1
    584    589     1
    584    587     1
    584    588     1
    585    608     1
    585    589     1
    585    587     1
    585    588     1
    586    591     1
    586    592     1
    586    600     1
    586    601     1
    587    590     1
    587    599     1
    588    590     1
    588    599     1
    589    594     1
    589    595     1
    589    603     1
    589    604     1
    590    600     1
    590    601     1
    591    599     1
    591    596     1
    591    594     1
    591    595     1
    592    599     1
    592    596     1
    592    594     1
    592    595     1
    594    597     1
    594    598     1
    595    597     1
    595    598     1
    600    605     1
    600    603     1
    600    604     1
    601    605     1
    601    603     1
    601    604     1
    603    606     1
    603    607     1
    604    606     1
    604    607     1
    609    616     1
    609    617     1
    610    615     1
    610    613     1
    610    614     1
    611    615     1
    611    613     1
    611    614     1
    613    618     1
    613    616     1
    613    617     1
    613    637     1
    614    618     1
    614    616     1
    614    617     1
    614    637     1
    615    620     1
    615    621     1
    615    629     1
    615    630     1
    616    619     1
    616    628     1
    617    619     1
    617    628     1
    618    623     1
    618    624     1
    618    632     1
    618    633     1
    619    629     1
    619    630     1
    620    625     1
    620    623     1
    620    624     1
    620    628     1
    621    625     1
    621    623     1
    621    624     1
    621    628     1
    623    626     1
    623    627     1
    624    626     1
    624    627     1
    629    634     1
    629    632     1
    629    633     1
    630    634     1
    630    632     1
    630    633     1
    632    635     1
    632    636     1
    633    635     1
    633    636     1

[ angles ]
;    ai     aj     ak funct         c0         c1         c2         c3
      1      2     14     1   111.0400475 552.288000
      1      5     17     1   111.0400475 552.288000
      1      8     11     1   111.0400475 552.288000
      2      1      5     1   112.3500484 533.878400
      2      1      8     1   112.3500484 533.878400
      2     14     26     1   111.5100476 526.347200
      5      1      8     1   112.3500484 533.878400
      5     17     20     1   111.5100476 526.347200
      8     11     23     1   111.5100476 526.347200
     11     23     86     1   107.9700462 569.024000
     14     26    115     1   107.9700462 569.024000
     17     20     57     1   107.9700462 569.024000
     20     57     48     1   112.4800480 524.673600
     23     86     77     1   112.4800480 524.673600
     26    115    106     1   112.4800480 524.673600
     29     30     42     1   111.0400475 552.288000
     29     33     45     1   111.0400475 552.288000
     29     36     39     1   111.0400475 552.288000
     30     29     33     1   112.3500484 533.878400
     30     29     36     1   112.3500484 533.878400
     30     42     54     1   111.5100476 526.347200
     33     29     36     1   112.3500484 533.878400
     33     45     51     1   111.5100476 526.347200
     36     39     48     1   111.5100476 526.347200
     39     48     57     1   107.9700462 569.024000
     42     54    173     1   107.9700462 569.024000
     45     51    144     1   107.9700462 569.024000
     51    144    135     1   112.4800480 524.673600
     54    173    164     1   112.4800480 524.673600
     58     59     71     1   111.0400475 552.288000
     58     62     74     1   111.0400475 552.288000
     58     65     68     1   111.0400475 552.288000
     59     58     62     1   112.3500484 533.878400
     59     58     65     1   112.3500484 533.878400
     59     71     83     1   111.5100476 526.347200
     62     58     65     1   112.3500484 533.878400
     62     74     80     1   111.5100476 526.347200
     65     68     77     1   111.5100476 526.347200
     68     77     86     1   107.9700462 569.024000
     71     83    231     1   107.9700462 569.024000
     74     80    202     1   107.9700462 569.024000
     80    202    193     1   112.4800480 524.673600
     83    231    222     1   112.4800480 524.673600
     87     88    100     1   111.0400475 552.288000
     87     91    103     1   111.0400475 552.288000
     87     94     97     1   111.0400475 552.288000
     88     87     91     1   112.3500484 533.878400
     88     87     94     1   112.3500484 533.878400
     88    100    112     1   111.5100476 526.347200
     91     87     94     1   112.3500484 533.878400
     91    103    109     1   111.5100476 526.347200
     94     97    106     1   111.5100476 526.347200
     97    106    115     1   107.9700462 569.024000
    100    112    289     1   107.9700462 569.024000
    103    109    260     1   107.9700462 569.024000
    109    260    251     1   112.4800480 524.673600
    112    289    280     1   112.4800480 524.673600
    116    117    129     1   111.0400475 552.288000
    116    120    132     1   111.0400475 552.288000
    116    123    126     1   111.0400475 552.288000
    117    116    120     1   112.3500484 533.878400
    117    116    123     1   112.3500484 533.878400
    117    129    141     1   111.5100476 526.347200
    120    116    123     1   112.3500484 533.878400
    120    132    138     1   111.5100476 526.347200
    123    126    135     1   111.5100476 526.347200
    126    135    144     1   107.9700462 569.024000
    129    141    347     1   107.9700462 569.024000
    132    138    318     1   107.9700462 569.024000
    138    318    290     1   112.4800480 524.673600
    141    347    319     1   112.4800480 524.673600
    145    146    158     1   111.0400475 552.288000
    145    149    161     1   111.0400475 552.288000
    145    152    155     1   111.0400475 552.288000
    146    145    149     1   112.3500484 533.878400
    146    145    152     1   112.3500484 533.878400
    146    158    170     1   111.5100476 526.347200
    149    145    152     1   112.3500484 533.878400
    149    161    167     1   111.5100476 526.347200
    152    155    164     1   111.5100476 526.347200
    155    164    173     1   107.9700462 569.024000
    158    170    405     1   107.9700462 569.024000
    161    167    376     1   107.9700462 569.024000
    167    376    348     1   112.4800480 524.673600
    170    405    377     1   112.4800480 524.673600
    174    175    187     1   111.0400475 552.288000
    174    178    190     1   111.0400475 552.288000
    174    181    184     1   111.0400475 552.288000
    175    174    178     1   112.3500484 533.878400
    175    174    181     1   112.3500484 533.878400
    175    187    199     1   111.5100476 526.347200
    178    174    181     1   112.3500484 533.878400
    178    190    196     1   111.5100476 526.347200
    181    184    193     1   111.5100476 526.347200
    184    193    202     1   107.9700462 569.024000
    187    199    463     1   107.9700462 569.024000
    190    196    434     1   107.9700462 569.024000
    196    434    406     1   112.4800480 524.673600
    199    463    435     1   112.4800480 524.673600
    203    204    216     1   111.0400475 552.288000
    203    207    219     1   111.0400475 552.288000
    203    210    213     1   111.0400475 552.288000
    204    203    207     1   112.3500484 533.878400
    204    203    210     1   112.3500484 533.878400
    204    216    228     1   111.5100476 526.347200
    207    203    210     1   112.3500484 533.878400
    207    219    225     1   111.5100476 526.347200
    210    213    222     1   111.5100476 526.347200
    213    222    231     1   107.9700462 569.024000
    216    228    521     1   107.9700462 569.024000
    219    225    492     1   107.9700462 569.024000
    225    492    464     1   112.4800480 524.673600
    228    521    493     1   112.4800480 524.673600
    232    233    245     1   111.0400475 552.288000
    232    236    248     1   111.0400475 552.288000
    232    239    242     1   111.0400475 552.288000
    233    232    236     1   112.3500484 533.878400
    233    232    239     1   112.3500484 533.878400
    233    245    257     1   111.5100476 526.347200
    236    232    239     1   112.3500484 533.878400
    236    248    254     1   111.5100476 526.347200
    239    242    251     1   111.5100476 526.347200
    242    251    260     1   107.9700462 569.024000
    245    257    579     1   107.9700462 569.024000
    248    254    550     1   107.9700462 569.024000
    254    550    522     1   112.4800480 524.673600
    257    579    551     1   112.4800480 524.673600
    261    262    274     1   111.0400475 552.288000
    261    265    277     1   111.0400475 552.288000
    261    268    271     1   111.0400475 552.288000
    262    261    265     1   112.3500484 533.878400
    262    261    268     1   112.3500484 533.878400
    262    274    286     1   111.5100476 526.347200
    265    261    268     1   112.3500484 533.878400
    265    277    283     1   111.5100476 526.347200
    268    271    280     1   111.5100476 526.347200
    271    280    289     1   107.9700462 569.024000
    274    286    637     1   107.9700462 569.024000
    277    283    608     1   107.9700462 569.024000
    283    608    580     1   112.4800480 524.673600
    286    637    609     1   112.4800480 524.673600
    290    293    296     1   111.5100476 526.347200
    293    290    318     1   107.9700462 569.024000
    293    296    299     1   111.0400475 552.288000
    296    299    300     1   112.3500484 533.878400
    296    299    309     1   112.3500484 533.878400
    299    300    303     1   111.0400475 552.288000
    299    309    312     1   111.0400475 552.288000
    300    299    309     1   112.3500484 533.878400
    300    303    306     1   111.0400475 529.694400
    303    306    307     1   123.2000528 564.003200
    303    306    308     1   123.2000528 564.003200
    307    306    308     1   130.2500561 651.867200
    309    312    315     1   111.0400475 529.694400
    312    315    316     1   123.2000528 564.003200
    312    315    317     1   123.2000528 564.003200
    316    315    317     1   130.2500561 651.867200
    319    322    325     1   111.5100476 526.347200
    322    325    328     1   111.0400475 552.288000
    322    319    347     1   107.9700462 569.024000
    325    328    329     1   112.3500484 533.878400
    325    328    338     1   112.3500484 533.878400
    328    329    332     1   111.0400475 552.288000
    328    338    341     1   111.0400475 552.288000
    329    332    335     1   111.0400475 529.694400
    329    328    338     1   112.3500484 533.878400
    332    335    336     1   123.2000528 564.003200
    332    335    337     1   123.2000528 564.003200
    336    335    337     1   130.2500561 651.867200
    338    341    344     1   111.0400475 529.694400
    341    344    345     1   123.2000528 564.003200
    341    344    346     1   123.2000528 564.003200
    345    344    346     1   130.2500561 651.867200
    348    351    354     1   111.5100476 526.347200
    351    348    376     1   107.9700462 569.024000
    351    354    357     1   111.0400475 552.288000
    354    357    358     1   112.3500484 533.878400
    354    357    367     1   112.3500484 533.878400
    357    358    361     1   111.0400475 552.288000
    357    367    370     1   111.0400475 552.288000
    358    357    367     1   112.3500484 533.878400
    358    361    364     1   111.0400475 529.694400
    361    364    365     1   123.2000528 564.003200
    361    364    366     1   123.2000528 564.003200
    365    364    366     1   130.2500561 651.867200
    367    370    373     1   111.0400475 529.694400
    370    373    374     1   123.2000528 564.003200
    370    373    375     1   123.2000528 564.003200
    374    373    375     1   130.2500561 651.867200
    377    380    383     1   111.5100476 526.347200
    380    383    386     1   111.0400475 552.288000
    380    377    405     1   107.9700462 569.024000
    383    386    387     1   112.3500484 533.878400
    383    386    396     1   112.3500484 533.878400
    386    387    390     1   111.0400475 552.288000
    386    396    399     1   111.0400475 552.288000
    387    390    393     1   111.0400475 529.694400
    387    386    396     1   112.3500484 533.878400
    390    393    394     1   123.2000528 564.003200
    390    393    395     1   123.2000528 564.003200
    394    393    395     1   130.2500561 651.867200
    396    399    402     1   111.0400475 529.694400
    399    402    403     1   123.2000528 564.003200
    399    402    404     1   123.2000528 564.003200
    403    402    404     1   130.2500561 651.867200
    406    409    412     1   111.5100476 526.347200
    409    406    434     1   107.9700462 569.024000
    409    412    415     1   111.0400475 552.288000
    412    415    416     1   112.3500484 533.878400
    412    415    425     1   112.3500484 533.878400
    415    416    419     1   111.0400475 552.288000
    415    425    428     1   111.0400475 552.288000
    416    415    425     1   112.3500484 533.878400
    416    419    422     1   111.0400475 529.694400
    419    422    423     1   123.2000528 564.003200
    419    422    424     1   123.2000528 564.003200
    423    422    424     1   130.2500561 651.867200
    425    428    431     1   111.0400475 529.694400
    428    431    432     1   123.2000528 564.003200
    428    431    433     1   123.2000528 564.003200
    432    431    433     1   130.2500561 651.867200
    435    438    441     1   111.5100476 526.347200
    438    441    444     1   111.0400475 552.288000
    438    435    463     1   107.9700462 569.024000
    441    444    445     1   112.3500484 533.878400
    441    444    454     1   112.3500484 533.878400
    444    445    448     1   111.0400475 552.288000
    444    454    457     1   111.0400475 552.288000
    445    448    451     1   111.0400475 529.694400
    445    444    454     1   112.3500484 533.878400
    448    451    452     1   123.2000528 564.003200
    448    451    453     1   123.2000528 564.003200
    452    451    453     1   130.2500561 651.867200
    454    457    460     1   111.0400475 529.694400
    457    460    461     1   123.2000528 564.003200
    457    460    462     1   123.2000528 564.003200
    461    460    462     1   130.2500561 651.867200
    464    467    470     1   111.5100476 526.347200
    467    464    492     1   107.9700462 569.024000
    467    470    473     1   111.0400475 552.288000
    470    473    474     1   112.3500484 533.878400
    470    473    483     1   112.3500484 533.878400
    473    474    477     1   111.0400475 552.288000
    473    483    486     1   111.0400475 552.288000
    474    473    483     1   112.3500484 533.878400
    474    477    480     1   111.0400475 529.694400
    477    480    481     1   123.2000528 564.003200
    477    480    482     1   123.2000528 564.003200
    481    480    482     1   130.2500561 651.867200
    483    486    489     1   111.0400475 529.694400
    486    489    490     1   123.2000528 564.003200
    486    489    491     1   123.2000528 564.003200
    490    489    491     1   130.2500561 651.867200
    493    496    499     1   111.5100476 526.347200
    496    499    502     1   111.0400475 552.288000
    496    493    521     1   107.9700462 569.024000
    499    502    503     1   112.3500484 533.878400
    499    502    512     1   112.3500484 533.878400
    502    503    506     1   111.0400475 552.288000
    502    512    515     1   111.0400475 552.288000
    503    506    509     1   111.0400475 529.694400
    503    502    512     1   112.3500484 533.878400
    506    509    510     1   123.2000528 564.003200
    506    509    511     1   123.2000528 564.003200
    510    509    511     1   130.2500561 651.867200
    512    515    518     1   111.0400475 529.694400
    515    518    519     1   123.2000528 564.003200
    515    518    520     1   123.2000528 564.003200
    519    518    520     1   130.2500561 651.867200
    522    525    528     1   111.5100476 526.347200
    525    522    550     1   107.9700462 569.024000
    525    528    531     1   111.0400475 552.288000
    528    531    532     1   112.3500484 533.878400
    528    531    541     1   112.3500484 533.878400
    531    532    535     1   111.0400475 552.288000
    531    541    544     1   111.0400475 552.288000
    532    531    541     1   112.3500484 533.878400
    532    535    538     1   111.0400475 529.694400
    535    538    539     1   123.2000528 564.003200
    535    538    540     1   123.2000528 564.003200
    539    538    540     1   130.2500561 651.867200
    541    544    547     1   111.0400475 529.694400
    544    547    548     1   123.2000528 564.003200
    544    547    549     1   123.2000528 564.003200
    548    547    549     1   130.2500561 651.867200
    551    554    557     1   111.5100476 526.347200
    554    557    560     1   111.0400475 552.288000
    554    551    579     1   107.9700462 569.024000
    557    560    561     1   112.3500484 533.878400
    557    560    570     1   112.3500484 533.878400
    560    561    564     1   111.0400475 552.288000
    560    570    573     1   111.0400475 552.288000
    561    564    567     1   111.0400475 529.694400
    561    560    570     1   112.3500484 533.878400
    564    567    568     1   123.2000528 564.003200
    564    567    569     1   123.2000528 564.003200
    568    567    569     1   130.2500561 651.867200
    570    573    576     1   111.0400475 529.694400
    573    576    577     1   123.2000528 564.003200
    573    576    578     1   123.2000528 564.003200
    577    576    578     1   130.2500561 651.867200
    580    583    586     1   111.5100476 526.347200
    583    580    608     1   107.9700462 569.024000
    583    586    589     1   111.0400475 552.288000
    586    589    590     1   112.3500484 533.878400
    586    589    599     1   112.3500484 533.878400
    589    590    593     1   111.0400475 552.288000
    589    599    602     1   111.0400475 552.288000
    590    589    599     1   112.3500484 533.878400
    590    593    596     1   111.0400475 529.694400
    593    596    597     1   123.2000528 564.003200
    593    596    598     1   123.2000528 564.003200
    597    596    598     1   130.2500561 651.867200
    599    602    605     1   111.0400475 529.694400
    602    605    606     1   123.2000528 564.003200
    602    605    607     1   123.2000528 564.003200
    606    605    607     1   130.2500561 651.867200
    609    612    615     1   111.5100476 526.347200
    612    615    618     1   111.0400475 552.288000
    612    609    637     1   107.9700462 569.024000
    615    618    619     1   112.3500484 533.878400
    615    618    628     1   112.3500484 533.878400
    618    619    622     1   111.0400475 552.288000
    618    628    631     1   111.0400475 552.288000
    619    622    625     1   111.0400475 529.694400
    619    618    628     1   112.3500484 533.878400
    622    625    626     1   123.2000528 564.003200
    622    625    627     1   123.2000528 564.003200
    626    625    627     1   130.2500561 651.867200
    628    631    634     1   111.0400475 529.694400
    631    634    635     1   123.2000528 564.003200
    631    634    636     1   123.2000528 564.003200
    635    634    636     1   130.2500561 651.867200
      1      2      3     1   109.8800469 414.216000
      1      2      4     1   109.8800469 414.216000
      1      5      6     1   109.8800469 414.216000
      1      5      7     1   109.8800469 414.216000
      1      8      9     1   109.8800469 414.216000
      1      8     10     1   109.8800469 414.216000
      2     14     15     1   109.8000471 387.438400
      2     14     16     1   109.8000471 387.438400
      3      2     14     1   109.5600471 388.275200
      3      2      4     1   108.4600466 328.025600
      4      2     14     1   109.5600471 388.275200
      5     17     18     1   109.8000471 387.438400
      5     17     19     1   109.8000471 387.438400
      6      5     17     1   109.5600471 388.275200
      6      5      7     1   108.4600466 328.025600
      7      5     17     1   109.5600471 388.275200
      8     11     12     1   109.8000471 387.438400
      8     11     13     1   109.8000471 387.438400
      9      8     11     1   109.5600471 388.275200
      9      8     10     1   108.4600466 328.025600
     10      8     11     1   109.5600471 388.275200
     11     23     24     1   109.5600471 388.275200
     11     23     25     1   109.5600471 388.275200
     12     11     23     1   109.8000471 387.438400
     12     11     13     1   107.5800459 329.699200
     13     11     23     1   109.8000471 387.438400
     14     26     27     1   109.5600471 388.275200
     14     26     28     1   109.5600471 388.275200
     15     14     26     1   109.8000471 387.438400
     15     14     16     1   107.5800459 329.699200
     16     14     26     1   109.8000471 387.438400
     17     20     21     1   109.5600471 388.275200
     17     20     22     1   109.5600471 388.275200
     18     17     20     1   109.8000471 387.438400
     18     17     19     1   107.5800459 329.699200
     19     17     20     1   109.8000471 387.438400
     21     20     57     1   109.7800468 425.094400
     21     20     22     1   108.4600466 328.025600
     22     20     57     1   109.7800468 425.094400
     24     23     86     1   109.7800468 425.094400
     24     23     25     1   108.4600466 328.025600
     25     23     86     1   109.7800468 425.094400
     27     26    115     1   109.7800468 425.094400
     27     26     28     1   108.4600466 328.025600
     28     26    115     1   109.7800468 425.094400
     29     30     31     1   109.8800469 414.216000
     29     30     32     1   109.8800469 414.216000
     29     33     34     1   109.8800469 414.216000
     29     33     35     1   109.8800469 414.216000
     29     36     37     1   109.8800469 414.216000
     29     36     38     1   109.8800469 414.216000
     30     42     43     1   109.8000471 387.438400
     30     42     44     1   109.8000471 387.438400
     31     30     42     1   109.5600471 388.275200
     31     30     32     1   108.4600466 328.025600
     32     30     42     1   109.5600471 388.275200
     33     45     46     1   109.8000471 387.438400
     33     45     47     1   109.8000471 387.438400
     34     33     45     1   109.5600471 388.275200
     34     33     35     1   108.4600466 328.025600
     35     33     45     1   109.5600471 388.275200
     36     39     40     1   109.8000471 387.438400
     36     39     41     1   109.8000471 387.438400
     37     36     39     1   109.5600471 388.275200
     37     36     38     1   108.4600466 328.025600
     38     36     39     1   109.5600471 388.275200
     39     48     49     1   109.5600471 388.275200
     39     48     50     1   109.5600471 388.275200
     40     39     48     1   109.8000471 387.438400
     40     39     41     1   107.5800459 329.699200
     41     39     48     1   109.8000471 387.438400
     42     54     55     1   109.5600471 388.275200
     42     54     56     1   109.5600471 388.275200
     43     42     54     1   109.8000471 387.438400
     43     42     44     1   107.5800459 329.699200
     44     42     54     1   109.8000471 387.438400
     45     51     52     1   109.5600471 388.275200
     45     51     53     1   109.5600471 388.275200
     46     45     51     1   109.8000471 387.438400
     46     45     47     1   107.5800459 329.699200
     47     45     51     1   109.8000471 387.438400
     49     48     57     1   109.7800468 425.094400
     49     48     50     1   108.4600466 328.025600
     50     48     57     1   109.7800468 425.094400
     52     51    144     1   109.7800468 425.094400
     52     51     53     1   108.4600466 328.025600
     53     51    144     1   109.7800468 425.094400
     55     54    173     1   109.7800468 425.094400
     55     54     56     1   108.4600466 328.025600
     56     54    173     1   109.7800468 425.094400
     58     59     60     1   109.8800469 414.216000
     58     59     61     1   109.8800469 414.216000
     58     62     63     1   109.8800469 414.216000
     58     62     64     1   109.8800469 414.216000
     58     65     66     1   109.8800469 414.216000
     58     65     67     1   109.8800469 414.216000
     59     71     72     1   109.8000471 387.438400
     59     71     73     1   109.8000471 387.438400
     60     59     71     1   109.5600471 388.275200
     60     59     61     1   108.4600466 328.025600
     61     59     71     1   109.5600471 388.275200
     62     74     75     1   109.8000471 387.438400
     62     74     76     1   109.8000471 387.438400
     63     62     74     1   109.5600471 388.275200
     63     62     64     1   108.4600466 328.025600
     64     62     74     1   109.5600471 388.275200
     65     68     69     1   109.8000471 387.438400
     65     68     70     1   109.8000471 387.438400
     66     65     68     1   109.5600471 388.275200
     66     65     67     1   108.4600466 328.025600
     67     65     68     1   109.5600471 388.275200
     68     77     78     1   109.5600471 388.275200
     68     77     79     1   109.5600471 388.275200
     69     68     77     1   109.8000471 387.438400
     69     68     70     1   107.5800459 329.699200
     70     68     77     1   109.8000471 387.438400
     71     83     84     1   109.5600471 388.275200
     71     83     85     1   109.5600471 388.275200
     72     71     83     1   109.8000471 387.438400
     72     71     73     1   107.5800459 329.699200
     73     71     83     1   109.8000471 387.438400
     74     80     81     1   109.5600471 388.275200
     74     80     82     1   109.5600471 388.275200
     75     74     80     1   109.8000471 387.438400
     75     74     76     1   107.5800459 329.699200
     76     74     80     1   109.8000471 387.438400
     78     77     86     1   109.7800468 425.094400
     78     77     79     1   108.4600466 328.025600
     79     77     86     1   109.7800468 425.094400
     81     80    202     1   109.7800468 425.094400
     81     80     82     1   108.4600466 328.025600
     82     80    202     1   109.7800468 425.094400
     84     83    231     1   109.7800468 425.094400
     84     83     85     1   108.4600466 328.025600
     85     83    231     1   109.7800468 425.094400
     87     88     89     1   109.8800469 414.216000
     87     88     90     1   109.8800469 414.216000
     87     91     92     1   109.8800469 414.216000
     87     91     93     1   109.8800469 414.216000
     87     94     95     1   109.8800469 414.216000
     87     94     96     1   109.8800469 414.216000
     88    100    101     1   109.8000471 387.438400
     88    100    102     1   109.8000471 387.438400
     89     88    100     1   109.5600471 388.275200
     89     88     90     1   108.4600466 328.025600
     90     88    100     1   109.5600471 388.275200
     91    103    104     1   109.8000471 387.438400
     91    103    105     1   109.8000471 387.438400
     92     91    103     1   109.5600471 388.275200
     92     91     93     1   108.4600466 328.025600
     93     91    103     1   109.5600471 388.275200
     94     97     98     1   109.8000471 387.438400
     94     97     99     1   109.8000471 387.438400
     95     94     97     1   109.5600471 388.275200
     95     94     96     1   108.4600466 328.025600
     96     94     97     1   109.5600471 388.275200
     97    106    107     1   109.5600471 388.275200
     97    106    108     1   109.5600471 388.275200
     98     97    106     1   109.8000471 387.438400
     98     97     99     1   107.5800459 329.699200
     99     97    106     1   109.8000471 387.438400
    100    112    113     1   109.5600471 388.275200
    100    112    114     1   109.5600471 388.275200
    101    100    112     1   109.8000471 387.438400
    101    100    102     1   107.5800459 329.699200
    102    100    112     1   109.8000471 387.438400
    103    109    110     1   109.5600471 388.275200
    103    109    111     1   109.5600471 388.275200
    104    103    109     1   109.8000471 387.438400
    104    103    105     1   107.5800459 329.699200
    105    103    109     1   109.8000471 387.438400
    107    106    115     1   109.7800468 425.094400
    107    106    108     1   108.4600466 328.025600
    108    106    115     1   109.7800468 425.094400
    110    109    260     1   109.7800468 425.094400
    110    109    111     1   108.4600466 328.025600
    111    109    260     1   109.7800468 425.094400
    113    112    289     1   109.7800468 425.094400
    113    112    114     1   108.4600466 328.025600
    114    112    289     1   109.7800468 425.094400
    116    117    118     1   109.8800469 414.216000
    116    117    119     1   109.8800469 414.216000
    116    120    121     1   109.8800469 414.216000
    116    120    122     1   109.8800469 414.216000
    116    123    124     1   109.8800469 414.216000
    116    123    125     1   109.8800469 414.216000
    117    129    130     1   109.8000471 387.438400
    117    129    131     1   109.8000471 387.438400
    118    117    129     1   109.5600471 388.275200
    118    117    119     1   108.4600466 328.025600
    119    117    129     1   109.5600471 388.275200
    120    132    133     1   109.8000471 387.438400
    120    132    134     1   109.8000471 387.438400
    121    120    132     1   109.5600471 388.275200
    121    120    122     1   108.4600466 328.025600
    122    120    132     1   109.5600471 388.275200
    123    126    127     1   109.8000471 387.438400
    123    126    128     1   109.8000471 387.438400
    124    123    126     1   109.5600471 388.275200
    124    123    125     1   108.4600466 328.025600
    125    123    126     1   109.5600471 388.275200
    126    135    136     1   109.5600471 388.275200
    126    135    137     1   109.5600471 388.275200
    127    126    135     1   109.8000471 387.438400
    127    126    128     1   107.5800459 329.699200
    128    126    135     1   109.8000471 387.438400
    129    141    142     1   109.5600471 388.275200
    129    141    143     1   109.5600471 388.275200
    130    129    141     1   109.8000471 387.438400
    130    129    131     1   107.5800459 329.699200
    131    129    141     1   109.8000471 387.438400
    132    138    139     1   109.5600471 388.275200
    132    138    140     1   109.5600471 388.275200
    133    132    138     1   109.8000471 387.438400
    133    132    134     1   107.5800459 329.699200
    134    132    138     1   109.8000471 387.438400
    136    135    144     1   109.7800468 425.094400
    136    135    137     1   108.4600466 328.025600
    137    135    144     1   109.7800468 425.094400
    139    138    318     1   109.7800468 425.094400
    139    138    140     1   108.4600466 328.025600
    140    138    318     1   109.7800468 425.094400
    142    141    347     1   109.7800468 425.094400
    142    141    143     1   108.4600466 328.025600
    143    141    347     1   109.7800468 425.094400
    145    146    147     1   109.8800469 414.216000
    145    146    148     1   109.8800469 414.216000
    145    149    150     1   109.8800469 414.216000
    145    149    151     1   109.8800469 414.216000
    145    152    153     1   109.8800469 414.216000
    145    152    154     1   109.8800469 414.216000
    146    158    159     1   109.8000471 387.438400
    146    158    160     1   109.8000471 387.438400
    147    146    158     1   109.5600471 388.275200
    147    146    148     1   108.4600466 328.025600
    148    146    158     1   109.5600471 388.275200
    149    161    162     1   109.8000471 387.438400
    149    161    163     1   109.8000471 387.438400
    150    149    161     1   109.5600471 388.275200
    150    149    151     1   108.4600466 328.025600
    151    149    161     1   109.5600471 388.275200
    152    155    156     1   109.8000471 387.438400
    152    155    157     1   109.8000471 387.438400
    153    152    155     1   109.5600471 388.275200
    153    152    154     1   108.4600466 328.025600
    154    152    155     1   109.5600471 388.275200
    155    164    165     1   109.5600471 388.275200
    155    164    166     1   109.5600471 388.275200
    156    155    164     1   109.8000471 387.438400
    156    155    157     1   107.5800459 329.699200
    157    155    164     1   109.8000471 387.438400
    158    170    171     1   109.5600471 388.275200
    158    170    172     1   109.5600471 388.275200
    159    158    170     1   109.8000471 387.438400
    159    158    160     1   107.5800459 329.699200
    160    158    170     1   109.8000471 387.438400
    161    167    168     1   109.5600471 388.275200
    161    167    169     1   109.5600471 388.275200
    162    161    167     1   109.8000471 387.438400
    162    161    163     1   107.5800459 329.699200
    163    161    167     1   109.8000471 387.438400
    165    164    173     1   109.7800468 425.094400
    165    164    166     1   108.4600466 328.025600
    166    164    173     1   109.7800468 425.094400
    168    167    376     1   109.7800468 425.094400
    168    167    169     1   108.4600466 328.025600
    169    167    376     1   109.7800468 425.094400
    171    170    405     1   109.7800468 425.094400
    171    170    172     1   108.4600466 328.025600
    172    170    405     1   109.7800468 425.094400
    174    175    176     1   109.8800469 414.216000
    174    175    177     1   109.8800469 414.216000
    174    178    179     1   109.8800469 414.216000
    174    178    180     1   109.8800469 414.216000
    174    181    182     1   109.8800469 414.216000
    174    181    183     1   109.8800469 414.216000
    175    187    188     1   109.8000471 387.438400
    175    187    189     1   109.8000471 387.438400
    176    175    187     1   109.5600471 388.275200
    176    175    177     1   108.4600466 328.025600
    177    175    187     1   109.5600471 388.275200
    178    190    191     1   109.8000471 387.438400
    178    190    192     1   109.8000471 387.438400
    179    178    190     1   109.5600471 388.275200
    179    178    180     1   108.4600466 328.025600
    180    178    190     1   109.5600471 388.275200
    181    184    185     1   109.8000471 387.438400
    181    184    186     1   109.8000471 387.438400
    182    181    184     1   109.5600471 388.275200
    182    181    183     1   108.4600466 328.025600
    183    181    184     1   109.5600471 388.275200
    184    193    194     1   109.5600471 388.275200
    184    193    195     1   109.5600471 388.275200
    185    184    193     1   109.8000471 387.438400
    185    184    186     1   107.5800459 329.699200
    186    184    193     1   109.8000471 387.438400
    187    199    200     1   109.5600471 388.275200
    187    199    201     1   109.5600471 388.275200
    188    187    199     1   109.8000471 387.438400
    188    187    189     1   107.5800459 329.699200
    189    187    199     1   109.8000471 387.438400
    190    196    197     1   109.5600471 388.275200
    190    196    198     1   109.5600471 388.275200
    191    190    196     1   109.8000471 387.438400
    191    190    192     1   107.5800459 329.699200
    192    190    196     1   109.8000471 387.438400
    194    193    202     1   109.7800468 425.094400
    194    193    195     1   108.4600466 328.025600
    195    193    202     1   109.7800468 425.094400
    197    196    434     1   109.7800468 425.094400
    197    196    198     1   108.4600466 328.025600
    198    196    434     1   109.7800468 425.094400
    200    199    463     1   109.7800468 425.094400
    200    199    201     1   108.4600466 328.025600
    201    199    463     1   109.7800468 425.094400
    203    204    205     1   109.8800469 414.216000
    203    204    206     1   109.8800469 414.216000
    203    207    208     1   109.8800469 414.216000
    203    207    209     1   109.8800469 414.216000
    203    210    211     1   109.8800469 414.216000
    203    210    212     1   109.8800469 414.216000
    204    216    217     1   109.8000471 387.438400
    204    216    218     1   109.8000471 387.438400
    205    204    216     1   109.5600471 388.275200
    205    204    206     1   108.4600466 328.025600
    206    204    216     1   109.5600471 388.275200
    207    219    220     1   109.8000471 387.438400
    207    219    221     1   109.8000471 387.438400
    208    207    219     1   109.5600471 388.275200
    208    207    209     1   108.4600466 328.025600
    209    207    219     1   109.5600471 388.275200
    210    213    214     1   109.8000471 387.438400
    210    213    215     1   109.8000471 387.438400
    211    210    213     1   109.5600471 388.275200
    211    210    212     1   108.4600466 328.025600
    212    210    213     1   109.5600471 388.275200
    213    222    223     1   109.5600471 388.275200
    213    222    224     1   109.5600471 388.275200
    214    213    222     1   109.8000471 387.438400
    214    213    215     1   107.5800459 329.699200
    215    213    222     1   109.8000471 387.438400
    216    228    229     1   109.5600471 388.275200
    216    228    230     1   109.5600471 388.275200
    217    216    228     1   109.8000471 387.438400
    217    216    218     1   107.5800459 329.699200
    218    216    228     1   109.8000471 387.438400
    219    225    226     1   109.5600471 388.275200
    219    225    227     1   109.5600471 388.275200
    220    219    225     1   109.8000471 387.438400
    220    219    221     1   107.5800459 329.699200
    221    219    225     1   109.8000471 387.438400
    223    222    231     1   109.7800468 425.094400
    223    222    224     1   108.4600466 328.025600
    224    222    231     1   109.7800468 425.094400
    226    225    492     1   109.7800468 425.094400
    226    225    227     1   108.4600466 328.025600
    227    225    492     1   109.7800468 425.094400
    229    228    521     1   109.7800468 425.094400
    229    228    230     1   108.4600466 328.025600
    230    228    521     1   109.7800468 425.094400
    232    233    234     1   109.8800469 414.216000
    232    233    235     1   109.8800469 414.216000
    232    236    237     1   109.8800469 414.216000
    232    236    238     1   109.8800469 414.216000
    232    239    240     1   109.8800469 414.216000
    232    239    241     1   109.8800469 414.216000
    233    245    246     1   109.8000471 387.438400
    233    245    247     1   109.8000471 387.438400
    234    233    245     1   109.5600471 388.275200
    234    233    235     1   108.4600466 328.025600
    235    233    245     1   109.5600471 388.275200
    236    248    249     1   109.8000471 387.438400
    236    248    250     1   109.8000471 387.438400
    237    236    248     1   109.5600471 388.275200
    237    236    238     1   108.4600466 328.025600
    238    236    248     1   109.5600471 388.275200
    239    242    243     1   109.8000471 387.438400
    239    242    244     1   109.8000471 387.438400
    240    239    242     1   109.5600471 388.275200
    240    239    241     1   108.4600466 328.025600
    241    239    242     1   109.5600471 388.275200
    242    251    252     1   109.5600471 388.275200
    242    251    253     1   109.5600471 388.275200
    243    242    251     1   109.8000471 387.438400
    243    242    244     1   107.5800459 329.699200
    244    242    251     1   109.8000471 387.438400
    245    257    258     1   109.5600471 388.275200
    245    257    259     1   109.5600471 388.275200
    246    245    257     1   109.8000471 387.438400
    246    245    247     1   107.5800459 329.699200
    247    245    257     1   109.8000471 387.438400
    248    254    255     1   109.5600471 388.275200
    248    254    256     1   109.5600471 388.275200
    249    248    254     1   109.8000471 387.438400
    249    248    250     1   107.5800459 329.699200
    250    248    254     1   109.8000471 387.438400
    252    251    260     1   109.7800468 425.094400
    252    251    253     1   108.4600466 328.025600
    253    251    260     1   109.7800468 425.094400
    255    254    550     1   109.7800468 425.094400
    255    254    256     1   108.4600466 328.025600
    256    254    550     1   109.7800468 425.094400
    258    257    579     1   109.7800468 425.094400
    258    257    259     1   108.4600466 328.025600
    259    257    579     1   109.7800468 425.094400
    261    262    263     1   109.8800469 414.216000
    261    262    264     1   109.8800469 414.216000
    261    265    266     1   109.8800469 414.216000
    261    265    267     1   109.8800469 414.216000
    261    268    269     1   109.8800469 414.216000
    261    268    270     1   109.8800469 414.216000
    262    274    275     1   109.8000471 387.438400
    262    274    276     1   109.8000471 387.438400
    263    262    274     1   109.5600471 388.275200
    263    262    264     1   108.4600466 328.025600
    264    262    274     1   109.5600471 388.275200
    265    277    278     1   109.8000471 387.438400
    265    277    279     1   109.8000471 387.438400
    266    265    277     1   109.5600471 388.275200
    266    265    267     1   108.4600466 328.025600
    267    265    277     1   109.5600471 388.275200
    268    271    272     1   109.8000471 387.438400
    268    271    273     1   109.8000471 387.438400
    269    268    271     1   109.5600471 388.275200
    269    268    270     1   108.4600466 328.025600
    270    268    271     1   109.5600471 388.275200
    271    280    281     1   109.5600471 388.275200
    271    280    282     1   109.5600471 388.275200
    272    271    280     1   109.8000471 387.438400
    272    271    273     1   107.5800459 329.699200
    273    271    280     1   109.8000471 387.438400
    274    286    287     1   109.5600471 388.275200
    274    286    288     1   109.5600471 388.275200
    275    274    286     1   109.8000471 387.438400
    275    274    276     1   107.5800459 329.699200
    276    274    286     1   109.8000471 387.438400
    277    283    284     1   109.5600471 388.275200
    277    283    285     1   109.5600471 388.275200
    278    277    283     1   109.8000471 387.438400
    278    277    279     1   107.5800459 329.699200
    279    277    283     1   109.8000471 387.438400
    281    280    289     1   109.7800468 425.094400
    281    280    282     1   108.4600466 328.025600
    282    280    289     1   109.7800468 425.094400
    284    283    608     1   109.7800468 425.094400
    284    283    285     1   108.4600466 328.025600
    285    283    608     1   109.7800468 425.094400
    287    286    637     1   109.7800468 425.094400
    287    286    288     1   108.4600466 328.025600
    288    286    637     1   109.7800468 425.094400
    290    293    294     1   109.8000471 387.438400
    290    293    295     1   109.8000471 387.438400
    291    290    293     1   109.5600471 388.275200
    291    290    318     1   109.7800468 425.094400
    291    290    292     1   108.4600466 328.025600
    292    290    293     1   109.5600471 388.275200
    292    290    318     1   109.7800468 425.094400
    293    296    297     1   109.5600471 388.275200
    293    296    298     1   109.5600471 388.275200
    294    293    296     1   109.8000471 387.438400
    294    293    295     1   107.5800459 329.699200
    295    293    296     1   109.8000471 387.438400
    297    296    299     1   109.8800469 414.216000
    297    296    298     1   108.4600466 328.025600
    298    296    299     1   109.8800469 414.216000
    299    300    301     1   109.8800469 414.216000
    299    300    302     1   109.8800469 414.216000
    299    309    310     1   109.8800469 414.216000
    299    309    311     1   109.8800469 414.216000
    300    303    304     1   109.8000471 387.438400
    300    303    305     1   109.8000471 387.438400
    301    300    303     1   109.5600471 388.275200
    301    300    302     1   108.4600466 328.025600
    302    300    303     1   109.5600471 388.275200
    304    303    306     1   108.7700466 392.459200
    304    303    305     1   107.5800459 329.699200
    305    303    306     1   108.7700466 392.459200
    309    312    313     1   109.8000471 387.438400
    309    312    314     1   109.8000471 387.438400
    310    309    312     1   109.5600471 388.275200
    310    309    311     1   108.4600466 328.025600
    311    309    312     1   109.5600471 388.275200
    313    312    315     1   108.7700466 392.459200
    313    312    314     1   107.5800459 329.699200
    314    312    315     1   108.7700466 392.459200
    319    322    323     1   109.8000471 387.438400
    319    322    324     1   109.8000471 387.438400
    320    319    322     1   109.5600471 388.275200
    320    319    347     1   109.7800468 425.094400
    320    319    321     1   108.4600466 328.025600
    321    319    322     1   109.5600471 388.275200
    321    319    347     1   109.7800468 425.094400
    322    325    326     1   109.5600471 388.275200
    322    325    327     1   109.5600471 388.275200
    323    322    325     1   109.8000471 387.438400
    323    322    324     1   107.5800459 329.699200
    324    322    325     1   109.8000471 387.438400
    326    325    328     1   109.8800469 414.216000
    326    325    327     1   108.4600466 328.025600
    327    325    328     1   109.8800469 414.216000
    328    329    330     1   109.8800469 414.216000
    328    329    331     1   109.8800469 414.216000
    328    338    339     1   109.8800469 414.216000
    328    338    340     1   109.8800469 414.216000
    329    332    333     1   109.8000471 387.438400
    329    332    334     1   109.8000471 387.438400
    330    329    332     1   109.5600471 388.275200
    330    329    331     1   108.4600466 328.025600
    331    329    332     1   109.5600471 388.275200
    333    332    335     1   108.7700466 392.459200
    333    332    334     1   107.5800459 329.699200
    334    332    335     1   108.7700466 392.459200
    338    341    342     1   109.8000471 387.438400
    338    341    343     1   109.8000471 387.438400
    339    338    341     1   109.5600471 388.275200
    339    338    340     1   108.4600466 328.025600
    340    338    341     1   109.5600471 388.275200
    342    341    344     1   108.7700466 392.459200
    342    341    343     1   107.5800459 329.699200
    343    341    344     1   108.7700466 392.459200
    348    351    352     1   109.8000471 387.438400
    348    351    353     1   109.8000471 387.438400
    349    348    351     1   109.5600471 388.275200
    349    348    376     1   109.7800468 425.094400
    349    348    350     1   108.4600466 328.025600
    350    348    351     1   109.5600471 388.275200
    350    348    376     1   109.7800468 425.094400
    351    354    355     1   109.5600471 388.275200
    351    354    356     1   109.5600471 388.275200
    352    351    354     1   109.8000471 387.438400
    352    351    353     1   107.5800459 329.699200
    353    351    354     1   109.8000471 387.438400
    355    354    357     1   109.8800469 414.216000
    355    354    356     1   108.4600466 328.025600
    356    354    357     1   109.8800469 414.216000
    357    358    359     1   109.8800469 414.216000
    357    358    360     1   109.8800469 414.216000
    357    367    368     1   109.8800469 414.216000
    357    367    369     1   109.8800469 414.216000
    358    361    362     1   109.8000471 387.438400
    358    361    363     1   109.8000471 387.438400
    359    358    361     1   109.5600471 388.275200
    359    358    360     1   108.4600466 328.025600
    360    358    361     1   109.5600471 388.275200
    362    361    364     1   108.7700466 392.459200
    362    361    363     1   107.5800459 329.699200
    363    361    364     1   108.7700466 392.459200
    367    370    371     1   109.8000471 387.438400
    367    370    372     1   109.8000471 387.438400
    368    367    370     1   109.5600471 388.275200
    368    367    369     1   108.4600466 328.025600
    369    367    370     1   109.5600471 388.275200
    371    370    373     1   108.7700466 392.459200
    371    370    372     1   107.5800459 329.699200
    372    370    373     1   108.7700466 392.459200
    377    380    381     1   109.8000471 387.438400
    377    380    382     1   109.8000471 387.438400
    378    377    380     1   109.5600471 388.275200
    378    377    405     1   109.7800468 425.094400
    378    377    379     1   108.4600466 328.025600
    379    377    380     1   109.5600471 388.275200
    379    377    405     1   109.7800468 425.094400
    380    383    384     1   109.5600471 388.275200
    380    383    385     1   109.5600471 388.275200
    381    380    383     1   109.8000471 387.438400
    381    380    382     1   107.5800459 329.699200
    382    380    383     1   109.8000471 387.438400
    384    383    386     1   109.8800469 414.216000
    384    383    385     1   108.4600466 328.025600
    385    383    386     1   109.8800469 414.216000
    386    387    388     1   109.8800469 414.216000
    386    387    389     1   109.8800469 414.216000
    386    396    397     1   109.8800469 414.216000
    386    396    398     1   109.8800469 414.216000
    387    390    391     1   109.8000471 387.438400
    387    390    392     1   109.8000471 387.438400
    388    387    390     1   109.5600471 388.275200
    388    387    389     1   108.4600466 328.025600
    389    387    390     1   109.5600471 388.275200
    391    390    393     1   108.7700466 392.459200
    391    390    392     1   107.5800459 329.699200
    392    390    393     1   108.7700466 392.459200
    396    399    400     1   109.8000471 387.438400
    396    399    401     1   109.8000471 387.438400
    397    396    399     1   109.5600471 388.275200
    397    396    398     1   108.4600466 328.025600
    398    396    399     1   109.5600471 388.275200
    400    399    402     1   108.7700466 392.459200
    400    399    401     1   107.5800459 329.699200
    401    399    402     1   108.7700466 392.459200
    406    409    410     1   109.8000471 387.438400
    406    409    411     1   109.8000471 387.438400
    407    406    409     1   109.5600471 388.275200
    407    406    434     1   109.7800468 425.094400
    407    406    408     1   108.4600466 328.025600
    408    406    409     1   109.5600471 388.275200
    408    406    434     1   109.7800468 425.094400
    409    412    413     1   109.5600471 388.275200
    409    412    414     1   109.5600471 388.275200
    410    409    412     1   109.8000471 387.438400
    410    409    411     1   107.5800459 329.699200
    411    409    412     1   109.8000471 387.438400
    413    412    415     1   109.8800469 414.216000
    413    412    414     1   108.4600466 328.025600
    414    412    415     1   109.8800469 414.216000
    415    416    417     1   109.8800469 414.216000
    415    416    418     1   109.8800469 414.216000
    415    425    426     1   109.8800469 414.216000
    415    425    427     1   109.8800469 414.216000
    416    419    420     1   109.8000471 387.438400
    416    419    421     1   109.8000471 387.438400
    417    416    419     1   109.5600471 388.275200
    417    416    418     1   108.4600466 328.025600
    418    416    419     1   109.5600471 388.275200
    420    419    422     1   108.7700466 392.459200
    420    419    421     1   107.5800459 329.699200
    421    419    422     1   108.7700466 392.459200
    425    428    429     1   109.8000471 387.438400
    425    428    430     1   109.8000471 387.438400
    426    425    428     1   109.5600471 388.275200
    426    425    427     1   108.4600466 328.025600
    427    425    428     1   109.5600471 388.275200
    429    428    431     1   108.7700466 392.459200
    429    428    430     1   107.5800459 329.699200
    430    428    431     1   108.7700466 392.459200
    435    438    439     1   109.8000471 387.438400
    435    438    440     1   109.8000471 387.438400
    436    435    438     1   109.5600471 388.275200
    436    435    463     1   109.7800468 425.094400
    436    435    437     1   108.4600466 328.025600
    437    435    438     1   109.5600471 388.275200
    437    435    463     1   109.7800468 425.094400
    438    441    442     1   109.5600471 388.275200
    438    441    443     1   109.5600471 388.275200
    439    438    441     1   109.8000471 387.438400
    439    438    440     1   107.5800459 329.699200
    440    438    441     1   109.8000471 387.438400
    442    441    444     1   109.8800469 414.216000
    442    441    443     1   108.4600466 328.025600
    443    441    444     1   109.8800469 414.216000
    444    445    446     1   109.8800469 414.216000
    444    445    447     1   109.8800469 414.216000
    444    454    455     1   109.8800469 414.216000
    444    454    456     1   109.8800469 414.216000
    445    448    449     1   109.8000471 387.438400
    445    448    450     1   109.8000471 387.438400
    446    445    448     1   109.5600471 388.275200
    446    445    447     1   108.4600466 328.025600
    447    445    448     1   109.5600471 388.275200
    449    448    451     1   108.7700466 392.459200
    449    448    450     1   107.5800459 329.699200
    450    448    451     1   108.7700466 392.459200
    454    457    458     1   109.8000471 387.438400
    454    457    459     1   109.8000471 387.438400
    455    454    457     1   109.5600471 388.275200
    455    454    456     1   108.4600466 328.025600
    456    454    457     1   109.5600471 388.275200
    458    457    460     1   108.7700466 392.459200
    458    457    459     1   107.5800459 329.699200
    459    457    460     1   108.7700466 392.459200
    464    467    468     1   109.8000471 387.438400
    464    467    469     1   109.8000471 387.438400
    465    464    467     1   109.5600471 388.275200
    465    464    492     1   109.7800468 425.094400
    465    464    466     1   108.4600466 328.025600
    466    464    467     1   109.5600471 388.275200
    466    464    492     1   109.7800468 425.094400
    467    470    471     1   109.5600471 388.275200
    467    470    472     1   109.5600471 388.275200
    468    467    470     1   109.8000471 387.438400
    468    467    469     1   107.5800459 329.699200
    469    467    470     1   109.8000471 387.438400
    471    470    473     1   109.8800469 414.216000
    471    470    472     1   108.4600466 328.025600
    472    470    473     1   109.8800469 414.216000
    473    474    475     1   109.8800469 414.216000
    473    474    476     1   109.8800469 414.216000
    473    483    484     1   109.8800469 414.216000
    473    483    485     1   109.8800469 414.216000
    474    477    478     1   109.8000471 387.438400
    474    477    479     1   109.8000471 387.438400
    475    474    477     1   109.5600471 388.275200
    475    474    476     1   108.4600466 328.025600
    476    474    477     1   109.5600471 388.275200
    478    477    480     1   108.7700466 392.459200
    478    477    479     1   107.5800459 329.699200
    479    477    480     1   108.7700466 392.459200
    483    486    487     1   109.8000471 387.438400
    483    486    488     1   109.8000471 387.438400
    484    483    486     1   109.5600471 388.275200
    484    483    485     1   108.4600466 328.025600
    485    483    486     1   109.5600471 388.275200
    487    486    489     1   108.7700466 392.459200
    487    486    488     1   107.5800459 329.699200
    488    486    489     1   108.7700466 392.459200
    493    496    497     1   109.8000471 387.438400
    493    496    498     1   109.8000471 387.438400
    494    493    496     1   109.5600471 388.275200
    494    493    521     1   109.7800468 425.094400
    494    493    495     1   108.4600466 328.025600
    495    493    496     1   109.5600471 388.275200
    495    493    521     1   109.7800468 425.094400
    496    499    500     1   109.5600471 388.275200
    496    499    501     1   109.5600471 388.275200
    497    496    499     1   109.8000471 387.438400
    497    496    498     1   107.5800459 329.699200
    498    496    499     1   109.8000471 387.438400
    500    499    502     1   109.8800469 414.216000
    500    499    501     1   108.4600466 328.025600
    501    499    502     1   109.8800469 414.216000
    502    503    504     1   109.8800469 414.216000
    502    503    505     1   109.8800469 414.216000
    502    512    513     1   109.8800469 414.216000
    502    512    514     1   109.8800469 414.216000
    503    506    507     1   109.8000471 387.438400
    503    506    508     1   109.8000471 387.438400
    504    503    506     1   109.5600471 388.275200
    504    503    505     1   108.4600466 328.025600
    505    503    506     1   109.5600471 388.275200
    507    506    509     1   108.7700466 392.459200
    507    506    508     1   107.5800459 329.699200
    508    506    509     1   108.7700466 392.459200
    512    515    516     1   109.8000471 387.438400
    512    515    517     1   109.8000471 387.438400
    513    512    515     1   109.5600471 388.275200
    513    512    514     1   108.4600466 328.025600
    514    512    515     1   109.5600471 388.275200
    516    515    518     1   108.7700466 392.459200
    516    515    517     1   107.5800459 329.699200
    517    515    518     1   108.7700466 392.459200
    522    525    526     1   109.8000471 387.438400
    522    525    527     1   109.8000471 387.438400
    523    522    525     1   109.5600471 388.275200
    523    522    550     1   109.7800468 425.094400
    523    522    524     1   108.4600466 328.025600
    524    522    525     1   109.5600471 388.275200
    524    522    550     1   109.7800468 425.094400
    525    528    529     1   109.5600471 388.275200
    525    528    530     1   109.5600471 388.275200
    526    525    528     1   109.8000471 387.438400
    526    525    527     1   107.5800459 329.699200
    527    525    528     1   109.8000471 387.438400
    529    528    531     1   109.8800469 414.216000
    529    528    530     1   108.4600466 328.025600
    530    528    531     1   109.8800469 414.216000
    531    532    533     1   109.8800469 414.216000
    531    532    534     1   109.8800469 414.216000
    531    541    542     1   109.8800469 414.216000
    531    541    543     1   109.8800469 414.216000
    532    535    536     1   109.8000471 387.438400
    532    535    537     1   109.8000471 387.438400
    533    532    535     1   109.5600471 388.275200
    533    532    534     1   108.4600466 328.025600
    534    532    535     1   109.5600471 388.275200
    536    535    538     1   108.7700466 392.459200
    536    535    537     1   107.5800459 329.699200
    537    535    538     1   108.7700466 392.459200
    541    544    545     1   109.8000471 387.438400
    541    544    546     1   109.8000471 387.438400
    542    541    544     1   109.5600471 388.275200
    542    541    543     1   108.4600466 328.025600
    543    541    544     1   109.5600471 388.275200
    545    544    547     1   108.7700466 392.459200
    545    544    546     1   107.5800459 329.699200
    546    544    547     1   108.7700466 392.459200
    551    554    555     1   109.8000471 387.438400
    551    554    556     1   109.8000471 387.438400
    552    551    554     1   109.5600471 388.275200
    552    551    579     1   109.7800468 425.094400
    552    551    553     1   108.4600466 328.025600
    553    551    554     1   109.5600471 388.275200
    553    551    579     1   109.7800468 425.094400
    554    557    558     1   109.5600471 388.275200
    554    557    559     1   109.5600471 388.275200
    555    554    557     1   109.8000471 387.438400
    555    554    556     1   107.5800459 329.699200
    556    554    557     1   109.8000471 387.438400
    558    557    560     1   109.8800469 414.216000
    558    557    559     1   108.4600466 328.025600
    559    557    560     1   109.8800469 414.216000
    560    561    562     1   109.8800469 414.216000
    560    561    563     1   109.8800469 414.216000
    560    570    571     1   109.8800469 414.216000
    560    570    572     1   109.8800469 414.216000
    561    564    565     1   109.8000471 387.438400
    561    564    566     1   109.8000471 387.438400
    562    561    564     1   109.5600471 388.275200
    562    561    563     1   108.4600466 328.025600
    563    561    564     1   109.5600471 388.275200
    565    564    567     1   108.7700466 392.459200
    565    564    566     1   107.5800459 329.699200
    566    564    567     1   108.7700466 392.459200
    570    573    574     1   109.8000471 387.438400
    570    573    575     1   109.8000471 387.438400
    571    570    573     1   109.5600471 388.275200
    571    570    572     1   108.4600466 328.025600
    572    570    573     1   109.5600471 388.275200
    574    573    576     1   108.7700466 392.459200
    574    573    575     1   107.5800459 329.699200
    575    573    576     1   108.7700466 392.459200
    580    583    584     1   109.8000471 387.438400
    580    583    585     1   109.8000471 387.438400
    581    580    583     1   109.5600471 388.275200
    581    580    608     1   109.7800468 425.094400
    581    580    582     1   108.4600466 328.025600
    582    580    583     1   109.5600471 388.275200
    582    580    608     1   109.7800468 425.094400
    583    586    587     1   109.5600471 388.275200
    583    586    588     1   109.5600471 388.275200
    584    583    586     1   109.8000471 387.438400
    584    583    585     1   107.5800459 329.699200
    585    583    586     1   109.8000471 387.438400
    587    586    589     1   109.8800469 414.216000
    587    586    588     1   108.4600466 328.025600
    588    586    589     1   109.8800469 414.216000
    589    590    591     1   109.8800469 414.216000
    589    590    592     1   109.8800469 414.216000
    589    599    600     1   109.8800469 414.216000
    589    599    601     1   109.8800469 414.216000
    590    593    594     1   109.8000471 387.438400
    590    593    595     1   109.8000471 387.438400
    591    590    593     1   109.5600471 388.275200
    591    590    592     1   108.4600466 328.025600
    592    590    593     1   109.5600471 388.275200
    594    593    596     1   108.7700466 392.459200
    594    593    595     1   107.5800459 329.699200
    595    593    596     1   108.7700466 392.459200
    599    602    603     1   109.8000471 387.438400
    599    602    604     1   109.8000471 387.438400
    600    599    602     1   109.5600471 388.275200
    600    599    601     1   108.4600466 328.025600
    601    599    602     1   109.5600471 388.275200
    603    602    605     1   108.7700466 392.459200
    603    602    604     1   107.5800459 329.699200
    604    602    605     1   108.7700466 392.459200
    609    612    613     1   109.8000471 387.438400
    609    612    614     1   109.8000471 387.438400
    610    609    612     1   109.5600471 388.275200
    610    609    637     1   109.7800468 425.094400
    610    609    611     1   108.4600466 328.025600
    611    609    612     1   109.5600471 388.275200
    611    609    637     1   109.7800468 425.094400
    612    615    616     1   109.5600471 388.275200
    612    615    617     1   109.5600471 388.275200
    613    612    615     1   109.8000471 387.438400
    613    612    614     1   107.5800459 329.699200
    614    612    615     1   109.8000471 387.438400
    616    615    618     1   109.8800469 414.216000
    616    615    617     1   108.4600466 328.025600
    617    615    618     1   109.8800469 414.216000
    618    619    620     1   109.8800469 414.216000
    618    619    621     1   109.8800469 414.216000
    618    628    629     1   109.8800469 414.216000
    618    628    630     1   109.8800469 414.216000
    619    622    623     1   109.8000471 387.438400
    619    622    624     1   109.8000471 387.438400
    620    619    622     1   109.5600471 388.275200
    620    619    621     1   108.4600466 328.025600
    621    619    622     1   109.5600471 388.275200
    623    622    625     1   108.7700466 392.459200
    623    622    624     1   107.5800459 329.699200
    624    622    625     1   108.7700466 392.459200
    628    631    632     1   109.8000471 387.438400
    628    631    633     1   109.8000471 387.438400
    629    628    631     1   109.5600471 388.275200
    629    628    630     1   108.4600466 328.025600
    630    628    631     1   109.5600471 388.275200
    632    631    634     1   108.7700466 392.459200
    632    631    633     1   107.5800459 329.699200
    633    631    634     1   108.7700466 392.459200

[ dihedrals ]
;    ai     aj     ak     al funct         c0         c1         c2         c3         c4         c5
      1      2     14     26     1  0.0000000  0.6508444  3
      1      5     17     20     1  0.0000000  0.6508444  3
      1      8     11     23     1  0.0000000  0.6508444  3
      2      1      5     17     1  180.0000771  2.0083200  2
      2      1      5     17     1  0.0000000  1.2552000  3
      2      1      8     11     1  180.0000771  2.0083200  2
      2      1      8     11     1  0.0000000  1.2552000  3
      2     14     26    115     1  0.0000000  0.6508444  3
      5      1      2     14     1  180.0000771  2.0083200  2
      5      1      2     14     1  0.0000000  1.2552000  3
      5      1      8     11     1  180.0000771  2.0083200  2
      5      1      8     11     1  0.0000000  1.2552000  3
      5     17     20     57     1  0.0000000  0.6508444  3
      8      1      2     14     1  180.0000771  2.0083200  2
      8      1      2     14     1  0.0000000  1.2552000  3
      8      1      5     17     1  180.0000771  2.0083200  2
      8      1      5     17     1  0.0000000  1.2552000  3
      8     11     23     86     1  0.0000000  0.6508444  3
     11     23     86     77     1  180.0000771  0.4184000  2
     11     23     86     77     1  0.0000000  1.6024720  3
     14     26    115    106     1  180.0000771  0.4184000  2
     14     26    115    106     1  0.0000000  1.6024720  3
     17     20     57     48     1  180.0000771  0.4184000  2
     17     20     57     48     1  0.0000000  1.6024720  3
     20     57     48     39     1  180.0000771  0.4184000  2
     20     57     48     39     1  0.0000000  1.6024720  3
     23     86     77     68     1  180.0000771  0.4184000  2
     23     86     77     68     1  0.0000000  1.6024720  3
     26    115    106     97     1  180.0000771  0.4184000  2
     26    115    106     97     1  0.0000000  1.6024720  3
     29     30     42     54     1  0.0000000  0.6508444  3
     29     33     45     51     1  0.0000000  0.6508444  3
     29     36     39     48     1  0.0000000  0.6508444  3
     30     29     33     45     1  180.0000771  2.0083200  2
     30     29     33     45     1  0.0000000  1.2552000  3
     30     29     36     39     1  180.0000771  2.0083200  2
     30     29     36     39     1  0.0000000  1.2552000  3
     30     42     54    173     1  0.0000000  0.6508444  3
     33     29     30     42     1  180.0000771  2.0083200  2
     33     29     30     42     1  0.0000000  1.2552000  3
     33     29     36     39     1  180.0000771  2.0083200  2
     33     29     36     39     1  0.0000000  1.2552000  3
     33     45     51    144     1  0.0000000  0.6508444  3
     36     29     30     42     1  180.0000771  2.0083200  2
     36     29     30     42     1  0.0000000  1.2552000  3
     36     29     33     45     1  180.0000771  2.0083200  2
     36     29     33     45     1  0.0000000  1.2552000  3
     36     39     48     57     1  0.0000000  0.6508444  3
     42     54    173    164     1  180.0000771  0.4184000  2
     42     54    173    164     1  0.0000000  1.6024720  3
     45     51    144    135     1  180.0000771  0.4184000  2
     45     51    144    135     1  0.0000000  1.6024720  3
     51    144    135    126     1  180.0000771  0.4184000  2
     51    144    135    126     1  0.0000000  1.6024720  3
     54    173    164    155     1  180.0000771  0.4184000  2
     54    173    164    155     1  0.0000000  1.6024720  3
     58     59     71     83     1  0.0000000  0.6508444  3
     58     62     74     80     1  0.0000000  0.6508444  3
     58     65     68     77     1  0.0000000  0.6508444  3
     59     58     62     74     1  180.0000771  2.0083200  2
     59     58     62     74     1  0.0000000  1.2552000  3
     59     58     65     68     1  180.0000771  2.0083200  2
     59     58     65     68     1  0.0000000  1.2552000  3
     59     71     83    231     1  0.0000000  0.6508444  3
     62     58     59     71     1  180.0000771  2.0083200  2
     62     58     59     71     1  0.0000000  1.2552000  3
     62     58     65     68     1  180.0000771  2.0083200  2
     62     58     65     68     1  0.0000000  1.2552000  3
     62     74     80    202     1  0.0000000  0.6508444  3
     65     58     59     71     1  180.0000771  2.0083200  2
     65     58     59     71     1  0.0000000  1.2552000  3
     65     58     62     74     1  180.0000771  2.0083200  2
     65     58     62     74     1  0.0000000  1.2552000  3
     65     68     77     86     1  0.0000000  0.6508444  3
     71     83    231    222     1  180.0000771  0.4184000  2
     71     83    231    222     1  0.0000000  1.6024720  3
     74     80    202    193     1  180.0000771  0.4184000  2
     74     80    202    193     1  0.0000000  1.6024720  3
     80    202    193    184     1  180.0000771  0.4184000  2
     80    202    193    184     1  0.0000000  1.6024720  3
     83    231    222    213     1  180.0000771  0.4184000  2
     83    231    222    213     1  0.0000000  1.6024720  3
     87     88    100    112     1  0.0000000  0.6508444  3
     87     91    103    109     1  0.0000000  0.6508444  3
     87     94     97    106     1  0.0000000  0.6508444  3
     88     87     91    103     1  180.0000771  2.0083200  2
     88     87     91    103     1  0.0000000  1.2552000  3
     88     87     94     97     1  180.0000771  2.0083200  2
     88     87     94     97     1  0.0000000  1.2552000  3
     88    100    112    289     1  0.0000000  0.6508444  3
     91     87     88    100     1  180.0000771  2.0083200  2
     91     87     88    100     1  0.0000000  1.2552000  3
     91     87     94     97     1  180.0000771  2.0083200  2
     91     87     94     97     1  0.0000000  1.2552000  3
     91    103    109    260     1  0.0000000  0.6508444  3
     94     87     88    100     1  180.0000771  2.0083200  2
     94     87     88    100     1  0.0000000  1.2552000  3
     94     87     91    103     1  180.0000771  2.0083200  2
     94     87     91    103     1  0.0000000  1.2552000  3
     94     97    106    115     1  0.0000000  0.6508444  3
    100    112    289    280     1  180.0000771  0.4184000  2
    100    112    289    280     1  0.0000000  1.6024720  3
    103    109    260    251     1  180.0000771  0.4184000  2
    103    109    260    251     1  0.0000000  1.6024720  3
    109    260    251    242     1  180.0000771  0.4184000  2
    109    260    251    242     1  0.0000000  1.6024720  3
    112    289    280    271     1  180.0000771  0.4184000  2
    112    289    280    271     1  0.0000000  1.6024720  3
    116    117    129    141     1  0.0000000  0.6508444  3
    116    120    132    138     1  0.0000000  0.6508444  3
    116    123    126    135     1  0.0000000  0.6508444  3
    117    116    120    132     1  180.0000771  2.0083200  2
    117    116    120    132     1  0.0000000  1.2552000  3
    117    116    123    126     1  180.0000771  2.0083200  2
    117    116    123    126     1  0.0000000  1.2552000  3
    117    129    141    347     1  0.0000000  0.6508444  3
    120    116    117    129     1  180.0000771  2.0083200  2
    120    116    117    129     1  0.0000000  1.2552000  3
    120    116    123    126     1  180.0000771  2.0083200  2
    120    116    123    126     1  0.0000000  1.2552000  3
    120    132    138    318     1  0.0000000  0.6508444  3
    123    116    117    129     1  180.0000771  2.0083200  2
    123    116    117    129     1  0.0000000  1.2552000  3
    123    116    120    132     1  180.0000771  2.0083200  2
    123    116    120    132     1  0.0000000  1.2552000  3
    123    126    135    144     1  0.0000000  0.6508444  3
    129    141    347    319     1  180.0000771  0.4184000  2
    129    141    347    319     1  0.0000000  1.6024720  3
    132    138    318    290     1  180.0000771  0.4184000  2
    132    138    318    290     1  0.0000000  1.6024720  3
    138    318    290    293     1  180.0000771  0.4184000  2
    138    318    290    293     1  0.0000000  1.6024720  3
    141    347    319    322     1  180.0000771  0.4184000  2
    141    347    319    322     1  0.0000000  1.6024720  3
    145    146    158    170     1  0.0000000  0.6508444  3
    145    149    161    167     1  0.0000000  0.6508444  3
    145    152    155    164     1  0.0000000  0.6508444  3
    146    145    149    161     1  180.0000771  2.0083200  2
    146    145    149    161     1  0.0000000  1.2552000  3
    146    145    152    155     1  180.0000771  2.0083200  2
    146    145    152    155     1  0.0000000  1.2552000  3
    146    158    170    405     1  0.0000000  0.6508444  3
    149    145    146    158     1  180.0000771  2.0083200  2
    149    145    146    158     1  0.0000000  1.2552000  3
    149    145    152    155     1  180.0000771  2.0083200  2
    149    145    152    155     1  0.0000000  1.2552000  3
    149    161    167    376     1  0.0000000  0.6508444  3
    152    145    146    158     1  180.0000771  2.0083200  2
    152    145    146    158     1  0.0000000  1.2552000  3
    152    145    149    161     1  180.0000771  2.0083200  2
    152    145    149    161     1  0.0000000  1.2552000  3
    152    155    164    173     1  0.0000000  0.6508444  3
    158    170    405    377     1  180.0000771  0.4184000  2
    158    170    405    377     1  0.0000000  1.6024720  3
    161    167    376    348     1  180.0000771  0.4184000  2
    161    167    376    348     1  0.0000000  1.6024720  3
    167    376    348    351     1  180.0000771  0.4184000  2
    167    376    348    351     1  0.0000000  1.6024720  3
    170    405    377    380     1  180.0000771  0.4184000  2
    170    405    377    380     1  0.0000000  1.6024720  3
    174    175    187    199     1  0.0000000  0.6508444  3
    174    178    190    196     1  0.0000000  0.6508444  3
    174    181    184    193     1  0.0000000  0.6508444  3
    175    174    178    190     1  180.0000771  2.0083200  2
    175    174    178    190     1  0.0000000  1.2552000  3
    175    174    181    184     1  180.0000771  2.0083200  2
    175    174    181    184     1  0.0000000  1.2552000  3
    175    187    199    463     1  0.0000000  0.6508444  3
    178    174    175    187     1  180.0000771  2.0083200  2
    178    174    175    187     1  0.0000000  1.2552000  3
    178    174    181    184     1  180.0000771  2.0083200  2
    178    174    181    184     1  0.0000000  1.2552000  3
    178    190    196    434     1  0.0000000  0.6508444  3
    181    174    175    187     1  180.0000771  2.0083200  2
    181    174    175    187     1  0.0000000  1.2552000  3
    181    174    178    190     1  180.0000771  2.0083200  2
    181    174    178    190     1  0.0000000  1.2552000  3
    181    184    193    202     1  0.0000000  0.6508444  3
    187    199    463    435     1  180.0000771  0.4184000  2
    187    199    463    435     1  0.0000000  1.6024720  3
    190    196    434    406     1  180.0000771  0.4184000  2
    190    196    434    406     1  0.0000000  1.6024720  3
    196    434    406    409     1  180.0000771  0.4184000  2
    196    434    406    409     1  0.0000000  1.6024720  3
    199    463    435    438     1  180.0000771  0.4184000  2
    199    463    435    438     1  0.0000000  1.6024720  3
    203    204    216    228     1  0.0000000  0.6508444  3
    203    207    219    225     1  0.0000000  0.6508444  3
    203    210    213    222     1  0.0000000  0.6508444  3
    204    203    207    219     1  180.0000771  2.0083200  2
    204    203    207    219     1  0.0000000  1.2552000  3
    204    203    210    213     1  180.0000771  2.0083200  2
    204    203    210    213     1  0.0000000  1.2552000  3
    204    216    228    521     1  0.0000000  0.6508444  3
    207    203    204    216     1  180.0000771  2.0083200  2
    207    203    204    216     1  0.0000000  1.2552000  3
    207    203    210    213     1  180.0000771  2.0083200  2
    207    203    210    213     1  0.0000000  1.2552000  3
    207    219    225    492     1  0.0000000  0.6508444  3
    210    203    204    216     1  180.0000771  2.0083200  2
    210    203    204    216     1  0.0000000  1.2552000  3
    210    203    207    219     1  180.0000771  2.0083200  2
    210    203    207    219     1  0.0000000  1.2552000  3
    210    213    222    231     1  0.0000000  0.6508444  3
    216    228    521    493     1  180.0000771  0.4184000  2
    216    228    521    493     1  0.0000000  1.6024720  3
    219    225    492    464     1  180.0000771  0.4184000  2
    219    225    492    464     1  0.0000000  1.6024720  3
    225    492    464    467     1  180.0000771  0.4184000  2
    225    492    464    467     1  0.0000000  1.6024720  3
    228    521    493    496     1  180.0000771  0.4184000  2
    228    521    493    496     1  0.0000000  1.6024720  3
    232    233    245    257     1  0.0000000  0.6508444  3
    232    236    248    254     1  0.0000000  0.6508444  3
    232    239    242    251     1  0.0000000  0.6508444  3
    233    232    236    248     1  180.0000771  2.0083200  2
    233    232    236    248     1  0.0000000  1.2552000  3
    233    232    239    242     1  180.0000771  2.0083200  2
    233    232    239    242     1  0.0000000  1.2552000  3
    233    245    257    579     1  0.0000000  0.6508444  3
    236    232    233    245     1  180.0000771  2.0083200  2
    236    232    233    245     1  0.0000000  1.2552000  3
    236    232    239    242     1  180.0000771  2.0083200  2
    236    232    239    242     1  0.0000000  1.2552000  3
    236    248    254    550     1  0.0000000  0.6508444  3
    239    232    233    245     1  180.0000771  2.0083200  2
    239    232    233    245     1  0.0000000  1.2552000  3
    239    232    236    248     1  180.0000771  2.0083200  2
    239    232    236    248     1  0.0000000  1.2552000  3
    239    242    251    260     1  0.0000000  0.6508444  3
    245    257    579    551     1  180.0000771  0.4184000  2
    245    257    579    551     1  0.0000000  1.6024720  3
    248    254    550    522     1  180.0000771  0.4184000  2
    248    254    550    522     1  0.0000000  1.6024720  3
    254    550    522    525     1  180.0000771  0.4184000  2
    254    550    522    525     1  0.0000000  1.6024720  3
    257    579    551    554     1  180.0000771  0.4184000  2
    257    579    551    554     1  0.0000000  1.6024720  3
    261    262    274    286     1  0.0000000  0.6508444  3
    261    265    277    283     1  0.0000000  0.6508444  3
    261    268    271    280     1  0.0000000  0.6508444  3
    262    261    265    277     1  180.0000771  2.0083200  2
    262    261    265    277     1  0.0000000  1.2552000  3
    262    261    268    271     1  180.0000771  2.0083200  2
    262    261    268    271     1  0.0000000  1.2552000  3
    262    274    286    637     1  0.0000000  0.6508444  3
    265    261    262    274     1  180.0000771  2.0083200  2
    265    261    262    274     1  0.0000000  1.2552000  3
    265    261    268    271     1  180.0000771  2.0083200  2
    265    261    268    271     1  0.0000000  1.2552000  3
    265    277    283    608     1  0.0000000  0.6508444  3
    268    261    262    274     1  180.0000771  2.0083200  2
    268    261    262    274     1  0.0000000  1.2552000  3
    268    261    265    277     1  180.0000771  2.0083200  2
    268    261    265    277     1  0.0000000  1.2552000  3
    268    271    280    289     1  0.0000000  0.6508444  3
    274    286    637    609     1  180.0000771  0.4184000  2
    274    286    637    609     1  0.0000000  1.6024720  3
    277    283    608    580     1  180.0000771  0.4184000  2
    277    283    608    580     1  0.0000000  1.6024720  3
    283    608    580    583     1  180.0000771  0.4184000  2
    283    608    580    583     1  0.0000000  1.6024720  3
    286    637    609    612     1  180.0000771  0.4184000  2
    286    637    609    612     1  0.0000000  1.6024720  3
    290    293    296    299     1  0.0000000  0.6508444  3
    293    296    299    300     1  180.0000771  2.0083200  2
    293    296    299    300     1  0.0000000  1.2552000  3
    293    296    299    309     1  180.0000771  2.0083200  2
    293    296    299    309     1  0.0000000  1.2552000  3
    296    293    290    318     1  0.0000000  0.6508444  3
    296    299    300    303     1  180.0000771  2.0083200  2
    296    299    300    303     1  0.0000000  1.2552000  3
    296    299    309    312     1  180.0000771  2.0083200  2
    296    299    309    312     1  0.0000000  1.2552000  3
    299    300    303    306     1  0.0000000  0.6508444  3
    299    309    312    315     1  0.0000000  0.6508444  3
    300    299    309    312     1  180.0000771  2.0083200  2
    300    299    309    312     1  0.0000000  1.2552000  3
    300    303    306    307     1  180.0000771  0.0000000  2
    300    303    306    308     1  180.0000771  0.0000000  2
    303    300    299    309     1  180.0000771  2.0083200  2
    303    300    299    309     1  0.0000000  1.2552000  3
    309    312    315    316     1  180.0000771  0.0000000  2
    309    312    315    317     1  180.0000771  0.0000000  2
    319    322    325    328     1  0.0000000  0.6508444  3
    322    325    328    329     1  180.0000771  2.0083200  2
    322    325    328    329     1  0.0000000  1.2552000  3
    322    325    328    338     1  180.0000771  2.0083200  2
    322    325    328    338     1  0.0000000  1.2552000  3
    325    328    329    332     1  180.0000771  2.0083200  2
    325    328    329    332     1  0.0000000  1.2552000  3
    325    328    338    341     1  180.0000771  2.0083200  2
    325    328    338    341     1  0.0000000  1.2552000  3
    325    322    319    347     1  0.0000000  0.6508444  3
    328    329    332    335     1  0.0000000  0.6508444  3
    328    338    341    344     1  0.0000000  0.6508444  3
    329    332    335    336     1  180.0000771  0.0000000  2
    329    332    335    337     1  180.0000771  0.0000000  2
    329    328    338    341     1  180.0000771  2.0083200  2
    329    328    338    341     1  0.0000000  1.2552000  3
    332    329    328    338     1  180.0000771  2.0083200  2
    332    329    328    338     1  0.0000000  1.2552000  3
    338    341    344    345     1  180.0000771  0.0000000  2
    338    341    344    346     1  180.0000771  0.0000000  2
    348    351    354    357     1  0.0000000  0.6508444  3
    351    354    357    358     1  180.0000771  2.0083200  2
    351    354    357    358     1  0.0000000  1.2552000  3
    351    354    357    367     1  180.0000771  2.0083200  2
    351    354    357    367     1  0.0000000  1.2552000  3
    354    351    348    376     1  0.0000000  0.6508444  3
    354    357    358    361     1  180.0000771  2.0083200  2
    354    357    358    361     1  0.0000000  1.2552000  3
    354    357    367    370     1  180.0000771  2.0083200  2
    354    357    367    370     1  0.0000000  1.2552000  3
    357    358    361    364     1  0.0000000  0.6508444  3
    357    367    370    373     1  0.0000000  0.6508444  3
    358    357    367    370     1  180.0000771  2.0083200  2
    358    357    367    370     1  0.0000000  1.2552000  3
    358    361    364    365     1  180.0000771  0.0000000  2
    358    361    364    366     1  180.0000771  0.0000000  2
    361    358    357    367     1  180.0000771  2.0083200  2
    361    358    357    367     1  0.0000000  1.2552000  3
    367    370    373    374     1  180.0000771  0.0000000  2
    367    370    373    375     1  180.0000771  0.0000000  2
    377    380    383    386     1  0.0000000  0.6508444  3
    380    383    386    387     1  180.0000771  2.0083200  2
    380    383    386    387     1  0.0000000  1.2552000  3
    380    383    386    396     1  180.0000771  2.0083200  2
    380    383    386    396     1  0.0000000  1.2552000  3
    383    386    387    390     1  180.0000771  2.0083200  2
    383    386    387    390     1  0.0000000  1.2552000  3
    383    386    396    399     1  180.0000771  2.0083200  2
    383    386    396    399     1  0.0000000  1.2552000  3
    383    380    377    405     1  0.0000000  0.6508444  3
    386    387    390    393     1  0.0000000  0.6508444  3
    386    396    399    402     1  0.0000000  0.6508444  3
    387    390    393    394     1  180.0000771  0.0000000  2
    387    390    393    395     1  180.0000771  0.0000000  2
    387    386    396    399     1  180.0000771  2.0083200  2
    387    386    396    399     1  0.0000000  1.2552000  3
    390    387    386    396     1  180.0000771  2.0083200  2
    390    387    386    396     1  0.0000000  1.2552000  3
    396    399    402    403     1  180.0000771  0.0000000  2
    396    399    402    404     1  180.0000771  0.0000000  2
    406    409    412    415     1  0.0000000  0.6508444  3
    409    412    415    416     1  180.0000771  2.0083200  2
    409    412    415    416     1  0.0000000  1.2552000  3
    409    412    415    425     1  180.0000771  2.0083200  2
    409    412    415    425     1  0.0000000  1.2552000  3
    412    409    406    434     1  0.0000000  0.6508444  3
    412    415    416    419     1  180.0000771  2.0083200  2
    412    415    416    419     1  0.0000000  1.2552000  3
    412    415    425    428     1  180.0000771  2.0083200  2
    412    415    425    428     1  0.0000000  1.2552000  3
    415    416    419    422     1  0.0000000  0.6508444  3
    415    425    428    431     1  0.0000000  0.6508444  3
    416    415    425    428     1  180.0000771  2.0083200  2
    416    415    425    428     1  0.0000000  1.2552000  3
    416    419    422    423     1  180.0000771  0.0000000  2
    416    419    422    424     1  180.0000771  0.0000000  2
    419    416    415    425     1  180.0000771  2.0083200  2
    419    416    415    425     1  0.0000000  1.2552000  3
    425    428    431    432     1  180.0000771  0.0000000  2
    425    428    431    433     1  180.0000771  0.0000000  2
    435    438    441    444     1  0.0000000  0.6508444  3
    438    441    444    445     1  180.0000771  2.0083200  2
    438    441    444    445     1  0.0000000  1.2552000  3
    438    441    444    454     1  180.0000771  2.0083200  2
    438    441    444    454     1  0.0000000  1.2552000  3
    441    444    445    448     1  180.0000771  2.0083200  2
    441    444    445    448     1  0.0000000  1.2552000  3
    441    444    454    457     1  180.0000771  2.0083200  2
    441    444    454    457     1  0.0000000  1.2552000  3
    441    438    435    463     1  0.0000000  0.6508444  3
    444    445    448    451     1  0.0000000  0.6508444  3
    444    454    457    460     1  0.0000000  0.6508444  3
    445    448    451    452     1  180.0000771  0.0000000  2
    445    448    451    453     1  180.0000771  0.0000000  2
    445    444    454    457     1  180.0000771  2.0083200  2
    445    444    454    457     1  0.0000000  1.2552000  3
    448    445    444    454     1  180.0000771  2.0083200  2
    448    445    444    454     1  0.0000000  1.2552000  3
    454    457    460    461     1  180.0000771  0.0000000  2
    454    457    460    462     1  180.0000771  0.0000000  2
    464    467    470    473     1  0.0000000  0.6508444  3
    467    470    473    474     1  180.0000771  2.0083200  2
    467    470    473    474     1  0.0000000  1.2552000  3
    467    470    473    483     1  180.0000771  2.0083200  2
    467    470    473    483     1  0.0000000  1.2552000  3
    470    467    464    492     1  0.0000000  0.6508444  3
    470    473    474    477     1  180.0000771  2.0083200  2
    470    473    474    477     1  0.0000000  1.2552000  3
    470    473    483    486     1  180.0000771  2.0083200  2
    470    473    483    486     1  0.0000000  1.2552000  3
    473    474    477    480     1  0.0000000  0.6508444  3
    473    483    486    489     1  0.0000000  0.6508444  3
    474    473    483    486     1  180.0000771  2.0083200  2
    474    473    483    486     1  0.0000000  1.2552000  3
    474    477    480    481     1  180.0000771  0.0000000  2
    474    477    480    482     1  180.0000771  0.0000000  2
    477    474    473    483     1  180.0000771  2.0083200  2
    477    474    473    483     1  0.0000000  1.2552000  3
    483    486    489    490     1  180.0000771  0.0000000  2
    483    486    489    491     1  180.0000771  0.0000000  2
    493    496    499    502     1  0.0000000  0.6508444  3
    496    499    502    503     1  180.0000771  2.0083200  2
    496    499    502    503     1  0.0000000  1.2552000  3
    496    499    502    512     1  180.0000771  2.0083200  2
    496    499    502    512     1  0.0000000  1.2552000  3
    499    502    503    506     1  180.0000771  2.0083200  2
    499    502    503    506     1  0.0000000  1.2552000  3
    499    502    512    515     1  180.0000771  2.0083200  2
    499    502    512    515     1  0.0000000  1.2552000  3
    499    496    493    521     1  0.0000000  0.6508444  3
    502    503    506    509     1  0.0000000  0.6508444  3
    502    512    515    518     1  0.0000000  0.6508444  3
    503    506    509    510     1  180.0000771  0.0000000  2
    503    506    509    511     1  180.0000771  0.0000000  2
    503    502    512    515     1  180.0000771  2.0083200  2
    503    502    512    515     1  0.0000000  1.2552000  3
    506    503    502    512     1  180.0000771  2.0083200  2
    506    503    502    512     1  0.0000000  1.2552000  3
    512    515    518    519     1  180.0000771  0.0000000  2
    512    515    518    520     1  180.0000771  0.0000000  2
    522    525    528    531     1  0.0000000  0.6508444  3
    525    528    531    532     1  180.0000771  2.0083200  2
    525    528    531    532     1  0.0000000  1.2552000  3
    525    528    531    541     1  180.0000771  2.0083200  2
    525    528    531    541     1  0.0000000  1.2552000  3
    528    525    522    550     1  0.0000000  0.6508444  3
    528    531    532    535     1  180.0000771  2.0083200  2
    528    531    532    535     1  0.0000000  1.2552000  3
    528    531    541    544     1  180.0000771  2.0083200  2
    528    531    541    544     1  0.0000000  1.2552000  3
    531    532    535    538     1  0.0000000  0.6508444  3
    531    541    544    547     1  0.0000000  0.6508444  3
    532    531    541    544     1  180.0000771  2.0083200  2
    532    531    541    544     1  0.0000000  1.2552000  3
    532    535    538    539     1  180.0000771  0.0000000  2
    532    535    538    540     1  180.0000771  0.0000000  2
    535    532    531    541     1  180.0000771  2.0083200  2
    535    532    531    541     1  0.0000000  1.2552000  3
    541    544    547    548     1  180.0000771  0.0000000  2
    541    544    547    549     1  180.0000771  0.0000000  2
    551    554    557    560     1  0.0000000  0.6508444  3
    554    557    560    561     1  180.0000771  2.0083200  2
    554    557    560    561     1  0.0000000  1.2552000  3
    554    557    560    570     1  180.0000771  2.0083200  2
    554    557    560    570     1  0.0000000  1.2552000  3
    557    560    561    564     1  180.0000771  2.0083200  2
    557    560    561    564     1  0.0000000  1.2552000  3
    557    560    570    573     1  180.0000771  2.0083200  2
    557    560    570    573     1  0.0000000  1.2552000  3
    557    554    551    579     1  0.0000000  0.6508444  3
    560    561    564    567     1  0.0000000  0.6508444  3
    560    570    573    576     1  0.0000000  0.6508444  3
    561    564    567    568     1  180.0000771  0.0000000  2
    561    564    567    569     1  180.0000771  0.0000000  2
    561    560    570    573     1  180.0000771  2.0083200  2
    561    560    570    573     1  0.0000000  1.2552000  3
    564    561    560    570     1  180.0000771  2.0083200  2
    564    561    560    570     1  0.0000000  1.2552000  3
    570    573    576    577     1  180.0000771  0.0000000  2
    570    573    576    578     1  180.0000771  0.0000000  2
    580    583    586    589     1  0.0000000  0.6508444  3
    583    586    589    590     1  180.0000771  2.0083200  2
    583    586    589    590     1  0.0000000  1.2552000  3
    583    586    589    599     1  180.0000771  2.0083200  2
    583    586    589    599     1  0.0000000  1.2552000  3
    586    583    580    608     1  0.0000000  0.6508444  3
    586    589    590    593     1  180.0000771  2.0083200  2
    586    589    590    593     1  0.0000000  1.2552000  3
    586    589    599    602     1  180.0000771  2.0083200  2
    586    589    599    602     1  0.0000000  1.2552000  3
    589    590    593    596     1  0.0000000  0.6508444  3
    589    599    602    605     1  0.0000000  0.6508444  3
    590    589    599    602     1  180.0000771  2.0083200  2
    590    589    599    602     1  0.0000000  1.2552000  3
    590    593    596    597     1  180.0000771  0.0000000  2
    590    593    596    598     1  180.0000771  0.0000000  2
    593    590    589    599     1  180.0000771  2.0083200  2
    593    590    589    599     1  0.0000000  1.2552000  3
    599    602    605    606     1  180.0000771  0.0000000  2
    599    602    605    607     1  180.0000771  0.0000000  2
    609    612    615    618     1  0.0000000  0.6508444  3
    612    615    618    619     1  180.0000771  2.0083200  2
    612    615    618    619     1  0.0000000  1.2552000  3
    612    615    618    628     1  180.0000771  2.0083200  2
    612    615    618    628     1  0.0000000  1.2552000  3
    615    618    619    622     1  180.0000771  2.0083200  2
    615    618    619    622     1  0.0000000  1.2552000  3
    615    618    628    631     1  180.0000771  2.0083200  2
    615    618    628    631     1  0.0000000  1.2552000  3
    615    612    609    637     1  0.0000000  0.6508444  3
    618    619    622    625     1  0.0000000  0.6508444  3
    618    628    631    634     1  0.0000000  0.6508444  3
    619    622    625    626     1  180.0000771  0.0000000  2
    619    622    625    627     1  180.0000771  0.0000000  2
    619    618    628    631     1  180.0000771  2.0083200  2
    619    618    628    631     1  0.0000000  1.2552000  3
    622    619    618    628     1  180.0000771  2.0083200  2
    622    619    618    628     1  0.0000000  1.2552000  3
    628    631    634    635     1  180.0000771  0.0000000  2
    628    631    634    636     1  180.0000771  0.0000000  2
    303    307    306    308     4  180.0000771  4.6024000  2
    312    316    315    317     4  180.0000771  4.6024000  2
    332    336    335    337     4  180.0000771  4.6024000  2
    341    345    344    346     4  180.0000771  4.6024000  2
    361    365    364    366     4  180.0000771  4.6024000  2
    370    374    373    375     4  180.0000771  4.6024000  2
    390    394    393    395     4  180.0000771  4.6024000  2
    399    403    402    404     4  180.0000771  4.6024000  2
    419    423    422    424     4  180.0000771  4.6024000  2
    428    432    431    433     4  180.0000771  4.6024000  2
    448    452    451    453     4  180.0000771  4.6024000  2
    457    461    460    462     4  180.0000771  4.6024000  2
    477    481    480    482     4  180.0000771  4.6024000  2
    486    490    489    491     4  180.0000771  4.6024000  2
    506    510    509    511     4  180.0000771  4.6024000  2
    515    519    518    520     4  180.0000771  4.6024000  2
    535    539    538    540     4  180.0000771  4.6024000  2
    544    548    547    549     4  180.0000771  4.6024000  2
    564    568    567    569     4  180.0000771  4.6024000  2
    573    577    576    578     4  180.0000771  4.6024000  2
    593    597    596    598     4  180.0000771  4.6024000  2
    602    606    605    607     4  180.0000771  4.6024000  2
    622    626    625    627     4  180.0000771  4.6024000  2
    631    635    634    636     4  180.0000771  4.6024000  2
      1      2     14     15     1  0.0000000  0.6508444  3
      1      2     14     16     1  0.0000000  0.6508444  3
      1      5     17     18     1  0.0000000  0.6508444  3
      1      5     17     19     1  0.0000000  0.6508444  3
      1      8     11     12     1  0.0000000  0.6508444  3
      1      8     11     13     1  0.0000000  0.6508444  3
      2      1      5      6     1  0.0000000  1.2552000  3
      2      1      5      7     1  0.0000000  1.2552000  3
      2      1      8      9     1  0.0000000  1.2552000  3
      2      1      8     10     1  0.0000000  1.2552000  3
      2     14     26     27     1  0.0000000  0.6508444  3
      2     14     26     28     1  0.0000000  0.6508444  3
      5      1      2      3     1  0.0000000  1.2552000  3
      8      1      2      3     1  0.0000000  1.2552000  3
      3      2     14     26     1  0.0000000  0.6508444  3
      3      2     14     15     1  0.0000000  0.6508444  3
      3      2     14     16     1  0.0000000  0.6508444  3
      5      1      2      4     1  0.0000000  1.2552000  3
      8      1      2      4     1  0.0000000  1.2552000  3
      4      2     14     26     1  0.0000000  0.6508444  3
      4      2     14     15     1  0.0000000  0.6508444  3
      4      2     14     16     1  0.0000000  0.6508444  3
      5      1      8      9     1  0.0000000  1.2552000  3
      5      1      8     10     1  0.0000000  1.2552000  3
      5     17     20     21     1  0.0000000  0.6508444  3
      5     17     20     22     1  0.0000000  0.6508444  3
      8      1      5      6     1  0.0000000  1.2552000  3
      6      5     17     20     1  0.0000000  0.6508444  3
      6      5     17     18     1  0.0000000  0.6508444  3
      6      5     17     19     1  0.0000000  0.6508444  3
      8      1      5      7     1  0.0000000  1.2552000  3
      7      5     17     20     1  0.0000000  0.6508444  3
      7      5     17     18     1  0.0000000  0.6508444  3
      7      5     17     19     1  0.0000000  0.6508444  3
      8     11     23     24     1  0.0000000  0.6508444  3
      8     11     23     25     1  0.0000000  0.6508444  3
      9      8     11     23     1  0.0000000  0.6508444  3
      9      8     11     12     1  0.0000000  0.6508444  3
      9      8     11     13     1  0.0000000  0.6508444  3
     10      8     11     23     1  0.0000000  0.6508444  3
     10      8     11     12     1  0.0000000  0.6508444  3
     10      8     11     13     1  0.0000000  0.6508444  3
     12     11     23     86     1  0.0000000  1.0460000  1
     12     11     23     86     1  0.0000000  0.0000000  3
     12     11     23     24     1  0.0000000  0.6508444  3
     12     11     23     25     1  0.0000000  0.6508444  3
     13     11     23     86     1  0.0000000  1.0460000  1
     13     11     23     86     1  0.0000000  0.0000000  3
     13     11     23     24     1  0.0000000  0.6508444  3
     13     11     23     25     1  0.0000000  0.6508444  3
     15     14     26    115     1  0.0000000  1.0460000  1
     15     14     26    115     1  0.0000000  0.0000000  3
     15     14     26     27     1  0.0000000  0.6508444  3
     15     14     26     28     1  0.0000000  0.6508444  3
     16     14     26    115     1  0.0000000  1.0460000  1
     16     14     26    115     1  0.0000000  0.0000000  3
     16     14     26     27     1  0.0000000  0.6508444  3
     16     14     26     28     1  0.0000000  0.6508444  3
     18     17     20     57     1  0.0000000  1.0460000  1
     18     17     20     57     1  0.0000000  0.0000000  3
     18     17     20     21     1  0.0000000  0.6508444  3
     18     17     20     22     1  0.0000000  0.6508444  3
     19     17     20     57     1  0.0000000  1.0460000  1
     19     17     20     57     1  0.0000000  0.0000000  3
     19     17     20     21     1  0.0000000  0.6508444  3
     19     17     20     22     1  0.0000000  0.6508444  3
     20     57     48     49     1  0.0000000  1.6038667  3
     20     57     48     50     1  0.0000000  1.6038667  3
     21     20     57     48     1  0.0000000  1.6038667  3
     22     20     57     48     1  0.0000000  1.6038667  3
     23     86     77     78     1  0.0000000  1.6038667  3
     23     86     77     79     1  0.0000000  1.6038667  3
     24     23     86     77     1  0.0000000  1.6038667  3
     25     23     86     77     1  0.0000000  1.6038667  3
     26    115    106    107     1  0.0000000  1.6038667  3
     26    115    106    108     1  0.0000000  1.6038667  3
     27     26    115    106     1  0.0000000  1.6038667  3
     28     26    115    106     1  0.0000000  1.6038667  3
     29     30     42     43     1  0.0000000  0.6508444  3
     29     30     42     44     1  0.0000000  0.6508444  3
     29     33     45     46     1  0.0000000  0.6508444  3
     29     33     45     47     1  0.0000000  0.6508444  3
     29     36     39     40     1  0.0000000  0.6508444  3
     29     36     39     41     1  0.0000000  0.6508444  3
     30     29     33     34     1  0.0000000  1.2552000  3
     30     29     33     35     1  0.0000000  1.2552000  3
     30     29     36     37     1  0.0000000  1.2552000  3
     30     29     36     38     1  0.0000000  1.2552000  3
     30     42     54     55     1  0.0000000  0.6508444  3
     30     42     54     56     1  0.0000000  0.6508444  3
     31     30     29     33     1  0.0000000  1.2552000  3
     31     30     29     36     1  0.0000000  1.2552000  3
     31     30     42     54     1  0.0000000  0.6508444  3
     31     30     42     43     1  0.0000000  0.6508444  3
     31     30     42     44     1  0.0000000  0.6508444  3
     32     30     29     33     1  0.0000000  1.2552000  3
     32     30     29     36     1  0.0000000  1.2552000  3
     32     30     42     54     1  0.0000000  0.6508444  3
     32     30     42     43     1  0.0000000  0.6508444  3
     32     30     42     44     1  0.0000000  0.6508444  3
     33     29     36     37     1  0.0000000  1.2552000  3
     33     29     36     38     1  0.0000000  1.2552000  3
     33     45     51     52     1  0.0000000  0.6508444  3
     33     45     51     53     1  0.0000000  0.6508444  3
     34     33     29     36     1  0.0000000  1.2552000  3
     34     33     45     51     1  0.0000000  0.6508444  3
     34     33     45     46     1  0.0000000  0.6508444  3
     34     33     45     47     1  0.0000000  0.6508444  3
     35     33     29     36     1  0.0000000  1.2552000  3
     35     33     45     51     1  0.0000000  0.6508444  3
     35     33     45     46     1  0.0000000  0.6508444  3
     35     33     45     47     1  0.0000000  0.6508444  3
     36     39     48     49     1  0.0000000  0.6508444  3
     36     39     48     50     1  0.0000000  0.6508444  3
     37     36     39     48     1  0.0000000  0.6508444  3
     37     36     39     40     1  0.0000000  0.6508444  3
     37     36     39     41     1  0.0000000  0.6508444  3
     38     36     39     48     1  0.0000000  0.6508444  3
     38     36     39     40     1  0.0000000  0.6508444  3
     38     36     39     41     1  0.0000000  0.6508444  3
     40     39     48     57     1  0.0000000  1.0460000  1
     40     39     48     57     1  0.0000000  0.0000000  3
     40     39     48     49     1  0.0000000  0.6508444  3
     40     39     48     50     1  0.0000000  0.6508444  3
     41     39     48     57     1  0.0000000  1.0460000  1
     41     39     48     57     1  0.0000000  0.0000000  3
     41     39     48     49     1  0.0000000  0.6508444  3
     41     39     48     50     1  0.0000000  0.6508444  3
     43     42     54    173     1  0.0000000  1.0460000  1
     43     42     54    173     1  0.0000000  0.0000000  3
     43     42     54     55     1  0.0000000  0.6508444  3
     43     42     54     56     1  0.0000000  0.6508444  3
     44     42     54    173     1  0.0000000  1.0460000  1
     44     42     54    173     1  0.0000000  0.0000000  3
     44     42     54     55     1  0.0000000  0.6508444  3
     44     42     54     56     1  0.0000000  0.6508444  3
     46     45     51    144     1  0.0000000  1.0460000  1
     46     45     51    144     1  0.0000000  0.0000000  3
     46     45     51     52     1  0.0000000  0.6508444  3
     46     45     51     53     1  0.0000000  0.6508444  3
     47     45     51    144     1  0.0000000  1.0460000  1
     47     45     51    144     1  0.0000000  0.0000000  3
     47     45     51     52     1  0.0000000  0.6508444  3
     47     45     51     53     1  0.0000000  0.6508444  3
     51    144    135    136     1  0.0000000  1.6038667  3
     51    144    135    137     1  0.0000000  1.6038667  3
     52     51    144    135     1  0.0000000  1.6038667  3
     53     51    144    135     1  0.0000000  1.6038667  3
     54    173    164    165     1  0.0000000  1.6038667  3
     54    173    164    166     1  0.0000000  1.6038667  3
     55     54    173    164     1  0.0000000  1.6038667  3
     56     54    173    164     1  0.0000000  1.6038667  3
     58     59     71     72     1  0.0000000  0.6508444  3
     58     59     71     73     1  0.0000000  0.6508444  3
     58     62     74     75     1  0.0000000  0.6508444  3
     58     62     74     76     1  0.0000000  0.6508444  3
     58     65     68     69     1  0.0000000  0.6508444  3
     58     65     68     70     1  0.0000000  0.6508444  3
     59     58     62     63     1  0.0000000  1.2552000  3
     59     58     62     64     1  0.0000000  1.2552000  3
     59     58     65     66     1  0.0000000  1.2552000  3
     59     58     65     67     1  0.0000000  1.2552000  3
     59     71     83     84     1  0.0000000  0.6508444  3
     59     71     83     85     1  0.0000000  0.6508444  3
     60     59     58     62     1  0.0000000  1.2552000  3
     60     59     58     65     1  0.0000000  1.2552000  3
     60     59     71     83     1  0.0000000  0.6508444  3
     60     59     71     72     1  0.0000000  0.6508444  3
     60     59     71     73     1  0.0000000  0.6508444  3
     61     59     58     62     1  0.0000000  1.2552000  3
     61     59     58     65     1  0.0000000  1.2552000  3
     61     59     71     83     1  0.0000000  0.6508444  3
     61     59     71     72     1  0.0000000  0.6508444  3
     61     59     71     73     1  0.0000000  0.6508444  3
     62     58     65     66     1  0.0000000  1.2552000  3
     62     58     65     67     1  0.0000000  1.2552000  3
     62     74     80     81     1  0.0000000  0.6508444  3
     62     74     80     82     1  0.0000000  0.6508444  3
     63     62     58     65     1  0.0000000  1.2552000  3
     63     62     74     80     1  0.0000000  0.6508444  3
     63     62     74     75     1  0.0000000  0.6508444  3
     63     62     74     76     1  0.0000000  0.6508444  3
     64     62     58     65     1  0.0000000  1.2552000  3
     64     62     74     80     1  0.0000000  0.6508444  3
     64     62     74     75     1  0.0000000  0.6508444  3
     64     62     74     76     1  0.0000000  0.6508444  3
     65     68     77     78     1  0.0000000  0.6508444  3
     65     68     77     79     1  0.0000000  0.6508444  3
     66     65     68     77     1  0.0000000  0.6508444  3
     66     65     68     69     1  0.0000000  0.6508444  3
     66     65     68     70     1  0.0000000  0.6508444  3
     67     65     68     77     1  0.0000000  0.6508444  3
     67     65     68     69     1  0.0000000  0.6508444  3
     67     65     68     70     1  0.0000000  0.6508444  3
     69     68     77     86     1  0.0000000  1.0460000  1
     69     68     77     86     1  0.0000000  0.0000000  3
     69     68     77     78     1  0.0000000  0.6508444  3
     69     68     77     79     1  0.0000000  0.6508444  3
     70     68     77     86     1  0.0000000  1.0460000  1
     70     68     77     86     1  0.0000000  0.0000000  3
     70     68     77     78     1  0.0000000  0.6508444  3
     70     68     77     79     1  0.0000000  0.6508444  3
     72     71     83    231     1  0.0000000  1.0460000  1
     72     71     83    231     1  0.0000000  0.0000000  3
     72     71     83     84     1  0.0000000  0.6508444  3
     72     71     83     85     1  0.0000000  0.6508444  3
     73     71     83    231     1  0.0000000  1.0460000  1
     73     71     83    231     1  0.0000000  0.0000000  3
     73     71     83     84     1  0.0000000  0.6508444  3
     73     71     83     85     1  0.0000000  0.6508444  3
     75     74     80    202     1  0.0000000  1.0460000  1
     75     74     80    202     1  0.0000000  0.0000000  3
     75     74     80     81     1  0.0000000  0.6508444  3
     75     74     80     82     1  0.0000000  0.6508444  3
     76     74     80    202     1  0.0000000  1.0460000  1
     76     74     80    202     1  0.0000000  0.0000000  3
     76     74     80     81     1  0.0000000  0.6508444  3
     76     74     80     82     1  0.0000000  0.6508444  3
     80    202    193    194     1  0.0000000  1.6038667  3
     80    202    193    195     1  0.0000000  1.6038667  3
     81     80    202    193     1  0.0000000  1.6038667  3
     82     80    202    193     1  0.0000000  1.6038667  3
     83    231    222    223     1  0.0000000  1.6038667  3
     83    231    222    224     1  0.0000000  1.6038667  3
     84     83    231    222     1  0.0000000  1.6038667  3
     85     83    231    222     1  0.0000000  1.6038667  3
     87     88    100    101     1  0.0000000  0.6508444  3
     87     88    100    102     1  0.0000000  0.6508444  3
     87     91    103    104     1  0.0000000  0.6508444  3
     87     91    103    105     1  0.0000000  0.6508444  3
     87     94     97     98     1  0.0000000  0.6508444  3
     87     94     97     99     1  0.0000000  0.6508444  3
     88     87     91     92     1  0.0000000  1.2552000  3
     88     87     91     93     1  0.0000000  1.2552000  3
     88     87     94     95     1  0.0000000  1.2552000  3
     88     87     94     96     1  0.0000000  1.2552000  3
     88    100    112    113     1  0.0000000  0.6508444  3
     88    100    112    114     1  0.0000000  0.6508444  3
     89     88     87     91     1  0.0000000  1.2552000  3
     89     88     87     94     1  0.0000000  1.2552000  3
     89     88    100    112     1  0.0000000  0.6508444  3
     89     88    100    101     1  0.0000000  0.6508444  3
     89     88    100    102     1  0.0000000  0.6508444  3
     90     88     87     91     1  0.0000000  1.2552000  3
     90     88     87     94     1  0.0000000  1.2552000  3
     90     88    100    112     1  0.0000000  0.6508444  3
     90     88    100    101     1  0.0000000  0.6508444  3
     90     88    100    102     1  0.0000000  0.6508444  3
     91     87     94     95     1  0.0000000  1.2552000  3
     91     87     94     96     1  0.0000000  1.2552000  3
     91    103    109    110     1  0.0000000  0.6508444  3
     91    103    109    111     1  0.0000000  0.6508444  3
     92     91     87     94     1  0.0000000  1.2552000  3
     92     91    103    109     1  0.0000000  0.6508444  3
     92     91    103    104     1  0.0000000  0.6508444  3
     92     91    103    105     1  0.0000000  0.6508444  3
     93     91     87     94     1  0.0000000  1.2552000  3
     93     91    103    109     1  0.0000000  0.6508444  3
     93     91    103    104     1  0.0000000  0.6508444  3
     93     91    103    105     1  0.0000000  0.6508444  3
     94     97    106    107     1  0.0000000  0.6508444  3
     94     97    106    108     1  0.0000000  0.6508444  3
     95     94     97    106     1  0.0000000  0.6508444  3
     95     94     97     98     1  0.0000000  0.6508444  3
     95     94     97     99     1  0.0000000  0.6508444  3
     96     94     97    106     1  0.0000000  0.6508444  3
     96     94     97     98     1  0.0000000  0.6508444  3
     96     94     97     99     1  0.0000000  0.6508444  3
     98     97    106    115     1  0.0000000  1.0460000  1
     98     97    106    115     1  0.0000000  0.0000000  3
     98     97    106    107     1  0.0000000  0.6508444  3
     98     97    106    108     1  0.0000000  0.6508444  3
     99     97    106    115     1  0.0000000  1.0460000  1
     99     97    106    115     1  0.0000000  0.0000000  3
     99     97    106    107     1  0.0000000  0.6508444  3
     99     97    106    108     1  0.0000000  0.6508444  3
    101    100    112    289     1  0.0000000  1.0460000  1
    101    100    112    289     1  0.0000000  0.0000000  3
    101    100    112    113     1  0.0000000  0.6508444  3
    101    100    112    114     1  0.0000000  0.6508444  3
    102    100    112    289     1  0.0000000  1.0460000  1
    102    100    112    289     1  0.0000000  0.0000000  3
    102    100    112    113     1  0.0000000  0.6508444  3
    102    100    112    114     1  0.0000000  0.6508444  3
    104    103    109    260     1  0.0000000  1.0460000  1
    104    103    109    260     1  0.0000000  0.0000000  3
    104    103    109    110     1  0.0000000  0.6508444  3
    104    103    109    111     1  0.0000000  0.6508444  3
    105    103    109    260     1  0.0000000  1.0460000  1
    105    103    109    260     1  0.0000000  0.0000000  3
    105    103    109    110     1  0.0000000  0.6508444  3
    105    103    109    111     1  0.0000000  0.6508444  3
    109    260    251    252     1  0.0000000  1.6038667  3
    109    260    251    253     1  0.0000000  1.6038667  3
    110    109    260    251     1  0.0000000  1.6038667  3
    111    109    260    251     1  0.0000000  1.6038667  3
    112    289    280    281     1  0.0000000  1.6038667  3
    112    289    280    282     1  0.0000000  1.6038667  3
    113    112    289    280     1  0.0000000  1.6038667  3
    114    112    289    280     1  0.0000000  1.6038667  3
    116    117    129    130     1  0.0000000  0.6508444  3
    116    117    129    131     1  0.0000000  0.6508444  3
    116    120    132    133     1  0.0000000  0.6508444  3
    116    120    132    134     1  0.0000000  0.6508444  3
    116    123    126    127     1  0.0000000  0.6508444  3
    116    123    126    128     1  0.0000000  0.6508444  3
    117    116    120    121     1  0.0000000  1.2552000  3
    117    116    120    122     1  0.0000000  1.2552000  3
    117    116    123    124     1  0.0000000  1.2552000  3
    117    116    123    125     1  0.0000000  1.2552000  3
    117    129    141    142     1  0.0000000  0.6508444  3
    117    129    141    143     1  0.0000000  0.6508444  3
    118    117    116    120     1  0.0000000  1.2552000  3
    118    117    116    123     1  0.0000000  1.2552000  3
    118    117    129    141     1  0.0000000  0.6508444  3
    118    117    129    130     1  0.0000000  0.6508444  3
    118    117    129    131     1  0.0000000  0.6508444  3
    119    117    116    120     1  0.0000000  1.2552000  3
    119    117    116    123     1  0.0000000  1.2552000  3
    119    117    129    141     1  0.0000000  0.6508444  3
    119    117    129    130     1  0.0000000  0.6508444  3
    119    117    129    131     1  0.0000000  0.6508444  3
    120    116    123    124     1  0.0000000  1.2552000  3
    120    116    123    125     1  0.0000000  1.2552000  3
    120    132    138    139     1  0.0000000  0.6508444  3
    120    132    138    140     1  0.0000000  0.6508444  3
    121    120    116    123     1  0.0000000  1.2552000  3
    121    120    132    138     1  0.0000000  0.6508444  3
    121    120    132    133     1  0.0000000  0.6508444  3
    121    120    132    134     1  0.0000000  0.6508444  3
    122    120    116    123     1  0.0000000  1.2552000  3
    122    120    132    138     1  0.0000000  0.6508444  3
    122    120    132    133     1  0.0000000  0.6508444  3
    122    120    132    134     1  0.0000000  0.6508444  3
    123    126    135    136     1  0.0000000  0.6508444  3
    123    126    135    137     1  0.0000000  0.6508444  3
    124    123    126    135     1  0.0000000  0.6508444  3
    124    123    126    127     1  0.0000000  0.6508444  3
    124    123    126    128     1  0.0000000  0.6508444  3
    125    123    126    135     1  0.0000000  0.6508444  3
    125    123    126    127     1  0.0000000  0.6508444  3
    125    123    126    128     1  0.0000000  0.6508444  3
    127    126    135    144     1  0.0000000  1.0460000  1
    127    126    135    144     1  0.0000000  0.0000000  3
    127    126    135    136     1  0.0000000  0.6508444  3
    127    126    135    137     1  0.0000000  0.6508444  3
    128    126    135    144     1  0.0000000  1.0460000  1
    128    126    135    144     1  0.0000000  0.0000000  3
    128    126    135    136     1  0.0000000  0.6508444  3
    128    126    135    137     1  0.0000000  0.6508444  3
    130    129    141    347     1  0.0000000  1.0460000  1
    130    129    141    347     1  0.0000000  0.0000000  3
    130    129    141    142     1  0.0000000  0.6508444  3
    130    129    141    143     1  0.0000000  0.6508444  3
    131    129    141    347     1  0.0000000  1.0460000  1
    131    129    141    347     1  0.0000000  0.0000000  3
    131    129    141    142     1  0.0000000  0.6508444  3
    131    129    141    143     1  0.0000000  0.6508444  3
    133    132    138    318     1  0.0000000  1.0460000  1
    133    132    138    318     1  0.0000000  0.0000000  3
    133    132    138    139     1  0.0000000  0.6508444  3
    133    132    138    140     1  0.0000000  0.6508444  3
    134    132    138    318     1  0.0000000  1.0460000  1
    134    132    138    318     1  0.0000000  0.0000000  3
    134    132    138    139     1  0.0000000  0.6508444  3
    134    132    138    140     1  0.0000000  0.6508444  3
    138    318    290    291     1  0.0000000  1.6038667  3
    138    318    290    292     1  0.0000000  1.6038667  3
    139    138    318    290     1  0.0000000  1.6038667  3
    140    138    318    290     1  0.0000000  1.6038667  3
    141    347    319    320     1  0.0000000  1.6038667  3
    141    347    319    321     1  0.0000000  1.6038667  3
    142    141    347    319     1  0.0000000  1.6038667  3
    143    141    347    319     1  0.0000000  1.6038667  3
    145    146    158    159     1  0.0000000  0.6508444  3
    145    146    158    160     1  0.0000000  0.6508444  3
    145    149    161    162     1  0.0000000  0.6508444  3
    145    149    161    163     1  0.0000000  0.6508444  3
    145    152    155    156     1  0.0000000  0.6508444  3
    145    152    155    157     1  0.0000000  0.6508444  3
    146    145    149    150     1  0.0000000  1.2552000  3
    146    145    149    151     1  0.0000000  1.2552000  3
    146    145    152    153     1  0.0000000  1.2552000  3
    146    145    152    154     1  0.0000000  1.2552000  3
    146    158    170    171     1  0.0000000  0.6508444  3
    146    158    170    172     1  0.0000000  0.6508444  3
    147    146    145    149     1  0.0000000  1.2552000  3
    147    146    145    152     1  0.0000000  1.2552000  3
    147    146    158    170     1  0.0000000  0.6508444  3
    147    146    158    159     1  0.0000000  0.6508444  3
    147    146    158    160     1  0.0000000  0.6508444  3
    148    146    145    149     1  0.0000000  1.2552000  3
    148    146    145    152     1  0.0000000  1.2552000  3
    148    146    158    170     1  0.0000000  0.6508444  3
    148    146    158    159     1  0.0000000  0.6508444  3
    148    146    158    160     1  0.0000000  0.6508444  3
    149    145    152    153     1  0.0000000  1.2552000  3
    149    145    152    154     1  0.0000000  1.2552000  3
    149    161    167    168     1  0.0000000  0.6508444  3
    149    161    167    169     1  0.0000000  0.6508444  3
    150    149    145    152     1  0.0000000  1.2552000  3
    150    149    161    167     1  0.0000000  0.6508444  3
    150    149    161    162     1  0.0000000  0.6508444  3
    150    149    161    163     1  0.0000000  0.6508444  3
    151    149    145    152     1  0.0000000  1.2552000  3
    151    149    161    167     1  0.0000000  0.6508444  3
    151    149    161    162     1  0.0000000  0.6508444  3
    151    149    161    163     1  0.0000000  0.6508444  3
    152    155    164    165     1  0.0000000  0.6508444  3
    152    155    164    166     1  0.0000000  0.6508444  3
    153    152    155    164     1  0.0000000  0.6508444  3
    153    152    155    156     1  0.0000000  0.6508444  3
    153    152    155    157     1  0.0000000  0.6508444  3
    154    152    155    164     1  0.0000000  0.6508444  3
    154    152    155    156     1  0.0000000  0.6508444  3
    154    152    155    157     1  0.0000000  0.6508444  3
    156    155    164    173     1  0.0000000  1.0460000  1
    156    155    164    173     1  0.0000000  0.0000000  3
    156    155    164    165     1  0.0000000  0.6508444  3
    156    155    164    166     1  0.0000000  0.6508444  3
    157    155    164    173     1  0.0000000  1.0460000  1
    157    155    164    173     1  0.0000000  0.0000000  3
    157    155    164    165     1  0.0000000  0.6508444  3
    157    155    164    166     1  0.0000000  0.6508444  3
    159    158    170    405     1  0.0000000  1.0460000  1
    159    158    170    405     1  0.0000000  0.0000000  3
    159    158    170    171     1  0.0000000  0.6508444  3
    159    158    170    172     1  0.0000000  0.6508444  3
    160    158    170    405     1  0.0000000  1.0460000  1
    160    158    170    405     1  0.0000000  0.0000000  3
    160    158    170    171     1  0.0000000  0.6508444  3
    160    158    170    172     1  0.0000000  0.6508444  3
    162    161    167    376     1  0.0000000  1.0460000  1
    162    161    167    376     1  0.0000000  0.0000000  3
    162    161    167    168     1  0.0000000  0.6508444  3
    162    161    167    169     1  0.0000000  0.6508444  3
    163    161    167    376     1  0.0000000  1.0460000  1
    163    161    167    376     1  0.0000000  0.0000000  3
    163    161    167    168     1  0.0000000  0.6508444  3
    163    161    167    169     1  0.0000000  0.6508444  3
    167    376    348    349     1  0.0000000  1.6038667  3
    167    376    348    350     1  0.0000000  1.6038667  3
    168    167    376    348     1  0.0000000  1.6038667  3
    169    167    376    348     1  0.0000000  1.6038667  3
    170    405    377    378     1  0.0000000  1.6038667  3
    170    405    377    379     1  0.0000000  1.6038667  3
    171    170    405    377     1  0.0000000  1.6038667  3
    172    170    405    377     1  0.0000000  1.6038667  3
    174    175    187    188     1  0.0000000  0.6508444  3
    174    175    187    189     1  0.0000000  0.6508444  3
    174    178    190    191     1  0.0000000  0.6508444  3
    174    178    190    192     1  0.0000000  0.6508444  3
    174    181    184    185     1  0.0000000  0.6508444  3
    174    181    184    186     1  0.0000000  0.6508444  3
    175    174    178    179     1  0.0000000  1.2552000  3
    175    174    178    180     1  0.0000000  1.2552000  3
    175    174    181    182     1  0.0000000  1.2552000  3
    175    174    181    183     1  0.0000000  1.2552000  3
    175    187    199    200     1  0.0000000  0.6508444  3
    175    187    199    201     1  0.0000000  0.6508444  3
    176    175    174    178     1  0.0000000  1.2552000  3
    176    175    174    181     1  0.0000000  1.2552000  3
    176    175    187    199     1  0.0000000  0.6508444  3
    176    175    187    188     1  0.0000000  0.6508444  3
    176    175    187    189     1  0.0000000  0.6508444  3
    177    175    174    178     1  0.0000000  1.2552000  3
    177    175    174    181     1  0.0000000  1.2552000  3
    177    175    187    199     1  0.0000000  0.6508444  3
    177    175    187    188     1  0.0000000  0.6508444  3
    177    175    187    189     1  0.0000000  0.6508444  3
    178    174    181    182     1  0.0000000  1.2552000  3
    178    174    181    183     1  0.0000000  1.2552000  3
    178    190    196    197     1  0.0000000  0.6508444  3
    178    190    196    198     1  0.0000000  0.6508444  3
    179    178    174    181     1  0.0000000  1.2552000  3
    179    178    190    196     1  0.0000000  0.6508444  3
    179    178    190    191     1  0.0000000  0.6508444  3
    179    178    190    192     1  0.0000000  0.6508444  3
    180    178    174    181     1  0.0000000  1.2552000  3
    180    178    190    196     1  0.0000000  0.6508444  3
    180    178    190    191     1  0.0000000  0.6508444  3
    180    178    190    192     1  0.0000000  0.6508444  3
    181    184    193    194     1  0.0000000  0.6508444  3
    181    184    193    195     1  0.0000000  0.6508444  3
    182    181    184    193     1  0.0000000  0.6508444  3
    182    181    184    185     1  0.0000000  0.6508444  3
    182    181    184    186     1  0.0000000  0.6508444  3
    183    181    184    193     1  0.0000000  0.6508444  3
    183    181    184    185     1  0.0000000  0.6508444  3
    183    181    184    186     1  0.0000000  0.6508444  3
    185    184    193    202     1  0.0000000  1.0460000  1
    185    184    193    202     1  0.0000000  0.0000000  3
    185    184    193    194     1  0.0000000  0.6508444  3
    185    184    193    195     1  0.0000000  0.6508444  3
    186    184    193    202     1  0.0000000  1.0460000  1
    186    184    193    202     1  0.0000000  0.0000000  3
    186    184    193    194     1  0.0000000  0.6508444  3
    186    184    193    195     1  0.0000000  0.6508444  3
    188    187    199    463     1  0.0000000  1.0460000  1
    188    187    199    463     1  0.0000000  0.0000000  3
    188    187    199    200     1  0.0000000  0.6508444  3
    188    187    199    201     1  0.0000000  0.6508444  3
    189    187    199    463     1  0.0000000  1.0460000  1
    189    187    199    463     1  0.0000000  0.0000000  3
    189    187    199    200     1  0.0000000  0.6508444  3
    189    187    199    201     1  0.0000000  0.6508444  3
    191    190    196    434     1  0.0000000  1.0460000  1
    191    190    196    434     1  0.0000000  0.0000000  3
    191    190    196    197     1  0.0000000  0.6508444  3
    191    190    196    198     1  0.0000000  0.6508444  3
    192    190    196    434     1  0.0000000  1.0460000  1
    192    190    196    434     1  0.0000000  0.0000000  3
    192    190    196    197     1  0.0000000  0.6508444  3
    192    190    196    198     1  0.0000000  0.6508444  3
    196    434    406    407     1  0.0000000  1.6038667  3
    196    434    406    408     1  0.0000000  1.6038667  3
    197    196    434    406     1  0.0000000  1.6038667  3
    198    196    434    406     1  0.0000000  1.6038667  3
    199    463    435    436     1  0.0000000  1.6038667  3
    199    463    435    437     1  0.0000000  1.6038667  3
    200    199    463    435     1  0.0000000  1.6038667  3
    201    199    463    435     1  0.0000000  1.6038667  3
    203    204    216    217     1  0.0000000  0.6508444  3
    203    204    216    218     1  0.0000000  0.6508444  3
    203    207    219    220     1  0.0000000  0.6508444  3
    203    207    219    221     1  0.0000000  0.6508444  3
    203    210    213    214     1  0.0000000  0.6508444  3
    203    210    213    215     1  0.0000000  0.6508444  3
    204    203    207    208     1  0.0000000  1.2552000  3
    204    203    207    209     1  0.0000000  1.2552000  3
    204    203    210    211     1  0.0000000  1.2552000  3
    204    203    210    212     1  0.0000000  1.2552000  3
    204    216    228    229     1  0.0000000  0.6508444  3
    204    216    228    230     1  0.0000000  0.6508444  3
    205    204    203    207     1  0.0000000  1.2552000  3
    205    204    203    210     1  0.0000000  1.2552000  3
    205    204    216    228     1  0.0000000  0.6508444  3
    205    204    216    217     1  0.0000000  0.6508444  3
    205    204    216    218     1  0.0000000  0.6508444  3
    206    204    203    207     1  0.0000000  1.2552000  3
    206    204    203    210     1  0.0000000  1.2552000  3
    206    204    216    228     1  0.0000000  0.6508444  3
    206    204    216    217     1  0.0000000  0.6508444  3
    206    204    216    218     1  0.0000000  0.6508444  3
    207    203    210    211     1  0.0000000  1.2552000  3
    207    203    210    212     1  0.0000000  1.2552000  3
    207    219    225    226     1  0.0000000  0.6508444  3
    207    219    225    227     1  0.0000000  0.6508444  3
    208    207    203    210     1  0.0000000  1.2552000  3
    208    207    219    225     1  0.0000000  0.6508444  3
    208    207    219    220     1  0.0000000  0.6508444  3
    208    207    219    221     1  0.0000000  0.6508444  3
    209    207    203    210     1  0.0000000  1.2552000  3
    209    207    219    225     1  0.0000000  0.6508444  3
    209    207    219    220     1  0.0000000  0.6508444  3
    209    207    219    221     1  0.0000000  0.6508444  3
    210    213    222    223     1  0.0000000  0.6508444  3
    210    213    222    224     1  0.0000000  0.6508444  3
    211    210    213    222     1  0.0000000  0.6508444  3
    211    210    213    214     1  0.0000000  0.6508444  3
    211    210    213    215     1  0.0000000  0.6508444  3
    212    210    213    222     1  0.0000000  0.6508444  3
    212    210    213    214     1  0.0000000  0.6508444  3
    212    210    213    215     1  0.0000000  0.6508444  3
    214    213    222    231     1  0.0000000  1.0460000  1
    214    213    222    231     1  0.0000000  0.0000000  3
    214    213    222    223     1  0.0000000  0.6508444  3
    214    213    222    224     1  0.0000000  0.6508444  3
    215    213    222    231     1  0.0000000  1.0460000  1
    215    213    222    231     1  0.0000000  0.0000000  3
    215    213    222    223     1  0.0000000  0.6508444  3
    215    213    222    224     1  0.0000000  0.6508444  3
    217    216    228    521     1  0.0000000  1.0460000  1
    217    216    228    521     1  0.0000000  0.0000000  3
    217    216    228    229     1  0.0000000  0.6508444  3
    217    216    228    230     1  0.0000000  0.6508444  3
    218    216    228    521     1  0.0000000  1.0460000  1
    218    216    228    521     1  0.0000000  0.0000000  3
    218    216    228    229     1  0.0000000  0.6508444  3
    218    216    228    230     1  0.0000000  0.6508444  3
    220    219    225    492     1  0.0000000  1.0460000  1
    220    219    225    492     1  0.0000000  0.0000000  3
    220    219    225    226     1  0.0000000  0.6508444  3
    220    219    225    227     1  0.0000000  0.6508444  3
    221    219    225    492     1  0.0000000  1.0460000  1
    221    219    225    492     1  0.0000000  0.0000000  3
    221    219    225    226     1  0.0000000  0.6508444  3
    221    219    225    227     1  0.0000000  0.6508444  3
    225    492    464    465     1  0.0000000  1.6038667  3
    225    492    464    466     1  0.0000000  1.6038667  3
    226    225    492    464     1  0.0000000  1.6038667  3
    227    225    492    464     1  0.0000000  1.6038667  3
    228    521    493    494     1  0.0000000  1.6038667  3
    228    521    493    495     1  0.0000000  1.6038667  3
    229    228    521    493     1  0.0000000  1.6038667  3
    230    228    521    493     1  0.0000000  1.6038667  3
    232    233    245    246     1  0.0000000  0.6508444  3
    232    233    245    247     1  0.0000000  0.6508444  3
    232    236    248    249     1  0.0000000  0.6508444  3
    232    236    248    250     1  0.0000000  0.6508444  3
    232    239    242    243     1  0.0000000  0.6508444  3
    232    239    242    244     1  0.0000000  0.6508444  3
    233    232    236    237     1  0.0000000  1.2552000  3
    233    232    236    238     1  0.0000000  1.2552000  3
    233    232    239    240     1  0.0000000  1.2552000  3
    233    232    239    241     1  0.0000000  1.2552000  3
    233    245    257    258     1  0.0000000  0.6508444  3
    233    245    257    259     1  0.0000000  0.6508444  3
    234    233    232    236     1  0.0000000  1.2552000  3
    234    233    232    239     1  0.0000000  1.2552000  3
    234    233    245    257     1  0.0000000  0.6508444  3
    234    233    245    246     1  0.0000000  0.6508444  3
    234    233    245    247     1  0.0000000  0.6508444  3
    235    233    232    236     1  0.0000000  1.2552000  3
    235    233    232    239     1  0.0000000  1.2552000  3
    235    233    245    257     1  0.0000000  0.6508444  3
    235    233    245    246     1  0.0000000  0.6508444  3
    235    233    245    247     1  0.0000000  0.6508444  3
    236    232    239    240     1  0.0000000  1.2552000  3
    236    232    239    241     1  0.0000000  1.2552000  3
    236    248    254    255     1  0.0000000  0.6508444  3
    236    248    254    256     1  0.0000000  0.6508444  3
    237    236    232    239     1  0.0000000  1.2552000  3
    237    236    248    254     1  0.0000000  0.6508444  3
    237    236    248    249     1  0.0000000  0.6508444  3
    237    236    248    250     1  0.0000000  0.6508444  3
    238    236    232    239     1  0.0000000  1.2552000  3
    238    236    248    254     1  0.0000000  0.6508444  3
    238    236    248    249     1  0.0000000  0.6508444  3
    238    236    248    250     1  0.0000000  0.6508444  3
    239    242    251    252     1  0.0000000  0.6508444  3
    239    242    251    253     1  0.0000000  0.6508444  3
    240    239    242    251     1  0.0000000  0.6508444  3
    240    239    242    243     1  0.0000000  0.6508444  3
    240    239    242    244     1  0.0000000  0.6508444  3
    241    239    242    251     1  0.0000000  0.6508444  3
    241    239    242    243     1  0.0000000  0.6508444  3
    241    239    242    244     1  0.0000000  0.6508444  3
    243    242    251    260     1  0.0000000  1.0460000  1
    243    242    251    260     1  0.0000000  0.0000000  3
    243    242    251    252     1  0.0000000  0.6508444  3
    243    242    251    253     1  0.0000000  0.6508444  3
    244    242    251    260     1  0.0000000  1.0460000  1
    244    242    251    260     1  0.0000000  0.0000000  3
    244    242    251    252     1  0.0000000  0.6508444  3
    244    242    251    253     1  0.0000000  0.6508444  3
    246    245    257    579     1  0.0000000  1.0460000  1
    246    245    257    579     1  0.0000000  0.0000000  3
    246    245    257    258     1  0.0000000  0.6508444  3
    246    245    257    259     1  0.0000000  0.6508444  3
    247    245    257    579     1  0.0000000  1.0460000  1
    247    245    257    579     1  0.0000000  0.0000000  3
    247    245    257    258     1  0.0000000  0.6508444  3
    247    245    257    259     1  0.0000000  0.6508444  3
    249    248    254    550     1  0.0000000  1.0460000  1
    249    248    254    550     1  0.0000000  0.0000000  3
    249    248    254    255     1  0.0000000  0.6508444  3
    249    248    254    256     1  0.0000000  0.6508444  3
    250    248    254    550     1  0.0000000  1.0460000  1
    250    248    254    550     1  0.0000000  0.0000000  3
    250    248    254    255     1  0.0000000  0.6508444  3
    250    248    254    256     1  0.0000000  0.6508444  3
    254    550    522    523     1  0.0000000  1.6038667  3
    254    550    522    524     1  0.0000000  1.6038667  3
    255    254    550    522     1  0.0000000  1.6038667  3
    256    254    550    522     1  0.0000000  1.6038667  3
    257    579    551    552     1  0.0000000  1.6038667  3
    257    579    551    553     1  0.0000000  1.6038667  3
    258    257    579    551     1  0.0000000  1.6038667  3
    259    257    579    551     1  0.0000000  1.6038667  3
    261    262    274    275     1  0.0000000  0.6508444  3
    261    262    274    276     1  0.0000000  0.6508444  3
    261    265    277    278     1  0.0000000  0.6508444  3
    261    265    277    279     1  0.0000000  0.6508444  3
    261    268    271    272     1  0.0000000  0.6508444  3
    261    268    271    273     1  0.0000000  0.6508444  3
    262    261    265    266     1  0.0000000  1.2552000  3
    262    261    265    267     1  0.0000000  1.2552000  3
    262    261    268    269     1  0.0000000  1.2552000  3
    262    261    268    270     1  0.0000000  1.2552000  3
    262    274    286    287     1  0.0000000  0.6508444  3
    262    274    286    288     1  0.0000000  0.6508444  3
    263    262    261    265     1  0.0000000  1.2552000  3
    263    262    261    268     1  0.0000000  1.2552000  3
    263    262    274    286     1  0.0000000  0.6508444  3
    263    262    274    275     1  0.0000000  0.6508444  3
    263    262    274    276     1  0.0000000  0.6508444  3
    264    262    261    265     1  0.0000000  1.2552000  3
    264    262    261    268     1  0.0000000  1.2552000  3
    264    262    274    286     1  0.0000000  0.6508444  3
    264    262    274    275     1  0.0000000  0.6508444  3
    264    262    274    276     1  0.0000000  0.6508444  3
    265    261    268    269     1  0.0000000  1.2552000  3
    265    261    268    270     1  0.0000000  1.2552000  3
    265    277    283    284     1  0.0000000  0.6508444  3
    265    277    283    285     1  0.0000000  0.6508444  3
    266    265    261    268     1  0.0000000  1.2552000  3
    266    265    277    283     1  0.0000000  0.6508444  3
    266    265    277    278     1  0.0000000  0.6508444  3
    266    265    277    279     1  0.0000000  0.6508444  3
    267    265    261    268     1  0.0000000  1.2552000  3
    267    265    277    283     1  0.0000000  0.6508444  3
    267    265    277    278     1  0.0000000  0.6508444  3
    267    265    277    279     1  0.0000000  0.6508444  3
    268    271    280    281     1  0.0000000  0.6508444  3
    268    271    280    282     1  0.0000000  0.6508444  3
    269    268    271    280     1  0.0000000  0.6508444  3
    269    268    271    272     1  0.0000000  0.6508444  3
    269    268    271    273     1  0.0000000  0.6508444  3
    270    268    271    280     1  0.0000000  0.6508444  3
    270    268    271    272     1  0.0000000  0.6508444  3
    270    268    271    273     1  0.0000000  0.6508444  3
    272    271    280    289     1  0.0000000  1.0460000  1
    272    271    280    289     1  0.0000000  0.0000000  3
    272    271    280    281     1  0.0000000  0.6508444  3
    272    271    280    282     1  0.0000000  0.6508444  3
    273    271    280    289     1  0.0000000  1.0460000  1
    273    271    280    289     1  0.0000000  0.0000000  3
    273    271    280    281     1  0.0000000  0.6508444  3
    273    271    280    282     1  0.0000000  0.6508444  3
    275    274    286    637     1  0.0000000  1.0460000  1
    275    274    286    637     1  0.0000000  0.0000000  3
    275    274    286    287     1  0.0000000  0.6508444  3
    275    274    286    288     1  0.0000000  0.6508444  3
    276    274    286    637     1  0.0000000  1.0460000  1
    276    274    286    637     1  0.0000000  0.0000000  3
    276    274    286    287     1  0.0000000  0.6508444  3
    276    274    286    288     1  0.0000000  0.6508444  3
    278    277    283    608     1  0.0000000  1.0460000  1
    278    277    283    608     1  0.0000000  0.0000000  3
    278    277    283    284     1  0.0000000  0.6508444  3
    278    277    283    285     1  0.0000000  0.6508444  3
    279    277    283    608     1  0.0000000  1.0460000  1
    279    277    283    608     1  0.0000000  0.0000000  3
    279    277    283    284     1  0.0000000  0.6508444  3
    279    277    283    285     1  0.0000000  0.6508444  3
    283    608    580    581     1  0.0000000  1.6038667  3
    283    608    580    582     1  0.0000000  1.6038667  3
    284    283    608    580     1  0.0000000  1.6038667  3
    285    283    608    580     1  0.0000000  1.6038667  3
    286    637    609    610     1  0.0000000  1.6038667  3
    286    637    609    611     1  0.0000000  1.6038667  3
    287    286    637    609     1  0.0000000  1.6038667  3
    288    286    637    609     1  0.0000000  1.6038667  3
    290    293    296    297     1  0.0000000  0.6508444  3
    290    293    296    298     1  0.0000000  0.6508444  3
    291    290    293    296     1  0.0000000  0.6508444  3
    291    290    293    294     1  0.0000000  0.6508444  3
    291    290    293    295     1  0.0000000  0.6508444  3
    292    290    293    296     1  0.0000000  0.6508444  3
    292    290    293    294     1  0.0000000  0.6508444  3
    292    290    293    295     1  0.0000000  0.6508444  3
    294    293    290    318     1  0.0000000  1.0460000  1
    294    293    290    318     1  0.0000000  0.0000000  3
    294    293    296    299     1  0.0000000  0.6508444  3
    294    293    296    297     1  0.0000000  0.6508444  3
    294    293    296    298     1  0.0000000  0.6508444  3
    295    293    290    318     1  0.0000000  1.0460000  1
    295    293    290    318     1  0.0000000  0.0000000  3
    295    293    296    299     1  0.0000000  0.6508444  3
    295    293    296    297     1  0.0000000  0.6508444  3
    295    293    296    298     1  0.0000000  0.6508444  3
    296    299    300    301     1  0.0000000  1.2552000  3
    296    299    300    302     1  0.0000000  1.2552000  3
    296    299    309    310     1  0.0000000  1.2552000  3
    296    299    309    311     1  0.0000000  1.2552000  3
    297    296    299    300     1  0.0000000  1.2552000  3
    297    296    299    309     1  0.0000000  1.2552000  3
    298    296    299    300     1  0.0000000  1.2552000  3
    298    296    299    309     1  0.0000000  1.2552000  3
    299    300    303    304     1  0.0000000  0.6508444  3
    299    300    303    305     1  0.0000000  0.6508444  3
    299    309    312    313     1  0.0000000  0.6508444  3
    299    309    312    314     1  0.0000000  0.6508444  3
    300    299    309    310     1  0.0000000  1.2552000  3
    300    299    309    311     1  0.0000000  1.2552000  3
    301    300    299    309     1  0.0000000  1.2552000  3
    301    300    303    306     1  0.0000000  0.6508444  3
    301    300    303    304     1  0.0000000  0.6508444  3
    301    300    303    305     1  0.0000000  0.6508444  3
    302    300    299    309     1  0.0000000  1.2552000  3
    302    300    303    306     1  0.0000000  0.6508444  3
    302    300    303    304     1  0.0000000  0.6508444  3
    302    300    303    305     1  0.0000000  0.6508444  3
    304    303    306    307     1  0.0000000  3.3472000  1
    304    303    306    307     1  0.0000000  0.0000000  2
    304    303    306    307     1  180.0000771  0.3347200  3
    304    303    306    308     1  0.0000000  3.3472000  1
    304    303    306    308     1  0.0000000  0.0000000  2
    304    303    306    308     1  180.0000771  0.3347200  3
    305    303    306    307     1  0.0000000  3.3472000  1
    305    303    306    307     1  0.0000000  0.0000000  2
    305    303    306    307     1  180.0000771  0.3347200  3
    305    303    306    308     1  0.0000000  3.3472000  1
    305    303    306    308     1  0.0000000  0.0000000  2
    305    303    306    308     1  180.0000771  0.3347200  3
    310    309    312    315     1  0.0000000  0.6508444  3
    310    309    312    313     1  0.0000000  0.6508444  3
    310    309    312    314     1  0.0000000  0.6508444  3
    311    309    312    315     1  0.0000000  0.6508444  3
    311    309    312    313     1  0.0000000  0.6508444  3
    311    309    312    314     1  0.0000000  0.6508444  3
    313    312    315    316     1  0.0000000  3.3472000  1
    313    312    315    316     1  0.0000000  0.0000000  2
    313    312    315    316     1  180.0000771  0.3347200  3
    313    312    315    317     1  0.0000000  3.3472000  1
    313    312    315    317     1  0.0000000  0.0000000  2
    313    312    315    317     1  180.0000771  0.3347200  3
    314    312    315    316     1  0.0000000  3.3472000  1
    314    312    315    316     1  0.0000000  0.0000000  2
    314    312    315    316     1  180.0000771  0.3347200  3
    314    312    315    317     1  0.0000000  3.3472000  1
    314    312    315    317     1  0.0000000  0.0000000  2
    314    312    315    317     1  180.0000771  0.3347200  3
    319    322    325    326     1  0.0000000  0.6508444  3
    319    322    325    327     1  0.0000000  0.6508444  3
    320    319    322    325     1  0.0000000  0.6508444  3
    320    319    322    323     1  0.0000000  0.6508444  3
    320    319    322    324     1  0.0000000  0.6508444  3
    321    319    322    325     1  0.0000000  0.6508444  3
    321    319    322    323     1  0.0000000  0.6508444  3
    321    319    322    324     1  0.0000000  0.6508444  3
    323    322    325    328     1  0.0000000  0.6508444  3
    323    322    325    326     1  0.0000000  0.6508444  3
    323    322    325    327     1  0.0000000  0.6508444  3
    323    322    319    347     1  0.0000000  1.0460000  1
    323    322    319    347     1  0.0000000  0.0000000  3
    324    322    325    328     1  0.0000000  0.6508444  3
    324    322    325    326     1  0.0000000  0.6508444  3
    324    322    325    327     1  0.0000000  0.6508444  3
    324    322    319    347     1  0.0000000  1.0460000  1
    324    322    319    347     1  0.0000000  0.0000000  3
    325    328    329    330     1  0.0000000  1.2552000  3
    325    328    329    331     1  0.0000000  1.2552000  3
    325    328    338    339     1  0.0000000  1.2552000  3
    325    328    338    340     1  0.0000000  1.2552000  3
    326    325    328    329     1  0.0000000  1.2552000  3
    326    325    328    338     1  0.0000000  1.2552000  3
    327    325    328    329     1  0.0000000  1.2552000  3
    327    325    328    338     1  0.0000000  1.2552000  3
    328    329    332    333     1  0.0000000  0.6508444  3
    328    329    332    334     1  0.0000000  0.6508444  3
    328    338    341    342     1  0.0000000  0.6508444  3
    328    338    341    343     1  0.0000000  0.6508444  3
    329    328    338    339     1  0.0000000  1.2552000  3
    329    328    338    340     1  0.0000000  1.2552000  3
    330    329    332    335     1  0.0000000  0.6508444  3
    330    329    332    333     1  0.0000000  0.6508444  3
    330    329    332    334     1  0.0000000  0.6508444  3
    330    329    328    338     1  0.0000000  1.2552000  3
    331    329    332    335     1  0.0000000  0.6508444  3
    331    329    332    333     1  0.0000000  0.6508444  3
    331    329    332    334     1  0.0000000  0.6508444  3
    331    329    328    338     1  0.0000000  1.2552000  3
    333    332    335    336     1  0.0000000  3.3472000  1
    333    332    335    336     1  0.0000000  0.0000000  2
    333    332    335    336     1  180.0000771  0.3347200  3
    333    332    335    337     1  0.0000000  3.3472000  1
    333    332    335    337     1  0.0000000  0.0000000  2
    333    332    335    337     1  180.0000771  0.3347200  3
    334    332    335    336     1  0.0000000  3.3472000  1
    334    332    335    336     1  0.0000000  0.0000000  2
    334    332    335    336     1  180.0000771  0.3347200  3
    334    332    335    337     1  0.0000000  3.3472000  1
    334    332    335    337     1  0.0000000  0.0000000  2
    334    332    335    337     1  180.0000771  0.3347200  3
    339    338    341    344     1  0.0000000  0.6508444  3
    339    338    341    342     1  0.0000000  0.6508444  3
    339    338    341    343     1  0.0000000  0.6508444  3
    340    338    341    344     1  0.0000000  0.6508444  3
    340    338    341    342     1  0.0000000  0.6508444  3
    340    338    341    343     1  0.0000000  0.6508444  3
    342    341    344    345     1  0.0000000  3.3472000  1
    342    341    344    345     1  0.0000000  0.0000000  2
    342    341    344    345     1  180.0000771  0.3347200  3
    342    341    344    346     1  0.0000000  3.3472000  1
    342    341    344    346     1  0.0000000  0.0000000  2
    342    341    344    346     1  180.0000771  0.3347200  3
    343    341    344    345     1  0.0000000  3.3472000  1
    343    341    344    345     1  0.0000000  0.0000000  2
    343    341    344    345     1  180.0000771  0.3347200  3
    343    341    344    346     1  0.0000000  3.3472000  1
    343    341    344    346     1  0.0000000  0.0000000  2
    343    341    344    346     1  180.0000771  0.3347200  3
    348    351    354    355     1  0.0000000  0.6508444  3
    348    351    354    356     1  0.0000000  0.6508444  3
    349    348    351    354     1  0.0000000  0.6508444  3
    349    348    351    352     1  0.0000000  0.6508444  3
    349    348    351    353     1  0.0000000  0.6508444  3
    350    348    351    354     1  0.0000000  0.6508444  3
    350    348    351    352     1  0.0000000  0.6508444  3
    350    348    351    353     1  0.0000000  0.6508444  3
    352    351    348    376     1  0.0000000  1.0460000  1
    352    351    348    376     1  0.0000000  0.0000000  3
    352    351    354    357     1  0.0000000  0.6508444  3
    352    351    354    355     1  0.0000000  0.6508444  3
    352    351    354    356     1  0.0000000  0.6508444  3
    353    351    348    376     1  0.0000000  1.0460000  1
    353    351    348    376     1  0.0000000  0.0000000  3
    353    351    354    357     1  0.0000000  0.6508444  3
    353    351    354    355     1  0.0000000  0.6508444  3
    353    351    354    356     1  0.0000000  0.6508444  3
    354    357    358    359     1  0.0000000  1.2552000  3
    354    357    358    360     1  0.0000000  1.2552000  3
    354    357    367    368     1  0.0000000  1.2552000  3
    354    357    367    369     1  0.0000000  1.2552000  3
    355    354    357    358     1  0.0000000  1.2552000  3
    355    354    357    367     1  0.0000000  1.2552000  3
    356    354    357    358     1  0.0000000  1.2552000  3
    356    354    357    367     1  0.0000000  1.2552000  3
    357    358    361    362     1  0.0000000  0.6508444  3
    357    358    361    363     1  0.0000000  0.6508444  3
    357    367    370    371     1  0.0000000  0.6508444  3
    357    367    370    372     1  0.0000000  0.6508444  3
    358    357    367    368     1  0.0000000  1.2552000  3
    358    357    367    369     1  0.0000000  1.2552000  3
    359    358    357    367     1  0.0000000  1.2552000  3
    359    358    361    364     1  0.0000000  0.6508444  3
    359    358    361    362     1  0.0000000  0.6508444  3
    359    358    361    363     1  0.0000000  0.6508444  3
    360    358    357    367     1  0.0000000  1.2552000  3
    360    358    361    364     1  0.0000000  0.6508444  3
    360    358    361    362     1  0.0000000  0.6508444  3
    360    358    361    363     1  0.0000000  0.6508444  3
    362    361    364    365     1  0.0000000  3.3472000  1
    362    361    364    365     1  0.0000000  0.0000000  2
    362    361    364    365     1  180.0000771  0.3347200  3
    362    361    364    366     1  0.0000000  3.3472000  1
    362    361    364    366     1  0.0000000  0.0000000  2
    362    361    364    366     1  180.0000771  0.3347200  3
    363    361    364    365     1  0.0000000  3.3472000  1
    363    361    364    365     1  0.0000000  0.0000000  2
    363    361    364    365     1  180.0000771  0.3347200  3
    363    361    364    366     1  0.0000000  3.3472000  1
    363    361    364    366     1  0.0000000  0.0000000  2
    363    361    364    366     1  180.0000771  0.3347200  3
    368    367    370    373     1  0.0000000  0.6508444  3
    368    367    370    371     1  0.0000000  0.6508444  3
    368    367    370    372     1  0.0000000  0.6508444  3
    369    367    370    373     1  0.0000000  0.6508444  3
    369    367    370    371     1  0.0000000  0.6508444  3
    369    367    370    372     1  0.0000000  0.6508444  3
    371    370    373    374     1  0.0000000  3.3472000  1
    371    370    373    374     1  0.0000000  0.0000000  2
    371    370    373    374     1  180.0000771  0.3347200  3
    371    370    373    375     1  0.0000000  3.3472000  1
    371    370    373    375     1  0.0000000  0.0000000  2
    371    370    373    375     1  180.0000771  0.3347200  3
    372    370    373    374     1  0.0000000  3.3472000  1
    372    370    373    374     1  0.0000000  0.0000000  2
    372    370    373    374     1  180.0000771  0.3347200  3
    372    370    373    375     1  0.0000000  3.3472000  1
    372    370    373    375     1  0.0000000  0.0000000  2
    372    370    373    375     1  180.0000771  0.3347200  3
    377    380    383    384     1  0.0000000  0.6508444  3
    377    380    383    385     1  0.0000000  0.6508444  3
    378    377    380    383     1  0.0000000  0.6508444  3
    378    377    380    381     1  0.0000000  0.6508444  3
    378    377    380    382     1  0.0000000  0.6508444  3
    379    377    380    383     1  0.0000000  0.6508444  3
    379    377    380    381     1  0.0000000  0.6508444  3
    379    377    380    382     1  0.0000000  0.6508444  3
    381    380    383    386     1  0.0000000  0.6508444  3
    381    380    383    384     1  0.0000000  0.6508444  3
    381    380    383    385     1  0.0000000  0.6508444  3
    381    380    377    405     1  0.0000000  1.0460000  1
    381    380    377    405     1  0.0000000  0.0000000  3
    382    380    383    386     1  0.0000000  0.6508444  3
    382    380    383    384     1  0.0000000  0.6508444  3
    382    380    383    385     1  0.0000000  0.6508444  3
    382    380    377    405     1  0.0000000  1.0460000  1
    382    380    377    405     1  0.0000000  0.0000000  3
    383    386    387    388     1  0.0000000  1.2552000  3
    383    386    387    389     1  0.0000000  1.2552000  3
    383    386    396    397     1  0.0000000  1.2552000  3
    383    386    396    398     1  0.0000000  1.2552000  3
    384    383    386    387     1  0.0000000  1.2552000  3
    384    383    386    396     1  0.0000000  1.2552000  3
    385    383    386    387     1  0.0000000  1.2552000  3
    385    383    386    396     1  0.0000000  1.2552000  3
    386    387    390    391     1  0.0000000  0.6508444  3
    386    387    390    392     1  0.0000000  0.6508444  3
    386    396    399    400     1  0.0000000  0.6508444  3
    386    396    399    401     1  0.0000000  0.6508444  3
    387    386    396    397     1  0.0000000  1.2552000  3
    387    386    396    398     1  0.0000000  1.2552000  3
    388    387    390    393     1  0.0000000  0.6508444  3
    388    387    390    391     1  0.0000000  0.6508444  3
    388    387    390    392     1  0.0000000  0.6508444  3
    388    387    386    396     1  0.0000000  1.2552000  3
    389    387    390    393     1  0.0000000  0.6508444  3
    389    387    390    391     1  0.0000000  0.6508444  3
    389    387    390    392     1  0.0000000  0.6508444  3
    389    387    386    396     1  0.0000000  1.2552000  3
    391    390    393    394     1  0.0000000  3.3472000  1
    391    390    393    394     1  0.0000000  0.0000000  2
    391    390    393    394     1  180.0000771  0.3347200  3
    391    390    393    395     1  0.0000000  3.3472000  1
    391    390    393    395     1  0.0000000  0.0000000  2
    391    390    393    395     1  180.0000771  0.3347200  3
    392    390    393    394     1  0.0000000  3.3472000  1
    392    390    393    394     1  0.0000000  0.0000000  2
    392    390    393    394     1  180.0000771  0.3347200  3
    392    390    393    395     1  0.0000000  3.3472000  1
    392    390    393    395     1  0.0000000  0.0000000  2
    392    390    393    395     1  180.0000771  0.3347200  3
    397    396    399    402     1  0.0000000  0.6508444  3
    397    396    399    400     1  0.0000000  0.6508444  3
    397    396    399    401     1  0.0000000  0.6508444  3
    398    396    399    402     1  0.0000000  0.6508444  3
    398    396    399    400     1  0.0000000  0.6508444  3
    398    396    399    401     1  0.0000000  0.6508444  3
    400    399    402    403     1  0.0000000  3.3472000  1
    400    399    402    403     1  0.0000000  0.0000000  2
    400    399    402    403     1  180.0000771  0.3347200  3
    400    399    402    404     1  0.0000000  3.3472000  1
    400    399    402    404     1  0.0000000  0.0000000  2
    400    399    402    404     1  180.0000771  0.3347200  3
    401    399    402    403     1  0.0000000  3.3472000  1
    401    399    402    403     1  0.0000000  0.0000000  2
    401    399    402    403     1  180.0000771  0.3347200  3
    401    399    402    404     1  0.0000000  3.3472000  1
    401    399    402    404     1  0.0000000  0.0000000  2
    401    399    402    404     1  180.0000771  0.3347200  3
    406    409    412    413     1  0.0000000  0.6508444  3
    406    409    412    414     1  0.0000000  0.6508444  3
    407    406    409    412     1  0.0000000  0.6508444  3
    407    406    409    410     1  0.0000000  0.6508444  3
    407    406    409    411     1  0.0000000  0.6508444  3
    408    406    409    412     1  0.0000000  0.6508444  3
    408    406    409    410     1  0.0000000  0.6508444  3
    408    406    409    411     1  0.0000000  0.6508444  3
    410    409    406    434     1  0.0000000  1.0460000  1
    410    409    406    434     1  0.0000000  0.0000000  3
    410    409    412    415     1  0.0000000  0.6508444  3
    410    409    412    413     1  0.0000000  0.6508444  3
    410    409    412    414     1  0.0000000  0.6508444  3
    411    409    406    434     1  0.0000000  1.0460000  1
    411    409    406    434     1  0.0000000  0.0000000  3
    411    409    412    415     1  0.0000000  0.6508444  3
    411    409    412    413     1  0.0000000  0.6508444  3
    411    409    412    414     1  0.0000000  0.6508444  3
    412    415    416    417     1  0.0000000  1.2552000  3
    412    415    416    418     1  0.0000000  1.2552000  3
    412    415    425    426     1  0.0000000  1.2552000  3
    412    415    425    427     1  0.0000000  1.2552000  3
    413    412    415    416     1  0.0000000  1.2552000  3
    413    412    415    425     1  0.0000000  1.2552000  3
    414    412    415    416     1  0.0000000  1.2552000  3
    414    412    415    425     1  0.0000000  1.2552000  3
    415    416    419    420     1  0.0000000  0.6508444  3
    415    416    419    421     1  0.0000000  0.6508444  3
    415    425    428    429     1  0.0000000  0.6508444  3
    415    425    428    430     1  0.0000000  0.6508444  3
    416    415    425    426     1  0.0000000  1.2552000  3
    416    415    425    427     1  0.0000000  1.2552000  3
    417    416    415    425     1  0.0000000  1.2552000  3
    417    416    419    422     1  0.0000000  0.6508444  3
    417    416    419    420     1  0.0000000  0.6508444  3
    417    416    419    421     1  0.0000000  0.6508444  3
    418    416    415    425     1  0.0000000  1.2552000  3
    418    416    419    422     1  0.0000000  0.6508444  3
    418    416    419    420     1  0.0000000  0.6508444  3
    418    416    419    421     1  0.0000000  0.6508444  3
    420    419    422    423     1  0.0000000  3.3472000  1
    420    419    422    423     1  0.0000000  0.0000000  2
    420    419    422    423     1  180.0000771  0.3347200  3
    420    419    422    424     1  0.0000000  3.3472000  1
    420    419    422    424     1  0.0000000  0.0000000  2
    420    419    422    424     1  180.0000771  0.3347200  3
    421    419    422    423     1  0.0000000  3.3472000  1
    421    419    422    423     1  0.0000000  0.0000000  2
    421    419    422    423     1  180.0000771  0.3347200  3
    421    419    422    424     1  0.0000000  3.3472000  1
    421    419    422    424     1  0.0000000  0.0000000  2
    421    419    422    424     1  180.0000771  0.3347200  3
    426    425    428    431     1  0.0000000  0.6508444  3
    426    425    428    429     1  0.0000000  0.6508444  3
    426    425    428    430     1  0.0000000  0.6508444  3
    427    425    428    431     1  0.0000000  0.6508444  3
    427    425    428    429     1  0.0000000  0.6508444  3
    427    425    428    430     1  0.0000000  0.6508444  3
    429    428    431    432     1  0.0000000  3.3472000  1
    429    428    431    432     1  0.0000000  0.0000000  2
    429    428    431    432     1  180.0000771  0.3347200  3
    429    428    431    433     1  0.0000000  3.3472000  1
    429    428    431    433     1  0.0000000  0.0000000  2
    429    428    431    433     1  180.0000771  0.3347200  3
    430    428    431    432     1  0.0000000  3.3472000  1
    430    428    431    432     1  0.0000000  0.0000000  2
    430    428    431    432     1  180.0000771  0.3347200  3
    430    428    431    433     1  0.0000000  3.3472000  1
    430    428    431    433     1  0.0000000  0.0000000  2
    430    428    431    433     1  180.0000771  0.3347200  3
    435    438    441    442     1  0.0000000  0.6508444  3
    435    438    441    443     1  0.0000000  0.6508444  3
    436    435    438    441     1  0.0000000  0.6508444  3
    436    435    438    439     1  0.0000000  0.6508444  3
    436    435    438    440     1  0.0000000  0.6508444  3
    437    435    438    441     1  0.0000000  0.6508444  3
    437    435    438    439     1  0.0000000  0.6508444  3
    437    435    438    440     1  0.0000000  0.6508444  3
    439    438    441    444     1  0.0000000  0.6508444  3
    439    438    441    442     1  0.0000000  0.6508444  3
    439    438    441    443     1  0.0000000  0.6508444  3
    439    438    435    463     1  0.0000000  1.0460000  1
    439    438    435    463     1  0.0000000  0.0000000  3
    440    438    441    444     1  0.0000000  0.6508444  3
    440    438    441    442     1  0.0000000  0.6508444  3
    440    438    441    443     1  0.0000000  0.6508444  3
    440    438    435    463     1  0.0000000  1.0460000  1
    440    438    435    463     1  0.0000000  0.0000000  3
    441    444    445    446     1  0.0000000  1.2552000  3
    441    444    445    447     1  0.0000000  1.2552000  3
    441    444    454    455     1  0.0000000  1.2552000  3
    441    444    454    456     1  0.0000000  1.2552000  3
    442    441    444    445     1  0.0000000  1.2552000  3
    442    441    444    454     1  0.0000000  1.2552000  3
    443    441    444    445     1  0.0000000  1.2552000  3
    443    441    444    454     1  0.0000000  1.2552000  3
    444    445    448    449     1  0.0000000  0.6508444  3
    444    445    448    450     1  0.0000000  0.6508444  3
    444    454    457    458     1  0.0000000  0.6508444  3
    444    454    457    459     1  0.0000000  0.6508444  3
    445    444    454    455     1  0.0000000  1.2552000  3
    445    444    454    456     1  0.0000000  1.2552000  3
    446    445    448    451     1  0.0000000  0.6508444  3
    446    445    448    449     1  0.0000000  0.6508444  3
    446    445    448    450     1  0.0000000  0.6508444  3
    446    445    444    454     1  0.0000000  1.2552000  3
    447    445    448    451     1  0.0000000  0.6508444  3
    447    445    448    449     1  0.0000000  0.6508444  3
    447    445    448    450     1  0.0000000  0.6508444  3
    447    445    444    454     1  0.0000000  1.2552000  3
    449    448    451    452     1  0.0000000  3.3472000  1
    449    448    451    452     1  0.0000000  0.0000000  2
    449    448    451    452     1  180.0000771  0.3347200  3
    449    448    451    453     1  0.0000000  3.3472000  1
    449    448    451    453     1  0.0000000  0.0000000  2
    449    448    451    453     1  180.0000771  0.3347200  3
    450    448    451    452     1  0.0000000  3.3472000  1
    450    448    451    452     1  0.0000000  0.0000000  2
    450    448    451    452     1  180.0000771  0.3347200  3
    450    448    451    453     1  0.0000000  3.3472000  1
    450    448    451    453     1  0.0000000  0.0000000  2
    450    448    451    453     1  180.0000771  0.3347200  3
    455    454    457    460     1  0.0000000  0.6508444  3
    455    454    457    458     1  0.0000000  0.6508444  3
    455    454    457    459     1  0.0000000  0.6508444  3
    456    454    457    460     1  0.0000000  0.6508444  3
    456    454    457    458     1  0.0000000  0.6508444  3
    456    454    457    459     1  0.0000000  0.6508444  3
    458    457    460    461     1  0.0000000  3.3472000  1
    458    457    460    461     1  0.0000000  0.0000000  2
    458    457    460    461     1  180.0000771  0.3347200  3
    458    457    460    462     1  0.0000000  3.3472000  1
    458    457    460    462     1  0.0000000  0.0000000  2
    458    457    460    462     1  180.0000771  0.3347200  3
    459    457    460    461     1  0.0000000  3.3472000  1
    459    457    460    461     1  0.0000000  0.0000000  2
    459    457    460    461     1  180.0000771  0.3347200  3
    459    457    460    462     1  0.0000000  3.3472000  1
    459    457    460    462     1  0.0000000  0.0000000  2
    459    457    460    462     1  180.0000771  0.3347200  3
    464    467    470    471     1  0.0000000  0.6508444  3
    464    467    470    472     1  0.0000000  0.6508444  3
    465    464    467    470     1  0.0000000  0.6508444  3
    465    464    467    468     1  0.0000000  0.6508444  3
    465    464    467    469     1  0.0000000  0.6508444  3
    466    464    467    470     1  0.0000000  0.6508444  3
    466    464    467    468     1  0.0000000  0.6508444  3
    466    464    467    469     1  0.0000000  0.6508444  3
    468    467    464    492     1  0.0000000  1.0460000  1
    468    467    464    492     1  0.0000000  0.0000000  3
    468    467    470    473     1  0.0000000  0.6508444  3
    468    467    470    471     1  0.0000000  0.6508444  3
    468    467    470    472     1  0.0000000  0.6508444  3
    469    467    464    492     1  0.0000000  1.0460000  1
    469    467    464    492     1  0.0000000  0.0000000  3
    469    467    470    473     1  0.0000000  0.6508444  3
    469    467    470    471     1  0.0000000  0.6508444  3
    469    467    470    472     1  0.0000000  0.6508444  3
    470    473    474    475     1  0.0000000  1.2552000  3
    470    473    474    476     1  0.0000000  1.2552000  3
    470    473    483    484     1  0.0000000  1.2552000  3
    470    473    483    485     1  0.0000000  1.2552000  3
    471    470    473    474     1  0.0000000  1.2552000  3
    471    470    473    483     1  0.0000000  1.2552000  3
    472    470    473    474     1  0.0000000  1.2552000  3
    472    470    473    483     1  0.0000000  1.2552000  3
    473    474    477    478     1  0.0000000  0.6508444  3
    473    474    477    479     1  0.0000000  0.6508444  3
    473    483    486    487     1  0.0000000  0.6508444  3
    473    483    486    488     1  0.0000000  0.6508444  3
    474    473    483    484     1  0.0000000  1.2552000  3
    474    473    483    485     1  0.0000000  1.2552000  3
    475    474    473    483     1  0.0000000  1.2552000  3
    475    474    477    480     1  0.0000000  0.6508444  3
    475    474    477    478     1  0.0000000  0.6508444  3
    475    474    477    479     1  0.0000000  0.6508444  3
    476    474    473    483     1  0.0000000  1.2552000  3
    476    474    477    480     1  0.0000000  0.6508444  3
    476    474    477    478     1  0.0000000  0.6508444  3
    476    474    477    479     1  0.0000000  0.6508444  3
    478    477    480    481     1  0.0000000  3.3472000  1
    478    477    480    481     1  0.0000000  0.0000000  2
    478    477    480    481     1  180.0000771  0.3347200  3
    478    477    480    482     1  0.0000000  3.3472000  1
    478    477    480    482     1  0.0000000  0.0000000  2
    478    477    480    482     1  180.0000771  0.3347200  3
    479    477    480    481     1  0.0000000  3.3472000  1
    479    477    480    481     1  0.0000000  0.0000000  2
    479    477    480    481     1  180.0000771  0.3347200  3
    479    477    480    482     1  0.0000000  3.3472000  1
    479    477    480    482     1  0.0000000  0.0000000  2
    479    477    480    482     1  180.0000771  0.3347200  3
    484    483    486    489     1  0.0000000  0.6508444  3
    484    483    486    487     1  0.0000000  0.6508444  3
    484    483    486    488     1  0.0000000  0.6508444  3
    485    483    486    489     1  0.0000000  0.6508444  3
    485    483    486    487     1  0.0000000  0.6508444  3
    485    483    486    488     1  0.0000000  0.6508444  3
    487    486    489    490     1  0.0000000  3.3472000  1
    487    486    489    490     1  0.0000000  0.0000000  2
    487    486    489    490     1  180.0000771  0.3347200  3
    487    486    489    491     1  0.0000000  3.3472000  1
    487    486    489    491     1  0.0000000  0.0000000  2
    487    486    489    491     1  180.0000771  0.3347200  3
    488    486    489    490     1  0.0000000  3.3472000  1
    488    486    489    490     1  0.0000000  0.0000000  2
    488    486    489    490     1  180.0000771  0.3347200  3
    488    486    489    491     1  0.0000000  3.3472000  1
    488    486    489    491     1  0.0000000  0.0000000  2
    488    486    489    491     1  180.0000771  0.3347200  3
    493    496    499    500     1  0.0000000  0.6508444  3
    493    496    499    501     1  0.0000000  0.6508444  3
    494    493    496    499     1  0.0000000  0.6508444  3
    494    493    496    497     1  0.0000000  0.6508444  3
    494    493    496    498     1  0.0000000  0.6508444  3
    495    493    496    499     1  0.0000000  0.6508444  3
    495    493    496    497     1  0.0000000  0.6508444  3
    495    493    496    498     1  0.0000000  0.6508444  3
    497    496    499    502     1  0.0000000  0.6508444  3
    497    496    499    500     1  0.0000000  0.6508444  3
    497    496    499    501     1  0.0000000  0.6508444  3
    497    496    493    521     1  0.0000000  1.0460000  1
    497    496    493    521     1  0.0000000  0.0000000  3
    498    496    499    502     1  0.0000000  0.6508444  3
    498    496    499    500     1  0.0000000  0.6508444  3
    498    496    499    501     1  0.0000000  0.6508444  3
    498    496    493    521     1  0.0000000  1.0460000  1
    498    496    493    521     1  0.0000000  0.0000000  3
    499    502    503    504     1  0.0000000  1.2552000  3
    499    502    503    505     1  0.0000000  1.2552000  3
    499    502    512    513     1  0.0000000  1.2552000  3
    499    502    512    514     1  0.0000000  1.2552000  3
    500    499    502    503     1  0.0000000  1.2552000  3
    500    499    502    512     1  0.0000000  1.2552000  3
    501    499    502    503     1  0.0000000  1.2552000  3
    501    499    502    512     1  0.0000000  1.2552000  3
    502    503    506    507     1  0.0000000  0.6508444  3
    502    503    506    508     1  0.0000000  0.6508444  3
    502    512    515    516     1  0.0000000  0.6508444  3
    502    512    515    517     1  0.0000000  0.6508444  3
    503    502    512    513     1  0.0000000  1.2552000  3
    503    502    512    514     1  0.0000000  1.2552000  3
    504    503    506    509     1  0.0000000  0.6508444  3
    504    503    506    507     1  0.0000000  0.6508444  3
    504    503    506    508     1  0.0000000  0.6508444  3
    504    503    502    512     1  0.0000000  1.2552000  3
    505    503    506    509     1  0.0000000  0.6508444  3
    505    503    506    507     1  0.0000000  0.6508444  3
    505    503    506    508     1  0.0000000  0.6508444  3
    505    503    502    512     1  0.0000000  1.2552000  3
    507    506    509    510     1  0.0000000  3.3472000  1
    507    506    509    510     1  0.0000000  0.0000000  2
    507    506    509    510     1  180.0000771  0.3347200  3
    507    506    509    511     1  0.0000000  3.3472000  1
    507    506    509    511     1  0.0000000  0.0000000  2
    507    506    509    511     1  180.0000771  0.3347200  3
    508    506    509    510     1  0.0000000  3.3472000  1
    508    506    509    510     1  0.0000000  0.0000000  2
    508    506    509    510     1  180.0000771  0.3347200  3
    508    506    509    511     1  0.0000000  3.3472000  1
    508    506    509    511     1  0.0000000  0.0000000  2
    508    506    509    511     1  180.0000771  0.3347200  3
    513    512    515    518     1  0.0000000  0.6508444  3
    513    512    515    516     1  0.0000000  0.6508444  3
    513    512    515    517     1  0.0000000  0.6508444  3
    514    512    515    518     1  0.0000000  0.6508444  3
    514    512    515    516     1  0.0000000  0.6508444  3
    514    512    515    517     1  0.0000000  0.6508444  3
    516    515    518    519     1  0.0000000  3.3472000  1
    516    515    518    519     1  0.0000000  0.0000000  2
    516    515    518    519     1  180.0000771  0.3347200  3
    516    515    518    520     1  0.0000000  3.3472000  1
    516    515    518    520     1  0.0000000  0.0000000  2
    516    515    518    520     1  180.0000771  0.3347200  3
    517    515    518    519     1  0.0000000  3.3472000  1
    517    515    518    519     1  0.0000000  0.0000000  2
    517    515    518    519     1  180.0000771  0.3347200  3
    517    515    518    520     1  0.0000000  3.3472000  1
    517    515    518    520     1  0.0000000  0.0000000  2
    517    515    518    520     1  180.0000771  0.3347200  3
    522    525    528    529     1  0.0000000  0.6508444  3
    522    525    528    530     1  0.0000000  0.6508444  3
    523    522    525    528     1  0.0000000  0.6508444  3
    523    522    525    526     1  0.0000000  0.6508444  3
    523    522    525    527     1  0.0000000  0.6508444  3
    524    522    525    528     1  0.0000000  0.6508444  3
    524    522    525    526     1  0.0000000  0.6508444  3
    524    522    525    527     1  0.0000000  0.6508444  3
    526    525    522    550     1  0.0000000  1.0460000  1
    526    525    522    550     1  0.0000000  0.0000000  3
    526    525    528    531     1  0.0000000  0.6508444  3
    526    525    528    529     1  0.0000000  0.6508444  3
    526    525    528    530     1  0.0000000  0.6508444  3
    527    525    522    550     1  0.0000000  1.0460000  1
    527    525    522    550     1  0.0000000  0.0000000  3
    527    525    528    531     1  0.0000000  0.6508444  3
    527    525    528    529     1  0.0000000  0.6508444  3
    527    525    528    530     1  0.0000000  0.6508444  3
    528    531    532    533     1  0.0000000  1.2552000  3
    528    531    532    534     1  0.0000000  1.2552000  3
    528    531    541    542     1  0.0000000  1.2552000  3
    528    531    541    543     1  0.0000000  1.2552000  3
    529    528    531    532     1  0.0000000  1.2552000  3
    529    528    531    541     1  0.0000000  1.2552000  3
    530    528    531    532     1  0.0000000  1.2552000  3
    530    528    531    541     1  0.0000000  1.2552000  3
    531    532    535    536     1  0.0000000  0.6508444  3
    531    532    535    537     1  0.0000000  0.6508444  3
    531    541    544    545     1  0.0000000  0.6508444  3
    531    541    544    546     1  0.0000000  0.6508444  3
    532    531    541    542     1  0.0000000  1.2552000  3
    532    531    541    543     1  0.0000000  1.2552000  3
    533    532    531    541     1  0.0000000  1.2552000  3
    533    532    535    538     1  0.0000000  0.6508444  3
    533    532    535    536     1  0.0000000  0.6508444  3
    533    532    535    537     1  0.0000000  0.6508444  3
    534    532    531    541     1  0.0000000  1.2552000  3
    534    532    535    538     1  0.0000000  0.6508444  3
    534    532    535    536     1  0.0000000  0.6508444  3
    534    532    535    537     1  0.0000000  0.6508444  3
    536    535    538    539     1  0.0000000  3.3472000  1
    536    535    538    539     1  0.0000000  0.0000000  2
    536    535    538    539     1  180.0000771  0.3347200  3
    536    535    538    540     1  0.0000000  3.3472000  1
    536    535    538    540     1  0.0000000  0.0000000  2
    536    535    538    540     1  180.0000771  0.3347200  3
    537    535    538    539     1  0.0000000  3.3472000  1
    537    535    538    539     1  0.0000000  0.0000000  2
    537    535    538    539     1  180.0000771  0.3347200  3
    537    535    538    540     1  0.0000000  3.3472000  1
    537    535    538    540     1  0.0000000  0.0000000  2
    537    535    538    540     1  180.0000771  0.3347200  3
    542    541    544    547     1  0.0000000  0.6508444  3
    542    541    544    545     1  0.0000000  0.6508444  3
    542    541    544    546     1  0.0000000  0.6508444  3
    543    541    544    547     1  0.0000000  0.6508444  3
    543    541    544    545     1  0.0000000  0.6508444  3
    543    541    544    546     1  0.0000000  0.6508444  3
    545    544    547    548     1  0.0000000  3.3472000  1
    545    544    547    548     1  0.0000000  0.0000000  2
    545    544    547    548     1  180.0000771  0.3347200  3
    545    544    547    549     1  0.0000000  3.3472000  1
    545    544    547    549     1  0.0000000  0.0000000  2
    545    544    547    549     1  180.0000771  0.3347200  3
    546    544    547    548     1  0.0000000  3.3472000  1
    546    544    547    548     1  0.0000000  0.0000000  2
    546    544    547    548     1  180.0000771  0.3347200  3
    546    544    547    549     1  0.0000000  3.3472000  1
    546    544    547    549     1  0.0000000  0.0000000  2
    546    544    547    549     1  180.0000771  0.3347200  3
    551    554    557    558     1  0.0000000  0.6508444  3
    551    554    557    559     1  0.0000000  0.6508444  3
    552    551    554    557     1  0.0000000  0.6508444  3
    552    551    554    555     1  0.0000000  0.6508444  3
    552    551    554    556     1  0.0000000  0.6508444  3
    553    551    554    557     1  0.0000000  0.6508444  3
    553    551    554    555     1  0.0000000  0.6508444  3
    553    551    554    556     1  0.0000000  0.6508444  3
    555    554    557    560     1  0.0000000  0.6508444  3
    555    554    557    558     1  0.0000000  0.6508444  3
    555    554    557    559     1  0.0000000  0.6508444  3
    555    554    551    579     1  0.0000000  1.0460000  1
    555    554    551    579     1  0.0000000  0.0000000  3
    556    554    557    560     1  0.0000000  0.6508444  3
    556    554    557    558     1  0.0000000  0.6508444  3
    556    554    557    559     1  0.0000000  0.6508444  3
    556    554    551    579     1  0.0000000  1.0460000  1
    556    554    551    579     1  0.0000000  0.0000000  3
    557    560    561    562     1  0.0000000  1.2552000  3
    557    560    561    563     1  0.0000000  1.2552000  3
    557    560    570    571     1  0.0000000  1.2552000  3
    557    560    570    572     1  0.0000000  1.2552000  3
    558    557    560    561     1  0.0000000  1.2552000  3
    558    557    560    570     1  0.0000000  1.2552000  3
    559    557    560    561     1  0.0000000  1.2552000  3
    559    557    560    570     1  0.0000000  1.2552000  3
    560    561    564    565     1  0.0000000  0.6508444  3
    560    561    564    566     1  0.0000000  0.6508444  3
    560    570    573    574     1  0.0000000  0.6508444  3
    560    570    573    575     1  0.0000000  0.6508444  3
    561    560    570    571     1  0.0000000  1.2552000  3
    561    560    570    572     1  0.0000000  1.2552000  3
    562    561    564    567     1  0.0000000  0.6508444  3
    562    561    564    565     1  0.0000000  0.6508444  3
    562    561    564    566     1  0.0000000  0.6508444  3
    562    561    560    570     1  0.0000000  1.2552000  3
    563    561    564    567     1  0.0000000  0.6508444  3
    563    561    564    565     1  0.0000000  0.6508444  3
    563    561    564    566     1  0.0000000  0.6508444  3
    563    561    560    570     1  0.0000000  1.2552000  3
    565    564    567    568     1  0.0000000  3.3472000  1
    565    564    567    568     1  0.0000000  0.0000000  2
    565    564    567    568     1  180.0000771  0.3347200  3
    565    564    567    569     1  0.0000000  3.3472000  1
    565    564    567    569     1  0.0000000  0.0000000  2
    565    564    567    569     1  180.0000771  0.3347200  3
    566    564    567    568     1  0.0000000  3.3472000  1
    566    564    567    568     1  0.0000000  0.0000000  2
    566    564    567    568     1  180.0000771  0.3347200  3
    566    564    567    569     1  0.0000000  3.3472000  1
    566    564    567    569     1  0.0000000  0.0000000  2
    566    564    567    569     1  180.0000771  0.3347200  3
    571    570    573    576     1  0.0000000  0.6508444  3
    571    570    573    574     1  0.0000000  0.6508444  3
    571    570    573    575     1  0.0000000  0.6508444  3
    572    570    573    576     1  0.0000000  0.6508444  3
    572    570    573    574     1  0.0000000  0.6508444  3
    572    570    573    575     1  0.0000000  0.6508444  3
    574    573    576    577     1  0.0000000  3.3472000  1
    574    573    576    577     1  0.0000000  0.0000000  2
    574    573    576    577     1  180.0000771  0.3347200  3
    574    573    576    578     1  0.0000000  3.3472000  1
    574    573    576    578     1  0.0000000  0.0000000  2
    574    573    576    578     1  180.0000771  0.3347200  3
    575    573    576    577     1  0.0000000  3.3472000  1
    575    573    576    577     1  0.0000000  0.0000000  2
    575    573    576    577     1  180.0000771  0.3347200  3
    575    573    576    578     1  0.0000000  3.3472000  1
    575    573    576    578     1  0.0000000  0.0000000  2
    575    573    576    578     1  180.0000771  0.3347200  3
    580    583    586    587     1  0.0000000  0.6508444  3
    580    583    586    588     1  0.0000000  0.6508444  3
    581    580    583    586     1  0.0000000  0.6508444  3
    581    580    583    584     1  0.0000000  0.6508444  3
    581    580    583    585     1  0.0000000  0.6508444  3
    582    580    583    586     1  0.0000000  0.6508444  3
    582    580    583    584     1  0.0000000  0.6508444  3
    582    580    583    585     1  0.0000000  0.6508444  3
    584    583    580    608     1  0.0000000  1.0460000  1
    584    583    580    608     1  0.0000000  0.0000000  3
    584    583    586    589     1  0.0000000  0.6508444  3
    584    583    586    587     1  0.0000000  0.6508444  3
    584    583    586    588     1  0.0000000  0.6508444  3
    585    583    580    608     1  0.0000000  1.0460000  1
    585    583    580    608     1  0.0000000  0.0000000  3
    585    583    586    589     1  0.0000000  0.6508444  3
    585    583    586    587     1  0.0000000  0.6508444  3
    585    583    586    588     1  0.0000000  0.6508444  3
    586    589    590    591     1  0.0000000  1.2552000  3
    586    589    590    592     1  0.0000000  1.2552000  3
    586    589    599    600     1  0.0000000  1.2552000  3
    586    589    599    601     1  0.0000000  1.2552000  3
    587    586    589    590     1  0.0000000  1.2552000  3
    587    586    589    599     1  0.0000000  1.2552000  3
    588    586    589    590     1  0.0000000  1.2552000  3
    588    586    589    599     1  0.0000000  1.2552000  3
    589    590    593    594     1  0.0000000  0.6508444  3
    589    590    593    595     1  0.0000000  0.6508444  3
    589    599    602    603     1  0.0000000  0.6508444  3
    589    599    602    604     1  0.0000000  0.6508444  3
    590    589    599    600     1  0.0000000  1.2552000  3
    590    589    599    601     1  0.0000000  1.2552000  3
    591    590    589    599     1  0.0000000  1.2552000  3
    591    590    593    596     1  0.0000000  0.6508444  3
    591    590    593    594     1  0.0000000  0.6508444  3
    591    590    593    595     1  0.0000000  0.6508444  3
    592    590    589    599     1  0.0000000  1.2552000  3
    592    590    593    596     1  0.0000000  0.6508444  3
    592    590    593    594     1  0.0000000  0.6508444  3
    592    590    593    595     1  0.0000000  0.6508444  3
    594    593    596    597     1  0.0000000  3.3472000  1
    594    593    596    597     1  0.0000000  0.0000000  2
    594    593    596    597     1  180.0000771  0.3347200  3
    594    593    596    598     1  0.0000000  3.3472000  1
    594    593    596    598     1  0.0000000  0.0000000  2
    594    593    596    598     1  180.0000771  0.3347200  3
    595    593    596    597     1  0.0000000  3.3472000  1
    595    593    596    597     1  0.0000000  0.0000000  2
    595    593    596    597     1  180.0000771  0.3347200  3
    595    593    596    598     1  0.0000000  3.3472000  1
    595    593    596    598     1  0.0000000  0.0000000  2
    595    593    596    598     1  180.0000771  0.3347200  3
    600    599    602    605     1  0.0000000  0.6508444  3
    600    599    602    603     1  0.0000000  0.6508444  3
    600    599    602    604     1  0.0000000  0.6508444  3
    601    599    602    605     1  0.0000000  0.6508444  3
    601    599    602    603     1  0.0000000  0.6508444  3
    601    599    602    604     1  0.0000000  0.6508444  3
    603    602    605    606     1  0.0000000  3.3472000  1
    603    602    605    606     1  0.0000000  0.0000000  2
    603    602    605    606     1  180.0000771  0.3347200  3
    603    602    605    607     1  0.0000000  3.3472000  1
    603    602    605    607     1  0.0000000  0.0000000  2
    603    602    605    607     1  180.0000771  0.3347200  3
    604    602    605    606     1  0.0000000  3.3472000  1
    604    602    605    606     1  0.0000000  0.0000000  2
    604    602    605    606     1  180.0000771  0.3347200  3
    604    602    605    607     1  0.0000000  3.3472000  1
    604    602    605    607     1  0.0000000  0.0000000  2
    604    602    605    607     1  180.0000771  0.3347200  3
    609    612    615    616     1  0.0000000  0.6508444  3
    609    612    615    617     1  0.0000000  0.6508444  3
    610    609    612    615     1  0.0000000  0.6508444  3
    610    609    612    613     1  0.0000000  0.6508444  3
    610    609    612    614     1  0.0000000  0.6508444  3
    611    609    612    615     1  0.0000000  0.6508444  3
    611    609    612    613     1  0.0000000  0.6508444  3
    611    609    612    614     1  0.0000000  0.6508444  3
    613    612    615    618     1  0.0000000  0.6508444  3
    613    612    615    616     1  0.0000000  0.6508444  3
    613    612    615    617     1  0.0000000  0.6508444  3
    613    612    609    637     1  0.0000000  1.0460000  1
    613    612    609    637     1  0.0000000  0.0000000  3
    614    612    615    618     1  0.0000000  0.6508444  3
    614    612    615    616     1  0.0000000  0.6508444  3
    614    612    615    617     1  0.0000000  0.6508444  3
    614    612    609    637     1  0.0000000  1.0460000  1
    614    612    609    637     1  0.0000000  0.0000000  3
    615    618    619    620     1  0.0000000  1.2552000  3
    615    618    619    621     1  0.0000000  1.2552000  3
    615    618    628    629     1  0.0000000  1.2552000  3
    615    618    628    630     1  0.0000000  1.2552000  3
    616    615    618    619     1  0.0000000  1.2552000  3
    616    615    618    628     1  0.0000000  1.2552000  3
    617    615    618    619     1  0.0000000  1.2552000  3
    617    615    618    628     1  0.0000000  1.2552000  3
    618    619    622    623     1  0.0000000  0.6508444  3
    618    619    622    624     1  0.0000000  0.6508444  3
    618    628    631    632     1  0.0000000  0.6508444  3
    618    628    631    633     1  0.0000000  0.6508444  3
    619    618    628    629     1  0.0000000  1.2552000  3
    619    618    628    630     1  0.0000000  1.2552000  3
    620    619    622    625     1  0.0000000  0.6508444  3
    620    619    622    623     1  0.0000000  0.6508444  3
    620    619    622    624     1  0.0000000  0.6508444  3
    620    619    618    628     1  0.0000000  1.2552000  3
    621    619    622    625     1  0.0000000  0.6508444  3
    621    619    622    623     1  0.0000000  0.6508444  3
    621    619    622    624     1  0.0000000  0.6508444  3
    621    619    618    628     1  0.0000000  1.2552000  3
    623    622    625    626     1  0.0000000  3.3472000  1
    623    622    625    626     1  0.0000000  0.0000000  2
    623    622    625    626     1  180.0000771  0.3347200  3
    623    622    625    627     1  0.0000000  3.3472000  1
    623    622    625    627     1  0.0000000  0.0000000  2
    623    622    625    627     1  180.0000771  0.3347200  3
    624    622    625    626     1  0.0000000  3.3472000  1
    624    622    625    626     1  0.0000000  0.0000000  2
    624    622    625    626     1  180.0000771  0.3347200  3
    624    622    625    627     1  0.0000000  3.3472000  1
    624    622    625    627     1  0.0000000  0.0000000  2
    624    622    625    627     1  180.0000771  0.3347200  3
    629    628    631    634     1  0.0000000  0.6508444  3
    629    628    631    632     1  0.0000000  0.6508444  3
    629    628    631    633     1  0.0000000  0.6508444  3
    630    628    631    634     1  0.0000000  0.6508444  3
    630    628    631    632     1  0.0000000  0.6508444  3
    630    628    631    633     1  0.0000000  0.6508444  3
    632    631    634    635     1  0.0000000  3.3472000  1
    632    631    634    635     1  0.0000000  0.0000000  2
    632    631    634    635     1  180.0000771  0.3347200  3
    632    631    634    636     1  0.0000000  3.3472000  1
    632    631    634    636     1  0.0000000  0.0000000  2
    632    631    634    636     1  180.0000771  0.3347200  3
    633    631    634    635     1  0.0000000  3.3472000  1
    633    631    634    635     1  0.0000000  0.0000000  2
    633    631    634    635     1  180.0000771  0.3347200  3
    633    631    634    636     1  0.0000000  3.3472000  1
    633    631    634    636     1  0.0000000  0.0000000  2
    633    631    634    636     1  180.0000771  0.3347200  3

;[ system ]
;; Name
;Generic title
;
;[ molecules ]
;; Compound       #mols
;g2.5Ncore_coo-peti    1
